/*--------------------------------*- C++ -*----------------------------------*\
  =========                 |
  \\      /  F ield         | OpenFOAM: The Open Source CFD Toolbox
   \\    /   O peration     | Website:  https://openfoam.org
    \\  /    A nd           | Version:  13
     \\/     M anipulation  |
\*---------------------------------------------------------------------------*/
FoamFile
{
    format      ascii;
    class       volScalarField;
    location    "1.95";
    object      p;
}
// * * * * * * * * * * * * * * * * * * * * * * * * * * * * * * * * * * * * * //

dimensions      [0 2 -2 0 0 0 0];

internalField   nonuniform List<scalar> 
1800
(
-1.56952
-1.56223
-1.55276
-1.54217
-1.53455
-1.5329
-1.53834
-1.55063
-1.56566
-1.59404
-1.60253
-1.5943
-1.58528
-1.57606
-1.56903
-1.5656
-1.56537
-1.56663
-1.56683
-1.57093
-1.65496
-1.64523
-1.63574
-1.6267
-1.61868
-1.61106
-1.60206
-1.58967
-1.57341
-1.55476
-1.72421
-1.71253
-1.70142
-1.69053
-1.67822
-1.66211
-1.64024
-1.612
-1.5778
-1.54059
-1.80861
-1.79486
-1.78107
-1.76555
-1.74446
-1.7151
-1.67698
-1.63155
-1.58142
-1.53017
-1.9051
-1.88939
-1.87108
-1.84688
-1.8119
-1.76508
-1.70868
-1.64648
-1.58192
-1.51825
-2.00716
-1.98952
-1.96404
-1.92638
-1.873
-1.80605
-1.73108
-1.65336
-1.57663
-1.50365
-2.10516
-2.08508
-2.04922
-1.99391
-1.91904
-1.83131
-1.73873
-1.64697
-1.55916
-1.47698
-2.18713
-2.16353
-2.11448
-2.03876
-1.94168
-1.83448
-1.72645
-1.6228
-1.52589
-1.43657
-2.24064
-2.21221
-2.14832
-2.0514
-1.93368
-1.80974
-1.68894
-1.57553
-1.47088
-1.37503
-0.931539
-0.938196
-0.946328
-0.956257
-0.968344
-0.981225
-0.993306
-1.00271
-1.00553
-0.997103
-1.07028
-1.0756
-1.08276
-1.09302
-1.1068
-1.12245
-1.13808
-1.15163
-1.1588
-1.15325
-1.22237
-1.22606
-1.232
-1.24302
-1.2593
-1.27883
-1.29928
-1.31845
-1.33214
-1.33253
-1.36508
-1.36695
-1.3709
-1.38287
-1.40184
-1.42544
-1.45088
-1.47565
-1.49637
-1.50468
-1.47733
-1.47611
-1.47867
-1.49019
-1.51014
-1.53614
-1.56493
-1.59347
-1.61903
-1.63265
-1.54735
-1.54263
-1.54202
-1.55042
-1.56786
-1.59253
-1.6215
-1.65153
-1.67901
-1.69538
-1.57609
-1.5685
-1.56365
-1.56592
-1.57647
-1.59495
-1.61949
-1.64705
-1.67372
-1.69028
-1.57584
-1.56706
-1.55856
-1.55371
-1.5551
-1.56434
-1.5813
-1.60385
-1.62847
-1.64489
-1.56435
-1.55595
-1.54571
-1.53592
-1.53041
-1.53241
-1.54325
-1.56141
-1.58418
-1.59754
-1.55822
-1.55052
-1.54031
-1.5289
-1.52072
-1.51949
-1.52691
-1.54226
-1.56077
-1.56967
-0.870528
-0.17193
0.00141346
0.114854
0.101529
0.0796074
0.0584058
0.0398878
0.0231388
0.00783192
-0.986483
-0.22709
-0.0191601
0.10597
0.0972863
0.0768438
0.0564042
0.0384739
0.0222997
0.00750429
-1.13385
-0.297667
-0.0475544
0.0922481
0.0911789
0.0731327
0.053889
0.0367919
0.0213327
0.00713505
-1.29031
-0.373771
-0.0827688
0.0737463
0.0830481
0.0684113
0.0508342
0.0348278
0.0202295
0.00672253
-1.43514
-0.45137
-0.122754
0.0507712
0.0727114
0.0626143
0.047218
0.0325701
0.0189833
0.00626595
-1.55713
-0.52916
-0.165444
0.0237545
0.0600346
0.0556876
0.0430276
0.0300121
0.0175906
0.00576568
-1.64239
-0.608537
-0.209879
-0.00655688
0.0450002
0.0475995
0.0382602
0.0271549
0.0160534
0.00522469
-1.683
-0.689899
-0.255794
-0.039254
0.0277398
0.038332
0.0329031
0.0239964
0.0143747
0.00464985
-1.67626
-0.768879
-0.302668
-0.0731944
0.00859493
0.0278877
0.0269093
0.020506
0.0125391
0.00404617
-1.62597
-0.840455
-0.349356
-0.106811
-0.0116152
0.016486
0.0203063
0.0166618
0.0105167
0.00341006
-1.50432
-0.834366
-0.366737
-0.132643
-0.0330783
0.00220409
0.0113818
0.0112732
0.00763559
0.00253056
-1.26717
-0.7609
-0.363938
-0.153652
-0.0563204
-0.0150863
0.00012027
0.00432796
0.00396486
0.00136232
-1.09725
-0.705328
-0.366088
-0.169289
-0.0737832
-0.0291659
-0.00961402
-0.00186681
0.00063323
0.000304297
-0.966292
-0.657136
-0.369569
-0.189541
-0.0954383
-0.0456821
-0.020329
-0.00833971
-0.00273359
-0.000775657
-0.867231
-0.624055
-0.378497
-0.208508
-0.112672
-0.0589936
-0.0294284
-0.014016
-0.00572153
-0.00172281
-0.790068
-0.601089
-0.391382
-0.230851
-0.131784
-0.0728096
-0.0383626
-0.0193614
-0.00845132
-0.00257157
-0.729949
-0.58907
-0.410242
-0.255209
-0.149632
-0.084665
-0.0458469
-0.0237954
-0.0106835
-0.00323662
-0.685981
-0.58635
-0.432145
-0.279597
-0.166235
-0.0949646
-0.0521733
-0.0274158
-0.0124244
-0.00370878
-0.66085
-0.59078
-0.448728
-0.295333
-0.176395
-0.100885
-0.0556649
-0.0291367
-0.0132725
-0.00388365
-0.647516
-0.594886
-0.457236
-0.302523
-0.181906
-0.104393
-0.0579714
-0.0304586
-0.0139674
-0.00408669
-1.20988
-1.27877
-1.32915
-1.3695
-1.39733
-1.42795
-1.45479
-1.50107
-1.53716
-1.60434
-1.02333
-1.09514
-1.15102
-1.19836
-1.23364
-1.26717
-1.29226
-1.31984
-1.34396
-1.37728
-0.875866
-0.945472
-1.00315
-1.05065
-1.08821
-1.11775
-1.14041
-1.15765
-1.17391
-1.18871
-0.755809
-0.822559
-0.879469
-0.925515
-0.962782
-0.990346
-1.01174
-1.02628
-1.03846
-1.04721
-0.659092
-0.72288
-0.77751
-0.822072
-0.858078
-0.885236
-0.905709
-0.919633
-0.929006
-0.933982
-0.581414
-0.64235
-0.69448
-0.737435
-0.771952
-0.798393
-0.817733
-0.830711
-0.838175
-0.840941
-0.519922
-0.57834
-0.628262
-0.669357
-0.702261
-0.727262
-0.745317
-0.756991
-0.763321
-0.76496
-0.473673
-0.530097
-0.578295
-0.617515
-0.648816
-0.671942
-0.688744
-0.698816
-0.70438
-0.704597
-0.445759
-0.501284
-0.548184
-0.586155
-0.616435
-0.638409
-0.65426
-0.662865
-0.66773
-0.666212
-0.432792
-0.4886
-0.535954
-0.574829
-0.605328
-0.627853
-0.643355
-0.651885
-0.655554
-0.651654
0.338491
0.266259
0.183515
0.0948628
-0.000975214
-0.10644
-0.221469
-0.339676
-0.439307
-0.488312
0.124091
0.0455702
-0.0420113
-0.137901
-0.243966
-0.361902
-0.490646
-0.622123
-0.731821
-0.784618
-0.111274
-0.19334
-0.284158
-0.384945
-0.49788
-0.624306
-0.762574
-0.90337
-1.02022
-1.07491
-0.338529
-0.424884
-0.520806
-0.627825
-0.747835
-0.881865
-1.02793
-1.17579
-1.29732
-1.3518
-0.546433
-0.63832
-0.740636
-0.854647
-0.981924
-1.12333
-1.2764
-1.43013
-1.55161
-1.60546
-0.734504
-0.832014
-0.940428
-1.0608
-1.1944
-1.34167
-1.50071
-1.65428
-1.77341
-1.82629
-0.902788
-1.00491
-1.11807
-1.24303
-1.38103
-1.53188
-1.69062
-1.84177
-1.95611
-2.00625
-1.05284
-1.15743
-1.27244
-1.3989
-1.53776
-1.68805
-1.84349
-1.98797
-2.09367
-2.13942
-1.18432
-1.2877
-1.40125
-1.526
-1.66225
-1.808
-1.9557
-2.08853
-2.18214
-2.22237
-1.29236
-1.39265
-1.50263
-1.62294
-1.7531
-1.89
-2.02494
-2.1415
-2.22071
-2.25491
1.7499
1.76407
1.77867
1.79258
1.80497
1.81515
1.82245
1.82687
1.8305
1.83465
1.67335
1.68439
1.69512
1.70452
1.71188
1.71652
1.71776
1.71589
1.71405
1.71492
1.57612
1.5831
1.58882
1.59241
1.59335
1.59096
1.58455
1.57475
1.56593
1.56279
1.45967
1.46204
1.46174
1.4582
1.45121
1.44006
1.42414
1.40447
1.38695
1.37911
1.32377
1.32057
1.31331
1.30177
1.28595
1.26512
1.23865
1.208
1.18067
1.16761
1.17189
1.16295
1.14782
1.1269
1.10068
1.06846
1.02974
0.986552
0.948257
0.929248
1.00418
0.988936
0.965778
0.93545
0.898579
0.854432
0.802622
0.745877
0.69576
0.670499
0.829229
0.806675
0.773389
0.731367
0.681909
0.624346
0.55838
0.487393
0.425159
0.393534
0.652014
0.621957
0.577973
0.523342
0.460011
0.38739
0.305458
0.218641
0.14342
0.10543
0.486832
0.439168
0.377703
0.307276
0.228909
0.141018
0.0433584
-0.0588112
-0.146342
-0.190145
1.50009
1.47185
1.47176
1.46859
1.4655
1.47535
1.49564
1.53238
1.59192
1.687
1.49297
1.46595
1.46589
1.46164
1.45743
1.46429
1.48132
1.51169
1.56032
1.63747
1.48639
1.46002
1.45988
1.45425
1.44875
1.45219
1.46555
1.48792
1.52311
1.57632
1.48034
1.45408
1.45377
1.44647
1.43948
1.43903
1.44838
1.46095
1.48071
1.50281
1.47479
1.4482
1.44756
1.43833
1.42963
1.42476
1.42988
1.43054
1.43377
1.41579
1.46974
1.44239
1.44128
1.42988
1.41919
1.4094
1.41003
1.39661
1.38256
1.31443
1.46519
1.43669
1.43494
1.42114
1.40816
1.39304
1.38874
1.35909
1.3272
1.19713
1.46118
1.43113
1.42854
1.41216
1.39652
1.37576
1.36586
1.3182
1.26743
1.06518
1.45773
1.42571
1.4221
1.40296
1.38431
1.35773
1.34121
1.27408
1.20157
0.91665
1.4549
1.42047
1.41562
1.39358
1.37168
1.33912
1.3157
1.22836
1.13226
0.763074
1.45205
1.41437
1.40734
1.3819
1.35481
1.31496
1.28079
1.1725
1.05247
0.616855
1.45049
1.40807
1.39816
1.36906
1.33612
1.28957
1.24264
1.12392
0.975853
0.588801
1.45089
1.40267
1.38931
1.35679
1.31803
1.26674
1.20686
1.08482
0.914779
0.574485
1.45386
1.39818
1.38075
1.34508
1.30047
1.24703
1.17401
1.05408
0.866152
0.569031
1.45994
1.39465
1.37233
1.33378
1.28334
1.23042
1.14433
1.03122
0.829186
0.568534
1.46982
1.39211
1.36444
1.32319
1.26704
1.21676
1.1188
1.01533
0.802322
0.567351
1.48312
1.389
1.35474
1.31113
1.25143
1.20554
1.09749
1.00427
0.783971
0.565759
1.50781
1.39043
1.34855
1.30136
1.23814
1.19665
1.08058
0.997013
0.772367
0.565115
1.51968
1.38207
1.33499
1.28917
1.22763
1.1904
1.06927
0.993361
0.767075
0.566752
1.59542
1.39511
1.33755
1.28492
1.22379
1.18734
1.06372
0.992504
0.764331
0.569902
0.321924
0.146025
-0.0621781
-0.263534
-0.446746
-0.612477
-0.763141
-0.90008
-1.02015
-1.12461
0.271219
0.132277
-0.0262585
-0.186222
-0.337067
-0.476953
-0.606911
-0.72817
-0.838812
-0.938737
0.257035
0.139435
0.0116242
-0.120681
-0.250239
-0.374058
-0.491405
-0.601648
-0.70342
-0.795136
0.271919
0.162542
0.047879
-0.0676062
-0.18143
-0.291944
-0.398049
-0.498651
-0.592723
-0.67863
0.291561
0.18815
0.08203
-0.0223681
-0.124479
-0.22453
-0.321967
-0.41577
-0.504316
-0.585752
0.31088
0.213023
0.113681
0.0170464
-0.076979
-0.169696
-0.26099
-0.349815
-0.434
-0.511676
0.328718
0.236076
0.142314
0.0511414
-0.0377608
-0.125815
-0.212934
-0.297948
-0.378577
-0.453065
0.344786
0.256855
0.167711
0.0801853
-0.00597212
-0.0916626
-0.176471
-0.25906
-0.337177
-0.409122
0.359239
0.275288
0.189767
0.104071
0.0183461
-0.0672597
-0.151672
-0.23344
-0.310664
-0.381881
0.371442
0.289882
0.205812
0.119596
0.0324628
-0.0542768
-0.139173
-0.220936
-0.297965
-0.369027
-1.16116
-1.12646
-1.05193
-0.957292
-0.860764
-0.772558
-0.69656
-0.633879
-0.584857
-0.549982
-1.20213
-1.17144
-1.10995
-1.03016
-0.946099
-0.867592
-0.799095
-0.742208
-0.697915
-0.667453
-1.18266
-1.15517
-1.10752
-1.04551
-0.977549
-0.911878
-0.853191
-0.803578
-0.764523
-0.737482
-1.1168
-1.09178
-1.05645
-1.0123
-0.96235
-0.912015
-0.8655
-0.825081
-0.792432
-0.768958
-1.02471
-1.00212
-0.976082
-0.946439
-0.912842
-0.87759
-0.84347
-0.812391
-0.785954
-0.764952
-0.927192
-0.907632
-0.887934
-0.867897
-0.846341
-0.823637
-0.801125
-0.779892
-0.761445
-0.746782
-0.839677
-0.824139
-0.808897
-0.794026
-0.7791
-0.76425
-0.749955
-0.736769
-0.72477
-0.713599
-0.769592
-0.758667
-0.747259
-0.735169
-0.722845
-0.711184
-0.701443
-0.693864
-0.690795
-0.691165
-0.716254
-0.70959
-0.701341
-0.69051
-0.678519
-0.667531
-0.659968
-0.658097
-0.660977
-0.676916
-0.679399
-0.675527
-0.667875
-0.656388
-0.643241
-0.631671
-0.62568
-0.630289
-0.64487
-0.687962
-0.669766
-0.665565
-0.656887
-0.643516
-0.628491
-0.616059
-0.610122
-0.614247
-0.629116
-0.650055
-0.688756
-0.682538
-0.673936
-0.663158
-0.652262
-0.644402
-0.642583
-0.649025
-0.665479
-0.687109
-0.717329
-0.710884
-0.705276
-0.701817
-0.701662
-0.706142
-0.716207
-0.732221
-0.754127
-0.776238
-0.738675
-0.734707
-0.733662
-0.737531
-0.746871
-0.761836
-0.782234
-0.807588
-0.836638
-0.861489
-0.74363
-0.743545
-0.746427
-0.754423
-0.767908
-0.786597
-0.809878
-0.837072
-0.867233
-0.890565
-0.733751
-0.737048
-0.742574
-0.751637
-0.76486
-0.781958
-0.802369
-0.825248
-0.848227
-0.867235
-0.721532
-0.727191
-0.734399
-0.743604
-0.755496
-0.769689
-0.785425
-0.801576
-0.815932
-0.826467
-0.723541
-0.730687
-0.739077
-0.748615
-0.759857
-0.772177
-0.784588
-0.795749
-0.803336
-0.805593
-0.754459
-0.762146
-0.771175
-0.781064
-0.792219
-0.803752
-0.814461
-0.822823
-0.826095
-0.822016
-0.823615
-0.831117
-0.839966
-0.849875
-0.861178
-0.872739
-0.883204
-0.890863
-0.892379
-0.884545
-0.799464
-0.632822
-0.358943
-0.102063
0.0356601
0.0644554
0.0587058
0.0448063
0.0276681
0.00980392
-0.876074
-0.59442
-0.272957
-0.0405449
0.0565579
0.0690635
0.0592645
0.0444216
0.0271994
0.0096093
-0.938479
-0.54897
-0.19453
0.00983426
0.0724745
0.0729393
0.0599958
0.0442166
0.0268325
0.00944366
-0.987088
-0.500463
-0.130368
0.0463415
0.0832731
0.0760948
0.060754
0.0440703
0.0265063
0.00928788
-0.982899
-0.438303
-0.0802118
0.0714919
0.0909702
0.0787302
0.0613839
0.0438895
0.0261803
0.00913169
-0.925546
-0.353337
-0.0389851
0.0905716
0.0969071
0.0807851
0.0617839
0.0436265
0.0258337
0.00896902
-0.844947
-0.258441
-0.00786309
0.104959
0.101207
0.0821278
0.0618808
0.0432425
0.0254465
0.00879279
-0.788223
-0.184593
0.0108305
0.114354
0.103828
0.0827054
0.0616271
0.0427039
0.0249995
0.00859637
-0.770674
-0.146179
0.0174342
0.118902
0.104764
0.0824978
0.0609856
0.0419816
0.0244759
0.008374
-0.797562
-0.14287
0.0138431
0.119089
0.104007
0.0814772
0.0599225
0.0410505
0.0238602
0.00812063
-0.534402
-0.59991
-0.503768
-0.218111
-0.0201211
0.0486939
0.0565781
0.0453785
0.0285291
0.0102121
-0.526635
-0.596454
-0.511678
-0.223539
-0.0193271
0.0496072
0.056748
0.0452992
0.0283938
0.0101477
-0.562331
-0.608035
-0.513472
-0.223692
-0.0161494
0.0508837
0.0567106
0.0450803
0.0282184
0.0100827
-0.636887
-0.625371
-0.494955
-0.210569
-0.00657066
0.0536616
0.0569125
0.0449273
0.0280811
0.0100203
-0.729444
-0.641033
-0.432179
-0.158941
0.0135288
0.0592458
0.0580211
0.045052
0.0280221
0.0099725
-0.516653
-0.629587
-0.703783
-0.741204
-0.751271
-0.732048
-0.720277
-0.674073
-0.64446
-0.59897
-0.517046
-0.631553
-0.704052
-0.740071
-0.744955
-0.726481
-0.712556
-0.662266
-0.641884
-0.591064
-0.519044
-0.634568
-0.705674
-0.740915
-0.7397
-0.728328
-0.701035
-0.668882
-0.648829
-0.616552
-0.52426
-0.64122
-0.71184
-0.745982
-0.74158
-0.733993
-0.697117
-0.686856
-0.668152
-0.684632
-0.533449
-0.65225
-0.722888
-0.755213
-0.751058
-0.738066
-0.704465
-0.696579
-0.682266
-0.751961
1.49412
1.48618
1.47181
1.45389
1.4333
1.40907
1.38061
1.34972
1.32407
1.31267
1.57906
1.58233
1.57936
1.5721
1.56168
1.54767
1.52964
1.50906
1.49206
1.4851
1.66028
1.66818
1.67157
1.67174
1.66952
1.66451
1.65619
1.64539
1.63654
1.63376
1.72988
1.74178
1.75105
1.75813
1.7633
1.76605
1.76575
1.76285
1.76053
1.76146
1.7873
1.80225
1.81557
1.82736
1.83764
1.84588
1.85147
1.85457
1.85739
1.86122
1.8281
1.84497
1.86139
1.877
1.89148
1.90426
1.91466
1.92255
1.92934
1.93555
1.85184
1.86993
1.88828
1.90624
1.92323
1.93868
1.9519
1.96261
1.97181
1.97948
1.8565
1.87489
1.89405
1.91309
1.93125
1.9479
1.96237
1.97429
1.98447
1.99272
1.84142
1.85931
1.87814
1.89687
1.91464
1.93082
1.94471
1.95599
1.9656
1.97348
1.806
1.8225
1.83982
1.85684
1.87269
1.88671
1.89821
1.90699
1.91442
1.92092
-0.384611
-0.425338
-0.478959
-0.54597
-0.627028
-0.721523
-0.826428
-0.931652
-1.01629
-1.05488
-0.177997
-0.224164
-0.282005
-0.352213
-0.435869
-0.533141
-0.642885
-0.754743
-0.846262
-0.887329
0.0576174
0.00661206
-0.054926
-0.127392
-0.212027
-0.309516
-0.418513
-0.530587
-0.627828
-0.669751
0.3031
0.248975
0.185571
0.112788
0.0294655
-0.0652276
-0.170268
-0.27927
-0.372909
-0.416251
0.539879
0.48542
0.423113
0.353032
0.274104
0.185276
0.0871192
-0.0147012
-0.101251
-0.142787
0.754394
0.703387
0.645911
0.582059
0.510746
0.43078
0.342491
0.250948
0.173534
0.135884
0.943812
0.89961
0.850064
0.795153
0.733716
0.66451
0.587766
0.508069
0.440998
0.408417
1.11524
1.07885
1.038
0.992645
0.941467
0.88322
0.818138
0.750385
0.69373
0.666534
1.27633
1.24638
1.21198
1.17413
1.13165
1.08325
1.02911
0.972813
0.926195
0.904274
1.4156
1.39145
1.36188
1.33041
1.29644
1.25848
1.21617
1.17212
1.13589
1.11926
1.61899
1.51339
1.50853
1.50245
1.50751
1.53198
1.55557
1.59313
1.61055
1.58287
1.60138
1.51232
1.5082
1.50287
1.50669
1.53064
1.55571
1.59581
1.62763
1.63444
1.5854
1.51012
1.5067
1.50224
1.50511
1.52832
1.55497
1.59918
1.64431
1.68489
1.57096
1.50703
1.50427
1.50066
1.50276
1.52505
1.55292
1.59984
1.65601
1.72259
1.55788
1.50323
1.50108
1.49823
1.49966
1.52086
1.54937
1.59807
1.66286
1.75012
1.546
1.49886
1.49725
1.49499
1.49579
1.51571
1.54428
1.5938
1.66465
1.7669
1.53517
1.49402
1.49288
1.49099
1.49117
1.5096
1.53764
1.58693
1.66115
1.77296
1.52526
1.48882
1.48807
1.4863
1.48581
1.50251
1.52947
1.57737
1.65218
1.76823
1.51617
1.48335
1.4829
1.48097
1.47972
1.49444
1.51974
1.56512
1.63774
1.75239
1.5078
1.47767
1.47744
1.47505
1.47294
1.48539
1.50846
1.55015
1.61771
1.7253
1.78541
1.51644
1.49793
1.49098
1.50179
1.52392
1.53782
1.55843
1.52277
1.49522
1.71125
1.51022
1.49852
1.49299
1.50264
1.52479
1.53846
1.5598
1.52616
1.49219
1.68857
1.515
1.50297
1.49582
1.50395
1.52643
1.54089
1.56394
1.53701
1.49446
1.66195
1.51478
1.50581
1.49863
1.5055
1.52866
1.54534
1.57158
1.55542
1.50575
1.6388
1.51403
1.5077
1.50095
1.50693
1.53093
1.55058
1.58161
1.57968
1.52419
1.29939
1.21136
1.09106
0.934153
0.742818
0.523915
0.288121
0.0509128
-0.170707
-0.361808
1.29384
1.2086
1.09358
0.941488
0.754949
0.53931
0.303996
0.0642394
-0.162191
-0.358575
1.30514
1.21571
1.0981
0.947367
0.764342
0.551151
0.315702
0.0734358
-0.15702
-0.357633
1.3384
1.23516
1.10638
0.95296
0.771559
0.559619
0.323422
0.0786734
-0.155335
-0.359806
1.39212
1.26817
1.12039
0.958645
0.775491
0.563858
0.32748
0.0809323
-0.156628
-0.365507
)
;

boundaryField
{
    left
    {
        type            zeroGradient;
    }
    right
    {
        type            fixedValue;
        value           uniform 0;
    }
    down
    {
        type            zeroGradient;
    }
    up
    {
        type            zeroGradient;
    }
    cylinder
    {
        type            zeroGradient;
    }
    defaultFaces
    {
        type            empty;
    }
}


// ************************************************************************* //
