/*--------------------------------*- C++ -*----------------------------------*\
  =========                 |
  \\      /  F ield         | OpenFOAM: The Open Source CFD Toolbox
   \\    /   O peration     | Website:  https://openfoam.org
    \\  /    A nd           | Version:  13
     \\/     M anipulation  |
\*---------------------------------------------------------------------------*/
FoamFile
{
    format      ascii;
    class       surfaceScalarField;
    location    "1.95";
    object      phi;
}
// * * * * * * * * * * * * * * * * * * * * * * * * * * * * * * * * * * * * * //

dimensions      [0 3 -1 0 0 0 0];

internalField   nonuniform List<scalar> 
3485
(
-3.5723e-05
0.00523785
-0.00520213
0.00244126
0.00948195
-0.0119589
0.00902005
0.0078427
-0.0144215
0.0206898
0.00040362
-0.0120733
0.0379864
-0.0123969
-0.00489972
0.0610634
-0.0298496
0.00677258
0.0894001
-0.0506056
0.0222689
0.121853
-0.0730228
0.04057
0.156764
-0.0956022
0.0606916
-0.113602
0.0794018
0.190964
0.000371636
0.00486621
0.00409123
0.00576235
0.0130051
-0.00107114
0.0282285
-0.0148198
0.0501531
-0.0343215
0.0780141
-0.0577106
0.110045
-0.0826363
0.143818
-0.106796
0.176422
-0.128206
-0.145584
0.208404
0.00123146
0.00363475
0.00724039
-0.000246577
0.019741
-0.0135717
0.039516
-0.0345947
0.0659043
-0.0607098
0.0968126
-0.0886189
0.129301
-0.115124
0.160383
-0.137878
0.187916
-0.15574
-0.168856
0.211189
0.00226183
0.00137292
0.010982
-0.00896676
0.0274476
-0.0300373
0.0513133
-0.0584605
0.0803405
-0.0897369
0.111109
-0.119388
0.140255
-0.14427
0.165418
-0.163041
0.185509
-0.175831
-0.18366
0.200314
0.00340689
-0.00203397
0.0149688
-0.0205287
0.0349317
-0.0500002
0.0612228
-0.0847516
0.0900026
-0.118517
0.117353
-0.146738
0.140612
-0.16753
0.158748
-0.181177
0.172016
-0.189099
-0.193273
0.181629
0.00461483
-0.0066488
0.0187409
-0.0346548
0.0409193
-0.0721786
0.0671762
-0.111008
0.0928946
-0.144235
0.114835
-0.168678
0.131739
-0.184434
0.143885
-0.193324
0.152343
-0.197557
-0.198906
0.157977
0.00576494
-0.0124137
0.0217005
-0.0505903
0.0442478
-0.094726
0.0681239
-0.134885
0.0891197
-0.165231
0.105337
-0.184896
0.116809
-0.195906
0.124549
-0.201064
0.129715
-0.202723
-0.202549
0.133358
0.00667856
-0.0190923
0.0232993
-0.067211
0.0443772
-0.115804
0.0644094
-0.154917
0.0803244
-0.181146
0.0915144
-0.196086
0.0987782
-0.20317
0.103309
-0.205595
0.10614
-0.205553
-0.20423
0.107821
0.00721488
-0.0263072
0.0232959
-0.083292
0.0415873
-0.134095
0.057265
-0.170594
0.0685112
-0.192392
0.075611
-0.203186
0.0796897
-0.207248
0.0818858
-0.207791
0.0829908
-0.206658
-0.204696
0.0834568
0.00729988
-0.0336071
0.0218068
-0.0977989
0.0366581
-0.148947
0.0480864
-0.182023
0.0553159
-0.199622
0.0591315
-0.207001
0.0607028
-0.20882
0.0609808
-0.208069
0.0605351
-0.206213
0.0595599
-0.203721
-0.00518314
0.0166091
-0.0114259
-0.0156299
0.0300941
-0.0196474
-0.0281647
0.0333185
-0.0207837
-0.0410688
0.0317694
-0.0188653
-0.0535385
0.02831
-0.0158402
-0.06523
0.0241804
-0.0124889
-0.0759798
0.0197869
-0.00903707
-0.0856653
0.0151691
-0.00548366
-0.0941488
0.0102333
-0.00174981
0.00489847
-0.101171
0.00212388
-0.00385154
0.0204606
-0.0124236
0.0386662
-0.0232281
0.044123
-0.0346373
0.0431786
-0.0457424
0.0394151
-0.0560772
0.0345151
-0.0653974
0.0291071
-0.0735555
0.0233273
-0.0804277
0.0171055
0.0103013
-0.0858306
-0.00181598
0.0222766
-0.00728969
0.0441399
-0.0150886
0.0519219
-0.0238458
0.0519358
-0.0325306
0.0480999
-0.0404885
0.0424729
-0.047326
0.0359447
-0.052817
0.0288183
-0.0568428
0.0211313
0.0127027
-0.0592442
0.000603103
0.0216735
-0.000731384
0.0454744
-0.00434936
0.0555399
-0.00931364
0.0569001
-0.0145658
0.053352
-0.0192576
0.0471648
-0.0227866
0.0394737
-0.0247441
0.0307758
-0.0249072
0.0212944
0.0108741
-0.0230785
0.00284369
0.0188298
0.00598115
0.042337
0.0074793
0.0540417
0.00739277
0.0569866
0.00653125
0.0542135
0.00579
0.047906
0.00590756
0.0393561
0.00744742
0.0292359
0.0109168
0.017825
0.00531792
0.016473
0.00420699
0.0146228
0.0109757
0.0355683
0.0173379
0.0476795
0.022426
0.0518985
0.0264652
0.0501744
0.0300617
0.0443095
0.0338428
0.0355751
0.0383619
0.0247167
0.0441002
0.0120868
-0.00231758
0.0517357
0.00425871
0.0103641
0.0125464
0.0272805
0.0219568
0.0382692
0.0310747
0.0427805
0.0395276
0.0417214
0.0474834
0.0363537
0.0552993
0.0277592
0.063347
0.016669
0.0719241
0.00350965
-0.0129571
0.0825636
0.00317404
0.00719005
0.0105282
0.0199264
0.0201673
0.0286301
0.0307844
0.0321633
0.0417592
0.0307467
0.0529899
0.025123
0.0646843
0.0160648
0.0771255
0.00422787
0.0907861
-0.010151
-0.0287175
0.106546
0.00162197
0.00556808
0.00663395
0.0149144
0.0145363
0.0207278
0.0247006
0.021999
0.0367804
0.0186669
0.0507939
0.0111096
0.0669964
-0.00013766
0.0857324
-0.0145081
0.106816
-0.0312349
-0.0518695
0.129968
0.000365954
0.00332144
0.00962776
0.0195534
0.0333205
0.0512027
0.0733339
0.0993958
0.128853
0.156385
-0.0645664
-0.235474
0.198869
0.0373174
-0.345767
0.243883
0.113214
-0.258198
0.182301
0.159881
-0.190783
0.144116
0.186228
-0.139715
0.113368
0.200134
-0.100508
0.0866022
0.207133
-0.0766719
0.0696723
0.210028
-0.0528647
0.0499697
0.211093
-0.0441191
0.0430545
-0.0289005
0.0293494
-0.0494968
-0.271807
0.0413233
-0.436587
0.115899
-0.332774
0.16127
-0.236154
0.187091
-0.165535
0.200806
-0.114223
0.207711
-0.0835774
0.21057
-0.0557235
0.211604
-0.045153
-0.0284641
-0.0210579
-0.309994
0.0530417
-0.510686
0.121322
-0.401054
0.163614
-0.278446
0.188085
-0.190006
0.201319
-0.127457
0.208075
-0.0903331
0.210946
-0.0585947
0.212038
-0.046245
-0.0281577
0.0163716
-0.349444
0.0731267
-0.567441
0.130496
-0.458423
0.167508
-0.315458
0.18949
-0.211988
0.201775
-0.139743
0.208253
-0.0968108
0.211162
-0.0615034
0.212392
-0.0474756
-0.0280967
0.0559105
-0.388881
0.0979488
-0.60948
0.142606
-0.503081
0.172906
-0.345758
0.191448
-0.23053
0.202271
-0.150566
0.208285
-0.102825
0.211227
-0.0644454
0.212665
-0.0489136
-0.0283919
0.0944502
-0.431596
0.122868
-0.637898
0.155046
-0.535259
0.178842
-0.369554
0.19376
-0.245448
0.202828
-0.159634
0.208209
-0.108206
0.211159
-0.0673961
0.212858
-0.050612
-0.0291478
0.125469
-0.474501
0.144241
-0.656669
0.165544
-0.556562
0.183868
-0.387878
0.195828
-0.257408
0.203299
-0.167105
0.208021
-0.112928
0.210976
-0.0703504
0.212977
-0.0526132
-0.0304613
0.147835
-0.51579
0.160166
-0.669
0.172886
-0.569282
0.186884
-0.401877
0.196896
-0.26742
0.203351
-0.173559
0.207629
-0.117206
0.210666
-0.073387
0.213025
-0.0549721
-0.0324261
0.162566
-0.548388
0.170135
-0.676569
0.176807
-0.575954
0.18754
-0.41261
0.196444
-0.276324
0.202581
-0.179696
0.206838
-0.121463
0.210165
-0.076714
0.212983
-0.0577903
-0.0351452
0.172711
-0.564714
0.175276
-0.679134
0.17803
-0.578708
0.186336
-0.420915
0.19451
-0.284499
0.200759
-0.185945
0.205418
-0.126122
0.20934
-0.0806362
0.212797
-0.0612472
-0.0387469
0.601443
-0.558645
-0.607512
0.53562
-0.613311
0.461319
-0.504407
0.408619
-0.368215
0.376557
-0.252437
0.357784
-0.167172
0.346134
-0.114472
0.339094
-0.0735964
0.334132
-0.0562849
-0.0359362
0.625792
-0.481243
-0.703195
0.53155
-0.519068
0.458208
-0.431065
0.410398
-0.320405
0.380655
-0.222694
0.361848
-0.148365
0.349384
-0.102008
0.341523
-0.0657357
0.335746
-0.0505076
-0.0325251
0.633724
-0.403853
-0.711114
0.556379
-0.441723
0.490905
-0.365591
0.437421
-0.266921
0.39869
-0.183963
0.372744
-0.122418
0.355636
-0.0849006
0.345117
-0.0552171
0.337716
-0.043106
-0.0282851
0.630463
-0.339356
-0.69496
0.557183
-0.368442
0.491899
-0.300308
0.439441
-0.214463
0.401755
-0.146276
0.376141
-0.0968043
0.358554
-0.0673137
0.347296
-0.0439592
0.339095
-0.0349045
-0.0234653
0.628521
-0.288494
-0.679383
0.565063
-0.304985
0.502663
-0.237908
0.448607
-0.160407
0.408062
-0.105731
0.380236
-0.068979
0.361166
-0.0482436
0.34897
-0.0317632
0.340057
-0.0259911
-0.0181677
0.625707
-0.246468
-0.667733
0.565553
-0.24483
0.503167
-0.175522
0.448892
-0.106132
0.408115
-0.0649531
0.380254
-0.0411186
0.361153
-0.0291423
0.348894
-0.0195046
0.339816
-0.016913
-0.0126494
0.613527
-0.203909
-0.656086
0.550552
-0.181855
0.48743
-0.1124
0.435405
-0.0541077
0.397607
-0.0271553
0.37237
-0.0158818
0.355145
-0.0119171
0.344071
-0.00843008
0.335668
-0.00851063
-0.00734365
0.563459
-0.145099
-0.622269
0.491724
-0.110121
0.431439
-0.0521152
0.389326
-0.0119942
0.361493
0.000677321
0.343774
0.00183767
0.331684
0.000172976
0.323847
-0.000593449
0.317518
-0.00218216
-0.00299312
0.414088
-0.0639386
-0.495248
0.340828
-0.0368614
0.297337
-0.00862365
0.278474
0.00686903
0.27034
0.00881117
0.265964
0.00621316
0.262545
0.00359179
0.260019
0.00193288
0.257238
0.000599336
-0.000465315
0.127208
-0.191147
0.0903468
0.0817232
0.0885922
0.0974034
0.103617
0.107208
0.109141
0.109741
0.554347
0.0492259
-0.544013
0.56563
0.0721736
0.579471
0.0939805
0.594576
0.118252
0.611603
0.14095
0.629787
0.163445
0.643955
0.186146
0.653588
0.201556
0.638531
0.22346
0.221983
0.532016
0.0398695
-0.52266
0.544254
0.0599358
0.558171
0.0800637
0.575832
0.100591
0.595254
0.121529
0.618294
0.140404
0.642367
0.162073
0.666161
0.177762
0.69087
0.198751
0.209658
0.515672
0.0317338
-0.507537
0.527343
0.0482652
0.540514
0.0668927
0.557536
0.0835687
0.576606
0.102459
0.598748
0.118262
0.623976
0.136845
0.650593
0.151145
0.68136
0.167984
0.179905
0.502359
0.0239631
-0.494588
0.513181
0.0374433
0.526212
0.0538618
0.542284
0.0674962
0.560941
0.0838023
0.582249
0.0969544
0.606679
0.112414
0.633385
0.124439
0.663344
0.138024
0.148288
0.491115
0.016321
-0.483472
0.501319
0.0272385
0.514346
0.0408356
0.529939
0.0519027
0.548488
0.0652532
0.569492
0.075951
0.593494
0.0884117
0.619735
0.0981982
0.648666
0.109094
0.117571
0.481246
0.00894978
-0.473874
0.491075
0.0174091
0.503955
0.0279554
0.519367
0.0364909
0.537842
0.0467785
0.558784
0.0550087
0.582673
0.0645223
0.608745
0.0721271
0.63739
0.0804485
0.0872281
0.469909
0.00217929
-0.463138
0.47927
0.0080478
0.491744
0.0154819
0.506902
0.0213323
0.525153
0.0285279
0.546085
0.0340769
0.56996
0.0406474
0.596267
0.0458195
0.625275
0.0514404
0.0564178
0.446203
-0.0031213
-0.440903
0.454062
0.000189299
0.465052
0.004492
0.478745
0.00763899
0.495632
0.0116406
0.515301
0.0144078
0.537962
0.0179869
0.563393
0.0203885
0.591503
0.0233299
0.0256516
0.376204
-0.00431112
-0.375014
0.379476
-0.00308269
0.385617
-0.001649
0.393954
-0.000698271
0.405097
0.000497281
0.418327
0.0011777
0.434179
0.00213501
0.452136
0.00243197
0.472381
0.00308479
0.00278489
0.184465
-0.188776
0.181382
0.179733
0.179035
0.179532
0.18071
0.182845
0.185277
0.188362
0.0749172
0.147408
-0.135559
-0.0867662
0.0640018
0.149569
-0.138654
0.0539129
0.152173
-0.142084
0.0441155
0.155689
-0.145892
0.0343382
0.159487
-0.149709
0.0246444
0.162492
-0.152798
0.0154244
0.162092
-0.152872
0.00747139
0.152404
-0.144451
0.00195221
0.122799
-0.11728
0.0584478
-0.0564956
0.0719119
0.158084
-0.0825878
0.0613466
0.160135
0.0510975
0.162422
0.0411867
0.1656
0.0314981
0.169175
0.0220997
0.17189
0.0133943
0.170798
0.00616698
0.159632
0.00143981
0.127526
0.0598876
0.0651431
0.167456
-0.0745156
0.0553803
0.169898
0.0456755
0.172127
0.0362368
0.175038
0.0270932
0.178319
0.0183773
0.180606
0.0105263
0.178649
0.00432767
0.16583
0.000688838
0.131165
0.0605765
0.0550282
0.175625
-0.063197
0.0464535
0.178472
0.0377494
0.180831
0.0291805
0.183607
0.0209135
0.186586
0.0131809
0.188339
0.00651047
0.185319
0.00169178
0.170649
-0.000335429
0.133192
0.060241
0.0429203
0.182761
-0.0500567
0.0355108
0.185882
0.027931
0.188411
0.0204118
0.191127
0.0132054
0.193792
0.0066951
0.194849
0.00144461
0.19057
-0.00143368
0.173527
-0.00152139
0.13328
0.0587196
0.0291499
0.188852
-0.0352404
0.0229126
0.192119
0.0165299
0.194793
0.01021
0.197446
0.0042568
0.199745
-0.000829435
0.199935
-0.00408205
0.193822
-0.00481741
0.174263
-0.00277288
0.131235
0.0559468
0.0143108
0.194079
-0.0195377
0.00908966
0.19734
0.00385573
0.200027
-0.0012
0.202502
-0.00568645
0.204232
-0.00895923
0.203208
-0.0101963
0.195059
-0.00846993
0.172536
-0.00401364
0.126779
0.0519331
-0.00198479
0.198451
-0.00238731
-0.00614742
0.201503
-0.0101737
0.204053
-0.0138623
0.206191
-0.0167569
0.207127
-0.0180776
0.204528
-0.0168014
0.193783
-0.0122192
0.167954
-0.00518691
0.119747
0.0467462
-0.0199053
0.201691
0.0166646
-0.0229045
0.204502
-0.0256435
0.206792
-0.0278356
0.208383
-0.0288817
0.208173
-0.0278414
0.203488
-0.023653
0.189595
-0.0158859
0.160187
-0.0062001
0.110061
0.0405461
-0.0396278
0.0375987
-0.0413385
-0.042615
-0.0430518
-0.0418802
-0.0380138
-0.0304417
-0.0192013
-0.00693903
0.105681
0.0379984
-0.117496
-0.0261835
0.0936042
0.0390763
-0.0269996
0.0812523
0.0402399
-0.027888
0.0685998
0.0414915
-0.028839
0.0556291
0.0428139
-0.0298431
0.0423661
0.044074
-0.030811
0.0289979
0.0447474
-0.0313792
0.0161568
0.0433322
-0.0304911
0.00542804
0.0365345
-0.0258057
0.0187074
-0.0132793
0.10528
0.0498747
-0.117157
0.0932121
0.0511446
0.0808828
0.0525692
0.0682646
0.0541097
0.0553341
0.0557443
0.042114
0.0572941
0.0287937
0.0580676
0.0160128
0.0561131
0.00535959
0.0471877
0.0240669
0.104555
0.061695
-0.116376
0.0924938
0.0632062
0.0801889
0.0648741
0.0676155
0.0666831
0.0547535
0.0686063
0.0416237
0.0704239
0.0284136
0.0712777
0.0157652
0.0687615
0.00525652
0.0576964
0.0293235
0.102999
0.0735657
-0.11487
0.0910161
0.0751894
0.0787899
0.0771002
0.066296
0.079177
0.0535283
0.081374
0.040535
0.0834172
0.027531
0.0842817
0.0151702
0.0811224
0.00500222
0.0678644
0.0343257
0.100995
0.0852718
-0.112702
0.0891528
0.0870321
0.0771464
0.0891067
0.0649114
0.091412
0.0523991
0.0938863
0.0396356
0.0961807
0.0268496
0.0970677
0.0147289
0.0932431
0.00482753
0.0777658
0.0391532
0.0977588
0.0970342
-0.109521
0.0859971
0.0987938
0.0740753
0.101028
0.0620033
0.103484
0.0497737
0.106116
0.0374134
0.108541
0.025136
0.109345
0.0136172
0.104762
0.00436256
0.0870205
0.0435158
0.0941837
0.108226
-0.105376
0.0830083
0.109969
0.0716477
0.112389
0.0599995
0.115132
0.0480662
0.118049
0.0359566
0.120651
0.0239727
0.121329
0.0128448
0.11589
0.0040491
0.0958162
0.0475649
0.0875027
0.119271
-0.0985476
0.0766721
0.1208
0.065885
0.123176
0.0550203
0.125997
0.0439612
0.129108
0.0327271
0.131885
0.02161
0.132446
0.011372
0.126128
0.00345906
0.103729
0.0510239
0.0831433
0.128615
-0.0924867
0.0733982
0.130545
0.0630619
0.133512
0.0523574
0.136702
0.0414531
0.140012
0.0304986
0.142839
0.0198314
0.143113
0.010216
0.135743
0.00300449
0.110941
0.0540284
0.0727999
-0.0797441
0.0646908
0.0561194
0.0469294
0.0372323
0.0272739
0.0175148
0.0088065
0.00246718
0.201429
0.00943473
-0.0128744
0.20514
0.0225035
-0.026214
0.208849
0.0357539
-0.0394625
0.212093
0.0572861
-0.060531
0.212564
0.0739485
-0.0744192
0.210882
0.0973945
-0.0957127
0.204246
0.117403
-0.110767
0.19154
0.14357
-0.130865
0.166351
0.192486
-0.167296
0.24899
-0.200135
0.201106
0.00631878
0.204493
0.0191158
0.207903
0.0323442
0.210846
0.0543436
0.211348
0.0734461
0.209384
0.0993588
0.203013
0.123774
0.190034
0.156549
0.164977
0.217543
0.296811
0.200708
0.0036003
0.203699
0.0161247
0.206753
0.0292905
0.209194
0.0519027
0.209648
0.072992
0.207078
0.101929
0.20095
0.129902
0.187384
0.170114
0.162844
0.242083
0.343279
0.200232
0.00135828
0.202755
0.0136018
0.205379
0.0266666
0.207147
0.0501348
0.207471
0.0726677
0.203957
0.105442
0.198129
0.13573
0.183387
0.184857
0.160002
0.265468
0.388411
0.199673
-0.000325308
0.201663
0.0116126
0.203761
0.0245685
0.204724
0.0491717
0.204813
0.0725785
0.200087
0.110168
0.194612
0.141205
0.178297
0.201172
0.156417
0.287347
0.432127
0.199032
-0.00136766
0.200429
0.0102156
0.201881
0.0231163
0.201962
0.049091
0.201661
0.07288
0.1956
0.116229
0.19044
0.146364
0.172199
0.219413
0.152318
0.307229
0.474924
0.198309
-0.00168711
0.199062
0.0094632
0.19973
0.0224481
0.198901
0.04992
0.197972
0.0738086
0.190606
0.123596
0.185418
0.151552
0.165486
0.239345
0.147171
0.325544
0.516719
0.197507
-0.00120411
0.197566
0.00940364
0.197309
0.0227056
0.195569
0.0516595
0.193733
0.0756453
0.185113
0.132215
0.179632
0.157033
0.157444
0.261534
0.141678
0.34131
0.559849
0.196625
0.00016027
0.195949
0.0100797
0.194635
0.0240203
0.191996
0.0542978
0.188918
0.0787241
0.179325
0.141808
0.173052
0.163306
0.150524
0.284062
0.135205
0.356629
0.602567
0.195703
0.0024475
0.194176
0.0116061
0.191775
0.0264217
0.188127
0.0579456
0.183611
0.0832399
0.172666
0.152753
0.164697
0.171275
0.140256
0.308502
0.12916
0.367725
0.651983
0.304826
-0.000368499
0.309714
0.00671836
0.315345
0.0207906
0.321116
0.0521748
0.33088
0.0734761
0.33297
0.150663
0.353426
0.15082
0.358154
0.303774
0.408512
0.317367
0.581888
0.478607
0.305364
-0.00372213
0.311339
0.000743119
0.317517
0.0146127
0.325159
0.0445322
0.335134
0.0635011
0.341023
0.144774
0.364187
0.127655
0.37846
0.289502
0.425464
0.270363
0.516784
0.490568
0.306108
-0.00782026
0.3133
-0.00644887
0.320286
0.00762731
0.329739
0.0350787
0.338669
0.0545714
0.349336
0.134107
0.372593
0.104399
0.392877
0.269218
0.433905
0.229334
0.445703
0.504986
0.307135
-0.0129454
0.315637
-0.014951
0.323964
-0.000699029
0.334309
0.0247333
0.342615
0.0462654
0.35723
0.119492
0.378204
0.0834248
0.403054
0.244367
0.442139
0.190249
0.369667
0.518175
0.308484
-0.0194189
0.318596
-0.0250629
0.328607
-0.0107101
0.338909
0.0144309
0.347323
0.0378519
0.365023
0.101791
0.382587
0.0658606
0.413966
0.212989
0.44925
0.154966
0.294687
0.52423
0.310229
-0.0276373
0.322274
-0.037108
0.333936
-0.022372
0.343735
0.00463148
0.352265
0.0293217
0.372451
0.0816052
0.385602
0.0527099
0.422677
0.175914
0.455976
0.121666
0.224352
0.526311
0.31276
-0.0383867
0.32657
-0.0509187
0.338485
-0.0342862
0.346819
-0.00370269
0.355148
0.0209928
0.376659
0.0600934
0.386957
0.0424123
0.42896
0.133911
0.460917
0.0897086
0.159788
0.525482
0.315657
-0.0520335
0.326886
-0.0621483
0.334442
-0.0418418
0.339865
-0.00912522
0.348295
0.0125621
0.370392
0.0379967
0.381022
0.0317821
0.427281
0.0876519
0.459209
0.0577804
0.0991807
0.519816
0.309609
-0.0596319
0.302076
-0.0546153
0.29329
-0.0330562
0.292171
-0.0080066
0.300915
0.00381901
0.322276
0.0166351
0.338456
0.0156024
0.387731
0.0383768
0.420427
0.0250847
0.040796
0.478811
0.242378
0.187763
0.154707
0.1467
0.150519
0.167154
0.182757
0.221133
0.246218
0.287014
0.491824
-0.0999835
0.496726
-0.0874895
0.500315
-0.0781043
0.504382
-0.0672642
0.509219
-0.054894
0.514791
-0.0408124
0.521026
-0.0257724
0.52749
-0.00885145
0.535488
0.00866699
0.0290733
0.49139
-0.100805
0.492692
-0.0887918
0.493222
-0.0786342
0.494545
-0.0685876
0.496348
-0.0566966
0.49948
-0.0439442
0.503217
-0.0295099
0.508451
-0.0140854
0.514616
0.00250226
0.0210295
0.499611
-0.0954299
0.496955
-0.0861358
0.494667
-0.0763465
0.492901
-0.0668218
0.491792
-0.0555874
0.492202
-0.0443544
0.493371
-0.030679
0.496582
-0.0172964
0.500509
-0.00142427
0.0140016
0.508652
-0.0859069
0.501193
-0.0786768
0.495449
-0.0706022
0.490785
-0.0621582
0.487156
-0.0519588
0.484984
-0.042182
0.484275
-0.0299706
0.485645
-0.0186661
0.488732
-0.00451109
0.00814538
0.51276
-0.0744374
0.502618
-0.0685342
0.494009
-0.0619929
0.486854
-0.055004
0.481358
-0.0464621
0.477464
-0.0382883
0.475656
-0.0281631
0.475875
-0.0188843
0.478472
-0.00710847
0.00314499
0.513057
-0.0611833
0.501089
-0.056566
0.490694
-0.0515982
0.481954
-0.0462633
0.475253
-0.0397616
0.470375
-0.0334096
0.467831
-0.0256199
0.467329
-0.018382
0.469475
-0.00925425
-0.00125465
0.510925
-0.0466262
0.497688
-0.0433292
0.486059
-0.0399689
0.476194
-0.0363984
0.468461
-0.0320289
0.462675
-0.0276233
0.459258
-0.0222034
0.45795
-0.0170733
0.459378
-0.0106828
-0.00501484
0.503247
-0.0300567
0.488199
-0.0282809
0.474894
-0.0266643
0.463432
-0.0249359
0.454096
-0.0226938
0.446741
-0.0202679
0.441748
-0.0172098
0.438877
-0.0142029
0.438712
-0.0105176
-0.0072055
0.460359
-0.0116039
0.44369
-0.0116123
0.428669
-0.011643
0.415255
-0.0115225
0.403624
-0.0110629
0.393731
-0.0103746
0.38589
-0.00936909
0.379989
-0.00830144
0.376455
-0.00698412
-0.00576398
0.27541
0.263798
0.252155
0.240632
0.22957
0.219195
0.209826
0.201524
0.19454
0.00722297
0.0402888
-0.0475118
0.0172921
0.108007
-0.118077
0.0241194
0.154519
-0.161347
0.0266211
0.180112
-0.182614
0.0258451
0.191325
-0.190549
0.0231333
0.194448
-0.191736
0.019462
0.193175
-0.189504
0.0154727
0.188509
-0.184519
0.0117514
0.179111
-0.17539
0.161488
0.00887938
-0.158616
0.00857124
0.0317176
0.0230258
0.0935528
0.0353388
0.142206
0.0428646
0.172586
0.046117
0.188072
0.04651
0.194055
0.0452227
0.194463
0.0429174
0.190814
0.0397632
0.182265
0.165756
0.0354951
0.00903908
0.0226785
0.0271394
0.0754525
0.0452622
0.124083
0.0587457
0.159103
0.0669847
0.179833
0.0711584
0.189881
0.0725965
0.193024
0.0720408
0.19137
0.0695146
0.184791
0.171194
0.0640773
0.00851492
0.0141636
0.0285927
0.0553746
0.0520619
0.100614
0.0723389
0.138826
0.0869113
0.165261
0.0961516
0.180641
0.10138
0.187796
0.103615
0.189136
0.102808
0.185597
0.176073
0.0979285
0.00712983
0.00703378
0.0267297
0.0357747
0.0535278
0.0738162
0.0804544
0.111899
0.102698
0.143017
0.118719
0.16462
0.129132
0.177383
0.135048
0.18322
0.137115
0.183531
0.179342
0.133846
0.00527085
0.00176293
0.0220035
0.019042
0.0485466
0.0472731
0.0797165
0.0807295
0.109708
0.113026
0.134623
0.139705
0.153041
0.158965
0.165343
0.170918
0.172221
0.176653
0.177395
0.174168
0.00339639
-0.00163346
0.0158501
0.00658837
0.0383965
0.0247266
0.0690238
0.0501022
0.103339
0.0787105
0.136608
0.106435
0.165277
0.130296
0.187451
0.148744
0.203017
0.161087
0.169882
0.210529
0.00174094
-0.0033744
0.00965214
-0.00132284
0.0260032
0.00837557
0.0513975
0.0247079
0.0841214
0.0459866
0.120776
0.069781
0.157558
0.0935131
0.190928
0.115374
0.218739
0.133276
0.146573
0.242048
0.000162298
-0.0035367
0.00369266
-0.00485319
0.01335
-0.00128177
0.0310665
0.00699147
0.0572289
0.0198241
0.0906269
0.0363829
0.128815
0.0553246
0.168977
0.0752124
0.206308
0.0959452
0.108937
0.243944
-0.00124648
-0.00229022
-0.00104276
-0.00505692
0.00340588
-0.0057304
0.0139965
-0.00359916
0.031944
0.00187667
0.0577296
0.0105974
0.0907634
0.0222907
0.129897
0.0360791
0.173445
0.0523972
0.0655979
0.216784
-0.00103344
-0.00125678
-0.000867953
-0.0052224
0.00232536
-0.00892372
0.0096129
-0.0108867
0.0218435
-0.010354
0.0395854
-0.00714449
0.0632963
-0.00142019
0.092853
0.00652234
0.128727
0.0165228
0.0297121
0.164613
0.000815873
-0.00207265
0.00422878
-0.00863531
0.0103789
-0.0150738
0.0190628
-0.0195706
0.0301687
-0.0214598
0.0438291
-0.0208049
0.0603711
-0.0179622
0.080205
-0.0133115
0.103788
-0.00706048
0.00232877
0.131172
0.00245204
-0.00452469
0.00841287
-0.0145961
0.016583
-0.023244
0.0260766
-0.0290642
0.0365175
-0.0319008
0.0479173
-0.0322047
0.0604763
-0.0305212
0.074392
-0.0272272
0.0897263
-0.0223948
-0.0151486
0.107204
0.00258678
-0.00711147
0.00765231
-0.0196617
0.0134358
-0.0290275
0.0192016
-0.03483
0.0249908
-0.0376899
0.0312456
-0.0384595
0.0384746
-0.0377503
0.0470382
-0.0357907
0.0570307
-0.0323873
-0.0269167
0.0687988
0.00116589
-0.00827737
0.0025319
-0.0210277
0.00304068
-0.0295363
0.0026739
-0.0344632
0.00195628
-0.0369723
0.00154803
-0.0380512
0.00200058
-0.0382028
0.00370968
-0.0374998
0.00709675
-0.0357744
-0.0326168
0.0127969
-0.000974799
-0.00730257
-0.00402046
-0.017982
-0.00879792
-0.0247589
-0.0146407
-0.0286204
-0.0208643
-0.0307487
-0.0269366
-0.0319789
-0.0324665
-0.032673
-0.037109
-0.0328573
-0.0405093
-0.0323741
-0.0311833
-0.0419428
-0.0030056
-0.00429696
-0.00967523
-0.0113124
-0.0183436
-0.0160905
-0.0278667
-0.0190973
-0.0375598
-0.0210556
-0.0470558
-0.0224829
-0.0561288
-0.0236
-0.064554
-0.024432
-0.0720124
-0.0249158
-0.0250424
-0.0781533
-0.00458078
0.000283815
-0.0137886
-0.00210458
-0.0249798
-0.00489927
-0.0366931
-0.00738408
-0.0482307
-0.009518
-0.0593002
-0.0114134
-0.0697557
-0.0131445
-0.0794537
-0.014734
-0.08819
-0.0161794
-0.0174275
-0.095805
-0.00543806
0.00572188
-0.0160895
0.00854683
-0.0286969
0.00770815
-0.041613
0.00553202
-0.0541243
0.00299329
-0.0659618
0.000424155
-0.0769688
-0.00213751
-0.0870371
-0.00466574
-0.0960066
-0.00720994
-0.00972769
-0.103706
-0.00570405
-0.0168046
-0.0298802
-0.0432134
-0.0560604
-0.0681251
-0.0792997
-0.0894491
-0.0984089
-0.106013
0.24046
0.21364
-0.289487
0.266784
0.399117
-0.425441
0.268774
0.19338
-0.195369
0.237707
0.0514968
-0.0204297
0.205155
0.0184394
0.0141121
0.191274
0.00312172
0.0107595
0.190805
-0.00995538
0.0104243
0.195108
-0.0139198
0.00961676
0.201175
-0.0167944
0.0107275
-0.0141402
0.00824761
0.224606
0.120206
0.268491
0.355231
0.263493
0.198378
0.2247
0.0902902
0.198053
0.0450858
0.19097
0.0102053
0.193246
-0.012232
0.197786
-0.0184592
0.203092
-0.0221006
-0.0189314
0.196
0.0314094
0.243765
0.307466
0.230146
0.211997
0.198921
0.121515
0.187972
0.0560355
0.189851
0.00832619
0.195008
-0.0173892
0.199783
-0.0232349
0.204391
-0.0267078
-0.022699
0.13999
-0.0397817
0.182977
0.264479
0.176449
0.218525
0.171737
0.126227
0.180365
0.0474081
0.189765
-0.00107444
0.196813
-0.0244367
0.201569
-0.0279913
0.205492
-0.0306309
-0.0255377
0.056744
-0.0837288
0.102623
0.2186
0.127546
0.193602
0.154884
0.0988883
0.177456
0.0248365
0.190903
-0.014522
0.198735
-0.0322688
0.203236
-0.0324921
0.206503
-0.033898
-0.0275524
-0.0214977
-0.104174
0.0421022
0.155
0.103297
0.132408
0.149858
0.0523269
0.177985
-0.00329032
0.192731
-0.0292679
0.200643
-0.0401807
0.204775
-0.0366236
0.207444
-0.0365675
-0.0288558
-0.0672642
-0.115063
0.0196186
0.0681174
0.100042
0.0519846
0.151225
0.00114395
0.179945
-0.032011
0.194703
-0.044026
0.202408
-0.0478852
0.206162
-0.0403774
0.208316
-0.0387216
-0.0295661
-0.0772923
-0.133576
0.0227335
-0.0319084
0.104461
-0.0297427
0.154275
-0.0486704
0.182082
-0.059818
0.19651
-0.0584538
0.203959
-0.0553343
0.207385
-0.043803
0.209118
-0.0404545
-0.0298038
-0.0740304
-0.163252
0.0315329
-0.137472
0.108699
-0.106909
0.156899
-0.0968699
0.183876
-0.0867955
0.198026
-0.072603
0.205266
-0.062575
0.208437
-0.0469741
0.209848
-0.0418656
-0.0296909
-0.0703954
0.0360156
0.111408
0.158654
0.185226
0.199225
0.206323
0.209318
0.210507
0.028786
0.0559242
-0.0847102
-0.00607638
0.0348624
-0.00959874
0.00352236
0.0119798
-0.0215786
0.0334253
-0.0214454
0.0438057
-0.0103804
0.0476876
-0.00388191
0.0491726
-0.00148502
0.0500168
-0.000844229
-0.000563202
0.159353
0.181674
-0.285103
0.0626225
0.131593
0.0451116
0.0210333
0.0729118
-0.0493787
0.101946
-0.0504795
0.11709
-0.0255245
0.123643
-0.010435
0.126679
-0.00452085
0.12878
-0.00294582
-0.00193
0.314553
0.293211
-0.42609
0.185358
0.260787
0.134734
0.071658
0.139789
-0.0544339
0.155216
-0.0659067
0.16518
-0.0354885
0.170599
-0.0158542
0.173777
-0.00769826
0.176507
-0.00567654
-0.00384145
0.415921
0.336729
-0.459439
0.304012
0.372696
0.236221
0.139449
0.210375
-0.0285884
0.198662
-0.0541933
0.194518
-0.0313452
0.194873
-0.0162087
0.196691
-0.00951629
0.199365
-0.00835034
-0.00600455
0.429942
-0.382701
0.377198
0.321278
0.27226
0.232178
0.211593
0.205808
0.205909
0.208286
0.0107526
-0.000154739
-0.0105978
0.0123545
-0.00160191
0.0153017
-0.00294726
0.0198363
-0.00453457
0.0259958
-0.00615955
0.0343389
-0.00834304
0.0436516
-0.00931268
0.0567112
-0.0130596
0.0695116
-0.0128005
-0.0151986
0.0298879
-0.000903837
-0.0291388
0.0345475
-0.00626148
0.0431524
-0.0115522
0.0567465
-0.0181287
0.0758897
-0.0253027
0.101138
-0.0335918
0.134563
-0.0427377
0.175932
-0.0544285
0.224239
-0.0611067
-0.0760628
0.046515
-0.00252715
-0.0448917
0.0540268
-0.0137733
0.0677076
-0.025233
0.0894297
-0.0398508
0.118985
-0.0548581
0.159402
-0.0740085
0.211348
-0.0946839
0.271503
-0.114584
0.347543
-0.137146
-0.154609
0.0604186
-0.00517122
-0.0577745
0.07032
-0.0236747
0.088186
-0.043099
0.115628
-0.0672927
0.152716
-0.0919457
0.202615
-0.123908
0.261003
-0.153072
0.329154
-0.182735
0.406652
-0.214644
-0.207396
0.0716466
-0.0679385
0.083467
0.104445
0.135081
0.176982
0.227242
0.284699
0.344012
0.373313
0.0825756
-0.0737043
0.0817832
-0.0906545
0.0738893
-0.0748199
0.0835062
0.0649602
-0.0766059
0.085535
0.0554429
-0.0784937
0.088011
0.0452092
-0.0803495
0.0905831
0.0343727
-0.0818631
0.0926996
0.023297
-0.0819228
0.0929984
0.0127358
-0.0776777
0.088239
0.00414216
-0.0635869
0.0721805
-0.0311657
0.0353079
0.0909304
-0.0642353
-0.100399
0.0810857
-0.0649753
0.0705612
-0.0660813
0.0594284
-0.0673609
0.0478688
-0.0687899
0.0360772
-0.0700714
0.0243391
-0.0701847
0.0132977
-0.0666363
0.00434144
-0.0546306
-0.0268243
0.0910905
-0.0536016
-0.101724
0.0803743
-0.0542591
0.0694837
-0.0551908
0.0584298
-0.0563069
0.0471753
-0.0575354
0.0356999
-0.058596
0.0241711
-0.0586559
0.0132189
-0.0556841
0.00429515
-0.0457069
-0.0225291
0.0957642
-0.0428665
-0.106499
0.0848692
-0.0433641
0.0737436
-0.0440651
0.0622969
-0.0448603
0.0504707
-0.0457092
0.0382986
-0.0464239
0.0260246
-0.0463819
0.0143351
-0.0439946
0.00473549
-0.0361073
-0.0177936
0.097608
-0.0317079
-0.108767
0.0863125
-0.0320686
0.0747626
-0.0325152
0.0629355
-0.0330331
0.0508262
-0.0335999
0.0384848
-0.0340825
0.0261245
-0.0340216
0.0143785
-0.0322487
0.00473321
-0.0264619
-0.0130604
0.100352
-0.0204471
-0.111613
0.0888494
-0.0205658
0.0770899
-0.0207558
0.0650425
-0.0209857
0.0526851
-0.0212425
0.040043
-0.0214405
0.0273131
-0.0212917
0.0151366
-0.0200721
0.00504619
-0.0163715
-0.00801422
0.102087
-0.00894608
-0.113588
0.0903845
-0.00886306
0.0784211
-0.00879235
0.0661706
-0.00873521
0.0536122
-0.00868409
0.0407713
-0.00859957
0.0278396
-0.00835998
0.0154521
-0.00768468
0.00515985
-0.00607923
-0.00285437
0.103721
0.00266345
-0.11533
0.0918649
0.00299292
0.0797377
0.00333481
0.0673127
0.00368978
0.0545709
0.00405774
0.0415386
0.00443268
0.028406
0.00477263
0.0158063
0.00491505
0.00530213
0.00442493
0.00244776
0.104824
0.0143857
-0.116547
0.0928565
0.0149606
0.0806155
0.0155758
0.0680757
0.0162296
0.0552169
0.0169165
0.0420618
0.0175878
0.0287946
0.0180399
0.0160458
0.0176638
0.00539339
0.0150773
0.00784115
0.105443
-0.117241
0.0934046
0.0810924
0.068483
0.0555563
0.0423332
0.0289938
0.0161666
0.00543816
0.0137057
-0.156449
-0.0158729
0.009129
-0.170813
0.00351616
-0.178907
-0.00224974
-0.183738
-0.00750807
-0.186478
-0.0114679
-0.186589
-0.0130246
-0.181057
-0.0109733
-0.163398
-0.00530053
-0.123749
-0.0528123
0.0371039
-0.153441
-0.0401114
0.0309975
-0.164706
0.0236078
-0.171517
0.0158964
-0.176027
0.00840973