/*--------------------------------*- C++ -*----------------------------------*\
  =========                 |
  \\      /  F ield         | OpenFOAM: The Open Source CFD Toolbox
   \\    /   O peration     | Website:  https://openfoam.org
    \\  /    A nd           | Version:  13
     \\/     M anipulation  |
\*---------------------------------------------------------------------------*/
FoamFile
{
    format      ascii;
    class       volVectorField;
    location    "1.95";
    object      U;
}
// * * * * * * * * * * * * * * * * * * * * * * * * * * * * * * * * * * * * * //

dimensions      [0 1 -1 0 0 0 0];

internalField   nonuniform List<vector> 
1800
(
(-0.0492357 0.0433498 1.55462e-20)
(-0.0986508 0.0931633 7.08782e-21)
(-0.0865504 0.117796 -6.94234e-20)
(-0.0110452 0.115379 5.13666e-20)
(0.128696 0.0880289 8.0674e-20)
(0.328571 0.0392563 5.48331e-21)
(0.579267 -0.024979 1.73418e-20)
(0.862354 -0.100319 1.62817e-19)
(1.17534 -0.171469 1.21718e-19)
(1.41266 -0.239953 1.11996e-19)
(-0.0516205 0.0396 7.20568e-21)
(-0.0750327 0.0674947 -9.72256e-20)
(-0.0142204 0.0649699 5.82712e-22)
(0.127649 0.0360811 -7.15248e-20)
(0.345503 -0.012853 2.95121e-20)
(0.625414 -0.0750862 4.61127e-20)
(0.944138 -0.143407 2.89939e-20)
(1.27323 -0.212276 -4.14137e-21)
(1.58856 -0.271134 -2.49299e-20)
(1.8339 -0.333262 5.45142e-21)
(-0.0462707 0.031397 8.41427e-21)
(-0.0256966 0.0375397 2.79789e-20)
(0.10464 0.0127868 2.73794e-21)
(0.332972 -0.0344565 -9.83975e-21)
(0.639864 -0.09407 -1.39723e-19)
(0.992882 -0.156887 2.46967e-20)
(1.35265 -0.215663 6.46298e-20)
(1.68377 -0.265568 -1.45665e-20)
(1.95879 -0.304616 -1.17807e-21)
(2.18229 -0.346405 4.97007e-21)
(-0.0292454 0.0183308 -1.086e-20)
(0.0572556 0.00150788 -3.3113e-20)
(0.277157 -0.0404145 -3.16523e-20)
(0.602895 -0.0957128 3.48125e-20)
(0.990979 -0.152689 3.13071e-20)
(1.38739 -0.203028 1.21914e-20)
(1.74447 -0.242598 -5.67191e-21)
(2.03203 -0.271542 1.82034e-19)
(2.24419 -0.290344 2.05856e-19)
(2.37454 -0.305521 -1.05361e-19)
(0.00206779 0.00242795 7.45285e-20)
(0.178568 -0.0351096 6.8946e-20)
(0.503222 -0.0856983 -5.0009e-20)
(0.921789 -0.136209 -6.03349e-20)
(1.36155 -0.17777 -2.13198e-19)
(1.75639 -0.207285 3.15591e-21)
(2.06732 -0.226023 3.39794e-19)
(2.28543 -0.236922 1.39334e-19)
(2.41999 -0.241953 -2.221e-21)
(2.49928 -0.251799 -1.48805e-19)
(0.0497841 -0.0135766 -6.82299e-20)
(0.338498 -0.0642988 -1.23869e-20)
(0.771533 -0.111361 2.59909e-19)
(1.25917 -0.144671 -1.15265e-19)
(1.70796 -0.163807 -2.37173e-19)
(2.06043 -0.172697 5.29049e-19)
(2.30245 -0.175738 -5.08501e-19)
(2.44847 -0.176316 -7.13494e-19)
(2.52598 -0.175867 5.65281e-19)
(2.55425 -0.178062 2.76536e-21)
(0.114434 -0.0262035 6.94585e-20)
(0.530473 -0.0773301 -1.7953e-19)
(1.05943 -0.10733 -7.05834e-19)
(1.57905 -0.115785 3.78928e-19)
(1.99794 -0.113148 8.36466e-19)
(2.28627 -0.107258 -3.15867e-21)
(2.45851 -0.101965 -1.71423e-18)
(2.54676 -0.098518 1.51971e-20)
(2.58143 -0.0965106 1.96198e-18)
(2.58656 -0.100132 5.33903e-19)
(0.193898 -0.0315656 5.5025e-20)
(0.740562 -0.066733 3.58171e-19)
(1.33913 -0.0684533 6.53678e-19)
(1.85392 -0.0511591 -9.84734e-20)
(2.21962 -0.0324158 -7.06936e-19)
(2.4407 -0.0188856 -2.6879e-19)
(2.55397 -0.0113816 0)
(2.59938 -0.00860443 7.82617e-19)
(2.60729 -0.00898074 -1.67123e-20)
(2.59373 -0.0136499 -7.29055e-19)
(0.283474 -0.0260527 4.47509e-20)
(0.950682 -0.0281462 4.76007e-19)
(1.58709 0.00444074 9.05553e-19)
(2.07077 0.0434203 -9.96044e-19)
(2.3755 0.0713786 -8.72955e-19)
(2.53636 0.0864078 3.23478e-19)
(2.60395 0.0916221 -1.49981e-18)
(2.62 0.0908669 -1.13428e-18)
(2.61031 0.0868126 1.36909e-18)
(2.58744 0.0785736 1.18828e-18)
(0.376532 -0.00716734 3.33328e-21)
(1.14323 0.0385053 3.81042e-19)
(1.78879 0.106214 2.18363e-19)
(2.22711 0.160898 -1.81976e-18)
(2.47285 0.191869 3.32922e-20)
(2.58414 0.203626 3.49471e-18)
(2.61836 0.203404 -2.01162e-18)
(2.61495 0.197024 -1.15252e-18)
(2.59475 0.187591 4.1216e-19)
(2.5655 0.175006 -9.36666e-19)
(-0.0143162 0.176249 2.39817e-19)
(-0.0713992 0.310237 -1.3954e-19)
(-0.139156 0.33439 1.15737e-21)
(-0.207324 0.309492 -3.2977e-20)
(-0.268401 0.26626 1.21777e-21)
(-0.321222 0.217361 1.02096e-19)
(-0.366448 0.166613 1.23934e-19)
(-0.404631 0.114143 -1.18957e-19)
(-0.433373 0.058989 2.0043e-20)
(-0.445717 0.000779411 -5.63815e-20)
(-0.0322536 0.232538 -1.67863e-20)
(-0.0954199 0.425982 9.07764e-21)
(-0.158265 0.472537 1.05877e-20)
(-0.217132 0.44885 3.36641e-20)
(-0.267734 0.396779 -2.00131e-19)
(-0.30973 0.334844 9.08003e-20)
(-0.343805 0.269315 -1.51183e-19)
(-0.370618 0.201021 -1.9871e-19)
(-0.387945 0.129065 -4.29126e-20)
(-0.38691 0.0531634 1.78683e-20)
(-0.0539374 0.266278 -1.14224e-19)
(-0.124365 0.510638 3.88775e-20)
(-0.179613 0.583482 1.45129e-20)
(-0.224282 0.567084 -1.89378e-19)
(-0.25877 0.510598 -5.43785e-20)
(-0.283947 0.438018 5.31719e-19)
(-0.300461 0.358795 -2.77633e-19)
(-0.308965 0.275373 -1.00313e-19)
(-0.307988 0.187571 5.63182e-20)
(-0.28722 0.0956473 -3.33242e-20)
(-0.073185 0.270578 -1.30832e-19)
(-0.150644 0.550596 8.14765e-21)
(-0.196803 0.653795 3.5868e-20)
(-0.223552 0.653259 -1.56733e-19)
(-0.237457 0.599322 3.80664e-19)
(-0.240801 0.520274 -1.81385e-19)
(-0.234238 0.429281 -1.98042e-19)
(-0.218151 0.331456 2.33912e-19)
(-0.192443 0.228321 4.35128e-20)
(-0.147311 0.121646 -2.76274e-21)
(-0.083772 0.244616 0)
(-0.165421 0.537217 5.68159e-20)
(-0.202478 0.671084 -2.17753e-19)
(-0.210909 0.695641 1.3643e-19)
(-0.201747 0.654378 2.64873e-19)
(-0.179879 0.576409 -2.77999e-19)
(-0.146948 0.477872 1.21433e-19)
(-0.103092 0.366811 -8.88623e-20)
(-0.0498109 0.246663 0)
(0.0220548 0.12372 -2.41293e-21)
(-0.0824042 0.19596 8.85477e-21)
(-0.164846 0.471539 2.06297e-20)
(-0.195416 0.62652 -6.03241e-20)
(-0.189297 0.680542 7.43665e-20)
(-0.159677 0.662589 -4.45063e-20)
(-0.113862 0.597696 2.44909e-19)
(-0.0554824 0.502512 -5.03663e-19)
(0.0139914 0.386446 1.66933e-20)
(0.0929602 0.253596 4.05812e-19)
(0.193758 0.114869 9.82487e-22)
(-0.0709222 0.139427 6.88609e-21)
(-0.150401 0.370375 6.08226e-20)
(-0.17843 0.525816 8.1797e-21)
(-0.164658 0.600802 2.58244e-21)
(-0.121141 0.608113 -5.0059e-20)
(-0.0563308 0.565097 1.90734e-19)
(0.0243169 0.486033 2.35009e-19)
(0.118025 0.380213 3.02902e-19)
(0.221896 0.250679 -1.9379e-19)
(0.353835 0.106491 -1.4478e-19)
(-0.0562197 0.0912199 4.06037e-21)
(-0.13044 0.263935 -4.92761e-20)
(-0.15872 0.396632 -3.86932e-20)
(-0.143561 0.472491 1.54681e-20)
(-0.0932064 0.492778 -3.75626e-20)
(-0.0151931 0.466973 -1.87457e-19)
(0.0848329 0.405212 -2.42053e-19)
(0.204024 0.315542 2.32215e-19)
(0.337746 0.200146 1.17961e-19)
(0.515841 0.0608988 -1.27124e-19)
(-0.0463293 0.0608767 -1.50585e-20)
(-0.115141 0.17943 -1.53934e-19)
(-0.141989 0.275667 1.48229e-19)
(-0.124208 0.333139 9.26113e-20)
(-0.0652297 0.348922 -3.41832e-21)
(0.0302386 0.327233 -7.56702e-20)
(0.158134 0.27425 -2.49885e-20)
(0.31612 0.19688 4.41013e-19)
(0.493888 0.0959436 1.03265e-19)
(0.736373 -0.0278518 -1.07588e-19)
(-0.0450815 0.0475912 -1.38309e-20)
(-0.107469 0.125484 -1.07765e-19)
(-0.123549 0.183404 -3.70927e-20)
(-0.0891962 0.21175 6.46052e-20)
(-0.00397245 0.208942 3.94649e-20)
(0.129989 0.177254 2.81014e-20)
(0.30885 0.121084 1.0356e-19)
(0.525401 0.0460588 -1.05853e-19)
(0.766284 -0.0437641 8.76692e-20)
(1.05566 -0.13617 4.94387e-20)
(-0.441971 -0.303649 6.27112e-19)
(-0.0811569 -0.414786 -4.75032e-19)
(0.425801 -0.30672 -7.37827e-20)
(0.662991 -0.233592 1.82411e-20)
(0.842888 -0.177066 -1.10176e-20)
(0.942968 -0.131374 -8.95087e-21)
(0.997472 -0.103156 -1.01982e-20)
(1.03098 -0.0729971 -2.34923e-21)
(1.04641 -0.0621552 1.18664e-20)
(1.06391 -0.0420934 2.05944e-21)
(-0.301143 -0.354584 6.62209e-19)
(-0.0190767 -0.550414 3.64862e-19)
(0.471511 -0.413116 -1.3235e-20)
(0.691469 -0.299307 -4.47112e-20)
(0.860813 -0.215515 -6.13261e-20)
(0.955048 -0.153096 0)
(1.00631 -0.115543 -1.27289e-20)
(1.03697 -0.0798693 4.38765e-21)
(1.05119 -0.0665495 3.09792e-22)
(1.06656 -0.0445002 -4.01765e-21)
(-0.0886215 -0.406106 -7.26503e-19)
(0.112294 -0.662799 -1.782e-19)
(0.548648 -0.513629 7.85881e-20)
(0.737251 -0.361347 1.58861e-20)
(0.886693 -0.251971 -3.65925e-22)
(0.970951 -0.173732 4.12621e-21)
(1.01705 -0.127203 0)
(1.04391 -0.086243 0)
(1.05651 -0.0705117 -6.32505e-21)
(1.06941 -0.0466011 0)
(0.17909 -0.458215 -1.17162e-19)
(0.311766 -0.748157 5.65038e-19)
(0.661569 -0.599616 -4.33881e-20)
(0.803666 -0.416163 0)
(0.922282 -0.28467 8.78119e-20)
(0.991317 -0.192473 -1.53551e-20)
(1.02987 -0.137768 0)
(1.05182 -0.0919458 1.86339e-20)
(1.06234 -0.0739441 0)
(1.07244 -0.0483487 2.60928e-21)
(0.483898 -0.509819 -2.63538e-19)
(0.553253 -0.808867 3.17758e-19)
(0.801901 -0.665459 3.16077e-20)
(0.888752 -0.460419 0)
(0.968014 -0.311672 3.4883e-20)
(1.01661 -0.208329 3.66931e-20)
(1.04496 -0.146786 3.72058e-21)
(1.06073 -0.0967819 3.43623e-22)
(1.06866 -0.0767463 -4.96839e-21)
(1.07561 -0.049699 1.56287e-21)
(0.800352 -0.564488 -1.4644e-18)
(0.809816 -0.849531 -5.24255e-19)
(0.953266 -0.710669 -1.80219e-20)
(0.984319 -0.492922 1.63792e-19)
(1.02163 -0.331775 -6.66412e-20)
(1.04656 -0.220399 2.1889e-20)
(1.06239 -0.153756 3.97127e-20)
(1.0707 -0.100522 -3.8668e-20)
(1.07547 -0.0788084 -4.48236e-23)
(1.07891 -0.0506109 -4.97845e-21)
(1.08687 -0.614714 1.365e-19)
(1.0611 -0.873426 1.17533e-19)
(1.10171 -0.737582 -5.55183e-20)
(1.07997 -0.514749 -5.59094e-21)
(1.07828 -0.345201 -9.49698e-20)
(1.07959 -0.228325 2.78246e-21)
(1.08185 -0.158281 -1.8122e-20)
(1.08174 -0.102923 -1.83736e-21)
(1.08276 -0.0799996 5.3309e-21)
(1.08233 -0.0510412 -9.09209e-22)
(1.34077 -0.658732 -3.23158e-20)
(1.29493 -0.882892 2.13087e-19)
(1.24023 -0.748974 0)
(1.16885 -0.52761 3.53633e-20)
(1.13277 -0.353273 8.3473e-20)
(1.11303 -0.232587 -2.36791e-21)
(1.10237 -0.160331 -6.51905e-20)
(1.09362 -0.103841 1.68073e-20)
(1.09052 -0.0801966 -2.66947e-22)
(1.08586 -0.0509442 -2.71056e-21)
(1.56677 -0.689302 2.39618e-19)
(1.50485 -0.877145 -5.76243e-19)
(1.36616 -0.746798 1.339e-19)
(1.24898 -0.53271 -2.40862e-20)
(1.18221 -0.357412 -7.89475e-22)
(1.14427 -0.234289 -7.11158e-20)
(1.12243 -0.160436 2.21716e-20)
(1.10573 -0.10343 1.78891e-22)
(1.09852 -0.0794017 -1.26275e-21)
(1.08946 -0.0503001 2.65816e-21)
(1.78521 -0.695795 -2.45351e-19)
(1.68794 -0.855628 -5.22186e-19)
(1.47863 -0.731948 1.30406e-20)
(1.32065 -0.529998 -1.65809e-19)
(1.22643 -0.357937 -9.7878e-20)
(1.17206 -0.234307 -4.37079e-20)
(1.14064 -0.159404 -1.46452e-20)
(1.11719 -0.102163 0)
(1.10629 -0.0778352 -7.55499e-21)
(1.09298 -0.0491472 5.82985e-21)
(2.15633 -0.699812 -9.34509e-19)
(1.91378 -0.804861 -6.17555e-20)
(1.61743 -0.691107 -2.50798e-19)
(1.40773 -0.50978 2.8357e-20)
(1.27881 -0.347703 2.79838e-20)
(1.2032 -0.227774 -2.87561e-20)
(1.16035 -0.154008 -1.66627e-20)
(1.12976 -0.0982218 1.18655e-20)
(1.11507 -0.0743381 -5.0253e-21)
(1.09705 -0.0470224 -2.67941e-21)
(2.2856 -0.665434 1.70856e-19)
(1.92368 -0.711011 -3.41684e-19)
(1.60065 -0.573008 -1.71832e-21)
(1.40832 -0.415305 -1.65858e-20)
(1.29265 -0.286877 1.07784e-19)
(1.21789 -0.192151 8.30659e-20)
(1.17247 -0.133152 5.46925e-20)
(1.13846 -0.0862574 -5.94709e-21)
(1.12215 -0.0664827 1.86135e-20)
(1.10041 -0.0427546 3.31617e-21)
(2.26655 -0.549147 -1.25491e-19)
(1.98344 -0.589372 -3.4681e-20)
(1.71701 -0.499266 3.78966e-20)
(1.51336 -0.37609 8.40218e-36)
(1.36704 -0.262551 -9.90634e-21)
(1.26384 -0.174392 -2.38514e-34)
(1.19915 -0.119471 2.58973e-21)
(1.15307 -0.0768479 7.16691e-37)
(1.13125 -0.0591127 -5.24706e-23)
(1.10419 -0.0382525 -7.26331e-23)
(2.23198 -0.462864 -4.79855e-34)
(1.986 -0.505957 1.07604e-19)
(1.72261 -0.413497 -1.64292e-20)
(1.51874 -0.295008 0)
(1.37683 -0.201146 -5.14878e-20)
(1.27577 -0.133975 -3.9491e-20)
(1.2102 -0.0938538 -2.79711e-20)
(1.1611 -0.0616054 2.03003e-34)
(1.13748 -0.0487288 -8.59631e-21)
(1.10683 -0.0323918 -2.37731e-22)
(2.19751 -0.390001 -7.84352e-20)
(1.99951 -0.415457 1.13703e-20)
(1.7626 -0.333602 0)
(1.55528 -0.235631 0)
(1.40247 -0.159981 0)
(1.29248 -0.105332 0)
(1.22101 -0.0730859 1.087e-21)
(1.16753 -0.0477157 2.39692e-34)
(1.14204 -0.0382512 -2.97097e-22)
(1.10844 -0.02611 -5.52782e-35)
(2.17398 -0.332872 2.45555e-20)
(1.99789 -0.342916 0)
(1.76775 -0.258442 0)
(1.55841 -0.166034 0)
(1.40326 -0.105679 0)
(1.29271 -0.0680778 0)
(1.22117 -0.047997 -2.48693e-21)
(1.16717 -0.0318858 1.29477e-20)
(1.14175 -0.0267513 -4.05771e-22)
(1.10691 -0.0192498 1.23824e-21)
(2.1353 -0.283489 0)
(1.94959 -0.269017 1.28429e-20)
(1.71673 -0.181025 -3.55201e-20)
(1.51116 -0.099413 0)
(1.36377 -0.0560691 -3.00196e-20)
(1.26287 -0.0342269 -1.93053e-20)
(1.19876 -0.0246428 -1.48666e-20)
(1.1497 -0.016801 -7.01837e-21)
(1.12713 -0.0154813 6.42723e-21)
(1.09388 -0.0123171 -1.98412e-21)
(1.99158 -0.224422 5.45742e-21)
(1.7561 -0.186744 1.18109e-20)
(1.52027 -0.10303 -1.42732e-20)
(1.34308 -0.0383241 -3.91142e-36)
(1.22955 -0.0133228 8.59089e-21)
(1.15803 -0.00634138 -1.28764e-34)
(1.114 -0.00576787 -3.14303e-21)
(1.07901 -0.0046138 -5.54852e-21)
(1.06374 -0.00597875 -5.30139e-22)
(1.03694 -0.00608 1.10659e-21)
(1.51521 -0.141333 -1.66445e-20)
(1.23754 -0.0916661 7.43797e-21)
(1.0384 -0.0285028 2.18637e-20)
(0.940244 0.00847883 0)
(0.900661 0.0151271 1.36553e-20)
(0.883354 0.0111562 8.21568e-21)
(0.873277 0.0062529 1.71382e-21)
(0.861872 0.00328314 2.65143e-21)
(0.858074 0.000717689 -3.29938e-21)
(0.843378 -0.00126514 -8.30548e-22)
(0.504209 -0.0157368 0)
(0.33837 -0.00201456 0)
(0.270761 0.00628023 0)
(0.27813 0.00819336 0)
(0.307613 0.00610762 0)
(0.333215 0.00381224 0)
(0.349417 0.00230517 -3.43639e-21)
(0.357857 0.00132576 9.9794e-36)
(0.363195 0.000687074 -6.3665e-22)
(0.361823 5.34887e-05 -1.2336e-21)
(2.49543 0.149657 9.00901e-19)
(2.52031 0.0688356 5.70622e-20)
(2.54482 -0.0179332 -9.89598e-20)
(2.54362 -0.0866187 -3.23325e-19)
(2.56042 -0.17067 -7.03612e-20)
(2.5181 -0.219849 -1.17148e-19)
(2.54304 -0.309332 -4.12308e-19)
(2.39514 -0.320199 5.94687e-20)
(2.43342 -0.42218 0)
(2.01298 -0.343176 9.00872e-20)
(2.40524 0.118076 2.80455e-19)
(2.40967 0.0576097 -3.39713e-19)
(2.46592 -0.0179307 -6.28781e-20)
(2.43714 -0.0686329 -1.51663e-19)
(2.50488 -0.149823 1.13396e-19)
(2.43583 -0.188023 2.18752e-19)
(2.52364 -0.279086 -2.75693e-19)
(2.4068 -0.307763 -9.52054e-21)
(2.49145 -0.406058 -2.43949e-20)
(2.33515 -0.43236 1.21911e-19)
(2.33256 0.0950881 -1.28918e-19)
(2.33548 0.0396879 2.86606e-19)
(2.38476 -0.0161116 1.91785e-19)
(2.36494 -0.0672266 -3.08761e-19)
(2.41324 -0.125062 -2.34651e-20)
(2.37676 -0.173977 4.21175e-19)
(2.41744 -0.232938 6.42553e-20)
(2.37884 -0.286615 -7.79975e-20)
(2.3929 -0.341608 -4.19543e-20)
(2.3698 -0.409342 -4.84577e-20)
(2.26649 0.0700392 -3.07863e-19)
(2.28146 0.019258 -2.96635e-20)
(2.31103 -0.0201187 -5.60455e-21)
(2.31359 -0.0703767 -2.99703e-20)
(2.33205 -0.109634 -2.04107e-19)
(2.32836 -0.160882 -1.12979e-19)
(2.33155 -0.198723 2.41881e-19)
(2.32955 -0.253912 -3.0435e-21)
(2.31463 -0.289699 4.27413e-20)
(2.31784 -0.351256 2.65145e-20)
(2.21179 0.0449519 5.18996e-20)
(2.23425 0.00142653 1.23891e-19)
(2.25304 -0.0286657 -4.06328e-20)
(2.26686 -0.0726301 2.39128e-19)
(2.27373 -0.102566 -4.3123e-20)
(2.28152 -0.147151 -2.61568e-19)
(2.27613 -0.176227 4.23439e-20)
(2.28012 -0.222072 -1.19969e-19)
(2.26373 -0.250966 6.36063e-20)
(2.26444 -0.298703 3.84609e-20)
(2.16671 0.0194129 -1.66889e-19)
(2.19021 -0.0159413 -8.05271e-20)
(2.20642 -0.0403523 1.19023e-20)
(2.22212 -0.0761309 1.25715e-19)
(2.22854 -0.100868 2.38941e-19)
(2.23727 -0.136717 -7.67893e-20)
(2.23443 -0.161516 6.99307e-21)
(2.237 -0.19734 -3.51449e-20)
(2.22567 -0.222451 -3.55478e-20)
(2.22283 -0.258183 -6.91131e-20)
(2.11639 -0.00480086 -6.13346e-20)
(2.13846 -0.0326207 -1.31139e-19)
(2.15299 -0.0520086 -1.33229e-19)
(2.16887 -0.0804329 -2.5849e-19)
(2.17509 -0.100221 4.40227e-20)
(2.1856 -0.12896 5.0782e-20)
(2.1837 -0.149166 2.7514e-20)
(2.19009 -0.177845 5.83136e-20)
(2.17971 -0.19814 -9.58291e-20)
(2.18379 -0.226277 -3.57405e-20)
(2.01148 -0.0253214 6.01128e-20)
(2.02917 -0.0452594 4.69101e-20)
(2.03634 -0.0588853 2.17434e-20)
(2.05192 -0.0800199 -4.39342e-20)
(2.05037 -0.0935459 -4.12052e-20)
(2.06617 -0.115852 -1.19602e-20)
(2.05514 -0.129293 -4.23707e-20)
(2.07401 -0.15245 5.33256e-20)
(2.05176 -0.165422 -2.98418e-20)
(2.07708 -0.188834 4.71542e-20)
(1.70335 -0.0381614 -5.2481e-20)
(1.70339 -0.0485584 -1.10096e-22)
(1.69511 -0.0561525 1.02964e-19)
(1.69557 -0.0671051 -4.73294e-21)
(1.67979 -0.074067 -2.80605e-20)
(1.68508 -0.0862964 5.66601e-20)
(1.65906 -0.092508 -3.5893e-20)
(1.67458 -0.106634 1.92857e-20)
(1.63315 -0.111531 9.7928e-21)
(1.66671 -0.127747 5.71493e-21)
(0.846539 -0.015148 4.72498e-20)
(0.8236 -0.0149686 3.66721e-20)
(0.80071 -0.0146514 3.52797e-20)
(0.778603 -0.0146666 5.49607e-20)
(0.755116 -0.0147518 -2.72806e-20)
(0.734773 -0.0152587 -2.824e-20)
(0.709225 -0.0160801 1.11316e-20)
(0.693475 -0.0172606 -2.36581e-21)
(0.659383 -0.0179023 3.40606e-21)
(0.660249 -0.0230482 -4.5857e-21)
(1.55926 0.936302 -8.28065e-20)
(1.54271 0.982302 2.83394e-20)
(1.54564 1.0359 -6.23827e-19)
(1.55389 1.09704 2.47754e-19)
(1.56029 1.16188 1.16753e-18)
(1.55642 1.22285 -1.55216e-19)
(1.52101 1.25847 -1.05692e-18)
(1.40466 1.21781 -1.97802e-20)
(1.11822 1.00466 -5.28992e-19)
(0.528668 0.488567 1.31386e-19)
(1.72433 0.903389 0)
(1.7131 0.948586 7.35075e-19)
(1.71261 0.998966 1.62843e-18)
(1.72059 1.05812 -9.9611e-19)
(1.73054 1.12207 -2.33193e-18)
(1.73053 1.18175 -1.60387e-19)
(1.69407 1.21458 -2.05049e-19)
(1.56406 1.17025 7.4509e-19)
(1.24069 0.957682 1.09242e-18)
(0.581802 0.459272 4.49844e-19)
(1.87754 0.86368 7.15308e-20)
(1.87598 0.908392 0)
(1.8772 0.955693 -7.18336e-20)
(1.88592 1.01024 1.01806e-18)
(1.89813 1.06944 5.89178e-20)
(1.89997 1.12416 -2.31171e-18)
(1.86009 1.15123 1.45619e-18)
(1.71371 1.1021 8.78084e-19)
(1.35183 0.89293 -9.49359e-19)
(0.626923 0.420676 -2.95969e-19)
(2.01181 0.810769 -1.83188e-19)
(2.02096 0.854293 -1.36084e-19)
(2.02853 0.898692 2.85361e-19)
(2.0409 0.948391 -3.53712e-19)
(2.05574 1.00174 -1.6478e-18)
(2.05817 1.04965 -1.27138e-18)
(2.01234 1.06937 1.34988e-18)
(1.84691 1.01471 8.75816e-19)
(1.44467 0.811032 0)
(0.659698 0.372912 0)
(2.13244 0.744123 -9.58186e-19)
(2.15017 0.78509 -1.72748e-18)
(2.16467 0.826019 -6.68891e-19)
(2.18158 0.870628 -3.69521e-20)
(2.19877 0.91755 0)
(2.19996 0.95794 1.50166e-19)
(2.14546 0.968643 1.75265e-19)
(1.95625 0.908283 2.18927e-19)
(1.51154 0.713367 -3.17862e-19)
(0.676148 0.316809 -7.97977e-20)
(2.23742 0.665099 1.14534e-18)
(2.26289 0.702294 -4.64832e-20)
(2.28421 0.73907 -1.34406e-18)
(2.30561 0.778285 0)
(2.32424 0.818153 0)
(2.32192 0.848946 0)
(2.25343 0.850766 1.57517e-18)
(2.03459 0.78665 -1.74651e-18)
(1.5474 0.602367 -1.12238e-18)
(0.673639 0.25469 3.94045e-21)
(2.33112 0.575234 -1.50725e-18)
(2.36123 0.607932 -3.16579e-18)
(2.38734 0.639949 -5.48698e-21)
(2.4117 0.673166 6.36576e-19)
(2.42948 0.705309 -4.28626e-20)
(2.41906 0.72717 1.36112e-18)
(2.33021 0.720061 -7.44614e-19)
(2.07712 0.652164 -2.05088e-18)
(1.54782 0.481976 1.41471e-19)
(0.650699 0.190323 1.03694e-19)
(2.41094 0.478971 -1.19823e-18)
(2.44433 0.50577 1.84573e-20)
(2.47308 0.532462 4.5479e-19)
(2.49789 0.559305 -4.36368e-19)
(2.51118 0.583404 6.70578e-19)
(2.48718 0.595994 1.81858e-18)
(2.37161 0.580153 -1.93506e-19)
(2.07862 0.510063 -1.1011e-18)
(1.50882 0.358321 2.59846e-19)
(0.607168 0.127948 4.71898e-20)
(2.47808 0.377444 4.42384e-19)
(2.51171 0.399544 9.53357e-20)
(2.54034 0.420602 -4.64926e-19)
(2.56241 0.440592 -1.06375e-18)
(2.56656 0.45633 8.99133e-20)
(2.52233 0.459613 8.15341e-20)
(2.37213 0.436087 -1.40794e-18)
(2.03368 0.366778 5.77633e-19)
(1.42787 0.238333 1.71997e-19)
(0.544413 0.0718232 -1.02892e-19)
(2.52922 0.276195 8.4549e-19)
(2.56191 0.293277 -1.25675e-18)
(2.58803 0.308222 1.98886e-19)
(2.60343 0.321039 2.49356e-18)
(2.59236 0.328454 1.23865e-18)
(2.51954 0.323181 -2.65906e-18)
(2.3259 0.294134 -2.51683e-18)
(1.93792 0.22959 1.11648e-18)
(1.30491 0.129348 -2.20166e-20)
(0.465768 0.0258425 -5.1635e-20)
(0.530503 0.380403 -1.53593e-19)
(0.490727 0.393944 -1.61002e-19)
(0.446022 0.40846 6.77396e-20)
(0.396974 0.424098 -2.2495e-19)
(0.343258 0.440726 -1.70102e-20)
(0.284062 0.457015 2.14092e-19)
(0.218476 0.467461 3.25444e-20)
(0.147029 0.456014 6.21997e-21)
(0.0766504 0.387079 2.18469e-20)
(0.015716 0.199612 1.29508e-20)
(0.575052 0.48506 1.28062e-19)
(0.536079 0.505051 1.6277e-19)
(0.49297 0.526584 4.9247e-20)
(0.44592 0.549828 -4.73285e-20)
(0.394321 0.574561 -2.17129e-19)
(0.337113 0.598925 -1.77281e-20)
(0.272685 0.615478 5.55704e-20)
(0.19972 0.602716 4.12887e-20)
(0.121449 0.512909 -1.26711e-19)
(0.0389021 0.264871 -4.38373e-20)
(0.637566 0.58296 -1.0473e-19)
(0.599813 0.608687 -9.15108e-20)
(0.558931 0.636405 9.63083e-20)
(0.514667 0.666566 6.69045e-20)
(0.466155 0.699054 -8.19781e-20)
(0.412044 0.731577 -2.2995e-20)
(0.349712 0.75475 -1.12685e-19)
(0.275062 0.741545 -7.92239e-20)
(0.185621 0.632198 -7.00469e-20)
(0.0721076 0.326417 6.05755e-22)
(0.71624 0.676918 3.03807e-20)
(0.680225 0.708913 -5.73998e-20)
(0.642527 0.742829 -8.24506e-20)
(0.601962 0.779332 -5.90439e-20)
(0.557228 0.818402 -7.00686e-20)
(0.50675 0.857392 -4.31756e-21)
(0.446866 0.885157 -2.83183e-19)
(0.370111 0.869726 5.32264e-20)
(0.266556 0.740839 -3.25445e-19)
(0.113953 0.381684 5.07333e-20)
(0.808799 0.755882 8.52996e-21)
(0.775144 0.792791 1.48046e-20)
(0.74173 0.832103 -5.1501e-20)
(0.706569 0.874877 -2.74382e-19)
(0.66764 0.920908 1.25847e-19)
(0.622594 0.966865 3.20221e-20)
(0.566148 0.999821 5.45124e-20)
(0.486668 0.983163 -1.69593e-19)
(0.36512 0.836896 3.92485e-19)
(0.164347 0.429841 2.86734e-19)
(0.916673 0.832882 -9.38033e-20)
(0.88476 0.874318 -1.86771e-19)
(0.854657 0.917039 3.0574e-20)
(0.823764 0.963431 1.03845e-19)
(0.790029 1.01387 3.67417e-19)
(0.750665 1.06446 2.63801e-19)
(0.698343 1.10017 6.46671e-19)
(0.616267 1.08005 2.6854e-19)
(0.474929 0.91646 1.58252e-19)
(0.2204 0.468233 2.13529e-19)
(1.03094 0.885218 -1.12494e-19)
(1.00481 0.931422 6.12657e-19)
(0.982345 0.978713 3.96884e-19)
(0.959036 1.02952 -5.0394e-19)
(0.932112 1.08437 -2.51277e-19)
(0.898591 1.13924 6.80778e-19)
(0.849582 1.17774 -1.10524e-19)
(0.762925 1.15514 -4.52666e-19)
(0.597552 0.977236 1.04993e-20)
(0.281775 0.496073 2.60369e-19)
(1.15243 0.937435 3.04657e-19)
(1.12639 0.984084 6.18414e-20)
(1.10839 1.03175 -7.86207e-19)
(1.09289 1.0845 1.60669e-19)
(1.0753 1.14206 5.83416e-19)
(1.05061 1.19907 -3.3112e-19)
(1.00696 1.23743 -9.84629e-20)
(0.916134 1.2097 -1.86955e-19)
(0.725181 1.01787 1.89763e-20)
(0.34488 0.512133 -3.12828e-19)
(1.28305 0.956273 2.04464e-20)
(1.26759 1.00696 -5.7104e-19)
(1.25705 1.05576 -4.7457e-21)
(1.24707 1.10958 4.80185e-19)
(1.23515 1.16949 -4.93154e-19)
(1.2163 1.22926 9.66427e-19)
(1.17568 1.26855 6.52326e-19)
(1.07794 1.23723 -9.71938e-19)
(0.857566 1.0354 -7.26938e-20)
(0.408563 0.515789 -3.42037e-19)
(1.38666 0.96525 -3.37434e-19)
(1.38243 1.01679 -3.20006e-19)
(1.38921 1.06753 3.07115e-19)
(1.39429 1.12243 7.8273e-19)
(1.39411 1.18216 2.85807e-19)
(1.38405 1.24084 -7.96873e-19)
(1.34723 1.27749 9.14747e-20)
(1.24164 1.24081 2.17245e-19)
(0.989626 1.03123 -2.95141e-19)
(0.470455 0.50785 -2.43429e-19)
(0.973571 0.0169132 1.18299e-21)
(1.02297 0.035258 -1.9197e-20)
(1.01798 0.0536573 -1.6029e-20)
(1.02105 0.0832738 0)
(1.03058 0.104609 2.16887e-20)
(1.01307 0.135631 3.0493e-20)
(0.989032 0.160026 4.06944e-20)
(0.935067 0.192075 8.71112e-20)
(0.852956 0.251002 -1.27691e-19)
(0.70409 0.31316 -1.97435e-19)
(0.973795 0.0151828 4.07292e-20)
(1.02171 0.033255 -6.26423e-20)
(1.0169 0.0515946 1.35835e-22)
(1.02004 0.0817371 -2.05585e-20)
(1.03182 0.106718 1.07443e-20)
(1.01663 0.14075 -1.52353e-20)
(0.995729 0.171595 -9.50036e-20)
(0.948777 0.212161 0)
(0.869048 0.28775 2.64164e-19)
(0.742389 0.38186 -2.70031e-19)
(0.97368 0.0136496 -3.06827e-20)
(1.02118 0.0313945 1.74234e-20)
(1.0163 0.0495838 4.37544e-20)
(1.02031 0.0802981 1.08721e-20)
(1.03339 0.1083 -2.56692e-20)
(1.02224 0.145855 1.24789e-21)
(1.00251 0.182126 -6.52567e-20)
(0.966795 0.231992 -5.49855e-21)
(0.887564 0.323011 -3.76033e-23)
(0.79459 0.447875 7.58439e-19)
(0.973259 0.0122451 -3.31731e-20)
(1.0213 0.0296079 2.62561e-21)
(1.01616 0.0475439 3.58694e-20)
(1.02165 0.0790455 2.27206e-20)
(1.03546 0.10927 -1.27038e-20)
(1.02962 0.151191 -1.72124e-20)
(1.00973 0.191342 9.40747e-20)
(0.988797 0.251934 -1.49259e-21)
(0.908647 0.355722 -2.89307e-19)
(0.860094 0.509781 9.38476e-20)
(0.972566 0.010914 2.33298e-20)
(1.02199 0.0278234 -3.33041e-20)
(1.01652 0.0454275 -2.85835e-20)
(1.02383 0.0780162 1.33471e-20)
(1.03832 0.109572 0)
(1.03832 0.156957 0)
(1.01807 0.198959 7.83282e-20)
(1.01379 0.272227 1.08872e-22)
(0.93376 0.385339 -1.31397e-19)
(0.936288 0.566326 9.65868e-20)
(0.971636 0.00961058 6.536e-21)
(1.0232 0.0259612 2.72919e-20)
(1.01742 0.0432241 -7.64039e-20)
(1.02659 0.0771785 -2.60868e-20)
(1.04228 0.109204 -6.40387e-22)
(1.04787 0.163219 7.16189e-20)
(1.02806 0.204679 1.19339e-19)
(1.04171 0.293326 -9.5205e-22)
(0.961105 0.409972 2.18049e-19)
(1.02741 0.621778 -2.25209e-19)
(0.970488 0.00828698 -2.6262e-20)
(1.02489 0.0239344 1.46164e-20)
(1.01888 0.0409557 -2.03124e-20)
(1.02974 0.0764194 -5.51518e-20)
(1.04763 0.108274 2.02679e-21)
(1.05765 0.169775 -1.71566e-21)
(1.04088 0.208634 -6.78511e-21)
(1.07004 0.314559 -2.37433e-19)
(0.99776 0.430542 1.59795e-19)
(1.11502 0.662749 -5.52442e-19)
(0.969117 0.00690743 -4.14872e-21)
(1.02704 0.021658 -4.30366e-20)
(1.02089 0.0386659 4.10533e-20)
(1.03323 0.0755778 2.96276e-20)
(1.05455 0.106968 1.05231e-21)
(1.06743 0.176258 -8.22649e-20)
(1.05657 0.21113 -6.4584e-20)
(1.1007 0.336072 4.21621e-19)
(1.03403 0.44726 1.55183e-20)
(1.23067 0.719075 8.66331e-19)
(0.967477 0.00543512 1.81163e-20)
(1.02964 0.0190613 1.99124e-20)
(1.02342 0.0364216 4.65617e-20)
(1.03712 0.0745456 -3.24449e-20)
(1.0631 0.105439 -8.66868e-20)
(1.07687 0.182521 1.27215e-21)
(1.07668 0.210813 -8.80797e-20)
(1.13026 0.355626 5.44522e-19)
(1.09131 0.448583 -9.38077e-21)
(1.30208 0.735754 -1.20055e-18)
(0.965481 0.00396995 5.84468e-22)
(1.03271 0.0161604 3.15433e-20)
(1.02643 0.0343739 1.58717e-20)
(1.0416 0.0733151 -6.54456e-20)
(1.07251 0.105449 -8.30887e-20)
(1.08596 0.188257 -6.88472e-20)
(1.09758 0.217095 -1.59386e-19)
(1.15588 0.377355 -4.88885e-19)
(1.14639 0.474437 -2.65881e-19)
(1.43901 0.803595 -1.26536e-18)
(0.962652 0.00154619 -1.77629e-21)
(1.03645 0.0116903 -7.11561e-21)
(1.03131 0.0298764 -1.73133e-20)
(1.04705 0.0693032 3.51133e-20)
(1.08613 0.098316 5.99829e-20)
(1.10126 0.190425 -4.50294e-20)
(1.12356 0.200829 1.49213e-19)
(1.2024 0.387489 -4.55478e-19)
(1.21297 0.415816 -2.00415e-19)
(1.45586 0.792382 6.7518e-19)
(0.961133 -0.00245422 3.49188e-21)
(1.04024 0.00497896 1.54993e-20)
(1.03899 0.0222487 -1.09159e-20)
(1.05356 0.0608405 6.6488e-20)
(1.10635 0.085064 9.73893e-20)
(1.11048 0.185275 1.32039e-19)
(1.16699 0.173526 3.34584e-20)
(1.23054 0.373556 2.19766e-19)
(1.31298 0.366067 3.26759e-19)
(1.48117 0.692757 2.15605e-20)
(0.959936 -0.00702394 -2.20754e-21)
(1.04512 -0.00313522 -4.24194e-21)
(1.04755 0.0142126 3.24354e-21)
(1.06372 0.0500665 5.03992e-21)
(1.12568 0.0731634 2.87648e-34)
(1.1189 0.17501 -7.85891e-21)
(1.2109 0.144305 -5.63798e-34)
(1.25035 0.34996 2.06496e-20)
(1.37966 0.311743 -5.98248e-20)
(1.51533 0.605924 -5.8463e-20)
(0.958408 -0.0127201 1.42607e-20)
(1.05187 -0.0129989 -4.78689e-35)
(1.05677 0.00499165 -3.75417e-21)
(1.0795 0.0375585 -3.04634e-20)
(1.13834 0.0627816 -4.59255e-20)
(1.13735 0.159377 -4.22006e-20)
(1.23962 0.115818 -7.10525e-34)
(1.27425 0.32261 -8.52855e-20)
(1.41031 0.260434 -1.47614e-19)
(1.5509 0.514195 9.95252e-20)
(0.956356 -0.0199113 0)
(1.06091 -0.0243108 7.6581e-35)
(1.06784 -0.00679428 0)
(1.10022 0.0238181 0)
(1.14498 0.0520441 0)
(1.16683 0.138773 0)
(1.25129 0.0913215 -4.73183e-34)
(1.30079 0.288207 0)
(1.4284 0.215298 -2.15287e-20)
(1.58653 0.415776 5.93814e-20)
(0.953869 -0.0282635 3.65081e-21)
(1.07248 -0.0373625 7.47983e-21)
(1.08144 -0.0192293 -4.87278e-21)
(1.12301 0.0129399 0)
(1.1501 0.0423279 0)
(1.19885 0.115353 6.89758e-21)
(1.25459 0.0726935 4.08152e-20)
(1.32417 0.245299 -1.47255e-20)
(1.45064 0.172883 -3.16706e-20)
(1.61167 0.322838 2.28718e-19)
(0.952188 -0.0425992 -7.74101e-20)
(1.08784 -0.0570427 -1.52061e-21)
(1.0955 -0.0380412 -5.5052e-21)
(1.14032 -0.00199437 -1.90233e-20)
(1.1502 0.0298993 -2.51812e-20)
(1.22144 0.0880698 -1.03631e-20)
(1.25286 0.0583218 -3.33004e-20)
(1.33984 0.194923 -3.05455e-20)
(1.47043 0.132305 -5.71036e-20)
(1.62509 0.238839 7.90182e-20)
(0.954401 -0.0490141 -7.25818e-21)
(1.10069 -0.0662118 -1.83822e-20)
(1.0863 -0.0448141 -6.13661e-21)
(1.12393 -0.00668079 -5.13715e-21)
(1.11818 0.0221703 -2.23217e-35)
(1.21079 0.0614187 7.33113e-21)
(1.21759 0.0465523 -9.31575e-34)
(1.33918 0.139474 -1.43411e-20)
(1.45638 0.0921489 2.00961e-20)
(1.62698 0.160852 2.80093e-20)
(0.956892 -0.0894528 1.95219e-19)
(1.0552 -0.094904 -4.23548e-21)
(0.967668 -0.0638734 -6.56789e-21)
(0.972665 -0.0174108 1.4325e-20)
(0.953261 0.00818885 1.25051e-20)
(1.06204 0.0328606 1.54823e-20)
(1.04635 0.0324062 1.46894e-20)
(1.229 0.0799933 -1.01322e-20)
(1.30413 0.0538477 -2.31574e-20)
(1.51939 0.0883443 1.46989e-19)
(0.830724 -0.0454734 9.39971e-21)
(0.732902 -0.0348848 -9.49821e-35)
(0.531968 -0.0150596 -7.78195e-21)
(0.491851 -0.00198795 0)
(0.473596 0.00167334 0)
(0.539665 0.00810251 7.43963e-21)
(0.547645 0.00586545 -6.33086e-36)
(0.688534 0.0164659 -1.39155e-20)
(0.748837 0.00799766 -2.98443e-20)
(0.91037 0.0156051 6.11092e-20)
(1.66026 0.821736 -2.01993e-19)
(1.76157 0.799171 -2.97901e-19)
(1.87791 0.76494 0)
(1.9864 0.715396 1.55483e-19)
(2.08979 0.653719 6.71727e-19)
(2.17965 0.581927 -1.32093e-19)
(2.26561 0.501194 1.77108e-18)
(2.33669 0.418062 -8.36641e-20)
(2.40255 0.327755 -4.06343e-19)
(2.45188 0.24068 3.637e-19)
(1.68174 0.672398 1.02254e-19)
(1.76025 0.650009 1.19361e-19)
(1.85505 0.617122 -1.3288e-20)
(1.94596 0.568612 2.22439e-19)
(2.03765 0.515371 -1.84936e-19)
(2.11227 0.453464 -4.38676e-19)
(2.19125 0.390625 -1.26745e-19)
(2.24649 0.32426 6.06105e-19)
(2.31427 0.255853 -2.35184e-20)
(2.34681 0.190294 -5.25856e-19)
(1.71331 0.554867 1.03396e-19)
(1.78561 0.526697 1.93155e-19)