/*--------------------------------*- C++ -*----------------------------------*\
  =========                 |
  \\      /  F ield         | OpenFOAM: The Open Source CFD Toolbox
   \\    /   O peration     | Website:  https://openfoam.org
    \\  /    A nd           | Version:  13
     \\/     M anipulation  |
\*---------------------------------------------------------------------------*/
FoamFile
{
    format      ascii;
    class       volScalarField;
    location    "4.1";
    object      p;
}
// * * * * * * * * * * * * * * * * * * * * * * * * * * * * * * * * * * * * * //

dimensions      [0 2 -2 0 0 0 0];

internalField   nonuniform List<scalar> 
1800
(
-0.858618
-0.859372
-0.858815
-0.856241
-0.851988
-0.846683
-0.842279
-0.841821
-0.845006
-0.889082
-0.881911
-0.880783
-0.878635
-0.874997
-0.869944
-0.863808
-0.85777
-0.853936
-0.851
-0.886205
-0.913906
-0.90992
-0.905509
-0.900347
-0.894702
-0.888751
-0.882703
-0.87733
-0.873329
-0.884524
-0.953416
-0.946396
-0.939088
-0.931637
-0.924133
-0.916361
-0.908
-0.899061
-0.89056
-0.885456
-1.00579
-0.995779
-0.985847
-0.975853
-0.965253
-0.953103
-0.9386
-0.921593
-0.902904
-0.883888
-1.07315
-1.06031
-1.0474
-1.03368
-1.01725
-0.996584
-0.971303
-0.942109
-0.910339
-0.877548
-1.15467
-1.13921
-1.12233
-1.10224
-1.07574
-1.04191
-1.00201
-0.95839
-0.913329
-0.869014
-1.24508
-1.22744
-1.20468
-1.17404
-1.13257
-1.08149
-1.02461
-0.965721
-0.907548
-0.851825
-1.33526
-1.31545
-1.28401
-1.2383
-1.17781
-1.10737
-1.03322
-0.959885
-0.889829
-0.824325
-1.41276
-1.39018
-1.34718
-1.28298
-1.20154
-1.11188
-1.02169
-0.935294
-0.854537
-0.779945
-0.988645
-0.996975
-1.00741
-1.02126
-1.03965
-1.06248
-1.08888
-1.11852
-1.15317
-1.19487
-0.954123
-0.959971
-0.967547
-0.977932
-0.992692
-1.01173
-1.03412
-1.05925
-1.08799
-1.12172
-0.946813
-0.9491
-0.95305
-0.960212
-0.971766
-0.987549
-1.00671
-1.02835
-1.05222
-1.07892
-0.946209
-0.944532
-0.944752
-0.948792
-0.957281
-0.970009
-0.986314
-1.00535
-1.026
-1.04708
-0.938005
-0.933008
-0.930081
-0.930795
-0.935485
-0.944019
-0.95595
-0.970665
-0.987081
-1.00258
-0.919357
-0.912793
-0.907531
-0.90456
-0.904053
-0.906079
-0.910533
-0.91716
-0.925443
-0.933182
-0.895841
-0.890005
-0.884163
-0.878422
-0.872618
-0.86689
-0.861534
-0.856878
-0.853446
-0.851659
-0.873533
-0.870122
-0.865559
-0.859105
-0.850234
-0.838942
-0.82565
-0.811134
-0.797103
-0.78788
-0.856506
-0.855773
-0.853367
-0.847899
-0.838927
-0.826488
-0.811159
-0.79401
-0.777195
-0.764593
-0.845968
-0.84711
-0.845968
-0.841508
-0.833736
-0.822906
-0.80968
-0.794846
-0.780084
-0.766402
-1.43216
-1.64833
-1.20975
-0.852338
-0.603991
-0.283838
-0.109948
-0.00638041
0.0219774
0.020969
-1.32251
-1.61701
-1.31996
-1.01118
-0.686669
-0.322394
-0.12286
-0.0119197
0.0188973
0.0194
-1.25048
-1.63239
-1.45958
-1.16597
-0.766187
-0.362889
-0.138277
-0.0198972
0.014527
0.0170898
-1.1954
-1.66579
-1.60322
-1.30628
-0.840138
-0.403732
-0.156026
-0.0302102
0.00893988
0.0141921
-1.12966
-1.68435
-1.71963
-1.42241
-0.906393
-0.443803
-0.175957
-0.0427094
0.00218918
0.0108405
-1.03989
-1.66521
-1.79272
-1.50923
-0.963276
-0.482602
-0.198072
-0.0572719
-0.00567806
0.00713028
-0.922145
-1.60726
-1.81514
-1.56494
-1.00925
-0.519746
-0.222426
-0.0738619
-0.0146287
0.00312971
-0.796777
-1.51403
-1.79195
-1.58989
-1.04256
-0.554289
-0.248823
-0.0925181
-0.0246982
-0.0010955
-0.694059
-1.39566
-1.73818
-1.58747
-1.06277
-0.584931
-0.276627
-0.113293
-0.036061
-0.00552181
-0.661836
-1.27228
-1.66017
-1.56569
-1.07326
-0.611865
-0.305141
-0.136085
-0.0489743
-0.0102241
-0.572818
-1.17087
-1.60341
-1.49655
-1.03945
-0.617693
-0.3312
-0.163315
-0.0662561
-0.0165439
-0.616977
-1.08772
-1.4303
-1.31819
-0.947333
-0.606494
-0.359072
-0.196753
-0.0877546
-0.0239022
-0.636574
-0.968867
-1.22619
-1.14699
-0.869189
-0.604913
-0.393163
-0.232944
-0.110148
-0.0305017
-0.642617
-0.8565
-1.04733
-1.00205
-0.804438
-0.610004
-0.434806
-0.275282
-0.136201
-0.0377579
-0.610485
-0.756506
-0.89712
-0.877286
-0.750091
-0.623023
-0.482651
-0.319496
-0.160974
-0.0433159
-0.568644
-0.670568
-0.771177
-0.770384
-0.70603
-0.639389
-0.525099
-0.356406
-0.182148
-0.047589
-0.522821
-0.597267
-0.666779
-0.680602
-0.669171
-0.653616
-0.557707
-0.382905
-0.19612
-0.0500763
-0.4792
-0.537583
-0.585635
-0.615387
-0.642817
-0.655248
-0.566594
-0.391412
-0.202088
-0.0513084
-0.445681
-0.506436
-0.546959
-0.580599
-0.627468
-0.647856
-0.561222
-0.388664
-0.202213
-0.0519449
-0.420466
-0.498639
-0.55505
-0.593125
-0.625309
-0.637962
-0.549821
-0.383331
-0.201586
-0.0526774
-0.651129
-0.707805
-0.750809
-0.785242
-0.813693
-0.844242
-0.873054
-0.896593
-0.88263
-0.871702
-0.503626
-0.568863
-0.622694
-0.6686
-0.70594
-0.736781
-0.756228
-0.767525
-0.764246
-0.76758
-0.386476
-0.454303
-0.512648
-0.562212
-0.601786
-0.633059
-0.654093
-0.670111
-0.679095
-0.68935
-0.290598
-0.358835
-0.418537
-0.469756
-0.51166
-0.546661
-0.574201
-0.598909
-0.619137
-0.639095
-0.212695
-0.280482
-0.340065
-0.39258
-0.436716
-0.475568
-0.508093
-0.537807
-0.563503
-0.587776
-0.150176
-0.217067
-0.276233
-0.329286
-0.374783
-0.415298
-0.449983
-0.48112
-0.508369
-0.53333
-0.101236
-0.16705
-0.225772
-0.278418
-0.324145
-0.364338
-0.399027
-0.429439
-0.456355
-0.480663
-0.0653855
-0.130213
-0.188466
-0.240121
-0.28527
-0.324029
-0.357605
-0.386061
-0.411402
-0.433197
-0.0440024
-0.108235
-0.166204
-0.21726
-0.261996
-0.299677
-0.3321
-0.358194
-0.381054
-0.398544
-0.0348923
-0.0995264
-0.157762
-0.209242
-0.25411
-0.292049
-0.324096
-0.349279
-0.370162
-0.383077
0.703047
0.6335
0.553721
0.468112
0.37537
0.273187
0.161791
0.047755
-0.0475562
-0.0931044
0.507318
0.43224
0.348347
0.25632
0.154325
0.0408386
-0.0828488
-0.208445
-0.312209
-0.360461
0.293046
0.215317
0.129084
0.033185
-0.0744622
-0.19497
-0.3264
-0.459182
-0.568063
-0.617025
0.0881781
0.0073317
-0.0827155
-0.183362
-0.296359
-0.422591
-0.559844
-0.69688
-0.80723
-0.85491
-0.0959835
-0.181006
-0.275836
-0.381641
-0.499814
-0.630807
-0.772796
-0.911027
-1.01783
-1.06479
-0.258894
-0.348067
-0.447123
-0.556977
-0.6789
-0.813119
-0.954916
-1.0904
-1.19287
-1.2378
-0.402107
-0.49385
-0.594931
-0.706368
-0.829161
-0.962647
-1.10125
-1.23045
-1.32541
-1.36666
-0.528279
-0.619126
-0.718852
-0.828479
-0.94851
-1.07735
-1.20838
-1.32665
-1.41066
-1.44708
-0.633497
-0.720983
-0.816795
-0.921636
-1.0353
-1.15519
-1.27371
-1.37652
-1.44724
-1.47843
-0.717408
-0.799334
-0.888716
-0.9857
-1.08927
-1.19583
-1.29734
-1.38142
-1.43793
-1.46434
1.98006
1.99683
2.01418
2.03089
2.04606
2.05893
2.06874
2.07537
2.08072
2.0859
1.91549
1.92908
1.94247
1.95455
1.96456
1.97176
1.97539
1.97562
1.97542
1.97726
1.82976
1.83918
1.84736
1.8534
1.85675
1.85668
1.85244
1.84455
1.83722
1.83494
1.72493
1.72961
1.73154
1.73018
1.72531
1.71619
1.70213
1.6841
1.6679
1.6608
1.60096
1.59985
1.59458
1.58495
1.57098
1.55191
1.52707
1.49786
1.47172
1.45941
1.46177
1.45475
1.44136
1.4221
1.39747
1.36677
1.32948
1.28759
1.25042
1.23224
1.30745
1.29398
1.27243
1.24364
1.20825
1.16552
1.11506
1.05962
1.01075
0.986511
1.14687
1.12592
1.09416
1.05366
1.00571
0.949638
0.885162
0.815718
0.755059
0.724794
0.984917
0.956448
0.914062
0.861109
0.799504
0.728654
0.648594
0.563843
0.490808
0.454688
0.835501
0.789717
0.730299
0.662049
0.585913
0.500345
0.405216
0.305936
0.221477
0.180226
1.68801
1.67484
1.66481
1.65788
1.65801
1.66272
1.68303
1.72283
1.79229
1.90384
1.68214
1.6699
1.66088
1.65295
1.6531
1.65556
1.67446
1.70926
1.76991
1.86494
1.67694
1.66502
1.65677
1.64757
1.64762
1.64723
1.66445
1.69252
1.74193
1.81428
1.6722
1.66024
1.6525
1.64178
1.64157
1.6377
1.65308
1.67243
1.70891
1.75131
1.66793
1.65562
1.64806
1.63564
1.63492
1.62702
1.64033
1.64881
1.67146
1.67504
1.66412
1.65119
1.64344
1.62919
1.62763
1.61526
1.62611
1.62164
1.62981
1.58472
1.66076
1.64696
1.63864
1.62246
1.61965
1.60247
1.61029
1.59093
1.58409
1.47887
1.65786
1.64297
1.63365
1.61549
1.61095
1.58876
1.5927
1.55689
1.53405
1.359
1.65544
1.6392
1.62849
1.60832
1.60156
1.57429
1.57322
1.51971
1.47794
1.22319
1.65353
1.63567
1.62324
1.60095
1.59163
1.55919
1.5529
1.48114
1.41888
1.08298
1.65172
1.63183
1.61615
1.59175
1.57761
1.5391
1.52269
1.43203
1.3479
0.948443
1.65113
1.62842
1.60812
1.58173
1.56102
1.51769
1.48802
1.38944
1.27708
0.928121
1.65239
1.62619
1.59994
1.57229
1.54402
1.49826
1.45474
1.35507
1.21943
0.9196
1.65608
1.62515
1.59186
1.56359
1.52717
1.48103
1.42357
1.32754
1.1723
0.91661
1.66292
1.6251
1.58394
1.55565
1.50984
1.46608
1.39463
1.30629
1.1358
0.916383
1.67355
1.62616
1.57632
1.54854
1.49282
1.45329
1.36836
1.29039
1.10896
0.915553
1.6878
1.62559
1.56788
1.53926
1.47543
1.44145
1.34531
1.27817
1.0903
0.914774
1.71305
1.62927
1.5625
1.5325
1.46041
1.43085
1.32609
1.26973
1.07823
0.915349
1.72582
1.62152
1.55064
1.52082
1.44773
1.42334
1.31373
1.26588
1.07266
0.918457
1.80251
1.63456
1.55417
1.51834
1.44209
1.42012
1.30822
1.26609
1.07018
0.923371
0.690257
0.531189
0.341626
0.15979
-0.00282006
-0.147132
-0.276128
-0.39147
-0.492881
-0.580001
0.645059
0.520199
0.377208
0.233488
0.100022
-0.0223374
-0.135109
-0.24095
-0.33887
-0.427337
0.63314
0.527439
0.413145
0.295333
0.180711
0.0711226
-0.0332124
-0.13211
-0.224508
-0.309639
0.648129
0.549854
0.447557
0.345028
0.243891
0.14492
0.0487071
-0.0438831
-0.132048
-0.21459
0.667548
0.575023
0.480464
0.387521
0.296076
0.205224
0.115312
0.0270198
-0.0578733
-0.138407
0.687117
0.599963
0.511373
0.424765
0.339624
0.254145
0.168525
0.0832763
0.000982889
-0.0776492
0.705501
0.623324
0.539551
0.457181
0.375693
0.293347
0.210355
0.127362
0.0469467
-0.0299922
0.72204
0.644269
0.564468
0.484772
0.404824
0.323644
0.241705
0.160012
0.0807915
0.00513569
0.736796
0.662515
0.585726
0.507107
0.426732
0.344812
0.262416
0.180796
0.101619
0.0262269
0.748705
0.675922
0.599722
0.520029
0.437978
0.35479
0.271772
0.189992
0.110858
0.0354793
-1.85838
-1.81607
-1.72541
-1.61167
-1.4967
-1.39219
-1.30236
-1.22829
-1.17022
-1.12865
-1.93934
-1.90254
-1.82657
-1.7284
-1.62597
-1.53091
-1.44825
-1.37966
-1.32616
-1.28908
-1.9512
-1.91925
-1.85935
-1.78032
-1.69428
-1.61168
-1.53806
-1.47571
-1.42615
-1.39099
-1.90726
-1.87928
-1.83438
-1.77541
-1.70825
-1.64075
-1.57843
-1.52413
-1.47985
-1.44738
-1.82777
-1.80335
-1.77055
-1.72933
-1.68076
-1.62931
-1.57938
-1.53377
-1.49448
-1.4626
-1.73435
-1.71355
-1.68952
-1.66144
-1.62814
-1.59115
-1.55318
-1.51635
-1.48294
-1.45451
-1.64442
-1.62759
-1.60974
-1.59023
-1.56773
-1.54232
-1.51512
-1.48773
-1.46131
-1.43737
-1.5679
-1.55527
-1.54206
-1.5279
-1.51209
-1.4943
-1.47478
-1.45359
-1.43308
-1.41323
-1.50802
-1.49924
-1.4898
-1.47937
-1.46793
-1.45537
-1.44169
-1.42715
-1.41151
-1.40359
-1.46364
-1.45801
-1.45148
-1.44383
-1.43542
-1.4265
-1.41696
-1.40744
-1.39427
-1.39152
-1.43239
-1.42896
-1.42452
-1.41892
-1.41281
-1.40677
-1.4011
-1.39589
-1.38834
-1.3646
-1.41193
-1.40966
-1.40631
-1.40198
-1.39743
-1.39327
-1.38966
-1.38633
-1.38113
-1.3538
-1.4001
-1.39765
-1.39441
-1.39053
-1.38659
-1.38313
-1.38056
-1.37851
-1.37496
-1.36317
-1.39398
-1.39092
-1.38792
-1.38555
-1.38413
-1.384
-1.38541
-1.38838
-1.39307
-1.40194
-1.386
-1.38298
-1.38165
-1.38314
-1.38746
-1.39459
-1.40453
-1.41734
-1.43343
-1.45494
-1.36556
-1.3643
-1.36647
-1.37362
-1.38547
-1.4016
-1.4217
-1.44549
-1.4727
-1.50366
-1.32139
-1.32345
-1.32989
-1.34238
-1.36052
-1.38374
-1.41155
-1.44345
-1.47871
-1.51716
-1.24873
-1.2547
-1.26494
-1.28113
-1.3032
-1.33063
-1.36271
-1.39855
-1.43759
-1.48186
-1.15411
-1.16268
-1.17533
-1.19284
-1.21599
-1.24451
-1.2776
-1.3146
-1.35657
-1.40694
-1.05929
-1.06892
-1.08189
-1.09822
-1.11967
-1.1461
-1.17659
-1.21078
-1.25053
-1.29856
-1.34931
-1.54736
-1.08397
-0.777464
-0.564656
-0.301924
-0.134517
-0.0446263
-0.00360277
0.00638167
-1.42721
-1.64502
-1.07846
-0.685112
-0.482232
-0.264512
-0.127097
-0.0447733
-0.0039848
0.00633491
-1.51258
-1.71271
-1.05651
-0.575956
-0.401488
-0.228552
-0.117407
-0.0407997
-0.00137713
0.00759964
-1.6053
-1.76035
-1.0229
-0.469996
-0.329441
-0.197828
-0.106174
-0.0332159
0.00372047
0.0100001
-1.70012
-1.81061
-0.989031
-0.391794
-0.282891
-0.178885
-0.0962678
-0.0240952
0.00981863
0.0129972
-1.78049
-1.86068
-0.966012
-0.359218
-0.264089
-0.173984
-0.0896093
-0.0156023
0.0154607
0.0159771
-1.82111
-1.88605
-0.968199
-0.378541
-0.288904
-0.181555
-0.0868211
-0.0089916
0.0198212
0.0185058
-1.80143
-1.87328
-1.00189
-0.449213
-0.34746
-0.197346
-0.0878029
-0.00467851
0.0226455
0.0203695
-1.71775
-1.81209
-1.06006
-0.560199
-0.429203
-0.219958
-0.0922156
-0.00278018
0.0239172
0.0214544
-1.57004
-1.72214
-1.12775
-0.699539
-0.516998
-0.249142
-0.09968
-0.00333397
0.0236768
0.0216694
-1.17112
-1.11532
-0.935032
-0.847157
-0.636158
-0.325227
-0.122964
-0.0267087
0.00722642
0.010232
-1.16397
-1.10283
-0.927733
-0.850351
-0.644764
-0.330448
-0.1252
-0.0277274
0.00670453
0.01009
-1.17616
-1.14403
-0.942997
-0.85726
-0.652606
-0.335655
-0.1289
-0.0304316
0.00520574
0.00960216
-1.21353
-1.24476
-0.98237
-0.864617
-0.656346
-0.337179
-0.133152
-0.0349474
0.00260322
0.00865853
-1.2785
-1.40988
-1.04064
-0.831566
-0.619902
-0.327855
-0.136891
-0.040925
-0.000913981
0.00737661
-1.08697
-1.23963
-1.34104
-1.40544
-1.41903
-1.42105
-1.39669
-1.36303
-1.32205
-1.27622
-1.08776
-1.24282
-1.34255
-1.40504
-1.41324
-1.41446
-1.38904
-1.35079
-1.31665
-1.26655
-1.09053
-1.2473
-1.34608
-1.4066
-1.41267
-1.41328
-1.38771
-1.35292
-1.3245
-1.28418
-1.09717
-1.25606
-1.35537
-1.41368
-1.42175
-1.41918
-1.39671
-1.36962
-1.34832
-1.33164
-1.10857
-1.27018
-1.37091
-1.42739
-1.43909
-1.43237
-1.41511
-1.39307
-1.37926
-1.38344
1.47752
1.46505
1.44509
1.42093
1.39354
1.36176
1.32475
1.28435
1.24934
1.23232
1.59492
1.5957
1.58942
1.57815
1.56313
1.54381
1.51955
1.49178
1.46752
1.45624
1.70994
1.71678
1.71847
1.71636
1.71135
1.70291
1.69032
1.67438
1.66025
1.65417
1.81273
1.82457
1.83328
1.83936
1.84311
1.84392
1.84099
1.83472
1.82888
1.8274
1.90104
1.91669
1.93039
1.94224
1.95228
1.95991
1.96434
1.96565
1.96645
1.96881
1.96937
1.98753
2.00508
2.02165
2.03687
2.05011
2.06056
2.06798
2.07404
2.07959
2.0169
2.03677
2.05688
2.07654
2.09511
2.11192
2.12617
2.13749
2.14694
2.15464
2.04181
2.06236
2.08375
2.10504
2.12537
2.14405
2.16027
2.17356
2.18473
2.19351
2.04383
2.06415
2.08554
2.10689
2.12725
2.14588
2.16202
2.17519
2.18625
2.19497
2.02316
2.04223
2.06227
2.0821
2.10072
2.11741
2.1314
2.14234
2.15145
2.15896
-0.911518
-0.959435
-1.0223
-1.10076
-1.19571
-1.30662
-1.43019
-1.55514
-1.65712
-1.70454
-0.64473
-0.699154
-0.767181
-0.849623
-0.947756
-1.06187
-1.19051
-1.32297
-1.43275
-1.48352
-0.344052
-0.404766
-0.477788
-0.563573
-0.663518
-0.778433
-0.906899
-1.03979
-1.15606
-1.20825
-0.0323839
-0.0977693
-0.174004
-0.261215
-0.360695
-0.473408
-0.598266
-0.728156
-0.84067
-0.8952
0.267372
0.200407
0.124301
0.0391055
-0.0563923
-0.163376
-0.281235
-0.403603
-0.508645
-0.561377
0.538562
0.474554
0.403061
0.324128
0.236531
0.138936
0.0316848
-0.0795433
-0.1747
-0.223128
0.777342
0.720556
0.657665
0.588552
0.51191
0.426338
0.332031
0.234064
0.150395
0.107724
0.991941
0.944138
0.891319
0.833296
0.768611
0.695831
0.615094
0.530917
0.459136
0.42274
1.1918
1.15215
1.10752
1.05891
1.00501
0.944284
0.876738
0.806187
0.746192
0.716133
1.36645
1.3348
1.297
1.25691
1.21384
1.16598
1.11273
1.05681
1.00918
0.985622
1.79967
1.70948
1.68615
1.67541
1.66874
1.67205
1.67765
1.69609
1.68174
1.61466
1.78239
1.70878
1.68642
1.67709
1.67129
1.67636
1.6855
1.70995
1.71597
1.69324
1.76684
1.70711
1.68588
1.67779
1.67291
1.67939
1.69223
1.72408
1.74935
1.76939
1.75288
1.70463
1.68469
1.67763
1.67365
1.68121
1.69726
1.73474
1.77692
1.83149
1.74035
1.7015
1.68298
1.67669
1.67363
1.68195
1.70045
1.74229
1.79833
1.88096
1.7291
1.69782
1.68081
1.67504
1.67285
1.68156
1.70181
1.74667
1.8133
1.91693
1.71899
1.69371
1.67824
1.67272
1.67131
1.68004
1.70141
1.74788
1.82169
1.93956
1.70993
1.68927
1.67531
1.6698
1.66902
1.67739
1.6993
1.74598
1.82356
1.94934
1.70181
1.6846
1.67207
1.66632
1.66602
1.67362
1.69552
1.74112
1.81917
1.94646
1.69453
1.67976
1.66855
1.66234
1.66233
1.66873
1.69008
1.73341
1.80873
1.93114
1.96612
1.71154
1.67783
1.66183
1.65581
1.65381
1.64548
1.64278
1.56844
1.5101
1.8917
1.70563
1.67888
1.6649
1.65778
1.65518
1.64637
1.64422
1.57101
1.50596
1.86879
1.71074
1.68256
1.66795
1.65998
1.65757
1.64943
1.64865
1.58212
1.5042
1.84224
1.71057
1.68434
1.67069
1.66254
1.66116
1.65613
1.65869
1.60376
1.51418
1.81922
1.70992
1.68542
1.67312
1.66545
1.66598
1.66474
1.67403
1.63578
1.53767
1.24578
1.12735
0.969191
0.766197
0.521237
0.242682
-0.0562809
-0.356979
-0.639114
-0.885066
1.24015
1.12549
0.973265
0.775954
0.536941
0.262492
-0.0359175
-0.339882
-0.628174
-0.880992
1.25082
1.13295
0.979129
0.784284
0.549834
0.278401
-0.0203366
-0.327698
-0.621299
-0.879729
1.2839
1.15235
0.988008
0.791678
0.55995
0.290247
-0.00953245
-0.320323
-0.618698
-0.882248
1.34144
1.18671
1.00228
0.798162
0.56566
0.29688
-0.00314674
-0.316489
-0.619586
-0.888903
)
;

boundaryField
{
    left
    {
        type            zeroGradient;
    }
    right
    {
        type            fixedValue;
        value           uniform 0;
    }
    down
    {
        type            zeroGradient;
    }
    up
    {
        type            zeroGradient;
    }
    cylinder
    {
        type            zeroGradient;
    }
    defaultFaces
    {
        type            empty;
    }
}


// ************************************************************************* //
