/*--------------------------------*- C++ -*----------------------------------*\
  =========                 |
  \\      /  F ield         | OpenFOAM: The Open Source CFD Toolbox
   \\    /   O peration     | Website:  https://openfoam.org
    \\  /    A nd           | Version:  13
     \\/     M anipulation  |
\*---------------------------------------------------------------------------*/
FoamFile
{
    format      ascii;
    class       volVectorField;
    location    "4.1";
    object      U;
}
// * * * * * * * * * * * * * * * * * * * * * * * * * * * * * * * * * * * * * //

dimensions      [0 1 -1 0 0 0 0];

internalField   nonuniform List<vector> 
1800
(
(-0.0329846 0.0273966 1.28613e-20)
(-0.0783626 0.0500459 5.6317e-21)
(-0.103165 0.0580655 -3.98967e-21)
(-0.106103 0.0601395 1.92623e-20)
(-0.0831587 0.0618094 7.48626e-20)
(-0.030308 0.0658459 3.74332e-20)
(0.0552601 0.0741741 -1.6464e-20)
(0.171429 0.0876085 3.70852e-20)
(0.327672 0.131406 1.23626e-19)
(0.408457 0.161229 1.16988e-19)
(-0.0442418 0.0335584 8.46813e-21)
(-0.087329 0.0615957 -1.87344e-20)
(-0.0892929 0.0680242 1.85792e-22)
(-0.0509261 0.0618465 -3.75826e-20)
(0.0302287 0.0495513 1.51919e-20)
(0.156312 0.0349761 8.42434e-20)
(0.327247 0.0207146 -4.07344e-20)
(0.535939 0.00501039 2.02298e-20)
(0.79235 0.0165703 -1.88451e-19)
(0.934452 0.0225676 1.62083e-19)
(-0.0474508 0.0316184 3.33016e-21)
(-0.0752089 0.0556789 1.22386e-20)
(-0.0406398 0.0584737 1.22249e-21)
(0.0541347 0.0477831 -8.30036e-21)
(0.208801 0.0305134 -9.13546e-20)
(0.419327 0.0115392 1.79353e-20)
(0.675382 -0.00542737 3.44179e-20)
(0.960044 -0.0193661 -1.51486e-20)
(1.26257 -0.0225056 2.4883e-22)
(1.5084 -0.0354329 1.12863e-21)
(-0.0430724 0.0244315 -6.56248e-21)
(-0.0386408 0.0357753 -2.08798e-20)
(0.0524324 0.0300394 -2.12863e-20)
(0.225361 0.0144642 1.89048e-20)
(0.471874 -0.00373991 1.65418e-20)
(0.773882 -0.0192977 7.18328e-21)
(1.10437 -0.0293348 -1.9604e-21)
(1.43404 -0.0327987 5.0815e-20)
(1.73901 -0.0316759 3.69245e-20)
(1.9884 -0.0311645 -1.43796e-20)
(-0.0302088 0.015101 5.02512e-20)
(0.0284718 0.0118059 4.77227e-20)
(0.20035 -0.00109021 -3.19583e-20)
(0.470931 -0.015979 -3.93463e-20)
(0.812991 -0.0260876 -9.6358e-20)
(1.18582 -0.0284375 1.56653e-21)
(1.54646 -0.0236832 1.14149e-19)
(1.86162 -0.0145483 5.99069e-20)
(2.1112 -0.00451153 2.15714e-21)
(2.29824 -0.00131127 -5.59049e-20)
(-0.00451163 0.00415727 -5.12107e-20)
(0.135068 -0.0111286 -5.99391e-21)
(0.409902 -0.0244175 1.72385e-19)
(0.783411 -0.028878 -4.18674e-20)
(1.19854 -0.022128 -1.07727e-19)
(1.59429 -0.00701652 2.10938e-19)
(1.92633 0.0111964 -2.33683e-19)
(2.17465 0.0277055 -3.29495e-19)
(2.34208 0.0392688 2.8559e-19)
(2.44132 0.0448769 1.79045e-21)
(0.0378956 -0.00669281 6.12853e-20)
(0.284541 -0.0264552 -1.2855e-19)
(0.672192 -0.0291901 -4.06232e-19)
(1.12913 -0.0133554 1.85656e-19)
(1.57027 0.0139639 4.12445e-19)
(1.93369 0.0433474 -1.64186e-21)
(2.19538 0.0678823 -9.23987e-19)
(2.36214 0.0844512 2.64511e-21)
(2.45584 0.093932 1.16879e-18)
(2.5027 0.0942732 3.26294e-19)
(0.0985434 -0.0140789 5.94918e-20)
(0.471137 -0.0257871 3.15541e-19)
(0.961971 -0.00622898 3.20444e-19)
(1.46204 0.0345812 -1.11154e-19)
(1.87979 0.0786202 -3.95122e-19)
(2.1775 0.114255 -1.51357e-19)
(2.36246 0.137722 0)
(2.46302 0.150238 5.08414e-19)
(2.50986 0.154605 -7.90469e-21)
(2.52504 0.152681 -4.94454e-19)
(0.175357 -0.0139738 5.5601e-20)
(0.679241 -0.00182632 3.12877e-19)
(1.24543 0.048768 5.71688e-19)
(1.74513 0.112385 -5.83349e-19)
(2.10912 0.165405 -5.11284e-19)
(2.33537 0.200253 2.17322e-19)
(2.45628 0.218702 -1.05696e-18)
(2.50996 0.225468 -8.00187e-19)
(2.52578 0.225196 9.99206e-19)
(2.52125 0.218773 8.72934e-19)
(0.262985 -0.002747 -5.06052e-20)
(0.887796 0.0491103 2.44024e-19)
(1.49395 0.133956 1.56674e-19)
(1.96254 0.213979 -1.24376e-18)
(2.26326 0.2686 4.92192e-20)
(2.4261 0.297824 2.58153e-18)
(2.49835 0.308655 -1.51049e-18)
(2.52033 0.308432 -8.99963e-19)
(2.51764 0.302123 3.17242e-19)
(2.50221 0.291453 -7.28466e-19)
(-0.0080009 0.000537512 -1.41034e-19)
(-0.0621915 0.0460392 -4.152e-20)
(-0.133809 0.0851083 1.56003e-21)
(-0.211781 0.10628 1.62709e-20)
(-0.288273 0.114568 4.33594e-21)
(-0.361385 0.117099 2.025e-19)
(-0.430403 0.118242 2.03364e-20)
(-0.49519 0.120045 -2.34538e-19)
(-0.558275 0.123559 -1.27908e-20)
(-0.62413 0.129718 3.56491e-20)
(-0.0130282 0.0613052 -2.21001e-20)
(-0.0657879 0.169908 -4.5859e-20)
(-0.131252 0.239232 6.12871e-20)
(-0.201768 0.272845 3.67628e-20)
(-0.271168 0.284905 4.87683e-20)
(-0.337735 0.287255 1.78155e-19)
(-0.400696 0.286188 -1.98579e-19)
(-0.459664 0.284246 -2.05573e-19)
(-0.516225 0.282537 2.91118e-19)
(-0.573792 0.282291 -7.90185e-20)
(-0.0207093 0.0958256 -3.4517e-21)
(-0.0671855 0.250756 -4.02605e-20)
(-0.117108 0.352826 -1.89795e-20)
(-0.168798 0.407131 -1.29201e-19)
(-0.219699 0.429903 -3.91498e-20)
(-0.268554 0.436428 4.0041e-19)
(-0.31447 0.43593 -7.42898e-20)
(-0.356705 0.432494 -2.69864e-19)
(-0.395488 0.427637 2.99409e-19)
(-0.432748 0.422575 1.73022e-19)
(-0.0254658 0.0970003 4.56173e-21)
(-0.0644192 0.269463 -1.81985e-21)
(-0.0970107 0.400322 -3.32671e-21)
(-0.12643 0.483353 1.88979e-20)
(-0.154317 0.526844 2.19058e-20)
(-0.180859 0.544612 -1.29746e-19)
(-0.205474 0.548395 -9.27141e-20)
(-0.227245 0.545216 1.01776e-19)
(-0.244977 0.538235 -9.13031e-21)
(-0.256212 0.529398 5.64032e-21)
(-0.0232828 0.0729375 0)
(-0.0541862 0.228978 -1.00666e-20)
(-0.0730687 0.371476 3.84722e-20)
(-0.0838354 0.481866 2.35597e-20)
(-0.0901188 0.55522 1.22201e-19)
(-0.093739 0.596568 -7.758e-20)
(-0.095254 0.614647 2.60504e-20)
(-0.0944802 0.617453 4.7615e-20)
(-0.0906902 0.610412 0)
(-0.0774687 0.598092 9.74403e-21)
(-0.0149594 0.0397997 -1.96765e-20)
(-0.0373479 0.153883 4.95144e-20)
(-0.0486956 0.281243 4.35153e-20)
(-0.0499011 0.39933 -4.78534e-20)
(-0.0433031 0.494483 4.36151e-20)
(-0.0308635 0.5623 2.04729e-20)
(-0.0139937 0.60444 -9.43808e-20)
(0.00651991 0.625229 -2.89579e-20)
(0.0298071 0.62878 9.97112e-20)
(0.063186 0.619023 4.38385e-21)
(-0.00483297 0.0124762 5.50584e-21)
(-0.0192751 0.0789446 7.997e-20)
(-0.0288357 0.171709 -4.63945e-20)
(-0.0303925 0.271898 -7.84969e-21)
(-0.0231306 0.364803 -1.40352e-20)
(-0.00739751 0.441606 -4.91335e-20)
(0.0158594 0.498702 -1.88102e-20)
(0.0456608 0.536131 -5.63164e-20)
(0.0807716 0.555272 2.36519e-20)
(0.123513 0.553045 4.04723e-20)
(0.00172406 -0.00187706 1.36001e-20)
(-0.00932284 0.0283731 -3.22308e-20)
(-0.0226068 0.0837773 -5.02656e-20)
(-0.0319917 0.152013 1.58894e-20)
(-0.03381 0.222222 1.48079e-20)
(-0.0264692 0.286111 1.76169e-19)
(-0.00969203 0.338567 2.10213e-19)
(0.0164217 0.377308 -1.11353e-19)
(0.0525033 0.401067 -6.74367e-20)
(0.0952917 0.396285 6.77293e-20)
(0.000585502 -0.00294459 1.21671e-20)
(-0.0166784 0.00792398 -2.3039e-20)
(-0.0391794 0.0338149 6.01883e-20)
(-0.0598773 0.0691641 8.693e-20)
(-0.0735426 0.108642 -8.82905e-20)
(-0.0772533 0.146934 2.01274e-19)
(-0.0693809 0.179792 -9.61135e-21)
(-0.0484887 0.204046 -3.96741e-19)
(-0.0127283 0.215697 -8.48312e-20)
(0.0365824 0.202291 7.52659e-20)
(-0.0144427 0.0106204 2.08391e-21)
(-0.0497977 0.0211862 -2.44525e-21)
(-0.0836062 0.0307835 -1.24149e-20)
(-0.110853 0.0425165 4.41029e-20)
(-0.126474 0.057415 7.64436e-20)
(-0.126901 0.0744382 -1.13941e-19)
(-0.109771 0.092256 -1.29079e-19)
(-0.0733127 0.10973 9.37736e-20)
(-0.0153801 0.123505 -1.0806e-19)
(0.062537 0.124122 -6.36397e-20)
(-0.950966 0.176978 -7.92965e-19)
(-1.17752 0.568507 6.59235e-19)
(-0.727188 0.671844 -3.35448e-19)
(-0.244206 0.0979424 5.73257e-19)
(0.283625 -0.422835 -2.21222e-19)
(0.557998 -0.561546 -1.64996e-19)
(0.790089 -0.581743 -6.48809e-20)
(0.916141 -0.469233 8.86e-21)
(0.987105 -0.401827 2.64347e-20)
(1.07113 -0.257021 3.73041e-21)
(-0.864774 0.287353 -4.5304e-19)
(-1.1443 0.53799 -2.5538e-20)
(-0.633005 0.504876 -2.30495e-20)
(-0.0524342 -0.0553986 -6.00666e-19)
(0.449241 -0.530313 -9.85222e-19)
(0.714678 -0.638299 0)
(0.919206 -0.628225 -7.35983e-20)
(1.01186 -0.495802 -2.05086e-22)
(1.06638 -0.417911 -4.52771e-22)
(1.11404 -0.267278 -1.49085e-20)
(-0.64061 0.388191 3.50857e-19)
(-0.916823 0.514645 -7.01548e-20)
(-0.419021 0.342584 3.64831e-19)
(0.178322 -0.20204 7.76888e-20)
(0.646178 -0.628414 5.83793e-20)
(0.884962 -0.707516 -7.00281e-20)
(1.05454 -0.666134 0)
(1.10911 -0.515342 0)
(1.14411 -0.427077 -2.94982e-20)
(1.15638 -0.272685 0)
(-0.343935 0.460148 3.48204e-20)
(-0.56418 0.4987 7.62345e-20)
(-0.121873 0.20512 -3.36611e-20)
(0.445932 -0.32877 0)
(0.864325 -0.714312 6.36812e-19)
(1.06079 -0.766216 -1.25252e-19)
(1.19041 -0.694549 0)
(1.20544 -0.527093 1.04963e-19)
(1.21816 -0.429181 0)
(1.19613 -0.27334 1.90651e-20)
(-0.0515479 0.495551 1.60067e-19)
(-0.164948 0.483626 2.51564e-20)
(0.211653 0.100548 1.52994e-20)
(0.732602 -0.432715 0)
(1.09412 -0.784844 2.24218e-19)
(1.23685 -0.812189 2.54763e-19)
(1.32167 -0.713116 -4.99829e-20)
(1.29787 -0.530958 -6.91051e-21)
(1.28722 -0.424281 -2.17895e-20)
(1.23208 -0.269372 1.23386e-21)
(0.194819 0.497248 1.4316e-18)
(0.209549 0.470963 2.5191e-19)
(0.540543 0.0248567 -4.31372e-21)
(1.02106 -0.513973 4.03596e-19)
(1.32371 -0.83911 -3.31491e-19)
(1.40812 -0.844803 1.04032e-19)
(1.4449 -0.721935 2.49173e-19)
(1.38364 -0.52733 -2.09948e-19)
(1.35022 -0.412718 8.18134e-22)
(1.2636 -0.26099 -4.17725e-20)
(0.370161 0.454278 8.00571e-20)
(0.521385 0.456948 -1.45632e-19)
(0.840751 -0.0269081 -1.68243e-21)
(1.29833 -0.573713 -7.9657e-21)
(1.54297 -0.8766 -1.52141e-19)
(1.5692 -0.864368 -6.99616e-20)
(1.55763 -0.721622 -9.09332e-20)
(1.46071 -0.516947 2.28686e-20)
(1.40624 -0.395076 3.09274e-20)
(1.29036 -0.248531 4.30104e-22)
(0.450834 0.354415 -5.08439e-19)
(0.748755 0.430666 -2.95697e-19)
(1.10531 -0.0634806 0)
(1.55748 -0.613699 6.1466e-20)
(1.74558 -0.896505 7.69763e-20)
(1.71621 -0.871063 -3.37056e-20)
(1.6585 -0.712962 -2.66979e-19)
(1.52801 -0.500766 8.80228e-20)
(1.45449 -0.372167 -1.6515e-21)
(1.3122 -0.232458 -2.04103e-20)
(0.403747 0.212504 3.76973e-19)
(0.877421 0.379575 8.50192e-19)
(1.34325 -0.0978794 -2.2045e-19)
(1.79543 -0.636381 -3.16066e-20)
(1.92673 -0.899164 3.08587e-20)
(1.8461 -0.865176 -1.65068e-19)
(1.74683 -0.696683 9.91484e-20)
(1.58546 -0.479872 -3.01531e-21)
(1.49451 -0.345063 8.38538e-21)
(1.32899 -0.213348 3.22735e-20)
(0.361978 0.012509 -2.03307e-19)
(0.933355 0.274136 7.99261e-19)
(1.57894 -0.127431 1.33244e-19)
(2.01112 -0.647525 1.42429e-19)
(2.08334 -0.888977 1.10059e-20)
(1.957 -0.848871 -4.84276e-20)
(1.82224 -0.673806 -2.83596e-20)
(1.63353 -0.455387 0)
(1.52604 -0.315132 -5.35133e-20)
(1.34072 -0.191955 3.83029e-20)
(1.03523 -0.0367183 -1.98749e-19)
(1.34461 0.0937545 -4.44358e-19)
(1.96858 -0.251646 5.35692e-19)
(2.28609 -0.677465 -3.61024e-20)
(2.26558 -0.867423 -4.48732e-20)
(2.08055 -0.816526 -6.17012e-20)
(1.90287 -0.635215 -1.05259e-19)
(1.68202 -0.417927 5.45495e-20)
(1.55353 -0.272987 -2.18798e-20)
(1.3495 -0.162964 -2.16602e-20)
(1.94734 0.000945366 -2.99832e-20)
(2.09544 -0.00455487 -5.34881e-19)
(2.54257 -0.370407 -9.98858e-19)
(2.59432 -0.707842 1.58209e-19)
(2.38691 -0.827322 -4.50842e-19)
(2.12416 -0.735742 -3.38401e-20)
(1.9198 -0.537192 1.45011e-19)
(1.68189 -0.330888 -3.15136e-20)
(1.54689 -0.198253 1.12045e-19)
(1.33991 -0.118179 1.09202e-20)
(2.29623 -0.0391095 3.83997e-20)
(2.49774 -0.0917115 2.79672e-20)
(2.69757 -0.40711 -1.25929e-20)
(2.54493 -0.644038 1.0262e-35)
(2.33877 -0.729823 -3.83235e-20)
(2.13084 -0.651018 -4.08895e-35)
(1.94566 -0.462909 3.52868e-20)
(1.69871 -0.269197 1.23489e-33)
(1.54876 -0.141096 -4.89256e-21)
(1.33022 -0.0801157 9.46653e-21)
(2.40693 -0.058905 5.14094e-35)
(2.56406 -0.135992 2.81159e-19)
(2.61488 -0.378484 4.35684e-19)
(2.51678 -0.588881 0)
(2.3806 -0.681191 1.57682e-19)
(2.15576 -0.590704 -2.39764e-20)
(1.92531 -0.38023 -1.34053e-19)
(1.65091 -0.185621 3.00677e-33)
(1.48722 -0.0659949 -7.30333e-20)
(1.28182 -0.0349507 -1.17133e-20)
(2.42164 -0.091429 4.28109e-20)
(2.50526 -0.161301 -6.66852e-21)
(2.54415 -0.363357 0)
(2.48851 -0.555547 0)
(2.3164 -0.611782 0)
(2.04094 -0.488762 0)
(1.79248 -0.276654 7.33551e-21)
(1.53296 -0.103428 3.26629e-33)
(1.38785 -0.00298194 -6.67462e-21)
(1.21607 0.00113173 -1.6542e-33)
(2.4068 -0.111696 6.09072e-20)
(2.44397 -0.176808 0)
(2.48283 -0.347753 0)
(2.41443 -0.505412 0)
(2.17424 -0.526355 0)
(1.84314 -0.387205 0)
(1.57164 -0.183722 -1.31671e-20)
(1.33411 -0.0322431 8.39518e-20)
(1.22155 0.0491645 -7.46338e-21)
(1.10884 0.0307215 -6.34227e-21)
(2.37247 -0.126492 0)
(2.37468 -0.184222 1.1588e-19)
(2.39066 -0.325679 1.61677e-19)
(2.22029 -0.436359 0)
(1.84144 -0.406455 5.50828e-20)
(1.44996 -0.256266 -1.38195e-20)
(1.19728 -0.0848634 -4.8754e-20)
(1.02935 0.0263148 -3.05033e-20)
(0.981515 0.0790831 2.67065e-20)
(0.953428 0.0447932 -1.96356e-20)
(2.25249 -0.12605 -6.11222e-21)
(2.21153 -0.175775 -4.95238e-21)
(2.1119 -0.270935 3.62019e-21)
(1.74816 -0.308751 -3.66699e-35)
(1.25902 -0.240953 -1.85476e-21)
(0.884724 -0.124198 4.40426e-35)
(0.712416 -0.0165848 -1.22762e-20)
(0.653036 0.0485278 -5.08812e-20)
(0.685814 0.0760291 -7.60545e-21)
(0.739094 0.0408594 1.67436e-20)
(1.81997 -0.10588 3.72516e-20)
(1.68914 -0.139133 -3.39345e-20)
(1.40449 -0.151585 -2.66511e-20)
(0.930963 -0.118863 0)
(0.526798 -0.0786493 -1.52555e-20)
(0.302669 -0.0395049 -1.50629e-20)
(0.239192 0.00228941 -2.66755e-20)
(0.268234 0.0343696 -7.04211e-21)
(0.352338 0.0450353 -7.2645e-21)
(0.446001 0.0236628 -1.56169e-20)
(0.736153 -0.0266034 0)
(0.556024 -0.0147646 0)
(0.351754 0.00197929 0)
(0.181582 0.00160456 0)
(0.0537835 -0.00831445 0)
(-0.0433039 -0.00900771 0)
(-0.0764912 -0.002808 -1.1835e-20)
(-0.0449442 0.00438071 7.04454e-35)
(0.0196133 0.00617319 -7.98237e-21)
(0.0898315 0.00323023 -1.69288e-20)
(2.44841 0.266366 7.0543e-19)
(2.48699 0.20623 4.20787e-20)
(2.50286 0.14636 -6.49836e-20)
(2.52174 0.102604 -2.08109e-19)
(2.51644 0.0512075 -3.27308e-20)
(2.4852 0.0287293 -4.86235e-20)
(2.42853 -0.020071 -1.59322e-19)
(2.18665 -0.0125572 2.00413e-20)
(2.00111 -0.053112 0)
(1.30001 0.00326062 6.29583e-20)
(2.37466 0.226669 2.32477e-19)
(2.38983 0.184885 -2.51867e-19)
(2.45353 0.130127 -6.05185e-20)
(2.43626 0.0983071 -1.05944e-19)
(2.51886 0.0495658 9.12656e-20)
(2.44652 0.0229771 1.5212e-19)
(2.55503 -0.017112 -1.83016e-19)
(2.37791 -0.0521313 1.21916e-20)
(2.46203 -0.066669 -3.77922e-20)
(2.1066 -0.112134 5.5833e-20)
(2.32745 0.195693 -1.0234e-19)
(2.31431 0.152369 2.37339e-19)
(2.40569 0.118081 1.34595e-19)
(2.3622 0.0749614 -2.33474e-19)
(2.46739 0.0521757 -4.67727e-20)
(2.39479 0.00305153 3.1767e-19)
(2.5052 -0.00327624 5.3064e-20)
(2.41696 -0.063383 -5.09462e-20)
(2.4943 -0.0496055 -2.3905e-20)
(2.40055 -0.11561 -2.11897e-20)
(2.28094 0.163757 -2.84231e-19)
(2.27538 0.115498 -6.30957e-20)
(2.35054 0.101122 4.8818e-20)
(2.32982 0.049156 -2.5341e-21)
(2.39928 0.0457602 -2.19206e-19)
(2.37451 -0.0104035 -6.45868e-20)
(2.428 -0.00255638 1.72712e-19)
(2.41653 -0.0595568 -1.28333e-20)
(2.44142 -0.0447089 3.18991e-20)
(2.44986 -0.0960319 1.06291e-20)
(2.23569 0.127927 3.11093e-20)
(2.25229 0.0837518 1.32814e-19)
(2.29994 0.075919 -7.917e-21)
(2.31051 0.0298145 1.38861e-19)
(2.34569 0.0281731 -5.833e-20)
(2.3572 -0.0170961 -1.93221e-19)
(2.37712 -0.0148521 2.87818e-20)
(2.39559 -0.0551589 -5.46474e-20)
(2.40173 -0.0532799 -1.91041e-20)
(2.42659 -0.0852608 -2.4155e-20)
(2.19703 0.0891415 -1.5755e-19)
(2.22704 0.0551748 -6.30256e-20)
(2.25967 0.0461287 -1.81707e-20)
(2.28538 0.0123178 9.51908e-20)
(2.30786 0.00587354 2.63119e-19)
(2.33151 -0.0256013 -5.6062e-20)
(2.34463 -0.0314392 5.04067e-21)
(2.36735 -0.0587013 -8.0115e-20)
(2.37379 -0.06574 -1.174e-19)
(2.3955 -0.0879153 -1.77783e-20)
(2.1499 0.0513575 -4.84061e-20)
(2.18355 0.0274541 -1.14515e-19)
(2.21112 0.0172049 -1.48172e-19)
(2.24136 -0.00603543 -2.55309e-19)
(2.26196 -0.0152461 8.33443e-20)
(2.28962 -0.0371883 6.77781e-20)
(2.30364 -0.0466397 -1.40695e-20)
(2.32956 -0.066967 7.95507e-20)
(2.33754 -0.0773073 -7.05723e-20)
(2.36334 -0.0957756 -4.69096e-20)
(2.03945 0.0169763 6.0487e-20)
(2.07271 0.00115188 2.01378e-20)
(2.09342 -0.00738136 1.56355e-20)
(2.12741 -0.0230147 -3.33534e-20)
(2.14218 -0.0308249 -3.17654e-20)
(2.17858 -0.046683 -6.00416e-20)
(2.18645 -0.0546566 -4.68233e-20)
(2.2272 -0.0712579 1.07167e-19)
(2.22664 -0.0800217 -4.35455e-20)
(2.27448 -0.097679 1.92793e-21)
(1.72281 -0.0112839 -7.18749e-20)
(1.74346 -0.0191808 -1.65925e-20)
(1.75085 -0.0241001 1.26118e-19)
(1.7765 -0.0318319 -2.12294e-20)
(1.77887 -0.0363247 -3.60266e-20)
(1.81264 -0.0447718 7.43516e-20)
(1.80731 -0.0496177 -5.77882e-20)
(1.85234 -0.0596954 4.66405e-20)
(1.83519 -0.0659057 -2.36324e-20)
(1.89558 -0.0784994 -9.61949e-20)
(0.87415 -0.0103831 5.13151e-20)
(0.867278 -0.00975177 4.46938e-20)
(0.859249 -0.00911784 4.48709e-20)
(0.856218 -0.00879636 7.50832e-20)
(0.848951 -0.00880881 -3.8256e-20)
(0.851057 -0.00910321 -5.35474e-20)
(0.84135 -0.00991578 2.43024e-20)
(0.850987 -0.0114586 -2.18685e-21)
(0.830225 -0.01251 3.28637e-21)
(0.856737 -0.018495 -4.96822e-21)
(1.54084 0.944258 -8.06202e-20)
(1.52529 0.989934 2.56721e-20)
(1.52873 1.04313 -6.07928e-19)
(1.53702 1.10343 2.25419e-19)
(1.54304 1.16679 1.14446e-18)
(1.5381 1.22503 -1.41005e-19)
(1.5003 1.25567 -1.01779e-18)
(1.38013 1.20712 -3.07644e-21)
(1.09084 0.985916 -4.97734e-19)
(0.509336 0.471246 1.16052e-19)
(1.70174 0.916135 0)
(1.69091 0.96033 7.03464e-19)
(1.69081 1.00975 1.56128e-18)
(1.69868 1.0675 -9.64125e-19)
(1.70782 1.12923 -2.25477e-18)
(1.70587 1.18516 -1.47408e-19)
(1.66565 1.21148 -1.88799e-19)
(1.53014 1.15737 6.88095e-19)
(1.20317 0.935612 1.02544e-18)
(0.555872 0.439471 4.04724e-19)
(1.84944 0.879771 6.50474e-20)
(1.8474 0.923252 0)
(1.84882 0.969412 -6.43278e-20)
(1.85747 1.02237 9.82434e-19)
(1.86855 1.07891 5.32178e-20)
(1.86748 1.1289 -2.19637e-18)
(1.82201 1.14807 1.38689e-18)
(1.66803 1.08754 8.14568e-19)
(1.30164 0.867795 -8.73429e-19)
(0.592799 0.39854 -2.57981e-19)
(1.9802 0.833602 -1.77302e-19)
(1.98739 0.875087 -1.30979e-19)
(1.99386 0.917592 2.6811e-19)
(2.00524 0.965047 -3.3282e-19)
(2.01798 1.01494 -1.53896e-18)
(2.01586 1.05717 -1.19586e-18)
(1.96221 1.06728 1.25127e-18)
(1.78598 0.998723 8.2207e-19)
(1.37796 0.783227 0)
(0.615648 0.348995 0)
(2.09447 0.773703 -8.74782e-19)
(2.10987 0.812321 -1.60643e-18)
(2.12262 0.851 -6.17909e-19)
(2.13768 0.892994 -3.17479e-20)
(2.15154 0.935819 0)
(2.14637 0.968488 1.26822e-19)
(2.08013 0.968156 1.45633e-19)
(1.87597 0.893447 1.80735e-19)
(1.4254 0.68466 -2.58092e-19)
(0.621022 0.291977 -6.44231e-20)
(2.19529 0.704003 1.04133e-18)
(2.2167 0.738391 -3.88492e-20)
(2.2347 0.772408 -1.22297e-18)
(2.25272 0.808248 0)
(2.26599 0.84288 0)
(2.25359 0.8657 0)
(2.16849 0.854749 1.38203e-18)
(1.93125 0.773201 -1.51267e-18)
(1.43874 0.57364 -9.48762e-19)
(0.606174 0.230276 1.73431e-20)
(2.28282 0.624369 -1.34506e-18)
(2.30845 0.653972 -2.82389e-18)
(2.32981 0.683222 -4.89649e-21)
(2.3487 0.712825 5.72289e-19)
(2.358 0.739105 -3.39754e-20)
(2.33291 0.751498 1.19618e-18)
(2.22238 0.729483 -6.59839e-19)
(1.94639 0.641807 -1.71148e-18)
(1.41294 0.455251 8.64584e-20)
(0.570076 0.168022 6.86052e-20)
(2.35863 0.540965 -1.03853e-18)
(2.38524 0.56559 1.43984e-20)
(2.40714 0.589274 3.90364e-19)
(2.42375 0.611794 -3.7767e-19)
(2.42443 0.628879 5.88393e-19)
(2.37991 0.630064 1.54567e-18)
(2.23575 0.596954 -1.24099e-19)
(1.91496 0.505049 -8.82308e-19)
(1.34418 0.336239 1.96491e-19)
(0.513563 0.109794 3.60959e-20)
(2.42007 0.45476 3.75237e-19)
(2.44601 0.474942 7.30939e-20)
(2.46569 0.493007 -3.83043e-19)
(2.47595 0.508193 -9.02131e-19)
(2.46172 0.515778 5.79947e-20)
(2.38901 0.505746 3.94386e-20)
(2.20177 0.462663 -1.06204e-18)
(1.83124 0.369729 4.6049e-19)
(1.23127 0.223986 1.30855e-19)
(0.439713 0.0599328 -4.01445e-20)
(2.46803 0.371519 6.86886e-19)
(2.49029 0.386811 -1.02243e-18)
(2.50413 0.398747 1.49189e-19)
(2.50227 0.406261 2.00793e-18)
(2.4646 0.404257 9.62174e-19)
(2.353 0.38369 -2.06978e-18)
(2.11301 0.332908 -1.88121e-18)
(1.69111 0.243464 7.70771e-19)
(1.07659 0.126024 -4.08177e-20)
(0.353805 0.0218248 -1.08343e-19)
(0.552016 0.366595 -1.96068e-19)
(0.510884 0.379573 -1.74749e-19)
(0.464481 0.393351 8.53461e-20)
(0.413466 0.408066 -2.72903e-19)
(0.357547 0.423587 -2.80066e-20)
(0.295884 0.438592 2.34801e-19)
(0.227502 0.447611 4.58336e-20)
(0.152877 0.434944 -8.76083e-21)
(0.0792358 0.36672 1.39995e-20)
(0.0157126 0.18684 1.54797e-20)
(0.590698 0.474984 1.52247e-19)
(0.550758 0.494805 1.96437e-19)
(0.506406 0.516034 4.31582e-20)
(0.457877 0.538815 -6.25008e-20)
(0.40456 0.562904 -2.41866e-19)
(0.345351 0.586435 -8.41522e-21)
(0.278598 0.601976 8.11145e-20)
(0.203002 0.588196 3.27517e-20)
(0.122187 0.49847 -1.0927e-19)
(0.0381379 0.255336 -3.75688e-20)
(0.647661 0.575697 -1.40276e-19)
(0.609167 0.601442 -1.27142e-19)
(0.567388 0.62908 1.11478e-19)
(0.522092 0.65907 8.3126e-20)
(0.472385 0.691288 -7.52004e-20)
(0.416864 0.723412 -3.83751e-20)
(0.35285 0.745974 -1.04871e-19)
(0.276261 0.731882 -6.49536e-20)
(0.185009 0.62198 -6.36083e-20)
(0.0708395 0.318989 1.19675e-21)
(0.722509 0.672484 5.61806e-20)
(0.686017 0.70475 -3.97263e-20)
(0.647746 0.738788 -8.82084e-20)
(0.60647 0.775273 -3.52208e-20)
(0.560853 0.8142 -6.92972e-20)
(0.509304 0.852896 -6.60765e-22)
(0.448128 0.880069 -2.60504e-19)
(0.369866 0.863507 4.65269e-20)
(0.264958 0.733259 -3.06543e-19)
(0.112245 0.375284 4.88769e-20)
(0.810704 0.752902 -2.50028e-21)
(0.776868 0.790212 9.06036e-21)
(0.743312 0.829835 -4.76191e-20)
(0.707932 0.87281 -2.49459e-19)
(0.668611 0.918907 1.15892e-19)
(0.62296 0.96473 2.76494e-20)
(0.565665 0.997115 5.11841e-20)
(0.485076 0.979025 -1.63021e-19)
(0.36247 0.830601 3.73565e-19)
(0.162023 0.423588 2.72632e-19)
(0.915542 0.832276 -7.17961e-20)
(0.883459 0.87409 -1.62392e-19)
(0.8533 0.917051 3.277e-20)
(0.822374 0.963597 9.67552e-20)
(0.788525 1.01406 3.46514e-19)
(0.748866 1.06437 2.53657e-19)
(0.695966 1.09913 6.21393e-19)
(0.612975 1.07684 2.57693e-19)
(0.470713 0.910092 1.48084e-19)
(0.217048 0.461273 2.02895e-19)
(1.02662 0.885486 -1.02915e-19)
(1.00066 0.932118 5.59805e-19)
(0.978351 0.979637 3.7347e-19)
(0.955119 1.03054 -4.84806e-19)
(0.9282 1.08535 -2.44845e-19)
(0.89456 1.13986 6.52925e-19)
(0.84513 1.1771 -1.03902e-19)
(0.757587 1.15164 -4.41825e-19)
(0.591225 0.969701 1.78045e-20)
(0.27691 0.487762 2.47506e-19)
(1.14492 0.939922 2.80394e-19)
(1.11929 0.986883 5.69208e-20)
(1.10179 1.03469 -7.41342e-19)
(1.08661 1.08734 1.59869e-19)
(1.06911 1.14451 5.68999e-19)
(1.04422 1.20059 -3.16552e-19)
(0.999942 1.23686 -9.86598e-20)
(0.907881 1.20513 -1.82558e-19)
(0.715678 1.00824 1.83808e-20)
(0.337774 0.501947 -2.93042e-19)
(1.27222 0.959508 1.81106e-20)
(1.25702 1.01034 -5.4038e-19)
(1.24686 1.05917 -4.58759e-21)
(1.23731 1.11288 4.66285e-19)
(1.22568 1.17235 -4.85131e-19)
(1.20674 1.23088 9.51583e-19)
(1.16529 1.26737 6.40056e-19)
(1.06583 1.23098 -9.43576e-19)
(0.843803 1.02314 -7.29916e-20)
(0.398451 0.503425 -3.1973e-19)
(1.37361 0.971273 -3.24669e-19)
(1.36985 1.02274 -3.08462e-19)
(1.37667 1.07311 2.89895e-19)
(1.38163 1.1274 7.65809e-19)
(1.38125 1.18612 2.75451e-19)
(1.37061 1.24283 -7.90558e-19)
(1.33229 1.2756 1.0226e-19)
(1.22406 1.23243 2.13858e-19)
(0.96987 1.0158 -2.85501e-19)
(0.45627 0.49303 -2.25412e-19)
(0.997642 0.0087585 5.52568e-22)
(1.01127 0.0369366 -1.61415e-20)
(1.02011 0.047348 -1.16453e-20)
(1.03148 0.0692282 0)
(1.02683 0.0876436 1.28864e-20)
(1.02398 0.106628 1.91011e-20)
(1.00132 0.135048 2.48593e-20)
(0.960908 0.170456 5.93667e-20)
(0.883233 0.233672 -9.62889e-20)
(0.731461 0.301328 -1.14123e-19)
(0.999064 0.0067179 3.28754e-20)
(1.00866 0.0349869 -5.19096e-20)
(1.01923 0.0443454 2.08641e-22)
(1.02914 0.0688488 -1.46914e-20)
(1.02622 0.0878314 6.6783e-21)
(1.02432 0.111356 -1.00831e-20)
(1.00196 0.143974 -5.82901e-20)
(0.967567 0.18864 0)
(0.891018 0.270033 2.01342e-19)
(0.762515 0.37184 -2.64163e-19)
(0.999898 0.0048909 -2.34709e-20)
(1.00731 0.0335085 1.42481e-20)
(1.01838 0.0410369 3.04826e-20)
(1.02854 0.0690818 8.02897e-21)
(1.02586 0.0874354 -1.65366e-20)
(1.02736 0.116811 1.30739e-21)
(1.00359 0.152149 -4.25739e-20)
(0.979504 0.207307 -7.44264e-21)
(0.902377 0.30495 4.46675e-22)
(0.808581 0.439593 6.53347e-19)
(1.00026 0.00316384 -2.62079e-20)
(1.00697 0.032444 1.97687e-21)
(1.01765 0.0374113 2.50673e-20)
(1.02944 0.0698761 1.70077e-20)
(1.02597 0.0863842 -8.42803e-21)
(1.03276 0.123031 -1.24613e-20)
(1.00636 0.159197 6.34186e-20)
(0.996455 0.226909 -2.63003e-21)
(0.916874 0.3373 -2.29499e-19)
(0.869265 0.503019 7.56624e-20)
(1.00033 0.00140571 1.80023e-20)
(1.00727 0.0316876 -2.58737e-20)
(1.01724 0.0334979 -2.02979e-20)
(1.03147 0.0711035 1.01589e-20)
(1.02696 0.0847005 0)
(1.03991 0.129911 0)
(1.01111 0.165015 5.53709e-20)
(1.01677 0.247278 1.41525e-21)
(0.936912 0.366973 -1.08047e-19)
(0.940434 0.560586 8.92326e-20)
(1.00033 -0.000400163 5.01968e-21)
(1.00788 0.0311192 2.05341e-20)
(1.01743 0.0293439 -5.63163e-20)
(1.03429 0.0725961 -1.99785e-20)
(1.02922 0.0824455 -4.39764e-22)
(1.04843 0.13734 5.53654e-20)
(1.01804 0.169384 8.6798e-20)
(1.04091 0.268901 6.60471e-23)
(0.959171 0.391728 1.77022e-19)
(1.02839 0.618139 -2.04315e-19)
(1.00043 -0.00226298 -1.91578e-20)
(1.00845 0.0305979 1.06587e-20)
(1.01846 0.0249983 -1.57986e-20)
(1.03754 0.0741483 -4.27328e-20)
(1.03325 0.0797536 1.45234e-21)
(1.05759 0.14501 -1.52565e-21)
(1.02858 0.172558 -3.86775e-21)
(1.0657 0.290991 -1.93975e-19)
(0.992246 0.412679 1.33263e-19)
(1.1113 0.659838 -4.98858e-19)
(1.00071 -0.00417248 -3.19545e-21)
(1.00882 0.0299774 -3.03754e-20)
(1.02051 0.0205029 3.20995e-20)
(1.04102 0.0755378 2.2975e-20)
(1.03927 0.0767943 7.77621e-22)
(1.06714 0.152486 -6.57506e-20)
(1.04261 0.174796 -5.00954e-20)
(1.09316 0.313553 3.50874e-19)
(1.02558 0.430732 1.22077e-20)
(1.22372 0.718966 7.89201e-19)
(1.00118 -0.00609317 1.27041e-20)
(1.00902 0.0291262 1.36524e-20)
(1.02352 0.015893 3.82777e-20)
(1.04483 0.0766273 -2.53515e-20)
(1.04718 0.0736089 -6.74357e-20)
(1.07679 0.159912 8.34957e-22)
(1.06102 0.174574 -7.04492e-20)
(1.12047 0.334418 4.61837e-19)
(1.07928 0.431898 -7.79889e-21)
(1.29149 0.736458 -1.09348e-18)
(1.00182 -0.00796292 3.03549e-22)
(1.00922 0.0278834 2.10659e-20)
(1.0271 0.0116643 1.25795e-20)
(1.04952 0.0771567 -5.10415e-20)
(1.05561 0.0720811 -6.69724e-20)
(1.08627 0.166539 -5.71638e-20)
(1.07982 0.181923 -1.3106e-19)
(1.14341 0.358278 -4.2413e-19)
(1.13428 0.460838 -2.30883e-19)
(1.4244 0.807903 -1.15685e-18)
(1.00291 -0.0110918 -9.39638e-22)
(1.00915 0.0261819 -4.49561e-21)
(1.03219 0.00352673 -1.49532e-20)
(1.05733 0.0765934 2.78663e-20)
(1.06613 0.0631984 5.14389e-20)
(1.10553 0.171088 -3.72244e-20)
(1.10228 0.16668 1.32559e-19)
(1.18817 0.369206 -3.92747e-19)
(1.19396 0.40165 -1.78435e-19)
(1.43867 0.798165 6.06469e-19)
(1.00494 -0.0156931 2.01793e-22)
(1.00736 0.0235088 7.46487e-21)
(1.04174 -0.00960303 -1.06381e-20)
(1.06498 0.0729307 5.15316e-20)
(1.08382 0.0475359 8.89452e-20)
(1.12258 0.168853 1.11546e-19)
(1.14336 0.141996 3.07559e-20)
(1.2162 0.356385 1.93979e-19)
(1.29134 0.351778 3.07575e-19)
(1.45831 0.69923 2.28306e-20)
(1.00636 -0.0200663 -1.19921e-21)
(1.00506 0.0186961 -3.61335e-21)
(1.0571 -0.0228571 3.81095e-21)
(1.06884 0.066912 3.9532e-21)
(1.10894 0.0321416 2.73474e-34)
(1.13149 0.160697 -6.31239e-21)
(1.1933 0.11747 -4.45876e-34)
(1.23272 0.332598 1.66358e-20)
(1.36784 0.29803 -5.10489e-20)
(1.49393 0.61031 -5.25735e-20)
(1.0042 -0.0244107 1.49969e-20)
(1.00754 0.0100849 -4.08326e-35)
(1.07393 -0.0347936 -4.35213e-21)
(1.07298 0.0566981 -2.20273e-20)
(1.13433 0.018573 -4.52529e-20)
(1.14236 0.147338 -3.77868e-20)
(1.23386 0.0940877 -5.90571e-34)
(1.25533 0.30458 -7.62727e-20)
(1.40795 0.246439 -1.39772e-19)
(1.53011 0.520602 8.87063e-20)
(0.996267 -0.0291462 0)
(1.02064 -0.00365771 -1.27323e-35)
(1.08641 -0.0443401 0)
(1.0853 0.0412579 0)
(1.15399 0.00660801 0)
(1.16546 0.127078 0)
(1.25695 0.0736949 -4.35153e-34)
(1.28765 0.269782 0)
(1.42542 0.20234 -1.81424e-20)
(1.56014 0.428062 5.24644e-20)
(0.982987 -0.035475 2.22628e-21)
(1.04518 -0.0200015 -6.59478e-22)
(1.09292 -0.051434 -5.48805e-21)
(1.10915 0.0242963 0)
(1.16788 -0.00283347 0)
(1.19784 0.102644 5.79081e-21)
(1.26937 0.0577541 4.29753e-20)
(1.32037 0.229113 -1.20699e-20)
(1.44256 0.16452 -2.65002e-20)
(1.5801 0.340854 2.00033e-19)
(0.968198 -0.048055 -8.21722e-20)
(1.07821 -0.0446771 2.81026e-21)
(1.09183 -0.0616552 -6.10375e-21)
(1.14059 -0.000954619 -1.39748e-20)
(1.16666 -0.0147176 -2.82368e-20)
(1.22152 0.0736776 -1.34977e-20)
(1.26242 0.044032 -3.68328e-20)
(1.3385 0.183128 -2.98716e-20)
(1.44951 0.130169 -5.24668e-20)
(1.59334 0.259754 6.59664e-20)
(0.957841 -0.0542698 -5.18084e-21)
(1.10555 -0.0571393 -1.73762e-20)
(1.06819 -0.0597804 -6.66664e-21)
(1.14491 -0.0161797 -4.75019e-21)
(1.10587 -0.0167432 -4.50875e-35)
(1.19514 0.0481903 6.24982e-21)
(1.18392 0.0338431 -7.95707e-34)
(1.31181 0.133843 -1.15329e-20)
(1.39632 0.0954052 1.64892e-20)
(1.58326 0.180991 2.3905e-20)
(0.953229 -0.0946504 1.97651e-19)
(1.05928 -0.0889056 -4.78742e-21)
(0.950959 -0.0736676 -7.11918e-21)
(0.993421 -0.0346259 1.23406e-20)
(0.88522 -0.0164495 1.59693e-20)
(0.997864 0.0245783 1.55815e-20)
(0.939679 0.0247846 1.55795e-20)
(1.13485 0.0788733 -8.04336e-21)
(1.18419 0.0588191 -1.75396e-20)
(1.43146 0.102335 1.29625e-19)
(0.824919 -0.0468527 7.8817e-21)
(0.726384 -0.03348 -9.19778e-35)
(0.529903 -0.0184361 -8.20752e-21)
(0.475085 -0.00346678 0)
(0.395903 8.88457e-05 0)
(0.465064 0.00854078 6.2222e-21)
(0.445454 0.00519613 -4.39204e-36)
(0.590235 0.0170476 -1.10638e-20)
(0.644634 0.00946906 -2.42026e-20)
(0.827851 0.0182102 5.16749e-20)
(1.63978 0.831351 -1.821e-19)
(1.73919 0.814055 -2.7031e-19)
(1.85271 0.783288 0)
(1.95933 0.741747 1.47344e-19)
(2.05693 0.686925 6.25142e-19)
(2.14557 0.625119 -1.10344e-19)
(2.2236 0.555012 1.59078e-18)
(2.29652 0.483017 -7.76652e-20)
(2.35534 0.40726 -3.44202e-19)
(2.41153 0.336433 2.9883e-19)
(1.66524 0.68403 9.1964e-20)
(1.73847 0.669603 1.07442e-19)
(1.83304 0.640261 -1.28788e-20)
(1.91666 0.602624 2.0484e-19)
(2.00664 0.553773 -1.67644e-19)
(2.07512 0.504153 -3.89655e-19)
(2.15261 0.446928 -1.15153e-19)
(2.20678 0.394629 5.30247e-19)
(2.2753 0.334885 -1.98509e-20)