/*--------------------------------*- C++ -*----------------------------------*\
  =========                 |
  \\      /  F ield         | OpenFOAM: The Open Source CFD Toolbox
   \\    /   O peration     | Website:  https://openfoam.org
    \\  /    A nd           | Version:  13
     \\/     M anipulation  |
\*---------------------------------------------------------------------------*/
FoamFile
{
    format      ascii;
    class       volScalarField;
    location    "0.545";
    object      strainRateViscosityModel:nu;
}
// * * * * * * * * * * * * * * * * * * * * * * * * * * * * * * * * * * * * * //

dimensions      [0 2 -1 0 0 0 0];

internalField   nonuniform List<scalar> 
1800
(
9.40488
9.19759
9.01005
8.80092
8.5761
8.34409
8.11543
7.89817
7.62429
7.3794
9.58523
9.41878
9.26689
9.09731
8.91114
8.71139
8.50353
8.28866
8.02732
7.70216
9.70219
9.56269
9.42803
9.27095
9.08867
8.87897
8.64089
8.36902
8.03059
7.61066
9.77539
9.65614
9.53324
9.38287
9.20048
8.9817
8.72279
8.41595
8.02878
7.5546
9.82168
9.7183
9.60558
9.46166
9.2807
9.05695
8.78548
8.45888
8.04776
7.55617
9.85185
9.76081
9.6573
9.52059
9.34355
9.11896
8.84034
8.50016
8.07152
7.57022
9.87179
9.78991
9.69399
9.56396
9.39147
9.16769
8.8842
8.53252
8.08736
7.57568
9.88475
9.80925
9.71888
9.59395
9.42495
9.20146
8.91309
8.55005
8.08853
7.56356
9.8926
9.82107
9.73416
9.6122
9.44467
9.21963
8.92484
8.54923
8.07121
7.52871
9.89646
9.82686
9.74153
9.6207
9.4531
9.22573
8.92513
8.53953
8.05038
7.49285
1.7784
1.40529
1.21445
1.32405
1.72989
2.24726
2.49343
2.44918
2.36067
2.33687
3.70531
1.78526
1.49687
1.98151
2.69042
2.96973
2.8201
2.67637
2.6914
2.74378
4.68704
2.57422
2.43929
3.17363
3.59235
3.34858
3.08753
3.12312
3.26129
3.34126
5.26131
3.88461
3.81676
4.21123
4.17963
3.83273
3.72547
3.85781
3.95966
4.00877
6.05283
5.27637
5.11831
5.12035
4.91493
4.65504
4.58005
4.61397
4.61458
4.65457
6.95887
6.46022
6.22689
6.03785
5.78816
5.54586
5.39001
5.29454
5.22389
5.27664
7.77145
7.37777
7.11673
6.86005
6.58718
6.32052
6.0875
5.90159
5.77129
5.825
8.40007
8.05529
7.79193
7.5156
7.22628
6.93104
6.64218
6.38657
6.19285
6.23002
8.84933
8.54535
8.29093
8.01018
7.70553
7.37931
7.03553
6.70119
6.41606
6.42224
9.16164
8.90152
8.66628
8.39659
8.09561
7.76565
7.40638
7.03568
6.70875
6.75277
2.19418
1.72996
1.33219
0.93504
0.614502
0.337076
0.158949
0.100519
0.11009
0.162207
2.52977
1.8507
1.40938
0.933186
0.590949
0.32117
0.142956
0.0621754
0.0464705
0.0833699
2.95096
1.98077
1.48326
0.933233
0.558969
0.296924
0.127415
0.0416608
0.022635
0.019017
3.44353
2.15091
1.55523
0.937934
0.523244
0.267615
0.110358
0.0315644
0.0189774
0.0112453
3.98553
2.38868
1.63264
0.947687
0.48695
0.234896
0.093119
0.0269088
0.0183073
0.0111162
4.53062
2.69948
1.72859
0.964077
0.452981
0.199632
0.076176
0.0245584
0.0182407
0.0110751
4.9987
3.05897
1.85017
0.986582
0.422016
0.162613
0.05939
0.023
0.0180315
0.0113656
5.31429
3.44183
2.01709
1.02917
0.401227
0.127342
0.0427363
0.0209741
0.0153947
0.0269715
5.34468
3.72509
2.16648
1.06103
0.378746
0.093855
0.0285328
0.0172037
0.021887
0.112299
5.20333
3.99133
2.40219
1.16484
0.396233
0.0776058
0.0163027
0.0139685
0.0950039
0.189919
4.94582
3.94469
2.45897
1.17844
0.370204
0.0511789
0.0125896
0.0843704
0.178463
0.275485
5.33203
3.34998
2.14088
0.996364
0.351632
0.117424
0.100953
0.182386
0.272095
0.376962
4.90548
3.04404
2.24311
1.19574
0.579522
0.275986
0.190917
0.253158
0.352325
0.456899
4.54541
3.62841
2.67631
1.63297
0.884457
0.479117
0.321905
0.346551
0.430238
0.527322
5.11298
4.74609
3.34051
2.16069
1.23413
0.718612
0.482624
0.449561
0.50697
0.58535
6.25421
5.66921
4.05699
2.67319
1.59762
0.975105
0.66383
0.567745
0.585531
0.634463
7.26273
6.37382
4.71423
3.15521
1.9579
1.23792
0.854905
0.694457
0.665366
0.675821
8.00016
6.91218
5.26041
3.58989
2.3012
1.50081
1.05079
0.827509
0.747415
0.712361
8.51879
7.33084
5.69778
3.97084
2.62154
1.75558
1.24117
0.956251
0.824436
0.742244
8.93101
7.69126
6.05007
4.28358
2.92624
2.02783
1.45605
1.10638
0.918352
0.778352
6.51283
6.43966
6.43045
6.44879
6.48743
6.53008
6.58218
6.71078
6.89554
6.82668
0.260735
1.05728
2.00794
2.9231
3.70413
4.31687
4.73375
4.98342
5.22266
5.72889
3.85067
3.54372
3.2844
3.11108
3.10613
3.24983
3.4722
3.71354
4.16527
4.84549
6.64424
6.62729
6.53716
6.34466
6.04313
5.65753
5.24904
4.89529
4.73855
4.54849
7.69188
7.67657
7.63215
7.54132
7.39616
7.18986
6.92703
6.61935
6.28567
5.65581
8.44953
8.43314
8.39437
8.32774
8.2296
8.09674
7.92839
7.71685
7.42792
6.90777
8.93969
8.92395
8.89029
8.8368
8.76168
8.66292
8.53817
8.37895
8.1547
7.80865
9.27299
9.25981
9.23246
9.18986
9.13052
9.05245
8.95269
8.82482
8.65283
8.43093
9.50446
9.49417
9.47308
9.44024
9.39426
9.33319
9.25424
9.15287
9.02289
8.87535
9.6899
9.68285
9.66852
9.64604
9.61405
9.5707
9.51361
9.43975
9.34638
9.2441
7.24846
7.52643
7.83699
8.08763
8.34473
8.59954
8.84132
9.06154
9.25458
9.46027
7.58332
7.94815
8.24096
8.48107
8.70929
8.92476
9.12227
9.29899
9.45391
9.61807
7.49863
7.95742
8.32593
8.62046
8.87571
9.0977
9.28803
9.44951
9.58536
9.72226
7.44698
7.95763
8.37374
8.70196
8.97655
9.20594
9.3947
9.54806
9.67131
9.78824
7.45638
7.98067
8.41859
8.76487
9.05052
9.28355
9.46977
9.61591
9.72868
9.83023
7.48244
8.01168
8.46401
8.82145
9.11233
9.34474
9.52606
9.66447
9.76796
9.85764
7.50365
8.03786
8.50277
8.86862
9.16197
9.39189
9.56764
9.6989
9.79479
9.8757
7.51115
8.05246
8.52871
8.90209
9.19746
9.42521
9.5964
9.72213
9.81243
9.88729
7.49836
8.05045
8.53742
8.91898
9.21768
9.44503
9.61372
9.73606
9.8229
9.89404
7.48288
8.04359
8.53593
8.92344
9.22526
9.4533
9.62123
9.74217
9.82746
9.89694
2.55212
2.50948
2.52856
2.73922
2.91962
2.54346
1.69197
1.17964
1.52052
4.17965
2.96133
2.8731
2.71457
2.71415
3.10298
3.42562
2.81429
1.90156
2.12001
5.12788
3.45275
3.40867
3.25058
3.06518
3.26616
3.82368
3.8004
3.15585
3.28227
5.45111
3.94706
3.93588
3.90872
3.79904
3.89174
4.31873
4.58858
4.46459
4.65581
5.90919
4.50074
4.4732
4.54797
4.61869
4.78169
5.11455
5.43802
5.61733
5.89385
6.62875
5.10377
5.0612
5.20029
5.39787
5.65791
5.98074
6.30842
6.59459
6.8996
7.40532
5.65547
5.61911
5.81944
6.09139
6.4081
6.74088
7.06831
7.37771
7.67821
8.08608
6.06795
6.0532
6.31581
6.64263
6.99501
7.33965
7.66706
7.97395
8.25874
8.61093
6.26123
6.27993
6.63132
7.02596
7.42002
7.78424
8.11654
8.41654
8.68274
8.98795
6.60075
6.57041
6.9562
7.37948
7.78123
8.14299
8.46642
8.75036
8.99297
9.25188
0.107496
0.154426
0.112114
0.0539337
0.0133168
0.374351
0.91336
1.47137
1.94213
2.42619
0.0736437
0.139382
0.107961
0.0539232
0.0139654
0.364305
0.919963
1.53779
2.02495
2.69588
0.0518911
0.131542
0.106841
0.0575247
0.0227949
0.366347
0.931554
1.59251
2.09992
3.01005
0.039118
0.130666
0.109768
0.0661248
0.0409036
0.378335
0.944192
1.63433
2.20688
3.39908
0.0329864
0.135312
0.115202
0.0771462
0.0645349
0.393432
0.953943
1.67359
2.38651
3.86991
0.0322002
0.143759
0.121386
0.087815
0.0894597
0.407369
0.963834
1.73302
2.65324
4.36679
0.0368446
0.155504
0.126873
0.0960274
0.11083
0.416815
0.978355
1.82919
2.98464
4.79705
0.0479759
0.171384
0.131298
0.101785
0.127958
0.429798
1.02132
1.98787
3.35085
5.08129
0.0680137
0.191873
0.134763
0.101545
0.132419
0.431951
1.05871
2.13842
3.62881
5.0842
0.0996819
0.214179
0.138958
0.104881
0.149001
0.479407
1.19487
2.39626
3.87867
4.89268
0.157646
0.241994
0.14655
0.102655
0.138079
0.477767
1.25666
2.50858
3.88771
4.67508
0.261635
0.272196
0.136241
0.079639
0.0748159
0.375338
1.12229
2.30517
3.43292
5.19448
0.42659
0.269881
0.107187
0.0172884
0.0146405
0.321747
1.13749
2.34475
3.25439
4.93903
0.679477
0.257175
0.0229997
0.0813021
0.110636
0.522469
1.42043
2.61507
3.70962
4.69627
1.06307
0.049123
0.254692
0.248792
0.326344
0.882863
1.9281
3.20073
4.70368
5.17522
1.51477
0.116637
0.534071
0.429321
0.609358
1.30467
2.47201
3.91486
5.59762
6.22271
2.19415
0.685676
0.851199
0.702709
0.955338
1.73853
2.99224
4.59288
6.30235
7.21638
3.79185
1.70494
1.27244
1.04884
1.33085
2.15329
3.46267
5.16529
6.85426
7.96886
6.86004
3.57609
1.96242
1.43189
1.69128
2.52897
3.87587
5.63169
7.29531
8.50727
9.04904
6.38393
2.84414
2.01046
2.12647
2.90358
4.22758
6.01989
7.68659
8.93806
6.6254
6.68827
6.5114
6.3895
6.34901
6.32272
6.30565
6.31738
6.36197
6.47627
5.53021
5.01127
4.76723
4.5259
4.12752
3.54135
2.79923
1.93253
1.04493
0.284319
4.85082
4.23718
3.82732
3.61644
3.4294
3.30981
3.31472
3.45715
3.65507
3.87417
4.71085
4.88425
5.02696
5.33685
5.70146
6.05208
6.33386
6.52145
6.61663
6.64168
5.68667
6.2852
6.61197
6.91122
7.17237
7.38152
7.53187
7.6282
7.67675
7.69244
6.86569
7.38857
7.68447
7.90238
8.07665
8.2149
8.31785
8.3886
8.43058
8.44891
7.76518
8.12055
8.35202
8.51795
8.648
8.75101
8.82958
8.88584
8.92165
8.939
8.40459
8.63271
8.80889
8.94094
9.04402
9.12466
9.18596
9.23007
9.25855
9.2726
8.86615
9.01619
9.14761
9.25059
9.33082
9.39282
9.43944
9.47267
9.494
9.50442
9.24866
9.35043
9.443
9.51629
9.57293
9.61587
9.64747
9.66956
9.68348
9.69011
9.50943
8.98527
8.2358
6.92817
5.59792
0.131167
3.36079
5.96032
7.214
8.15178
9.46538
8.92149
8.16804
6.8905
5.54934
0.563762
2.62218
5.70595
6.91634
7.91387
9.36564
8.78274
8.02018
6.80952
5.3663
1.60347
1.41353
5.20658
6.30925
7.4032
9.18249
8.54504
7.77439
6.65501
5.18637
2.74001
0.72307
4.23833
5.42148
6.57137
8.86804
8.17348
7.40389
6.37682
5.02643
3.36799
0.970934
2.63158
4.31688
5.39369
8.35043
7.62959
6.87327
5.91714
4.765
3.43999
1.71921
1.30188
3.04926
3.98807
7.53593
6.89645
6.15538
5.22742
4.29957
3.2695
2.14304
1.17238
1.65627
2.55746
6.32526
6.03739
5.28115
4.23179
3.53345
2.91264
2.11837
1.43497
1.06841
1.23552
4.63158
5.23203
4.47414
2.99956
2.43721
2.27461
1.85595
1.38453
1.12235
0.659029
2.67266
4.53922
4.02141
1.96686
1.39695
1.48846
1.4098
1.21131
1.0636
0.844768
1.27662
3.78825
3.66629
1.33766
0.816376
0.897544
0.97068
0.955696
0.971164
1.01934
0.613397
2.96838
3.08144
0.957138
0.575376
0.639427
0.758519
0.819058
0.843135
0.876225
0.355316
2.1877
2.28418
0.688438
0.492049
0.594057
0.724908
0.809325
0.847254
0.872162
0.265308
1.54909
1.4879
0.52069
0.532788
0.672117
0.785579
0.856675
0.880229
0.890637
0.239719
1.0188
0.844436
0.511687
0.666844
0.800506
0.90173
0.96528
0.98112
0.978179
0.243025
0.494702
0.498144
0.633274
0.814162
0.951597
1.04942
1.10726
1.11796
1.1099
0.178738
0.203805
0.505642
0.753149
0.971177
1.117
1.20705
1.25436
1.27112
1.27161
0.0457714
0.249844
0.64729
0.919647
1.13328
1.25133
1.32767
1.39702
1.45294
1.47446
0.0591044
0.490961
0.820317
1.09482
1.22975
1.33837
1.48734
1.64446
1.73134
1.74711
0.686785
0.861541
1.04057
1.18622
1.32515
1.59595
1.90617
2.07591
2.07918
2.04694
0.36289
0.0801376
0.222524
0.547874
0.790525
0.886409
0.877799
0.824942
0.779776
0.768386
0.461662
0.201173
0.317316
0.518585
0.720149
0.80602
0.798731
0.751542
0.71321
0.714625
0.524875
0.370186
0.43759
0.510679
0.650014
0.726322
0.721294
0.678723
0.646399
0.659292
0.637289
0.585033
0.59236
0.552179
0.584159
0.639469
0.638675
0.603432
0.578656
0.602461
0.803576
0.800012
0.738229
0.634231
0.538973
0.552387
0.554036
0.527291
0.5105
0.544109
1.00647
0.995544
0.871034
0.733057
0.527587
0.470606
0.467859
0.45039
0.442076
0.484173
1.2242
1.16704
0.985723
0.820582
0.548881
0.404054
0.382895
0.373601
0.373734
0.422726
1.44901
1.32161
1.08476
0.882821
0.584719
0.362228
0.30328
0.297996
0.305742
0.359359
1.68229
1.4661
1.17209
0.918274
0.613618
0.345994
0.235348
0.225174
0.238662
0.295046
1.92522
1.60265
1.25325
0.932849
0.623753
0.34297
0.186411
0.158016
0.172435
0.226998
2.00892
0.74695
0.715702
0.961483
1.19152
1.27683
1.25098
1.17831
1.11193
1.03596
1.39436
0.482649
0.577347
0.871004
1.10386
1.19108
1.16945
1.10161
1.03916
0.976933
0.751686
0.287815
0.479643
0.794266
1.02999
1.11948
1.10148
1.03737
0.978832
0.928301
0.253593
0.170117
0.404084
0.722715
0.955346
1.04368
1.02767
0.967083
0.912848
0.87532
0.435948
0.0327789
0.266207
0.610257
0.859934
0.960018
0.951764
0.896211
0.846452
0.821936
9.3546
9.29001
9.14094
8.87303
8.43747
7.77879
6.87123
5.75918
4.58183
3.53692
9.19243
9.0956
8.88104
8.51157
7.94141
7.13634
6.1095
4.95496
3.84463
2.7867
9.02382
8.9002
8.62654
8.16095
7.46164
6.51601
5.37128
4.1685
3.08118
1.94233
8.81625
8.66213
8.32141
7.74782
6.90604
5.8141
4.55485
3.29473
2.22586
1.09017
8.58742
8.37931
7.92574
7.17734
6.11239
4.79198
3.35059
2.0852
0.994128
0.30204
1.06082
1.02508
1.01709
1.02067
0.915886
0.800155
1.2938
3.68224
3.85874
1.32351
0.94989
0.934534
0.927105
0.871698
0.719727
0.589353
0.9117
3.14024
3.10801
0.647792
0.986588
0.983072
0.96627
0.893496
0.748222
0.585581
0.699582
2.36996
2.34335
0.377674
1.05355
1.06536
1.06116
1.00139
0.890267
0.741597
0.656887
1.55395
1.62989
0.277423
1.18519
1.20917
1.21474
1.16704
1.07621
0.951477
0.788917
0.906699
0.915181
0.246326
1.34885
1.36869
1.37687
1.35146
1.28128
1.14803
0.927025
0.667288
0.356637
0.216481
1.55114
1.54711
1.51499
1.47264
1.4211
1.31368
1.0738
0.750197
0.271666
0.0662749
1.81669
1.80996
1.72756
1.57581
1.43698
1.33995
1.2035
0.895554
0.491434
0.0466959
2.09577
2.14235
2.1394
1.94553
1.60475
1.31863
1.18345
1.05113
0.84984
0.67213
2.30467
2.3517
2.47522
2.52416
2.22043
1.62317
1.17866
1.06454
1.29894
2.02413
8.15159
7.21364
5.95996
3.36028
0.131424
5.59645
6.92768
8.23561
8.98529
9.50953
7.91318
6.91523
5.70495
2.62157
0.563632
5.54549
6.88904
8.16746
8.92154
9.46569
7.40175
6.30737
5.20479
1.41542
1.59975
5.36181
6.80725
8.01931
8.78287
9.36622
6.56872
5.41859
4.23616
0.726232
2.73173
5.18165
6.65216
7.77341
8.54537
9.18352
5.3893
4.31238
2.63251
0.971047
3.35668
5.02048
6.37337
7.40295
8.17422
8.8698
3.97965
3.04128
1.31004
1.71337
3.42674
4.75612
5.91233
6.87238
7.63107
8.3534
2.54077
1.65313
1.18732
2.13307
3.25083
4.28284
5.21866
6.15444
6.89931
7.54126
1.21705
1.08764
1.45209
2.10745
2.88038
3.50291
4.21733
5.28179
6.04326
6.33601
0.671541
1.15326
1.40751
1.84259
2.23203
2.40027
2.98379
4.47893
5.24311
4.65576
0.885351
1.10286
1.24769
1.41319
1.46414
1.36927
1.9434
4.02574
4.56448
2.71712
2.08935
0.543242
1.05954
0.633455
0.667554
0.760031
0.63243
0.299806
0.0627893
0.356741
1.62935
0.23723
0.867669
0.483527
0.573679
0.682298
0.592639
0.356393
0.266584
0.488905
1.33333
0.0579464
0.639414
0.345654
0.48488
0.60227
0.560676
0.459385
0.473527
0.591514
1.09672
0.0149164
0.390931
0.237783
0.39967
0.517943
0.56054
0.625744
0.731788
0.758352
0.846072
0.0905665
0.188257
0.163422
0.320914
0.440676
0.606868
0.803641
0.972305
0.97642
0.633684
0.155273
0.0514412
0.106899
0.24772
0.384447
0.691843
0.97137
1.18947
1.22195
0.461201
0.209901
0.0508541
0.0508149
0.182716
0.362571
0.7835
1.11217
1.37921
1.47583
0.328419
0.211448
0.104864
0.010435
0.121923
0.369671
0.853654
1.22571
1.54852
1.7284
0.229232
0.197234
0.11482
0.0374954
0.0609712
0.38315
0.892791
1.31809
1.70064
1.96795
0.157624
0.174831
0.117763
0.0509138
0.0242682
0.38603
0.90828
1.3981
1.83368
2.19142
9.33656
6.77029
2.66573
1.70211
1.20625
1.1247
0.969213
0.784355
0.797654
2.03338
8.2109
4.63638
2.21543
1.42037
1.07433
1.03953
0.894833
0.653293
0.529008
1.39869
6.12008
3.06388
1.78544
1.21332
0.969918
0.974787
0.835055
0.563007
0.329664
0.740942
4.13293
1.87579
1.49703
1.00706
0.864364
0.907107
0.777819
0.488901
0.229402
0.224527
2.8351
1.06131
1.24538
0.806895
0.761502
0.828711
0.686903
0.356638
0.0444342
0.397836
3.54772
4.58906
5.76309
6.87338
7.78032
8.4386
8.8738
9.14142
9.29027
9.35469
2.78086
3.84092
4.95219
6.10772
7.13572
7.94141
8.51179
8.88127
9.09576
9.19249
1.92832
3.07177
4.16203
5.36653
6.51346
7.4605
8.16052
8.62645
8.90023
9.02385
1.05502
2.20275
3.28139
4.5466
5.8099
6.90383
7.7467
8.32095
8.66198
8.81623
0.300301
0.962068
2.06359
3.33726
4.785
6.10881
7.17536
7.92479
8.37894
8.58733
)
;

boundaryField
{
    left
    {
        type            calculated;
        value           nonuniform List<scalar> 
35
(
0.299403
0.570238
0.990083
1.62664
2.52411
3.69506
5.06584
6.47613
8.15853
9.4418
0.205762
0.126134
0.0755151
0.0463758
0.0319997
0.0275049
0.0320823
0.0501963
0.090052
0.159154
4.93339
4.06137
3.23428
2.51243
1.91655
1.42614
1.02901
0.721505
0.491239
0.32365
9.61572
8.97909
7.9221
6.84786
5.85947
)
;
    }
    right
    {
        type            calculated;
        value           nonuniform List<scalar> 
35
(
1.03558
0.976997
0.928994
0.877135
0.825176
0.773282
0.721189
0.667317
0.611737
0.554397
0.495149
0.433934
0.37019
0.304759
0.234694
0.167214
0.0844188
0.0180557
0.0107713
0.0107257
0.0106755
0.0110848
0.0293899
0.125569
0.210544
0.300223
0.402885
0.482905
0.551509
0.606028
0.650251
0.686129
0.717654
0.74393
0.776496
)
;
    }
    down
    {
        type            calculated;
        value           nonuniform List<scalar> 
40
(
9.4543
7.26628
2.89661
1.79111
1.24671
1.15316
0.994967
0.826009
0.898712
2.26057
3.83287
4.88234
6.0338
7.09272
7.94448
8.55492
8.9544
9.19919
9.33559
9.39483
9.39474
9.33531
9.19867
8.95353
8.55359
7.94255
7.08982
6.02862
4.87303
3.8187
2.23202
0.847031
0.759538
0.99334
1.22307
1.30626
1.27792
1.203
1.13518
1.05483
)
;
    }
    up
    {
        type            calculated;
        value           nonuniform List<scalar> 
40
(
9.0341
7.80888
6.1679
4.39523
3.03421
2.12281
1.52897
1.15483
0.947708
0.790001
9.72927
9.72305
9.71045
9.69064
9.66234
9.62377
9.57263
9.50586
9.42075
9.32814
9.33503
9.42654
9.51038
9.57622
9.62664
9.66461
9.69238
9.71168
9.72379
9.72951
9.27072
7.09642
3.23999
2.16146
2.24533
3.0235
4.34988
6.14947
7.8137
9.04492
)
;
    }
    cylinder
    {
        type            calculated;
        value           nonuniform List<scalar> 
80
(
1.97035
4.53579
5.5166
5.76759
6.30035
7.0891
7.86143
8.4747
8.91245
9.21291
9.44582
9.61872
9.72982
9.7983
9.84096
9.86846
9.8865
9.89817
9.90522
9.90869
9.50042
9.65062
9.74903
9.81047
9.849
9.87389
9.89016
9.90055
9.90657
9.90913
5.30235
6.22536
6.20768
6.31204
6.83183
7.52535
8.17575
8.68589
9.05067
9.30253
0.994815
0.471868
0.264369
0.183329
0.159789
0.16572
0.0829364
0.0421434
0.747214
2.40768
9.59442
9.55585
9.4674
9.30182
9.00972
8.51128
7.68617
6.3666
4.38766
2.23949
9.59432
9.55553
9.46679
9.30073
9.00785
8.5081
7.68041
6.35439
4.35806
2.1912
0.952687
0.442171
0.244263
0.170802
0.1503
0.165483
0.16216
0.0846094
0.0433731
0.724379
)
;
    }
    defaultFaces
    {
        type            empty;
    }
}


// ************************************************************************* //
