/*--------------------------------*- C++ -*----------------------------------*\
  =========                 |
  \\      /  F ield         | OpenFOAM: The Open Source CFD Toolbox
   \\    /   O peration     | Website:  https://openfoam.org
    \\  /    A nd           | Version:  13
     \\/     M anipulation  |
\*---------------------------------------------------------------------------*/
FoamFile
{
    format      ascii;
    class       volScalarField;
    location    "0.505";
    object      p;
}
// * * * * * * * * * * * * * * * * * * * * * * * * * * * * * * * * * * * * * //

dimensions      [0 2 -2 0 0 0 0];

internalField   nonuniform List<scalar> 
440
(
7.84182
10.5983
12.9612
13.144
10.17
20.7349
24.1183
27.1138
27.8148
25.9277
41.2726
44.304
47.007
47.7998
46.6393
67.406
69.5039
71.4173
72.074
71.3866
96.6828
97.4998
98.2968
98.6969
98.6633
-0.422946
-0.522197
-0.050513
0.508861
0.849976
-1.67643
-2.33821
-2.0735
-1.37561
-0.737748
-2.02995
-2.90894
-2.82576
-2.06669
-0.947361
-0.679979
-0.81144
-0.403181
0.564362
2.43128
3.09302
4.40478
5.83522
7.26868
9.52036
2.10773
2.29119
1.37419
0.706094
0.238992
1.07298
2.09343
1.25194
0.648254
0.225526
-0.0799711
1.67671
1.11454
0.600226
0.215342
-0.384375
1.0739
0.902675
0.556966
0.209671
1.52821
0.489534
0.615431
0.508502
0.207352
4.40211
0.263346
0.341294
0.4577
0.195445
6.74001
0.71855
0.435085
0.454663
0.13597
10.0023
2.46079
1.08821
0.5764
0.0970759
13.8935
4.77053
2.14642
0.841719
0.0955313
16.6305
7.13567
3.46991
1.30781
0.182402
100.707
75.8588
53.3434
33.169
12.3668
102.403
78.961
57.5557
39.0756
23.5019
104.304
82.7209
62.4935
45.2528
32.9059
105.187
85.0405
66.5226
51.204
40.6779
105.106
84.763
66.3484
51.2715
40.9176
219.889
216.411
216.119
218.237
220.97
202.708
200.243
200.503
203.244
206.536
180.56
178.788
179.152
181.574
184.453
154.761
153.418
153.623
155.217
157.114
126.88
126.166
126.106
126.566
127.159
235.577
236.006
236.643
237.065
236.809
236.165
236.8
237.356
237.333
236.379
234.972
235.948
236.364
236.093
235.104
230.087
231.688
232.255
232.393
232.302
221.596
223.461
224.476
225.687
227.042
235.768
234.731
234.91
234.111
234.268
235.739
234.716
234.857
234.072
234.808
235.729
234.679
234.801
234.194
235.34
235.73
234.619
234.8
234.454
234.932
235.733
234.539
234.874
234.654
232.238
235.742
234.404
234.927
234.433
228.74
235.921
234.267
234.815
233.951
226.375
236.811
234.034
234.178
232.26
223.353
240.842
234.019
232.993
229.79
219.674
249.81
234.741
231.776
227.242
216.92
217.778
196.252
175.045
151.752
126.466
207.386
191.39
172.344
150.441
126.671
198.898
186.217
168.634
148.107
126.353
191.76
180.801
165.117
146.28
125.939
191.542
180.782
165.372
146.68
126.169
96.4116
95.5347
95.087
94.3201
94.1635
57.3328
55.3858
53.6804
51.7588
50.9929
29.5043
27.161
24.3984
22.0995
20.7751
15.0535
12.6371
10.1717
8.15159
7.18119
9.22475
7.33717
5.95026
4.97472
4.38765
5.9958
4.89359
4.31329
4.22412
4.31229
4.0902
3.62988
3.55655
3.71136
3.86469
2.7873
2.77128
3.00301
3.30531
3.46339
1.68751
1.99084
2.44029
2.79029
2.93498
0.641394
1.03839
1.60969
2.01035
2.18391
3.63418
3.20255
2.09123
0.992021
0.292334
3.68784
3.03216
1.99919
0.93691
0.280739
3.49108
2.77287
1.87081
0.884833
0.270354
3.17307
2.53209
1.70974
0.830432
0.260513
2.75606
2.3849
1.53077
0.771095
0.25233
4.50208
3.18742
2.00412
1.0294
0.321394
3.76513
3.28042
2.09387
1.02607
0.305109
94.9191
54.163
27.5273
14.5048
9.48518
93.698
51.1537
23.0043
9.48973
5.2798
232.147
232.229
232.179
231.664
230.587
232.737
232.91
233.14
233.179
232.805
233.299
233.47
233.857
234.254
234.425
233.892
234.042
234.445
235.045
235.462
234.628
234.864
235.366
235.975
236.232
141.993
141.801
140.973
140.462
139.551
185.224
184.415
182.437
180.67
178.693
215.521
214.151
211.802
208.988
206.613
229.156
228.148
226.098
223.601
221.156
232.003
231.388
230.417
229.035
227.136
238.828
234.456
234.564
233.512
232.903
237.129
234.496
234.653
233.683
232.923
236.371
234.584
234.756
233.906
233.251
236.008
234.664
234.857
234.101
233.624
235.839
234.716
234.917
234.171
233.932
252.264
235.793
234.92
233.448
231.989
243.172
234.702
234.501
233.391
232.706
226.942
221.868
208.761
182.047
141.242
231.139
226.897
213.315
185.071
142.465
)
;

boundaryField
{
    left
    {
        type            zeroGradient;
    }
    right
    {
        type            fixedValue;
        value           uniform 0;
    }
    down
    {
        type            zeroGradient;
    }
    up
    {
        type            zeroGradient;
    }
    cylinder
    {
        type            zeroGradient;
    }
    defaultFaces
    {
        type            empty;
    }
}


// ************************************************************************* //
