# Selection   : all
# Cells       : 440
# Volume      : 7.374263e+01
# Time        	minMag(U)
9.62          	6.187462e-03
9.665         	3.943246e-03
9.715         	2.412929e-03
