/*--------------------------------*- C++ -*----------------------------------*\
  =========                 |
  \\      /  F ield         | OpenFOAM: The Open Source CFD Toolbox
   \\    /   O peration     | Website:  https://openfoam.org
    \\  /    A nd           | Version:  13
     \\/     M anipulation  |
\*---------------------------------------------------------------------------*/
FoamFile
{
    format      ascii;
    class       volVectorField;
    location    "0.99";
    object      U;
}
// * * * * * * * * * * * * * * * * * * * * * * * * * * * * * * * * * * * * * //

dimensions      [0 1 -1 0 0 0 0];

internalField   nonuniform List<vector> 
1800
(
(0.0978001 -0.0883279 -4.48821e-20)
(0.286894 -0.24195 -3.41111e-20)
(0.473972 -0.379043 -4.85007e-19)
(0.657691 -0.500158 1.91467e-19)
(0.836612 -0.607172 7.4404e-20)
(1.00992 -0.70138 -3.90497e-20)
(1.17716 -0.783475 5.54998e-20)
(1.33794 -0.85369 1.97506e-19)
(1.4916 -0.912977 5.92315e-19)
(1.63354 -0.966921 8.10114e-19)
(0.11906 -0.0915021 -7.9109e-20)
(0.34429 -0.247708 -7.70611e-19)
(0.563281 -0.384749 3.78144e-21)
(0.775363 -0.504236 1.25734e-19)
(0.979506 -0.608922 -1.26247e-19)
(1.17522 -0.700697 7.65655e-20)
(1.36232 -0.780792 -2.8074e-19)
(1.54078 -0.850105 -5.03081e-20)
(1.71011 -0.910714 -6.93601e-19)
(1.86786 -0.967058 6.29842e-19)
(0.14165 -0.0923226 4.88225e-20)
(0.403679 -0.24773 2.09287e-19)
(0.653754 -0.382116 5.43302e-19)
(0.892177 -0.497904 -1.90254e-19)
(1.11866 -0.598385 -1.4299e-19)
(1.33321 -0.685813 7.56024e-20)
(1.53606 -0.761708 9.82338e-20)
(1.72743 -0.827301 1.94051e-19)
(1.90721 -0.884808 2.73663e-21)
(2.07422 -0.937878 1.50978e-19)
(0.163906 -0.0897205 -4.57189e-20)
(0.461697 -0.239469 -2.0439e-19)
(0.741427 -0.367618 -1.81257e-19)
(1.00451 -0.476976 -1.4229e-19)
(1.25162 -0.571022 1.81301e-19)
(1.48351 -0.652128 -5.70877e-20)
(1.70093 -0.721907 -4.30994e-21)
(1.90453 -0.781624 2.90534e-21)
(2.09456 -0.833369 -1.60489e-19)
(2.27026 -0.880362 -1.05917e-19)
(0.184657 -0.0833562 -1.14034e-19)
(0.515893 -0.221807 8.76392e-20)
(0.823291 -0.33943 1.79834e-19)
(1.10931 -0.439063 2.43296e-19)
(1.37561 -0.524071 -2.8501e-19)
(1.62371 -0.596778 -3.58067e-21)
(1.85494 -0.658768 4.2495e-19)
(2.07043 -0.711264 -1.85055e-19)
(2.27083 -0.756166 -1.23984e-19)
(2.45578 -0.796401 -5.35381e-20)
(0.203189 -0.0734999 1.73587e-19)
(0.56447 -0.1952 1.02983e-18)
(0.89679 -0.298074 1.43257e-19)
(1.20351 -0.384735 -5.03127e-19)
(1.48719 -0.458226 -1.75496e-19)
(1.75003 -0.520669 6.37664e-19)
(1.9939 -0.573525 -1.45365e-19)
(2.22036 -0.617901 -4.31557e-19)
(2.43047 -0.655446 -3.16673e-19)
(2.6242 -0.688745 2.61586e-19)
(0.218898 -0.0605912 1.16339e-19)
(0.605744 -0.1607 -7.47582e-19)
(0.959312 -0.24503 -1.08559e-18)
(1.2837 -0.315798 3.83777e-19)
(1.58223 -0.375564 4.49928e-19)
(1.85767 -0.426128 -9.02013e-22)
(2.11239 -0.46874 -6.3965e-19)
(2.34829 -0.504326 2.1931e-19)
(2.56683 -0.534214 -3.64522e-19)
(2.76827 -0.560572 -3.11226e-19)
(0.231235 -0.0451722 -3.42481e-19)
(0.638198 -0.119684 -6.92591e-19)
(1.00849 -0.182294 1.21219e-18)
(1.34677 -0.2347 5.98691e-19)
(1.65693 -0.278852 -2.6975e-19)
(1.94224 -0.316136 -2.11491e-19)
(2.20543 -0.347516 0)
(2.44874 -0.37369 1.16797e-19)
(2.67398 -0.395623 -2.95837e-19)
(2.88171 -0.414971 -7.74179e-20)
(0.239766 -0.0278753 -2.04463e-19)
(0.660651 -0.0737557 5.62375e-19)
(1.04249 -0.112198 1.71005e-19)
(1.39031 -0.144289 -5.12484e-19)
(1.7084 -0.171277 -7.8418e-19)
(2.00037 -0.194054 3.66183e-20)
(2.26923 -0.213246 1.67126e-19)
(2.51752 -0.229294 -5.4683e-19)
(2.74731 -0.242785 -2.89766e-19)
(2.95953 -0.254779 -5.6359e-19)
(0.244259 -0.0094024 4.51401e-19)
(0.672451 -0.024704 3.44143e-19)
(1.0603 -0.0373616 -9.38584e-20)
(1.41303 -0.0477885 -1.29776e-20)
(1.73514 -0.0564624 -3.87501e-19)
(2.03041 -0.0637233 -8.57328e-20)
(2.30205 -0.0698104 -2.90573e-19)
(2.55275 -0.0748907 6.4655e-19)
(2.7848 -0.0791717 1.71001e-19)
(2.99945 -0.0830126 2.21992e-21)
(-0.00234128 -0.0217703 -3.54677e-20)
(0.00856877 -0.0693621 -6.98959e-20)
(0.0248453 -0.120626 -7.33412e-21)
(0.049282 -0.171414 -3.39226e-20)
(0.0776324 -0.216829 -1.27393e-20)
(0.106458 -0.254965 -3.9009e-19)
(0.135469 -0.288888 -1.9568e-20)
(0.166249 -0.322209 1.19954e-19)
(0.199076 -0.355744 1.0938e-20)
(0.232966 -0.388133 -3.57013e-20)
(0.00085207 -0.0246645 -9.77636e-20)
(0.01493 -0.0850514 -2.13748e-19)
(0.0393433 -0.160441 -5.28883e-20)
(0.069265 -0.225425 -1.10218e-19)
(0.0994596 -0.275717 -9.60798e-20)
(0.1304 -0.318142 -2.79191e-19)
(0.164406 -0.359143 2.00143e-19)
(0.202067 -0.400572 1.68823e-19)
(0.241569 -0.440517 -2.57058e-19)
(0.281073 -0.476917 8.14534e-20)
(0.00549735 -0.0314706 -8.54174e-20)
(0.0287723 -0.107401 -8.69507e-19)
(0.0628696 -0.196179 -1.303e-19)
(0.0974515 -0.269074 9.24271e-20)
(0.131789 -0.327318 6.76424e-20)
(0.169608 -0.380394 -4.47542e-19)
(0.212902 -0.432448 3.53217e-20)
(0.259097 -0.481972 3.67027e-19)
(0.30544 -0.526454 -3.86767e-19)
(0.35138 -0.565863 -2.58715e-19)
(0.0113682 -0.0409667 -1.7738e-21)
(0.0466238 -0.130868 1.90259e-19)
(0.0896524 -0.225371 1.6026e-21)
(0.133079 -0.307092 -1.0691e-20)
(0.177775 -0.377936 -2.99358e-20)
(0.227223 -0.443941 8.55457e-20)
(0.281079 -0.505737 7.25211e-20)
(0.335648 -0.56103 -1.35944e-19)
(0.389703 -0.609526 9.2118e-21)
(0.443865 -0.652106 -1.04426e-20)
(0.0185084 -0.0507596 0)
(0.0672391 -0.152424 5.52144e-21)
(0.121946 -0.253653 -5.11532e-19)
(0.178698 -0.345506 5.17706e-20)
(0.237805 -0.428616 -9.43239e-21)
(0.300511 -0.505147 4.8667e-21)
(0.365305 -0.574456 -2.5147e-20)
(0.429799 -0.635532 -7.76207e-21)
(0.493933 -0.688952 0)
(0.558124 -0.734976 -2.05804e-20)
(0.0273245 -0.0596434 3.18961e-20)
(0.091895 -0.172852 -1.54646e-19)
(0.161769 -0.282529 -4.62358e-20)
(0.234632 -0.383904 -5.8257e-20)
(0.309738 -0.476776 4.95562e-20)
(0.386739 -0.561571 6.09709e-21)
(0.464245 -0.637753 8.86258e-20)
(0.540939 -0.705011 -2.17525e-20)
(0.616909 -0.763527 -6.95842e-19)
(0.692159 -0.812745 -1.00991e-20)
(0.0379735 -0.0676008 6.74319e-22)
(0.121236 -0.192175 5.546e-20)
(0.209164 -0.310617 -7.83347e-20)
(0.299928 -0.420182 -1.66795e-20)
(0.392139 -0.520681 -7.29068e-20)
(0.484782 -0.612148 -9.23859e-21)
(0.576707 -0.694357 1.02404e-20)
(0.666948 -0.767189 -2.11215e-19)
(0.755534 -0.830324 3.83293e-19)
(0.842327 -0.882392 9.71243e-19)
(0.0503601 -0.0745986 1.51e-20)
(0.155128 -0.209607 -1.42206e-19)
(0.263462 -0.335963 -2.1364e-19)
(0.373671 -0.452112 8.89623e-20)
(0.484105 -0.55827 -6.43048e-20)
(0.593549 -0.654627 9.85101e-20)
(0.700951 -0.741294 1.96479e-19)
(0.805418 -0.818327 -1.0888e-19)
(0.907032 -0.885152 -3.05824e-19)
(1.00571 -0.939578 7.25153e-19)
(0.0642889 -0.0803582 -2.65185e-20)
(0.193284 -0.224023 -5.78106e-19)
(0.324296 -0.356557 5.24271e-19)
(0.455684 -0.47723 3.37456e-19)
(0.585741 -0.586747 -8.59078e-20)
(0.713228 -0.685665 3.08556e-19)
(0.837136 -0.774444 -1.59934e-19)
(0.956573 -0.853476 -7.72496e-19)
(1.07174 -0.922062 -4.03619e-19)
(1.18269 -0.977316 4.53548e-19)
(0.0795442 -0.084665 -7.98153e-20)
(0.235844 -0.234415 -5.44372e-19)
(0.392391 -0.370523 -8.32206e-21)
(0.547542 -0.492794 6.88697e-20)
(0.699596 -0.602464 3.37729e-19)
(0.847395 -0.700436 -1.85371e-19)
(0.990018 -0.787448 -1.69416e-19)
(1.12654 -0.863838 1.88935e-19)
(1.25682 -0.928667 -3.51568e-19)
(1.38008 -0.98038 -5.84474e-19)
(0.402851 -0.5323 9.81543e-19)
(0.684759 -0.618942 -2.38525e-19)
(0.913679 -0.558467 -1.4159e-19)
(1.08775 -0.432291 2.66872e-19)
(1.24054 -0.28143 -2.29411e-19)
(1.36332 -0.141108 -2.98291e-19)
(1.46268 -0.0376069 -2.65937e-19)
(1.52417 0.0159429 -3.18346e-20)
(1.54831 0.0331548 -5.97854e-20)
(1.57098 0.0254676 3.08289e-20)
(0.468786 -0.620151 9.63859e-19)
(0.741367 -0.694369 7.07886e-20)
(0.966156 -0.618534 1.09939e-20)
(1.1248 -0.481595 -2.14131e-19)
(1.26579 -0.321895 -7.09638e-19)
(1.38162 -0.174026 0)
(1.48247 -0.0631875 -2.48577e-19)
(1.56187 0.000607724 5.18826e-20)
(1.60344 0.0254211 4.60705e-21)
(1.64234 0.0205496 3.56365e-20)
(0.556133 -0.705782 -9.98358e-19)
(0.810656 -0.767323 -7.13002e-20)
(1.02537 -0.676439 1.56397e-19)
(1.16606 -0.528706 -5.41217e-20)
(1.29121 -0.361129 -3.6596e-20)
(1.39756 -0.206831 6.39148e-20)
(1.49422 -0.0907439 0)
(1.583 -0.0199913 0)
(1.64274 0.0117029 7.27779e-22)
(1.7059 0.0124914 0)
(0.665642 -0.787496 -2.25197e-19)
(0.895486 -0.83586 4.05731e-19)
(1.09178 -0.731118 2.68496e-20)
(1.21227 -0.572631 0)
(1.31774 -0.398229 6.05552e-19)
(1.4122 -0.23846 -1.39238e-19)
(1.50139 -0.118843 0)
(1.59293 -0.0427589 1.40162e-19)
(1.65824 -0.00876022 0)
(1.75794 0.000506126 -5.49455e-20)
(0.795709 -0.864147 -1.48775e-19)
(0.997535 -0.897996 4.56583e-19)
(1.16602 -0.781421 -1.46556e-20)
(1.26361 -0.612543 0)
(1.34612 -0.432364 1.80596e-19)
(1.42609 -0.268115 2.63753e-19)
(1.50579 -0.1463 4.66639e-20)
(1.59682 -0.0657958 6.38116e-21)
(1.65718 -0.031264 -1.57572e-20)
(1.78971 -0.0195777 3.79122e-20)
(0.942241 -0.934982 -1.3343e-18)
(1.11641 -0.952384 -9.44787e-19)
(1.2487 -0.826085 4.75223e-21)
(1.31983 -0.647728 5.77033e-19)
(1.37671 -0.462757 -3.08806e-19)
(1.4394 -0.295188 1.45886e-19)
(1.50852 -0.17218 2.26473e-19)
(1.59401 -0.0886264 -1.88252e-19)
(1.65616 -0.0525691 -1.90754e-21)
(1.76435 -0.0413754 -2.87702e-20)
(1.10011 -0.999627 -2.61314e-19)
(1.24996 -0.99884 2.87389e-19)
(1.34005 -0.863999 3.89486e-21)
(1.38061 -0.677506 -1.76594e-20)
(1.40959 -0.488672 -5.95859e-19)
(1.45213 -0.319107 5.34646e-20)
(1.50981 -0.195975 -9.49015e-20)
(1.58683 -0.109307 -2.56508e-20)
(1.65047 -0.0734965 1.50882e-20)
(1.71077 -0.052761 -2.43616e-20)
(1.26435 -1.05698 -1.20018e-18)
(1.39472 -1.03797 2.10483e-19)
(1.43905 -0.894575 0)
(1.44498 -0.701451 3.44664e-20)
(1.44404 -0.509633 5.24044e-19)
(1.4639 -0.339472 -1.95615e-21)
(1.50859 -0.217345 -3.23423e-19)
(1.57962 -0.127493 8.26719e-20)
(1.61452 -0.0874001 -2.42015e-21)
(1.64502 -0.0587484 -7.37498e-20)
(1.43203 -1.10361 3.39084e-18)
(1.54804 -1.07069 2.45521e-19)
(1.54551 -0.918522 4.65519e-19)
(1.51319 -0.719978 -3.1791e-20)
(1.48019 -0.525795 -3.44764e-20)
(1.47418 -0.356542 -4.28042e-19)
(1.50517 -0.235096 9.99503e-20)
(1.55326 -0.143569 3.14133e-21)
(1.55622 -0.0917346 -2.42534e-20)
(1.57135 -0.0615315 8.70916e-20)
(1.59927 -1.12827 -2.99791e-18)
(1.70187 -1.09585 1.27175e-18)
(1.65388 -0.938488 -2.33777e-19)
(1.58136 -0.736579 -7.89943e-19)
(1.515 -0.540689 -6.53588e-19)
(1.48055 -0.374018 -2.48447e-19)
(1.49467 -0.25339 -7.44081e-20)
(1.49538 -0.149844 0)
(1.48934 -0.0929871 -8.58659e-20)
(1.49256 -0.062696 1.7759e-19)
(1.88822 -1.17031 -6.70962e-18)
(1.92742 -1.10538 -1.69117e-18)
(1.80479 -0.932659 -5.77042e-20)
(1.67306 -0.728289 1.11567e-19)
(1.56144 -0.535735 1.57108e-19)
(1.48832 -0.374552 -9.76652e-20)
(1.43633 -0.250227 -3.9823e-20)
(1.41073 -0.148002 7.85224e-20)
(1.39622 -0.091783 -6.87418e-20)
(1.38756 -0.0624807 -8.12415e-20)
(2.28937 -1.13495 4.9601e-19)
(2.17885 -1.05689 -2.93783e-19)
(1.94258 -0.865637 4.84831e-19)
(1.73532 -0.665218 -8.25414e-20)
(1.56066 -0.481973 -1.6612e-20)
(1.42432 -0.334791 -7.73623e-20)
(1.33628 -0.224614 9.04591e-20)
(1.29387 -0.136012 -3.31837e-20)
(1.27195 -0.0857046 2.27503e-19)
(1.25297 -0.0592282 1.05394e-19)
(2.61059 -1.04367 2.27078e-18)
(2.35186 -0.948882 3.25677e-19)
(2.00795 -0.75967 -1.17483e-19)
(1.73191 -0.573216 1.69502e-36)
(1.50392 -0.411582 -2.56887e-20)
(1.33709 -0.287676 1.49025e-33)
(1.22998 -0.194615 -2.19833e-20)
(1.17102 -0.120895 -1.79394e-33)
(1.14149 -0.0771473 7.2536e-21)
(1.11387 -0.0538124 -9.7753e-21)
(2.78699 -0.894015 3.88518e-33)
(2.36929 -0.795705 2.96657e-18)
(1.97329 -0.630624 1.81613e-18)
(1.65297 -0.469584 0)
(1.4056 -0.335407 8.27803e-19)
(1.22824 -0.234229 4.22224e-19)
(1.11122 -0.159444 1.70724e-19)
(1.04172 -0.101737 -3.15877e-33)
(1.00568 -0.0660427 -5.16627e-20)
(0.971346 -0.0465993 4.39835e-21)
(2.7636 -0.705923 3.84238e-18)
(2.2458 -0.629929 -1.46794e-19)
(1.84635 -0.491098 0)
(1.51525 -0.361782 0)
(1.27076 -0.25594 0)
(1.09633 -0.178758 0)
(0.979196 -0.122827 -1.29678e-20)
(0.905714 -0.0803337 -4.4189e-33)
(0.865459 -0.0530575 8.23659e-21)
(0.82657 -0.0380843 2.343e-34)
(2.55114 -0.517051 3.26539e-18)
(2.02 -0.462934 0)
(1.63846 -0.353676 0)
(1.32661 -0.256762 0)
(1.10067 -0.179797 0)
(0.941119 -0.125701 0)
(0.832569 -0.0872126 3.32247e-20)
(0.761683 -0.0583787 -9.6403e-20)
(0.720669 -0.0391065 9.11319e-21)
(0.680101 -0.0288342 2.12872e-20)
(2.1901 -0.342717 0)
(1.7026 -0.30352 1.09793e-18)
(1.36123 -0.227621 1.09011e-18)
(1.09123 -0.16199 0)
(0.898258 -0.112366 6.65922e-19)
(0.763672 -0.0787769 4.01717e-19)
(0.671122 -0.0552554 2.48989e-19)
(0.608674 -0.0378424 8.64807e-20)
(0.570812 -0.0254941 -4.59598e-20)
(0.532128 -0.0196018 -1.07415e-22)
(1.70285 -0.191139 -6.73878e-19)
(1.30017 -0.165597 -2.7418e-19)
(1.02502 -0.121763 1.75656e-19)
(0.815039 -0.0844331 -2.11233e-34)
(0.667641 -0.0580839 -7.71567e-20)
(0.566005 -0.04107 3.69788e-33)
(0.495358 -0.0292362 4.87787e-20)
(0.446285 -0.0205658 9.90237e-20)
(0.415387 -0.0137227 1.03375e-20)
(0.382612 -0.0112708 -3.41856e-22)
(1.10088 -0.0758225 3.40807e-18)
(0.823153 -0.0626798 -1.86603e-19)
(0.640565 -0.0442962 -5.89047e-19)
(0.506125 -0.0289852 0)
(0.413798 -0.0195648 -6.40209e-19)
(0.350585 -0.0141364 -4.32156e-19)
(0.306037 -0.0104026 -2.04567e-19)
(0.274274 -0.0077433 -1.46255e-19)
(0.253687 -0.00509015 1.93292e-19)
(0.231136 -0.00467301 -3.90623e-20)
(0.397351 -0.00331885 0)
(0.287865 0.00159452 0)
(0.220887 0.0040944 0)
(0.173545 0.00624849 0)
(0.142371 0.00585969 0)
(0.121177 0.00472134 0)
(0.105826 0.00370835 5.58732e-20)
(0.0944445 0.00264419 -2.17274e-34)
(0.0867948 0.00245103 1.27803e-20)
(0.0780912 0.00113093 1.14097e-20)
(3.3671 -0.0863126 5.39218e-19)
(3.32642 -0.265088 -8.4188e-20)
(3.24735 -0.430659 8.52084e-19)
(3.13238 -0.582162 -6.04746e-19)
(2.98634 -0.718131 6.664e-19)
(2.81524 -0.836391 2.7525e-19)
(2.62661 -0.934071 -1.92742e-18)
(2.42952 -1.00786 -7.74985e-20)
(2.22469 -1.0537 0)
(1.98487 -1.06659 4.2598e-19)
(3.86191 -0.0750611 7.07367e-18)
(3.79859 -0.234217 1.95629e-18)
(3.70428 -0.387316 -4.86734e-18)
(3.58426 -0.531999 -4.49148e-19)
(3.44239 -0.665904 3.55898e-18)
(3.28186 -0.787334 1.92357e-18)
(3.10651 -0.895086 -5.1689e-18)
(2.92205 -0.987728 -1.95227e-18)
(2.72761 -1.06342 2.20324e-18)
(2.49239 -1.12056 8.52208e-19)
(3.83307 -0.0533026 -1.2626e-19)
(3.82024 -0.171569 4.40352e-18)
(3.78545 -0.299766 -1.08813e-18)
(3.72433 -0.430925 -3.44615e-18)
(3.63617 -0.558738 -6.79978e-18)
(3.52371 -0.678812 1.02787e-17)
(3.39117 -0.788807 4.18059e-18)
(3.2435 -0.888004 -3.91188e-18)
(3.08161 -0.978744 -2.90282e-18)
(2.88723 -1.06304 -3.42515e-18)
(3.62866 -0.0472876 -4.83934e-18)
(3.61961 -0.144934 -4.35337e-18)
(3.59963 -0.243744 5.47204e-18)
(3.56735 -0.343099 1.91183e-18)
(3.5224 -0.442385 -8.97101e-18)
(3.46415 -0.540817 4.92125e-19)
(3.39181 -0.637057 3.88626e-18)
(3.3051 -0.730445 -1.05388e-18)
(3.20497 -0.823082 1.27675e-18)
(3.08303 -0.914794 2.81782e-19)
(3.34405 -0.0365798 -9.1598e-19)
(3.339 -0.111657 3.00406e-18)
(3.3271 -0.188678 1.61956e-18)
(3.30744 -0.267173 -1.89424e-18)
(3.27986 -0.346072 -2.00133e-18)
(3.24465 -0.424141 -2.43389e-18)
(3.20203 -0.50034 3.79641e-19)
(3.15174 -0.574502 1.39047e-19)
(3.09547 -0.64777 -2.1396e-18)
(3.03284 -0.721319 -2.03425e-18)
(2.96257 -0.0265557 -1.82247e-18)
(2.95981 -0.07989 -5.87277e-20)
(2.9533 -0.1346 -1.6375e-18)
(2.9424 -0.190904 3.12134e-19)
(2.92675 -0.248551 5.36776e-18)
(2.90629 -0.306931 -3.66743e-19)
(2.88091 -0.365117 4.43372e-20)
(2.85022 -0.422062 -2.60854e-18)
(2.81643 -0.476887 -3.49556e-18)
(2.78599 -0.52987 3.72872e-19)
(2.48713 -0.0175117 -2.89323e-20)
(2.48578 -0.0519355 -8.143e-19)
(2.48259 -0.0872488 -2.6148e-18)
(2.47707 -0.123772 -3.43097e-18)
(2.4688 -0.161534 2.49651e-18)
(2.45744 -0.200268 1.50223e-18)
(2.44261 -0.239354 -1.38506e-18)
(2.4237 -0.277792 1.62448e-18)
(2.40274 -0.314485 -4.29699e-19)
(2.38952 -0.349543 -9.63759e-19)
(1.91464 -0.00968893 7.72442e-19)
(1.91408 -0.028298 -8.31781e-19)
(1.91278 -0.04744 -3.2768e-20)
(1.91032 -0.0673593 -3.47241e-20)
(1.90624 -0.0881303 -7.27403e-20)
(1.90013 -0.109615 -2.33191e-18)
(1.89151 -0.131405 -6.7867e-19)
(1.87978 -0.152783 2.6261e-18)
(1.86664 -0.172976 -6.03509e-19)
(1.86191 -0.192208 -1.35115e-18)
(1.23989 -0.00373787 -1.64278e-18)
(1.23967 -0.0106958 -8.48893e-19)
(1.23923 -0.0179013 2.33915e-18)
(1.23823 -0.0254786 -8.89758e-19)
(1.23625 -0.0334753 -6.74111e-19)
(1.2329 -0.0418316 1.35201e-18)
(1.22775 -0.05035 -1.29588e-18)
(1.22038 -0.0586655 1.28698e-18)
(1.21202 -0.0663427 -1.21032e-18)
(1.21007 -0.0735086 -4.2483e-18)
(0.454917 -0.000257999 6.63065e-19)
(0.454827 -0.000700546 7.03038e-19)
(0.454692 -0.00115912 7.48165e-19)
(0.454325 -0.00164005 1.35394e-18)
(0.453496 -0.00214017 -6.71973e-19)
(0.451984 -0.00263717 -1.2996e-18)
(0.449568 -0.00309908 6.14708e-19)
(0.445993 -0.0035929 2.48375e-20)
(0.441737 -0.0043922 -4.96535e-20)
(0.44035 -0.00504562 1.1057e-19)
(1.65358 0.997309 -2.8585e-19)
(1.51228 0.941886 1.79914e-20)
(1.3588 0.880766 -2.2881e-19)
(1.19768 0.808452 1.76294e-19)
(1.02958 0.723987 -1.91806e-19)
(0.854826 0.627081 -1.01075e-19)
(0.673759 0.516944 2.31967e-19)
(0.487035 0.392147 -3.04866e-19)
(0.29589 0.250642 3.09879e-19)
(0.101429 0.091643 2.38686e-19)
(1.8864 0.992215 0)
(1.72969 0.934757 6.39449e-19)
(1.56084 0.872781 3.32703e-19)
(1.38229 0.801861 1.62624e-19)
(1.19453 0.719883 4.31078e-19)
(0.997534 0.625901 -8.68375e-20)
(0.79136 0.518602 -7.8525e-20)
(0.576345 0.395989 8.87322e-20)
(0.353316 0.255174 -1.04513e-18)
(0.122697 0.0943544 -1.66639e-20)
(2.09105 0.959053 1.568e-19)
(1.92524 0.905079 0)
(1.74614 0.846469 -1.00729e-19)
(1.55494 0.779554 -3.8329e-19)
(1.3517 0.702085 5.37019e-20)
(1.13609 0.61279 3.97057e-19)
(0.907782 0.510088 -6.06832e-19)
(0.666588 0.391637 -2.00885e-19)
(0.412594 0.254043 7.83573e-19)
(0.14525 0.0947344 -1.75919e-19)
(2.28485 0.898364 1.87917e-19)
(2.11045 0.850567 1.19658e-20)
(1.9213 0.797865 2.45301e-20)
(1.71811 0.737003 3.60777e-20)
(1.50058 0.665857 -2.93005e-20)
(1.26792 0.583132 2.73229e-19)
(1.01926 0.487167 -2.06868e-19)
(0.753673 0.375529 -8.55532e-19)
(0.470269 0.244677 0)
(0.167387 0.0916959 0)
(2.46796 0.811824 -1.07087e-18)
(2.28436 0.77084 -6.0928e-19)
(2.08493 0.725063 -1.20691e-19)
(1.87003 0.671523 -6.65688e-20)
(1.6389 0.608295 0)
(1.39031 0.534136 2.40739e-19)
(1.12275 0.447433 2.67763e-19)
(0.834553 0.345834 2.86226e-19)
(0.523838 0.225952 -4.23722e-19)
(0.187907 0.0848976 -8.12305e-20)
(2.634 0.702096 7.66471e-19)
(2.44156 0.668065 -1.39168e-19)
(2.23244 0.62968 -2.21599e-19)
(2.00664 0.584306 0)
(1.76301 0.530279 0)
(1.49987 0.466487 0)
(1.21522 0.391463 -3.89784e-20)
(0.906682 0.303089 3.70271e-19)
(0.571497 0.198347 3.79147e-19)
(0.206082 0.0746239 -3.08558e-19)
(2.7758 0.572357 -1.1936e-18)
(2.5755 0.545261 -1.48142e-18)
(2.35786 0.51453 -3.03377e-22)
(2.1226 0.477946 -1.87648e-19)
(1.86818 0.434181 -9.28773e-20)
(1.59257 0.382317 -1.78829e-19)
(1.29332 0.321124 4.59077e-19)
(0.967487 0.248836 2.14862e-19)
(0.611582 0.162966 5.40011e-19)
(0.221314 0.06134 2.02847e-19)
(2.88707 0.425749 -1.15709e-18)
(2.68027 0.405633 8.47037e-20)
(2.45576 0.38282 1.64527e-19)
(2.21296 0.355611 1.68138e-20)
(1.95004 0.32305 -3.14393e-19)
(1.66465 0.284468 -1.742e-19)
(1.35397 0.238937 -6.21195e-19)
(1.01463 0.18514 1.18529e-19)
(0.642603 0.121236 5.1473e-20)
(0.233065 0.0456125 -6.26925e-21)
(2.96279 0.265187 1.01368e-19)
(2.7512 0.252354 3.96999e-19)
(2.52189 0.237904 -3.3029e-19)
(2.27394 0.22074 3.63004e-19)
(2.00523 0.200296 3.72541e-19)
(1.71322 0.176176 4.91887e-19)
(1.39481 0.147809 -6.35728e-19)
(1.04633 0.114389 -3.24409e-19)
(0.66341 0.0748095 -4.58505e-20)
(0.240915 0.028095 -3.26988e-19)
(3.00052 0.093577 5.81811e-19)
(2.78612 0.0887854 -1.86162e-19)
(2.55425 0.0834437 4.79557e-19)
(2.30366 0.0771499 -3.10657e-19)
(2.03208 0.0697276 2.66476e-19)
(1.73679 0.0610616 6.05398e-19)
(1.41457 0.0509782 3.78878e-19)
(1.06161 0.0392345 3.09336e-19)
(0.673395 0.0255065 2.65857e-19)
(0.244653 0.0095072 5.43605e-19)
(0.239688 0.452356 -4.69361e-19)
(0.204074 0.418624 -1.88036e-19)
(0.168491 0.381522 1.39274e-19)
(0.134944 0.343833 -4.19101e-19)
(0.105197 0.307689 -1.19334e-19)
(0.0782982 0.270434 6.92939e-19)
(0.0519239 0.224029 3.35757e-19)
(0.0259973 0.159148 -1.54918e-19)
(0.00706901 0.0797695 1.15024e-19)
(-0.00112032 0.0224671 -6.07881e-20)
(0.288685 0.544662 4.11597e-19)
(0.248779 0.507858 4.58669e-19)
(0.208228 0.465796 -1.15069e-20)
(0.167891 0.418744 -1.3295e-19)
(0.131157 0.370589 -3.14043e-19)
(0.10062 0.322964 8.28692e-20)
(0.0734945 0.269622 2.25517e-19)
(0.0459179 0.19714 1.65697e-19)
(0.0183616 0.102011 -5.91552e-19)
(0.00279828 0.0289118 -1.23706e-19)
(0.359648 0.633475 -6.0113e-19)
(0.313787 0.593314 -4.81652e-19)
(0.267995 0.547462 2.57958e-19)
(0.221358 0.494134 1.38554e-19)
(0.175812 0.434342 -6.26488e-21)
(0.136271 0.372095 -1.40346e-19)
(0.10212 0.305789 -2.97352e-20)
(0.0684442 0.225034 -5.548e-19)
(0.0336874 0.126124 -2.69307e-19)
(0.00764793 0.0378369 -3.90493e-20)
(0.454185 0.718197 5.0351e-19)
(0.400032 0.673984 1.6475e-19)
(0.346345 0.622953 -1.4954e-19)
(0.292216 0.563886 6.3218e-20)
(0.237742 0.495761 -6.34466e-22)
(0.186583 0.421048 1.26871e-21)
(0.140103 0.340793 -1.32601e-19)
(0.0954628 0.250349 3.77965e-19)
(0.0514452 0.147803 -4.19086e-19)
(0.0135892 0.0477388 -6.49953e-20)
(0.571978 0.798132 -2.82192e-19)
(0.507836 0.750018 -8.88767e-20)
(0.443559 0.693147 -1.43719e-20)
(0.378955 0.627402 -7.05873e-20)
(0.313712 0.552116 5.87075e-20)
(0.24966 0.468187 5.30005e-20)
(0.18838 0.376805 -2.80217e-20)
(0.129328 0.276715 -2.81898e-19)
(0.0725335 0.167681 2.18246e-19)
(0.0209248 0.0568566 8.723e-20)
(0.709403 0.871171 6.43199e-19)
(0.634357 0.819767 3.20555e-19)
(0.558123 0.757578 2.02619e-19)
(0.480851 0.685489 4.82336e-20)
(0.402411 0.603628 1.5542e-19)
(0.323871 0.512438 7.87794e-20)
(0.246469 0.412572 1.43661e-19)
(0.170868 0.303947 5.79536e-20)
(0.0980578 0.186821 -1.58004e-20)
(0.0300013 0.0650387 -1.32472e-20)
(0.862023 0.935043 -1.19789e-19)
(0.775545 0.880825 -8.24157e-19)
(0.686706 0.814177 -7.54471e-20)
(0.595728 0.736912 -5.30884e-20)
(0.502565 0.64969 -1.99865e-20)
(0.408128 0.552757 1.51727e-19)
(0.313481 0.446341 -4.38025e-20)
(0.219713 0.330431 6.49323e-20)
(0.128296 0.20509 -1.44626e-19)
(0.0409062 0.0724973 -1.27751e-21)
(1.02674 0.986165 -8.84458e-19)
(0.92848 0.929748 5.94335e-20)
(0.826667 0.859793 -2.34303e-19)
(0.721471 0.77895 -7.22484e-20)
(0.612775 0.688052 -2.37056e-20)
(0.501462 0.587097 -7.52063e-20)
(0.38853 0.475911 5.624e-20)
(0.275165 0.354205 6.02882e-20)
(0.162983 0.221562 -9.82071e-21)
(0.0535448 0.0791217 -1.03756e-19)
(1.20391 1.01803 1.23814e-19)
(1.09352 0.961023 5.22859e-19)
(0.978266 0.889781 1.5499e-21)
(0.858233 0.807598 -2.94076e-20)
(0.733152 0.71533 1.50717e-19)
(0.603896 0.612568 -3.47112e-19)
(0.471406 0.498761 -2.44311e-19)
(0.336832 0.373214 3.56075e-19)
(0.201772 0.235009 1.44162e-19)
(0.0677022 0.0845326 -3.6195e-20)
(1.40061 1.01554 7.39509e-19)
(1.27807 0.962402 3.23593e-19)
(1.14784 0.895408 5.5964e-20)
(1.01088 0.816434 -1.9474e-19)
(0.867277 0.726543 -1.64158e-20)
(0.717905 0.62535 4.65477e-19)
(0.563586 0.512011 -2.68169e-19)
(0.405341 0.385478 -1.84462e-19)
(0.244705 0.24432 3.35771e-19)
(0.0831135 0.0884404 -6.03004e-21)
(0.977859 0.0991465 8.55549e-21)
(1.14003 0.142981 -2.49862e-21)
(1.2134 0.191445 -2.47172e-20)
(1.32596 0.169243 0)
(1.38018 0.154731 -9.25799e-22)
(1.28086 0.233641 -6.03695e-20)
(1.13076 0.385451 -5.48579e-20)
(0.950163 0.543676 -9.07342e-21)
(0.712091 0.6487 -3.09217e-19)
(0.416744 0.595902 4.18702e-19)
(0.98379 0.0805593 2.0164e-19)
(1.13142 0.115316 -3.29114e-20)
(1.21055 0.161012 1.88043e-21)
(1.31668 0.149388 1.02737e-20)
(1.38497 0.157003 3.11869e-21)
(1.30086 0.268463 -5.49261e-22)
(1.16064 0.435819 7.26826e-21)
(0.994607 0.606904 0)
(0.761828 0.727845 8.09846e-19)
(0.479494 0.687145 -5.7189e-19)
(0.989606 0.0622701 -1.15329e-19)
(1.12768 0.0886435 6.28422e-21)
(1.21082 0.131399 7.87922e-20)
(1.31354 0.128167 1.93196e-20)
(1.38894 0.158185 -2.33371e-20)
(1.32072 0.301375 -3.46102e-20)
(1.19352 0.484745 -1.77011e-20)
(1.04449 0.66856 4.49438e-20)
(0.823247 0.804401 -1.29654e-21)
(0.564476 0.774954 -3.57652e-19)
(0.995015 0.0436309 -8.14248e-20)
(1.12851 0.0625863 1.53225e-20)
(1.2145 0.102423 7.53972e-20)
(1.3169 0.106847 3.19511e-20)
(1.39489 0.159056 -2.40695e-20)
(1.34066 0.332305 -2.8534e-20)
(1.22982 0.531486 8.59097e-20)
(1.1004 0.727484 2.70354e-20)
(0.899897 0.876093 -5.52482e-19)
(0.673655 0.857361 -1.77389e-19)
(0.999449 0.0241295 3.59809e-20)
(1.13304 0.0367091 -4.45648e-20)
(1.22103 0.073957 -6.72277e-20)
(1.32535 0.0862515 2.33231e-20)
(1.402 0.160526 0)
(1.36045 0.361578 0)
(1.26966 0.575341 8.43346e-20)
(1.16352 0.78227 -2.83467e-20)
(0.994583 0.940426 -1.18675e-19)
(0.805062 0.932719 -5.73489e-20)
(1.00209 0.00356515 3.17516e-21)
(1.14012 0.0105832 5.812e-20)
(1.2294 0.0459001 -2.06382e-19)
(1.3369 0.0669177 -7.80269e-20)
(1.40915 0.163427 -4.7047e-21)
(1.38003 0.38929 1.33977e-19)
(1.31331 0.615421 1.59442e-19)
(1.23542 0.831188 -1.8067e-20)
(1.10771 0.995601 -4.48173e-20)
(0.953734 1.00039 3.35892e-21)
(1.00204 -0.0180111 3.08063e-21)
(1.14875 -0.0161742 3.10022e-20)
(1.23868 0.0182752 -6.54249e-20)
(1.34992 0.0493034 -1.59052e-19)
(1.4155 0.168015 1.16152e-20)
(1.39973 0.415073 7.23625e-21)
(1.3614 0.650586 -6.01071e-20)
(1.31721 0.872585 -1.05311e-19)
(1.23721 1.04135 -3.1523e-20)
(1.11387 1.06054 -9.79262e-19)
(0.998862 -0.0401998 1.51846e-20)
(1.15842 -0.0438738 -1.48297e-19)
(1.24831 -0.00872884 1.33006e-19)
(1.36316 0.0341199 1.04549e-19)
(1.41994 0.174742 4.98292e-21)
(1.41956 0.438426 -1.39578e-19)
(1.41381 0.679794 1.52663e-21)
(1.40821 0.90554 -1.38594e-19)
(1.37927 1.07854 1.10964e-20)
(1.27989 1.1126 2.88296e-18)
(0.992934 -0.0624755 -8.98521e-20)
(1.16911 -0.072648 8.26801e-20)
(1.25808 -0.0349121 1.92387e-19)
(1.37597 0.0214609 -1.16598e-19)
(1.42309 0.183374 -2.34601e-19)
(1.44112 0.459022 9.26357e-21)
(1.47183 0.702914 1.721e-19)
(1.50837 0.930772 -5.82225e-19)
(1.53082 1.10848 -2.68582e-20)
(1.44839 1.15355 -6.4754e-18)
(0.985241 -0.0853809 4.08285e-21)
(1.18114 -0.102493 1.45449e-19)
(1.26799 -0.0600831 6.24606e-20)
(1.38731 0.0139623 -2.82887e-19)
(1.42284 0.197991 -2.51835e-19)
(1.46198 0.480422 -7.66006e-20)
(1.53105 0.723748 8.60542e-20)
(1.6115 0.951634 -1.99044e-19)
(1.68373 1.13079 -1.08542e-18)
(1.61567 1.17248 -7.95101e-18)
(0.974878 -0.116522 -1.44931e-20)
(1.19591 -0.142139 -3.38176e-20)
(1.27739 -0.0939109 -7.8656e-20)
(1.398 0.00012863 1.50336e-19)
(1.42314 0.197476 2.07395e-19)
(1.49146 0.475778 -6.37026e-20)
(1.61181 0.713048 -1.41889e-19)
(1.75371 0.94074 -1.19787e-18)
(1.9028 1.13276 -1.59849e-18)
(1.89939 1.20881 3.28563e-18)
(0.962307 -0.155343 -4.03649e-19)
(1.21492 -0.191693 2.01937e-20)
(1.28177 -0.139882 -5.9506e-20)
(1.39831 -0.0211129 3.50238e-19)
(1.39944 0.175439 3.49134e-19)
(1.49242 0.430322 1.35258e-20)
(1.66776 0.648511 -6.33862e-20)
(1.88053 0.866256 -2.7567e-19)
(2.13954 1.07158 2.82827e-19)
(2.28457 1.16094 -3.23618e-19)
(0.949533 -0.195995 -2.79273e-20)
(1.24036 -0.241681 -5.50987e-20)
(1.28138 -0.184723 3.11028e-20)
(1.39352 -0.0387217 2.701e-20)
(1.37147 0.164729 1.71243e-33)
(1.46824 0.372533 2.55968e-21)
(1.67968 0.561778 -2.02469e-33)
(1.94868 0.759854 1.8495e-19)
(2.30179 0.956542 -9.30716e-19)
(2.58734 1.05855 -6.29237e-19)
(0.937069 -0.242867 1.41076e-18)
(1.27186 -0.281871 -7.76446e-34)
(1.24999 -0.229641 -4.09018e-20)
(1.26867 -0.0381435 -2.28663e-19)
(1.25976 0.145463 -4.43468e-19)
(1.38819 0.3033 -8.77417e-19)
(1.61838 0.46039 -5.05102e-33)
(1.9288 0.631295 -1.73683e-18)
(2.32557 0.802201 -3.17774e-18)
(2.75367 0.902651 1.67501e-18)
(0.927328 -0.300519 0)
(1.3169 -0.326984 -1.62557e-33)
(1.113 -0.207323 0)
(1.10615 -0.0304839 0)
(1.11756 0.115252 0)
(1.25793 0.233307 0)
(1.48912 0.35564 -8.04089e-33)
(1.81472 0.491699 0)
(2.2133 0.634354 -3.3967e-19)
(2.73491 0.712057 1.25737e-18)
(0.916515 -0.360812 1.1614e-19)
(1.25153 -0.326109 -4.67509e-19)
(0.960336 -0.174359 -5.52913e-20)
(0.933132 -0.0262955 0)
(0.955165 0.0827667 0)
(1.08968 0.165729 6.02628e-20)
(1.30601 0.254032 1.17472e-18)
(1.61579 0.354762 -1.95054e-19)
(1.99662 0.466237 -4.95305e-19)
(2.53241 0.5205 4.67324e-18)
(0.883483 -0.405307 -1.52012e-17)
(1.09208 -0.279939 1.08603e-18)
(0.792841 -0.130645 -7.28354e-20)
(0.746484 -0.0212608 -7.21099e-20)
(0.772182 0.0525481 -5.1344e-19)
(0.889259 0.104666 -7.7325e-19)
(1.0761 0.161356 -1.04749e-18)
(1.34595 0.229058 -1.38157e-18)
(1.68757 0.306133 -1.60472e-18)
(2.17991 0.344453 3.61202e-18)
(0.809013 -0.394511 -4.13724e-19)
(0.886456 -0.207577 -1.21661e-18)
(0.605659 -0.0829234 -1.25594e-19)
(0.54935 -0.0153648 -8.42744e-20)
(0.571405 0.0276021 -9.91989e-34)
(0.661392 0.0546064 9.35589e-20)
(0.805308 0.0846296 -1.4844e-32)
(1.01616 0.12296 -1.93434e-19)
(1.29245 0.167315 2.98976e-19)
(1.69929 0.192073 7.05794e-19)
(0.664259 -0.28884 3.4255e-17)
(0.618255 -0.108099 -3.13981e-18)
(0.39343 -0.0351379 -2.40566e-19)
(0.339209 -0.00737511 -1.59748e-19)
(0.353495 0.00924043 3.94372e-19)
(0.410336 0.0183743 7.84625e-19)
(0.501113 0.029208 7.9555e-19)
(0.636704 0.0448916 4.59912e-19)
(0.820747 0.0634585 -1.90481e-19)
(1.10156 0.0762259 3.56953e-18)
(0.33684 -0.0768224 5.58849e-19)
(0.261851 -0.00230513 -6.76613e-33)
(0.144395 0.0190759 -3.04777e-19)
(0.120355 0.00338426 0)
(0.12354 -0.00235602 0)
(0.141803 -0.00542179 9.62941e-20)
(0.172343 -0.0062491 9.37047e-35)
(0.220288 -0.00417844 -1.23567e-19)
(0.288129 -0.00161964 -2.8264e-19)
(0.399012 0.00331815 1.00162e-18)
(2.00207 1.09647 -1.78996e-18)
(2.23908 1.0785 -2.30496e-18)
(2.44209 1.02913 0)
(2.63708 0.952523 -7.57957e-19)
(2.82359 0.852523 -1.7825e-18)
(2.99276 0.7324 -2.24949e-18)
(3.13709 0.595048 -4.75733e-19)
(3.25054 0.442702 1.26927e-18)
(3.32824 0.276966 -3.5479e-18)
(3.36764 0.0986983 1.35668e-18)
(2.49869 1.14204 2.67784e-19)
(2.73058 1.08197 1.39745e-18)
(2.92389 1.00424 1.4393e-19)
(3.10675 0.90983 6.75743e-19)
(3.28061 0.800681 -1.10402e-18)
(3.43997 0.678339 -5.00061e-18)
(3.58097 0.544022 2.46813e-18)
(3.70048 0.399327 1.27037e-17)
(3.79428 0.246328 1.04073e-19)
(3.85869 0.0872582 -1.07365e-17)