/*--------------------------------*- C++ -*----------------------------------*\
  =========                 |
  \\      /  F ield         | OpenFOAM: The Open Source CFD Toolbox
   \\    /   O peration     | Website:  https://openfoam.org
    \\  /    A nd           | Version:  13
     \\/     M anipulation  |
\*---------------------------------------------------------------------------*/
FoamFile
{
    format      ascii;
    class       surfaceScalarField;
    location    "2.96";
    object      phi;
}
// * * * * * * * * * * * * * * * * * * * * * * * * * * * * * * * * * * * * * //

dimensions      [0 3 -1 0 0 0 0];

internalField   nonuniform List<scalar> 
823
(
-0.000222548
0.0165214
-0.0162989
0.0253928
0.0139273
-0.0395426
0.0959672
-0.0261083
-0.0444661
0.20637
-0.0872471
-0.0231558
-0.128411
-0.0186625
0.353444
0.00295637
0.0135651
0.0524473
-0.0355637
0.154355
-0.128016
0.27966
-0.212552
-0.287513
0.438761
0.0233469
-0.0097818
0.114617
-0.126833
0.234514
-0.247913
0.350253
-0.328291
-0.375356
0.438097
0.0466632
-0.056445
0.149882
-0.230052
0.239674
-0.337706
0.29534
-0.383957
-0.397358
0.317342
0.0619966
-0.118442
0.139095
-0.30715
0.184053
-0.382664
0.202812
-0.402716
0.214959
-0.409505
-0.0216962
0.0682197
-0.0465235
-0.059097
0.103896
-0.0664954
-0.100291
0.106137
-0.0649428
-0.141108
0.100331
-0.0595142
0.0911349
-0.179339
-0.0529039
-0.00165404
0.0698738
-0.0172152
0.119457
-0.0379912
0.126913
-0.05711
0.11945
0.105624
-0.0715988
0.0193879
0.0504858
0.0360027
0.102842
0.0463023
0.116613
0.0562573
0.109495
0.0940484
0.0678326
0.0247429
0.025743
0.0612932
0.0662922
0.0947422
0.0831641
0.124449
0.0797886
0.0700216
0.148476
0.00944407
0.0361936
0.0748916
0.131524
0.182883
-0.105253
0.0295516
-0.103638
0.124045
-0.686608
0.45731
0.270275
-0.593657
0.447427
0.358456
-0.406747
0.318567
-0.184366
0.151898
0.0517286
-0.0937758
0.209101
-0.843981
0.312271
-0.696827
0.37732
-0.471797
-0.209716
0.246444
-0.272387
0.341223
-0.938759
0.385291
-0.740895
0.409818
-0.496324
-0.221748
0.371658
-0.495569
0.437359
-1.00446
0.45689
-0.760426
0.449132
-0.488566
-0.21973
0.403025
-0.715711
0.471562
-1.073
0.492908
-0.781771
0.47787
-0.473529
-0.212765
1.25396
-0.761857
-1.20781
1.12775
-0.946789
0.95963
-0.61365
0.816073
-0.329972
-0.141561
1.31181
-0.618391
-1.45528
1.05669
-0.691669
0.849319
-0.406281
0.735621
-0.216273
-0.0972967
1.28984
-0.493006
-1.41523
1.09526
-0.497083
0.908891
-0.219914
0.769916
-0.0772985
-0.0344469
1.16471
-0.304827
-1.35289
0.917466
-0.249835
0.757363
-0.0598114
0.667151
0.0129137
0.0055607
0.634648
-0.939475
0.384814
0.325002
0.337916
1.13806
0.178828
-1.10193
1.22032
0.235074
1.31109
0.34733
1.33051
0.419339
0.476144
1.04592
0.118277
-0.985367
1.12552
0.155473
1.22759
0.245263
1.34579
0.301137
0.366657
0.989647
0.0638936
-0.935264
1.05109
0.0940325
1.1479
0.148452
1.27054
0.178495
0.22197
0.943037
0.0190284
-0.898171
1.00307
0.0339958
1.09722
0.0543033
1.21172
0.0639943
0.080799
0.706383
-0.687354
0.740379
0.794682
0.858676
0.139728
0.31334
-0.25894
-0.194127
0.0927703
0.319056
-0.272099
0.0513997
0.329538
-0.288167
0.0171462
0.321223
-0.28697
0.208338
-0.191192
0.100667
0.350965
-0.138292
0.0635746
0.356148
0.0304721
0.36264
0.00514462
0.346551
0.213483
0.060164
0.385153
-0.0943519
0.0290629
0.387249
0.00303577
0.388668
-0.00917631
0.358763
0.204306
-0.0234244
0.399744
0.00883249
-0.0383593
0.402184
-0.0441598
0.394468
-0.0323049
0.346908
0.172001
-0.10459
0.0948291
-0.105122
-0.0933174
-0.0535597
0.198013
0.110272
-0.24913
-0.0591556
0.145195
0.115317
-0.0624983
0.090586
0.121301
-0.0666922
0.0369996
0.122652
-0.0690654
0.0872962
-0.0502967
0.184178
0.153164
-0.22707
0.139201
0.160294
0.0892835
0.171218
0.0372351
0.1747
0.124531
0.149501
0.198741
-0.195077
0.10673
0.203064
0.0650877
0.212861
0.0249201
0.214868
0.149451
0.153174
0.233379
-0.187812
0.112862
0.243377
0.0687502
0.256972
0.0265452
0.257073
0.175997
0.105009
-0.130571
0.0762873
0.0450921
0.0151952
0.410626
0.0303358
-0.0449827
0.421427
0.0639268
-0.0747276
0.415046
0.194939
-0.188558
0.381762
0.278783
-0.245499
0.499716
-0.367083
0.408578
0.0177377
0.414789
0.0577157
0.405532
0.204197
0.371881
0.312434
0.644526
0.402692
0.0110253
0.409264
0.0511436
0.381367
0.232094
0.364393
0.329408
0.813842
0.397616
0.0093891
0.393698
0.0550611
0.364714
0.261078
0.33745
0.356672
0.963479
0.388791
0.0165781
0.380576
0.0632759
0.332635
0.309019
0.315544
0.373763
1.14845
0.620139
0.000459303
0.645889
0.0375262
0.668123
0.286786
0.742601
0.299285
0.860301
1.03075
0.626647
-0.0221675
0.645148
0.019025
0.707173
0.224761
0.782372
0.224087
0.608339
1.03433
0.626791
-0.0449379
0.649719
-0.00390298
0.735363
0.139116
0.824486
0.134964
0.390878
1.04195
0.617686
-0.0586031
0.64616
-0.032377
0.740383
0.0448931
0.821732
0.0536144
0.191244
1.02137
0.545417
0.51304
0.557933
0.611548
0.802791
1.0575
-0.220872
1.0489
-0.129691
1.05479
-0.100248
1.05387
0.009759
0.0467704
0.987145
-0.173685
0.971711
-0.114257
0.948757
-0.0772939
0.963827
-0.00531131
0.0252305
0.974465
-0.106203
0.942264
-0.0820552
0.915443
-0.0504726
0.924276
-0.0141452
0.0142432
0.958163
-0.0429983
0.913471
-0.0373635
0.887062
-0.0240641
0.885718
-0.0128012
0.0017902
0.759793
0.72243
0.698365
0.685564
0.0470115
0.137561
-0.184573
0.07209
0.305227
-0.330305
0.0734824
0.359819
-0.361211
0.0632257
0.364524
-0.354267
0.333903
0.0511258
-0.321803
0.0672827
0.0702787
0.139237
0.233273
0.17538
0.323676
0.181086
0.358818
0.356086
0.158902
0.0555243
0.0147544
0.166004
0.122793
0.261102
0.228578
0.33159
0.28833
0.342311
0.345365
0.0259082
-0.0111538
0.118359
0.0303418
0.23788
0.109058
0.355283
0.170927
0.230327
0.467268
0.00431788
-0.0154717
0.0473486
-0.012689
0.139329
0.0170769
0.253559
0.0566972
0.0883473
0.395538
-0.00334725
-0.0121245
0.00756035
-0.0235966
0.0462338
-0.0215965
0.111104
-0.00817344
0.0119832
0.187469
0.00393815
-0.0160626
0.012066
-0.0317244
0.0255798
-0.0351103
0.0486084
-0.031202
-0.0224616
0.0830532
-0.00940231
-0.0066603
-0.0251472
-0.0159795
-0.0405076
-0.0197499
-0.0514449
-0.0202647
-0.0187771
-0.0551294
-0.0256379
0.0189776
-0.0649436
0.0233262
-0.10415
0.0194568
-0.139739
0.0153235
0.0120629
-0.170578
-0.0275459
-0.0707151
-0.116201
-0.160392
-0.201233
0.37396
0.389059
-0.575551
0.428681
0.124453
-0.179174
0.394715
0.0406589
-0.00669286
0.386264
0.0355069
-0.0270558
0.00717813
-0.0240075
0.225391
0.246721
0.234317
0.115528
0.274572
0.000403226
0.341949
-0.03187
-0.0336781
-0.00389897
0.195491
0.103537
0.00809127
0.238937
-0.134996
0.334316
-0.127249
-0.0771171
-0.127997
0.152909
0.0881154
-0.208021
0.243646
-0.290527
0.340531
-0.224134
-0.116336
-0.151961
0.097328
0.254228
0.348661
0.237043
0.391761
-0.628804
0.121035
0.116008
0.176324
-0.0552892
0.240566
-0.0642418
-0.0248517
0.824886
-1.00868
0.76172
0.699738
0.608441
0.0832996
-0.0147123
-0.0685873
0.134003
-0.0507035
0.248012
-0.114009
0.418336
-0.170325
-0.210468
0.187108
-0.150694
0.295306
0.526663
0.823606
0.137483
-0.124238
0.15583
-0.169075
0.103441
-0.128713
0.162755
0.0659195
-0.135059
0.172581
0.026597
-0.13437
0.173693
-0.0933136
0.119911
0.171135
-0.0862069
-0.209166
0.129222
-0.0868006
0.0821581
-0.087995
0.0338242
-0.0860361
-0.0594894
0.180946
-0.0389951
-0.228158
0.132096
-0.0379505
0.081767
-0.0376662
0.0329984
-0.0372675
-0.026491
0.193847
0.0100412
-0.242883
0.143618
0.0122781
0.0913239
0.0146279
0.0381051
0.0159513
0.011614
0.194081
-0.243196
0.143861
0.0917968
0.0386827
0.0368946
-0.30241
-0.0562874
0.0141585
-0.331531
-0.00717592
-0.339877
-0.0154499
-0.322031
-0.200023
0.11821
-0.272738
-0.147881
0.0763995
-0.289721
0.0367162
-0.300194
0.00710187
-0.292417
-0.192921
0.136151
-0.234525
-0.174365
0.096402
-0.249972
0.0564353
-0.260227
0.0199227
-0.255904
-0.172998
0.155851
-0.200825
-0.189551
0.113964
-0.208086
0.069138
-0.2154
0.0270261
-0.213792
-0.145972
0.154312
-0.199307
0.108981
0.0661614
0.0260615
0.393726
0.0815612
-0.0793074
0.390268
0.128745
-0.125287
0.341469
0.141213
-0.0924134
0.289384
0.0530934
-0.00100844
-0.144278
0.264587
0.399424
0.0781165
0.409116
0.119053
0.383703
0.166626
0.328147
0.10865
-0.0252969
0.403042
0.0710545
0.419305
0.10279
0.404076
0.181855
0.352166
0.160559
0.0987119
0.407503
0.059531
0.422964
0.0873286
0.417841
0.186979
0.372895
0.205505
0.228724
0.410528
0.423129
0.421549
0.381555
0.423951
0.0860999
0.3246
0.0993506
0.263514
0.0610869
0.272171
-0.00865716
-0.14335
0.415521
0.516843
0.490907
0.45958
0.449915
0.571151
0.330742
0.0847791
0.254929
0.0758131
0.167875
0.0870538
0.0963601
0.0715148
0.0277728
0.456624
0.342886
0.255575
0.179209
)
;

boundaryField
{
    left
    {
        type            calculated;
        value           nonuniform List<scalar> 
17
(
-0.60402
-0.60402
-0.60402
-0.60402
-0.60402
-0.39598
-0.39598
-0.39598
-0.39598
-0.39598
-0.39598
-0.39598
-0.39598
-0.39598
-0.39598
-0.510051
-0.510051
)
;
    }
    right
    {
        type            calculated;
        value           nonuniform List<scalar> 
17
(
0.265418
0.559582
0.403093
0.382805
0.377755
0.37975
0.384223
0.390923
0.40267
0.421851
0.447113
0.470906
0.744869
0.691356
0.707066
0.627143
0.343477
)
;
    }
    down
    {
        type            calculated;
        value           uniform 0;
    }
    up
    {
        type            calculated;
        value           uniform 0;
    }
    cylinder
    {
        type            calculated;
        value           uniform 0;
    }
    defaultFaces
    {
        type            empty;
    }
}


// ************************************************************************* //
