/*--------------------------------*- C++ -*----------------------------------*\
  =========                 |
  \\      /  F ield         | OpenFOAM: The Open Source CFD Toolbox
   \\    /   O peration     | Website:  https://openfoam.org
    \\  /    A nd           | Version:  13
     \\/     M anipulation  |
\*---------------------------------------------------------------------------*/
FoamFile
{
    format      ascii;
    class       volVectorField;
    location    "65.6";
    object      U;
}
// * * * * * * * * * * * * * * * * * * * * * * * * * * * * * * * * * * * * * //

dimensions      [0 1 -1 0 0 0 0];

internalField   nonuniform List<vector> 
440
(
(-0.240439 0.215786 3.75845e-20)
(-0.257477 0.250309 -3.34601e-19)
(-0.0423996 0.108346 -1.16775e-19)
(0.362154 0.0673364 1.28792e-19)
(0.418715 0.0816328 -6.5519e-22)
(-0.0697265 0.0562249 1.05266e-20)
(0.0618931 0.088719 3.2496e-20)
(0.509675 0.0399768 6.75872e-20)
(1.02826 0.0140785 -6.2404e-20)
(1.50504 -0.00935109 -5.91639e-20)
(-0.0172768 0.00869823 3.78099e-20)
(0.439644 -0.02915 5.60137e-19)
(1.16631 -0.0179559 -2.87842e-19)
(1.7563 0.00384495 -8.9649e-19)
(2.28243 0.0219266 4.94416e-19)
(0.179277 -0.0412393 -1.59832e-19)
(1.09706 0.00411043 -4.8423e-19)
(1.86659 0.0807052 1.47993e-18)
(2.31585 0.131809 1.7039e-18)
(2.42918 0.15499 -4.47358e-19)
(0.512059 -0.0087631 -2.80221e-19)
(1.65205 0.17872 -5.8851e-19)
(2.21368 0.266816 1.80025e-18)
(2.36145 0.28631 1.9296e-18)
(2.42236 0.261934 6.56186e-19)
(0.041476 -0.302921 -5.67184e-20)
(0.160109 -0.662043 -1.27755e-19)
(0.225808 -0.772347 7.4004e-20)
(0.240214 -0.716418 2.78533e-20)
(0.198375 -0.596599 4.17394e-19)
(0.129324 -0.416799 1.12327e-19)
(0.301628 -0.782119 4.16648e-19)
(0.306196 -0.789992 -1.01402e-20)
(0.227616 -0.608664 -1.43074e-20)
(0.0964643 -0.382942 2.63883e-20)
(0.285799 -0.558211 3.9414e-19)
(0.446339 -0.86639 1.97437e-19)
(0.373309 -0.785304 7.34081e-20)
(0.253325 -0.573604 -3.47073e-19)
(0.126833 -0.350237 4.89299e-22)
(0.349002 -0.596389 2.87927e-19)
(0.24333 -0.819321 -4.36587e-19)
(0.00189907 -0.731995 4.93754e-19)
(-0.182562 -0.631571 4.80885e-19)
(-0.284485 -0.501395 1.16819e-19)
(-0.0974767 -0.0896206 2.68038e-19)
(-0.385339 -0.332634 4.36365e-19)
(-0.529015 -0.492523 6.09264e-19)
(-0.568452 -0.50857 -1.00638e-19)
(-0.587076 -0.449423 6.23039e-19)
(0.160954 -0.224041 1.21282e-19)
(0.635539 1.32033 -5.0904e-19)
(0.650912 0.493006 -2.62915e-19)
(1.25106 -1.05794 1.02935e-18)
(1.19699 -0.668988 -1.1428e-19)
(-0.22464 -0.0442609 -2.26025e-18)
(-0.726349 1.22131 2.33645e-19)
(1.08851 0.232407 1.03841e-19)
(1.48062 -1.08199 -1.34461e-18)
(1.29979 -0.674468 2.05587e-19)
(0.229386 -0.0929339 -1.69499e-18)
(-0.909086 0.933001 -2.35638e-18)
(1.42448 -0.101376 -7.11254e-20)
(1.6692 -1.07134 -1.23135e-18)
(1.36995 -0.654705 2.62583e-20)
(-0.193769 0.050712 4.73189e-19)
(-0.675606 0.830598 3.00172e-19)
(1.79418 -0.356958 -3.77569e-19)
(1.91465 -1.02991 6.08833e-19)
(1.44683 -0.620622 1.53193e-19)
(-0.237621 -0.300417 -3.63032e-19)
(-0.294234 0.558175 2.24712e-18)
(2.09495 -0.563734 0)
(2.09511 -0.96781 -4.33817e-19)
(1.50221 -0.554602 2.60774e-20)
(1.54087 -0.227889 -2.84634e-19)
(1.07371 0.143964 -3.92126e-19)
(2.40003 -0.762873 -2.05434e-21)
(2.1631 -0.902007 -7.15489e-20)
(1.51855 -0.478247 -4.94476e-20)
(1.983 -0.0489751 2.96927e-20)
(2.05466 0.246255 4.70248e-19)
(2.64696 -0.727693 2.22058e-21)
(2.00861 -0.721921 3.18249e-19)
(1.27383 -0.308057 0)
(1.85977 -0.0589307 4.59103e-21)
(2.46058 -0.0923177 -8.79108e-21)
(2.4626 -0.649672 7.3615e-19)
(1.69922 -0.460156 -9.21733e-20)
(1.12908 -0.189928 -2.34243e-20)
(1.93895 -0.0310486 -5.95836e-21)
(2.36904 -0.0772409 1.23414e-19)
(1.99302 -0.43597 2.14016e-20)
(1.18021 -0.27843 -2.49038e-34)
(0.689224 -0.0746994 4.88818e-20)
(1.43587 -0.0272888 6.67197e-20)
(1.40869 -0.156878 5.11562e-20)
(0.625325 -0.0524662 -1.59496e-19)
(0.101563 0.00487756 1.25201e-20)
(-0.112355 -0.00955227 1.14562e-20)
(2.34561 0.258878 -8.03849e-19)
(2.49747 0.0965596 -1.05874e-18)
(2.42004 0.0730314 8.05723e-19)
(2.54661 -0.0387156 3.34293e-20)
(1.99302 -0.015935 -8.46213e-20)
(2.13504 0.120848 6.83893e-20)
(2.29773 0.133226 -3.95362e-20)
(2.24454 -0.0563098 -1.26133e-19)
(2.3559 -0.0185332 -2.41975e-19)
(2.26849 -0.257174 -3.42777e-21)
(2.08744 0.0341601 7.48035e-20)
(2.09734 0.112623 8.88435e-20)
(2.20283 -0.0717976 -1.07269e-19)
(2.13727 0.000651955 3.49908e-20)
(2.2769 -0.154837 2.08303e-20)
(2.00987 -0.00403323 1.13654e-19)
(1.98679 0.0577337 1.49363e-19)
(2.12828 -0.0549321 -1.82798e-20)
(2.04981 -0.00466659 -5.9961e-20)
(2.20577 -0.0939232 2.40707e-20)
(1.42936 -0.0135932 1.79831e-19)
(1.46284 -0.00399736 -1.15033e-20)
(1.46949 -0.0234693 1.84955e-20)
(1.47195 -0.0137956 -3.31215e-20)
(1.49632 -0.0331674 -1.41471e-20)
(1.5531 0.851223 1.0094e-18)
(1.51496 0.945822 -2.93893e-19)
(1.51017 1.06744 -1.22133e-18)
(1.44001 1.10969 6.86887e-19)
(0.888843 0.800627 -1.75289e-19)
(1.81145 0.797128 -5.36218e-19)
(1.79082 0.880786 -2.82163e-18)
(1.7999 0.988242 -1.09597e-18)
(1.71184 0.994606 -3.9694e-19)
(1.04381 0.688152 -6.31237e-19)
(2.0999 0.697054 7.16372e-19)
(2.08387 0.761031 1.86939e-19)
(2.06572 0.840683 -2.18692e-18)
(1.92826 0.822403 -5.95285e-19)
(1.12437 0.530237 4.34068e-19)
(2.24674 0.57222 2.20033e-18)
(2.25129 0.62357 1.59951e-18)
(2.24441 0.668545 -1.83866e-18)
(2.01637 0.619332 -1.36729e-18)
(1.07905 0.341304 -2.44081e-19)
(2.40172 0.428618 1.04312e-18)
(2.39767 0.448258 -7.56233e-19)
(2.29801 0.463146 5.36867e-19)
(1.94498 0.3971 4.18104e-19)
(0.873778 0.14127 -3.45357e-19)
(0.578464 0.386692 -7.22747e-19)
(0.490219 0.417952 -5.96265e-19)
(0.371019 0.449511 8.03489e-20)
(0.230207 0.456867 -2.94732e-20)
(0.056103 0.331062 6.70899e-20)
(0.670962 0.565176 6.21166e-20)
(0.607109 0.622826 -3.24632e-19)
(0.518199 0.690395 1.72162e-19)
(0.390346 0.745586 -7.93756e-20)
(0.166215 0.570681 1.1383e-19)
(0.770339 0.757861 2.08091e-19)
(0.696147 0.834884 4.0554e-19)
(0.636119 0.932214 5.09839e-20)
(0.550283 0.986806 -2.71158e-19)
(0.300538 0.740026 2.18835e-19)
(1.03499 0.855012 2.11168e-19)
(0.985977 0.942796 -6.0491e-19)
(0.932787 1.04253 -1.76764e-18)
(0.84746 1.10907 7.24207e-19)
(0.499929 0.829303 -1.79147e-19)
(1.15622 0.888323 -1.36614e-19)
(1.16545 1.00805 -2.11295e-19)
(1.1771 1.12674 -3.17633e-19)
(1.11975 1.16708 -3.71966e-19)
(0.689157 0.849891 -6.15957e-21)
(1.0119 0.0530456 -8.69647e-20)
(0.985592 0.0115879 -3.32997e-20)
(1.04983 0.108002 -1.35994e-21)
(0.944711 0.119374 -2.54742e-19)
(0.886424 0.229418 2.97611e-19)
(0.999424 0.0524317 5.40447e-20)
(0.999329 0.005744 1.2083e-19)
(1.04139 0.11608 1.0275e-19)
(0.970206 0.150887 2.88832e-20)
(0.921521 0.304128 2.21732e-20)
(1.00358 0.0520018 7.23858e-20)
(0.987516 -0.00260653 -4.61309e-21)
(1.08806 0.131969 -5.17043e-21)
(0.913919 0.158633 1.59137e-19)
(1.11699 0.439927 -4.13248e-19)
(0.996161 0.0520497 -4.08607e-22)
(1.01192 -0.0145173 -1.74413e-19)
(1.08553 0.153318 -5.84292e-20)
(0.978936 0.172744 -3.83107e-19)
(1.16831 0.477144 8.94618e-20)
(0.992872 0.0436332 -1.23268e-20)
(1.0236 -0.0133242 5.30717e-20)
(1.1248 0.161235 2.93472e-20)
(0.959286 0.193396 4.55066e-19)
(1.40204 0.605386 -4.07338e-19)
(0.953058 0.0433009 -5.67557e-21)
(1.10625 -0.0420722 1.07596e-19)
(1.1076 0.194427 -8.08018e-20)
(1.15508 0.147119 8.13431e-19)
(1.33422 0.613844 -3.93506e-19)
(0.895372 0.00922241 -1.61111e-21)
(1.21526 -0.0463298 -9.10802e-20)
(1.00826 0.148006 4.48482e-21)
(1.23828 0.13171 -2.78298e-19)
(1.42276 0.382617 2.9743e-20)
(0.968984 -0.00958724 -1.10486e-21)
(1.15792 -0.0492109 1.21748e-35)
(1.00501 0.152658 -3.45016e-20)
(1.24885 0.0441893 8.50573e-20)
(1.43944 0.266812 1.50648e-19)
(1.11177 -0.060052 4.13719e-21)
(0.927014 -0.0366921 -2.6919e-20)
(1.12218 0.0892973 1.73232e-20)
(1.22944 0.00338742 3.20992e-20)
(1.3791 0.158413 -2.12826e-19)
(1.00254 -0.0253088 -4.36016e-20)
(0.701408 -0.0157156 -5.12882e-21)
(0.953861 0.00536124 1.83102e-20)
(0.858591 -0.0155853 -1.23582e-20)
(1.01257 0.0525404 -4.74e-20)
(1.74256 0.66229 3.10808e-19)
(1.85858 0.644493 7.23183e-19)
(2.08697 0.550443 -1.01266e-18)
(2.16405 0.490458 2.49823e-20)
(2.34822 0.324946 4.42229e-19)
(1.69151 0.492785 4.17089e-20)
(1.77959 0.416947 9.49044e-19)
(1.92216 0.418395 9.17243e-20)
(1.9825 0.288866 -8.69817e-19)
(2.13731 0.269259 -2.79208e-19)
(1.63771 0.381933 -1.95806e-19)
(1.73953 0.271611 -1.4075e-19)
(1.81667 0.313278 2.37933e-19)
(1.92908 0.154089 -2.88745e-19)
(1.98564 0.212899 2.62667e-19)
(1.61093 0.223021 2.99586e-19)
(1.67778 0.143685 -1.8493e-21)
(1.76205 0.174673 2.19451e-19)
(1.85449 0.066277 1.95781e-19)
(1.89652 0.11736 -1.88851e-19)
(1.23419 0.0520739 -3.45744e-20)
(1.26268 0.0320451 2.0845e-19)
(1.3511 0.0286296 1.05399e-19)
(1.36526 0.00580121 -2.24586e-19)
(1.43024 0.00855556 2.76423e-22)
(1.38307 -0.0389639 6.91969e-20)
(2.49671 -0.0270912 -5.75493e-19)
(2.72133 -0.0194107 1.5524e-18)
(2.70865 0.0309049 7.17148e-19)
(2.47446 0.045859 -4.79471e-19)
(0.896343 0.100612 1.39058e-19)
(2.27957 0.117577 -5.98398e-19)
(2.72535 0.123602 -8.4102e-19)
(2.72799 0.138049 1.11899e-18)
(2.53662 0.133061 -7.9598e-19)
(0.271601 0.0961232 -3.35408e-20)
(1.63612 0.198389 6.78023e-19)
(2.43883 0.247113 1.12845e-19)
(2.79552 0.253296 1.07213e-18)
(2.79853 0.238404 6.11708e-19)
(-0.0533363 -0.0234703 2.61051e-19)
(0.682711 0.136856 2.82642e-19)
(1.63199 0.248767 -7.77438e-19)
(2.21388 0.319401 6.71672e-20)
(2.79314 0.353616 5.2664e-19)
(-0.130522 -0.104263 2.05195e-19)
(0.0496193 -0.0162913 -2.34681e-19)
(0.707657 0.137007 -7.41409e-20)
(1.24635 0.220619 1.32252e-19)
(1.94492 0.392465 4.43456e-20)
(-0.0974172 -0.104643 3.24776e-20)
(-0.144003 -0.119772 1.68148e-19)
(0.102739 -0.0895834 1.00326e-19)
(0.299384 -0.0539293 -7.85763e-20)
(1.06272 0.161183 1.08301e-20)
(-0.0605509 -0.0895786 -1.43491e-20)
(-0.143957 -0.204923 -1.27184e-19)
(-0.104668 -0.264149 -4.07738e-20)
(-0.0378546 -0.261942 -1.83674e-20)
(0.292199 -0.0486553 7.24327e-21)
(-0.0395142 -0.0885157 5.5482e-21)
(-0.0955182 -0.260823 3.54554e-19)
(-0.0950222 -0.351122 -2.27279e-19)
(-0.0524125 -0.361243 -4.52926e-19)
(0.0257106 -0.244346 1.034e-19)
(-0.0252625 -0.128388 -2.75297e-20)
(-0.0367441 -0.372731 -1.77915e-19)
(-0.0112717 -0.51198 4.65372e-19)
(0.0434041 -0.546638 2.12145e-19)
(0.0722346 -0.504392 -5.59329e-20)
(-0.0054143 -0.206658 1.25989e-20)
(0.0384083 -0.518776 -3.9229e-20)
(0.0913737 -0.66703 1.01771e-20)
(0.133923 -0.676681 1.28067e-20)
(0.142219 -0.607215 1.82193e-20)
(1.60406 0.754539 -7.61674e-20)
(1.49309 0.465006 2.03262e-20)
(-0.415655 0.242694 8.0655e-20)
(-0.0732106 -0.369068 7.88245e-19)
(0.865424 -0.290394 1.28217e-21)
(1.4256 0.682347 4.10659e-20)
(1.04356 0.694985 1.18608e-18)
(-0.705499 0.322979 8.53485e-19)
(0.166614 -0.63651 2.64022e-20)
(0.88453 -0.423325 3.50766e-20)
(1.40537 0.617795 2.44455e-19)
(0.94897 0.981125 2.83034e-18)
(-0.374924 0.351295 5.7391e-21)
(0.48653 -0.7884 -1.53803e-18)
(0.95382 -0.503988 -1.72132e-20)
(1.07319 0.267573 3.37931e-19)
(1.36671 1.13959 -4.43354e-18)
(0.145732 0.40321 1.40529e-19)
(0.658717 -0.936744 2.05595e-20)
(1.03918 -0.579219 -8.85484e-20)
(0.515242 0.0588401 3.15438e-19)
(1.50975 1.30539 -4.04899e-19)
(0.402297 0.485992 -4.14265e-19)
(0.896863 -1.0287 -1.01912e-19)
(1.09292 -0.638051 -2.39937e-19)
(-0.216188 0.133062 -6.30336e-20)
(-0.44745 -0.19066 0)
(-0.716333 -0.117752 -3.29342e-20)
(-0.120487 -0.118067 1.02582e-20)
(0.469359 -0.0399431 -3.96123e-21)
(1.79502 0.705543 0)
(1.31029 0.381111 0)
(-0.0719604 0.0263251 3.38806e-20)
(0.0231599 -0.227921 -2.81533e-19)
(0.818554 -0.165052 -4.2343e-21)
(0.795434 0.00615353 -1.36836e-19)
(0.853157 -0.00535942 2.34702e-19)
(1.07264 0.041254 -4.58536e-20)
(0.920013 0.00128334 4.09584e-19)
(1.42536 0.189996 2.69194e-19)
(1.78771 0.0415533 1.30775e-19)
(2.00876 0.0839611 3.93846e-19)
(2.13795 0.137772 -7.59235e-19)
(2.58389 0.259831 2.09601e-19)
(2.54769 0.323533 4.25044e-19)
(0.983834 -0.539042 4.66356e-20)
(0.973314 -0.63867 -2.17815e-19)
(0.97277 -0.747262 -2.08251e-19)
(0.908245 -0.824785 1.23047e-19)
(0.559314 -0.654547 1.46404e-19)
(0.88181 -0.450849 1.06523e-19)
(0.826673 -0.52229 1.30296e-19)
(0.75055 -0.598809 -1.18745e-19)
(0.633111 -0.666306 1.48683e-19)
(0.351545 -0.532939 3.29761e-20)
(0.685591 -0.31696 -1.1986e-19)
(0.592759 -0.362281 -5.83208e-20)
(0.492131 -0.42036 -1.84067e-20)
(0.378325 -0.471972 -5.70922e-20)
(0.179013 -0.374559 -1.37146e-19)
(0.578166 -0.0836038 -4.4401e-19)
(0.494603 -0.105659 -3.57669e-19)
(0.386762 -0.140024 2.92268e-19)
(0.258631 -0.181434 1.52254e-19)
(0.0824604 -0.160975 1.35814e-20)
(0.541085 0.121949 -1.46122e-19)
(0.455939 0.120719 -1.6357e-19)
(0.338922 0.116444 -4.30649e-20)
(0.200084 0.115401 5.58418e-20)
(0.035614 0.0853825 1.52059e-20)
(2.27096 -0.0294869 9.86297e-19)
(2.49697 -0.105944 3.63953e-19)
(2.59506 -0.201638 -9.2235e-19)
(2.47399 -0.226669 -1.9715e-18)
(1.53126 -0.226285 1.42067e-19)
(2.18742 -0.133487 1.6429e-18)
(2.31113 -0.251288 2.13294e-18)
(2.33671 -0.382682 1.75726e-19)
(2.27042 -0.447388 3.02217e-19)
(1.48872 -0.422466 -2.01755e-19)
(1.91538 -0.309195 -4.19384e-18)
(1.96148 -0.433974 4.89873e-19)
(2.00274 -0.569674 1.32347e-18)
(1.95985 -0.655799 -5.39221e-19)
(1.29701 -0.581909 8.52537e-19)
(1.64503 -0.442221 1.02797e-18)
(1.66455 -0.548855 -2.68721e-18)
(1.66355 -0.678192 -3.12632e-18)
(1.60642 -0.779295 9.88028e-19)
(1.05084 -0.663673 6.3322e-19)
(1.34624 -0.512308 2.36963e-19)
(1.29493 -0.613512 2.85942e-19)
(1.28106 -0.744838 -4.79614e-19)
(1.22728 -0.843206 -5.83107e-19)
(0.785555 -0.686051 -5.65349e-21)
(1.06054 0.0547407 7.13367e-21)
(0.932277 0.0441345 -5.64633e-22)
(1.13961 0.0681851 3.60006e-21)
(0.824895 -0.0123117 -2.47064e-19)
(1.20615 -0.250862 -1.77331e-20)
(1.0702 0.0583027 -2.40593e-21)
(0.927409 0.0386984 3.39016e-20)
(1.13331 0.0857468 -1.02128e-20)
(0.902089 0.027729 1.8545e-19)
(1.05788 -0.134683 -2.78572e-21)
(1.06797 0.0560105 -5.78174e-20)
(0.930174 0.0308171 2.39838e-22)
(1.11723 0.0872893 -7.64642e-21)
(0.893666 0.0470287 7.66289e-20)
(1.01254 -0.0779673 -2.51001e-19)
(1.04954 0.0551655 6.92908e-20)
(0.955641 0.0238133 2.8033e-21)
(1.07715 0.0924082 2.20846e-20)
(0.934881 0.0734583 -1.40097e-20)
(0.888792 0.0343438 7.32199e-20)
(1.02529 0.0530504 1.71522e-20)
(0.981005 0.0193595 -2.60839e-20)
(1.04705 0.0978 3.2336e-20)
(0.953765 0.100739 6.31541e-20)
(0.850259 0.126459 -2.60073e-20)
(0.886837 0.0335164 0)
(0.715311 0.0270675 8.48602e-21)
(0.632349 0.0212309 5.68447e-21)
(0.377216 -0.0107173 5.33379e-20)
(0.756932 -0.0641633 -1.67671e-19)
(1.02933 0.0740221 -6.27866e-20)
(0.942917 0.063986 -3.97805e-21)
(1.05301 0.0709971 -5.75151e-20)
(0.837324 -0.0107321 -1.42901e-19)
(1.11971 -0.227807 -1.73757e-19)
(1.06661 -0.0677139 -3.85444e-20)
(1.1575 -0.0374593 5.91442e-19)
(1.2702 0.0380221 3.60348e-19)
(1.13236 0.0646512 2.66811e-20)
(0.883419 0.0353301 0)
(1.42961 -0.338439 3.86301e-19)
(1.55822 -0.297717 1.72991e-18)
(1.76029 -0.172879 -1.9209e-18)
(1.85914 -0.0211652 -6.14285e-19)
(1.80529 0.0385563 4.50307e-19)
)
;

boundaryField
{
    left
    {
        type            fixedValue;
        value           uniform (1 0 0);
    }
    right
    {
        type            zeroGradient;
    }
    down
    {
        type            noSlip;
    }
    up
    {
        type            noSlip;
    }
    cylinder
    {
        type            noSlip;
    }
    defaultFaces
    {
        type            empty;
    }
}


// ************************************************************************* //
