/*--------------------------------*- C++ -*----------------------------------*\
  =========                 |
  \\      /  F ield         | OpenFOAM: The Open Source CFD Toolbox
   \\    /   O peration     | Website:  https://openfoam.org
    \\  /    A nd           | Version:  13
     \\/     M anipulation  |
\*---------------------------------------------------------------------------*/
FoamFile
{
    format      ascii;
    class       surfaceScalarField;
    location    "0.1675";
    object      phi;
}
// * * * * * * * * * * * * * * * * * * * * * * * * * * * * * * * * * * * * * //

dimensions      [0 3 -1 0 0 0 0];

internalField   nonuniform List<scalar> 
3485
(
0.00372977
-0.0396256
0.0358958
0.0119199
-0.105131
0.0969413
0.0216609
-0.135935
0.126194
0.0315712
-0.144657
0.134747
0.0412284
-0.144294
0.134637
0.0505517
-0.141141
0.131817
0.0595236
-0.137431
0.128459
0.0681021
-0.133784
0.125206
0.0761876
-0.130243
0.122157
-0.126515
0.118881
0.0838215
0.00378928
-0.0434148
0.011704
-0.113046
0.0208968
-0.145128
0.0301493
-0.15391
0.0391552
-0.1533
0.0479061
-0.149892
0.0564496
-0.145974
0.0648425
-0.142177
0.0731936
-0.138594
-0.135149
0.0818277
0.00382549
-0.0472403
0.0113927
-0.120613
0.0199329
-0.153668
0.0283959
-0.162373
0.0365753
-0.161479
0.0445004
-0.157817
0.0522229
-0.153697
0.059781
-0.149735
0.0672059
-0.146019
-0.142465
0.0745223
0.00383969
-0.05108
0.0109922
-0.127766
0.0188035
-0.161479
0.0264125
-0.169982
0.0337214
-0.168788
0.0408053
-0.164901
0.0477301
-0.160621
0.0545347
-0.15654
0.0612518
-0.152736
-0.149211
0.0679978
0.00380479
-0.0548848
0.0104414
-0.134403
0.0174134
-0.168451
0.0240593
-0.176628
0.030386
-0.175115
0.0365069
-0.171022
0.0424958
-0.16661
0.0483916
-0.162436
0.0542289
-0.158573
-0.155051
0.0600688
0.00370864
-0.0585934
0.00972034
-0.140414
0.0157496
-0.17448
0.0213427
-0.182221
0.0266065
-0.180379
0.031689
-0.176104
0.0366693
-0.17159
0.0415842
-0.167351
0.0464607
-0.16345
-0.159932
0.0513419
0.00353527
-0.0621287
0.00880443
-0.145683
0.0137906
-0.179466
0.0182441
-0.186674
0.0223673
-0.184502
0.0263359
-0.180073
0.0302308
-0.175485
0.0340856
-0.171205
0.0379225
-0.167286
-0.163771
0.041761
0.00327399
-0.0654027
0.00768849
-0.150098
0.0115412
-0.183319
0.0147793
-0.189912
0.0177004
-0.187423
0.020496
-0.182868
0.0232443
-0.178234
0.0259731
-0.173934
0.0286979
-0.170011
-0.166492
0.0314194
0.0029199
-0.0683226
0.00637933
-0.153557
0.00900945
-0.185949
0.0109815
-0.191884
0.0126598
-0.189101
0.0142402
-0.184449
0.0157966
-0.17979
0.0173506
-0.175488
0.0189126
-0.171573
-0.168049
0.0204697
0.00247436
-0.070797
0.00487673
-0.15596
0.00622612
-0.187298
0.00692442
-0.192583
0.00733242
-0.189509
0.00767657
-0.184793
0.00801089
-0.180124
0.00835195
-0.175829
0.00871084
-0.171932
0.00906942
-0.168408
0.00293296
-0.00612384
0.00319088
0.0118859
-0.0173628
0.00840987
0.0240257
-0.0231063
0.0109664
0.0372302
-0.0249725
0.011768
0.0505227
-0.0250948
0.0118023
0.0635561
-0.0246095
0.0115761
0.076237
-0.0239669
0.0112859
0.088557
-0.0233155
0.0109955
0.10053
-0.0226943
0.0107212
-0.0222544
0.112309
0.0104758
0.00296664
-0.00909048
0.011914
-0.0263102
0.0240001
-0.0351923
0.0371229
-0.0380954
0.050324
-0.0382958
0.0632665
-0.037552
0.0758617
-0.0365622
0.0881035
-0.0355572
0.100008
-0.0345992
-0.033972
0.111726
0.0030177
-0.0121082
0.0119637
-0.0352562
0.0239796
-0.0472082
0.0369923
-0.0511081
0.050068
-0.0513715
0.0628841
-0.0503682
0.0753588
-0.0490368
0.0874883
-0.0476868
0.0992935
-0.0464044
-0.045597
0.110918
0.00308838
-0.0151966
0.0120351
-0.0442029
0.0239585
-0.0591316
0.0368243
-0.0639739
0.0497323
-0.0642795
0.062379
-0.0630149
0.074691
-0.0613487
0.0866682
-0.059664
0.0983364
-0.0580726
-0.0570907
0.10983
0.00317934
-0.0183759
0.0121245
-0.0531481
0.0239255
-0.0709325
0.036599
-0.0766474
0.0492886
-0.0769691
0.061715
-0.0754413
0.0738153
-0.0734491
0.0855937
-0.0714424
0.0970813
-0.0695602
-0.0684053
0.108396
0.00328802
-0.0216639
0.0122214
-0.0620815
0.0238602
-0.0825713
0.0362867
-0.0890739
0.0486989
-0.0893813
0.0608471
-0.0875894
0.0726809
-0.0852828
0.0842088
-0.0829703
0.0954659
-0.0808173
-0.0794793
0.10654
0.00340726
-0.0250712
0.012306
-0.0709802
0.0237311
-0.0939964
0.0358458
-0.101189
0.0479139
-0.101449
0.0597202
-0.0993958
0.0712295
-0.0967921
0.0824552
-0.094196
0.0934319
-0.091794
-0.0902348
0.104187
0.00352445
-0.0285956
0.0123479
-0.0798037
0.0234921
-0.105141
0.0352177
-0.112914
0.0468645
-0.113096
0.0582581
-0.110789
0.0693815
-0.107915
0.080255
-0.10507
0.0909038
-0.102443
-0.100558
0.101227
0.0036199
-0.0322155
0.0123012
-0.088485
0.0230712
-0.115911
0.0343027
-0.124146
0.04542
-0.124214
0.0562945
-0.121664
0.0669312
-0.118552
0.07736
-0.115498
0.0875815
-0.112664
-0.110213
0.0972365
0.00368027
0.0121366
0.0224198
0.0330208
0.0434441
0.0535976
0.0635042
0.0732118
0.0827045
0.0913721
0.158666
-0.130961
0.0846038
0.182826
-0.0951011
0.0709412
0.194792
-0.0706775
0.0587111
0.200475
-0.0532388
0.0475561
0.202869
-0.0399771
0.0375826
0.203432
-0.0294618
0.0288995
0.202923
-0.0209443
0.0214534
0.201752
-0.013889
0.0150591
0.200153
-0.00800432
0.00960379
-0.00163247
0.00360425
0.15762
-0.176855
0.181835
-0.119316
0.194045
-0.0828876
0.199973
-0.0591668
0.202568
-0.0425722
0.203295
-0.0301883
0.202927
-0.0205763
0.201886
-0.0128479
0.20041
-0.00652886
0.000213772
0.155835
-0.221772
0.179963
-0.143444
0.192453
-0.0953773
0.198723
-0.0654368
0.201634
-0.0454832
0.202649
-0.0312029
0.20255
-0.0204777
0.201769
-0.0120669
0.20055
-0.00531029
0.00179976
0.153276
-0.265218
0.177196
-0.167364
0.190013
-0.108194
0.196726
-0.07215
0.20007
-0.048827
0.201496
-0.0326291
0.201794
-0.0207755
0.201402
-0.0116754
0.200572
-0.0044802
0.00299161
0.1499
-0.306722
0.173525
-0.190989
0.186727
-0.121395
0.193987
-0.0794105
0.197882
-0.0527217
0.199842
-0.0345892
0.200661
-0.0215948
0.200787
-0.0118009
0.200474
-0.00416802
0.00365714
0.145617
-0.345799
0.168939
-0.214312
0.182601
-0.135058
0.190517
-0.0873256
0.195081
-0.0572861
0.197696
-0.0372041
0.199159
-0.0230579
0.199925
-0.0125674
0.200258
-0.0045002
0.00366665
0.140176
-0.381787
0.1634
-0.237536
0.177641
-0.149298
0.186327
-0.0960117
0.191681
-0.0626401
0.195069
-0.0405926
0.197295
-0.0252837
0.198823
-0.014095
0.199922
-0.00559943
0.00289384
0.133749
-0.414309
0.15682
-0.260607
0.17182
-0.164298
0.181425
-0.105617
0.187695
-0.0689102
0.191976
-0.0448733
0.19508
-0.0283879
0.197484
-0.0164997
0.199469
-0.00758388
0.00121663
0.125996
-0.443068
0.148857
-0.283469
0.164952
-0.180393
0.175739
-0.116403
0.183105
-0.0762765
0.188417
-0.0501843
0.19252
-0.0324913
0.195916
-0.0198959
0.1989
-0.0105677
-0.0014824
0.117496
-0.469192
0.140306
-0.306279
0.157458
-0.197545
0.169443
-0.128388
0.177988
-0.0848218
0.18443
-0.0566265
0.189636
-0.0376969
0.194127
-0.0243876
0.198217
-0.0146578
-0.00531563
0.360973
-0.416541
-0.413624
0.333979
-0.279285
0.321814
-0.185381
0.316375
-0.122949
0.313555
-0.0820013
0.311816
-0.0548871
0.310627
-0.036508
0.309809
-0.0235702
0.309286
-0.0141346
-0.00511319
0.374508
-0.356998
-0.434051
0.345125
-0.249902
0.330131
-0.170386
0.32213
-0.114948
0.31744
-0.0773118
0.314462
-0.0519092
0.312486
-0.0345324
0.311185
-0.0222691
0.310386
-0.0133357
-0.0048172
0.388265
-0.299487
-0.445776
0.356191
-0.217827
0.338068
-0.152264
0.327548
-0.104428
0.321105
-0.0708689
0.316969
-0.0477733
0.314252
-0.0318145
0.312491
-0.0205082
0.311427
-0.0122719
-0.00442924
0.397933
-0.245475
-0.451945
0.364944
-0.184839
0.344808
-0.132127
0.332345
-0.0919656
0.324427
-0.0629501
0.319269
-0.0426158
0.315879
-0.0284239
0.313695
-0.0183243
0.312384
-0.0109615
-0.00395457
0.404925
-0.195513
-0.454887
0.3719
-0.151813
0.350426
-0.110654
0.336474
-0.0780135
0.327342
-0.0538183
0.321311
-0.0365845
0.317331
-0.0244438
0.314771
-0.0157645
0.313239
-0.00942955
-0.00340115
0.409875
-0.149494
-0.455893
0.377279
-0.119218
0.354963
-0.0883375
0.339903
-0.0629536
0.329807
-0.0437225
0.323055
-0.0298325
0.318578
-0.0199667
0.315697
-0.0128835
0.313974
-0.00770633
-0.00277898
0.413265
-0.106889
-0.45587
0.381286
-0.0872393
0.35847
-0.0655215
0.342618
-0.0471013
0.331789
-0.0328933
0.32447
-0.0225141
0.319595
-0.0150912
0.316453
-0.00974214
0.314573
-0.00582626
-0.00209975
0.415365
-0.0668397
-0.455414
0.384005
-0.0558793
0.360933
-0.042449
0.344559
-0.0307272
0.333215
-0.0215502
0.325488
-0.0147865
0.32032
-0.0099232
0.316985
-0.0064078
0.314988
-0.0038284
-0.00137711
0.414127
-0.0274656
-0.453501
0.383424
-0.0251771
0.36048
-0.0195046
0.343982
-0.0142289
0.332448
-0.0100162
0.324548
-0.00688672
0.319251
-0.00462649
0.315833
-0.00298912
0.313785
-0.00178098
-0.000636049
0.359273
-0.386738
0.334095
0.314591
0.300362
0.290346
0.283459
0.278832
0.275843
0.274062
0.446865
0.00844368
-0.446239
0.446738
0.0205966
0.445827
0.0323307
0.44407
0.0435183
0.441362
0.0540499
0.437803
0.0636269
0.432602
0.0731989
0.427885
0.0792399
0.417286
0.0924264
0.0874838
0.428793
0.00784749
-0.428197
0.429617
0.0197728
0.430586
0.0313615
0.431648
0.0424569
0.432669
0.0530284
0.433732
0.0625643
0.434347
0.0725839
0.43536
0.0782266
0.4361
0.0916871
0.0895325
0.413973
0.00700426
-0.41313
0.415528
0.0182176
0.417742
0.0291476
0.420573
0.0396256
0.423949
0.0496522
0.427813
0.0587003
0.432184
0.0682136
0.436423
0.073987
0.442139
0.0859712
0.0858956
0.402392
0.00605391
-0.401442
0.404395
0.0162151
0.407414
0.026128
0.411404
0.0356358
0.416326
0.04473
0.422041
0.0529854
0.42877
0.0614845
0.435593
0.0671647
0.444433
0.0771302
0.0783843
0.393324
0.00502375
-0.392294
0.395646
0.0138933
0.399225
0.0225486
0.404014
0.0308466
0.409988
0.0387565
0.417002
0.045972
0.425279
0.0532069
0.434028
0.0584155
0.444772
0.0663861
0.0682694
0.386393
0.00393122
-0.385301
0.388939
0.0113471
0.392906
0.0185815
0.398245
0.0255079
0.404925
0.0320762
0.412822
0.0380754
0.422089
0.0439393
0.432135
0.0483694
0.444038
0.0544834
0.0564142
0.381294
0.00278381
-0.380147
0.384007
0.00863462
0.38825
0.0143386
0.39397
0.0197882
0.401122
0.0249236
0.409599
0.0295983
0.419482
0.0340565
0.430354
0.0374971
0.442941
0.0418968
0.0434852
0.377606
0.00155127
-0.376373
0.380482
0.00575836
0.384966
0.00985433
0.390994
0.0137601
0.398499
0.0174187
0.407372
0.0207251
0.41762
0.0238085
0.428966
0.0261517
0.441864
0.0289984
0.0299351
0.370415
0.000190688
-0.369055
0.373664
0.00250914
0.378671
0.00484782
0.38535
0.00708111
0.393587
0.00918215
0.403223
0.0110888
0.414182
0.0128493
0.426173
0.0141604
0.439426
0.0157456
0.0158605
0.293413
-0.293223
0.295922
0.30077
0.307851
0.317034
0.328122
0.340972
0.355132
0.370878
0.079648
0.124256
-0.113095
-0.0908087
0.0694711
0.126599
-0.116422
0.0598209
0.129514
-0.119864
0.050345
0.132966
-0.123491
0.0408184
0.136799
-0.127273
0.0311387
0.140876
-0.131196
0.0213301
0.1445
-0.134692
0.0117581
0.14396
-0.134388
0.00371681
0.126292
-0.118251
0.0648785
-0.0611616
0.0764861
0.133555
-0.0857854
0.067047
0.136038
0.057632
0.138929
0.0482656
0.142333
0.0388927
0.146172
0.0294628
0.150306
0.0200112
0.153952
0.010901
0.15307
0.0033716
0.133821
0.0682501
0.068663
0.141331
-0.0764392
0.0605349
0.144167
0.0522093
0.147255
0.0437586
0.150784
0.0351995
0.154731
0.0265327
0.158973
0.017836
0.162649
0.00951612
0.16139
0.00279928
0.140538
0.0710493
0.0593148
0.147903
-0.0658864
0.052436
0.151045
0.0452993
0.154391
0.0379563
0.158127
0.0304373
0.16225
0.0227674
0.166643
0.0150595
0.170357
0.00776386
0.168686
0.00208359
0.146218
0.0731329
0.0500567
0.153584
-0.0557377
0.0441715
0.156931
0.038072
0.160491
0.0317796
0.164419
0.0253114
0.168719
0.0186958
0.173258
0.0120659
0.176987
0.00589727
0.174854
0.00134333
0.150772
0.0744763
0.0409361
0.158473
-0.0458254
0.0359298
0.161937
0.0307803
0.16564
0.0254889
0.16971
0.020059
0.174148
0.0145177
0.1788
0.00900908
0.182495
0.00401567
0.179848
0.000596041
0.154192
0.0750723
0.0315957
0.162504
-0.0356263
0.0275089
0.166024
0.0233333
0.169816
0.0190613
0.173982
0.014691
0.178519
0.0102553
0.183235
0.00590289
0.186848
0.00215185
0.183599
-0.000165939
0.15651
0.0749064
0.0218742
0.16555
-0.0249201
0.0188035
0.169094
0.0156718
0.172948
0.0124711
0.177183
0.00919557
0.181794
0.00588685
0.186544
0.00273876
0.189996
0.000103623
0.186234
-0.000780138
0.157393
0.0741262
0.0118224
0.167519
-0.0137916
0.00984458
0.171072
0.007825
0.174967
0.00576595
0.179242
0.00366706
0.183893
0.00154269
0.188668
-0.000407088
0.191945
-0.00154626
0.187373
-0.00138318
0.15723
0.072743
0.00169093
-0.00258022
0.000830945
-3.12081e-05
-0.000913595
-0.00181345
-0.00265423
-0.00329147
-0.00321677
-0.0019461
0.107447
0.0219984
-0.118738
-0.0107072
0.0957861
0.0226001
-0.0109392
0.0837815
0.0231942
-0.0111896
0.0714237
0.0238181
-0.0114602
0.0586949
0.0244845
-0.0117557
0.0455735
0.0251979
-0.0120765
0.0320798
0.0258854
-0.0123917
0.0185344
0.0260113
-0.012466
0.00644703
0.0233852
-0.0112978
0.0127847
-0.00633769
0.106561
0.0332512
-0.117814
0.0949567
0.0342043
0.0830214
0.0351295
0.0707451
0.0360944
0.0581092
0.0371204
0.0450917
0.0382154
0.0317133
0.0392637
0.0182965
0.0394281
0.00634637
0.0353354
0.0191311
0.105293
0.044442
-0.116484
0.0937789
0.045718
0.0819495
0.0469589
0.0697935
0.0482504
0.0572917
0.0496222
0.0444218
0.0510854
0.0312054
0.0524801
0.0179673
0.0526662
0.00620526
0.0470974
0.0253364
0.103552
0.0555318
-0.114642
0.0921741
0.0570965
0.080498
0.058635
0.0685123
0.060236
0.0561969
0.0619375
0.0435295
0.0637529
0.030534
0.0654756
0.017541
0.0656592
0.00603265
0.0586057
0.031369
0.101239
0.0664701
-0.112177
0.0900535
0.0682817
0.0785923
0.0700962
0.0668407
0.0719877
0.0547767
0.0740015
0.0423773
0.0761523
0.0296697
0.0781831
0.0169931
0.0783359
0.00581732
0.0697815
0.0371863
0.0982524
0.077202
-0.108984
0.087327
0.0792071
0.0761527
0.0812705
0.0647105
0.0834298
0.0529748
0.0857373
0.0409205
0.0882066
0.0285777
0.090526
0.0162933
0.0906203
0.0055248
0.0805499
0.0427111
0.0944749
0.0876299
-0.104903
0.0839368
0.0897453
0.0731748
0.0920325
0.0621527
0.0944519
0.0508387
0.0970513
0.0392095
0.0998357
0.027304
0.102431
0.0154835
0.102441
0.00519205
0.0908414
0.0479032
0.0894686
0.0975769
-0.0994157
0.0794762
0.0997376
0.0692951
0.102214
0.0588628
0.104884
0.0481337
0.10778
0.0370808
0.110889
0.0257483
0.113764
0.014511
0.113678
0.00479603
0.100556
0.0526992
0.0849144
0.106555
-0.0938922
0.0757558
0.108896
0.0661524
0.111817
0.05617
0.114867
0.0458593
0.118091
0.0352363
0.121512
0.0243663
0.124634
0.0136384
0.124406
0.00444994
0.109745
0.0571491
0.0756214
-0.0821616
0.0680951
0.0600485
0.0514244
0.0422429
0.0325581
0.0225002
0.0125183
0.00401253
0.201132
0.0147932
-0.0179358
0.203466
0.0233107
-0.0256438
0.203462
0.0282645
-0.0282604
0.204284
0.0302723
-0.0310951
0.203805
0.036321
-0.0358418
0.201582
0.0447202
-0.0424974
0.19627
0.0562542
-0.0509418
0.185574
0.0718323
-0.0611362
0.162279
0.0958739
-0.0725789
0.129622
-0.0860812
0.200945
0.011838
0.203154
0.0211014
0.203094
0.0283243
0.203837
0.0295297
0.203244
0.0369144
0.20086
0.0471036
0.19534
0.0617743
0.18436
0.0828119
0.161003
0.119231
0.172811
0.200628
0.00919941
0.202554
0.0191754
0.202346
0.0285332
0.202879
0.0289961
0.202039
0.0377544
0.199371
0.0497717
0.193538
0.0676078
0.182189
0.0941603
0.158829
0.142591
0.215157
0.200178
0.00701103
0.201671
0.0176829
0.201226
0.0289775
0.201421
0.0288019
0.200202
0.0389727
0.197125
0.0528488
0.190861
0.0738717
0.179045
0.105977
0.155591
0.166045
0.256105
0.199587
0.00541401
0.200508
0.0167613
0.199752
0.0297341
0.199473
0.0290809
0.197747
0.0406988
0.194136
0.0564598
0.187312
0.0806955
0.174912
0.118377
0.151111
0.189846
0.295039
0.198845
0.00455859
0.199075
0.0165315
0.197939
0.0308697
0.197048
0.0299721
0.194689
0.0430583
0.190418
0.0607306
0.182893
0.0882205
0.169791
0.131478
0.145985
0.213653
0.33204
0.197943
0.00460574
0.19738
0.0170939
0.19581
0.03244
0.19416
0.0316222
0.191049
0.0461697
0.18599
0.0657895
0.177611
0.0965988
0.163665
0.145424
0.140724
0.236594
0.367861
0.196868
0.00572793
0.195438
0.018524
0.193386
0.0344914
0.190822
0.0341864
0.186851
0.0501402
0.180877
0.0717644
0.171528
0.105948
0.156554
0.160398
0.134769
0.258379
0.403214
0.195614
0.0081041
0.19327
0.0208678
0.190692
0.0370687
0.187048
0.0378312
0.182126
0.0550623
0.175126
0.0787639
0.164807
0.116267
0.149209
0.175996
0.129044
0.278544
0.438366
0.194288
0.0118054
0.190896
0.0242603
0.187784
0.0401811
0.182847
0.042768
0.176955
0.0609537
0.168812
0.0869074
0.157066
0.128012
0.139839
0.193223
0.117999
0.300384
0.474203
0.302887
0.0109284
0.304778
0.0223697
0.308239
0.0367202
0.309582
0.0414243
0.311761
0.0587751
0.314398
0.0842709
0.318806
0.123604
0.328102
0.183927
0.353243
0.275243
0.415659
0.411787
0.303661
0.00927723
0.305877
0.0201537
0.30965
0.0329481
0.312015
0.0390585
0.315423
0.0553678
0.320156
0.0795375
0.327863
0.115897
0.341917
0.169874
0.37169
0.245469
0.358351
0.428999
0.304356
0.00693171
0.307067
0.0174424
0.311059
0.0289562
0.314338
0.0357791
0.318873
0.0508332
0.32539
0.0730207
0.335685
0.105602
0.352992
0.152567
0.384962
0.213499
0.302225
0.441088
0.305031
0.00391136
0.308221
0.0142522
0.31244
0.0247368
0.316492
0.0317277
0.322048
0.0452762
0.330086
0.0649835
0.342419
0.0932684
0.36203
0.132955
0.39466
0.18087
0.248896
0.447989
0.305723
0.000198492
0.309344
0.0106313
0.313753
0.0203283
0.318433
0.0270472
0.324872
0.0388376
0.334163
0.0556924
0.348055
0.0793762
0.369218
0.111792
0.401582
0.148506
0.199045
0.451433
0.306472
-0.00426348
0.310452
0.00665138
0.314964
0.0158168
0.320125
0.0218853
0.327288
0.0316754
0.337576
0.045404
0.352626
0.0643258
0.374766
0.0896525
0.406447
0.116825
0.152758
0.452734
0.307317
-0.00957057
0.31156
0.00240905
0.316043
0.011333
0.321534
0.0163951
0.329255
0.0239536
0.340301
0.0343587
0.35618
0.0484461
0.378886
0.0669474
0.409781
0.0859294
0.109679
0.45286
0.308337
-0.0158972
0.31269
-0.001944
0.316936
0.00708652
0.322597
0.0107349
0.330719
0.0158317
0.342302
0.0227747
0.358747
0.0320017
0.381744
0.0439504
0.411921
0.0557521
0.0692167
0.452383
0.308357
-0.0222444
0.312386
-0.00597243
0.316243
0.00322971
0.321948
0.00502927
0.330315
0.00746447
0.342244
0.0108464
0.359045
0.015201
0.382162
0.020833
0.411817
0.0260974
0.0316541
0.449379
0.279766
0.273793
0.277023
0.282052
0.289517
0.300363
0.315564
0.336397
0.362494
0.394149
0.423284
-0.102306
0.42591
-0.0884111
0.427995
-0.0785238
0.430983
-0.0688742
0.434424
-0.0591796
0.4378
-0.0492006
0.44081
-0.0386371
0.443283
-0.0273928
0.445093
-0.0156015
-0.00372654
0.428559
-0.101867
0.428265
-0.0881169
0.427793
-0.0780517
0.427729
-0.0688101
0.427748
-0.0591983
0.427668
-0.0491207
0.427555
-0.0385237
0.427546
-0.0273847
0.42778
-0.0158348
-0.00414406
0.434819
-0.0955983
0.4302
-0.0834974
0.425972
-0.0738235
0.422244
-0.0650819
0.419144
-0.0560987
0.416644
-0.0466211
0.414767
-0.0366464
0.413563
-0.0261807
0.413041
-0.0153125
-0.00423295
0.437994
-0.0856035
0.430039
-0.0755426
0.423163
-0.0669473
0.417173
-0.0590913
0.41212
-0.0510459
0.408008
-0.0425097
0.404852
-0.0334896
0.402688
-0.0240166
0.401546
-0.0141708
-0.00412889
0.439227
-0.0733976
0.429053
-0.0653683
0.42029
-0.0581848
0.412682
-0.0514824
0.406227
-0.0445915
0.400958
-0.0372407
0.396901
-0.0294328
0.394091
-0.0212065
0.392557
-0.0126371
-0.00386529
0.439225
-0.0598881
0.427625
-0.053769
0.417574
-0.0481338
0.40886
-0.0427682
0.40146
-0.0371914
0.395407
-0.0311879
0.390735
-0.0247608
0.387479
-0.0179505
0.385667
-0.0108247
-0.00349891
0.438588
-0.0456162
0.42611
-0.0412913
0.415236
-0.0372592
0.405805
-0.0333371
0.397785
-0.029172
0.391212
-0.0246149
0.386127
-0.0196754
0.382569
-0.0143927
0.380572
-0.00882792
-0.00307374
0.437631
-0.0308642
0.424624
-0.0282845
0.413269
-0.0259041
0.4034
-0.0234683
0.394983
-0.0207546
0.388063
-0.0176944
0.382694
-0.0143072
0.37893
-0.0106286
0.376812
-0.00670991
-0.00263474
0.433869
-0.0153537
0.42037
-0.0147857
0.408532
-0.0140662
0.398146
-0.0130828
0.389199
-0.0118068
0.381768
-0.0102635
0.375953
-0.00849283
0.371853
-0.00652816
0.369544
-0.00440044
-0.00214585
0.378795
0.364009
0.349943
0.33686
0.325053
0.31479
0.306297
0.299769
0.295368
0.00674983
0.0856268
-0.0923766
0.0123357
0.191252
-0.196838
0.0145904
0.23057
-0.232825
0.0150457
0.238068
-0.238523
0.014869
0.235684
-0.235507
0.0146429
0.231492
-0.231266
0.0145025
0.227565
-0.227425
0.0144106
0.224127
-0.224035
0.014206
0.220528
-0.220324
0.213859
0.0134755
-0.213128
0.00824615
0.0773806
0.017276
0.182222
0.0235025
0.224344
0.0278165
0.233754
0.031504
0.231996
0.0352136
0.227783
0.039162
0.223617
0.0433381
0.219951
0.0474134
0.216453
0.211302
0.0499705
0.00888483
0.0684958
0.0205349
0.170572
0.0302699
0.214609
0.038266
0.225758
0.0456011
0.224661
0.0529716
0.220412
0.0606744
0.215914
0.0687804
0.211845
0.077078
0.208155
0.204148
0.0842315
0.00869036
0.0598055
0.0219342
0.157328
0.0344006
0.202142
0.0455319
0.214627
0.056037
0.214156
0.0665389
0.20991
0.0773695
0.205083
0.0886747
0.200539
0.100444
0.196386
0.192425
0.112167
0.0078749
0.0519306
0.0216659
0.143537
0.0359239
0.187884
0.0493997
0.201151
0.0623509
0.201205
0.0752264
0.197035
0.0883277
0.191982
0.101824
0.187043
0.115808
0.182402
0.177838
0.130396
0.00674851
0.0451821
0.0202447
0.130041
0.0353553
0.172774
0.0502856
0.18622
0.0648338
0.186657
0.079215
0.182654
0.0936444
0.177553
0.108267
0.17242
0.123189
0.16748
0.162334
0.138693
0.00561352
0.0395685
0.0183287
0.117326
0.0335477
0.157555
0.0491256
0.170642
0.0644734
0.171309
0.0795721
0.167555
0.0945271
0.162598
0.109435
0.157512
0.124353
0.152562
0.147159
0.139528
0.00467017
0.0348984
0.0164612
0.105535
0.031324
0.142692
0.0469404
0.155026
0.0624487
0.155801
0.0776408
0.152363
0.0925207
0.147718
0.107136
0.142896
0.121561
0.138138
0.132923
0.135797
0.00400436
0.030894
0.0149745
0.0945646
0.0293055
0.128361
0.044636
0.139696
0.059956
0.140481
0.0749447
0.137374
0.0895483
0.133114
0.103805
0.12864
0.117783
0.124159
0.118747
0.131959
0.00358034
0.0273137
0.0139085
0.0842364
0.0276748
0.114594
0.0425314
0.124839
0.0573879
0.125624
0.0718325
0.122929
0.0857142
0.119232
0.0989476
0.115407
0.111356
0.111751
0.107386
0.122716
0.00335556
0.0239581
0.0132699
0.0743221
0.0266131
0.101251
0.0410947
0.110357
0.0556372
0.111082
0.0698442
0.108722
0.0836133
0.105463
0.0969606
0.102059
0.109946
0.0987661
0.0959931
0.121339
0.00323784
0.0207203
0.0128903
0.0646696
0.0259254
0.0882162
0.0401038
0.096179
0.0543681
0.0968172
0.0683261
0.0947644
0.0818646
0.0919248
0.0949676
0.0889563
0.107664
0.0860697
0.0841857
0.119471
0.00315274
0.0175675
0.01261
0.0552124
0.0253947
0.0754315
0.0392991
0.0822746
0.0532814
0.082835
0.0669522
0.0810935
0.0801935
0.0786835
0.0929809
0.0761689
0.105327
0.0737237
0.0723184
0.117194
0.00308094
0.0144866
0.012388
0.0459053
0.0249828
0.0628366
0.038678
0.0685794
0.0524462
0.0690668
0.0659062
0.0676335
0.0789431
0.0656467
0.0915338
0.0635782
0.103689
0.0615685
0.0604827
0.115525
0.00302119
0.0114654
0.0122159
0.0367106
0.0246778
0.0503747
0.0382319
0.0550253
0.0518613
0.0554375
0.0651925
0.0543023
0.0781158
0.0527235
0.0906123
0.0510816
0.102695
0.0494856
0.0486572
0.114521
0.00297377
0.00849164
0.0120856
0.0275987
0.0244563
0.0380041
0.0379183
0.0415632
0.0514613
0.0418945
0.064717
0.0410465
0.0775797
0.0398608
0.0900337
0.0386276
0.102093
0.0374267
0.0368304
0.113919
0.00293942
0.00555222
0.0119916
0.0185466
0.0242986
0.0256971
0.0376987
0.028163
0.0511859
0.0284073
0.0643953
0.0278371
0.0772235
0.0270327
0.0896566
0.0261944
0.101708
0.0253758
0.0249999
0.113538
0.00291836
0.00263386
0.0119288
0.00953617
0.0241887
0.0134372
0.0375427
0.014809
0.0509884
0.0149615
0.0641639
0.0146617
0.0769674
0.0142292
0.0893866
0.0137752
0.101433
0.013329
0.0131664
0.113267
0.00291045
-0.000276588
0.0118924
0.000554198
0.0241132
0.0012165
0.0374252
0.00149703
0.0508312
0.00155553
0.0639723
0.00152057
0.076749
0.00145247
0.0891498
0.00137442
0.101186
0.00129237
0.00133877
0.113014
0.00291429
0.0118784
0.0240613
0.0373263
0.0506842
0.0637808
0.0765192
0.0888892
0.100903
0.112717
0.137425
0.255308
-0.271394
0.149922
0.11296
-0.125457
0.15943
0.0388011
-0.048309
0.166691
0.00561215
-0.0128732
0.172722
-0.00752204
0.00149078
0.178067
-0.0115107
0.0061657
0.182959
-0.0115571
0.00666555
0.187501
-0.0100173
0.00547469
0.191734
-0.00797099
0.00373784
-0.00529129
0.00143492
0.141725
0.233054
0.156491
0.0981942
0.166205
0.0290866
0.173037
-0.00121901
0.178249
-0.0127347
0.182617
-0.015878
0.186448
-0.0153882
0.189885
-0.0134548
0.192998
-0.0110841
-0.00803391
0.145191
0.205057
0.162118
0.0812677
0.172178
0.0190267
0.178653
-0.00769423
0.183231
-0.0173132
0.186751
-0.0193977
0.189635
-0.018272
0.192077
-0.0158973
0.194179
-0.0131861
-0.00976878
0.148448
0.172134
0.167145
0.0625702
0.177543
0.00862833
0.183724
-0.0138744
0.1877
-0.0212897
0.190466
-0.0221634
0.192509
-0.0203156
0.194069
-0.0174574
0.195274
-0.0143908
-0.0106073
0.151721
0.134934
0.171579
0.0427117
0.182245
-0.0020377
0.188171
-0.0198002
0.191632
-0.0247508
0.193744
-0.0242755
0.195059
-0.0216303
0.195853
-0.0182516
0.196278
-0.0148154
-0.0106658
0.154264
0.0945898
0.175341
0.021634
0.186253
-0.0129497
0.191972
-0.0255191
0.195005
-0.0277836
0.196569
-0.0258399
0.197271
-0.022332
0.197419
-0.0184001
0.197186
-0.0145814
-0.0100647
0.156268
0.05186
0.1784
-0.000498667
0.189533
-0.0240824
0.195099
-0.0310853
0.197797
-0.0304815
0.198925
-0.0269678
0.199134
-0.0225407
0.198761
-0.018027
0.197993
-0.013814
-0.00892868
0.157762
0.00736466
0.180711
-0.0234469
0.192052
-0.0354236
0.19753
-0.0365633
0.199992
-0.0329441
0.200799
-0.0277743
0.200638
-0.0223796
0.19987
-0.0172594
0.198697
-0.0126413
-0.00738581
0.158691
-0.0383125
0.18224
-0.0469962
0.193781
-0.0469646
0.199245
-0.0420265
0.201576
-0.0352752
0.202179
-0.0283779
0.201774
-0.0219747
0.200742
-0.0162265
0.199294
-0.0111938
-0.00556675
0.159009
0.182954
0.1947
0.20023
0.202537
0.203059
0.202538
0.20137
0.19978
0.171922
0.0243858
-0.196308
0.155932
0.0159903
0.148627
0.00730495
0.146409
0.00221746
0.146493
-8.36343e-05
0.147395
-0.000901991
0.148409
-0.00101422
0.149252
-0.000842744
0.149822
-0.000570285
-0.000213873
0.237035
0.0914856
-0.304135
0.207752
0.0452728
0.196237
0.0188202
0.192762
0.00569298
0.192658
2.05464e-05
0.193741
-0.00198559
0.195037
-0.00231045
0.196136
-0.00194115
0.196896
-0.00133045
-0.000507527
0.24003
0.15697
-0.305515
0.210755
0.0745482
0.199425
0.0301504
0.196179
0.00893849
0.196247
-4.75369e-05
0.197435
-0.00317304
0.198798
-0.00367349
0.199939
-0.00308269
0.200728
-0.00211938
-0.000813157
0.234725
0.217374
-0.295129
0.208089
0.101184
0.198209
0.04003
0.195756
0.0113917
0.1962
-0.000491466
0.19758
-0.00455367
0.199025
-0.00511828
0.200201
-0.00425846
0.201003
-0.00292136
-0.00112223
0.228946
-0.282966
0.204674
0.196395
0.194913
0.195913
0.197525
0.199072
0.200288
0.201105
0.0179162
-0.000331638
-0.0175846
0.0207816
-0.00286541
0.0265096
-0.00572797
0.0359508
-0.00944122
0.0504132
-0.0144624
0.0707423
-0.0203291
0.0976259
-0.0268836
0.128097
-0.0304707
0.1643
-0.0362038
-0.0320075
0.0499325
-0.00191795
-0.0483462
0.0582696
-0.0112026
0.074008
-0.0214663
0.0978105
-0.0332438
0.129249
-0.0459009
0.166061
-0.0571408
0.204971
-0.0657941
0.241227
-0.0667263
0.275855
-0.0708316
-0.0602877
0.075133
-0.00486537
-0.0721856
0.0871032
-0.0231728
0.108077
-0.0424402
0.136758
-0.0619245
0.169778
-0.0789208
0.202853
-0.0902159
0.232673
-0.0956144
0.25879
-0.0928429
0.283607
-0.0956485
-0.0821957
0.0924944
-0.00885836
-0.0885014
0.105891
-0.0365698
0.127527
-0.0640763
0.154335
-0.0887319
0.182186
-0.106772
0.208249
-0.116279
0.231425
-0.11879
0.25394
-0.115358
0.275246
-0.116955
-0.102078
0.103118
-0.0985012
0.116519
0.136674
0.16011
0.183734
0.206148
0.226885
0.247324
0.262328
0.0986095
-0.0901165
0.0985101
-0.107003
0.089325
-0.0927447
0.102029
0.0794628
-0.0960044
0.105867
0.0687832
-0.0993129
0.109992
0.0572462
-0.102687
0.114224
0.0449012
-0.106186
0.118531
0.0318673
-0.10948
0.122514
0.0185516
-0.110096
0.123412
0.00651579
-0.0983008
0.110337
-0.0523601
0.0588759
0.105256
-0.079675
-0.115698
0.0945449
-0.0820336
0.0831489
-0.0846084
0.0711458
-0.0873097
0.0586246
-0.0901664
0.0456228
-0.0931841
0.0321875
-0.0960451
0.0186545
-0.0965635
0.00653286
-0.0861792
-0.0458273
0.105559
-0.0685208
-0.116714
0.0942363
-0.0707105
0.0825928
-0.0729649
0.0705739
-0.0752908
0.0581344
-0.0777269
0.0452403
-0.08029
0.0319103
-0.082715
0.0184726
-0.0831258
0.00644285
-0.0741495
-0.0393844
0.106939
-0.0572415
-0.118219
0.0954288
-0.0592
0.0835748
-0.0611109
0.0713431
-0.0630592
0.0587046
-0.0650884
0.0456355
-0.0672209
0.0321597
-0.0692392
0.0186068
-0.0695729
0.00649268
-0.0620354
-0.0328917
0.107714
-0.0459317
-0.119024
0.0960855
-0.0475717
0.0841017
-0.0491272
0.0717487
-0.0507062
0.0590062
-0.0523458
0.0458507
-0.0540654
0.0323022
-0.0556907
0.0186847
-0.0559554
0.00651361
-0.0498643
-0.0263781
0.108203
-0.0346063
-0.119529
0.0965251
-0.0358935
0.0844841
-0.0370862
0.0720702
-0.0382924
0.0592658
-0.0395413
0.046049
-0.0408486
0.0324399
-0.0420816
0.0187595
-0.0422751
0.0065301
-0.0376348
-0.019848
0.108475
-0.0232685
-0.119813
0.0967655
-0.0241838
0.0846918
-0.0250124
0.0722449
-0.0258455
0.059408
-0.0267044
0.0461601
-0.0276007
0.032521
-0.0284426
0.0188117
-0.0285657
0.00655587
-0.025379
-0.0132921
0.108541
-0.0119284
-0.119881
0.0968185
-0.012461
0.0847335
-0.0129274
0.0722774
-0.0133894
0.0594332
-0.0138602
0.0461798
-0.0143474
0.0325372
-0.0148
0.0188253
-0.0148539
0.00656509
-0.0131188
-0.00672706
0.108384
-0.000618415
-0.119694
0.0966714
-0.000748631
0.0845984
-0.00085447
0.0721566
-0.000947543
0.0593291
-0.00103275
0.0460952
-0.00111343
0.0324748
-0.00117959
0.0187876
-0.0011667
0.00655124
-0.000882349
-0.000175822
0.108016
-0.119341
0.0963278
0.0842838
0.071876
0.0590876
0.0458976
0.0323264
0.0186937
0.00651351
0.0195971
-0.209767
-0.0229582
0.0153742
-0.216101
0.0110878
-0.219748
0.00689056
-0.223227
0.00277921
-0.227155
-0.00119961
-0.231528
-0.00469775
-0.235025
-0.00626327
-0.231259
-0.0045773
-0.198524
-0.0969539
0.0512993
-0.203084
-0.0579825
0.0432585
-0.20806
0.035162
-0.211652
0.0272907
-0.215356
0.0196339
-0.219498
0.0121801
-0.224074
0.00523877
-0.228084
-0.000384661
-0.225636
-0.00212041
-0.196788
-0.0990743
0.0781138
-0.192489
-0.0887087
0.0667449
-0.196691