/*--------------------------------*- C++ -*----------------------------------*\
  =========                 |
  \\      /  F ield         | OpenFOAM: The Open Source CFD Toolbox
   \\    /   O peration     | Website:  https://openfoam.org
    \\  /    A nd           | Version:  13
     \\/     M anipulation  |
\*---------------------------------------------------------------------------*/
FoamFile
{
    format      ascii;
    class       volScalarField;
    location    "1.265";
    object      p;
}
// * * * * * * * * * * * * * * * * * * * * * * * * * * * * * * * * * * * * * //

dimensions      [0 2 -2 0 0 0 0];

internalField   nonuniform List<scalar> 
440
(
-1.3579
-1.34736
-1.33142
-1.25895
-1.13382
-1.54203
-1.51976
-1.46386
-1.35531
-1.21955
-1.72008
-1.67708
-1.5632
-1.40612
-1.23922
-1.85192
-1.77974
-1.60567
-1.41082
-1.23166
-1.89743
-1.77798
-1.55465
-1.33399
-1.14022
-0.326892
-0.325762
-0.312995
-0.278182
-0.219917
-0.494004
-0.49106
-0.479742
-0.439514
-0.348491
-0.736844
-0.733109
-0.723174
-0.709432
-0.586594
-0.978119
-0.975597
-0.979782
-0.960148
-0.843433
-1.17822
-1.17392
-1.17615
-1.13734
-1.01811
0.104017
0.0171565
0.0687004
0.0443596
0.0139187
0.0289462
0.00891092
0.0639363
0.0420588
0.0131764
-0.0644754
0.00196954
0.0574677
0.0392457
0.0123746
-0.183201
-0.00787341
0.0496411
0.0358175
0.0115034
-0.332558
-0.0251444
0.0407273
0.0317795
0.0104746
-0.40256
-0.0398863
0.0291804
0.0253003
0.00877754
-0.369006
-0.0679507
-0.00126611
0.0104799
0.00469846
-0.322764
-0.0687393
-0.00498204
0.00573503
0.00286406
-0.308477
-0.0950809
-0.021799
-0.00327087
-1.15877e-05
-0.295633
-0.106371
-0.0320922
-0.00865288
-0.00162367
-0.830253
-0.925032
-0.953131
-0.953345
-0.904111
-0.574828
-0.660077
-0.70156
-0.703103
-0.683378
-0.405907
-0.484634
-0.529104
-0.532105
-0.515643
-0.299974
-0.376249
-0.418662
-0.426583
-0.414848
-0.244511
-0.322923
-0.368685
-0.381203
-0.372285
0.437335
0.297779
0.127257
-0.0668838
-0.289114
0.0504704
-0.104993
-0.296195
-0.516972
-0.771119
-0.354951
-0.524264
-0.737082
-0.972823
-1.23582
-0.703688
-0.884993
-1.11828
-1.36793
-1.59643
-0.975486
-1.1668
-1.39815
-1.64376
-1.82192
1.6997
1.72241
1.74578
1.7596
1.75909
1.50245
1.51479
1.52356
1.51788
1.49385
1.25367
1.24331
1.2149
1.16636
1.09467
0.984848
0.949128
0.882586
0.788398
0.667497
0.712663
0.625646
0.507916
0.366013
0.19516
1.56393
1.41462
1.53894
1.51137
1.62858
1.55176
1.40017
1.51737
1.47642
1.53414
1.54011
1.38413
1.49372
1.43122
1.41203
1.52916
1.36699
1.46813
1.37683
1.23745
1.51942
1.34908
1.44192
1.31372
1.04594
1.50854
1.32618
1.40507
1.21436
0.834663
1.49917
1.30167
1.37425
1.12856
0.838067
1.49917
1.28281
1.35174
1.07215
0.840601
1.49633
1.2666
1.33698
1.02992
0.85179
1.52274
1.26332
1.32909
1.00501
0.857879
0.437264
0.149212
-0.187153
-0.470026
-0.691443
0.385814
0.184371
-0.0480218
-0.263182
-0.444741
0.392139
0.214426
0.0337349
-0.13824
-0.285075
0.426522
0.257424
0.0954468
-0.0539056
-0.184825
0.446284
0.283318
0.131805
-0.00731171
-0.131868
-1.31868
-1.17235
-1.00818
-0.874635
-0.794882
-1.33339
-1.27127
-1.14347
-1.02349
-0.941344
-1.20629
-1.16369
-1.08021
-1.00013
-0.925395
-1.03114
-0.982929
-0.96135
-0.941627
-0.918536
-0.933258
-0.899428
-0.901298
-0.924137
-0.912517
-0.953813
-0.954211
-0.963094
-1.06742
-0.997828
-0.850551
-0.868803
-0.890084
-0.995308
-0.847924
-0.568824
-0.576638
-0.59575
-0.602295
-0.511869
-0.356222
-0.35432
-0.347143
-0.317585
-0.263073
-0.273415
-0.27233
-0.262075
-0.230686
-0.182463
-0.292353
-0.00941289
0.0659158
0.0469305
0.0165714
-0.137523
0.0039121
0.0771763
0.0522559
0.0166356
0.00432515
0.00652562
0.0733138
0.0482767
0.0156686
0.101042
0.0169641
0.0748954
0.0478858
0.0152251
0.135721
0.0210064
0.071954
0.0461566
0.0145691
-0.391241
-0.152552
0.0324514
0.0404046
0.0164248
-0.396968
-0.0382062
0.088602
0.0608747
0.0195305
-0.757018
-0.8646
-0.920802
-0.798994
-0.628635
-0.769214
-0.891585
-0.891757
-0.843183
-0.724063
1.54305
1.51869
1.47996
1.42758
1.3589
1.68174
1.70108
1.70897
1.70247
1.68167
1.79616
1.8211
1.83884
1.84561
1.84097
1.84028
1.87293
1.90952
1.94094
1.95559
1.81149
1.84194
1.87651
1.90547
1.91913
-0.385012
-0.484418
-0.644837
-0.836068
-1.07628
0.165531
0.0379884
-0.130504
-0.338348
-0.610764
0.673128
0.540873
0.383016
0.195012
-0.0445136
1.07173
0.972277
0.850563
0.699678
0.516032
1.37763
1.30874
1.21668
1.10466
0.973904
1.62835
1.45803
1.60338
1.55668
1.65225
1.61449
1.4534
1.5948
1.56401
1.6765
1.6017
1.44666
1.58636
1.56358
1.72999
1.589
1.43805
1.57351
1.55527
1.71169
1.57639
1.42731
1.55773
1.53761
1.68641
1.67575
1.46696
1.60145
1.50829
1.56349
1.63856
1.45869
1.59787
1.52699
1.55935
1.25783
1.07648
0.735849
0.214077
-0.357913
1.34712
1.11111
0.748369
0.230489
-0.350561
)
;

boundaryField
{
    left
    {
        type            zeroGradient;
    }
    right
    {
        type            fixedValue;
        value           uniform 0;
    }
    down
    {
        type            zeroGradient;
    }
    up
    {
        type            zeroGradient;
    }
    cylinder
    {
        type            zeroGradient;
    }
    defaultFaces
    {
        type            empty;
    }
}


// ************************************************************************* //
