/*--------------------------------*- C++ -*----------------------------------*\
  =========                 |
  \\      /  F ield         | OpenFOAM: The Open Source CFD Toolbox
   \\    /   O peration     | Website:  https://openfoam.org
    \\  /    A nd           | Version:  13
     \\/     M anipulation  |
\*---------------------------------------------------------------------------*/
FoamFile
{
    format      ascii;
    class       surfaceScalarField;
    location    "6.78";
    object      phi;
}
// * * * * * * * * * * * * * * * * * * * * * * * * * * * * * * * * * * * * * //

dimensions      [0 3 -1 0 0 0 0];

internalField   nonuniform List<scalar> 
823
(
0.00503946
0.0122515
-0.0172909
0.0261427
0.00758154
-0.0286848
0.081643
-0.0279893
-0.0275109
0.175758
-0.0891653
-0.00494926
-0.0961476
-0.0260198
0.297925
0.00493392
0.00731755
0.0475955
-0.03508
0.135073
-0.115467
0.238624
-0.192716
-0.257382
0.399859
0.0202651
-0.0129475
0.102396
-0.117211
0.216247
-0.229318
0.331065
-0.307534
-0.359975
0.433658
0.0423103
-0.0552578
0.141516
-0.216417
0.233553
-0.321355
0.295694
-0.369675
-0.383712
0.319431
0.0585342
-0.113792
0.135775
-0.293657
0.182051
-0.367631
0.199945
-0.387569
0.211041
-0.394808
-0.0106313
-0.0399797
0.050611
-0.0352058
-0.0678535
0.092428
-0.0645208
-0.0711448
0.10046
-0.0927247
-0.0682337
0.0964376
-0.0652915
-0.116654
0.0892209
-0.0207855
-0.0191942
-0.0554442
-0.0331948
-0.0917013
-0.0348877
-0.126023
-0.033912
-0.0345472
-0.156767
-0.0214458
0.00225164
-0.0553359
0.000695225
-0.09211
0.0018864
-0.128848
0.00282626
0.0011462
-0.164542
-0.0138206
0.0160723
-0.0396461
0.0265208
-0.0712417
0.033482
-0.102465
0.0340491
0.0347792
-0.136098
-0.00121868
-0.00338273
0.00258835
0.0316882
0.0404476
0.0768972
-0.585986
0.392435
0.185122
0.468992
-0.577216
0.115029
1.41549
-1.34539
0.35812
-0.0448514
-0.19824
-0.837083
0.714673
-0.00315283
-0.739601
0.0546475
0.411191
0.135866
1.33427
0.49502
-0.404005
-0.928861
-0.109677
-0.794465
-0.0496558
0.351171
0.193364
1.09125
0.58677
-0.797411
-0.99773
-0.13602
-0.794543
-0.0277931
0.242944
0.356392
0.707064
0.668656
-1.10967
-1.04239
0.0142791
-0.768375
0.107951
0.149271
0.530827
0.284188
0.742264
-1.32111
-1.07268
0.867133
-0.533655
-1.10185
0.808783
0.207622
1.28742
-0.194451
1.35885
-1.39254
-0.944779
1.19806
-0.342354
-1.38936
1.27055
0.135136
1.5487
-0.472607
1.35878
-1.20261
-0.711685
1.20801
-0.180014
-1.37034
1.35995
-0.0168084
1.44638
-0.559035
1.06953
-0.825764
-0.42127
1.20699
-0.0923487
-1.29465
1.30845
-0.118267
1.15802
-0.408607
0.690424
-0.358171
-0.124631
0.835499
-0.927848
0.717232
0.308624
-0.0495463
1.10205
0.175335
-1.06634
1.1835
0.237977
1.27648
0.34068
1.25359
0.422745
0.449666
1.03646
0.10954
-0.970663
1.10594
0.168497
1.20343
0.243185
1.30563
0.320553
0.365931
0.96284
0.0600098
-0.91331
1.02042
0.110915
1.11457
0.149032
1.23711
0.198013
0.232699
0.880674
0.0209969
-0.841661
0.946733
0.0448557
1.03721
0.0585515
1.15655
0.0786811
0.094593
0.651166
-0.630169
0.696022
0.754573
0.833255
0.13763
0.299508
-0.245338
-0.191799
0.0911438
0.304617
-0.258131
0.0502898
0.314894
-0.27404
0.016796
0.306394
-0.2729
0.198099
-0.181303
0.097862
0.336696
-0.135051
0.0621089
0.34037
0.0305282
0.346475
0.00581289
0.331109
0.203912
0.0633117
0.371055
-0.0976707
0.0311585
0.372523
0.0045678
0.373065
-0.00797442
0.343652
0.195937
-0.0214007
0.386256
0.00619958
-0.0359133
0.387036
-0.0415858
0.378738
-0.03065
0.332716
0.165287
-0.101128
0.0925757
-0.101661
-0.0905539
-0.0514952
0.199461
0.0991807
-0.25256
-0.0460818
0.145452
0.103256
-0.0492472
0.090266
0.107634
-0.052448
0.0366684
0.107383
-0.0537854
0.0762614
-0.0395929
0.197226
0.143962
-0.242007
0.14998
0.150502
0.0974335
0.16018
0.0414667
0.16335
0.117728
0.144902
0.188602
-0.189542
0.102922
0.192481
0.0621243
0.200978
0.0232599
0.202214
0.140988
0.156485
0.221551
-0.189434
0.116674
0.232292
0.071751
0.245901
0.0279229
0.246042
0.168911
0.0932274
-0.117015
0.0673885
0.0392499
0.012392
0.404405
0.0746137
-0.083039
0.424904
0.00133082
-0.0218302
0.411515
0.183212
-0.169822
0.39168
0.191329
-0.171494
0.431384
-0.292264
0.402332
0.0682615
0.420269
-0.0166064
0.401436
0.202044
0.379532
0.213233
0.568909
0.397391
0.0668505
0.415449
-0.0346649
0.38032
0.237173
0.363793
0.22976
0.74316
0.395705
0.0671247
0.402502
-0.041461
0.364703
0.274972
0.337107
0.257356
0.890833
0.390433
0.0726714
0.390233
-0.0412615
0.333821
0.331385
0.316465
0.274712
1.09028
0.632191
0.0445004
0.653798
-0.0628686
0.678763
0.30642
0.753304
0.200171
0.847307
0.996281
0.650809
-0.00228786
0.644979
-0.0570385
0.694949
0.256449
0.759472
0.135648
0.584827
1.02195
0.652119
-0.0503861
0.633697
-0.0386164
0.699536
0.19061
0.799783
0.035401
0.34475
1.03986
0.624964
-0.0713293
0.618087
-0.03174
0.739977
0.0687198
0.80203
-0.0266519
0.163881
0.982899
0.532691
0.500951
0.569671
0.543019
0.7069
1.02512
-0.220642
1.02035
-0.130275
1.02403
-0.101351
1.02451
0.00572113
0.0507385
0.973974
-0.172664
0.961455
-0.117756
0.936936
-0.0768322
0.954277
-0.01162
0.034353
0.970402
-0.103206
0.935815
-0.0831693
0.901096
-0.0421132
0.906726
-0.01725
0.0277697
0.912847
-0.0331537
0.860602
-0.0309249
0.832385
-0.0138956
0.825007
-0.00987232
0.0111157
0.673747
0.642822
0.628926
0.619054
0.0556816
0.159275
-0.214957
0.0820638
0.351261
-0.377643
0.0823349
0.407849
-0.40812
0.0714298
0.411188
-0.400283
0.379035
0.0585958
-0.366201
0.0825956
0.0766794
0.163049
0.270808
0.20017
0.370728
0.20456
0.406798
0.401948
0.181647
0.067234
0.00944545
0.197131
0.14091
0.301573
0.266287
0.374052
0.334319
0.394766
0.381234
0.0299064
-0.020461
0.142152
0.0286644
0.280268
0.128172
0.415486
0.1991
0.278908
0.531344
0.00329303
-0.023754
0.0549591
-0.0230016
0.166204
0.0169264
0.304423
0.060882
0.115606
0.467724
-0.00923972
-0.0145143
-0.00109316
-0.0311482
0.0484804
-0.0326471
0.132978
-0.0236152
0.00697212
0.241612
-0.0017574
-0.0127569
0.00711327
-0.0400188
0.0321145
-0.0576484
0.0717309
-0.0632315
-0.0582177
0.136921
0.0126422
-0.0253991
0.0395588
-0.0669355
0.0707272
-0.0888168
0.101359
-0.0938635
-0.0904392
0.133581
0.0178638
-0.0432629
0.043084
-0.0921557
0.0636253
-0.109358
0.0786819
-0.10892
-0.10046
0.0887024
0.00734807
0.00762044
-0.00127789
-0.0137603
-0.0249991
0.468514
0.596689
-0.823592
0.44068
0.566515
-0.538681
0.249113
0.392296
-0.200729
0.109381
0.212776
-0.0730443
-0.147141
0.104146
0.48379
0.24982
0.416993
0.633312
0.158783
0.650506
0.0474952
0.324064
-0.240879
0.40761
-0.0242091
0.352363
0.688559
0.072661
0.930208
0.0300096
0.366715
-0.391406
0.275049
-0.210555
0.29313
0.670477
0.0508068
1.17253
0.0872572
0.330265
-0.561163
0.15688
0.250141
0.0772783
0.209303
0.0869848
0.606966
-0.693951
-0.129324
0.216309
-0.0790781
-0.0502458
0.00897941
-0.0880575
-0.075328
0.96316
-1.17979
0.640788
0.389813
0.228711
0.0961657
-0.0160813
-0.0800843
0.155715
-0.0595492
0.279971
-0.124256
0.464621
-0.18465
-0.22933
0.215622
-0.173107
0.33772
0.594697
0.941391
0.146467
-0.147287
0.178207
-0.177387
0.112517
-0.153272
0.187222
0.0731661
-0.161078
0.200429
0.0300764
-0.1613
0.20439
-0.113346
0.143423
0.186929
-0.106831
-0.227385
0.141328
-0.107671
0.0898728
-0.109623
0.037172
-0.1086
-0.0761743
0.187666
-0.0563219
-0.238175
0.13626
-0.0562647
0.08443
-0.0577929
0.0343326
-0.0585022
-0.0418417
0.202553
-0.00473594
-0.254138
0.150386
-0.00409834
0.0963153
-0.00372209
0.0407918
-0.00297865
-0.00104987
0.206922
-0.25774
0.153577
0.0974068
0.0406428
0.0423677
-0.342502
-0.0660666
0.0158699
-0.373785
-0.00816218
-0.384088
-0.0180593
-0.367746
-0.233016
0.13241
-0.308838
-0.166074
0.085951
-0.327326
0.0413107
-0.339448
0.00803168
-0.334467
-0.224984
0.150744
-0.26575
-0.193833
0.106576
-0.283157
0.062939
-0.295811
0.022616
-0.294144
-0.202368
0.174012
-0.228502
-0.21126
0.127897
-0.237042
0.0784054
-0.24632
0.0313585
-0.247097
-0.17101
0.166005
-0.216301
0.116185
0.0702943
0.0275871
0.38612
0.10379
-0.0939305
0.392695
0.0750202
-0.0815952
0.359396
0.157301
-0.124002
0.309063
0.0401205
0.010212
-0.244263
0.375939
0.39316
0.10661
0.404148
0.0640325
0.397972
0.163477
0.352502
0.0855905
-0.119146
0.39937
0.10322
0.412663
0.0507388
0.410647
0.165493
0.375366
0.120872
0.0180448
0.405148
0.0940512
0.41843
0.0374569
0.418505
0.165418
0.391606
0.147771
0.155512
0.406992
0.422619
0.418215
0.394492
0.41806
0.0919912
0.337818
0.0802421
0.250743
0.0870747
0.263214
-0.0124711
-0.202364
0.465578
0.508112
0.506759
0.469831
0.467572
0.641147
0.373028
0.0925496
0.291053
0.0819756
0.195286
0.0957671
0.113571
0.0817149
0.0334864
0.517396
0.388112
0.290046
0.205688
)
;

boundaryField
{
    left
    {
        type            calculated;
        value           nonuniform List<scalar> 
17
(
-0.60402
-0.60402
-0.60402
-0.60402
-0.60402
-0.39598
-0.39598
-0.39598
-0.39598
-0.39598
-0.39598
-0.39598
-0.39598
-0.39598
-0.39598
-0.510051
-0.510051
)
;
    }
    right
    {
        type            calculated;
        value           nonuniform List<scalar> 
17
(
0.0843074
0.257529
0.152376
0.141233
0.180536
0.257015
0.362813
0.48053
0.586798
0.655639
0.71332
0.772546
1.23095
1.12568
0.779114
0.393785
-0.174178
)
;
    }
    down
    {
        type            calculated;
        value           uniform 0;
    }
    up
    {
        type            calculated;
        value           uniform 0;
    }
    cylinder
    {
        type            calculated;
        value           uniform 0;
    }
    defaultFaces
    {
        type            empty;
    }
}


// ************************************************************************* //
