/*--------------------------------*- C++ -*----------------------------------*\
  =========                 |
  \\      /  F ield         | OpenFOAM: The Open Source CFD Toolbox
   \\    /   O peration     | Website:  https://openfoam.org
    \\  /    A nd           | Version:  13
     \\/     M anipulation  |
\*---------------------------------------------------------------------------*/
FoamFile
{
    format      ascii;
    class       volVectorField;
    location    "70.5";
    object      U;
}
// * * * * * * * * * * * * * * * * * * * * * * * * * * * * * * * * * * * * * //

dimensions      [0 1 -1 0 0 0 0];

internalField   nonuniform List<vector> 
440
(
(-0.125281 0.0936762 -7.12697e-20)
(-0.149304 0.113612 -1.27623e-19)
(-0.0236371 0.0437909 9.51179e-20)
(0.325118 0.0683575 -6.30369e-20)
(0.27714 0.165839 3.75224e-20)
(-0.0818849 0.0483653 3.27654e-20)
(0.0493079 0.0283348 -7.19122e-20)
(0.508813 -0.0268221 -7.24061e-20)
(1.03034 -0.0476346 4.95445e-20)
(1.50757 -0.0634716 7.03456e-21)
(-0.0235515 0.0100928 5.22585e-20)
(0.456603 -0.0325289 6.29332e-19)
(1.19196 -0.0219631 -3.61376e-19)
(1.77689 0.00203128 -1.20006e-18)
(2.2654 0.0273474 5.06455e-19)
(0.180367 -0.040877 -1.64304e-19)
(1.11721 0.00296489 -4.86625e-19)
(1.88022 0.0714208 1.55221e-18)
(2.30974 0.116917 1.71156e-18)
(2.41877 0.128226 -4.73507e-19)
(0.518726 -0.00730573 -2.78185e-19)
(1.65307 0.174653 -5.79473e-19)
(2.20173 0.257697 1.76001e-18)
(2.34871 0.273158 1.9162e-18)
(2.41555 0.252969 6.55321e-19)
(0.0241314 -0.189729 -6.05847e-20)
(0.0905642 -0.372227 -2.08815e-19)
(0.1362 -0.396106 3.26653e-19)
(0.178999 -0.315683 -4.23567e-20)
(0.195558 -0.140605 -2.82094e-19)
(0.105259 -0.306829 2.78734e-20)
(0.249206 -0.52037 6.85632e-20)
(0.309603 -0.529227 1.19295e-20)
(0.355654 -0.442168 3.65446e-20)
(0.310314 -0.273172 -1.11342e-19)
(0.22248 -0.446697 5.16325e-19)
(0.356683 -0.659705 7.49973e-19)
(0.375404 -0.655713 1.70671e-19)
(0.372402 -0.571942 -1.91141e-18)
(0.275799 -0.420239 2.13221e-20)
(0.216756 -0.407099 2.35287e-19)
(0.155574 -0.621997 -4.02366e-19)
(0.00255094 -0.671867 7.3924e-19)
(-0.177782 -0.65199 1.0388e-18)
(-0.354964 -0.496348 8.20631e-20)
(-0.0257658 -0.0708711 -3.10719e-20)
(-0.217814 -0.202301 -2.89634e-20)
(-0.352048 -0.298437 -2.05049e-19)
(-0.401588 -0.33252 4.35444e-19)
(-0.53104 -0.274077 1.25493e-18)
(0.453301 1.196 3.11852e-19)
(-0.0195128 0.559279 -6.46437e-19)
(1.42303 -1.11113 4.81805e-19)
(1.15909 -0.860159 -6.20188e-19)
(1.34797 -0.299965 -1.05605e-19)
(0.880749 1.10815 -9.72563e-19)
(0.441191 0.486513 3.1431e-19)
(1.60785 -1.22203 2.18115e-19)
(1.28987 -0.910821 8.79095e-19)
(1.39465 -0.311591 1.44178e-19)
(0.590453 0.763969 -1.1879e-18)
(0.790644 0.44266 -2.71487e-18)
(1.95406 -1.23244 -1.08051e-19)
(1.2737 -0.899987 5.33644e-19)
(1.31986 -0.29963 2.2184e-21)
(-0.609084 0.649006 5.97418e-19)
(1.29003 0.290594 2.73607e-19)
(2.2471 -1.14355 7.88189e-19)
(1.44283 -0.818792 -3.0648e-19)
(1.24019 -0.283801 -6.46224e-21)
(-0.980412 0.114796 -2.42928e-19)
(1.89984 -0.121272 1.01556e-18)
(2.25415 -1.1451 0)
(1.47724 -0.759948 9.56184e-20)
(1.18025 -0.240663 -2.62661e-22)
(0.844183 0.0448762 -2.19377e-19)
(2.3174 -0.347276 -2.40615e-19)
(2.41319 -0.924288 -1.93119e-20)
(1.48522 -0.650939 8.73203e-20)
(1.17983 -0.209539 2.05386e-20)
(1.80492 0.150316 -1.58346e-20)
(2.65727 -0.489809 8.02764e-19)
(2.41133 -0.817401 -1.45634e-20)
(1.17929 -0.371019 -3.90109e-20)
(1.00513 -0.0933779 0)
(2.13952 0.041502 -1.62143e-19)
(2.51079 -0.478807 -1.01691e-20)
(1.92241 -0.441647 3.07788e-19)
(1.24206 -0.201226 2.94072e-20)
(1.10913 -0.119895 -1.51227e-20)
(2.16321 0.00761762 9.84669e-20)
(2.31813 -0.38365 1.8982e-19)
(1.39384 -0.338598 -1.36822e-20)
(1.02786 -0.0771522 -3.2614e-34)
(0.859217 -0.0418056 1.91144e-20)
(1.59845 -0.0982097 6.08238e-20)
(1.00759 -0.0623154 1.00969e-19)
(0.403301 0.0424316 -2.64253e-20)
(0.260145 -0.0443934 -1.65395e-20)
(0.0624575 -0.0336907 1.97895e-21)
(2.33765 0.244378 -8.12413e-19)
(2.48723 0.0836582 -9.7875e-19)
(2.42719 0.06799 7.24489e-19)
(2.49959 -0.0382047 4.62485e-20)
(2.0705 0.000735137 -4.2365e-20)
(2.13672 0.0987836 6.43865e-20)
(2.2484 0.106974 -3.65123e-20)
(2.29354 -0.0682574 -1.12945e-19)
(2.30183 -0.0178501 -2.19199e-19)
(2.33976 -0.256609 -1.92142e-21)
(2.08862 0.0203383 6.95922e-20)
(2.11949 0.0753705 8.84885e-20)
(2.18733 -0.0965964 -9.88579e-20)
(2.17116 -0.0139459 3.36456e-20)
(2.24475 -0.184756 7.37029e-21)
(1.98668 -0.00137735 1.05769e-19)
(2.04502 0.0366604 1.37882e-19)
(2.0718 -0.0648658 -1.64768e-20)
(2.09907 -0.012455 -4.7928e-20)
(2.13326 -0.11404 2.22402e-20)
(1.45308 -0.0139144 1.68229e-19)
(1.48236 -0.0181451 -1.07971e-20)
(1.46442 -0.0189614 1.67674e-20)
(1.49521 -0.0304739 -2.97014e-20)
(1.46113 -0.0221386 -1.39943e-20)
(1.52601 0.851471 1.02634e-18)
(1.49026 0.945488 -3.1856e-19)
(1.49082 1.06753 -1.23293e-18)
(1.41863 1.1027 6.78541e-19)
(0.869022 0.781713 -1.65685e-19)
(1.79723 0.790342 -5.32257e-19)
(1.77247 0.86876 -2.83748e-18)
(1.7794 0.974932 -1.10122e-18)
(1.68751 0.979923 -3.81871e-19)
(1.02034 0.669031 -6.09754e-19)
(2.07899 0.68733 7.18269e-19)
(2.06532 0.750528 1.8157e-19)
(2.04522 0.827174 -2.17009e-18)
(1.90271 0.807675 -5.86779e-19)
(1.10336 0.516994 4.1808e-19)
(2.235 0.558659 2.19705e-18)
(2.23197 0.608464 1.58942e-18)
(2.22239 0.654423 -1.80889e-18)
(1.99372 0.606228 -1.35118e-18)
(1.06479 0.333943 -2.36548e-19)
(2.38504 0.40915 1.02985e-18)
(2.38441 0.432402 -7.3808e-19)
(2.28397 0.447753 5.32904e-19)
(1.93182 0.385973 4.07962e-19)
(0.872338 0.14017 -3.38499e-19)
(0.578281 0.400617 -7.15105e-19)
(0.487777 0.433472 -5.82186e-19)
(0.368188 0.466896 7.60071e-20)
(0.228331 0.469892 -2.56713e-20)
(0.0552493 0.332715 6.47991e-20)
(0.677024 0.574095 4.84668e-20)
(0.611343 0.628414 -3.23104e-19)
(0.520179 0.691669 1.66655e-19)
(0.391428 0.74505 -7.70172e-20)
(0.166422 0.568109 1.10589e-19)
(0.775138 0.775447 2.00489e-19)
(0.700779 0.853767 3.9729e-19)
(0.640072 0.948369 5.72876e-20)
(0.551836 0.995258 -2.6881e-19)
(0.299823 0.740132 2.18122e-19)
(1.03382 0.864045 2.01124e-19)
(0.984723 0.948816 -6.0036e-19)
(0.932393 1.04737 -1.74842e-18)
(0.846935 1.1122 7.14223e-19)
(0.497967 0.826631 -1.71534e-19)
(1.13107 0.909468 -1.20243e-19)
(1.15075 1.02749 -1.93918e-19)
(1.16647 1.14189 -3.21399e-19)
(1.1098 1.17311 -3.71012e-19)
(0.680724 0.842323 -6.06547e-21)
(1.00583 0.0455543 -7.87548e-20)
(1.00095 0.00632678 -2.90263e-20)
(1.05137 0.125405 -1.43178e-21)
(0.942581 0.108662 -1.7095e-19)
(0.897361 0.236712 2.8469e-19)
(0.991997 0.0441458 4.81049e-20)
(1.02134 -0.00198911 1.10004e-19)
(1.03517 0.139472 9.83235e-20)
(0.96803 0.132177 1.86592e-20)
(0.931844 0.320824 2.1242e-20)
(0.998506 0.0427335 6.31475e-20)
(1.01076 -0.0113536 -4.29271e-21)
(1.0732 0.158391 -3.28448e-21)
(0.917984 0.13702 1.37449e-19)
(1.13167 0.4544 -4.16222e-19)
(0.994724 0.0413854 -3.26949e-22)
(1.03467 -0.0228427 -1.63014e-19)
(1.05651 0.186131 -5.49088e-20)
(1.00015 0.135103 -3.32389e-19)
(1.16007 0.501846 8.28533e-20)
(0.998893 0.0313251 -9.60127e-21)
(1.03733 -0.0180162 4.73965e-20)
(1.08762 0.189081 2.62965e-20)
(0.982182 0.163747 4.314e-19)
(1.36412 0.638858 -4.10334e-19)
(0.970819 0.0281061 -1.33461e-21)
(1.10835 -0.0396534 9.37695e-20)
(1.03359 0.227739 -6.00353e-20)
(1.23329 0.0883119 8.91918e-19)
(1.35216 0.654426 -3.6123e-19)
(0.925971 -0.00624625 -1.44405e-21)
(1.19824 -0.0232987 -7.22772e-20)
(0.910384 0.157221 4.72136e-21)
(1.36324 0.0568825 -3.10146e-19)
(1.28842 0.479686 -1.07145e-20)
(0.986753 -0.0294482 -6.22352e-22)
(1.1175 -0.0022133 1.46272e-35)
(0.99051 0.134936 -4.76479e-21)
(1.29383 -0.000148058 9.32085e-20)
(1.31988 0.360802 1.45361e-19)
(1.0894 -0.0670734 4.03445e-21)
(0.888632 0.00205088 -3.37057e-20)
(1.23039 0.0540007 1.81927e-20)
(1.15906 -0.0264721 2.61009e-20)
(1.40185 0.224295 -2.16447e-19)
(0.972921 -0.0227971 -4.13059e-20)
(0.720393 -0.0175574 -2.65093e-21)
(1.02424 -0.00765352 2.00156e-20)
(0.734432 -0.0111607 -1.67023e-20)
(1.05688 0.075653 -4.87135e-20)
(1.74152 0.655147 2.84639e-19)
(1.84442 0.639258 7.075e-19)
(2.07025 0.540468 -9.90948e-19)
(2.14877 0.474403 3.49774e-20)
(2.3336 0.31193 4.22005e-19)
(1.64592 0.471344 4.31114e-20)
(1.70477 0.413531 9.11209e-19)
(1.88778 0.391396 9.516e-20)
(1.94093 0.270378 -8.31102e-19)
(2.10055 0.241241 -2.63144e-19)
(1.64029 0.326276 -2.01898e-19)
(1.73708 0.262407 -1.41386e-19)
(1.85854 0.258149 1.88327e-19)
(1.93753 0.146807 -2.67577e-19)
(2.02194 0.165513 2.4411e-19)
(1.6643 0.195782 3.34534e-19)
(1.73397 0.153828 -2.55295e-21)
(1.8337 0.145293 2.07875e-19)
(1.87616 0.0773428 1.73292e-19)
(1.95951 0.0883002 -1.71958e-19)
(1.26355 0.0542714 -4.15534e-20)
(1.33359 0.0352643 2.20975e-19)
(1.3872 0.0225912 9.63436e-20)
(1.41673 0.00426979 -2.03682e-19)
(1.45138 -0.00331292 3.54844e-22)
(1.40197 -0.0321262 8.31004e-20)
(2.4998 -0.00878639 -6.26611e-19)
(2.71815 -0.00359925 1.67213e-18)
(2.68307 0.0477291 7.81204e-19)
(2.42335 0.0512632 -5.295e-19)
(0.954857 0.112238 1.93216e-19)
(2.29543 0.147493 -6.88414e-19)
(2.70354 0.161066 -9.84347e-19)
(2.70346 0.167174 1.35552e-18)
(2.5139 0.166077 -1.01291e-18)
(0.351543 0.121344 -1.35748e-20)
(1.7165 0.247822 8.42741e-19)
(2.46127 0.304493 1.34006e-19)
(2.73835 0.324618 1.48921e-18)
(2.68081 0.286072 8.30381e-19)
(0.00228057 0.0103498 2.64663e-19)
(0.833932 0.205618 3.08095e-19)
(1.75627 0.34136 -9.87771e-19)
(2.31231 0.412061 9.99511e-20)
(2.73782 0.454577 9.38889e-19)
(-0.102967 -0.0842895 2.0967e-19)
(0.167137 0.0398272 -2.39697e-19)
(0.865951 0.233699 -1.33789e-19)
(1.45365 0.377361 2.39871e-19)
(2.13133 0.55802 1.52329e-19)
(-0.0978991 -0.118568 4.26671e-20)
(-0.0761171 -0.11101 1.29186e-19)
(0.261617 -0.00892622 4.00494e-20)
(0.552864 0.137146 -1.91693e-19)
(1.39549 0.432745 3.26035e-21)
(-0.0883802 -0.161458 -4.32461e-20)
(-0.121238 -0.249283 -3.65518e-20)
(0.00208161 -0.219344 8.07138e-20)
(0.13074 -0.0717727 -4.60503e-20)
(0.634586 0.278386 -1.15063e-21)
(-0.0771767 -0.196934 -5.96936e-20)
(-0.120056 -0.300493 -9.5415e-20)
(-0.0801627 -0.257181 7.99636e-20)
(-0.0205164 -0.115796 2.67591e-19)
(0.155449 0.138897 1.82009e-19)
(-0.04927 -0.185458 -1.57999e-20)
(-0.087981 -0.290422 -1.57512e-20)
(-0.0754421 -0.252965 -5.94087e-20)
(-0.0316933 -0.125162 2.06677e-19)
(0.0330234 0.0747968 1.9016e-20)
(-0.0175575 -0.166542 1.73439e-20)
(-0.0242994 -0.307135 -5.05276e-20)
(-0.00401177 -0.312624 2.03239e-20)
(0.0338343 -0.208025 -3.54296e-20)
(0.0796709 -0.0151763 -2.42062e-19)
(1.61314 0.714401 -1.55872e-20)
(0.744302 0.406852 -4.2182e-19)
(-0.248169 -0.0582823 -2.32636e-19)
(0.730548 -0.348811 1.23116e-19)
(0.974268 -0.0535689 -1.58696e-21)
(1.54893 0.700082 1.07338e-19)
(0.30158 0.66295 1.52969e-18)
(-0.191035 -0.0770037 -2.43423e-19)
(0.623976 -0.557679 1.33538e-21)
(1.10237 -0.0854092 1.78234e-20)
(1.1241 0.748603 2.54829e-19)
(-0.98477 0.804929 2.54833e-18)
(0.499406 -0.272706 2.12804e-19)
(0.429661 -0.701078 -1.32684e-20)
(1.13887 -0.145109 2.28289e-20)
(0.605892 0.890686 -2.20071e-20)
(-1.81675 0.723313 -3.68512e-18)
(0.957228 -0.627277 -1.31791e-18)
(0.530529 -0.763782 1.67938e-20)
(1.18215 -0.223786 -5.79966e-21)
(0.387672 1.08794 7.06707e-20)
(-1.02439 0.700109 -3.86483e-19)
(1.22479 -0.925091 8.72385e-19)
(0.893338 -0.834276 -1.09645e-19)
(1.2813 -0.291196 -1.16132e-19)
(-0.261274 0.079495 -3.06379e-20)
(-0.429048 -0.187307 0)
(-0.4999 -0.121271 -1.07714e-19)
(0.130813 -0.0906757 4.17582e-20)
(0.447779 -0.0245136 -2.76021e-20)
(1.79657 0.645475 0)
(1.0345 0.324571 0)
(0.128904 -0.0425034 3.31718e-19)
(0.662279 -0.217935 -6.58432e-21)
(0.806612 -0.058147 2.13907e-20)
(0.764914 0.0073997 -1.34812e-19)
(0.855622 0.00248536 3.82728e-19)
(0.936574 0.0461486 -2.46034e-20)
(0.865811 0.0215462 3.89184e-19)
(1.18632 0.219826 2.21644e-19)
(1.73512 0.0462182 1.31211e-19)
(1.97473 0.0949377 5.65584e-19)
(2.02685 0.204978 -9.2675e-19)
(2.40082 0.277305 3.9223e-19)
(2.39443 0.49033 6.48042e-19)
(0.98641 -0.538728 3.76703e-20)
(0.978402 -0.639115 -2.25485e-19)
(0.978514 -0.748436 -1.99896e-19)
(0.913998 -0.827667 1.18853e-19)
(0.56509 -0.660739 1.53466e-19)
(0.882099 -0.449376 1.05285e-19)
(0.826505 -0.521384 1.23759e-19)
(0.750126 -0.598755 -1.24656e-19)
(0.633716 -0.667381 1.59439e-19)
(0.354291 -0.538258 3.84707e-20)
(0.691747 -0.311175 -1.09168e-19)
(0.601167 -0.357834 -6.38952e-20)
(0.500755 -0.416969 -2.26297e-20)
(0.384297 -0.469614 -5.79275e-20)
(0.181875 -0.376457 -1.4798e-19)
(0.579629 -0.0802062 -4.37408e-19)
(0.494509 -0.102506 -3.48773e-19)
(0.384607 -0.135205 2.862e-19)
(0.255682 -0.173776 1.38044e-19)
(0.0812419 -0.157598 1.28187e-20)
(0.546326 0.129215 -1.33452e-19)
(0.460485 0.126713 -1.55262e-19)
(0.341779 0.119933 -3.46647e-20)
(0.200499 0.116608 6.03039e-20)
(0.0357071 0.084662 1.50028e-20)
(2.26461 -0.0213539 1.0259e-18)
(2.48298 -0.098257 3.79574e-19)
(2.57838 -0.192475 -9.52878e-19)
(2.46976 -0.219817 -2.04142e-18)
(1.5406 -0.222981 1.54432e-19)
(2.16137 -0.133229 1.67888e-18)
(2.29245 -0.250471 2.18348e-18)
(2.33224 -0.381994 1.81797e-19)
(2.26834 -0.445321 3.16491e-19)
(1.49223 -0.422465 -2.12506e-19)
(1.90383 -0.307321 -4.2274e-18)
(1.95479 -0.432129 4.77739e-19)
(1.99556 -0.567898 1.34864e-18)
(1.95645 -0.655311 -5.41235e-19)
(1.29967 -0.582441 8.6154e-19)
(1.63207 -0.442289 1.04347e-18)
(1.65524 -0.550631 -2.74356e-18)
(1.66067 -0.682181 -3.16334e-18)
(1.60732 -0.783074 9.95714e-19)
(1.05516 -0.667397 6.50821e-19)
(1.33626 -0.512898 2.37386e-19)
(1.29014 -0.615541 3.0078e-19)
(1.27959 -0.747519 -4.8775e-19)
(1.2289 -0.846799 -5.93429e-19)
(0.791068 -0.691889 -5.71666e-21)
(1.05993 0.0513119 6.84375e-21)
(0.947037 0.0455936 1.91922e-21)
(1.13146 0.07289 1.08643e-20)
(0.841686 -0.0132846 -2.73521e-19)
(1.18818 -0.242863 -2.27949e-20)
(1.06951 0.0535034 -2.28415e-21)
(0.940334 0.0397233 2.19166e-20)
(1.12918 0.0912066 1.04254e-20)
(0.912758 0.0267868 2.39936e-19)
(1.05782 -0.129172 7.95538e-21)
(1.06666 0.0497749 -5.40858e-20)
(0.942824 0.0312712 -5.35315e-23)
(1.11203 0.0955361 -3.15159e-21)
(0.906413 0.0432555 1.29445e-19)
(1.01015 -0.0686429 -2.87547e-19)
(1.04767 0.0481779 6.37666e-20)
(0.965739 0.0230472 2.55766e-21)
(1.07637 0.102545 1.76868e-20)
(0.940677 0.0688892 -6.33385e-20)
(0.893562 0.0405131 5.24649e-20)
(1.0212 0.0455038 1.56845e-20)
(0.993377 0.0170731 -2.26299e-20)
(1.04677 0.111276 2.8792e-20)
(0.956718 0.0915651 3.52546e-20)
(0.85833 0.137005 -5.33848e-21)
(0.88685 0.0335271 0)
(0.722086 0.0272949 8.0947e-21)
(0.623788 0.0207459 7.47157e-21)
(0.378892 -0.0108969 5.81116e-20)
(0.752623 -0.0610699 -1.88572e-19)
(1.0287 0.0723466 -6.18622e-20)
(0.956383 0.0653823 2.1514e-21)
(1.04441 0.0748039 -7.18961e-20)
(0.839941 -0.013028 -1.625e-19)
(1.11133 -0.223336 -1.98172e-19)
(1.05412 -0.0682233 -4.33559e-20)
(1.14678 -0.0380525 6.27058e-19)
(1.25941 0.0371335 3.72836e-19)
(1.12102 0.0632111 2.91905e-20)
(0.878141 0.0346019 0)
(1.41314 -0.337758 4.25569e-19)
(1.5422 -0.297045 1.79851e-18)
(1.74425 -0.171497 -1.95411e-18)
(1.83975 -0.0201176 -6.27416e-19)
(1.79642 0.0411411 4.69862e-19)
)
;

boundaryField
{
    left
    {
        type            fixedValue;
        value           uniform (1 0 0);
    }
    right
    {
        type            zeroGradient;
    }
    down
    {
        type            noSlip;
    }
    up
    {
        type            noSlip;
    }
    cylinder
    {
        type            noSlip;
    }
    defaultFaces
    {
        type            empty;
    }
}


// ************************************************************************* //
