# Selection   : all
# Cells       : 440
# Volume      : 7.374263e+01
# Time        	min(p)
1.1           	-1.915600e+00
1.15          	-1.906071e+00
1.2           	-1.904543e+00
