/*--------------------------------*- C++ -*----------------------------------*\
  =========                 |
  \\      /  F ield         | OpenFOAM: The Open Source CFD Toolbox
   \\    /   O peration     | Website:  https://openfoam.org
    \\  /    A nd           | Version:  13
     \\/     M anipulation  |
\*---------------------------------------------------------------------------*/
FoamFile
{
    format      ascii;
    class       volScalarField;
    location    "4.105";
    object      p;
}
// * * * * * * * * * * * * * * * * * * * * * * * * * * * * * * * * * * * * * //

dimensions      [0 2 -2 0 0 0 0];

internalField   nonuniform List<scalar>
440
(
-1.02830485592
-1.01285495474
-1.01041448005
-0.946766887375
-1.05994885911
-1.06443988321
-1.05346177521
-1.02276668697
-0.981107455208
-0.961293971086
-1.16308613357
-1.1402178611
-1.10365101184
-1.06297540428
-1.02490294192
-1.27826001591
-1.23605504745
-1.16072990075
-1.07430958036
-0.988035855535
-1.3631829636
-1.30926100142
-1.17593053058
-1.04138579543
-0.920032230951
-0.989031469834
-0.997194224706
-1.01680093365
-1.04918116237
-1.08673777246
-1.0771375721
-1.0770689888
-1.08894005419
-1.11742330823
-1.15629016672
-1.10835530386
-1.10447484364
-1.10523564378
-1.1150570615
-1.14800226734
-1.08691586611
-1.07747188361
-1.06479348902
-1.049871711
-1.07363534656
-1.03687768751
-1.02503646134
-1.00233096764
-0.95848310865
-0.999795282556
-1.3235620704
-0.831206607569
-0.34609464078
-0.0305301691354
0.0414420132664
-1.40530588586
-1.02111281279
-0.383217117031
-0.0462275713482
0.0410619194418
-1.38223291614
-1.15181012636
-0.423304363839
-0.0668755345631
0.0327259334705
-1.24954515434
-1.22132245548
-0.4698237032
-0.0930968703346
0.0181837051572
-1.16595405748
-1.2407725074
-0.517155329254
-0.123552757698
0.00204151254784
-0.942505753684
-1.13712502909
-0.513706764531
-0.151539742082
-0.0196693683494
-0.741368272953
-0.895829195265
-0.48107931968
-0.177093444981
-0.0394544043233
-0.65276330354
-0.740460209358
-0.509908905933
-0.22756234438
-0.0517484768755
-0.54236724587
-0.615073689479
-0.516069757474
-0.268160859248
-0.068674800737
-0.434939321266
-0.520044845609
-0.523221896465
-0.296259502521
-0.0737849896519
-0.718952147017
-0.828114362782
-1.02001850117
-1.21109018444
-1.3166429615
-0.506104225087
-0.63288313811
-0.722583276523
-0.782979448564
-0.797578982669
-0.3571771281
-0.469438581014
-0.535661288699
-0.589115923991
-0.62915593302
-0.271800745174
-0.372584258161
-0.445271051645
-0.494072633217
-0.530932076101
-0.233115651883
-0.33344362673
-0.406345164608
-0.447562958112
-0.465329992843
0.66487249958
0.518236164481
0.328123682781
0.118621242001
-0.0967743486167
0.248610996917
0.0954054424308
-0.0870023501006
-0.294711436149
-0.526755013134
-0.143785276991
-0.295269301676
-0.487450247637
-0.702648270766
-0.923231872543
-0.513218597526
-0.66491678998
-0.851981632535
-1.05560509966
-1.21576949386
-0.751152194982
-0.902172228529
-1.07459174631
-1.25759421789
-1.35333523398
1.6274007219
1.65476063068
1.67945206259
1.69069078488
1.68647496125
1.43883318364
1.4563366699
1.46733478394
1.46261145618
1.43708408621
1.24035642804
1.22882155924
1.19284539133
1.13424308056
1.05158342303
1.01286395569
0.982864235662
0.917421569915
0.823084835546
0.704760912958
0.838750265194
0.732945384298
0.59774456513
0.447314387116
0.270433962496
1.45607310918
1.45059280002
1.43097231834
1.49129639555
1.52549431913
1.44653041842
1.44206892217
1.41182520861
1.47607809115
1.42988821269
1.43798162267
1.43029641592
1.39080411556
1.44856709916
1.30212161226
1.43038231357
1.41712601971
1.36789074453
1.40709120722
1.13040693084
1.42385849549
1.40315621646
1.34510221462
1.36571754626
0.944364950584
1.4182002661
1.38123864379
1.31681652718
1.26700279063
0.73860484257
1.41277084764
1.35262658679
1.30893392602
1.18219021359
0.912094058786
1.41970152277
1.33904719557
1.30013977937
1.13344654762
0.963950368718
1.41577561857
1.31614506179
1.29609837789
1.07804054403
0.985800338016
1.45046897144
1.31327309412
1.29122436847
1.04552447413
0.994128974289
0.625783309083
0.320739648503
-0.0174502657704
-0.339137363459
-0.529554617405
0.470391062771
0.263450524439
0.0366560085927
-0.178495882217
-0.359368455518
0.435435304415
0.262988417029
0.0911052445055
-0.0668908681641
-0.229497110036
0.472108743713
0.300524212554
0.141383827195
-0.00279840940681
-0.147522278176
0.497005529774
0.325657268992
0.170941075633
0.030156960121
-0.110422847151
-1.55357211116
-1.4362675097
-1.28855592405
-1.16681382438
-1.0934571932
-1.64567038027
-1.59315597306
-1.48138170973
-1.38574855634
-1.32559859513
-1.60165266234
-1.56980130711
-1.50768205475
-1.45250808065
-1.41142696283
-1.49690404596
-1.47516885512
-1.44640492261
-1.41445418004
-1.3786625394
-1.41287130292
-1.40782649151
-1.40064462284
-1.37741385382
-1.33692311369
-1.32311994537
-1.32522945319
-1.33063809197
-1.31504760138
-1.26177332222
-1.23537041244
-1.23362917127
-1.23068615418
-1.2236741781
-1.19861486086
-1.19220148928
-1.19689435822
-1.20326410687
-1.21370214193
-1.22036169939
-1.06314326421
-1.07575981309
-1.09769122205
-1.12564986691
-1.14745343475
-0.984797533207
-0.994604159707
-1.01460999959
-1.04284848667
-1.07117690622
-1.13391581365
-0.498309233894
-0.279254147058
-0.0714157820024
0.00233709342397
-1.10284051564
-0.435916354622
-0.241079151732
-0.0525685182031
0.00968010786628
-1.10424345463
-0.448969584405
-0.231981929227
-0.0257851239417
0.0199547213525
-1.14291250005
-0.512228588219
-0.260331944487
-0.0156195218352
0.0284075475326
-1.21200819834
-0.63237611416
-0.303639335106
-0.0177504617517
0.0362192723421
-0.918478907081
-0.620410898425
-0.384012473018
-0.102527511529
-0.0012430632714
-1.08718388683
-0.563146548187
-0.334960908934
-0.0964699933733
0.00204831221619
-1.04824651717
-1.28992157591
-1.380421907
-1.32837603424
-1.17870890151
-1.06690806505
-1.29906792484
-1.38850820057
-1.33486708816
-1.2813308725
1.3156787506
1.29615865755
1.26195554646
1.2141441594
1.15179762382
1.49560455591
1.51437111542
1.52159616341
1.5153185446
1.49570564661
1.64397950196
1.67394558124
1.70017864192
1.71636727948
1.71918101657
1.72426081252
1.75854612394
1.79523122326
1.82517696626
1.8392155367
1.71756879154
1.74837326273
1.78120888304
1.80689251101
1.81765286082
-0.668382822426
-0.759803871741
-0.901560439665
-1.07486682136
-1.26495105458
-0.108994599658
-0.226758634918
-0.383700278624
-0.5724541715
-0.799390158473
0.392513578073
0.269212238271
0.123670388242
-0.0464499303264
-0.25058646196
0.798373095178
0.704405988047
0.589962620626
0.451842019472
0.290356430299
1.12189079337
1.05602748065
0.970959372503
0.869854192136
0.754501493724
1.51408963207
1.48000988952
1.462844963
1.46551612188
1.46048198786
1.49975084281
1.4762279552
1.46251739048
1.48211767959
1.51557862767
1.48783001551
1.47156756143
1.46107920644
1.50107339405
1.58325685555
1.47657623567
1.46578391428
1.45532023544
1.5072683073
1.59258126013
1.46594356684
1.45918434864
1.44457372418
1.50533780137
1.57760483845
1.567299643
1.4881137795
1.45006927164
1.39728816673
1.32848994996
1.52391696192
1.47658513612
1.44837335767
1.4163478687
1.34824072069
1.00680396078
0.799615080723
0.442768422276
-0.0728700614886
-0.64123665438
1.08483134296
0.830792907574
0.45949103927
-0.0528795578796
-0.633423313335
)
;

boundaryField
{
    left
    {
        type            zeroGradient;
    }
    right
    {
        type            fixedValue;
        value           uniform 0;
    }
    down
    {
        type            zeroGradient;
    }
    up
    {
        type            zeroGradient;
    }
    cylinder
    {
        type            zeroGradient;
    }
    defaultFaces
    {
        type            empty;
    }
}


// ************************************************************************* //
