# Selection   : all
# Cells       : 1800
# Volume      : 7.372328e+01
# Time        	min(p)
4.45          	-3.860757e+00
4.475         	-3.321964e+00
4.5           	-3.240662e+00
