/*--------------------------------*- C++ -*----------------------------------*\
  =========                 |
  \\      /  F ield         | OpenFOAM: The Open Source CFD Toolbox
   \\    /   O peration     | Website:  https://openfoam.org
    \\  /    A nd           | Version:  13
     \\/     M anipulation  |
\*---------------------------------------------------------------------------*/
FoamFile
{
    format      ascii;
    class       volScalarField;
    location    "3.15";
    object      p;
}
// * * * * * * * * * * * * * * * * * * * * * * * * * * * * * * * * * * * * * //

dimensions      [0 2 -2 0 0 0 0];

internalField   nonuniform List<scalar> 
1800
(
-1.24823
-1.24744
-1.24357
-1.2354
-1.22337
-1.2098
-1.19763
-1.1915
-1.19144
-1.23703
-1.27584
-1.27376
-1.26973
-1.26288
-1.25352
-1.24235
-1.23133
-1.22349
-1.2186
-1.24612
-1.31769
-1.31265
-1.30691
-1.2998
-1.29139
-1.28185
-1.2717
-1.26189
-1.25446
-1.25653
-1.36981
-1.36148
-1.35297
-1.34405
-1.33425
-1.32286
-1.3094
-1.29409
-1.27803
-1.26321
-1.43568
-1.42421
-1.4129
-1.40116
-1.38743
-1.37003
-1.34811
-1.32198
-1.29296
-1.26315
-1.51675
-1.50249
-1.48778
-1.47111
-1.44931
-1.42057
-1.38509
-1.34457
-1.30118
-1.2572
-1.61068
-1.594
-1.5744
-1.54907
-1.51407
-1.46907
-1.41669
-1.36047
-1.30337
-1.24797
-1.71041
-1.69158
-1.66453
-1.62571
-1.57255
-1.50789
-1.43722
-1.36526
-1.29506
-1.22844
-1.80508
-1.78375
-1.74604
-1.68935
-1.61473
-1.52943
-1.44113
-1.35486
-1.27312
-1.1971
-1.88132
-1.85648
-1.80537
-1.72801
-1.63123
-1.52649
-1.42249
-1.32367
-1.23175
-1.14709
-1.12026
-1.12539
-1.1323
-1.14386
-1.16204
-1.18637
-1.21544
-1.24825
-1.2856
-1.32923
-1.22751
-1.23036
-1.23521
-1.24684
-1.26666
-1.29392
-1.32701
-1.36445
-1.40616
-1.45371
-1.32089
-1.32062
-1.32298
-1.33411
-1.35459
-1.38331
-1.41863
-1.45875
-1.50243
-1.55035
-1.3789
-1.37438
-1.37433
-1.38401
-1.40358
-1.4319
-1.46733
-1.50811
-1.55231
-1.59847
-1.39502
-1.38651
-1.38328
-1.38965
-1.40581
-1.43083
-1.4633
-1.50166
-1.54417
-1.58833
-1.37662
-1.36591
-1.35936
-1.36004
-1.36851
-1.38467
-1.40787
-1.43703
-1.4709
-1.50632
-1.34021
-1.33012
-1.32155
-1.31592
-1.3139
-1.31644
-1.32421
-1.33736
-1.35581
-1.37813
-1.30107
-1.29381
-1.28549
-1.27588
-1.26529
-1.25513
-1.24723
-1.24311
-1.24415
-1.25338
-1.26686
-1.26314
-1.25657
-1.24553
-1.23035
-1.21263
-1.19494
-1.18004
-1.17076
-1.17205
-1.24408
-1.24288
-1.23779
-1.22725
-1.21175
-1.19291
-1.17389
-1.15856
-1.14963
-1.15046
-1.5598
-1.37974
-0.644522
-0.213008
-0.0357333
0.047285
0.0599096
0.0513435
0.0324268
0.0123292
-1.70663
-1.55946
-0.783612
-0.28086
-0.0580504
0.0393257
0.0565452
0.0495337
0.0312847
0.0118495
-1.82537
-1.73252
-0.919778
-0.35362
-0.0861533
0.0267473
0.0504702
0.0461864
0.0294297
0.0111165
-1.8895
-1.87257
-1.04469
-0.426541
-0.118483
0.0101581
0.0418209
0.0413152
0.0268605
0.0101269
-1.88467
-1.96815
-1.15375
-0.49651
-0.153627
-0.00964723
0.0309132
0.0350398
0.0236062
0.00889291
-1.8093
-2.0165
-1.2432
-0.56256
-0.190906
-0.0320071
0.0181409
0.0275708
0.0197372
0.00744544
-1.67234
-2.01955
-1.31142
-0.624291
-0.230102
-0.0565733
0.00379892
0.019134
0.015361
0.00583358
-1.50339
-1.9892
-1.35862
-0.680615
-0.270729
-0.0831596
-0.0120274
0.0098496
0.0105725
0.00411678
-1.34516
-1.94133
-1.38801
-0.730495
-0.311647
-0.111394
-0.0293496
-0.000319548
0.00537837
0.00233459
-1.20986
-1.88424
-1.40727
-0.775356
-0.351926
-0.140644
-0.0480077
-0.0114129
-0.000277236
0.000483328
-1.08178
-1.79893
-1.36026
-0.775846
-0.377741
-0.169941
-0.0703699
-0.0258894
-0.00790179
-0.00196874
-1.04178
-1.54899
-1.21624
-0.73748
-0.395139
-0.201893
-0.0973979
-0.0439506
-0.0172922
-0.00495235
-0.993868
-1.31653
-1.09084
-0.710721
-0.416451
-0.233029
-0.123329
-0.0610555
-0.0261143
-0.00760469
-0.941441
-1.13013
-0.984371
-0.689656
-0.441269
-0.267615
-0.152149
-0.0800966
-0.0359683
-0.0104837
-0.879728
-0.985689
-0.895663
-0.679341
-0.473991
-0.306128
-0.179738
-0.0961741
-0.0437632
-0.0124861
-0.813983
-0.876062
-0.823914
-0.675163
-0.508398
-0.345522
-0.208002
-0.112824
-0.0516912
-0.0142449
-0.749925
-0.790518
-0.766885
-0.677522
-0.545103
-0.382147
-0.232166
-0.125188
-0.0570129
-0.015017
-0.691382
-0.729251
-0.72783
-0.680445
-0.570003
-0.405138
-0.247429
-0.133524
-0.0605384
-0.0153812
-0.651395
-0.69933
-0.709184
-0.678202
-0.577981
-0.412691
-0.253799
-0.137598
-0.0623109
-0.0154681
-0.628184
-0.697739
-0.714262
-0.678236
-0.5743
-0.409861
-0.254588
-0.139459
-0.0637616
-0.0160615
-1.00084
-1.06227
-1.10806
-1.14472
-1.17269
-1.20292
-1.23167
-1.26543
-1.27278
-1.27503
-0.833786
-0.902739
-0.958288
-1.00607
-1.04527
-1.07918
-1.10541
-1.12364
-1.13342
-1.14297
-0.700976
-0.77135
-0.831081
-0.882186
-0.92416
-0.95778
-0.983739
-1.00369
-1.01953
-1.03652
-0.592107
-0.661727
-0.72231
-0.774198
-0.817096
-0.852797
-0.881399
-0.907116
-0.928932
-0.952179
-0.503326
-0.571366
-0.631045
-0.682968
-0.726407
-0.76415
-0.795221
-0.823911
-0.848355
-0.872868
-0.43148
-0.497696
-0.556034
-0.6073
-0.650692
-0.68868
-0.720398
-0.748965
-0.773357
-0.796444
-0.374629
-0.439044
-0.495962
-0.545782
-0.58823
-0.624732
-0.655397
-0.68194
-0.704787
-0.725418
-0.332139
-0.395064
-0.450592
-0.498518
-0.539327
-0.573354
-0.601875
-0.625327
-0.645496
-0.662395
-0.306678
-0.368548
-0.423055
-0.469814
-0.509519
-0.541681
-0.568231
-0.588549
-0.605731
-0.61802
-0.295356
-0.35757
-0.412355
-0.459477
-0.49912
-0.531368
-0.557298
-0.57648
-0.591509
-0.599081
0.443352
0.368999
0.283896
0.192809
0.0943949
-0.0138057
-0.131629
-0.252353
-0.353585
-0.402584
0.236683
0.156562
0.0672579
-0.0304461
-0.138487
-0.25853
-0.389354
-0.522487
-0.633
-0.685089
0.0103124
-0.0725976
-0.164408
-0.266281
-0.380415
-0.50806
-0.647306
-0.78835
-0.90517
-0.958229
-0.207645
-0.293938
-0.389829
-0.496826
-0.616813
-0.750744
-0.89646
-1.04242
-1.16263
-1.21414
-0.403659
-0.49465
-0.595968
-0.708843
-0.834905
-0.974842
-1.12567
-1.2757
-1.39155
-1.44277
-0.578636
-0.674292
-0.780466
-0.898125
-1.02867
-1.17314
-1.32601
-1.47329
-1.58554
-1.63507
-0.732535
-0.831608
-0.940876
-1.06128
-1.19392
-1.33849
-1.4895
-1.63151
-1.73703
-1.78296
-0.868815
-0.968012
-1.07689
-1.19651
-1.32754
-1.46867
-1.61335
-1.74551
-1.84032
-1.88124
-0.984347
-1.08071
-1.18631
-1.30197
-1.42772
-1.56115
-1.69446
-1.81175
-1.89294
-1.92812
-1.07739
-1.16876
-1.26858
-1.3772
-1.49382
-1.61491
-1.73187
-1.83026
-1.89634
-1.92591
1.79846
1.81305
1.82807
1.84235
1.85501
1.86535
1.87267
1.87697
1.88047
1.88456
1.72611
1.7374
1.74833
1.75782
1.76514
1.76959
1.77045
1.76806
1.76573
1.76635
1.63265
1.63966
1.64528
1.64861
1.64913
1.64613
1.63892
1.62816
1.61845
1.61486
1.51996
1.52215
1.52144
1.51727
1.50944
1.49723
1.48
1.45885
1.43999
1.43151
1.38778
1.38411
1.37613
1.36361
1.34658
1.32428
1.29609
1.26352
1.23449
1.22059
1.24019
1.23059
1.21441
1.19213
1.16426
1.13012
1.08922
1.04367
1.00331
0.983324
1.07712
1.06101
1.03662
1.00471
0.965932
0.919546
0.865185
0.805741
0.753324
0.727041
0.908038
0.884387
0.849551
0.805627
0.753962
0.693873
0.625089
0.551192
0.486564
0.45397
0.737832
0.706555
0.660855
0.60413
0.53838
0.463021
0.37809
0.288269
0.210705
0.17193
0.581855
0.532318
0.46863
0.395819
0.314869
0.22416
0.123506
0.0184584
-0.0711482
-0.115425
1.53615
1.52094
1.51097
1.50682
1.50606
1.51153
1.5321
1.56992
1.63358
1.73328
1.52963
1.51545
1.50612
1.50093
1.49981
1.50264
1.5208
1.55277
1.60622
1.68819
1.52369
1.50998
1.50111
1.49462
1.49295
1.49261
1.50813
1.53249
1.57329
1.63127
1.51829
1.50458
1.49596
1.4879
1.48551
1.48142
1.49415
1.50888
1.53534
1.56185
1.5134
1.49931
1.49067
1.4808
1.47749
1.46909
1.47886
1.48171
1.49303
1.4788
1.50899
1.49418
1.48524
1.47336
1.46885
1.45567
1.46216
1.45093
1.44661
1.38135
1.50507
1.48924
1.47967
1.46565
1.45955
1.44125
1.44393
1.41654
1.39617
1.26787
1.50166
1.48449
1.47395
1.45769
1.44957
1.42592
1.42395
1.37877
1.34148
1.13989
1.49877
1.47995
1.46809
1.44951
1.43892
1.40983
1.40205
1.3378
1.2807
0.995581
1.49644
1.47563
1.46215
1.44111
1.42778
1.39318
1.37932
1.29548
1.21665
0.84653
1.49418
1.47076
1.45441
1.43062
1.41233
1.37126
1.34688
1.24316
1.14274
0.705534
1.4932
1.46606
1.44569
1.4191
1.39416
1.34822
1.31069
1.19867
1.07057
0.687726
1.49414
1.46244
1.43693
1.40831
1.37569
1.32726
1.27631
1.16353
1.01218
0.68247
1.49755
1.45991
1.42832
1.39838
1.35743
1.30861
1.24447
1.13605
0.964888
0.682805
1.50401
1.45837
1.41979
1.38945
1.33882
1.29256
1.21523
1.11543
0.928474
0.686063
1.51424
1.45782
1.41149
1.38145
1.32073
1.27904
1.18926
1.10041
0.901584
0.688004
1.52793
1.45639
1.40199
1.37165
1.30266
1.26719
1.16709
1.08893
0.882799
0.689044
1.55303
1.45951
1.39601
1.3637
1.28671
1.25737
1.14924
1.08084
0.870693
0.690767
1.56534
1.45192
1.38353
1.35138
1.27346
1.25082
1.13759
1.07683
0.865295
0.694913
1.6417
1.4649
1.38742
1.34787
1.26771
1.24832
1.13217
1.07649
0.86287
0.700207
0.431431
0.263509
0.0631365
-0.13029
-0.303222
-0.457761
-0.595686
-0.720302
-0.829626
-0.924159
0.38628
0.254251
0.103098
-0.0498556
-0.191586
-0.32248
-0.442322
-0.55584
-0.65946
-0.753964
0.376435
0.264635
0.143665
0.0184564
-0.10322
-0.219965
-0.330366
-0.435577
-0.532225
-0.62172
0.395605
0.291518
0.18291
0.0740651
-0.033364
-0.138223
-0.2397
-0.336883
-0.428644
-0.514156
0.419365
0.321023
0.220356
0.121703
0.024652
-0.0710523
-0.165495
-0.257203
-0.345185
-0.427579
0.442575
0.34961
0.255191
0.163377
0.073317
-0.0162574
-0.105763
-0.193807
-0.278681
-0.35828
0.46386
0.376027
0.286779
0.199639
0.113808
0.0278572
-0.0584545
-0.143751
-0.22606
-0.30348
0.482937
0.399752
0.314771
0.230582
0.146652
0.0621475
-0.0226726
-0.10631
-0.186776
-0.262405
0.499898
0.420439
0.338671
0.255653
0.171418
0.0862687
0.0012259
-0.0821753
-0.162303
-0.237567
0.51307
0.4354
0.35453
0.270537
0.184605
0.0981337
0.0124804
-0.0710739
-0.151088
-0.226261
-1.3974
-1.36267
-1.28868
-1.19487
-1.09905
-1.01135
-0.93577
-0.873505
-0.824927
-0.7905
-1.4649
-1.43421
-1.37243
-1.29239
-1.20814
-1.12948
-1.06094
-1.00423
-0.960332
-0.930432
-1.47279
-1.44556
-1.39692
-1.33343
-1.26406
-1.19717
-1.13756
-1.08734
-1.04797
-1.02084
-1.43293
-1.40851
-1.37188
-1.32525
-1.27256
-1.2197
-1.1711
-1.12916
-1.09565
-1.07201
-1.36315
-1.3414
-1.31425
-1.28194
-1.24495
-1.20633
-1.16929
-1.13591
-1.10785
-1.08583
-1.28243
-1.2637
-1.24333
-1.22113
-1.19629
-1.16977
-1.14337
-1.11849
-1.09673
-1.07922
-1.20588
-1.19075
-1.1753
-1.15942
-1.14249
-1.12473
-1.10687
-1.08985
-1.07446
-1.06117
-1.14193
-1.13079
-1.11931
-1.10745
-1.09509
-1.08231
-1.06958
-1.05694
-1.04649
-1.03814
-1.09288
-1.08556
-1.07764
-1.06891
-1.05952
-1.04976
-1.04012
-1.03147
-1.02348
-1.0259
-1.05644
-1.0524
-1.04756
-1.04143
-1.03429
-1.02662
-1.01908
-1.01332
-1.0069
-1.01622
-1.02969
-1.02805
-1.02511
-1.02063
-1.01499
-1.00868
-1.00269
-0.998063
-0.993006
-0.977149
-1.01339
-1.01245
-1.01014
-1.00619
-1.00102
-0.995324
-0.989692
-0.9846
-0.978801
-0.960772
-1.00741
-1.00631
-1.00451
-1.00189
-0.998623
-0.995069
-0.991639
-0.988538
-0.985089
-0.979891
-1.00423
-1.00359
-1.00345
-1.004
-1.00527
-1.00743
-1.01062
-1.01486
-1.01989
-1.02625
-0.994721
-0.995691
-0.997887
-1.00167
-1.0072
-1.01456
-1.02377
-1.03469
-1.04675
-1.05981
-0.977518
-0.980813
-0.985466
-0.991798
-1.00036
-1.01127
-1.02431
-1.03895
-1.05453
-1.07247
-0.957162
-0.962674
-0.969421
-0.977633
-0.988252
-1.00153
-1.01707
-1.03423
-1.05371
-1.08027
-0.94632
-0.953375
-0.961354
-0.970582
-0.982678
-0.997766
-1.0151
-1.03426
-1.05711
-1.08795
-0.967299
-0.974696
-0.983153
-0.99342
-1.00731
-1.02479
-1.04495
-1.06739
-1.09406
-1.128
-1.0267
-1.0334
-1.04148
-1.05252
-1.06852
-1.08927
-1.11358
-1.14086
-1.17259
-1.21082
-1.02027
-1.17583
-0.738303
-0.457203
-0.283627
-0.106541
-0.00769775
0.0232597
0.0223125
0.00969822
-1.09654
-1.21486
-0.67564
-0.351067
-0.21346
-0.0799215
-0.00216728
0.0234129
0.0219355
0.00955115
-1.18309
-1.22779
-0.595731
-0.244341
-0.149578
-0.0547733
0.00496622
0.0255217
0.0226888
0.00979221
-1.2651
-1.22232
-0.512833
-0.15425
-0.0963911
-0.0308938
0.0142966
0.0294699
0.0243142
0.010289
-1.32426
-1.20467
-0.443553
-0.0916744
-0.0576791
-0.00858962
0.0252805
0.0345396
0.0264012
0.010905
-1.34835
-1.1747
-0.397192
-0.0603897
-0.0331728
0.0118038
0.0365829
0.0398513
0.0285485
0.011519
-1.33501
-1.13217
-0.378408
-0.0592826
-0.0184713
0.0288711
0.0464086
0.0445584
0.0304206
0.0120368
-1.31193
-1.1052
-0.386631
-0.0777354
-0.0116565
0.0411638
0.053818
0.0482054
0.0318245
0.0124033
-1.33798
-1.13115
-0.431907
-0.109769
-0.0122609
0.048297
0.0585415
0.0506045
0.0326612
0.0125877
-1.42392
-1.22221
-0.520883
-0.154965
-0.0203238
0.0503205
0.0605667
0.0516742
0.0328754
0.0125692
-0.874076
-0.871218
-0.719824
-0.606506
-0.382873
-0.13965
-0.0107025
0.0284604
0.0267442
0.0115897
-0.868569
-0.862832
-0.716432
-0.609619
-0.388865
-0.142032
-0.011065
0.028373
0.0266106
0.0114857
-0.878912
-0.898736
-0.726773
-0.609948
-0.391845
-0.144314
-0.0118299
0.0275226
0.0259446
0.0111959
-0.908549
-0.97914
-0.742942
-0.595589
-0.383347
-0.141215
-0.0121546
0.0260135
0.0247866
0.0107077
-0.95858
-1.09698
-0.755042
-0.536731
-0.341521
-0.129019
-0.0114632
0.0242405
0.0234535
0.0101707
-0.756147
-0.889683
-0.981092
-1.04019
-1.05732
-1.0631
-1.04887
-1.0223
-0.992386
-0.954399
-0.756923
-0.892556
-0.982627
-1.04038
-1.0525
-1.05861
-1.04216
-1.0121
-0.987803
-0.946545
-0.759234
-0.89638
-0.985602
-1.0418
-1.05127
-1.05746
-1.03792
-1.01202
-0.990779
-0.958513
-0.764711
-0.903701
-0.993172
-1.04731
-1.05759
-1.06018
-1.04082
-1.02092
-1.00314
-0.993116
-0.774125
-0.915396
-1.00568
-1.05782
-1.07004
-1.06681
-1.05026
-1.03163
-1.01697
-1.02714
1.4341
1.42556
1.4107
1.39233
1.37122
1.34643
1.31733
1.28567
1.259
1.24682
1.53406
1.53669
1.53331
1.52577
1.51513
1.5009
1.48259
1.46154
1.44377
1.43615
1.63027
1.63799
1.64136
1.64161
1.63947
1.63448
1.62604
1.61493
1.6055
1.60219
1.71472
1.7267
1.73609
1.74335
1.74871
1.75162
1.7514
1.74841
1.74579
1.74634
1.78579
1.801
1.81468
1.82688
1.8376
1.84627
1.85221
1.8555
1.85828
1.86196
1.83895
1.85626
1.87319
1.88935
1.90438
1.9177
1.92858
1.9368
1.94377
1.94999
1.87326
1.89188
1.91086
1.92951
1.9472
1.96333
1.97717
1.98838
1.99792
2.00575
1.88685
1.90585
1.9257
1.94548
1.96436
1.9817
1.99678
2.0092
2.01977
2.02824
1.87909
1.89758
1.91708
1.93652
1.95496
1.97176
1.98617
1.99786
2.00779
2.01587
1.84965
1.86669
1.8846
1.90221
1.91858
1.93304
1.94487
1.95385
1.96142
1.96803
-0.602653
-0.643134
-0.696408
-0.762994
-0.843546
-0.93731
-1.04108
-1.14485
-1.22832
-1.26681
-0.37363
-0.420008
-0.477921
-0.548085
-0.631535
-0.728301
-0.836875
-0.94718
-1.03714
-1.07801
-0.116603
-0.168424
-0.230611
-0.303577
-0.388525
-0.485999
-0.594405
-0.705296
-0.800573
-0.842245
0.148794
0.0932058
0.0285163
-0.0453895
-0.12966
-0.225001
-0.330149
-0.43844
-0.530611
-0.573718
0.403511
0.347017
0.282859
0.21108
0.130597
0.0404953
-0.0584074
-0.160159
-0.245984
-0.28745
0.63384
0.580353
0.520591
0.454595
0.381272
0.299564
0.21001
0.117912
0.0405174
0.00265814
0.836793
0.789919
0.737922
0.680698
0.617087
0.545965
0.467714
0.387057
0.319436
0.286339
1.01946
0.980595
0.937532
0.890077
0.836949
0.776998
0.710531
0.641734
0.58421
0.55628
1.19019
1.1584
1.12252
1.08329
1.03952
0.98999
0.934858
0.87767
0.830073
0.807319
1.33988
1.31485
1.2848
1.25285
1.21832
1.17974
1.13677
1.09195
1.05469
1.03722
1.65245
1.56086
1.54051
1.5324
1.52948
1.54203
1.5587
1.58607
1.5883
1.54479
1.6348
1.55967
1.54026
1.53353
1.53084
1.54382
1.56304
1.59503
1.61391
1.60851
1.61887
1.55749
1.53907
1.5336
1.53126
1.54444
1.56617
1.60394
1.63895
1.6702
1.60454
1.55448
1.53714
1.53274
1.53079
1.54393
1.56773
1.60983
1.65864
1.71907
1.59163
1.55081
1.53461
1.53105
1.52952
1.5424
1.56757
1.61282
1.67285
1.75672
1.57996
1.54659
1.53157
1.52859
1.52745
1.53986
1.56569
1.61289
1.68129
1.7825
1.56941
1.54195
1.52809
1.52543
1.52461
1.53628
1.56215
1.61
1.68372
1.79641
1.55985
1.53697
1.52424
1.52161
1.52101
1.53167
1.55699
1.60418
1.68007
1.79854
1.55118
1.53177
1.52008
1.51721
1.5167
1.52602
1.55025
1.59554
1.6705
1.78866
1.54331
1.5264
1.51564
1.51226
1.51171
1.51932
1.54194
1.58413
1.65501
1.76682
1.82003
1.5647
1.53307
1.51967
1.51897
1.52822
1.53315
1.54119
1.49067
1.44449
1.74558
1.55868
1.53406
1.52248
1.52051
1.52928
1.5339
1.54254
1.49312
1.44168
1.72257
1.56346
1.53765
1.52541
1.52235
1.53129
1.53665
1.54683
1.50345
1.44289
1.69575
1.5629
1.53929
1.52808
1.52457
1.53431
1.54231
1.55583
1.52269
1.45503
1.6724
1.56179
1.54013
1.53043
1.52703
1.53811
1.54948
1.56881
1.55026
1.47798
1.22572
1.12732
0.994801
0.824276
0.618045
0.382664
0.128879
-0.127557
-0.369251
-0.580904
1.22063
1.1254
0.998078
0.832398
0.631161
0.399248
0.145983
-0.113115
-0.359956
-0.577432
1.23148
1.13255
1.00339
0.839539
0.641929
0.412457
0.158998
-0.102828
-0.354071
-0.576283
1.2631
1.15107
1.01199
0.84633
0.650608
0.422376
0.16806
-0.096531
-0.351724
-0.578259
1.31624
1.1832
1.02598
0.85284
0.655842
0.428079
0.173515
-0.0931506
-0.352287
-0.583694
)
;

boundaryField
{
    left
    {
        type            zeroGradient;
    }
    right
    {
        type            fixedValue;
        value           uniform 0;
    }
    down
    {
        type            zeroGradient;
    }
    up
    {
        type            zeroGradient;
    }
    cylinder
    {
        type            zeroGradient;
    }
    defaultFaces
    {
        type            empty;
    }
}


// ************************************************************************* //
