/*--------------------------------*- C++ -*----------------------------------*\
  =========                 |
  \\      /  F ield         | OpenFOAM: The Open Source CFD Toolbox
   \\    /   O peration     | Website:  https://openfoam.org
    \\  /    A nd           | Version:  13
     \\/     M anipulation  |
\*---------------------------------------------------------------------------*/
FoamFile
{
    format      ascii;
    class       surfaceScalarField;
    location    "3.15";
    object      phi;
}
// * * * * * * * * * * * * * * * * * * * * * * * * * * * * * * * * * * * * * //

dimensions      [0 3 -1 0 0 0 0];

internalField   nonuniform List<scalar> 
3485
(
-0.00188361
0.00392107
-0.00203746
-0.00418404
0.00753069
-0.00523026
-0.00461013
0.00799515
-0.00756906
-0.0014514
0.00558241
-0.00874114
0.00672163
0.000165807
-0.00833884
0.0208807
-0.00810914
-0.0060499
0.0418658
-0.0193703
-0.00161487
0.0703662
-0.0331753
0.00467492
0.106604
-0.0489972
0.0127591
-0.05682
0.0176131
0.145811
-0.000829023
0.00475009
-0.000827688
0.00752935
0.00208219
0.00508527
0.00968734
-0.00202273
0.0233255
-0.0134724
0.0439563
-0.0287399
0.0715181
-0.046932
0.105222
-0.0668791
0.143583
-0.0873581
-0.103206
0.189969
0.000357721
0.00439237
0.00329482
0.00459225
0.0107246
-0.0023445
0.0243077
-0.0156059
0.0449735
-0.0341382
0.0725757
-0.0563421
0.105789
-0.0801448
0.142356
-0.103447
0.179704
-0.124706
-0.142313
0.218811
0.00124812
0.00314425
0.00700509
-0.00116472
0.0191414
-0.0144808
0.0387571
-0.0352216
0.0655911
-0.0609722
0.0978179
-0.088569
0.132587
-0.114914
0.166876
-0.137736
0.198058
-0.155889
-0.169154
0.224899
0.00226041
0.000883841
0.0110628
-0.00996713
0.0279164
-0.0313344
0.0526833
-0.0599885
0.0831449
-0.0914337
0.115736
-0.12116
0.146853
-0.146031
0.173852
-0.164735
0.195388
-0.177424
-0.185504
0.211738
0.00349167
-0.00260783
0.0154917
-0.0219672
0.036385
-0.0522277
0.0639708
-0.0875742
0.0940942
-0.121557
0.122544
-0.14961
0.146501
-0.169988
0.164926
-0.183161
0.178269
-0.190767
-0.1946
0.187365
0.00483224
-0.00744007
0.0196707
-0.0368056
0.0428954
-0.0754524
0.070103
-0.114782
0.0963372
-0.147791
0.118283
-0.171556
0.134827
-0.186531
0.146492
-0.194826
0.154462
-0.198737
-0.200182
0.160044
0.00607714
-0.0135172
0.0227556
-0.053484
0.045994
-0.0986909
0.0700682
-0.138856
0.0907009
-0.168424
0.106199
-0.187054
0.116851
-0.197183
0.123818
-0.201793
0.128343
-0.203262
-0.203046
0.131208
0.00700429
-0.0205215
0.0241287
-0.0706085
0.045296
-0.119858
0.0648272
-0.158387
0.0798486
-0.183445
0.0900375
-0.197243
0.0963816
-0.203527
0.100155
-0.205566
0.102353
-0.20546
-0.204273
0.10358
0.00745973
-0.0279812
0.0236335
-0.0867822
0.0414459
-0.137671
0.0561667
-0.173108
0.0662776
-0.193556
0.0722872
-0.203252
0.0754101
-0.20665
0.0767716
-0.206928
0.0771179
-0.205806
0.0767652
-0.203921
-0.00380133
0.0208287
-0.0170274
-0.012758
0.0434245
-0.0344678
-0.0246459
0.0534241
-0.0415362
-0.037949
0.056566
-0.0432629
-0.0518386
0.0566891
-0.0427995
-0.0659354
0.0556906
-0.0415938
-0.0800598
0.054228
-0.0401036
-0.0940872
0.0524323
-0.0384049
-0.107903
0.0503152
-0.0364993
0.0482193
-0.12145
-0.0346719
-0.00104782
0.0218766
-0.00564905
0.0480258
-0.0133088
0.0610838
-0.0228296
0.0660867
-0.03319
0.0670496
-0.0437694
0.0662701
-0.0542476
0.0647062
-0.0644401
0.0626248
-0.0741903
0.0600655
0.0573154
-0.0832864
0.00196556
0.019911
0.00291567
0.0470756
0.00108901
0.0629105
-0.00310003
0.0702758
-0.00861443
0.072564
-0.0145899
0.0722455
-0.020509
0.0706253
-0.0261053
0.068221
-0.0312043
0.0651645
0.0616145
-0.0355034
0.00432355
0.0155875
0.0106933
0.0407059
0.0154705
0.0581333
0.0177043
0.068042
0.0179176
0.0723506
0.0170384
0.0731247
0.0158263
0.0718375
0.0147472
0.0693
0.0140518
0.0658599
0.0616562
0.0140102
0.00536708
0.0102204
0.0156128
0.0304602
0.0264183
0.0473278
0.0355339
0.0589264
0.0424545
0.06543
0.0476401
0.0679392
0.0518377
0.06764
0.0557054
0.0654323
0.0596869
0.0618784
0.057004
0.0643391
0.00493033
0.00529005
0.0161383
0.0192522
0.0302152
0.033251
0.0445291
0.0446125
0.0576582
0.0523009
0.0692007
0.0563967
0.0793579
0.0574827
0.0885583
0.0562318
0.0971737
0.0532631
0.0485074
0.10567
0.00349325
0.0017968
0.0127322
0.0100132
0.0259887
0.0199945
0.0413167
0.0292845
0.0571662
0.0364514
0.0725984
0.0409646
0.0872025
0.0428786
0.100899
0.0425354
0.113724
0.0404382
0.0361842
0.126047
0.00170379
9.30129e-05
0.00728283
0.00443414
0.0164994
0.010778
0.028545
0.0172388
0.0424093
0.0225871
0.0571976
0.0261762
0.0722441
0.0278322
0.0871067
0.0276728
0.101631
0.0259136
0.02145
0.116366
-0.000177134
0.000270147
0.0011347
0.00312231
0.00489349
0.00701916
0.0112882
0.0108441
0.0200903
0.013785
0.0309251
0.0153414
0.0434548
0.0153025
0.0574473
0.0136803
0.0729664
0.0103945
0.00412401
0.0902923
-0.00176731
-0.00387527
-0.00442517
-0.00232221
0.00312392
0.0124154
0.0261031
0.0444583
0.0676119
0.0893491
-0.18121
0.273162
-0.213403
-0.126508
-0.0717299
0.0170276
-0.0162654
-0.308719
0.198476
0.0704246
-0.367024
0.280334
0.126444
-0.364211
0.308192
0.161793
-0.290259
0.25491
0.184593
-0.224559
0.201758
0.198415
-0.157271
0.143449
0.207292
-0.121483
0.112606
-0.0761041
0.0722437
-0.124539
0.314415
-0.0770225
-0.119247
0.0139964
-0.399738
0.0926807
-0.445708
0.142982
-0.414512
0.173539
-0.320817
0.192188
-0.243208
0.203161
-0.168243
0.210167
-0.128489
-0.079136
-0.0598597
0.338771
-0.0182419
-0.160864
0.0523666
-0.470346
0.118126
-0.511467
0.160997
-0.457383
0.186426
-0.346246
0.20075
-0.257532
0.208596
-0.176089
0.213448
-0.133342
-0.0812462
0.00489923
0.347882
0.0377595
-0.193725
0.0927992
-0.525386
0.14458
-0.563248
0.178649
-0.491453
0.198864
-0.366461
0.209313
-0.26798
0.214283
-0.181059
0.216978
-0.136037
-0.082426
0.0639219
0.348299
0.0892267
-0.219029
0.131447
-0.567606
0.170469
-0.60227
0.195206
-0.51619
0.209942
-0.381197
0.217004
-0.275042
0.219662
-0.183717
0.220494
-0.13687
-0.0827919
0.114747
0.339223
0.134364
-0.238647
0.165595
-0.598837
0.193793
-0.630468
0.210109
-0.532506
0.219416
-0.390504
0.223377
-0.279003
0.224271
-0.184611
0.223708
-0.136307
-0.0825747
0.152575
0.312695
0.171536
-0.257608
0.193812
-0.621113
0.21302
-0.649676
0.222689
-0.542175
0.227281
-0.395097
0.228387
-0.280108
0.227886
-0.18411
0.226392
-0.134813
-0.082068
0.174535
0.254525
0.200382
-0.283455
0.21564
-0.63637
0.227571
-0.661607
0.232514
-0.547117
0.233567
-0.39615
0.232204
-0.278745
0.230516
-0.182423
0.228431
-0.132728
-0.0815612
0.185683
0.159134
0.221651
-0.319423
0.230979
-0.645698
0.237292
-0.66792
0.239393
-0.549218
0.238266
-0.395024
0.23503
-0.275508
0.232319
-0.179712
0.229836
-0.130244
-0.0812884
0.196111
0.0523719
0.235285
-0.358596
0.239637
-0.650051
0.243016
-0.671299
0.243674
-0.549876
0.241487
-0.392837
0.237032
-0.271054
0.233501
-0.176181
0.230718
-0.127461
-0.0814111
0.57397
-0.0535576
-0.468041
0.649096
-0.433721
0.631807
-0.632762
0.576499
-0.615991
0.513503
-0.486879
0.459347
-0.338681
0.416414
-0.228121
0.386683
-0.14645
0.365524
-0.106302
-0.069995
0.744654
-0.118908
-0.679303
0.732314
-0.421381
0.662722
-0.563171
0.584183
-0.537452
0.516968
-0.419664
0.463665
-0.285378
0.421422
-0.185878
0.39087
-0.115898
0.368105
-0.0835371
-0.0572326
0.774328
-0.152541
-0.740696
0.723602
-0.370654
0.655773
-0.495342
0.594945
-0.476625
0.536264
-0.360982
0.480824
-0.229938
0.433327
-0.138381
0.398197
-0.0807679
0.371933
-0.0572732
-0.0425523
0.758359
-0.168185
-0.742716
0.717939
-0.330234
0.662712
-0.440115
0.600856
-0.414769
0.535467
-0.295593
0.475444
-0.169915
0.427408
-0.0903453
0.393943
-0.0473027
0.369534
-0.0328639
-0.0284473
0.739791
-0.176505
-0.731471
0.708731
-0.299175
0.65684
-0.388224
0.595075
-0.353005
0.530357
-0.230875
0.470819
-0.110377
0.422948
-0.0424744
0.389817
-0.0141716
0.366167
-0.00921421
-0.0147918
0.723311
-0.179265
-0.720551
0.696763
-0.272626
0.641633
-0.333094
0.570312
-0.281684
0.499917
-0.16048
0.442743
-0.0532025
0.401051
-0.000782826
0.373962
0.0129183
0.355304
0.0094437
-0.00357963
0.70205
-0.172356
-0.708959
0.665049
-0.235625
0.59083
-0.258875
0.504707
-0.195561
0.433164
-0.0889375
0.386285
-0.00632395
0.358015
0.0274873
0.342341
0.0285924
0.332298
0.0194861
0.00343787
0.642833
-0.141183
-0.674006
0.574326
-0.167117
0.471735
-0.156284
0.375831
-0.0996563
0.316028
-0.0291349
0.291191
0.0185133
0.284913
0.0337652
0.285189
0.028317
0.286084
0.0185911
0.00523831
0.473626
-0.0724292
-0.54238
0.370568
-0.0640583
0.260253
-0.0459694
0.18447
-0.0238731
0.1567
-0.00136565
0.161492
0.0137221
0.177187
0.0180698
0.191199
0.0143053
0.200582
0.0092083
0.00291619
0.14772
-0.220149
0.0836618
0.0376924
0.0138193
0.0124537
0.0261757
0.0442456
0.0585509
0.0677592
0.558187
0.0652619
-0.546683
0.57009
0.091677
0.585482
0.115815
0.601563
0.143963
0.61882
0.170108
0.635083
0.195475
0.637171
0.222812
0.622542
0.23344
0.554143
0.258367
0.231914
0.538014
0.0536932
-0.526446
0.551528
0.0781635
0.56788
0.0994629
0.58868
0.123163
0.610121
0.148667
0.637261
0.168335
0.659974
0.200099
0.681835
0.211579
0.692415
0.247786
0.245026
0.523446
0.0438269
-0.51358
0.537206
0.064404
0.552764
0.0839044
0.572987
0.10294
0.595173
0.126482
0.621169
0.142338
0.651012
0.170256
0.680243
0.182348
0.716201
0.211828
0.220531
0.512432
0.0347785
-0.503384
0.525671
0.0511648
0.540972
0.0686032
0.559776
0.084137
0.582262
0.103995
0.606641
0.117959
0.637484
0.139414
0.667963
0.151869
0.706863
0.172928
0.184679
0.503116
0.0257369
-0.494074
0.515687
0.038594
0.531082
0.0532082
0.549286
0.0659333
0.571663
0.0816179
0.595896
0.0937262
0.625737
0.109573
0.656653
0.120953
0.693656
0.135924
0.146865
0.494758
0.0166335
-0.485655
0.506901
0.0264506
0.522306
0.0378035
0.540462
0.0477771
0.562582
0.0594979
0.587112
0.0691965
0.616084
0.0806004
0.647234
0.0898032
0.682805
0.100354
0.109118
0.484457
0.00785359
-0.475677
0.496168
0.01474
0.511262
0.0227089
0.529333
0.0297061
0.551123
0.0377078
0.575828
0.0444921
0.604392
0.0520365
0.635787
0.058408
0.671059
0.0650816
0.0712175
0.460393
0.000491565
-0.453031
0.470639
0.0044937
0.484312
0.00903602
0.501081
0.0129372
0.521453
0.0173362
0.545003
0.0209422
0.572218
0.0248208
0.602625
0.028001
0.636712
0.0309945
0.0339237
0.387833
-0.00274164
-0.3846
0.393623
-0.00129621
0.402469
0.000189315
0.413921
0.00148584
0.428426
0.00283099
0.445565
0.00380326
0.46564
0.00474599
0.488373
0.00526789
0.513709
0.00565803
0.00525315
0.192211
-0.194953
0.190915
0.191104
0.19259
0.195421
0.199224
0.20397
0.209238
0.214896
0.0730152
0.14985
-0.137997
-0.0848681
0.0621443
0.152025
-0.141154
0.0521317
0.154651
-0.144639
0.0424328
0.158182
-0.148483
0.032788
0.161956
-0.152311
0.0232805
0.164854
-0.155347
0.0143267
0.164164
-0.15521
0.00674097
0.153863
-0.146277
0.00165306
0.123302
-0.118215
0.0581118
-0.0564588
0.0691255
0.160427
-0.0797032
0.0587029
0.162447
0.0486304
0.164724
0.0389127
0.167899
0.0294424
0.171427
0.020318
0.173979
0.0119866
0.172496
0.00525226
0.160597
0.00106769
0.127487
0.0591795
0.0620264
0.169841
-0.0714404
0.0523255
0.172148
0.0427529
0.174296
0.0334995
0.177153
0.0245975
0.180329
0.0162068
0.18237
0.00879034
0.179912
0.00320038
0.166187
0.000230317
0.130457
0.0594098
0.0507246
0.177844
-0.0587276
0.0423386
0.180534
0.0338735
0.182761
0.0255915
0.185435
0.0176592
0.188261
0.0103564
0.189672
0.00427133
0.185997
0.000183856
0.170274
-0.000879487
0.13152
0.0585303
0.0376716
0.184843
-0.0446698
0.0304615
0.187744
0.0231397
0.190083
0.0159533
0.192621
0.00917929
0.195035
0.00319695
0.195655
-0.00122231
0.190416
-0.00301687
0.172069
-0.00212745
0.130631
0.0564029
0.0224174
0.190646
-0.0282209
0.0164904
0.193672
0.0104777
0.196096
0.0046046
0.198494
-0.00077186
0.200411
-0.00499961
0.199882
-0.00727494
0.192692
-0.0067948
0.171589
-0.00346973
0.127306
0.0529332
0.00621078
0.195646
-0.0112111
0.00133027
0.198552
-0.00347578
0.200902
-0.0079865
0.203005
-0.0117676
0.204192
-0.0141272
0.202242
-0.0140559
0.19262
-0.0107437
0.168277
-0.00476733
0.12133
0.0481658
-0.0120071
0.19955
0.00810349
-0.015687
0.202232
-0.0191601
0.204375
-0.0221642
0.206009
-0.0241422
0.20617
-0.024194
0.202294
-0.0212473
0.189674
-0.0147143
0.161744
-0.00593709
0.112552
0.0422287
-0.0318133
0.202356
0.029007
-0.0342897
0.204708
-0.0363796
0.206465
-0.0377116
0.207341
-0.0375626
0.206021
-0.0348691
0.1996
-0.0285544
0.183359
-0.0184434
0.151633
-0.00685302
0.100962
0.0353757
-0.0537306
0.0521659
-0.0548283
-0.0552914
-0.0546005
-0.0518314
-0.0457871
-0.0355362
-0.0215742
-0.00739449
0.108185
0.0401743
-0.12026
-0.0280994
0.0958398
0.0412702
-0.0289247
0.0832116
0.042455
-0.0298267
0.0702751
0.0437213
-0.0307847
0.0570129
0.0450497
-0.0317875
0.04345
0.0462965
-0.0327337
0.0297711
0.0468977
-0.0332187
0.0166121
0.0452599
-0.032101
0.00559221
0.0379583
-0.0269384
0.0192608
-0.0136686
0.107331
0.0522546
-0.119411
0.0950569
0.0535443
0.0825121
0.0549998
0.0696656
0.0565677
0.0564924
0.0582229
0.0430156
0.0597734
0.0294275
0.0604858
0.0163773
0.0583101
0.00548623
0.0488494
0.024747
0.106027
0.0642215
-0.117993
0.0938052
0.0657657
0.0813385
0.0674665
0.0685997
0.0693065
0.0555655
0.0712571
0.0422527
0.0730862
0.0288493
0.0738892
0.0160075
0.0711518
0.00533449
0.0595224
0.0300815
0.104082
0.0762167
-0.116077
0.0919772
0.0778704
0.079619
0.0798248
0.0669855
0.0819399
0.0540745
0.0841681
0.0409367
0.086224
0.0277897
0.0870362
0.0152975
0.083644
0.00503402
0.0697859
0.0351155
0.101546
0.0879798
-0.113309
0.0896452
0.0897711
0.0775796
0.0918904
0.0652753
0.0942442
0.0526803
0.0967631
0.0398246
0.0990797
0.0269473
0.0999136
0.0147531
0.0958381
0.00481763
0.0797214
0.0399332
0.0978097
0.0998178
-0.109648
0.0859875
0.101593
0.0740161
0.103862
0.0619084
0.106352
0.049652
0.109019
0.0372696
0.111462
0.0249813
0.112202
0.0134804
0.107339
0.00428713
0.0889146
0.0442203
0.0938946
0.110988
-0.105065
0.0827264
0.112762
0.0713578
0.11523
0.0596929
0.118017
0.0477469
0.120966
0.0356382
0.123571
0.0236806
0.12416
0.012621
0.118399
0.00394154
0.0975941
0.0481619
0.08651
0.122016
-0.0975376
0.0757328
0.123539
0.0650164
0.125947
0.054223
0.12881
0.043233
0.131956
0.0320773
0.134727
0.0210685
0.135168
0.0109908
0.128476
0.0032888
0.105296
0.0514507
0.0819021
0.131247
-0.0911326
0.0722342
0.133207
0.0619662
0.136215
0.051338
0.139438
0.0405211
0.142772
0.0296731
0.145575
0.0191529
0.145688
0.00974913
0.13788
0.00280399
0.112241
0.0542546
0.0708229
-0.0775731
0.0628755
0.0544518
0.0454073
0.0358684
0.0260959
0.0165742
0.0081775
0.00220412
0.201629
0.00576191
-0.00940075
0.205559
0.0271861
-0.0311164
0.209048
0.0344434
-0.0379329
0.211673
0.0527356
-0.0553606
0.213433
0.0649066
-0.0666667
0.21253
0.0865212
-0.085618
0.207704
0.119846
-0.115019
0.195773
0.150908
-0.138978
0.170155
0.20494
-0.179322
0.266135
-0.21624
0.201271
0.00248052
0.204831
0.0236262
0.208172
0.0311027
0.210227
0.05068
0.212012
0.0631216
0.210361
0.0881724
0.205706
0.124501
0.193387
0.163228
0.168048
0.23028
0.314771
0.200866
-0.000395895
0.20392
0.0205728
0.207096
0.0279262
0.208423
0.049353
0.210211
0.0613336
0.207552
0.0908315
0.203062
0.128991
0.189854
0.176436
0.16525
0.254883
0.362028
0.200398
-0.00280431
0.202833
0.0181379
0.205789
0.0249701
0.206256
0.0488864
0.208013
0.0595764
0.204167
0.0946775
0.199845
0.133314
0.18517
0.191111
0.161821
0.278231
0.407772
0.199847
-0.00466109
0.201587
0.0163972
0.204239
0.0223189
0.203777
0.0493476
0.205388
0.0579654
0.200249
0.099817
0.196011
0.137552
0.17962
0.207501
0.157688
0.300164
0.452151
0.199196
-0.00586726
0.200203
0.0153904
0.202439
0.0200824
0.201034
0.0507526
0.202322
0.0566772
0.195798
0.106342
0.191544
0.141805
0.172979
0.226067
0.153154
0.319988
0.495657
0.198436
-0.00631347
0.198702
0.0151241
0.200387
0.0183979
0.198049
0.0530904
0.198783
0.0559433
0.190897
0.114228
0.186216
0.146486
0.165864
0.246419
0.147537
0.338315
0.538129
0.197566
-0.00588921
0.197106
0.0155834
0.198083
0.0174207
0.194827
0.0563465
0.194777
0.0559934
0.185523
0.123482
0.180154
0.151855
0.157369
0.269204
0.141723
0.353961
0.582314
0.196594
-0.00449386
0.195427
0.0167511
0.195541
0.0173067
0.191374
0.0605128
0.190263
0.0571047
0.179837
0.133908
0.173365
0.158327
0.150149
0.29242
0.134907
0.369203
0.626089
0.195569
-0.0020734
0.19363
0.0186906
0.19284
0.0180967
0.1876
0.065753
0.185156
0.0595484
0.173145
0.145919
0.164663
0.16681
0.139754
0.317329
0.128782
0.380175
0.677298
0.30449
-0.00455294
0.308711
0.0144689
0.317438
0.00937055
0.319287
0.0639031
0.332021
0.0468148
0.332889
0.145051
0.353219
0.14648
0.359457
0.311091
0.412427
0.327205
0.606373
0.483351
0.304662
-0.00720482
0.310428
0.00870252
0.319793
6.15474e-06
0.323192
0.0605034
0.337646
0.0323615
0.341667
0.14103
0.362945
0.125202
0.379428
0.294607
0.428717
0.277916
0.538706
0.496385
0.305034
-0.0102284
0.312876
0.000860653
0.321798
-0.0089164
0.328265
0.0540368
0.342709
0.0179177
0.3506
0.133139
0.370905
0.104896
0.394577
0.270934
0.438684
0.233809
0.466059
0.511331
0.305979
-0.0141975
0.315761
-0.00892151
0.323774
-0.0169289
0.334742
0.0430688
0.346776
0.00588309
0.35853
0.121385
0.376675
0.0867513
0.405693
0.241917
0.447691
0.191811
0.390183
0.523567
0.307716
-0.0199038
0.318898
-0.0201032
0.326811
-0.0248416
0.342329
0.027551
0.351549
-0.00333708
0.367284
0.105651
0.383062
0.0709727
0.417222
0.207757
0.453685
0.155348
0.315348
0.52852
0.310141
-0.0280348
0.322514
-0.0324763
0.331405
-0.0337319
0.350069
0.00888654
0.356235
-0.00950297
0.375001
0.0868843
0.388929
0.0570446
0.426197
0.170489
0.459107
0.122438
0.24438
0.530075
0.313308
-0.0393322
0.326732
-0.0459012
0.336506
-0.043505
0.35509
-0.00969776
0.357041
-0.0114538
0.37864
0.0652847
0.391589
0.0440956
0.431999
0.130079
0.462181
0.0922559
0.178644
0.527918
0.316332
-0.0536536
0.327724
-0.0572936
0.3339
-0.0496807
0.345134
-0.0209325
0.3426
-0.00891969
0.366355
0.0415297
0.379868
0.0305831
0.424053
0.0858944
0.454161
0.0621478
0.114369
0.518435
0.309398
-0.0610411
0.303977
-0.0518733
0.292707
-0.0384097
0.287201
-0.0154267
0.282108
-0.00382713
0.305695
0.0179432
0.321909
0.0143689
0.369524
0.0382794
0.403374
0.0282975
0.0479715
0.469772
0.240969
0.189096
0.150686
0.135259
0.131432
0.149375
0.163744
0.202024
0.230321
0.278293
0.49702
-0.0985367
0.501583
-0.0842668
0.505249
-0.075106
0.508272
-0.0617506
0.513135
-0.0495328
0.517537
-0.032623
0.523833
-0.0175072
0.529817
0.00211983
0.538341
0.0204829
0.0438236
0.497232
-0.0993844
0.497838
-0.0848729
0.49792
-0.0751878
0.497991
-0.0618216
0.499681
-0.0512222
0.501619
-0.034561
0.506115
-0.0220041
0.510721
-0.00248522
0.518349
0.0128542
0.0357272
0.50473
-0.0927833
0.501325
-0.0814681
0.498041
-0.0719041
0.495813
-0.0595928
0.494318
-0.0497276
0.49483
-0.0350727
0.496466
-0.0236405
0.500088
-0.00610703
0.505379
0.00756291
0.0275265
0.512771
-0.0819875
0.504826
-0.0735226
0.498366
-0.0654447
0.49414
-0.0553669
0.490343
-0.0459299
0.489274
-0.0340043
0.488779
-0.0231449
0.491711
-0.00903909
0.495546
0.00372737
0.0196892
0.516499
-0.0699668
0.506344
-0.0633669
0.4976
-0.0567007
0.491125
-0.0488921
0.48581
-0.0406145
0.483138
-0.0313327
0.481726
-0.0217333
0.483595
-0.010908
0.48702
0.000302286
0.0126352
0.516637
-0.0565282
0.504807
-0.051537
0.494591
-0.0464848
0.486514
-0.0408155
0.480332
-0.034432
0.476605
-0.0276059
0.474883
-0.0200122
0.475975
-0.0119992
0.479244
-0.00296674
0.00622436
0.513373
-0.0419831
0.500458
-0.0386225
0.489326
-0.0353526
0.480301
-0.0317906
0.473465
-0.0275958
0.468948
-0.0230894
0.466733
-0.0177972
0.467052
-0.0123176
0.469977
-0.00589237
0.00052451
0.502493
-0.0260412
0.488355
-0.0244844
0.476118
-0.0231157
0.465914
-0.021586
0.457882
-0.0195643
0.452005
-0.0172121
0.448469
-0.0142613
0.447272
-0.011121
0.448766
-0.00738587
-0.00374056
0.453358
-0.00962701
0.438698
-0.00982486
0.425614
-0.0100315
0.414068
-0.0100403
0.404203
-0.00969909
0.396051
-0.00906
0.389895
-0.00810467
0.38577
-0.00699621
0.38404
-0.00565604
-0.0043002
0.268666
0.258841
0.248809
0.238769
0.22907
0.22001
0.211905
0.204909
0.199253
0.0067226
0.0411699
-0.0478925
0.0160829
0.107412
-0.116773
0.0225162
0.152202
-0.158635
0.0249667
0.176831
-0.179281
0.0243331
0.187632
-0.186998
0.0218317
0.190527
-0.188025
0.0183891
0.189031
-0.185588
0.0146418
0.184156
-0.180408
0.0111651
0.174712
-0.171235
0.157459
0.00851465
-0.154809
0.00803575
0.0331341
0.0214685
0.0939797
0.0330071
0.140663
0.0401978
0.16964
0.0434326
0.184397
0.0439639
0.189996
0.0428862
0.190108
0.0408498
0.186192
0.0380629
0.177499
0.161246
0.0342757
0.00856139
0.0245727
0.0253952
0.0771459
0.042289
0.123769
0.0550351
0.156894
0.0630108
0.176421
0.0672146
0.185792
0.0688286
0.188494
0.0685487
0.186472
0.0663958
0.179652
0.166134
0.0615081
0.00818184
0.0163909
0.0269336
0.0583942
0.0486961
0.102007
0.067622
0.137968
0.0814412
0.162602
0.0903989
0.176834
0.0956138
0.183279
0.0979713
0.184114
0.0974891
0.180134
0.170386
0.0932366
0.00700665
0.00938423
0.0255376
0.0398632
0.0504139
0.0771305
0.0753263
0.113056
0.0960819
0.141846
0.111311
0.161605
0.121474
0.173116
0.127499
0.17809
0.129846
0.177787
0.172926
0.127306
0.00534714
0.00403709
0.0215044
0.0237059
0.0464058
0.0522291
0.0752022
0.0842592
0.102798
0.11425
0.125847
0.138556
0.143113
0.15585
0.154807
0.166396
0.161456
0.171138
0.171244
0.163138
0.00361213
0.000424963
0.0160448
0.0112733
0.0376934
0.0305805
0.0663356
0.055617
0.0979231
0.0826628
0.128342
0.108137
0.154617
0.129575
0.175238
0.145775
0.189987
0.15639
0.163229
0.198002
0.00213139
-0.00170643
0.0105878
0.00281683
0.0269615
0.0142068
0.0512864
0.0312921
0.0817019
0.0522473
0.115106
0.0747329
0.148212
0.0964684
0.178125
0.115862
0.203169
0.131345
0.14274
0.223658
0.001022
-0.00272843
0.00602449
-0.00218566
0.0168203
0.00341095
0.0345819
0.0135306
0.0593389
0.0274903
0.0898373
0.0442345
0.123915
0.0623907
0.15914
0.0806377
0.19216
0.0983247
0.109119
0.225781
0.000180387
-0.00290881
0.002398
-0.00440327
0.00832666
-0.00251771
0.0194237
0.00243354
0.0366404
0.0102736
0.0601729
0.0207019
0.0893609
0.0332027
0.122988
0.0470108
0.159166
0.0621464
0.0740602
0.194225
-0.000509002
-0.00239981
-0.000320568
-0.0045917
0.00197833
-0.00481661
0.00764673
-0.00323485
0.0177251
0.000195264
0.0330728
0.00535419
0.0539896
0.012286
0.0802095
0.0207909
0.11142
0.0309363
0.0445843
0.140896
-0.00059937
-0.00180044
-0.0010379
-0.00415317
-0.000361151
-0.00549336
0.0022001
-0.00579611
0.00739325
-0.00499788
0.0157819
-0.00303442
0.0278944
0.000173459
0.043942
0.00474322
0.0638012
0.0110771
0.0208384
0.0875472
5.92032e-05
-0.00185965
0.000598688
-0.00469266
0.00190364
-0.00679832
0.00422256
-0.00811502
0.00780992
-0.00858525
0.0129453
-0.0081698
0.0199519
-0.00683317
0.029183
-0.00448791
0.0411694
-0.000909252
0.00468375
0.057324
0.000637419
-0.00249706
0.00197113
-0.00602637
0.00384416
-0.00867134
0.00629505
-0.0105659
0.0094361
-0.0117263
0.0134272
-0.0121609
0.018482
-0.0118879
0.0248999
-0.0109058
0.0331556
-0.00916491
-0.00676829
0.0446076
0.000303574
-0.00280064
0.000589365
-0.00631216
0.00078173
-0.00886371
0.00104167
-0.0108259
0.00159521
-0.0122798
0.00269478
-0.0132605
0.00462049
-0.0138137
0.00769626
-0.0139816
0.0123038
-0.0137724
-0.0133961
0.0189316
-0.000942547
-0.00185809
-0.00334787
-0.00390683
-0.00661308
-0.0055985
-0.0101892
-0.00724976
-0.013645
-0.00882404
-0.0166407
-0.0102648
-0.0188971
-0.0115573
-0.0201899
-0.0126888
-0.0203418
-0.0136206
-0.0145583
-0.0191796
-0.00285379
0.000995703
-0.00893798
0.00217735
-0.0165971
0.00206063
-0.0248507
0.00100387
-0.033158
-0.000516761
-0.0411287
-0.00229405
-0.048605
-0.00408101
-0.0554618
-0.00583195
-0.0615748
-0.00750753
-0.00927837
-0.0668548
-0.0047511
0.0057468
-0.0142817
0.011708
-0.0258961
0.013675
-0.0382558
0.0133636
-0.0508168
0.0120442
-0.0634668
0.0103559
-0.0760859
0.0085381
-0.0885851
0.00666727
-0.100856
0.00476376
0.00277585
-0.112911
-0.00578069
0.0115275
-0.0172261
0.0231534
-0.0310862
0.0275351
-0.0458678
0.0281453
-0.0610279
0.0272042
-0.0764133
0.0257413
-0.0919652
0.02409
-0.107615
0.022317
-0.123276
0.0204253
0.0185161
-0.139017
-0.00549992
-0.0168144
-0.0308155
-0.0459331
-0.0615284
-0.0773809
-0.0933945
-0.109482
-0.125557
-0.141712
0.201426
0.0763466
-0.136877
0.21644
0.40664
-0.421655
0.208673
0.433201
-0.425434
0.219013
0.150655
-0.160995
0.225869
-0.0670018
0.0601455
0.217975
-0.0990143
0.106909
0.206813
-0.0650657
0.0762274
0.201219
-0.0346982
0.0402919
0.202178
-0.0232197
0.0222606
-0.0187866
0.0137207
0.162075
0.00181851
0.206126
0.362589
0.218686
0.42064
0.237012
0.13233
0.234997
-0.0649865
0.219173
-0.083191
0.206321
-0.0522136
0.20159
-0.0299669
0.203567
-0.0251965
-0.0237664
0.128258
-0.0691152
0.180082
0.310766
0.208812
0.39191
0.23012
0.111022
0.220374
-0.0552408
0.203681
-0.0664983
0.196022
-0.0445537
0.196577
-0.0305219
0.201889
-0.0305088
-0.0294824
0.0869828
-0.11149
0.134239
0.263509
0.175231
0.350918
0.195739
0.0905148
0.185405
-0.0449071
0.1781
-0.0591931
0.182025
-0.0484788
0.190356
-0.0388531
0.199661
-0.039814
-0.0360847
0.0308011
-0.12336
0.0717355
0.222574
0.11954
0.303114
0.139653
0.0704012
0.143466
-0.0487196
0.154402
-0.0701293
0.171243
-0.06532
0.18623
-0.0538395
0.198395
-0.0519796
-0.0431441
-0.0445311
-0.0980083
-0.00741382
0.185457
0.046687
0.249013
0.0832073
0.0338809
0.113357
-0.0788693
0.141452
-0.098224
0.166748
-0.0906166
0.185156
-0.0722469
0.198434
-0.065258
-0.0500968
-0.13065
-0.0342135
-0.0963451
0.151153
-0.012883
0.165551
0.051101
-0.0301031
0.101556
-0.129325
0.138681
-0.135349
0.167176
-0.119111
0.186304
-0.0913749
0.19943
-0.0783839
-0.0565727
-0.197389
0.0502653
-0.150355
0.104119
-0.0369507
0.0521463
0.0423959
-0.10945
0.101007
-0.187936
0.141195
-0.175537
0.169985
-0.147901
0.188545
-0.109935
0.200948
-0.0907872
-0.0624347
-0.225693
0.136941
-0.165852
0.0442785
-0.0391487
-0.0745573
0.0447898
-0.193388
0.105382
-0.248528
0.145892
-0.216047
0.173777
-0.175785
0.191286
-0.127444
0.20276
-0.102261
-0.0676641
-0.218174
-0.156867
-0.0329485
0.0539967
0.113661
0.152524
0.178497
0.194502
0.204846
0.0495005
0.0344401
-0.0839406
0.00937486
0.0401256
-0.020494
0.0298688
-0.0312377
0.0107437
-0.0178393
-0.0133984
0.00739446
-0.0252337
0.0267977
-0.0194032
0.0364932
-0.0096955
0.0405351
-0.00404191
-0.00154484
0.197785
0.105877
-0.269222
0.0879968
0.149914
0.0091861
0.10868
-0.00924918
0.029179
0.0160601
-0.0387077
0.0548535
-0.0640271
0.0844826
-0.0490324
0.100305
-0.0255183
0.10782
-0.0115565
-0.00483153
0.341835
0.161456
-0.397413
0.206939
0.284809
0.0928379
0.222781
0.0581342
0.0638827
0.0792076
-0.0597811
0.110836
-0.0956553
0.134907
-0.0731038
0.148716
-0.0393277
0.156248
-0.0190884
-0.00873671
0.416679
0.172389
-0.427612
0.312479
0.389009
0.194749
0.340511
0.146652
0.11198
0.154519
-0.0676487
0.168976
-0.110112
0.178145
-0.0822721
0.183467
-0.0446495
0.187417
-0.0230384
-0.0118896
0.393587
-0.358075
0.360941
0.276018
0.227003
0.2195
0.216296
0.210252
0.205894
0.205116
0.0107377
-0.000158254
-0.0105794
0.0123418
-0.00160415
0.0152757
-0.00293384
0.0196785
-0.00440283
0.026033
-0.00635446
0.0333976
-0.00736462
0.0437058
-0.0103083
0.0549143
-0.0112085
0.069285
-0.0143707
-0.0146556
0.0295507
-0.000882519
-0.0288264
0.0341231
-0.0061766
0.0424394
-0.0112501
0.0555657
-0.0175291
0.0740086
-0.0247974
0.097245
-0.030601
0.13023
-0.0432936
0.166825
-0.0478032
0.214745
-0.0622909
-0.0691325
0.0457209
-0.00243905
-0.0441644
0.0529991
-0.0134548
0.0661324
-0.0243834
0.0868037
-0.0382004
0.11491
-0.0529032
0.152656
-0.0683477
0.201316
-0.0919537
0.256696
-0.103183
0.32757
-0.133165
-0.138976
0.0591523
-0.00496881
-0.0566225
0.0686629
-0.0229653
0.0857675
-0.041488
0.111701
-0.0641338
0.146816
-0.0880181
0.193678
-0.11521
0.247097
-0.145372
0.311715
-0.167802
0.379334
-0.200784
-0.187254
0.0699702
-0.0664243
0.0812806
0.101301
0.130403
0.169691
0.217619
0.270249
0.326106
0.351104
0.0819078
-0.0743955
0.0822103
-0.0897226
0.0733042
-0.0754906
0.0840941
0.0643467
-0.0772324
0.08619
0.0547908
-0.0790998
0.0886557
0.0445584
-0.0809731
0.0912056
0.0337733
-0.082546
0.0933311
0.022802
-0.0827292
0.0937005
0.0124032
-0.0786975
0.0890963
0.00400937
-0.0648168
0.0732107
-0.0321396
0.036149
0.0905463
-0.0649071
-0.100035
0.0806777
-0.065622
0.070171
-0.0667257
0.0590873
-0.0680161
0.0475797
-0.0694655
0.0358277
-0.070794
0.024127
-0.0710286
0.0131437
-0.0677142
0.00427329
-0.0559464
-0.0278663
0.0923671
-0.0541967
-0.103077
0.0815473
-0.0548023
0.0705254
-0.0557037
0.0593042
-0.056795
0.0478554
-0.0580166
0.0361799
-0.0591186
0.0244688
-0.0593175
0.0133696
-0.056615
0.00434371
-0.0469205
-0.0235226
0.0976563
-0.0431744
-0.108679
0.0864796
-0.0436256
0.0750734
-0.0442975
0.0633602
-0.0450817
0.0512898
-0.0459462
0.0388969
-0.0467257
0.0264223
-0.0468429
0.0145528
-0.0447455
0.00480787
-0.0371755
-0.0187147
0.100398
-0.0316816
-0.111891
0.0887673
-0.0319947
0.0768913
-0.0324216
0.0647435
-0.0329338
0.0523127
-0.0335154
0.0396429
-0.034056
0.0269458
-0.0341457
0.0148633
-0.032663
0.0049136
-0.0272258
-0.0138011
0.10351
-0.0200082
-0.115183
0.0916193
-0.0201044
0.0794793
-0.0202816
0.0670572
-0.0205117
0.0543295
-0.0207877
0.041319
-0.0210455
0.0282185
-0.0210453
0.0156715
-0.0201159
0.00524312
-0.0167975
-0.008558
0.10557
-0.00810788
-0.11747
0.0934688
-0.00800351
0.0811112
-0.00792405
0.0684679
-0.00786841
0.0555148
-0.00783455
0.0422717
-0.00780237
0.0289231
-0.0076967
0.0161049
-0.00729774
0.00540629
-0.0060989
-0.00315171
0.107168
0.00390398
-0.119179
0.094921
0.00424309
0.0824055
0.00459143
0.0695934
0.00494376
0.0564626
0.0052962
0.0430337
0.00562652
0.0294881
0.00584889
0.0164585
0.00573187
0.00554716
0.00481247
0.00239544
0.108105
0.0159855
-0.120187
0.0957776
0.0165705
0.0831743
0.0171948
0.0702679
0.0178501
0.0570362
0.0185279
0.0434976
0.0191651
0.0298306
0.0195159
0.0166675
0.0188949
0.00562556
0.0158544
0.008021
0.108389
-0.120503
0.0960352
0.0834032
0.0704686
0.057209
0.0436404
0.0299376
0.0167315
0.00564759
0.0133656
-0.152734
-0.0154402
0.00899079
-0.16686
0.00361362
-0.175031
-0.00190841
-0.180066
-0.00691681
-0.183017
-0.0106473
-0.183268
-0.0120778
-0.177851
-0.0101445
-0.160568
-0.00489329
-0.122024
-0.0527858
0.0359183
-0.149743
-0.0389097
0.0299877
-0.16093
0.0228385
-0.167882
0.0153972
-0.172625
0.00820639
-0.175826
0.00185434
-0.176916
-0.00271018
-0.173286
-0.00439919