/*--------------------------------*- C++ -*----------------------------------*\
  =========                 |
  \\      /  F ield         | OpenFOAM: The Open Source CFD Toolbox
   \\    /   O peration     | Website:  https://openfoam.org
    \\  /    A nd           | Version:  13
     \\/     M anipulation  |
\*---------------------------------------------------------------------------*/
FoamFile
{
    format      ascii;
    class       volVectorField;
    location    "3.15";
    object      U;
}
// * * * * * * * * * * * * * * * * * * * * * * * * * * * * * * * * * * * * * //

dimensions      [0 1 -1 0 0 0 0];

internalField   nonuniform List<vector> 
1800
(
(-0.0307462 0.0237824 1.13061e-20)
(-0.0751887 0.0413814 5.09709e-21)
(-0.0956777 0.0480831 -4.07879e-20)
(-0.0873857 0.0498632 5.71302e-20)
(-0.043191 0.0503928 1.69225e-19)
(0.0418373 0.0504207 8.08305e-20)
(0.17011 0.0503412 -3.76843e-20)
(0.337687 0.0485765 -1.23691e-20)
(0.561921 0.0718585 1.18503e-19)
(0.66425 0.115046 1.5227e-19)
(-0.0460365 0.0342448 1.00199e-20)
(-0.0852323 0.056582 -3.4838e-20)
(-0.0744625 0.0564117 3.48765e-22)
(-0.01332 0.0433177 -5.8876e-20)
(0.101621 0.0234728 2.4285e-20)
(0.271313 0.000296444 1.51791e-19)
(0.491757 -0.0232588 -7.86266e-20)
(0.75044 -0.0491426 3.7742e-20)
(1.05387 -0.0575714 -1.32543e-19)
(1.23942 -0.066044 1.41429e-19)
(-0.0503119 0.033402 4.1905e-21)
(-0.0675298 0.0516036 1.57105e-20)
(-0.00793197 0.045145 7.69765e-22)
(0.125162 0.0235639 -1.19499e-20)
(0.32894 -0.00525841 -1.39903e-19)
(0.593352 -0.0356032 2.94524e-20)
(0.899423 -0.0634004 6.01299e-20)
(1.2233 -0.0858924 -2.36101e-20)
(1.53945 -0.10085 -1.75187e-22)
(1.81861 -0.12555 -2.63118e-21)
(-0.0435568 0.025115 -7.77097e-21)
(-0.0186108 0.029544 -2.452e-20)
(0.111121 0.0132758 -2.5122e-20)
(0.336131 -0.014311 2.53926e-20)
(0.639671 -0.0444565 2.31102e-20)
(0.991817 -0.0709826 9.97468e-21)
(1.35511 -0.0906797 -3.25619e-21)
(1.69408 -0.102972 9.13446e-20)
(1.98717 -0.110529 8.6176e-20)
(2.20899 -0.115332 -3.85215e-20)
(-0.0253359 0.0135265 6.08732e-20)
(0.066695 0.00141705 5.62509e-20)
(0.290272 -0.0225141 -3.97345e-20)
(0.620422 -0.0485292 -4.89898e-20)
(1.01442 -0.0688936 -1.31745e-19)
(1.41774 -0.0805265 2.14346e-21)
(1.78178 -0.0843373 1.81756e-19)
(2.0768 -0.083516 8.83647e-20)
(2.29012 -0.0800152 2.10488e-21)
(2.43737 -0.0845125 -8.61485e-20)
(0.00774266 0.000410945 -6.01581e-20)
(0.194442 -0.024841 -1.35638e-20)
(0.529894 -0.0483417 2.03336e-19)
(0.959517 -0.0618597 -5.8458e-20)
(1.40785 -0.0635481 -1.46676e-19)
(1.80684 -0.0568971 3.07554e-19)
(2.1177 -0.0471101 -3.25931e-19)
(2.33201 -0.038267 -4.59812e-19)
(2.46501 -0.0328778 3.86174e-19)
(2.53485 -0.03171 1.31853e-21)
(0.0586802 -0.0117405 6.60577e-20)
(0.364521 -0.0408748 -1.43601e-19)
(0.814024 -0.0518241 -4.95533e-19)
(1.3126 -0.0432397 2.43839e-19)
(1.76342 -0.0239227 5.50227e-19)
(2.11025 -0.00323302 -2.16785e-21)
(2.34283 0.0131868 -1.20783e-18)
(2.48039 0.0233572 5.85114e-21)
(2.55074 0.0288132 1.4717e-18)
(2.58144 0.0262828 4.06792e-19)
(0.127798 -0.0191912 6.44269e-20)
(0.567273 -0.0379379 3.4661e-19)
(1.11275 -0.0242663 4.18912e-19)
(1.63573 0.00979892 -1.1626e-19)
(2.04633 0.0453159 -5.0634e-19)
(2.32107 0.0723796 -1.94009e-19)
(2.48055 0.0889341 0)
(2.55989 0.0968093 6.18029e-19)
(2.59128 0.0984684 -1.01302e-20)
(2.5948 0.0948025 -5.90579e-19)
(0.211825 -0.0177958 5.66453e-20)
(0.784432 -0.00925877 3.67529e-19)
(1.39311 0.0371222 6.94691e-19)
(1.90086 0.0935358 -7.33923e-19)
(2.25044 0.137771 -6.45151e-19)
(2.4549 0.164848 2.60918e-19)
(2.55581 0.177662 -1.24684e-18)
(2.59457 0.180903 -9.4067e-19)
(2.60016 0.178681 1.16247e-18)
(2.58867 0.171049 1.01354e-18)
(0.304515 -0.00412747 -4.07141e-20)
(0.994617 0.0477178 2.92115e-19)
(1.63118 0.129067 1.832e-19)
(2.09914 0.201401 -1.48348e-18)
(2.38405 0.247553 4.80848e-20)
(2.5286 0.269887 2.9916e-18)
(2.58613 0.276029 -1.73688e-18)
(2.598 0.273023 -1.02295e-18)
(2.58849 0.265179 3.60851e-19)
(2.56762 0.253475 -8.27427e-19)
(-0.0139412 0.240577 1.95896e-19)
(-0.0635042 0.491059 -1.13397e-19)
(-0.128361 0.59426 1.19611e-21)
(-0.198917 0.620577 -2.63687e-20)
(-0.267519 0.615088 3.06111e-21)
(-0.332403 0.598698 2.20413e-19)
(-0.392932 0.578098 1.62099e-19)
(-0.448691 0.554421 -3.57992e-19)
(-0.501427 0.527619 1.69042e-20)
(-0.555619 0.497987 -5.33643e-20)
(-0.0317244 0.271625 -9.26302e-21)
(-0.0823084 0.577353 7.72786e-21)
(-0.135788 0.715724 2.24253e-20)
(-0.190205 0.758542 4.53424e-20)
(-0.242365 0.757754 -1.31017e-19)
(-0.291009 0.740227 2.23316e-19)
(-0.335348 0.715883 -3.23293e-19)
(-0.3745 0.687018 -4.2132e-19)
(-0.409209 0.653774 3.6336e-19)
(-0.443871 0.616427 -1.16391e-19)
(-0.0474685 0.264169 -5.33974e-20)
(-0.0989627 0.601904 3.26401e-20)
(-0.138608 0.779484 -1.08391e-21)
(-0.172388 0.849411 -2.20937e-19)
(-0.203148 0.861458 -7.27222e-20)
(-0.230896 0.847242 7.82397e-19)
(-0.25492 0.821279 -2.6899e-19)
(-0.274146 0.788359 -4.35531e-19)
(-0.28794 0.749482 5.24907e-19)
(-0.298827 0.704863 3.08759e-19)
(-0.0545133 0.221333 -3.79061e-20)
(-0.106299 0.556837 -5.49246e-21)
(-0.13352 0.770097 8.78093e-21)
(-0.147592 0.877783 -3.48767e-20)
(-0.156374 0.914826 1.88406e-19)
(-0.162234 0.912532 -2.69232e-19)
(-0.165289 0.890144 -2.30614e-19)
(-0.164818 0.85653 2.75521e-19)
(-0.159508 0.814623 7.66927e-21)
(-0.146837 0.76498 1.02855e-20)
(-0.0493888 0.156604 0)
(-0.0989095 0.449593 -2.43914e-21)
(-0.117907 0.679636 -2.11967e-20)
(-0.11699 0.827868 9.7905e-20)
(-0.106168 0.904035 3.21165e-19)
(-0.0903811 0.928904 -2.45525e-19)
(-0.0714727 0.921442 9.70816e-20)
(-0.0496304 0.894356 4.13061e-20)
(-0.0242764 0.854291 0)
(0.0110208 0.803419 2.16718e-20)
(-0.0342959 0.0893512 -2.95014e-20)
(-0.0768377 0.307972 7.17152e-20)
(-0.0926029 0.520525 4.28488e-20)
(-0.0857309 0.6898 -6.39217e-20)
(-0.0637273 0.803479 6.45321e-20)
(-0.0321778 0.866153 1.62424e-19)
(0.0053316 0.888734 -4.46103e-19)
(0.0470379 0.882213 -3.98468e-20)
(0.0907444 0.854566 5.53589e-19)
(0.146562 0.809579 1.17665e-20)
(-0.0162043 0.0368655 9.47283e-21)
(-0.048291 0.173712 1.2864e-19)
(-0.0645361 0.338071 -7.23874e-20)
(-0.0612461 0.493549 -1.2266e-20)
(-0.0403384 0.618701 -6.00709e-20)
(-0.0052875 0.70635 4.54273e-20)
(0.0402413 0.757971 1.35283e-19)
(0.0935408 0.779016 1.59903e-19)
(0.150288 0.775489 -1.82271e-19)
(0.218599 0.747399 -2.61128e-19)
(-0.00236534 0.00616785 2.53591e-20)
(-0.0257154 0.0771045 -6.28315e-20)
(-0.0449373 0.183385 -9.85635e-20)
(-0.0507414 0.298603 3.6451e-20)
(-0.0398004 0.403619 -7.50166e-21)
(-0.0124461 0.487793 1.29492e-19)
(0.0289633 0.547394 1.31643e-19)
(0.0814471 0.583256 2.6715e-20)
(0.141676 0.599311 2.91977e-20)
(0.211382 0.582169 -1.27628e-19)
(0.00142819 -0.00340258 1.8851e-20)
(-0.0223419 0.0269219 -7.8764e-20)
(-0.0482908 0.0833484 1.34756e-19)
(-0.0651057 0.150915 1.60003e-19)
(-0.0663426 0.218112 -1.25884e-19)
(-0.0499672 0.27703 2.70411e-19)
(-0.0165365 0.323873 -3.76649e-20)
(0.0323343 0.358049 -3.14787e-19)
(0.0965779 0.379188 -2.3523e-20)
(0.183744 0.362914 -7.67498e-20)
(-0.0102899 0.00620046 -5.94777e-21)
(-0.0459658 0.0212477 -3.32605e-20)
(-0.0781706 0.0441429 -1.42565e-20)
(-0.0974474 0.071805 7.22433e-20)
(-0.0962084 0.101219 1.51368e-19)
(-0.0700761 0.129647 -1.75474e-19)
(-0.0165599 0.155546 -1.58093e-19)
(0.064383 0.178409 7.69709e-20)
(0.175484 0.197884 -3.16904e-20)
(0.312904 0.200083 2.09638e-20)
(-0.831095 0.337355 8.10206e-19)
(-0.808911 -0.0668785 -2.03213e-18)
(-0.297779 -0.363915 -4.66121e-19)
(0.162662 -0.453316 2.03229e-19)
(0.508706 -0.469782 -4.38346e-20)
(0.71122 -0.381214 -2.52296e-20)
(0.85332 -0.2986 -1.14502e-20)
(0.954446 -0.211104 -1.81641e-21)
(1.00761 -0.164647 1.25943e-20)
(1.06647 -0.104906 3.06459e-21)
(-0.639781 0.408644 8.80642e-19)
(-0.514132 -0.136649 7.60405e-19)
(-0.0981351 -0.502477 -4.96833e-20)
(0.318262 -0.570893 -2.77784e-19)
(0.625226 -0.545265 -3.08787e-19)
(0.796754 -0.428771 0)
(0.911349 -0.329611 -2.55908e-20)
(0.988817 -0.230956 5.19968e-21)
(1.0299 -0.178487 3.64524e-22)
(1.07681 -0.11268 -6.51014e-21)
(-0.403955 0.452894 -1.77475e-19)
(-0.18779 -0.198634 -4.07583e-19)
(0.170034 -0.610307 3.25074e-19)
(0.509169 -0.670592 9.41769e-20)
(0.759373 -0.610337 2.71324e-20)
(0.894019 -0.468362 -1.53606e-20)
(0.978412 -0.353675 0)
(1.02954 -0.245795 0)
(1.05628 -0.188819 -1.33751e-20)
(1.08873 -0.118674 0)
(-0.157251 0.472806 -7.33682e-20)
(0.146052 -0.25013 7.22182e-19)
(0.467495 -0.694275 -1.3898e-19)
(0.722396 -0.748719 0)
(0.902033 -0.662092 3.06566e-19)
(0.993734 -0.499461 -5.52414e-20)
(1.04799 -0.370866 0)
(1.07341 -0.255394 5.00675e-20)
(1.08542 -0.195198 0)
(1.10186 -0.122581 6.73241e-21)
(0.0735956 0.473982 1.82446e-19)
(0.470904 -0.288387 3.16536e-19)
(0.769183 -0.75594 9.1846e-20)
(0.94525 -0.805569 0)
(1.04919 -0.698329 1.28419e-19)
(1.09147 -0.521196 1.29925e-19)
(1.11493 -0.381615 -5.62061e-21)
(1.11668 -0.26018 -9.43804e-22)
(1.1153 -0.197653 -1.21227e-20)
(1.11551 -0.124273 2.0344e-21)
(0.27622 0.467141 1.46886e-18)
(0.772638 -0.314662 -1.63929e-19)
(1.05932 -0.799066 -4.69473e-20)
(1.16302 -0.844098 3.59629e-19)
(1.19526 -0.719536 -2.25268e-19)
(1.18593 -0.532933 6.6366e-20)
(1.17709 -0.386081 1.3082e-19)
(1.15663 -0.260737 -1.10763e-19)
(1.14382 -0.196573 1.27982e-22)
(1.1288 -0.123824 -1.58434e-20)
(0.420731 0.444034 4.57549e-20)
(1.04807 -0.334339 -6.59235e-20)
(1.32941 -0.82547 -1.27277e-19)
(1.36608 -0.866302 -1.15606e-20)
(1.33372 -0.728075 -1.96197e-19)
(1.27604 -0.535284 -1.72143e-20)
(1.23443 -0.384387 -5.40205e-20)
(1.19222 -0.257473 2.24778e-21)
(1.16947 -0.192438 1.5048e-20)
(1.14089 -0.121447 -8.69039e-22)
(0.487023 0.387681 -6.74716e-19)
(1.30152 -0.356969 -1.17227e-19)
(1.57597 -0.836195 0)
(1.55032 -0.872971 1.055e-19)
(1.4606 -0.72605 1.65972e-19)
(1.36057 -0.529766 -1.47424e-20)
(1.28778 -0.377044 -1.79108e-19)
(1.2238 -0.250684 4.64921e-20)
(1.19163 -0.185668 -7.637e-22)
(1.15119 -0.117406 -8.17905e-21)
(0.543687 0.272257 7.70707e-19)
(1.54793 -0.390907 3.43354e-19)
(1.79662 -0.831705 3.55086e-20)
(1.71266 -0.864926 -6.69475e-20)
(1.57382 -0.71484 1.24109e-20)
(1.43832 -0.517873 -1.8005e-19)
(1.33772 -0.364945 6.33395e-20)
(1.25246 -0.240798 -4.37023e-22)
(1.21054 -0.176682 2.29933e-22)
(1.15947 -0.11197 1.10407e-20)
(0.697348 0.122318 -4.80721e-19)
(1.79116 -0.434025 3.76492e-19)
(1.98912 -0.815818 1.79164e-19)
(1.852 -0.845155 -2.04922e-19)
(1.67277 -0.69577 -1.73123e-19)
(1.50829 -0.500642 -9.68733e-20)
(1.38418 -0.348872 -3.2356e-20)
(1.27918 -0.228264 0)
(1.22694 -0.165902 -2.2127e-20)
(1.16592 -0.105388 1.55725e-20)
(1.4609 -0.0307116 -6.47634e-19)
(2.17592 -0.496134 -6.15692e-19)
(2.22495 -0.789414 7.55225e-20)
(2.0163 -0.80546 3.53243e-20)
(1.78692 -0.659345 3.8558e-20)
(1.58746 -0.469266 -7.59435e-20)
(1.437 -0.320567 -5.79221e-20)
(1.31012 -0.206888 3.03555e-20)
(1.24492 -0.148822 -1.1227e-20)
(1.1725 -0.0956692 -8.05568e-21)
(2.22305 -0.113632 3.33372e-20)
(2.56159 -0.546701 -1.27736e-18)
(2.38277 -0.764061 -7.13405e-19)
(2.05946 -0.725864 2.94751e-20)
(1.80071 -0.55971 1.02501e-19)
(1.60081 -0.380152 1.67053e-19)
(1.45513 -0.251526 1.32883e-19)
(1.32574 -0.160235 -1.5916e-20)
(1.25729 -0.117158 4.72831e-20)
(1.17659 -0.0791854 5.92582e-21)
(2.47366 -0.180661 4.41267e-20)
(2.54124 -0.494414 4.59954e-21)
(2.31912 -0.645907 4.2829e-20)
(2.0727 -0.619082 1.9385e-35)
(1.86631 -0.484377 -3.37716e-20)
(1.66729 -0.327256 -5.16826e-34)
(1.50446 -0.208715 1.63143e-20)
(1.35592 -0.12664 3.83107e-34)
(1.27593 -0.0899137 -1.29178e-21)
(1.18291 -0.0631334 2.29798e-21)
(2.46993 -0.201408 -8.11257e-35)
(2.47242 -0.434368 4.38023e-19)
(2.32613 -0.584907 2.58406e-19)
(2.10614 -0.563337 0)
(1.87844 -0.413533 -7.61812e-20)
(1.65505 -0.248153 -9.67806e-20)
(1.48388 -0.139573 -8.34092e-20)
(1.33832 -0.0773152 1.17516e-33)
(1.26568 -0.0545267 -2.5049e-20)
(1.17687 -0.0436066 -3.16649e-21)
(2.4268 -0.21447 2.79989e-20)
(2.42043 -0.395776 -3.70736e-22)
(2.29804 -0.516261 0)
(2.08684 -0.475876 0)
(1.86428 -0.327154 0)
(1.64244 -0.175044 0)
(1.46959 -0.0836528 5.07408e-21)
(1.32345 -0.0389254 1.381e-33)
(1.25294 -0.0263717 -2.02254e-21)
(1.16721 -0.0269696 -4.57156e-34)
(2.3873 -0.222871 6.97898e-20)
(2.37272 -0.357591 0)
(2.25412 -0.45257 0)
(2.01992 -0.40238 0)
(1.76954 -0.249518 0)
(1.54406 -0.102849 0)
(1.3864 -0.0242335 -1.08274e-20)
(1.26224 0.00241502 3.84138e-20)
(1.20893 0.00267435 -2.38243e-21)
(1.13932 -0.01027 -1.09583e-21)
(2.33984 -0.221768 0)
(2.29613 -0.321971 1.27927e-19)
(2.11179 -0.378923 8.37248e-20)
(1.81341 -0.305511 0)
(1.54234 -0.156558 -5.36808e-20)
(1.33864 -0.0327928 -5.19479e-20)
(1.222 0.0220044 -4.63124e-20)
(1.14211 0.0300239 -1.8037e-20)
(1.11911 0.0211524 1.2756e-20)
(1.07703 0.00152401 -5.82037e-21)
(2.19567 -0.202636 -3.74429e-21)
(2.05465 -0.261066 -1.69592e-21)
(1.74555 -0.267967 -2.27094e-21)
(1.37958 -0.186693 -1.18186e-35)
(1.122 -0.0679994 1.281e-20)
(0.986705 0.0166259 -2.44023e-34)
(0.947003 0.0460356 -1.26381e-20)
(0.933425 0.0409341 -2.6088e-20)
(0.949214 0.0273678 -2.64193e-21)
(0.941273 0.00710754 5.01419e-21)
(1.70248 -0.151241 2.75019e-20)
(1.42379 -0.158223 -2.74588e-20)
(1.02674 -0.119517 -1.18231e-20)
(0.693127 -0.0584176 0)
(0.537017 -0.00347865 3.74449e-21)
(0.514447 0.0309008 4.11519e-21)
(0.560562 0.0395146 -6.56188e-21)
(0.607842 0.0306148 5.17157e-21)
(0.652967 0.0196233 -8.56865e-21)
(0.671811 0.00619462 -4.49934e-21)
(0.593617 -0.0253125 0)
(0.371323 -0.00712129 0)
(0.181924 -0.000191264 0)
(0.0652558 -0.000925063 0)
(0.0284507 0.000690243 0)
(0.0582456 0.00526412 0)
(0.118664 0.0066016 -1.2568e-20)
(0.17228 0.00472037 4.11862e-35)
(0.212245 0.00284523 -2.97896e-21)
(0.233984 0.000826438 -5.26742e-21)
(2.50524 0.227947 8.00461e-19)
(2.54376 0.158591 4.88457e-20)
(2.55991 0.0882383 -7.93761e-20)
(2.57676 0.0351231 -2.53249e-19)
(2.58123 -0.0286265 -4.64084e-20)
(2.54896 -0.0565926 -7.06945e-20)
(2.54096 -0.120118 -2.2257e-19)
(2.33376 -0.104307 1.61401e-20)
(2.25675 -0.159425 0)
(1.61049 -0.0610122 1.80171e-20)
(2.4337 0.18602 2.56676e-19)
(2.42987 0.144321 -2.92651e-19)
(2.51177 0.0714336 -6.27928e-20)
(2.46834 0.0418959 -1.24801e-19)
(2.57665 -0.029945 1.02641e-19)
(2.4763 -0.0488043 1.77356e-19)
(2.6196 -0.116133 -2.20947e-19)
(2.43611 -0.137619 8.11723e-22)
(2.56776 -0.179545 -3.25744e-20)
(2.2677 -0.21444 7.03654e-20)
(2.38471 0.152736 -1.16308e-19)
(2.3495 0.120071 2.63729e-19)
(2.45941 0.0588103 1.60217e-19)
(2.3906 0.029159 -2.68919e-19)
(2.51487 -0.0247257 -4.49084e-20)
(2.42012 -0.0592083 3.73874e-19)
(2.54607 -0.0972978 6.56201e-20)
(2.44709 -0.147191 -6.96265e-20)
(2.54 -0.158678 -3.86662e-20)
(2.45635 -0.225606 -4.21717e-20)
(2.32723 0.122457 -3.01906e-19)
(2.31089 0.0880438 -5.09646e-20)
(2.39119 0.0459454 3.00157e-20)
(2.35873 0.00878378 -1.21563e-20)
(2.43278 -0.0241417 -2.30254e-19)
(2.39741 -0.0684474 -8.45237e-20)
(2.45411 -0.0877391 2.13296e-19)
(2.43315 -0.140911 -1.24347e-20)
(2.46343 -0.146303 4.16948e-20)
(2.46408 -0.204447 1.7057e-20)
(2.27079 0.0923737 4.19084e-20)
(2.2841 0.0580044 1.33368e-19)
(2.32911 0.0286327 -2.18935e-20)
(2.33495 -0.0085838 1.86206e-19)
(2.36832 -0.0319117 -5.65985e-20)
(2.37352 -0.0726452 -2.33942e-19)
(2.39257 -0.0890591 3.64531e-20)
(2.40301 -0.132099 -8.24254e-20)
(2.4096 -0.143464 5.33405e-22)
(2.42619 -0.186692 -1.36045e-20)
(2.22537 0.0599909 -1.671e-19)
(2.25376 0.0299122 -7.36317e-20)
(2.28249 0.00687366 -5.52836e-21)
(2.30491 -0.0246136 1.13687e-19)
(2.32401 -0.0450155 2.70866e-19)
(2.3427 -0.0776079 -6.9135e-20)
(2.35272 -0.0957152 6.30776e-21)
(2.36955 -0.128616 -7.51828e-20)
(2.37257 -0.145367 -1.10897e-19)
(2.38887 -0.177991 -3.68215e-20)
(2.17719 0.0271468 -5.66274e-20)
(2.2089 0.00291603 -1.27048e-19)
(2.23234 -0.0156834 -1.47841e-19)
(2.25912 -0.0407329 -2.71104e-19)
(2.27493 -0.058536 7.09711e-20)
(2.29804 -0.0845745 6.61515e-20)
(2.3066 -0.102111 2.22104e-21)
(2.32779 -0.129129 8.21995e-20)
(2.32933 -0.14656 -9.24929e-20)
(2.35111 -0.174507 -5.23849e-20)
(2.06969 -0.00278006 6.24032e-20)
(2.09896 -0.0203823 3.46767e-20)
(2.11415 -0.0338945 1.95112e-20)
(2.14205 -0.0524128 -4.0691e-20)
(2.14988 -0.0656935 -3.8875e-20)
(2.17866 -0.0857038 -4.1118e-20)
(2.17857 -0.0994178 -5.03148e-20)
(2.21082 -0.121457 9.7698e-20)
(2.20158 -0.135871 -4.55791e-20)
(2.24053 -0.160115 2.21362e-20)
(1.74994 -0.0252517 -6.41958e-20)
(1.76257 -0.0346283 -8.56634e-21)
(1.76157 -0.041961 1.19671e-19)
(1.77625 -0.0517359 -1.35514e-20)
(1.76867 -0.0589258 -3.42864e-20)
(1.78886 -0.0701621 7.1654e-20)
(1.77202 -0.0778998 -5.29473e-20)
(1.80159 -0.0915102 3.93693e-20)
(1.7714 -0.100485 -1.11188e-20)
(1.81557 -0.117054 -6.94536e-20)
(0.877556 -0.0131752 5.08151e-20)
(0.862793 -0.0127803 4.21321e-20)
(0.846274 -0.0124293 4.16854e-20)
(0.833096 -0.012423 6.8123e-20)
(0.816163 -0.0128806 -3.48498e-20)
(0.805697 -0.013684 -4.39932e-20)
(0.785441 -0.0150761 1.97327e-20)
(0.779796 -0.0172719 -2.75465e-21)
(0.747605 -0.0186607 4.14195e-21)
(0.757829 -0.0265683 -6.03303e-21)
(1.575 0.963253 -8.66825e-20)
(1.55859 1.0094 2.69655e-20)
(1.56222 1.06337 -6.49124e-19)
(1.571 1.12478 2.36748e-19)
(1.57764 1.18952 1.21536e-18)
(1.57348 1.24956 -1.48007e-19)
(1.53654 1.28245 -1.07657e-18)
(1.41628 1.23587 -6.37654e-22)
(1.123 1.01321 -5.29634e-19)
(0.526872 0.487313 1.18495e-19)
(1.74042 0.933108 0)
(1.72887 0.977635 7.49735e-19)
(1.7287 1.02759 1.65972e-18)
(1.73698 1.08632 -1.02301e-18)
(1.74686 1.14946 -2.38729e-18)
(1.74602 1.2074 -1.55708e-19)
(1.70713 1.23647 -1.99599e-19)
(1.572 1.18501 7.29199e-19)
(1.2408 0.962485 1.09772e-18)
(0.576544 0.455603 4.31871e-19)
(1.89353 0.891818 6.89603e-20)
(1.89082 0.936147 0)
(1.89185 0.983168 -6.81915e-20)
(1.90068 1.03738 1.04276e-18)
(1.91257 1.09572 5.64688e-20)
(1.91299 1.14829 -2.327e-18)
(1.86956 1.17081 1.47107e-18)
(1.71655 1.11376 8.68825e-19)
(1.34592 0.894333 -9.4014e-19)
(0.617165 0.414689 -2.76014e-19)
(2.02796 0.843201 -1.90402e-19)
(2.03529 0.885363 -1.39712e-19)
(2.04168 0.928564 2.85265e-19)
(2.05338 0.977121 -3.53614e-19)
(2.06722 1.02879 -1.63477e-18)
(2.06719 1.07374 -1.26928e-18)
(2.0162 1.08802 1.33156e-18)
(1.84228 1.02329 8.83808e-19)
(1.42966 0.80841 0)
(0.643887 0.364747 0)
(2.14612 0.777789 -9.37098e-19)
(2.16196 0.817624 -1.7177e-18)
(2.17501 0.857374 -6.59857e-19)
(2.19075 0.90072 -3.41147e-20)
(2.20617 0.945734 0)
(2.20386 0.982139 1.37313e-19)
(2.14192 0.985893 1.58472e-19)
(1.94128 0.915605 1.97801e-19)
(1.48486 0.708743 -2.82952e-19)
(0.653313 0.30687 -7.08203e-20)
(2.25006 0.70399 1.1195e-18)
(2.27259 0.739358 -4.19031e-20)
(2.29142 0.774382 -1.31087e-18)
(2.31067 0.811594 0)
(2.3264 0.848313 0)
(2.31822 0.874952 0)
(2.2391 0.869102 1.49918e-18)
(2.00586 0.79296 -1.65202e-18)
(1.50669 0.595829 -1.04406e-18)
(0.642464 0.243703 1.6517e-20)
(2.34018 0.617916 -1.45457e-18)
(2.36757 0.648934 -3.05172e-18)
(2.3906 0.679367 -5.29203e-21)
(2.41164 0.710555 6.17371e-19)
(2.4246 0.739306 -3.75873e-20)
(2.40537 0.755863 1.29949e-18)
(2.30255 0.739708 -7.18143e-19)
(2.03152 0.658332 -1.89501e-18)
(1.49001 0.474509 1.04298e-19)
(0.61003 0.179316 8.09314e-20)
(2.41863 0.528267 -1.13236e-18)
(2.44757 0.553774 1.58192e-20)
(2.47189 0.578663 4.26617e-19)
(2.49176 0.603015 -4.12204e-19)
(2.4977 0.623046 6.40868e-19)
(2.46124 0.628955 1.70004e-18)
(2.32692 0.602377 -1.48134e-19)
(2.01194 0.51743 -9.92473e-19)
(1.43059 0.351576 2.2474e-19)
(0.556413 0.118301 4.1041e-20)
(2.48226 0.434232 4.13367e-19)
(2.51132 0.455367 8.14171e-20)
(2.53439 0.474732 -4.23934e-19)
(2.54938 0.492005 -9.94078e-19)
(2.54265 0.503034 6.87726e-20)
(2.48084 0.498386 5.21631e-20)
(2.30584 0.462546 -1.21849e-18)
(1.94128 0.377088 5.2045e-19)
(1.32663 0.234448 1.49474e-19)
(0.484138 0.0651595 -5.90904e-20)
(2.53227 0.342894 7.66179e-19)
(2.55831 0.359044 -1.14131e-18)
(2.5769 0.37231 1.69381e-19)
(2.58199 0.382137 2.25204e-18)
(2.55492 0.384078 1.09226e-18)
(2.45765 0.369585 -2.3563e-18)
(2.23218 0.326707 -2.17402e-18)
(1.81495 0.245006 9.13669e-19)
(1.17934 0.130807 -3.79045e-20)
(0.397931 0.0236167 -9.83529e-20)
(0.543675 0.405401 -1.61782e-19)
(0.503049 0.419247 -1.61562e-19)
(0.457352 0.433986 7.06485e-20)
(0.407209 0.449772 -2.30476e-19)
(0.352297 0.46646 -1.84609e-20)
(0.29177 0.482589 2.11346e-19)
(0.224653 0.492158 3.22388e-20)
(0.1514 0.478005 6.17582e-21)
(0.0790715 0.403045 2.13711e-20)
(0.0162033 0.205544 1.27244e-20)
(0.588346 0.512207 1.29921e-19)
(0.548732 0.532703 1.65186e-19)
(0.504898 0.55468 4.74002e-20)
(0.457036 0.578294 -4.74748e-20)
(0.404494 0.603287 -2.11889e-19)
(0.34615 0.627662 -1.79423e-20)
(0.280313 0.643495 4.82454e-20)
(0.20554 0.628122 4.2354e-20)
(0.125084 0.532013 -1.27741e-19)
(0.0399946 0.272578 -4.42162e-20)
(0.650667 0.611348 -1.05146e-19)
(0.612355 0.63761 -9.10163e-20)
(0.570932 0.665837 9.32094e-20)
(0.526132 0.696509 6.28932e-20)
(0.47702 0.729483 -8.04253e-20)
(0.422149 0.762306 -1.57656e-20)
(0.358747 0.785049 -1.11474e-19)
(0.28248 0.769408 -8.7032e-20)
(0.190703 0.653544 -7.16846e-20)
(0.0739509 0.335299 1.71319e-22)
(0.730389 0.706847 2.83896e-20)
(0.69395 0.739508 -5.72772e-20)
(0.655865 0.773985 -7.71139e-20)
(0.614885 0.810983 -6.72265e-20)
(0.569654 0.850505 -6.57619e-20)
(0.518543 0.889777 -8.53552e-21)
(0.457729 0.917091 -2.9373e-19)
(0.379403 0.899118 6.55974e-20)
(0.273222 0.76339 -3.3045e-19)
(0.116569 0.391067 4.93743e-20)
(0.822917 0.785772 1.12076e-20)
(0.789091 0.823399 1.64825e-20)
(0.755671 0.863402 -5.03616e-20)
(0.720521 0.906833 -2.77616e-19)
(0.681477 0.953458 1.28606e-19)
(0.636102 0.999816 4.7608e-20)
(0.578946 1.03242 3.60042e-20)
(0.497952 1.01322 -1.92388e-19)
(0.373442 0.859859 3.98264e-19)
(0.167711 0.439185 2.8901e-19)
(0.931763 0.863994 -1.01085e-19)
(0.899483 0.906043 -1.94787e-19)
(0.869266 0.949288 1.11975e-20)
(0.838428 0.99623 1.01664e-19)
(0.804778 1.04721 3.79946e-19)
(0.765345 1.09808 2.82558e-19)
(0.71251 1.13315 6.70976e-19)
(0.628933 1.10999 2.74813e-19)
(0.484318 0.938743 1.47603e-19)
(0.224147 0.476795 2.08957e-19)
(1.04661 0.915517 -1.09611e-19)
(1.0206 0.962363 6.36755e-19)
(0.998312 1.01013 4.17734e-19)
(0.975132 1.06136 -5.41139e-19)
(0.948303 1.11664 -2.70515e-19)
(0.914777 1.1718 6.97438e-19)
(0.865328 1.20964 -1.08281e-19)
(0.777057 1.18383 -4.73773e-19)
(0.607881 0.998014 2.96259e-20)
(0.285655 0.503375 2.61149e-19)
(1.16793 0.968574 3.14733e-19)
(1.14193 1.01576 5.98761e-20)
(1.12444 1.06386 -7.93953e-19)
(1.1095 1.11694 1.76443e-19)
(1.09229 1.17466 6.1267e-19)
(1.06766 1.23143 -3.34773e-19)
(1.02348 1.26842 -1.06319e-19)
(0.93071 1.23665 -1.94373e-19)
(0.73539 1.03631 1.96524e-20)
(0.348249 0.517652 -3.02989e-19)
(1.2991 0.985849 1.83879e-20)
(1.28375 1.03674 -5.8196e-19)
(1.27352 1.0857 -4.92863e-21)
(1.26405 1.1398 4.98515e-19)
(1.25266 1.19999 -5.18627e-19)
(1.23403 1.25957 1.01343e-18)
(1.1928 1.29733 6.79632e-19)
(1.09271 1.26158 -9.99981e-19)
(0.867206 1.05096 -7.96337e-20)
(0.410984 0.51926 -3.35265e-19)
(1.40164 0.995443 -3.53141e-19)
(1.39827 1.04735 -3.32011e-19)
(1.40582 1.09807 3.07103e-19)
(1.41141 1.15281 8.17554e-19)
(1.41159 1.21224 2.91768e-19)
(1.40155 1.27007 -8.40434e-19)
(1.36375 1.30435 1.10965e-19)
(1.25514 1.26228 2.27426e-19)
(0.997233 1.0434 -3.05487e-19)
(0.471077 0.508983 -2.37455e-19)
(0.995456 0.0119692 6.38175e-22)
(1.01098 0.0418884 -1.79309e-20)
(1.02347 0.0517464 -1.39735e-20)
(1.02432 0.0764357 0)
(1.02406 0.0929245 1.66552e-20)
(1.02147 0.120942 2.41177e-20)
(0.998778 0.164604 3.24325e-20)
(0.95688 0.20285 7.32193e-20)
(0.872973 0.26794 -1.12698e-19)
(0.720838 0.336224 -1.65547e-19)
(0.996238 0.0100734 3.70105e-20)
(1.00883 0.0395327 -5.79418e-20)
(1.02303 0.0499226 2.0358e-22)
(1.02231 0.0759841 -1.75607e-20)
(1.02425 0.0932911 8.40506e-21)
(1.02236 0.125367 -1.24192e-20)
(1.00201 0.173738 -7.54923e-20)
(0.967415 0.22193 0)
(0.88635 0.305168 2.34612e-19)
(0.758394 0.406188 -2.60629e-19)
(0.996661 0.00840148 -2.67559e-20)
(1.00761 0.0374229 1.60297e-20)
(1.02254 0.0479148 3.68847e-20)
(1.02213 0.0759654 9.29934e-21)
(1.02478 0.093131 -2.04266e-20)
(1.02613 0.130399 1.13761e-21)
(1.00602 0.181982 -5.29107e-20)
(0.982658 0.240992 -6.23811e-21)
(0.902657 0.340677 1.4314e-22)
(0.810178 0.473278 7.13744e-19)
(0.996791 0.0068714 -2.99316e-20)
(1.00714 0.0355694 2.24327e-21)
(1.02215 0.0455985 3.01574e-20)
(1.02353 0.076412 1.98382e-20)
(1.02581 0.0922897 -1.02809e-20)
(1.03243 0.136159 -1.47179e-20)
(1.01096 0.189037 7.71043e-20)
(1.00246 0.260616 -1.92049e-21)
(0.921492 0.373286 -2.60329e-19)
(0.876017 0.536101 8.89295e-20)
(0.996712 0.00541022 2.07511e-20)
(1.00717 0.0339337 -2.97237e-20)
(1.02214 0.0429093 -2.41828e-20)
(1.02613 0.0772769 1.18219e-20)
(1.02769 0.0907188 0)
(1.04066 0.142596 0)
(1.01761 0.194809 6.54501e-20)
(1.02525 0.280775 6.0133e-22)
(0.945463 0.402889 -1.19376e-19)
(0.951626 0.592775 9.19392e-20)
(0.99652 0.00395606 5.83241e-21)
(1.00745 0.0324226 2.3879e-20)
(1.02281 0.0398339 -6.60357e-20)
(1.02954 0.0784232 -2.29326e-20)
(1.03078 0.0884575 -5.55876e-22)
(1.0504 0.149645 6.28261e-20)
(1.02611 0.199088 1.0121e-19)
(1.05164 0.302052 -5.62881e-22)
(0.971003 0.427236 1.97906e-19)
(1.04422 0.649617 -2.16359e-19)
(0.99628 0.00250262 -2.2422e-20)
(1.00779 0.0309018 1.26134e-20)
(1.02446 0.0364084 -1.81536e-20)
(1.03336 0.0796521 -4.90396e-20)
(1.03555 0.085636 1.76631e-21)
(1.06089 0.157051 -1.56384e-21)
(1.03786 0.202139 -5.46423e-21)
(1.07833 0.323647 -2.17779e-19)
(1.00735 0.447324 1.45906e-19)
(1.13036 0.690049 -5.36075e-19)
(0.996017 0.00105215 -3.80098e-21)
(1.00811 0.0292093 -3.63653e-20)
(1.02727 0.0326989 3.67314e-20)
(1.03731 0.0807591 2.61638e-20)
(1.04227 0.0824284 9.21704e-22)
(1.07185 0.164393 -7.32379e-20)
(1.05267 0.204373 -5.68306e-20)
(1.10758 0.345657 3.89634e-19)
(1.04296 0.464497 1.46748e-20)
(1.24777 0.748211 8.41439e-19)
(0.995727 -0.00037669 1.53492e-20)
(1.00846 0.0271905 1.65628e-20)
(1.03123 0.0288053 4.31191e-20)
(1.04136 0.0816211 -2.88613e-20)
(1.05095 0.0789036 -7.60564e-20)
(1.08288 0.171794 1.08587e-21)
(1.07164 0.203898 -7.84774e-20)
(1.13659 0.365695 5.05802e-19)
(1.09892 0.463945 -8.98915e-21)
(1.31697 0.764673 -1.16796e-18)
(0.995417 -0.0017194 3.53807e-22)
(1.00893 0.0247233 2.58798e-20)
(1.03612 0.0251034 1.42136e-20)
(1.04586 0.0818277 -5.79718e-20)
(1.06034 0.0770901 -7.4564e-20)
(1.09339 0.179088 -6.22132e-20)
(1.09139 0.211575 -1.44631e-19)
(1.16176 0.388662 -4.56245e-19)
(1.1573 0.491375 -2.46503e-19)
(1.45544 0.833985 -1.22531e-18)
(0.995198 -0.0039913 -1.10641e-21)
(1.00905 0.02096 -5.68272e-21)
(1.0434 0.01774 -1.6286e-20)
(1.05259 0.0811057 3.2135e-20)
(1.07212 0.0671516 5.64858e-20)
(1.11398 0.182987 -4.07583e-20)
(1.11299 0.194989 1.40084e-19)
(1.2074 0.397691 -4.21209e-19)
(1.21937 0.429182 -1.88991e-19)
(1.46921 0.824968 6.42395e-19)
(0.995533 -0.00739356 1.3252e-21)
(1.0087 0.014994 1.10194e-20)
(1.05511 0.00580752 -1.12315e-20)
(1.05762 0.0781437 5.90685e-20)
(1.09192 0.049341 9.70232e-20)
(1.13285 0.179518 1.20394e-19)
(1.15119 0.168409 3.19399e-20)
(1.23448 0.382277 1.9968e-19)
(1.31836 0.376739 3.09591e-19)
(1.49046 0.723142 2.76932e-20)
(0.995066 -0.0108017 -1.45162e-21)
(1.01058 0.00665196 -3.94177e-21)
(1.0688 -0.00580798 3.8265e-21)
(1.06039 0.072645 4.32937e-21)
(1.11952 0.0309026 2.96726e-34)
(1.14388 0.171493 -7.02595e-21)
(1.19583 0.142802 -5.08305e-34)
(1.25032 0.354792 1.86732e-20)
(1.39328 0.319649 -5.63935e-20)
(1.52985 0.631339 -5.68469e-20)
(0.992392 -0.0149903 1.44586e-20)
(1.01817 -0.00447674 -4.46021e-35)
(1.07933 -0.0163678 -4.35006e-21)
(1.06861 0.0621739 -2.49649e-20)
(1.14687 0.0141631 -4.88215e-20)
(1.1551 0.15995 -4.06851e-20)
(1.23104 0.118494 -6.48036e-34)
(1.27306 0.322378 -7.67016e-20)
(1.43051 0.263931 -1.42868e-19)
(1.56718 0.539123 9.54575e-20)
(0.987145 -0.0207729 0)
(1.03308 -0.0178442 2.6372e-35)
(1.08399 -0.0260142 0)
(1.08988 0.0450671 0)
(1.16714 0.000190267 0)
(1.17436 0.142762 0)
(1.25243 0.0969301 -4.51915e-34)
(1.30408 0.282765 0)
(1.44546 0.215867 -1.99781e-20)
(1.59959 0.441912 5.65565e-20)
(0.979781 -0.028609 2.6505e-21)
(1.05403 -0.0314577 2.61898e-21)
(1.08586 -0.0351603 -5.39948e-21)
(1.123 0.0247737 0)
(1.17952 -0.00835098 0)
(1.19904 0.121815 6.11722e-21)
(1.26763 0.0793716 4.19523e-20)
(1.33479 0.237693 -1.33854e-20)
(1.46202 0.173153 -2.91559e-20)
(1.62247 0.348493 2.18369e-19)
(0.971832 -0.0432536 -8.02063e-20)
(1.07954 -0.0513446 1.52635e-21)
(1.08831 -0.0506685 -5.99127e-21)
(1.15747 -0.00338437 -1.54696e-20)
(1.17423 -0.0159365 -2.96398e-20)
(1.21436 0.0946445 -1.25751e-20)
(1.26994 0.0623039 -3.48695e-20)
(1.35496 0.187926 -3.02823e-20)
(1.47397 0.13385 -5.51888e-20)
(1.63188 0.26329 6.73803e-20)
(0.965715 -0.0506747 -5.78312e-21)
(1.10105 -0.0594571 -1.81235e-20)
(1.07542 -0.0549531 -6.6008e-21)
(1.15519 -0.0197065 -5.08568e-21)
(1.10782 -0.0129334 -4.82995e-35)
(1.18828 0.0672025 6.39647e-21)
(1.21065 0.0465352 -8.46415e-34)
(1.33957 0.135486 -1.29608e-20)
(1.43331 0.096601 1.81498e-20)
(1.61885 0.183375 2.58794e-20)
(0.959693 -0.0919671 1.96373e-19)
(1.05757 -0.0893255 -4.87951e-21)
(0.963869 -0.0736291 -7.10818e-21)
(0.993864 -0.0348107 1.37885e-20)
(0.886104 -0.0102018 1.65613e-20)
(1.00914 0.0356725 1.42024e-20)
(0.987504 0.0298301 1.48732e-20)
(1.17839 0.0794177 -8.88418e-21)
(1.23347 0.060399 -2.01844e-20)
(1.47926 0.104209 1.41193e-19)
(0.827785 -0.0462724 8.29682e-21)
(0.731016 -0.0338562 -9.37915e-35)
(0.535108 -0.018164 -8.26455e-21)
(0.476396 -0.00258214 0)
(0.404154 0.000678243 0)
(0.485475 0.00944169 6.29944e-21)
(0.483339 0.00547956 -5.29927e-36)
(0.626303 0.0174939 -1.25169e-20)
(0.684379 0.00992988 -2.65733e-20)
(0.871347 0.0182732 5.58327e-20)
(1.6783 0.847135 -1.93681e-19)
(1.77927 0.828754 -2.85426e-19)
(1.89709 0.792726 0)
(2.00539 0.749553 1.59366e-19)
(2.10684 0.688154 6.74953e-19)
(2.19677 0.623337 -1.17295e-19)
(2.2775 0.545648 1.72781e-18)
(2.35178 0.468962 -8.50437e-20)
(2.41158 0.385287 -3.7605e-19)
(2.46891 0.307147 3.3169e-19)
(1.70427 0.695146 9.99015e-20)
(1.77783 0.680623 1.13525e-19)
(1.87714 0.644728 -1.45169e-20)
(1.95982 0.607444 2.21478e-19)
(2.05684 0.549488 -1.80718e-19)
(2.12137 0.500574 -4.19061e-19)
(2.20779 0.432557 -1.27454e-19)
(2.25427 0.380923 5.71867e-19)
(2.33356 0.308791 -2.20817e-20)
(2.35891 0.259424 -4.87158e-19)
(1.73494 0.579516 9.72379e-20)