/*--------------------------------*- C++ -*----------------------------------*\
  =========                 |
  \\      /  F ield         | OpenFOAM: The Open Source CFD Toolbox
   \\    /   O peration     | Website:  https://openfoam.org
    \\  /    A nd           | Version:  13
     \\/     M anipulation  |
\*---------------------------------------------------------------------------*/
FoamFile
{
    format      ascii;
    class       volScalarField;
    location    "0.6";
    object      p;
}
// * * * * * * * * * * * * * * * * * * * * * * * * * * * * * * * * * * * * * //

dimensions      [0 2 -2 0 0 0 0];

internalField   nonuniform List<scalar> 
1800
(
5.74589
7.853
10.0058
11.4342
12.2686
12.6793
12.8103
12.653
11.4069
7.31505
9.59587
12.0716
14.5765
16.2606
17.3172
17.9799
18.4347
18.6739
17.9495
15.2719
15.9885
18.6133
21.286
23.1493
24.4095
25.2913
25.9422
26.3256
25.8545
24.0236
24.9839
27.5534
30.2018
32.1163
33.4816
34.4907
35.2532
35.7052
35.2991
33.6145
36.0427
38.4036
40.8559
42.6675
43.9919
44.9881
45.7426
46.192
45.8419
44.2864
48.7198
50.7723
52.916
54.5223
55.7133
56.6156
57.2978
57.7084
57.4273
56.068
62.6683
64.3411
66.0969
67.4288
68.4309
69.2005
69.792
70.169
69.9939
68.9052
77.5943
78.8358
80.1469
81.1563
81.9322
82.546
83.0402
83.395
83.3617
82.6252
93.2125
93.9922
94.8237
95.4786
96.0015
96.4389
96.8217
97.1451
97.2553
96.9209
109.241
109.546
109.878
110.153
110.39
110.611
110.828
111.042
111.203
111.23
-0.602481
-0.854788
-0.632218
-0.217722
0.254496
0.721971
1.08158
1.2927
1.43767
1.58409
-0.482958
-0.997415
-1.10591
-0.899129
-0.475059
-0.0507282
0.242634
0.485345
0.765126
1.03832
0.513224
-0.45286
-1.28267
-1.44746
-1.12052
-0.813954
-0.599312
-0.293703
0.113398
0.499157
0.905218
-0.23501
-1.43059
-1.76849
-1.54838
-1.39371
-1.26734
-0.961601
-0.504559
0.0033518
0.474749
-0.492412
-1.43114
-1.72196
-1.66471
-1.67437
-1.6367
-1.37436
-0.882883
-0.188571
-0.226987
-0.743458
-1.14316
-1.27247
-1.29294
-1.35762
-1.34927
-1.14034
-0.615492
0.317104
-0.560422
-0.522496
-0.345704
-0.19958
-0.114914
-0.0941597
-0.0554059
0.114785
0.692872
1.92314
-0.0755758
0.5108
1.23186
1.73635
2.06594
2.27928
2.42894
2.64586
3.37675
5.03914
1.37263
2.48059
3.72905
4.65054
5.32056
5.81294
6.15309
6.49247
7.47952
9.76716
3.61511
5.258
7.07618
8.45211
9.47484
10.235
10.7575
11.2106
12.2719
14.4353
2.30137
2.44039
2.334
2.09016
1.58867
1.18565
0.856802
0.583846
0.354296
0.134161
1.95156
2.4166
2.22929
2.006
1.5047
1.10654
0.807489
0.566853
0.354686
0.137939
1.47364
2.38712
2.12779
1.9132
1.42851
1.03917
0.76312
0.549223
0.350781
0.138825
0.84904
2.3049
2.02785
1.80682
1.35242
0.978806
0.724482
0.53284
0.343347
0.136718
0.155271
2.12945
1.91774
1.68464
1.27107
0.921992
0.69008
0.517646
0.337405
0.134997
-0.417073
1.85102
1.77991
1.54498
1.18101
0.866783
0.658807
0.503897
0.334107
0.135466
-0.566268
1.50301
1.60095
1.38516
1.07993
0.811603
0.630408
0.492038
0.334097
0.137692
0.162507
1.17404
1.37175
1.19617
0.963923
0.754136
0.604432
0.482461
0.335844
0.140124
2.41897
1.0379
1.07158
0.953364
0.824268
0.691126
0.579798
0.474825
0.331872
0.136283
6.65398
1.40703
0.714612
0.636387
0.65292
0.620514
0.555651
0.463246
0.320438
0.125923
9.9813
2.57856
0.6919
0.395237
0.47547
0.540093
0.522881
0.438773
0.2977
0.110109
11.7666
2.5737
0.267477
0.0572148
0.355425
0.502926
0.487657
0.395949
0.26057
0.0850269
12.8637
2.77732
0.39386
0.148675
0.465203
0.562786
0.486567
0.363869
0.22364
0.0580807
14.1834
4.3632
1.2777
0.722761
0.785768
0.712277
0.526303
0.34777
0.190802
0.0309179
16.36
7.10803
2.70015
1.58967
1.24002
0.932183
0.608453
0.352553
0.16666
0.00660758
19.2511
9.87512
4.33558
2.55816
1.77293
1.2022
0.725059
0.378995
0.154596
-0.0118951
21.7558
11.9376
5.85427
3.5197
2.34087
1.50117
0.864495
0.424461
0.15607
-0.0223592
23.035
13.1206
7.05141
4.42019
2.9154
1.81462
1.01786
0.485309
0.171062
-0.0235049
22.9749
13.4996
7.9119
5.26745
3.50499
2.15043
1.19112
0.56521
0.203193
-0.0135173
22.422
13.7245
8.68311
6.12836
4.13106
2.52882
1.40627
0.681128
0.270546
0.0130072
111.787
97.8408
84.0761
71.0708
59.1314
48.3512
38.7697
30.093
20.0817
4.9765
112.767
99.4785
85.9776
72.9712
60.9281
50.0473
40.5142
32.2562
23.5912
11.4779
113.298
100.213
87.3326
75.0062
63.4673
52.8754
43.4455
35.2569
27.4706
18.3365
114.511
102.77
90.8114
78.9804
67.6237
57.0283
47.3951
38.7946
31.0877
23.8246
115.088
104.077
93.1559
82.4647
72.1177
62.1932
52.7307
43.82
36.0016
29.8225
115.437
104.71
94.2034
84.0416
74.321
65.0916
56.3323
48.0909
41.0492
36.0321
115.669
105.11
94.7982
84.866
75.4232
66.5427
58.2339
50.5664
44.2125
40.0931
115.769
105.248
94.9812
85.1098
75.7556
67.0097
58.9059
51.5126
45.3958
41.4362
115.719
105.033
94.6068
84.5876
75.1085
66.2759
58.1458
50.7764
44.5526
40.0998
115.595
104.648
93.9609
83.6833
73.9579
64.9077
56.6129
49.1182
42.6093
37.4144
234.124
229.762
228.195
227.753
227.662
227.914
228.648
230.029
232.181
234.32
225.561
222.543
221.494
221.455
221.681
222.166
223.097
224.704
227.176
229.652
216.048
213.873
213.101
213.226
213.657
214.36
215.485
217.255
219.869
222.467
205.741
203.714
203.01
203.206
203.75
204.58
205.804
207.612
210.181
212.7
194.418
192.509
191.854
192.042
192.574
193.386
194.562
196.257
198.611
200.902
182.051
180.327
179.733
179.875
180.328
181.039
182.075
183.552
185.582
187.547
168.705
167.243
166.749
166.851
167.208
167.78
168.619
169.813
171.44
173.011
154.571
153.455
153.1
153.177
153.433
153.845
154.452
155.315
156.485
157.613
139.962
139.248
139.041
139.091
139.236
139.47
139.821
140.323
141.004
141.661
125.437
125.093
124.953
124.906
124.893
124.915
124.982
125.102
125.279
125.455
246.546
246.784
247.035
247.253
247.551
248.051
248.602
248.938
248.945
248.433
246.624
246.954
247.357
247.662
247.862
248.196
248.619
248.535
247.721
246.702
246.638
247.034
247.478
247.789
247.872
248.003
248.284
247.924
246.536
245.281
246.52
247.021
247.451
247.683
247.616
247.502
247.538
247.115
245.82
244.661
246.029
246.683
247.072
247.179
247.001
246.725
246.549
246.189
245.38
244.589
244.821
245.664
246.001
245.966
245.736
245.452
245.257
245.086
244.846
244.559
242.475
243.572
243.911
243.796
243.587
243.423
243.389
243.52
243.827
244.067
238.59
240.077
240.547
240.481
240.398
240.45
240.688
241.183
241.996
242.735
233.117
235.172
235.881
235.949
236.075
236.421
237.009
237.914
239.219
240.431
227.762
229.628
230.373
230.54
230.848
231.465
232.407
233.758
235.605
237.313
246.945
246.722
246.685
246.49
246.419
246.296
245.92
245.665
245.566
245.712
246.904
246.721
246.681
246.492
246.418
246.303
245.93
245.65
245.378
245.736
246.877
246.717
246.672
246.488
246.41
246.305
245.934
245.6
245.145
245.823
246.859
246.71
246.659
246.475
246.396
246.302
245.926
245.512
244.929
246.012
246.847
246.7
246.643
246.457
246.377
246.29
245.903
245.405
244.796
246.25
246.84
246.688
246.625
246.434
246.353
246.266
245.868
245.313
244.771
246.358
246.838
246.674
246.605
246.408
246.324
246.23
245.833
245.261
244.816
246.024
246.841
246.656
246.583
246.379
246.292
246.19
245.815
245.263
244.836
244.786
246.85
246.635
246.559
246.347
246.257
246.16
245.845
245.337
244.656
242.01
246.866
246.611
246.531
246.313
246.225
246.157
245.946
245.461
243.977
237.294
246.904
246.586
246.491
246.258
246.162
246.088
245.872
245.129
242.441
233.741
247.02
246.567
246.454
246.21
246.108
246.13
246.073
245.332
242.176
231.798
247.262
246.574
246.418
246.134
246.031
246.094
246.07
245.241
241.887
230.535
247.715
246.629
246.39
246.051
245.893
245.826
245.623
244.54
240.485
229.318
248.554
246.695
246.413
245.959
245.68
245.316
244.747
243.231
238.013
227.463
250.388
246.763
246.519
245.886
245.389
244.652
243.657
241.569
235.376
224.915
254.267
247.074
246.672
245.826
245.035
243.938
242.558
239.954
233.31
222.584
262.573
248.212
246.946
245.781
244.662
243.248
241.555
238.664
232.07
221.328
280.133
250.947
247.596
245.814
244.309
242.597
240.647
237.733
231.627
221.357
306.103
254.994
249.101
246.026
244.018
241.976
239.763
236.916
231.356
221.885
236.418
221.068
210.446
201.131
190.971
179.666
167.271
153.899
139.854
125.724
230.029
217.734
208.582
199.861
189.924
178.686
166.34
153.089
139.365
125.891
223.496
214.131
205.952
197.425
187.711
176.87
165.117
152.617
139.599
126.421
218.383
210.875
202.883
194.033
184.19
173.425
161.933
149.989
137.926
126.092
212.986
206.592
198.598
189.504
179.834
169.697
159.146
148.279
137.223
126.131
207.387
202.09
194.83
186.36
177.361
167.906
157.986
147.664
137.044
126.256
203.591
199.151
192.561
184.665
176.132
167.046
157.425
147.35
136.939
126.329
202.309
198.051
191.705
184.093
175.78
166.844
157.325
147.321
136.963
126.394
203.635
198.92
192.471
184.886
176.554
167.538
157.901
147.755
137.24
126.508
206.309
200.874
194.138
186.427
177.931
168.7
158.817
148.414
137.637
126.645
112.187
112.357
112.441
112.293
111.786
111.425
111.24
111.525
111.517
111.268
89.6125
90.0758
90.2944
89.8609
88.4289
87.3425
86.7216
87.3832
87.4209
86.8343
68.7697
69.3974
69.6587
68.9919
67.0526
65.3409
64.3206
64.8693
65.1737
64.6186
50.6522
51.2586
51.4482
50.6251
48.646
46.48
45.15
45.1854
45.9238
45.6904
36.0071
36.4155
36.4658
35.5845
33.7927
31.4767
29.8329
29.2677
30.0753
30.263
24.955
25.0585
24.9364
24.0132
22.4357
20.4063
18.6155
17.6739
17.929
18.429
17.0686
16.9182
16.7034
15.7125
14.2981
12.7948
11.3073
10.2423
9.90257
10.2691
11.5817
11.4047
11.3562
10.3569
9.0381
8.03622
7.14449
6.30154
5.71314
5.62944
7.90773
7.81946
8.11547
7.24772
6.08178
5.49123
5.16219
4.7774
4.29347
3.91389
6.03922
5.83422
6.21966
5.48197
4.61265
4.33645
4.36022
4.35067
4.19805
3.8022
5.2726
5.03572
5.11801
4.42375
3.89144
3.83499
3.98447
4.12702
4.24807
4.30478
4.84608
4.73693
4.45947
3.79308
3.50694
3.59383
3.79668
3.9641
4.08381
4.1701
4.46815
4.42338
3.99157
3.44081
3.32034
3.48268
3.70707
3.88565
4.00359
4.06396
4.01432
3.95943
3.55331
3.20157
3.211
3.41374
3.62634
3.7835
3.88203
3.92336
3.46722
3.37404
3.10054
2.98027
3.09658
3.31303
3.50294
3.64044
3.72167
3.74541
2.81715
2.72277
2.66272
2.75237
2.94868
3.15292
3.31862
3.43799
3.50488
3.51829
2.09453
2.11064
2.24485
2.47895
2.71433
2.91268
3.06784
3.18146
3.24765
3.26306
1.42151
1.53933
1.79024
2.08287
2.3385
2.55262
2.72823
2.86664
2.954
2.98205
0.745552
0.880792
1.1554
1.48371
1.79282
2.06384
2.3007
2.48523
2.59003
2.62771
0.0735287
-0.0107027
0.224068
0.634846
1.05439
1.43566
1.75927
1.97435
2.0778
2.14096
3.65952
3.70262
3.57185
3.24584
2.59604
1.91005
1.32076
0.849961
0.4579
0.101573
3.73226
3.67671
3.52146
3.22983
2.55663
1.85397
1.26823
0.811925
0.436245
0.100719
3.75887
3.57099
3.40997
3.17583
2.51265
1.80099
1.21825
0.776074
0.416982
0.101465
3.72006
3.39505
3.25755
3.07366
2.45544
1.7494
1.17084
0.742537
0.400177
0.103281
3.61259
3.18719
3.08966
2.92066
2.37317
1.6947
1.12532
0.711323
0.385864
0.106136
3.4495
2.98965
2.92942
2.73711
2.25953
1.63305
1.08159
0.682857
0.374188
0.109973
3.25623
2.82239
2.78598
2.55488
2.11742
1.56087
1.03915
0.657571
0.365257
0.114606
3.049
2.68524
2.65984
2.39805
1.96204
1.47564
0.996889
0.635588
0.359033
0.119733
2.82614
2.57352
2.54648
2.27357
1.81463
1.37878
0.953316
0.616626
0.355347
0.124947
2.58044
2.49003
2.43952
2.17509
1.68963
1.27837
0.906625
0.599849
0.353947
0.129895
5.42068
3.97459
3.27659
2.89746
2.41706
1.89786
1.39924
0.944395
0.536987
0.133437
4.61687
3.75386
3.31256
2.95839
2.45749
1.90656
1.38693
0.926118
0.517337
0.123426
3.94698
3.66176
3.37315
3.02765
2.49664
1.91429
1.37567
0.909806
0.502197
0.115233
3.62714
3.6621
3.45838
3.10777
2.53769
1.92172
1.36466
0.894479
0.489152
0.109067
3.6124
3.70516
3.55997
3.20001
2.58345
1.92932
1.35256
0.878423
0.476521
0.104787
112.018
88.9507
67.8996
50.1279
36.1131
25.7928
18.6227
13.7472
10.5653
8.75119
111.797
88.3883
67.1933
49.3935
35.3108
24.7885
17.319
12.2137
9.0709
7.5708
111.611
87.9081
66.5551
48.6529
34.3997
23.6158
15.8987
10.6788
7.53426
6.07635
111.4
87.3343
65.7147
47.5881
33.075
22.0218
14.1271
8.89433
5.80896
4.43339
111.146
86.6063
64.5855
46.115
31.2749
19.9541
11.9585
6.92217
4.43905
3.6232
243.765
243.803
243.923
244.094
244.307
244.316
243.812
243.11
243.213
242.99
243.978
244.05
244.163
244.353
244.623
244.798
244.58
243.93
243.673
243.565
244.174
244.222
244.335
244.532
244.817
245.079
245.053
244.546
244.118
244.067
244.416
244.449
244.547
244.721
244.978
245.267
245.374
245.104
244.717
244.649
244.69
244.708
244.79
244.939
245.154
245.419
245.623
245.625
245.46
245.369
244.982
244.994
245.063
245.186
245.359
245.589
245.86
246.102
246.208
246.197
245.255
245.273
245.355
245.49
245.666
245.897
246.198
246.559
246.862
246.985
245.539
245.557
245.654
245.845
246.099
246.4
246.76
247.173
247.537
247.718
245.919
245.948
246.025
246.248
246.619
247.071
247.577
248.096
248.44
248.401
246.312
246.422
246.523
246.713
247.113
247.682
248.283
248.833
249.185
248.98
136.5
136.241
136.218
136.481
136.263
135.865
135.324
135.152
135.223
135.388
160.95
160.354
160.375
161.013
160.36
159.237
157.774
157.317
157.523
157.981
183.195
182.628
182.916
183.439
182.388
180.643
178.674
177.985
178.234
178.857
202.161
201.915
202.634
202.644
201.286
199.089
197.081
196.237
196.415
197.017
217.633
217.807
218.591
218.003
216.335
213.991
212.17
211.267
211.306
211.711
229.512
229.994
230.224
229.264
227.457
225.4
223.79
222.844
222.711
222.812
237.712
238.048
237.685
236.611
235.119
233.591
232.14
231.124
230.899
230.747
242.367
242.247
241.637
240.804
239.925
238.907
237.554
236.528
236.469
236.292
244.091
243.672
243.179
242.821
242.523
241.937
240.748
239.853
240.138
240.053
244.23
243.804
243.651
243.672
243.744
243.502
242.628
241.867
242.252
242.062
254.846
246.875
247.502
246.287
246.039
245.532
244.996
244.632
244.502
244.539
252.013
246.812
247.315
246.267
246.092
245.595
245.013
244.666
244.578
244.511
250.091
246.819
247.093
246.263
246.147
245.663
245.056
244.76
244.748
244.543
248.904
246.847
246.881
246.282
246.205
245.737
245.137
244.914
244.977
244.649
248.219
246.85
246.743
246.321
246.261
245.819
245.265
245.105
245.218
244.819
247.77
246.807
246.706
246.37
246.314
245.912
245.433
245.292
245.424
245.024
247.456
246.753
246.705
246.413
246.359
246.014
245.608
245.445
245.577
245.233
247.24
246.724
246.697
246.446
246.39
246.118
245.752
245.552
245.674
245.425
247.098
246.718
246.689
246.469
246.405
246.207
245.847
245.619
245.712
245.583
247.005
246.72
246.687
246.482
246.414
246.268
245.897
245.654
245.679
245.678
317.35
253.759
249.911
246.972
246.143
245.573
245.252
244.93
244.236
242.718
295.618
251.369
248.789
246.74
246.061
245.544
245.208
244.9
244.449
243.52
277.177
249.214
248.193
246.567
246.021
245.526
245.158
244.842
244.531
244.192
265.774
247.869
247.869
246.437
246.002
245.514
245.1
244.76
244.521
244.521
259.003
247.139
247.646
246.329
246
245.506
245.031
244.657
244.475
244.553
239.297
237.448
234.232
229.325
222.122
211.769
197.718
179.913
158.837
135.756
240.48
238.944
235.769
230.633
223.131
212.574
198.455
180.621
159.4
135.977
241.993
240.495
237.314
232.061
224.31
213.49
199.198
181.261
159.881
136.164
243.655
242.249
239.121
233.847
225.912
214.819
200.266
182.103
160.455
136.373
244.444
243.606
241.104
236.033
227.991
216.624
201.741
183.232
161.183
136.626
)
;

boundaryField
{
    left
    {
        type            zeroGradient;
    }
    right
    {
        type            fixedValue;
        value           uniform 0;
    }
    down
    {
        type            zeroGradient;
    }
    up
    {
        type            zeroGradient;
    }
    cylinder
    {
        type            zeroGradient;
    }
    defaultFaces
    {
        type            empty;
    }
}


// ************************************************************************* //
