# Selection   : all
# Cells       : 440
# Volume      : 7.374263e+01
# Time        	minMag(U)
8.515         	4.206897e-03
8.56          	4.788917e-03
8.61          	5.692163e-03
