/*--------------------------------*- C++ -*----------------------------------*\
  =========                 |
  \\      /  F ield         | OpenFOAM: The Open Source CFD Toolbox
   \\    /   O peration     | Website:  https://openfoam.org
    \\  /    A nd           | Version:  13
     \\/     M anipulation  |
\*---------------------------------------------------------------------------*/
FoamFile
{
    format      ascii;
    class       surfaceScalarField;
    location    "13.8";
    object      phi;
}
// * * * * * * * * * * * * * * * * * * * * * * * * * * * * * * * * * * * * * //

dimensions      [0 3 -1 0 0 0 0];

internalField   nonuniform List<scalar> 
823
(
0.00235904
0.0164776
-0.0188367
0.0314653
0.000276767
-0.029383
0.105844
-0.0585631
-0.0158155
0.215321
-0.131298
0.0218208
-0.191322
0.0440757
0.362567
0.00981675
0.00666088
0.0720904
-0.0619969
0.18084
-0.167313
0.303954
-0.254412
-0.327485
0.440118
0.0292826
-0.0226217
0.12695
-0.159664
0.24064
-0.281003
0.339828
-0.3536
-0.38887
0.401213
0.0520277
-0.0746494
0.149587
-0.257224
0.224518
-0.355935
0.263931
-0.393012
-0.402548
0.277608
0.0611958
-0.135845
0.126239
-0.322267
0.159397
-0.389093
0.171973
-0.405587
0.181456
-0.412031
-0.00990746
0.0949058
-0.0849983
-0.0405285
0.14624
-0.115619
-0.0685719
0.152995
-0.124951
-0.085451
0.139381
-0.122502
0.114805
-0.0950515
-0.105205
0.0366432
0.0582625
0.0746274
0.108256
0.108105
0.119517
0.13885
0.108636
0.0921142
0.161541
0.0257496
0.032513
0.0631672
0.0708384
0.0976373
0.0850472
0.12587
0.0804032
0.0695106
0.148473
0.0109947
0.0215182
0.0357033
0.0461298
0.0673194
0.053431
0.103847
0.0438755
0.0321975
0.14116
0.00268154
0.0194283
0.0570438
0.12274
0.199013
0.216187
-0.899035
0.587797
0.419697
-1.36684
1.16333
0.431936
1.35869
-1.37093
0.410046
0.47926
-0.45737
-0.471322
0.458072
0.306309
-1.0438
0.373161
-1.4337
0.490506
1.24134
0.450732
0.519033
-0.505482
0.0406132
-0.935943
0.151783
-1.54487
0.45502
0.938105
0.483891
0.490163
-0.577379
0.0605219
-0.855305
0.149122
-1.63347
0.482738
0.604489
0.561618
0.411283
-0.655493
0.435258
-1.09155
0.358291
-1.5565
0.446332
0.516447
0.645128
0.212488
-0.730458
1.49121
-1.28482
-1.29794
1.0548
-1.12009
0.839744
0.731506
1.18428
-0.132051
-0.7293
1.06947
-0.905292
-1.449
0.49993
-0.550548
0.747446
0.48399
1.15943
-0.544033
-0.661934
1.08904
-0.617877
-1.37645
0.723381
-0.18489
1.05536
0.152007
1.13972
-0.628392
-0.467963
0.95483
-0.30182
-1.27089
0.843085
-0.0731447
1.05426
-0.0591699
0.77341
-0.34754
-0.17656
0.514746
-0.816565
0.441601
0.382431
0.0348906
1.13816
0.148696
-1.1054
1.21929
0.196481
1.31239
0.308111
1.38146
0.371049
0.446084
1.0336
0.0874671
-0.97237
1.11104
0.119043
1.20892
0.210226
1.3246
0.25537
0.321684
0.986195
0.0374584
-0.936187
1.03632
0.06892
1.12936
0.117186
1.23726
0.14747
0.182488
0.922686
0.00612244
-0.89135
0.970751
0.0208556
1.04978
0.0381571
1.14969
0.047561
0.06129
0.648702
-0.642579
0.669557
0.707714
0.755275
0.145221
0.310217
-0.252361
-0.203078
0.0970265
0.314514
-0.26632
0.0549095
0.325137
-0.28302
0.0193625
0.316949
-0.281402
0.20542
-0.186057
0.101066
0.34546
-0.136309
0.0652679
0.350312
0.0332618
0.357143
0.00808993
0.342121
0.21351
0.0750644
0.383915
-0.11352
0.0414018
0.383975
0.0126264
0.385918
-0.00434481
0.359092
0.209165
-0.00507369
0.398092
-0.00910325
-0.022571
0.401472
-0.031854
0.395201
-0.0255552
0.352793
0.18361
-0.0802844
0.0663454
-0.0843989
-0.0782904
-0.0477646
0.197381
0.112337
-0.250882
-0.0588356
0.143378
0.116895
-0.0628915
0.0886439
0.121776
-0.0670414
0.035894
0.121498
-0.068748
0.0862576
-0.0503635
0.195778
0.155397
-0.238838
0.149539
0.163133
0.0973701
0.173945
0.0414653
0.177403
0.127723
0.137135
0.201103
-0.182841
0.095718
0.20455
0.0567625
0.2129
0.0204506
0.213715
0.148173
0.156857
0.232707
-0.18846
0.117297
0.24411
0.0722329
0.257964
0.0282965
0.257651
0.17647
0.0806037
-0.100257
0.0583937
0.0333383
0.00958747
0.408113
0.0582514
-0.0703846
0.421167
0.0590918
-0.0721457
0.409134
0.192729
-0.180697
0.397318
0.225466
-0.213649
0.514388
-0.367952
0.405644
0.0485875
0.414177
0.0505581
0.399894
0.207012
0.385198
0.240162
0.660747
0.398539
0.0460278
0.407827
0.0412706
0.379591
0.235247
0.376704
0.243049
0.854611
0.393818
0.048189
0.392909
0.0421804
0.373037
0.255118
0.351995
0.264091
1.01815
0.384392
0.0597765
0.383009
0.0435638
0.342973
0.295154
0.325392
0.281672
1.24328
0.616092
0.0477049
0.643514
0.0161413
0.705178
0.233491
0.79486
0.191989
1.00743
1.03071
0.623129
0.0285959
0.651477
-0.0122065
0.754412
0.130557
0.760515
0.185886
0.768855
0.999093
0.633561
-0.000944949
0.676436
-0.0550815
0.744
0.0629926
0.75907
0.170816
0.50268
1.02524
0.646351
-0.043276
0.656464
-0.065194
0.692748
0.0267091
0.785147
0.0784173
0.227472
1.06035
0.560744
0.49555
0.522259
0.600677
0.828149
1.06081
-0.233184
1.04705
-0.12254
1.05743
-0.1239
1.05208
-0.00375877
0.0130276
0.950567
-0.184657
0.946057
-0.11803
0.930296
-0.108139
0.951671
-0.0251345
-0.00767076
0.966223
-0.125636
0.950115
-0.101922
0.920343
-0.0783668
0.933105
-0.0378967
-0.0107523
0.991788
-0.0570693
0.941224
-0.0513578
0.902489
-0.0396317
0.89077
-0.0261782
-0.0113326
0.771079
0.719722
0.68009
0.653912
0.0475388
0.137651
-0.18519
0.0723628
0.308907
-0.333731
0.0731868
0.364312
-0.365136
0.0632364
0.368419
-0.358469
0.337684
0.050453
-0.324901
0.0684374
0.0692134
0.140446
0.236898
0.175408
0.32935
0.179885
0.363943
0.357664
0.159905
0.0564402
0.0127732
0.168442
0.124896
0.263149
0.234643
0.328784
0.298308
0.35176
0.334689
0.0263079
-0.0135347
0.121885
0.0293192
0.243006
0.113522
0.363652
0.177661
0.251434
0.463978
0.00523603
-0.0187707
0.0521549
-0.0175996
0.150293
0.0153839
0.273099
0.0548553
0.105256
0.419277
-0.00265158
-0.0161191
0.00942748
-0.0296787
0.0537536
-0.0289422
0.126751
-0.018142
0.0159637
0.216043
-5.89178e-05
-0.0160602
0.00416369
-0.0339013
0.0196874
-0.0444659
0.0482591
-0.0467137
-0.0341088
0.0983316
-0.00186138
-0.0141988
-0.00391274
-0.0318499
-0.00431472
-0.0440639
-0.00191519
-0.0491133
-0.047347
0.011323
-0.0243304
0.0101315
-0.0647614
0.00858111
-0.119938
0.0111125
-0.183094
0.0140425
0.00977735
-0.240218
-0.0748668
-0.181905
-0.295744
-0.404203
-0.49963
0.334176
0.871063
-0.989195
0.393201
0.188934
-0.247959
0.201288
0.616048
-0.424135
0.100234
0.0691117
0.031942
-0.431204
0.399101
0.371628
0.597766
0.472627
0.0879348
0.281954
0.806721
0.168554
0.182512
-0.44923
0.300083
0.309006
0.507491
-0.119473
0.332836
0.981376
0.223388
0.29196
-0.454992
0.104603
-0.0358159
0.589867
-0.604736
0.389618
1.18163
0.294573
0.387005
-0.455253
0.0523502
0.610948
0.421648
0.351283
-0.0420719
0.639512
-0.59744
-0.0961332
0.0540613
-0.137617
0.0414835
-0.0159584
-0.121658
-0.22168
0.701043
-1.05073
0.507146
0.124494
0.0347783
0.0819745
-0.0134514
-0.068523
0.134515
-0.0525407
0.242156
-0.107641
0.39439
-0.152233
-0.203051
0.188344
-0.151342
0.295708
0.522755
0.834501
0.136771
-0.130339
0.160344
-0.166776
0.103906
-0.135215
0.16808
0.0667213
-0.141706
0.178891
0.0269832
-0.140705
0.180443
-0.0973586
0.124342
0.176381
-0.0918645
-0.214856
0.133392
-0.092226
0.0848188
-0.0931323
0.0348861
-0.0907726
-0.0624725
0.184929
-0.0430771
-0.233716
0.134666
-0.0419632
0.0833014
-0.0417674
0.0336781
-0.0411494
-0.0287944
0.199199
0.00810499
-0.250381
0.147364
0.00987152
0.0939445
0.0116521
0.0395188
0.0132763
0.0107244
0.20352
-0.254251
0.1505
0.0951108
0.0396391
0.0368604
-0.305231
-0.0565297
0.013193
-0.334801
-0.00790015
-0.344043
-0.0158832
-0.325748
-0.201073
0.11653
-0.276001
-0.145761
0.0756729
-0.293944
0.0360245
-0.304394
0.00669254
-0.296416
-0.19438
0.134489
-0.238007
-0.172483
0.0943146
-0.253769
0.0547721
-0.264852
0.0191021
-0.260746
-0.175278
0.152804
-0.204521
-0.18629
0.111805
-0.212771
0.0678593
-0.220906
0.0264449
-0.219332
-0.148833
0.150086
-0.194263
0.105395
0.0633797
0.0244915
0.389413
0.105242
-0.098675
0.38692
0.107254
-0.104761
0.352943
0.16113
-0.127153
0.294487
0.0794477
-0.0209917
-0.178959
0.30667
0.397633
0.103588
0.40202
0.102867
0.392542
0.170608
0.343222
0.128768
-0.0505931
0.4031
0.0964672
0.412259
0.0937084
0.408176
0.174691
0.370055
0.166889
0.0857456
0.407994
0.0844524
0.418362
0.0833411
0.416777
0.176275
0.389994
0.193672
0.225359
0.410047
0.421243
0.416821
0.396844
0.413497
0.0965542
0.325628
0.0878686
0.236177
0.0894506
0.231552
0.00462528
-0.168328
0.39988
0.50793
0.491038
0.453336
0.43697
0.575311
0.320586
0.0792945
0.24943
0.0711559
0.165722
0.0837076
0.0959671
0.0697552
0.0274441
0.460343
0.345209
0.256434
0.180428
)
;

boundaryField
{
    left
    {
        type            calculated;
        value           nonuniform List<scalar> 
17
(
-0.60402
-0.60402
-0.60402
-0.60402
-0.60402
-0.39598
-0.39598
-0.39598
-0.39598
-0.39598
-0.39598
-0.39598
-0.39598
-0.39598
-0.39598
-0.510051
-0.510051
)
;
    }
    right
    {
        type            calculated;
        value           nonuniform List<scalar> 
17
(
0.205721
0.212199
0.132337
0.18658
0.22915
0.294833
0.354102
0.423296
0.484892
0.555788
0.639731
0.720092
1.18313
1.09206
0.945752
0.482008
-0.141669
)
;
    }
    down
    {
        type            calculated;
        value           uniform 0;
    }
    up
    {
        type            calculated;
        value           uniform 0;
    }
    cylinder
    {
        type            calculated;
        value           uniform 0;
    }
    defaultFaces
    {
        type            empty;
    }
}


// ************************************************************************* //
