/*--------------------------------*- C++ -*----------------------------------*\
  =========                 |
  \\      /  F ield         | OpenFOAM: The Open Source CFD Toolbox
   \\    /   O peration     | Website:  https://openfoam.org
    \\  /    A nd           | Version:  13
     \\/     M anipulation  |
\*---------------------------------------------------------------------------*/
FoamFile
{
    format      ascii;
    class       volScalarField;
    location    "57";
    object      p;
}
// * * * * * * * * * * * * * * * * * * * * * * * * * * * * * * * * * * * * * //

dimensions      [0 2 -2 0 0 0 0];

internalField   nonuniform List<scalar> 
440
(
-0.980771
-0.963594
-0.953578
-0.916917
-0.96281
-1.05688
-1.03692
-1.01192
-0.981607
-0.954825
-1.17998
-1.14425
-1.09879
-1.0402
-0.975582
-1.32197
-1.27137
-1.1729
-1.05561
-0.937468
-1.41636
-1.34586
-1.18488
-1.01812
-0.86627
-1.06854
-1.10048
-1.16053
-1.2118
-1.24076
-1.10717
-1.11453
-1.13484
-1.16122
-1.17172
-1.08801
-1.07721
-1.07195
-1.07915
-1.08966
-1.029
-1.01054
-0.986385
-0.965433
-0.96192
-0.952807
-0.938206
-0.911787
-0.868441
-0.868196
-1.34933
-0.598677
0.158683
0.0744796
0.0158294
-1.23614
-0.905183
0.0439802
-0.0389953
0.0190563
-1.2687
-1.15205
-0.0466383
-0.0890844
0.0226254
-1.14324
-1.19142
-0.103239
-0.0602363
0.0300209
-0.955592
-1.10929
-0.124163
-0.0172995
0.0322427
-0.668842
-0.869407
-0.101845
0.00439575
0.0252641
-0.407933
-0.506971
-0.0774239
-0.0649557
-0.00509661
-0.310829
-0.308697
-0.0736983
0.104969
0.00915472
-0.22045
-0.188831
-0.0872658
0.0511041
-0.000331544
-0.0969533
-0.207413
-0.100547
0.0900844
0.0119322
-0.611223
-0.719236
-0.850282
-0.99428
-1.10249
-0.362737
-0.473234
-0.543703
-0.584764
-0.592965
-0.194729
-0.287987
-0.344058
-0.374125
-0.393999
-0.0859718
-0.169139
-0.22496
-0.253159
-0.266436
-0.0328028
-0.113624
-0.163222
-0.180171
-0.168236
0.692447
0.538086
0.341584
0.124741
-0.107786
0.273725
0.112184
-0.0845315
-0.307503
-0.558811
-0.129194
-0.294163
-0.502506
-0.734942
-0.972177
-0.481002
-0.649824
-0.860603
-1.08748
-1.27149
-0.718753
-0.890411
-1.08767
-1.2937
-1.41414
1.74109
1.77074
1.79647
1.80786
1.80215
1.55221
1.57198
1.58529
1.58092
1.5553
1.34311
1.33013
1.29338
1.23352
1.14801
1.10551
1.07058
0.999107
0.897317
0.768092
0.89914
0.792653
0.654041
0.495798
0.306871
1.52702
1.52043
1.49384
1.56588
1.62764
1.5177
1.51019
1.47547
1.54849
1.53888
1.50952
1.49703
1.45451
1.51981
1.4214
1.50258
1.48144
1.43258
1.47466
1.25459
1.49673
1.46599
1.41016
1.42972
1.0739
1.49312
1.44084
1.38249
1.33023
0.868207
1.49199
1.41141
1.3815
1.20184
1.00142
1.49795
1.39648
1.37735
1.13609
1.05265
1.49869
1.3713
1.36881
1.0741
1.07974
1.53259
1.36913
1.3662
1.0344
1.12547
0.660449
0.353973
0.0191496
-0.275899
-0.457078
0.551985
0.337965
0.116318
-0.0769238
-0.239431
0.532424
0.363212
0.20139
0.0558941
-0.0837509
0.596027
0.437184
0.287195
0.149891
0.0216319
0.645679
0.481126
0.330736
0.195107
0.0713874
-1.66046
-1.5209
-1.35374
-1.21569
-1.13227
-1.76427
-1.69048
-1.55375
-1.43617
-1.35677
-1.72021
-1.66661
-1.57398
-1.48388
-1.40978
-1.60345
-1.55952
-1.50054
-1.43516
-1.36691
-1.48417
-1.46443
-1.43189
-1.3877
-1.33356
-1.45867
-1.4525
-1.42904
-1.41423
-1.32292
-1.40067
-1.39513
-1.37933
-1.3738
-1.32139
-1.45711
-1.46076
-1.46518
-1.46844
-1.45306
-1.49578
-1.54863
-1.64906
-1.72122
-1.78982
-1.10127
-1.20764
-1.32845
-1.43112
-1.5047
-1.08337
-0.00348891
0.272906
0.292892
-0.0075795
-1.10577
0.0283855
0.344642
0.299384
-0.0108948
-1.20749
0.0154802
0.350845
0.269211
-0.00739348
-1.53276
-0.0400605
0.27939
0.196979
0.000384546
-1.58167
-0.287353
0.217833
0.129144
0.00773456
-0.633121
-0.200521
0.178443
0.271832
0.00449477
-0.911026
-0.0911496
0.255663
0.30032
0.00631403
-1.08252
-1.31086
-1.32947
-1.26566
-1.02889
-1.10237
-1.31828
-1.35405
-1.28703
-1.22399
1.38205
1.36132
1.32403
1.2713
1.20156
1.57426
1.59374
1.59974
1.59033
1.5655
1.73476
1.76726
1.79398
1.8095
1.81094
1.82862
1.86698
1.90757
1.94049
1.95558
1.82541
1.86102
1.90036
1.93266
1.9471
-0.691845
-0.793355
-0.950618
-1.14095
-1.35478
-0.111039
-0.238335
-0.40886
-0.613817
-0.864668
0.414872
0.281563
0.122391
-0.0642756
-0.291478
0.835913
0.733037
0.608183
0.457873
0.278611
1.17289
1.10169
1.01015
0.901022
0.773472
1.58717
1.54657
1.52718
1.53179
1.53179
1.57215
1.54416
1.5272
1.54794
1.59716
1.5595
1.54059
1.52581
1.56964
1.66931
1.54779
1.5357
1.51944
1.57813
1.68263
1.53691
1.52939
1.50828
1.57718
1.67278
1.64326
1.55267
1.51462
1.45515
1.3941
1.5975
1.54315
1.50956
1.47363
1.4153
1.06282
0.844634
0.470168
-0.0701923
-0.660238
1.13889
0.875303
0.487171
-0.0498141
-0.653178
)
;

boundaryField
{
    left
    {
        type            zeroGradient;
    }
    right
    {
        type            fixedValue;
        value           uniform 0;
    }
    down
    {
        type            zeroGradient;
    }
    up
    {
        type            zeroGradient;
    }
    cylinder
    {
        type            zeroGradient;
    }
    defaultFaces
    {
        type            empty;
    }
}


// ************************************************************************* //
