/*--------------------------------*- C++ -*----------------------------------*\
  =========                 |
  \\      /  F ield         | OpenFOAM: The Open Source CFD Toolbox
   \\    /   O peration     | Website:  https://openfoam.org
    \\  /    A nd           | Version:  13
     \\/     M anipulation  |
\*---------------------------------------------------------------------------*/
FoamFile
{
    format      ascii;
    class       surfaceScalarField;
    location    "57";
    object      phi;
}
// * * * * * * * * * * * * * * * * * * * * * * * * * * * * * * * * * * * * * //

dimensions      [0 3 -1 0 0 0 0];

internalField   nonuniform List<scalar> 
823
(
-0.00536229
0.0179109
-0.0125486
0.011462
0.00645363
-0.0232779
0.0750929
-0.0452757
-0.0183552
0.176782
-0.112367
0.0106782
-0.155203
0.00722983
0.324755
0.00690649
0.0110044
0.0609767
-0.0476166
0.162437
-0.146736
0.281597
-0.231527
-0.305689
0.432083
0.0263981
-0.0153937
0.119584
-0.140802
0.23342
-0.260571
0.338018
-0.336126
-0.375891
0.408219
0.0486668
-0.0640605
0.146694
-0.23883
0.226062
-0.339939
0.27026
-0.380324
-0.390988
0.285357
0.0599434
-0.124004
0.127844
-0.30673
0.163909
-0.376004
0.177176
-0.39359
0.185623
-0.399435
-0.0344266
0.0658775
-0.0314509
-0.0982627
0.117382
-0.0535463
-0.160341
0.119943
-0.0578649
-0.211708
0.113742
-0.062375
0.108207
-0.248625
-0.0712893
0.0217588
0.0441187
0.0321688
0.106972
0.0221213
0.129991
0.00612716
0.129736
0.118678
-0.00434434
0.0287623
0.0153564
0.0751905
0.0605442
0.114
0.0911817
0.141342
0.102393
0.103002
0.157018
0.0109351
0.00442134
0.0439268
0.0275524
0.0873671
0.0477414
0.137364
0.0523961
0.0603495
0.180017
-0.00812726
-0.00385277
0.0255335
0.0886077
0.156187
0.180425
0.720282
-1.14933
0.611123
-1.41825
0.987557
0.589127
-1.32246
1.34445
0.534163
0.430572
-0.375609
0.286384
-0.23147
0.220685
0.495253
0.46977
-1.66734
0.569735
-1.42242
0.546385
0.453922
0.333791
0.275459
0.376813
0.369637
-1.76152
0.473017
-1.5258
0.522395
0.404544
0.359901
0.437079
0.119751
0.451253
-1.77569
0.438044
-1.51259
0.476152
0.366436
0.349333
0.524928
-0.24899
0.501044
-1.75181
0.381255
-1.39281
0.389742
0.357949
0.253547
1.47399
-0.499486
-1.22349
1.27925
-1.55707
0.740035
-0.853593
0.644777
0.453207
0.063894
1.47004
-0.569915
-1.39961
0.986942
-1.07397
0.489678
-0.35633
0.682963
0.259922
-0.146909
1.32096
-0.540433
-1.35045
0.876962
-0.62997
0.580204
-0.0595708
0.851434
-0.0113089
-0.22569
1.1246
-0.351537
-1.3135
0.706984
-0.21235
0.645761
0.00165259
0.768501
-0.134049
-0.126146
0.509167
-0.860704
0.296816
0.298469
0.16442
1.10455
0.147073
-1.066
1.1788
0.211103
1.28745
0.299572
1.3318
0.387727
0.43307
1.00441
0.0943756
-0.951715
1.07913
0.136381
1.17087
0.207839
1.28804
0.270549
0.321505
0.960357
0.0483088
-0.91429
1.01911
0.0776233
1.10415
0.1228
1.21903
0.155676
0.190086
0.936876
0.00942935
-0.897996
0.992178
0.0223206
1.0764
0.0385801
1.18322
0.048855
0.0598048
0.691143
-0.681714
0.713464
0.752044
0.800899
0.140341
0.299885
-0.245482
-0.194744
0.0942859
0.305321
-0.259266
0.0533312
0.315906
-0.274952
0.0186256
0.306846
-0.27214
0.196804
-0.178178
0.10162
0.335809
-0.137545
0.0653898
0.341551
0.0332381
0.348058
0.00792978
0.332154
0.204733
0.0695997
0.372108
-0.105898
0.0372899
0.373861
0.00975265
0.375595
-0.00551179
0.347418
0.199222
-0.00805788
0.387963
-0.00779749
-0.0253899
0.391193
-0.0340827
0.384288
-0.0266297
0.339966
0.172592
-0.0877101
0.0762382
-0.0901069
-0.0818232
-0.048588
0.199529
0.106587
-0.253189
-0.0529275
0.145308
0.110586
-0.0563654
0.089951
0.115093
-0.0597364
0.0364928
0.114402
-0.0609437
0.0800892
-0.0435965
0.193563
0.149955
-0.236931
0.147019
0.15713
0.0953147
0.166798
0.0404992
0.169217
0.120588
0.136718
0.194317
-0.18108
0.0960999
0.197749
0.0570464
0.205851
0.0205326
0.205731
0.141121
0.151959
0.226311
-0.183953
0.113478
0.236229
0.0700319
0.249298
0.0273571
0.248406
0.168478
0.082125
-0.101296
0.0590881
0.0334341
0.0097
0.408074
0.0430075
-0.055102
0.426681
0.0399146
-0.0585219
0.408791
0.207902
-0.190012
0.397516
0.20333
-0.192055
0.486543
-0.342215
0.406454
0.0325333
0.419265
0.0271038
0.39826
0.228907
0.386109
0.215481
0.635721
0.400287
0.0282255
0.412361
0.0150305
0.374722
0.266546
0.372471
0.217732
0.827113
0.39737
0.0268348
0.39363
0.0187705
0.363831
0.296345
0.354939
0.226624
0.998098
0.388046
0.0347681
0.378856
0.0279612
0.336445
0.338756
0.324376
0.238693
1.22118
0.621819
0.0169699
0.630508
0.0192714
0.685775
0.28349
0.790816
0.133652
1.02869
0.983309
0.631735
-0.0107444
0.613219
0.0377869
0.726685
0.170023
0.8026
0.0577368
0.79466
1.03663
0.62715
-0.0338742
0.639295
0.0256419
0.762805
0.0465142
0.801704
0.0188372
0.575731
1.02063
0.621932
-0.0517859
0.673057
-0.0254826
0.738497
-0.0189263
0.739716
0.0176178
0.299695
1.01575
0.552235
0.526752
0.507826
0.525443
0.825138
1.02498
-0.236417
1.01441
-0.126977
1.02539
-0.116875
1.01976
-0.00217007
0.0300053
0.980986
-0.180777
0.955508
-0.101499
0.928187
-0.0895546
0.933888
-0.00787099
0.0121784
0.947412
-0.107556
0.920861
-0.0749476
0.892701
-0.0613952
0.903433
-0.0186028
0.00132096
0.952591
-0.0443943
0.915753
-0.0381094
0.887567
-0.03321
0.887919
-0.018955
-0.00875593
0.780744
0.742635
0.709425
0.69047
0.046666
0.156587
-0.203253
0.0695577
0.331928
-0.354819
0.0696057
0.383548
-0.383596
0.0605186
0.383983
-0.374896
0.3514
0.0484996
-0.339381
0.0694461
0.0871413
0.136975
0.264399
0.168407
0.352116
0.172489
0.379901
0.367049
0.156841
0.0602199
0.0269214
0.167841
0.156778
0.253133
0.266823
0.306217
0.326816
0.366958
0.306309
0.0297146
-0.0027932
0.128519
0.0579739
0.244889
0.150453
0.354469
0.217237
0.290069
0.431358
0.00773853
-0.0105317
0.0612353
0.00447717
0.157618
0.0540702
0.269799
0.105056
0.16716
0.392707
-0.00014494
-0.0103868
0.0133967
-0.00906444
0.0573913
0.0100756
0.124185
0.0382623
0.0863124
0.205033
0.00010307
-0.0104899
0.0035349
-0.0124963
0.0126747
0.000935811
0.0283021
0.0226349
0.0544317
0.0601827
0.0235085
-0.0339984
0.047491
-0.0364788
0.0573162
-0.00888936
0.0598437
0.0201074
0.0475536
0.0667218
0.0048236
-0.038822
-2.36887e-05
-0.0316315
-0.0116213
0.00270824
-0.0176691
0.0261552
0.0455798
-0.0156953
-0.0702729
-0.155451
-0.210607
-0.246827
-0.272537
0.120204
1.20884
-1.12401
0.259329
-0.110868
-0.0282575
0.3586
-0.0902022
-0.00906865
0.248524
0.211151
-0.101075
-0.0539411
0.0900722
0.000158226
1.26886
0.166403
-0.277113
0.450112
-0.373911
0.351898
0.309365
0.00709091
-0.141227
1.47681
0.0572275
-0.475568
0.538848
-0.855532
0.454842
0.393371
0.0881638
-0.0832596
1.54437
0.121314
-0.680141
0.524382
-1.2586
0.515196
0.402558
0.166862
0.122505
0.429921
0.515775
0.542724
-0.109781
0.631483
-0.521702
-0.0517087
-0.0580724
0.0283026
-0.0800112
0.0764997
-0.0481971
-0.0801459
0.554066
-1.04659
0.467736
0.378656
0.229384
0.0856272
-0.01228
-0.0733472
0.136279
-0.0506519
0.22889
-0.0926114
0.364683
-0.135792
-0.157019
0.195451
-0.159231
0.30164
0.515337
0.810903
0.140564
-0.138793
0.168916
-0.170687
0.106894
-0.14454
0.17821
0.0685704
-0.152157
0.190481
0.0277276
-0.152577
0.19342
-0.107896
0.135624
0.180589
-0.0992484
-0.220133
0.136544
-0.100496
0.0870512
-0.102665
0.0360721
-0.101598
-0.0718244
0.190064
-0.050016
-0.239296
0.139322
-0.0497535
0.0869537
-0.0502968
0.0354602
-0.0501045
-0.0363642
0.202188
0.00168603
-0.25389
0.149714
0.0027196
0.0956246
0.00379312
0.040425
0.00509507
0.00406083
0.204973
-0.256215
0.151328
0.0953843
0.0395356
0.0416885
-0.319452
-0.0616176
0.0166682
-0.349875
-0.00557793
-0.36135
-0.0150369
-0.34536
-0.21829
0.122181
-0.288404
-0.153229
0.0802638
-0.307958
0.0391567
-0.320243
0.00812719
-0.314331
-0.210163
0.140714
-0.248859
-0.180258
0.0989168
-0.266162
0.057783
-0.279109
0.0205079
-0.277056
-0.189655
0.158447
-0.213966
-0.193339
0.116171
-0.223886
0.0708722
-0.23381
0.0278856
-0.234069
-0.16177
0.1558
-0.200849
0.110124
0.0667947
0.0261455
0.392482
0.0957359
-0.0922386
0.390657
0.104086
-0.10226
0.356435
0.161338
-0.127116
0.298936
0.0615145
-0.00401554
-0.199152
0.3274
0.40018
0.0915351
0.406064
0.0982022
0.395235
0.172166
0.347989
0.108761
-0.0712963
0.405144
0.0823705
0.415988
0.0873588
0.41004
0.178114
0.373124
0.145677
0.0625316
0.40891
0.0694396
0.422375
0.0738946
0.418284
0.182205
0.391959
0.172001
0.200602
0.410317
0.42569
0.417883
0.397829
0.416053
0.0939985
0.329264
0.0867881
0.240459
0.0888052
0.244672
-0.0042123
-0.180127
0.424798
0.511811
0.496339
0.458028
0.4498
0.597074
0.341747
0.0830516
0.266863
0.0748837
0.178353
0.0885099
0.103721
0.074632
0.0303741
0.479276
0.36082
0.269072
0.190475
)
;

boundaryField
{
    left
    {
        type            calculated;
        value           nonuniform List<scalar> 
17
(
-0.60402
-0.60402
-0.60402
-0.60402
-0.60402
-0.39598
-0.39598
-0.39598
-0.39598
-0.39598
-0.39598
-0.39598
-0.39598
-0.39598
-0.39598
-0.510051
-0.510051
)
;
    }
    right
    {
        type            calculated;
        value           nonuniform List<scalar> 
17
(
0.156646
0.23931
0.212393
0.290866
0.373769
0.436498
0.478115
0.479249
0.498978
0.496285
0.48672
0.485528
0.83443
0.893766
0.930215
0.668958
0.0382734
)
;
    }
    down
    {
        type            calculated;
        value           uniform 0;
    }
    up
    {
        type            calculated;
        value           uniform 0;
    }
    cylinder
    {
        type            calculated;
        value           uniform 0;
    }
    defaultFaces
    {
        type            empty;
    }
}


// ************************************************************************* //
