# Selection   : all
# Cells       : 440
# Volume      : 7.374263e+01
# Time        	maxMag(U)
6.315         	2.870557e+00
6.36          	2.870322e+00
6.41          	2.869479e+00
