/*--------------------------------*- C++ -*----------------------------------*\
  =========                 |
  \\      /  F ield         | OpenFOAM: The Open Source CFD Toolbox
   \\    /   O peration     | Website:  https://openfoam.org
    \\  /    A nd           | Version:  13
     \\/     M anipulation  |
\*---------------------------------------------------------------------------*/
FoamFile
{
    format      ascii;
    class       volScalarField;
    location    "0.155";
    object      strainRateViscosityModel:nu;
}
// * * * * * * * * * * * * * * * * * * * * * * * * * * * * * * * * * * * * * //

dimensions      [0 2 -1 0 0 0 0];

internalField   nonuniform List<scalar> 
440
(
9.41947
8.96989
8.54442
8.04088
7.58151
9.68994
9.35829
8.982
8.48002
7.87454
9.80075
9.53091
9.15894
8.5853
7.84828
9.84964
9.61823
9.25876
8.64781
7.86639
9.86919
9.65612
9.30602
8.68114
7.90905
1.31078
1.75591
1.99961
2.24411
2.31021
3.40479
3.29648
3.29178
3.38808
3.45925
5.9025
5.28077
4.92638
4.71264
4.73813
7.77322
6.99912
6.4228
5.89863
5.81574
8.8211
8.15255
7.55228
6.9142
6.86345
1.81953
0.753049
0.210863
0.0242874
0.0103778
2.60836
0.886772
0.202546
0.0269255
0.010515
3.51225
1.1858
0.213838
0.0288483
0.010656
4.0888
1.51729
0.262129
0.0287245
0.0107226
4.59318
1.84907
0.375396
0.034767
0.0107035
4.26082
1.87843
0.337994
0.0200233
0.0106093
3.72137
1.65658
0.306397
0.147691
0.225586
4.91117
3.10971
1.18472
0.82416
0.854682
7.0136
4.25059
1.90643
1.21149
1.12888
8.2715
5.06523
2.58839
1.70719
1.43576
2.84898
3.6826
4.61928
5.50446
6.1457
3.68465
3.69695
3.77133
3.85098
3.36556
8.2274
8.08754
7.80038
7.38598
6.3443
9.05316
8.99271
8.85966
8.6226
8.16191
9.60671
9.56994
9.48696
9.33787
9.11836
7.50319
8.01197
8.55868
9.01063
9.46445
7.79386
8.45107
8.98659
9.3777
9.70871
7.77882
8.55873
9.15918
9.5407
9.80945
7.81627
8.62754
9.25736
9.62275
9.8536
7.89146
8.67378
9.30541
9.65747
9.87035
2.42676
2.36696
2.17428
2.0355
1.97409
3.44186
3.39129
3.43004
3.64555
4.16581
4.64713
4.66659
5.04897
5.58709
6.41722
5.70169
5.83955
6.5037
7.18771
8.03493
6.761
6.84734
7.58245
8.24328
8.93549
0.0862816
0.0373974
0.160468
0.669907
1.93415
0.0673341
0.0541938
0.158284
0.774271
2.64481
0.0570958
0.0798362
0.165828
1.07183
3.47663
0.0481423
0.116406
0.209482
1.43956
3.99182
0.0551826
0.159221
0.325589
1.80275
4.406
0.114083
0.219893
0.335
1.95169
4.16044
0.277269
0.200066
0.128364
1.60211
3.84732
0.517419
0.5408
0.810076
2.91875
4.87709
2.18673
1.19225
1.64914
4.13372
6.96264
5.02722
2.82017
2.59263
5.05257
8.27818
5.96196
5.27936
4.41142
3.51593
2.78243
3.51356
3.98066
3.96225
3.87101
3.76239
6.31326
7.35092
7.77988
8.06903
8.21958
8.1235
8.60152
8.85043
8.98915
9.05234
9.11641
9.3375
9.48726
9.57045
9.60694
9.31006
7.91541
1.39819
3.62821
7.73523
9.08076
7.43902
3.20491
1.63929
6.78698
8.3968
6.57499
4.206
1.0042
4.14318
6.81334
5.09035
3.45024
1.70614
1.03522
4.50478
3.13791
2.0334
1.38312
0.466379
2.60865
1.62063
1.01734
0.830373
0.956033
1.45592
0.788429
0.620291
0.670212
0.740946
0.745654
0.425371
0.639509
0.807359
0.880935
0.258904
0.526356
0.87681
1.04942
1.10976
0.177348
0.90223
1.23412
1.47087
1.52716
0.200896
0.374755
0.702405
0.833262
0.882599
0.44204
0.487085
0.521358
0.623603
0.670735
0.653498
0.604928
0.33271
0.335631
0.365507
0.965285
0.707603
0.240731
0.0895378
0.0584243
1.29424
0.727583
0.213204
0.0280558
0.0111432
1.12766
0.918637
1.19261
1.30176
1.33607
0.263793
0.515917
0.902764
1.0552
1.10818
9.19024
8.83737
7.75669
5.72969
3.56117
8.58596
7.72106
5.84836
3.4864
0.853015
0.987702
0.89031
1.04784
1.62555
2.6655
0.865616
0.821841
0.748573
0.838841
1.50856
1.08575
1.03602
0.872595
0.571
0.681069
1.33805
1.29747
1.09923
0.760719
0.190212
1.74614
1.69774
1.45454
1.1578
0.595776
7.73476
3.62516
1.39946
7.91364
9.3102
6.78317
1.63909
3.20155
7.43589
9.0814
4.12979
1.0114
4.19223
6.57039
8.39845
1.03277
1.71116
3.42995
5.08144
6.81992
0.480622
1.3836
2.0133
3.12168
4.52693
1.22069
0.733763
0.618712
0.447929
0.184859
0.546775
0.507173
0.474237
0.509705
0.534908
0.292249
0.126686
0.312056
0.585848
0.819944
0.198178
0.0178595
0.210736
0.661063
1.16567
0.125717
0.030425
0.161931
0.664732
1.47513
5.45657
2.61256
1.17991
1.02252
1.16362
2.82189
1.27478
0.838263
0.586892
0.239746
3.57036
5.7353
7.75792
8.83789
9.19038
0.832383
3.46741
5.84193
7.71969
8.58581
)
;

boundaryField
{
    left
    {
        type            calculated;
        value           nonuniform List<scalar> 
17
(
0.376268
0.893427
2.036
3.87711
6.57486
0.32405
0.269227
0.246049
0.234689
0.253372
2.91197
1.92323
1.15428
0.693121
0.444818
6.9716
4.55975
)
;
    }
    right
    {
        type            calculated;
        value           nonuniform List<scalar> 
17
(
1.33692
1.10722
0.878755
0.664538
0.357141
0.0535504
0.0106129
0.0101222
0.0101558
0.0101865
0.0101944
0.0101628
0.0115617
0.25234
0.890781
1.14698
1.4297
)
;
    }
    down
    {
        type            calculated;
        value           nonuniform List<scalar> 
20
(
5.97306
3.12493
1.28471
1.10912
1.86045
4.26771
6.38187
8.12938
9.01463
9.30843
9.30826
9.01399
8.12781
6.37759
4.2602
1.83655
0.993353
1.26259
1.36862
1.39754
)
;
    }
    up
    {
        type            calculated;
        value           nonuniform List<scalar> 
20
(
8.54638
5.3898
2.80617
1.83659
1.50894
9.69562
9.66613
9.5985
9.47398
9.29283
9.29563
9.47606
9.6
9.66719
9.69601
5.68002
3.3843
2.83395
5.40699
8.56339
)
;
    }
    cylinder
    {
        type            calculated;
        value           nonuniform List<scalar> 
40
(
1.39252
3.60752
6.12542
7.96284
8.95721
9.50499
9.74573
9.84078
9.88146
9.89747
9.54779
9.76292
9.84857
9.88497
9.8985
2.20046
4.43305
6.66118
8.22795
9.0702
3.05615
1.84094
1.02681
0.347714
0.624817
9.51844
9.33103
8.74076
7.26786
4.98793
9.51827
9.33027
8.73862
7.25945
4.95973
2.98175
1.74401
1.03
0.591003
0.089219
)
;
    }
    defaultFaces
    {
        type            empty;
    }
}


// ************************************************************************* //
