/*--------------------------------*- C++ -*----------------------------------*\
  =========                 |
  \\      /  F ield         | OpenFOAM: The Open Source CFD Toolbox
   \\    /   O peration     | Website:  https://openfoam.org
    \\  /    A nd           | Version:  13
     \\/     M anipulation  |
\*---------------------------------------------------------------------------*/
FoamFile
{
    format      ascii;
    class       volScalarField;
    location    "0.675";
    object      p;
}
// * * * * * * * * * * * * * * * * * * * * * * * * * * * * * * * * * * * * * //

dimensions      [0 2 -2 0 0 0 0];

internalField   nonuniform List<scalar> 
1800
(
-1.12894
-1.12212
-1.07989
-1.00003
-0.901762
-0.803905
-0.714913
-0.636128
-0.566483
-0.509409
-1.3255
-1.31759
-1.26872
-1.1778
-1.06716
-0.957655
-0.858322
-0.770798
-0.695052
-0.63277
-1.51243
-1.50298
-1.44681
-1.34454
-1.22174
-1.10086
-0.991265
-0.894513
-0.810088
-0.738325
-1.68489
-1.67337
-1.60956
-1.49633
-1.36248
-1.23176
-1.11353
-1.00911
-0.917736
-0.839498
-1.83688
-1.82266
-1.75065
-1.6267
-1.48265
-1.34309
-1.21709
-1.10567
-1.00791
-0.923189
-1.96366
-1.94618
-1.86587
-1.73195
-1.57912
-1.43233
-1.30013
-1.1832
-1.08037
-0.990645
-2.06019
-2.03889
-1.95026
-1.80731
-1.6472
-1.49478
-1.35787
-1.23676
-1.1301
-1.03653
-2.12258
-2.09706
-2.0005
-1.84979
-1.68414
-1.52786
-1.38783
-1.26396
-1.15472
-1.05848
-2.1476
-2.11766
-2.01381
-1.85682
-1.68752
-1.52914
-1.38757
-1.26237
-1.15185
-1.05412
-2.13325
-2.09895
-1.98867
-1.82714
-1.65611
-1.49737
-1.35581
-1.23062
-1.11999
-1.02184
0.325506
0.332225
0.34326
0.356848
0.369033
0.377497
0.38192
0.382877
0.381115
0.377219
0.276315
0.282872
0.294701
0.310354
0.325495
0.337198
0.344759
0.348622
0.349513
0.348179
0.199064
0.205522
0.218569
0.237381
0.257028
0.273653
0.285974
0.294234
0.299143
0.301712
0.0952623
0.101663
0.116407
0.139461
0.165096
0.188221
0.206799
0.220816
0.23097
0.238651
-0.0329765
-0.0267709
-0.00976634
0.018618
0.0516307
0.0826869
0.10885
0.129808
0.14626
0.160088
-0.183537
-0.176866
-0.157222
-0.122531
-0.0808998
-0.0406812
-0.00581875
0.0230464
0.0466391
0.0674326
-0.352177
-0.345879
-0.322951
-0.280957
-0.229612
-0.179243
-0.134834
-0.0973594
-0.066021
-0.0377609
-0.535454
-0.529435
-0.502772
-0.452774
-0.391057
-0.33003
-0.275702
-0.229369
-0.190068
-0.154404
-0.729012
-0.722971
-0.691948
-0.633157
-0.560433
-0.488335
-0.423865
-0.36861
-0.321301
-0.278763
-0.928315
-0.921995
-0.885742
-0.816861
-0.731743
-0.647159
-0.57105
-0.505169
-0.448051
-0.398124
0.340723
0.271663
0.213858
0.169389
0.134041
0.104781
0.0790526
0.0554048
0.0329093
0.0109462
0.328058
0.265705
0.211242
0.167876
0.132884
0.103828
0.0782927
0.0548484
0.0325613
0.0108145
0.307385
0.255877
0.206973
0.165687
0.13146
0.10278
0.077517
0.0543056
0.0322293
0.0106883
0.278172
0.242228
0.201019
0.162784
0.12975
0.101626
0.0767163
0.0537699
0.0319093
0.0105667
0.239688
0.224842
0.193348
0.159124
0.127734
0.100355
0.0758821
0.0532346
0.0315975
0.010449
0.191168
0.203855
0.183933
0.154661
0.125387
0.0989564
0.0750064
0.0526939
0.0312909
0.0103351
0.132022
0.179585
0.172862
0.149373
0.122687
0.0974195
0.0740826
0.0521421
0.030986
0.0102247
0.0610643
0.151911
0.160271
0.143291
0.119634
0.0957425
0.0731077
0.0515756
0.030681
0.0101186
-0.0235888
0.119321
0.145609
0.136153
0.116092
0.0938664
0.0720563
0.050982
0.0303707
0.0100177
-0.11666
0.082516
0.129235
0.12808
0.11204
0.0917531
0.0709022
0.0503449
0.0300456
0.00992186
-0.170167
0.0490529
0.109873
0.116588
0.105213
0.087618
0.0683487
0.0487929
0.029223
0.009708
-0.18566
0.0150818
0.0828925
0.0985741
0.093896
0.080541
0.0638986
0.0460625
0.0277435
0.00924386
-0.184599
-0.00558673
0.0636332
0.0838843
0.0837555
0.0738599
0.0595864
0.0433835
0.0262773
0.0087798
-0.180292
-0.023236
0.0459487
0.0701024
0.0740535
0.0673778
0.0553717
0.0407546
0.0248299
0.00831594
-0.171831
-0.0355964
0.0313963
0.0579823
0.0651653
0.061297
0.0513705
0.0382421
0.0234361
0.00786469
-0.162515
-0.0447852
0.0191876
0.047373
0.057166
0.0557244
0.0476657
0.0359
0.0221261
0.00743553
-0.154411
-0.05185
0.00897636
0.0382338
0.0501384
0.0507604
0.0443365
0.0337802
0.0209266
0.00703538
-0.149157
-0.0580168
0.000302289
0.0304864
0.0441496
0.0465019
0.0414641
0.0319392
0.019869
0.00667772
-0.144933
-0.0634512
-0.00723892
0.0238743
0.0390729
0.0428937
0.039022
0.0303594
0.0189294
0.00634034
-0.151348
-0.0694892
-0.0127455
0.0196362
0.0359385
0.0406859
0.0375327
0.0293973
0.0183504
0.00613247
-0.856151
-0.887835
-0.89598
-0.881806
-0.847212
-0.794552
-0.727641
-0.64732
-0.560553
-0.466696
-0.677428
-0.708896
-0.721675
-0.716975
-0.695452
-0.660403
-0.613207
-0.556465
-0.49574
-0.431737
-0.541459
-0.572446
-0.587695
-0.588678
-0.575165
-0.551383
-0.516496
-0.474861
-0.428998
-0.379458
-0.436962
-0.467375
-0.484193
-0.488832
-0.480799
-0.464219
-0.437531
-0.405679
-0.369437
-0.330376
-0.357719
-0.387521
-0.405357
-0.412335
-0.408141
-0.396274
-0.375439
-0.350301
-0.320844
-0.288998
-0.297495
-0.327031
-0.34574
-0.354417
-0.35305
-0.344406
-0.327728
-0.307105
-0.282234
-0.255163
-0.252976
-0.282575
-0.302072
-0.312048
-0.31277
-0.306369
-0.292609
-0.274999
-0.253325
-0.229479
-0.221197
-0.25161
-0.272083
-0.283187
-0.285501
-0.280704
-0.268944
-0.253291
-0.233724
-0.212385
-0.205211
-0.235117
-0.256512
-0.269016
-0.272727
-0.269019
-0.258147
-0.242721
-0.223059
-0.199676
-0.193938
-0.226623
-0.250217
-0.265181
-0.271962
-0.271417
-0.264119
-0.251594
-0.234009
-0.211127
0.46288
0.410135
0.349246
0.283323
0.210574
0.128644
0.0372448
-0.0574765
-0.136415
-0.169972
0.269262
0.212319
0.147656
0.0756041
-0.00588901
-0.0987225
-0.202541
-0.310042
-0.399579
-0.436867
0.060983
-0.000761248
-0.0701861
-0.148159
-0.236853
-0.338124
-0.451472
-0.569045
-0.668046
-0.70762
-0.135446
-0.203825
-0.280467
-0.366558
-0.46415
-0.57509
-0.698659
-0.82631
-0.935795
-0.976133
-0.315443
-0.391354
-0.476125
-0.571191
-0.678632
-0.800307
-0.935076
-1.07277
-1.19284
-1.23182
-0.480851
-0.563639
-0.655961
-0.759509
-0.876433
-1.00855
-1.15471
-1.3029
-1.42758
-1.46643
-0.631312
-0.719602
-0.818227
-0.929011
-1.05409
-1.19519
-1.35047
-1.51141
-1.63191
-1.67399
-0.763684
-0.856227
-0.959912
-1.0766
-1.2083
-1.35667
-1.52159
-1.68338
-1.80436
-1.84753
-0.874046
-0.9699
-1.07745
-1.19859
-1.33542
-1.48939
-1.65838
-1.82214
-1.94126
-1.98298
-0.9606
-1.05847
-1.16834
-1.29228
-1.43236
-1.58974
-1.76065
-1.92455
-2.04007
-2.07846
1.63398
1.64803
1.66387
1.67969
1.6945
1.70767
1.71844
1.72632
1.73257
1.73768
1.582
1.59404
1.60741
1.62041
1.6321
1.64184
1.64883
1.65282
1.65575
1.6591
1.50981
1.51903
1.52886
1.53782
1.54503
1.54981
1.55135
1.54973
1.54789
1.54877
1.41794
1.42363
1.42898
1.43277
1.43426
1.43269
1.42724
1.41841
1.41044
1.40819
1.30729
1.30892
1.30902
1.30669
1.30137
1.29221
1.2784
1.26094
1.2456
1.23959
1.17948
1.17668
1.17085
1.16151
1.14835
1.13044
1.10697
1.07956
1.05576
1.0456
1.0372
1.02976
1.0176
1.00064
0.978831
0.95119
0.916959
0.878465
0.8452
0.83052
0.886709
0.873846
0.853914
0.827734
0.795737
0.756861
0.710405
0.659511
0.615859
0.596538
0.733611
0.715257
0.686794
0.650282
0.6068
0.55523
0.495032
0.430333
0.375265
0.351001
0.590225
0.557356
0.513857
0.463659
0.406965
0.34178
0.2674
0.188748
0.122222
0.0932867
1.48109
1.38751
1.49594
1.38349
1.41306
1.41827
1.42439
1.44887
1.49154
1.5761
1.47536
1.38239
1.49098
1.37757
1.40652
1.41025
1.41412
1.43499
1.4712
1.5423
1.47008
1.37736
1.48627
1.371
1.3996
1.40147
1.40235
1.41847
1.44555
1.49676
1.46525
1.37243
1.48185
1.36384
1.39234
1.39193
1.38909
1.39921
1.41457
1.43904
1.46087
1.36767
1.47769
1.3561
1.38477
1.3816
1.3743
1.37705
1.37827
1.36847
1.45697
1.36312
1.47376
1.34785
1.37696
1.37044
1.35796
1.35185
1.33654
1.28443
1.45348
1.35883
1.46998
1.33916
1.36892
1.35841
1.34001
1.32352
1.28902
1.18594
1.45046
1.35489
1.46627
1.33013
1.36068
1.34544
1.32036
1.29192
1.23537
1.07519
1.44789
1.35138
1.46244
1.32098
1.35221
1.33156
1.29904
1.25685
1.17445
0.94916
1.44602
1.34847
1.45828
1.31192
1.34344
1.31683
1.27642
1.21982
1.10963
0.821051
1.44395
1.34529
1.45291
1.30333
1.33068
1.29804
1.24707
1.17277
1.03696
0.701535
1.44388
1.34166
1.44833
1.29532
1.3159
1.27789
1.21653
1.12772
0.975622
0.65835
1.44487
1.33884
1.4447
1.28783
1.3024
1.25919
1.18881
1.089
0.926727
0.626013
1.44856
1.33725
1.4418
1.28117
1.29026
1.24224
1.16424
1.05639
0.887163
0.604306
1.45467
1.33705
1.43953
1.27548
1.27967
1.22739
1.14321
1.0296
0.856431
0.591607
1.46364
1.3383
1.43784
1.27082
1.27075
1.21486
1.12588
1.00828
0.833536
0.584873
1.47571
1.33942
1.43657
1.26713
1.26362
1.20479
1.11227
0.992035
0.817307
0.582353
1.49555
1.34373
1.43642
1.2644
1.25839
1.19727
1.10238
0.980543
0.806761
0.583298
1.51022
1.34358
1.43404
1.26232
1.25525
1.1924
1.09625
0.973642
0.80088
0.587365
1.5624
1.35368
1.43634
1.25962
1.25483
1.18984
1.09338
0.970266
0.798491
0.589966
0.435829
0.269682
0.0885245
-0.0798424
-0.233329
-0.375868
-0.507531
-0.624754
-0.723582
-0.801092
0.376869
0.249366
0.11077
-0.0224972
-0.146972
-0.264256
-0.374027
-0.473128
-0.558459
-0.627418
0.35213
0.249483
0.13981
0.0291377
-0.0772351
-0.177997
-0.272728
-0.359037
-0.434003
-0.495312
0.349744
0.259473
0.166196
0.0706402
-0.0224753
-0.110685
-0.19381
-0.270269
-0.337476
-0.393445
0.357012
0.274523
0.192158
0.107757
0.0241082
-0.0558612
-0.131518
-0.201589
-0.263834
-0.31637
0.368584
0.291522
0.216129
0.139031
0.0616803
-0.0127684
-0.0832794
-0.148835
-0.207507
-0.257484
0.381069
0.307984
0.23726
0.165016
0.0918955
0.0211021
-0.046066
-0.108707
-0.165108
-0.213599
0.393244
0.322727
0.255067
0.185797
0.115167
0.0465007
-0.0187388
-0.0796894
-0.134718
-0.182211
0.407531
0.338666
0.272045
0.203223
0.132803
0.0642049
-0.00105035
-0.062097
-0.117458
-0.165587
0.420941
0.355595
0.28967
0.220308
0.149784
0.0809523
0.0150415
-0.0468614
-0.103222
-0.152595
-3.23858
-3.18062
-3.02799
-2.82963
-2.63391
-2.46171
-2.31629
-2.19586
-2.09914
-2.02633
-3.32157
-3.2745
-3.13727
-2.94551
-2.74898
-2.57351
-2.42481
-2.30163
-2.20326
-2.13091
-3.30367
-3.26792
-3.14764
-2.9638
-2.76607
-2.58604
-2.43282
-2.30591
-2.20431
-2.12901
-3.18856
-3.16349
-3.05993
-2.88451
-2.68535
-2.4997
-2.34067
-2.20892
-2.10304
-2.02232
-2.98412
-2.96837
-2.8799
-2.71384
-2.51491
-2.32477
-2.16043
-2.02405
-1.91414
-1.82839
-2.70227
-2.69385
-2.61811
-2.4634
-2.26927
-2.07915
-1.91298
-1.77451
-1.66242
-1.57508
-2.36236
-2.35825
-2.29311
-2.1528
-1.97058
-1.78828
-1.62685
-1.49147
-1.38064
-1.29508
-1.99019
-1.98683
-1.93057
-1.80742
-1.64426
-1.47819
-1.3292
-1.20311
-1.09898
-1.01895
-1.61337
-1.60874
-1.56062
-1.45645
-1.31737
-1.17423
-1.04457
-0.934034
-0.842002
-0.774275
-1.25392
-1.24875
-1.20798
-1.1223
-1.00819
-0.890031
-0.782076
-0.688947
-0.608525
-0.547036
-0.928175
-0.921733
-0.887821
-0.819066
-0.7287
-0.63569
-0.55138
-0.479901
-0.419596
-0.367672
-0.641916
-0.634951
-0.606956
-0.552404
-0.482042
-0.410322
-0.345775
-0.291315
-0.246065
-0.204965
-0.395665
-0.388554
-0.365376
-0.322169
-0.267732
-0.212986
-0.164161
-0.123114
-0.0893204
-0.0581934
-0.187884
-0.180748
-0.161462
-0.127472
-0.086054
-0.0453809
-0.0098489
0.0194897
0.0431585
0.0646126
-0.0165487
-0.00948615
0.00673389
0.0333494
0.0643018
0.0935566
0.118179
0.137717
0.152779
0.165755
0.120285
0.127157
0.141103
0.162089
0.185001
0.205424
0.221538
0.23333
0.241475
0.24758
0.224027
0.230716
0.243072
0.259991
0.277046
0.290994
0.300824
0.306835
0.309744
0.310641
0.295593
0.302325
0.313628
0.327866
0.341044
0.350682
0.356302
0.358407
0.357742
0.355071
0.335885
0.34269
0.353446
0.366286
0.377425
0.384778
0.38815
0.388155
0.385547
0.380916
0.345628
0.352439
0.363112
0.375752
0.386584
0.393574
0.396575
0.396222
0.393271
0.388257
-0.0525011
0.11782
0.151252
0.148972
0.133434
0.11187
0.088007
0.0632854
0.038179
0.0128189
0.052873
0.153522
0.165762
0.154922
0.134569
0.111217
0.0868567
0.0622057
0.0374446
0.0125667
0.137189
0.182134
0.177339
0.15878
0.135292
0.110544
0.0857794
0.0612062
0.0367667
0.0123324
0.20094
0.205959
0.187409
0.162416
0.135851
0.109889
0.0847797
0.0602842
0.0361418
0.012115
0.250039
0.226435
0.19604
0.165337
0.1362
0.109235
0.083845
0.0594319
0.0355657
0.0119129
0.28737
0.243417
0.202989
0.167568
0.136354
0.108577
0.0829665
0.0586431
0.0350344
0.0117247
0.314574
0.256715
0.208317
0.169162
0.136314
0.107903
0.0821338
0.0579107
0.0345441
0.011549
0.332899
0.266276
0.21207
0.170139
0.136072
0.1072
0.0813366
0.0572279
0.0340906
0.0113846
0.34314
0.27194
0.21425
0.170504
0.135621
0.106454
0.0805643
0.0565874
0.0336698
0.0112301
0.345712
0.273739
0.214851
0.170258
0.134949
0.105653
0.0798064
0.0559821
0.0332774
0.0110844
-0.262892
-0.00591723
0.0909958
0.121534
0.122553
0.108587
0.0878428
0.0641551
0.0391104
0.0132446
-0.238691
0.0174456
0.100642
0.125576
0.12375
0.108873
0.0878242
0.0640425
0.0389873
0.0131884
-0.200895
0.0344789
0.109183
0.129562
0.12547
0.109431
0.0878816
0.063927
0.0388452
0.0131202
-0.161473
0.0574072
0.120841
0.135094
0.127908
0.11034
0.0880901
0.0638716
0.0387303
0.0130618
-0.118325
0.0876985
0.137138
0.143049
0.131353
0.111563
0.0884329
0.0638707
0.0386404
0.0130131
-1.96127
-2.06332
-2.07228
-1.99162
-1.83228
-1.63144
-1.38321
-1.15005
-0.908843
-0.687391
-1.95872
-2.05817
-2.06184
-1.97565
-1.81331
-1.60958
-1.35849
-1.11912
-0.884958
-0.662673
-1.96069
-2.06035
-2.06038
-1.96758
-1.79741
-1.58114
-1.32272
-1.06635
-0.828782
-0.620365
-1.97037
-2.07221
-2.07006
-1.96948
-1.78732
-1.5514
-1.28187
-1.01351
-0.781092
-0.586184
-1.9892
-2.09321
-2.08897
-1.98054
-1.78567
-1.53302
-1.25445
-0.981918
-0.744292
-0.536937
1.04685
1.02433
0.993681
0.958023
0.91762
0.870537
0.815464
0.755708
0.704797
0.681179
1.17778
1.17079
1.15589
1.13488
1.10877
1.07643
1.03692
0.992952
0.955486
0.938644
1.30404
1.30235
1.29559
1.28451
1.26951
1.24961
1.22385
1.19408
1.16873
1.15801
1.41519
1.41847
1.41906
1.4167
1.41127
1.40188
1.38764
1.3697
1.3543
1.34855
1.50876
1.51593
1.52198
1.52621
1.52817
1.52705
1.52198
1.51355
1.50627
1.50477
1.58208
1.59255
1.60314
1.61274
1.62067
1.62618
1.62844
1.62758
1.62666
1.62839
1.6344
1.64738
1.66138
1.67497
1.68733
1.69776
1.70546
1.71021
1.71399
1.71809
1.66569
1.68033
1.69659
1.71284
1.7281
1.74176
1.75304
1.76145
1.76828
1.77387
1.676
1.69137
1.70869
1.72618
1.74281
1.758
1.77096
1.7811
1.78934
1.79559
1.6654
1.68057
1.69774
1.71507
1.73153
1.74654
1.75933
1.76928
1.77731
1.7834
-1.82727
-1.90268
-1.99877
-2.11658
-2.25866
-2.42757
-2.62188
-2.82429
-2.98941
-3.05618
-1.55168
-1.62978
-1.72551
-1.84056
-1.9786
-2.14231
-2.3311
-2.53678
-2.71119
-2.78172
-1.2216
-1.30076
-1.39581
-1.50817
-1.64159
-1.799
-1.98041
-2.17471
-2.35975
-2.42884
-0.860394
-0.939491
-1.03319
-1.14216
-1.26962
-1.41861
-1.58977
-1.77519
-1.94891
-2.02321
-0.493317
-0.572158
-0.663397
-0.767303
-0.886869
-1.02535
-1.18418
-1.35607
-1.51203
-1.58403
-0.148266
-0.223944
-0.309472
-0.404988
-0.513472
-0.638267
-0.780976
-0.934799
-1.07197
-1.13747
0.159243
0.0918362
0.0164044
-0.0670882
-0.161587
-0.270322
-0.394745
-0.528561
-0.646479
-0.703439
0.434756
0.378581
0.31535
0.245171
0.165116
0.0722092
-0.03459
-0.14928
-0.248986
-0.297087
0.693675
0.646777
0.592678
0.532559
0.463752
0.383657
0.291664
0.193519
0.109689
0.0698316
0.921632
0.880196
0.830398
0.776819
0.717609
0.650281
0.573903
0.493142
0.425111
0.393372
1.57398
1.43833
1.54379
1.40165
1.45639
1.45356
1.44922
1.44796
1.40959
1.24471
1.5604
1.43375
1.54125
1.40297
1.4536
1.45395
1.45161
1.45856
1.44157
1.33077
1.54812
1.42889
1.53769
1.40383
1.45049
1.45355
1.45445
1.46847
1.46948
1.41684
1.53703
1.42386
1.53335
1.40408
1.44709
1.45223
1.45561
1.47513
1.49047
1.48302
1.52692
1.41872
1.52843
1.40357
1.44337
1.44994
1.45537
1.47911
1.50572
1.53489
1.51766
1.41354
1.52314
1.40225
1.43933
1.44674
1.45377
1.48044
1.51581
1.57247
1.50915
1.40832
1.51765
1.40008
1.43492
1.44267
1.45078
1.47916
1.52107
1.5969
1.50129
1.4031
1.51208
1.39708
1.4301
1.43775
1.44637
1.47533
1.52142
1.60903
1.49402
1.39789
1.50655
1.39329
1.42486
1.43203
1.44051
1.46901
1.51658
1.60946
1.4873
1.39269
1.50115
1.38875
1.41918
1.42553
1.43319
1.46019
1.50664
1.59845
1.70642
1.45444
1.55111
1.39894
1.45881
1.44667
1.43022
1.40241
1.31125
1.09808
1.65197
1.44823
1.54872
1.40137
1.45765
1.44818
1.43166
1.40573
1.31807
1.103
1.63082
1.4495
1.54903
1.40224
1.45767
1.4494
1.43455
1.41212
1.33185
1.11416
1.60804
1.44672
1.54753
1.40221
1.45773
1.45068
1.43855
1.4213
1.35051
1.13591
1.58937
1.44274
1.54567
1.40146
1.4577
1.45194
1.44304
1.43266
1.37425
1.15943
0.739772
0.583507
0.377463
0.107356
-0.212386
-0.553851
-0.893989
-1.22255
-1.52584
-1.77836
0.739837
0.584523
0.385591
0.12547
-0.185373
-0.524593
-0.869375
-1.20471
-1.5147
-1.77332
0.759529
0.599747
0.398505
0.145302
-0.157806
-0.497497
-0.849738
-1.19259
-1.50845
-1.77222
0.810255
0.631684
0.416434
0.163609
-0.135019
-0.475574
-0.835104
-1.1861
-1.50809
-1.77735
0.889154
0.681546
0.442036
0.18026
-0.119667
-0.461522
-0.826197
-1.18457
-1.51366
-1.79002
)
;

boundaryField
{
    left
    {
        type            zeroGradient;
    }
    right
    {
        type            fixedValue;
        value           uniform 0;
    }
    down
    {
        type            zeroGradient;
    }
    up
    {
        type            zeroGradient;
    }
    cylinder
    {
        type            zeroGradient;
    }
    defaultFaces
    {
        type            empty;
    }
}


// ************************************************************************* //
