/*--------------------------------*- C++ -*----------------------------------*\
  =========                 |
  \\      /  F ield         | OpenFOAM: The Open Source CFD Toolbox
   \\    /   O peration     | Website:  https://openfoam.org
    \\  /    A nd           | Version:  13
     \\/     M anipulation  |
\*---------------------------------------------------------------------------*/
FoamFile
{
    format      ascii;
    class       volVectorField;
    location    "0.675";
    object      U;
}
// * * * * * * * * * * * * * * * * * * * * * * * * * * * * * * * * * * * * * //

dimensions      [0 1 -1 0 0 0 0];

internalField   nonuniform List<vector> 
1800
(
(0.0268022 -0.03047 1.41608e-19)
(0.492931 -0.420278 6.54717e-20)
(0.993483 -0.811983 -3.89698e-19)
(1.30208 -1.02203 4.99313e-19)
(1.4388 -1.08075 1.29874e-18)
(1.4835 -1.06026 5.6915e-19)
(1.48953 -1.0098 -2.96614e-19)
(1.48113 -0.95258 -7.48194e-19)
(1.47004 -0.891487 -3.97133e-19)
(1.43746 -0.840356 -3.26366e-19)
(0.0521747 -0.0464546 5.92697e-20)
(0.594103 -0.428752 -3.19053e-19)
(1.15052 -0.799383 4.44308e-21)
(1.48152 -0.99182 -4.44817e-19)
(1.6197 -1.04112 1.18569e-19)
(1.65797 -1.0169 1.30544e-18)
(1.65646 -0.965299 -9.45964e-19)
(1.6423 -0.907174 4.83077e-19)
(1.62664 -0.847123 7.97803e-19)
(1.60413 -0.802771 -4.11162e-19)
(0.0848375 -0.0618084 6.52425e-21)
(0.703063 -0.426878 9.54769e-20)
(1.30913 -0.767546 2.99357e-19)
(1.65612 -0.938399 -2.84172e-19)
(1.79133 -0.978449 -1.52966e-18)
(1.82021 -0.953067 3.49549e-19)
(1.80846 -0.904502 6.21512e-19)
(1.78466 -0.851601 -7.54881e-20)
(1.75972 -0.798704 -5.2649e-21)
(1.7275 -0.756959 -3.38657e-20)
(0.124736 -0.0746425 -1.03949e-20)
(0.817849 -0.411799 -1.09538e-19)
(1.46603 -0.713982 -2.54009e-19)
(1.82293 -0.859435 6.85688e-20)
(1.9525 -0.889399 3.97446e-19)
(1.97178 -0.862834 3.61995e-20)
(1.95082 -0.816866 -2.51445e-20)
(1.91906 -0.76753 5.69849e-19)
(1.88697 -0.718278 4.74754e-19)
(1.85134 -0.681254 -1.59956e-19)
(0.171568 -0.0835976 1.07917e-19)
(0.935969 -0.382938 1.70615e-19)
(1.61695 -0.640395 -7.9294e-20)
(1.97663 -0.758889 -9.32071e-20)
(2.09727 -0.780038 -1.19526e-18)
(2.10617 -0.754639 1.07518e-20)
(2.07639 -0.713995 9.66777e-19)
(2.03746 -0.67122 3.3033e-19)
(1.99913 -0.629267 2.13819e-20)
(1.95934 -0.597 -2.10665e-19)
(0.224105 -0.0867829 -7.67136e-20)
(1.05369 -0.338486 2.39597e-19)
(1.75708 -0.546337 1.00173e-18)
(2.11269 -0.637181 -7.86472e-19)
(2.22191 -0.650622 -8.67137e-19)
(2.22039 -0.627586 1.47576e-18)
(2.18262 -0.593107 -1.06688e-18)
(2.13743 -0.55737 -1.1871e-18)
(2.0937 -0.522594 8.57839e-19)
(2.05055 -0.496204 -2.99904e-20)
(0.280841 -0.0828628 8.18199e-20)
(1.16729 -0.278373 -5.68749e-19)
(1.88219 -0.434022 -2.6654e-18)
(2.22735 -0.49823 1.30859e-18)
(2.32334 -0.506058 2.19018e-18)
(2.31193 -0.487193 -6.43288e-21)
(2.2675 -0.460324 -2.88056e-18)
(2.21748 -0.432801 1.53415e-21)
(2.16978 -0.406213 2.59786e-18)
(2.12411 -0.386116 6.84269e-19)
(0.339514 -0.0706515 -1.43205e-21)
(1.2723 -0.202776 4.45244e-19)
(1.98778 -0.30553 2.06781e-18)
(2.31702 -0.345174 -6.78483e-20)
(2.39883 -0.349651 -1.40982e-18)
(2.37845 -0.336389 -4.43869e-19)
(2.32872 -0.318062 0)
(2.27518 -0.299428 1.01006e-18)
(2.22469 -0.281514 5.85192e-21)
(2.17735 -0.268376 -8.27574e-19)
(0.397483 -0.0495711 2.87806e-21)
(1.36446 -0.113068 9.52764e-19)
(2.07019 -0.164152 1.86279e-18)
(2.37941 -0.182252 -1.93159e-18)
(2.44697 -0.18577 -1.44131e-18)
(2.41899 -0.179351 4.50613e-19)
(2.36554 -0.170265 -1.90112e-18)
(2.3099 -0.160942 -1.30635e-18)
(2.2579 -0.151949 1.54578e-18)
(2.20984 -0.145979 1.31862e-18)
(0.451815 -0.0196953 1.11108e-19)
(1.43974 -0.0113411 6.52887e-19)
(2.12641 -0.0134906 3.50481e-19)
(2.41302 -0.0137214 -2.80917e-18)
(2.46696 -0.0184726 3.26009e-20)
(2.43304 -0.0198344 4.28791e-18)
(2.37746 -0.0203635 -2.28607e-18)
(2.32109 -0.0205071 -1.27444e-18)
(2.26885 -0.020452 4.21662e-19)
(2.22105 -0.0216911 -9.57628e-19)
(-0.0036787 9.99222e-05 9.92656e-20)
(-0.00184213 -0.0793058 5.25909e-20)
(0.039134 -0.167255 -1.61599e-21)
(0.0982777 -0.221276 -8.8368e-21)
(0.16457 -0.242911 -2.18296e-21)
(0.230273 -0.245928 -5.36971e-20)
(0.29176 -0.240733 1.22195e-20)
(0.348148 -0.232725 -1.54287e-20)
(0.399143 -0.224238 3.24043e-21)
(0.447031 -0.217406 -8.43029e-21)
(-0.00482659 0.00892342 2.78816e-20)
(0.0099019 -0.118355 7.41634e-20)
(0.0658246 -0.265999 -1.01461e-19)
(0.134101 -0.357052 -4.57868e-20)
(0.203738 -0.392265 -7.89962e-20)
(0.269543 -0.395153 -9.20922e-20)
(0.329704 -0.383837 4.20173e-20)
(0.384309 -0.367758 -9.07396e-21)
(0.43331 -0.35108 -1.07162e-20)
(0.480162 -0.338551 -5.26668e-21)
(-0.00717901 0.01621 -4.47949e-20)
(0.0284321 -0.15752 1.71421e-19)
(0.109039 -0.361775 7.01732e-20)
(0.192475 -0.487403 2.6686e-19)
(0.267702 -0.534918 5.11626e-20)
(0.333709 -0.537234 -3.09276e-19)
(0.391717 -0.519811 -2.73447e-20)
(0.443408 -0.49588 1.0781e-19)
(0.489159 -0.471386 -5.29423e-20)
(0.534427 -0.453354 -1.28872e-20)
(-0.0101627 0.0213476 -1.18834e-19)
(0.0543423 -0.196556 -2.85317e-20)
(0.168731 -0.452904 3.30821e-20)
(0.272818 -0.609559 -1.3986e-19)
(0.355546 -0.667574 7.67736e-20)
(0.42169 -0.668735 2.00964e-19)
(0.476671 -0.645264 5.99761e-20)
(0.524334 -0.613817 -1.76873e-20)
(0.565659 -0.582039 2.2667e-20)
(0.608809 -0.558746 -2.90285e-21)
(-0.0130085 0.0238408 0)
(0.088405 -0.23523 9.07778e-20)
(0.244743 -0.53776 2.28624e-19)
(0.374201 -0.720825 -2.63195e-19)
(0.465894 -0.787058 -5.83431e-19)
(0.531919 -0.786379 2.05371e-19)
(0.582975 -0.756997 -3.04333e-20)
(0.625558 -0.718516 -1.05064e-19)
(0.661422 -0.680145 0)
(0.701956 -0.651842 -9.57247e-21)
(-0.0149402 0.023252 4.21675e-20)
(0.131327 -0.273317 1.11955e-19)
(0.336786 -0.6147 2.63896e-20)
(0.49528 -0.818601 2.50377e-19)
(0.596815 -0.890387 -1.97689e-19)
(0.66225 -0.887161 -3.03452e-19)
(0.708494 -0.852141 5.40743e-19)
(0.745064 -0.807281 5.67466e-20)
(0.774666 -0.763146 -3.24865e-19)
(0.812079 -0.729999 -7.467e-21)
(-0.0150726 0.0189665 6.06187e-21)
(0.183622 -0.310328 5.29906e-20)
(0.444286 -0.681888 1.4436e-19)
(0.634199 -0.900368 2.78921e-20)
(0.745725 -0.974862 3.26443e-19)
(0.809839 -0.968498 -4.17443e-19)
(0.850409 -0.928343 -4.26641e-19)
(0.88018 -0.878027 -3.64354e-19)
(0.903031 -0.82906 2.66534e-19)
(0.93652 -0.790953 2.90802e-19)
(-0.0119017 0.0107452 -1.30289e-19)
(0.246185 -0.345297 3.51461e-20)
(0.566099 -0.737486 3.10979e-19)
(0.78836 -0.963921 -1.79751e-19)
(0.909286 -1.03838 3.38334e-19)
(0.971118 -1.02866 8.22168e-19)
(1.0052 -0.984365 5.79742e-19)
(1.02749 -0.930127 -4.5153e-19)
(1.0434 -0.877558 -2.15926e-19)
(1.0708 -0.834143 3.11098e-19)
(-0.00430643 -0.000944409 -2.23516e-19)
(0.319027 -0.376781 -3.79045e-19)
(0.699992 -0.779452 6.09685e-19)
(0.953782 -1.00714 7.19959e-19)
(1.08259 -1.07903 -7.53377e-19)
(1.14082 -1.06614 8.58492e-19)
(1.16746 -1.0193 1.37767e-19)
(1.18141 -0.963512 -1.0551e-18)
(1.19007 -0.909045 -2.58096e-19)
(1.20615 -0.860531 3.47706e-19)
(0.00834086 -0.015064 5.72777e-20)
(0.401291 -0.402583 -3.80169e-19)
(0.842871 -0.805168 -4.29587e-19)
(1.12558 -1.02732 7.46353e-19)
(1.25955 -1.09397 6.12188e-19)
(1.31184 -1.07768 -7.71914e-19)
(1.32891 -1.0292 -6.46066e-19)
(1.3324 -0.973279 3.85678e-19)
(1.33206 -0.91702 -3.99259e-19)
(1.32838 -0.864922 -2.44808e-19)
(0.62569 -0.176912 4.1966e-20)
(0.802987 -0.133954 -5.57596e-20)
(0.88993 -0.105044 6.19455e-21)
(0.940618 -0.0823178 1.08979e-20)
(0.970086 -0.0638766 -5.50544e-21)
(0.987667 -0.0487799 -2.76171e-21)
(0.998573 -0.0363956 -4.52515e-21)
(1.00547 -0.0260823 -3.07966e-21)
(1.00965 -0.0179699 7.79141e-21)
(1.01245 -0.0074976 2.90644e-21)
(0.643345 -0.252244 1.14101e-19)
(0.815279 -0.173098 1.14002e-20)
(0.898364 -0.126152 3.9911e-21)
(0.947039 -0.0942045 -5.46796e-21)
(0.975182 -0.0708541 -1.40424e-20)
(0.991768 -0.0529692 0)
(1.0019 -0.0389595 -4.73238e-21)
(1.00821 -0.0276556 3.79503e-21)
(1.01199 -0.0189366 4.68498e-22)
(1.01445 -0.00787906 -3.58587e-21)
(0.671514 -0.324828 -7.77678e-20)
(0.833027 -0.211586 -3.37504e-20)
(0.909577 -0.147067 1.44224e-20)
(0.954864 -0.105982 -8.49289e-21)
(0.981049 -0.0777282 -3.74142e-21)
(0.996324 -0.0570579 6.00688e-21)
(1.0055 -0.0414273 0)
(1.01112 -0.0291453 0)
(1.01444 -0.0198351 -2.16886e-21)
(1.01653 -0.0082294 0)
(0.710241 -0.393163 -3.63117e-20)
(0.85591 -0.248893 6.97374e-20)
(0.923553 -0.167573 7.59426e-21)
(0.964099 -0.117536 0)
(0.987687 -0.0844288 1.95702e-20)
(1.00132 -0.0610032 -3.18223e-21)
(1.00937 -0.0437721 0)
(1.0142 -0.0305338 4.2473e-21)
(1.01701 -0.0206541 0)
(1.01868 -0.00854367 6.60437e-22)
(0.759565 -0.455768 -3.95455e-20)
(0.883538 -0.284507 9.50443e-20)
(0.940243 -0.187457 -4.07045e-21)
(0.974743 -0.128756 0)
(0.995086 -0.0908896 4.06112e-21)
(1.00676 -0.0647632 6.24814e-21)
(1.0135 -0.0459668 5.85762e-21)
(1.01742 -0.0318045 1.07295e-21)
(1.01967 -0.0213824 -2.21743e-21)
(1.0209 -0.008817 2.64767e-21)
(0.819248 -0.511178 -7.29406e-19)
(0.915423 -0.31805 -1.8151e-19)
(0.959547 -0.206576 1.56864e-21)
(0.986789 -0.139548 2.8765e-20)
(1.00324 -0.0970506 -6.34407e-21)
(1.01262 -0.0682978 4.64008e-21)
(1.01786 -0.0479853 4.79364e-21)
(1.02079 -0.0329389 -9.2221e-21)
(1.0224 -0.0220097 -2.06302e-22)
(1.0232 -0.00904691 2.31073e-23)
(0.888187 -0.557561 -5.35196e-21)
(0.950531 -0.348734 7.12302e-20)
(0.981166 -0.224793 2.68233e-21)
(1.00019 -0.149858 -8.33397e-22)
(1.01212 -0.102875 -2.23747e-20)
(1.01888 -0.0715766 5.26145e-21)
(1.02245 -0.0498044 -3.38771e-21)
(1.02427 -0.0339204 -4.2179e-21)
(1.02521 -0.0225247 1.12142e-21)
(1.0255 -0.00922768 -1.83253e-21)
(0.965164 -0.593286 2.85986e-19)
(0.986706 -0.37526 8.70799e-20)
(1.00387 -0.24142 0)
(1.01454 -0.159373 -5.028e-22)
(1.02157 -0.10822 1.81628e-20)
(1.02547 -0.0745345 1.15942e-21)
(1.02722 -0.0513927 -1.50977e-20)
(1.02786 -0.0347323 4.29877e-21)
(1.02805 -0.0229165 -4.24998e-23)
(1.02785 -0.00935466 -3.55876e-22)
(1.0542 -0.621829 -4.22466e-19)
(1.02474 -0.400057 -2.35538e-19)
(1.02633 -0.257517 5.30748e-20)
(1.02883 -0.168396 -2.5532e-22)
(1.03107 -0.113096 -2.2661e-21)
(1.03214 -0.077113 -1.44022e-20)
(1.03206 -0.0527008 3.87378e-21)
(1.03149 -0.035344 5.21271e-22)
(1.03091 -0.0231688 -3.16391e-21)
(1.0302 -0.00942704 -2.64521e-21)
(1.1595 -0.647941 2.96629e-19)
(1.07524 -0.424181 -2.32604e-19)
(1.05253 -0.276118 -3.99335e-20)
(1.04399 -0.179787 -4.20277e-20)
(1.04066 -0.119332 -2.28323e-20)
(1.03875 -0.0803089 -1.12483e-20)
(1.03688 -0.0542219 -5.5269e-21)
(1.03509 -0.0359755 0)
(1.03375 -0.0233744 -4.63723e-22)
(1.03254 -0.00945555 2.15104e-21)
(1.31625 -0.633714 4.68013e-19)
(1.17836 -0.42422 1.53354e-19)
(1.11189 -0.277939 -1.21186e-19)
(1.07796 -0.181657 7.64433e-21)
(1.06045 -0.120419 9.06077e-21)
(1.05085 -0.0806883 -5.17022e-21)
(1.04469 -0.0541599 2.85455e-22)
(1.0404 -0.0357144 4.54702e-21)
(1.03761 -0.023073 -3.15359e-21)
(1.03557 -0.00931373 1.96163e-23)
(1.3673 -0.518031 -7.00676e-21)
(1.20959 -0.360489 1.44683e-19)
(1.13914 -0.24585 1.22441e-19)
(1.10006 -0.165895 -1.48015e-20)
(1.0765 -0.112017 5.68194e-20)
(1.0621 -0.0757748 3.64304e-20)
(1.05258 -0.0510793 2.48064e-20)
(1.04605 -0.0337443 -2.44829e-21)
(1.04189 -0.0218233 8.6898e-21)
(1.03897 -0.00880151 3.83176e-21)
(1.42539 -0.445908 -1.44185e-19)
(1.26073 -0.323633 -1.17743e-20)
(1.17539 -0.22536 6.32537e-21)
(1.12483 -0.15377 5.78407e-37)
(1.09311 -0.104301 7.08694e-22)
(1.0733 -0.0706632 -1.01121e-34)
(1.06029 -0.0476212 -2.89115e-21)
(1.0515 -0.0314239 -2.10498e-34)
(1.04598 -0.0203015 8.36288e-22)
(1.04216 -0.00818212 -2.47228e-21)
(1.46171 -0.365028 -2.19595e-34)
(1.29626 -0.274225 -3.97319e-20)
(1.20384 -0.196197 -4.26806e-20)
(1.14581 -0.136475 0)
(1.10782 -0.093522 -2.46129e-20)
(1.08343 -0.0636719 -1.66329e-20)
(1.06733 -0.0429913 -9.63876e-21)
(1.05651 -0.0283773 -2.56263e-34)
(1.04971 -0.0183357 -2.9777e-21)
(1.04506 -0.00739057 2.33887e-21)
(1.48435 -0.293764 -8.83704e-20)
(1.32341 -0.227335 4.72806e-21)
(1.22698 -0.165991 0)
(1.16349 -0.117173 0)
(1.12055 -0.0809781 0)
(1.09233 -0.0553756 0)
(1.07355 -0.0374652 -5.57181e-22)
(1.06094 -0.0247451 -2.86067e-34)
(1.05305 -0.0159965 7.34151e-22)
(1.04763 -0.00645042 2.79082e-34)
(1.49831 -0.228009 -3.35513e-20)
(1.34349 -0.180851 0)
(1.2451 -0.13441 0)
(1.17782 -0.096125 0)
(1.13111 -0.066954 0)
(1.09983 -0.0459768 0)
(1.07884 -0.0311703 9.22423e-22)
(1.06471 -0.0206056 5.90744e-21)
(1.05588 -0.01333 6.87919e-22)
(1.04981 -0.00537759 3.18227e-21)
(1.50641 -0.167422 0)
(1.35772 -0.135524 -1.15297e-20)
(1.25864 -0.102207 -1.64562e-20)
(1.18885 -0.0739083 0)
(1.13941 -0.0518316 -1.13422e-20)
(1.10578 -0.035727 -8.03623e-21)
(1.08307 -0.0242693 -4.61388e-21)
(1.06775 -0.0160592 -3.4514e-21)
(1.05815 -0.0103975 4.57995e-21)
(1.05153 -0.00419769 1.29109e-21)
(1.50949 -0.111318 9.13534e-21)
(1.36575 -0.0907518 6.9543e-21)
(1.26683 -0.0690023 -4.11803e-21)
(1.19572 -0.050308 2.53383e-36)
(1.14459 -0.035459 7.45201e-22)
(1.10941 -0.0245139 -6.16115e-35)
(1.08552 -0.016681 6.77602e-22)
(1.06936 -0.0110477 3.01443e-21)
(1.05922 -0.0071528 5.649e-22)
(1.05222 -0.00288426 -1.87481e-21)
(1.48672 -0.0536012 -4.50727e-20)
(1.34563 -0.0486815 9.99676e-21)
(1.24925 -0.0383772 1.13696e-20)
(1.17967 -0.0284478 0)
(1.12927 -0.0201909 7.15498e-21)
(1.09436 -0.0140075 5.06799e-21)
(1.07054 -0.00955195 4.00894e-21)
(1.05443 -0.00633649 2.2149e-21)
(1.04432 -0.00410339 -2.06613e-21)
(1.03732 -0.00165194 2.27523e-21)
(1.08912 -0.00149951 0)
(1.00408 -0.00600958 0)
(0.939667 -0.00577148 0)
(0.89055 -0.00451484 0)
(0.854158 -0.00325206 0)
(0.828754 -0.00227922 0)
(0.811337 -0.00156622 5.24679e-22)
(0.799493 -0.00105091 -3.51962e-36)
(0.792033 -0.000667943 5.61642e-22)
(0.786936 -0.000257512 1.72614e-21)
(2.13633 -0.0213809 8.90657e-19)
(2.12746 -0.128025 6.15636e-20)
(2.10079 -0.232864 -1.31722e-19)
(2.05644 -0.333426 -3.53191e-19)
(1.99633 -0.427943 -1.21784e-19)
(1.91881 -0.515772 -1.82489e-19)
(1.83585 -0.586556 -4.396e-19)
(1.72093 -0.665675 1.39942e-19)
(1.6436 -0.685673 0)
(1.47743 -0.768756 4.56186e-20)
(2.0502 -0.0149367 2.25618e-19)
(2.04319 -0.0949178 -3.44177e-19)
(2.02294 -0.174065 -5.70657e-21)
(1.98762 -0.251161 -1.39852e-19)
(1.94395 -0.323514 2.35188e-20)
(1.87975 -0.397244 1.291e-19)
(1.82456 -0.445986 1.35067e-20)
(1.72732 -0.530514 9.60939e-20)
(1.67514 -0.531009 -1.17799e-19)
(1.56031 -0.622008 2.63461e-20)
(1.97574 -0.0112557 -1.16546e-19)
(1.97034 -0.0749073 2.14696e-19)
(1.95472 -0.137638 1.9272e-19)
(1.92608 -0.199142 -2.31504e-19)
(1.89261 -0.255564 1.00803e-19)
(1.83987 -0.316892 1.3016e-19)
(1.79764 -0.351696 -6.35135e-20)
(1.72171 -0.427944 7.54307e-20)
(1.67451 -0.42482 7.73896e-20)
(1.59121 -0.506075 1.00544e-19)
(1.91894 -0.0111124 -1.98565e-19)
(1.91457 -0.0597473 4.59436e-20)
(1.90157 -0.107712 -1.06419e-19)
(1.8777 -0.155481 -6.56994e-20)
(1.84976 -0.198946 2.35196e-20)
(1.80666 -0.248311 -1.06023e-19)
(1.7701 -0.274986 8.59108e-20)
(1.71139 -0.337875 2.88884e-20)
(1.66764 -0.336124 -1.38213e-20)
(1.60509 -0.402905 9.5267e-21)
(1.87447 -0.00971147 5.4472e-20)
(1.87089 -0.0467902 5.03738e-20)
(1.85971 -0.0832677 -6.26311e-20)
(1.83956 -0.119788 2.3034e-19)
(1.81498 -0.152903 1.35562e-20)
(1.77939 -0.191015 -1.4e-19)
(1.74612 -0.211977 2.12587e-20)
(1.69931 -0.260485 -8.8582e-20)
(1.6591 -0.26097 1.14843e-19)
(1.60927 -0.312669 8.36693e-20)
(1.84085 -0.00976957 -1.05784e-19)
(1.83794 -0.0368799 -5.85694e-20)
(1.828 -0.063539 3.48343e-20)
(1.81049 -0.0903491 8.11562e-20)
(1.78805 -0.114819 4.41544e-20)
(1.75765 -0.143022 -4.1251e-20)
(1.72652 -0.159382 3.26036e-21)
(1.68721 -0.195174 5.34038e-20)
(1.65003 -0.197354 1.01654e-19)
(1.60779 -0.235922 -5.4999e-20)
(1.81633 -0.0103084 -4.33391e-20)
(1.81399 -0.0288027 -8.04481e-20)
(1.80501 -0.0469634 -5.2924e-20)
(1.78938 -0.0653226 -1.04923e-19)
(1.76842 -0.0822629 -1.97614e-20)
(1.74141 -0.101859 -4.23034e-21)
(1.71177 -0.113829 4.71774e-20)
(1.67698 -0.138927 -1.57023e-20)
(1.64217 -0.141636 -3.35538e-20)
(1.60411 -0.169232 1.00802e-20)
(1.79478 -0.0100081 3.58483e-20)
(1.79373 -0.0209222 3.37546e-20)
(1.78623 -0.0315324 1.25771e-20)
(1.7727 -0.0422957 -2.21513e-20)
(1.75359 -0.0524156 -1.7998e-20)
(1.72943 -0.0645245 3.46087e-20)
(1.7013 -0.072215 -2.07925e-21)
(1.66936 -0.0888138 -4.64107e-20)
(1.63633 -0.090938 1.06528e-20)
(1.60034 -0.110917 5.06789e-20)
(1.71296 -0.0155358 -2.77568e-20)
(1.71334 -0.0178003 3.60051e-21)
(1.71025 -0.0196147 4.23613e-20)
(1.70325 -0.0214172 2.8317e-21)
(1.69183 -0.0228371 -2.94461e-21)
(1.67683 -0.0259459 -5.74665e-21)
(1.65705 -0.0264036 1.86083e-20)
(1.63503 -0.0339866 -2.85951e-20)
(1.60741 -0.0324968 3.65858e-20)
(1.58234 -0.044037 1.19976e-19)
(1.10269 -0.00952515 3.04423e-20)
(1.09362 -0.00643722 1.9751e-20)
(1.08775 -0.00334901 1.57647e-20)
(1.0856 -0.000323794 1.72298e-20)
(1.08619 0.00260535 -2.91677e-21)
(1.09055 0.00506626 5.8843e-21)
(1.09409 0.00785165 -8.87511e-21)
(1.10434 0.00785586 2.0682e-21)
(1.1027 0.0116744 -3.36462e-21)
(1.12046 0.00767076 3.7521e-21)
(1.3816 0.746075 -5.64932e-20)
(1.36669 0.792626 2.50148e-20)
(1.37049 0.850171 -4.47364e-19)
(1.38052 0.915417 2.16789e-19)
(1.39104 0.984038 8.71063e-19)
(1.39683 1.05238 -1.37278e-19)
(1.3784 1.10491 -8.4932e-19)
(1.27559 1.08401 -4.51074e-20)
(0.981708 0.874468 -4.13926e-19)
(0.427062 0.387854 1.5435e-19)
(1.55862 0.72321 0)
(1.54875 0.770753 5.38167e-19)
(1.54635 0.82385 1.21355e-18)
(1.55173 0.885339 -7.38864e-19)
(1.56229 0.952207 -1.78965e-18)
(1.57112 1.02011 -1.40177e-19)
(1.55405 1.07251 -1.78984e-19)
(1.44048 1.05149 6.44658e-19)
(1.10699 0.844737 8.4164e-19)
(0.477833 0.369924 3.81225e-19)
(1.69937 0.704808 6.20432e-20)
(1.70303 0.750254 0)
(1.70664 0.798145 -6.50891e-20)
(1.7154 0.853364 7.64807e-19)
(1.72953 0.914695 5.25586e-20)
(1.74222 0.978043 -1.88074e-18)
(1.72593 1.02652 1.19151e-18)
(1.60029 1.00296 7.52991e-19)
(1.22602 0.800968 -7.67984e-19)
(0.523824 0.344671 -2.81748e-19)
(1.81004 0.672685 -1.33646e-19)
(1.82642 0.713357 -1.02271e-19)
(1.84121 0.756166 2.28808e-19)
(1.85936 0.805509 -2.86158e-19)
(1.88157 0.860895 -1.37092e-18)
(1.9008 0.918477 -1.06441e-18)
(1.88603 0.961386 1.16499e-18)
(1.74746 0.933834 7.48407e-19)
(1.33124 0.73945 0)
(0.559675 0.310106 0)
(1.90441 0.616915 -8.03218e-19)
(1.93062 0.6529 -1.42215e-18)
(1.9564 0.691507 -5.58636e-19)
(1.98518 0.735769 -3.36809e-20)
(2.01696 0.785306 0)
(2.04365 0.836558 1.42233e-19)
(2.03008 0.873168 1.69872e-19)
(1.87687 0.841272 2.17451e-19)
(1.41724 0.658472 -3.27181e-19)
(0.582523 0.266769 -8.23067e-20)
(1.99018 0.538783 9.79515e-19)
(2.02344 0.570582 -4.22307e-20)
(2.058 0.605177 -1.15381e-18)
(2.09597 0.644359 0)
(2.13637 0.687711 0)
(2.16955 0.731988 0)
(2.15537 0.761994 1.4928e-18)
(1.98521 0.727304 -1.7551e-18)
(1.48067 0.560124 -1.08669e-18)
(0.591192 0.216753 -5.15141e-20)
(2.06722 0.444022 -1.31562e-18)
(2.10549 0.471312 -2.7542e-18)
(2.1466 0.501064 -4.82501e-21)
(2.19164 0.534329 5.68427e-19)
(2.23881 0.570656 -4.12877e-20)
(2.2765 0.607292 1.30301e-18)
(2.25999 0.629467 -7.53132e-19)
(2.06898 0.595821 -2.18636e-18)
(1.52024 0.451744 1.78748e-19)
(0.585924 0.164225 1.27939e-19)
(2.13179 0.337557 -1.06395e-18)
(2.17386 0.359372 1.62823e-20)
(2.2198 0.383045 4.15134e-19)
(2.27006 0.409296 -4.08491e-19)
(2.32203 0.437612 6.46657e-19)
(2.36224 0.46505 1.86324e-18)
(2.33972 0.481882 -2.25497e-19)
(2.12507 0.452048 -1.24967e-18)
(1.53584 0.335562 2.93244e-19)
(0.568329 0.112105 4.70314e-20)
(2.18029 0.222663 4.0921e-19)
(2.22524 0.238122 8.20293e-20)
(2.27463 0.254598 -4.41757e-19)
(2.32841 0.272849 -1.05352e-18)
(2.3834 0.292349 9.3598e-20)
(2.42359 0.31124 9.61092e-20)
(2.39242 0.322898 -1.69142e-18)
(2.15412 0.299093 7.07891e-19)
(1.52708 0.216929 2.07161e-19)
(0.539156 0.0627977 -1.6768e-19)
(2.21062 0.101963 8.06857e-19)
(2.25744 0.110245 -1.23877e-18)
(2.30886 0.118852 1.89524e-19)
(2.36464 0.128311 2.63363e-18)
(2.4208 0.138491 1.37872e-18)
(2.45883 0.148366 -3.20023e-18)
(2.41733 0.156001 -3.33405e-18)
(2.15462 0.142474 1.62915e-18)
(1.49468 0.0998508 6.5996e-21)
(0.499807 0.0181707 5.32536e-20)
(0.511847 0.207942 -1.62907e-19)
(0.474516 0.215167 -1.48946e-19)
(0.430939 0.223086 8.10515e-20)
(0.382865 0.231585 -2.62184e-19)
(0.329902 0.240671 -3.18763e-20)
(0.271372 0.250122 2.19781e-19)
(0.206424 0.257715 5.2115e-20)
(0.13491 0.25364 -2.25594e-20)
(0.0640039 0.213809 3.95354e-21)
(0.0106529 0.10667 1.47245e-20)
(0.539831 0.307905 1.31752e-19)
(0.503363 0.321948 1.83235e-19)
(0.461185 0.337666 3.48437e-20)
(0.414679 0.354552 -6.9912e-20)
(0.363402 0.372506 -2.48573e-19)
(0.306676 0.391152 4.77877e-21)
(0.243253 0.406626 1.17888e-19)
(0.171324 0.402033 1.48757e-20)
(0.094707 0.337374 -6.81576e-20)
(0.0260067 0.165505 -2.27251e-20)
(0.585044 0.40383 -1.3398e-19)
(0.550101 0.424428 -1.3752e-19)
(0.510338 0.447531 1.22615e-19)
(0.466503 0.472365 1.04538e-19)
(0.418057 0.498742 -6.20983e-20)
(0.364323 0.526111 -7.54278e-20)
(0.303373 0.548976 -8.50378e-20)
(0.230582 0.543598 -1.55202e-20)
(0.144236 0.454706 -4.14927e-20)
(0.050342 0.220839 3.44699e-21)
(0.646371 0.493649 6.51498e-20)
(0.613584 0.520409 -2.09717e-20)
(0.577191 0.550279 -1.03125e-19)
(0.537073 0.582414 2.86753e-20)
(0.492553 0.616571 -7.63292e-20)
(0.442945 0.651989 1.92412e-20)
(0.385369 0.681567 -1.6548e-19)
(0.311261 0.675074 -1.00437e-20)
(0.211272 0.562978 -2.26944e-19)
(0.0828316 0.271096 4.69246e-20)
(0.722225 0.575451 -1.5652e-20)
(0.692197 0.607901 -2.32538e-21)
(0.660112 0.643784 -4.24138e-20)
(0.624773 0.68242 -1.7913e-19)
(0.585286 0.72354 8.03013e-20)
(0.540909 0.766148 -3.98334e-20)
(0.487523 0.801572 1.09654e-19)
(0.411675 0.793521 -5.28444e-20)
(0.294083 0.659631 2.86052e-19)
(0.122394 0.314944 2.13996e-19)
(0.810637 0.647477 -2.76369e-20)
(0.783781 0.684739 -9.34522e-20)
(0.756679 0.725436 1.12286e-19)
(0.726922 0.769447 8.70895e-20)
(0.693408 0.81652 2.33072e-19)
(0.655284 0.865324 1.42005e-19)
(0.606852 0.905608 4.37561e-19)
(0.528821 0.895486 1.94743e-19)
(0.390095 0.741469 1.66731e-19)
(0.167644 0.35068 1.90717e-19)
(0.909365 0.707633 -9.36601e-20)
(0.886996 0.749176 3.50939e-19)
(0.86646 0.793825 2.16228e-19)
(0.84371 0.842108 -2.51227e-19)
(0.817267 0.89391 -1.32571e-19)
(0.786171 0.947654 4.89184e-19)
(0.74295 0.991683 -9.44575e-20)
(0.661708 0.979138 -3.04221e-19)
(0.49796 0.807168 -6.1167e-20)
(0.217536 0.377689 1.99183e-19)
(1.00943 0.756446 1.89847e-19)
(0.990156 0.799886 5.25185e-20)
(0.976256 0.84639 -5.69818e-19)
(0.961868 0.897695 7.69363e-20)
(0.944723 0.953262 3.76922e-19)
(0.923133 1.01081 -2.5416e-19)
(0.887074 1.05718 -6.16636e-20)
(0.802995 1.04126 -1.32733e-19)
(0.611895 0.853459 1.27482e-20)
(0.269125 0.394277 -2.86973e-19)
(1.13029 0.778652 2.08824e-20)
(1.12011 0.825213 -3.93721e-19)
(1.1143 0.872765 -3.12707e-21)
(1.10626 0.925833 3.25679e-19)
(1.09514 0.984638 -3.29066e-19)
(1.07985 1.04619 6.75698e-19)
(1.04807 1.09571 4.7485e-19)
(0.957888 1.07851 -7.27149e-19)
(0.734469 0.880049 -3.55247e-20)
(0.322913 0.401486 -2.86954e-19)
(1.19919 0.793628 -2.28319e-19)
(1.20292 0.842543 -2.23846e-19)
(1.21791 0.893185 2.37806e-19)
(1.22914 0.948575 5.45649e-19)
(1.23426 1.00822 2.15496e-19)
(1.23228 1.06969 -5.67501e-19)
(1.20885 1.11799 4.21111e-20)
(1.11388 1.09635 1.57801e-19)
(0.857079 0.88848 -2.01021e-19)
(0.37551 0.399444 -2.03903e-19)
(0.823218 0.021682 3.91395e-21)
(1.15764 0.0428427 -1.65425e-20)
(0.917193 0.0496827 -1.42414e-20)
(1.04022 0.0525602 0)
(0.987811 0.0602687 1.65324e-20)
(0.973095 0.0710952 2.19653e-20)
(0.950017 0.0862662 2.80902e-20)
(0.899147 0.106229 5.74605e-20)
(0.830133 0.134729 -8.29521e-20)
(0.663106 0.171385 -1.05382e-19)
(0.822664 0.0184853 3.28615e-20)
(1.15747 0.0426944 -5.25879e-20)
(0.91762 0.0516342 1.27584e-22)
(1.04194 0.0541804 -1.34645e-20)
(0.990458 0.0643135 8.99432e-21)
(0.977136 0.0773498 -1.12558e-20)
(0.955346 0.0973999 -6.97456e-20)
(0.907433 0.123713 0)
(0.839803 0.172547 1.79435e-19)
(0.685551 0.235751 -2.20492e-19)
(0.821878 0.0154792 -3.01361e-20)
(1.15752 0.0424128 1.66118e-20)
(0.917974 0.05333 3.2982e-20)
(1.04415 0.0555658 1.21382e-20)
(0.993435 0.0681135 -2.18574e-20)
(0.981948 0.0834034 8.20209e-23)
(0.961701 0.108242 -4.94957e-20)
(0.918672 0.141112 -4.116e-21)
(0.853054 0.209279 1.04661e-22)
(0.720892 0.298349 5.90628e-19)
(0.820856 0.0127318 -2.24919e-20)
(1.15772 0.041989 -9.39514e-22)
(0.918269 0.05472 2.48972e-20)
(1.04685 0.056717 1.67822e-20)
(0.996756 0.071635 -9.46728e-21)
(0.987516 0.0892068 -1.28911e-20)
(0.969177 0.118673 7.41119e-20)
(0.932653 0.158338 -1.17404e-21)
(0.87017 0.244399 -2.18136e-19)
(0.768473 0.358125 7.0137e-20)
(0.819594 0.0102737 1.60509e-20)
(1.15801 0.0413949 -2.91988e-20)
(0.918527 0.0557509 -1.83187e-20)
(1.05005 0.0576383 8.97394e-21)
(1.00042 0.0748445 0)
(0.993824 0.0947106 0)
(0.977886 0.128588 6.34284e-20)
(0.949138 0.175336 1.23554e-22)
(0.891463 0.277351 -1.04612e-19)
(0.827444 0.41414 8.39074e-20)
(0.818092 0.00816291 3.73377e-21)
(1.15829 0.040599 2.09165e-20)
(0.918783 0.0563709 -4.61374e-20)
(1.05372 0.0583406 -2.70838e-20)
(1.00443 0.0777078 6.91635e-22)
(1.00085 0.099869 5.25506e-20)
(0.987939 0.137913 9.96596e-20)
(0.967827 0.192046 -7.48453e-22)
(0.917369 0.307179 1.82623e-19)
(0.896904 0.466862 -1.9173e-19)
(0.816348 0.00646875 -2.08464e-20)
(1.15848 0.0395658 1.3467e-20)
(0.919078 0.0565284 -1.21011e-20)
(1.05788 0.0588423 -5.0144e-20)
(1.00877 0.0801905 -1.3536e-21)
(1.00858 0.10465 -8.47334e-22)
(0.999431 0.146622 -6.31793e-21)
(0.988317 0.208318 -1.81892e-19)
(0.948662 0.332373 1.40509e-19)
(0.974118 0.513865 -4.60746e-19)
(0.814359 0.00524849 -4.53978e-22)
(1.15849 0.0382374 -2.98487e-20)
(0.919468 0.0561827 2.37296e-20)
(1.0625 0.0591676 3.22086e-20)
(1.01341 0.0822465 -4.27589e-22)
(1.01701 0.109023 -6.23159e-20)
(1.0124 0.154747 -5.57551e-20)
(1.01031 0.224494 3.3154e-19)
(0.985965 0.355632 1.33409e-20)
(1.05843 0.565108 7.30155e-19)
(0.812118 0.00450649 9.68411e-21)
(1.15837 0.0364747 1.14966e-20)
(0.920032 0.0552839 2.98556e-20)
(1.06754 0.0593268 -3.31258e-20)
(1.0183 0.0837653 -5.94561e-20)
(1.02608 0.112694 1.5747e-21)
(1.02672 0.161221 -7.71181e-20)
(1.03401 0.236578 4.3547e-19)
(1.03281 0.365833 -8.07664e-21)
(1.1401 0.590019 -1.00209e-18)
(0.809654 0.00470951 1.65149e-21)
(1.15908 0.0345129 1.42094e-20)
(0.920583 0.0539649 9.26625e-21)
(1.07304 0.0596426 -6.69367e-20)
(1.02312 0.0855022 -5.88324e-20)
(1.0346 0.117634 -5.21629e-20)
(1.03914 0.171293 -1.38016e-19)
(1.05228 0.256456 -4.01888e-19)
(1.07335 0.393759 -2.4488e-19)
(1.23295 0.658093 -1.04645e-18)
(0.807218 0.0043864 -4.64171e-21)
(1.1623 0.0312262 -2.88491e-21)
(0.922054 0.0510159 -1.00947e-20)
(1.08001 0.0583107 1.36916e-20)
(1.03217 0.0843163 4.77938e-20)
(1.05004 0.117526 -3.68649e-20)
(1.06402 0.171271 1.22638e-19)
(1.09133 0.25412 -3.99445e-19)
(1.1438 0.374041 -1.73948e-19)
(1.23441 0.642707 5.77782e-19)
(0.807764 0.00174289 3.628e-21)
(1.16653 0.0267545 8.54702e-21)
(0.926465 0.0456012 -6.99256e-21)
(1.08609 0.0544498 4.10398e-20)
(1.04289 0.079289 7.48959e-20)
(1.06576 0.111165 1.07511e-19)
(1.08813 0.160916 2.63679e-20)
(1.12968 0.235155 2.10597e-19)
(1.19511 0.341979 2.58714e-19)
(1.31662 0.536832 3.41149e-21)
(0.808027 -0.00149342 -4.85388e-21)
(1.1713 0.0219399 -1.13968e-23)
(0.93132 0.03997 3.6061e-21)
(1.09225 0.0497481 1.00605e-20)
(1.0533 0.0730738 2.07913e-34)
(1.08057 0.10296 -8.03024e-21)
(1.10998 0.147945 -5.24986e-34)
(1.16299 0.213399 1.85287e-20)
(1.23289 0.300617 -5.42751e-20)
(1.38264 0.461142 -4.97276e-20)
(0.80836 -0.00592736 1.78312e-20)
(1.17623 0.0164341 -4.64349e-36)
(0.936272 0.0338624 -3.96488e-21)
(1.09822 0.0440992 -1.63454e-20)
(1.06295 0.0654323 -3.00955e-20)
(1.09398 0.0926107 -3.62313e-20)
(1.12922 0.132032 -6.48654e-34)
(1.19072 0.188606 -9.15426e-20)
(1.2632 0.257482 -1.2503e-19)
(1.42697 0.384241 8.87015e-20)
(0.808876 -0.0115205 0)
(1.18157 0.0103037 -1.32102e-35)
(0.941264 0.0274526 0)
(1.10381 0.0376643 0)
(1.0716 0.0566208 0)
(1.10569 0.0805053 0)
(1.14572 0.113915 -3.86083e-34)
(1.21298 0.161465 0)
(1.28788 0.213754 -2.03796e-20)
(1.45314 0.311844 5.31913e-20)
(0.809652 -0.0181969 5.88833e-21)
(1.18754 0.00367594 -3.13811e-21)
(0.946302 0.020969 -4.77029e-21)
(1.10891 0.0306342 0)
(1.07911 0.0468808 0)
(1.11558 0.0670187 6.74096e-21)
(1.15938 0.0942089 2.69621e-20)
(1.23027 0.132636 -1.36026e-20)
(1.30734 0.170923 -2.99336e-20)
(1.46735 0.243977 2.02745e-19)
(0.810794 -0.0278895 -6.23541e-20)
(1.19446 -0.00381375 4.92043e-21)
(0.951379 0.0145722 -5.11044e-21)
(1.11332 0.0232294 -5.59422e-21)
(1.08532 0.0364497 -1.07722e-20)
(1.12353 0.0524992 -8.28427e-21)
(1.17018 0.0734008 -2.04739e-20)
(1.24316 0.102756 -3.78917e-20)
(1.32188 0.129552 -5.22946e-20)
(1.47445 0.180816 7.07325e-20)
(0.812373 -0.033424 -9.38815e-21)
(1.20289 -0.01053 -6.82461e-21)
(0.956228 0.00979156 -5.46524e-21)
(1.11645 0.0154699 -8.28388e-21)
(1.08967 0.0253524 2.06937e-35)
(1.12907 0.0369976 7.25901e-21)
(1.17774 0.0514611 -9.3843e-34)
(1.25189 0.071687 -1.37552e-20)
(1.3316 0.0888177 1.84837e-20)
(1.4778 0.119767 2.57577e-20)
(0.809867 -0.0586216 1.51844e-19)
(1.19491 -0.0218931 -9.00679e-21)
(0.946204 0.00288212 -5.74448e-21)
(1.10395 0.00902185 4.16978e-21)
(1.07821 0.0145814 3.0984e-21)
(1.11838 0.0221255 1.38727e-20)
(1.1684 0.0305995 7.84401e-21)
(1.24331 0.0425968 -4.78796e-21)
(1.32289 0.0515734 -2.01027e-20)
(1.46748 0.0673726 1.38385e-19)
(0.728581 -0.0384184 9.79427e-21)
(0.944454 -0.0187019 -5.03086e-35)
(0.711928 0.00289278 -6.64296e-21)
(0.855575 0.000161473 0)
(0.822472 0.00286677 0)
(0.857786 0.004426 7.50421e-21)
(0.899905 0.00600512 -8.96022e-36)
(0.961768 0.0086544 -1.37061e-20)
(1.02883 0.00997527 -2.68569e-20)
(1.13889 0.0125898 5.57735e-20)
(1.47512 0.634642 -1.80995e-19)
(1.58591 0.614694 -2.69897e-19)
(1.68587 0.603996 0)
(1.77268 0.583125 1.16841e-19)
(1.85264 0.537791 5.48021e-19)
(1.92859 0.468866 -1.15918e-19)
(1.998 0.383894 1.55023e-18)
(2.05617 0.289389 -7.96437e-20)
(2.0997 0.188747 -3.47391e-19)
(2.12681 0.0852048 3.29959e-19)
(1.51488 0.516589 8.19052e-20)
(1.59066 0.503114 1.07023e-19)
(1.66819 0.489178 -9.13559e-21)
(1.74453 0.462122 1.76787e-19)
(1.81708 0.417738 -1.50423e-19)
(1.88389 0.359465 -3.67203e-19)
(1.94212 0.292288 -1.11895e-19)
(1.98885 0.219616 5.05238e-19)
(2.02304 0.143425 -2.18459e-20)