# Selection   : all
# Cells       : 440
# Volume      : 7.374263e+01
# Time        	maxMag(U)
4.915         	2.690294e+00
4.96          	2.701491e+00
5.01          	2.713693e+00
