/*--------------------------------*- C++ -*----------------------------------*\
  =========                 |
  \\      /  F ield         | OpenFOAM: The Open Source CFD Toolbox
   \\    /   O peration     | Website:  https://openfoam.org
    \\  /    A nd           | Version:  13
     \\/     M anipulation  |
\*---------------------------------------------------------------------------*/
FoamFile
{
    format      ascii;
    class       volScalarField;
    location    "0.54";
    object      p;
}
// * * * * * * * * * * * * * * * * * * * * * * * * * * * * * * * * * * * * * //

dimensions      [0 2 -2 0 0 0 0];

internalField   nonuniform List<scalar> 
440
(
7.83682
10.5933
12.9561
13.1387
10.1643
20.7294
24.1127
27.1082
27.8091
25.9218
41.2669
44.2982
47.0013
47.794
46.6334
67.4001
69.498
71.4114
72.068
71.3807
96.6768
97.4938
98.2908
98.6909
98.6573
-0.431834
-0.531047
-0.0591556
0.500693
0.842197
-1.68005
-2.34255
-2.07859
-1.38099
-0.743072
-2.03128
-2.91087
-2.82888
-2.07079
-0.951876
-0.682496
-0.814244
-0.406812
0.559787
2.42613
3.08898
4.40065
5.83077
7.2637
9.51485
2.1007
2.28384
1.36386
0.698381
0.237497
1.06772
2.08871
1.24175
0.640412
0.223964
-0.0849328
1.67377
1.1054
0.593258
0.214309
-0.390662
1.07092
0.894282
0.550975
0.208525
1.5206
0.485519
0.607797
0.502326
0.205123
4.39369
0.258702
0.337259
0.448806
0.188599
6.73336
0.715766
0.433101
0.444135
0.126045
9.99606
2.45697
1.08507
0.567499
0.0887922
13.8867
4.76421
2.14099
0.835012
0.0887388
16.6234
7.1284
3.46408
1.30547
0.178354
100.701
75.8528
53.3373
33.1629
12.3604
102.397
78.955
57.5498
39.0698
23.496
104.298
82.7149
62.4876
45.247
32.9002
105.181
85.0344
66.5164
51.1976
40.6714
105.099
84.7569
66.3422
51.2651
40.911
219.882
216.404
216.111
218.228
220.961
202.702
200.236
200.496
203.237
206.529
180.554
178.781
179.145
181.568
184.446
154.755
153.412
153.617
155.211
157.107
126.874
126.16
126.1
126.56
127.152
235.579
236.008
236.646
237.07
236.815
236.161
236.797
237.354
237.331
236.378
234.962
235.938
236.355
236.083
235.095
230.077
231.678
232.243
232.381
232.289
221.588
223.452
224.466
225.676
227.031
235.754
234.728
234.906
234.115
234.269
235.724
234.713
234.852
234.074
234.804
235.714
234.675
234.794
234.194
235.331
235.715
234.613
234.792
234.452
234.922
235.718
234.532
234.865
234.652
232.23
235.727
234.395
234.917
234.43
228.734
235.91
234.257
234.805
233.944
226.368
236.804
234.025
234.169
232.255
223.347
240.838
234.008
232.986
229.788
219.669
249.807
234.731
231.768
227.241
216.916
217.772
196.246
175.039
151.746
126.46
207.379
191.383
172.338
150.435
126.665
198.891
186.211
168.628
148.101
126.347
191.755
180.795
165.112
146.274
125.933
191.537
180.776
165.367
146.674
126.163
96.406
95.5291
95.0814
94.3145
94.1579
57.3264
55.3794
53.674
51.7524
50.9865
29.4973
27.154
24.3914
22.0924
20.7681
15.0462
12.6297
10.1643
8.14411
7.17367
9.21726
7.32963
5.94267
4.96709
4.38001
5.98816
4.88596
4.30567
4.21652
4.30469
4.08222
3.62202
3.54884
3.70376
3.85712
2.77821
2.76259
2.99468
3.29721
3.45537
1.67775
1.9814
2.43136
2.78157
2.9263
0.631351
1.02845
1.60022
2.00127
2.175
3.62654
3.19484
2.08352
0.983261
0.287958
3.6803
3.0243
1.99142
0.927831
0.276407
3.48308
2.76451
1.86289
0.875859
0.266296
3.16448
2.52302
1.70139
0.821575
0.256849
2.74761
2.37586
1.52146
0.762683
0.249488
4.49446
3.17946
1.99677
1.02238
0.318461
3.75742
3.27269
2.08616
1.01796
0.301116
94.9135
54.1565
27.5203
14.4975
9.4777
93.6923
51.1472
22.9972
9.48229
5.27221
232.145
232.226
232.176
231.661
230.584
232.734
232.907
233.137
233.176
232.802
233.296
233.468
233.854
234.252
234.423
233.891
234.042
234.445
235.046
235.464
234.63
234.866
235.369
235.98
236.237
141.988
141.796
140.968
140.457
139.546
185.22
184.411
182.433
180.666
178.689
215.518
214.148
211.798
208.984
206.61
229.153
228.145
226.095
223.598
221.153
232
231.386
230.415
229.032
227.133
238.823
234.451
234.555
233.51
232.9
237.123
234.491
234.644
233.681
232.919
236.363
234.579
234.747
233.904
233.249
235.998
234.66
234.849
234.1
233.623
235.826
234.712
234.911
234.174
233.933
252.261
235.788
234.911
233.446
231.985
243.168
234.697
234.492
233.389
232.703
226.939
221.865
208.758
182.043
141.237
231.136
226.894
213.312
185.067
142.46
)
;

boundaryField
{
    left
    {
        type            zeroGradient;
    }
    right
    {
        type            fixedValue;
        value           uniform 0;
    }
    down
    {
        type            zeroGradient;
    }
    up
    {
        type            zeroGradient;
    }
    cylinder
    {
        type            zeroGradient;
    }
    defaultFaces
    {
        type            empty;
    }
}


// ************************************************************************* //
