/*--------------------------------*- C++ -*----------------------------------*\
  =========                 |
  \\      /  F ield         | OpenFOAM: The Open Source CFD Toolbox
   \\    /   O peration     | Website:  https://openfoam.org
    \\  /    A nd           | Version:  13
     \\/     M anipulation  |
\*---------------------------------------------------------------------------*/
FoamFile
{
    format      ascii;
    class       volScalarField;
    location    "0.54";
    object      strainRateViscosityModel:nu;
}
// * * * * * * * * * * * * * * * * * * * * * * * * * * * * * * * * * * * * * //

dimensions      [0 2 -1 0 0 0 0];

internalField   nonuniform List<scalar> 
440
(
9.41957
8.9697
8.54443
8.04233
7.58626
9.68996
9.35816
8.98174
8.48
7.87556
9.80075
9.53084
9.15876
8.58507
7.84825
9.84962
9.61817
9.25861
8.64755
7.86607
9.86917
9.65607
9.30592
8.68095
7.90879
1.30184
1.79048
2.05038
2.30083
2.36479
3.38154
3.30305
3.31919
3.42854
3.49932
5.89167
5.27184
4.92956
4.73077
4.76079
7.76973
6.99347
6.42068
5.90585
5.82866
8.82076
8.15131
7.55201
6.91838
6.87204
1.85223
0.844049
0.40434
0.132066
0.0781865
2.62025
0.914316
0.353808
0.0866567
0.015293
3.51628
1.15771
0.298616
0.0512882
0.0109379
4.09384
1.44557
0.276781
0.0342523
0.0120003
4.60547
1.76283
0.327794
0.0129597
0.0499806
4.23078
1.74556
0.282895
0.0425848
0.24951
3.7098
1.82092
0.606251
0.321689
0.435932
4.91827
3.2088
1.2291
0.561251
0.577429
7.00948
4.29034
1.91112
0.90894
0.720578
8.27285
5.07824
2.49525
1.31873
0.902744
2.84841
3.68286
4.62017
5.50626
6.14978
3.68371
3.69644
3.77188
3.85174
3.36756
8.22657
8.0866
7.79933
7.38533
6.34605
9.05292
8.99239
8.85906
8.62153
8.1602
9.60671
9.56995
9.48702
9.33805
9.1188
7.50345
8.01245
8.55938
9.01087
9.46424
7.79402
8.45159
8.98708
9.37786
9.70865
7.77897
8.55901
9.1594
9.54077
9.80944
7.81626
8.62755
9.25739
9.62275
9.85359
7.89134
8.67366
9.30535
9.65743
9.87034
2.5228
2.46397
2.26435
2.11041
2.03835
3.47727
3.4289
3.46824
3.68653
4.23529
4.63887
4.6613
5.04975
5.59745
6.44705
5.68678
5.82811
6.49833
7.18786
8.04044
6.75452
6.84259
7.58068
8.24283
8.93547
0.195323
0.0546204
0.265114
0.848454
2.01644
0.160782
0.0706678
0.212224
0.873244
2.65827
0.138428
0.0785527
0.165487
1.0799
3.44562
0.128186
0.072502
0.163486
1.39386
3.94845
0.138165
0.0827297
0.261528
1.74318
4.36952
0.19615
0.120439
0.268642
1.87349
4.10469
0.327189
0.139414
0.256676
1.7966
3.85901
0.65521
0.275321
0.780151
3.03411
4.90633
2.27084
0.828483
1.51305
4.16171
6.96074
5.05473
2.54781
2.42801
5.03956
8.27903
5.94851
5.26727
4.4031
3.51084
2.78003
3.52134
3.99015
3.97028
3.87598
3.76355
6.32073
7.35233
7.77914
8.06781
8.21857
8.12135
8.60002
8.8495
8.98865
9.05205
9.11691
9.33779
9.4874
9.5705
9.60696
9.31079
7.91672
1.39859
3.63003
7.73665
9.08176
7.44063
3.20584
1.64065
6.78888
8.39854
6.57751
4.20833
1.00348
4.14757
6.81542
5.09454
3.45515
1.70045
1.0387
4.50355
3.14524
2.03877
1.37775
0.459824
2.59682
1.6187
1.00234
0.79649
0.92613
1.45538
0.778793
0.578946
0.611894
0.684768
0.801339
0.404603
0.588178
0.756861
0.830233
0.306111
0.504319
0.882323
1.04737
1.10889
0.160348
0.933717
1.27902
1.51477
1.56899
0.190326
0.360795
0.70311
0.771414
0.737433
0.395006
0.497515
0.571427
0.627799
0.618294
0.611781
0.642535
0.456288
0.479879
0.493477
0.962352
0.789282
0.407293
0.335358
0.36039
1.32807
0.839499
0.410489
0.209765
0.2354
1.10536
0.856634
1.11757
1.10789
1.01722
0.284119
0.47061
0.859582
0.917053
0.859091
9.19108
8.83854
7.75862
5.72994
3.5594
8.58717
7.72274
5.85139
3.49139
0.866166
0.965279
0.859391
1.02755
1.62017
2.65804
0.814928
0.769216
0.705537
0.825056
1.52528
1.05988
1.01115
0.848059
0.55357
0.740955
1.37995
1.3428
1.14508
0.794674
0.226227
1.84632
1.79971
1.54839
1.23186
0.595807
7.73618
3.62694
1.3999
7.91495
9.31094
6.78504
1.64038
3.20257
7.43753
9.08239
4.13388
1.01087
4.19424
6.57288
8.40009
1.0364
1.70581
3.43345
5.08532
6.82187
0.476514
1.37668
2.01469
3.12722
4.52638
1.30845
0.551613
0.55188
0.45569
0.176762
0.67299
0.301389
0.466934
0.521489
0.487836
0.392042
0.173058
0.37717
0.621187
0.804882
0.28404
0.0729268
0.336442
0.767687
1.21931
0.238548
0.0388685
0.310421
0.84295
1.57843
5.48028
2.46302
1.04023
0.967497
1.14203
2.88582
1.09254
0.727433
0.559401
0.251175
3.56836
5.73565
7.7598
8.83906
9.19123
0.842826
3.47162
5.84471
7.72136
8.58701
)
;

boundaryField
{
    left
    {
        type            calculated;
        value           nonuniform List<scalar> 
17
(
0.444095
1.10848
2.17954
3.91043
6.58
0.297121
0.183906
0.136019
0.140377
0.206855
2.95794
2.05799
1.32715
0.805591
0.490336
6.97848
4.57939
)
;
    }
    right
    {
        type            calculated;
        value           nonuniform List<scalar> 
17
(
1.01754
0.860535
0.739373
0.620782
0.495274
0.359259
0.228749
0.0700442
0.013256
0.010625
0.0131422
0.0687492
0.30733
0.493579
0.615468
0.736067
0.89431
)
;
    }
    down
    {
        type            calculated;
        value           nonuniform List<scalar> 
20
(
5.99425
3.00094
1.14959
1.05012
1.8528
4.27031
6.38366
8.13126
9.0157
9.30919
9.30902
9.01506
8.12978
6.37957
4.26386
1.83141
0.931406
1.18408
1.1651
1.06529
)
;
    }
    up
    {
        type            calculated;
        value           nonuniform List<scalar> 
20
(
8.54861
5.40605
2.72456
1.46578
0.966877
9.69562
9.66615
9.59857
9.4742
9.29339
9.29635
9.47644
9.60017
9.66725
9.69603
5.70286
3.15513
2.66782
5.39518
8.56537
)
;
    }
    cylinder
    {
        type            calculated;
        value           nonuniform List<scalar> 
40
(
1.36543
3.58588
6.11818
7.96061
8.95719
9.50516
9.74577
9.84079
9.88145
9.89746
9.54751
9.76285
9.84855
9.88496
9.89849
2.2756
4.51205
6.69371
8.23349
9.06999
3.04372
1.84941
1.09009
0.44068
0.604079
9.51899
9.33181
8.74217
7.26951
4.98594
9.51882
9.33107
8.74013
7.2613
4.95732
2.96532
1.73199
1.07301
0.668888
0.104709
)
;
    }
    defaultFaces
    {
        type            empty;
    }
}


// ************************************************************************* //
