# Selection   : all
# Cells       : 440
# Volume      : 7.374263e+01
# Time        	minMag(U)
6.815         	1.340553e-02
6.86          	1.165952e-02
6.91          	9.705549e-03
