# Selection   : all
# Cells       : 440
# Volume      : 7.374263e+01
# Time        	maxMag(U)
8.515         	2.775486e+00
8.56          	2.775639e+00
8.61          	2.775833e+00
