# Selection   : all
# Cells       : 440
# Volume      : 7.374263e+01
# Time        	minMag(U)
8.215         	7.099789e-03
8.26          	6.359135e-03
8.31          	5.561130e-03
