/*--------------------------------*- C++ -*----------------------------------*\
  =========                 |
  \\      /  F ield         | OpenFOAM: The Open Source CFD Toolbox
   \\    /   O peration     | Website:  https://openfoam.org
    \\  /    A nd           | Version:  13
     \\/     M anipulation  |
\*---------------------------------------------------------------------------*/
FoamFile
{
    format      ascii;
    class       volScalarField;
    location    "0.71";
    object      strainRateViscosityModel:nu;
}
// * * * * * * * * * * * * * * * * * * * * * * * * * * * * * * * * * * * * * //

dimensions      [0 2 -1 0 0 0 0];

internalField   nonuniform List<scalar> 
1800
(
9.40488
9.1976
9.01006
8.80095
8.57615
8.34414
8.11547
7.89817
7.62422
7.37926
9.58523
9.41878
9.2669
9.09733
8.91117
8.71143
8.50356
8.28867
8.0273
7.70209
9.70219
9.56269
9.42803
9.27096
9.08868
8.87899
8.64091
8.36903
8.03058
7.61062
9.77539
9.65614
9.53324
9.38287
9.20049
8.98172
8.7228
8.41596
8.02878
7.55457
9.82168
9.7183
9.60558
9.46167
9.28071
9.05696
8.78549
8.45888
8.04775
7.55615
9.85185
9.76081
9.6573
9.52059
9.34355
9.11896
8.84034
8.50016
8.07152
7.5702
9.87179
9.78991
9.69398
9.56396
9.39147
9.16769
8.8842
8.53252
8.08735
7.57567
9.88475
9.80924
9.71888
9.59394
9.42494
9.20146
8.91309
8.55005
8.08853
7.56355
9.8926
9.82107
9.73416
9.6122
9.44467
9.21963
8.92483
8.54923
8.07121
7.52871
9.89646
9.82686
9.74153
9.6207
9.45309
9.22573
8.92512
8.53953
8.05038
7.49285
1.7957
1.40531
1.2105
1.32095
1.73039
2.25078
2.49603
2.44913
2.35956
2.33584
3.7244
1.782
1.49256
1.98131
2.6946
2.97196
2.8179
2.67276
2.68866
2.74181
4.69906
2.5708
2.43632
3.17603
3.59567
3.34674
3.08289
3.11944
3.25907
3.33951
5.26742
3.88237
3.81541
4.213
4.18038
3.83007
3.72212
3.85564
3.95802
4.00705
6.05519
5.27546
5.11789
5.12111
4.91493
4.65365
4.57847
4.6126
4.613
4.65279
6.95966
6.45996
6.22681
6.03817
5.78824
5.54546
5.38934
5.29357
5.22255
5.27518
7.77168
7.37774
7.11678
6.86025
6.58737
6.32053
6.08729
5.90105
5.77042
5.82402
8.40012
8.05531
7.792
7.51575
7.22647
6.93118
6.64218
6.38635
6.19237
6.22941
8.84935
8.54538
8.29099
8.01029
7.70568
7.37945
7.03561
6.70113
6.41579
6.42183
9.16164
8.90154
8.66632
8.39666
8.0957
7.76574
7.40644
7.03565
6.70856
6.75246
2.19363
1.72945
1.3321
0.937101
0.619549
0.348652
0.180531
0.129474
0.143205
0.21333
2.52817
1.84885
1.40753
0.93292
0.593877
0.332868
0.168317
0.0923209
0.0882416
0.153601
2.94884
1.97813
1.48016
0.930755
0.558798
0.30617
0.155322
0.0742354
0.0481064
0.0913165
3.44129
2.1481
1.5516
0.933974
0.520003
0.272287
0.13823
0.0606345
0.042204
0.0322879
3.98349
2.38611
1.62905
0.943125
0.481518
0.234495
0.117786
0.0488316
0.0425864
0.0179575
4.52893
2.6972
1.72532
0.959526
0.446421
0.195117
0.0950829
0.0394832
0.0383365
0.0221481
4.99731
3.0569
1.84722
0.982288
0.415048
0.155672
0.0711691
0.0323753
0.028301
0.0566992
5.3131
3.43988
2.01433
1.02511
0.394025
0.119554
0.0470398
0.0256451
0.0245524
0.129625
5.34358
3.72327
2.16391
1.05703
0.371086
0.0861949
0.029138
0.0165319
0.0749883
0.196111
5.2023
3.98942
2.39948
1.16077
0.387836
0.0696193
0.0112385
0.0379105
0.131362
0.257252
4.94469
3.94291
2.45639
1.17444
0.362434
0.0515036
0.021862
0.106453
0.19536
0.326992
5.33075
3.34815
2.13996
0.997906
0.357242
0.13517
0.115223
0.174761
0.275608
0.405058
4.90492
3.04544
2.24722
1.20371
0.588579
0.291266
0.198736
0.246128
0.342187
0.466338
4.5465
3.63146
2.6808
1.63955
0.891102
0.493322
0.334122
0.334104
0.411384
0.518199
5.11401
4.74747
3.34245
2.16381
1.23738
0.728415
0.492081
0.436645
0.481519
0.560369
6.25441
5.66948
4.05711
2.67382
1.59843
0.980974
0.670444
0.553593
0.555882
0.59595
7.26269
6.37372
4.71377
3.15474
1.95744
1.24042
0.857127
0.679019
0.63297
0.626568
8.00011
6.91205
5.25992
3.58916
2.30026
1.50088
1.04903
0.810407
0.713397
0.654963
8.51876
7.33074
5.6974
3.97022
2.62059
1.75414
1.23654
0.938399
0.790432
0.679432
8.931
7.6912
6.0498
4.28317
2.92529
2.02469
1.44834
1.08733
0.885457
0.71258
6.51282
6.43966
6.43043
6.44875
6.48735
6.52995
6.582
6.71055
6.89524
6.8263
0.260676
1.05713
2.00772
2.92278
3.70372
4.31635
4.73311
4.98265
5.22174
5.72791
3.85078
3.54388
3.28463
3.11138
3.10644
3.25006
3.4723
3.71346
4.16502
4.84491
6.64418
6.62724
6.53713
6.34469
6.04327
5.65784
5.24955
4.89598
4.73936
4.54928
7.69185
7.67654
7.63212
7.54129
7.39614
7.18986
6.92708
6.6195
6.28596
5.65634
8.44951
8.43312
8.39435
8.32772
8.22958
8.09672
7.92837
7.71684
7.42792
6.90783
8.93968
8.92394
8.89029
8.83679
8.76166
8.6629
8.53816
8.37893
8.15468
7.80862
9.27298
9.25981
9.23246
9.18985
9.13052
9.05245
8.95269
8.82481
8.65282
8.43091
9.50446
9.49417
9.47307
9.44024
9.39426
9.33319
9.25424
9.15286
9.02289
8.87534
9.6899
9.68285
9.66852
9.64604
9.61405
9.5707
9.51361
9.43975
9.34638
9.2441
7.24813
7.52623
7.83694
8.08766
8.34479
8.5996
8.84137
9.06157
9.25458
9.46025
7.58315
7.94807
8.24096
8.48111
8.70934
8.9248
9.1223
9.299
9.45391
9.61806
7.49852
7.95738
8.32595
8.62049
8.87574
9.09773
9.28805
9.44951
9.58536
9.72226
7.4469
7.95761
8.37376
8.70199
8.97658
9.20596
9.39471
9.54806
9.67131
9.78824
7.45634
7.98066
8.4186
8.76489
9.05054
9.28356
9.46977
9.61591
9.72868
9.83022
7.48242
8.01168
8.46401
8.82146
9.11234
9.34474
9.52606
9.66446
9.76796
9.85764
7.50364
8.03786
8.50277
8.86862
9.16197
9.39189
9.56763
9.6989
9.79479
9.8757
7.51114
8.05246
8.52871
8.90209
9.19746
9.42521
9.5964
9.72212
9.81243
9.88729
7.49836
8.05045
8.53742
8.91898
9.21768
9.44503
9.61371
9.73606
9.82289
9.89404
7.48288
8.04358
8.53593
8.92344
9.22525
9.4533
9.62123
9.74216
9.82746
9.89693
2.55747
2.51409
2.53213
2.74356
2.92828
2.55505
1.69948
1.1822
1.52311
4.196
2.96474
2.87645
2.71686
2.71485
3.10441
3.43163
2.8225
1.90737
2.12536
5.13555
3.45283
3.40929
3.25138
3.06504
3.26521
3.82395
3.80364
3.16151
3.28896
5.45572
3.94452
3.93368
3.90718
3.7979
3.89069
4.3181
4.58939
4.46779
4.66062
5.91306
4.49757
4.47009
4.54539
4.6169
4.78065
5.1141
5.43835
5.61892
5.89638
6.63115
5.10109
5.05856
5.19812
5.39642
5.65717
5.98052
6.30864
6.59534
6.90072
7.40644
5.65354
5.61728
5.81809
6.09058
6.40778
6.74088
7.06852
7.37808
7.67866
8.08648
6.06664
6.05206
6.3151
6.64231
6.99497
7.33977
7.66725
7.97415
8.25892
8.61104
6.26031
6.27923
6.63098
7.02589
7.4201
7.78438
8.11669
8.41667
8.68282
8.98796
6.60009
6.56993
6.95601
7.37948
7.78131
8.14309
8.46651
8.75043
8.993
9.25187
0.111543
0.155597
0.120971
0.0613939
0.015095
0.390598
0.927611
1.48162
1.94935
2.43184
0.0779133
0.140828
0.116612
0.0629549
0.0148608
0.381914
0.931944
1.54516
2.02904
2.69857
0.0560937
0.132452
0.114801
0.0661715
0.0235689
0.382058
0.939146
1.59607
2.10047
3.00953
0.0430473
0.130362
0.116752
0.0738184
0.041606
0.390545
0.94665
1.63417
2.20465
3.39655
0.0366418
0.133517
0.121036
0.0837705
0.064796
0.401252
0.951339
1.67054
2.38289
3.86684
0.0358239
0.140777
0.125951
0.0932725
0.0888789
0.410476
0.956887
1.72834
2.64945
4.36396
0.0407725
0.15212
0.130173
0.100153
0.109078
0.415528
0.968288
1.82407
2.98124
4.79462
0.0522584
0.168221
0.133338
0.104539
0.124877
0.425131
1.00953
1.98298
3.34789
5.0792
0.0722002
0.189026
0.135533
0.102705
0.128308
0.425589
1.04652
2.13405
3.62624
5.08231
0.103254
0.211415
0.138333
0.104209
0.143855
0.472525
1.18294
2.39217
3.87606
4.89089
0.160286
0.239537
0.14413
0.101436
0.132667
0.474331
1.24695
2.50498
3.8853
4.6733
0.263583
0.270395
0.133671
0.0767251
0.0706428
0.381758
1.11932
2.30294
3.43024
5.19253
0.428481
0.269094
0.101349
0.0149905
0.0149174
0.339584
1.14663
2.34962
3.2557
4.93814
0.68168
0.254299
0.0226063
0.0806874
0.103623
0.535388
1.4298
2.62267
3.71419
4.69791
1.06523
0.0476418
0.261379
0.238286
0.317558
0.889482
1.93286
3.20548
4.70649
5.17713
1.5147
0.121564
0.53678
0.41881
0.599439
1.30755
2.47381
3.9168
5.59856
6.22325
2.19493
0.683896
0.854263
0.691749
0.945337
1.73848
2.99235
4.59343
6.30244
7.21636
3.79218
1.70621
1.27368
1.03911
1.32107
2.15097
3.4616
5.16518
6.85412
7.96879
6.86014
3.57582
1.96276
1.42348
1.68209
2.52502
3.87394
5.63129
7.29518
8.50725
9.04906
6.38372
2.84295
2.00351
2.11824
2.89808
4.22459
6.01926
7.68652
8.93809
6.62467
6.68767
6.51093
6.38914
6.34876
6.32256
6.30557
6.31734
6.36196
6.47626
5.52854
5.00968
4.76587
4.52478
4.12661
3.54064
2.7987
1.93218
1.04472
0.284244
4.8499
4.23683
3.8273
3.61672
3.4299
3.31041
3.31531
3.45759
3.65535
3.87431
4.71212
4.88559
5.02814
5.33773
5.70199
6.05232
6.33392
6.52141
6.61656
6.6416
5.68768
6.28578
6.61227
6.91133
7.17237
7.38148
7.53182
7.62815
7.67671
7.6924
6.86585
7.3886
7.68444
7.90233
8.0766
8.21485
8.31781
8.38856
8.43055
8.44889
7.76512
8.1205
8.35198
8.51791
8.64797
8.75099
8.82956
8.88582
8.92164
8.93899
8.40455
8.63268
8.80888
8.94093
9.04401
9.12466
9.18596
9.23006
9.25854
9.2726
8.86615
9.01619
9.14761
9.25059
9.33082
9.39283
9.43944
9.47267
9.494
9.50442
9.24868
9.35044
9.44301
9.5163
9.57294
9.61588
9.64748
9.66956
9.68348
9.69012
9.50946
8.98533
8.23588
6.92824
5.59793
0.131166
3.36079
5.96036
7.21408
8.15186
9.46541
8.92155
8.16812
6.89057
5.54935
0.563763
2.62218
5.70599
6.91642
7.91395
9.36568
8.78281
8.02027
6.8096
5.36633
1.60347
1.41355
5.20661
6.30934
7.4033
9.18254
8.54512
7.77448
6.65511
5.18643
2.74001
0.72309
4.23836
5.42156
6.57147
8.86811
8.17358
7.404
6.37693
5.02651
3.36801
0.97095
2.63161
4.31694
5.3938
8.35051
7.62971
6.8734
5.91727
4.7651
3.44003
1.71923
1.30193
3.04929
3.98814
7.53603
6.89658
6.15553
5.22756
4.29966
3.26955
2.14308
1.17249
1.65628
2.55746
6.32537
6.03755
5.28132
4.23189
3.53347
2.91263
2.11843
1.43515
1.06854
1.23544
4.63169
5.23223
4.47433
2.99959
2.43714
2.27452
1.85601
1.38478
1.12262
0.659133
2.67276
4.53952
4.02162
1.96675
1.39681
1.48838
1.4099
1.21164
1.06394
0.845099
1.27671
3.78886
3.66661
1.33731
0.81621
0.897607
0.970984
0.956138
0.9716
1.01972
0.613453
2.96956
3.08207
0.956623
0.5753
0.639816
0.759186
0.819759
0.843782
0.876789
0.35535
2.18927
2.2852
0.688191
0.492436
0.594986
0.726024
0.810407
0.848234
0.873031
0.265305
1.55048
1.48899
0.521303
0.53411
0.673682
0.787192
0.858242
0.881692
0.891974
0.239656
1.01902
0.845362
0.513676
0.669026
0.802662
0.903888
0.967407
0.983147
0.980076
0.242902
0.493538
0.499651
0.635815
0.816836
0.954323
1.05211
1.10982
1.12038
1.11223
0.177418
0.20402
0.507736
0.755657
0.974168
1.11996
1.20972
1.25679
1.27358
1.27417
0.0453403
0.251484
0.649033
0.922271
1.13567
1.25318
1.32932
1.39907
1.45552
1.47727
0.0606543
0.492221
0.822022
1.0959
1.22986
1.33863
1.48888
1.64723
1.73436
1.74991
0.694687
0.864628
1.04063
1.18416
1.32374
1.59706
1.90947
2.07914
2.08112
2.04823
0.36301
0.080386
0.223554
0.550045
0.79356
0.890153
0.884654
0.833784
0.783026
0.754944
0.461972
0.202017
0.318757
0.520805
0.722971
0.80963
0.806234
0.762374
0.718479
0.704522
0.525522
0.371747
0.439493
0.513035
0.65266
0.729843
0.729547
0.691777
0.654066
0.653325
0.638503
0.587256
0.594807
0.554815
0.586702
0.64299
0.647786
0.618745
0.588884
0.601421
0.805454
0.802788
0.741227
0.637292
0.54157
0.556062
0.564111
0.544859
0.523495
0.548806
1.00892
0.998693
0.874512
0.736675
0.530471
0.474673
0.479008
0.470095
0.457995
0.495456
1.22698
1.17032
0.989484
0.824799
0.552354
0.408872
0.395281
0.395252
0.392728
0.441271
1.45179
1.32464
1.08843
0.887485
0.589068
0.368254
0.317182
0.321373
0.327989
0.386155
1.68451
1.46837
1.17509
0.922913
0.618902
0.353722
0.251245
0.250156
0.264321
0.329861
1.92619
1.60365
1.25494
0.936656
0.629493
0.352749
0.204933
0.184633
0.202132
0.272497
2.0091
0.747354
0.717137
0.964423
1.19612
1.28194
1.25567
1.17788
1.10731
1.01487
1.39443
0.482879
0.578682
0.873813
1.10812
1.19593
1.17456
1.103
1.03549
0.956141
0.751637
0.287934
0.480862
0.796921
1.03395
1.12407
1.10696
1.04035
0.97639
0.908429
0.253452
0.17027
0.405295
0.725261
0.95901
1.04799
1.03359
0.971894
0.911991
0.85693
0.43588
0.0327182
0.267078
0.612503
0.863208
0.963971
0.958083
0.90303
0.847667
0.805759
9.35464
9.29005
9.14099
8.8731
8.43755
7.77889
6.87135
5.75931
4.58198
3.53708
9.19248
9.09565
8.8811
8.51165
7.94151
7.13646
6.10964
4.95509
3.84476
2.78681
9.02388
8.90026
8.62661
8.16104
7.46175
6.51614
5.37142
4.16863
3.08127
1.94239
8.81632
8.6622
8.3215
7.74792
6.90616
5.81424
4.55498
3.29481
2.22586
1.09004
8.58749
8.37939
7.92583
7.17745
6.11251
4.79209
3.35065
2.08516
0.993983
0.302025
1.06034
1.02455
1.0164
1.01993
0.9153
0.799735
1.29346
3.68318
3.85962
1.32304
0.949308
0.933886
0.926316
0.870884
0.718956
0.588642
0.910939
3.14165
3.10964
0.647438
0.986059
0.982531
0.965668
0.892883
0.747461
0.584537
0.698423
2.37221
2.34622
0.377448
1.0534
1.06528
1.06111
1.00129
0.889886
0.740717
0.655747
1.557
1.63397
0.277271
1.18587
1.20999
1.21567
1.16796
1.07685
0.95176
0.789116
0.909579
0.918993
0.246167
1.35078
1.3707
1.37896
1.3538
1.2839
1.15064
0.92932
0.669555
0.358043
0.216711
1.55484
1.55078
1.51843
1.47607
1.42512
1.31863
1.07856
0.753513
0.272374
0.0663846
1.82244
1.81598
1.73342
1.58066
1.44086
1.34415
1.20904
0.900666
0.493885
0.0467743
2.10251
2.14966
2.14786
1.95398
1.61085
1.32198
1.18632
1.05583
0.855343
0.675271
2.31093
2.35778
2.48217
2.53381
2.23132
1.63064
1.18165
1.06609
1.30336
2.0389
8.15167
7.21372
5.96
3.36029
0.131422
5.59647
6.92775
8.23568
8.98535
9.50956
7.91327
6.91531
5.70499
2.62158
0.563633
5.5455
6.88912
8.16753
8.9216
9.46572
7.40184
6.30745
5.20482
1.41544
1.59974
5.36184
6.80733
8.01939
8.78294
9.36626
6.56883
5.41866
4.23619
0.726259
2.73171
5.1817
6.65226
7.77351
8.54545
9.18357
5.38941
4.31245
2.63261
0.971031
3.35667
5.02055
6.37348
7.40307
8.17432
8.86986
3.97979
3.04142
1.31014
1.71325
3.42677
4.75622
5.91247
6.87252
7.63119
8.35349
2.54101
1.65341
1.1872
2.13291
3.25088
4.28299
5.21882
6.15462
6.89948
7.54136
1.21748
1.08764
1.45179
2.1073
2.88047
3.50305
4.21748
5.28204
6.04352
6.33606
0.671592
1.15297
1.40716
1.84239
2.23204
2.40025
2.98384
4.47933
5.2435
4.65559
0.884933
1.10249
1.2472
1.41276
1.46385
1.36903
1.9433
4.0264
4.56506
2.71667
2.08988
0.543244
1.061
0.629941
0.662018
0.75881
0.632581
0.300185
0.0621373
0.356541
1.63005
0.2368
0.869737
0.479769
0.568027
0.681521
0.593524
0.356764
0.266
0.48856
1.33406
0.0582554
0.641567
0.341553
0.479398
0.602122
0.562197
0.459524
0.473288
0.591138
1.09779
0.0147403
0.393523
0.233116
0.394609
0.518445
0.562354
0.626017
0.732554
0.758318
0.847692
0.089474
0.1895
0.159641
0.316722
0.441855
0.608703
0.804888
0.974416
0.977297
0.635478
0.154288
0.0530568
0.102541
0.244725
0.386045
0.694162
0.974461
1.19329
1.22427
0.463213
0.209661
0.0495554
0.0536675
0.180917
0.364723
0.787556
1.11772
1.38497
1.47997
0.330816
0.210908
0.107338
0.0107151
0.12257
0.373164
0.860749
1.23388
1.55618
1.73439
0.232204
0.196744
0.121157
0.0355955
0.0641851
0.389533
0.903436
1.32843
1.70959
1.97516
0.161204
0.175181
0.125968
0.0555992
0.0281868
0.39658
0.921753
1.40933
1.8426
2.19861
9.33657
6.77031
2.66518
1.69987
1.20257
1.12137
0.965595
0.782199
0.796649
2.03319
8.21092
4.63641
2.21519
1.41793
1.07006
1.03641
0.891851
0.651461
0.528172
1.39866
6.12014
3.0639
1.78545
1.21065
0.965208
0.971989
0.83272
0.561603
0.328976
0.741023
4.13312
1.87583
1.49749
1.0042
0.859233
0.904706
0.776207
0.487945
0.22883
0.225021
2.83548
1.06121
1.24628
0.803642
0.756157
0.826971
0.686243
0.356453
0.0444341
0.398069
3.54771
4.58914
5.76322
6.87352
7.78043
8.43869
8.87387
9.14147
9.29032
9.35473
2.78092
3.84104
4.95233
6.10786
7.13585
7.94152
8.51187
8.88133
9.09582
9.19254
1.9284
3.07188
4.16215
5.36667
6.51359
7.46061
8.16062
8.62653
8.90029
9.0239
1.05551
2.20305
3.28158
4.54674
5.81003
6.90394
7.7468
8.32103
8.66205
8.81629
0.300475
0.962576
2.0639
3.33746
4.78513
6.10892
7.17546
7.92488
8.37901
8.5874
)
;

boundaryField
{
    left
    {
        type            calculated;
        value           nonuniform List<scalar> 
35
(
0.298395
0.567604
0.987714
1.62612
2.52434
3.69547
5.06612
6.47612
8.15852
9.4418
0.211411
0.131373
0.0792803
0.0480989
0.0321251
0.0271458
0.0323494
0.0515523
0.0916359
0.15985
4.9334
4.06158
3.23474
2.51292
1.91711
1.42712
1.03061
0.724129
0.495202
0.328762
9.61573
8.97908
7.92206
6.84779
5.85941
)
;
    }
    right
    {
        type            calculated;
        value           nonuniform List<scalar> 
35
(
1.01443
0.955992
0.908719
0.858184
0.808285
0.759107
0.710401
0.660776
0.610315
0.558991
0.506688
0.453166
0.398148
0.341178
0.282162
0.220239
0.156639
0.0892388
0.0281118
0.0150449
0.0198465
0.058348
0.142414
0.217047
0.282579
0.355127
0.43402
0.494322
0.543367
0.580984
0.610892
0.635662
0.659139
0.680445
0.710608
)
;
    }
    down
    {
        type            calculated;
        value           nonuniform List<scalar> 
40
(
9.45431
7.26631
2.89609
1.78902
1.24326
1.14978
0.991133
0.823765
0.897737
2.26041
3.83288
4.88243
6.03393
7.09285
7.94459
8.55501
8.95446
9.19924
9.33564
9.39487
9.39478
9.33536
9.19872
8.95359
8.55367
7.94265
7.08993
6.02875
4.87317
3.81886
2.23222
0.847452
0.76101
0.996344
1.2278
1.31148
1.28255
1.20204
1.13041
1.03381
)
;
    }
    up
    {
        type            calculated;
        value           nonuniform List<scalar> 
40
(
9.0341
7.80883
6.16766
4.39492
3.03346
2.11954
1.52099
1.13639
0.91659
0.724299
9.72927
9.72305
9.71045
9.69064
9.66234
9.62377
9.57263
9.50586
9.42076
9.32814
9.33505
9.42655
9.51039
9.57623
9.62665
9.66461
9.69238
9.71169
9.72379
9.72952
9.27074
7.09624
3.23898
2.15517
2.23744
3.01769
4.34679
6.1489
7.81369
9.04495
)
;
    }
    cylinder
    {
        type            calculated;
        value           nonuniform List<scalar> 
80
(
1.99462
4.56321
5.53348
5.77651
6.30383
7.09023
7.86173
8.47476
8.91246
9.21291
9.44581
9.61872
9.72982
9.7983
9.84096
9.86846
9.8865
9.89817
9.90522
9.90869
9.5004
9.65061
9.74903
9.81046
9.849
9.87389
9.89016
9.90054
9.90657
9.90913
5.32244
6.23243
6.21072
6.31505
6.83395
7.52637
8.1761
8.68597
9.05066
9.30251
0.994402
0.471621
0.264234
0.183237
0.159605
0.165597
0.0828579
0.0422449
0.749682
2.42715
9.59445
9.55588
9.46744
9.30186
9.00978
8.51135
7.68625
6.36658
4.38732
2.23893
9.59435
9.55556
9.46683
9.30078
9.00791
8.50818
7.68051
6.35448
4.35813
2.19128
0.952765
0.442238
0.244315
0.170823
0.150273
0.165467
0.161212
0.0840996
0.0433571
0.734219
)
;
    }
    defaultFaces
    {
        type            empty;
    }
}


// ************************************************************************* //
