/*--------------------------------*- C++ -*----------------------------------*\
  =========                 |
  \\      /  F ield         | OpenFOAM: The Open Source CFD Toolbox
   \\    /   O peration     | Website:  https://openfoam.org
    \\  /    A nd           | Version:  13
     \\/     M anipulation  |
\*---------------------------------------------------------------------------*/
FoamFile
{
    format      ascii;
    class       volVectorField;
    location    "0.71";
    object      U;
}
// * * * * * * * * * * * * * * * * * * * * * * * * * * * * * * * * * * * * * //

dimensions      [0 1 -1 0 0 0 0];

internalField   nonuniform List<vector> 
1800
(
(0.0978009 -0.0883287 -4.48943e-20)
(0.286896 -0.241951 -3.41191e-20)
(0.473973 -0.379045 -4.85022e-19)
(0.657692 -0.500158 1.91469e-19)
(0.836611 -0.607172 7.43822e-20)
(1.00991 -0.701378 -3.90569e-20)
(1.17715 -0.78347 5.54979e-20)
(1.33794 -0.853681 1.97385e-19)
(1.49159 -0.912963 5.92251e-19)
(1.63353 -0.9669 8.10051e-19)
(0.119061 -0.0915027 -7.91139e-20)
(0.344291 -0.247709 -7.70613e-19)
(0.563282 -0.38475 3.78147e-21)
(0.775364 -0.504236 1.25759e-19)
(0.979505 -0.608922 -1.26263e-19)
(1.17521 -0.700696 7.6582e-20)
(1.36231 -0.780789 -2.80808e-19)
(1.54078 -0.850099 -5.02696e-20)
(1.7101 -0.910705 -6.93495e-19)
(1.86785 -0.967044 6.29771e-19)
(0.141651 -0.092323 4.88227e-20)
(0.40368 -0.247731 2.09288e-19)
(0.653755 -0.382117 5.43321e-19)
(0.892178 -0.497905 -1.90262e-19)
(1.11866 -0.598385 -1.42994e-19)
(1.33321 -0.685813 7.56105e-20)
(1.53605 -0.761706 9.82546e-20)
(1.72743 -0.827297 1.94064e-19)
(1.90721 -0.884801 2.73621e-21)
(2.07421 -0.937868 1.50983e-19)
(0.163906 -0.0897208 -4.5719e-20)
(0.461698 -0.23947 -2.04391e-19)
(0.741428 -0.367618 -1.81259e-19)
(1.00451 -0.476977 -1.42297e-19)
(1.25162 -0.571022 1.81309e-19)
(1.48351 -0.652127 -5.70903e-20)
(1.70093 -0.721906 -4.31051e-21)
(1.90453 -0.781622 2.92391e-21)
(2.09455 -0.833365 -1.60462e-19)
(2.27025 -0.880355 -1.05939e-19)
(0.184658 -0.0833564 -1.14039e-19)
(0.515893 -0.221807 8.76369e-20)
(0.823292 -0.339431 1.7984e-19)
(1.10931 -0.439063 2.43305e-19)
(1.37561 -0.524071 -2.85021e-19)
(1.62371 -0.596777 -3.58075e-21)
(1.85494 -0.658767 4.24976e-19)
(2.07042 -0.711262 -1.85055e-19)
(2.27083 -0.756163 -1.23988e-19)
(2.45578 -0.796396 -5.35539e-20)
(0.20319 -0.0735 1.73591e-19)
(0.56447 -0.1952 1.02985e-18)
(0.896791 -0.298074 1.43255e-19)
(1.20351 -0.384735 -5.0314e-19)
(1.48719 -0.458227 -1.75502e-19)
(1.75003 -0.520669 6.37688e-19)
(1.9939 -0.573525 -1.45377e-19)
(2.22036 -0.6179 -4.31585e-19)
(2.43047 -0.655444 -3.16656e-19)
(2.6242 -0.688742 2.6159e-19)
(0.218898 -0.0605913 1.1634e-19)
(0.605745 -0.160701 -7.47591e-19)
(0.959313 -0.24503 -1.0856e-18)
(1.28371 -0.315798 3.83785e-19)
(1.58223 -0.375564 4.49942e-19)
(1.85767 -0.426128 -9.02056e-22)
(2.11239 -0.46874 -6.3968e-19)
(2.34829 -0.504325 2.19314e-19)
(2.56683 -0.534213 -3.64484e-19)
(2.76827 -0.56057 -3.11216e-19)
(0.231235 -0.0451722 -3.42486e-19)
(0.638199 -0.119684 -6.92603e-19)
(1.00849 -0.182294 1.21221e-18)
(1.34677 -0.2347 5.98701e-19)
(1.65693 -0.278852 -2.69757e-19)
(1.94224 -0.316136 -2.11496e-19)
(2.20543 -0.347515 0)
(2.44874 -0.373689 1.16805e-19)
(2.67398 -0.395622 -2.95841e-19)
(2.88171 -0.41497 -7.74261e-20)
(0.239766 -0.0278754 -2.04466e-19)
(0.660652 -0.0737557 5.62383e-19)
(1.04249 -0.112198 1.71008e-19)
(1.39031 -0.144289 -5.12493e-19)
(1.7084 -0.171277 -7.84193e-19)
(2.00037 -0.194053 3.66195e-20)
(2.26924 -0.213245 1.67124e-19)
(2.51752 -0.229293 -5.46841e-19)
(2.74731 -0.242784 -2.89764e-19)
(2.95953 -0.254778 -5.63594e-19)
(0.24426 -0.00940241 4.51408e-19)
(0.672452 -0.024704 3.44149e-19)
(1.0603 -0.0373616 -9.38596e-20)
(1.41303 -0.0477884 -1.29787e-20)
(1.73514 -0.0564622 -3.87506e-19)
(2.03041 -0.0637231 -8.57329e-20)
(2.30205 -0.06981 -2.90577e-19)
(2.55276 -0.0748903 6.46558e-19)
(2.7848 -0.0791711 1.71003e-19)
(2.99945 -0.0830119 2.22265e-21)
(-0.00234369 -0.0217848 -3.43466e-20)
(0.00860161 -0.069351 -7.02306e-20)
(0.0248886 -0.120516 -7.32345e-21)
(0.0493206 -0.171227 -3.40385e-20)
(0.0776744 -0.216619 -1.27328e-20)
(0.106517 -0.254762 -3.90051e-19)
(0.135545 -0.288694 -1.95083e-20)
(0.166334 -0.322009 1.19953e-19)
(0.199164 -0.355527 1.09534e-20)
(0.233056 -0.387898 -3.57786e-20)
(0.000848469 -0.0246848 -9.77554e-20)
(0.0149423 -0.0850706 -2.12683e-19)
(0.0393454 -0.160341 -5.40114e-20)
(0.0692723 -0.225268 -1.10425e-19)
(0.0994912 -0.275558 -9.6478e-20)
(0.130459 -0.317991 -2.79773e-19)
(0.164478 -0.358983 2.00512e-19)
(0.202141 -0.400388 1.68637e-19)
(0.241644 -0.440309 -2.56653e-19)
(0.281155 -0.476694 8.13164e-20)
(0.00549571 -0.0314915 -8.54124e-20)
(0.0287772 -0.107417 -8.66994e-19)
(0.0628571 -0.19611 -1.29616e-19)
(0.0974511 -0.268975 9.32329e-20)
(0.131815 -0.327219 6.77904e-20)
(0.169653 -0.380285 -4.49747e-19)
(0.212949 -0.432311 3.56148e-20)
(0.259143 -0.481806 3.67016e-19)
(0.305493 -0.526271 -3.86482e-19)
(0.351442 -0.565668 -2.58568e-19)
(0.0113686 -0.0409852 -1.77175e-21)
(0.0466248 -0.130878 1.8985e-19)
(0.0896422 -0.225336 1.61323e-21)
(0.133077 -0.30704 -1.07701e-20)
(0.17779 -0.377876 -3.00876e-20)
(0.227245 -0.44386 8.65122e-20)
(0.281099 -0.505627 7.304e-20)
(0.335672 -0.560898 -1.36123e-19)
(0.389736 -0.60938 9.20869e-21)
(0.443906 -0.651948 -1.04424e-20)
(0.0185094 -0.0507715 0)
(0.067239 -0.15243 5.47992e-21)
(0.12194 -0.253639 -5.10282e-19)
(0.178696 -0.345481 5.15947e-20)
(0.237809 -0.42858 -1.01032e-20)
(0.300517 -0.505092 5.68769e-21)
(0.365312 -0.574379 -2.53907e-20)
(0.429809 -0.635436 -7.76821e-21)
(0.493948 -0.688842 0)
(0.558143 -0.734852 -2.05843e-20)
(0.027326 -0.0596504 3.18327e-20)
(0.0918957 -0.172858 -1.54303e-19)
(0.161767 -0.282527 -4.59877e-20)
(0.23463 -0.383893 -5.83576e-20)
(0.309737 -0.476756 4.96291e-20)
(0.386738 -0.561537 5.58402e-21)
(0.464243 -0.637703 8.95925e-20)
(0.540939 -0.704945 -2.17593e-20)
(0.61691 -0.763445 -6.96272e-19)
(0.69216 -0.812649 -1.01031e-20)
(0.0379751 -0.067605 6.83055e-22)
(0.121237 -0.19218 5.56974e-20)
(0.209164 -0.310619 -7.84622e-20)
(0.299927 -0.420178 -1.66979e-20)
(0.392137 -0.520671 -7.29187e-20)
(0.484778 -0.612129 -9.5098e-21)
(0.576701 -0.694325 9.93322e-21)
(0.666941 -0.767144 -2.11631e-19)
(0.755525 -0.830265 3.8352e-19)
(0.842317 -0.88232 9.71555e-19)
(0.0503615 -0.0746012 1.51298e-20)
(0.15513 -0.209611 -1.42274e-19)
(0.263462 -0.335965 -2.13772e-19)
(0.37367 -0.452111 8.90135e-20)
(0.484103 -0.558266 -6.43244e-20)
(0.593544 -0.654616 9.87314e-20)
(0.700943 -0.741275 1.96815e-19)
(0.805408 -0.818297 -1.09106e-19)
(0.90702 -0.88511 -3.05947e-19)
(1.00569 -0.939525 7.25352e-19)
(0.0642901 -0.0803598 -2.64897e-20)
(0.193286 -0.224026 -5.78123e-19)
(0.324297 -0.35656 5.24312e-19)
(0.455683 -0.47723 3.37491e-19)
(0.585738 -0.586745 -8.59098e-20)
(0.713224 -0.685659 3.08677e-19)
(0.837129 -0.774432 -1.59966e-19)
(0.956563 -0.853456 -7.72889e-19)
(1.07173 -0.922033 -4.03709e-19)
(1.18267 -0.977278 4.53665e-19)
(0.0795451 -0.0846661 -7.98231e-20)
(0.235845 -0.234417 -5.44356e-19)
(0.392392 -0.370524 -8.28022e-21)
(0.547542 -0.492795 6.88248e-20)
(0.699594 -0.602463 3.3776e-19)
(0.847391 -0.700432 -1.85389e-19)
(0.990012 -0.78744 -1.69471e-19)
(1.12653 -0.863825 1.88997e-19)
(1.25681 -0.928647 -3.5162e-19)
(1.38007 -0.980353 -5.84582e-19)
(0.402964 -0.531998 9.84204e-19)
(0.684895 -0.618475 -2.4318e-19)
(0.913784 -0.55779 -1.42733e-19)
(1.08768 -0.43128 2.68961e-19)
(1.24017 -0.280187 -2.30608e-19)
(1.36259 -0.139436 -2.99771e-19)
(1.46027 -0.0335284 -2.66083e-19)
(1.5175 0.020209 -3.18778e-20)
(1.5384 0.0316274 3.51987e-22)
(1.55441 0.0227839 3.00025e-20)
(0.468905 -0.619864 9.65176e-19)
(0.741534 -0.693907 7.13672e-20)
(0.966327 -0.617839 1.09579e-20)
(1.12486 -0.480521 -2.16014e-19)
(1.26562 -0.320552 -7.1606e-19)
(1.381 -0.172109 0)
(1.47987 -0.0582133 -2.47195e-19)
(1.55411 0.00616087 5.18664e-20)
(1.59162 0.0252892 4.50857e-21)
(1.61999 0.0192697 2.81965e-21)
(0.556236 -0.70552 -9.98101e-19)
(0.810825 -0.76688 -7.09938e-20)
(1.02557 -0.675747 1.56224e-19)
(1.16621 -0.527594 -5.38982e-20)
(1.29125 -0.359702 -3.64062e-20)
(1.3971 -0.204637 6.43784e-20)
(1.49153 -0.0846711 0)
(1.57332 -0.0125526 0)
(1.62731 0.0131087 -1.8009e-20)
(1.67628 0.0132178 0)
(0.665715 -0.787265 -2.24915e-19)
(0.895635 -0.835445 4.04291e-19)
(1.09199 -0.73045 2.68233e-20)
(1.21247 -0.571513 0)
(1.31797 -0.396748 6.05191e-19)
(1.41194 -0.235994 -1.43396e-19)
(1.49909 -0.111329 0)
(1.58093 -0.032891 1.32901e-19)
(1.63645 -0.00400498 0)
(1.71683 0.00212827 -1.45543e-20)
(0.795748 -0.863948 -1.48913e-19)
(0.997651 -0.897617 4.54898e-19)
(1.16621 -0.780791 -1.46561e-20)
(1.26381 -0.61145 0)
(1.34649 -0.430873 1.78896e-19)
(1.42591 -0.265469 2.69811e-19)
(1.50454 -0.137007 4.756e-20)
(1.58208 -0.0531606 6.69202e-21)
(1.63412 -0.0218215 -2.27962e-20)
(1.7259 -0.0122104 3.31689e-20)
(0.94225 -0.934814 -1.33154e-18)
(1.11649 -0.952044 -9.42197e-19)
(1.24886 -0.825504 4.76034e-21)
(1.32001 -0.646683 5.75371e-19)
(1.37717 -0.461292 -3.04391e-19)
(1.43907 -0.292533 1.46822e-19)
(1.50838 -0.16101 2.32751e-19)
(1.57929 -0.0724137 -1.87868e-19)
(1.62923 -0.0398039 -1.90514e-21)
(1.72005 -0.0259915 2.25717e-20)
(1.1001 -0.999488 -2.60558e-19)
(1.25001 -0.99854 2.86627e-19)
(1.34017 -0.863472 3.93874e-21)
(1.38076 -0.676526 -1.76209e-20)
(1.41013 -0.48723 -5.89517e-19)
(1.45142 -0.316645 5.41201e-20)
(1.51016 -0.182909 -9.39809e-20)
(1.57346 -0.0907227 -2.69744e-20)
(1.62515 -0.0555374 -8.70317e-22)
(1.69296 -0.0389445 -2.29934e-20)
(1.26432 -1.05686 -1.20076e-18)
(1.39474 -1.03771 2.09973e-19)
(1.43914 -0.894103 0)
(1.44509 -0.70055 3.44867e-20)
(1.4447 -0.508165 5.19835e-19)
(1.46264 -0.337305 -1.54752e-21)
(1.50878 -0.20272 -3.12099e-19)
(1.56536 -0.107255 6.13602e-20)
(1.61494 -0.0700988 -9.12717e-22)
(1.64007 -0.0456518 -2.88593e-20)
(1.432 -1.10351 3.39105e-18)
(1.54804 -1.07046 2.46044e-19)
(1.54559 -0.918105 4.64267e-19)
(1.51326 -0.719178 -3.17974e-20)
(1.48096 -0.524256 -3.43972e-20)
(1.47266 -0.35438 -4.27831e-19)
(1.50191 -0.220238 9.16932e-20)
(1.55495 -0.122286 3.06578e-21)
(1.56844 -0.076658 -2.47296e-20)
(1.57595 -0.0475456 3.62e-20)
(1.59924 -1.1282 -2.9982e-18)
(1.70185 -1.09566 1.27222e-18)
(1.65394 -0.938121 -2.32977e-19)
(1.58138 -0.7359 -7.88617e-19)
(1.51587 -0.539082 -6.54897e-19)
(1.4788 -0.371645 -2.54447e-19)
(1.48968 -0.237771 -6.76315e-20)
(1.51222 -0.134618 0)
(1.50569 -0.0777532 -5.87488e-20)
(1.50386 -0.0478611 1.23762e-19)
(1.88819 -1.17024 -6.71185e-18)
(1.92739 -1.1052 -1.69189e-18)
(1.80485 -0.932321 -5.83951e-20)
(1.67306 -0.72774 1.11902e-19)
(1.5624 -0.534234 1.60183e-19)
(1.48636 -0.373345 -1.0276e-19)
(1.44886 -0.241814 -4.03881e-20)
(1.42683 -0.134719 7.11869e-20)
(1.41535 -0.0757353 -5.85265e-20)
(1.40517 -0.0470975 -5.68698e-20)
(2.28933 -1.13488 4.95803e-19)
(2.17884 -1.05674 -2.88713e-19)
(1.94273 -0.865374 4.96378e-19)
(1.73562 -0.664877 -8.49578e-20)
(1.56219 -0.480905 3.69676e-21)
(1.42629 -0.333776 -6.90785e-20)
(1.34234 -0.218142 9.63065e-20)
(1.30872 -0.124134 -3.30758e-20)
(1.29115 -0.0703615 2.05624e-19)
(1.2751 -0.0442246 9.21288e-20)
(2.61059 -1.04361 2.2709e-18)
(2.35194 -0.948791 3.25801e-19)
(2.00825 -0.759499 -1.17786e-19)
(1.73247 -0.572992 1.63263e-36)
(1.50531 -0.410796 -2.55225e-20)
(1.33899 -0.286771 1.50657e-33)
(1.23422 -0.190458 -1.98442e-20)
(1.18266 -0.111677 -1.64798e-33)
(1.15925 -0.0635371 6.8307e-21)
(1.13806 -0.0401148 -1.42474e-20)
(2.78703 -0.893977 3.88674e-33)
(2.36942 -0.795639 2.96663e-18)
(1.97358 -0.630499 1.81793e-18)
(1.65341 -0.469429 0)
(1.40648 -0.334943 8.3295e-19)
(1.22964 -0.233697 4.29934e-19)
(1.11372 -0.156572 1.69913e-19)
(1.0502 -0.0949839 -2.89412e-33)
(1.02081 -0.0549025 -5.86212e-20)
(0.995485 -0.0348621 9.06578e-21)
(2.76364 -0.705897 3.84272e-18)
(2.24589 -0.629888 -1.46813e-19)
(1.84652 -0.491027 0)
(1.5155 -0.361716 0)
(1.27125 -0.255714 0)
(1.09723 -0.178451 0)
(0.980674 -0.121013 -1.2711e-20)
(0.911489 -0.0757216 -4.19107e-33)
(0.877486 -0.0446861 7.65615e-21)
(0.848979 -0.0287198 7.95113e-34)
(2.55117 -0.517039 3.26572e-18)
(2.02005 -0.462918 0)
(1.63855 -0.353646 0)
(1.32674 -0.256747 0)
(1.10092 -0.179707 0)
(0.941656 -0.125553 0)
(0.833365 -0.0861257 3.29901e-20)
(0.765414 -0.055468 -9.15161e-20)
(0.729555 -0.0334398 8.54205e-21)
(0.699505 -0.0219814 3.28666e-20)
(2.19012 -0.342712 0)
(1.70262 -0.303514 1.09823e-18)
(1.36128 -0.227608 1.09033e-18)
(1.0913 -0.161992 0)
(0.898379 -0.11234 6.66821e-19)
(0.763962 -0.078711 4.04641e-19)
(0.671523 -0.0546648 2.51579e-19)
(0.610969 -0.0361982 8.37366e-20)
(0.576873 -0.022174 -2.75031e-20)
(0.547667 -0.0151355 -4.23559e-21)
(1.70285 -0.191137 -6.73873e-19)
(1.30018 -0.165594 -2.74166e-19)
(1.02505 -0.121756 1.75645e-19)
(0.815077 -0.0844374 -2.11254e-34)
(0.667693 -0.058082 -7.70646e-20)
(0.566146 -0.0410438 3.71048e-33)
(0.495549 -0.0289605 4.88343e-20)
(0.447633 -0.0197835 9.87965e-20)
(0.419126 -0.0121781 9.91662e-21)
(0.393802 -0.00882363 -2.48581e-21)
(1.10088 -0.0758215 3.40805e-18)
(0.823158 -0.0626787 -1.86554e-19)
(0.64058 -0.0442932 -5.88884e-19)
(0.506144 -0.0289879 0)
(0.413815 -0.0195678 -6.40088e-19)
(0.350639 -0.0141258 -4.32411e-19)
(0.306116 -0.0103081 -2.03951e-19)
(0.274964 -0.00747579 -1.42318e-19)
(0.255601 -0.00464645 1.7092e-19)
(0.237787 -0.00372186 -2.81249e-20)
(0.397352 -0.00331881 0)
(0.287866 0.00159421 0)
(0.220891 0.00409435 0)
(0.17355 0.00624757 0)
(0.142372 0.00585659 0)
(0.121189 0.00471478 0)
(0.105857 0.0036817 5.60703e-20)
(0.0946741 0.00257439 -2.17574e-34)
(0.0873407 0.00215221 1.24737e-20)
(0.0802097 0.000909663 1.13262e-20)
(3.3671 -0.0863118 5.39208e-19)
(3.32642 -0.265086 -8.41902e-20)
(3.24735 -0.430657 8.52094e-19)
(3.13238 -0.582159 -6.04748e-19)
(2.98634 -0.718126 6.66402e-19)
(2.81524 -0.836383 2.75239e-19)
(2.6266 -0.93406 -1.92752e-18)
(2.42951 -1.00785 -7.74687e-20)
(2.22468 -1.05368 0)
(1.98486 -1.06656 4.26121e-19)
(3.86191 -0.0750597 7.07369e-18)
(3.79859 -0.234214 1.95637e-18)
(3.70428 -0.387312 -4.86732e-18)
(3.58426 -0.531993 -4.49092e-19)
(3.44238 -0.665896 3.55889e-18)
(3.28186 -0.787322 1.92345e-18)
(3.1065 -0.89507 -5.16866e-18)
(2.92204 -0.987706 -1.95218e-18)
(2.72759 -1.06339 2.20316e-18)
(2.49237 -1.12052 8.52173e-19)
(3.83308 -0.0533011 -1.26251e-19)
(3.82024 -0.171567 4.40361e-18)
(3.78546 -0.299762 -1.08825e-18)
(3.72434 -0.43092 -3.44613e-18)
(3.63618 -0.558732 -6.8001e-18)
(3.52371 -0.678804 1.02787e-17)
(3.39117 -0.788794 4.18064e-18)
(3.2435 -0.887987 -3.91183e-18)
(3.08161 -0.978719 -2.90277e-18)
(2.88723 -1.063 -3.42504e-18)
(3.62866 -0.047286 -4.83943e-18)
(3.61961 -0.144932 -4.35349e-18)
(3.59963 -0.243741 5.47222e-18)
(3.56735 -0.343095 1.91191e-18)
(3.52241 -0.442379 -8.97139e-18)
(3.46416 -0.540809 4.92207e-19)
(3.39183 -0.637048 3.88639e-18)
(3.30512 -0.730433 -1.05396e-18)
(3.20499 -0.823066 1.27682e-18)
(3.08306 -0.914775 2.81768e-19)
(3.34405 -0.0365785 -9.16003e-19)
(3.339 -0.111656 3.00412e-18)
(3.3271 -0.188677 1.6196e-18)
(3.30744 -0.267172 -1.8943e-18)
(3.27986 -0.346071 -2.00139e-18)
(3.24465 -0.424138 -2.434e-18)
(3.20204 -0.500336 3.79664e-19)
(3.15176 -0.574495 1.39038e-19)
(3.09549 -0.64776 -2.13975e-18)
(3.03286 -0.721306 -2.0344e-18)
(2.96257 -0.0265546 -1.82251e-18)
(2.95981 -0.0798891 -5.8723e-20)
(2.9533 -0.134599 -1.63755e-18)
(2.9424 -0.190903 3.12128e-19)
(2.92675 -0.248551 5.36787e-18)
(2.90629 -0.30693 -3.66749e-19)
(2.88092 -0.365116 4.43389e-20)
(2.85023 -0.42206 -2.60861e-18)
(2.81644 -0.476883 -3.49569e-18)
(2.786 -0.529865 3.7283e-19)
(2.48713 -0.0175109 -2.89313e-20)
(2.48578 -0.0519349 -8.14317e-19)
(2.48259 -0.0872483 -2.61487e-18)
(2.47707 -0.123771 -3.43104e-18)
(2.4688 -0.161534 2.49657e-18)
(2.45744 -0.200268 1.50226e-18)
(2.44261 -0.239354 -1.38509e-18)
(2.4237 -0.277791 1.6245e-18)
(2.40275 -0.314483 -4.2971e-19)
(2.38953 -0.349541 -9.63776e-19)
(1.91464 -0.00968844 7.72463e-19)
(1.91408 -0.0282977 -8.31807e-19)
(1.91278 -0.0474397 -3.27699e-20)
(1.91031 -0.0673591 -3.47231e-20)
(1.90624 -0.0881301 -7.27404e-20)
(1.90013 -0.109614 -2.33196e-18)
(1.89151 -0.131405 -6.78681e-19)
(1.87978 -0.152782 2.62613e-18)
(1.86664 -0.172975 -6.03512e-19)
(1.86191 -0.192207 -1.35115e-18)
(1.23988 -0.00373766 -1.64283e-18)
(1.23967 -0.0106957 -8.48918e-19)
(1.23923 -0.0179012 2.33921e-18)
(1.23823 -0.0254786 -8.89781e-19)
(1.23625 -0.0334753 -6.74128e-19)
(1.2329 -0.0418316 1.35204e-18)
(1.22775 -0.0503499 -1.2959e-18)
(1.22038 -0.0586654 1.287e-18)
(1.21202 -0.0663424 -1.21033e-18)
(1.21007 -0.0735082 -4.24831e-18)
(0.454916 -0.00025798 6.63085e-19)
(0.454827 -0.000700533 7.03058e-19)
(0.454692 -0.00115912 7.48186e-19)
(0.454325 -0.00164005 1.35398e-18)
(0.453496 -0.00214018 -6.7199e-19)
(0.451984 -0.00263718 -1.29963e-18)
(0.449567 -0.0030991 6.14719e-19)
(0.445992 -0.00359292 2.48373e-20)
(0.441737 -0.00439222 -4.96532e-20)
(0.44035 -0.00504562 1.1057e-19)
(1.65355 0.997264 -2.8579e-19)
(1.51227 0.941851 1.79967e-20)
(1.35879 0.88074 -2.2863e-19)
(1.19767 0.808433 1.76338e-19)
(1.02957 0.723975 -1.91955e-19)
(0.854823 0.627074 -1.01101e-19)
(0.673759 0.51694 2.31982e-19)
(0.487035 0.392146 -3.04913e-19)
(0.295891 0.250643 3.09877e-19)
(0.10143 0.0916437 2.38715e-19)
(1.88638 0.992183 0)
(1.72968 0.934734 6.39287e-19)
(1.56083 0.872764 3.32465e-19)
(1.38228 0.80185 1.62749e-19)
(1.19453 0.719876 4.31256e-19)
(0.997533 0.625897 -8.68509e-20)
(0.79136 0.518601 -7.85393e-20)
(0.576346 0.39599 8.87688e-20)
(0.353318 0.255175 -1.04516e-18)
(0.122698 0.0943551 -1.66447e-20)
(2.09104 0.959032 1.56804e-19)
(1.92523 0.905064 0)
(1.74614 0.846459 -1.00737e-19)
(1.55493 0.779547 -3.83394e-19)
(1.3517 0.702081 5.37067e-20)
(1.13609 0.612789 3.97117e-19)
(0.907783 0.510088 -6.06877e-19)
(0.666589 0.391638 -2.00881e-19)
(0.412595 0.254044 7.83586e-19)
(0.145251 0.094735 -1.75938e-19)
(2.28484 0.89835 1.87986e-19)
(2.11044 0.850557 1.1991e-20)
(1.9213 0.797859 2.45133e-20)
(1.71811 0.736999 3.60922e-20)
(1.50058 0.665855 -2.92745e-20)
(1.26792 0.583131 2.73256e-19)
(1.01926 0.487168 -2.06876e-19)
(0.753674 0.37553 -8.55567e-19)
(0.47027 0.244678 0)
(0.167388 0.0916964 0)
(2.46796 0.811816 -1.0708e-18)
(2.28435 0.770834 -6.09155e-19)
(2.08493 0.72506 -1.2067e-19)
(1.87003 0.671521 -6.65716e-20)
(1.6389 0.608294 0)
(1.39031 0.534136 2.4075e-19)
(1.12275 0.447434 2.67776e-19)
(0.834555 0.345835 2.86239e-19)
(0.523839 0.225953 -4.23742e-19)
(0.187908 0.084898 -8.12342e-20)
(2.634 0.702091 7.66393e-19)
(2.44156 0.668062 -1.39172e-19)
(2.23244 0.629678 -2.21572e-19)
(2.00664 0.584305 0)
(1.76301 0.530278 0)
(1.49988 0.466487 0)
(1.21522 0.391463 -3.89803e-20)
(0.906684 0.30309 3.70275e-19)
(0.571498 0.198348 3.79145e-19)
(0.206083 0.0746242 -3.08565e-19)
(2.7758 0.572354 -1.19355e-18)
(2.5755 0.545259 -1.48135e-18)
(2.35786 0.514529 -3.03292e-22)
(2.1226 0.477946 -1.87659e-19)
(1.86818 0.434181 -9.28796e-20)
(1.59258 0.382318 -1.78839e-19)
(1.29333 0.321124 4.5909e-19)
(0.967489 0.248837 2.14862e-19)
(0.611583 0.162967 5.40024e-19)
(0.221314 0.0613402 2.02852e-19)
(2.88707 0.425748 -1.15708e-18)
(2.68027 0.405633 8.47052e-20)
(2.45576 0.38282 1.64526e-19)
(2.21297 0.355611 1.68172e-20)
(1.95004 0.323051 -3.14403e-19)
(1.66465 0.284468 -1.7421e-19)
(1.35398 0.238937 -6.21208e-19)
(1.01464 0.18514 1.1853e-19)
(0.642604 0.121237 5.14753e-20)
(0.233066 0.0456127 -6.26904e-21)
(2.9628 0.265187 1.01363e-19)
(2.75121 0.252354 3.97005e-19)
(2.52189 0.237904 -3.30292e-19)
(2.27394 0.22074 3.63015e-19)
(2.00524 0.200297 3.72547e-19)
(1.71322 0.176176 4.91895e-19)
(1.39481 0.147809 -6.35738e-19)
(1.04633 0.114389 -3.24415e-19)
(0.663411 0.0748097 -4.58506e-20)
(0.240916 0.0280951 -3.26994e-19)
(3.00052 0.0935773 5.81812e-19)
(2.78612 0.0887857 -1.86158e-19)
(2.55425 0.0834441 4.79563e-19)
(2.30367 0.0771503 -3.10667e-19)
(2.03208 0.069728 2.66478e-19)
(1.73679 0.0610619 6.0541e-19)
(1.41457 0.0509785 3.78885e-19)
(1.06161 0.0392347 3.09342e-19)
(0.673396 0.0255066 2.65861e-19)
(0.244654 0.00950723 5.43613e-19)
(0.239582 0.452109 -4.69205e-19)
(0.203981 0.418388 -1.87601e-19)
(0.168415 0.381305 1.3917e-19)
(0.134888 0.343642 -4.19291e-19)
(0.105156 0.307518 -1.19443e-19)
(0.0782589 0.270266 6.92772e-19)
(0.0518832 0.223861 3.35828e-19)
(0.0259658 0.159008 -1.5557e-19)
(0.00706002 0.0797106 1.14644e-19)
(-0.00112431 0.022451 -6.07364e-20)
(0.288641 0.544388 4.11375e-19)
(0.248738 0.507593 4.58311e-19)
(0.20819 0.465543 -1.16865e-20)
(0.167863 0.418516 -1.32704e-19)
(0.131142 0.370393 -3.13216e-19)
(0.10061 0.322796 8.28269e-20)
(0.0734809 0.269471 2.25093e-19)
(0.045898 0.19701 1.65421e-19)
(0.0183441 0.101921 -5.9099e-19)
(0.00279071 0.0288822 -1.23618e-19)
(0.35966 0.6332 -6.00838e-19)
(0.313795 0.593052 -4.81418e-19)
(0.267998 0.547213 2.57603e-19)
(0.221355 0.493902 1.38209e-19)
(0.17581 0.434139 -6.07286e-21)
(0.136272 0.371927 -1.40055e-19)
(0.10212 0.305657 -2.94641e-20)
(0.0684386 0.224932 -5.55157e-19)
(0.0336729 0.126045 -2.694e-19)
(0.00763955 0.0378038 -3.90644e-20)
(0.454218 0.717937 5.03271e-19)
(0.400061 0.673742 1.64747e-19)
(0.346368 0.622729 -1.49381e-19)
(0.29223 0.563683 6.32636e-20)
(0.237748 0.495583 -5.67374e-22)
(0.186585 0.420903 1.31874e-21)
(0.140104 0.340682 -1.32293e-19)
(0.0954605 0.250269 3.78463e-19)
(0.0514363 0.147746 -4.19284e-19)
(0.0135818 0.0477132 -6.51047e-20)
(0.572006 0.797903 -2.82175e-19)
(0.507859 0.749808 -8.88974e-20)
(0.443578 0.69296 -1.43476e-20)
(0.378968 0.627238 -7.02636e-20)
(0.313719 0.551978 5.85427e-20)
(0.249662 0.468077 5.27316e-20)
(0.188379 0.376723 -2.79329e-20)
(0.129324 0.276657 -2.82156e-19)
(0.0725273 0.167643 2.18356e-19)
(0.0209188 0.0568406 8.72725e-20)
(0.709413 0.870981 6.43363e-19)
(0.634365 0.819597 3.2083e-19)
(0.558129 0.75743 2.03118e-19)
(0.480855 0.685365 4.82153e-20)
(0.402412 0.603528 1.55026e-19)
(0.32387 0.512361 7.84574e-20)
(0.246466 0.412516 1.43352e-19)
(0.170865 0.303909 5.79372e-20)
(0.0980533 0.186798 -1.59434e-20)
(0.0299973 0.0650303 -1.33318e-20)
(0.862017 0.934893 -1.19769e-19)
(0.775539 0.880694 -8.24945e-19)
(0.686701 0.814067 -7.61707e-20)
(0.595723 0.736822 -5.21495e-20)
(0.502561 0.649621 -1.96614e-20)
(0.408124 0.552706 1.51501e-19)
(0.313478 0.446306 -4.38182e-20)
(0.219709 0.330409 6.49863e-20)
(0.128293 0.205077 -1.44615e-19)
(0.040904 0.0724934 -1.25682e-21)
(1.02672 0.986051 -8.84767e-19)
(0.928466 0.929651 5.94299e-20)
(0.826655 0.859714 -2.33868e-19)
(0.721461 0.778888 -7.24817e-20)
(0.612767 0.688006 -2.40321e-20)
(0.501456 0.587064 -7.51821e-20)
(0.388526 0.47589 5.62777e-20)
(0.275163 0.354193 6.03053e-20)
(0.162982 0.221556 -9.8213e-21)
(0.053544 0.0791204 -1.0379e-19)
(1.20389 1.01795 1.23824e-19)
(1.0935 0.960952 5.2313e-19)
(0.978252 0.889726 1.5527e-21)
(0.858222 0.807557 -2.96038e-20)
(0.733144 0.7153 1.50879e-19)
(0.603891 0.612548 -3.47303e-19)
(0.471403 0.498749 -2.44383e-19)
(0.33683 0.373208 3.56113e-19)
(0.201771 0.235006 1.44184e-19)
(0.0677021 0.0845325 -3.62237e-20)
(1.40058 1.01548 7.39754e-19)
(1.27806 0.962352 3.23717e-19)
(1.14783 0.89537 5.59272e-20)
(1.01087 0.816406 -1.94954e-19)
(0.86727 0.726524 -1.64365e-20)
(0.717901 0.625338 4.65592e-19)
(0.563584 0.512004 -2.68224e-19)
(0.405341 0.385475 -1.84482e-19)
(0.244705 0.244319 3.35795e-19)
(0.083114 0.0884409 -6.04646e-21)
(0.976852 0.0985499 8.65406e-21)
(1.14269 0.142118 -1.23643e-21)
(1.21369 0.190352 -2.34831e-20)
(1.32629 0.170806 0)
(1.37783 0.155619 4.7411e-22)
(1.27906 0.234333 -5.40413e-20)
(1.12948 0.385635 -5.42171e-20)
(0.94942 0.543543 -1.2064e-20)
(0.711699 0.648427 -3.04946e-19)
(0.41657 0.59562 4.25846e-19)
(0.982116 0.0796494 1.96442e-19)
(1.13464 0.11446 -3.08274e-20)
(1.21008 0.159957 1.89695e-21)
(1.31715 0.151933 1.16029e-20)
(1.38088 0.157784 3.4842e-21)
(1.29881 0.268951 -2.66465e-21)
(1.1594 0.435826 1.36699e-20)
(0.994013 0.60663 0)
(0.761576 0.72749 7.98335e-19)
(0.479421 0.686824 -5.67241e-19)
(0.986965 0.0610275 -1.13441e-19)
(1.13117 0.0878365 6.69815e-21)
(1.20953 0.130428 7.78003e-20)
(1.31406 0.13176 1.91623e-20)
(1.38396 0.159091 -2.31752e-20)
(1.31869 0.301479 -3.49294e-20)
(1.19248 0.484508 -9.87815e-21)
(1.04411 0.668135 4.46054e-20)
(0.823151 0.803974 -1.25452e-21)
(0.564489 0.774609 -3.70156e-19)
(0.99118 0.042135 -8.08828e-20)
(1.13187 0.061809 1.54245e-20)
(1.21253 0.101576 7.55231e-20)
(1.31727 0.111428 3.08697e-20)
(1.38971 0.159933 -2.37781e-20)
(1.33884 0.331878 -2.70546e-20)
(1.22904 0.530975 7.37262e-20)
(1.10023 0.726928 2.68924e-20)
(0.899927 0.875619 -5.46634e-19)
(0.67371 0.857015 -1.77848e-19)
(0.994605 0.0226177 3.67059e-20)
(1.13596 0.0359037 -4.655e-20)
(1.21868 0.0732881 -6.77563e-20)
(1.32538 0.0915897 2.24894e-20)
(1.39708 0.161308 0)
(1.35896 0.360581 0)
(1.26917 0.574575 7.66787e-20)
(1.16352 0.781621 -2.82598e-20)
(0.99468 0.939937 -1.18134e-19)
(0.805116 0.932396 -5.7374e-20)
(0.997098 0.00231829 3.41053e-21)
(1.14255 0.00970656 5.79628e-20)
(1.22707 0.0454715 -2.07775e-19)
(1.33657 0.0727965 -7.67624e-20)
(1.40482 0.164037 -4.83908e-21)
(1.37892 0.387748 1.25062e-19)
(1.31308 0.614452 1.52886e-19)
(1.23553 0.830495 -1.80497e-20)
(1.10782 0.995131 -4.36744e-20)
(0.953765 1.00011 2.8098e-21)
(0.997925 -0.018985 1.697e-21)
(1.15077 -0.0171358 2.97369e-20)
(1.23672 0.018143 -6.55579e-20)
(1.34936 0.0555696 -1.54766e-19)
(1.41203 0.168358 1.17943e-20)
(1.39901 0.413052 7.38532e-21)
(1.36134 0.64949 -5.96306e-20)
(1.31736 0.871896 -1.08587e-19)
(1.2373 1.04092 -3.0362e-20)
(1.11388 1.0603 -9.79974e-19)
(0.995986 -0.0410938 1.48955e-20)
(1.16006 -0.0449083 -1.43729e-19)
(1.2469 -0.00852737 1.32535e-19)
(1.36253 0.040659 1.02143e-19)
(1.41756 0.174738 5.02032e-21)
(1.4192 0.436038 -1.3284e-19)
(1.41386 0.678656 1.71913e-22)
(1.40836 0.904888 -1.31023e-19)
(1.37933 1.07816 1.11033e-20)
(1.27987 1.1124 2.88342e-18)
(0.991035 -0.0633432 -8.77053e-20)
(1.17031 -0.073727 8.03888e-20)
(1.25719 -0.03437 1.90543e-19)
(1.3754 0.0281833 -1.14548e-19)
(1.42193 0.182934 -2.25879e-19)
(1.44104 0.456413 9.25933e-21)
(1.47191 0.701818 1.69039e-19)
(1.5085 0.930175 -5.73321e-19)
(1.53085 1.10815 -2.68452e-20)
(1.44835 1.15338 -6.47479e-18)
(0.98399 -0.0862051 4.10772e-21)
(1.18181 -0.103569 1.41392e-19)
(1.26744 -0.0591897 6.13151e-20)
(1.3868 0.0204831 -2.76191e-19)
(1.42296 0.196988 -2.44292e-19)
(1.46211 0.477761 -7.22585e-20)
(1.53114 0.722758 8.02844e-20)
(1.6116 0.951101 -2.07301e-19)
(1.68374 1.13051 -1.08652e-18)
(1.61563 1.17235 -7.95155e-18)
(0.974167 -0.117276 -1.44968e-20)
(1.19588 -0.143182 -3.26463e-20)
(1.27684 -0.0927546 -7.66687e-20)
(1.39745 0.00603481 1.41232e-19)
(1.4249 0.196033 2.01868e-19)
(1.49187 0.473301 -6.05222e-20)
(1.61191 0.712168 -1.41645e-19)
(1.75379 0.940242 -1.20163e-18)
(1.90279 1.1325 -1.59927e-18)
(1.89935 1.20868 3.28627e-18)
(0.961945 -0.155904 -4.05298e-19)
(1.21419 -0.192612 1.74096e-20)
(1.28071 -0.138815 -5.79681e-20)
(1.39778 -0.0155521 3.34517e-19)
(1.40344 0.174053 3.44612e-19)
(1.49347 0.428514 3.56654e-22)
(1.6681 0.64784 -6.63397e-20)
(1.88068 0.865821 -2.8763e-19)
(2.13955 1.07134 2.77797e-19)
(2.28452 1.16081 -3.2344e-19)
(0.949356 -0.196336 -2.78903e-20)
(1.23933 -0.242447 -5.49038e-20)
(1.27962 -0.183255 3.07121e-20)
(1.39285 -0.0340621 2.70043e-20)
(1.37704 0.162906 1.72313e-33)
(1.47002 0.371315 2.55113e-21)
(1.68046 0.56132 -2.03971e-33)
(1.94903 0.759544 1.85268e-19)
(2.30191 0.956377 -9.31022e-19)
(2.58733 1.05844 -6.29294e-19)
(0.937001 -0.243011 1.41117e-18)
(1.27076 -0.282403 -7.75183e-34)
(1.24937 -0.228732 -4.03299e-20)
(1.27059 -0.0365234 -2.28326e-19)
(1.26256 0.14463 -4.46601e-19)
(1.38935 0.302463 -8.84927e-19)
(1.61912 0.460013 -5.06619e-33)
(1.92921 0.631053 -1.73797e-18)
(2.32578 0.802076 -3.17744e-18)
(2.75373 0.902579 1.67523e-18)
(0.927283 -0.30054 0)
(1.31635 -0.327214 -1.61811e-33)
(1.11262 -0.207004 0)
(1.10726 -0.0295381 0)
(1.11933 0.115071 0)
(1.25859 0.232858 0)
(1.48962 0.355396 -8.06906e-33)
(1.81501 0.491531 0)
(2.21346 0.634265 -3.39739e-19)
(2.73499 0.712007 1.25753e-18)
(0.91648 -0.360811 1.16127e-19)
(1.25165 -0.326213 -4.6883e-19)
(0.959998 -0.174081 -5.49865e-20)
(0.933978 -0.0257948 0)
(0.95636 0.08271 0)
(1.09013 0.165474 6.04577e-20)
(1.30635 0.253877 1.17733e-18)
(1.61597 0.354664 -1.9506e-19)
(1.99671 0.466191 -4.95304e-19)
(2.53246 0.520474 4.67304e-18)
(0.883464 -0.405317 -1.52015e-17)
(1.09209 -0.27995 1.08743e-18)
(0.792654 -0.130491 -7.27248e-20)
(0.747022 -0.0210343 -7.50595e-20)
(0.772996 0.0525614 -5.12307e-19)
(0.889584 0.104524 -7.72679e-19)
(1.07634 0.161254 -1.04833e-18)
(1.34605 0.229002 -1.38266e-18)
(1.68762 0.306111 -1.60558e-18)
(2.17993 0.344443 3.61279e-18)
(0.809 -0.394518 -4.13661e-19)
(0.886474 -0.20759 -1.21644e-18)
(0.605551 -0.0828489 -1.25667e-19)
(0.549681 -0.015278 -8.41912e-20)
(0.571927 0.0276298 -9.87782e-34)
(0.661626 0.0545419 9.37786e-20)
(0.805466 0.0845702 -1.4856e-32)
(1.01622 0.122931 -1.93436e-19)
(1.29247 0.167305 2.98943e-19)
(1.69929 0.19207 7.05766e-19)
(0.664251 -0.288844 3.42549e-17)
(0.618258 -0.108099 -3.14019e-18)
(0.393378 -0.035112 -2.40742e-19)
(0.339377 -0.00735938 -1.57706e-19)
(0.353783 0.00926147 3.93885e-19)
(0.410483 0.0183567 7.84093e-19)
(0.501206 0.0291836 7.95202e-19)
(0.636733 0.044881 4.59847e-19)
(0.820755 0.063455 -1.90407e-19)
(1.10156 0.0762252 3.56937e-18)
(0.336836 -0.076824 5.58816e-19)
(0.261851 -0.00230484 -6.76604e-33)
(0.144383 0.0190777 -3.04957e-19)
(0.120401 0.00336249 0)
(0.123624 -0.00234806 0)
(0.141858 -0.00541357 9.64277e-20)
(0.172377 -0.00624573 9.34717e-35)
(0.220296 -0.00417577 -1.23574e-19)
(0.28813 -0.00161901 -2.82607e-19)
(0.399009 0.00331834 1.00158e-18)
(2.00205 1.09641 -1.78982e-18)
(2.23906 1.07846 -2.30496e-18)
(2.44207 1.0291 0)
(2.63707 0.952502 -7.58058e-19)
(2.82358 0.852509 -1.78274e-18)
(2.99276 0.732391 -2.2495e-18)
(3.13709 0.595042 -4.75891e-19)
(3.25054 0.442699 1.26928e-18)
(3.32824 0.276965 -3.54792e-18)
(3.36764 0.0986984 1.35669e-18)
(2.49866 1.14197 2.67734e-19)
(2.73055 1.08192 1.39733e-18)
(2.92387 1.0042 1.43904e-19)
(3.10673 0.909802 6.75776e-19)
(3.2806 0.800661 -1.10401e-18)
(3.43997 0.678326 -5.00049e-18)
(3.58096 0.544014 2.46796e-18)
(3.70047 0.399322 1.27035e-17)
(3.79428 0.246325 1.04067e-19)