/*--------------------------------*- C++ -*----------------------------------*\
  =========                 |
  \\      /  F ield         | OpenFOAM: The Open Source CFD Toolbox
   \\    /   O peration     | Website:  https://openfoam.org
    \\  /    A nd           | Version:  13
     \\/     M anipulation  |
\*---------------------------------------------------------------------------*/
FoamFile
{
    format      ascii;
    class       surfaceScalarField;
    location    "0.215";
    object      phi;
}
// * * * * * * * * * * * * * * * * * * * * * * * * * * * * * * * * * * * * * //

dimensions      [0 3 -1 0 0 0 0];

internalField   nonuniform List<scalar> 
823
(
0.0113783
-0.0505553
0.039177
0.0387603
-0.133438
0.106055
0.0788355
-0.20588
0.165805
0.130175
-0.268871
0.217531
-0.323257
0.259416
0.194016
0.0107035
-0.0612588
0.0361453
-0.158879
0.0726534
-0.242388
0.117982
-0.3142
-0.375605
0.17033
0.00837823
-0.0696371
0.0282891
-0.17879
0.0567337
-0.270832
0.0918239
-0.34929
-0.416062
0.132281
0.00530041
-0.0749375
0.0179992
-0.191489
0.0362366
-0.28907
0.0588947
-0.371948
-0.442431
0.0852634
0.00196245
-0.0768999
0.00663129
-0.196158
0.0132916
-0.29573
0.0215242
-0.38018
0.0310643
-0.451971
0.00654933
-0.0107124
0.00416311
0.0219281
-0.0308766
0.0154978
0.0449604
-0.0484998
0.0254676
0.0739389
-0.0639734
0.0349949
-0.0770802
0.107416
0.0436027
0.0057658
-0.0164782
0.0214835
-0.0465942
0.0466681
-0.0736845
0.0796747
-0.09698
-0.116112
0.118707
0.0064132
-0.0228914
0.0237015
-0.0638826
0.0512937
-0.101277
0.0879768
-0.133663
-0.160144
0.132008
0.00754104
-0.0304325
0.027099
-0.0834406
0.0573315
-0.131509
0.0970336
-0.173365
-0.207917
0.144807
0.00874455
0.0313594
0.0656547
0.10982
0.161319
0.319493
-0.958536
0.74646
0.466094
-0.809855
0.663255
0.54128
-0.3352
0.260013
0.560852
-0.101733
0.0821609
-0.0184536
0.0217936
0.32945
-1.16928
0.465927
-0.946333
0.541495
-0.410767
0.561811
-0.122049
-0.0172189
0.336854
-1.37413
0.460013
-1.06949
0.535734
-0.486488
0.560009
-0.146324
-0.0215054
0.337808
-1.56713
0.450333
-1.18202
0.524898
-0.561053
0.555861
-0.177287
-0.0340959
0.327723
-1.73353
0.431729
-1.28602
0.505473
-0.634796
0.548358
-0.220173
-0.0582235
1.1942
-1.58759
-1.34014
1.00334
-1.09516
0.906918
-0.538374
0.880079
-0.193334
-0.0495796
1.33196
-1.13219
-1.78736
0.994521
-0.757724
0.825251
-0.369104
0.76876
-0.136844
-0.0316062
1.19062
-0.607732
-1.71508
0.81967
-0.386775
0.636104
-0.185538
0.571971
-0.0727105
-0.016577
0.822332
-0.185389
-1.24468
0.546202
-0.110645
0.41013
-0.0494656
0.358949
-0.0215295
-0.0049333
0.306517
-0.491906
0.195872
0.146406
0.124877
1.56264
0.0462431
-1.57782
1.52173
0.126175
1.46268
0.191329
1.3963
0.23671
0.250172
1.67595
0.0356533
-1.66536
1.69944
0.102684
1.73098
0.159788
1.7655
0.202189
0.228311
1.38799
0.0184785
-1.37082
1.43709
0.0535887
1.51394
0.0829384
1.61029
0.105842
0.123523
0.977703
0.00531515
-0.96454
1.01588
0.0154153
1.07579
0.0230266
1.15383
0.0277975
0.0326809
0.392985
-0.38767
0.408401
0.431427
0.459225
0.128842
0.327552
-0.264531
-0.191863
0.0781868
0.27318
-0.222525
0.0385314
0.209789
-0.170134
0.0113403
0.136455
-0.109264
0.0519639
-0.0406236
0.115971
0.378877
-0.167296
0.0714946
0.317657
0.0356102
0.245673
0.0105565
0.161509
0.0625204
0.0888648
0.418271
-0.128259
0.0548127
0.351709
0.027285
0.273201
0.00806302
0.180731
0.0705834
0.0552556
0.443543
-0.0805284
0.0337691
0.373195
0.0166565
0.290314
0.00486423
0.192523
0.0754476
0.0174889
-0.0259167
0.0105038
0.00508737
0.00145232
0.0716171
0.0866295
-0.105834
-0.0524126
0.042234
0.0730905
-0.0437074
0.0194068
0.0564042
-0.033577
0.0050507
0.0364052
-0.0220491
0.0131021
-0.00805143
0.0762276
0.1252
-0.114798
0.0439086
0.105409
0.0197741
0.0805388
0.00514127
0.051038
0.0182434
0.0850648
0.168069
-0.127934
0.0495387
0.140936
0.022974
0.107103
0.00625091
0.067761
0.0244943
0.0945958
0.21441
-0.140936
0.0561067
0.179425
0.0266953
0.136515
0.00748147
0.0869749
0.0319758
0.107656
-0.157777
0.0645553
0.0309367
0.00864786
0.498435
0.164154
-0.266609
0.527161
0.188382
-0.217107
0.477846
0.31351
-0.264195
0.327924
0.798709
-0.648787
1.03274
-0.810649
0.493576
0.0665573
0.522563
0.159395
0.470353
0.36572
0.328511
0.940551
1.24645
0.49021
-0.0276732
0.514125
0.135481
0.456458
0.423386
0.329453
1.06756
1.44797
0.487439
-0.119133
0.504513
0.118407
0.440243
0.487656
0.327052
1.18075
1.63409
0.484505
-0.207658
0.489289
0.113623
0.417935
0.55901
0.315429
1.28325
1.79174
0.772249
-0.375887
0.861063
0.0248095
0.959593
0.46048
1.16864
1.07421
1.61332
1.34706
0.744645
-0.516512
0.834857
-0.0654025
0.975246
0.320091
1.3023
0.747146
1.14132
1.7743
0.620331
-0.532822
0.660802
-0.105874
0.812719
0.168174
1.17486
0.385003
0.611657
1.70453
0.45374
-0.382542
0.41832
-0.0704542
0.541013
0.0454816
0.816308
0.109708
0.186879
1.24108
0.221478
0.151024
0.196506
0.306214
0.493093
1.40231
-0.247113
1.46562
-0.230601
1.52296
-0.185602
1.56317
-0.120737
-0.040567
1.7531
-0.22591
1.72008
-0.197577
1.69085
-0.15638
1.67099
-0.100869
-0.0349378
1.60179
-0.123175
1.50891
-0.104699
1.43462
-0.0820902
1.38708
-0.0533301
-0.0186737
1.151
-0.0330876
1.07424
-0.0279456
1.01527
-0.0231128
0.977562
-0.0156261
-0.00565112
0.460006
0.43206
0.408947
0.393321
0.00250076
0.0429902
-0.045491
0.00732619
0.101018
-0.105843
0.0160918
0.148353
-0.157119
0.0165742
0.15187
-0.152352
0.113994
0.0148094
-0.112229
0.00682648
0.0361638
0.0201726
0.0876719
0.0409488
0.127577
0.0482457
0.144573
0.11635
0.0458893
0.0088063
0.0273575
0.0270683
0.0694098
0.0521374
0.102508
0.0730863
0.123624
0.114004
0.0754325
0.00779563
0.0195618
0.0254981
0.0517074
0.0497272
0.0782788
0.0774239
0.0959275
0.099171
0.0922568
0.00509015
0.0144717
0.017947
0.0388506
0.0367435
0.0594823
0.0600272
0.0726438
0.0766169
0.0825814
0.00341558
0.0110561
0.012563
0.0297032
0.0274879
0.0445574
0.0472163
0.0529155
0.0558983
0.067935
0.00225283
0.00880331
0.00911253
0.0228436
0.0227147
0.0309554
0.0417032
0.0339271
0.0342837
0.0633178
0.00178867
0.00701468
0.0105334
0.0140989
0.0267857
0.0147032
0.0474682
0.0132448
0.0108989
0.0708531
0.00384361
0.00317114
0.0175709
0.000371811
0.0367809
-0.00450658
0.0596697
-0.00964389
-0.0148777
0.0854463
0.00733442
0.0232042
0.0441653
0.0695163
0.0982413
0.156392
0.0143377
-0.102795
0.245727
-0.129199
0.0398636
0.269752
-0.04419
0.0201654
0.283384
-0.0159348
0.00230197
-0.0121396
0.000919051
0.217736
-0.140081
0.32787
-0.239332
0.35724
-0.0735602
0.370165
-0.0288593
-0.0202467
0.260964
-0.330192
0.392217
-0.370585
0.437969
-0.119312
0.450208
-0.0410987
-0.023383
0.291284
-0.536029
0.435079
-0.51438
0.501051
-0.185283
0.519922
-0.0599692
-0.0235091
0.308671
0.457546
0.532276
0.554467
0.0712647
0.0380306
-0.109295
0.0792181
-0.00795339
0.0845433
-0.00532516
0.0847755
-0.000232189
-0.000179817
0.196731
-0.261495
0.228642
0.243482
0.245552
0.0207243
-0.00432984
-0.0163945
0.0342692
-0.0135448
0.0567393
-0.0224701
0.0855919
-0.0288526
-0.0237035
0.0539056
-0.0434259
0.08625
0.139212
0.202617
0.0481151
-0.0548762
0.0762153
-0.0694542
0.0277007
-0.0518862
0.0723006
0.0123633
-0.0441961
0.0595335
0.00331645
-0.0300083
0.0390551
-0.0112647
0.0145811
0.0462916
-0.0317393
-0.0694285
0.0256135
-0.0312081
0.010164
-0.0287466
0.00226625
-0.0221106
-0.00899842
0.0566203
-0.00609423
-0.0822654
0.0336407
-0.00822854
0.0146988
-0.00980469
0.00275119
-0.010163
-0.00624723
0.069234
0.0218365
-0.0971648
0.0442696
0.0167358
0.0230991
0.0113658
0.00688212
0.00605399
0.000634882
0.0725944
-0.10317
0.0456228
0.0234116
0.00741654
0.0165809
-0.113992
-0.0148178
0.0160914
-0.151863
0.00730494
-0.148332
0.00248852
-0.101027
-0.0430025
0.0482631
-0.116341
-0.0459144
0.0409233
-0.144523
0.0201586
-0.127568
0.00681926
-0.0876877
-0.0361832
0.0731256
-0.113936
-0.0755299
0.0521113
-0.123509
0.0270563
-0.102513
0.00880292
-0.0694343
-0.0273803
0.0773478
-0.0988906
-0.0923937
0.0496056
-0.0957664
0.0254176
-0.0783246
0.00776937
-0.0517861
-0.0196109
0.0600178
-0.0826931
0.0365519
0.0177608
0.00502987
0.345071
0.578609
-0.527701
0.289525
0.212214
-0.156667
0.253284
0.0585901
-0.0223491
0.167875
0.121851
-0.0364418
0.00419407
0.0942265
0.413754
0.560835
0.383095
0.242873
0.34164
0.100046
0.235745
0.227745
0.170511
0.472214
0.4846
0.464573
0.250514
0.412345
0.152275
0.283461
0.356629
0.371706
0.505647
0.374933
0.516459
0.239701
0.45639
0.212344
0.313494
0.499525
0.588036
0.504303
0.526897
0.475046
0.325784
0.158845
0.351206
0.0865523
0.0722927
0.0821889
0.00436344
0.0731361
0.00905283
-0.0362371
0.109373
0.333556
0.249181
0.231196
0.203807
0.261796
0.0856484
0.0237248
0.0567713
0.028877
0.03428
0.0224914
0.0207278
0.0135522
0.00433329
0.202828
0.139311
0.0862727
0.0539104
)
;

boundaryField
{
    left
    {
        type            calculated;
        value           nonuniform List<scalar> 
17
(
-0.60402
-0.60402
-0.60402
-0.60402
-0.60402
-0.39598
-0.39598
-0.39598
-0.39598
-0.39598
-0.39598
-0.39598
-0.39598
-0.39598
-0.39598
-0.510051
-0.510051
)
;
    }
    right
    {
        type            calculated;
        value           nonuniform List<scalar> 
17
(
0.0849553
0.246291
0.294605
0.378272
0.453344
0.520048
0.552752
0.557512
0.560576
0.564296
0.568452
0.572486
0.871436
0.750787
0.556941
0.347305
0.119944
)
;
    }
    down
    {
        type            calculated;
        value           uniform 0;
    }
    up
    {
        type            calculated;
        value           uniform 0;
    }
    cylinder
    {
        type            calculated;
        value           uniform 0;
    }
    defaultFaces
    {
        type            empty;
    }
}


// ************************************************************************* //
