# Forces      
# CofR        : (0.000000e+00 0.000000e+00 0.000000e+00)
# Time        forces(pressure viscous)	moments(pressure viscous)
4             	((7.697743e+00 6.946372e-01 8.353038e-19) (1.162842e+00 2.409227e-01 -1.351472e-16)) ((3.397465e-19 -6.405791e-19 3.525450e-08) (-9.881475e-17 8.844921e-17 -1.553618e-02))
4.005         	((1.071002e+01 -1.899511e+00 7.316031e-19) (1.165661e+00 2.369977e-01 1.265721e-18)) ((1.122242e-19 -5.046265e-19 -1.088144e-06) (4.435713e-18 2.196401e-19 -1.552863e-02))
