/*--------------------------------*- C++ -*----------------------------------*\
  =========                 |
  \\      /  F ield         | OpenFOAM: The Open Source CFD Toolbox
   \\    /   O peration     | Website:  https://openfoam.org
    \\  /    A nd           | Version:  13
     \\/     M anipulation  |
\*---------------------------------------------------------------------------*/
FoamFile
{
    format      ascii;
    class       surfaceScalarField;
    location    "0.165";
    object      phi;
}
// * * * * * * * * * * * * * * * * * * * * * * * * * * * * * * * * * * * * * //

dimensions      [0 3 -1 0 0 0 0];

internalField   nonuniform List<scalar> 
823
(
0.0113779
-0.0505526
0.0391747
0.0387551
-0.133436
0.106059
0.0788169
-0.205886
0.165824
0.130129
-0.26889
0.217578
-0.32329
0.259491
0.193928
0.0107042
-0.0612568
0.0361454
-0.158878
0.0726488
-0.24239
0.117966
-0.314207
-0.375619
0.170296
0.00837928
-0.0696361
0.028291
-0.178789
0.0567347
-0.270833
0.0918209
-0.349293
-0.416069
0.132271
0.00530112
-0.0749372
0.0180008
-0.191489
0.0362381
-0.289071
0.0588949
-0.37195
-0.442435
0.0852604
0.00196264
-0.0768999
0.00663147
-0.196158
0.0132912
-0.29573
0.0215223
-0.380181
0.0310601
-0.451972
0.00627024
-0.0108211
0.00455084
0.0213933
-0.0311464
0.0160236
0.0442147
-0.0489144
0.0260931
0.0730202
-0.0644846
0.0356792
-0.077653
0.106344
0.0443291
0.00568431
-0.0165053
0.0212458
-0.0467079
0.0462519
-0.0739206
0.079091
-0.0973237
-0.116527
0.117965
0.00639708
-0.0229024
0.0236239
-0.0639347
0.0511037
-0.1014
0.0876513
-0.133871
-0.16042
0.131544
0.00753343
-0.0304359
0.0270611
-0.0834625
0.0572276
-0.131567
0.0968319
-0.173476
-0.208081
0.144493
0.00873878
0.0313353
0.0655923
0.109694
0.161104
0.317736
-0.966056
0.754663
0.462593
-0.801596
0.65674
0.529113
-0.32821
0.26169
0.544561
-0.108929
0.093482
-0.0208982
0.0253747
0.327629
-1.17572
0.462785
-0.936752
0.529974
-0.395399
0.54641
-0.125366
-0.0184851
0.335393
-1.37957
0.457419
-1.05878
0.525563
-0.463543
0.5458
-0.145602
-0.0212453
0.336709
-1.57178
0.44851
-1.17058
0.516973
-0.532006
0.542917
-0.171547
-0.0318524
0.326951
-1.73763
0.431238
-1.27487
0.500863
-0.601631
0.537001
-0.207685
-0.0532868
1.19078
-1.58826
-1.34015
0.997964
-1.08205
0.899618
-0.503286
0.867967
-0.176034
-0.0445733
1.33182
-1.13275
-1.78733
1.00118
-0.751408
0.846765
-0.348873
0.795016
-0.124285
-0.0279139
1.19078
-0.608385
-1.71514
0.823236
-0.383866
0.651001
-0.176638
0.592686
-0.0659707
-0.0140237
0.82185
-0.185639
-1.2446
0.547674
-0.10969
0.418528
-0.047492
0.372384
-0.0198264
-0.00402904
0.306184
-0.491823
0.196494
0.149002
0.129176
1.56266
0.0462255
-1.57782
1.52176
0.126158
1.46272
0.191307
1.39635
0.236673
0.250121
1.67595
0.0356502
-1.66537
1.69944
0.10267
1.73098
0.159763
1.76549
0.202159
0.228284
1.388
0.0184782
-1.37083
1.43709
0.0535763
1.51394
0.0829096
1.61031
0.105794
0.123454
0.977701
0.00531551
-0.964538
1.01587
0.0154109
1.07576
0.0230146
1.15378
0.0277731
0.0326399
0.392985
-0.387669
0.408396
0.43141
0.459184
0.128846
0.327534
-0.264513
-0.191867
0.0781885
0.273171
-0.222513
0.038532
0.209784
-0.170128
0.0113404
0.136453
-0.109262
0.0519642
-0.0406238
0.115971
0.378865
-0.167302
0.0714926
0.317649
0.0356081
0.245669
0.0105555
0.161506
0.0625197
0.0888695
0.418265
-0.128269
0.0548144
0.351704
0.0272853
0.273198
0.00806294
0.180728
0.0705826
0.0552623
0.443542
-0.0805391
0.0337727
0.373194
0.0166581
0.290312
0.00486461
0.192522
0.0754473
0.0174941
-0.0259249
0.0105067
0.00508862
0.00145263
0.0710915
0.0866811
-0.105146
-0.0526265
0.0418686
0.0731382
-0.0439153
0.0192079
0.0564235
-0.0337628
0.0049957
0.0363869
-0.0221747
0.0130782
-0.00808252
0.0760836
0.125182
-0.114584
0.0438316
0.10539
0.0197508
0.0805043
0.00514102
0.0509966
0.0182192
0.0850955
0.16804
-0.127954
0.0495757
0.14091
0.0230039
0.107076
0.00626311
0.0677375
0.0244823
0.0946462
0.214389
-0.140994
0.0561471
0.179409
0.0267202
0.136503
0.00749036
0.0869673
0.0319727
0.107674
-0.157798
0.0645703
0.0309457
0.00865109
0.492017
0.164548
-0.260585
0.515772
0.194111
-0.217866
0.471349
0.316008
-0.271586
0.325764
0.789718
-0.644133
1.03306
-0.81244
0.486896
0.0736316
0.512113
0.168895
0.465333
0.362788
0.327253
0.927798
1.24573
0.483447
-0.0138359
0.505097
0.147245
0.453494
0.414391
0.329153
1.05214
1.44692
0.480936
-0.0987919
0.49734
0.130841
0.439191
0.47254
0.327359
1.16397
1.63329
0.478973
-0.181786
0.48496
0.124854
0.418828
0.538672
0.316085
1.26671
1.79158
0.769159
-0.346924
0.858199
0.0358139
0.958615
0.438256
1.16691
1.05842
1.61162
1.34687
0.755903
-0.498806
0.84891
-0.0571939
0.98242
0.304746
1.30332
0.737521
1.14056
1.77437
0.632885
-0.527671
0.67691
-0.101219
0.819025
0.162631
1.17599
0.380555
0.611731
1.70482
0.457977
-0.381627
0.425976
-0.0692188
0.543937
0.0446705
0.81626
0.108232
0.186935
1.24106
0.222393
0.153174
0.197845
0.306077
0.493012
1.40221
-0.247208
1.46557
-0.230659
1.52294
-0.18564
1.56316
-0.120762
-0.0405873
1.75319
-0.226023
1.72016
-0.197632
1.69092
-0.156399
1.67103
-0.100868
-0.0349338
1.60195
-0.123155
1.50899
-0.104668
1.43465
-0.0820615
1.3871
-0.0533105
-0.018664
1.15096
-0.0330588
1.07421
-0.0279223
1.01525
-0.0230975
0.977555
-0.0156172
-0.00564685
0.459953
0.432031
0.408933
0.393316
0.00250076
0.0429876
-0.0454883
0.00732612
0.101013
-0.105838
0.0160915
0.148346
-0.157112
0.0165736
0.151864
-0.152346
0.113988
0.0148086
-0.112223
0.00682634
0.0361612
0.0201721
0.0876669
0.0409473
0.127571
0.0482451
0.144566
0.116346
0.0458876
0.00880572
0.0273555
0.0270662
0.0694064
0.0521337
0.102504
0.0730899
0.12361
0.113997
0.0754384
0.00779182
0.0195637
0.0254873
0.0517109
0.0497139
0.078277
0.0774267
0.095897
0.0991311
0.0922929
0.00508073
0.014483
0.0179183
0.0388734
0.0367188
0.0594765
0.0600453
0.0725706
0.0765458
0.0826307
0.00340762
0.0110754
0.0125511
0.0297299
0.0275653
0.0444624
0.0474461
0.0526898
0.0556595
0.0683325
0.00227001
0.00880539
0.00930476
0.0226954
0.023225
0.0305424
0.0425035
0.0334115
0.0337662
0.064397
0.00193978
0.0068657
0.0111179
0.0135176
0.0276909
0.0139697
0.0486207
0.012482
0.0101212
0.0722659
0.00419445
0.00267142
0.0180809
-0.000368423
0.0373163
-0.00526532
0.0602416
-0.0104431
-0.0157063
0.0860692
0.00722265
0.022878
0.043706
0.0689422
0.097565
0.159166
0.00914511
-0.0999783
0.247852
-0.12779
0.0391044
0.273956
-0.0492874
0.0231836
0.29031
-0.0220453
0.00569085
-0.0144751
0.00203973
0.221273
-0.147731
0.330434
-0.23695
0.361962
-0.0808154
0.377725
-0.0378076
-0.0236921
0.26333
-0.338795
0.394081
-0.367701
0.442717
-0.129452
0.458674
-0.0537642
-0.0277947
0.291811
-0.544537
0.434092
-0.509981
0.499215
-0.194574
0.520683
-0.0752325
-0.0285515
0.30769
0.454449
0.521564
0.539814
0.0718065
0.0374449
-0.109251
0.0796787
-0.00787225
0.085891
-0.00621227
0.0870296
-0.00113863
-0.00044928
0.199092
-0.261624
0.230326
0.247297
0.25185
0.0207231
-0.00432953
-0.0163936
0.0342666
-0.0135435
0.056734
-0.0224673
0.0855814
-0.0288474
-0.02367
0.0539027
-0.0434236
0.0862468
0.139218
0.202663
0.0482742
-0.0547696
0.0761904
-0.069695
0.0277669
-0.0517476
0.0722549
0.0123605
-0.0441157
0.059522
0.00330893
-0.0300181
0.0390696
-0.0112802
0.0145891
0.0469763
-0.0314059
-0.0703401
0.0260871
-0.0308586
0.0103975
-0.0284262
0.00231247
-0.0219331
-0.00896778
0.0572217
-0.00563194
-0.0829958
0.0341302
-0.00776719
0.015048
-0.00934417
0.00286757
-0.00975275
-0.00610027
0.0690675
0.0222295
-0.096929
0.0441775
0.0171227
0.0230865
0.0117467
0.00692083
0.00641286
0.000820504
0.0718329
-0.10223
0.0450401
0.023024
0.00726202
0.0165801
-0.113986
-0.014817
0.0160905
-0.151856
0.0073046
-0.148326
0.00248841
-0.101022
-0.0429999
0.0482611
-0.116336
-0.045912
0.040921
-0.144516
0.0201575
-0.127562
0.0068189
-0.0876831
-0.036181
0.0731243
-0.11393
-0.0755296
0.0521069
-0.123499
0.0270536
-0.102509
0.00880208
-0.0694317
-0.0273789
0.0773485
-0.0988702
-0.0924085
0.0495966
-0.0957467
0.0254096
-0.0783219
0.00776645
-0.0517885
-0.0196125
0.0600342
-0.082714
0.0365422
0.0177424
0.00502341
0.347453
0.574563
-0.526036
0.294994
0.205134
-0.152676
0.255647
0.0645121
-0.0251655
0.169864
0.122738
-0.0369545
0.00823949
0.0919293
0.417757
0.552785
0.389375
0.233516
0.344159
0.109728
0.237488
0.229409
0.175387
0.479077
0.469688
0.470591
0.242003
0.412954
0.167364
0.283827
0.358537
0.376218
0.502718
0.36295
0.509519
0.235201
0.452464
0.224419
0.311999
0.499002
0.591288
0.498344
0.515679
0.468511
0.323381
0.159102
0.350949
0.0877705
0.0713318
0.0828171
0.00495337
0.0736393
0.00917773
-0.0356933
0.109333
0.334964
0.25362
0.233408
0.20563
0.261866
0.0856371
0.0236956
0.0567665
0.0288706
0.0342777
0.0224889
0.0207266
0.0135511
0.004333
0.202847
0.139309
0.0862684
0.0539076
)
;

boundaryField
{
    left
    {
        type            calculated;
        value           nonuniform List<scalar> 
17
(
-0.60402
-0.60402
-0.60402
-0.60402
-0.60402
-0.39598
-0.39598
-0.39598
-0.39598
-0.39598
-0.39598
-0.39598
-0.39598
-0.39598
-0.39598
-0.510051
-0.510051
)
;
    }
    right
    {
        type            calculated;
        value           nonuniform List<scalar> 
17
(
0.0874789
0.25344
0.302746
0.386942
0.462776
0.52144
0.536637
0.540084
0.543997
0.54856
0.553524
0.558435
0.859253
0.778356
0.578796
0.362389
0.125147
)
;
    }
    down
    {
        type            calculated;
        value           uniform 0;
    }
    up
    {
        type            calculated;
        value           uniform 0;
    }
    cylinder
    {
        type            calculated;
        value           uniform 0;
    }
    defaultFaces
    {
        type            empty;
    }
}


// ************************************************************************* //
