/*--------------------------------*- C++ -*----------------------------------*\
  =========                 |
  \\      /  F ield         | OpenFOAM: The Open Source CFD Toolbox
   \\    /   O peration     | Website:  https://openfoam.org
    \\  /    A nd           | Version:  13
     \\/     M anipulation  |
\*---------------------------------------------------------------------------*/
FoamFile
{
    format      ascii;
    class       volVectorField;
    location    "0.165";
    object      U;
}
// * * * * * * * * * * * * * * * * * * * * * * * * * * * * * * * * * * * * * //

dimensions      [0 1 -1 0 0 0 0];

internalField   nonuniform List<vector> 
440
(
(0.218247 -0.176678 -1.81205e-19)
(0.613076 -0.436651 1.07727e-18)
(0.984321 -0.640955 4.20215e-19)
(1.3276 -0.795556 1.24826e-18)
(1.63268 -0.917037 -2.60179e-19)
(0.304885 -0.177677 -5.4426e-19)
(0.819141 -0.428695 -1.01934e-18)
(1.28001 -0.618917 1.14894e-19)
(1.69198 -0.761698 -1.21517e-18)
(2.05385 -0.875222 -1.0213e-18)
(0.384881 -0.152405 -6.97955e-19)
(1.0047 -0.36301 1.58996e-18)
(1.53981 -0.518384 -1.93399e-18)
(2.0048 -0.632642 1.38182e-18)
(2.40606 -0.721503 1.42832e-18)
(0.445883 -0.102748 5.62374e-19)
(1.14614 -0.243084 -1.29954e-18)
(1.73751 -0.344811 -7.51024e-19)
(2.24304 -0.418221 1.96571e-18)
(2.67458 -0.474468 2.50063e-18)
(0.47928 -0.0361596 6.86986e-19)
(1.22369 -0.0847556 1.69202e-19)
(1.84598 -0.119365 2.53129e-18)
(2.37413 -0.14387 -1.06247e-18)
(2.82307 -0.162506 -4.8405e-19)
(-0.00155152 -0.0523925 2.85178e-19)
(0.0483656 -0.147014 -3.11354e-19)
(0.103659 -0.226542 1.04496e-18)
(0.16858 -0.297337 -1.74361e-19)
(0.236198 -0.35958 -1.60877e-18)
(0.0136459 -0.0845433 -2.8067e-19)
(0.0890271 -0.228869 -5.19291e-19)
(0.173629 -0.352427 1.09354e-19)
(0.267719 -0.453392 6.14238e-20)
(0.363859 -0.53415 -4.12471e-20)
(0.0434063 -0.114313 6.24338e-20)
(0.165599 -0.30358 5.67321e-19)
(0.296325 -0.468488 9.39139e-20)
(0.433047 -0.600761 1.4127e-18)
(0.56815 -0.699894 -2.44249e-20)
(0.0866559 -0.141017 6.66291e-20)
(0.276482 -0.368027 -3.74356e-20)
(0.469662 -0.563586 2.22197e-19)
(0.661643 -0.719633 -2.01318e-18)
(0.844429 -0.832043 9.53026e-19)
(0.142125 -0.161719 -2.3523e-19)
(0.420107 -0.412925 -4.41338e-19)
(0.691467 -0.621734 -7.65985e-19)
(0.950275 -0.782989 9.47976e-19)
(1.18544 -0.893776 3.44036e-18)
(0.586537 -0.599811 -4.29978e-18)
(0.948787 -0.506667 1.2107e-18)
(1.24188 -0.207476 3.41454e-19)
(1.32905 -0.0747918 -6.89768e-19)
(1.3639 -0.0201863 -1.19254e-19)
(0.78325 -0.749077 5.00502e-18)
(1.03369 -0.608746 -3.46267e-19)
(1.27663 -0.256134 -1.64699e-19)
(1.35035 -0.0915285 3.87458e-19)
(1.37374 -0.0245685 2.1413e-19)
(1.03601 -0.882272 1.55327e-18)
(1.16998 -0.690921 4.01437e-18)
(1.31245 -0.302293 8.31414e-20)
(1.37193 -0.105894 4.41498e-19)
(1.38523 -0.0282029 -7.83695e-20)
(1.33062 -0.992344 1.26036e-18)
(1.34799 -0.751523 -4.19338e-19)
(1.36656 -0.34168 -7.18657e-19)
(1.39216 -0.116456 -2.7581e-19)
(1.39771 -0.030801 1.76605e-20)
(1.63051 -1.05085 -2.8398e-20)
(1.54112 -0.793814 -1.59174e-18)
(1.43178 -0.378262 0)
(1.40838 -0.129137 2.80653e-19)
(1.41004 -0.0329882 4.54116e-20)
(2.1564 -1.11619 -1.59724e-18)
(1.81394 -0.787876 -4.82986e-19)
(1.54964 -0.384067 -5.07161e-21)
(1.44436 -0.131312 5.11987e-21)
(1.42223 -0.0318792 -9.95579e-20)
(2.63407 -0.889918 -1.61076e-18)
(1.90401 -0.5845 2.74741e-18)
(1.50021 -0.268947 6.01401e-21)
(1.33583 -0.0939358 2.80143e-19)
(1.28837 -0.0220186 0)
(2.48024 -0.522767 -6.94592e-18)
(1.60775 -0.331833 -1.49879e-19)
(1.17406 -0.150741 2.06356e-18)
(1.0006 -0.0579456 -2.97106e-19)
(0.958366 -0.0137393 -3.92194e-20)
(1.76234 -0.220213 6.84245e-18)
(1.08749 -0.133643 1.36987e-18)
(0.761184 -0.0599898 2.31718e-19)
(0.634194 -0.0252001 2.87212e-33)
(0.600586 -0.0059843 -1.44776e-19)
(0.682827 7.34906e-05 1.56802e-18)
(0.394485 0.0233731 7.35801e-19)
(0.270456 0.0216589 -4.75364e-19)
(0.224222 0.00877495 1.5693e-19)
(0.208064 0.00298057 -4.01218e-20)
(3.582 -0.1682 1.2562e-17)
(3.41733 -0.502955 -1.04414e-17)
(3.13684 -0.787036 7.10478e-18)
(2.7807 -0.996198 2.32029e-18)
(2.3331 -1.10197 -4.15789e-19)
(3.78471 -0.103636 1.03958e-17)
(3.71766 -0.324517 -6.64005e-19)
(3.578 -0.551896 -4.27089e-18)
(3.37861 -0.785825 2.69134e-18)
(3.1007 -1.01983 -6.62551e-19)
(3.1149 -0.0605645 3.65424e-18)
(3.09872 -0.181772 -2.51846e-18)
(3.0597 -0.309825 5.01233e-18)
(2.99907 -0.445045 -1.52532e-19)
(2.92471 -0.593808 -4.78997e-18)
(2.19088 -0.0276209 2.78851e-18)
(2.18384 -0.0834331 8.42952e-18)
(2.16456 -0.144152 -6.53181e-19)
(2.13393 -0.207524 -6.60484e-18)
(2.11285 -0.269764 1.94521e-18)
(0.879438 -0.00184162 5.21223e-18)
(0.876478 -0.00524382 -1.16395e-19)
(0.867318 -0.00958154 -4.27076e-20)
(0.850378 -0.0162852 -2.00801e-18)
(0.840932 -0.0229675 -3.59983e-18)
(1.65274 0.939398 2.26157e-18)
(1.34809 0.816385 -7.45548e-20)
(1.00332 0.658558 -3.24329e-20)
(0.627908 0.449509 -1.96477e-19)
(0.225277 0.182344 -1.34692e-19)
(2.07027 0.892247 -1.21609e-18)
(1.71054 0.777649 -1.19247e-18)
(1.29828 0.632598 7.34067e-19)
(0.834067 0.43877 -4.84753e-19)
(0.312178 0.182117 -4.25756e-21)
(2.41851 0.735729 -5.9218e-19)
(2.01962 0.645316 5.25256e-19)
(1.55499 0.528764 2.43817e-18)
(1.01755 0.370215 8.08575e-19)
(0.391357 0.155295 5.26253e-19)
(2.68205 0.486656 1.25113e-20)
(2.25242 0.428269 -2.72456e-19)
(1.74747 0.352322 -6.46656e-19)
(1.1548 0.247652 2.05683e-18)
(0.450344 0.104149 -3.26865e-19)
(2.82556 0.173838 -1.17124e-18)
(2.37736 0.152632 -1.60653e-18)
(1.84948 0.125343 -7.28812e-19)
(1.22677 0.0878354 7.96326e-19)
(0.480881 0.0366883 -3.25827e-19)
(0.236922 0.415276 -2.09167e-18)
(0.167748 0.351823 -1.75656e-18)
(0.101285 0.275375 2.92536e-19)
(0.0446361 0.182045 -1.85273e-20)
(-0.00193993 0.0666628 3.66543e-20)
(0.370253 0.590633 -8.04192e-19)
(0.273494 0.506664 -6.24231e-19)
(0.178328 0.396436 -2.75472e-21)
(0.092275 0.257317 -1.99088e-20)
(0.0165438 0.095544 2.06061e-20)
(0.581824 0.749771 2.15265e-18)
(0.446286 0.646632 -1.56433e-19)
(0.307901 0.504863 -1.34628e-19)
(0.174245 0.327052 -2.15e-19)
(0.0481249 0.12339 1.70695e-19)
(0.862066 0.872375 -1.30029e-18)
(0.679217 0.7565 1.99075e-18)
(0.485294 0.592927 3.2702e-19)
(0.288284 0.387752 9.92473e-20)
(0.0924086 0.148994 -1.17207e-19)
(1.20346 0.923927 -4.43892e-19)
(0.96903 0.810992 -4.59936e-19)
(0.708601 0.644673 3.64279e-19)
(0.433365 0.429038 3.61798e-19)
(0.14847 0.168548 1.90189e-21)
(0.86648 0.149765 -4.9093e-19)
(1.41573 0.147541 6.7605e-20)
(1.22259 0.207615 2.77807e-20)
(0.985229 0.496979 -3.34276e-19)
(0.589739 0.643439 -9.45553e-20)
(0.859193 0.0887828 2.01459e-19)
(1.41814 0.136852 2.71862e-19)
(1.2509 0.24008 2.73738e-20)
(1.04631 0.601489 -1.10118e-19)
(0.782244 0.797124 7.8154e-19)
(0.85357 0.0295257 -7.40283e-20)
(1.43373 0.122441 -2.11901e-20)
(1.27333 0.273119 -6.80629e-20)
(1.16347 0.686605 -5.10389e-19)
(1.03713 0.929501 2.19607e-19)
(0.850456 -0.0282512 -2.88947e-20)
(1.45714 0.105141 -5.37472e-19)
(1.31052 0.304256 1.23679e-19)
(1.32795 0.747166 1.19069e-18)
(1.33428 1.03495 9.30584e-19)
(0.85004 -0.0820113 6.09829e-20)
(1.48574 0.0881935 8.89299e-20)
(1.35958 0.33722 -6.23535e-20)
(1.51154 0.788932 -3.68076e-19)
(1.6347 1.08755 -2.8002e-18)
(0.8565 -0.165257 3.32742e-19)
(1.51768 0.0575338 3.64415e-19)
(1.45954 0.333533 -6.39273e-21)
(1.7663 0.773549 2.77501e-18)
(2.15037 1.13952 -5.52166e-18)
(0.854288 -0.297776 -3.21824e-20)
(1.48064 -0.00715666 -5.42064e-19)
(1.4761 0.243484 1.1088e-20)
(1.86028 0.578116 -2.92278e-18)
(2.59668 0.899098 1.65253e-18)
(0.779773 -0.408714 5.1566e-18)
(1.17863 -0.0756122 6.18015e-35)
(1.17616 0.133121 -2.19029e-18)
(1.58628 0.326926 2.75795e-18)
(2.4599 0.528214 5.03444e-18)
(0.630907 -0.288085 1.52942e-19)
(0.752519 -0.0663875 4.94009e-19)
(0.752583 0.0496484 2.65024e-19)
(1.07745 0.130817 6.31071e-19)
(1.75861 0.220271 -8.62867e-18)
(0.321176 -0.0433361 -4.28864e-18)
(0.302915 0.00275626 2.6807e-19)
(0.272224 -0.0106639 1.05626e-18)
(0.39405 -0.0238762 -7.85579e-19)
(0.685859 -0.000250209 -1.46099e-18)
(2.34777 1.11992 4.67382e-18)
(2.78683 1.01192 3.46037e-18)
(3.14068 0.803046 -5.68041e-18)
(3.41894 0.519419 -1.46083e-17)
(3.58245 0.185779 1.57598e-17)
(3.07977 1.01842 5.00298e-18)
(3.35489 0.795022 2.56598e-17)
(3.55767 0.560592 7.24635e-18)
(3.70162 0.331788 -3.0845e-17)
(3.77823 0.111089 -5.17425e-18)
(2.90683 0.591729 -7.23841e-18)
(2.98654 0.448038 -3.38313e-18)
(3.05244 0.312188 -6.3086e-18)
(3.09536 0.181843 -6.88976e-18)
(3.11408 0.0585126 6.52222e-18)
(2.10609 0.266199 5.40111e-18)
(2.12993 0.206056 -4.05544e-19)
(2.16241 0.143273 4.86837e-18)
(2.18306 0.0822754 6.28771e-18)
(2.19076 0.0260629 -5.88699e-18)
(0.842224 0.0221539 -5.7286e-19)
(0.851708 0.0157084 3.51645e-18)
(0.868507 0.00915987 2.44158e-18)
(0.877435 0.00480705 -5.16804e-18)
(0.879822 0.00136791 -3.84201e-20)
(0.281852 0.0207513 5.51878e-19)
(0.656508 0.0404557 -7.43222e-19)
(0.972927 0.0440548 -8.18771e-19)
(0.944119 0.0274238 -1.51788e-18)
(0.69768 0.0163807 -6.63725e-19)
(0.245501 0.0554452 7.45201e-19)
(0.591112 0.107046 1.44168e-18)
(0.864481 0.125111 -6.96505e-19)
(0.939758 0.0969715 1.95988e-18)
(0.724008 0.0532168 -2.70106e-18)
(0.185557 0.0742433 4.95804e-19)
(0.476253 0.14586 -1.40021e-18)
(0.707595 0.184717 -9.13638e-19)
(0.857099 0.175342 -1.81119e-18)
(0.741436 0.101159 -2.86244e-18)
(0.123272 0.0774649 -7.73053e-19)
(0.344663 0.160372 -1.37684e-18)
(0.534406 0.214862 4.39305e-18)
(0.677432 0.233184 -3.65937e-19)
(0.712937 0.179902 2.24158e-18)
(0.0752878 0.0723949 -6.25435e-19)
(0.230647 0.160233 1.5611e-18)
(0.372128 0.224521 5.95469e-19)
(0.482335 0.25728 -1.28721e-18)
(0.560419 0.257703 -1.7731e-19)
(0.0452268 0.0639274 7.49131e-20)
(0.150053 0.149059 -1.1991e-18)
(0.247736 0.21178 -8.95859e-19)
(0.32486 0.232597 -1.46602e-19)
(0.370844 0.221958 -5.18456e-20)
(0.0262999 0.0558575 3.12424e-19)
(0.0953646 0.133783 5.39315e-19)
(0.161093 0.181427 -2.49638e-19)
(0.213784 0.189936 2.65536e-19)
(0.254243 0.178876 1.77273e-19)
(0.012854 0.0481228 2.37608e-19)
(0.0591514 0.107008 1.51078e-18)
(0.104127 0.113332 -1.30285e-18)
(0.143567 0.0986331 -2.81928e-18)
(0.180598 0.0766857 4.25321e-19)
(0.00654436 0.0376574 -2.42155e-19)
(0.0428654 0.0412064 -1.77225e-18)
(0.0791192 0.0137283 3.18587e-18)
(0.119034 -0.0183548 1.33348e-18)
(0.160203 -0.0523319 -2.72439e-19)
(0.00780803 -0.00442469 1.89758e-19)
(0.0399801 -0.0561097 -4.24218e-19)
(0.0792943 -0.102536 8.82162e-20)
(0.127175 -0.150774 1.06966e-19)
(0.17705 -0.197314 -9.02181e-21)
(0.344798 0.0649755 -9.96783e-20)
(0.628384 -0.041032 -1.19478e-18)
(0.714788 -0.0187717 2.60913e-19)
(0.750278 -0.00537823 3.68381e-19)
(0.76463 -0.00179161 2.27485e-20)
(0.311892 -0.0449907 -9.21838e-20)
(0.765674 -0.113073 1.35057e-18)
(0.89833 -0.0318207 9.46242e-19)
(0.952495 -0.00939664 8.43612e-20)
(0.977241 -0.00284467 -6.36645e-20)
(0.325007 -0.160035 -8.1412e-19)
(0.842726 -0.195023 2.82076e-18)
(1.05174 -0.0561295 -1.95651e-19)
(1.13503 -0.0166048 -3.72918e-19)
(1.16874 -0.00452912 1.11158e-19)
(0.372524 -0.29789 1.08064e-18)
(0.881243 -0.292648 -2.19385e-18)
(1.14571 -0.102173 -5.17569e-19)
(1.26644 -0.0346757 -4.09144e-20)
(1.31687 -0.00929519 -1.43585e-20)
(0.454418 -0.445809 5.09765e-19)
(0.907891 -0.397626 -5.31347e-19)
(1.19976 -0.155717 4.38452e-19)
(1.30912 -0.0561591 1.56842e-19)
(1.35522 -0.0152368 -3.81236e-20)
(0.183286 -0.0446744 9.53065e-19)
(0.148045 -0.00448507 0)
(0.165599 0.00179162 1.2158e-19)
(0.170736 0.00091246 4.45526e-20)
(0.171567 0.000200218 -9.25752e-20)
(0.404641 0.0691941 0)
(0.418497 -0.000899625 0)
(0.475283 -0.00641269 1.08002e-19)
(0.492616 -0.00139735 9.64253e-20)
(0.496988 -0.000555516 1.12996e-20)
(0.16262 -0.000820917 -3.68307e-19)
(0.186326 -0.00179165 3.1071e-18)
(0.213122 -0.00501854 -6.87275e-19)
(0.229712 -0.0149805 -3.11566e-18)
(0.245572 -0.0168694 -7.95517e-19)
(0.431867 0.00443982 6.09713e-19)
(0.484383 0.0196869 4.11568e-18)
(0.536298 0.0466463 -6.73462e-18)
(0.567649 0.0804535 2.20613e-18)
(0.598663 0.162244 3.78808e-18)
(0.370722 -0.218976 -3.53818e-19)
(0.323856 -0.230029 -8.16319e-20)
(0.24826 -0.211886 -2.83086e-19)
(0.150835 -0.150798 3.72633e-19)
(0.0458763 -0.0646994 1.15446e-19)
(0.258778 -0.163851 4.28156e-19)
(0.215524 -0.176384 1.45396e-18)
(0.162604 -0.172986 3.02876e-19)
(0.0969904 -0.133673 2.36562e-19)
(0.0266424 -0.057083 -1.24458e-20)
(0.193596 -0.0480247 -3.18719e-19)
(0.151611 -0.0706433 -9.7764e-20)
(0.108459 -0.0883948 1.66091e-18)
(0.0623861 -0.0921029 3.10702e-19)
(0.0127678 -0.0468394 -3.05661e-19)
(0.174744 0.0916169 -6.55881e-19)
(0.129475 0.0580295 -7.20324e-19)
(0.0852527 0.0247624 1.29955e-18)
(0.0477567 -0.00495447 1.59728e-18)
(0.0113857 -0.0269113 2.04033e-19)
(0.182024 0.245491 1.19576e-19)
(0.129023 0.199314 -1.22325e-19)
(0.0779979 0.149611 2.46327e-19)
(0.0355034 0.0982523 5.77126e-19)
(-0.00342785 0.035954 7.59004e-20)
(0.697676 -0.0163363 1.5309e-18)
(0.944123 -0.0274016 -1.80055e-18)
(0.972736 -0.0441818 2.26926e-18)
(0.65652 -0.0405188 3.64153e-19)
(0.281886 -0.0207601 5.36443e-19)
(0.723997 -0.0531104 1.77123e-18)
(0.939614 -0.096987 7.94584e-18)
(0.864279 -0.125216 1.03344e-18)
(0.591165 -0.107088 1.34902e-18)
(0.245598 -0.0554668 -4.78285e-19)
(0.741355 -0.100915 -1.22448e-18)
(0.856498 -0.17518 -2.29397e-18)
(0.707516 -0.184778 2.92352e-18)
(0.476325 -0.145934 -1.08622e-19)
(0.185683 -0.0742816 3.39719e-19)
(0.712448 -0.179723 2.96887e-20)
(0.676727 -0.233108 -7.67219e-18)
(0.534431 -0.215163 -5.98654e-18)
(0.344803 -0.1607 1.09046e-18)
(0.123457 -0.0775723 5.08225e-19)
(0.558253 -0.256236 4.77766e-19)
(0.481334 -0.25663 5.32149e-19)
(0.372187 -0.225112 -8.91443e-19)
(0.230913 -0.161052 -8.84855e-19)
(0.0756308 -0.0726541 -5.12794e-21)
(0.72169 0.369599 1.15008e-18)
(0.920456 0.116988 -1.75576e-19)
(0.707307 0.0242878 2.6642e-19)
(0.655406 0.0402038 -7.34617e-19)
(0.369314 -0.0580353 -1.01899e-19)
(0.81717 0.394 -1.60678e-19)
(1.14601 0.140836 -5.43747e-19)
(0.900389 0.0469016 7.50301e-19)
(0.809893 0.107754 1.60165e-18)
(0.347982 0.0607189 1.06444e-19)
(0.867341 0.357525 -1.92257e-18)
(1.36234 0.148609 -4.15719e-20)
(1.05632 0.0808352 1.79894e-19)
(0.901314 0.188501 1.376e-18)
(0.366073 0.182681 -1.24534e-18)
(0.877264 0.286011 1.23901e-18)
(1.44631 0.151032 4.19576e-20)
(1.1434 0.125567 -1.50969e-19)
(0.942679 0.285432 -1.97447e-19)
(0.406921 0.326945 -4.80536e-19)
(0.873584 0.214474 1.52682e-19)
(1.42809 0.152518 -5.79099e-20)
(1.18664 0.170296 -5.95143e-20)
(0.961998 0.389088 6.44691e-20)
(0.472071 0.481808 1.37905e-18)
(0.274431 0.0482979 0)
(0.248413 -0.00948281 6.20774e-19)
(0.164077 -0.0155541 1.28261e-19)
(0.153625 0.00454546 -1.7541e-19)
(0.184884 0.043581 -1.80849e-18)
(0.569788 0.264906 -1.01663e-17)
(0.626644 0.071942 -2.42385e-18)
(0.467002 0.013123 5.67103e-19)
(0.432837 0.00225149 -6.70492e-19)
(0.411857 -0.0670658 -6.64668e-19)
(0.245731 0.0168034 -6.18248e-22)
(0.229811 0.0150609 1.92719e-18)
(0.213201 0.00506139 5.23317e-19)
(0.186376 0.00180147 3.23288e-19)
(0.162635 0.000824766 0)
(0.599492 -0.162052 -1.08966e-19)
(0.568182 -0.080162 2.55831e-18)
(0.536401 -0.0464264 -1.33947e-19)
(0.484441 -0.0196343 -2.69328e-19)
(0.431891 -0.00441764 7.60103e-19)
)
;

boundaryField
{
    left
    {
        type            fixedValue;
        value           uniform (1 0 0);
    }
    right
    {
        type            zeroGradient;
    }
    down
    {
        type            noSlip;
    }
    up
    {
        type            noSlip;
    }
    cylinder
    {
        type            noSlip;
    }
    defaultFaces
    {
        type            empty;
    }
}


// ************************************************************************* //
