# Selection   : all
# Cells       : 440
# Volume      : 7.374263e+01
# Time        	maxMag(U)
5.115         	2.738990e+00
5.16          	2.749586e+00
5.21          	2.760961e+00
