/*--------------------------------*- C++ -*----------------------------------*\
  =========                 |
  \\      /  F ield         | OpenFOAM: The Open Source CFD Toolbox
   \\    /   O peration     | Website:  https://openfoam.org
    \\  /    A nd           | Version:  13
     \\/     M anipulation  |
\*---------------------------------------------------------------------------*/
FoamFile
{
    format      ascii;
    class       volScalarField;
    location    "0.075";
    object      p;
}
// * * * * * * * * * * * * * * * * * * * * * * * * * * * * * * * * * * * * * //

dimensions      [0 2 -2 0 0 0 0];

internalField   nonuniform List<scalar> 
1800
(
-0.859462
-0.757692
-0.646779
-0.540937
-0.44857
-0.369169
-0.300405
-0.240236
-0.186843
-0.141861
-1.0094
-0.89703
-0.773492
-0.65483
-0.550669
-0.460677
-0.382447
-0.313994
-0.254206
-0.204611
-1.14827
-1.02555
-0.889813
-0.758938
-0.643658
-0.543725
-0.456612
-0.380248
-0.313406
-0.256754
-1.27107
-1.13847
-0.99137
-0.849182
-0.723754
-0.614832
-0.519742
-0.436293
-0.363161
-0.300635
-1.37267
-1.23091
-1.07356
-0.921171
-0.786739
-0.669864
-0.567701
-0.477939
-0.399164
-0.331223
-1.44802
-1.29811
-1.13189
-0.97061
-0.828541
-0.704925
-0.596751
-0.501611
-0.417992
-0.345359
-1.49249
-1.33573
-1.16224
-0.993584
-0.845484
-0.716506
-0.603532
-0.504082
-0.416556
-0.340097
-1.50215
-1.33999
-1.16108
-0.986789
-0.834488
-0.701655
-0.585202
-0.482618
-0.39222
-0.312891
-1.47407
-1.30785
-1.12573
-0.947785
-0.793298
-0.658161
-0.539625
-0.435154
-0.342982
-0.261794
-1.40656
-1.23735
-1.05492
-0.874586
-0.720616
-0.584775
-0.465578
-0.360465
-0.267567
-0.185512
0.304878
0.329302
0.351261
0.366204
0.375305
0.380393
0.382634
0.382771
0.381339
0.378846
0.27244
0.299801
0.324929
0.343044
0.355029
0.362688
0.36722
0.369403
0.369795
0.369017
0.213688
0.245556
0.275536
0.298519
0.31492
0.3265
0.334515
0.339793
0.342942
0.344768
0.130467
0.168211
0.204575
0.233995
0.256227
0.272963
0.285536
0.294847
0.301566
0.306756
0.025263
0.0700113
0.114128
0.151401
0.180738
0.203731
0.221805
0.235951
0.246915
0.256076
-0.0988013
-0.0461312
0.00694466
0.0533186
0.0908859
0.121098
0.145486
0.165145
0.180906
0.194507
-0.237996
-0.176637
-0.113552
-0.0569857
-0.0101949
0.0280898
0.0595141
0.0852785
0.106306
0.12474
-0.388104
-0.317386
-0.243371
-0.175642
-0.118717
-0.0715464
-0.0323786
8.0306e-05
0.0268288
0.0504575
-0.544646
-0.463977
-0.378233
-0.298461
-0.230516
-0.173602
-0.125884
-0.086017
-0.0528985
-0.0235504
-0.703165
-0.612066
-0.513925
-0.421323
-0.341445
-0.273719
-0.216205
-0.167485
-0.126185
-0.0899316
0.337726
0.251592
0.212645
0.178032
0.147209
0.119008
0.0920353
0.0655994
0.039314
0.013075
0.338731
0.257627
0.217507
0.181771
0.149921
0.120893
0.0933015
0.0664005
0.0397526
0.0132073
0.332912
0.262895
0.222095
0.185555
0.152818
0.122984
0.094751
0.0673413
0.0402774
0.0133683
0.319779
0.267113
0.226416
0.189367
0.155882
0.125269
0.0963749
0.068416
0.0408855
0.0135575
0.298841
0.269748
0.230439
0.193182
0.159087
0.127733
0.0981627
0.0696177
0.0415733
0.0137741
0.269965
0.26991
0.234037
0.196957
0.162401
0.130355
0.100102
0.0709383
0.0423365
0.0140175
0.233722
0.266469
0.236918
0.200618
0.165788
0.133112
0.102178
0.0723689
0.0431706
0.0142869
0.190702
0.258996
0.238739
0.204073
0.169207
0.135982
0.104376
0.0738993
0.0440701
0.014581
0.141082
0.247023
0.239034
0.207171
0.172612
0.138945
0.106686
0.0755233
0.0450318
0.0148995
0.0883813
0.232066
0.238273
0.210036
0.176041
0.142015
0.109113
0.0772426
0.0460572
0.0152469
0.0747079
0.231429
0.241471
0.213827
0.17944
0.144731
0.111125
0.0786094
0.0468763
0.0155751
0.0755282
0.220222
0.234094
0.210616
0.178492
0.144722
0.111405
0.0788935
0.047078
0.0156627
0.0922842
0.214287
0.228372
0.207473
0.177189
0.14437
0.11144
0.0790225
0.0471914
0.0157181
0.113212
0.210705
0.223231
0.204186
0.17554
0.143702
0.111244
0.0790021
0.0472194
0.0157438
0.135414
0.20901
0.218685
0.200859
0.173641
0.142776
0.110846
0.0788456
0.047168
0.0157418
0.155712
0.208324
0.214611
0.197558
0.171581
0.141653
0.110282
0.0785707
0.0470454
0.0157139
0.171947
0.207789
0.210831
0.194313
0.169429
0.14039
0.109586
0.0781965
0.0468601
0.0156625
0.182844
0.206586
0.207105
0.191101
0.167223
0.139024
0.108784
0.0777372
0.046618
0.0155887
0.187111
0.203667
0.202925
0.187688
0.164842
0.137485
0.107827
0.0771581
0.0462902
0.0154738
0.188802
0.20411
0.202363
0.187107
0.164439
0.137253
0.107707
0.0770989
0.046263
0.0154675
-0.0463187
-0.120486
-0.173762
-0.206774
-0.221021
-0.218606
-0.201662
-0.173177
-0.135008
-0.0950215
0.105332
0.0321589
-0.0241016
-0.0640899
-0.0888649
-0.100208
-0.0994252
-0.090717
-0.0730082
-0.0579136
0.221497
0.151166
0.0946513
0.0516095
0.0212985
0.00224956
-0.00636017
-0.00839169
-0.00172032
0.00235449
0.31098
0.242907
0.186724
0.142216
0.108796
0.0852767
0.0708955
0.0625744
0.0615033
0.0588626
0.37942
0.313284
0.257625
0.212352
0.177001
0.150621
0.132375
0.119993
0.113665
0.106998
0.431435
0.366737
0.311506
0.265759
0.229129
0.200853
0.180039
0.16504
0.155296
0.146096
0.470089
0.406275
0.351206
0.304992
0.267356
0.237693
0.215107
0.198367
0.186403
0.175541
0.49745
0.433903
0.378588
0.331697
0.293045
0.262176
0.238245
0.220336
0.20704
0.195313
0.514816
0.450651
0.394364
0.346229
0.306145
0.273788
0.248433
0.229479
0.215449
0.204131
0.523851
0.457443
0.398661
0.347817
0.304959
0.26995
0.24218
0.221549
0.206257
0.196719
1.579
1.53451
1.48661
1.43611
1.38039
1.31727
1.24481
1.16173
1.07227
0.987455
1.37338
1.32298
1.26933
1.21063
1.14469
1.06981
0.984087
0.886424
0.781973
0.682216
1.15325
1.09931
1.04062
0.974898
0.90036
0.815334
0.717788
0.606777
0.488444
0.374167
0.938129
0.879249
0.814228
0.740921
0.657659
0.562627
0.453586
0.32971
0.198277
0.0699138
0.731895
0.667339
0.59568
0.514803
0.423013
0.318314
0.198255
0.0621052
-0.081405
-0.22318
0.536029
0.46617
0.388391
0.300599
0.201042
0.0875406
-0.042595
-0.190101
-0.344122
-0.498353
0.353264
0.278941
0.195947
0.102258
-0.00390817
-0.12492
-0.263854
-0.421806
-0.584066
-0.74953
0.186907
0.1091
0.0219356
-0.0764767
-0.187858
-0.314643
-0.460605
-0.628919
-0.796306
-0.971142
0.040167
-0.0401464
-0.130462
-0.232502
-0.347939
-0.478651
-0.628341
-0.807334
-0.978723
-1.15517
-0.0842616
-0.166173
-0.258601
-0.363075
-0.481602
-0.616458
-0.765571
-0.948567
-1.12814
-1.29938
2.87666
2.89727
2.92321
2.95192
2.98074
3.00883
3.03572
3.06078
3.08371
3.09981
2.81946
2.83822
2.86185
2.88796
2.91395
2.93892
2.96238
2.98365
3.00255
3.01534
2.7414
2.7574
2.77756
2.79974
2.82143
2.8417
2.85996
2.87546
2.88819
2.89633
2.64313
2.65556
2.67118
2.68819
2.70423
2.7183
2.72969
2.73756
2.74213
2.74434
2.5257
2.53386
2.54395
2.55467
2.56383
2.57033
2.57335
2.57193
2.56667
2.56089
2.39069
2.39393
2.39763
2.40104
2.4022
2.39991
2.39319
2.38101
2.36441
2.34861
2.24013
2.23798
2.23457
2.22979
2.22195
2.20974
2.19205
2.16778
2.13848
2.11096
2.07656
2.06869
2.05758
2.04379
2.02603
2.00289
1.97313
1.9356
1.89247
1.85185
1.90556
1.89171
1.87182
1.84771
1.81871
1.78341
1.74035
1.68841
1.63042
1.57564
1.73315
1.70941
1.67823
1.64251
1.60145
1.55322
1.49615
1.4291
1.35565
1.28605
3.06329
1.92626
2.75176
2.61837
2.5924
2.58977
2.60057
2.63093
2.70594
2.80505
3.05529
1.91665
2.74501
2.61013
2.583
2.57856
2.58645
2.61243
2.67828
2.76568
3.04859
1.90566
2.73979
2.60168
2.57286
2.56611
2.57021
2.5904
2.6427
2.71407
3.04306
1.89343
2.73619
2.593
2.562
2.55246
2.55189
2.56477
2.59953
2.64977
3.03856
1.88017
2.73424
2.58402
2.55043
2.53763
2.53155
2.53548
2.54912
2.57242
3.03491
1.86613
2.73402
2.57463
2.53815
2.52166
2.50922
2.50242
2.49156
2.48222
3.03196
1.85165
2.73553
2.56467
2.52518
2.50457
2.4849
2.46545
2.42681
2.37961
3.02952
1.83709
2.73872
2.55396
2.51156
2.48642
2.4586
2.42466
2.35705
2.26329
3.0274
1.8229
2.74348
2.54231
2.49738
2.46726
2.43036
2.3803
2.28321
2.1318
3.02524
1.80961
2.74959
2.52954
2.48284
2.44724
2.40066
2.33401
2.20884
1.99358
3.02344
1.79704
2.74547
2.51821
2.46536
2.42106
2.36037
2.27144
2.11129
1.83435
3.02537
1.78742
2.73102
2.50981
2.44794
2.394
2.31985
2.21247
2.0287
1.74021
3.02819
1.78058
2.71862
2.50152
2.43205
2.36931
2.28367
2.16194
1.96309
1.67723
3.03261
1.77629
2.70844
2.49377
2.41785
2.34737
2.25216
2.11939
1.91185
1.63191
3.03939
1.77434
2.70049
2.48692
2.40554
2.3285
2.22556
2.08454
1.8728
1.5989
3.04924
1.77462
2.69468
2.48124
2.3953
2.31288
2.20394
2.057
1.84396
1.57555
3.06288
1.77701
2.69078
2.4769
2.38726
2.30066
2.18727
2.03631
1.82368
1.56013
3.08574
1.78148
2.68844
2.47395
2.3815
2.29188
2.17546
2.02201
1.81066
1.55153
3.108
1.78828
2.68718
2.47237
2.37811
2.28663
2.1685
2.01396
1.80449
1.55022
3.15425
1.79421
2.68811
2.47038
2.37577
2.28304
2.16375
2.00829
1.79971
1.54799
1.55067
1.37016
1.16874
0.974308
0.789951
0.614659
0.450115
0.299074
0.16429
0.0484755
1.46302
1.32169
1.16167
1.00135
0.846261
0.696562
0.55408
0.421534
0.301421
0.195574
1.41098
1.29304
1.15868
1.02039
0.885339
0.754508
0.629126
0.511228
0.402797
0.305568
1.3782
1.27488
1.15918
1.03826
0.918535
0.801522
0.68839
0.580973
0.481168
0.390688
1.35897
1.2655
1.16267
1.05413
0.945373
0.838325
0.734157
0.63452
0.541172
0.455687
1.3487
1.26201
1.16801
1.06821
0.967342
0.867472
0.769758
0.675728
0.587032
0.505174
1.34451
1.26252
1.17453
1.08072
0.985332
0.89045
0.797212
0.707055
0.621553
0.542156
1.3447
1.26595
1.18193
1.09199
1.00011
0.908413
0.818001
0.730246
0.646664
0.568665
1.35052
1.2741
1.19224
1.1041
1.01378
0.923422
0.834108
0.747167
0.664068
0.586197
1.36016
1.28679
1.20597
1.11824
1.02824
0.937943
0.848365
0.760809
0.676693
0.597337
-2.6389
-2.41458
-2.1773
-1.9565
-1.77731
-1.6311
-1.51296
-1.41899
-1.34626
-1.293
-2.74109
-2.52255
-2.28552
-2.06699
-1.88695
-1.74039
-1.62206
-1.52791
-1.4549
-1.40164
-2.72981
-2.51879
-2.28735
-2.07304
-1.89474
-1.74926
-1.63136
-1.53701
-1.46316
-1.408
-2.61973
-2.41893
-2.19738
-1.99068
-1.81709
-1.67465
-1.55841
-1.46444
-1.38985
-1.33266
-2.43298
-2.24529
-2.03741
-1.84189
-1.67625
-1.5394
-1.42675
-1.33458
-1.26017
-1.20214
-2.19443
-2.02212
-1.83109
-1.65016
-1.4958
-1.36743
-1.26087
-1.17271
-1.10038
-1.04356
-1.92717
-1.7717
-1.59978
-1.43623
-1.29603
-1.17883
-1.08093
-0.999272
-0.93144
-0.878201
-1.6498
-1.51181
-1.3601
-1.21567
-1.09159
-0.987566
-0.900297
-0.82713
-0.765912
-0.718162
-1.37554
-1.2549
-1.12347
-0.998745
-0.891735
-0.802003
-0.726623
-0.663262
-0.609968
-0.569747
-1.11285
-1.00879
-0.89679
-0.791354
-0.701331
-0.626027
-0.562754
-0.509234
-0.462884
-0.425898
-0.866725
-0.778055
-0.684123
-0.596985
-0.523532
-0.46296
-0.413173
-0.372633
-0.339695
-0.310916
-0.639685
-0.564835
-0.487007
-0.416192
-0.357428
-0.309641
-0.270928
-0.239862
-0.215224
-0.193209
-0.433332
-0.370607
-0.306718
-0.249966
-0.203736
-0.16668
-0.137037
-0.113483
-0.0949499
-0.0783538
-0.24921
-0.196977
-0.144955
-0.100137
-0.0645118
-0.0365266
-0.0145665
0.00255239
0.0157735
0.027483
-0.0889301
-0.0456398
-0.00353479
0.0313407
0.0581274
0.0785197
0.093996
0.105603
0.114159
0.121465
0.0459455
0.081827
0.115886
0.142728
0.162363
0.176575
0.186727
0.193752
0.198367
0.201908
0.154062
0.184142
0.212006
0.232696
0.246851
0.256299
0.262315
0.265746
0.267226
0.267734
0.234399
0.260393
0.283931
0.300356
0.31071
0.316841
0.31996
0.320851
0.320091
0.318397
0.286352
0.310045
0.331156
0.345206
0.353455
0.357749
0.35926
0.358737
0.356721
0.353765
0.309755
0.332937
0.35353
0.367097
0.374935
0.378886
0.380107
0.379332
0.37709
0.373867
-0.101301
0.0916883
0.134977
0.138648
0.129156
0.111834
0.0901315
0.0658873
0.0400439
0.0133932
-0.012896
0.12774
0.149248
0.144594
0.130815
0.111751
0.0894699
0.0651718
0.0395405
0.0132238
0.0646932
0.156062
0.160174
0.148833
0.132175
0.111772
0.0889784
0.0646051
0.0391333
0.0130853
0.129926
0.17821
0.169194
0.152785
0.133565
0.111958
0.0886711
0.0641904
0.0388226
0.0129779
0.184673
0.195827
0.176957
0.156486
0.135031
0.112326
0.0885554
0.0639299
0.0386083
0.0129013
0.230168
0.209451
0.183891
0.160062
0.136619
0.112894
0.088636
0.0638242
0.03849
0.0128551
0.266774
0.22041
0.190278
0.163599
0.138359
0.113673
0.0889159
0.0638735
0.0384673
0.0128393
0.295135
0.229417
0.196312
0.167142
0.140276
0.114672
0.0893969
0.0640773
0.0385395
0.0128536
0.316181
0.237559
0.202051
0.17072
0.142385
0.115894
0.0900786
0.0644344
0.0387056
0.0128978
0.3302
0.244905
0.207495
0.174348
0.144695
0.11734
0.0909592
0.0649428
0.0389643
0.0129717
-0.288164
-0.00360767
0.0870148
0.116707
0.11938
0.107906
0.0888888
0.0657354
0.0402168
0.0135291
-0.261405
0.00730856
0.0919893
0.118842
0.12026
0.108251
0.0889936
0.0657449
0.0401989
0.0135177
-0.230837
0.0246742
0.100727
0.1228
0.121952
0.108899
0.0891872
0.0657598
0.0401599
0.0134907
-0.196795
0.0448744
0.111404
0.127818
0.124106
0.10989
0.0895916
0.0659004
0.0401934
0.01349
-0.155461
0.0682684
0.124044
0.133885
0.127153
0.111216
0.090188
0.0661552
0.0402909
0.0135118
-1.22747
-1.32964
-1.34808
-1.29948
-1.20555
-1.08835
-0.962848
-0.838018
-0.712147
-0.594378
-1.23168
-1.33877
-1.35611
-1.30052
-1.19463
-1.05939
-0.910655
-0.765547
-0.626867
-0.517131
-1.23813
-1.34613
-1.35918
-1.29517
-1.17783
-1.03154
-0.876399
-0.730479
-0.596018
-0.493476
-1.24889
-1.35605
-1.36411
-1.29286
-1.16782
-1.01525
-0.856532
-0.70769
-0.573102
-0.467387
-1.26516
-1.37286
-1.3771
-1.29981
-1.1685
-1.01051
-0.847532
-0.692445
-0.549962
-0.42291
2.28784
2.26701
2.23966
2.20927
2.17509
2.13527
2.08831
2.03307
1.97261
1.91713
2.43135
2.42335
2.41034
2.39459
2.37542
2.35145
2.32147
2.28441
2.2425
2.20415
2.56194
2.56089
2.55813
2.55434
2.54799
2.53776
2.52258
2.50143
2.47584
2.45233
2.67561
2.68068
2.68616
2.69184
2.6958
2.69679
2.69389
2.68612
2.67442
2.66327
2.76869
2.77901
2.7914
2.80492
2.8174
2.82767
2.83495
2.83834
2.83832
2.83699
2.84068
2.85531
2.8733
2.89314
2.91243
2.93013
2.94558
2.958
2.96749
2.97342
2.89121
2.90911
2.93136
2.95597
2.98043
3.00377
3.02542
3.0447
3.0615
3.07267
2.92006
2.94019
2.96536
2.99323
3.02121
3.04838
3.07426
3.09821
3.11996
3.13505
2.92714
2.94849
2.97523
3.00487
3.03473
3.06396
3.09211
3.11855
3.14296
3.16029
2.91256
2.93409
2.9611
2.991
3.02115
3.05067
3.07914
3.10595
3.13073
3.1484
-1.07218
-1.1279
-1.20196
-1.2967
-1.41484
-1.55971
-1.73482
-1.95947
-2.19045
-2.41955
-0.742102
-0.803546
-0.882154
-0.980112
-1.0998
-1.24466
-1.42076
-1.63347
-1.85154
-2.09328
-0.323421
-0.395603
-0.482504
-0.58609
-0.708679
-0.853663
-1.02537
-1.22499
-1.43874
-1.67099
0.137259
0.0532421
-0.0418378
-0.150033
-0.273723
-0.416023
-0.58076
-0.769708
-0.974006
-1.18564
0.586785
0.497184
0.39944
0.291581
0.1713
0.0357322
-0.118671
-0.2941
-0.482986
-0.671913
0.99321
0.906523
0.813356
0.711975
0.600341
0.475968
0.335716
0.177476
0.00805801
-0.157215
1.34786
1.27009
1.18695
1.09684
0.997997
0.888344
0.765237
0.626811
0.479172
0.337849
1.65643
1.58945
1.51853
1.44193
1.35784
1.26456
1.15991
1.04231
0.917129
0.799221
1.92969
1.87162
1.81108
1.74716
1.6775
1.60039
1.51402
1.41694
1.31374
1.21802
2.1576
2.10889
2.05735
2.00569
1.95095
1.89071
1.82309
1.74662
1.66497
1.59008
3.21037
1.95468
2.89551
2.66354
2.6363
2.63327
2.63297
2.63033
2.58674
2.5013
3.19094
1.95473
2.87614
2.66543
2.63615
2.63384
2.6365
2.64328
2.61962
2.5954
3.17235
1.95492
2.85736
2.66514
2.6353
2.63364
2.63977
2.65507
2.65265
2.67763
3.1547
1.95486
2.8395
2.66297
2.63354
2.63246
2.64143
2.66396
2.68227
2.74112
3.13805
1.95423
2.82281
2.65922
2.63073
2.63015
2.64136
2.66944
2.70708
2.78867
3.12248
1.95275
2.80743
2.65419
2.62682
2.62664
2.63952
2.67157
2.72497
2.82301
3.10808
1.95018
2.79343
2.64818
2.62184
2.62186
2.6358
2.67031
2.73621
2.84412
3.09491
1.94635
2.78086
2.64141
2.61583
2.61579
2.63012
2.66563
2.74035
2.85243
3.08304
1.94113
2.76971
2.63409
2.60888
2.60841
2.62239
2.65751
2.73689
2.84812
3.07253
1.93444
2.76001
2.62638
2.60105
2.59973
2.61255
2.64595
2.72548
2.83249
3.36746
1.98184
2.91301
2.67358
2.6389
2.6274
2.61055
2.57924
2.47191
2.31888
3.31737
1.97596
2.91037
2.67332
2.63866
2.62797
2.61227
2.58271
2.47845
2.32138
3.28691
1.96939
2.9106
2.67142
2.63831
2.62891
2.61518
2.58871
2.49096
2.32789
3.25821
1.96314
2.90922
2.66828
2.63764
2.63012
2.61958
2.59814
2.5119
2.35131
3.2318
1.95728
2.90709
2.66403
2.6367
2.63147
2.62513
2.61083
2.54103
2.39449
2.03869
1.90297
1.68475
1.3831
1.00847
0.565503
0.0847411
-0.374117
-0.753185
-1.03622
2.02094
1.87641
1.65985
1.36854
1.0119
0.590155
0.12313
-0.335588
-0.729174
-1.02891
2.03247
1.87487
1.65125
1.36355
1.01695
0.60845
0.151319
-0.310043
-0.716147
-1.02837
2.07321
1.89526
1.6584
1.36912
1.02502
0.621065
0.167285
-0.297639
-0.713142
-1.0345
2.14404
1.93521
1.67557
1.37825
1.03204
0.629002
0.176686
-0.290588
-0.713881
-1.0447
)
;

boundaryField
{
    left
    {
        type            zeroGradient;
    }
    right
    {
        type            fixedValue;
        value           uniform 0;
    }
    down
    {
        type            zeroGradient;
    }
    up
    {
        type            zeroGradient;
    }
    cylinder
    {
        type            zeroGradient;
    }
    defaultFaces
    {
        type            empty;
    }
}


// ************************************************************************* //
