/*--------------------------------*- C++ -*----------------------------------*\
  =========                 |
  \\      /  F ield         | OpenFOAM: The Open Source CFD Toolbox
   \\    /   O peration     | Website:  https://openfoam.org
    \\  /    A nd           | Version:  13
     \\/     M anipulation  |
\*---------------------------------------------------------------------------*/
FoamFile
{
    format      ascii;
    class       surfaceScalarField;
    location    "0.65";
    object      phi;
}
// * * * * * * * * * * * * * * * * * * * * * * * * * * * * * * * * * * * * * //

dimensions      [0 3 -1 0 0 0 0];

internalField   nonuniform List<scalar> 
823
(
0.0231094
-0.0376522
0.0145428
0.0684996
-0.188459
0.143069
0.113905
-0.273013
0.227608
0.152062
-0.302243
0.264086
-0.302993
0.268378
0.186676
0.0321743
-0.0698265
0.0818406
-0.238125
0.125356
-0.316529
0.161311
-0.338197
-0.337606
0.195924
0.0376222
-0.107449
0.0835026
-0.284006
0.116697
-0.349724
0.139905
-0.361405
-0.353931
0.156229
0.039288
-0.146737
0.0772048
-0.321922
0.100179
-0.372698
0.114377
-0.375603
-0.366248
0.126693
0.0338571
-0.180594
0.0573769
-0.345442
0.0656109
-0.380932
0.0681351
-0.378127
0.0684791
-0.366592
-0.00740473
0.00565303
0.0017517
0.00554091
-0.0263924
0.0134467
0.0384861
-0.0553871
0.0224419
0.0825911
-0.0707714
0.0266664
-0.0803401
0.134599
0.0283322
-0.00411577
0.0097688
0.0137067
-0.0442148
0.0505532
-0.0922336
0.0974121
-0.11763
-0.133065
0.150137
0.00148767
0.00828114
0.0269802
-0.0697073
0.0692946
-0.134548
0.119455
-0.167791
-0.184838
0.171229
0.00813693
0.000144212
0.0418569
-0.103427
0.0883928
-0.181084
0.139086
-0.218484
-0.230746
0.184993
0.0146871
0.0543284
0.100853
0.146454
0.184087
0.329676
-0.406719
0.211642
0.385187
-0.196627
0.141116
0.402341
-0.108894
0.0917403
0.404241
-0.0578563
0.0559559
-0.0157987
0.0211064
0.319681
-0.576263
0.380501
-0.257447
0.400368
-0.128762
0.404182
-0.0616695
-0.0124762
0.30368
-0.708714
0.370493
-0.32426
0.394623
-0.152892
0.402275
-0.0693209
-0.0131934
0.285874
-0.809594
0.354962
-0.393349
0.384953
-0.182884
0.398473
-0.0828403
-0.019984
0.270912
-0.896419
0.335577
-0.458014
0.371847
-0.219153
0.392784
-0.103777
-0.0347638
0.779157
-0.701733
-0.973843
0.683855
-0.362712
0.645948
-0.181246
0.63165
-0.0894794
-0.0305139
0.794853
-0.487775
-1.00881
0.697648
-0.265507
0.656439
-0.140037
0.638094
-0.0711341
-0.0244414
0.814532
-0.299314
-1.00299
0.716907
-0.167881
0.667637
-0.0907677
0.64391
-0.0474073
-0.0164754
0.818682
-0.118487
-0.999509
0.720809
-0.0700075
0.669824
-0.0397832
0.644136
-0.021719
-0.00764185
0.696703
-0.81519
0.626696
0.586913
0.565194
0.949477
0.0470031
-0.928001
0.956406
0.119765
0.981468
0.131167
0.969634
0.207758
0.182468
0.882074
0.0275837
-0.862655
0.910827
0.0910123
0.940604
0.10139
0.983377
0.164985
0.157033
0.839468
0.0132925
-0.825176
0.87266
0.0578202
0.905035
0.0690145
0.957771
0.112249
0.11181
0.805862
0.000367036
-0.792936
0.842364
0.021318
0.881498
0.0298803
0.942163
0.0515846
0.0544642
0.657943
-0.657576
0.679261
0.709141
0.760726
0.131326
0.271675
-0.22559
-0.177411
0.0898506
0.280786
-0.23931
0.0519797
0.293094
-0.255223
0.0184366
0.290604
-0.257061
0.193344
-0.174907
0.122637
0.310069
-0.161032
0.0844199
0.319003
0.0478711
0.329642
0.0162945
0.322181
0.209638
0.0876286
0.338814
-0.116374
0.0572504
0.349381
0.0276342
0.359259
0.00451184
0.345303
0.21415
0.0361249
0.357853
-0.0551634
0.0160743
0.369432
-0.00143936
0.376772
-0.00976737
0.353631
0.204383
-0.0191239
0.0103849
-0.0278188
-0.0319782
-0.0237892
0.190549
0.0779216
-0.237549
-0.0309217
0.141526
0.0812608
-0.0322382
0.0899572
0.0854481
-0.0338791
0.0374175
0.0873074
-0.0347677
0.0635873
-0.0261698
0.183858
0.124016
-0.229952
0.136336
0.128782
0.0862234
0.135561
0.0357273
0.137803
0.0993146
0.158068
0.166562
-0.200614
0.115455
0.171395
0.0717042
0.179312
0.028473
0.181035
0.127788
0.156164
0.201946
-0.191548
0.116555
0.211005
0.072745
0.223121
0.0289977
0.224782
0.156785
0.110808
-0.134452
0.0825028
0.0504013
0.0181219
0.409055
0.0266479
-0.039723
0.411433
0.0695137
-0.0718924
0.401876
0.114022
-0.104464
0.355519
0.177954
-0.131596
0.330348
-0.212378
0.406367
0.0162609
0.406915
0.0689652
0.394576
0.126361
0.351484
0.221045
0.451881
0.401295
0.0109458
0.398023
0.0722369
0.380852
0.143532
0.342244
0.259654
0.59351
0.394024
0.0129015
0.384756
0.0815048
0.363669
0.164619
0.329114
0.294208
0.731077
0.384968
0.0239127
0.367644
0.098829
0.339429
0.192834
0.296935
0.336702
0.89356
0.612284
0.0156492
0.626077
0.0850359
0.651247
0.167664
0.700539
0.28741
0.713135
0.880964
0.616352
0.00331796
0.637419
0.0639687
0.672608
0.132475
0.738082
0.221936
0.528618
0.9226
0.620268
-0.0129299
0.647094
0.0371426
0.688803
0.0907664
0.762787
0.147952
0.34098
0.950425
0.621547
-0.0304563
0.651794
0.0068949
0.697978
0.0445827
0.775324
0.0706059
0.161506
0.954798
0.573564
0.580459
0.625042
0.695648
0.857153
0.913149
-0.209596
0.91416
-0.162043
0.911999
-0.114213
0.91684
-0.0600044
-0.000776393
0.896869
-0.183866
0.875234
-0.140408
0.858318
-0.097296
0.855558
-0.0572447
-0.00787331
0.896432
-0.129873
0.859087
-0.103063
0.834112
-0.0723207
0.821871
-0.0450042
-0.0111785
0.889036
-0.0641113
0.840125
-0.0541513
0.808642
-0.0408375
0.791884
-0.0282464
-0.0122308
0.793042
0.738891
0.698053
0.669807
0.0487378
0.216076
-0.264814
0.0629407
0.41812
-0.432323
0.0552717
0.459117
-0.451448
0.0430872
0.453184
-0.441
0.414166
0.0354111
-0.40649
0.0875062
0.12857
0.147067
0.358559
0.170578
0.435607
0.174803
0.448959
0.429251
0.159718
0.0912556
0.0373147
0.196657
0.253157
0.263037
0.369227
0.304686
0.40731
0.42704
0.306897
0.0592561
-0.0219414
0.170845
0.141568
0.269401
0.270672
0.347171
0.329539
0.360496
0.413715
0.0230271
-0.0449685
0.097261
0.0673336
0.187604
0.180329
0.269239
0.247905
0.276282
0.353453
-0.00120418
-0.0437643
0.0339625
0.032167
0.096635
0.117656
0.171229
0.17331
0.205856
0.241656
-0.0103218
-0.0334425
0.00562767
0.0162175
0.0494193
0.0738645
0.111301
0.111428
0.138907
0.17825
-0.0117084
-0.021734
-0.00170164
0.0062107
0.032563
0.0395998
0.0829669
0.0610244
0.0785456
0.143328
-0.0107334
-0.0110007
-0.00139985
-0.00312283
0.0295636
0.00863643
0.0741138
0.0164742
0.0238632
0.128796
-0.00924895
0.00107494
0.0321533
0.0752938
0.127489
0.282923
0.46453
-0.505797
0.327703
0.0839061
-0.128686
0.356674
-0.0144409
-0.0145301
0.377604
-0.0306504
0.00972052
-0.0210502
0.00570487
0.291432
0.351348
0.351453
0.023885
0.374349
-0.0373367
0.386682
-0.042984
-0.0282461
0.30797
0.186707
0.36563
-0.0337743
0.386212
-0.0579188
0.393607
-0.0503791
-0.0293661
0.323483
-0.00798034
0.377728
-0.0880192
0.395205
-0.0753957
0.398905
-0.0540795
-0.0263162
0.331151
0.384247
0.400592
0.402468
0.386569
0.0971641
-0.483733
0.397765
-0.0111961
0.408299
-0.010534
0.416174
-0.00787546
-0.00303562
0.662722
-1.07136
0.52284
0.497776
0.499621
0.0956651
-0.00451161
-0.0911535
0.139266
-0.0436009
0.220241
-0.0809753
0.362518
-0.142277
-0.121215
0.22564
-0.194741
0.341757
0.567679
0.839117
0.13122
-0.150015
0.180499
-0.161705
0.0997533
-0.159338
0.190804
0.0642791
-0.171432
0.206906
0.0258745
-0.175654
0.214058
-0.125078
0.150953
0.191196
-0.111608
-0.229602
0.14671
-0.114852
0.0950364
-0.119758
0.0403084
-0.120926
-0.0847697
0.180297
-0.063295
-0.22861
0.132132
-0.0666873
0.0830992
-0.070725
0.0343004
-0.0721268
-0.0504693
0.193076
-0.0162448
-0.240126
0.143763
-0.0173741
0.0915722
-0.0185341
0.0382988
-0.0188534
-0.0121705
0.193987
-0.241153
0.144375
0.0919614
0.0383402
0.0730084
-0.383775
-0.095723
0.040817
-0.408808
0.00936455
-0.419996
-0.0113292
-0.411629
-0.276143
0.162609
-0.340939
-0.205446
0.110657
-0.356856
0.0592726
-0.368611
0.0168829
-0.369239
-0.259261
0.193688
-0.29138
-0.243247
0.139743
-0.302911
0.0852605
-0.314128
0.0337548
-0.317733
-0.225506
0.206457
-0.241988
-0.255849
0.151495
-0.24795
0.0959699
-0.258603
0.0410351
-0.262799
-0.184471
0.191101
-0.252589
0.133955
0.0822585
0.033518
0.385786
0.0685745
-0.0583813
0.36609
0.0607887
-0.0410927
0.335976
0.0401601
-0.0100461
0.308714
-0.0147422
0.0420041
-0.239153
0.386163
0.394805
0.0697489
0.384677
0.0709165
0.361447
0.0633904
0.33648
0.0102247
-0.132275
0.401947
0.0637812
0.398273
0.0745907
0.379579
0.0820845
0.346076
0.0437277
-0.014809
0.406809
0.0529515
0.407182
0.0742178
0.394425
0.094842
0.35274
0.0854122
0.0978048
0.409208
0.411534
0.401911
0.355727
0.452693
0.0573584
0.420884
0.0318082
0.417427
0.00345729
0.445272
-0.0278451
-0.18788
0.633152
0.509028
0.499744
0.493155
0.507314
0.705596
0.499246
0.133907
0.380956
0.118289
0.251694
0.129263
0.1414
0.110293
0.0502469
0.586914
0.449354
0.335369
0.240217
)
;

boundaryField
{
    left
    {
        type            calculated;
        value           nonuniform List<scalar> 
17
(
-0.60402
-0.60402
-0.60402
-0.60402
-0.60402
-0.39598
-0.39598
-0.39598
-0.39598
-0.39598
-0.39598
-0.39598
-0.39598
-0.39598
-0.39598
-0.510051
-0.510051
)
;
    }
    right
    {
        type            calculated;
        value           nonuniform List<scalar> 
17
(
0.41921
0.50229
0.392949
0.393878
0.394727
0.395855
0.397259
0.398934
0.400859
0.402992
0.405263
0.407564
0.6274
0.632021
0.635944
0.635302
0.557552
)
;
    }
    down
    {
        type            calculated;
        value           uniform 0;
    }
    up
    {
        type            calculated;
        value           uniform 0;
    }
    cylinder
    {
        type            calculated;
        value           uniform 0;
    }
    defaultFaces
    {
        type            empty;
    }
}


// ************************************************************************* //
