/*--------------------------------*- C++ -*----------------------------------*\
  =========                 |
  \\      /  F ield         | OpenFOAM: The Open Source CFD Toolbox
   \\    /   O peration     | Website:  https://openfoam.org
    \\  /    A nd           | Version:  13
     \\/     M anipulation  |
\*---------------------------------------------------------------------------*/
FoamFile
{
    format      ascii;
    class       volScalarField;
    location    "0.8";
    object      strainRateViscosityModel:nu;
}
// * * * * * * * * * * * * * * * * * * * * * * * * * * * * * * * * * * * * * //

dimensions      [0 2 -1 0 0 0 0];

internalField   nonuniform List<scalar> 
1800
(
9.40488
9.1976
9.01007
8.80096
8.57616
8.34416
8.11548
7.89817
7.6242
7.37923
9.58523
9.41878
9.2669
9.09733
8.91118
8.71144
8.50357
8.28868
8.0273
7.70207
9.70219
9.56269
9.42803
9.27096
9.08869
8.87899
8.64092
8.36904
8.03058
7.6106
9.77539
9.65614
9.53324
9.38287
9.20049
8.98172
8.72281
8.41596
8.02877
7.55456
9.82168
9.7183
9.60558
9.46167
9.28071
9.05696
8.78549
8.45888
8.04775
7.55614
9.85185
9.76081
9.6573
9.52059
9.34355
9.11896
8.84034
8.50016
8.07152
7.5702
9.87179
9.78991
9.69398
9.56396
9.39147
9.16769
8.8842
8.53252
8.08735
7.57567
9.88475
9.80924
9.71888
9.59394
9.42494
9.20146
8.91309
8.55005
8.08853
7.56355
9.8926
9.82107
9.73416
9.6122
9.44467
9.21962
8.92483
8.54922
8.07121
7.52871
9.89646
9.82686
9.74153
9.6207
9.45309
9.22573
8.92512
8.53953
8.05038
7.49285
1.80024
1.40524
1.20938
1.32003
1.73039
2.25157
2.49657
2.44897
2.35912
2.33542
3.72935
1.78109
1.49136
1.98118
2.69561
2.97245
2.8172
2.67169
2.68783
2.74119
4.7022
2.56982
2.43548
3.17663
3.59653
3.34621
3.0816
3.11839
3.25841
3.33899
5.269
3.88171
3.81501
4.21348
4.18058
3.82935
3.7212
3.85503
3.95755
4.00656
6.05577
5.27517
5.11775
5.12131
4.91493
4.65329
4.57805
4.61223
4.61256
4.6523
6.95984
6.45987
6.22677
6.03826
5.78827
5.54536
5.38917
5.29332
5.22219
5.27479
7.77172
7.37771
7.11678
6.86031
6.58742
6.32055
6.08724
5.90091
5.77019
5.82377
8.40013
8.05531
7.79202
7.51579
7.22652
6.93122
6.64219
6.3863
6.19225
6.22925
8.84935
8.54538
8.291
8.01032
7.70572
7.3795
7.03564
6.70112
6.41573
6.42173
9.16164
8.90154
8.66633
8.39668
8.09572
7.76577
7.40646
7.03565
6.70852
6.7524
2.19335
1.72916
1.33181
0.937212
0.619946
0.350025
0.185309
0.137766
0.153749
0.234928
2.52765
1.84826
1.40685
0.932536
0.593794
0.334207
0.174219
0.101525
0.100847
0.177169
2.94822
1.97737
1.47922
0.929933
0.558081
0.306976
0.161911
0.0850541
0.0603453
0.120472
3.44065
2.14731
1.55054
0.93288
0.518713
0.272073
0.144777
0.0725996
0.0544817
0.0609616
3.98291
2.38536
1.628
0.941932
0.479928
0.233057
0.123873
0.0589976
0.0601695
0.0269804
4.52845
2.69653
1.72431
0.958328
0.444823
0.192733
0.0999174
0.0470893
0.050961
0.0437478
4.99693
3.0563
1.84628
0.981102
0.41356
0.152965
0.074484
0.0375626
0.0320339
0.101062
5.31278
3.43932
2.01345
1.02391
0.392618
0.116816
0.0495077
0.0265039
0.0365015
0.16475
5.34329
3.72275
2.1631
1.05584
0.369544
0.0839489
0.0301811
0.0192388
0.0934509
0.229275
5.20203
3.98888
2.39867
1.15959
0.386056
0.0673481
0.0105262
0.052107
0.140851
0.284222
4.94439
3.94242
2.45569
1.1735
0.360832
0.0524751
0.0280129
0.107214
0.201554
0.347412
5.33041
3.34768
2.13983
0.998576
0.359189
0.139151
0.117782
0.175312
0.275745
0.416945
4.90478
3.04586
2.2484
1.20588
0.591247
0.294612
0.203608
0.24504
0.339539
0.470541
4.54679
3.63226
2.68194
1.64115
0.89289
0.496008
0.338858
0.333046
0.406344
0.515322
5.11426
4.74782
3.34288
2.16445
1.23814
0.729942
0.496217
0.435514
0.475102
0.551439
6.25446
5.66955
4.0571
2.67385
1.59851
0.981615
0.673321
0.5521
0.548454
0.58207
7.26268
6.3737
4.71363
3.15454
1.95722
1.24046
0.858711
0.676819
0.624806
0.6089
8.0001
6.91203
5.25979
3.58893
2.29998
1.50061
1.04948
0.807336
0.704641
0.634581
8.51876
7.33072
5.6973
3.97004
2.62038
1.75375
1.23622
0.934771
0.781611
0.657421
8.931
7.69118
6.04972
4.28304
2.92517
2.02417
1.44721
1.0829
0.876802
0.689935
6.51282
6.43966
6.43043
6.44874
6.48733
6.52992
6.58196
6.71049
6.89517
6.8262
0.26066
1.05709
2.00766
2.9227
3.70361
4.31622
4.73295
4.98245
5.2215
5.72766
3.8508
3.54392
3.28469
3.11146
3.10652
3.25012
3.47232
3.71344
4.16495
4.84477
6.64416
6.62722
6.53713
6.3447
6.04331
5.65791
5.24968
4.89616
4.73956
4.54949
7.69184
7.67653
7.63212
7.54129
7.39613
7.18986
6.92709
6.61953
6.28603
5.65648
8.44951
8.43312
8.39435
8.32771
8.22957
8.09671
7.92836
7.71684
7.42792
6.90784
8.93967
8.92393
8.89028
8.83679
8.76166
8.6629
8.53816
8.37892
8.15467
7.80862
9.27298
9.25981
9.23246
9.18985
9.13052
9.05245
8.95269
8.82481
8.65281
8.4309
9.50446
9.49417
9.47307
9.44024
9.39426
9.33319
9.25424
9.15286
9.02288
8.87534
9.6899
9.68285
9.66852
9.64604
9.61405
9.5707
9.51361
9.43975
9.34638
9.2441
7.24804
7.52618
7.83692
8.08767
8.34481
8.59962
8.84138
9.06158
9.25458
9.46025
7.5831
7.94805
8.24096
8.48112
8.70935
8.92481
9.1223
9.299
9.45391
9.61805
7.49849
7.95737
8.32595
8.6205
8.87575
9.09773
9.28806
9.44952
9.58535
9.72225
7.44688
7.95761
8.37376
8.702
8.97658
9.20596
9.39471
9.54806
9.67131
9.78824
7.45632
7.98066
8.4186
8.76489
9.05054
9.28356
9.46977
9.61591
9.72868
9.83022
7.48241
8.01168
8.46402
8.82147
9.11234
9.34475
9.52606
9.66446
9.76796
9.85764
7.50364
8.03786
8.50277
8.86863
9.16197
9.39189
9.56763
9.6989
9.79479
9.8757
7.51114
8.05246
8.52871
8.90209
9.19746
9.42521
9.5964
9.72212
9.81243
9.88729
7.49836
8.05045
8.53742
8.91898
9.21768
9.44503
9.61371
9.73606
9.82289
9.89404
7.48288
8.04358
8.53592
8.92344
9.22525
9.4533
9.62123
9.74216
9.82746
9.89693
2.55884
2.5153
2.53309
2.74468
2.93038
2.55783
1.70135
1.18293
1.52385
4.19965
2.96562
2.87733
2.71752
2.71515
3.10482
3.43305
2.8245
1.9089
2.12679
5.1372
3.45288
3.40947
3.25163
3.06508
3.26505
3.82401
3.80442
3.16297
3.2907
5.45674
3.94391
3.93315
3.90681
3.79764
3.89046
4.31795
4.58958
4.46861
4.66186
5.91397
4.49679
4.46933
4.54475
4.61646
4.78039
5.11399
5.43842
5.61932
5.89702
6.63173
5.10043
5.05792
5.19759
5.39606
5.65698
5.98046
6.30869
6.59552
6.901
7.40671
5.65306
5.61684
5.81775
6.09038
6.4077
6.74088
7.06856
7.37817
7.67878
8.08658
6.06632
6.05178
6.31492
6.64223
6.99496
7.3398
7.6673
7.9742
8.25897
8.61107
6.26008
6.27905
6.6309
7.02587
7.42012
7.78442
8.11673
8.4167
8.68284
8.98797
6.59994
6.56981
6.95597
7.37947
7.78133
8.14312
8.46654
8.75044
8.99301
9.25186
0.112809
0.155169
0.122533
0.0634788
0.0156641
0.394107
0.931152
1.48422
1.9512
2.43329
0.0793474
0.140608
0.118317
0.0656647
0.0153491
0.386381
0.935185
1.54711
2.03013
2.69929
0.0575882
0.132231
0.116504
0.0688953
0.0241388
0.386425
0.941353
1.59704
2.10065
3.00943
0.0444713
0.129892
0.118286
0.0762844
0.0422218
0.394157
0.947475
1.63412
2.20408
3.39593
0.037936
0.132669
0.122274
0.0858598
0.0653231
0.403738
0.950757
1.66971
2.38195
3.86607
0.0370518
0.139681
0.126824
0.0949538
0.0891636
0.41168
0.955094
1.72707
2.64846
4.36325
0.042027
0.151064
0.130678
0.101398
0.109005
0.415506
0.965631
1.8227
2.98036
4.79402
0.0535253
0.167372
0.13348
0.105361
0.124401
0.424159
1.0064
1.98169
3.34713
5.07868
0.0733432
0.188394
0.135345
0.103021
0.127516
0.424129
1.04328
2.1329
3.62559
5.08183
0.10416
0.210962
0.137832
0.104008
0.14275
0.470923
1.17977
2.39111
3.87539
4.89045
0.160913
0.239441
0.143325
0.101103
0.131355
0.473697
1.24439
2.50407
3.88467
4.67286
0.26403
0.270815
0.133125
0.0760213
0.0697015
0.383926
1.11865
2.30244
3.42956
5.19204
0.428917
0.269952
0.100038
0.0143343
0.0150129
0.344673
1.14907
2.35096
3.25606
4.93792
0.682174
0.254314
0.0227682
0.0810934
0.101495
0.538591
1.43204
2.62457
3.71533
4.69833
1.0656
0.0475993
0.263495
0.236059
0.315136
0.891035
1.93389
3.20661
4.70716
5.17759
1.51469
0.122375
0.538087
0.416808
0.596772
1.30818
2.47415
3.91725
5.59878
6.22337
2.19502
0.683479
0.855673
0.68965
0.942762
1.73844
2.99232
4.59356
6.30246
7.21636
3.79221
1.70631
1.27456
1.03729
1.31865
2.15041
3.46131
5.16516
6.85409
7.96877
6.86014
3.57571
1.96328
1.42191
1.67989
2.52411
3.87346
5.63119
7.29515
8.50724
9.04906
6.38369
2.84302
2.00218
2.11632
2.89684
4.22387
6.01911
7.68651
8.93809
6.62449
6.68753
6.51082
6.38905
6.34869
6.32252
6.30554
6.31733
6.36195
6.47625
5.52813
5.00929
4.76554
4.52451
4.12639
3.54047
2.79858
1.93209
1.04467
0.284225
4.84968
4.23675
3.8273
3.61679
3.43002
3.31056
3.31545
3.4577
3.65542
3.87435
4.71243
4.88592
5.02842
5.33794
5.70212
6.05238
6.33393
6.5214
6.61654
6.64159
5.68793
6.28592
6.61234
6.91136
7.17237
7.38147
7.5318
7.62814
7.6767
7.69239
6.86589
7.38861
7.68443
7.90231
8.07658
8.21484
8.3178
8.38856
8.43055
8.44888
7.76511
8.12049
8.35196
8.51791
8.64796
8.75099
8.82956
8.88582
8.92164
8.93899
8.40454
8.63268
8.80887
8.94093
9.04401
9.12465
9.18596
9.23006
9.25854
9.2726
8.86615
9.01619
9.14761
9.2506
9.33082
9.39283
9.43944
9.47267
9.494
9.50442
9.24868
9.35045
9.44301
9.5163
9.57294
9.61588
9.64748
9.66956
9.68348
9.69012
9.50947
8.98534
8.23589
6.92826
5.59797
0.131167
3.36084
5.96039
7.21409
8.15187
9.46542
8.92156
8.16813
6.89059
5.54939
0.56377
2.62222
5.70602
6.91643
7.91396
9.36568
8.78282
8.02028
6.80962
5.36636
1.60349
1.41357
5.20663
6.30935
7.40331
9.18255
8.54513
7.7745
6.65512
5.18645
2.74004
0.723099
4.23839
5.42157
6.57149
8.86812
8.17359
7.40402
6.37695
5.02653
3.36803
0.970959
2.63163
4.31696
5.39381
8.35053
7.62973
6.87342
5.91729
4.76512
3.44005
1.71925
1.30194
3.0493
3.98815
7.53605
6.89661
6.15556
5.22758
4.29966
3.26955
2.14311
1.17252
1.65627
2.55745
6.32539
6.03758
5.28135
4.2319
3.53345
2.91261
2.11845
1.43522
1.06858
1.2354
4.63171
5.23226
4.47436
2.99959
2.4371
2.27446
1.85602
1.38487
1.12272
0.659164
2.67281
4.53957
4.02165
1.96671
1.39677
1.48834
1.40994
1.21176
1.06407
0.845228
1.27676
3.789
3.66665
1.33721
0.816167
0.897641
0.971103
0.956305
0.971763
1.01986
0.613495
2.96986
3.08221
0.956488
0.575302
0.639973
0.759439
0.820024
0.844024
0.877004
0.355379
2.18966
2.28543
0.68816
0.492605
0.595325
0.72642
0.810793
0.848585
0.873347
0.265319
1.55075
1.48918
0.521541
0.534574
0.674207
0.787724
0.858759
0.882178
0.892423
0.239651
1.0189
0.845489
0.514301
0.669707
0.803324
0.904542
0.968051
0.983762
0.980657
0.242873
0.493052
0.49999
0.636518
0.817582
0.955081
1.05286
1.11053
1.12105
1.11288
0.177019
0.204035
0.508252
0.756275
0.974914
1.1207
1.21038
1.25739
1.2742
1.27482
0.045212
0.251918
0.649402
0.922855
1.13618
1.25355
1.32965
1.39951
1.45611
1.47792
0.0611021
0.492502
0.822352
1.09603
1.22974
1.33856
1.48915
1.64783
1.73502
1.75051
0.696796
0.865384
1.04055
1.18349
1.32323
1.59721
1.91019
2.07983
2.08148
2.04841
0.363054
0.0805046
0.223848
0.550684
0.794595
0.891339
0.886607
0.837686
0.787025
0.753513
0.462095
0.202337
0.319185
0.521424
0.723869
0.81059
0.808107
0.766785
0.723155
0.704174
0.525758
0.372263
0.440078
0.513679
0.653412
0.730563
0.731336
0.696719
0.659494
0.65433
0.638902
0.58792
0.595542
0.555557
0.587327
0.643473
0.649528
0.624225
0.595065
0.60405
0.806012
0.80355
0.742063
0.638161
0.542126
0.55634
0.565845
0.550852
0.53042
0.553353
1.00958
0.999487
0.875388
0.73764
0.531041
0.474822
0.480799
0.476541
0.465627
0.502214
1.22766
1.17107
0.990329
0.825796
0.552995
0.409025
0.397225
0.402069
0.401003
0.450542
1.45241
1.32526
1.08914
0.888436
0.589779
0.3686
0.319436
0.328459
0.336871
0.398163
1.68493
1.46876
1.17557
0.92372
0.619632
0.354421
0.254056
0.257479
0.273712
0.344913
1.92627
1.60372
1.25506
0.937186
0.630145
0.353834
0.208638
0.192236
0.21226
0.290444
2.00916
0.747512
0.717724
0.965491
1.19791
1.28433
1.25838
1.17965
1.10844
1.01084
1.39445
0.482985
0.579225
0.874816
1.10976
1.19808
1.17712
1.10521
1.03705
0.952264
0.75161
0.288006
0.481347
0.797846
1.03546
1.126
1.10939
1.04293
0.978416
0.904882
0.25338
0.170358
0.405748
0.726117
0.960376
1.04969
1.03587
0.974896
0.9146
0.853885
0.435838
0.0327054
0.267373
0.613213
0.864382
0.96539
0.960172
0.906457
0.850975
0.803439
9.35465
9.29006
9.141
8.87311
8.43757
7.77891
6.87137
5.75933
4.58201
3.53712
9.19248
9.09566
8.88112
8.51167
7.94153
7.13648
6.10966
4.95512
3.84479
2.78683
9.02389
8.90027
8.62663
8.16106
7.46178
6.51617
5.37145
4.16866
3.08129
1.94239
8.81633
8.66221
8.32151
7.74794
6.90619
5.81427
4.555
3.29482
2.22584
1.08998
8.5875
8.3794
7.92585
7.17747
6.11253
4.79211
3.35064
2.08513
0.993909
0.302012
1.06022
1.02442
1.01623
1.01974
0.915152
0.799634
1.29338
3.68338
3.85981
1.32293
0.949168
0.933727
0.926122
0.870682
0.718765
0.588471
0.910765
3.14196
3.11001
0.647361
0.98593
0.982396
0.965517
0.892727
0.747269
0.584281
0.698149
2.37273
2.34688
0.377401
1.05335
1.06525
1.06109
1.00126
0.88978
0.740492
0.655461
1.55771
1.63493
0.277242
1.18602
1.21017
1.21587
1.16815
1.07697
0.951803
0.789134
0.91024
0.919911
0.246137
1.35122
1.37116
1.37944
1.35434
1.28449
1.15122
0.929834
0.670066
0.358382
0.216783
1.5557
1.55164
1.51924
1.47687
1.42606
1.31978
1.07967
0.754278
0.272528
0.0664206
1.82379
1.81739
1.73481
1.58181
1.4418
1.34517
1.21037
0.901876
0.494456
0.0467837
2.10414
2.15142
2.14988
1.956
1.61233
1.32283
1.18706
1.05698
0.856644
0.675907
2.3125
2.3593
2.48387
2.53613
2.23393
1.63248
1.18245
1.06656
1.30448
2.04217
8.15168
7.21373
5.96003
3.36033
0.131423
5.59651
6.92777
8.23569
8.98536
9.50956
7.91328
6.91532
5.70501
2.62162
0.563639
5.54554
6.88914
8.16755
8.92161
9.46573
7.40186
6.30746
5.20484
1.41547
1.59976
5.36187
6.80735
8.01941
8.78295
9.36627
6.56884
5.41868
4.23622
0.726271
2.73173
5.18172
6.65228
7.77352
8.54546
9.18358
5.38943
4.31247
2.63265
0.971031
3.35669
5.02057
6.3735
7.40309
8.17434
8.86988
3.97981
3.04147
1.31017
1.71323
3.42678
4.75623
5.91249
6.87254
7.63121
8.35351
2.54108
1.65348
1.18717
2.13288
3.25089
4.28301
5.21885
6.15466
6.89951
7.54138
1.21759
1.08763
1.45172
2.10725
2.88048
3.50308
4.21751
5.2821
6.04357
6.33607
0.671605
1.1529
1.40707
1.84234
2.23203
2.40024
2.98385
4.47941
5.24358
4.65555
0.884835
1.1024
1.24707
1.41265
1.46377
1.36897
1.94328
4.02655
4.56518
2.71657
2.09002
0.543289
1.06115
0.629223
0.660989
0.75852
0.632594
0.300265
0.0619912
0.356492
1.63024
0.236773
0.87001
0.478967
0.566966
0.681329
0.593698
0.356847
0.265862
0.488479
1.33427
0.05832
0.641879
0.340626
0.478351
0.60206
0.562509
0.459554
0.473226
0.591047
1.09808
0.0147043
0.393908
0.23205
0.393623
0.518521
0.56273
0.626071
0.732718
0.758304
0.848079
0.0892288
0.189654
0.158586
0.315872
0.442066
0.609077
0.80515
0.974887
0.977491
0.635901
0.153969
0.0532275
0.101545
0.244063
0.386331
0.694624
0.97513
1.19415
1.2248
0.463692
0.209283
0.0491454
0.0534156
0.180465
0.365094
0.788382
1.11895
1.3863
1.48094
0.331416
0.21027
0.107324
0.0107886
0.122341
0.373801
0.862246
1.23574
1.55798
1.73581
0.233002
0.195936
0.121904
0.0354222
0.0643922
0.390852
0.905779
1.33086
1.71174
1.97691
0.16224
0.174501
0.127176
0.0569626
0.0288656
0.398729
0.924872
1.41207
1.84482
2.20039
9.33657
6.77032
2.66501
1.69951
1.20194
1.12064
0.96481
0.781699
0.79641
2.03314
8.21092
4.63644
2.21507
1.4175
1.06931
1.03573
0.891197
0.651035
0.527972
1.39865
6.12015
3.06394
1.78536
1.21016
0.964365
0.971378
0.832201
0.561273
0.328809
0.741038
4.13317
1.87588
1.49747
1.00365
0.858302
0.904175
0.775841
0.487718
0.228691
0.225137
2.83558
1.06124
1.24633
0.803003
0.755173
0.826573
0.686081
0.356401
0.0444314
0.398123
3.5477
4.58915
5.76324
6.87354
7.78045
8.4387
8.87388
9.14148
9.29032
9.35474
2.78093
3.84106
4.95236
6.10789
7.13587
7.94154
8.51189
8.88135
9.09583
9.19255
1.92842
3.0719
4.16218
5.3667
6.51362
7.46063
8.16063
8.62654
8.9003
9.02392
1.05563
2.20312
3.28162
4.54677
5.81005
6.90396
7.74681
8.32105
8.66207
8.8163
0.300518
0.962697
2.06396
3.3375
4.78515
6.10894
7.17548
7.9249
8.37903
8.58742
)
;

boundaryField
{
    left
    {
        type            calculated;
        value           nonuniform List<scalar> 
35
(
0.297943
0.566828
0.987203
1.62618
2.52451
3.69554
5.06612
6.47609
8.1585
9.4418
0.213166
0.133223
0.08087
0.0491052
0.0325567
0.0273641
0.0327135
0.0521077
0.0920746
0.159909
4.93339
4.0616
3.23479
2.51295
1.91713
1.42718
1.03082
0.724638
0.496154
0.330173
9.61573
8.97907
7.92205
6.84777
5.85939
)
;
    }
    right
    {
        type            calculated;
        value           nonuniform List<scalar> 
35
(
1.01038
0.952047
0.905032
0.854927
0.805672
0.757332
0.709671
0.661369
0.612522
0.563133
0.513089
0.462162
0.409993
0.3562
0.30019
0.241945
0.180171
0.117872
0.0536508
0.020983
0.0397183
0.105631
0.181356
0.252792
0.311363
0.377153
0.446824
0.498884
0.540266
0.571381
0.596106
0.617097
0.638067
0.658069
0.687931
)
;
    }
    down
    {
        type            calculated;
        value           nonuniform List<scalar> 
40
(
9.45431
7.26633
2.89593
1.78868
1.24267
1.14904
0.990305
0.823245
0.897504
2.26036
3.83287
4.88244
6.03395
7.09287
7.94461
8.55502
8.95447
9.19925
9.33564
9.39488
9.39478
9.33536
9.19873
8.9536
8.55369
7.94266
7.08994
6.02876
4.8732
3.8189
2.23227
0.847608
0.76161
0.997437
1.22964
1.31395
1.28533
1.20368
1.13145
1.02977
)
;
    }
    up
    {
        type            calculated;
        value           nonuniform List<scalar> 
40
(
9.0341
7.80882
6.16759
4.39481
3.0334
2.11905
1.51979
1.13201
0.908564
0.701898
9.72927
9.72305
9.71045
9.69064
9.66234
9.62377
9.57263
9.50586
9.42076
9.32814
9.33506
9.42656
9.5104
9.57623
9.62665
9.66461
9.69238
9.71169
9.72379
9.72952
9.27074
7.09622
3.23903
2.15397
2.23562
3.01638
4.34604
6.14876
7.81368
9.04496
)
;
    }
    cylinder
    {
        type            calculated;
        value           nonuniform List<scalar> 
80
(
2.001
4.57033
5.53792
5.77885
6.30472
7.09051
7.86179
8.47477
8.91246
9.2129
9.44581
9.61871
9.72981
9.79829
9.84096
9.86846
9.8865
9.89817
9.90522
9.90869
9.5004
9.6506
9.74902
9.81046
9.849
9.87389
9.89016
9.90054
9.90657
9.90913
5.32685
6.23386
6.21128
6.31572
6.83445
7.52661
8.17619
8.68599
9.05066
9.3025
0.994311
0.471567
0.264206
0.183219
0.159567
0.165582
0.0828502
0.0422748
0.750115
2.43138
9.59446
9.55588
9.46745
9.30187
9.00979
8.51137
7.68626
6.36657
4.38724
2.2388
9.59435
9.55556
9.46683
9.30079
9.00793
8.50819
7.68052
6.3545
4.35816
2.19133
0.952814
0.442277
0.244344
0.17084
0.150278
0.165482
0.160941
0.0839601
0.0433592
0.736854
)
;
    }
    defaultFaces
    {
        type            empty;
    }
}


// ************************************************************************* //
