/*--------------------------------*- C++ -*----------------------------------*\
  =========                 |
  \\      /  F ield         | OpenFOAM: The Open Source CFD Toolbox
   \\    /   O peration     | Website:  https://openfoam.org
    \\  /    A nd           | Version:  13
     \\/     M anipulation  |
\*---------------------------------------------------------------------------*/
FoamFile
{
    format      ascii;
    class       surfaceScalarField;
    location    "68.8";
    object      phi;
}
// * * * * * * * * * * * * * * * * * * * * * * * * * * * * * * * * * * * * * //

dimensions      [0 3 -1 0 0 0 0];

internalField   nonuniform List<scalar> 
823
(
-0.00471139
0.0178298
-0.0131184
0.0135691
0.00572705
-0.0240076
0.0794032
-0.0471629
-0.0186712
0.183377
-0.115755
0.0117819
-0.159531
0.0087261
0.334182
0.00713459
0.0106952
0.0627428
-0.0498811
0.166245
-0.150665
0.286573
-0.236084
-0.310493
0.437535
0.026975
-0.0162797
0.121492
-0.144398
0.235796
-0.264969
0.339846
-0.340134
-0.379242
0.408595
0.0494883
-0.0657681
0.147708
-0.242617
0.226097
-0.343358
0.268959
-0.382996
-0.393047
0.282764
0.0602524
-0.12602
0.127337
-0.309702
0.162528
-0.378549
0.175398
-0.395867
0.184145
-0.401794
-0.0212489
0.0813462
-0.0600973
-0.0728252
0.141961
-0.0903843
-0.125256
0.145118
-0.0926868
-0.167973
0.133965
-0.0912482
0.120658
-0.195072
-0.0935583
0.0332566
0.0480895
0.0591667
0.116051
0.0638249
0.14046
0.0594198
0.13837
0.122461
0.0576166
0.0309658
0.0171237
0.0824971
0.0645192
0.126816
0.0961406
0.158517
0.106669
0.10613
0.174847
0.0108844
0.00623931
0.0447994
0.0306042
0.0898681
0.0510719
0.141589
0.054949
0.063304
0.184415
-0.00687913
-0.000282475
0.0321183
0.0988492
0.170879
0.239236
0.575414
-1.00972
0.601734
-1.58361
1.22111
0.560808
-1.12493
1.16585
0.516106
0.564167
-0.519465
0.268464
-0.214403
0.343737
0.289294
0.575397
-1.81527
0.603488
-1.15302
0.534652
0.633003
0.316768
0.270394
0.193747
0.39391
-1.93878
0.516235
-1.27534
0.5165
0.632738
0.34502
0.388234
-0.010072
0.381095
-1.93165
0.430762
-1.32501
0.468234
0.595267
0.325158
0.507262
-0.346454
0.428572
-1.85296
0.344481
-1.24092
0.390077
0.549671
0.209213
1.49689
-0.59585
-1.24749
1.20769
-1.56376
0.681183
-0.714412
0.670511
0.560343
-0.00171957
1.4569
-0.644069
-1.40868
0.94039
-1.04725
0.479123
-0.253145
0.746733
0.292733
-0.199746
1.29568
-0.582915
-1.35683
0.8351
-0.586671
0.585895
-0.00394009
0.907065
-0.0284372
-0.256534
1.08949
-0.360332
-1.31207
0.688389
-0.185569
0.672088
0.0123612
0.795063
-0.151413
-0.134995
0.490367
-0.850699
0.304798
0.317159
0.165747
1.10861
0.146448
-1.07091
1.18434
0.207031
1.29627
0.296669
1.34708
0.386726
0.433768
1.00406
0.0924896
-0.9501
1.08
0.131092
1.17268
0.203989
1.29428
0.265124
0.319366
0.965954
0.0458149
-0.919279
1.02413
0.0729127
1.10859
0.119537
1.22352
0.150193
0.186047
0.94339
0.00782335
-0.905399
0.996522
0.0197814
1.07935
0.0367076
1.1834
0.046148
0.0573697
0.690692
-0.682869
0.710473
0.747181
0.793329
0.140301
0.301676
-0.247112
-0.194865
0.0941555
0.307338
-0.261192
0.0531644
0.318123
-0.277132
0.0184997
0.309183
-0.274518
0.198538
-0.180038
0.100351
0.337581
-0.136256
0.0643363
0.343353
0.0325002
0.349959
0.00760253
0.33408
0.20614
0.0708042
0.374162
-0.107386
0.0382518
0.375905
0.0104712
0.37774
-0.00518978
0.349741
0.200951
-0.00856789
0.389406
-0.00667598
-0.0255497
0.392887
-0.0340238
0.386214
-0.0265323
0.34225
0.174418
-0.085631
0.073243
-0.0886113
-0.0809462
-0.0483979
0.19881
0.10806
-0.252506
-0.0543641
0.144582
0.112168
-0.0579394
0.0893738
0.116711
-0.0615035
0.036223
0.115993
-0.0628425
0.0812827
-0.0450597
0.193795
0.151199
-0.236934
0.147361
0.158602
0.095605
0.168468
0.040629
0.170969
0.121912
0.136777
0.195858
-0.181437
0.096045
0.199334
0.0570025
0.20751
0.0205163
0.207455
0.142428
0.152845
0.227959
-0.184945
0.114181
0.237998
0.0705462
0.251145
0.0276305
0.250371
0.170059
0.0833081
-0.102461
0.0601139
0.0341265
0.00997967
0.408331
0.0436486
-0.0560002
0.426023
0.0457292
-0.0634205
0.40839
0.208675
-0.191042
0.397172
0.210043
-0.198825
0.494158
-0.349492
0.406561
0.0330672
0.418543
0.0337471
0.398102
0.229116
0.385323
0.222822
0.642547
0.400201
0.0288458
0.411625
0.0223233
0.374476
0.266266
0.372385
0.224912
0.833495
0.396915
0.0279107
0.3929
0.026338
0.364497
0.294669
0.354792
0.234618
1.00334
0.387236
0.0366541
0.378717
0.0348577
0.336897
0.336488
0.32417
0.247345
1.22505
0.62014
0.0205341
0.631148
0.0238498
0.687969
0.279667
0.792891
0.142424
1.03128
0.986661
0.629159
-0.00460459
0.615576
0.0374333
0.734164
0.161078
0.808747
0.0678409
0.806062
1.03396
0.626361
-0.0269453
0.644825
0.0189692
0.768294
0.0376091
0.799853
0.0362822
0.586251
1.01966
0.625885
-0.0488096
0.675564
-0.03071
0.732695
-0.0195218
0.739862
0.0291149
0.301894
1.02422
0.555211
0.524501
0.504979
0.534094
0.835988
1.02859
-0.236796
1.01804
-0.125707
1.02911
-0.118456
1.02251
-7.14875e-05
0.0248402
0.976706
-0.179537
0.951521
-0.100522
0.924812
-0.0917465
0.932629
-0.0078888
0.00736995
0.948053
-0.107926
0.923915
-0.076385
0.896246
-0.0640771
0.909332
-0.0209747
-0.0025772
0.962319
-0.046026
0.92599
-0.0400558
0.897146
-0.0352331
0.897104
-0.020933
-0.0108718
0.789962
0.749906
0.714673
0.69374
0.0464188
0.152393
-0.198812
0.0697148
0.325617
-0.348913
0.0700761
0.377802
-0.378164
0.0609531
0.378948
-0.369825
0.346837
0.0488766
-0.33476
0.068493
0.0838997
0.136579
0.257531
0.168815
0.345567
0.173068
0.374694
0.363252
0.156653
0.0588611
0.0250386
0.166456
0.149936
0.253405
0.258617
0.30937
0.318729
0.361535
0.311087
0.0287664
-0.00372783
0.12605
0.0526522
0.24271
0.141957
0.353945
0.207495
0.279714
0.435766
0.00739872
-0.0111266
0.0599133
0.000137691
0.155377
0.0464938
0.268069
0.0948029
0.151884
0.395899
0.000775835
-0.0119024
0.0135215
-0.012608
0.0553437
0.00467159
0.12058
0.0295661
0.0728874
0.199578
0.00197148
-0.0138739
0.00697536
-0.0176119
0.0181252
-0.00647821
0.0361542
0.0115371
0.039973
0.0690685
0.0281018
-0.0419757
0.0535949
-0.043105
0.0605763
-0.0134596
0.0613981
0.0107154
0.0318307
0.0695404
-0.0132885
-0.0286872
-0.0412439
-0.0151496
-0.0715692
0.0168657
-0.0975065
0.0366526
0.0503139
-0.11599
-0.0887845
-0.194318
-0.270139
-0.324735
-0.367979
0.15031
1.15777
-1.1085
0.309049
-0.146624
-0.012115
0.349405
0.0365172
-0.0768731
0.225318
0.235934
-0.111847
-0.0852292
0.114834
0.0687195
1.15812
0.2409
-0.318804
0.442629
-0.165212
0.329464
0.349099
-0.027126
-0.0776423
1.3053
0.128073
-0.524519
0.540254
-0.577393
0.432093
0.45726
0.0541031
-0.180455
1.36977
0.142651
-0.847625
0.566101
-1.00084
0.500759
0.522601
0.139832
-0.00793403
0.365551
0.530562
0.533698
-0.0948321
0.631826
-0.536994
-0.0406263
-0.0542058
0.020503
-0.0611293
0.0661017
-0.0455987
-0.0883465
0.563647
-1.04032
0.497327
0.359324
0.201878
0.0847964
-0.0126627
-0.0721337
0.135541
-0.0507446
0.231437
-0.0958963
0.370338
-0.138901
-0.166656
0.193118
-0.156904
0.299026
0.514217
0.811082
0.139543
-0.136652
0.166666
-0.169558
0.106022
-0.142213
0.175734
0.0679286
-0.149588
0.187682
0.0274195
-0.149773
0.190283
-0.105635
0.133055
0.179103
-0.0973396
-0.218415
0.135362
-0.0984716
0.0862392
-0.100466
0.03569
-0.0992242
-0.0699451
0.189348
-0.0483203
-0.238367
0.13878
-0.0479037
0.0865648
-0.0482506
0.0352661
-0.0479255
-0.034679
0.201728
0.00326503
-0.253314
0.149381
0.00444382
0.0954047
0.00572551
0.0403028
0.00717653
0.00562376
0.204376
-0.255475
0.15088
0.0951019
0.0394359
0.0404006
-0.315063
-0.0600977
0.0158569
-0.345282
-0.00600402
-0.356303
-0.0150539
-0.339863
-0.213865
0.120148
-0.284446
-0.150765
0.0786242
-0.303757
0.0381265
-0.315805
0.00771578
-0.309452
-0.20615
0.138605
-0.245504
-0.177547
0.0974602
-0.262612
0.0568713
-0.275216
0.0201196
-0.2727
-0.18603
0.156095
-0.211086
-0.190513
0.114295
-0.220813
0.0695543
-0.230475
0.0272464
-0.230392
-0.158784
0.153711
-0.198131
0.108632
0.0658391
0.0257292
0.392256
0.0967478
-0.0930247
0.38988
0.106482
-0.104105
0.355702
0.162624
-0.128447
0.297299
0.0667082
-0.00830452
-0.192129
0.31987
0.40007
0.0926578
0.405336
0.101216
0.394571
0.173389
0.346621
0.114658
-0.0639233
0.405099
0.0835387
0.415397
0.0909172
0.409583
0.179203
0.372153
0.152088
0.0698618
0.408989
0.0705294
0.421845
0.078061
0.417734
0.183314
0.391186
0.178636
0.207734
0.410509
0.425149
0.417421
0.397232
0.415669
0.0943815
0.328057
0.0876127
0.23849
0.0895666
0.240598
-0.00210731
-0.176312
0.41691
0.511408
0.494916
0.456035
0.445623
0.589181
0.335412
0.0814975
0.261817
0.0735953
0.17481
0.0870073
0.101669
0.0731411
0.0295349
0.472548
0.35563
0.26509
0.187466
)
;

boundaryField
{
    left
    {
        type            calculated;
        value           nonuniform List<scalar> 
17
(
-0.60402
-0.60402
-0.60402
-0.60402
-0.60402
-0.39598
-0.39598
-0.39598
-0.39598
-0.39598
-0.39598
-0.39598
-0.39598
-0.39598
-0.39598
-0.510051
-0.510051
)
;
    }
    right
    {
        type            calculated;
        value           nonuniform List<scalar> 
17
(
0.154448
0.228365
0.195714
0.271361
0.350864
0.41503
0.459127
0.462045
0.486349
0.488248
0.488095
0.506022
0.881443
0.94476
0.963853
0.673524
0.0307519
)
;
    }
    down
    {
        type            calculated;
        value           uniform 0;
    }
    up
    {
        type            calculated;
        value           uniform 0;
    }
    cylinder
    {
        type            calculated;
        value           uniform 0;
    }
    defaultFaces
    {
        type            empty;
    }
}


// ************************************************************************* //
