# Selection   : all
# Cells       : 1800
# Volume      : 7.372328e+01
# Time        	minMag(U)
0.95          	5.226240e-03
0.975         	3.584773e-03
1             	3.102349e-03
