/*--------------------------------*- C++ -*----------------------------------*\
  =========                 |
  \\      /  F ield         | OpenFOAM: The Open Source CFD Toolbox
   \\    /   O peration     | Website:  https://openfoam.org
    \\  /    A nd           | Version:  13
     \\/     M anipulation  |
\*---------------------------------------------------------------------------*/
FoamFile
{
    format      ascii;
    class       volScalarField;
    location    "0.255";
    object      strainRateViscosityModel:nu;
}
// * * * * * * * * * * * * * * * * * * * * * * * * * * * * * * * * * * * * * //

dimensions      [0 2 -1 0 0 0 0];

internalField   nonuniform List<scalar> 
440
(
9.41959
8.96966
8.54433
8.04222
7.58587
9.68998
9.35818
8.98176
8.48005
7.87561
9.80076
9.53087
9.1588
8.58516
7.84838
9.84964
9.6182
9.25867
8.64765
7.8662
9.86919
9.6561
9.30597
8.68103
7.90888
1.28704
1.77656
2.03343
2.28271
2.34666
3.37007
3.29957
3.31602
3.42533
3.4963
5.8883
5.27309
4.93246
4.73416
4.76405
7.76951
6.99421
6.42221
5.90791
5.83064
8.82078
8.15133
7.55213
6.91872
6.87231
1.83584
0.812776
0.295775
0.036086
0.0107318
2.62072
0.919532
0.260275
0.0304947
0.0103121
3.52222
1.1887
0.247728
0.0285092
0.0103973
4.09741
1.49055
0.267629
0.0255864
0.0104537
4.60578
1.81053
0.35334
0.0267981
0.0100331
4.24155
1.79327
0.277469
0.0143759
0.0360475
3.70607
1.7624
0.456611
0.264484
0.411313
4.91428
3.18777
1.19373
0.684355
0.721503
7.01093
4.28396
1.88284
1.02209
0.928957
8.27273
5.07803
2.50899
1.47446
1.16741
2.84911
3.68379
4.62165
5.50836
6.15238
3.68395
3.69598
3.77044
3.84955
3.36469
8.22705
8.08712
7.79984
7.38552
6.34492
9.05305
8.99254
8.85931
8.6219
8.16071
9.60671
9.56995
9.487
9.33799
9.11867
7.50463
8.01264
8.55907
9.01077
9.46444
7.7943
8.45137
8.9868
9.37779
9.70872
7.77896
8.55886
9.15928
9.54075
9.80947
7.81624
8.62753
9.25738
9.62277
9.85361
7.89137
8.67372
9.30539
9.65746
9.87036
2.47445
2.41579
2.21739
2.06574
1.98595
3.46571
3.41531
3.44887
3.65875
4.18457
4.65144
4.67035
5.0503
5.58898
6.42599
5.70022
5.83792
6.50185
7.18711
8.03664
6.76083
6.84681
7.58194
8.24306
8.93557
0.129513
0.0417623
0.196591
0.753481
1.96911
0.096384
0.0575415
0.171558
0.819803
2.6522
0.0791997
0.0787607
0.165037
1.07934
3.46729
0.0704378
0.102056
0.196982
1.42139
3.97606
0.0842133
0.130552
0.303832
1.7743
4.39315
0.159481
0.171245
0.290973
1.90246
4.12865
0.302854
0.18252
0.180605
1.70193
3.84628
0.599832
0.422996
0.806069
3.00284
4.89463
2.23942
0.959847
1.54996
4.15436
6.9613
5.043
2.64429
2.48273
5.04782
8.27872
5.95747
5.27459
4.40791
3.51363
2.78135
3.51553
3.98439
3.966
3.87357
3.76307
6.31818
7.35214
7.77975
8.06853
8.21914
8.12217
8.60061
8.84989
8.98888
9.05219
9.11671
9.33767
9.48734
9.57048
9.60695
9.31022
7.91569
1.39824
3.62864
7.73554
9.08099
7.43938
3.2051
1.63963
6.78751
8.39724
6.57582
4.20709
1.00336
4.14524
6.81343
5.09228
3.45304
1.70177
1.03706
4.50191
3.1423
2.03669
1.3786
0.462089
2.59759
1.61813
1.00437
0.802667
0.932093
1.45328
0.780004
0.586619
0.623223
0.695833
0.786678
0.405459
0.594726
0.76299
0.836749
0.293411
0.49893
0.871068
1.03627
1.09764
0.155834
0.917512
1.25757
1.49158
1.54562
0.194859
0.364019
0.693989
0.791551
0.810624
0.40533
0.491674
0.546307
0.616462
0.640976
0.616193
0.626189
0.409511
0.43594
0.471221
0.948801
0.756451
0.344712
0.225757
0.236594
1.30343
0.794289
0.323912
0.0793372
0.0369261
1.11021
0.878511
1.13404
1.17593
1.15848
0.278371
0.486128
0.864592
0.962202
0.969289
9.19042
8.83762
7.75714
5.7287
3.55926
8.58622
7.72144
5.84944
3.48858
0.861775
0.972029
0.868682
1.03343
1.6208
2.65742
0.82819
0.783468
0.717539
0.828045
1.51548
1.06136
1.01232
0.849873
0.555497
0.716745
1.35181
1.3136
1.11706
0.773641
0.21189
1.79164
1.7451
1.49805
1.18969
0.580373
7.73507
3.62553
1.39957
7.91392
9.31036
6.78362
1.63928
3.20191
7.43625
9.08162
4.13108
1.01094
4.19313
6.57112
8.39879
1.03402
1.70833
3.43161
5.08295
6.8199
0.479096
1.37952
2.01404
3.12445
4.52463
1.277
0.627151
0.5745
0.457431
0.181691
0.629828
0.388016
0.469862
0.523253
0.500414
0.346875
0.218048
0.350091
0.612028
0.804179
0.251508
0.0325237
0.294177
0.725971
1.18773
0.186148
0.0303018
0.230277
0.757234
1.52077
5.47166
2.51084
1.0944
0.995339
1.14836
2.86495
1.15758
0.768211
0.573434
0.246087
3.56903
5.73471
7.75834
8.83815
9.19057
0.837538
3.46846
5.84268
7.72006
8.58606
)
;

boundaryField
{
    left
    {
        type            calculated;
        value           nonuniform List<scalar> 
17
(
0.387355
1.01598
2.12957
3.90227
6.57801
0.278546
0.196318
0.165729
0.161799
0.200481
2.94514
2.01822
1.25148
0.747013
0.450687
6.97606
4.57478
)
;
    }
    right
    {
        type            calculated;
        value           nonuniform List<scalar> 
17
(
1.15891
0.969633
0.810067
0.639309
0.467574
0.230085
0.0333047
0.0103478
0.0100992
0.0101022
0.0101025
0.0100034
0.0479801
0.457506
0.761134
0.94742
1.15973
)
;
    }
    down
    {
        type            calculated;
        value           nonuniform List<scalar> 
20
(
5.98635
3.03903
1.20225
1.07903
1.85462
4.26932
6.38213
8.12985
9.01487
9.3086
9.30843
9.01423
8.12837
6.37786
4.26223
1.83197
0.952614
1.20214
1.23641
1.21145
)
;
    }
    up
    {
        type            calculated;
        value           nonuniform List<scalar> 
20
(
8.54819
5.40437
2.73283
1.60795
1.23159
9.69562
9.66614
9.59854
9.47412
9.29321
9.29606
9.47628
9.60009
9.66723
9.69602
5.69236
3.23171
2.72208
5.40267
8.56461
)
;
    }
    cylinder
    {
        type            calculated;
        value           nonuniform List<scalar> 
40
(
1.34792
3.57175
6.11409
7.96037
8.95724
9.50518
9.74579
9.8408
9.88146
9.89747
9.54777
9.76293
9.84858
9.88497
9.8985
2.2164
4.45663
6.6716
8.22987
9.07026
3.04456
1.84139
1.06204
0.40779
0.592963
9.51856
9.3312
8.74105
7.26772
4.98468
9.51839
9.33046
8.739
7.25944
4.95592
2.96698
1.73166
1.05922
0.649985
0.0989325
)
;
    }
    defaultFaces
    {
        type            empty;
    }
}


// ************************************************************************* //
