/*--------------------------------*- C++ -*----------------------------------*\
  =========                 |
  \\      /  F ield         | OpenFOAM: The Open Source CFD Toolbox
   \\    /   O peration     | Website:  https://openfoam.org
    \\  /    A nd           | Version:  13
     \\/     M anipulation  |
\*---------------------------------------------------------------------------*/
FoamFile
{
    format      ascii;
    class       volVectorField;
    location    "52.9";
    object      U;
}
// * * * * * * * * * * * * * * * * * * * * * * * * * * * * * * * * * * * * * //

dimensions      [0 1 -1 0 0 0 0];

internalField   nonuniform List<vector> 
440
(
(-0.18289 0.144581 -7.569e-20)
(-0.205652 0.17149 -2.36417e-19)
(-0.0661865 0.0672975 7.7894e-20)
(0.287154 0.0781374 -9.74366e-20)
(0.231554 0.159962 2.54396e-20)
(-0.0763497 0.0482548 2.2375e-20)
(0.0511587 0.0452355 -1.77435e-20)
(0.509343 -0.0118794 -1.22191e-20)
(1.02502 -0.0309812 2.18595e-20)
(1.48952 -0.0372238 -8.41251e-21)
(-0.0330329 0.0150081 5.50754e-20)
(0.432422 -0.0242964 5.99066e-19)
(1.162 -0.0112162 -3.09632e-19)
(1.74811 0.0139551 -1.0279e-18)
(2.24889 0.0384031 4.402e-19)
(0.172218 -0.0393157 -1.62229e-19)
(1.09693 0.00518394 -4.69363e-19)
(1.86374 0.0756352 1.48515e-18)
(2.3018 0.122508 1.63905e-18)
(2.41774 0.135898 -4.47243e-19)
(0.505565 -0.00748688 -2.75341e-19)
(1.63636 0.176631 -5.68889e-19)
(2.18932 0.262297 1.72398e-18)
(2.33741 0.27949 1.88273e-18)
(2.39754 0.258713 6.43989e-19)
(0.0188467 -0.21528 -9.77508e-20)
(0.0729488 -0.434785 -2.97377e-19)
(0.111442 -0.484483 5.35046e-19)
(0.131742 -0.415061 -7.86925e-20)
(0.117117 -0.256966 -6.43598e-19)
(0.0987275 -0.299884 1.03271e-19)
(0.263254 -0.561493 3.57821e-19)
(0.32846 -0.577797 3.35182e-20)
(0.351489 -0.455335 3.92709e-20)
(0.286746 -0.248568 -8.59479e-20)
(0.256741 -0.483906 3.51176e-19)
(0.46112 -0.755641 5.6915e-19)
(0.491926 -0.737449 2.37677e-20)
(0.465833 -0.588633 -1.27313e-18)
(0.339866 -0.365507 5.80074e-21)
(0.341388 -0.566351 3.82974e-19)
(0.322914 -0.815631 -6.31411e-19)
(0.164169 -0.813651 9.56963e-19)
(-0.0177926 -0.721715 1.82541e-18)
(-0.190182 -0.511216 -5.65701e-20)
(-0.0329295 -0.130374 3.69864e-20)
(-0.293895 -0.357687 1.48753e-19)
(-0.46811 -0.524579 2.10654e-19)
(-0.575661 -0.575493 1.64322e-19)
(-0.731897 -0.488444 1.06565e-18)
(0.247964 0.873576 9.44281e-19)
(-0.893297 0.809864 4.74462e-19)
(1.23698 -0.808207 1.00068e-18)
(1.01174 -0.990343 -2.128e-19)
(1.31873 -0.423675 -8.83229e-20)
(0.521728 1.00598 -7.15145e-19)
(-0.0492114 0.731989 2.11838e-19)
(1.59661 -0.96102 2.4195e-19)
(1.15522 -1.02963 5.10815e-19)
(1.3292 -0.455168 9.04884e-20)
(0.841 0.663947 -8.92187e-19)
(0.385543 0.630194 -2.72044e-18)
(1.94595 -1.02191 -1.276e-19)
(1.3754 -0.985167 2.70557e-19)
(1.28645 -0.442724 3.6095e-21)
(-0.155569 0.637792 2.90892e-19)
(0.661002 0.568096 3.84082e-19)
(2.11815 -1.04611 5.498e-19)
(1.59234 -0.927487 -1.83162e-19)
(1.28541 -0.409444 6.0107e-20)
(-0.916271 0.0599184 -3.74339e-19)
(1.46721 0.191034 1.79274e-18)
(2.35007 -1.04954 0)
(1.61262 -0.875671 -2.77311e-20)
(1.25853 -0.360548 8.54724e-21)
(0.884409 -0.0463911 -2.67348e-19)
(2.03701 -0.170035 -3.96978e-19)
(2.60327 -0.905019 -1.46742e-20)
(1.72686 -0.720945 7.96535e-20)
(1.26304 -0.310344 -1.19954e-20)
(1.79657 0.180477 -1.07986e-20)
(2.5133 -0.278673 7.6675e-19)
(2.57711 -0.863177 -9.9795e-21)
(1.52242 -0.487451 -1.94493e-20)
(1.07384 -0.15842 0)
(2.04319 0.0516267 -2.32926e-19)
(2.59713 -0.390416 -1.21643e-20)
(2.05461 -0.534037 5.07416e-19)
(1.38834 -0.260611 1.19398e-20)
(1.1119 -0.127578 -3.93863e-20)
(2.08425 0.0206955 6.7627e-20)
(2.39763 -0.298659 1.48153e-19)
(1.59978 -0.405494 -4.8877e-21)
(1.05046 -0.139691 -4.11864e-34)
(0.810738 -0.0439866 2.97544e-20)
(1.59371 -0.066908 5.23744e-20)
(1.16662 -0.10381 9.62569e-20)
(0.447452 0.0274174 -6.79185e-20)
(0.193218 -0.0214965 -1.73857e-20)
(0.0161879 -0.0248329 8.78575e-21)
(2.32674 0.250339 -7.98267e-19)
(2.46869 0.0854709 -9.65656e-19)
(2.42253 0.0777091 6.87012e-19)
(2.49495 -0.03086 5.45881e-20)
(2.0614 0.030374 -5.36324e-20)
(2.14035 0.110924 6.76052e-20)
(2.22339 0.117383 -3.67022e-20)
(2.28148 -0.0643619 -1.17476e-19)
(2.27936 -0.0172748 -2.1879e-19)
(2.3215 -0.261537 -3.74948e-21)
(2.09618 0.0253824 7.23653e-20)
(2.10675 0.0966671 8.62951e-20)
(2.19757 -0.0964893 -9.68624e-20)
(2.15394 -0.00274616 3.37879e-20)
(2.25107 -0.190223 1.12858e-20)
(1.99859 -0.00437841 1.08121e-19)
(2.04125 0.0493997 1.44276e-19)
(2.09703 -0.0678973 -1.7323e-20)
(2.09471 -0.00505475 -5.61856e-20)
(2.16215 -0.116231 2.3512e-20)
(1.44143 -0.0129895 1.72741e-19)
(1.48731 -0.0149772 -1.12048e-20)
(1.46017 -0.0202677 1.69986e-20)
(1.50061 -0.0259085 -3.35854e-20)
(1.46441 -0.026481 -2.13097e-20)
(1.53025 0.853997 1.00894e-18)
(1.49332 0.947068 -3.07025e-19)
(1.49314 1.06847 -1.21736e-18)
(1.42242 1.10528 6.75896e-19)
(0.873671 0.787298 -1.67998e-19)
(1.79794 0.793725 -5.28702e-19)
(1.77334 0.87307 -2.8154e-18)
(1.78069 0.979526 -1.09271e-18)
(1.68967 0.983789 -3.82835e-19)
(1.02315 0.672167 -6.11603e-19)
(2.07927 0.693703 7.10748e-19)
(2.06334 0.755087 1.81221e-19)
(2.04391 0.831779 -2.15395e-18)
(1.90245 0.811604 -5.82129e-19)
(1.10229 0.517681 4.1612e-19)
(2.22856 0.566052 2.17783e-18)
(2.22862 0.615248 1.5749e-18)
(2.21856 0.659633 -1.79368e-18)
(1.9887 0.609509 -1.33779e-18)
(1.05884 0.33327 -2.33075e-19)
(2.38177 0.415921 1.01985e-18)
(2.37668 0.437665 -7.30103e-19)
(2.27598 0.451902 5.28418e-19)
(1.9218 0.388301 4.01233e-19)
(0.861506 0.138581 -3.31165e-19)
(0.578899 0.389864 -7.19805e-19)
(0.489072 0.421897 -5.91325e-19)
(0.369342 0.454731 7.85833e-20)
(0.228921 0.460163 -2.80793e-20)
(0.0554579 0.328523 6.42879e-20)
(0.672137 0.567143 5.0118e-20)
(0.606737 0.622506 -3.21589e-19)
(0.51627 0.687094 1.66589e-19)
(0.388133 0.740168 -7.69915e-20)
(0.164936 0.564068 1.10573e-19)
(0.773342 0.764819 2.05443e-19)
(0.698242 0.841878 3.94649e-19)
(0.636765 0.936551 5.36713e-20)
(0.548688 0.98526 -2.66564e-19)
(0.29814 0.734009 2.15628e-19)
(1.03802 0.857468 1.99227e-19)
(0.987806 0.942781 -5.86216e-19)
(0.933422 1.04039 -1.73261e-18)
(0.846043 1.10503 7.09849e-19)
(0.497076 0.823569 -1.74108e-19)
(1.13825 0.899775 -1.26714e-19)
(1.15545 1.01817 -2.00521e-19)
(1.16991 1.1337 -3.13936e-19)
(1.1127 1.16866 -3.65647e-19)
(0.683171 0.844239 -6.03392e-21)
(1.00666 0.0483547 -7.94251e-20)
(0.996342 0.00499996 -2.96665e-20)
(1.05202 0.119626 -1.4147e-21)
(0.943159 0.108958 -1.83462e-19)
(0.894293 0.229827 2.83928e-19)
(0.992879 0.0474562 4.86784e-20)
(1.01501 -0.0031567 1.11493e-19)
(1.03858 0.132275 9.63513e-20)
(0.967094 0.134675 1.97578e-20)
(0.927485 0.311481 2.31394e-20)
(0.998296 0.0464393 6.39674e-20)
(1.00512 -0.0127001 -4.33794e-21)
(1.07827 0.150342 -3.51075e-21)
(0.914391 0.140789 1.41722e-19)
(1.12677 0.446717 -4.08804e-19)
(0.993164 0.0454966 -3.53307e-22)
(1.03014 -0.0245189 -1.6602e-19)
(1.06503 0.17721 -5.48855e-20)
(0.991634 0.143289 -3.39948e-19)
(1.16774 0.488261 8.43266e-20)
(0.994977 0.0356707 -9.82276e-21)
(1.03693 -0.0207592 4.95016e-20)
(1.09803 0.181471 2.67492e-20)
(0.97477 0.16884 4.26795e-19)
(1.36804 0.624845 -4.01537e-19)
(0.962973 0.0328541 -1.31698e-21)
(1.11425 -0.0453416 9.74327e-20)
(1.05221 0.220542 -6.59409e-20)
(1.20187 0.107015 8.58133e-19)
(1.352 0.632394 -3.71976e-19)
(0.914438 -0.00205584 -1.5092e-21)
(1.21162 -0.0330379 -7.90709e-20)
(0.927176 0.159719 4.54991e-21)
(1.33146 0.0724806 -3.0558e-19)
(1.34707 0.437757 7.46937e-21)
(0.981998 -0.0256948 -9.03784e-22)
(1.13341 -0.0173171 1.21111e-35)
(0.983699 0.144631 -1.19784e-20)
(1.28839 0.00321883 9.00878e-20)
(1.33479 0.334448 1.43087e-19)
(1.10008 -0.0676903 3.93289e-21)
(0.891831 -0.00852326 -2.83334e-20)
(1.19733 0.0682205 1.79578e-20)
(1.18286 -0.021588 2.81754e-20)
(1.37063 0.204111 -2.08989e-19)
(0.983379 -0.0236832 -4.22157e-20)
(0.705212 -0.0162471 -5.00187e-21)
(1.01068 -0.00411325 1.89226e-20)
(0.770699 -0.0142073 -1.48354e-20)
(1.03564 0.0683493 -4.69093e-20)
(1.74312 0.663776 2.90959e-19)
(1.85173 0.642481 7.09734e-19)
(2.07069 0.552051 -9.9071e-19)
(2.14945 0.481017 3.88308e-20)
(2.32551 0.321064 4.19061e-19)
(1.6558 0.491732 3.57388e-20)
(1.72493 0.422884 9.12015e-19)
(1.87922 0.416439 9.06694e-20)
(1.95582 0.283871 -8.38738e-19)
(2.08134 0.262771 -2.65271e-19)
(1.62348 0.350201 -1.92917e-19)
(1.72052 0.268205 -1.39718e-19)
(1.83215 0.286168 2.04921e-19)
(1.93293 0.152415 -2.73948e-19)
(2.00189 0.192393 2.49068e-19)
(1.64436 0.202975 3.18532e-19)
(1.70779 0.149742 -2.75555e-21)
(1.81601 0.15931 2.10593e-19)
(1.86727 0.0736727 1.80056e-19)
(1.9513 0.103798 -1.77226e-19)
(1.24862 0.0543189 -3.88215e-20)
(1.30555 0.0365193 2.15449e-19)
(1.37575 0.0263869 9.84043e-20)
(1.39606 0.00674103 -2.08848e-19)
(1.4511 0.000689094 3.45327e-22)
(1.41319 -0.0354744 8.03368e-20)
(2.52162 -0.0134808 -6.2186e-19)
(2.74191 -0.0086412 1.65591e-18)
(2.71241 0.0435882 7.69239e-19)
(2.45642 0.0491395 -5.20902e-19)
(0.950637 0.10906 1.78996e-19)
(2.31326 0.139634 -6.67288e-19)
(2.73171 0.150913 -9.4882e-19)
(2.73263 0.158755 1.29308e-18)
(2.5467 0.158343 -9.5562e-19)
(0.330747 0.114377 -2.12098e-20)
(1.71127 0.234303 7.96162e-19)
(2.47726 0.288012 1.28532e-19)
(2.7763 0.30473 1.36374e-18)
(2.73308 0.271394 7.60687e-19)
(-0.0164909 -0.000334872 2.69448e-19)
(0.798147 0.18544 3.04448e-19)
(1.73708 0.314759 -9.14303e-19)
(2.30869 0.385338 8.7545e-20)
(2.78174 0.426227 7.90581e-19)
(-0.113941 -0.0919508 2.10932e-19)
(0.128802 0.0187464 -2.44543e-19)
(0.823131 0.199368 -1.04751e-19)
(1.40424 0.325858 1.86225e-19)
(2.10755 0.508497 1.06548e-19)
(-0.0990745 -0.117209 2.66213e-20)
(-0.101801 -0.127305 1.51729e-19)
(0.215775 -0.0524059 4.22497e-20)
(0.466757 0.0502568 -7.11316e-20)
(1.32464 0.33041 5.02026e-21)
(-0.0848285 -0.151655 -2.8731e-20)
(-0.133499 -0.270468 -9.563e-20)
(-0.0281421 -0.272956 2.54407e-20)
(0.076902 -0.176537 -1.39805e-20)
(0.558991 0.166654 1.86927e-20)
(-0.0761571 -0.207639 -3.56372e-20)
(-0.114479 -0.367571 -8.45015e-21)
(-0.0767732 -0.369659 8.62252e-20)
(-0.00758489 -0.276419 4.58678e-19)
(0.155886 -0.0497688 -2.39899e-20)
(-0.0550752 -0.233775 -8.68799e-21)
(-0.094537 -0.402116 2.4083e-20)
(-0.0847505 -0.416704 -2.20074e-19)
(-0.0439222 -0.337659 -1.48845e-19)
(0.00859582 -0.189698 6.76612e-20)
(-0.0223526 -0.221829 1.37838e-20)
(-0.0415254 -0.410448 -3.65575e-20)
(-0.034886 -0.452425 1.55408e-20)
(-0.0126923 -0.385004 -5.084e-20)
(0.00320417 -0.237273 -2.60319e-19)
(1.63117 0.739654 -6.65061e-20)
(0.96421 0.466488 -4.26088e-19)
(-0.468834 0.0209714 -1.30099e-19)
(0.487696 -0.406308 4.882e-19)
(0.973819 -0.105922 3.55683e-21)
(1.52198 0.718325 6.9241e-20)
(0.893136 0.704519 1.67491e-18)
(-0.436567 0.00127947 -2.53512e-19)
(0.331539 -0.670298 1.34537e-20)
(1.05372 -0.181904 -1.15423e-20)
(1.45471 0.572022 2.31409e-19)
(0.445922 0.965764 2.20182e-18)
(0.209681 0.076055 1.5467e-19)
(0.352678 -0.80292 -1.96804e-19)
(1.07959 -0.26774 1.2284e-20)
(0.769724 0.552883 -6.23577e-19)
(-0.961906 1.00284 -2.9362e-18)
(0.905902 -0.0952829 -7.39198e-19)
(0.676605 -0.864348 1.53858e-20)
(1.15795 -0.347123 -4.98031e-20)
(0.339983 0.725207 -2.22136e-19)
(-1.58697 0.923589 -3.98663e-19)
(1.09878 -0.51054 1.12287e-18)
(0.908957 -0.939176 -9.64883e-20)
(1.2679 -0.399474 -1.95387e-19)
(-0.252027 0.102883 -4.50937e-20)
(-0.450314 -0.186967 0)
(-0.630074 -0.134834 -8.97388e-20)
(0.0848428 -0.103569 3.2614e-20)
(0.462748 -0.0272155 -2.2045e-20)
(1.82182 0.669074 0)
(1.14833 0.359436 0)
(-0.0215832 -0.0214117 4.00342e-19)
(0.540191 -0.243249 -1.49117e-19)
(0.829032 -0.0806989 7.36134e-21)
(0.780483 0.00723133 -1.38668e-19)
(0.871494 0.000233994 3.62938e-19)
(0.982525 0.0458906 -2.90436e-20)
(0.895836 0.0138553 3.94441e-19)
(1.26853 0.216367 2.37197e-19)
(1.76366 0.0451769 1.3453e-19)
(2.00877 0.0918837 5.33456e-19)
(2.08003 0.187669 -8.68756e-19)
(2.47418 0.272677 3.30966e-19)
(2.47153 0.440319 5.67002e-19)
(0.993672 -0.544517 4.49584e-20)
(0.984713 -0.645474 -2.29697e-19)
(0.984789 -0.755488 -2.10267e-19)
(0.92061 -0.835031 1.24464e-19)
(0.569447 -0.666527 1.54061e-19)
(0.888736 -0.455927 1.0333e-19)
(0.833306 -0.528575 1.13337e-19)
(0.756803 -0.606454 -1.30213e-19)
(0.639812 -0.675492 1.58944e-19)
(0.357848 -0.544129 3.61009e-20)
(0.693667 -0.319067 -1.07935e-19)
(0.602104 -0.36576 -6.36052e-20)
(0.501643 -0.425334 -3.40894e-20)
(0.386322 -0.478763 -6.15962e-20)
(0.183821 -0.383159 -1.47963e-19)
(0.582192 -0.0876379 -4.38186e-19)
(0.497575 -0.110494 -3.49693e-19)
(0.388355 -0.144537 2.87776e-19)
(0.259509 -0.184659 1.3859e-19)
(0.08338 -0.16555 1.29348e-20)
(0.547337 0.121092 -1.34159e-19)
(0.461891 0.11869 -1.5642e-19)
(0.343582 0.112338 -3.42773e-20)
(0.202463 0.109341 6.2086e-20)
(0.0365482 0.0794573 1.53126e-20)
(2.28947 -0.0229929 1.03087e-18)
(2.50769 -0.101202 3.80105e-19)
(2.6037 -0.196527 -9.57269e-19)
(2.49345 -0.223202 -2.05929e-18)
(1.55541 -0.227083 1.53621e-19)
(2.18424 -0.134795 1.69924e-18)
(2.31537 -0.25274 2.2076e-18)
(2.3531 -0.385395 1.834e-19)
(2.28968 -0.449164 3.18245e-19)
(1.50794 -0.427886 -2.13355e-19)
(1.9252 -0.310073 -4.28715e-18)
(1.9746 -0.435938 4.87285e-19)
(2.01438 -0.572708 1.36538e-18)
(1.97533 -0.660833 -5.51785e-19)
(1.31323 -0.589272 8.77996e-19)
(1.6477 -0.445909 1.05875e-18)
(1.66949 -0.554723 -2.78081e-18)
(1.67482 -0.687011 -3.212e-18)
(1.62208 -0.789095 1.01369e-18)
(1.06566 -0.674385 6.58814e-19)
(1.35087 -0.516878 2.42456e-19)
(1.30419 -0.620207 3.02601e-19)
(1.29269 -0.752877 -4.94937e-19)
(1.24084 -0.853097 -6.02504e-19)
(0.798337 -0.69804 -5.82286e-21)
(1.05896 0.0522486 6.8477e-21)
(0.943983 0.0440073 1.71457e-21)
(1.13533 0.0707049 1.00347e-20)
(0.839344 -0.0147067 -2.72358e-19)
(1.20247 -0.248548 -2.24878e-20)
(1.06858 0.0548904 -2.29685e-21)
(0.93756 0.0379489 2.32625e-20)
(1.13166 0.0887807 9.21284e-21)
(0.91126 0.0247005 2.34288e-19)
(1.06432 -0.133897 7.45366e-21)
(1.06589 0.0516866 -5.44473e-20)
(0.940008 0.0292181 -1.59748e-24)
(1.1147 0.0924441 -2.90797e-21)
(0.903472 0.0416048 1.2327e-19)
(1.01564 -0.0754299 -2.85858e-19)
(1.04721 0.0504119 6.43051e-20)
(0.963356 0.0210539 2.55748e-21)
(1.07749 0.098876 1.74755e-20)
(0.939742 0.0673214 -5.62562e-20)
(0.895071 0.0347825 5.34736e-20)
(1.02147 0.0480978 1.58018e-20)
(0.989913 0.0150795 -2.30486e-20)
(1.04787 0.106844 2.82098e-20)
(0.955901 0.0911486 3.9604e-20)
(0.857382 0.129718 -2.94244e-21)
(0.886404 0.033487 0)
(0.721136 0.0271576 8.02681e-21)
(0.628532 0.0207542 7.29364e-21)
(0.381533 -0.0113185 5.80746e-20)
(0.761846 -0.0628614 -1.88816e-19)
(1.02796 0.0727353 -6.1786e-20)
(0.953593 0.06422 1.91678e-21)
(1.04924 0.0730937 -7.09293e-20)
(0.842538 -0.0134018 -1.61983e-19)
(1.12202 -0.227701 -1.97321e-19)
(1.07001 -0.0680573 -4.32341e-20)
(1.16274 -0.0379592 6.30187e-19)
(1.27734 0.0376486 3.75977e-19)
(1.13846 0.0645531 2.95864e-20)
(0.892397 0.0354034 0)
(1.42892 -0.340258 4.27146e-19)
(1.55946 -0.299392 1.81406e-18)
(1.76428 -0.173397 -1.97817e-18)
(1.86106 -0.0206441 -6.35077e-19)
(1.82031 0.0412358 4.72959e-19)
)
;

boundaryField
{
    left
    {
        type            fixedValue;
        value           uniform (1 0 0);
    }
    right
    {
        type            zeroGradient;
    }
    down
    {
        type            noSlip;
    }
    up
    {
        type            noSlip;
    }
    cylinder
    {
        type            noSlip;
    }
    defaultFaces
    {
        type            empty;
    }
}


// ************************************************************************* //
