/*--------------------------------*- C++ -*----------------------------------*\
  =========                 |
  \\      /  F ield         | OpenFOAM: The Open Source CFD Toolbox
   \\    /   O peration     | Website:  https://openfoam.org
    \\  /    A nd           | Version:  13
     \\/     M anipulation  |
\*---------------------------------------------------------------------------*/
FoamFile
{
    format      ascii;
    class       surfaceScalarField;
    location    "3.01";
    object      phi;
}
// * * * * * * * * * * * * * * * * * * * * * * * * * * * * * * * * * * * * * //

dimensions      [0 3 -1 0 0 0 0];

internalField   nonuniform List<scalar> 
823
(
-0.000489209
0.0161343
-0.0156451
0.0245201
0.0137413
-0.0387506
0.0943875
-0.0253535
-0.0445139
0.204229
-0.0863374
-0.0235039
-0.123494
-0.0239391
0.351662
0.00262415
0.0135101
0.0511888
-0.0348234
0.15233
-0.126494
0.276654
-0.210662
-0.285258
0.438418
0.0230696
-0.00955946
0.114003
-0.125757
0.234235
-0.246726
0.351067
-0.327494
-0.375393
0.441203
0.0465154
-0.0560749
0.150147
-0.229389
0.240786
-0.337364
0.29733
-0.384038
-0.397533
0.319469
0.062161
-0.118236
0.139777
-0.307005
0.185078
-0.382666
0.203813
-0.402773
0.215973
-0.409692
-0.0217866
0.0685096
-0.046723
-0.0595325
0.104999
-0.0672535
-0.101233
0.107714
-0.066013
-0.14259
0.102182
-0.0608245
0.0932374
-0.181315
-0.0545133
-0.000998841
0.0695085
-0.0160103
0.120011
-0.0367238
0.128427
-0.0562856
0.121743
0.108403
-0.0714516
0.019807
0.0497015
0.0372759
0.102542
0.0481722
0.117531
0.0582437
0.111672
0.0975087
0.0691384
0.024747
0.0249545
0.0618393
0.0654497
0.0961262
0.0832439
0.126919
0.0808787
0.0737449
0.150683
0.00930946
0.0360085
0.0747386
0.132113
0.181919
-0.110263
0.0622933
-0.133345
0.11975
-0.677891
0.447877
0.265731
-0.606918
0.460936
0.355821
-0.421929
0.33184
-0.192732
0.158877
0.051267
-0.0604252
0.211127
-0.83775
0.312052
-0.707843
0.376682
-0.486559
-0.218459
0.24676
-0.238047
0.346324
-0.937314
0.389725
-0.751243
0.412011
-0.508846
-0.229577
0.371272
-0.458635
0.440399
-1.00644
0.462321
-0.773165
0.45332
-0.499845
-0.226163
0.404353
-0.681069
0.47364
-1.07573
0.497037
-0.796561
0.482214
-0.485023
-0.218275
1.25852
-0.736024
-1.20357
1.13596
-0.953169
0.967591
-0.62819
0.822378
-0.339811
-0.145488
1.32538
-0.603683
-1.45772
1.07138
-0.699175
0.858071
-0.414878
0.739102
-0.220841
-0.0993968
1.29743
-0.48421
-1.4169
1.10453
-0.506277
0.917265
-0.227613
0.774642
-0.0782183
-0.0343151
1.17145
-0.301913
-1.35375
0.921728
-0.256551
0.758462
-0.0643467
0.666593
0.0136514
0.00644888
0.638894
-0.940807
0.382343
0.317997
0.331648
1.13861
0.179946
-1.10258
1.22224
0.235845
1.31379
0.349651
1.33053
0.421671
0.478629
1.04628
0.119348
-0.985683
1.12675
0.155373
1.22933
0.24707
1.34799
0.30301
0.368904
0.989408
0.0648109
-0.934871
1.05075
0.0940344
1.14809
0.149728
1.27148
0.17962
0.223482
0.94237
0.0195956
-0.897155
1.0023
0.0341069
1.09695
0.0550731
1.21201
0.0645674
0.0817358
0.705323
-0.685728
0.73943
0.794503
0.859071
0.14079
0.312656
-0.257968
-0.195478
0.0935969
0.318278
-0.271085
0.0519988
0.328732
-0.287133
0.0174787
0.320427
-0.285906
0.207747
-0.190268
0.10127
0.350254
-0.138868
0.0640879
0.35546
0.0309074
0.361912
0.00543884
0.345895
0.213186
0.0616744
0.384958
-0.0963783
0.0301421
0.386992
0.00369439
0.38836
-0.0089253
0.358515
0.204261
-0.0229125
0.399695
0.00817561
-0.0380123
0.402092
-0.0439539
0.394301
-0.0322641
0.346825
0.171997
-0.104535
0.0945378
-0.105217
-0.0935809
-0.0537607
0.198107
0.110163
-0.249248
-0.0590221
0.145279
0.115134
-0.0623062
0.0906662
0.121028
-0.0664152
0.0370468
0.122304
-0.0686851
0.0869827
-0.0499359
0.184132
0.152967
-0.226936
0.139198
0.160069
0.0892875
0.170939
0.0372478
0.174344
0.124231
0.148638
0.198421
-0.194093
0.106024
0.202683
0.0645671
0.212396
0.024639
0.214272
0.14887
0.152743
0.2327
-0.187022
0.112719
0.242707
0.0687691
0.256346
0.0265957
0.256446
0.175465
0.103429
-0.128698
0.0750514
0.0442638
0.0148031
0.410568
0.030523
-0.0451114
0.421577
0.0626586
-0.0736673
0.415301
0.193934
-0.187658
0.382318
0.278288
-0.245304
0.501357
-0.368287
0.408559
0.0179437
0.41488
0.0563375
0.405691
0.203123
0.372301
0.311677
0.646722
0.402615
0.011308
0.409435
0.0495173
0.381312
0.231247
0.364532
0.328457
0.817161
0.397577
0.00971071
0.393872
0.0532219
0.364751
0.260368
0.337119
0.356089
0.967258
0.388726
0.0169644
0.38078
0.0611674
0.332633
0.308515
0.315685
0.373038
1.15424
0.619996
0.000988776
0.646144
0.0350199
0.668848
0.285811
0.742117
0.299768
0.868175
1.02819
0.626789
-0.0217798
0.645263
0.0165462
0.707067
0.224007
0.779587
0.227248
0.613228
1.03453
0.627082
-0.044841
0.649287
-0.00565947
0.734197
0.139097
0.823821
0.137625
0.391845
1.0452
0.617821
-0.0586414
0.645227
-0.0330654
0.739385
0.0449379
0.822784
0.0542264
0.190954
1.02368
0.545379
0.512314
0.557251
0.611478
0.802432
1.05649
-0.223784
1.04781
-0.130187
1.05486
-0.103423
1.05323
0.00980098
0.0451856
0.987859
-0.17711
0.97254
-0.114867
0.949424
-0.0803073
0.96403
-0.00480489
0.0235327
0.976452
-0.108359
0.944057
-0.0824714
0.915953
-0.0522033
0.924779
-0.0136312
0.0134401
0.959116
-0.0437994
0.914141
-0.0374965
0.886542
-0.0246041
0.885359
-0.0124487
0.00164423
0.758633
0.721136
0.696532
0.684083
0.0469817
0.137998
-0.18498
0.0720177
0.30575
-0.330786
0.0733884
0.360254
-0.361624
0.0631852
0.364834
-0.354631
0.334156
0.0511101
-0.322081
0.0673036
0.0706945
0.139136
0.233918
0.175185
0.324205
0.180856
0.359162
0.356202
0.15881
0.0556399
0.0150546
0.166036
0.123522
0.260898
0.229343
0.330959
0.2891
0.342764
0.344398
0.0261106
-0.011056
0.118789
0.0308433
0.238263
0.109869
0.355505
0.171859
0.23161
0.466658
0.00461429
-0.0156703
0.0480277
-0.0125702
0.14019
0.0177069
0.254332
0.0577171
0.0903606
0.395581
-0.00333428
-0.012336
0.00746899
-0.0233734
0.0461045
-0.0209286
0.110974
-0.00715215
0.0138046
0.18753
0.00360642
-0.0159424
0.0113469
-0.0311139
0.0247449
-0.0343266
0.0479003
-0.0303075
-0.0212875
0.0829924
-0.00909104
-0.00685138
-0.0243309
-0.015874
-0.0391717
-0.0194857
-0.0496501
-0.0198292
-0.0180756
-0.052862
-0.0256953
0.0188439
-0.0651248
0.0235555
-0.104565
0.0199547
-0.140427
0.0160327
0.0130058
-0.171508
-0.0278791
-0.0715772
-0.117635
-0.162427
-0.203935
0.369656
0.400484
-0.582609
0.426202
0.125802
-0.182348
0.395048
0.0327534
-0.00160025
0.386496
0.0305064
-0.0219537
0.00652695
-0.0231363
0.224765
0.258711
0.231646
0.118921
0.271136
-0.00673675
0.339232
-0.0375891
-0.0353642
-0.0071911
0.21304
0.0963137
0.0154159
0.233055
-0.143478
0.33049
-0.135025
-0.0805001
-0.135327
0.176859
0.0787738
-0.198685
0.237107
-0.301811
0.336682
-0.2346
-0.121539
-0.160421
0.0887717
0.247898
0.345137
0.234517
0.392213
-0.626729
0.117404
0.117113
0.172699
-0.0552954
0.2376
-0.0649012
-0.0254338
0.818937
-1.00933
0.753702
0.696806
0.609951
0.0833753
-0.014701
-0.0686743
0.134045
-0.0506697
0.247536
-0.113491
0.417569
-0.170033
-0.20916
0.18724
-0.150831
0.29538
0.526287
0.822912
0.137275
-0.124497
0.156025
-0.168802
0.10329
-0.129019
0.163003
0.0658038
-0.13542
0.172906
0.0265307
-0.134803
0.174076
-0.0936901
0.120221
0.17127
-0.086457
-0.20931
0.129337
-0.0870851
0.0822554
-0.0883387
0.033879
-0.0864265
-0.0598112
0.181261
-0.0392469
-0.228471
0.132414
-0.038238
0.0820369
-0.0379615
0.0331353
-0.0375249
-0.0266759
0.193972
0.00984548
-0.243065
0.143689
0.0120451
0.0913442
0.0143837
0.0381042
0.015715
0.0114283
0.19377
-0.242947
0.143509
0.0914776
0.0385075
0.036981
-0.302707
-0.0563551
0.014217
-0.331867
-0.00712093
-0.340286
-0.0154284
-0.322479
-0.200408
0.118275
-0.273044
-0.147937
0.0764938
-0.290086
0.0367872
-0.30058
0.00713747
-0.292829
-0.193271
0.136243
-0.234851
-0.174436
0.0964759
-0.250319
0.0564832
-0.260587
0.0199485
-0.256294
-0.173322
0.156044
-0.201107
-0.189789
0.114091
-0.208365
0.0692119
-0.215708
0.027064
-0.214146
-0.146258
0.154272
-0.199354
0.10891
0.0661078
0.0260374
0.393731
0.0812594
-0.0790106
0.390584
0.128674
-0.125527
0.341998
0.142537
-0.0939506
0.289353
0.0527931
-0.00014835
-0.14536
0.265911
0.399329
0.0779102
0.409366
0.118637
0.38453
0.167373
0.328645
0.108678
-0.0260255
0.402906
0.0709839
0.41942
0.102124
0.404921
0.181871
0.352733
0.160867
0.098236
0.407378
0.0595857
0.423063
0.086439
0.41849
0.186444
0.373674
0.205682
0.228845
0.410454
0.423226
0.422011
0.382389
0.424049
0.086002
0.324396
0.0996526
0.262335
0.0620609
0.271482
-0.00914629
-0.143859
0.415341
0.517042
0.491168
0.459278
0.449984
0.572035
0.330637
0.0847038
0.254929
0.0757082
0.167972
0.0869565
0.096469
0.0715033
0.0277947
0.457385
0.343304
0.255825
0.179391
)
;

boundaryField
{
    left
    {
        type            calculated;
        value           nonuniform List<scalar> 
17
(
-0.60402
-0.60402
-0.60402
-0.60402
-0.60402
-0.39598
-0.39598
-0.39598
-0.39598
-0.39598
-0.39598
-0.39598
-0.39598
-0.39598
-0.39598
-0.510051
-0.510051
)
;
    }
    right
    {
        type            calculated;
        value           nonuniform List<scalar> 
17
(
0.263034
0.561381
0.403105
0.381123
0.375626
0.377722
0.382475
0.389675
0.40241
0.423128
0.449906
0.474326
0.749591
0.693011
0.709561
0.625829
0.338097
)
;
    }
    down
    {
        type            calculated;
        value           uniform 0;
    }
    up
    {
        type            calculated;
        value           uniform 0;
    }
    cylinder
    {
        type            calculated;
        value           uniform 0;
    }
    defaultFaces
    {
        type            empty;
    }
}


// ************************************************************************* //
