/*--------------------------------*- C++ -*----------------------------------*\
  =========                 |
  \\      /  F ield         | OpenFOAM: The Open Source CFD Toolbox
   \\    /   O peration     | Website:  https://openfoam.org
    \\  /    A nd           | Version:  13
     \\/     M anipulation  |
\*---------------------------------------------------------------------------*/
FoamFile
{
    format      ascii;
    class       volScalarField;
    location    "5.32";
    object      p;
}
// * * * * * * * * * * * * * * * * * * * * * * * * * * * * * * * * * * * * * //

dimensions      [0 2 -2 0 0 0 0];

internalField   nonuniform List<scalar> 
440
(
-0.626959
-0.606667
-0.62065
-0.578158
-0.681483
-0.67012
-0.653023
-0.634446
-0.608264
-0.603287
-0.772987
-0.746103
-0.716394
-0.681424
-0.644965
-0.898497
-0.855995
-0.787381
-0.703741
-0.618374
-1.00433
-0.947608
-0.821186
-0.684668
-0.556266
-0.920408
-0.929176
-0.949682
-0.977601
-0.998836
-0.742263
-0.750333
-0.766131
-0.783646
-0.793473
-0.646081
-0.646941
-0.649584
-0.651887
-0.651439
-0.634145
-0.626838
-0.62094
-0.609369
-0.596725
-0.586212
-0.578529
-0.568079
-0.537942
-0.536976
-0.979653
-1.03588
-0.753561
-0.373026
-0.00569244
-0.821671
-1.05141
-0.88883
-0.406423
-0.0125278
-0.696982
-1.04113
-0.967663
-0.434764
-0.0234815
-0.603419
-0.988183
-0.953802
-0.443324
-0.0428817
-0.561095
-0.956747
-0.915222
-0.448455
-0.07157
-0.367422
-0.915124
-0.851438
-0.443052
-0.109315
-0.316141
-0.724574
-0.678808
-0.413358
-0.144538
-0.290584
-0.512833
-0.506866
-0.380203
-0.166609
-0.207589
-0.347419
-0.425996
-0.367176
-0.157075
-0.159039
-0.213977
-0.30676
-0.372821
-0.167311
-0.333477
-0.458086
-0.609093
-0.750284
-0.808322
-0.106011
-0.241409
-0.321649
-0.372219
-0.37401
0.0365591
-0.0811835
-0.15843
-0.220501
-0.260217
0.12932
0.0187675
-0.0711169
-0.134724
-0.177991
0.175738
0.0652128
-0.0265037
-0.0853371
-0.123728
0.920924
0.771837
0.581478
0.371368
0.139948
0.515908
0.355891
0.158393
-0.0599902
-0.299819
0.123407
-0.0381755
-0.241139
-0.467334
-0.669197
-0.20555
-0.36818
-0.562824
-0.771857
-0.92092
-0.420759
-0.576411
-0.751795
-0.930595
-1.02443
2.07559
2.10853
2.13849
2.15357
2.15015
1.88428
1.9078
1.92769
1.93027
1.90998
1.66617
1.65319
1.61757
1.55943
1.47384
1.41397
1.37997
1.30941
1.20621
1.07254
1.16774
1.06601
0.93214
0.776572
0.586061
1.79415
1.78731
1.77974
1.85137
1.94803
1.78421
1.7769
1.7611
1.82993
1.85885
1.77525
1.76343
1.73898
1.79843
1.7569
1.76751
1.74746
1.71513
1.74738
1.59067
1.76095
1.731
1.68973
1.69539
1.41436
1.75575
1.70676
1.65686
1.58877
1.221
1.75383
1.67599
1.6474
1.44405
1.27283
1.76124
1.6636
1.64204
1.37528
1.29111
1.75838
1.63341
1.63347
1.33334
1.31442
1.79466
1.63373
1.63086
1.30617
1.3622
0.88442
0.594127
0.271685
0.00281796
-0.182206
0.7992
0.598494
0.386705
0.201696
0.0342317
0.798021
0.633327
0.471426
0.318377
0.168752
0.868868
0.706754
0.549218
0.399348
0.261008
0.928305
0.757579
0.598436
0.446848
0.309559
-1.66501
-1.50995
-1.33393
-1.19046
-1.10565
-1.7415
-1.67044
-1.53655
-1.42607
-1.35917
-1.66425
-1.61404
-1.53225
-1.46325
-1.41604
-1.5069
-1.46313
-1.41712
-1.3791
-1.35085
-1.36818
-1.34262
-1.31638
-1.30065
-1.30693
-1.30031
-1.2862
-1.26346
-1.27424
-1.25534
-1.2774
-1.26449
-1.25026
-1.25287
-1.25326
-1.27532
-1.26623
-1.26015
-1.26468
-1.2815
-1.24182
-1.24478
-1.26068
-1.29068
-1.32837
-1.10469
-1.11282
-1.1361
-1.17362
-1.21129
-1.25929
-0.797125
-0.37624
-0.164469
-0.00902707
-1.27009
-0.753543
-0.364102
-0.162647
-0.00340234
-1.24288
-0.777574
-0.400962
-0.202877
-0.000327515
-1.25359
-0.889048
-0.486246
-0.279686
0.000365629
-1.16156
-0.985824
-0.608101
-0.33686
-0.00142107
-0.832776
-0.914691
-0.49142
-0.187327
-0.0157023
-1.13591
-0.859227
-0.409559
-0.162702
-0.011812
-1.0559
-1.32367
-1.37625
-1.33077
-1.12426
-1.0766
-1.3305
-1.38866
-1.32994
-1.30359
1.66598
1.63938
1.59493
1.53302
1.45015
1.86907
1.88767
1.89037
1.87529
1.84291
2.04299
2.07582
2.10101
2.11337
2.11058
2.14549
2.18619
2.22937
2.26446
2.28027
2.15573
2.1948
2.23824
2.27433
2.29093
-0.616122
-0.725598
-0.898176
-1.10604
-1.35555
0.0287756
-0.114117
-0.303572
-0.531285
-0.825246
0.608296
0.460677
0.284351
0.0755858
-0.190061
1.07379
0.95787
0.817588
0.647317
0.439198
1.44753
1.36555
1.25937
1.13258
0.982908
1.85771
1.81794
1.81131
1.81896
1.83094
1.84223
1.81409
1.81149
1.83878
1.90006
1.8289
1.80926
1.81087
1.86
1.97966
1.81643
1.80337
1.80511
1.86748
1.99354
1.80479
1.7965
1.79454
1.86484
1.98882
1.91273
1.82503
1.79729
1.74204
1.69214
1.86836
1.81488
1.79448
1.76386
1.70733
1.32364
1.08377
0.671151
0.0755784
-0.583945
1.41182
1.1197
0.689667
0.098216
-0.575086
)
;

boundaryField
{
    left
    {
        type            zeroGradient;
    }
    right
    {
        type            fixedValue;
        value           uniform 0;
    }
    down
    {
        type            zeroGradient;
    }
    up
    {
        type            zeroGradient;
    }
    cylinder
    {
        type            zeroGradient;
    }
    defaultFaces
    {
        type            empty;
    }
}


// ************************************************************************* //
