/*--------------------------------*- C++ -*----------------------------------*\
  =========                 |
  \\      /  F ield         | OpenFOAM: The Open Source CFD Toolbox
   \\    /   O peration     | Website:  https://openfoam.org
    \\  /    A nd           | Version:  13
     \\/     M anipulation  |
\*---------------------------------------------------------------------------*/
FoamFile
{
    format      ascii;
    class       surfaceScalarField;
    location    "5.745";
    object      phi;
}
// * * * * * * * * * * * * * * * * * * * * * * * * * * * * * * * * * * * * * //

dimensions      [0 3 -1 0 0 0 0];

internalField   nonuniform List<scalar> 
823
(
-7.68855e-05
0.0159691
-0.0158922
0.0136146
0.0148712
-0.0285627
0.0634178
-0.0174953
-0.0323079
0.153383
-0.0726251
-0.0173406
-0.0738016
-0.047212
0.274397
0.00353175
0.0124373
0.0414528
-0.0230499
0.122812
-0.0988544
0.225372
-0.175185
-0.236531
0.388101
0.019135
-0.00669769
0.0966809
-0.100596
0.207729
-0.209902
0.322617
-0.290073
-0.345051
0.431137
0.0389193
-0.045617
0.136118
-0.197795
0.231723
-0.305507
0.300601
-0.35895
-0.37804
0.333589
0.0560806
-0.101698
0.137373
-0.279087
0.19082
-0.358954
0.214771
-0.382902
0.226663
-0.389931
-0.012528
-0.050691
0.063219
-0.0389949
-0.0680784
0.0945453
-0.0692014
-0.0612251
0.0914315
-0.0993076
-0.0492243
0.0793305
-0.0362305
-0.128701
0.0656241
-0.0245269
-0.0261642
-0.0633057
-0.0292996
-0.101862
-0.0226684
-0.136874
-0.0142122
-0.00373739
-0.169367
-0.0213602
-0.00480401
-0.0524073
0.00174758
-0.0839095
0.00883372
-0.111463
0.0133418
0.0198654
-0.135066
-0.00900127
0.00419726
-0.0229947
0.015741
-0.0409545
0.0267935
-0.0598137
0.032201
0.040564
-0.0805123
-0.0116949
-0.0245166
-0.030031
-0.0151706
-0.0218186
-0.151179
0.15349
-0.131012
-0.0923318
1.13353
-1.19238
0.183885
0.358244
-0.63446
0.390711
-0.829926
0.623101
-0.720168
0.659178
-0.197984
0.182107
-0.0292857
0.964835
0.333325
-0.00436667
0.499606
-0.996208
-0.756937
-0.105748
0.152789
0.131254
0.727833
0.500344
-0.373457
0.633979
-1.12984
-0.758586
0.0172047
0.0550717
0.307699
0.437339
0.609235
-0.674993
0.723442
-1.24405
-0.753719
0.112494
-0.079241
0.435239
0.114594
0.639286
-0.879041
0.728176
-1.33294
-0.760187
0.923367
0.0312463
-1.03385
1.17939
-0.141424
1.32683
-1.02648
1.2297
-1.23581
-0.627458
1.35687
0.0326988
-1.35832
1.5132
-0.297754
1.45202
-0.9653
1.16245
-0.946239
-0.421716
1.42083
-0.0486236
-1.33951
1.49469
-0.37161
1.27444
-0.745055
0.925842
-0.597637
-0.233446
1.39097
-0.0839063
-1.35569
1.32257
-0.303211
0.980452
-0.402938
0.589013
-0.206198
-0.0510868
0.899866
-0.983772
0.596655
0.193717
-0.0124809
1.09281
0.180189
-1.04634
1.17081
0.255592
1.2574
0.344553
1.21679
0.428705
0.457335
0.998047
0.111967
-0.929825
1.06431
0.189329
1.16985
0.239008
1.26535
0.333212
0.364359
0.923597
0.0581378
-0.869768
0.987499
0.125427
1.08251
0.144002
1.20659
0.209131
0.231434
0.916822
0.0159712
-0.874655
0.994226
0.0480229
1.08537
0.0528624
1.213
0.0814986
0.0887473
0.712641
-0.69667
0.760664
0.813526
0.895025
0.130711
0.300422
-0.249318
-0.181815
0.0860609
0.307155
-0.262505
0.0463357
0.317775
-0.278049
0.0144327
0.308276
-0.276373
0.197606
-0.183174
0.093068
0.337453
-0.130099
0.0576673
0.342556
0.0266294
0.348813
0.00310882
0.331797
0.200715
0.0502404
0.369203
-0.0819901
0.0205432
0.372253
-0.00310851
0.372464
-0.0115033
0.340192
0.189212
-0.0348089
0.383726
0.0202857
-0.0472558
0.3847
-0.0501794
0.375388
-0.0345158
0.324528
0.154696
-0.116671
0.110466
-0.114873
-0.0984397
-0.0529985
0.203421
0.0991602
-0.25794
-0.0446404
0.147982
0.103196
-0.0477577
0.0917096
0.107157
-0.0508851
0.0373661
0.106238
-0.0518944
0.0748309
-0.0374647
0.206773
0.14415
-0.251763
0.158345
0.151624
0.103628
0.161874
0.0444659
0.1654
0.119297
0.14262
0.189082
-0.187552
0.101443
0.192801
0.0611312
0.202187
0.0226307
0.203901
0.141927
0.160663
0.224821
-0.196402
0.118847
0.234617
0.0729898
0.248043
0.0283598
0.248531
0.170287
0.0986234
-0.12312
0.0707349
0.0407289
0.0128864
0.405383
0.0602989
-0.0697026
0.426948
-0.00199247
-0.0195726
0.40898
0.199477
-0.181508
0.397072
0.157485
-0.145578
0.419959
-0.280827
0.404296
0.0519822
0.421838
-0.0195339
0.39783
0.223484
0.384948
0.170368
0.553144
0.399203
0.0487592
0.415842
-0.0361731
0.374594
0.264732
0.368545
0.176417
0.734137
0.397235
0.0475036
0.399152
-0.0380904
0.360211
0.303674
0.353881
0.182746
0.891616
0.390649
0.0528344
0.384345
-0.0317868
0.336443
0.351576
0.332496
0.186693
1.10099
0.63023
0.0266248
0.635799
-0.0373555
0.674011
0.313364
0.781727
0.0789765
0.894554
0.988165
0.645387
-0.0147416
0.617202
-0.00917113
0.710928
0.219638
0.815131
-0.0252263
0.670829
1.03886
0.641609
-0.0523304
0.62902
0.00341778
0.743114
0.105545
0.798889
-0.0810013
0.489411
0.980307
0.61874
-0.0670498
0.643569
-0.0214115
0.743537
0.00557711
0.705991
-0.0434556
0.275454
0.919947
0.536971
0.515559
0.521136
0.47768
0.753135
1.01607
-0.20972
1.00919
-0.123219
1.00608
-0.078884
1.01024
0.0161339
0.0743613
0.975338
-0.146202
0.942081
-0.0899619
0.906083
-0.042886
0.918041
0.00417666
0.0625768
0.902311
-0.0682056
0.866574
-0.0542256
0.841267
-0.0175783
0.852081
-0.00663789
0.0448901
0.873018
-0.0212761
0.843811
-0.0250185
0.837571
-0.0113386
0.842768
-0.0118344
0.0130025
0.731859
0.70684
0.695502
0.683667
0.0550316
0.169295
-0.224326
0.0804688
0.362244
-0.387681
0.0804592
0.416779
-0.416769
0.0702499
0.418454
-0.408245
0.385965
0.0576972
-0.373413
0.0832256
0.0860692
0.161231
0.284238
0.196806
0.381204
0.201585
0.413675
0.405822
0.181728
0.0700269
0.0160422
0.19788
0.156385
0.298214
0.280871
0.36421
0.347679
0.401491
0.368541
0.0325741
-0.0165319
0.147714
0.0412448
0.285085
0.1435
0.417764
0.214999
0.297143
0.522113
0.00509691
-0.0216288
0.0627306
-0.0163889
0.177295
0.028936
0.316692
0.0756015
0.142959
0.470876
-0.0034847
-0.0181441
0.0145282
-0.0344018
0.0729869
-0.0295227
0.163585
-0.0149961
0.0317594
0.274784
0.00299609
-0.0211402
0.016922
-0.0483277
0.0445734
-0.057174
0.0819708
-0.0523935
-0.03169
0.14542
0.0153204
-0.0364606
0.0411587
-0.074166
0.0673578
-0.0833731
0.0913371
-0.0763729
-0.0621684
0.121816
0.0207406
-0.0572011
0.0445699
-0.0979954
0.0628401
-0.101643
0.0770005
-0.0905333
-0.0747538
0.0895859
0.0060179
0.00256786
-0.0076439
-0.0188466
-0.0279763
0.396966
0.768128
-0.89031
0.316923
0.600839
-0.520796
0.164921
0.288912
-0.136909
0.147226
-0.0476236
0.0653188
-0.227995
0.138477
0.37439
0.539159
0.248064
0.727164
0.0510205
0.485956
0.0779578
-0.0745609
-0.351698
0.342622
0.318352
0.153054
0.916732
-0.0279616
0.666971
0.0833638
-0.185886
-0.48234
0.22477
0.183168
0.0340566
1.10744
-0.0373558
0.738384
0.163057
-0.386299
-0.584312
0.0241796
-0.0607563
0.043167
0.279968
0.0523579
0.616534
-0.668892
-0.121122
0.173479
-0.041753
-0.0793685
0.0665241
-0.108277
-0.0738144
0.918022
-1.1918
0.570706
0.354428
0.31147
0.0981854
-0.0155069
-0.0826785
0.158113
-0.0599276
0.275519
-0.117405
0.454489
-0.17897
-0.214403
0.219247
-0.177057
0.341047
0.592183
0.935325
0.147787
-0.151188
0.182006
-0.178605
0.11352
-0.157708
0.191975
0.0736418
-0.166135
0.206013
0.0301318
-0.167179
0.210689
-0.119032
0.149164
0.189761
-0.110503
-0.230446
0.143848
-0.111795
0.0918891
-0.114177
0.0382537
-0.113543
-0.0807787
0.190605
-0.0594711
-0.241637
0.138617
-0.0598069
0.086107
-0.0616665
0.0351667
-0.062603
-0.045612
0.206459
-0.0071734
-0.258757
0.153411
-0.00675925
0.0983042
-0.00655944
0.0416741
-0.00597294
-0.00393786
0.211231
-0.263045
0.156714
0.09927
0.0414026
0.0456259
-0.349625
-0.0694134
0.0182614
-0.380881
-0.00640071
-0.392107
-0.0172599
-0.376822
-0.241586
0.135048
-0.315119
-0.169554
0.0885208
-0.334353
0.0432142
-0.346801
0.00897649
-0.342584
-0.23261
0.155465
-0.271237
-0.199347
0.109678
-0.288567
0.0646487
-0.301771
0.0233797
-0.301315
-0.20923
0.174477
-0.232541
-0.213173
0.127884
-0.241974
0.0785854
-0.252473
0.0315744
-0.254304
-0.177656
0.168564
-0.219099
0.118566
0.0721067
0.0284915
0.389281
0.0906258
-0.0839269
0.396635
0.0802757
-0.0876304
0.360016
0.166275
-0.129656
0.310152
0.0223815
0.0274823
-0.252404
0.383951
0.394376
0.092229
0.407708
0.0669444
0.399813
0.17417
0.354279
0.0679157
-0.128571
0.399284
0.0889247
0.41431
0.0519183
0.41306
0.175419
0.378393
0.102583
0.0081853
0.404352
0.0805525
0.419439
0.0368307
0.419885
0.174974
0.395617
0.126851
0.145045
0.40683
0.424088
0.417553
0.398827
0.422171
0.0878799
0.338005
0.0841656
0.251243
0.0867628
0.273701
-0.0224588
-0.206973
0.480674
0.514004
0.510539
0.467646
0.47267
0.649648
0.385644
0.0950302
0.301301
0.0843431
0.202278
0.0990227
0.117976
0.0843016
0.035298
0.525579
0.396749
0.296424
0.211172
)
;

boundaryField
{
    left
    {
        type            calculated;
        value           nonuniform List<scalar> 
17
(
-0.60402
-0.60402
-0.60402
-0.60402
-0.60402
-0.39598
-0.39598
-0.39598
-0.39598
-0.39598
-0.39598
-0.39598
-0.39598
-0.39598
-0.39598
-0.510051
-0.510051
)
;
    }
    right
    {
        type            calculated;
        value           nonuniform List<scalar> 
17
(
0.140338
0.376132
0.236744
0.201661
0.214005
0.265029
0.354834
0.451701
0.536374
0.635628
0.718575
0.734643
1.09697
0.956709
0.737573
0.406653
-0.0635677
)
;
    }
    down
    {
        type            calculated;
        value           uniform 0;
    }
    up
    {
        type            calculated;
        value           uniform 0;
    }
    cylinder
    {
        type            calculated;
        value           uniform 0;
    }
    defaultFaces
    {
        type            empty;
    }
}


// ************************************************************************* //
