/*--------------------------------*- C++ -*----------------------------------*\
  =========                 |
  \\      /  F ield         | OpenFOAM: The Open Source CFD Toolbox
   \\    /   O peration     | Website:  https://openfoam.org
    \\  /    A nd           | Version:  13
     \\/     M anipulation  |
\*---------------------------------------------------------------------------*/
FoamFile
{
    format      ascii;
    class       volScalarField;
    location    "0.2325";
    object      p;
}
// * * * * * * * * * * * * * * * * * * * * * * * * * * * * * * * * * * * * * //

dimensions      [0 2 -2 0 0 0 0];

internalField   nonuniform List<scalar> 
1800
(
-0.978491
-0.948306
-0.878287
-0.783863
-0.68689
-0.597563
-0.518693
-0.449543
-0.388628
-0.338908
-1.15952
-1.12581
-1.04631
-0.939562
-0.830419
-0.729981
-0.641285
-0.563837
-0.496904
-0.442277
-1.33147
-1.29385
-1.20445
-1.0854
-0.96433
-0.852961
-0.754363
-0.667942
-0.592615
-0.52907
-1.48914
-1.44737
-1.34799
-1.21728
-1.08533
-0.964279
-0.857102
-0.763033
-0.680851
-0.610919
-1.62687
-1.58074
-1.47144
-1.32982
-1.18802
-1.05828
-0.943352
-0.842301
-0.753776
-0.677566
-1.73953
-1.68897
-1.57016
-1.41881
-1.2686
-1.13161
-1.01029
-0.903516
-0.809776
-0.728475
-1.8221
-1.76715
-1.6395
-1.47985
-1.32283
-1.1801
-1.05376
-0.942471
-0.844611
-0.759224
-1.87037
-1.81122
-1.67577
-1.50954
-1.34751
-1.20072
-1.07086
-0.95641
-0.855617
-0.76723
-1.88097
-1.81795
-1.6761
-1.50519
-1.34006
-1.19094
-1.05908
-0.942855
-0.840358
-0.750076
-1.85182
-1.78548
-1.63882
-1.46523
-1.29895
-1.1492
-1.01682
-0.900091
-0.796997
-0.705856
0.345395
0.360808
0.376137
0.390264
0.400952
0.407413
0.410088
0.409755
0.407116
0.402765
0.303561
0.319301
0.336324
0.353133
0.366896
0.376396
0.381893
0.384139
0.383851
0.381774
0.235671
0.251926
0.271555
0.292475
0.310916
0.325037
0.334818
0.340971
0.344243
0.345634
0.14299
0.159958
0.183086
0.20948
0.234097
0.254289
0.269681
0.280934
0.288838
0.294747
0.0272512
0.0451493
0.0726412
0.10579
0.13794
0.165485
0.187644
0.205013
0.218442
0.229733
-0.109242
-0.0901668
-0.0574866
-0.0164177
0.0244482
0.0604327
0.0903139
0.114615
0.134262
0.151577
-0.263525
-0.242995
-0.204368
-0.154377
-0.103838
-0.0585764
-0.0202513
0.0115769
0.0379265
0.0616476
-0.431906
-0.409604
-0.364342
-0.304614
-0.243717
-0.18864
-0.141457
-0.101805
-0.068513
-0.0383409
-0.61009
-0.585627
-0.53297
-0.462647
-0.390678
-0.32523
-0.268783
-0.221036
-0.180545
-0.14412
-0.79371
-0.766619
-0.705648
-0.623614
-0.539433
-0.462399
-0.395321
-0.337885
-0.288449
-0.245306
0.360305
0.279489
0.221638
0.177194
0.141602
0.111735
0.0849834
0.0599126
0.0356834
0.0118458
0.353472
0.276634
0.221081
0.177276
0.141722
0.111758
0.084938
0.0598437
0.0356242
0.0118144
0.340106
0.270644
0.219133
0.176825
0.141699
0.111788
0.0849483
0.0598354
0.0356078
0.0117975
0.319435
0.261726
0.215849
0.175842
0.141524
0.111815
0.0850068
0.0598818
0.0356307
0.0117945
0.290417
0.25012
0.211309
0.174337
0.141185
0.11183
0.0851057
0.059977
0.0356894
0.0118048
0.251942
0.236023
0.205607
0.172322
0.14067
0.111821
0.085237
0.0601149
0.0357804
0.0118279
0.203056
0.219511
0.19887
0.169822
0.139971
0.111779
0.0853923
0.0602892
0.0359003
0.0118636
0.142763
0.200031
0.19115
0.166857
0.139082
0.111694
0.0855633
0.0604933
0.0360452
0.0119116
0.0705821
0.176382
0.182108
0.163289
0.13793
0.11153
0.0857339
0.0607185
0.0362114
0.0119721
-0.00797562
0.149341
0.172108
0.159258
0.136555
0.111294
0.0859025
0.0609616
0.0363963
0.0120485
-0.0508384
0.126414
0.161852
0.153488
0.133387
0.109621
0.0850206
0.0604929
0.0361906
0.0120452
-0.0655288
0.0991958
0.142959
0.14161
0.126141
0.105241
0.0823596
0.0588984
0.0353477
0.0117976
-0.0630461
0.0834909
0.129297
0.131706
0.119509
0.101001
0.0797071
0.0572874
0.034485
0.0115376
-0.0565824
0.0709528
0.116825
0.122424
0.113135
0.0968294
0.0770577
0.0556647
0.0336077
0.0112683
-0.0467828
0.0622372
0.106206
0.114046
0.107175
0.0928295
0.0744766
0.0540685
0.0327365
0.0109964
-0.0364704
0.0557975
0.0970944
0.106527
0.101688
0.0890765
0.0720218
0.0525363
0.0318913
0.0107278
-0.0277381
0.0506236
0.0892294
0.0998417
0.0967284
0.0856371
0.069747
0.0511033
0.0310905
0.0104678
-0.0219223
0.0457644
0.0822583
0.0939202
0.0923203
0.0825608
0.0676965
0.0498007
0.03035
0.0102218
-0.0189268
0.0404726
0.0754395
0.088264
0.0881426
0.0796426
0.0657383
0.0485419
0.0296044
0.00995349
-0.0239261
0.0361577
0.0711555
0.0849288
0.0857304
0.0779654
0.0646135
0.04782
0.0291787
0.0098027
-0.552893
-0.595972
-0.616704
-0.616112
-0.596107
-0.559152
-0.50839
-0.445629
-0.376211
-0.300531
-0.38832
-0.431891
-0.457372
-0.465843
-0.458244
-0.437451
-0.404649
-0.363969
-0.317474
-0.268965
-0.2619
-0.304142
-0.331681
-0.345424
-0.345623
-0.335406
-0.314344
-0.287469
-0.254114
-0.219171
-0.164157
-0.205755
-0.234588
-0.251513
-0.25666
-0.252886
-0.239455
-0.221187
-0.196873
-0.17135
-0.0899269
-0.130662
-0.160178
-0.179117
-0.18766
-0.188134
-0.180142
-0.167766
-0.150033
-0.131118
-0.0333119
-0.0735619
-0.103658
-0.124053
-0.135058
-0.138492
-0.134402
-0.126073
-0.112856
-0.0983577
0.00874254
-0.0313607
-0.0620184
-0.0835535
-0.0963893
-0.101932
-0.10058
-0.0949949
-0.0849062
-0.0734818
0.0385671
-0.00184865
-0.0332804
-0.0558973
-0.0702041
-0.0773167
-0.0778506
-0.0739978
-0.0658609
-0.0564233
0.0553404
0.0147652
-0.0176268
-0.0416017
-0.057383
-0.0657846
-0.0674801
-0.0641861
-0.0564654
-0.0460528
0.0664569
0.0228405
-0.0124522
-0.0396028
-0.0589393
-0.0709351
-0.0763169
-0.0757945
-0.0701814
-0.0594706
0.85698
0.806847
0.748463
0.685748
0.617626
0.541461
0.455574
0.361956
0.274672
0.226026
0.662552
0.607011
0.544503
0.475542
0.398389
0.310884
0.211924
0.104179
0.00400232
-0.0514102
0.447823
0.388657
0.322742
0.248699
0.164568
0.0683808
-0.040858
-0.160202
-0.27144
-0.332548
0.242589
0.178425
0.106558
0.0252914
-0.0671645
-0.172755
-0.292512
-0.423324
-0.54526
-0.611231
0.054082
-0.0165104
-0.0956893
-0.185189
-0.286768
-0.402444
-0.533201
-0.675669
-0.808254
-0.877926
-0.119261
-0.196162
-0.282387
-0.379733
-0.490024
-0.615335
-0.756432
-0.909626
-1.05272
-1.12338
-0.277635
-0.359731
-0.451922
-0.556
-0.67382
-0.807469
-0.957577
-1.1192
-1.27193
-1.34032
-0.418273
-0.504387
-0.601345
-0.710843
-0.834733
-0.975065
-1.13197
-1.30482
-1.45412
-1.52449
-0.537555
-0.626762
-0.727431
-0.841093
-0.969653
-1.11526
-1.27833
-1.45148
-1.60215
-1.67253
-0.633173
-0.72464
-0.827561
-0.943641
-1.07508
-1.22375
-1.3894
-1.56363
-1.71328
-1.78218
2.03488
2.05148
2.07128
2.09232
2.11273
2.13162
2.14834
2.16231
2.17411
2.18341
1.98232
1.99702
2.01444
2.03272
2.05008
2.06562
2.07865
2.08871
2.0969
2.10378
1.9097
1.9217
1.93563
1.94985
1.96274
1.97337
1.98096
1.98524
1.98814
1.99151
1.81777
1.82628
1.8357
1.84467
1.85176
1.85602
1.85658
1.85333
1.84924
1.84822
1.7074
1.7118
1.71585
1.71853
1.71868
1.71527
1.70734
1.69498
1.68226
1.67623
1.57983
1.57972
1.57776
1.5733
1.56547
1.55321
1.53549
1.51262
1.4899
1.47795
1.4372
1.43252
1.42421
1.41195
1.39526
1.37312
1.34443
1.30979
1.27591
1.25726
1.28471
1.27503
1.25929
1.23795
1.21112
1.1778
1.13686
1.08921
1.04315
1.01733
1.12942
1.11435
1.09002
1.05809
1.01955
0.973507
0.918779
0.856679
0.797353
0.763931
0.983495
0.954606
0.915649
0.869911
0.818058
0.758389
0.689296
0.612327
0.539509
0.49848
1.98815
1.6467
1.9402
1.77608
1.77431
1.77975
1.78931
1.8139
1.86782
1.96997
1.98151
1.64048
1.93469
1.76935
1.76686
1.77078
1.77785
1.79874
1.84543
1.93453
1.97555
1.63398
1.9297
1.76189
1.7588
1.76085
1.76462
1.78068
1.81675
1.88723
1.97022
1.62727
1.92524
1.75372
1.75015
1.74998
1.74966
1.75959
1.78152
1.82822
1.96547
1.62044
1.92133
1.74485
1.74098
1.73819
1.73299
1.73531
1.7398
1.75732
1.9613
1.61358
1.91792
1.73527
1.73134
1.72549
1.71462
1.70774
1.69245
1.67342
1.95769
1.60681
1.915
1.72499
1.7213
1.71189
1.69455
1.6769
1.64032
1.57501
1.95463
1.60026
1.91248
1.71403
1.71092
1.69738
1.67277
1.64282
1.5838
1.4628
1.95212
1.59405
1.91027
1.70241
1.70027
1.68199
1.64938
1.60554
1.52202
1.33417
1.95022
1.5884
1.90828
1.69021
1.68943
1.66578
1.62478
1.56661
1.4576
1.20222
1.94845
1.58232
1.90392
1.67917
1.67514
1.64456
1.59198
1.51543
1.38052
1.06729
1.94921
1.57674
1.89778
1.67096
1.65937
1.6221
1.55877
1.46736
1.31321
1.00907
1.9517
1.57263
1.8924
1.66342
1.64492
1.6014
1.52889
1.4262
1.25857
0.968858
1.95632
1.57004
1.88791
1.65673
1.63204
1.58289
1.50275
1.39157
1.21506
0.941976
1.96279
1.56895
1.88437
1.651
1.62094
1.56688
1.48062
1.36311
1.1817
0.924104
1.97329
1.56936
1.8818
1.64633
1.61174
1.55356
1.46257
1.34048
1.15722
0.912687
1.98739
1.57111
1.88004
1.64278
1.60455
1.54304
1.44857
1.32333
1.14022
0.906245
2.00769
1.57441
1.87902
1.64037
1.59943
1.53539
1.43857
1.31137
1.12948
0.904038
2.02503
1.57714
1.87661
1.63922
1.59656
1.53074
1.43268
1.30464
1.12453
0.907067
2.07947
1.58612
1.87903
1.63732
1.59574
1.52832
1.42966
1.30108
1.12244
0.908437
0.824573
0.658981
0.469502
0.288973
0.124686
-0.0266906
-0.166635
-0.292425
-0.400218
-0.487644
0.750657
0.623806
0.47875
0.334148
0.198993
0.0729823
-0.0449362
-0.152716
-0.247578
-0.326806
0.714488
0.611676
0.496797
0.376036
0.259267
0.149361
0.0460732
-0.0491888
-0.133732
-0.205129
0.699513
0.609692
0.512831
0.409326
0.306871
0.209569
0.117783
0.0324798
-0.04414
-0.110091
0.696765
0.614956
0.529601
0.438431
0.346424
0.257895
0.173926
0.0953686
0.0240376
-0.0382028
0.700219
0.623797
0.545846
0.462983
0.378312
0.295977
0.217516
0.14377
0.0762983
0.0168322
0.706373
0.633737
0.560738
0.48342
0.403757
0.325686
0.250986
0.180517
0.11566
0.0579812
0.713709
0.643639
0.573915
0.50006
0.423474
0.348033
0.275635
0.207157
0.143907
0.0873443
0.724437
0.656274
0.588132
0.515386
0.439642
0.364815
0.292807
0.224506
0.161182
0.10435
0.738902
0.674569
0.607664
0.534646
0.458696
0.383541
0.310754
0.241337
0.176638
0.118
-3.03532
-2.93826
-2.74002
-2.52494
-2.33116
-2.16672
-2.03054
-1.91953
-1.83131
-1.76485
-3.10549
-3.01726
-2.82818
-2.6154
-2.4202
-2.25357
-2.11541
-2.00266
-1.91324
-1.84714
-3.06251
-2.98389
-2.80746
-2.59921
-2.40371
-2.2353
-2.09524
-1.98059
-1.88896
-1.82005
-2.91651
-2.84736
-2.68622
-2.48525
-2.29128
-2.12201
-1.98042
-1.86403
-1.77015
-1.69742
-2.68584
-2.62567
-2.48116
-2.29067
-2.10124
-1.93338
-1.79186
-1.67493
-1.5798
-1.50468
-2.39378
-2.34188
-2.21437
-2.03783
-1.85728
-1.6947
-1.55638
-1.4414
-1.34708
-1.27259
-2.06563
-2.02108
-1.91029
-1.75118
-1.58463
-1.43244
-1.30177
-1.19255
-1.10209
-1.0314
-1.72534
-1.6871
-1.59217
-1.45299
-1.30489
-1.16792
-1.04932
-0.949596
-0.866472
-0.802121
-1.39299
-1.36005
-1.27977
-1.16158
-1.03477
-0.916672
-0.813923
-0.727278
-0.654826
-0.601513
-1.08216
-1.05349
-0.986321
-0.888312
-0.782984
-0.684565
-0.598527
-0.525283
-0.46204
-0.413567
-0.800478
-0.775129
-0.719491
-0.640005
-0.555239
-0.476646
-0.408821
-0.352384
-0.305279
-0.264517
-0.550623
-0.527855
-0.482013
-0.418435
-0.351502
-0.290102
-0.237682
-0.194497
-0.159195
-0.126983
-0.33242
-0.311665
-0.27391
-0.22343
-0.171174
-0.123862
-0.0839185
-0.0512494
-0.0248788
-0.000572266
-0.145129
-0.125972
-0.0949103
-0.0552646
-0.0152474
0.0201793
0.0494265
0.0728365
0.0912727
0.107968
0.0118935
0.0297722
0.0553517
0.08613
0.116056
0.14159
0.161837
0.177317
0.188855
0.198773
0.139229
0.156111
0.177367
0.20116
0.22309
0.240742
0.25377
0.262812
0.268655
0.272925
0.23736
0.2535
0.271543
0.29014
0.306083
0.317804
0.325365
0.329483
0.330907
0.330768
0.30667
0.322305
0.338191
0.35329
0.365172
0.372852
0.37667
0.377388
0.375728
0.372494
0.347511
0.362867
0.377604
0.390829
0.400513
0.406002
0.40778
0.406633
0.403266
0.398294
0.360261
0.37554
0.390101
0.403021
0.412326
0.417428
0.41884
0.417356
0.413673
0.40834
-0.00893244
0.132612
0.153233
0.14861
0.134015
0.113536
0.0900383
0.0650753
0.0393001
0.0131294
0.085143
0.164914
0.166761
0.154329
0.135419
0.113144
0.0890779
0.0641276
0.0386493
0.0129091
0.161552
0.190689
0.177552
0.158383
0.136488
0.11277
0.0882209
0.0632837
0.0380696
0.0127115
0.220555
0.211906
0.187196
0.162381
0.137495
0.112462
0.0874761
0.0625431
0.0375586
0.012536
0.266174
0.230107
0.195856
0.165937
0.138396
0.112213
0.0868396
0.0619025
0.0371138
0.0123815
0.30096
0.245697
0.203399
0.16903
0.139196
0.112022
0.0863069
0.0613578
0.0367325
0.012247
0.326634
0.258571
0.209737
0.171658
0.139896
0.111884
0.0858722
0.0609047
0.0364121
0.0121317
0.344605
0.268541
0.214791
0.173804
0.140491
0.111794
0.0855294
0.0605386
0.0361499
0.0120347
0.355892
0.275424
0.218486
0.175449
0.140979
0.111744
0.0852717
0.0602547
0.0359431
0.0119552
0.361062
0.279093
0.220774
0.176583
0.141351
0.111727
0.0850921
0.0600478
0.0357886
0.0118925
-0.211605
0.0184321
0.0972758
0.122266
0.122754
0.109628
0.0893383
0.0655327
0.0399486
0.0134526
-0.175086
0.0375072
0.105487
0.12556
0.123939
0.109975
0.0893689
0.0654598
0.0398602
0.0134101
-0.144357
0.0556889
0.114552
0.129825
0.125793
0.110648
0.0895036
0.0653945
0.0397494
0.0133515
-0.109897
0.0775927
0.125989
0.135408
0.128296
0.111677
0.0898218
0.0654246
0.039693
0.0133145
-0.067859
0.105843
0.140913
0.142837
0.131727
0.113034
0.0902983
0.0655344
0.0396793
0.013294
-1.69777
-1.7792
-1.76859
-1.67591
-1.51906
-1.33041
-1.11693
-0.919289
-0.727044
-0.556665
-1.6971
-1.7791
-1.76377
-1.6643
-1.50036
-1.30424
-1.08405
-0.878893
-0.683583
-0.509353
-1.701
-1.78218
-1.76192
-1.65451
-1.4816
-1.27379
-1.04656
-0.832063
-0.637448
-0.478243
-1.71168
-1.79299
-1.76832
-1.65232
-1.469
-1.24831
-1.01498
-0.794612
-0.604565
-0.449836
-1.73
-1.81221
-1.7835
-1.65933
-1.46595
-1.23476
-0.995889
-0.771039
-0.576737
-0.407308
1.45767
1.43669
1.40716
1.37222
1.33278
1.28726
1.23379
1.17324
1.1155
1.08182
1.58709
1.58134
1.56806
1.54875
1.52443
1.49431
1.45714
1.4137
1.37197
1.34839
1.71238
1.71206
1.70753
1.69925
1.68719
1.6704
1.64775
1.61965
1.59229
1.57753
1.82332
1.82791
1.83073
1.83145
1.82937
1.82348
1.81277
1.79739
1.78201
1.77449
1.9157
1.92445
1.93309
1.94091
1.94678
1.9497
1.94872
1.9438
1.93832
1.93657
1.98755
1.99988
2.01342
2.02704
2.03932
2.04929
2.05611
2.05954
2.06177
2.06482
2.03858
2.05365
2.07095
2.08896
2.10606
2.12132
2.134
2.14367
2.15158
2.15838
2.06892
2.08579
2.10557
2.12651
2.14683
2.16562
2.1822
2.19601
2.20772
2.21703
2.07862
2.09622
2.11718
2.13956
2.16147
2.18202
2.20055
2.21645
2.23007
2.24062
2.0668
2.08452
2.10558
2.12802
2.14998
2.17057
2.18914
2.20508
2.21872
2.22926
-1.57522
-1.64427
-1.73248
-1.8419
-1.97563
-2.13692
-2.32822
-2.54362
-2.7484
-2.85197
-1.29209
-1.36378
-1.45284
-1.56128
-1.69249
-1.84988
-2.03565
-2.24882
-2.45781
-2.56584
-0.937095
-1.01169
-1.10241
-1.21075
-1.33975
-1.49271
-1.67235
-1.87672
-2.08163
-2.19554
-0.540252
-0.618974
-0.711795
-0.819879
-0.945899
-1.09313
-1.26438
-1.45786
-1.64879
-1.76408
-0.140152
-0.22179
-0.314746
-0.420075
-0.540342
-0.678781
-0.838212
-1.01679
-1.19145
-1.29986
0.22937
0.1501
0.0618903
-0.0361763
-0.146557
-0.272356
-0.416244
-0.576406
-0.73197
-0.829177
0.555375
0.484208
0.405773
0.319278
0.222358
0.112116
-0.0137939
-0.153557
-0.288475
-0.372494
0.846622
0.785813
0.718804
0.645181
0.562514
0.468052
0.359891
0.24
0.125171
0.0545611
1.11569
1.06383
1.00487
0.940788
0.86962
0.788663
0.696296
0.594547
0.498262
0.440378
1.34243
1.2983
1.24476
1.18827
1.12813
1.06148
0.98626
0.903844
0.826471
0.780907
2.10078
1.69054
2.00952
1.79126
1.81396
1.81663
1.81302
1.811
1.77163
1.64259
2.08473
1.68751
2.00327
1.79477
1.81219
1.81702
1.8164
1.82255
1.80232
1.7325
2.06996
1.68423
1.9964
1.79714
1.81015
1.81662
1.81971
1.83302
1.83088
1.81815
2.05643
1.68069
1.98912
1.79832
1.80773
1.81535
1.82145
1.84078
1.85436
1.88413
2.044
1.67686
1.98163
1.7983
1.80484
1.81315
1.8217
1.84572
1.87325
1.93455
2.03256
1.67271
1.97411
1.79711
1.8014
1.81
1.82042
1.84769
1.88741
1.97046
2.02205
1.66823
1.9667
1.79482
1.79734
1.80591
1.81757
1.84663
1.89585
1.99382
2.0124
1.66339
1.95952
1.79149
1.79261
1.80084
1.81309
1.84264
1.89803
2.00551
2.00356
1.65818
1.95267
1.78721
1.7872
1.79479
1.80691
1.83584
1.89408
2.00542
1.99549
1.65261
1.94621
1.78205
1.78109
1.78776
1.799
1.82626
1.88402
1.99357
2.24443
1.71124
2.01835
1.79287
1.81593
1.81006
1.79194
1.76487
1.66689
1.49255
2.18829
1.70445
2.01675
1.79392
1.81535
1.81102
1.79359
1.76804
1.67328
1.49513
2.16508
1.70191
2.01807
1.79308
1.8154
1.81222
1.79659
1.774
1.68695
1.50066
2.1405
1.69814
2.01646
1.79176
1.81531
1.8136
1.80084
1.78284
1.70717
1.51978
2.11879
1.69399
2.014
1.78998
1.81501
1.81505
1.80598
1.79435
1.7333
1.54855
1.16829
1.02909
0.823887
0.539054
0.189394
-0.198175
-0.59044
-0.956113
-1.27383
-1.52566
1.15695
1.01561
0.817288
0.544475
0.209381
-0.168114
-0.559694
-0.932616
-1.26034
-1.5209
1.17822
1.02584
0.82174
0.554231
0.229998
-0.140872
-0.53506
-0.916523
-1.25332
-1.521
1.23087
1.05616
0.834936
0.56655
0.248383
-0.119428
-0.51742
-0.907462
-1.25285
-1.5273
1.31149
1.10678
0.857815
0.579725
0.261228
-0.105774
-0.506252
-0.903154
-1.25731
-1.54001
)
;

boundaryField
{
    left
    {
        type            zeroGradient;
    }
    right
    {
        type            fixedValue;
        value           uniform 0;
    }
    down
    {
        type            zeroGradient;
    }
    up
    {
        type            zeroGradient;
    }
    cylinder
    {
        type            zeroGradient;
    }
    defaultFaces
    {
        type            empty;
    }
}


// ************************************************************************* //
