/*--------------------------------*- C++ -*----------------------------------*\
  =========                 |
  \\      /  F ield         | OpenFOAM: The Open Source CFD Toolbox
   \\    /   O peration     | Website:  https://openfoam.org
    \\  /    A nd           | Version:  13
     \\/     M anipulation  |
\*---------------------------------------------------------------------------*/
FoamFile
{
    format      ascii;
    class       surfaceScalarField;
    location    "4.15";
    object      phi;
}
// * * * * * * * * * * * * * * * * * * * * * * * * * * * * * * * * * * * * * //

dimensions      [0 3 -1 0 0 0 0];

internalField   nonuniform List<scalar> 
3485
(
-0.0014002
0.00391626
-0.00251606
-0.00353188
0.00792592
-0.00579425
-0.00467129
0.00912542
-0.007986
-0.00335073
0.00796238
-0.00928295
0.0017151
0.00456292
-0.00962875
0.0116184
-0.0010399
-0.00886335
0.0274675
-0.00899706
-0.00685212
0.0499636
-0.0189442
-0.0035519
0.0792406
-0.0301188
0.000841854
-0.0352976
0.003927
0.110611
-0.000539794
0.00445605
-0.000575016
0.00796114
0.00137886
0.00717154
0.0067791
0.00256214
0.0169587
-0.00561667
0.0330212
-0.0171024
0.0554596
-0.0314355
0.0844072
-0.0478918
0.119816
-0.0655273
-0.0779177
0.162436
0.000299677
0.00415638
0.00257428
0.00568653
0.00830953
0.0014363
0.0190077
-0.00813599
0.035788
-0.022397
0.0590961
-0.0404105
0.0884545
-0.0607939
0.122517
-0.0819544
0.159602
-0.102612
-0.119574
0.201259
0.000883282
0.00327309
0.00535667
0.00121315
0.0151639
-0.00837092
0.0315698
-0.0245419
0.0549908
-0.045818
0.0845831
-0.0700028
0.118395
-0.0946054
0.153884
-0.117444
0.188332
-0.13706
-0.152553
0.22131
0.00169935
0.00157375
0.00885394
-0.00594145
0.0231579
-0.0226749
0.0451698
-0.0465537
0.073741
-0.0743893
0.106216
-0.102478
0.139314
-0.127704
0.170067
-0.148197
0.196398
-0.163391
-0.173939
0.217783
0.00282345
-0.0012497
0.0130846
-0.0162026
0.0317979
-0.0413882
0.0578713
-0.0726271
0.0881291
-0.104647
0.118603
-0.132951
0.145969
-0.15507
0.168321
-0.170549
0.185244
-0.180314
-0.185857
0.197162
0.00412688
-0.00537659
0.0174448
-0.0295206
0.0393622
-0.0633056
0.0665756
-0.0998405
0.0944641
-0.132536
0.119209
-0.157696
0.138856
-0.174718
0.153249
-0.184942
0.163291
-0.190355
-0.192869
0.170303
0.00543071
-0.0108073
0.0210628
-0.0451527
0.0440294
-0.0862722
0.0692195
-0.125031
0.0920172
-0.155333
0.109998
-0.175677
0.122869
-0.187589
0.131558
-0.19363
0.137327
-0.196124
-0.196649
0.141106
0.0064958
-0.0173031
0.0231624
-0.0618193
0.044878
-0.107988
0.0659696
-0.146122
0.0829912
-0.172355
0.0950723
-0.187758
0.102931
-0.195447
0.107804
-0.198503
0.110769
-0.199089
-0.1984
0.11252
0.00713226
-0.0244354
0.0233793
-0.0780663
0.04217
-0.126779
0.0584572
-0.162409
0.0702085
-0.184106
0.0776065
-0.195156
0.0817672
-0.199608
0.0838612
-0.200597
0.0847299
-0.199958
0.0847882
-0.198458
-0.00529861
0.00123762
0.00406099
-0.016152
0.00641882
0.00443452
-0.0297114
0.0105996
0.00295982
-0.0445153
0.0130306
0.00177335
-0.059906
0.014211
0.00117963
-0.0756022
0.0148005
0.000895691
-0.0914557
0.0152037
0.000649783
-0.107323
0.0156048
0.000262279
-0.123163
0.0160995
-0.000259392
0.0169399
-0.139054
-0.00104882
-0.00417346
0.00541108
-0.0130275
0.0152729
-0.0246063
0.0221784
-0.0377422
0.0261665
-0.0517238
0.0281926
-0.0661433
0.02922
-0.0807664
0.0298268
-0.0954272
0.0302656
-0.109981
0.0306534
0.0313479
-0.124389
-0.00178108
0.00719216
-0.00622153
0.0197133
-0.0129884
0.0289452
-0.0215781
0.0347562
-0.0313396
0.0379542
-0.0416935
0.0395739
-0.0522461
0.0403794
-0.0627585
0.040778
-0.0730414
0.0409363
0.0411465
-0.08284
0.000649674
0.00654249
0.00127188
0.0190911
0.000643416
0.0295737
-0.00171208
0.0371117
-0.0055898
0.0418319
-0.0104285
0.0444125
-0.015638
0.0455889
-0.0207569
0.045897
-0.0254578
0.0456372
0.0450463
-0.0293576
0.00214032
0.00440217
0.00659917
0.0146323
0.0115648
0.024608
0.0157698
0.0329067
0.0186727
0.038929
0.0203548
0.0427305
0.0212493
0.0446945
0.0218858
0.0452604
0.0227545
0.0447685
0.0433402
0.0244606
0.00234699
0.00205518
0.00814099
0.00883826
0.0159964
0.0167526
0.0245901
0.0243129
0.0329616
0.0305575
0.0406334
0.0350587
0.0475461
0.0377818
0.0539046
0.0389019
0.0600376
0.0386355
0.0368768
0.0665009
0.00166287
0.000392308
0.0064108
0.00409033
0.0137004
0.00946307
0.0227372
0.0152761
0.0327088
0.0205859
0.0429758
0.0247917
0.053149
0.0276086
0.0630744
0.0289765
0.0728084
0.0289015
0.0269197
0.0827655
0.000566816
-0.000174507
0.00284488
0.00181226
0.00706454
0.00524342
0.0130964
0.0092442
0.0205698
0.0131126
0.0290428
0.0163186
0.0381324
0.018519
0.0476071
0.0195019
0.0574877
0.019021
0.0163118
0.0680956
-0.000756434
0.000581927
-0.00152937
0.00258519
-0.00137953
0.00509358
0.000132656
0.00773201
0.00312067
0.0101246
0.0075156
0.0119237
0.0131836
0.012851
0.0200198
0.0126656
0.0280028
0.011038
0.00720407
0.0371105
-0.00193413
-0.00514318
-0.0080356
-0.00958654
-0.00909073
-0.00603043
-3.15067e-05
0.00908219
0.0209621
0.0320931
-0.218408
0.141472
-0.0621188
-0.204351
0.40771
-0.421766
-0.105254
0.478259
-0.577356
-0.00136131
0.0604437
-0.164336
0.0803229
-0.324562
0.242877
0.137382
-0.429353
0.372294
0.173094
-0.444198
0.408486
0.19337
-0.357371
0.337096
0.205711
-0.305509
0.293168
-0.19519
0.188173
-0.203304
0.220387
-0.187654
0.39206
-0.0734861
0.364091
0.0334102
-0.0464525
0.108299
-0.39945
0.162606
-0.483661
0.193652
-0.475244
0.209874
-0.373594
0.217781
-0.313415
-0.199092
-0.149857
0.287403
-0.13797
0.380174
-0.0288579
0.254979
0.0702499
-0.14556
0.139188
-0.468388
0.188458
-0.532931
0.214193
-0.500978
0.225921
-0.385322
0.229457
-0.316951
-0.200096
-0.0736587
0.331705
-0.0660493
0.372564
0.0246382
0.164292
0.110764
-0.231686
0.171076
-0.528701
0.213568
-0.575423
0.233835
-0.521245
0.24105
-0.392537
0.240352
-0.316253
-0.198422
0.00502699
0.351138
0.0132637
0.364327
0.0804252
0.0971302
0.151766
-0.303026
0.202322
-0.579257
0.236973
-0.610075
0.25179
-0.536062
0.254826
-0.395572
0.250222
-0.311649
-0.194309
0.0799216
0.337718
0.0848607
0.359388
0.133086
0.0489049
0.190204
-0.360144
0.231005
-0.620058
0.257841
-0.636911
0.267494
-0.545715
0.266886
-0.394964
0.258877
-0.30364
-0.188056
0.132827
0.287656
0.143987
0.348229
0.178537
0.0143555
0.223833
-0.40544
0.255616
-0.651841
0.275445
-0.65674
0.280564
-0.550835
0.276971
-0.391371
0.26615
-0.292819
-0.180053
0.158717
0.197034
0.186269
0.320677
0.215257
-0.0146321
0.251581
-0.441764
0.27543
-0.67569
0.289397
-0.670707
0.290846
-0.552284
0.284957
-0.385482
0.271955
-0.279817
-0.170728
0.154152
0.0799926
0.211017
0.263812
0.24305
-0.0466655
0.273029
-0.471743
0.290062
-0.692723
0.29952
-0.680165
0.29835
-0.551113
0.290841
-0.377973
0.276244
-0.265221
-0.160527
0.13132
-0.0192341
0.219861
0.17527
0.264447
-0.0912515
0.287757
-0.495053
0.299706
-0.704671
0.306242
-0.686701
0.303389
-0.54826
0.294773
-0.369357
0.279048
-0.249497
-0.149856
0.369102
-0.0223595
-0.365976
0.495542
0.0488299
0.628414
-0.224123
0.679696
-0.546336
0.661299
-0.686274
0.612794
-0.638197
0.552405
-0.487871
0.497543
-0.314495
0.445417
-0.19737
-0.116365
0.621614
-0.0241535
-0.61982
0.696289
-0.0258451
0.764741
-0.292576
0.750354
-0.531948
0.689124
-0.625045
0.622043
-0.571115
0.554554
-0.420382
0.495722
-0.255663
0.442472
-0.144121
-0.0824008
0.732592
-0.0416437
-0.715101
0.786055
-0.0793087
0.788222
-0.294743
0.738284
-0.48201
0.682046
-0.568807
0.625019
-0.514089
0.559557
-0.35492
0.497417
-0.193523
0.440607
-0.0873102
-0.0468139
0.75721
-0.0639602
-0.734893
0.78706
-0.109159
0.77229
-0.279972
0.739478
-0.449199
0.692571
-0.5219
0.625163
-0.446681
0.547892
-0.277649
0.47946
-0.125091
0.422708
-0.0305584
-0.0134325
0.74921
-0.0826194
-0.73055
0.767101
-0.127051
0.757597
-0.270468
0.726969
-0.41857
0.666606
-0.461537
0.585118
-0.365193
0.505856
-0.198386
0.443373
-0.062609
0.395318
0.0174967
0.0141101
0.736177
-0.0960024
-0.722794
0.747562
-0.138437
0.738013
-0.260919
0.69615
-0.376707
0.615458
-0.380845
0.519447
-0.269182
0.439088
-0.118027
0.385088
-0.00860854
0.351149
0.051436
0.0318396
0.719141
-0.101579
-0.713565
0.722041
-0.141336
0.696894
-0.235772
0.620289
-0.300101
0.505571
-0.266128
0.400262
-0.163873
0.332648
-0.0504127
0.299191
0.0248484
0.288419
0.0622076
0.0358313
0.675336
-0.0912242
-0.685691
0.655259
-0.12126
0.587486
-0.167998
0.462976
-0.175592
0.33022
-0.133371
0.238881
-0.0725338
0.199933
-0.0114651
0.195167
0.0296145
0.209211
0.0481633
0.0267447
0.532383
-0.0543528
-0.569254
0.47038
-0.0592563
0.358857
-0.0564758
0.227513
-0.0442475
0.129085
-0.0349437
0.0790511
-0.0224999
0.0704609
-0.00287494
0.0864509
0.0136245
0.114222
0.0203922
0.0113447
0.198778
-0.25313
0.139521
0.0830454
0.038798
0.00385425
-0.0186456
-0.0215205
-0.00789606
0.0124962
0.544753
0.0735983
-0.533563
0.557038
0.100235
0.571956
0.126188
0.587609
0.15465
0.602816
0.181956
0.613669
0.20693
0.602318
0.23266
0.565215
0.238362
0.471144
0.256507
0.215779
0.525859
0.0624832
-0.514744
0.540661
0.0854328
0.556733
0.110116
0.578839
0.132544
0.599268
0.161527
0.626119
0.18008
0.643832
0.214947
0.657962
0.224232
0.654
0.260469
0.249959
0.512259
0.0526623
-0.502438
0.527323
0.0703686
0.542829
0.0946096
0.564355
0.111019
0.586297
0.139584
0.612895
0.153482
0.641981
0.185861
0.669462
0.196751
0.701637
0.228294
0.236495
0.502871
0.0428509
-0.493059
0.51676
0.0564798
0.532817
0.0785519
0.552168
0.0916682
0.575553
0.116199
0.600289
0.128746
0.632276
0.153874
0.662527
0.1665
0.701476
0.189345
0.203078
0.495425
0.0325536
-0.485127
0.508139
0.0437651
0.524889
0.0618024
0.543229
0.0733275
0.567107
0.0923214
0.591655
0.104198
0.622932
0.122597
0.654416
0.135016
0.692291
0.15147
0.164818
0.488374
0.0222292
-0.478049
0.500611
0.0315278
0.517382
0.0450318
0.535793
0.0549157
0.559367
0.0687482
0.584501
0.079064
0.614831
0.0922672
0.646982
0.102865
0.683639
0.114812
0.125664
0.478322
0.0124579
-0.468551
0.490387
0.0194631
0.506718
0.0287011
0.525446
0.0361878
0.548622
0.0455715
0.574366
0.0533201
0.604375
0.0622585
0.637173
0.0700673
0.673919
0.0780665
0.0860177
0.453799
0.00401729
-0.445358
0.465005
0.00825709
0.480169
0.0135373
0.498341
0.0180151
0.520594
0.023319
0.546087
0.027827
0.5756
0.0327452
0.608507
0.0371601
0.645339
0.0412351
0.0456659
0.382399
-0.000964217
-0.377417
0.390066
0.000589187
0.401152
0.0024514
0.415125
0.00404199
0.432655
0.00578907
0.453222
0.00726002
0.477254
0.00871332
0.504492
0.009922
0.534882
0.0108452
0.011294
0.192224
-0.193188
0.192813
0.195265
0.199307
0.205096
0.212356
0.221069
0.230991
0.241836
0.0710582
0.146479
-0.134893
-0.082644
0.060403
0.14865
-0.137995
0.0505656
0.151247
-0.14141
0.041031
0.154703
-0.145168
0.0315596
0.158365
-0.148894
0.0222505
0.161107
-0.151798
0.0135396
0.160218
-0.151507
0.00625026
0.149793
-0.142503
0.00146778
0.119579
-0.114796
0.0560151
-0.0545473
0.066864
0.156866
-0.0772508
0.0566329
0.158881
0.0467404
0.16114
0.0372018
0.164241
0.0279302
0.167637
0.0190471
0.16999
0.0110179
0.168247
0.00464511
0.156165
0.000844133
0.12338
0.0568592
0.0589794
0.165999
-0.0681121
0.04957
0.168291
0.0402848
0.170425
0.0313102
0.173216
0.0226971
0.17625
0.0146264
0.178061
0.00759952
0.175274
0.00245001
0.161315
-2.76319e-05
0.125858
0.0568316
0.0475051
0.173852
-0.0553587
0.0393311
0.176465
0.0311097
0.178646
0.0230925
0.181233
0.0154658
0.183877
0.00854953
0.184977
0.0029008
0.180923
-0.000554075
0.16477
-0.00113412
0.126438
0.0556975
0.0338543
0.180586
-0.0405875
0.0269276
0.183391
0.0199122
0.185662
0.0130545
0.188091
0.00663995
0.190291
0.00110714
0.19051
-0.00266649
0.184697
-0.00387579
0.165979
-0.00239409
0.124956
0.0533034
0.0183277
0.186234
-0.0239762
0.0126194
0.1891
0.00689033
0.191391
0.00137056
0.19361
-0.00355807
0.19522
-0.00725548
0.194207
-0.00891082
0.186352
-0.00767582
0.164744
-0.00371443
0.120994
0.049589
0.00154634
0.191029
-0.00634171
-0.00307578
0.193722
-0.00756758
0.195883
-0.0116929
0.197736
-0.0149841
0.198511
-0.0166862
0.195909
-0.0158003
0.185466
-0.0116229
0.160567
-0.00497271
0.114344
0.0446162
-0.0173121
0.194658
0.0136838
-0.0206925
0.197102
-0.023807
0.198997
-0.0263526
0.200281
-0.0277185
0.199877
-0.0269646
0.195155
-0.0230411
0.181543
-0.0155252
0.153051
-0.00606643
0.104886
0.0385498
-0.0378431
0.197184
0.0353165
-0.0399859
0.199245
-0.0416473
0.200659
-0.0424042
0.201038
-0.0414728
0.198946
-0.0377608
0.191443
-0.0302695
0.174051
-0.0190732
0.141855
-0.00686438
0.0926767
0.0316854
-0.0604836
0.0592096
-0.0611965
-0.0611349
-0.0597048
-0.0559155
-0.0485784
-0.0369364
-0.0218605
-0.00725007
0.110325
0.0369844
-0.122583
-0.0247259
0.0977788
0.0380058
-0.0254599
0.0849342
0.0391162
-0.0262716
0.071765
0.040299
-0.0271298
0.058253
0.0415363
-0.0280243
0.0444225
0.0426958
-0.0288653
0.0304589
0.0432574
-0.0292938
0.017009
0.0417472
-0.0282973
0.00573054
0.0350011
-0.0237226
0.0177424
-0.0120118
0.108793
0.0491776
-0.120986
0.0963882
0.0504103
0.083699
0.0518054
0.070694
0.053304
0.0573475
0.0548828
0.0436819
0.0563614
0.0298917
0.0570475
0.0166379
0.055001
0.00557288
0.0460661
0.0233152
0.106902
0.061201
-0.118925
0.0946083
0.0627038
0.0820554
0.0643583
0.0692168
0.0661427
0.0560702
0.0680294
0.0426347
0.0697969
0.0291027
0.0705794
0.016138
0.0679657
0.00537152
0.0568326
0.0286868
0.104468
0.0732037
-0.11647
0.092341
0.0748304
0.0799505
0.0767488
0.0672732
0.07882
0.0543059
0.0809967
0.0411012
0.0830016
0.027884
0.0837966
0.0153315
0.0805183
0.00503296
0.0671311
0.0337197
0.101533
0.084954
-0.113283
0.0896351
0.086728
0.0775635
0.0888204
0.0652477
0.0911358
0.0526382
0.0936063
0.0397671
0.0958727
0.0268792
0.0966844
0.0146902
0.0927073
0.00478322
0.0770381
0.0385029
0.0975199
0.0967324
-0.109298
0.0857421
0.0985057
0.0738046
0.100758
0.0617183
0.103222
0.049474
0.105851
0.0371018
0.108245
0.0248325
0.108954
0.0133709
0.104169
0.00423854
0.0861705
0.0427415
0.0933037
0.10787
-0.104441
0.0821671
0.109642
0.0708355
0.112089
0.059216
0.114842
0.0473213
0.117745
0.035271
0.120295
0.0233865
0.120838
0.0124243
0.115131
0.00386036
0.0947345
0.0466018
0.0858736
0.11881
-0.0968137
0.0751506
0.120365
0.0644702
0.12277
0.0537082
0.125604
0.0427569
0.128697
0.0316566
0.131395
0.0207301
0.131765
0.0107684
0.125093
0.00320152
0.102301
0.0498034
0.0808917
0.128058
-0.0901392
0.0712486
0.130009
0.0610412
0.132977
0.050493
0.136152
0.0397698
0.13942
0.0290346
0.142131
0.0186573
0.142142
0.0094329
0.134317
0.00268142
0.109053
0.0524848
0.0699339
-0.0767694
0.0619476
0.0535148
0.0444988
0.0350246
0.0253576
0.0159924
0.00780617
0.00206255
0.201725
0.00335669
-0.00709176
0.205439
0.0235908
-0.0273053
0.209716
0.0306051
-0.0348819
0.212397
0.0471282
-0.0498089
0.214284
0.0606605
-0.0625477
0.213251
0.0760702
-0.0750376
0.208695
0.0976467
-0.0930906
0.197641
0.125855
-0.114801
0.172864
0.178221
-0.153444
0.239538
-0.189258
0.201406
-5.90411e-05
0.204571
0.0204257
0.208839
0.0263371
0.210812
0.0451545
0.212793
0.0586794
0.210904
0.0779593
0.206429
0.102122
0.194655
0.137629
0.169953
0.202923
0.288506
0.20105
-0.00311961
0.203571
0.0179049
0.207733
0.0221748
0.20889
0.0439978
0.210893
0.0566762
0.207969
0.0808839
0.203611
0.106479
0.190637
0.150603
0.166513
0.227047
0.336093
0.200633
-0.00576327
0.202445
0.0160938
0.206381
0.0182387
0.206652
0.0437266
0.208573
0.0547549
0.204471
0.0849863
0.200277
0.110673
0.185703
0.165177
0.162585
0.250165
0.382208
0.200137
-0.00791037
0.20119
0.0150406
0.204768
0.0146604
0.204119
0.0443765
0.205809
0.0530648
0.200451
0.0903443
0.196351
0.114773
0.179983
0.181545
0.158079
0.272069
0.427004
0.199543
-0.00946374
0.199806
0.0147777
0.202892
0.0115749
0.201308
0.0459597
0.202593
0.0517798
0.195922
0.0970158
0.191836
0.118859
0.173273
0.200108
0.153236
0.292106
0.470942
0.198839
-0.0103131
0.198295
0.0153215
0.20075
0.00912023
0.198249
0.048461
0.198904
0.0511242
0.190977
0.104943
0.186531
0.123305
0.166115
0.220524
0.147431
0.31079
0.513932
0.198021
-0.0103445
0.196663
0.0166792
0.198354
0.00743013
0.194956
0.0518585
0.194751
0.0513296
0.185609
0.114085
0.180563
0.128351
0.157698
0.243389
0.141367
0.327121
0.558485
0.197099
-0.00945414
0.194913
0.0188652
0.195721
0.00662218
0.191442
0.0561376
0.190094
0.0526783
0.179949
0.12423
0.173883
0.134417
0.150508
0.266763
0.134575
0.343054
0.602921
0.196124
-0.00758825
0.193004
0.0219851
0.192937
0.00668902
0.187612
0.0614629
0.184887
0.0554034
0.173337
0.13578
0.165263
0.142491
0.140005
0.292021
0.127935
0.355123
0.654087
0.305442
-0.0110199
0.307225
0.0202019
0.316661
-0.00274643
0.318779
0.0593441
0.330051
0.0441317
0.329829
0.136001
0.348486
0.123834
0.352575
0.287933
0.402989
0.304709
0.585049
0.472027
0.305597
-0.0146064
0.308561
0.0172373
0.318937
-0.0131218
0.322772
0.0555087
0.335085
0.0318191
0.338753
0.132333
0.358739
0.103848
0.372432
0.274239
0.418816
0.258325
0.519216
0.48465
0.305534
-0.0181301
0.310906
0.0118648
0.320973
-0.0231889
0.327651
0.0488314
0.339559
0.0199105
0.348145
0.123747
0.367651
0.0843427
0.38793
0.25396
0.428774
0.217481
0.448772
0.499218
0.30567
-0.0217902
0.314475
0.00306006
0.323044
-0.0317577
0.333421
0.0384543
0.343183
0.0101488
0.356814
0.110116
0.374246
0.0669108
0.399525
0.228681
0.43822
0.178786
0.376215
0.510777
0.306625
-0.0264047
0.319012
-0.0093272
0.326134
-0.0388799
0.339559
0.0250296
0.348164
0.00154375
0.366479
0.0918009
0.381147
0.0522425
0.411541
0.198287
0.444336
0.14599
0.305846
0.514705
0.308616
-0.0330109
0.324189
-0.0248996
0.330162
-0.0448535
0.346039
0.00915354
0.354152
-0.0065702
0.374988
0.0709657
0.38694
0.0402901
0.42078
0.164448
0.449557
0.117213
0.239305
0.516098
0.31194
-0.0429406
0.329082
-0.0420415
0.334345
-0.050117
0.351096
-0.00759776
0.356867
-0.0123406
0.3786
0.0492321
0.387872
0.0310182
0.425432
0.126889
0.452498
0.0901465
0.176237
0.515566
0.31529
-0.0562203
0.329362
-0.0561134
0.331016
-0.0517712
0.34296
-0.0195414
0.343379
-0.0127597
0.363388
0.0292233
0.371408
0.0229981
0.413679
0.0846169
0.442825
0.0610011
0.11269
0.506372
0.308262
-0.0624721
0.303705
-0.0515562
0.290427
-0.0384932
0.286724
-0.0158382
0.280431
-0.00646687
0.29659
0.0130635
0.307646
0.0119429
0.354613
0.0376492
0.388127
0.0274878
0.0471263
0.45369
0.239538
0.187982
0.149489
0.133651
0.127184
0.140247
0.15219
0.189839
0.217327
0.264453
0.484885
-0.095502
0.489298
-0.0816637
0.492582
-0.0713966
0.495746
-0.0585224
0.500068
-0.0449097
0.504723
-0.0286314
0.510393
-0.0120113
0.516718
0.007359
0.52478
0.0272539
0.0504269
0.485388
-0.0962405
0.48582
-0.0820952
0.485707
-0.0712842
0.485789
-0.0586041
0.487077
-0.0461977
0.48927
-0.0308242
0.493211
-0.0159524
0.498625
0.00194483
0.505642
0.0202372
0.0413253
0.492693
-0.0897157
0.489009
-0.0784117
0.485632
-0.0679065
0.48318
-0.0561528
0.481663
-0.0446801
0.482241
-0.0314027
0.483835
-0.0175458
0.48797
-0.0021902
0.493282
0.0149252
0.0321688
0.499916
-0.0788539
0.491766
-0.0702621
0.485358
-0.0614988
0.481027
-0.051821
0.47761
-0.0412639
0.476677
-0.0304692
0.47681
-0.0176793
0.480097
-0.00547724
0.484667
0.0103559
0.0237761
0.502728
-0.066877
0.492721
-0.0602545
0.484395
-0.0531733
0.478273
-0.045699
0.473729
-0.0367202
0.471474
-0.0282141
0.471071
-0.0172755
0.473279
-0.00768583
0.477834
0.00580142
0.0164826
0.503185
-0.0539638
0.491958
-0.0490281
0.482521
-0.0437356
0.4751
-0.0382783
0.469812
-0.0314319
0.466582
-0.0249841
0.465803
-0.0164973
0.467136
-0.00901858
0.471524
0.00141377
0.00995723
0.501689
-0.0400871
0.48939
-0.036729
0.478929
-0.0332747
0.4704
-0.0297494
0.464182
-0.0252136
0.459974
-0.0207763
0.458393
-0.0149158
0.458909
-0.0095354
0.462598
-0.00227469
0.00400415
0.490832
-0.0245468
0.477045
-0.0229421
0.465184
-0.0214134
0.45525
-0.0198161
0.447607
-0.0175696
0.441997
-0.0151672
0.438993
-0.0119116
0.43818
-0.00872231
0.440494
-0.00458884
-0.000859939
0.437904
-0.00876107
0.423859
-0.00889718
0.411445
-0.00899929
0.400573
-0.00894381
0.391508
-0.00850445
0.384175
-0.00783423
0.379041
-0.00677796
0.375962
-0.005643
0.375539
-0.00416628
-0.00273769
0.255692
0.246795
0.237796
0.228852
0.220348
0.212513
0.205735
0.200092
0.195926
0.0075259
0.0464143
-0.0539402
0.0175953
0.120093
-0.130163
0.0242
0.168356
-0.17496
0.0264696
0.193741
-0.196011
0.0255426
0.204133
-0.203206
0.0227581
0.206359
-0.203574
0.019068
0.20428
-0.200589
0.0150976
0.198975
-0.195005
0.0114334
0.189169
-0.185505
0.171291
0.00868687
-0.168545
0.00899324
0.0374211
0.0235352
0.105551
0.0355806
0.15631
0.0427808
0.186541
0.0458181
0.201096
0.0461416
0.206035
0.0449202
0.205501
0.0428152
0.20108
0.040029
0.191955
0.175009
0.0363116
0.00957738
0.0278437
0.0279225
0.0872062
0.045735
0.138498
0.0587335
0.173543
0.0666122
0.193217
0.0706498
0.201997
0.0721746
0.203976
0.0719238
0.201331
0.0699057
0.193973
0.179777
0.0651375
0.0091536
0.0186901
0.0297454
0.0666144
0.0529235
0.11532
0.0724234
0.154043
0.0862358
0.179405
0.0949789
0.193254
0.100009
0.198946
0.102311
0.199029
0.101902
0.194383
0.183875
0.0978036
0.00785605
0.0108341
0.0283876
0.0460829
0.0552413
0.0884659
0.0812571
0.128027
0.102222
0.158439
0.117183
0.178294
0.127007
0.189122
0.132846
0.19319
0.135224
0.192005
0.186347
0.132752
0.00602915
0.00480491
0.0241087
0.0280033
0.0514364
0.0611382
0.0820998
0.0973634
0.110473
0.130066
0.133341
0.155426
0.149935
0.172528
0.160905
0.18222
0.167042
0.185868
0.184922
0.168467
0.00411445
0.000690465
0.0181897
0.013928
0.042382
0.0369459
0.073637
0.0661084
0.107033
0.0966694
0.138057
0.124402
0.163851
0.146734
0.183374
0.162697
0.19689
0.172352
0.177967
0.203844
0.00245833
-0.00176787
0.0121715
0.00421479
0.030832
0.0182855
0.0580873
0.0388531
0.0913078
0.0634489
0.12665
0.0890604
0.160429
0.112955
0.189692
0.133434
0.213244
0.1488
0.160033
0.231179
0.00120784
-0.00297571
0.00713076
-0.00170812
0.0197865
0.00562972
0.0402977
0.0183419
0.0682787
0.0354679
0.101827
0.0555119
0.13816
0.0766229
0.174445
0.097149
0.20715
0.116094
0.127969
0.239214
0.000366723
-0.00334243
0.00343815
-0.00477955
0.0109975
-0.00192964
0.0244976
0.00484179
0.044746
0.0152196
0.0715664
0.0286915
0.103753
0.0444364
0.139573
0.0613289
0.176515
0.0791515
0.0937953
0.210689
-0.000114947
-0.00322749
0.0011533
-0.00604779
0.00513574
-0.00591207
0.0130503
-0.00307282
0.0259359
0.002334
0.0444485
0.0101788
0.0686886
0.0201963
0.098052
0.0319655
0.132017
0.0451869
0.0625863
0.163226
-0.000230861
-0.00299663
0.000288337
-0.00656699
0.00236823
-0.00799197
0.00671539
-0.00741998
0.0140374
-0.00498801
0.0249652
-0.000748937
0.0400082
0.00515333
0.0591951
0.0127786
0.0820828
0.0222992
0.036127
0.108542
0.000134383
-0.00313101
0.00109509
-0.0075277
0.00309053
-0.0099874
0.00623096
-0.0105604
0.0107097
-0.00946673
0.016864
-0.00690325
0.0249897
-0.00297238
0.035386
0.0023823
0.0482477
0.00943749
0.0187393
0.0656354
0.00105669
-0.0041877
0.00369137
-0.0101624
0.00741025
-0.0137063
0.011879
-0.0150291
0.0169769
-0.0145646
0.0227795
-0.0127059
0.0295233
-0.00971622
0.0376216
-0.00571599
0.047788
-0.000728875
0.00551818
0.0610091
0.00207244
-0.00626015
0.006379
-0.0144689
0.0117851
-0.0191124
0.017759
-0.021003
0.0241742
-0.0209798
0.0311363
-0.019668
0.0388825
-0.0174624
0.0477467
-0.0145802
0.058124
-0.0111062
-0.00694141
0.0705835
0.00256339
-0.00882353
0.00712451
-0.0190301
0.0122321
-0.02422
0.017469
-0.0262399
0.0229167
-0.0264276
0.0288293
-0.0255805
0.0354763
-0.0241094
0.0430903
-0.0221942
0.051865
-0.0198809
-0.0172276
0.0621513
0.00198145
-0.010805
0.00456063
-0.0216092
0.00665557
-0.0263149
0.00830391
-0.0278883
0.00988751
-0.0280112
0.011773
-0.0274661
0.014207
-0.0265434
0.0173299
-0.025317
0.0212254
-0.0237763
-0.0219629
0.0259606
0.000189728
-0.0109947
-0.0011454
-0.0202741
-0.00396913
-0.0234912
-0.00757109
-0.0242863
-0.0113075
-0.0242747
-0.0147852
-0.0239884
-0.0178267
-0.0235019
-0.0203949
-0.0227488
-0.0225299
-0.0216413
-0.0203084
-0.0241844
-0.00238283
-0.00861189
-0.00848744
-0.0141695
-0.0167501
-0.0152286
-0.0259389
-0.0150975
-0.0353304
-0.0148833
-0.0445918
-0.014727
-0.053591
-0.0145028
-0.0622678
-0.014072
-0.070559
-0.0133501
-0.012442
-0.0784254
-0.00455089
-0.0142859
-0.0265546
-0.0398787
-0.0535824
-0.0674137
-0.0812666
-0.0950764
-0.108686
-0.122177
0.218705
0.157381
-0.21286
0.204146
0.554593
-0.540034
0.151963
0.608156
-0.555974
0.133769
0.279217
-0.261022
0.146273
-0.062653
0.0501493
0.156882
-0.190135
0.179526
0.165518
-0.172464
0.163827
0.17671
-0.120574
0.109383
0.188845
-0.0826276
0.0704919
-0.0459991
0.0359587
0.177699
0.0882237
0.201211
0.531081
0.165693
0.643674
0.157922
0.286987
0.159931
-0.0646618
0.154787
-0.184991
0.157739
-0.175416
0.169374
-0.132208
0.184613
-0.0978667
-0.0579969
0.146653
0.00720638
0.187357
0.490377
0.169163
0.661868
0.164941
0.29121
0.150967
-0.0506878
0.134682
-0.168707
0.138408
-0.179142
0.154277
-0.148077
0.174945
-0.118535
-0.0732306
0.130269
-0.0620535
0.161539
0.459106
0.157603
0.665805
0.149915
0.298897
0.121867
-0.0226396
0.105737
-0.152576
0.117726
-0.191131
0.140009
-0.17036
0.166011
-0.144537
-0.0914185
0.109887
-0.101357
0.123281
0.445712
0.127444
0.661641
0.11232
0.314021
0.0823865
0.00729363
0.0812499
-0.15144
0.10541
-0.215291
0.132848
-0.197798
0.16179
-0.173479
-0.111028
0.0707706
-0.109976
0.0748576
0.441625
0.0775921
0.658907
0.0581902
0.333423
0.0481124
0.0173714
0.0699647
-0.173292
0.103695
-0.249021
0.133491
-0.227595
0.162672
-0.202659
-0.130421
0.0122499
-0.0962652
0.018597
0.435278
0.0124622
0.665042
0.00242148
0.343464
0.0311282
-0.0113353
0.0708077
-0.212972
0.109517
-0.287731
0.139557
-0.257635
0.167176
-0.230278
-0.148499
-0.0582417
-0.0622079
-0.0546687
0.431705
-0.0571954
0.667568
-0.0325166
0.318785
0.0309396
-0.0747915
0.079518
-0.26155
0.120309
-0.328522
0.149241
-0.286567
0.174122
-0.255159
-0.164535
-0.132962
-0.00767092
-0.130383
0.429126
-0.10544
0.642626
-0.0420959
0.255441
0.0405399
-0.157427
0.094337
-0.315347
0.1352
-0.369384
0.16195
-0.313318
0.183123
-0.276332
-0.17791
-0.191966
-0.184607
-0.119338
-0.0282331
0.0572169
0.114164
0.153266
0.177044
0.19388
0.0393959
0.0391047
-0.0785006
-0.00301572
0.0424116
-0.0334014
0.0303857
-0.0518511
0.0184497
-0.0495794
-0.0022717
-0.0224537
-0.0271257
0.00509672
-0.0275504
0.022971
-0.0178742
0.0330488
-0.0100779
-0.00426262
0.183285
0.126553
-0.270734
0.061568
0.164129
-0.02825
0.120204
-0.0627314
0.052931
-0.0461637
-0.0188394
0.000727965
-0.0740174
0.044694
-0.0715164
0.0736013
-0.0467816
0.0913811
-0.0278576
-0.0124298
0.333594
0.205608
-0.412649
0.173192
0.324531
0.0332733
0.260122
-0.0189513
0.105156
0.0049144
-0.0427051
0.051418
-0.120521
0.0923506
-0.112449
0.119523
-0.0739538
0.137453
-0.045788
-0.0215186
0.425073
0.238192
-0.457657
0.280738
0.468866
0.121033
0.419828
0.0519557
0.174233
0.0677215
-0.0584709
0.105824
-0.158623
0.136932
-0.143557
0.157383
-0.0944051
0.171327
-0.0597316
-0.0293427
0.427311
-0.401978
0.356143
0.219997
0.133207
0.124886
0.145788
0.166058
0.181036
0.191796
0.0118864
-0.000117337
-0.011769
0.0135629
-0.00167652
0.0166532
-0.00309028
0.0211324
-0.00447924
0.0276218
-0.00648937
0.0345491
-0.00692735
0.0445404
-0.00999122
0.0540664
-0.00952601
0.0669286
-0.0128622
-0.011572
0.0326122
-0.000786025
-0.0319436
0.0374355
-0.00649981
0.0462297
-0.0118844
0.059873
-0.0181225
0.0790353
-0.0256517
0.102329
-0.0302213
0.135563
-0.0432249
0.171301
-0.0452646
0.218321
-0.0598821
-0.0639845
0.0503061
-0.00233851
-0.0487536
0.058021
-0.0142146
0.0719353
-0.0257988
0.0936208
-0.0398081
0.122984
-0.0550144
0.161691
-0.068929
0.211774
-0.0933079
0.267955
-0.101446
0.340108
-0.132034
-0.136526
0.0648633
-0.00495386
-0.062248
0.0749559
-0.0243072
0.0930807
-0.0439236
0.120404
-0.0671315
0.157017
-0.0916268
0.205954
-0.117866
0.261358
-0.148712
0.32876
-0.168848
0.401535
-0.20481
-0.192647
0.0764525
-0.0727194
0.0884568
0.109671
0.140343
0.181468
0.232068
0.287201
0.349532
0.383936
0.0866939
-0.0825964
0.0904804
-0.094578
0.0778083
-0.0838317
0.0927173
0.0684623
-0.0857909
0.0951369
0.0584169
-0.0878825
0.0979279
0.0476132
-0.0900097
0.100813
0.0361911
-0.0919001
0.103322
0.0245264
-0.0924337
0.104098
0.0134065
-0.0884939
0.0996138
0.00436305
-0.0735676
0.0826111
-0.0369508
0.0413139
0.0960581
-0.072686
-0.105968
0.0857032
-0.0734768
0.0746353
-0.0747231
0.0629385
-0.0761857
0.0507837
-0.0778549
0.0383495
-0.0794659
0.0259236
-0.0800078
0.0141917
-0.076762
0.00464851
-0.0640244
-0.0323023
0.0982151
-0.0613511
-0.10955
0.0867799
-0.0620415
0.0751384
-0.0630817
0.0632892
-0.0643364
0.051188
-0.0657537
0.0388175
-0.0670954
0.0263581
-0.0675484
0.0144784
-0.0648823
0.00473814
-0.0542841
-0.0275642
0.104013
-0.0496396
-0.115725
0.0921531
-0.0501812
0.0800559
-0.0509844
0.0676348
-0.0519153
0.0548334
-0.0529523
0.0416808
-0.0539428
0.028412
-0.0542796
0.0157262
-0.0521965
0.00523099
-0.0437889
-0.0223332
0.106588
-0.0374155
-0.118812
0.0942474
-0.0378405
0.081662
-0.038399
0.0688055
-0.0390588
0.0556648
-0.0398117
0.0422747
-0.0405528
0.0288321
-0.040837
0.0159811
-0.0393455
0.00531919
-0.033127
-0.017014
0.109431
-0.0250779
-0.121769
0.0968827
-0.0252919
0.0840858
-0.0256021
0.0710052
-0.0259781
0.0576108
-0.0264173
0.0439134
-0.0268554
0.0300911
-0.0270146
0.016791
-0.0260453
0.00565616
-0.0219922
-0.0113578
0.110832
-0.0125899
-0.12332
0.0981524
-0.0126125
0.0852123
-0.012662
0.071981
-0.0127468
0.0584305
-0.0128668
0.0445729
-0.0129979
0.0305815
-0.0130232
0.0170948
-0.0125587
0.00577069
-0.010668
-0.00558713
0.111701
-0.000116072
-0.124175
0.0989735
0.000115024
0.0859675
0.000343965
0.0726538
0.000566914
0.059008
0.000778993
0.0450448
0.000965387
0.0309376
0.00108398
0.0173238
0.00105507
0.00586609
0.000789689
0.000278961
0.111809
0.0123422
-0.124268
0.0991044
0.0128199
0.0861097
0.0133387
0.0727979
0.0138787
0.059145
0.0144319
0.0451652
0.0149452
0.0310311
0.015218
0.0173813
0.0147049
0.00588633
0.0122847
0.0061653
0.111289
-0.123673
0.0986492
0.0857162
0.0724651
0.0588727
0.0449526
0.0308768
0.0172844
0.00584653
0.0148868
-0.166197
-0.0172344
0.0101224
-0.18074
0.00434982
-0.189232
-0.00156013
-0.194679
-0.00696901
-0.198165
-0.0111104
-0.199065
-0.0128844
-0.194237
-0.0110633
-0.176781
-0.00547542
-0.135751
-0.0594157
0.0391308
-0.162647
-0.0426813
0.0325775
-0.174187
0.0248547
-0.18151
0.0168851
-0.18671
0.00917466
-0.190455
0.00229453
-0.192185
-0.0027687
-0.189174
-0.00476757
-0.174782
-0.00322584
-0.137292