/*--------------------------------*- C++ -*----------------------------------*\
  =========                 |
  \\      /  F ield         | OpenFOAM: The Open Source CFD Toolbox
   \\    /   O peration     | Website:  https://openfoam.org
    \\  /    A nd           | Version:  13
     \\/     M anipulation  |
\*---------------------------------------------------------------------------*/
FoamFile
{
    format      ascii;
    class       volVectorField;
    location    "4.105";
    object      U;
}
// * * * * * * * * * * * * * * * * * * * * * * * * * * * * * * * * * * * * * //

dimensions      [0 1 -1 0 0 0 0];

internalField   nonuniform List<vector>
440
(
(-0.0497248350396 0.0290440514764 -1.26638093918e-15)
(-0.0875287109259 0.0558120326837 -2.72231619671e-16)
(-0.00668090571837 0.0813376911866 4.09134723425e-17)
(0.459378429288 0.0724236352917 -8.30522400553e-19)
(0.269439171141 0.353584332304 2.77291083484e-19)
(-0.0827533202437 0.0475930753621 6.0433670868e-19)
(0.0261703582032 -0.00316068746553 -3.14114293999e-19)
(0.469917375133 -0.0360475382841 -7.12337589693e-19)
(1.06951916226 -0.074718493357 1.13220010741e-18)
(1.38886656478 -0.0315591690024 6.14203372908e-19)
(-0.0305296654254 0.0201586836462 6.83577962711e-19)
(0.455242516073 -0.0349817945435 1.95471787397e-18)
(1.23670019469 -0.00383520918346 -1.46879685543e-20)
(1.79271295618 0.0406237094273 -3.0636161009e-18)
(2.37424576025 0.0625621588263 -8.80894564278e-20)
(0.186769159837 -0.0346464400229 -9.19822892227e-19)
(1.18686934716 0.00584430740314 -3.28659460038e-19)
(1.95515445173 0.0937247855596 3.29008820778e-18)
(2.42951274896 0.128417419357 7.28917908211e-19)
(2.51022838338 0.148092639032 -1.75752826796e-18)
(0.561957630211 0.00472690726082 -1.09641381343e-18)
(1.74682229512 0.182656889961 -9.01106793801e-19)
(2.28820948894 0.266656835168 2.90275723624e-19)
(2.39762482766 0.274514508342 2.74214247214e-18)
(2.47302075934 0.241357859201 9.0391336683e-19)
(-0.0371979819635 0.14416180215 6.2482583898e-20)
(-0.176016518555 0.267705815542 -2.85136780349e-19)
(-0.302788077211 0.299036128957 5.55067044028e-19)
(-0.39702932013 0.323362753041 -1.36669783331e-19)
(-0.468649149778 0.352040469664 -1.380547403e-18)
(-0.0672052122363 0.291058465201 1.24414558456e-19)
(-0.187138787705 0.50884448257 2.9753069301e-19)
(-0.283704111132 0.511237799854 1.64015055801e-19)
(-0.353139432923 0.478995666501 1.12751905165e-19)
(-0.406159969705 0.468355530357 -1.42807220414e-19)
(-0.0848101076393 0.273663992087 -1.08613629845e-18)
(-0.170198847769 0.613164860353 -6.1837246945e-19)
(-0.206070646812 0.713464946691 -4.99030991215e-19)
(-0.21593531832 0.704170058217 1.07398379786e-18)
(-0.21916264722 0.654499871831 -2.80764496539e-20)
(-0.0467437972701 0.120173620661 -3.33015684869e-19)
(-0.121018810987 0.41757528324 4.21204921738e-19)
(-0.129760924071 0.620205763012 -8.00516619772e-19)
(-0.132783162824 0.729959953349 -7.6453743824e-19)
(-0.0995240573265 0.765412386316 5.08440803191e-20)
(-0.0164746055434 0.0244882215965 3.36504672683e-19)
(-0.0982441518019 0.162749858111 1.58982712655e-19)
(-0.135404085582 0.35413636359 -1.71037056804e-19)
(-0.0793442146735 0.460854076417 3.17861767831e-19)
(-0.00937142439595 0.679839974508 7.87859150742e-19)
(-0.753277079214 0.464554338938 -2.93142062018e-19)
(0.0124524534954 0.0518103528352 1.03622792911e-18)
(0.493385162359 -0.437040528617 2.49199117764e-19)
(0.690354192773 -0.491290193205 -3.58807742084e-20)
(0.934263350072 -0.284728910602 1.60269731628e-19)
(-0.632833616987 0.40817294792 2.25192821117e-18)
(0.506550163041 -0.142752690201 -5.86146572984e-19)
(0.921468787268 -0.507195517297 6.28895442149e-19)
(1.06977850501 -0.53312277966 9.32947562432e-19)
(1.08411680274 -0.304331351154 -2.52879411562e-19)
(-0.232035811801 0.281500035704 9.02170076764e-19)
(0.917763324309 -0.342755908303 3.81924912503e-18)
(1.21520400663 -0.592575909545 -4.89174113099e-19)
(1.38778138637 -0.5462688599 6.81968195882e-19)
(1.25327996697 -0.297975818413 2.28350806775e-19)
(0.166000562603 0.269875895642 -1.11259306975e-18)
(1.41461810185 -0.460767505277 -1.05509071302e-18)
(1.44614523075 -0.663614978102 -6.28861618321e-20)
(1.54003242048 -0.556914053504 -6.85826316954e-19)
(1.36505123792 -0.282161962872 3.14041030104e-19)
(0.570446718217 0.0876085709171 -2.46273045135e-19)
(1.88206241046 -0.552303169559 -2.78844815414e-18)
(1.77743140681 -0.665314272356 0)
(1.64760287035 -0.541245932423 1.87814608944e-19)
(1.40986548613 -0.261073171063 -5.39386838229e-20)
(1.67592939381 -0.0318128186857 -1.88581614205e-19)
(2.3903114048 -0.536554290822 9.12431400346e-19)
(2.17378102639 -0.586964419891 -1.30626288124e-19)
(1.78529055123 -0.46307155629 5.49906968689e-19)
(1.41921842053 -0.225317432011 1.79088094116e-19)
(2.36375098135 -0.100327716272 3.53512779358e-19)
(2.55014654229 -0.60203281897 5.61375424612e-19)
(2.18936200476 -0.529436437159 -1.26265495835e-19)
(1.66399194746 -0.278512503451 -2.44681658764e-19)
(1.25593632199 -0.120175745101 0)
(2.42584081508 -0.130925950837 1.52528417612e-19)
(2.25720151248 -0.425341770348 1.14517890774e-19)
(1.89778553853 -0.328719079641 -2.45615674901e-19)
(1.65399351555 -0.141505128334 1.13529502479e-19)
(1.28461136423 -0.0639899375032 -5.74560133104e-20)
(2.31119734374 -0.109071148318 -9.08258022154e-19)
(2.02557337068 -0.36255174362 1.03818560352e-18)
(1.44315089072 -0.286465061285 -3.46537898782e-19)
(1.1423245265 -0.0480556505057 -5.29462723825e-33)
(0.949760731609 0.0161300789727 5.53132324268e-19)
(1.55370927818 -0.0801242721283 5.32435619142e-20)
(0.945432062068 -0.057580717253 4.32686963751e-20)
(0.382181120652 0.0111479227149 -3.24179664944e-19)
(0.268705187876 0.0276053978685 -2.42018743017e-20)
(0.329659987629 0.00896417106129 7.18859111823e-21)
(2.37551578559 0.2608103411 -2.46912988907e-18)
(2.61246690274 0.0494342514596 2.08854076258e-19)
(2.44625031166 0.154703969993 -9.23064273044e-20)
(2.7115611601 -0.0440901791783 -3.82116361527e-19)
(1.96901931572 0.192151013512 6.29216386288e-20)
(2.11000031324 0.176661993778 -1.09386493851e-18)
(2.4722557187 0.0150670420298 3.94711724205e-20)
(2.25615711514 0.0592881418758 4.25177210517e-19)
(2.54514978485 -0.0764768606499 -6.22245284026e-19)
(2.35883187633 -0.112382859916 9.00852609291e-20)
(2.13488987242 0.0777199651901 -5.84908040672e-19)
(2.28945224598 0.018826688692 5.89649203001e-19)
(2.23650405828 -0.01537314142 -1.15900314417e-18)
(2.32990370535 -0.0486355084825 1.17993428141e-19)
(2.32708127788 -0.118820358402 1.08051468813e-18)
(2.06818554857 0.0176684764021 -4.7845534457e-19)
(2.12439543229 -0.00406608448984 -1.66226353019e-18)
(2.14931258467 -0.0299710704794 1.3197178707e-19)
(2.19477816413 -0.0384521399272 1.80014337366e-18)
(2.22833192628 -0.0797297905782 -4.196678757e-19)
(1.51818670759 -0.00820626907468 -1.14371563096e-18)
(1.50389350231 -0.0146905583239 2.92029295934e-20)
(1.53113920455 -0.0147195217102 -2.40987618363e-21)
(1.52473538797 -0.0222209898324 6.52558150678e-19)
(1.54214444441 -0.0218432186128 1.13372092388e-18)
(1.51504000259 0.807703472194 3.44645683035e-19)
(1.46895936488 0.897889520423 -4.98802630349e-19)
(1.46600341355 1.02421893094 -6.37391074767e-19)
(1.39589384728 1.06286025316 3.78438198377e-19)
(0.835269534571 0.746013909097 1.29300396836e-19)
(1.78688698085 0.778838644389 4.47258559827e-20)
(1.75478692417 0.848351697489 -1.98229158841e-18)
(1.76149996838 0.947333487938 -1.02728219062e-18)
(1.66759337095 0.949453246194 1.72784361375e-19)
(0.996418609957 0.655261452094 -2.62897370959e-19)
(2.1189336495 0.629791424827 1.0110618814e-18)
(2.07889721327 0.696525862916 -1.80425729846e-19)
(2.03611950867 0.786175390939 -2.79086778034e-18)
(1.90539325016 0.772962801004 -8.08975976076e-19)
(1.10827828873 0.515895521299 -2.22521097586e-19)
(2.26912535169 0.52766696742 2.21751846192e-18)
(2.25605817709 0.580034374882 1.68343313686e-18)
(2.24789630848 0.630403733017 -8.49076486918e-19)
(2.0269165804 0.583875328133 -2.13586437117e-18)
(1.10269528222 0.350249324064 1.26409698746e-19)
(2.4567323992 0.37866665578 1.62285671942e-18)
(2.43960203673 0.398550066576 2.81060327085e-19)
(2.31865735834 0.434666509606 9.6203290725e-19)
(2.00332465531 0.378518280189 -1.89991838634e-19)
(0.93803623163 0.162772063916 -2.34097804773e-20)
(0.57192042403 0.493064151636 -3.0628559342e-18)
(0.48075251755 0.525970959211 -2.33023612777e-18)
(0.363569639462 0.555940860821 2.96480903194e-19)
(0.226394975815 0.549627874314 -1.50636044921e-19)
(0.0561229427235 0.384976125866 -4.45249632293e-21)
(0.660595074263 0.649245685561 -1.09771367727e-18)
(0.594154470556 0.700349475344 -8.48984956669e-19)
(0.506670710676 0.761900979886 -2.74003948347e-20)
(0.387522770507 0.813935664675 3.76548664195e-21)
(0.169595992391 0.610213364382 1.57171976682e-20)
(0.760206175086 0.85958494529 8.82577862321e-19)
(0.683540613834 0.93526199548 -6.29662276318e-19)
(0.624493017272 1.01914289062 -4.60257933936e-20)
(0.541332653207 1.03656039941 -3.85626334828e-20)
(0.293114790147 0.74267509281 1.42023607121e-19)
(1.03299871483 0.914015352936 -5.1409734492e-19)
(0.984926819793 0.981827322251 3.19798163975e-19)
(0.932394527614 1.06627074601 -2.2037705985e-19)
(0.848620188101 1.12073919978 3.06119978641e-19)
(0.490716871738 0.815459667142 2.00726657671e-19)
(1.05568753088 0.971800032343 3.50288110286e-19)
(1.10286286218 1.08195499546 3.61790927614e-19)
(1.13389277458 1.17841908784 -3.49082453475e-19)
(1.07996709002 1.17641488598 -4.72602047659e-19)
(0.650716801321 0.816780445573 -5.18983194391e-21)
(0.983667081552 0.0335779011793 3.97635413209e-20)
(1.03986650752 0.0300488946012 -1.86890090828e-19)
(1.03771826858 0.124174039526 -1.25439914886e-19)
(0.967435139769 0.136039409914 7.89744492271e-19)
(0.900054361118 0.31898434572 1.0734861441e-18)
(0.97802610655 0.0281779535339 -1.62348282636e-19)
(1.05506430091 0.0302119609792 -7.10701766472e-19)
(1.01623874632 0.128950148662 -1.73183676936e-19)
(1.01309091517 0.16571288986 -9.35491221021e-19)
(0.93333632592 0.406993151271 9.84756824371e-19)
(0.986587505272 0.0252651457589 -1.60190974802e-19)
(1.03561742515 0.0231279853651 5.49604258567e-20)
(1.06386883699 0.15205222262 4.85515862771e-19)
(0.962010679271 0.154623123629 5.56322885515e-20)
(1.15246255905 0.556128056241 3.6867949725e-19)
(0.985468181216 0.0224258847909 4.11514491622e-20)
(1.04656396329 0.0175297875664 1.02363783283e-18)
(1.05165447859 0.164054367911 3.84299365227e-19)
(1.07006706709 0.154314854068 1.58351479504e-18)
(1.12221825923 0.634266035845 -5.49876550381e-19)
(0.988725897359 0.0171929626701 1.18422653631e-19)
(1.03636298881 0.0178925827792 1.98482411773e-20)
(1.09851659694 0.1643369357 -2.8549624914e-19)
(1.02459626097 0.197820536181 -7.5071212856e-19)
(1.34512577893 0.75207047632 4.95003857249e-19)
(0.974157289167 0.0174998921582 -5.14465999648e-20)
(1.06572611867 -0.000665895952638 -5.22671085134e-19)
(1.08453347496 0.192083356168 2.89243437528e-19)
(1.26331146027 0.0900372026002 -1.65130965788e-18)
(1.26427076357 0.840673326049 1.32208550872e-18)
(0.964460231177 -0.00212797694288 3.83378777954e-20)
(1.10291580887 -0.00523394538626 1.42163475344e-20)
(1.06003203852 0.10864283085 -1.0546671396e-19)
(1.34452617473 0.11634539139 1.3676223368e-19)
(1.10979086944 0.629616836868 -3.22000372006e-19)
(0.981935025754 -0.00984484697121 8.34859036666e-20)
(1.09490072598 -0.0142128786347 2.28302589052e-35)
(1.0960679817 0.0747726004366 -1.26996031524e-20)
(1.25030891138 0.110097244788 -5.35609492841e-20)
(1.27874110247 0.444771940454 -6.60845743577e-19)
(1.01817709279 -0.0433916840508 -6.98440686497e-20)
(1.02302826069 -0.0284063192581 6.78583924064e-21)
(1.14089870949 0.0219813403175 -3.12992145418e-19)
(1.10046775819 0.0743318296869 -3.29048499289e-19)
(1.57572830179 0.267749239022 1.16473552659e-18)
(0.939884667428 -0.0222437510901 7.25020805362e-20)
(0.841576873631 -0.0244732408231 3.70660683863e-21)
(0.873022030336 0.000446622901924 -3.2406208457e-19)
(0.793402150649 0.00925946224243 -1.73824657252e-21)
(1.25360131358 0.0645306444546 2.93438609509e-19)
(1.78370613282 0.607657542414 -6.39572423673e-19)
(1.85817612861 0.646488579936 -3.57768013025e-20)
(2.15488897233 0.474026092966 6.67909362901e-20)
(2.19060532568 0.458507222824 1.89513937437e-18)
(2.44412115161 0.257146535661 -1.45949649321e-18)
(1.74249296436 0.342019922209 -2.70321676614e-19)
(1.72287757862 0.403769070921 -2.69436496783e-18)
(2.04324459735 0.267437325113 -8.19467611979e-19)
(1.9480036566 0.297271994717 2.66555676384e-18)
(2.30900795475 0.132358511468 2.85234825224e-19)
(1.75373780505 0.23345279017 9.28844213231e-19)
(1.83874575834 0.248478866194 5.61026037906e-19)
(2.00508905206 0.164298575625 1.12552303362e-18)
(2.00806553005 0.170000907942 9.69162226357e-19)
(2.18498110287 0.0852197152064 -9.10168544924e-19)
(1.79106861192 0.118677918611 -1.00804316558e-18)
(1.89342897854 0.112882517874 8.61007595677e-20)
(1.93638832643 0.0627726481012 -8.79769943236e-19)
(1.98672621203 0.0656558660467 -1.14885128139e-18)
(2.03697260245 0.0277096875469 1.04452106187e-18)
(1.40330659688 0.0272930536975 1.15629864066e-19)
(1.48075985691 0.0204765527226 -8.70831024104e-19)
(1.46803184079 0.00773095833239 -6.001076582e-19)
(1.504333284 0.00559630051062 1.12896263453e-18)
(1.48396795924 -0.00555556787357 1.05596226778e-20)
(1.17588001094 -0.0301414771695 -3.41615302901e-19)
(2.18878206239 -0.024496963474 -1.44536302362e-19)
(2.41250032467 -0.0330488237682 1.35623665371e-18)
(2.39244255228 0.00604709448628 9.70880221247e-19)
(2.27268629829 0.0305433961271 -1.4969767562e-19)
(0.775808373085 0.0923903745744 -5.71134957502e-19)
(1.97823955779 0.123762504784 -9.84522436033e-19)
(2.40473603111 0.114148715543 -3.31047939174e-19)
(2.45001655951 0.12331793647 4.76853952554e-19)
(2.18005409726 0.107040437346 2.44817460873e-19)
(0.281284789078 0.0885894613323 -6.62086946397e-19)
(1.37436156696 0.186200355523 5.90778892637e-19)
(2.08663533011 0.196435780733 3.60601060199e-19)
(2.44167385504 0.186472036321 7.63781981194e-19)
(2.57836013403 0.175356497681 1.64681208424e-18)
(0.00257219257347 -0.0126365290883 9.44647252384e-19)
(0.55197457946 0.11464408787 8.51387183983e-19)
(1.34773287383 0.175082980965 -1.68399672614e-18)
(1.82330752273 0.207032519787 1.16808151031e-19)
(2.37292426072 0.244314309349 -1.17092811511e-19)
(-0.0770726985635 -0.0844491471347 1.22685120661e-18)
(0.0366337825735 -0.0292404017111 -7.97026120355e-19)
(0.526691346039 0.0600783226553 5.20324579696e-19)
(1.02058797171 0.124786137613 1.00684683552e-18)
(1.40852374144 0.177755913211 1.22623297852e-19)
(-0.0706008006088 -0.0952021520701 5.56533951742e-19)
(-0.108067356921 -0.125596166023 4.89471437621e-19)
(0.051259121645 -0.0697419357155 9.14532862135e-19)
(0.341457312916 0.0222034465643 -7.94527927972e-19)
(0.660662482239 0.0929480348227 2.23736253686e-19)
(-0.0518453488396 -0.0981445281068 -4.14642265697e-19)
(-0.0972043749312 -0.18532255748 -3.17159377726e-19)
(-0.0672923565271 -0.166569110422 -1.45659960168e-20)
(0.0570930654681 -0.0990939196536 -5.66788296736e-19)
(0.211116168321 -0.0139158506288 -2.77600370988e-19)
(-0.050017713434 -0.16265142428 -3.16600002033e-19)
(-0.0776653108498 -0.275552016729 4.38148869789e-19)
(-0.0630587099446 -0.274915647015 -9.94641226403e-19)
(-0.0207930930673 -0.221552323341 -1.93014357724e-18)
(0.0340455395713 -0.154442358397 9.21406702725e-19)
(-0.0449258621399 -0.165168440467 -4.92012774288e-20)
(-0.111556183798 -0.22115152633 -1.07003034521e-19)
(-0.166671843044 -0.185455951491 3.61721685839e-19)
(-0.206519299007 -0.119914053531 1.58352764571e-18)
(-0.217319552648 -0.0405793561456 -1.88248237448e-19)
(-0.0253816953933 -0.0385522247259 2.49465507731e-20)
(-0.132826404937 0.00062561261246 -7.6106610402e-20)
(-0.244325981214 0.0434726468212 3.86442892683e-20)
(-0.338862512683 0.0921491014582 -5.90810456675e-20)
(-0.402718964483 0.153128767936 -7.23396692427e-19)
(1.39763156893 0.483757225274 5.22302396266e-19)
(0.973467256129 0.216246575975 3.18643752623e-18)
(0.824924293111 -0.0308039993765 -6.81886596377e-19)
(0.81045388118 -0.0727755359181 -1.01359691154e-18)
(0.963160615485 -0.021235732701 -5.80803789631e-20)
(1.20151338332 0.386847763196 7.13537509492e-19)
(0.522220516508 0.240332689683 -1.12533118128e-18)
(0.372043105324 0.00648518741772 -1.78613990963e-18)
(0.453624375275 -0.0964658481589 -2.005624996e-19)
(0.822823850404 -0.0555488437759 1.50756104901e-19)
(0.594594983027 0.314625008336 1.0719324829e-18)
(-0.229294355494 0.330538765572 -2.32416874523e-18)
(0.115701097872 -0.0472254559109 4.64228306783e-19)
(0.313043102686 -0.196630355669 3.71642704356e-19)
(0.784151287845 -0.114954060688 -2.78252382079e-19)
(-0.11086920815 0.410419179628 -1.51939891219e-19)
(-0.616592117858 0.325430928941 -6.13824664288e-19)
(0.0987075312817 -0.184307318048 2.08035257968e-19)
(0.325607824403 -0.294576429335 8.77324733023e-20)
(0.800791492794 -0.177151016956 -3.76520635378e-20)
(-0.587698243671 0.463983224098 -1.12065206357e-19)
(-0.466791261202 0.220843609313 7.93035007227e-19)
(0.192540991315 -0.336154522988 -3.82533992834e-20)
(0.433330308289 -0.403628334299 -3.72772836877e-19)
(0.845105512964 -0.237819533945 -1.36553769913e-19)
(0.580965037648 0.135601594343 -7.07507694692e-19)
(-0.0334901501942 -0.0481452653875 0)
(0.107892411983 -0.0759900766983 -3.23778653222e-19)
(0.259910327652 -0.0450302735758 2.56084770491e-20)
(0.423813002123 -0.0212772061994 2.87140183845e-19)
(1.93434906976 0.40129467177 0)
(1.2139306253 0.221532095158 0)
(1.03176958664 -0.00342346134099 9.57700208668e-19)
(1.0813474798 -0.0560284298088 4.90516816482e-20)
(1.08616191636 -0.0241452678769 -6.64586529998e-20)
(0.713956284134 -0.000460344121802 3.8061961665e-19)
(0.780575694199 -0.00551546578452 -2.77019475353e-18)
(0.918343652212 -0.0132315091649 2.67072908166e-19)
(1.0514388738 0.0305050920295 2.23196662285e-18)
(1.29554783678 0.0564102851756 7.8554895602e-19)
(1.6819248954 0.017507001547 -3.94992607009e-19)
(1.77331480485 0.0862205959561 -2.23325135165e-18)
(1.88365167245 0.0452704075853 1.23889444604e-18)
(2.4492125083 0.184962888411 7.99906267978e-21)
(2.12582556106 0.181763729646 -1.67325437417e-19)
(0.88316141824 -0.458499777575 -2.24431932015e-19)
(0.871661334564 -0.547338824529 3.38186251399e-19)
(0.86636524434 -0.646845403654 3.78919468782e-22)
(0.802876774323 -0.71911847168 1.11461567219e-19)
(0.483772687299 -0.566430701276 -9.53869939625e-20)
(0.791799139163 -0.362603275625 5.71037650609e-19)
(0.738353924081 -0.425829898719 1.81029239384e-18)
(0.665906080955 -0.493847724976 5.05259186669e-19)
(0.555631575651 -0.55564675509 -1.26435957405e-19)
(0.298816715272 -0.446583529468 -4.80755988037e-20)
(0.637527356314 -0.223730872725 -1.09395589532e-18)
(0.553642125682 -0.263492789539 4.23128644355e-20)
(0.45435182466 -0.312494794457 1.4605247943e-18)
(0.33614703768 -0.353397107262 2.49458038306e-19)
(0.145308606147 -0.281819717382 7.94713877474e-20)
(0.546388071557 0.00745063266111 -1.81840061988e-18)
(0.460911713767 -0.00759683431905 -1.39063941826e-18)
(0.350006415201 -0.0291897565703 9.097773374e-19)
(0.221514153574 -0.0575374799921 7.39478341226e-19)
(0.0580470639479 -0.0651327002974 5.29085594828e-20)
(0.509496908624 0.213652599551 -5.1057791022e-19)
(0.420490823558 0.215327813251 -5.17162630829e-19)
(0.303283609949 0.218577617563 -9.71543923464e-20)
(0.170476134077 0.224199109533 1.77018307731e-19)
(0.0225311161213 0.162409811613 5.30989080749e-20)
(1.99608465114 -0.0442777406138 7.7059023449e-20)
(2.26877054844 -0.104416083678 6.61757860064e-19)
(2.34106878499 -0.189382356893 -1.1490783819e-18)
(2.19919243309 -0.202888779022 -1.72626965508e-18)
(1.32312572949 -0.196056440979 -2.67563910976e-19)
(1.97866756883 -0.11553757855 2.75159319607e-19)
(2.05879994574 -0.22378153933 -5.78072281832e-20)
(2.07881222657 -0.344394710982 -1.12573664147e-19)
(2.00490098329 -0.396221207243 -3.68979816334e-19)
(1.28181117023 -0.365810247533 2.26409441856e-19)
(1.70276790816 -0.275526852431 -1.2744694309e-18)
(1.76945796867 -0.392999141217 1.0680411819e-18)
(1.80710281662 -0.515843111844 2.59794005014e-19)
(1.74428872041 -0.583467403033 -5.9759975484e-19)
(1.12038007819 -0.503600672525 5.82861284453e-19)
(1.47935147044 -0.393593152846 2.53322387275e-19)
(1.48696994671 -0.487845317512 -3.81970271424e-21)
(1.47249839402 -0.605632361045 -1.53430462695e-18)
(1.41314281624 -0.691017369823 7.80150432181e-19)
(0.904522350938 -0.574798198936 -1.31003421898e-19)
(1.19278610254 -0.4515358538 3.06990875633e-20)
(1.14749432662 -0.543190515087 -3.73912228522e-19)
(1.13612779542 -0.663249889697 2.84686708955e-20)
(1.08577648852 -0.74692140365 -9.56620771129e-20)
(0.681924907592 -0.596801231744 -3.20187948062e-21)
(1.00728972661 0.0392944976648 6.04966118021e-20)
(1.01657606279 0.0672247355047 -1.53268956937e-19)
(1.0988232425 0.0829175970676 -1.01312726635e-18)
(0.821728508064 -0.00610477289228 7.73652462899e-19)
(1.07032880304 -0.188031403766 2.27257409934e-19)
(1.01687163074 0.0416072521051 5.35438937385e-21)
(0.991608872676 0.0593888874061 8.57821840326e-19)
(1.12037473095 0.105162102294 -1.57575540033e-18)
(0.898882424804 0.0372833292721 -1.67489654417e-18)
(0.96846762333 -0.0743692157065 -6.2653400803e-19)
(1.02098416786 0.0387348512729 -1.33557068017e-19)
(0.978302300343 0.0501474932886 8.21533570611e-20)
(1.11235777949 0.106346024333 -7.80834390419e-20)
(0.913126102174 0.0681535362038 -1.4632458928e-18)
(0.929624382989 -0.0151655247414 5.51652226872e-19)
(1.0108835174 0.0389539985835 -5.08446706581e-20)
(0.995226784935 0.0404298241753 -1.29082644071e-19)
(1.07902120938 0.110122691297 2.68720782517e-19)
(0.947124828344 0.0971935001291 -6.37517407526e-20)
(0.856387625395 0.0978591798243 8.67123828875e-19)
(0.993988014093 0.0360917173599 1.43146620957e-20)
(1.02535643131 0.0371975491281 2.38667797765e-19)
(1.04140678964 0.110423210231 5.22588009256e-20)
(0.976795106396 0.128995414483 2.76597110828e-19)
(0.839991940045 0.200967823619 4.02476861686e-19)
(0.888316367372 0.0332172064677 0)
(0.769523625499 0.0303107688338 6.67227135347e-21)
(0.553587145476 0.0190114163261 -2.83604978048e-19)
(0.415549930548 -0.0113488574882 2.64018014458e-21)
(0.683606326851 -0.0426809210232 1.02572816409e-18)
(0.988815811111 0.0619806423198 -1.55240858786e-19)
(1.03864973898 0.0849252239254 -6.62377058719e-19)
(0.96315428846 0.0746769617886 9.56964139098e-19)
(0.837780142916 -0.0158523134863 1.43718887104e-18)
(1.00555505319 -0.175907841448 1.0405615524e-18)
(0.933151565209 -0.0593646014169 1.68990328317e-19)
(1.01535656743 -0.0290694618245 -1.07623549396e-18)
(1.09658805886 0.0360444312769 -2.54667520632e-19)
(0.964170077992 0.0531323613714 -2.55188091069e-19)
(0.730349205937 0.0304100626424 0)
(1.27788588735 -0.302789155647 -1.37002718691e-18)
(1.39614881742 -0.268554762224 -1.65419944923e-18)
(1.56925307726 -0.149306210867 6.51569438093e-20)
(1.66267230222 -0.0186953275481 -1.62330821905e-19)
(1.55849364533 0.0284431943327 -2.61929547895e-19)
)
;

boundaryField
{
    left
    {
        type            fixedValue;
        value           uniform (1 0 0);
    }
    right
    {
        type            zeroGradient;
    }
    down
    {
        type            noSlip;
    }
    up
    {
        type            noSlip;
    }
    cylinder
    {
        type            noSlip;
    }
    defaultFaces
    {
        type            empty;
    }
}


// ************************************************************************* //
