/*--------------------------------*- C++ -*----------------------------------*\
  =========                 |
  \\      /  F ield         | OpenFOAM: The Open Source CFD Toolbox
   \\    /   O peration     | Website:  https://openfoam.org
    \\  /    A nd           | Version:  13
     \\/     M anipulation  |
\*---------------------------------------------------------------------------*/
FoamFile
{
    format      ascii;
    class       volScalarField;
    location    "1.4";
    object      p;
}
// * * * * * * * * * * * * * * * * * * * * * * * * * * * * * * * * * * * * * //

dimensions      [0 2 -2 0 0 0 0];

internalField   nonuniform List<scalar> 
1800
(
-1.46082
-1.45026
-1.44204
-1.43794
-1.43842
-1.43937
-1.43401
-1.41623
-1.38199
-1.34021
-1.52737
-1.51612
-1.5073
-1.5017
-1.49781
-1.49081
-1.47495
-1.44663
-1.40584
-1.35993
-1.60911
-1.59732
-1.58758
-1.57925
-1.56858
-1.55034
-1.52058
-1.4784
-1.42595
-1.36899
-1.70443
-1.69194
-1.68016
-1.66676
-1.646
-1.61353
-1.56821
-1.51207
-1.44878
-1.38449
-1.80942
-1.79582
-1.78017
-1.75822
-1.72353
-1.674
-1.61173
-1.54119
-1.46722
-1.39479
-1.9177
-1.90282
-1.88093
-1.84656
-1.79472
-1.72661
-1.64778
-1.56436
-1.48105
-1.40178
-2.02157
-2.00473
-1.97382
-1.92352
-1.85207
-1.76492
-1.67034
-1.57497
-1.48305
-1.39732
-2.1117
-2.09177
-2.04924
-1.98072
-1.8889
-1.78387
-1.67545
-1.56995
-1.47062
-1.37908
-2.17799
-2.15359
-2.09772
-2.00982
-1.89854
-1.77771
-1.65759
-1.54359
-1.43802
-1.34158
-2.2109
-2.18105
-2.11109
-2.0044
-1.87621
-1.74269
-1.61362
-1.49327
-1.38294
-1.28252
-0.563294
-0.568697
-0.573117
-0.574871
-0.573257
-0.566701
-0.554034
-0.534739
-0.508355
-0.473817
-0.642614
-0.647085
-0.65059
-0.651996
-0.650584
-0.644472
-0.632002
-0.612426
-0.585122
-0.549402
-0.752181
-0.755577
-0.75836
-0.760138
-0.760093
-0.755837
-0.745032
-0.726431
-0.698903
-0.662009
-0.88092
-0.883178
-0.885686
-0.88886
-0.891693
-0.89105
-0.883613
-0.867311
-0.840227
-0.801388
-1.01358
-1.01456
-1.01685
-1.02198
-1.02868
-1.033
-1.03046
-1.01735
-0.99184
-0.947878
-1.13416
-1.13337
-1.13488
-1.14128
-1.15132
-1.16069
-1.16404
-1.15605
-1.13229
-1.08472
-1.23154
-1.22838
-1.22814
-1.23395
-1.24493
-1.25701
-1.26418
-1.26042
-1.23963
-1.19019
-1.30403
-1.29833
-1.29544
-1.29884
-1.30841
-1.32053
-1.32911
-1.32714
-1.30815
-1.25689
-1.35858
-1.35068
-1.34519
-1.34553
-1.35228
-1.36224
-1.36926
-1.36564
-1.34467
-1.2907
-1.40703
-1.39753
-1.39024
-1.38801
-1.39154
-1.39798
-1.40042
-1.39139
-1.36371
-1.30828
-0.23953
0.0668094
0.121179
0.113483
0.0933022
0.072849
0.0545924
0.0379995
0.0223904
0.00755339
-0.298108
0.043367
0.10934
0.107077
0.0892275
0.0700201
0.0525491
0.0365994
0.0215809
0.00724972
-0.386875
0.0128899
0.0939366
0.0994454
0.084573
0.0668735
0.0503352
0.0351139
0.0207329
0.00693255
-0.499795
-0.0248308
0.075765
0.0904368
0.0792752
0.0633901
0.0479404
0.0335357
0.0198412
0.00660106
-0.626878
-0.0704707
0.0553934
0.0799673
0.0732751
0.0595484
0.0453548
0.0318586
0.0189012
0.006255
-0.754231
-0.125133
0.0326954
0.0679952
0.0665379
0.0553375
0.0425735
0.0300781
0.017909
0.00589479
-0.870468
-0.189204
0.00664834
0.0543116
0.0589866
0.0507462
0.0395995
0.0281954
0.0168637
0.0055224
-0.962959
-0.260952
-0.0240049
0.0384871
0.0504012
0.0456992
0.0364173
0.0262077
0.0157656
0.00514235
-1.02302
-0.335144
-0.0592296
0.0203524
0.0405247
0.0400279
0.0329495
0.024083
0.0146012
0.00475793
-1.05635
-0.405961
-0.0970499
0.000628251
0.0295364
0.0337028
0.0291423
0.0217834
0.013346
0.00436697
-1.00222
-0.426896
-0.123685
-0.0195125
0.0159489
0.0250224
0.0236794
0.0184104
0.0114916
0.00381618
-0.856663
-0.404752
-0.143655
-0.0423289
-0.00123993
0.013455
0.0162425
0.0137977
0.00901045
0.00302487
-0.750434
-0.386633
-0.154228
-0.055953
-0.0134831
0.00416378
0.00981485
0.00965375
0.00672962
0.00228869
-0.664386
-0.370122
-0.168402
-0.0736143
-0.0279581
-0.00600221
0.00316973
0.00551726
0.00449099
0.00155309
-0.599532
-0.3589
-0.179717
-0.0868061
-0.0394972
-0.0147228
-0.00278287
0.00174336
0.00243168
0.000870724
-0.550743
-0.352596
-0.192686
-0.10076
-0.0509645
-0.0230767
-0.00836246
-0.00173563
0.000548787
0.000242943
-0.516783
-0.35291
-0.207242
-0.114328
-0.0613349
-0.0304695
-0.0132807
-0.00478066
-0.00109757
-0.000310725
-0.496702
-0.35932
-0.222988
-0.127646
-0.0707843
-0.0369353
-0.0174725
-0.00732052
-0.00245687
-0.000765409
-0.490076
-0.370383
-0.236742
-0.137565
-0.0769083
-0.0408693
-0.0200178
-0.00887035
-0.0033116
-0.00103723
-0.48462
-0.377895
-0.246905
-0.145192
-0.081561
-0.0436597
-0.0221295
-0.0101496
-0.00404252
-0.00126411
-1.11031
-1.17283
-1.21685
-1.24418
-1.2583
-1.26258
-1.25969
-1.25533
-1.2467
-1.24559
-0.919408
-0.982482
-1.03019
-1.06278
-1.08286
-1.09204
-1.09235
-1.08719
-1.0767
-1.06787
-0.769226
-0.830507
-0.8787
-0.913432
-0.936003
-0.94734
-0.949134
-0.943349
-0.932352
-0.918995
-0.648218
-0.7076
-0.754828
-0.790305
-0.813945
-0.827151
-0.83054
-0.826254
-0.81572
-0.801226
-0.551805
-0.608815
-0.65455
-0.689995
-0.7143
-0.728972
-0.733934
-0.731288
-0.721679
-0.707354
-0.475023
-0.529667
-0.574098
-0.609164
-0.633897
-0.649547
-0.655931
-0.654908
-0.646926
-0.633993
-0.414782
-0.467605
-0.510969
-0.545433
-0.570367
-0.586654
-0.594447
-0.595078
-0.589304
-0.578269
-0.370064
-0.421591
-0.464285
-0.498175
-0.523201
-0.53989
-0.548997
-0.551019
-0.547498
-0.538072
-0.343535
-0.394837
-0.437148
-0.470643
-0.495757
-0.51292
-0.523051
-0.526029
-0.524155
-0.515868
-0.330839
-0.382861
-0.426287
-0.461283
-0.487747
-0.506227
-0.517212
-0.521194
-0.519371
-0.510097
0.434696
0.366762
0.28888
0.205458
0.115295
0.0160538
-0.0922445
-0.203613
-0.29758
-0.343977
0.220834
0.146559
0.0637175
-0.0269876
-0.127327
-0.238938
-0.360842
-0.485446
-0.589552
-0.639994
-0.0146408
-0.092573
-0.178833
-0.274612
-0.381973
-0.502214
-0.633804
-0.767961
-0.879467
-0.932244
-0.242751
-0.325132
-0.416723
-0.518998
-0.633749
-0.761988
-0.901802
-1.04344
-1.16028
-1.2136
-0.451996
-0.540329
-0.638742
-0.748472
-0.871003
-1.00723
-1.15498
-1.30277
-1.42174
-1.4741
-0.640687
-0.735382
-0.840697
-0.957654
-1.08747
-1.23057
-1.38556
-1.53575
-1.6526
-1.70458
-0.809865
-0.910086
-1.02116
-1.14391
-1.27952
-1.42801
-1.58446
-1.73392
-1.84732
-1.89733
-0.95989
-1.06375
-1.17822
-1.30426
-1.44276
-1.59286
-1.74841
-1.89353
-2.00017
-2.04648
-1.09143
-1.1958
-1.31071
-1.43713
-1.57541
-1.72365
-1.87442
-2.01076
-2.10724
-2.14862
-1.19921
-1.30229
-1.41576
-1.5403
-1.67548
-1.81826
-1.95987
-2.08315
-2.16705
-2.20274
1.82111
1.8361
1.85169
1.86678
1.8805
1.89217
1.90109
1.9072
1.91225
1.91723
1.74769
1.75979
1.77183
1.78279
1.79192
1.79853
1.80194
1.80235
1.80245
1.80443
1.65386
1.66217
1.66955
1.67513
1.67831
1.6784
1.67473
1.66779
1.66147
1.6597
1.54076
1.54474
1.54647
1.54537
1.54112
1.53304
1.5205
1.50437
1.48997
1.48375
1.40843
1.40717
1.40232
1.39361
1.38099
1.36372
1.3412
1.31469
1.29104
1.27991
1.2601
1.25338
1.24101
1.22335
1.20077
1.17261
1.13837
1.09987
1.06571
1.04892
1.09569
1.08297
1.06293
1.03624
1.00346
0.963872
0.917079
0.865583
0.820078
0.797281
0.923466
0.90367
0.873838
0.835842
0.790907
0.738391
0.677975
0.612778
0.555584
0.526594
0.748196
0.721224
0.681075
0.630867
0.572479
0.505353
0.429441
0.348863
0.279005
0.24374
0.583583
0.53957
0.482445
0.416867
0.343839
0.261844
0.170614
0.0750559
-0.00688977
-0.0479733
1.56991
1.52611
1.54097
1.5306
1.52784
1.54004
1.55848
1.59524
1.65452
1.75424
1.56288
1.5203
1.53497
1.52359
1.51947
1.52883
1.54396
1.57451
1.62353
1.70628
1.55637
1.5144
1.52887
1.51614
1.5105
1.51662
1.52793
1.55072
1.58695
1.64683
1.55038
1.50848
1.5227
1.50829
1.50097
1.50339
1.5104
1.52375
1.54514
1.57522
1.54489
1.50257
1.51649
1.50009
1.49089
1.48916
1.49139
1.49345
1.49865
1.49037
1.53988
1.49672
1.51026
1.49156
1.48027
1.47391
1.47088
1.45968
1.44789
1.39152
1.53537
1.49095
1.50403
1.48273
1.46911
1.45765
1.44886
1.42242
1.39304
1.27691
1.53137
1.48529
1.49781
1.47364
1.45739
1.44049
1.42525
1.38186
1.33376
1.14784
1.52794
1.47979
1.4916
1.46432
1.44514
1.42254
1.39996
1.33815
1.26867
1.00233
1.52512
1.47449
1.4854
1.45482
1.43244
1.40398
1.37379
1.29279
1.20002
0.851518
1.52227
1.46831
1.47747
1.44319
1.41587
1.3799
1.33827
1.23664
1.11967
0.705605
1.52074
1.46188
1.46869
1.43062
1.39765
1.35439
1.3008
1.18668
1.04315
0.672409
1.52116
1.45627
1.46034
1.41863
1.38014
1.3313
1.26678
1.14606
0.980111
0.651662
1.52411
1.4515
1.4524
1.40733
1.36344
1.31101
1.2362
1.11386
0.927939
0.639071
1.53011
1.44765
1.44454
1.39662
1.3477
1.29346
1.20886
1.08932
0.887717
0.632341
1.5398
1.44472
1.4376
1.38663
1.33335
1.27855
1.18532
1.07166
0.858856
0.627572
1.55301
1.44118
1.42873
1.3764
1.32044
1.26622
1.16582
1.05907
0.839039
0.624511
1.5769
1.44197
1.42332
1.3685
1.30994
1.25656
1.15075
1.05035
0.82606
0.62337
1.58873
1.43328
1.41002
1.35772
1.30182
1.24979
1.1408
1.04524
0.819246
0.624635
1.66243
1.44561
1.41158
1.35433
1.29897
1.24621
1.13624
1.04309
0.815689
0.627421
0.41428
0.237117
0.0280606
-0.17416
-0.357902
-0.522938
-0.672545
-0.807393
-0.926282
-1.02761
0.357361
0.216811
0.056468
-0.10385
-0.253522
-0.390789
-0.517872
-0.635711
-0.743867
-0.83908
0.336934
0.217765
0.0889661
-0.0423354
-0.168969
-0.289003
-0.402632
-0.509436
-0.607647
-0.694512
0.344816
0.235512
0.12214
0.00937714
-0.100602
-0.207162
-0.309532
-0.40675
-0.49665
-0.577684
0.360122
0.258481
0.15521
0.0544485
-0.0436586
-0.139901
-0.233702
-0.32402
-0.408211
-0.484859
0.377298
0.282183
0.186422
0.0937366
0.00367875
-0.0852738
-0.1729
-0.258108
-0.338105
-0.411204
0.394016
0.304401
0.214403
0.127276
0.042387
-0.0418289
-0.125216
-0.206542
-0.283108
-0.35324
0.409521
0.324595
0.239119
0.155603
0.0735027
-0.0082867
-0.0893555
-0.168259
-0.24248
-0.310277
0.423916
0.343004
0.261046
0.179273
0.0975716
0.015885
-0.0648051
-0.143006
-0.216559
-0.283883
0.436472
0.358251
0.277906
0.195651
0.112454
0.0294897
-0.0517932
-0.130002
-0.203439
-0.270832
-1.39167
-1.35083
-1.26165
-1.14925
-1.03574
-0.932647
-0.843878
-0.770303
-0.712179
-0.670201
-1.427
-1.39152
-1.31769
-1.22159
-1.12098
-1.02738
-0.945604
-0.877206
-0.823282
-0.78546
-1.39311
-1.362
-1.30497
-1.22931
-1.14624
-1.06596
-0.99382
-0.932016
-0.882091
-0.84584
-1.3057
-1.27787
-1.2362
-1.18196
-1.1194
-1.05562
-0.995873
-0.942844
-0.89867
-0.865412
-1.18771
-1.1627
-1.13285
-1.09705
-1.0546
-1.0087
-0.963218
-0.92088
-0.883696
-0.853065
-1.06316
-1.04117
-1.01913
-0.996022
-0.969564
-0.939968
-0.909015
-0.878155
-0.849403
-0.823888
-0.950064
-0.932025
-0.914693
-0.897998
-0.881081
-0.863622
-0.84571
-0.82768
-0.809398
-0.791752
-0.857855
-0.84381
-0.82916
-0.814421
-0.801518
-0.791755
-0.785393
-0.78092
-0.778571
-0.775868
-0.789973
-0.778215
-0.763933
-0.747698
-0.734708
-0.729005
-0.732001
-0.742071
-0.755303
-0.772444
-0.758642
-0.747308
-0.730413
-0.710781
-0.69658
-0.693659
-0.70454
-0.729716
-0.763105
-0.813672
-0.772843
-0.759761
-0.742908
-0.725546
-0.714962
-0.716813
-0.733363
-0.762979
-0.798204
-0.818859
-0.814293
-0.802387
-0.791935
-0.787479
-0.792544
-0.809031
-0.836396
-0.869512
-0.90621
-0.923607
-0.845284
-0.838898
-0.839906
-0.853375
-0.879501
-0.91636
-0.960233
-1.00561
-1.04645
-1.06249
-0.832968
-0.833225
-0.841892
-0.863682
-0.897421
-0.939522
-0.985296
-1.0298
-1.06735
-1.07944
-0.774049
-0.778298
-0.787494
-0.805553
-0.83146
-0.862144
-0.893921
-0.923086
-0.944596
-0.948928
-0.691157
-0.696512
-0.703809
-0.714434
-0.728356
-0.743494
-0.757354
-0.767508
-0.770411
-0.761156
-0.609406
-0.615167
-0.621051
-0.627134
-0.633376
-0.638199
-0.639881
-0.636987
-0.627357
-0.607946
-0.547115
-0.553178
-0.558664
-0.562618
-0.564759
-0.56369
-0.558148
-0.547346
-0.529989
-0.503885
-0.515539
-0.521761
-0.527208
-0.530234
-0.530321
-0.526104
-0.516539
-0.501186
-0.479245
-0.448945
-0.520327
-0.526353
-0.531494
-0.533867
-0.532827
-0.526947
-0.515195
-0.497237
-0.472534
-0.43965
-0.968397
-0.336763
-0.00444713
0.102498
0.104313
0.0874827
0.0688857
0.0495123
0.0297694
0.0102576
-1.01869
-0.230563
0.0528584
0.11762
0.106884
0.0870296
0.0676775
0.0483654
0.0289689
0.00997439
-0.988742
-0.13605
0.0911005
0.125557
0.107506
0.0862038
0.0664811
0.047269
0.0282168
0.00970578
-0.867445
-0.0589981
0.109462
0.128557
0.107483
0.0852742
0.0652818
0.046197
0.0274907
0.00944329
-0.687598
0.00210458
0.118153
0.129944
0.107029
0.0841629
0.0640299
0.0451225
0.0267768
0.00918344
-0.516748
0.0504089
0.123928
0.130148
0.106034
0.0828517
0.0627142
0.0440351
0.0260691
0.00892424
-0.378867
0.0823206
0.128731
0.128979
0.104489
0.0813354
0.0613185
0.0429228
0.0253612
0.00866317
-0.282263
0.09526
0.131928
0.126571
0.102429
0.0795993
0.0598249
0.0417739
0.024646
0.00839773
-0.228397
0.0936218
0.132237
0.123154
0.0998802
0.0776204
0.0582162
0.0405772
0.0239168
0.00812564
-0.215208
0.0837377
0.128842
0.118808
0.0968432
0.0753768
0.056477
0.0393224
0.023167
0.00784482
-0.652403
-0.526495
-0.177372
0.0298996
0.0841414
0.0850579
0.0701465
0.0511932
0.0311863
0.0108312
-0.650432
-0.52962
-0.182944
0.0320243
0.085229
0.085068
0.069904
0.05097
0.0310053
0.0107646
-0.69492
-0.523553
-0.173895
0.0390613
0.0875563
0.0851366
0.0696079
0.0507083
0.0307971
0.0106849
-0.781509
-0.487362
-0.147392
0.0525257
0.0916608
0.0856698
0.0694485
0.0504677
0.03058
0.0105908
-0.894123
-0.416772
-0.0680732
0.0833147
0.10142
0.0877117
0.0696168
0.0502791
0.0303555
0.0104916
-0.631761
-0.743679
-0.805773
-0.835849
-0.827388
-0.800341
-0.77242
-0.727484
-0.695267
-0.65683
-0.631419
-0.744802
-0.804401
-0.831855
-0.819477
-0.78748
-0.766131
-0.706507
-0.69586
-0.646729
-0.63336
-0.747385
-0.805295
-0.830532
-0.815387
-0.784364
-0.761509
-0.712587
-0.70859
-0.679618
-0.639271
-0.754418
-0.812256
-0.835205
-0.819299
-0.792377
-0.762334
-0.743982
-0.737767
-0.763081
-0.65002
-0.766738
-0.82558
-0.846036
-0.831984
-0.804732
-0.774657
-0.772072
-0.76981
-0.858533
1.54087
1.53051
1.51288
1.49123
1.46655
1.43777
1.40412
1.36755
1.33672
1.32258
1.62909
1.63113
1.62617
1.61628
1.60277
1.58518
1.56301
1.5379
1.51686
1.50779
1.71351
1.72046
1.72235
1.72056
1.71602
1.70832
1.69688
1.68269
1.67085
1.66647
1.78567
1.79685
1.80511
1.81088
1.81444
1.81526
1.81267
1.80726
1.80275
1.80246
1.84529
1.85975
1.87239
1.88327
1.89242
1.89933
1.90334
1.90472
1.90604
1.90902
1.88785
1.90438
1.92042
1.93556
1.94946
1.96152
1.97104
1.97795
1.98388
1.98961
1.91346
1.93147
1.9497
1.96749
1.98426
1.99941
2.01223
2.02247
2.03126
2.03869
1.92
1.9385
1.95778
1.97693
1.99517
2.01208
2.02672
2.03873
2.04897
2.05725
1.90722
1.92549
1.94477
1.96403
1.98242
1.99907
2.01351
2.02536
2.03545
2.0436
1.87433
1.89142
1.90944
1.92729
1.94407
1.95909
1.97169
1.9816
1.98996
1.99702
-0.501549
-0.548665
-0.610427
-0.687374
-0.780417
-0.889276
-1.01109
-1.13482
-1.23569
-1.2816
-0.283331
-0.335569
-0.40116
-0.480829
-0.575898
-0.686885
-0.812782
-0.943526
-1.05219
-1.10138
-0.0305066
-0.0874369
-0.156396
-0.237821
-0.333187
-0.443549
-0.567963
-0.697979
-0.812988
-0.863375
0.236382
0.176464
0.105886
0.0245052
-0.0690045
-0.175832
-0.295354
-0.421186
-0.531504
-0.583968
0.495838
0.43562
0.366366
0.28814
0.19974
0.0997551
-0.0116511
-0.12882
-0.230494
-0.280826
0.731996
0.675494
0.611529
0.540201
0.460308
0.370309
0.270171
0.164979
0.0742007
0.0285951
0.940756
0.891546
0.836182
0.774671
0.705722
0.627749
0.54067
0.449128
0.370555
0.331119
1.12974
1.08892
1.04293
0.991809
0.934085
0.868179
0.79408
0.716084
0.649638
0.616708
1.30715
1.27316
1.23386
1.19063
1.14217
1.08692
1.02484
0.95973
0.904881
0.878285
1.45918
1.43121
1.39671
1.36002
1.32059
1.27663
1.2276
1.17624
1.13334
1.11304
1.6864
1.56474
1.58017
1.56647
1.57489
1.59886
1.62083
1.65712
1.67202
1.63768
1.66924
1.56404
1.57951
1.56639
1.57319
1.59712
1.6203
1.6602
1.68919
1.69176
1.65364
1.56224
1.57772
1.56542
1.57086
1.59451
1.61913
1.6629
1.7056
1.74438
1.63952
1.55955
1.57503
1.5636
1.56788
1.59104
1.61672
1.66318
1.71716
1.78337
1.62672
1.55611
1.57158
1.56097
1.56424
1.58668
1.61289
1.66118
1.7238
1.81175
1.61508
1.55207
1.56749
1.55756
1.55991
1.58135
1.60763
1.65679
1.72558
1.82913
1.60445
1.54752
1.56288
1.55342
1.55488
1.57505
1.60089
1.64985
1.72222
1.83577
1.59472
1.54258
1.55784
1.5486
1.54914
1.56777
1.59263
1.64029
1.71353
1.83174
1.58577
1.53731
1.55246
1.54316
1.54271
1.55951
1.58282
1.62803
1.69941
1.81691
1.57753
1.5318
1.54682
1.53714
1.5356
1.55027
1.57144
1.61304
1.6798
1.79108
1.84894
1.56582
1.56867
1.5578
1.57213
1.59184
1.60425
1.62335
1.57927
1.55261
1.77604
1.5595
1.56896
1.55949
1.57267
1.5928
1.60493
1.62505
1.58405
1.54899
1.75408
1.56471
1.57408
1.56195
1.57366
1.59438
1.60737
1.62943
1.59624
1.55031
1.72819
1.56512
1.57734
1.56412
1.57462
1.59638
1.61172
1.63719
1.61573
1.5603
1.70565
1.56493
1.57946
1.56567
1.57528
1.59828
1.61641
1.64686
1.64084
1.57646
1.33381
1.2362
1.1036
0.930269
0.718843
0.478085
0.220661
-0.0360535
-0.273061
-0.474192
1.32762
1.23293
1.10648
0.93872
0.732618
0.495353
0.2383
-0.0214152
-0.263772
-0.470558
1.3394
1.24073
1.11151
0.945298
0.743186
0.50859
0.251173
-0.0114973
-0.258309
-0.469613
1.37563
1.26229
1.12067
0.951408
0.751202
0.517941
0.259454
-0.00615893
-0.256906
-0.472366
1.43422
1.29886
1.13609
0.957564
0.75549
0.522453
0.26351
-0.00429933
-0.259004
-0.479309
)
;

boundaryField
{
    left
    {
        type            zeroGradient;
    }
    right
    {
        type            fixedValue;
        value           uniform 0;
    }
    down
    {
        type            zeroGradient;
    }
    up
    {
        type            zeroGradient;
    }
    cylinder
    {
        type            zeroGradient;
    }
    defaultFaces
    {
        type            empty;
    }
}


// ************************************************************************* //
