/*--------------------------------*- C++ -*----------------------------------*\
  =========                 |
  \\      /  F ield         | OpenFOAM: The Open Source CFD Toolbox
   \\    /   O peration     | Website:  https://openfoam.org
    \\  /    A nd           | Version:  13
     \\/     M anipulation  |
\*---------------------------------------------------------------------------*/
FoamFile
{
    format      ascii;
    class       volVectorField;
    location    "1.4";
    object      U;
}
// * * * * * * * * * * * * * * * * * * * * * * * * * * * * * * * * * * * * * //

dimensions      [0 1 -1 0 0 0 0];

internalField   nonuniform List<vector> 
1800
(
(-0.0693522 0.0658794 4.25858e-20)
(-0.0923539 0.116084 1.95708e-20)
(-0.00566293 0.101979 -1.77959e-20)
(0.173711 0.0335543 1.03081e-20)
(0.42536 -0.0730541 5.39922e-20)
(0.721968 -0.200507 4.13216e-20)
(1.03144 -0.331452 -4.82744e-20)
(1.32171 -0.452594 -2.76477e-19)
(1.57631 -0.548868 -2.21303e-19)
(1.75105 -0.63019 -2.1489e-19)
(-0.0570228 0.0467319 1.53886e-20)
(-0.0351326 0.0598437 -1.12574e-19)
(0.11139 0.0174585 4.59614e-22)
(0.358445 -0.0672125 -9.94121e-20)
(0.67418 -0.176273 4.54751e-20)
(1.01751 -0.291734 1.68548e-19)
(1.34677 -0.398494 -2.17024e-19)
(1.63036 -0.487056 2.0511e-19)
(1.85127 -0.549918 5.02005e-19)
(2.00539 -0.608219 -3.04633e-19)
(-0.0376227 0.0277413 9.96809e-21)
(0.0468048 0.00739713 3.12592e-20)
(0.270021 -0.0584932 -2.27976e-20)
(0.593788 -0.152387 -6.02987e-21)
(0.967395 -0.255087 -2.33933e-19)
(1.3357 -0.350596 7.25657e-20)
(1.65518 -0.429084 2.17293e-19)
(1.90263 -0.487127 -1.91827e-20)
(2.07632 -0.52527 -3.69381e-21)
(2.184 -0.554239 -4.58274e-21)
(-0.00756559 0.00797718 -1.15609e-20)
(0.158182 -0.0406743 -3.51886e-20)
(0.46994 -0.121161 -3.61635e-20)
(0.867462 -0.212855 4.48248e-20)
(1.27886 -0.298549 6.81118e-20)
(1.64317 -0.367846 1.60863e-20)
(1.92677 -0.417399 -1.14795e-20)
(2.12324 -0.448885 3.4812e-19)
(2.24464 -0.463434 3.65603e-19)
(2.30424 -0.476218 -1.62466e-19)
(0.0356724 -0.0116508 8.53151e-20)
(0.299939 -0.0808263 7.68593e-20)
(0.703437 -0.164039 -5.92531e-20)
(1.1589 -0.24146 -6.95458e-20)
(1.58014 -0.302846 -3.557e-19)
(1.91421 -0.345525 4.76401e-21)
(2.14672 -0.371452 5.50964e-19)
(2.28923 -0.384315 2.10699e-19)
(2.36417 -0.387981 1.09731e-21)
(2.393 -0.391671 -2.00297e-19)
(0.0927881 -0.0284675 -7.28129e-20)
(0.468052 -0.106624 -1.24633e-20)
(0.95597 -0.179256 3.23106e-19)
(1.44482 -0.232973 -1.94244e-19)
(1.84913 -0.267882 -3.47683e-19)
(2.13624 -0.287589 7.72661e-19)
(2.31384 -0.296199 -6.95507e-19)
(2.40777 -0.297658 -9.35621e-19)
(2.44613 -0.29411 7.18159e-19)
(2.44806 -0.293579 -4.55786e-21)
(0.162525 -0.0394179 6.59789e-20)
(0.653887 -0.112037 -2.07395e-19)
(1.20977 -0.161839 -9.16571e-19)
(1.70575 -0.187698 5.14805e-19)
(2.07349 -0.199224 1.10786e-18)
(2.30681 -0.202654 -4.0442e-21)
(2.43297 -0.201757 -2.136e-18)
(2.487 -0.198738 1.71266e-20)
(2.49802 -0.194904 2.3241e-18)
(2.48436 -0.194867 6.26389e-19)
(0.242001 -0.0414134 4.34886e-20)
(0.845511 -0.092278 3.48977e-19)
(1.4472 -0.110213 8.46824e-19)
(1.92786 -0.108763 -8.13268e-20)
(2.248 -0.102398 -8.6017e-19)
(2.42826 -0.0961774 -3.22305e-19)
(2.51068 -0.0914976 0)
(2.53443 -0.0882672 8.92309e-19)
(2.52673 -0.0860255 -1.50168e-20)
(2.50194 -0.0877724 -8.06593e-19)
(0.326996 -0.0319591 3.26043e-20)
(1.03021 -0.045537 5.42168e-19)
(1.65466 -0.0273094 1.03608e-18)
(2.10418 -0.00264038 -1.1648e-18)
(2.37339 0.0150458 -1.01564e-18)
(2.5061 0.0244758 3.62143e-19)
(2.55374 0.0277506 -1.65636e-18)
(2.55574 0.027477 -1.24101e-18)
(2.5356 0.025193 1.48702e-18)
(2.50393 0.0194722 1.2856e-18)
(0.412201 -0.00948664 3.64024e-20)
(1.19613 0.0270121 4.27811e-19)
(1.82278 0.0817142 2.33726e-19)
(2.23187 0.124253 -1.98691e-18)
(2.45195 0.147298 2.46354e-20)
(2.54468 0.155192 3.74492e-18)
(2.56617 0.154028 -2.14373e-18)
(2.55352 0.148547 -1.21866e-18)
(2.52588 0.141125 4.3251e-19)
(2.49056 0.131095 -9.80724e-19)
(-0.0102695 0.0720683 1.12004e-19)
(-0.0591 0.113626 -7.84964e-20)
(-0.113488 0.101282 3.79067e-22)
(-0.163348 0.0603939 -1.60105e-20)
(-0.201157 0.00534078 -1.29421e-21)
(-0.225106 -0.0550756 -8.07101e-20)
(-0.235597 -0.114568 1.20595e-21)
(-0.234177 -0.168029 1.66457e-19)
(-0.222427 -0.211424 8.92447e-21)
(-0.198704 -0.242782 -2.14966e-20)
(-0.0215906 0.128126 -1.40252e-20)
(-0.0746358 0.216237 6.90061e-21)
(-0.125177 0.212452 -1.30083e-20)
(-0.167505 0.159182 -1.27295e-21)
(-0.196525 0.0810549 -1.2988e-19)
(-0.211431 -0.00758784 -1.00609e-19)
(-0.212994 -0.0971567 1.24432e-19)
(-0.202886 -0.179925 1.41892e-19)
(-0.182792 -0.249334 -3.08811e-19)
(-0.151843 -0.300822 8.54084e-20)
(-0.0392835 0.173918 -9.27615e-20)
(-0.0998019 0.304397 4.23086e-20)
(-0.145153 0.31131 2.55479e-20)
(-0.17614 0.249788 -1.06972e-20)
(-0.191495 0.152742 4.43406e-21)
(-0.192114 0.0391855 -1.28095e-19)
(-0.179343 -0.0785132 -6.99227e-20)
(-0.155062 -0.190425 3.27281e-19)
(-0.121129 -0.287332 -3.96226e-19)
(-0.0772987 -0.360698 -2.44363e-19)
(-0.0597774 0.204049 -1.34133e-19)
(-0.128893 0.369903 6.2907e-21)
(-0.167134 0.390233 3.75611e-20)
(-0.182739 0.326438 -1.66445e-19)
(-0.179193 0.216837 2.85104e-19)
(-0.159565 0.0839146 6.7113e-20)
(-0.126113 -0.057927 1.33719e-20)
(-0.0811655 -0.197434 -3.33407e-20)
(-0.0269654 -0.323231 4.29456e-20)
(0.0373626 -0.42193 -1.18532e-20)
(-0.0784554 0.214385 0)
(-0.155276 0.404687 8.08945e-20)
(-0.184561 0.440338 -2.03105e-19)
(-0.181164 0.381097 5.11088e-20)
(-0.153627 0.266888 -3.69382e-20)
(-0.107572 0.12219 -6.36859e-20)
(-0.0465279 -0.0373067 3.08984e-20)
(0.0265252 -0.199814 -1.52574e-19)
(0.106569 -0.354187 0)
(0.199145 -0.480219 -2.60858e-20)
(-0.091106 0.204418 3.66114e-20)
(-0.173325 0.403794 -4.04841e-21)
(-0.19276 0.453462 -1.13895e-19)
(-0.16843 0.403811 1.94351e-19)
(-0.113337 0.292237 -1.49177e-19)
(-0.035778 0.143653 8.08316e-20)
(0.0590498 -0.0253249 3.85722e-20)
(0.166892 -0.202523 6.18765e-20)
(0.283341 -0.377373 -5.51148e-19)
(0.417808 -0.527619 -1.46203e-20)
(-0.0956562 0.178957 2.74923e-21)
(-0.17969 0.369627 -3.56837e-20)
(-0.189217 0.426813 1.20504e-19)
(-0.14439 0.387047 2.34168e-20)
(-0.0605518 0.282169 5.63399e-20)
(0.0518074 0.135758 8.55494e-20)
(0.185357 -0.0349197 -3.21427e-20)
(0.333495 -0.21678 -1.21898e-19)
(0.487656 -0.400679 3.14216e-19)
(0.669773 -0.568445 5.83403e-19)
(-0.0931121 0.146301 -4.39213e-20)
(-0.174142 0.311969 1.74865e-20)
(-0.172333 0.365715 1.33549e-19)
(-0.10642 0.330632 -5.75476e-20)
(0.00765039 0.231757 1.70322e-20)
(0.157893 0.0902805 -1.48365e-19)
(0.334013 -0.0767537 -8.50341e-20)
(0.525623 -0.254816 -1.2071e-19)
(0.716828 -0.434471 -2.02745e-19)
(0.944104 -0.601637 4.4568e-19)
(-0.0864472 0.114414 -7.65242e-20)
(-0.157865 0.244297 -1.28016e-19)
(-0.139644 0.282883 2.52809e-20)
(-0.0481563 0.243843 -5.36091e-20)
(0.101129 0.146578 4.42717e-20)
(0.294202 0.00966206 -1.44554e-19)
(0.516383 -0.150297 3.50477e-20)
(0.751276 -0.317378 -2.55187e-19)
(0.975663 -0.480485 -2.16125e-19)
(1.22985 -0.625351 3.49933e-19)
(-0.0783892 0.0876145 -2.04191e-22)
(-0.1314 0.177465 -1.30489e-19)
(-0.0865382 0.191941 -8.2455e-20)
(0.041038 0.140581 6.60134e-20)
(0.235431 0.0397762 -7.26641e-20)
(0.478321 -0.0933779 3.29105e-20)
(0.747737 -0.241917 -3.02576e-20)
(1.01867 -0.390281 1.15799e-19)
(1.2674 -0.524661 -2.63071e-19)
(1.50956 -0.631985 -2.98822e-19)
(-0.0182293 -0.348925 3.08286e-19)
(0.436522 -0.271905 -2.30642e-19)
(0.693754 -0.205604 -3.04607e-20)
(0.850464 -0.157319 2.54771e-20)
(0.938347 -0.121635 -1.2527e-20)
(0.987279 -0.093021 -1.05661e-20)
(1.01493 -0.0728358 -1.13438e-20)
(1.03263 -0.0521711 -2.14573e-21)
(1.04162 -0.0449801 1.1893e-20)
(1.05195 -0.0281758 1.98962e-21)
(0.0473853 -0.468484 3.23363e-19)
(0.460311 -0.379928 1.55446e-19)
(0.712299 -0.26696 -2.43346e-21)
(0.863495 -0.192108 -2.59821e-20)
(0.948165 -0.141161 -5.14184e-20)
(0.994824 -0.104075 0)
(1.0208 -0.0793292 -1.19641e-20)
(1.03691 -0.0559249 4.03602e-21)
(1.04511 -0.0475618 2.94439e-22)
(1.05411 -0.0295939 -3.72704e-21)
(0.153667 -0.580832 -5.29937e-19)
(0.500296 -0.48251 -8.33028e-20)
(0.740427 -0.32792 4.28762e-20)
(0.881297 -0.226474 -9.94431e-22)
(0.960545 -0.160304 -1.46783e-21)
(1.00378 -0.114795 3.80472e-21)
(1.02746 -0.0855013 0)
(1.04163 -0.059416 0)
(1.04887 -0.0498861 -5.33104e-21)
(1.05638 -0.0308298 0)
(0.309744 -0.682204 -8.55943e-20)
(0.566885 -0.57496 2.95978e-19)
(0.780712 -0.386826 -1.12409e-20)
(0.904769 -0.259806 0)
(0.975639 -0.178773 5.44376e-20)
(1.01415 -0.12501 -1.06185e-20)
(1.03489 -0.0912502 0)
(1.04676 -0.0625846 1.43054e-20)
(1.05288 -0.0519111 0)
(1.05876 -0.0318616 2.02509e-21)
(0.514116 -0.768728 -2.63467e-19)
(0.667843 -0.651673 2.12454e-19)
(0.836025 -0.440379 9.53225e-21)
(0.9352 -0.29091 0)
(0.993772 -0.19614 1.81629e-20)
(1.02595 -0.134538 2.28422e-20)
(1.04305 -0.0964814 3.43728e-21)
(1.05229 -0.0653767 4.09293e-22)
(1.05711 -0.053598 -3.81991e-21)
(1.06121 -0.0326703 1.56609e-21)
(0.754737 -0.838254 -1.7086e-18)
(0.803063 -0.709924 -4.15803e-19)
(0.907882 -0.484892 -6.34963e-21)
(0.973987 -0.317994 7.39312e-20)
(1.01555 -0.211671 -3.15958e-20)
(1.03931 -0.143102 1.29349e-20)
(1.05193 -0.101085 2.48246e-20)
(1.05817 -0.0677414 -2.64261e-20)
(1.06152 -0.0549123 -6.98605e-23)
(1.06372 -0.0332408 -3.28154e-21)
(1.01448 -0.887827 1.83248e-19)
(0.962319 -0.750985 1.25415e-19)
(0.993674 -0.518764 -2.26913e-20)
(1.02141 -0.339666 -2.49733e-21)
(1.04168 -0.224476 -5.01705e-20)
(1.05458 -0.15027 3.11877e-21)
(1.0616 -0.104881 -1.1013e-20)
(1.06439 -0.0696055 -2.02372e-21)
(1.06608 -0.0558145 3.57604e-21)
(1.06626 -0.0335613 -9.72229e-22)
(1.27058 -0.91392 1.44669e-19)
(1.13054 -0.776046 1.99685e-19)
(1.08623 -0.542689 0)
(1.07505 -0.355969 1.26154e-20)
(1.07209 -0.234171 4.39265e-20)
(1.07211 -0.155684 -7.2565e-22)
(1.07229 -0.107666 -3.91096e-20)
(1.07105 -0.0708716 1.0714e-20)
(1.07079 -0.056253 -1.70879e-22)
(1.06883 -0.0336187 -1.73062e-21)
(1.50566 -0.910985 -9.67316e-20)
(1.29419 -0.78378 -5.31602e-19)
(1.17787 -0.557152 1.12111e-19)
(1.12991 -0.367741 -9.64589e-21)
(1.105 -0.241202 -1.57677e-21)
(1.09164 -0.159433 -3.9586e-20)
(1.08413 -0.109429 1.28021e-20)
(1.07827 -0.0715215 2.29062e-22)
(1.0757 -0.0562115 -1.48773e-21)
(1.07143 -0.0334059 9.32774e-22)
(1.71019 -0.881652 4.14288e-20)
(1.4424 -0.774145 -4.90227e-19)
(1.26415 -0.560997 -2.98898e-20)
(1.18143 -0.374807 -1.00871e-19)
(1.13716 -0.245957 -5.59159e-20)
(1.11171 -0.161818 -2.57165e-20)
(1.09664 -0.110328 -9.32748e-21)
(1.08597 -0.0716309 0)
(1.08083 -0.0557394 -4.48257e-21)
(1.07409 -0.0329218 3.86336e-21)
(1.97535 -0.826258 -3.57844e-19)
(1.62657 -0.734141 7.05216e-20)
(1.37419 -0.543962 -2.30427e-19)
(1.24361 -0.370108 1.81221e-20)
(1.17444 -0.243857 1.79105e-20)
(1.13529 -0.159725 -1.64011e-20)
(1.11191 -0.108156 -8.81733e-21)
(1.09567 -0.0699012 7.77944e-21)
(1.08731 -0.0540092 -3.66324e-21)
(1.07744 -0.0318693 -1.53183e-21)
(1.97792 -0.721921 1.05253e-19)
(1.59508 -0.602484 -1.06612e-19)
(1.36622 -0.436465 8.0875e-20)
(1.25276 -0.304704 -1.64927e-20)
(1.18782 -0.208147 7.79343e-20)
(1.14789 -0.140241 5.52323e-20)
(1.12246 -0.0968623 3.66967e-20)
(1.10358 -0.0633181 -3.96321e-21)
(1.09338 -0.0495447 1.28697e-20)
(1.0807 -0.0294816 2.86554e-21)
(1.98857 -0.590299 -1.64162e-19)
(1.68278 -0.518769 -2.82796e-20)
(1.46003 -0.397605 2.33782e-20)
(1.32182 -0.284395 4.04564e-36)
(1.23184 -0.194175 -4.2501e-21)
(1.17407 -0.129613 -1.51176e-34)
(1.13812 -0.0886754 5.20806e-22)
(1.11299 -0.0575961 -5.43773e-35)
(1.09972 -0.044947 1.77996e-22)
(1.08385 -0.0268054 -6.38734e-22)
(1.97525 -0.489328 -4.29929e-34)
(1.69549 -0.425649 3.67178e-20)
(1.4813 -0.31757 -3.37474e-20)
(1.34415 -0.22673 0)
(1.25203 -0.157594 -3.44419e-20)
(1.18977 -0.107468 -2.50053e-20)
(1.14938 -0.0749374 -1.7215e-20)
(1.12049 -0.0492164 4.08847e-35)
(1.10509 -0.0388587 -5.59454e-21)
(1.0865 -0.0234115 4.2988e-22)
(1.96638 -0.394373 -1.01355e-19)
(1.72094 -0.343768 9.76695e-21)
(1.51423 -0.25926 0)
(1.37142 -0.18657 0)
(1.27252 -0.129649 0)
(1.20408 -0.0880377 0)
(1.15907 -0.0613283 3.97948e-22)
(1.12673 -0.0402911 5.17397e-35)
(1.10953 -0.032079 2.10895e-23)
(1.08857 -0.0195533 3.56004e-35)
(1.96047 -0.313882 -1.05338e-20)
(1.73642 -0.267055 0)
(1.53382 -0.194428 0)
(1.38708 -0.137204 0)
(1.28447 -0.095357 0)
(1.21273 -0.0651966 0)
(1.16505 -0.045881 -9.92995e-22)
(1.13052 -0.0303478 8.63761e-21)
(1.11219 -0.0245785 -4.78174e-23)
(1.08949 -0.0152621 1.61919e-21)
(1.9456 -0.240828 0)
(1.73141 -0.192981 -5.85907e-21)
(1.53069 -0.132334 -2.64043e-20)
(1.38273 -0.0898439 0)
(1.28061 -0.0617392 -1.72706e-20)
(1.20954 -0.0422588 -1.20761e-20)
(1.16206 -0.0300469 -9.13359e-21)
(1.12737 -0.0200461 -4.86654e-21)
(1.10899 -0.0167091 5.13009e-21)
(1.08562 -0.0106934 -1.00518e-21)
(1.85642 -0.168597 8.78566e-21)
(1.64406 -0.118602 1.27358e-20)
(1.45452 -0.0707122 -1.07797e-20)
(1.3187 -0.0440832 -2.1276e-36)
(1.22828 -0.02995 4.22077e-21)
(1.16648 -0.0207277 -8.22715e-35)
(1.12512 -0.015048 -1.37797e-21)
(1.09461 -0.0102075 -2.09602e-21)
(1.07836 -0.00901629 -1.46586e-22)
(1.05676 -0.00611795 2.23322e-22)
(1.48704 -0.0940773 -3.74853e-20)
(1.29802 -0.0487579 1.61863e-20)
(1.16082 -0.0142915 2.0841e-20)
(1.07568 -0.00241999 0)
(1.02313 -0.0013133 9.39051e-21)
(0.987076 -0.00166863 5.85949e-21)
(0.962158 -0.00196176 2.56904e-21)
(0.943186 -0.00167225 2.46522e-21)
(0.932837 -0.00225577 -2.9527e-21)
(0.917514 -0.00202455 1.48277e-22)
(0.5683 -0.0078986 0)
(0.475495 0.00194619 0)
(0.445528 0.00648358 0)
(0.446214 0.00557777 0)
(0.451681 0.00342416 0)
(0.453842 0.00204911 0)
(0.453934 0.00121937 -1.55751e-21)
(0.452823 0.000698061 4.49922e-36)
(0.451971 0.000303511 -2.14507e-22)
(0.447869 -1.26611e-05 -3.6841e-22)
(2.4118 0.113229 9.33483e-19)
(2.42589 0.0154232 6.10998e-20)
(2.43901 -0.0801429 -1.13978e-19)
(2.42448 -0.174259 -3.60381e-19)
(2.42174 -0.265602 -9.50095e-20)
(2.37318 -0.354301 -1.61254e-19)
(2.36309 -0.440193 -5.27405e-19)
(2.25549 -0.523908 1.29005e-19)
(2.24877 -0.597484 0)
(2.01971 -0.670672 1.65531e-19)
(2.30989 0.0961481 2.76775e-19)
(2.32043 0.0114777 -3.55035e-19)
(2.34639 -0.0560537 -4.91312e-20)
(2.33117 -0.144451 -1.57506e-19)
(2.34625 -0.207223 9.04715e-20)
(2.30507 -0.300912 2.05861e-19)
(2.31155 -0.357341 -1.9108e-19)
(2.2459 -0.460144 3.54154e-20)
(2.23546 -0.50682 -7.28455e-20)
(2.15523 -0.619589 9.67737e-20)
(2.23923 0.0780186 -1.30864e-19)
(2.25233 0.0014596 2.77896e-19)
(2.27361 -0.0458407 2.02275e-19)
(2.26835 -0.128074 -2.99528e-19)
(2.2735 -0.169322 1.98979e-20)
(2.25364 -0.258306 3.38175e-19)
(2.24071 -0.293336 1.77968e-20)
(2.21286 -0.39145 -1.78771e-20)
(2.17846 -0.419091 8.69815e-21)
(2.14948 -0.527172 1.84381e-20)
(2.18691 0.0539524 -2.90048e-19)
(2.2048 -0.0105439 -8.50393e-21)
(2.2191 -0.0466593 -3.7866e-20)
(2.22325 -0.115994 -4.33366e-20)
(2.2195 -0.147686 -1.35261e-19)
(2.21268 -0.221563 -1.17943e-19)
(2.19051 -0.248857 1.96612e-19)
(2.17574 -0.328228 1.16552e-20)
(2.13704 -0.350191 2.01172e-20)
(2.11653 -0.435444 2.21637e-20)
(2.14467 0.0301127 5.56694e-20)
(2.16454 -0.0214168 1.07658e-19)
(2.1758 -0.0514149 -4.99553e-20)
(2.18382 -0.106001 2.49619e-19)
(2.17903 -0.132919 -2.56863e-20)
(2.17589 -0.190141 -2.32826e-19)
(2.15545 -0.2135 3.69128e-20)
(2.14193 -0.274263 -1.18927e-19)
(2.10795 -0.292348 1.00111e-19)
(2.08593 -0.357245 6.97774e-20)
(2.10708 0.00649982 -1.57308e-19)
(2.12654 -0.0332177 -7.87036e-20)
(2.13764 -0.0582901 1.9745e-20)
(2.14628 -0.0995959 1.18549e-19)
(2.14402 -0.122292 1.86309e-19)
(2.14144 -0.165032 -6.82443e-20)
(2.12594 -0.184425 5.93162e-21)
(2.11245 -0.229084 3.74336e-21)
(2.08465 -0.243167 3.1876e-20)
(2.06249 -0.289962 -6.98218e-20)
(2.06354 -0.0156102 -5.97231e-20)
(2.08112 -0.0451652 -1.23636e-19)
(2.09192 -0.0649599 -1.16774e-19)
(2.10021 -0.0952714 -2.25921e-19)
(2.10005 -0.112927 2.6858e-20)
(2.09906 -0.144061 3.45717e-20)
(2.08756 -0.158339 3.53351e-20)
(2.07816 -0.190324 2.95228e-20)
(2.05466 -0.199128 -7.06279e-20)
(2.03973 -0.232141 -1.4137e-20)
(1.97113 -0.0338035 5.61017e-20)
(1.9833 -0.0536654 4.59498e-20)
(1.98864 -0.0672058 2.00921e-20)
(1.99503 -0.087469 -3.93766e-20)
(1.99119 -0.0989538 -3.55707e-20)
(1.99372 -0.119904 -1.17703e-21)
(1.97986 -0.127965 -2.95109e-20)
(1.98142 -0.149496 1.83793e-20)
(1.95519 -0.152272 -1.23564e-20)
(1.96069 -0.174673 4.68322e-20)
(1.68492 -0.0435391 -4.77535e-20)
(1.67983 -0.0533045 5.98216e-22)
(1.66944 -0.0599925 9.20027e-20)
(1.66262 -0.0692061 -3.94433e-21)
(1.64635 -0.0739882 -2.27552e-20)
(1.64212 -0.0832345 4.19832e-20)
(1.6191 -0.0854534 -2.19898e-20)
(1.62292 -0.0952469 6.08609e-21)
(1.58898 -0.0936722 1.59654e-20)
(1.60982 -0.104949 4.46656e-20)
(0.847087 -0.0158492 4.44696e-20)
(0.821211 -0.0152528 3.38907e-20)
(0.796324 -0.0144232 3.20828e-20)
(0.772494 -0.0138395 4.85692e-20)
(0.749065 -0.0130261 -2.24645e-20)
(0.729009 -0.012702 -2.20488e-20)
(0.706948 -0.0122415 6.79368e-21)
(0.694018 -0.0123771 -1.01523e-21)
(0.66875 -0.011282 1.2552e-21)
(0.673833 -0.0147251 -1.77793e-21)
(1.52392 0.897509 -7.65563e-20)
(1.50661 0.943005 2.83663e-20)
(1.5082 0.995846 -5.80961e-19)
(1.51523 1.05619 2.47404e-19)
(1.5206 1.12028 1.08461e-18)
(1.51603 1.1808 -1.55361e-19)
(1.48096 1.21716 -9.99216e-19)
(1.36772 1.18021 -3.60934e-20)
(1.08986 0.976403 -5.04571e-19)
(0.516755 0.477229 1.39639e-19)
(1.68822 0.867037 0)
(1.67597 0.911886 6.95354e-19)
(1.67395 0.961722 1.54043e-18)
(1.6804 1.0202 -9.35069e-19)
(1.68911 1.08357 -2.19528e-18)
(1.6884 1.14309 -1.58232e-19)
(1.65255 1.177 -2.01568e-19)
(1.52626 1.13667 7.27513e-19)
(1.21241 0.933175 1.03447e-18)
(0.570607 0.450122 4.44114e-19)
(1.84011 0.83091 7.144e-20)
(1.8375 0.875203 0)
(1.83732 0.922 -7.24462e-20)
(1.84447 0.975917 9.54985e-19)
(1.85533 1.0346 5.87367e-20)
(1.8565 1.08929 -2.20279e-18)
(1.81752 1.11768 1.37907e-18)
(1.67556 1.07266 8.46025e-19)
(1.32419 0.872155 -9.09229e-19)
(0.616958 0.413685 -2.99392e-19)
(1.97306 0.781266 -1.66522e-19)
(1.9811 0.824203 -1.2611e-19)
(1.98741 0.868061 2.72601e-19)
(1.99839 0.917186 -3.38132e-19)
(2.01201 0.970156 -1.58692e-18)
(2.01401 1.01831 -1.21676e-18)
(1.96964 1.03958 1.29999e-18)
(1.80938 0.989306 8.23855e-19)
(1.41894 0.793925 0)
(0.651555 0.367825 0)
(2.09058 0.719021 -9.30043e-19)
(2.1078 0.758967 -1.65521e-18)
(2.12161 0.799043 -6.45523e-19)
(2.13763 0.842908 -3.75438e-20)
(2.15405 0.889346 0)
(2.1553 0.929944 1.5354e-19)
(2.10289 0.942744 1.79965e-19)
(1.92029 0.886444 2.24644e-19)
(1.48869 0.699212 -3.28166e-19)
(0.670331 0.313707 -8.2541e-20)
(2.19177 0.64154 1.11417e-18)
(2.21733 0.677696 -4.73904e-20)
(2.23875 0.71363 -1.30838e-18)
(2.26008 0.75219 0)
(2.27873 0.791836 0)
(2.27742 0.823178 0)
(2.21242 0.827017 1.54739e-18)
(2.00196 0.767442 -1.7182e-18)
(1.52869 0.59119 -1.11102e-18)
(0.671255 0.253376 -6.84223e-21)
(2.28059 0.553679 -1.4837e-18)
(2.31183 0.584808 -3.11226e-18)
(2.339 0.615655 -5.38792e-21)
(2.36431 0.648051 6.22802e-19)
(2.38329 0.679848 -4.41914e-20)
(2.3753 0.702374 1.34073e-18)
(2.29179 0.697647 -7.25681e-19)
(2.04906 0.634911 -2.04266e-18)
(1.53529 0.473198 1.59592e-19)
(0.653029 0.190485 1.13653e-19)
(2.35472 0.454572 -1.19275e-18)
(2.39037 0.480147 1.8755e-20)
(2.42154 0.505741 4.5423e-19)
(2.44877 0.531908 -4.35111e-19)
(2.46492 0.555973 6.64534e-19)
(2.44539 0.569761 1.81819e-18)
(2.33787 0.557197 -2.12577e-19)
(2.0582 0.493459 -1.11228e-18)
(1.50588 0.351013 2.67935e-19)
(0.615956 0.129075 4.85481e-20)
(2.41616 0.350612 4.4626e-19)
(2.45315 0.37069 9.66815e-20)
(2.48552 0.390228 -4.72373e-19)
(2.51162 0.409334 -1.0755e-18)
(2.52077 0.425133 9.74549e-20)
(2.48399 0.430126 9.46192e-20)
(2.34579 0.410935 -1.46417e-18)
(2.02493 0.349488 5.84888e-19)
(1.43857 0.231412 1.77207e-19)
(0.561308 0.0730774 -1.26386e-19)
(2.46071 0.240717 8.66465e-19)
(2.49826 0.255924 -1.2942e-18)
(2.52984 0.269532 2.06828e-19)
(2.5515 0.281757 2.58296e-18)
(2.54857 0.289822 1.29363e-18)
(2.48769 0.287325 -2.7674e-18)
(2.31181 0.264294 -2.63961e-18)
(1.94688 0.209694 1.19755e-18)
(1.33435 0.121183 -1.00461e-20)
(0.492046 0.0260012 -1.68263e-20)
(0.525092 0.333643 -1.66426e-19)
(0.485772 0.34594 -1.6632e-19)
(0.441419 0.359132 7.4401e-20)
(0.392662 0.373309 -2.46525e-19)
(0.339241 0.388328 -2.22527e-20)
(0.280371 0.403067 2.29477e-19)
(0.215185 0.412904 4.19016e-20)
(0.144289 0.404011 -4.53759e-21)
(0.0746245 0.344803 1.65345e-20)
(0.0148935 0.17951 1.51367e-20)
(0.565588 0.437732 1.38319e-19)
(0.526994 0.456394 1.78374e-19)
(0.48408 0.47653 4.71924e-20)
(0.437136 0.498263 -5.67899e-20)
(0.385673 0.521375 -2.38953e-19)
(0.328696 0.544224 -1.08215e-20)
(0.264711 0.560218 8.34618e-20)
(0.192631 0.550023 3.3229e-20)
(0.115963 0.469944 -1.11272e-19)
(0.0364526 0.24431 -3.82037e-20)
(0.624605 0.535751 -1.24048e-19)
(0.587277 0.5602 -1.13282e-19)
(0.546538 0.586577 1.09682e-19)
(0.502257 0.615233 8.29874e-20)
(0.453692 0.646025 -7.88271e-20)
(0.399593 0.676884 -4.39112e-20)
(0.337544 0.699305 -1.08011e-19)
(0.26388 0.688467 -5.67131e-20)
(0.176748 0.588742 -6.2304e-20)
(0.0679995 0.305539 1.73161e-21)
(0.699327 0.629237 4.82157e-20)
(0.663696 0.659837 -4.58767e-20)
(0.626096 0.692405 -9.33002e-20)
(0.585522 0.727514 -3.0314e-20)
(0.540785 0.76507 -7.53635e-20)
(0.49035 0.802586 4.52882e-21)
(0.430752 0.82976 -2.49327e-19)
(0.355102 0.816825 2.92479e-20)
(0.254501 0.697605 -3.01809e-19)
(0.108264 0.360932 5.12299e-20)
(0.788704 0.709251 -1.79949e-21)
(0.755247 0.744751 8.68939e-21)
(0.721628 0.782624 -5.01369e-20)
(0.686107 0.823872 -2.50455e-19)
(0.646867 0.868314 1.13934e-19)
(0.601679 0.912826 5.15732e-21)
(0.545499 0.945275 8.01747e-20)
(0.467375 0.931151 -1.28621e-19)
(0.349596 0.794453 3.67735e-19)
(0.157008 0.409526 2.71492e-19)
(0.89224 0.786305 -6.9277e-20)
(0.860597 0.826515 -1.58223e-19)
(0.830384 0.868073 5.96059e-20)
(0.799153 0.913172 1.0142e-19)
(0.765017 0.962159 3.32301e-19)
(0.725373 1.01137 2.27543e-19)
(0.673273 1.04663 5.88934e-19)
(0.592787 1.02907 2.49892e-19)
(0.456021 0.874974 1.66441e-19)
(0.211472 0.448524 2.11867e-19)
(1.00485 0.839776 -1.09447e-19)
(0.978558 0.884574 5.3709e-19)
(0.955555 0.930619 3.46756e-19)
(0.931597 0.980171 -4.31996e-19)
(0.904024 1.03365 -2.16814e-19)
(0.86998 1.08725 6.32695e-19)
(0.821011 1.12543 -1.08565e-19)
(0.736016 1.10554 -4.10979e-19)
(0.575835 0.937223 -1.33978e-20)
(0.271549 0.477377 2.48491e-19)
(1.12233 0.893281 2.72394e-19)
(1.0965 0.93884 6.07863e-20)
(1.07812 0.985454 -7.38983e-19)
(1.06197 1.03703 1.36576e-19)
(1.04371 1.09333 5.2762e-19)
(1.01845 1.14918 -3.13662e-19)
(0.974847 1.18733 -8.6471e-20)
(0.885911 1.16243 -1.71776e-19)
(0.700914 0.980108 1.74282e-20)
(0.333616 0.494896 -3.12118e-19)
(1.25102 0.913003 2.14747e-20)
(1.23518 0.962686 -5.29699e-19)
(1.22404 1.01071 -4.34856e-21)
(1.21329 1.06362 4.42094e-19)
(1.20055 1.12249 -4.49019e-19)
(1.18105 1.18136 8.84112e-19)
(1.1405 1.22077 6.01087e-19)
(1.04496 1.1926 -9.06272e-19)
(0.831343 1.00034 -6.22027e-20)
(0.396659 0.500301 -3.347e-19)
(1.35346 0.924593 -3.08753e-19)
(1.3482 0.974908 -2.96567e-19)
(1.35384 1.02476 2.94374e-19)
(1.35792 1.07884 7.2185e-19)
(1.35679 1.1377 2.6933e-19)
(1.34603 1.1957 -7.27729e-19)
(1.30939 1.23277 7.05207e-20)
(1.20642 1.19952 1.99078e-19)
(0.962046 0.999442 -2.71711e-19)
(0.458338 0.494381 -2.38646e-19)
(0.944247 0.0147982 1.8337e-21)
(1.04527 0.0342617 -1.88586e-20)
(1.00927 0.0598568 -1.59115e-20)
(1.025 0.0832819 0)
(1.02728 0.098441 2.24605e-20)
(1.0029 0.118425 3.09802e-20)
(0.979495 0.136239 4.10549e-20)
(0.923052 0.168379 8.72346e-20)
(0.848517 0.216773 -1.26171e-19)
(0.696671 0.272396 -1.83359e-19)
(0.944322 0.012987 4.02917e-20)
(1.04406 0.0316909 -6.19767e-20)
(1.00814 0.0578396 7.51232e-23)
(1.02492 0.0829619 -2.03435e-20)
(1.02923 0.101729 1.11557e-20)
(1.00736 0.123921 -1.54059e-20)
(0.986436 0.148543 -9.64865e-20)
(0.936146 0.187393 0)
(0.863034 0.253201 2.6042e-19)
(0.731287 0.340873 -2.75182e-19)
(0.9441 0.0113778 -3.16055e-20)
(1.0436 0.0292784 1.72905e-20)
(1.00734 0.055832 4.41451e-20)
(1.02565 0.0824904 1.11751e-20)
(1.03153 0.10448 -2.6591e-20)
(1.01326 0.129233 1.30139e-21)
(0.993713 0.159969 -6.64825e-20)
(0.953343 0.206284 -5.64308e-21)
(0.879949 0.288405 4.32406e-23)
(0.779808 0.406765 7.43589e-19)
(0.943608 0.00990541 -3.19628e-20)
(1.0438 0.0269793 2.70741e-21)
(1.00682 0.0538243 3.62047e-20)
(1.02712 0.0819244 2.24698e-20)
(1.03431 0.106648 -1.29977e-20)
(1.02042 0.134497 -1.72039e-20)
(1.00168 0.17028 9.63997e-20)
(0.97425 0.225273 -1.61162e-21)
(0.899544 0.321435 -2.86261e-19)
(0.841713 0.468648 8.8208e-20)
(0.94288 0.0085275 2.26193e-20)
(1.04459 0.0247497 -3.34515e-20)
(1.00657 0.0518114 -2.87328e-20)
(1.02923 0.0812829 1.30755e-20)
(1.03774 0.108216 0)
(1.02857 0.139812 0)
(1.01089 0.179231 8.06814e-20)
(0.998069 0.244757 2.70939e-22)
(0.92267 0.351391 -1.30855e-19)
(0.915248 0.525695 9.73159e-20)
(0.941949 0.00718988 6.20577e-21)
(1.04589 0.0225426 2.75825e-20)
(1.00655 0.0497948 -7.5828e-20)
(1.03187 0.080545 -2.64803e-20)
(1.04197 0.109207 -5.51992e-22)
(1.03739 0.145238 7.11359e-20)
(1.02195 0.186546 1.23401e-19)
(1.02416 0.265152 -8.05107e-22)
(0.948957 0.376739 2.15308e-19)
(1.00211 0.58068 -2.22435e-19)
(0.940842 0.00583707 -2.6304e-20)
(1.04767 0.0203138 1.47757e-20)
(1.00677 0.0477816 -1.97543e-20)
(1.03499 0.0796513 -5.52308e-20)
(1.04716 0.109698 1.80776e-21)
(1.04656 0.150668 -1.67426e-21)
(1.03563 0.192228 -7.01587e-21)
(1.05082 0.285931 -2.35194e-19)
(0.983234 0.397719 1.58633e-19)
(1.08915 0.622941 -5.37915e-19)
(0.939539 0.00444118 -3.53906e-21)
(1.04988 0.0180111 -4.37017e-20)
(1.00724 0.0457738 3.99355e-20)
(1.03859 0.0785147 3.02875e-20)
(1.05336 0.109795 9.58143e-22)
(1.05592 0.155853 -8.17765e-20)
(1.0521 0.196419 -6.6416e-20)
(1.079 0.306978 4.17363e-19)
(1.0187 0.41469 1.43617e-20)
(1.19928 0.67851 8.47179e-19)
(0.937911 0.0029988 1.73392e-20)
(1.0526 0.0155931 2.01882e-20)
(1.00804 0.0437916 4.42752e-20)
(1.04282 0.0770763 -3.30103e-20)
(1.06062 0.109625 -8.70374e-20)
(1.06537 0.160493 1.33622e-21)
(1.07243 0.198513 -9.04258e-20)
(1.10511 0.32636 5.40724e-19)
(1.07446 0.417497 -8.8195e-21)
(1.27263 0.696407 -1.17153e-18)
(0.935681 0.00162348 8.58591e-22)
(1.05599 0.0131343 3.19298e-20)
(1.00923 0.0419752 1.54849e-20)
(1.04788 0.0755567 -6.69556e-20)
(1.06848 0.110083 -8.25665e-20)
(1.07481 0.16476 -6.84214e-20)
(1.09229 0.206067 -1.62738e-19)
(1.12849 0.347338 -4.89416e-19)
(1.12743 0.44158 -2.64693e-19)
(1.40749 0.763717 -1.24748e-18)
(0.932105 -0.000766331 -2.5408e-21)
(1.06059 0.0092394 -7.21324e-21)
(1.0118 0.0377821 -1.659e-20)
(1.05404 0.071004 3.35353e-20)
(1.08042 0.105567 5.87875e-20)
(1.0888 0.164685 -4.5238e-20)
(1.12284 0.194439 1.49581e-19)
(1.16945 0.357138 -4.5762e-19)
(1.19718 0.387043 -1.98118e-19)
(1.41656 0.754119 6.67744e-19)
(0.930525 -0.00493676 4.19591e-21)
(1.06494 0.00339806 1.59496e-20)
(1.01794 0.030163 -9.95939e-21)
(1.06205 0.0622449 6.5027e-20)
(1.09544 0.0965645 9.45991e-20)
(1.10146 0.156098 1.33207e-19)
(1.16569 0.174253 3.23586e-20)
(1.18914 0.34522 2.27875e-19)
(1.28796 0.338258 3.33188e-19)
(1.45072 0.654251 1.62809e-20)
(0.929418 -0.0096705 -2.97071e-21)
(1.07004 -0.00355871 -4.18971e-21)
(1.02589 0.0219503 2.66071e-21)
(1.07223 0.0524131 5.67001e-21)
(1.10875 0.0873055 2.7598e-34)
(1.11799 0.142561 -8.01475e-21)
(1.19846 0.154149 -5.73007e-34)
(1.20739 0.325515 2.02665e-20)
(1.35203 0.279438 -5.79566e-20)
(1.5062 0.563566 -5.71258e-20)
(0.928169 -0.0155346 1.49146e-20)
(1.07662 -0.0122296 -4.71006e-35)
(1.03534 0.0128332 -3.1229e-21)
(1.08419 0.041976 -2.91404e-20)
(1.11946 0.0770876 -4.29506e-20)
(1.14013 0.125905 -4.41812e-20)
(1.21381 0.135079 -7.11404e-34)
(1.23954 0.298096 -8.94634e-20)
(1.39152 0.221684 -1.55893e-19)
(1.54234 0.474936 9.84868e-20)
(0.926609 -0.0228513 0)
(1.08531 -0.0223521 8.56829e-35)
(1.0469 0.00152373 0)
(1.0973 0.0308982 0)
(1.1288 0.0650755 0)
(1.16385 0.108058 0)
(1.21831 0.115818 -4.55893e-34)
(1.28003 0.261308 0)
(1.4139 0.173447 -2.12631e-20)
(1.55708 0.387612 5.8477e-20)
(0.92477 -0.0314832 4.46714e-21)
(1.0962 -0.0344283 8.56651e-21)
(1.06061 -0.00803334 -4.10612e-21)
(1.11138 0.0217828 0)
(1.13821 0.0526805 0)
(1.18449 0.0898851 6.88765e-21)
(1.22129 0.0960212 3.75047e-20)
(1.31508 0.217012 -1.51903e-20)
(1.4282 0.134836 -3.13957e-20)
(1.56363 0.304876 2.21532e-19)
(0.92355 -0.045563 -7.46621e-20)
(1.11009 -0.0523943 -2.48077e-21)
(1.0752 -0.0230692 -4.57978e-21)
(1.12249 0.0100135 -1.57992e-20)
(1.14474 0.0385757 -2.03989e-20)
(1.19832 0.0702292 -1.19598e-20)
(1.22465 0.0761696 -3.01276e-20)
(1.33768 0.167884 -3.37694e-20)
(1.43854 0.102731 -5.93e-20)
(1.56859 0.227436 7.97464e-20)
(0.926374 -0.0520061 -8.34332e-21)
(1.11753 -0.0613245 -1.77265e-20)
(1.0719 -0.0269674 -5.06155e-21)
(1.1146 0.00602964 -5.27554e-21)
(1.13213 0.0273385 1.0833e-35)
(1.19162 0.0504264 7.40715e-21)
(1.21133 0.0566645 -9.41621e-34)
(1.34314 0.116122 -1.51075e-20)
(1.42841 0.0729325 1.98674e-20)
(1.57134 0.154363 2.72348e-20)
(0.932544 -0.0900475 1.91575e-19)
(1.06513 -0.0896329 -3.29493e-21)
(0.968043 -0.0453522 -5.34187e-21)
(0.997305 -0.00514001 1.23505e-20)
(1.0105 0.0119193 9.55815e-21)
(1.07717 0.029215 1.65161e-20)
(1.09396 0.0352128 1.26354e-20)
(1.25508 0.0649235 -8.63675e-21)
(1.30456 0.044662 -2.06991e-20)
(1.49542 0.0857187 1.41573e-19)
(0.820435 -0.0450932 1.01743e-20)
(0.739798 -0.0349647 -9.20394e-35)
(0.54504 -0.0120729 -6.44653e-21)
(0.543145 -0.00169557 0)
(0.540789 0.00201343 0)
(0.585368 0.00675405 7.5632e-21)
(0.613639 0.00596494 -7.26088e-36)
(0.730717 0.0131595 -1.48991e-20)
(0.774344 0.00707961 -2.93548e-20)
(0.924529 0.0157689 5.89019e-20)
(1.62435 0.785873 -1.99757e-19)
(1.7274 0.765309 -2.99916e-19)
(1.84308 0.734468 0)
(1.95037 0.688538 1.43408e-19)
(2.04904 0.631789 6.38303e-19)
(2.13401 0.561378 -1.33157e-19)
(2.21249 0.483671 1.74577e-18)
(2.27681 0.396562 -8.43707e-20)
(2.33515 0.305943 -4.04031e-19)
(2.37624 0.209248 3.68214e-19)
(1.65689 0.638576 9.74569e-20)
(1.7357 0.620307 1.20894e-19)
(1.82637 0.592012 -1.0931e-20)
(1.91224 0.549118 2.1323e-19)
(1.99345 0.500889 -1.80162e-19)
(2.06149 0.440426 -4.29996e-19)
(2.12791 0.380899 -1.27271e-19)
(2.1802 0.309392 5.96533e-19)
(2.2349 0.243678 -2.37336e-20)
(2.26921 0.164748 -5.21729e-19)
(1.69139 0.525314 1.06369e-19)