/*--------------------------------*- C++ -*----------------------------------*\
  =========                 |
  \\      /  F ield         | OpenFOAM: The Open Source CFD Toolbox
   \\    /   O peration     | Website:  https://openfoam.org
    \\  /    A nd           | Version:  13
     \\/     M anipulation  |
\*---------------------------------------------------------------------------*/
FoamFile
{
    format      ascii;
    class       surfaceScalarField;
    location    "22.4";
    object      phi;
}
// * * * * * * * * * * * * * * * * * * * * * * * * * * * * * * * * * * * * * //

dimensions      [0 3 -1 0 0 0 0];

internalField   nonuniform List<scalar> 
823
(
-0.00408027
0.0171339
-0.0130536
0.00613915
0.0104576
-0.0206771
0.0537337
-0.0344224
-0.0131721
0.139096
-0.0923948
0.00703279
-0.12264
-0.00550346
0.267239
0.00693315
0.0102007
0.0541806
-0.0367898
0.142994
-0.123236
0.253506
-0.202907
-0.272781
0.403647
0.0228594
-0.0126587
0.107196
-0.121127
0.217384
-0.233424
0.324028
-0.309551
-0.353938
0.405186
0.0430753
-0.055734
0.13782
-0.215872
0.221597
-0.317201
0.273752
-0.361706
-0.376377
0.296191
0.0558012
-0.111535
0.126374
-0.286444
0.167455
-0.358281
0.18411
-0.378362
0.192348
-0.384614
0.0157907
-0.042674
0.0268833
0.0379767
-0.0730492
0.0508631
0.0627148
-0.0759443
0.0512063
0.0938242
-0.0662789
0.0351695
-0.0424113
0.13192
0.00431584
0.0213136
-0.0639876
0.0435357
-0.0952713
0.064202
-0.0966107
0.0867759
-0.0888527
-0.0671874
0.111552
0.000247264
-0.0642349
-0.0086286
-0.0863955
-0.0213998
-0.0838395
-0.0347117
-0.0755409
-0.0532262
-0.0486728
-0.0349217
-0.0293131
-0.0885642
-0.032753
-0.145729
-0.0266747
-0.201134
-0.0201363
0.000714264
-0.255074
-0.0423667
-0.0957968
-0.135644
-0.148747
-0.153536
0.286915
1.71659
-1.87158
0.431931
0.47174
-0.616756
0.52467
-1.89384
1.8011
0.532357
-1.14326
1.13557
-0.294642
0.30222
0.431213
1.39693
0.48766
0.415293
0.552737
-1.95892
0.575751
-1.16627
-0.265507
0.363557
0.984695
0.581348
0.197503
0.534414
-1.91198
0.53134
-1.1632
-0.258186
0.219675
0.509946
0.671461
-0.254283
0.569197
-1.80972
0.492777
-1.08678
-0.247526
0.208145
0.148265
0.626504
-0.672642
0.528469
-1.71169
0.451055
-1.00936
-0.231104
1.10163
0.133268
-1.08664
1.38725
-0.958257
1.04978
-1.37421
0.72971
-0.689299
-0.149184
1.43887
0.0604259
-1.36603
1.4235
-0.942886
0.909301
-0.860017
0.570834
-0.350832
-0.1577
1.43489
-0.0411059
-1.33336
1.24054
-0.74854
0.885811
-0.505286
0.69832
-0.163341
-0.136406
1.36982
-0.133697
-1.27723
1.00572
-0.384437
0.66712
-0.166685
0.587728
-0.0839496
-0.076451
0.748844
-0.882541
0.364407
0.197722
0.113773
1.08106
0.140986
-1.0297
1.14515
0.232105
1.24725
0.303086
1.2482
0.402697
0.428802
0.999195
0.0737951
-0.932004
1.06476
0.166541
1.16801
0.199839
1.26115
0.309557
0.323922
0.942854
0.0355982
-0.904657
1.00474
0.104653
1.08775
0.116829
1.2062
0.191108
0.196766
0.894972
0.0100104
-0.869384
0.961834
0.0377917
1.03494
0.0437222
1.15556
0.0704917
0.0750918
0.655444
-0.645434
0.693236
0.736958
0.80745
0.123814
0.293939
-0.244734
-0.173019
0.0814981
0.300071
-0.257756
0.0439802
0.31036
-0.272842
0.0136694
0.300446
-0.270135
0.191798
-0.178129
0.0922986
0.329877
-0.128236
0.0577465
0.334623
0.0276346
0.340472
0.0045008
0.32358
0.196299
0.0530152
0.360007
-0.0831454
0.0246856
0.362953
0.00127472
0.363883
-0.00865273
0.333507
0.187646
-0.0179241
0.377122
0.000808938
-0.0332639
0.378293
-0.0392085
0.369828
-0.0285106
0.32281
0.159136
-0.095443
0.0879507
-0.0955124
-0.0839658
-0.0476007
0.204217
0.0965842
-0.257885
-0.0429162
0.149592
0.10041
-0.0457852
0.0933943
0.104656
-0.0484583
0.0382416
0.104139
-0.0489864
0.0732961
-0.0350545
0.199661
0.141739
-0.244816
0.151959
0.148112
0.0990474
0.157567
0.0423641
0.160822
0.11566
0.147489
0.187332
-0.193082
0.104552
0.191049
0.0628041
0.199315
0.0233868
0.20024
0.139047
0.154386
0.221318
-0.188372
0.114329
0.231105
0.0698009
0.243844
0.0267702
0.24327
0.165817
0.0948264
-0.118242
0.0681757
0.0391769
0.0123118
0.405154
0.0532905
-0.0624654
0.428035
-0.00213736
-0.0207434
0.413094
0.188468
-0.173527
0.396565
0.163888
-0.147359
0.413803
-0.275123
0.403947
0.0453228
0.422415
-0.0206047
0.401016
0.209866
0.385155
0.179749
0.554142
0.399223
0.0420797
0.41651
-0.0378919
0.378569
0.247807
0.369955
0.188363
0.731016
0.398605
0.0394548
0.400904
-0.0401917
0.364657
0.284054
0.347544
0.205477
0.890188
0.392761
0.0426731
0.38658
-0.0340106
0.333975
0.336659
0.319683
0.219768
1.09163
0.633765
0.0129288
0.63882
-0.0390659
0.676071
0.299408
0.782909
0.112931
0.903559
0.970979
0.649891
-0.0329418
0.621426
-0.0106012
0.698398
0.222437
0.768029
0.0432992
0.714708
0.95688
0.643838
-0.0727596
0.622052
0.0111853
0.706794
0.137695
0.766328
-0.016235
0.498929
0.982106
0.608212
-0.0769508
0.630079
-0.0106822
0.741147
0.0266271
0.751085
-0.0261731
0.246301
1.00371
0.52707
0.516387
0.543015
0.516841
0.763143
0.991389
-0.193429
0.98645
-0.123296
0.986191
-0.0828866
0.998249
-0.0112496
0.0564992
0.917165
-0.153715
0.905822
-0.111953
0.891635
-0.0686994
0.912272
-0.0318867
0.0367669
0.930993
-0.102602
0.903115
-0.0840747
0.886593
-0.0521769
0.886098
-0.0313924
0.0182084
0.941256
-0.0401456
0.893725
-0.0365435
0.866848
-0.0252996
0.853439
-0.0179836
0.00226328
0.722997
0.686454
0.661154
0.64317
0.0499649
0.183636
-0.233601
0.0708177
0.375844
-0.396696
0.0687301
0.425295
-0.423207
0.0595528
0.422363
-0.413186
0.387032
0.0473932
-0.374873
0.079597
0.104039
0.145987
0.309453
0.17403
0.397252
0.178253
0.418141
0.398542
0.166743
0.0730046
0.0310341
0.185944
0.196514
0.262463
0.320732
0.298163
0.382441
0.408644
0.288062
0.0395506
-0.00851648
0.157041
0.0790233
0.279293
0.19848
0.380913
0.280822
0.358783
0.430773
0.0122622
-0.0207787
0.0848688
0.00641675
0.200681
0.0826676
0.327076
0.154427
0.261805
0.424054
0.0037437
-0.0245224
0.0363461
-0.0261857
0.11219
0.00682392
0.215042
0.0515744
0.154804
0.322043
0.00485331
-0.0293757
0.0193358
-0.0406682
0.0520213
-0.0258616
0.097834
0.00576173
0.0727557
0.179882
-0.00214364
-0.0272321
-0.00297459
-0.0398372
-0.000290403
-0.0285458
0.00709676
-0.00162543
0.0412541
0.0385984
-0.00398954
-0.0232425
-0.00406213
-0.0397646
0.00160746
-0.0342153
0.0112634
-0.0112813
0.0253248
0.0271926
0.00364078
0.0147393
0.0317302
0.0556184
0.085259
0.261023
1.12019
-1.05917
0.0444285
0.747299
-0.530705
0.175251
-0.309068
0.178245
0.401095
-0.679032
0.453189
-0.065475
0.0517371
0.0926926
1.20738
-0.0987379
0.93873
0.20604
-0.613846
0.412123
-0.885115
-0.10724
-0.245851
1.49183
-0.240915
0.933794
0.26828
-1.12304
0.381167
-0.998002
-0.187854
-0.260045
1.77906
-0.164268
0.838017
0.291321
-1.57863
0.393016
-1.0997
-0.267651
-0.00725872
0.214003
0.436473
0.472347
-0.164984
0.621211
-0.456227
-0.237625
0.0726412
-0.0490006
-0.188625
0.195061
-0.244061
-0.0530515
0.720862
-1.15882
0.262798
0.252419
0.461546
0.0919553
-0.010135
-0.0818202
0.144605
-0.0526495
0.218962
-0.0743571
0.346819
-0.127858
-0.109408
0.213458
-0.1762
0.327551
0.541255
0.844171
0.148371
-0.153674
0.184855
-0.179552
0.11389
-0.16045
0.194931
0.0743183
-0.169297
0.208869
0.0307933
-0.170454
0.213978
-0.121487
0.15228
0.192187
-0.112712
-0.233149
0.145859
-0.114122
0.0931854
-0.116623
0.0387699
-0.116038
-0.0827171
0.191558
-0.0613053
-0.242964
0.139253
-0.0618169
0.0864748
-0.063845
0.0353305
-0.0648938
-0.0473865
0.205616
-0.00892383
-0.257997
0.152518
-0.00871865
0.0975082
-0.00883537
0.0413018
-0.00868732
-0.00608479
0.210611
-0.262451
0.156107
0.098813
0.0411393
0.0528389
-0.352944
-0.0747673
0.0232419
-0.383589
-0.00272479
-0.39724
-0.0153031
-0.384118
-0.248904
0.135318
-0.318293
-0.169969
0.0910548
-0.339326
0.0460853
-0.352271
0.0106868
-0.34872
-0.238217
0.159832
-0.274698
-0.203426
0.11235
-0.291845
0.066021
-0.305942
0.0240862
-0.306785
-0.214131
0.176194
-0.235394
-0.215498
0.130034
-0.245685
0.0808921
-0.2568
0.0328383
-0.258731
-0.181292
0.17245
-0.222989
0.121696
0.0737647
0.0290121
0.39163
0.0955589
-0.091209
0.394649
0.0821482
-0.0851672
0.361213
0.147584
-0.114149
0.312518
0.0255015
0.0231938
-0.258933
0.391898
0.398786
0.0927522
0.409273
0.0716616
0.398165
0.158692
0.356269
0.0673974
-0.135813
0.403589
0.0851425
0.418408
0.0568427
0.41194
0.16516
0.378793
0.100545
1.54789e-05
0.407053
0.0740696
0.423837
0.0400581
0.421436
0.167562
0.395957
0.126024
0.137975
0.407584
0.426899
0.420933
0.399598
0.417214
0.0928374
0.338191
0.0790226
0.256314
0.0818771
0.273741
-0.0174275
-0.211881
0.485623
0.511679
0.505535
0.473263
0.479029
0.659046
0.389446
0.0961767
0.304136
0.0853094
0.204105
0.100031
0.118993
0.0851129
0.0371723
0.532234
0.402046
0.29865
0.213795
)
;

boundaryField
{
    left
    {
        type            calculated;
        value           nonuniform List<scalar> 
17
(
-0.60402
-0.60402
-0.60402
-0.60402
-0.60402
-0.39598
-0.39598
-0.39598
-0.39598
-0.39598
-0.39598
-0.39598
-0.39598
-0.39598
-0.39598
-0.510051
-0.510051
)
;
    }
    right
    {
        type            calculated;
        value           nonuniform List<scalar> 
17
(
0.248112
0.460232
0.414833
0.453888
0.461782
0.472814
0.506915
0.524779
0.546616
0.52402
0.482117
0.434633
0.64779
0.57935
0.677026
0.527772
0.0373218
)
;
    }
    down
    {
        type            calculated;
        value           uniform 0;
    }
    up
    {
        type            calculated;
        value           uniform 0;
    }
    cylinder
    {
        type            calculated;
        value           uniform 0;
    }
    defaultFaces
    {
        type            empty;
    }
}


// ************************************************************************* //
