/*--------------------------------*- C++ -*----------------------------------*\
  =========                 |
  \\      /  F ield         | OpenFOAM: The Open Source CFD Toolbox
   \\    /   O peration     | Website:  https://openfoam.org
    \\  /    A nd           | Version:  13
     \\/     M anipulation  |
\*---------------------------------------------------------------------------*/
FoamFile
{
    format      ascii;
    class       volScalarField;
    location    "5.255";
    object      p;
}
// * * * * * * * * * * * * * * * * * * * * * * * * * * * * * * * * * * * * * //

dimensions      [0 2 -2 0 0 0 0];

internalField   nonuniform List<scalar> 
440
(
-0.628602
-0.608392
-0.621228
-0.578199
-0.680939
-0.673223
-0.655808
-0.636494
-0.609731
-0.603764
-0.777851
-0.750644
-0.720666
-0.685531
-0.649408
-0.904672
-0.862165
-0.793385
-0.709998
-0.625541
-1.01094
-0.954365
-0.827858
-0.691711
-0.563904
-0.914691
-0.92427
-0.9458
-0.974706
-0.997017
-0.740312
-0.748492
-0.76426
-0.781412
-0.791097
-0.650104
-0.650796
-0.653187
-0.655417
-0.655929
-0.638537
-0.629156
-0.6233
-0.61088
-0.596849
-0.591252
-0.582961
-0.57459
-0.537461
-0.538807
-0.982136
-1.03405
-0.761576
-0.350383
-0.0039299
-0.835566
-1.05967
-0.892734
-0.384482
-0.0106136
-0.715927
-1.06288
-0.964544
-0.416212
-0.020824
-0.627412
-1.01511
-0.949959
-0.428774
-0.0388673
-0.575014
-0.988629
-0.909132
-0.436353
-0.0666549
-0.388052
-0.945088
-0.844111
-0.434197
-0.104613
-0.332478
-0.74775
-0.682644
-0.414063
-0.141545
-0.303192
-0.532789
-0.521313
-0.388795
-0.16603
-0.218909
-0.367218
-0.443009
-0.37714
-0.157022
-0.17174
-0.231608
-0.330264
-0.385616
-0.166808
-0.342204
-0.466867
-0.614378
-0.753077
-0.811195
-0.116859
-0.252122
-0.331676
-0.383021
-0.385236
0.0247989
-0.0921744
-0.169957
-0.232573
-0.271681
0.117172
0.00700882
-0.0829222
-0.145926
-0.188793
0.163937
0.0530305
-0.0387577
-0.0974968
-0.136605
0.904904
0.754732
0.563345
0.353098
0.122902
0.501199
0.340262
0.14239
-0.0757498
-0.313657
0.110735
-0.0511726
-0.253727
-0.479306
-0.679543
-0.216952
-0.379306
-0.573167
-0.781088
-0.92943
-0.430129
-0.585485
-0.760303
-0.938401
-1.03217
2.06237
2.0951
2.12485
2.13971
2.13603
1.87005
1.89319
1.91252
1.91445
1.89348
1.65111
1.63731
1.60081
1.54186
1.45553
1.39719
1.36277
1.29171
1.18808
1.05416
1.1496
1.047
0.912407
0.756793
0.566584
1.78116
1.77445
1.76778
1.84096
1.93613
1.77118
1.76417
1.74901
1.81968
1.8471
1.76219
1.75089
1.72675
1.78858
1.74478
1.75441
1.73512
1.70286
1.73665
1.57711
1.7478
1.71893
1.67736
1.68588
1.39993
1.7425
1.69508
1.64433
1.57894
1.2062
1.74026
1.66475
1.63443
1.43399
1.25989
1.7477
1.65255
1.62852
1.36919
1.28283
1.74484
1.62164
1.61969
1.32936
1.31235
1.78104
1.62166
1.61651
1.29102
1.36241
0.870413
0.581786
0.26074
-0.0077272
-0.191502
0.78786
0.588966
0.377363
0.192184
0.024696
0.788596
0.623783
0.460724
0.30751
0.157883
0.859941
0.695238
0.536801
0.38781
0.249628
0.919104
0.745877
0.586366
0.435462
0.298171
-1.66733
-1.51344
-1.338
-1.19523
-1.11086
-1.74586
-1.67504
-1.54197
-1.43223
-1.36568
-1.67103
-1.62105
-1.53935
-1.46997
-1.42179
-1.5151
-1.47171
-1.42589
-1.38744
-1.35782
-1.37681
-1.35142
-1.32576
-1.3099
-1.31437
-1.30951
-1.29542
-1.27384
-1.2848
-1.26487
-1.28426
-1.27189
-1.25849
-1.26156
-1.2612
-1.27984
-1.27146
-1.26649
-1.27211
-1.28954
-1.24153
-1.24542
-1.26232
-1.29302
-1.33079
-1.09924
-1.10862
-1.13255
-1.17014
-1.20653
-1.2606
-0.791139
-0.372373
-0.157403
-0.00953921
-1.26971
-0.747946
-0.358475
-0.155106
-0.00363265
-1.24485
-0.773008
-0.393317
-0.193982
0.000387752
-1.24868
-0.882781
-0.479679
-0.264404
0.00166217
-1.15066
-0.979482
-0.609173
-0.316433
0.000154893
-0.844023
-0.907778
-0.486818
-0.18098
-0.015689
-1.13993
-0.852126
-0.406009
-0.157481
-0.0121631
-1.06159
-1.32977
-1.37928
-1.33606
-1.13324
-1.08212
-1.33701
-1.39254
-1.33499
-1.30864
1.6551
1.62912
1.58528
1.52394
1.44174
1.85759
1.87625
1.87925
1.8647
1.83301
2.03145
2.06428
2.08956
2.10203
2.09948
2.1339
2.1746
2.21786
2.25303
2.26891
2.14372
2.18258
2.22573
2.26146
2.27778
-0.620962
-0.730209
-0.902613
-1.11002
-1.35788
0.0200162
-0.122243
-0.310635
-0.536903
-0.828933
0.599409
0.45255
0.277119
0.0695443
-0.194342
1.06253
0.947706
0.808738
0.639792
0.433142
1.43602
1.35458
1.24914
1.12342
0.975246
1.84454
1.80555
1.79987
1.80796
1.81963
1.82907
1.8016
1.79998
1.82776
1.88881
1.8158
1.79668
1.79923
1.8491
1.96814
1.80339
1.79064
1.79335
1.85672
1.98208
1.79179
1.78365
1.78267
1.85424
1.97736
1.89961
1.81273
1.78586
1.73099
1.68028
1.85521
1.80249
1.78316
1.75282
1.69589
1.31173
1.07213
0.661111
0.0666408
-0.588963
1.39997
1.10805
0.679982
0.0892486
-0.580101
)
;

boundaryField
{
    left
    {
        type            zeroGradient;
    }
    right
    {
        type            fixedValue;
        value           uniform 0;
    }
    down
    {
        type            zeroGradient;
    }
    up
    {
        type            zeroGradient;
    }
    cylinder
    {
        type            zeroGradient;
    }
    defaultFaces
    {
        type            empty;
    }
}


// ************************************************************************* //
