# Selection   : all
# Cells       : 440
# Volume      : 7.374263e+01
# Time        	max(p)
6.415         	2.451600e+00
6.46          	2.451537e+00
6.51          	2.453079e+00
