/*--------------------------------*- C++ -*----------------------------------*\
  =========                 |
  \\      /  F ield         | OpenFOAM: The Open Source CFD Toolbox
   \\    /   O peration     | Website:  https://openfoam.org
    \\  /    A nd           | Version:  13
     \\/     M anipulation  |
\*---------------------------------------------------------------------------*/
FoamFile
{
    format      ascii;
    class       surfaceScalarField;
    location    "5.47";
    object      phi;
}
// * * * * * * * * * * * * * * * * * * * * * * * * * * * * * * * * * * * * * //

dimensions      [0 3 -1 0 0 0 0];

internalField   nonuniform List<scalar> 
823
(
-0.00171742
0.0158834
-0.014166
0.0114156
0.013759
-0.0268921
0.0622322
-0.0198729
-0.0309437
0.153023
-0.0752129
-0.0155779
-0.0782006
-0.0451785
0.276402
0.00298983
0.0128936
0.0410347
-0.0242858
0.122487
-0.101325
0.224592
-0.177318
-0.238136
0.384527
0.0196275
-0.00673392
0.0972354
-0.101894
0.206515
-0.210605
0.318332
-0.289135
-0.34134
0.421536
0.0388546
-0.0455885
0.133358
-0.196397
0.224806
-0.302053
0.28975
-0.354078
-0.37309
0.3215
0.0545458
-0.100134
0.132608
-0.274459
0.184425
-0.35387
0.209027
-0.378681
0.222775
-0.386838
-0.0155119
-0.0413757
0.0568876
-0.0446296
-0.0509639
0.0800817
-0.076537
-0.0416893
0.0735967
-0.108225
-0.0283472
0.0600353
-0.0137908
-0.139564
0.0451293
-0.0252676
-0.0161081
-0.0645398
-0.0116917
-0.103249
-0.00298054
-0.136913
0.00531747
0.0154377
-0.166142
-0.0168055
0.00069735
-0.043533
0.0150357
-0.071136
0.0246225
-0.0948918
0.0290733
0.0341573
-0.113611
-0.00434226
0.00503961
-0.00903944
0.0197329
-0.0173169
0.0329
-0.026764
0.0385204
0.0459909
-0.0385976
-0.00912642
-0.0162856
-0.0143293
0.00861319
0.00942555
-0.218494
0.407867
-0.328936
-0.103042
1.00185
-1.1173
0.227054
0.00743095
-0.337527
0.39127
-0.850937
0.686721
-0.669002
0.618338
-0.173956
0.415681
0.0240255
0.803871
0.343048
-0.311592
0.480061
-0.98795
-0.707136
-0.0400493
0.342119
0.225588
0.538234
0.500899
-0.586903
0.588085
-1.07514
-0.708235
0.0950641
0.208457
0.40407
0.229228
0.643004
-0.825837
0.701315
-1.13345
-0.678852
0.161342
0.0565403
0.487032
-0.0964613
0.674854
-1.01366
0.736128
-1.19472
-0.656589
0.96552
0.119635
-1.02861
1.21562
-0.346564
1.33115
-1.12919
1.22876
-1.09233
-0.511234
1.4058
0.0636348
-1.3498
1.50406
-0.444818
1.38291
-1.00804
1.11632
-0.825735
-0.326639
1.47343
-0.0532817
-1.35652
1.4689
-0.440286
1.20174
-0.74088
0.899003
-0.522996
-0.176545
1.40802
-0.0873306
-1.37398
1.28956
-0.32182
0.928629
-0.37995
0.575053
-0.16942
-0.0322312
0.882535
-0.969866
0.560715
0.180765
0.0113452
1.08686
0.179529
-1.04361
1.15716
0.251194
1.24093
0.337768
1.20327
0.422188
0.451057
0.989732
0.10845
-0.918653
1.05616
0.184762
1.16262
0.231309
1.25462
0.330188
0.355876
0.934496
0.051939
-0.877986
1.00057
0.118686
1.09732
0.134557
1.22226
0.205254
0.221619
0.941656
0.0116917
-0.901409
1.01826
0.042087
1.10606
0.0467553
1.23442
0.0768953
0.0820587
0.722069
-0.710378
0.764156
0.810912
0.887807
0.129219
0.302854
-0.251456
-0.180618
0.0845091
0.309755
-0.265045
0.0447915
0.320178
-0.28046
0.0134551
0.309448
-0.278112
0.197077
-0.183622
0.0865375
0.338936
-0.122619
0.0522391
0.344054
0.0226404
0.349777
0.00110957
0.330979
0.198187
0.0420487
0.369413
-0.0725263
0.0142823
0.37182
-0.00696454
0.371024
-0.01277
0.336785
0.185417
-0.0395348
0.382207
0.0267417
-0.0503318
0.382617
-0.0513357
0.372027
-0.0341118
0.319561
0.151305
-0.118366
0.113734
-0.11443
-0.0962718
-0.0511705
0.205254
0.101505
-0.260277
-0.0464816
0.149356
0.105659
-0.0497614
0.0926027
0.10975
-0.0529966
0.037765
0.108891
-0.0540533
0.0767037
-0.0389387
0.20812
0.146306
-0.252922
0.15958
0.1542
0.104504
0.164825
0.044878
0.168517
0.121582
0.140621
0.191977
-0.186292
0.0994123
0.195409
0.0595415
0.204696
0.0217742
0.206285
0.143356
0.163372
0.228295
-0.199691
0.120573
0.238208
0.073862
0.251407
0.0286912
0.251455
0.172047
0.0941219
-0.117283
0.0672845
0.0382315
0.0115747
0.405921
0.0554016
-0.0653426
0.426871
0.00298251
-0.023933
0.409059
0.200459
-0.182647
0.400239
0.150946
-0.142126
0.4297
-0.289737
0.405078
0.0463029
0.421541
-0.0134804
0.397774
0.224226
0.388176
0.160545
0.564954
0.3997
0.0425825
0.415161
-0.0289414
0.374619
0.264767
0.373578
0.161586
0.75224
0.397117
0.0414446
0.397717
-0.0295406
0.362914
0.29957
0.362108
0.162392
0.914658
0.389624
0.0478007
0.383301
-0.0232184
0.339541
0.34333
0.334208
0.167725
1.13158
0.627471
0.0243496
0.63266
-0.0284072
0.677708
0.298282
0.794538
0.0508948
0.934409
0.991712
0.641669
-0.0132988
0.615887
-0.00262554
0.724824
0.189345
0.819468
-0.0437492
0.734228
1.01965
0.638968
-0.0482467
0.633421
0.00292136
0.75106
0.071706
0.774602
-0.0672912
0.560066
0.948764
0.620172
-0.0643983
0.647997
-0.0249033
0.72876
-0.00905736
0.684104
-0.0226351
0.308206
0.935964
0.539622
0.514719
0.505661
0.483026
0.791232
1.0187
-0.207605
1.00726
-0.111176
1.00466
-0.0699298
1.00825
0.0231472
0.0783789
0.95116
-0.139115
0.916039
-0.076056
0.885366
-0.0392559
0.901764
0.00674828
0.0614905
0.876863
-0.0672136
0.852596
-0.0517898
0.836819
-0.023479
0.854175
-0.0106076
0.0376803
0.894608
-0.0258576
0.871314
-0.0284959
0.865508
-0.0176728
0.87111
-0.0162097
0.00738131
0.765375
0.736879
0.719206
0.702996
0.054268
0.168631
-0.222898
0.0796573
0.359604
-0.384993
0.0796772
0.413656
-0.413676
0.0695955
0.415121
-0.40504
0.382698
0.0571859
-0.370288
0.0816624
0.0869681
0.15842
0.282846
0.193562
0.378514
0.198274
0.41041
0.402145
0.178827
0.0692152
0.0177528
0.194917
0.157144
0.293691
0.279741
0.358232
0.345869
0.397948
0.362429
0.0327467
-0.0149939
0.146512
0.0433782
0.281971
0.144282
0.41212
0.21572
0.297368
0.5127
0.00601945
-0.0210133
0.064347
-0.0149494
0.177532
0.0310965
0.314149
0.0791035
0.149149
0.462368
-0.00160533
-0.019408
0.0182921
-0.0348468
0.0773641
-0.0279755
0.166851
-0.0103835
0.0403052
0.275695
0.0036214
-0.0230294
0.017165
-0.0483905
0.0433963
-0.0542067
0.079376
-0.0463632
-0.0216077
0.141289
0.0149549
-0.0379843
0.0384438
-0.0718794
0.0615458
-0.0773088
0.0831971
-0.0680145
-0.0520789
0.113668
0.0183952
-0.0563796
0.0375144
-0.0909985
0.0509291
-0.0907235
0.0609718
-0.0780572
-0.0622788
0.0711716
0.000508067
-0.0104088
-0.0275356
-0.0455575
-0.0627069
0.373747
0.779483
-0.877535
0.294516
0.584574
-0.505343
0.170517
0.227931
-0.103932
0.179439
-0.109973
0.101052
-0.210045
0.124017
0.353044
0.567728
0.221241
0.716377
0.0489996
0.400172
0.103991
-0.164964
-0.328516
0.316146
0.36525
0.104992
0.927531
-0.0365405
0.541704
0.102447
-0.303952
-0.45195
0.144776
0.291646
-0.0301934
1.1025
-0.0299048
0.541416
0.166203
-0.500059
-0.550483
-0.0999973
-0.114801
0.0890875
0.275749
0.0582882
0.594936
-0.653224
-0.105426
0.163715
-0.0228194
-0.0826069
0.0892257
-0.112045
-0.0666135
0.894773
-1.17737
0.553145
0.366606
0.355612
0.0973488
-0.0155994
-0.0817494
0.155765
-0.0584164
0.270369
-0.114604
0.447189
-0.17682
-0.206035
0.216924
-0.175337
0.337334
0.585159
0.921039
0.14605
-0.14966
0.180597
-0.176986
0.11186
-0.156182
0.190371
0.0724919
-0.164719
0.204088
0.0296972
-0.165769
0.208564
-0.117937
0.147635
0.189508
-0.109115
-0.230053
0.143673
-0.110347
0.0916117
-0.112658
0.0379582
-0.112116
-0.0799791
0.191369
-0.0582458
-0.242238
0.139518
-0.0584958
0.0869385
-0.0600784
0.0355729
-0.0607502
-0.0444062
0.207288
-0.00570468
-0.259829
0.153909
-0.00511637
0.0985768
-0.00474627
0.0418298
-0.00400317
-0.00257642
0.212192
-0.264379
0.157315
0.0995717
0.0415152
0.0456066
-0.346613
-0.0692818
0.0179683
-0.377401
-0.00663117
-0.389077
-0.0172939
-0.37433
-0.240192
0.133264
-0.312337
-0.16754
0.0876805
-0.331818
0.0431883
-0.344585
0.00915337
-0.340295
-0.231039
0.155146
-0.269082
-0.198401
0.109791
-0.286463
0.0648752
-0.299668
0.0235598
-0.29898
-0.207479
0.17501
-0.230992
-0.2131
0.128514
-0.239967
0.0787976
-0.249952
0.0314483
-0.251631
-0.176031
0.166923
-0.217319
0.117327
0.0714631
0.0283964
0.390309
0.0867101
-0.0810395
0.397086
0.0850933
-0.0918701
0.359559
0.168647
-0.13112
0.30892
0.0211558
0.0294834
-0.245238
0.377172
0.394871
0.0878186
0.408464
0.0715004
0.400064
0.177046
0.35404
0.0671799
-0.121252
0.399329
0.0844688
0.414516
0.0563135
0.413855
0.177707
0.37903
0.102005
0.0155401
0.404161
0.0762871
0.419409
0.041066
0.420641
0.176475
0.397075
0.125572
0.152786
0.406924
0.424057
0.417885
0.40133
0.423383
0.0866684
0.337021
0.0863612
0.25041
0.0866113
0.274363
-0.0239534
-0.202737
0.4771
0.51568
0.510171
0.465662
0.471192
0.645628
0.382969
0.0941315
0.298775
0.0841938
0.20019
0.0985852
0.11687
0.0833196
0.0351208
0.522441
0.393535
0.293719
0.209498
)
;

boundaryField
{
    left
    {
        type            calculated;
        value           nonuniform List<scalar> 
17
(
-0.60402
-0.60402
-0.60402
-0.60402
-0.60402
-0.39598
-0.39598
-0.39598
-0.39598
-0.39598
-0.39598
-0.39598
-0.39598
-0.39598
-0.39598
-0.510051
-0.510051
)
;
    }
    right
    {
        type            calculated;
        value           nonuniform List<scalar> 
17
(
0.155839
0.413016
0.265467
0.222462
0.225881
0.264736
0.343603
0.441935
0.518195
0.589184
0.671932
0.713865
1.0834
0.93172
0.748909
0.430739
-0.020886
)
;
    }
    down
    {
        type            calculated;
        value           uniform 0;
    }
    up
    {
        type            calculated;
        value           uniform 0;
    }
    cylinder
    {
        type            calculated;
        value           uniform 0;
    }
    defaultFaces
    {
        type            empty;
    }
}


// ************************************************************************* //
