/*--------------------------------*- C++ -*----------------------------------*\
  =========                 |
  \\      /  F ield         | OpenFOAM: The Open Source CFD Toolbox
   \\    /   O peration     | Website:  https://openfoam.org
    \\  /    A nd           | Version:  13
     \\/     M anipulation  |
\*---------------------------------------------------------------------------*/
FoamFile
{
    format      ascii;
    class       surfaceScalarField;
    location    "3.75";
    object      phi;
}
// * * * * * * * * * * * * * * * * * * * * * * * * * * * * * * * * * * * * * //

dimensions      [0 3 -1 0 0 0 0];

internalField   nonuniform List<scalar> 
3485
(
-0.00176492
0.00403863
-0.0022737
-0.00437212
0.00791942
-0.00531223
-0.00578837
0.00882546
-0.00740921
-0.00439285
0.00720363
-0.00859915
0.00118022
0.00310535
-0.00867842
0.0120774
-0.00351459
-0.00738264
0.0292646
-0.0126517
-0.00453541
0.0531849
-0.0239982
7.79607e-05
0.0846736
-0.0366571
0.00516834
-0.0426104
0.0084662
0.118818
-0.000703137
0.00474177
-0.000907529
0.00812381
0.00111949
0.00679844
0.00700138
0.00132174
0.0181161
-0.00800941
0.035469
-0.0208675
0.0594497
-0.0366325
0.0898741
-0.0544225
0.126401
-0.0731839
-0.0868789
0.170669
0.00032872
0.00441304
0.00280335
0.00564919
0.00903635
0.000565436
0.020649
-0.0102909
0.0387207
-0.0260811
0.0635235
-0.0456702
0.0943144
-0.0674234
0.129431
-0.0895395
0.166858
-0.11061
-0.128001
0.20798
0.00101529
0.00339776
0.00592657
0.000737907
0.0165531
-0.0100611
0.0340938
-0.0278317
0.0587912
-0.0507785
0.0894754
-0.0763544
0.123865
-0.101813
0.15921
-0.124884
0.192765
-0.144166
-0.159042
0.223806
0.00189124
0.00150652
0.00962861
-0.00699947
0.0248671
-0.0252996
0.0479606
-0.0509252
0.0773998
-0.0802176
0.110176
-0.109131
0.142829
-0.134466
0.17244
-0.154494
0.197158
-0.168885
-0.178552
0.216668
0.00305596
-0.00154945
0.013954
-0.0178975
0.0335312
-0.0448768
0.0603232
-0.0777173
0.0907691
-0.110663
0.120739
-0.1391
0.147026
-0.160753
0.168013
-0.175482
0.183613
-0.184485
-0.189406
0.194468
0.00438081
-0.00593026
0.0182935
-0.0318101
0.0408138
-0.0673971
0.0682209
-0.105124
0.0957
-0.138143
0.119555
-0.162955
0.138122
-0.179321
0.151518
-0.188878
0.160791
-0.193758
-0.195895
0.16728
0.00567624
-0.0116065
0.0217638
-0.0478978
0.0449759
-0.0906092
0.0699201
-0.130069
0.0920448
-0.160267
0.109177
-0.180087
0.121256
-0.191399
0.12932
-0.196942
0.13464
-0.199078
-0.199347
0.138092
0.00670319
-0.0183097
0.0236279
-0.0648224
0.0452737
-0.112255
0.0659055
-0.1507
0.0822622
-0.176624
0.0936816
-0.191507
0.100998
-0.198715
0.105472
-0.201417
0.108161
-0.201767
-0.200916
0.10973
0.00728176
-0.0255915
0.0235919
-0.0811325
0.0421244
-0.130788
0.0579109
-0.166487
0.0691019
-0.187815
0.0760103
-0.198415
0.0798
-0.202505
0.0816341
-0.203251
0.0823227
-0.202456
0.0822428
-0.200836
-0.00476038
0.0113726
-0.00661223
-0.0149088
0.026233
-0.0160846
-0.0279339
0.0343059
-0.0212808
-0.0424029
0.0379732
-0.0235041
-0.0575998
0.0394274
-0.0242305
-0.0732085
0.0399751
-0.0243664
-0.0890767
0.0401482
-0.02428
-0.105089
0.0400944
-0.0240825
-0.121134
0.0398677
-0.0238221
0.0398568
-0.137256
-0.0237346
-0.00239256
0.0137652
-0.00864278
0.0324832
-0.017731
0.0433941
-0.028611
0.0488532
-0.0404115
0.0512278
-0.0525999
0.0521635
-0.0648993
0.0524476
-0.0771468
0.0523418
-0.089201
0.0519219
0.0515579
-0.100902
0.000532082
0.0132331
-0.000215143
0.0332304
-0.00338808
0.046567
-0.00866143
0.0541265
-0.015238
0.0578044
-0.02237
0.0592955
-0.0295762
0.0596538
-0.0366031
0.0593686
-0.0432789
0.0585978
0.0575435
-0.0492646
0.00285703
0.0103761
0.00734432
0.0287432
0.0108203
0.0430911
0.012274
0.0526728
0.0119161
0.0581623
0.010448
0.0607637
0.00855089
0.0615509
0.00669144
0.0612281
0.00513287
0.0601563
0.0585785
0.00409787
0.00389487
0.00648119
0.0118912
0.0207468
0.0209448
0.0340375
0.0291165
0.0445011
0.0356713
0.0516075
0.0407421
0.0556929
0.0448697
0.0574233
0.0486555
0.0574422
0.0525936
0.0562182
0.0538148
0.0573574
0.00357711
0.00290408
0.0122298
0.0120941
0.0237876
0.0224797
0.0362879
0.0320008
0.0484157
0.0394797
0.0595793
0.0445294
0.0697355
0.0472671
0.0791401
0.0480377
0.0881197
0.0472386
0.0447061
0.0972283
0.00243334
0.000470738
0.00922885
0.00529856
0.0194942
0.0122144
0.032014
0.0194809
0.045636
0.0258577
0.05952
0.0306454
0.0731923
0.0335948
0.0864746
0.0347553
0.0993925
0.0343208
0.0317875
0.112311
0.000993871
-0.000523133
0.00455012
0.00174231
0.010836
0.00592851
0.0195536
0.0107634
0.030134
0.0152772
0.0419651
0.0188143
0.054542
0.0210179
0.0675509
0.0217464
0.0809697
0.020902
0.017705
0.0950521
-0.000684827
0.000161693
-0.000932835
0.00199032
0.000282781
0.0047129
0.00339403
0.00765211
0.00844809
0.0102232
0.0153019
0.0119605
0.0237671
0.0125527
0.0336905
0.011823
0.0449867
0.00960581
0.00533579
0.057356
-0.00211201
-0.00543392
-0.00813024
-0.00907727
-0.00753253
-0.00295469
0.00506262
0.0169636
0.0317377
0.0455397
-0.22401
0.29407
-0.207316
-0.197012
0.272002
-0.299001
-0.072508
0.0654353
-0.189939
0.0326894
-0.220515
0.115318
0.101863
-0.407786
0.338613
0.147637
-0.405011
0.359238
0.17563
-0.356842
0.328849
0.192033
-0.267436
0.251032
0.20349
-0.216204
0.204748
-0.134732
0.128299
-0.169924
0.363092
-0.14703
0.249108
-0.0363245
-0.0452705
0.062684
-0.319524
0.12666
-0.471763
0.16776
-0.446111
0.191224
-0.380306
0.203746
-0.279957
0.211289
-0.223747
-0.138821
-0.0967429
0.41057
-0.0780775
0.230443
0.0118434
-0.135191
0.0976419
-0.405322
0.153702
-0.527823
0.188388
-0.480797
0.206629
-0.398547
0.215359
-0.288687
0.219277
-0.227666
-0.140684
-0.0209323
0.4356
-0.00353169
0.213042
0.0614086
-0.200132
0.13384
-0.477753
0.180824
-0.574807
0.208624
-0.508597
0.221272
-0.411196
0.226192
-0.293607
0.226886
-0.228359
-0.140601
0.0509647
0.441993
0.0609649
0.203042
0.110078
-0.249245
0.16821
-0.535885
0.20614
-0.612737
0.227394
-0.529851
0.234751
-0.418553
0.235923
-0.294779
0.233739
-0.226175
-0.138896
0.110712
0.428509
0.117471
0.196284
0.15415
-0.285925
0.199066
-0.5808
0.228553
-0.642224
0.243856
-0.545154
0.246683
-0.42138
0.244423
-0.292518
0.23966
-0.221412
-0.135874
0.154052
0.386768
0.163126
0.18721
0.191765
-0.314564
0.225344
-0.614379
0.247244
-0.664124
0.257499
-0.555408
0.25677
-0.420651
0.251645
-0.287393
0.24461
-0.214378
-0.131808
0.175768
0.306052
0.196917
0.166061
0.222107
-0.339755
0.246312
-0.638583
0.261613
-0.679425
0.268001
-0.561796
0.264791
-0.417442
0.257557
-0.280159
0.248623
-0.205444
-0.126948
0.172699
0.190709
0.220131
0.118629
0.245489
-0.365113
0.261663
-0.654758
0.271543
-0.689305
0.275301
-0.565553
0.270646
-0.412787
0.262122
-0.271635
0.25174
-0.195062
-0.121556
0.158053
0.078196
0.237299
0.0393825
0.261818
-0.389631
0.271268
-0.664208
0.277756
-0.695792
0.279838
-0.567636
0.274482
-0.407431
0.265356
-0.262509
0.254004
-0.18371
-0.115904
0.43347
0.0413067
-0.39658
0.586598
-0.113745
0.662164
-0.465198
0.652537
-0.654581
0.604248
-0.647504
0.546662
-0.51005
0.490622
-0.35139
0.444441
-0.216328
0.404942
-0.144211
-0.0926683
0.675647
0.00690666
-0.641247
0.749623
-0.187721
0.7513
-0.466875
0.689332
-0.592612
0.616185
-0.574357
0.550647
-0.444512
0.492041
-0.292784
0.445229
-0.169516
0.405626
-0.104608
-0.068668
0.768766
-0.0360953
-0.725764
0.786026
-0.204981
0.740392
-0.421241
0.678447
-0.530667
0.620681
-0.516591
0.561752
-0.385583
0.501313
-0.232345
0.450318
-0.118522
0.407405
-0.0616955
-0.0429696
0.774539
-0.0705152
-0.740119
0.771563
-0.202004
0.736362
-0.38604
0.690536
-0.484841
0.629762
-0.455817
0.559386
-0.315207
0.491351
-0.16431
0.438112
-0.0652829
0.397134
-0.0207177
-0.0192533
0.758012
-0.094467
-0.73406
0.755641
-0.199633
0.726827
-0.357226
0.677107
-0.435121
0.607729
-0.386439
0.533826
-0.241304
0.468908
-0.0993927
0.419964
-0.0163389
0.383569
0.015678
0.00158816
0.740885
-0.110695
-0.724656
0.739346
-0.198094
0.708644
-0.326525
0.646804
-0.373281
0.562337
-0.301972
0.48203
-0.160997
0.421645
-0.0390079
0.382082
0.0232245
0.356459
0.0413005
0.0160925
0.721419
-0.118341
-0.713773
0.712133
-0.188808
0.659748
-0.27414
0.567258
-0.280791
0.464753
-0.199467
0.387562
-0.0838056
0.34279
0.00576355
0.321669
0.0443456
0.312954
0.0500158
0.0213329
0.672336
-0.106945
-0.683732
0.632723
-0.149196
0.538061
-0.179478
0.413319
-0.156049
0.308397
-0.0945445
0.25138
-0.0267891
0.234474
0.0226694
0.237903
0.0409171
0.24819
0.0397289
0.0171783
0.517174
-0.0616533
-0.562465
0.432454
-0.0644758
0.308969
-0.0559928
0.193261
-0.040341
0.123326
-0.0246095
0.101747
-0.00520996
0.111934
0.0124824
0.134019
0.0188318
0.156004
0.017744
0.00768814
0.180853
-0.242506
0.116377
0.0603845
0.0200435
-0.00456598
-0.00977594
0.00270649
0.0215382
0.0392822
0.550733
0.0710488
-0.539539
0.563051
0.0974123
0.578027
0.123116
0.594065
0.151242
0.609885
0.178648
0.623117
0.203437
0.616628
0.230294
0.587188
0.23742
0.500033
0.257825
0.222271
0.531273
0.0599612
-0.520186
0.545929
0.0827564
0.561808
0.107236
0.583868
0.129182
0.604332
0.158184
0.631745
0.176024
0.650899
0.21114
0.668008
0.220311
0.668041
0.257791
0.249065
0.517381
0.0501248
-0.507544
0.532207
0.0679302
0.547634
0.0918096
0.569015
0.107801
0.590812
0.136387
0.617551
0.149285
0.646433
0.182258
0.67503
0.191715
0.707911
0.22491
0.231211
0.507955
0.0403461
-0.498176
0.521687
0.0541975
0.537662
0.0758345
0.556889
0.0885741
0.580073
0.113204
0.604756
0.124602
0.636388
0.150626
0.666871
0.161231
0.705833
0.185948
0.196925
0.500474
0.0302589
-0.490386
0.513046
0.0416255
0.529586
0.0592937
0.547729
0.0704311
0.571407
0.0895264
0.595687
0.100322
0.626872
0.119441
0.658002
0.130101
0.696084
0.147866
0.158949
0.492804
0.0203036
-0.482848
0.50479
0.0296392
0.521251
0.0428326
0.539316
0.0523669
0.562681
0.0661611
0.58735
0.0756528
0.617637
0.0891545
0.649235
0.0985019
0.686056
0.111045
0.120349
0.481808
0.0109358
-0.47244
0.493559
0.017888
0.509538
0.0268534
0.527838
0.0340672
0.550748
0.0432511
0.575951
0.0504495
0.605796
0.05931
0.638002
0.0662956
0.674687
0.0743605
0.081263
0.456862
0.00288368
-0.44881
0.467706
0.0070439
0.482435
0.0121238
0.50011
0.0163923
0.521908
0.0214532
0.54675
0.0256078
0.575783
0.030277
0.607909
0.0341697
0.644243
0.0380265
0.0417733
0.385154
-0.00156118
-0.380709
0.392268
-7.06842e-05
0.402689
0.00170264
0.415902
0.00317907
0.432558
0.00479757
0.452081
0.00608483
0.474988
0.00737023
0.500847
0.00831033
0.529817
0.00905702
0.00912457
0.192951
-0.194512
0.19288
0.194583
0.197762
0.202559
0.208644
0.216014
0.224325
0.233382
0.0715911
0.148143
-0.136466
-0.0832677
0.060872
0.150312
-0.139593
0.0509889
0.15292
-0.143037
0.0414126
0.156405
-0.146829
0.0318956
0.160109
-0.150592
0.0225324
0.162902
-0.153539
0.0137536
0.162065
-0.153286
0.00638115
0.151631
-0.144259
0.00151559
0.121181
-0.116315
0.0568584
-0.0553428
0.0675173
0.158584
-0.077958
0.0572327
0.160597
0.0472914
0.162862
0.0377035
0.165993
0.028375
0.169437
0.0194207
0.171856
0.0113019
0.170184
0.00482278
0.15811
0.000908766
0.125095
0.0577671
0.0598982
0.16781
-0.0691244
0.0503972
0.170098
0.0410262
0.172233
0.0319709
0.175048
0.0232734
0.178135
0.0151064
0.180023
0.00795881
0.177331
0.00267667
0.163392
4.53729e-05
0.127726
0.0578125
0.0485462
0.175719
-0.0564555
0.0402957
0.178348
0.0319904
0.180538
0.0238856
0.183153
0.0161601
0.18586
0.00911852
0.187065
0.00333016
0.18312
-0.000334676
0.167057
-0.00105939
0.128451
0.0567531
0.0350735
0.182538
-0.0418919
0.0280557
0.185366
0.0209427
0.187651
0.0139809
0.190115
0.00745277
0.192388
0.00177924
0.192738
-0.00220469
0.187104
-0.00360158
0.168454
-0.00231295
0.127162
0.0544402
0.0196927
0.188252
-0.0254075
0.0139006
0.191158
0.0080708
0.193481
0.00243117
0.195754
-0.00264808
0.197468
-0.00652819
0.196618
-0.00839137
0.188967
-0.0074051
0.167468
-0.00364609
0.123403
0.0507941
0.00306866
0.193108
-0.00792461
-0.00163593
0.195863
-0.00623258
0.198078
-0.0104882
0.20001
-0.0139452
0.200925
-0.0158683
0.198541
-0.015257
0.188356
-0.0113652
0.163576
-0.0049239
0.116962
0.0458702
-0.0155567
0.196841
0.0118238
-0.019046
0.199352
-0.0222871
0.201319
-0.0249924
0.202715
-0.0265706
0.202503
-0.0260945
0.198065
-0.0225019
0.184763
-0.0153063
0.15638
-0.00604958
0.107705
0.0398206
-0.0358799
0.199458
0.0332634
-0.0381347
0.201607
-0.0399437
0.203128
-0.0409011
0.203673
-0.040243
0.201845
-0.0368834
0.194706
-0.0297883
0.177668
-0.0189365
0.145528
-0.0068931
0.0956619
0.0329275
-0.0583037
0.0569255
-0.0591521
-0.0592758
-0.0581077
-0.054678
-0.0477874
-0.0366063
-0.0218654
-0.00733603
0.109618
0.0385603
-0.121822
-0.0263571
0.0971342
0.0396101
-0.0271259
0.0843578
0.0407484
-0.027972
0.0712636
0.0419625
-0.0288682
0.0578338
0.0432336
-0.0298038
0.0440931
0.0444236
-0.0306829
0.0302263
0.0449901
-0.0311233
0.0168759
0.0434005
-0.03005
0.00568494
0.036369
-0.0251781
0.0184235
-0.0127386
0.108355
0.0507272
-0.120522
0.0959854
0.0519799
0.0833364
0.0533974
0.0703773
0.0549216
0.0570826
0.0565283
0.043475
0.0580311
0.0297483
0.0587168
0.0165586
0.0565901
0.00554727
0.0473803
0.0239708
0.106691
0.0627418
-0.118705
0.0944104
0.0642602
0.0818766
0.0659312
0.0690627
0.0677356
0.0559454
0.0696455
0.0425426
0.0714339
0.0290448
0.0722146
0.0161115
0.0695235
0.00536599
0.0581259
0.0293368
0.104424
0.0747594
-0.116441
0.0922899
0.0763938
0.0798964
0.0783247
0.0672213
0.0804107
0.054262
0.0826048
0.0410707
0.0846253
0.027869
0.0854162
0.0153295
0.082063
0.0050367
0.0684187
0.0343735
0.101623
0.0865248
-0.113388
0.0897134
0.0883036
0.0776332
0.0904049
0.0653105
0.0927335
0.0526948
0.0952204
0.0398181
0.0975019
0.0269236
0.0983107
0.0147234
0.0942633
0.00479876
0.0783433
0.0391722
0.0976824
0.0983397
-0.109497
0.0858762
0.10011
0.0739156
0.102365
0.0618124
0.104837
0.0495557
0.107477
0.0371725
0.109885
0.0248899
0.110593
0.0134097
0.105743
0.00425415
0.0874988
0.0434264
0.0935317
0.109492
-0.104684
0.0823806
0.111261
0.071032
0.113714
0.0593918
0.116477
0.0474743
0.119395
0.035399
0.12196
0.0234852
0.122507
0.0124873
0.116741
0.00388474
0.0961014
0.0473111
0.0860659
0.120473
-0.0970466
0.0753205
0.122006
0.0646277
0.124407
0.0538563
0.127248
0.0428933
0.130358
0.0317758
0.133078
0.0208238
0.133459
0.0108272
0.126738
0.00322263
0.103706
0.0505338
0.0811772
0.1297
-0.0904041
0.0715332
0.13165
0.061309
0.134631
0.0507365
0.137821
0.0399844
0.14111
0.0292143
0.143848
0.0187935
0.14388
0.00951659
0.136015
0.00271186
0.110511
0.0532456
0.0700815
-0.0768479
0.0621387
0.0537324
0.0447244
0.0352423
0.0255518
0.0161455
0.00790179
0.00209715
0.201648
0.00388751
-0.00754593
0.205534
0.0251843
-0.02907
0.20958
0.0326174
-0.0366637
0.21212
0.0502235
-0.0527634
0.213877
0.062951
-0.0647077
0.212894
0.0785537
-0.0775705
0.208396
0.105675
-0.101178
0.197156
0.13731
-0.12607
0.172043
0.191449
-0.166336
0.252843
-0.202621
0.201303
0.000574606
0.204712
0.0217749
0.208716
0.0286139
0.210578
0.0483614
0.212413
0.061116
0.210587
0.0803792
0.206181
0.110081
0.194339
0.149152
0.16943
0.216358
0.301751
0.200924
-0.00235959
0.203736
0.0189631
0.207626
0.0247237
0.208672
0.0473158
0.210551
0.0592361
0.207699
0.0832314
0.203407
0.114374
0.190449
0.16211
0.166219
0.240588
0.349264
0.20049
-0.00485948
0.20261
0.0168424
0.206283
0.0210516
0.206444
0.0471548
0.208281
0.0573986
0.204259
0.0872538
0.200119
0.118514
0.18558
0.176649
0.162466
0.263703
0.395289
0.199978
-0.00684741
0.201342
0.0154782
0.204679
0.017715
0.203925
0.047908
0.205575
0.0557492
0.200303
0.0925257
0.196242
0.122575
0.179902
0.192989
0.158078
0.285527
0.439978
0.199368
-0.00822559
0.199938
0.0149086
0.202814
0.0148386
0.201136
0.0495864
0.202424
0.0544612
0.195839
0.09911
0.191769
0.126645
0.173192
0.211566
0.153339
0.305379
0.48382
0.198646
-0.00888134
0.198408
0.0151457
0.200693
0.0125545
0.198099
0.05218
0.198802
0.0537583
0.190958
0.106954
0.18648
0.131123
0.166033
0.232013
0.147568
0.323845
0.526703
0.197805
-0.00869693
0.196767
0.0161841
0.198325
0.0109962
0.194828
0.0556776
0.194718
0.0538676
0.185644
0.116028
0.1805
0.136267
0.157552
0.254962
0.141595
0.339801
0.571252
0.196857
-0.00756375
0.195022
0.0180189
0.195732
0.0102862
0.191332
0.0600775
0.190133
0.0550669
0.180037
0.126123
0.173805
0.142499
0.150341
0.278426
0.134776
0.355366
0.615624
0.195848
-0.00542206
0.193136
0.0207305
0.192994
0.0104287
0.18752
0.0655518
0.184987
0.0576001
0.173444
0.137665
0.165143
0.1508
0.139837
0.303731
0.128249
0.366954
0.667025
0.304948
-0.0083594
0.307558
0.0181203
0.317259
0.000727159
0.31902
0.063791
0.330691
0.0459295
0.331122
0.137234
0.35061
0.131313
0.355606
0.298735
0.407714
0.314846
0.597464
0.477276
0.305051
-0.0114005
0.309015
0.0141563
0.319676
-0.00993345
0.322927
0.0605397
0.335915
0.0329413
0.340169
0.13298
0.36073
0.110753
0.375559
0.283906
0.423361
0.267044
0.531068
0.489756
0.305114
-0.0145043
0.311485
0.00778572
0.321706
-0.0201547
0.327721
0.0545249
0.340684
0.0199779
0.34973
0.123934
0.369351
0.0911313
0.390581
0.262676
0.432841
0.224783
0.459133
0.504776
0.305616
-0.0181106
0.314934
-0.00153199
0.323462
-0.0286824
0.333662
0.0443247
0.344732
0.00890823
0.358436
0.11023
0.375428
0.0741386
0.401661
0.236444
0.442379
0.184064
0.384694
0.516818
0.307054
-0.0231546
0.31917
-0.0136473
0.326128
-0.035641
0.340337
0.0301153
0.35015
-0.000904545
0.367773
0.0926081
0.381922
0.0599892
0.413648
0.204718
0.448179
0.149533
0.312721
0.520153
0.309434
-0.0305788
0.323922
-0.0281349
0.329969
-0.0416877
0.347603
0.0124806
0.356095
-0.0093956
0.375659
0.0730441
0.387651
0.0479967
0.4228
0.169568
0.452624
0.119709
0.243976
0.521369
0.312789
-0.0413573
0.328447
-0.0437934
0.334394
-0.0476341
0.353198
-0.00632359
0.358175
-0.0143734
0.378637
0.0525826
0.388931
0.0377022
0.427774
0.130726
0.455918
0.0915659
0.178415
0.521478
0.315916
-0.0552629
0.328686
-0.0565636
0.331721
-0.0506696
0.344844
-0.0194467
0.343733
-0.0132615
0.36361
0.0327049
0.373909
0.027404
0.417845
0.0867888
0.447983
0.0614286
0.113534
0.512865
0.308723
-0.0619756
0.303698
-0.0515391
0.29146
-0.0384312
0.287735
-0.0157217
0.280635
-0.00616099
0.298616
0.0147236
0.312543
0.0134769
0.360942
0.03839
0.394762
0.0276079
0.0475579
0.460738
0.240035
0.188495
0.150064
0.134343
0.128182
0.142905
0.156382
0.194772
0.22238
0.269938
0.490435
-0.0964262
0.494837
-0.08236
0.498286
-0.072574
0.501391
-0.0595605
0.505911
-0.0464119
0.510514
-0.0300106
0.516372
-0.0137819
0.522663
0.00553239
0.530795
0.0251316
0.0481811
0.490662
-0.0973322
0.49118
-0.0828781
0.491274
-0.0726679
0.491314
-0.0596002
0.492808
-0.0479056
0.494838
-0.0320407
0.49891
-0.0178541
0.504186
0.000256353
0.51127
0.0180472
0.0392657
0.49831
-0.0908654
0.494737
-0.0793057
0.491373
-0.0693034
0.488841
-0.0570685
0.487293
-0.0463576
0.487713
-0.0324604
0.489403
-0.0195447
0.493214
-0.00355373
0.498628
0.0126323
0.0303498
0.505696
-0.0797432
0.497411
-0.0710207
0.490783
-0.0626759
0.486406
-0.0526908
0.482868
-0.0428195
0.48195
-0.0315433
0.482044
-0.0196383
0.485303
-0.00681278
0.489877
0.00805866
0.0220505
0.507987
-0.0675777
0.497964
-0.0609973
0.489589
-0.0543011
0.48362
-0.0467216
0.479066
-0.0382656
0.47697
-0.0294476
0.476483
-0.0191512
0.478759
-0.00908838
0.483149
0.00366822
0.0148135
0.508576
-0.0547853
0.497535
-0.0499561
0.488168
-0.044934
0.480884
-0.0394374
0.4755
-0.0328815
0.472286
-0.0262335
0.471241
-0.0181066
0.472487
-0.0103344
0.476498
-0.000342918
0.00846315
0.50768
-0.0409867
0.495403
-0.0376794
0.484809
-0.0343403
0.476148
-0.0307758
0.469622
-0.0263554
0.465201
-0.0218126
0.463216
-0.0161221
0.463497
-0.0106151
0.466755
-0.00360072
0.0027778
0.497122
-0.0252444
0.483083
-0.0236401
0.470894
-0.0221508
0.460657
-0.0205393
0.452648
-0.0183461
0.446754
-0.0159184
0.443379
-0.0127475
0.442302
-0.00953853
0.44423
-0.00552844
-0.00180149
0.444566
-0.00907236
0.430146
-0.00922014
0.417352
-0.00935656
0.406132
-0.00931939
0.396702
-0.00891655
0.389038
-0.00825393
0.383525
-0.00723522
0.380093
-0.00610622
0.379241
-0.00467679
-0.00326869
0.260865
0.251645
0.242289
0.232969
0.224053
0.215799
0.208564
0.202457
0.197781
0.00712825
0.0442475
-0.0513758
0.0168253
0.11456
-0.124257
0.0233207
0.161156
-0.167651
0.0256639
0.186124
-0.188467
0.0248767
0.196653
-0.195866
0.0222352
0.199146
-0.196504
0.0186765
0.197302
-0.193743
0.0148302
0.192171
-0.188325
0.0112767
0.182526
-0.178973
0.164957
0.00859948
-0.16228
0.00852511
0.0357224
0.0224927
0.100593
0.0342512
0.149397
0.0414197
0.178955
0.0445431
0.193529
0.0449714
0.198718
0.0438341
0.198439
0.0417862
0.194219
0.0390343
0.185278
0.168664
0.0353273
0.0090895
0.0266329
0.0266613
0.0830208
0.0439677
0.132091
0.0567945
0.166128
0.0646948
0.185629
0.0688104
0.194602
0.0703951
0.196854
0.070166
0.194448
0.0681379
0.187306
0.173414
0.0633881
0.00870012
0.0179328
0.0283683
0.0633526
0.050782
0.109677
0.0699199
0.14699
0.0836755
0.171873
0.0924938
0.185784
0.0976118
0.191736
0.0999609
0.192099
0.0995606
0.187706
0.177516
0.0954581
0.00747717
0.0104556
0.027037
0.0437927
0.052859
0.0838552
0.0782246
0.121625
0.0989763
0.151122
0.113988
0.170772
0.123939
0.181785
0.129869
0.18617
0.132262
0.185314
0.179948
0.12983
0.00574357
0.00471206
0.0229331
0.0266032
0.0490554
0.0577329
0.0787044
0.0919759
0.106546
0.12328
0.129348
0.14797
0.146148
0.164985
0.157394
0.174923
0.163755
0.178953
0.178389
0.165314
0.00392014
0.000791911
0.0172791
0.0132442
0.0402808
0.0347312
0.070228
0.0620287
0.102619
0.0908889
0.133162
0.117427
0.158985
0.139163
0.178858
0.15505
0.192825
0.164986
0.170989
0.200224
0.00234301
-0.0015511
0.0115473
0.00403995
0.0292088
0.0170697
0.055103
0.0361345
0.0869329
0.0590591
0.121205
0.0831555
0.154443
0.105925
0.183761
0.125731
0.207773
0.140974
0.152144
0.226618
0.00116835
-0.00271944
0.00678532
-0.00157703
0.0187174
0.00513762
0.0380546
0.0167974
0.0645569
0.0325567
0.0966015
0.051111
0.131696
0.0708304
0.167209
0.0902174
0.199764
0.10842
0.119704
0.232204
0.000392936
-0.00311238
0.0033132
-0.00449729
0.0103957
-0.00194486
0.0230116
0.0041814
0.0419802
0.0135882
0.0672614
0.0258297
0.0978852
0.0402066
0.132353
0.05575
0.168445
0.0723268
0.0856185
0.202531
-6.91509e-05
-0.00304323
0.00108348
-0.00564992
0.00468369
-0.00554506
0.0118924
-0.00302733
0.023725
0.00175563
0.0408653
0.00868938
0.0634929
0.017579
0.091141
0.028102
0.123363
0.0401046
0.0557602
0.153222
-0.000210441
-0.00283279
0.000145027
-0.00600539
0.00180635
-0.00720639
0.00546879
-0.00668977
0.011834
-0.00460959
0.0215228
-0.000999447
0.0350257
0.00407608
0.0524259
0.0107018
0.0733881
0.0191424
0.031189
0.0979593
0.000184178
-0.00301697
0.000979621
-0.00680083
0.0025414
-0.00876817
0.00504203
-0.0091904
0.00874319
-0.00831075
0.0140129
-0.00626919
0.0211903
-0.00310129
0.0306071
0.001285
0.0425546
0.00719483
0.0148435
0.0589001
0.000977888
-0.00399485
0.00305681
-0.00887976
0.00581407
-0.0115254
0.00912269
-0.012499
0.0130495
-0.0122375
0.0177916
-0.0110113
0.0236468
-0.00895648
0.0310399
-0.00610813
0.0406738
-0.00243908
0.00215423
0.0533631
0.00149567
-0.00549052
0.00415036
-0.0115345
0.0072428
-0.0146179
0.0106534
-0.0159096
0.0145262
-0.0161103
0.0191072
-0.0155922
0.0246834
-0.0145327
0.0315768
-0.0130016
0.0401474
-0.0110097
-0.00870248
0.0510042
0.00111429
-0.00660481
0.00247722
-0.0128974
0.00359237
-0.015733
0.00461389
-0.0169311
0.00586659
-0.017363
0.0076676
-0.0173933
0.0102864
-0.0171515
0.0139587
-0.0166739
0.0188967
-0.0159477
-0.0150687
0.0252629
-0.000294933
-0.00630988
-0.00200597
-0.0111863
-0.00480053
-0.0129385
-0.00805482
-0.0136768
-0.0112604
-0.0141575
-0.0140954
-0.0145582
-0.0163809
-0.014866
-0.0180392
-0.0150156
-0.0190656
-0.0149214
-0.0147136
-0.0194206
-0.00256789
-0.00374199
-0.0086015
-0.00515273
-0.0164969
-0.00504302
-0.0251596
-0.00501424
-0.0339977
-0.0053193
-0.0427409
-0.00581504
-0.0512653
-0.00634164
-0.0594964
-0.00678445
-0.0673471
-0.0070707
-0.0073096
-0.0747511
-0.00472788
0.00098589
-0.0145304
0.00464983
-0.0267202
0.00714672
-0.03991
0.00817556
-0.0535348
0.00830551
-0.0674012
0.00805135
-0.0814189
0.00767604
-0.095495
0.00729168
-0.109518
0.00695259
0.0066001
-0.123428
-0.00562634
-0.0170611
-0.0311951
-0.0465237
-0.0624487
-0.0787637
-0.0953676
-0.112158
-0.129028
-0.146162
0.206394
0.122261
-0.175434
0.206064
0.483628
-0.483298
0.173613
0.535944
-0.503493
0.169007
0.225665
-0.221058
0.183965
-0.0731333
0.0581754
0.192089
-0.163496
0.155372
0.193772
-0.131874
0.130191
0.195568
-0.0807706
0.078974
0.199407
-0.049053
0.0452147
-0.0290744
0.0231177
0.164494
0.0557267
0.197505
0.450617
0.183141
0.550308
0.18988
0.218926
0.196256
-0.0795094
0.192705
-0.159944
0.190454
-0.129623
0.192759
-0.083075
0.198573
-0.0548671
-0.0358691
0.133115
-0.0184885
0.176388
0.407344
0.179332
0.547364
0.190171
0.208087
0.184309
-0.0736477
0.173753
-0.149388
0.17394
-0.129811
0.181369
-0.0905037
0.192361
-0.0658592
-0.0450218
0.110209
-0.0753345
0.141545
0.376007
0.15556
0.533349
0.164513
0.199134
0.150492
-0.0596268
0.143153
-0.142048
0.152749
-0.139406
0.168269
-0.106024
0.185413
-0.0830028
-0.0568096
0.0753974
-0.0997278
0.0916847
0.35972
0.109346
0.515688
0.114674
0.193806
0.106966
-0.0519191
0.115195
-0.150277
0.137069
-0.16128
0.159669
-0.128624
0.181163
-0.104497
-0.0702537
0.0176731
-0.092138
0.0279137
0.34948
0.0433216
0.50028
0.0538095
0.183318
0.072891
-0.0710007
0.100524
-0.17791
0.13128
-0.192036
0.157427
-0.154771
0.180469
-0.127539
-0.0840177
-0.0611891
-0.0503695
-0.0567218
0.345012
-0.0294189
0.472977
0.00649869
0.147401
0.0585202
-0.123022
0.098396
-0.217785
0.13313
-0.226771
0.159886
-0.181527
0.18242
-0.150074
-0.0971512
-0.147809
0.0226883
-0.142843
0.340046
-0.0812191
0.411354
-0.0109887
0.0771705
0.0581968
-0.192208
0.103627
-0.263216
0.1393
-0.262443
0.16503
-0.207257
0.185945
-0.170989
-0.10915
-0.21347
0.112731
-0.198208
0.324783
-0.0989756
0.312121
-0.00761637
-0.0141888
0.0660744
-0.265898
0.114023
-0.311164
0.148604
-0.297025
0.172126
-0.230779
0.190619
-0.189482
-0.11966
-0.240747
-0.214965
-0.0927824
0.0083464
0.0810607
0.129134
0.160959
0.181212
0.196478
0.0450762
0.0360337
-0.0811099
0.00200436
0.0430719
-0.0292097
0.0312141
-0.0440248
0.0148151
-0.0372954
-0.00672943
-0.0109702
-0.0263252
0.0139933
-0.0249635
0.0290664
-0.0150731
0.0365924
-0.00752594
-0.00292187
0.191788
0.113176
-0.268931
0.0744247
0.160435
-0.0128803
0.118519
-0.0412838
0.0432186
-0.0210543
-0.0269589
0.0220283
-0.0694077
0.061029
-0.0639642
0.0853438
-0.0393879
0.0987229
-0.020905
-0.00869272
0.337778
0.179176
-0.403778
0.18973
0.308484
0.0594353
0.248813
0.0134963
0.0891576
0.0361775
-0.0496402
0.0769827
-0.110213
0.111227
-0.098209
0.133025
-0.0611859
0.146118
-0.033998
-0.015117
0.419525
0.201975
-0.442324
0.296266
0.431743
0.154435
0.390645
0.0928625
0.15073
0.106526
-0.0633033
0.136652
-0.140339
0.158622
-0.120179
0.171657
-0.0742205
0.179899
-0.0422397
-0.0200948
0.408025
-0.381484
0.35647
0.243622
0.173293
0.168166
0.183198
0.193209
0.197963
0.200938
0.0113969
-0.000138871
-0.011258
0.0130447
-0.00164779
0.0160767
-0.003032
0.0205339
-0.00445724
0.0269809
-0.00644698
0.0340952
-0.00711433
0.0443131
-0.0102179
0.0545298
-0.0102167
0.0681861
-0.0136563
-0.0129239
0.0312721
-0.000835834
-0.0305751
0.0359791
-0.00635485
0.0445636
-0.0116165
0.0579515
-0.0178451
0.0767462
-0.0252416
0.099945
-0.0303132
0.132934
-0.0432071
0.16881
-0.0460925
0.216044
-0.0608905
-0.0658102
0.0482656
-0.00239032
-0.0467111
0.0557694
-0.0138587
0.0693163
-0.0251634
0.0904711
-0.0389999
0.119172
-0.0539429
0.157263
-0.068404
0.20638
-0.0923235
0.261873
-0.101585
0.33292
-0.131938
-0.136668
0.0622906
-0.00496185
-0.0597191
0.0720977
-0.0236658
0.0897168
-0.0427825
0.116314
-0.0655975
0.152102
-0.0897308
0.199841
-0.116143
0.254017
-0.146499
0.319824
-0.167393
0.389764
-0.201878
-0.189228
0.0735066
-0.0698689
0.0851682
0.105774
0.135634
0.175734
0.224905
0.27863
0.337855
0.368182
0.0844856
-0.0790133
0.086847
-0.0923193
0.0757371
-0.0801883
0.0889368
0.0665692
-0.0820508
0.0912186
0.0567456
-0.0840449
0.0938685
0.0462012
-0.0860649
0.0966094
0.0350696
-0.0878241
0.0989557
0.0237232
-0.0882166
0.099563
0.0129372
-0.0842554
0.0950414
0.00419746
-0.0698093
0.078549
-0.0349133
0.0391107
0.0935506
-0.0692941
-0.10327
0.083415
-0.0700527
0.0726015
-0.0712373
0.0611837
-0.0726271
0.0493232
-0.0742044
0.0371983
-0.0756992
0.0251014
-0.0761197
0.0137107
-0.0728648
0.00447626
-0.0605748
-0.030437
0.0956452
-0.0582373
-0.106702
0.084482
-0.0588895
0.0731132
-0.0598686
0.0615387
-0.0610526
0.0497218
-0.0623874
0.0376541
-0.0636316
0.0255221
-0.0639877
0.0139859
-0.0613286
0.0045618
-0.0511507
-0.0258752
0.101276
-0.0468173
-0.112696
0.0897055
-0.0473191
0.0779021
-0.0480651
0.0657834
-0.0489339
0.0532958
-0.0498999
0.0404707
-0.0508064
0.0275451
-0.0510621
0.0152134
-0.048997
0.00504565
-0.0409829
-0.0208296
0.10401
-0.0348971
-0.11593
0.0919628
-0.0352721
0.0796724
-0.0357747
0.0671112
-0.0363727
0.0542663
-0.0370551
0.041176
-0.0377161
0.0280437
-0.0379297
0.0155134
-0.0364667
0.00514972
-0.0306192
-0.0156798
0.107016
-0.0228197
-0.119093
0.0947298
-0.0229858
0.0821962
-0.0232411
0.069381
-0.0235576
0.0562569
-0.0239309
0.0428397
-0.0242989
0.0293138
-0.0244038
0.0163251
-0.0234779
0.00548401
-0.0197782
-0.0101958
0.108746
-0.010564
-0.121002
0.0962935
-0.0105334
0.0835828
-0.0105304
0.0705837
-0.0105584
0.0572696
-0.0106169
0.0436558
-0.0106851
0.0299199
-0.010668
0.0166999
-0.0102579
0.0056257
-0.00870401
-0.00457014
0.109955
0.00174441
-0.122263
0.0974097
0.00201182
0.0845904
0.00228885
0.0714687
0.0025634
0.058021
0.00283081
0.0442642
0.00307173
0.0303748
0.00322145
0.0169881
0.00312882
0.00574269
0.00254135
0.00117256
0.110445
0.0140635
-0.122764
0.097874
0.0145827
0.0850202
0.0151426
0.071856
0.0157276
0.0583578
0.016329
0.0445414
0.0168881
0.0305816
0.0171812
0.0171143
0.0165961
0.00578927
0.0138664
0.00696183
0.110267
-0.122561
0.097724
0.0848946
0.071754
0.0582792
0.0444844
0.0305423
0.0170884
0.00577674
0.0142082
-0.160063
-0.0164251
0.00963268
-0.174397
0.00405322
-0.182746
-0.00166702
-0.188023
-0.00688129
-0.19129
-0.0108266
-0.19192
-0.012443
-0.186851
-0.0105857
-0.169508
-0.00518318
-0.12966
-0.056559
0.037655
-0.15676
-0.0409575
0.0313883
-0.168131
0.0239356
-0.175293
0.0162185
-0.180305
0.0087577
-0.183829
0.00213013
-0.185293
-0.0027005
-0.18202
-0.00456283
-0.167646
-0.00304814
-0.131174