/*--------------------------------*- C++ -*----------------------------------*\
  =========                 |
  \\      /  F ield         | OpenFOAM: The Open Source CFD Toolbox
   \\    /   O peration     | Website:  https://openfoam.org
    \\  /    A nd           | Version:  13
     \\/     M anipulation  |
\*---------------------------------------------------------------------------*/
FoamFile
{
    format      ascii;
    class       volScalarField;
    location    "5.365";
    object      p;
}
// * * * * * * * * * * * * * * * * * * * * * * * * * * * * * * * * * * * * * //

dimensions      [0 2 -2 0 0 0 0];

internalField   nonuniform List<scalar> 
440
(
-0.619192
-0.599
-0.613909
-0.571527
-0.675707
-0.661896
-0.645037
-0.627017
-0.601377
-0.597286
-0.76402
-0.737361
-0.707866
-0.673154
-0.636553
-0.889055
-0.846555
-0.778133
-0.694476
-0.608707
-0.994653
-0.937813
-0.811411
-0.674725
-0.546042
-0.916947
-0.925187
-0.945135
-0.972704
-0.993855
-0.735781
-0.743727
-0.759472
-0.777048
-0.786574
-0.634914
-0.635884
-0.638565
-0.640618
-0.639179
-0.623248
-0.61699
-0.610554
-0.599143
-0.586035
-0.57531
-0.568337
-0.557883
-0.527831
-0.526223
-0.976334
-1.03671
-0.744823
-0.38892
-0.00672864
-0.80802
-1.047
-0.886023
-0.421961
-0.0136566
-0.677042
-1.02986
-0.969513
-0.447794
-0.0252322
-0.582335
-0.971575
-0.956369
-0.453554
-0.0455777
-0.546866
-0.934643
-0.919531
-0.456936
-0.0746256
-0.347606
-0.892662
-0.856265
-0.448893
-0.111831
-0.301106
-0.706117
-0.675318
-0.412315
-0.145585
-0.278144
-0.496685
-0.496037
-0.373796
-0.166222
-0.196427
-0.331574
-0.413252
-0.359477
-0.15647
-0.146598
-0.199578
-0.289653
-0.362934
-0.167046
-0.32276
-0.447657
-0.600464
-0.743697
-0.801785
-0.0942737
-0.229619
-0.310015
-0.360063
-0.361343
0.0489938
-0.0691154
-0.146065
-0.207978
-0.247559
0.141792
0.0309051
-0.0585558
-0.122682
-0.166288
0.187864
0.0776145
-0.0139666
-0.0729763
-0.110945
0.936634
0.788289
0.59872
0.388803
0.156737
0.531073
0.371757
0.174664
-0.0437764
-0.284861
0.137068
-0.0241498
-0.227144
-0.453613
-0.656635
-0.19289
-0.355545
-0.550594
-0.760293
-0.909906
-0.409408
-0.565116
-0.740811
-0.920109
-1.01407
2.08897
2.12202
2.1521
2.16734
2.16408
1.89842
1.92219
1.9424
1.94534
1.92547
1.68083
1.66839
1.63337
1.57583
1.49082
1.42974
1.39604
1.32584
1.22299
1.08958
1.18452
1.08343
0.950109
0.794647
0.604084
1.80763
1.8006
1.79255
1.86315
1.96059
1.7977
1.7901
1.774
1.84164
1.8714
1.78875
1.77653
1.75199
1.80994
1.76967
1.78101
1.76044
1.72818
1.7595
1.60451
1.77445
1.74383
1.70285
1.70691
1.4288
1.76931
1.71931
1.67012
1.60065
1.23535
1.76755
1.68861
1.66092
1.4564
1.28644
1.77475
1.67374
1.65582
1.38554
1.30129
1.77213
1.6473
1.64741
1.34286
1.3202
1.8084
1.64644
1.6446
1.3163
1.36566
0.899062
0.607835
0.284051
0.0145484
-0.171203
0.811643
0.609737
0.397508
0.212552
0.0450788
0.80901
0.644272
0.482986
0.330181
0.180521
0.879121
0.718678
0.561918
0.411565
0.273026
0.938404
0.769466
0.610788
0.458831
0.321461
-1.65873
-1.50308
-1.32686
-1.18309
-1.09813
-1.73414
-1.66298
-1.52863
-1.4177
-1.35054
-1.65547
-1.60514
-1.52326
-1.4544
-1.40768
-1.49712
-1.45314
-1.407
-1.36919
-1.34187
-1.35795
-1.3323
-1.30569
-1.29006
-1.29777
-1.28956
-1.27546
-1.25202
-1.26266
-1.24454
-1.26806
-1.25483
-1.24014
-1.24244
-1.24343
-1.26725
-1.25772
-1.25099
-1.25489
-1.27143
-1.23644
-1.23881
-1.25407
-1.28361
-1.32127
-1.10239
-1.10962
-1.1327
-1.17046
-1.20936
-1.25451
-0.79902
-0.377246
-0.169023
-0.0086038
-1.2665
-0.755454
-0.366406
-0.167667
-0.00324957
-1.23751
-0.778985
-0.404662
-0.208514
-0.00092724
-1.25271
-0.891561
-0.489633
-0.289545
-0.000648901
-1.16631
-0.989025
-0.60609
-0.350835
-0.00250825
-0.821185
-0.917067
-0.493035
-0.191107
-0.0157742
-1.12948
-0.861901
-0.41033
-0.165766
-0.0115663
-1.04821
-1.31501
-1.36953
-1.32356
-1.11429
-1.06898
-1.32171
-1.38138
-1.32261
-1.29667
1.6779
1.65093
1.60602
1.54368
1.46035
1.88132
1.89986
1.9024
1.88701
1.85417
2.05527
2.08804
2.11315
2.12539
2.12243
2.1578
2.19848
2.24161
2.27662
2.29238
2.16829
2.20749
2.25109
2.2874
2.30416
-0.608194
-0.71787
-0.890614
-1.09879
-1.34932
0.0388669
-0.104378
-0.2945
-0.523187
-0.818447
0.618615
0.470371
0.293429
0.0839286
-0.182859
1.08571
0.969148
0.828033
0.656889
0.447788
1.45951
1.37717
1.27051
1.14308
0.992523
1.87123
1.83096
1.82376
1.83098
1.84305
1.85573
1.82718
1.82396
1.85086
1.9122
1.84239
1.82242
1.82345
1.872
1.99197
1.82991
1.8166
1.81775
1.87941
2.0058
1.81827
1.8098
1.80723
1.87671
2.00105
1.92617
1.83798
1.80972
1.7541
1.70467
1.88185
1.82788
1.80684
1.77592
1.71961
1.33593
1.09592
0.682278
0.085797
-0.57595
1.42408
1.13185
0.70059
0.108426
-0.567064
)
;

boundaryField
{
    left
    {
        type            zeroGradient;
    }
    right
    {
        type            fixedValue;
        value           uniform 0;
    }
    down
    {
        type            zeroGradient;
    }
    up
    {
        type            zeroGradient;
    }
    cylinder
    {
        type            zeroGradient;
    }
    defaultFaces
    {
        type            empty;
    }
}


// ************************************************************************* //
