# Selection   : all
# Cells       : 440
# Volume      : 7.374263e+01
# Time        	maxMag(U)
9.52          	2.731076e+00
9.565         	2.779472e+00
9.615         	2.827528e+00
