# Selection   : all
# Cells       : 440
# Volume      : 7.374263e+01
# Time        	minMag(U)
1.4           	5.744819e-02
1.45          	5.176525e-02
1.5           	4.582745e-02
