/*--------------------------------*- C++ -*----------------------------------*\
  =========                 |
  \\      /  F ield         | OpenFOAM: The Open Source CFD Toolbox
   \\    /   O peration     | Website:  https://openfoam.org
    \\  /    A nd           | Version:  13
     \\/     M anipulation  |
\*---------------------------------------------------------------------------*/
FoamFile
{
    format      ascii;
    class       surfaceScalarField;
    location    "0.13";
    object      phi;
}
// * * * * * * * * * * * * * * * * * * * * * * * * * * * * * * * * * * * * * //

dimensions      [0 3 -1 0 0 0 0];

internalField   nonuniform List<scalar> 
3485
(
0.00421208
-0.0495735
0.0453614
0.0128092
-0.116577
0.10798
0.0226149
-0.140953
0.131147
0.0324299
-0.145055
0.13524
0.0419672
-0.142756
0.133219
0.0511885
-0.139043
0.129821
0.0600844
-0.135269
0.126373
0.0686179
-0.131707
0.123174
0.0766878
-0.128299
0.120229
-0.124713
0.117102
0.0842988
0.0041694
-0.0537429
0.0123454
-0.124753
0.0215125
-0.15012
0.030631
-0.154174
0.0394972
-0.151622
0.0481183
-0.147664
0.0565299
-0.143681
0.0647729
-0.13995
0.0729309
-0.136457
-0.133093
0.081311
0.00410432
-0.0578472
0.0117954
-0.132444
0.0202393
-0.158564
0.028563
-0.162497
0.036635
-0.159694
0.0444846
-0.155513
0.0521491
-0.151345
0.0596582
-0.147459
0.0670424
-0.143841
-0.140391
0.0743402
0.00401024
-0.0618575
0.0111453
-0.139579
0.0187858
-0.166204
0.0262393
-0.169951
0.0334494
-0.166905
0.0404699
-0.162534
0.0473433
-0.158218
0.0540973
-0.154213
0.0607595
-0.150503
-0.147066
0.0674343
0.00386935
-0.0657268
0.0103583
-0.146068
0.0170991
-0.172945
0.0235886
-0.17644
0.0298413
-0.173157
0.0359311
-0.168623
0.0419024
-0.16419
0.0477815
-0.160092
0.0535973
-0.156319
-0.15288
0.0594118
0.00366871
-0.0693955
0.00941201
-0.151811
0.0151585
-0.178691
0.0205977
-0.18188
0.0258088
-0.178368
0.0308843
-0.173699
0.0358694
-0.169175
0.040788
-0.165011
0.0456637
-0.161195
-0.157755
0.050538
0.00339715
-0.0727927
0.00829205
-0.156706
0.0129589
-0.183358
0.0172693
-0.18619
0.0213632
-0.182462
0.0253491
-0.177685
0.0292714
-0.173097
0.0331507
-0.16889
0.0370064
-0.16505
-0.161607
0.0408585
0.00304644
-0.0758391
0.00699795
-0.160658
0.0105139
-0.186874
0.013624
-0.1893
0.0165375
-0.185376
0.0193715
-0.180519
0.0221669
-0.175892
0.0249394
-0.171663
0.0277026
-0.167814
-0.164362
0.0304583
0.00261684
-0.0784559
0.00554838
-0.163589
0.00783962
-0.189165
0.00969805
-0.191159
0.0113888
-0.187067
0.0130254
-0.182155
0.0146446
-0.177512
0.0162581
-0.173276
0.0178747
-0.16943
-0.16597
0.0194825
0.00211478
-0.0805707
0.00394986
-0.165424
0.00495529
-0.190171
0.00556779
-0.191771
0.00600061
-0.187499
0.00640885
-0.182564
0.00681776
-0.177921
0.00723334
-0.173692
0.0076577
-0.169854
0.0080758
-0.166388
0.00398911
-0.00792208
0.00393297
0.0143024
-0.0194695
0.00915619
0.0271692
-0.0239966
0.0111298
0.040579
-0.0249261
0.0115163
0.0538271
-0.0246189
0.0113708
0.0667272
-0.0239936
0.0110935
0.0792529
-0.023329
0.0108033
0.0914182
-0.0226941
0.0105288
0.103243
-0.0220983
0.0102738
-0.0216702
0.114868
0.0100452
0.00400586
-0.0119279
0.0142816
-0.0297452
0.0270696
-0.0367845
0.0403845
-0.038241
0.0535362
-0.0377705
0.0663452
-0.0368026
0.0787876
-0.0357714
0.0908786
-0.0347852
0.10264
-0.0338595
-0.0332399
0.114209
0.00403364
-0.0159616
0.0142623
-0.0399739
0.0269442
-0.0494665
0.040129
-0.0514258
0.0531472
-0.0507888
0.0658286
-0.049484
0.0781526
-0.0480954
0.0901359
-0.0467685
0.101803
-0.0455269
-0.0447241
0.113288
0.00407255
-0.0200341
0.0142398
-0.0501411
0.0267803
-0.062007
0.0397908
-0.0644363
0.0526296
-0.0636275
0.065138
-0.0619924
0.0773003
-0.0602576
0.0891347
-0.0586029
0.10067
-0.0570626
-0.0560841
0.11203
0.00412128
-0.0241554
0.0142061
-0.060226
0.026561
-0.0743619
0.0393437
-0.0772191
0.0519474
-0.0762312
0.0642285
-0.0742735
0.0761763
-0.0722054
0.0878111
-0.0702378
0.099167
-0.0684185
-0.067268
0.110351
0.00417569
-0.0283311
0.0141486
-0.0701988
0.0262642
-0.0864775
0.0387564
-0.0897112
0.0510607
-0.0885355
0.0630511
-0.086264
0.0747227
-0.083877
0.0860973
-0.0816123
0.0972127
-0.0795339
-0.0782053
0.10815
0.00422788
-0.032559
0.0140485
-0.0800194
0.0258622
-0.0982913
0.0379937
-0.101843
0.0499281
-0.10047
0.0615593
-0.0978952
0.0728883
-0.095206
0.0839377
-0.0926618
0.094745
-0.0903411
-0.0888032
0.105343
0.00426679
-0.0368258
0.013883
-0.0896356
0.025324
-0.109732
0.0370191
-0.113538
0.0485097
-0.111961
0.0597125
-0.109098
0.0706361
-0.10613
0.0813047
-0.10333
0.0917472
-0.100784
-0.0989488
0.101893
0.0042794
-0.0411052
0.0136254
-0.0989816
0.0246103
-0.120717
0.035781
-0.124709
0.0467417
-0.122921
0.0574356
-0.119792
0.0678839
-0.116578
0.0781162
-0.113563
0.0881405
-0.110808
-0.108462
0.0976538
0.00425625
0.0132546
0.0236843
0.034216
0.0445136
0.054543
0.0643382
0.0739489
0.08337
0.09201
0.15989
-0.126303
0.0812807
0.183326
-0.091863
0.068427
0.194872
-0.068257
0.0567108
0.200323
-0.051422
0.0459711
0.202581
-0.0385933
0.0363354
0.20306
-0.0283945
0.0279149
0.202499
-0.0201032
0.0206642
0.201295
-0.0132089
0.0144134
0.199668
-0.00738005
0.00900723
-0.00129656
0.00328043
0.158819
-0.170913
0.182318
-0.115362
0.194112
-0.0800511
0.19981
-0.0571198
0.20227
-0.0410537
0.202916
-0.0290401
0.202498
-0.019685
0.201424
-0.0121351
0.199922
-0.00587842
0.000561058
0.156998
-0.214623
0.180419
-0.138783
0.192502
-0.0921335
0.198546
-0.0631639
0.201325
-0.0438333
0.202262
-0.0299763
0.202115
-0.0195383
0.201303
-0.011323
0.20006
-0.0046352
0.00215788
0.15439
-0.256982
0.177616
-0.162009
0.190039
-0.104557
0.196533
-0.0696578
0.19975
-0.0470506
0.201101
-0.0313273
0.201353
-0.0197903
0.200932
-0.0109023
0.200079
-0.00378195
0.00336021
0.150938
-0.297569
0.173897
-0.184968
0.186725
-0.117385
0.193776
-0.0767085
0.19755
-0.050825
0.199439
-0.0332161
0.200215
-0.0205663
0.200313
-0.0110004
0.199979
-0.0034481
0.00403603
0.146509
-0.335928
0.169247
-0.207707
0.182567
-0.130704
0.190285
-0.0844269
0.194737
-0.0552765
0.197285
-0.035764
0.198707
-0.021989
0.199448
-0.0117413
0.19976
-0.00376014
0.00405582
0.140734
-0.371319
0.163625
-0.230597
0.177568
-0.144647
0.186074
-0.0929329
0.191324
-0.0605261
0.19465
-0.0390904
0.196838
-0.0241772
0.198342
-0.0132454
0.199423
-0.00484077
0.00329346
0.134103
-0.403529
0.156975
-0.25347
0.171716
-0.159388
0.181154
-0.102371
0.187326
-0.0666981
0.191549
-0.043313
0.194618
-0.0272465
0.197001
-0.0156286
0.198968
-0.00680815
0.00162706
0.126304
-0.43218
0.149005
-0.27617
0.164864
-0.175247
0.175475
-0.112982
0.182736
-0.0739592
0.187986
-0.0485636
0.192055
-0.0313148
0.19543
-0.019004
0.198398
-0.00977612
-0.00106045
0.117384
-0.457554
0.140403
-0.299189
0.157354
-0.192198
0.169176
-0.124804
0.177618
-0.0824011
0.183999
-0.0549441
0.189169
-0.0364847
0.19364
-0.0234754
0.197715
-0.0138511
-0.00488109
0.357413
-0.406416
-0.408551
0.33125
-0.273027
0.319999
-0.180947
0.315031
-0.119835
0.312445
-0.0798149
0.310834
-0.053333
0.309723
-0.0353744
0.308958
-0.02271
0.308475
-0.0133683
-0.00469853
0.371248
-0.348916
-0.428747
0.342683
-0.244462
0.328314
-0.166578
0.320694
-0.112216
0.316242
-0.0753622
0.313415
-0.0505069
0.311541
-0.0334996
0.31031
-0.021479
0.309566
-0.0126247
-0.00443003
0.384656
-0.293074
-0.440499
0.353524
-0.21333
0.336074
-0.149128
0.325985
-0.102126
0.319817
-0.0691944
0.315862
-0.0465518
0.313267
-0.0309044
0.311592
-0.0198049
0.310598
-0.0116305
-0.00407711
0.394251
-0.240501
-0.446824
0.362197
-0.181275
0.342707
-0.129638
0.330687
-0.0901067
0.323066
-0.0615728
0.31811
-0.0415962
0.31486
-0.0276543
0.312777
-0.0177221
0.311549
-0.0104027
-0.00364458
0.40122
-0.191828
-0.449894
0.369097
-0.149152
0.348251
-0.108792
0.334746
-0.0766013
0.325925
-0.0527521
0.320111
-0.0357819
0.316285
-0.0238283
0.313838
-0.0152749
0.3124
-0.00896472
-0.00313967
0.406178
-0.147
-0.451006
0.374448
-0.117422
0.352741
-0.0870856
0.338126
-0.0619867
0.328349
-0.042975
0.321825
-0.0292572
0.317512
-0.0195153
0.314752
-0.0125157
0.313133
-0.00734488
-0.00257157
0.409593
-0.105529
-0.451065
0.378447
-0.086275
0.356225
-0.0648637
0.340813
-0.0465745
0.330305
-0.0324671
0.323219
-0.0221717
0.318515
-0.0148106
0.315502
-0.00950263
0.313732
-0.00557564
-0.00195103
0.41177
-0.0666355
-0.450663
0.381218
-0.0557232
0.35872
-0.0423657
0.342773
-0.0306274
0.331745
-0.0214398
0.32425
-0.0146763
0.319254
-0.00981497
0.316051
-0.00629924
0.314169
-0.00369322
-0.00129032
0.411482
-0.0288103
-0.449307
0.381538
-0.0257795
0.359066
-0.0198933
0.34291
-0.014472
0.331634
-0.0101637
0.323928
-0.0069704
0.318779
-0.00466593
0.315476
-0.00299585
0.313535
-0.00175259
-0.000608755
0.368507
-0.397317
0.342727
0.322834
0.308362
0.298198
0.291228
0.286562
0.283566
0.281813
0.441437
0.00769918
-0.44106
0.4411
0.0198197
0.440017
0.0315407
0.438135
0.0427407
0.43538
0.0532936
0.431755
0.0630367
0.426809
0.0723797
0.42181
0.07934
0.411854
0.0912671
0.0876017
0.423602
0.00726949
-0.423172
0.424284
0.0191378
0.425141
0.0306837
0.426115
0.0417665
0.427112
0.0522967
0.428128
0.0620201
0.428875
0.0716332
0.429871
0.0783434
0.430573
0.0905659
0.0894268
0.409091
0.00657913
-0.408401
0.41051
0.0177187
0.41261
0.0285843
0.415345
0.0390312
0.418654
0.0489878
0.422477
0.0581974
0.426789
0.0673212
0.431141
0.0739912
0.436757
0.0849497
0.085685
0.397707
0.00575916
-0.396887
0.399592
0.0158337
0.402509
0.0256676
0.406414
0.0351263
0.411261
0.0441407
0.416956
0.0525018
0.423584
0.0606937
0.430548
0.0670269
0.43927
0.0762283
0.078131
0.38879
0.00484571
-0.387877
0.391004
0.0136197
0.394488
0.0221844
0.399198
0.030416
0.405096
0.0382425
0.41209
0.0455085
0.420263
0.0525202
0.429116
0.0581736
0.439742
0.0656027
0.0679789
0.381955
0.00386314
-0.380973
0.3844
0.0111751
0.388275
0.0183087
0.393539
0.0251527
0.400147
0.0316338
0.408017
0.0376384
0.417196
0.0433411
0.427314
0.0480564
0.43912
0.0537965
0.0560929
0.376907
0.00282506
-0.375869
0.379519
0.00856301
0.383672
0.0141563
0.389316
0.0195081
0.396402
0.0245481
0.404849
0.0291914
0.414665
0.0335255
0.425585
0.0371358
0.438101
0.0412808
0.0431292
0.373337
0.00172159
-0.372234
0.376095
0.00580557
0.380468
0.00978333
0.386399
0.0135772
0.39382
0.0171265
0.402645
0.0203661
0.412838
0.0233328
0.424214
0.0257598
0.437067
0.028428
0.0295331
0.368046
0.000475527
-0.3668
0.371097
0.00275464
0.375878
0.00500216
0.38231
0.00714587
0.390287
0.00914973
0.399681
0.0109719
0.410396
0.0126172
0.422231
0.0139252
0.435303
0.0153563
0.0155287
0.304865
-0.30439
0.30762
0.312622
0.319768
0.328918
0.33989
0.352507
0.366432
0.381788
0.0799012
0.123397
-0.112627
-0.0906709
0.0700606
0.125728
-0.115888
0.0606141
0.128673
-0.119226
0.0512511
0.132094
-0.122731
0.0418025
0.135872
-0.126423
0.032186
0.139943
-0.130327
0.0223942
0.143917
-0.134125
0.0126773
0.145032
-0.135315
0.00418669
0.131013
-0.122523
0.0704252
-0.0662385
0.0758345
0.132244
-0.0846815
0.0668132
0.13475
0.0577445
0.137742
0.0486523
0.141186
0.0395035
0.14502
0.0302554
0.149192
0.0209108
0.153262
0.0117223
0.154221
0.00379992
0.138936
0.0742251
0.0680705
0.139732
-0.0755582
0.0602444
0.142576
0.0522153
0.145771
0.0440416
0.14936
0.0357339
0.153328
0.027283
0.157642
0.0187224
0.161822
0.0103386
0.162604
0.00322996
0.146044
0.0774551
0.0593431
0.146196
-0.0658069
0.0525981
0.149321
0.045633
0.152736
0.0384846
0.156508
0.0311652
0.160647
0.0236774
0.16513
0.0160762
0.169424
0.00867622
0.170004
0.00255166
0.152169
0.0800067
0.050636
0.151856
-0.0562961
0.0447939
0.155163
0.0387842
0.158746
0.0326169
0.162675
0.0262915
0.166973
0.0198103
0.171611
0.0132391
0.175995
0.00690941
0.176334
0.0018481
0.15723
0.0818548
0.0418041
0.156726
-0.046674
0.0368311
0.160136
0.03175
0.163827
0.0265553
0.16787
0.0212374
0.172291
0.0157967
0.177052
0.0103027
0.181489
0.005092
0.181545
0.00114018
0.161182
0.082995
0.0325844
0.160711
-0.0365695
0.0285488
0.164171
0.0244468
0.167929
0.0202665
0.17205
0.0159977
0.176559
0.0116468
0.181403
0.00728253
0.185853
0.00323486
0.185593
0.000375498
0.164041
0.0833705
0.0229113
0.163695
-0.0258952
0.0199069
0.167176
0.0168572
0.170978
0.0137493
0.175158
0.0105708
0.179738
0.00734554
0.184628
0.0041778
0.189021
0.00136327
0.188407
-0.000336117
0.165741
0.0830344
0.0128734
0.165588
-0.0147671
0.0109723
0.169077
0.00903935
0.172911
0.00706955
0.177128
0.00505274
0.181755
0.00297413
0.186707
0.00100614
0.190989
-0.000570923
0.189984
-0.00092288
0.166093
0.0821115
0.00271165
-0.00351179
0.00193429
0.00115387
0.000361209
-0.000447615
-0.00123997
-0.00202225
-0.002209
-0.00154079
0.108299
0.0215555
-0.119568
-0.0102865
0.0966564
0.0221485
-0.0105062
0.0846776
0.0227229
-0.0107442
0.0723527
0.0233267
-0.0110018
0.0596606
0.0239752
-0.0112831
0.046575
0.0246764
-0.0115908
0.0330926
0.0253919
-0.0119095
0.0194322
0.025732
-0.0120716
0.00692898
0.0236834
-0.0111802
0.0134251
-0.00649614
0.107408
0.0327834
-0.118636
0.0958251
0.0337316
0.0839178
0.0346302
0.0716761
0.0355684
0.0590784
0.0365729
0.0460978
0.0376569
0.032731
0.0387587
0.0191976
0.0392654
0.00682819
0.0360528
0.0202533
0.106137
0.043946
-0.1173
0.094647
0.045222
0.0828477
0.0464295
0.0707283
0.0476878
0.0582665
0.0490347
0.045435
0.0504885
0.0322304
0.0519633
0.0188741
0.0526217
0.00668901
0.0482379
0.0269423
0.104393
0.0550036
-0.115451
0.0930415
0.0565736
0.0813989
0.0580722
0.0694527
0.059634
0.05718
0.0613074
0.0445529
0.0631155
0.0315695
0.0649466
0.0184557
0.0657356
0.00652611
0.0601675
0.0334684
0.102071
0.0658992
-0.112966
0.0909198
0.0677245
0.0794972
0.0694948
0.0677888
0.0713425
0.0557702
0.073326
0.0434133
0.0754724
0.0307178
0.0776422
0.0179152
0.0785381
0.00630854
0.0717742
0.039777
0.099078
0.0765701
-0.109749
0.0881992
0.0786033
0.077072
0.0806219
0.0656786
0.0827359
0.0539916
0.0850129
0.0419814
0.0874826
0.029649
0.0899745
0.0172323
0.0909549
0.00602264
0.0829838
0.0457996
0.0953113
0.0869331
-0.105674
0.0848154
0.0890992
0.0740952
0.0913422
0.0631192
0.0937119
0.0518554
0.0962767
0.0402746
0.0990634
0.0283829
0.101866
0.0164279
0.10291
0.00568958
0.0937221
0.0514892
0.0905186
0.0968276
-0.100413
0.0805576
0.0990602
0.070395
0.101505
0.0599776
0.104129
0.049267
0.106987
0.0382334
0.110097
0.0268881
0.113211
0.01549
0.114308
0.00530507
0.103907
0.0567943
0.0856116
0.105833
-0.0946172
0.0764503
0.108222
0.0668992
0.111056
0.0570048
0.114024
0.0467917
0.117201
0.0362565
0.120632
0.0254258
0.124042
0.0145711
0.125163
0.00493633
0.113542
0.0617306
0.0771855
-0.0839797
0.0695193
0.0613488
0.0526418
0.0434192
0.0337244
0.0236413
0.0134887
0.00450791
0.20089
0.0151761
-0.0180766
0.203181
0.0220796
-0.0243701
0.203093
0.0268665
-0.0267787
0.203827
0.0290429
-0.0297771
0.20339
0.0350035
-0.0345664
0.201243
0.0432862
-0.0411387
0.196067
0.0545654
-0.04939
0.185449
0.0698246
-0.0592064
0.162617
0.0930539
-0.0702224
0.125972
-0.082922
0.200723
0.0124434
0.202891
0.0199113
0.202746
0.0270109
0.203397
0.0283924
0.20284
0.0355599
0.200527
0.0455996
0.195136
0.0599569
0.184244
0.0807166
0.161352
0.115946
0.168687
0.200426
0.0100074
0.202309
0.0180283
0.202015
0.0273046
0.202457
0.0279508
0.20165
0.036367
0.199046
0.0482029
0.193331
0.0656726
0.182086
0.0919615
0.159213
0.138818
0.2106
0.199996
0.00800156
0.201439
0.0165848
0.200911
0.0278332
0.201017
0.0278447
0.199828
0.0375557
0.19681
0.0512213
0.190652
0.0718303
0.178959
0.103655
0.156079
0.161698
0.251229
0.199425
0.0065668
0.200287
0.0157219
0.199448
0.0286726
0.199088
0.0282046
0.197388
0.0392557
0.193829
0.0547805
0.187101
0.0785586
0.174843
0.115912
0.151626
0.184915
0.289889
0.198703
0.00585403
0.198861
0.0155639
0.197646
0.029887
0.196684
0.029167
0.194346
0.0415938
0.190119
0.0590067
0.182682
0.0859963
0.169724
0.12887
0.146094
0.208545
0.326234
0.197818
0.00602587
0.197168
0.0162135
0.195526
0.0315291
0.193816
0.0308772
0.190719
0.0446908
0.185698
0.0640279
0.177401
0.0942938
0.163601
0.14267
0.140544
0.231601
0.361104
0.196758
0.0072579
0.195224
0.0177474
0.193112
0.0336406
0.190498
0.0334912
0.186532
0.0486566
0.180589
0.0699716
0.171301
0.103581
0.156515
0.157456
0.134515
0.253601
0.395206
0.195512
0.00973578
0.193048
0.0202112
0.19043
0.0362592
0.186741
0.0371802
0.181813
0.0535843
0.174839
0.0769452
0.164552
0.113868
0.149101
0.172908
0.128599
0.274103
0.429188
0.194177
0.0135483
0.190655
0.0237332
0.187535
0.0393799
0.182571
0.0421434
0.176646
0.0595099
0.168527
0.0850638
0.156879
0.125517
0.13984
0.189946
0.117548
0.296396
0.462756
0.302776
0.0127825
0.304351
0.0221586
0.307702
0.0360287
0.308935
0.0409099
0.310928
0.0575171
0.313425
0.0825672
0.317646
0.121295
0.326709
0.180883
0.351539
0.271566
0.405793
0.408502
0.303527
0.0112656
0.305437
0.0202484
0.309043
0.0324227
0.311311
0.038642
0.314521
0.0543076
0.319068
0.0780197
0.326526
0.113837
0.34027
0.167139
0.369527
0.242309
0.349655
0.425665
0.304181
0.00909497
0.306588
0.0178412
0.310386
0.0286247
0.313557
0.0354709
0.317901
0.0499634
0.324211
0.0717104
0.33422
0.103828
0.351197
0.150163
0.382544
0.210962
0.294804
0.437394
0.304803
0.00630221
0.307685
0.0149587
0.311701
0.0246095
0.315636
0.0315353
0.321009
0.0445904
0.328826
0.0638934
0.340856
0.0917979
0.360109
0.130909
0.39211
0.178961
0.24279
0.444124
0.305427
0.0028856
0.308732
0.0116533
0.312944
0.0203977
0.317509
0.0269706
0.32377
0.0383287
0.332835
0.0548284
0.34642
0.0782135
0.367193
0.110136
0.398992
0.147162
0.194263
0.447519
0.306087
-0.0011908
0.309739
0.00800126
0.314082
0.0160547
0.319138
0.021914
0.326132
0.0313351
0.336193
0.0447668
0.350939
0.0634682
0.372667
0.0884081
0.403867
0.115962
0.149291
0.448839
0.306802
-0.00598274
0.310715
0.00408793
0.315083
0.0116872
0.320491
0.0165057
0.328055
0.0237717
0.338877
0.0339447
0.354457
0.0478877
0.376743
0.0661221
0.407231
0.0854743
0.107511
0.449011
0.307662
-0.0116346
0.311686
6.44306e-05
0.315906
0.00746671
0.321523
0.0108883
0.329497
0.015798
0.340864
0.0225783
0.357014
0.0317374
0.379594
0.0435422
0.409416
0.0556516
0.0683046
0.448623
0.307893
-0.0175175
0.311748
-0.0037901
0.315667
0.00354773
0.321364
0.00519146
0.329594
0.00756706
0.341309
0.0108633
0.357814
0.0152325
0.380521
0.0208358
0.409826
0.0263465
0.0316234
0.446507
0.284493
0.280703
0.28425
0.289442
0.297009
0.307872
0.323105
0.34394
0.370287
0.40191
0.418677
-0.100846
0.421058
-0.087063
0.423487
-0.0779875
0.426798
-0.0691172
0.430329
-0.0598278
0.433607
-0.0499521
0.436407
-0.0393694
0.43863
-0.0281181
0.440187
-0.0163236
-0.00438547
0.42507
-0.100251
0.424832
-0.086825
0.424468
-0.077624
0.424245
-0.0688939
0.423946
-0.0595292
0.423545
-0.0495511
0.423162
-0.0389865
0.422914
-0.0278699
0.422919
-0.0163288
-0.00463845
0.431273
-0.0941299
0.426709
-0.0822609
0.42244
-0.0733551
0.418598
-0.0650518
0.41532
-0.0562504
0.412623
-0.0468547
0.41055
-0.0369133
0.409152
-0.0264718
0.408456
-0.0156332
-0.00458315
0.434381
-0.0843867
0.426581
-0.0744609
0.419693
-0.0664671
0.413599
-0.0589578
0.408384
-0.0510354
0.404088
-0.0425583
0.400751
-0.0335767
0.398421
-0.0241417
0.39713
-0.0143421
-0.0043403
0.435555
-0.0724223
0.425552
-0.0644579
0.416792
-0.057707
0.409095
-0.0512608
0.402511
-0.0444519
0.397095
-0.0371419
0.392888
-0.0293702
0.389933
-0.0211865
0.388262
-0.0126705
-0.00395555
0.435531
-0.0591143
0.424091
-0.0530186
0.414058
-0.0476731
0.405273
-0.0424767
0.397766
-0.0369444
0.391587
-0.0309633
0.386783
-0.0245658
0.383394
-0.017798
0.381454
-0.0107305
-0.00347378
0.434907
-0.0450101
0.422574
-0.0406854
0.411723
-0.0368222
0.402231
-0.032985
0.394115
-0.0288277
0.387426
-0.024275
0.382217
-0.0193567
0.378533
-0.0141139
0.376411
-0.0086087
-0.00293133
0.434033
-0.0304206
0.421182
-0.0278338
0.409862
-0.0255028
0.399943
-0.0230658
0.391438
-0.020323
0.384412
-0.0172492
0.378929
-0.0138732
0.375044
-0.0102294
0.372803
-0.00636712
-0.00236237
0.431304
-0.015218
0.41809
-0.0146192
0.406397
-0.0138101
0.396069
-0.0127375
0.387144
-0.0113977
0.379718
-0.00982404
0.373893
-0.00804818
0.369759
-0.00609546
0.367386
-0.00399355
-0.00177687
0.386692
0.372073
0.358263
0.345526
0.334128
0.324304
0.316256
0.31016
0.306167
0.00575839
0.0969892
-0.102748
0.0101187
0.201356
-0.205717
0.0119172
0.232615
-0.234413
0.0126307
0.235714
-0.236428
0.0130347
0.231906
-0.23231
0.0134992
0.227414
-0.227878
0.0140931
0.223484
-0.224078
0.0147842
0.220204
-0.220895
0.0154338
0.217237
-0.217886
0.212875
0.0155368
-0.212978
0.00728601
0.0897032
0.0149219
0.19372
0.0204918
0.227045
0.024902
0.231304
0.0290695
0.227739
0.0333853
0.223098
0.0379759
0.218894
0.0428569
0.215323
0.0478778
0.212216
0.208681
0.0520716
0.00808699
0.0816162
0.018326
0.183481
0.027213
0.218158
0.0350917
0.223425
0.0427242
0.220107
0.0505368
0.215285
0.0587097
0.210721
0.0673198
0.206713
0.0763332
0.203202
0.19991
0.0851042
0.00817164
0.0734445
0.0201856
0.171467
0.0317098
0.206633
0.0424927
0.212643
0.0530397
0.209559
0.063735
0.20459
0.0747821
0.199674
0.0862992
0.195196
0.0983561
0.191146
0.187387
0.110879
0.00771574
0.0657288
0.0206393
0.158544
0.0339978
0.193275
0.0469305
0.19971
0.0596365
0.196853
0.0723983
0.191828
0.0854025
0.18667
0.0987723
0.181826
0.112605
0.177313
0.172874
0.127118
0.00697199
0.0587568
0.0200858
0.14543
0.0344739
0.178887
0.0487538
0.18543
0.0628094
0.182798
0.0767885
0.177849
0.0908295
0.172629
0.105034
0.167622
0.119482
0.162865
0.157938
0.134418
0.00617837
0.0525784
0.0190211
0.132587
0.0337827
0.164125
0.0487056
0.170507
0.0634048
0.168099
0.0778945
0.16336
0.0922546
0.158268
0.106555
0.153321
0.120837
0.148584
0.143479
0.135295
0.00549411
0.0470843
0.0178579
0.120224
0.0325558
0.149427
0.0476049
0.155458
0.0624275
0.153276
0.0769309
0.148856
0.0911433
0.144056
0.105109
0.139356
0.118883
0.13481
0.129881
0.132481
0.00498778
0.0420965
0.016852
0.108359
0.0312686
0.135011
0.0461504
0.140576
0.0608085
0.138618
0.0750848
0.13458
0.0889783
0.130162
0.102532
0.125803
0.115792
0.121549
0.116483
0.12919
0.00464726
0.0374493
0.0160781
0.0969284
0.0301327
0.120956
0.0446882
0.126021
0.0589904
0.124316
0.0728199
0.12075
0.0861076
0.116875
0.0987992
0.113111
0.110747
0.109602
0.105511
0.121719
0.00445182
0.0329975
0.0155813
0.0857989
0.0293482
0.107189
0.04365
0.111719
0.0577368
0.110229
0.0714057
0.107082
0.0846352
0.103645
0.0974664
0.10028
0.109973
0.0970952
0.0944471
0.121037
0.00433488
0.0286626
0.0152554
0.0748784
0.0287974
0.0936472
0.0428829
0.0976335
0.0567682
0.0963437
0.0702477
0.093602
0.0832863
0.0906065
0.0958923
0.0876738
0.1081
0.0848878
0.083036
0.119511
0.00424738
0.0244152
0.0150101
0.0641157
0.0283715
0.0802858
0.0422695
0.0837354
0.0559663
0.0826469
0.0692547
0.0803136
0.0820944
0.0777668
0.0944882
0.07528
0.106458
0.072918
0.0715073
0.117987
0.00417454
0.0202407
0.0148196
0.0534706
0.0280519
0.0670535
0.041819
0.0699684
0.0553892
0.0690767
0.0685594
0.0671435
0.0812913
0.0650349
0.0935906
0.0629806
0.10548
0.0610286
0.0599212
0.117066
0.00411329
0.0161274
0.0146719
0.0429121
0.0278181
0.0539072
0.0415032
0.0562833
0.0549998
0.0555801
0.0681082
0.0540351
0.0807938
0.0523493
0.0930657
0.0507087
0.104948
0.0491462
0.0482888
0.116581
0.00406371
0.0120637
0.014558
0.0324178
0.027646
0.0408192
0.0412795
0.0426498
0.0547328
0.0421268
0.0678083
0.0409596
0.0804733
0.0396843
0.092739
0.038443
0.104628
0.0372574
0.0366299
0.116287
0.00402632
0.00803734
0.014472
0.0219721
0.0275171
0.0277742
0.041114
0.0290529
0.0545375
0.0287033
0.0675911
0.0279059
0.0802432
0.0270322
0.0925056
0.0261807
0.104399
0.0253645
0.0249587
0.11607
0.00400089
0.00403645
0.0144084
0.0115645
0.0274167
0.0147659
0.0409809
0.0154887
0.054377
0.0153072
0.0674095
0.0148734
0.0800478
0.0143939
0.092304
0.0139245
0.104197
0.0134716
0.0132826
0.115873
0.00398668
4.97772e-05
0.0143621
0.00118913
0.0273324
0.00179554
0.0408594
0.00196169
0.0542219
0.00194475
0.0672263
0.00186897
0.0798427
0.00177751
0.0920837
0.00168353
0.103967
0.00158806
0.00161303
0.115637
0.00398275
0.0143281
0.0272534
0.0407314
0.0540469
0.0670094
0.0795902
0.0918025
0.103664
0.115323
0.136709
0.248746
-0.264418
0.149705
0.111133
-0.124129
0.159283
0.0381479
-0.0477264
0.166526
0.00562916
-0.0128719
0.172503
-0.00727726
0.00129987
0.177789
-0.0112126
0.00592675
0.182622
-0.0112722
0.00643981
0.187109
-0.00975911
0.00527138
0.191289
-0.00771511
0.00353501
-0.00514618
0.00132273
0.141609
0.226648
0.156428
0.0963132
0.166107
0.0284694
0.172866
-0.00112998
0.178016
-0.0124277
0.182323
-0.0155194
0.186097
-0.0150464
0.189484
-0.0131453
0.192548
-0.0107794
-0.00785953
0.14533
0.199305
0.162192
0.0794506
0.172125
0.0185371
0.178499
-0.00750421
0.182993
-0.0169221
0.186447
-0.0189729
0.189274
-0.0178735
0.191668
-0.0155391
0.193725
-0.0128363
-0.00956825
0.148895
0.167476
0.167367
0.0609786
0.17754
0.00836422
0.183579
-0.0135428
0.187458
-0.0208015
0.190152
-0.021667
0.192139
-0.0198601
0.193652
-0.0170528
0.194815
-0.0139988
-0.0103834
0.152609
0.131448
0.171917
0.0416703
0.18228
-0.00199884
0.188034
-0.0192965
0.191386
-0.0241534
0.193422
-0.0237031
0.194679
-0.0211178
0.195429
-0.0178024
0.195814
-0.014384
-0.0104207
0.155344
0.0923906
0.175752
0.0212615
0.186315
-0.012561
0.19184
-0.0248215
0.194753
-0.0270671
0.196238
-0.0251882
0.196883
-0.0217627
0.196989
-0.0179083
0.196718
-0.014113
-0.00980064
0.157432
0.051028
0.178859
-0.000165034
0.189611
-0.0233134
0.194968
-0.0301784
0.19754
-0.0296385
0.198586
-0.0262342
0.198738
-0.0219151
0.198324
-0.0174942
0.197522
-0.0133107
-0.00864756
0.158972
0.00792858
0.181198
-0.0223907
0.19214
-0.034255
0.197397
-0.0354363
0.199728
-0.0319692
0.200451
-0.0269574
0.200235
-0.0216985
0.199428
-0.0166873
0.198222
-0.0121051
-0.00708917
0.159924
-0.0363586
0.182744
-0.0452107
0.193872
-0.0453834
0.199108
-0.0406725
0.201304
-0.0341649
0.201824
-0.027477
0.201364
-0.0212389
0.200294
-0.0156168
0.198815
-0.0106266
-0.00525595
0.160245
0.183461
0.194788
0.200087
0.202258
0.202695
0.202121
0.200917
0.199298
0.185371
0.0306771
-0.216048
0.166569
0.0188019
0.158233
0.00833639
0.155629
0.00260424
0.155574
5.43163e-05
0.156433
-0.000858903
0.157444
-0.00101108
0.158292
-0.000847972
0.158861
-0.00056861
-0.000209637
0.237376
0.0950339
-0.301733
0.208835
0.0473433
0.197467
0.019704
0.19398
0.00609147
0.193828
0.000205943
0.194858
-0.00188823
0.196103
-0.00225626
0.197156
-0.00190146
0.197873
-0.00128549
-0.000479844
0.238078
0.156585
-0.299629
0.210054
0.0753675
0.199169
0.0305886
0.196036
0.00922389
0.196096
0.000146749
0.197238
-0.00303041
0.198545
-0.00356334
0.199633
-0.00298974
0.200371
-0.00202278
-0.000757842
0.232726
0.213631
-0.289772
0.207219
0.100874
0.197826
0.0399818
0.195506
0.0115445
0.195954
-0.000301748
0.197286
-0.00436289
0.198674
-0.00495115
0.199795
-0.00411075
0.200544
-0.0027719
-0.00103867
0.226994
-0.27778
0.203739
0.195995
0.194667
0.195665
0.197229
0.198718
0.199879
0.200642
0.0199306
-0.000645899
-0.0192847
0.0235595
-0.00362892
0.0307315
-0.00717195
0.0425585
-0.011827
0.0603143
-0.0177557
0.084415
-0.0241007
0.114419
-0.0300039
0.147395
-0.032976
0.184176
-0.0367808
-0.0318725
0.0547297
-0.00289864
-0.0524769
0.0644092
-0.0133085
0.0820731
-0.0248358
0.107861
-0.037615
0.140344
-0.0502383
0.176328
-0.0600857
0.212289
-0.0659642
0.244916
-0.0656031
0.27564
-0.0675053
-0.057965
0.0804219
-0.00652045
-0.0768001
0.0932594
-0.026146
0.114702
-0.0462784
0.142514
-0.0654273
0.172852
-0.080576
0.202133
-0.0893668
0.228696
-0.092527
0.253016
-0.0899229
0.277264
-0.0917538
-0.0803298
0.0964713
-0.0109088
-0.092083
0.109796
-0.039471
0.13027
-0.0667521
0.15458
-0.089737
0.179374
-0.105371
0.203031
-0.113024
0.225264
-0.11476
0.247548
-0.112206
0.269305
-0.113512
-0.100796
0.105134
-0.100505
0.117734
0.136086
0.157228
0.178976
0.20037
0.220905
0.24118
0.256858
0.100534
-0.0902897
0.0988252
-0.109069
0.0910892
-0.092998
0.102442
0.0810016
-0.0961705
0.106258
0.0701153
-0.0993904
0.110277
0.0584253
-0.102725
0.114415
0.0459878
-0.10624
0.118677
0.0328937
-0.10975
0.122844
0.0194371
-0.111408
0.124865
0.00699148
-0.102036
0.114482
-0.0564876
0.0634791
0.105608
-0.0798087
-0.116089
0.0948742
-0.0822647
0.0835316
-0.084828
0.0716409
-0.0874998
0.0592528
-0.0903364
0.0463771
-0.093364
0.0330313
-0.0964042
0.0194515
-0.0978284
0.00697636
-0.0895613
-0.0495113
0.10641
-0.0687315
-0.117487
0.095139
-0.0709937
0.0835295
-0.0732185
0.0715347
-0.0755049
0.0591176
-0.0779192
0.0462464
-0.0804928
0.0329195
-0.0830774
0.0193656
-0.0842745
0.00692637
-0.077122
-0.0425849
0.107672
-0.0575151
-0.118889
0.0961944
-0.0595159
0.0843731
-0.0613972
0.0721815
-0.0633134
0.0595908
-0.0653286
0.0465727
-0.0674746
0.0331256
-0.0696303
0.019476
-0.0706249
0.00696549
-0.0646115
-0.0356194
0.108479
-0.046251
-0.119743
0.0968842
-0.0479207
0.0849371
-0.0494501
0.0726265
-0.0510027
0.0599299
-0.052632
0.0468196
-0.0543643
0.033292
-0.0561027
0.01957
-0.0569029
0.00699736
-0.0520389
-0.0286221
0.109013
-0.0349516
-0.120312
0.097355
-0.0362631
0.0853416
-0.0374367
0.0729633
-0.0386244
0.0601998
-0.0398685
0.0470245
-0.041189
0.0334339
-0.042512
0.0196477
-0.0431168
0.00701161
-0.0394028
-0.0216105
0.109309
-0.0236335
-0.120627
0.097616
-0.0245698
0.0855666
-0.0253873
0.0731524
-0.0262103
0.0603535
-0.0270696
0.0471441
-0.0279796
0.0335204
-0.0288884
0.0197016
-0.0292979
0.00703384
-0.0267351
-0.0145766
0.109386
-0.0123133
-0.120706
0.0976793
-0.0128634
0.0856182
-0.0133262
0.0731939
-0.0137859
0.0603862
-0.0142619
0.0471694
-0.0147628
0.0335401
-0.0152591
0.019717
-0.0154748
0.00704483
-0.0140629
-0.00753179
0.109238
-0.00101793
-0.120534
0.097541
-0.00116594
0.0854911
-0.00127631
0.0730802
-0.00137502
0.0602882
-0.00147003
0.0470897
-0.00156427
0.0334813
-0.00165068
0.0196816
-0.00167501
0.00703261
-0.00141396
-0.000499175
0.108874
-0.120178
0.0972017
0.0851811
0.0728044
0.0600513
0.0468962
0.0333361
0.0195895
0.00699532
0.0182247
-0.20959
-0.021613
0.0145578
-0.214219
0.0109816
-0.217319
0.00750176
-0.220598
0.00407212
-0.224449
0.000678569
-0.228917
-0.00256328
-0.233186
-0.00439639
-0.23258
-0.00365196
-0.206461
-0.1064
0.0501791
-0.202492
-0.0572767
0.0424471
-0.206487
0.0349023
-0.209774
0.0276368
-0.213333
0.0205811
-0.217393
0.0136808
-0.222017
0.00716753
-0.226673
0.00153614
-0.226949
-0.00135759
-0.203567
-0.107757
0.0772678
-0.191543
-0.0882166
0.0661045
-0.195324
0.0553452
-0.199015
0.0450239
-0.203012
0.0350546
-0.207424
0.025366