/*--------------------------------*- C++ -*----------------------------------*\
  =========                 |
  \\      /  F ield         | OpenFOAM: The Open Source CFD Toolbox
   \\    /   O peration     | Website:  https://openfoam.org
    \\  /    A nd           | Version:  13
     \\/     M anipulation  |
\*---------------------------------------------------------------------------*/
FoamFile
{
    format      ascii;
    class       volScalarField;
    location    "1.6";
    object      p;
}
// * * * * * * * * * * * * * * * * * * * * * * * * * * * * * * * * * * * * * //

dimensions      [0 2 -2 0 0 0 0];

internalField   nonuniform List<scalar> 
1800
(
-1.536
-1.52609
-1.51641
-1.5092
-1.50693
-1.50936
-1.51262
-1.51137
-1.49978
-1.48482
-1.58663
-1.57622
-1.56683
-1.55961
-1.5554
-1.55236
-1.54626
-1.53291
-1.51015
-1.4832
-1.65524
-1.64402
-1.63425
-1.62599
-1.61775
-1.60605
-1.58703
-1.55848
-1.52078
-1.47796
-1.73924
-1.72691
-1.71557
-1.70398
-1.68815
-1.66406
-1.62959
-1.58524
-1.53318
-1.47853
-1.83556
-1.82176
-1.80726
-1.78895
-1.76113
-1.72096
-1.66907
-1.60857
-1.54348
-1.47846
-1.93895
-1.92373
-1.90381
-1.87454
-1.83054
-1.77168
-1.70199
-1.62671
-1.55015
-1.4762
-2.04217
-2.02507
-1.99684
-1.95239
-1.88886
-1.81008
-1.72319
-1.63437
-1.5478
-1.46631
-2.13554
-2.11565
-2.07614
-2.01337
-1.92863
-1.83048
-1.72807
-1.62752
-1.53212
-1.44357
-2.20813
-2.18413
-2.13111
-2.04824
-1.94263
-1.82703
-1.71134
-1.60095
-1.4982
-1.40391
-2.24919
-2.21986
-2.15224
-2.04935
-1.92513
-1.79511
-1.66894
-1.55088
-1.44226
-1.34306
-0.739766
-0.746307
-0.753121
-0.759177
-0.764031
-0.765933
-0.763278
-0.754899
-0.738829
-0.712327
-0.843051
-0.848532
-0.854367
-0.860225
-0.865678
-0.868688
-0.867185
-0.859578
-0.844228
-0.817631
-0.97273
-0.976941
-0.98201
-0.988496
-0.995968
-1.00195
-1.00378
-0.99937
-0.98573
-0.960177
-1.1131
-1.1159
-1.12043
-1.12843
-1.13926
-1.14982
-1.15658
-1.15659
-1.14696
-1.12405
-1.24451
-1.24571
-1.24917
-1.25878
-1.27323
-1.28904
-1.30192
-1.3081
-1.30448
-1.28378
-1.34945
-1.34791
-1.34969
-1.35874
-1.37431
-1.39315
-1.41058
-1.42177
-1.4212
-1.39883
-1.41981
-1.41523
-1.41369
-1.41944
-1.43266
-1.45106
-1.47022
-1.48432
-1.48676
-1.46381
-1.45942
-1.45227
-1.44681
-1.44733
-1.45531
-1.46983
-1.48709
-1.50109
-1.50488
-1.48065
-1.48173
-1.47299
-1.46458
-1.46039
-1.46306
-1.47279
-1.48645
-1.49788
-1.49976
-1.47242
-1.50303
-1.49354
-1.48386
-1.47715
-1.47653
-1.48252
-1.49193
-1.49833
-1.49348
-1.46337
-0.504101
0.0613167
0.0878616
0.113977
0.0970546
0.0750735
0.0555748
0.0383759
0.022475
0.00758553
-0.577769
0.0332198
0.0742506
0.106844
0.0927982
0.0721964
0.05348
0.0369185
0.0216268
0.00726446
-0.684751
-0.00950822
0.0566965
0.0978365
0.0876022
0.0688191
0.0511176
0.0353229
0.0207137
0.00692155
-0.816817
-0.0635414
0.0357749
0.0866576
0.0813849
0.064914
0.0484722
0.0335797
0.0197294
0.00655568
-0.962407
-0.126633
0.0118903
0.0731469
0.0740581
0.0604501
0.0455291
0.0316806
0.0186682
0.00616636
-1.10806
-0.199007
-0.0151011
0.0572486
0.065533
0.0554012
0.0422811
0.0296206
0.017526
0.0057539
-1.23046
-0.281644
-0.0460616
0.0388755
0.0556772
0.0497285
0.0387262
0.0274007
0.0163027
0.00532049
-1.31028
-0.371818
-0.0819553
0.0179453
0.0443042
0.0433339
0.0348388
0.0250162
0.0149988
0.00487128
-1.34111
-0.462088
-0.122491
-0.00525541
0.0313412
0.036073
0.030535
0.0224299
0.0135991
0.00440979
-1.3334
-0.545719
-0.165623
-0.0296873
0.0171893
0.0279963
0.0257761
0.0196032
0.0120758
0.00393295
-1.23922
-0.56515
-0.193111
-0.0528435
0.000540968
0.0172469
0.0190832
0.0155328
0.00986443
0.00326777
-1.04541
-0.530625
-0.20948
-0.0768062
-0.0193426
0.00349609
0.0102502
0.0100915
0.00696396
0.00234443
-0.907722
-0.502773
-0.220682
-0.0917136
-0.033548
-0.00753227
0.00263533
0.00522112
0.00431071
0.00149388
-0.799702
-0.476863
-0.23423
-0.111462
-0.0507915
-0.0198914
-0.00538867
0.000293523
0.00168572
0.000639075
-0.719162
-0.459369
-0.24685
-0.126791
-0.0642904
-0.0302256
-0.0124492
-0.0041453
-0.000700506
-0.000140186
-0.65806
-0.448623
-0.261485
-0.143786
-0.0782303
-0.0403355
-0.0191345
-0.00824879
-0.0028744
-0.000849126
-0.61396
-0.446622
-0.278844
-0.160965
-0.0909123
-0.04916
-0.0249316
-0.0117785
-0.00473421
-0.00145282
-0.585244
-0.45209
-0.298007
-0.1781
-0.102537
-0.056826
-0.0298433
-0.0147003
-0.00624144
-0.00192766
-0.572055
-0.46275
-0.313906
-0.19066
-0.110006
-0.0613822
-0.0327134
-0.0163644
-0.00709049
-0.00217032
-0.56363
-0.469402
-0.323632
-0.198844
-0.115085
-0.0644793
-0.0346747
-0.0175265
-0.00782047
-0.00238338
-1.17254
-1.23817
-1.28555
-1.31889
-1.33954
-1.35526
-1.36529
-1.38189
-1.3934
-1.42202
-0.981766
-1.04862
-1.10024
-1.13909
-1.16605
-1.18572
-1.19701
-1.20566
-1.21012
-1.21859
-0.831843
-0.896617
-0.948947
-0.989079
-1.01827
-1.03752
-1.04832
-1.05203
-1.05202
-1.04951
-0.710475
-0.773012
-0.824309
-0.864359
-0.893835
-0.913165
-0.924034
-0.927183
-0.92535
-0.919562
-0.613245
-0.67322
-0.722598
-0.761897
-0.791043
-0.810877
-0.822161
-0.825822
-0.823307
-0.815823
-0.535548
-0.592874
-0.640258
-0.678482
-0.707137
-0.727163
-0.738765
-0.742917
-0.740564
-0.732877
-0.474254
-0.529305
-0.575043
-0.612057
-0.640052
-0.659768
-0.671593
-0.676203
-0.674845
-0.667999
-0.428411
-0.481736
-0.526333
-0.562189
-0.589459
-0.608564
-0.620598
-0.625478
-0.625355
-0.619123
-0.400956
-0.453717
-0.497497
-0.532568
-0.55944
-0.578353
-0.590557
-0.595507
-0.596163
-0.59015
-0.387987
-0.441225
-0.485884
-0.522168
-0.549963
-0.569862
-0.582435
-0.588102
-0.58835
-0.581118
0.383071
0.313292
0.23332
0.147642
0.055024
-0.046917
-0.158143
-0.272496
-0.368943
-0.416514
0.168808
0.092638
0.00769941
-0.0852933
-0.188154
-0.30255
-0.427473
-0.555137
-0.661759
-0.713331
-0.0670549
-0.146883
-0.23522
-0.333269
-0.443146
-0.566174
-0.700782
-0.837985
-0.951985
-1.00579
-0.295776
-0.379964
-0.473528
-0.57797
-0.695133
-0.82605
-0.968772
-1.11333
-1.23252
-1.28667
-0.506076
-0.595986
-0.696149
-0.807807
-0.932473
-1.07111
-1.22158
-1.37204
-1.49276
-1.54598
-0.696218
-0.792153
-0.898872
-1.01741
-1.14895
-1.29383
-1.45147
-1.60327
-1.7217
-1.77433
-0.866794
-0.967905
-1.07999
-1.20385
-1.34075
-1.49041
-1.64815
-1.79881
-1.91323
-1.9636
-1.01806
-1.12241
-1.23739
-1.36391
-1.50286
-1.65335
-1.80923
-1.95462
-2.06144
-2.10782
-1.15047
-1.25485
-1.36961
-1.49573
-1.63354
-1.78115
-1.93109
-2.06648
-2.16226
-2.20342
-1.25918
-1.36166
-1.47423
-1.59752
-1.73109
-1.87188
-2.01117
-2.13208
-2.21437
-2.24964
1.78218
1.79684
1.81201
1.82659
1.83973
1.85077
1.859
1.8644
1.86885
1.87346
1.7071
1.71877
1.73026
1.74056
1.74893
1.75471
1.7572
1.75665
1.75593
1.75744
1.61153
1.6193
1.62599
1.63073
1.63296
1.632
1.62717
1.61903
1.61165
1.60929
1.49673
1.50008
1.50097
1.49885
1.49346
1.48409
1.47012
1.45249
1.43678
1.42988
1.36255
1.36052
1.35469
1.34483
1.3309
1.31218
1.28804
1.25982
1.23466
1.22274
1.21247
1.20486
1.19135
1.17235
1.14827
1.11846
1.0824
1.04198
1.00613
0.988416
1.04645
1.03273
1.01142
0.983235
0.948764
0.90729
0.858419
0.804745
0.757317
0.733482
0.872846
0.851977
0.820753
0.781106
0.734299
0.679682
0.616945
0.549319
0.490004
0.459896
0.696553
0.668324
0.6266
0.574565
0.514126
0.444709
0.366274
0.283071
0.21095
0.174522
0.531833
0.486317
0.427342
0.359682
0.284364
0.199842
0.105857
0.00746323
-0.0768781
-0.119144
1.53063
1.49379
1.5018
1.49516
1.4922
1.50371
1.52304
1.55988
1.61928
1.7169
1.52353
1.48792
1.49582
1.48814
1.48384
1.49243
1.50846
1.53897
1.58781
1.66797
1.51696
1.48199
1.48971
1.48069
1.47488
1.48014
1.49239
1.51501
1.55075
1.60751
1.5109
1.47604
1.48352
1.47284
1.46535
1.46682
1.47486
1.48786
1.50847
1.53479
1.50535
1.47011
1.47726
1.46463
1.45527
1.45245
1.4559
1.45734
1.46157
1.4487
1.50028
1.46425
1.47096
1.4561
1.44462
1.43703
1.43552
1.42334
1.41039
1.34847
1.49572
1.45847
1.46464
1.44727
1.43341
1.4206
1.41368
1.38581
1.35509
1.23246
1.49169
1.45281
1.45829
1.43819
1.42162
1.40327
1.39027
1.34492
1.29534
1.10183
1.48821
1.4473
1.45194
1.42888
1.40928
1.38517
1.36515
1.30085
1.22968
0.954841
1.48535
1.44197
1.44558
1.4194
1.3965
1.36648
1.33917
1.25516
1.16054
0.802665
1.48247
1.43576
1.43744
1.40769
1.37973
1.34222
1.30378
1.19893
1.07985
0.656158
1.48087
1.4293
1.42843
1.39493
1.36128
1.31662
1.26582
1.14923
1.00336
0.625469
1.48124
1.42368
1.4198
1.38272
1.3435
1.29357
1.23086
1.10906
0.941525
0.607952
1.48416
1.41894
1.41152
1.37113
1.3264
1.27346
1.19932
1.07746
0.890602
0.598142
1.49017
1.41512
1.40334
1.36005
1.31003
1.25623
1.17112
1.05375
0.850821
0.592589
1.49992
1.41224
1.3959
1.34968
1.29486
1.24174
1.14681
1.03714
0.821852
0.587583
1.51316
1.40877
1.38661
1.3384
1.28091
1.22981
1.12646
1.02548
0.802096
0.583849
1.53741
1.40972
1.38072
1.32966
1.26941
1.22047
1.11048
1.01754
0.789387
0.582122
1.54921
1.40105
1.36714
1.31864
1.26051
1.21391
1.09985
1.01302
0.783073
0.583148
1.62394
1.41374
1.36901
1.31473
1.25725
1.21053
1.09487
1.01132
0.779683
0.58602
0.364325
0.187614
-0.0216451
-0.224652
-0.409863
-0.576853
-0.728356
-0.86483
-0.985054
-1.08817
0.309781
0.169604
0.00914555
-0.15246
-0.304236
-0.443818
-0.57289
-0.692375
-0.801994
-0.899173
0.29152
0.172345
0.042764
-0.0904158
-0.219457
-0.341675
-0.457043
-0.565242
-0.665149
-0.754252
0.301348
0.191015
0.0759501
-0.0390156
-0.151238
-0.259652
-0.363536
-0.462181
-0.553934
-0.637144
0.317004
0.213766
0.10851
0.00565409
-0.0943688
-0.192232
-0.28744
-0.379159
-0.465091
-0.543748
0.333823
0.237058
0.139387
0.0448049
-0.0469659
-0.137436
-0.226418
-0.31295
-0.39444
-0.469348
0.350198
0.259095
0.167356
0.078467
-0.00804431
-0.0937149
-0.178412
-0.260995
-0.338929
-0.410677
0.365427
0.279214
0.192202
0.107062
0.0234138
-0.0597679
-0.142093
-0.222206
-0.297706
-0.366965
0.379555
0.297444
0.214103
0.130844
0.0476777
-0.0353643
-0.117268
-0.196579
-0.271295
-0.33992
0.391895
0.312356
0.23059
0.146874
0.062285
-0.0219472
-0.104387
-0.183705
-0.258263
-0.326809
-1.27746
-1.23949
-1.15717
-1.05305
-0.947462
-0.851339
-0.768577
-0.700156
-0.646355
-0.607758
-1.31331
-1.28007
-1.21217
-1.1239
-1.03124
-0.944916
-0.869562
-0.806749
-0.757508
-0.723272
-1.28389
-1.25443
-1.20203
-1.13317
-1.05764
-0.984662
-0.919275
-0.863627
-0.819229
-0.787704
-1.20443
-1.17781
-1.13936
-1.09039
-1.03442
-0.977659
-0.924804
-0.878318
-0.840079
-0.811782
-1.09688
-1.07287
-1.04496
-1.01252
-0.974935
-0.934831
-0.895489
-0.859208
-0.82781
-0.802441
-0.983979
-0.963035
-0.942158
-0.920787
-0.897184
-0.871584
-0.845501
-0.820177
-0.797351
-0.777997
-0.882583
-0.865768
-0.849455
-0.833642
-0.817739
-0.80173
-0.785963
-0.770869
-0.756274
-0.74229
-0.800758
-0.788527
-0.775576
-0.761946
-0.748803
-0.737555
-0.729387
-0.72402
-0.722883
-0.723956
-0.738983
-0.730303
-0.719134
-0.705011
-0.691222
-0.68148
-0.67843
-0.683027
-0.693173
-0.712332
-0.70378
-0.696636
-0.683968
-0.666862
-0.650961
-0.641509
-0.642851
-0.658827
-0.686909
-0.741716
-0.709193
-0.699337
-0.685555
-0.667824
-0.651825
-0.643928
-0.648082
-0.665777
-0.694617
-0.72185
-0.74389
-0.733505
-0.722076
-0.71178
-0.706072
-0.708366
-0.72052
-0.742117
-0.772352
-0.799412
-0.782021
-0.773939
-0.769996
-0.773654
-0.786032
-0.807234
-0.836202
-0.870712
-0.908087
-0.937019
-0.795591
-0.792775
-0.796109
-0.809391
-0.832418
-0.863637
-0.900771
-0.941408
-0.982619
-1.01243
-0.775671
-0.777892
-0.784394
-0.799059
-0.821455
-0.849813
-0.881996
-0.916066
-0.949927
-0.972495
-0.732089
-0.736827
-0.743977
-0.755276
-0.770955
-0.78973
-0.810065
-0.83048
-0.847754
-0.855085
-0.684272
-0.690382
-0.697583
-0.706243
-0.716563
-0.727358
-0.737267
-0.744918
-0.747475
-0.740781
-0.649802
-0.65674
-0.664174
-0.671539
-0.678764
-0.684588
-0.687717
-0.686928
-0.679854
-0.663597
-0.643126
-0.650483
-0.658204
-0.665099
-0.670859
-0.674094
-0.673517
-0.668035
-0.655564
-0.633568
-0.672139
-0.67935
-0.686907
-0.693432
-0.698493
-0.700559
-0.698267
-0.690565
-0.675509
-0.650629
-0.92195
-0.480551
-0.139978
0.0481433
0.0910332
0.0826587
0.0665198
0.0484166
0.0292625
0.0101639
-0.99679
-0.394075
-0.0627767
0.0799031
0.0979321
0.083552
0.0657892
0.0474836
0.02855
0.00990195
-1.01708
-0.315041
-0.00210096
0.101727
0.101915
0.0836709
0.0650874
0.0466184
0.0278942
0.00965695
-0.973826
-0.244757
0.0384743
0.113513
0.104008
0.0836881
0.0643865
0.0457759
0.0272642
0.00941775
-0.861835
-0.174543
0.0649926
0.120427
0.105272
0.0834786
0.0635995
0.0449139
0.0266395
0.0091793
-0.724763
-0.0988523
0.0832361
0.124755
0.105837
0.0829718
0.0626945
0.0440147
0.0260112
0.00893881
-0.592765
-0.0282686
0.0948664
0.126623
0.105645
0.0821432
0.0616476
0.0430607
0.0253692
0.00869266
-0.506191
0.0246908
0.100691
0.126057
0.104689
0.0809736
0.0604346
0.0420347
0.0247038
0.00843731
-0.463727
0.0561882
0.101311
0.123577
0.102961
0.0794304
0.0590323
0.0409212
0.0240054
0.00816956
-0.467228
0.0714419
0.0970056
0.119516
0.100429
0.0774754
0.0574192
0.0397061
0.0232653
0.00788649
-0.582861
-0.593089
-0.312025
-0.0471679
0.0588534
0.0765241
0.0668056
0.0496695
0.0304656
0.0106746
-0.579222
-0.593373
-0.320653
-0.0482626
0.0602575
0.0768663
0.066687
0.0494904
0.0303011
0.0106101
-0.627695
-0.595361
-0.314611
-0.0430009
0.0633925
0.0773283
0.0664527
0.0492595
0.0301156
0.0105392
-0.722192
-0.581199
-0.29657
-0.0271147
0.0695905
0.0784466
0.0663927
0.0490798
0.0299398
0.0104602
-0.84092
-0.541262
-0.215661
0.0125896
0.082689
0.0817683
0.066895
0.0490241
0.0297798
0.0103799
-0.571745
-0.683473
-0.751352
-0.782898
-0.785769
-0.757589
-0.741107
-0.691622
-0.660823
-0.616633
-0.571784
-0.684987
-0.750776
-0.780187
-0.778958
-0.747517
-0.734779
-0.674628
-0.660963
-0.608823
-0.57374
-0.68776
-0.751942
-0.780024
-0.773607
-0.74787
-0.724828
-0.682807
-0.671209
-0.640483
-0.579311
-0.694597
-0.758362
-0.785137
-0.775287
-0.756393
-0.720826
-0.709796
-0.696076
-0.721307
-0.589312
-0.706273
-0.770408
-0.795232
-0.785539
-0.764762
-0.729572
-0.728155
-0.717665
-0.808369
1.51884
1.50962
1.4935
1.47356
1.45075
1.42405
1.39276
1.35879
1.33036
1.31751
1.6047
1.60738
1.60338
1.59471
1.58262
1.56665
1.54636
1.52332
1.50414
1.49606
1.68683
1.69428
1.69688
1.69599
1.69252
1.68606
1.67605
1.66342
1.65298
1.64935
1.75704
1.7686
1.77735
1.78375
1.78806
1.78978
1.78827
1.78403
1.78056
1.78086
1.81496
1.82969
1.84267
1.85399
1.86367
1.87121
1.87597
1.87816
1.88019
1.88359
1.85612
1.87285
1.88908
1.90445
1.91862
1.93101
1.94094
1.94831
1.95465
1.96061
1.88035
1.89843
1.91674
1.93462
1.95149
1.96677
1.97977
1.99023
1.99921
2.00675
1.88558
1.90407
1.92333
1.94246
1.96071
1.97745
1.99199
2.00395
2.01417
2.02243
1.87133
1.88944
1.90851
1.92752
1.94559
1.96209
1.97633
1.98795
1.99784
2.00588
1.83697
1.85382
1.87153
1.88902
1.90539
1.91999
1.93213
1.94155
1.94952
1.95633
-0.441301
-0.48545
-0.543441
-0.615807
-0.703343
-0.805634
-0.919742
-1.03502
-1.12843
-1.17094
-0.229181
-0.278641
-0.340698
-0.41607
-0.505974
-0.610784
-0.729482
-0.851673
-0.952572
-0.998018
0.0149331
-0.0393003
-0.104899
-0.182284
-0.272832
-0.37744
-0.494986
-0.616934
-0.724081
-0.770541
0.271172
0.213901
0.146574
0.0690668
-0.0198701
-0.121264
-0.234314
-0.352635
-0.455552
-0.50385
0.519385
0.461809
0.395717
0.321184
0.237067
0.142114
0.0366622
-0.0736384
-0.168559
-0.214889
0.744774
0.69083
0.629862
0.561969
0.486004
0.40058
0.305815
0.206778
0.122011
0.080033
0.943906
0.897071
0.844438
0.786003
0.720537
0.646603
0.564253
0.478096
0.404744
0.368459
1.12428
1.08559
1.04205
0.993632
0.938958
0.876588
0.806621
0.733295
0.67132
0.641048
1.29389
1.26182
1.2248
1.18405
1.13834
1.08621
1.02774
0.966645
0.915567
0.891155
1.43968
1.41346
1.38117
1.34682
1.30985
1.26859
1.2226
1.17456
1.13473
1.11615
1.64845
1.53367
1.54014
1.53074
1.53788
1.56282
1.58588
1.62356
1.64059
1.61043
1.63106
1.53284
1.53964
1.53082
1.53646
1.56112
1.58548
1.6264
1.6573
1.66265
1.61527
1.53089
1.53799
1.52993
1.53437
1.5585
1.58431
1.62898
1.67341
1.71372
1.60097
1.52803
1.53541
1.52815
1.5316
1.555
1.58188
1.62913
1.68466
1.75154
1.58802
1.52444
1.53206
1.52553
1.52813
1.55059
1.57802
1.62696
1.69105
1.77904
1.57625
1.52025
1.52806
1.52213
1.52394
1.54523
1.57268
1.62237
1.69248
1.79571
1.56551
1.51558
1.52353
1.51799
1.51901
1.53889
1.56585
1.61524
1.68872
1.80166
1.55567
1.51051
1.51855
1.51317
1.51335
1.53157
1.55748
1.60548
1.6796
1.79696
1.54664
1.50514
1.51323
1.50772
1.50698
1.52327
1.54756
1.59303
1.66505
1.78136
1.53832
1.49955
1.50762
1.5017
1.49992
1.51398
1.53608
1.57785
1.64501
1.75467
1.81283
1.53545
1.52866
1.52084
1.53407
1.5556
1.56924
1.5902
1.55039
1.52487
1.73928
1.52916
1.52907
1.52263
1.53473
1.55651
1.56988
1.59174
1.55459
1.52141
1.71699
1.53419
1.53397
1.52528
1.53584
1.5581
1.5723
1.59599
1.56623
1.52318
1.69078
1.53438
1.53717
1.52777
1.53702
1.56016
1.57659
1.60356
1.58533
1.53377
1.66796
1.534
1.53931
1.52967
1.53795
1.56216
1.58144
1.61321
1.60995
1.5508
1.3182
1.22566
1.0994
0.93432
0.732844
0.502868
0.256111
0.00907798
-0.22016
-0.416019
1.31223
1.22251
1.10203
0.942197
0.745809
0.519217
0.272886
0.023069
-0.211258
-0.412588
1.32373
1.2299
1.10668
0.948314
0.75573
0.53173
0.285157
0.0326078
-0.205959
-0.411657
1.35875
1.25051
1.11531
0.954019
0.763236
0.540571
0.293102
0.0378506
-0.204451
-0.414146
1.4153
1.28555
1.13004
0.959822
0.767211
0.544835
0.297069
0.0398366
-0.206204
-0.420516
)
;

boundaryField
{
    left
    {
        type            zeroGradient;
    }
    right
    {
        type            fixedValue;
        value           uniform 0;
    }
    down
    {
        type            zeroGradient;
    }
    up
    {
        type            zeroGradient;
    }
    cylinder
    {
        type            zeroGradient;
    }
    defaultFaces
    {
        type            empty;
    }
}


// ************************************************************************* //
