/*--------------------------------*- C++ -*----------------------------------*\
  =========                 |
  \\      /  F ield         | OpenFOAM: The Open Source CFD Toolbox
   \\    /   O peration     | Website:  https://openfoam.org
    \\  /    A nd           | Version:  13
     \\/     M anipulation  |
\*---------------------------------------------------------------------------*/
FoamFile
{
    format      ascii;
    class       surfaceScalarField;
    location    "1.6";
    object      phi;
}
// * * * * * * * * * * * * * * * * * * * * * * * * * * * * * * * * * * * * * //

dimensions      [0 3 -1 0 0 0 0];

internalField   nonuniform List<scalar> 
3485
(
0.000975891
0.00631135
-0.00728724
0.00572057
0.00964664
-0.0143913
0.015176
0.00455318
-0.0140086
0.0297755
-0.00810412
-0.00649536
0.0494658
-0.0269124
0.00722209
0.0735373
-0.0498623
0.0257908
0.100512
-0.0744927
0.0475176
0.128469
-0.0983607
0.070404
0.155459
-0.119472
0.0924814
-0.135785
0.111762
0.179483
0.00124365
0.0050677
0.0070581
0.00383218
0.0186975
-0.00708624
0.0365431
-0.0259497
0.0599482
-0.0503175
0.087172
-0.077086
0.115787
-0.103107
0.143364
-0.125939
0.168015
-0.144122
-0.15757
0.1898
0.00196504
0.00310266
0.00970278
-0.00390555
0.0242826
-0.0216661
0.0454713
-0.0471384
0.0715117
-0.0763579
0.0995775
-0.105152
0.126734
-0.130264
0.15075
-0.149955
0.17058
-0.163952
-0.17301
0.186019
0.00292657
0.000176091
0.0129708
-0.0139498
0.0305584
-0.0392537
0.0542536
-0.0708336
0.0810273
-0.103132
0.107457
-0.131582
0.130928
-0.153735
0.150144
-0.16917
0.164935
-0.178743
-0.183923
0.175848
0.00392781
-0.00375172
0.0162791
-0.0263011
0.0362261
-0.0592007
0.0608313
-0.0954388
0.0861546
-0.128455
0.108964
-0.154391
0.127557
-0.172328
0.141663
-0.183275
0.151932
-0.189013
-0.191403
0.159412
0.00498215
-0.00873387
0.0192314
-0.0405503
0.0403293
-0.0802986
0.0640005
-0.11911
0.0861813
-0.150636
0.104491
-0.172701
0.11833
-0.186167
0.128259
-0.193205
0.135276
-0.196029
-0.196347
0.14022
0.0059085
-0.0146424
0.0213306
-0.0559724
0.042128
-0.101096
0.0633112
-0.140293
0.0814236
-0.168748
0.0951682
-0.186445
0.104826
-0.195825
0.111374
-0.199754
0.115851
-0.200505
-0.19959
0.119094
0.00660042
-0.0212428
0.0222644
-0.0716363
0.0414329
-0.120265
0.0592072
-0.158067
0.073098
-0.182639
0.0827828
-0.19613
0.0890838
-0.202126
0.0930976
-0.203767
0.0957213
-0.203129
-0.201327
0.0974584
0.00696336
-0.0282062
0.021905
-0.086578
0.0384968
-0.136856
0.0524847
-0.172055
0.0623961
-0.19255
0.0685974
-0.202331
0.0721504
-0.205679
0.0740875
-0.205705
0.0751197
-0.204161
-0.201831
0.0756228
0.0069504
-0.0351566
0.0203675
-0.0999951
0.0338785
-0.150367
0.0441361
-0.182313
0.0505334
-0.198948
0.0538515
-0.20565
0.0551905
-0.207018
0.0554313
-0.205945
0.0550923
-0.203822
0.0543533
-0.201092
-0.00516411
0.0109658
-0.00580168
-0.0150646
0.0189069
-0.00900645
-0.0264143
0.0195752
-0.0082255
-0.0374219
0.0165646
-0.00555699
-0.047183
0.0118217
-0.00206062
-0.055252
0.00641688
0.00165218
-0.0614286
0.000962868
0.00521373
-0.0657762
-0.00403934
0.00838691
-0.0683623
-0.00852153
0.0111076
-0.0125179
-0.0692942
0.0134498
-0.0044344
0.0154002
-0.0133045
0.027777
-0.0237465
0.0300172
-0.034061
0.0268791
-0.043295
0.0210557
-0.0509113
0.0140332
-0.0566256
0.00667711
-0.0602329
-0.000432052
-0.061905
-0.00684938
-0.0126373
-0.0617856
-0.00313194
0.0185321
-0.0100758
0.0347208
-0.018728
0.0386694
-0.0275881
0.0357391
-0.035668
0.0291357
-0.0422986
0.0206638
-0.0469991
0.0113776
-0.0493742
0.00194312
-0.0494564
-0.00676722
-0.0146798
-0.0474139
-0.00130485
0.019837
-0.00534751
0.0387635
-0.0111024
0.0444243
-0.0174504
0.0420871
-0.0234186
0.0351039
-0.0282315
0.0254767
-0.0312316
0.0143777
-0.0318251
0.00253665
-0.0296928
-0.00889945
-0.0195491
-0.0248235
0.000734008
0.019103
0.00034516
0.0391523
-0.00154348
0.046313
-0.00424569
0.0447894
-0.00694067
0.0377989
-0.00886565
0.0274017
-0.00931947
0.0148315
-0.00760717
0.000824344
-0.00293663
-0.01357
-0.027783
0.00529725
0.00237838
0.0167246
0.00543249
0.0360982
0.00778441
0.043961
0.00941262
0.0431611
0.0108448
0.0363667
0.012717
0.0255294
0.0156316
0.0119168
0.0201141
-0.00365814
0.0270472
-0.0205031
-0.0381137
0.037378
0.00313439
0.0135902
0.00851972
0.0307129
0.0142902
0.0381906
0.0199487
0.0375026
0.0256763
0.0306391
0.0319121
0.0192937
0.0390743
0.00475462
0.0477293
-0.0123132
0.0581268
-0.0309006
-0.051593
0.0716061
0.00290443
0.0106858
0.0089614
0.0246559
0.0165862
0.0305658
0.0251204
0.0289684
0.0345269
0.0212326
0.0450671
0.0087535
0.057225
-0.00740329
0.071026
-0.0261142
0.0862469
-0.0461214
-0.0689293
0.103583
0.00209597
0.0085898
0.00760219
0.0191497
0.015751
0.0224169
0.0261208
0.0185986
0.0386721
0.00868134
0.0536343
-0.00620869
0.0710273
-0.0247963
0.0905268
-0.0456137
0.111388
-0.0669823
-0.0899927
0.132451
0.00130256
0.00606097
0.0144693
0.0265725
0.0424759
0.062058
0.0847793
0.10957
0.135069
0.156838
0.00334314
-0.293044
0.220407
0.0958052
-0.272015
0.179552
0.149353
-0.195955
0.142407
0.180339
-0.14311
0.112125
0.196805
-0.105851
0.0893853
0.205038
-0.077946
0.0697129
0.208888
-0.0598018
0.0559518
0.210113
-0.0415211
0.0402958
0.210215
-0.0352784
0.0351766
-0.0220429
0.0230023
0.0082506
-0.36308
0.0953023
-0.359066
0.149431
-0.250085
0.180438
-0.174117
0.197002
-0.122415
0.205327
-0.0862713
0.209222
-0.0636963
0.210487
-0.0427862
0.210613
-0.035405
-0.0211327
0.0185747
-0.429069
0.0963029
-0.436794
0.149724
-0.303505
0.180292
-0.204685
0.196817
-0.13894
0.205238
-0.0946925
0.209243
-0.0677011
0.210647
-0.04419
0.210912
-0.0356697
-0.0203996
0.0360875
-0.48998
0.101242
-0.501949
0.151048
-0.353312
0.180179
-0.233815
0.19633
-0.155092
0.204789
-0.103151
0.208955
-0.0718671
0.210593
-0.0458283
0.211107
-0.0361835
-0.0199701
0.0599404
-0.544623
0.111029
-0.553037
0.154044
-0.396327
0.180425
-0.260197
0.195667
-0.170334
0.204016
-0.1115
0.208366
-0.0762164
0.210327
-0.0477897
0.211197
-0.0370538
-0.0199687
0.0868074
-0.594052
0.124272
-0.590502
0.158606
-0.430661
0.181224
-0.282815
0.194978
-0.184087
0.202987
-0.11951
0.207497
-0.0807262
0.209852
-0.050145
0.211179
-0.0383809
-0.0205171
0.111762
-0.634208
0.137994
-0.616734
0.163598
-0.456265
0.182321
-0.301538
0.194319
-0.196086
0.201781
-0.126971
0.206391
-0.0853368
0.209185
-0.0529383
0.211055
-0.0402513
-0.0217314
0.131793
-0.662418
0.149303
-0.634244
0.167431
-0.474393
0.182941
-0.317048
0.193484
-0.206629
0.200409
-0.133896
0.205093
-0.0900206
0.208351
-0.0561969
0.210833
-0.0427327
-0.0237192
0.145884
-0.675851
0.156472
-0.644832
0.169036
-0.486957
0.182211
-0.330223
0.191985
-0.216402
0.198713
-0.140624
0.203586
-0.0948937
0.20737
-0.059981
0.210523
-0.0458861
-0.0265804
0.154057
-0.67307
0.159551
-0.650326
0.168495
-0.495901
0.179889
-0.341618
0.189389
-0.225902
0.196381
-0.147616
0.201728
-0.100241
0.206196
-0.0644482
0.210119
-0.0498092
-0.0304182
0.561371
-0.622111
-0.612329
0.485415
-0.57437
0.420179
-0.430665
0.379998
-0.301436
0.357802
-0.203706
0.345245
-0.135058
0.337462
-0.0924581
0.332744
-0.0597307
0.329358
-0.0464229
-0.0285048
0.56512
-0.521751
-0.66548
0.476202
-0.485452
0.417339
-0.371802
0.382403
-0.2665
0.361712
-0.183015
0.348929
-0.122275
0.340438
-0.0839677
0.334989
-0.0542818
0.330854
-0.0422875
-0.0260899
0.579892
-0.435117
-0.666525
0.50438
-0.409941
0.445442
-0.312864
0.402938
-0.223997
0.374662
-0.154739
0.356621
-0.104234
0.344953
-0.0722999
0.337727
-0.0470555
0.332451
-0.0370117
-0.0230767
0.57977
-0.359116
-0.655771
0.506993
-0.337164
0.449654
-0.255525
0.408051
-0.182393
0.379639
-0.126328
0.360742
-0.0853367
0.347968
-0.059526
0.339816
-0.0389038
0.333751
-0.0309464
-0.019569
0.582221
-0.29482
-0.646516
0.515453
-0.270397
0.459092
-0.199165
0.415801
-0.139102
0.385213
-0.0957397
0.364579
-0.0647026
0.350521
-0.0454678
0.341509
-0.0298922
0.334772
-0.0242094
-0.0156381
0.582947
-0.238408
-0.63936
0.519158
-0.206607
0.463107
-0.143114
0.419118
-0.0951128
0.387673
-0.0642947
0.366357
-0.0433862
0.351721
-0.0308321
0.342284
-0.0204549
0.335155
-0.0170803
-0.0114155
0.576797
-0.183937
-0.631268
0.513382
-0.143192
0.457787
-0.0875185
0.414669
-0.0519955
0.384159
-0.0337844
0.363619
-0.0228458
0.349458
-0.0166714
0.340284
-0.011281
0.333233
-0.0100288
-0.00714169
0.540094
-0.121838
-0.602192
0.476369
-0.079468
0.425472
-0.0366213
0.388514
-0.0150374
0.363216
-0.00848662
0.34645
-0.00608017
0.334841
-0.00506144
0.327263
-0.00370305
0.321216
-0.00398241
-0.00331125
0.413602
-0.0509055
-0.484535
0.358115
-0.0239808
0.32482
-0.00332629
0.305544
0.00423809
0.293362
0.00369558
0.285199
0.00208343
0.279224
0.00091276
0.27517
0.000351654
0.271521
-0.00033322
-0.00071197
0.141611
-0.192517
0.117631
0.114304
0.118542
0.122238
0.124321
0.125234
0.125586
0.125253
0.544262
0.0459204
-0.53583
0.554465
0.0654199
0.565456
0.086468
0.578772
0.105778
0.591884
0.127107
0.607561
0.143735
0.61876
0.164649
0.63042
0.174359
0.625146
0.195074
0.192299
0.520265
0.038195
-0.51254
0.531287
0.054398
0.542783
0.0749722
0.558154
0.0904067
0.573745
0.111517
0.592979
0.124501
0.612181
0.145446
0.631859
0.154681
0.652742
0.174192
0.179561
0.503512
0.0306583
-0.495976
0.513868
0.044042
0.525732
0.0631085
0.540471
0.075668
0.556983
0.0950041
0.575611
0.105873
0.596604
0.124454
0.618125
0.133161
0.642876
0.149441
0.155911
0.491315
0.0229291
-0.483586
0.501045
0.034312
0.513383
0.0507702
0.527525
0.0615267
0.544433
0.0780953
0.562693
0.0876132
0.583842
0.103305
0.60584
0.111162
0.630593
0.124688
0.130733
0.481548
0.015252
-0.473871
0.490964
0.0248962
0.503448
0.0382862
0.51749
0.0474844
0.534593
0.0609925
0.55302
0.0691866
0.574275
0.0820502
0.596571
0.0888653
0.621151
0.100108
0.105368
0.472777
0.00790246
-0.465427
0.482029
0.0156443
0.494382
0.0259335
0.508511
0.0333548
0.525705
0.0437991
0.544454
0.0504372
0.565982
0.0605223
0.58872
0.066127
0.613656
0.075173
0.0796644
0.462419
0.00123034
-0.455747
0.47132
0.00674246
0.483277
0.0139765
0.497325
0.0193074
0.514443
0.0266809
0.533461
0.0314193
0.555344
0.0386395
0.578767
0.0427042
0.60457
0.0493701
0.0529657
0.440413
-0.00389014
-0.435293
0.447828
-0.000672406
0.458263
0.00354185
0.470974
0.00659655
0.486874
0.010781
0.504909
0.013384
0.526036
0.0175129
0.549068
0.0196712
0.57481
0.0236284
0.0255841
0.373251
-0.00470017
-0.372441
0.376041
-0.00346314
0.381555
-0.00197224
0.389114
-0.000962473
0.399531
0.000364488
0.411748
0.00116736
0.426812
0.00244827
0.443556
0.00292733
0.463046
0.00413874
0.00409497
0.183774
-0.188474
0.18031
0.178338
0.177376
0.17774
0.178908
0.181356
0.184283
0.188422
0.0756133
0.144955
-0.133103
-0.0874654
0.0646704
0.147068
-0.136125
0.0545386
0.14962
-0.139488
0.0446977
0.153079
-0.143238
0.0348731
0.156828
-0.147004
0.0251185
0.159813
-0.150059
0.0158126
0.159479
-0.150173
0.00773728
0.150059
-0.141983
0.00206647
0.121081
-0.115411
0.0577971
-0.0557307
0.072993
0.155717
-0.0837551
0.0623376
0.157724
0.0519966
0.159961
0.0419982
0.163077
0.032223
0.166604
0.0227267
0.16931
0.0138954
0.16831
0.00650067
0.157453
0.001581
0.126001
0.0593782
0.0664319
0.165214
-0.0759287
0.056556
0.1676
0.0467411
0.169776
0.0371942
0.172624
0.0279411
0.175857
0.0191014
0.178149
0.0110991
0.176313
0.00470618
0.163846
0.000849217
0.129858
0.0602274
0.0566277
0.17354
-0.0649536
0.0479082
0.176319
0.0390652
0.178619
0.0303587
0.18133
0.0219519
0.184263
0.0140636
0.186038
0.00719355
0.183183
0.00215539
0.168884
-0.000167073
0.13218
0.0600603
0.0444322
0.180739
-0.051631
0.0369468
0.183805
0.0292792
0.186286
0.0216566
0.188953
0.0143266
0.191593
0.00766967
0.192695
0.00221817
0.188634
-0.000974687
0.172077
-0.00132806
0.132534
0.0587322
0.0308271
0.186865
-0.0369534
0.0245341
0.190098
0.0180746
0.192746
0.0116505
0.195377
0.00555602
0.197688
0.00026579
0.197985
-0.00323348
0.192133
-0.00425462
0.173098
-0.00255326
0.130832
0.056179
0.0158899
0.191971
-0.0209958
0.0107357
0.195252
0.00551511
0.197966
0.000416187
0.200476
-0.00417569
0.20228
-0.00762259
0.201432
-0.00913886
0.19365
-0.00779394
0.171753
-0.00375502
0.126794
0.052424
9.8593e-05
0.19619
-0.0043184
-0.00398444
0.199335
-0.0079955
0.201977
-0.0117367
0.204217
-0.0147652
0.205308
-0.0163288
0.202995
-0.0154305
0.192751
-0.0113586
0.167681
-0.00487252
0.120307
0.0475514
-0.0172784
0.19921
0.0142593
-0.0201327
0.202189
-0.0228095
0.204654
-0.0250387
0.206446
-0.0262483
0.206518
-0.0255359
0.202283
-0.0218745
0.18909
-0.0148092
0.160616
-0.00583949
0.111338
0.0417119
-0.0356325
0.0337505
-0.0372651
-0.0385563
-0.0391277
-0.0382593
-0.034924
-0.0281468
-0.017898
-0.00655539
0.105208
0.0357674
-0.116966
-0.0240096
0.0931896
0.0367923
-0.0247741
0.0808967
0.0378982
-0.0256053
0.0683029
0.0390874
-0.0264937
0.0553895
0.0403427
-0.0274293
0.0421814
0.0415411
-0.0283329
0.0288658
0.042198
-0.0288824
0.0160767
0.0409125
-0.0281234
0.00539756
0.0345744
-0.0238952
0.0177801
-0.0123826
0.104797
0.0475891
-0.116618
0.0927776
0.0488113
0.0804987
0.0501772
0.0679333
0.0516528
0.0550587
0.0532173
0.0418974
0.0547024
0.0286384
0.055457
0.0159202
0.0536307
0.00532581
0.0451688
0.0231059
0.104119
0.0593674
-0.115897
0.0921052
0.0608248
0.0798466
0.0624357
0.067318
0.0641815
0.0545012
0.066034
0.0414204
0.0677832
0.0282656
0.0686118
0.0156775
0.0662188
0.00522578
0.0556204
0.0283317
0.102612
0.0711782
-0.114423
0.090681
0.0727556
0.07851
0.0746067
0.0660722
0.0766193
0.0533587
0.0787476
0.0404157
0.0807262
0.0274571
0.0815704
0.0151341
0.0785418
0.00499113
0.0657634
0.0333228
0.100761
0.0828323
-0.112415
0.0889642
0.084552
0.0769997
0.0865712
0.0648048
0.0888141
0.0523311
0.0912213
0.0396017
0.0934556
0.0268416
0.0943305
0.0147357
0.0906477
0.00483623
0.0756629
0.0381591
0.0974446
0.094543
-0.109155
0.0857357
0.096261
0.0738679
0.098439
0.0618477
0.100834
0.0496665
0.103403
0.0373495
0.105773
0.0251075
0.106572
0.0136129
0.102142
0.0043676
0.0849082
0.0425267
0.0941462
0.105722
-0.105325
0.0829767
0.10743
0.0716245
0.109791
0.0599896
0.112469
0.0480733
0.115319
0.0359812
0.117865
0.0240106
0.118543
0.0128846
0.113268
0.00407355
0.0937192
0.0466002
0.0875617
0.116718
-0.0985584
0.0767598
0.118232
0.0659859
0.120565
0.055126
0.123329
0.0440693
0.126375
0.0328358
0.129098
0.0217135
0.129666
0.0114554
0.123526
0.00350201
0.101673
0.0501022
0.0833189
0.126068
-0.0926688
0.0735906
0.127961
0.0632748
0.130881
0.0525815
0.134022
0.0416773
0.13728
0.0307118
0.140064
0.0200188
0.140359
0.0103549
0.13319
0.00306974
0.108958
0.053172
0.0733253
-0.08036
0.0651605
0.0565535
0.0473383
0.0376141
0.027619
0.0178046
0.00901142
0.00255872
0.201387
0.00866833
-0.0120653
0.205377
0.0212986
-0.025289
0.209148
0.0385313
-0.0423016
0.211879
0.0583365
-0.0610681
0.211744
0.07266
-0.0725246
0.209837
0.0908519
-0.0889451
0.202828
0.10729
-0.10028
0.19057
0.133416
-0.121159
0.165634
0.177948
-0.153011
0.231585
-0.182917
0.201066
0.00559218
0.204726
0.0176381
0.20822
0.0350379
0.210752
0.0558041
0.210673
0.0727397
0.208577
0.0929473
0.201784
0.114083
0.189209
0.14599
0.164343
0.202814
0.27931
0.200675
0.00290709
0.203927
0.0143856
0.207047
0.0319185
0.209188
0.0536625
0.209066
0.0728622
0.206496
0.0955177
0.199902
0.120677
0.186723
0.159168
0.16227
0.227267
0.325683
0.200208
0.000688623
0.202974
0.0116203
0.205617
0.0292752
0.207205
0.052074
0.206934
0.0731339
0.20361
0.0988417
0.197242
0.127045
0.182959
0.173451
0.159485
0.250741
0.370745
0.199663
-0.000984975
0.201862
0.00942167
0.203918
0.0272196
0.204826
0.0511652
0.204275
0.0736856
0.199938
0.103178
0.193843
0.13314
0.177877
0.189417
0.15598
0.272638
0.414311
0.199038
-0.00203353
0.200593
0.00786748
0.20194
0.0258723
0.20208
0.0510256
0.201081
0.0746838
0.195567
0.108692
0.189758
0.138949
0.171862
0.207313
0.151922
0.292578
0.457077
0.198334
-0.0023781
0.199168
0.00703371
0.199681
0.0253595
0.198996
0.0517101
0.197339
0.0763408
0.190668
0.115364
0.184857
0.14476
0.165192
0.226979
0.146924
0.310845
0.498677
0.197552
-0.00194005
0.197596
0.00698968
0.197152
0.0258029
0.195608
0.053254
0.193048
0.0789013
0.185292
0.12312
0.179166
0.150885
0.157271
0.248874
0.141473
0.326643
0.541591
0.196688
-0.00063801
0.19589
0.00778712
0.194383
0.0273105
0.191951
0.0556858
0.188197
0.0826556
0.17962
0.131696
0.172568
0.157938
0.150295
0.271147
0.135098
0.34184
0.58402
0.195777
0.00157513
0.194028
0.00953573
0.191442
0.0298968
0.187989
0.059139
0.182926
0.0877181
0.173083
0.141539
0.164228
0.166792
0.140111
0.295264
0.129379
0.352573
0.633039
0.304904
-0.00131846
0.309397
0.00504229
0.31489
0.0244042
0.321125
0.0529037
0.328755
0.080088
0.332395
0.1379
0.350288
0.1489
0.354177
0.291375
0.403366
0.303384
0.564388
0.472017
0.305484
-0.00479215
0.310918
-0.000391786
0.317102
0.0182203
0.324814
0.0451915
0.332757
0.0721452
0.340842
0.129815
0.360696
0.129046
0.3727
0.279371
0.418587
0.257497
0.497564
0.485411
0.306246
-0.00902829
0.31283
-0.00697577
0.319916
0.0111347
0.328736
0.036371
0.336703
0.0641782
0.349065
0.117453
0.367834
0.110277
0.38563
0.261574
0.428825
0.214302
0.423278
0.503111
0.307264
-0.0142817
0.315192
-0.0149038
0.323371
0.0029553
0.33256
0.0271818
0.341204
0.0555344
0.356036
0.102622
0.372962
0.0933506
0.396955
0.237581
0.440009
0.171248
0.347778
0.51551
0.308599
-0.0208704
0.318222
-0.0245267
0.327458
-0.00628078
0.336403
0.0182363
0.346036
0.0459017
0.361989
0.0866693
0.377672
0.0776678
0.409919
0.205333
0.447177
0.13399
0.277245
0.51771
0.310311
-0.0291707
0.321918
-0.036134
0.332112
-0.0164752
0.340441
0.00990697
0.350633
0.0357105
0.367549
0.0697527
0.38179
0.0634274
0.420342
0.166781
0.451548
0.102783
0.212242
0.516551
0.312701
-0.0398615
0.326166
-0.0495987
0.336214
-0.0265238
0.34339
0.00273086
0.353538
0.0255634
0.371128
0.0521621
0.384532
0.0500235
0.42701
0.124303
0.454364
0.0754299
0.152152
0.514454
0.315094
-0.0529456
0.32635
-0.0608545
0.333417
-0.0335907
0.338953
-0.00280472
0.34907
0.0154458
0.367215
0.034017
0.381606
0.0356331
0.426459
0.0794492
0.452652
0.0492375
0.0953489
0.509455
0.308734
-0.0596691
0.301815
-0.0539363
0.29618
-0.0279549
0.2981
-0.00472473
0.308528
0.00501751
0.327133
0.0154117
0.346205
0.0165611
0.391218
0.0344368
0.418557
0.0218983
0.0397408
0.474165
0.242341
0.188405
0.16045
0.155725
0.160743
0.176154
0.192715
0.227152
0.249051
0.288791
0.485759
-0.101207
0.491399
-0.0893959
0.495648
-0.0801778
0.500049
-0.0693539
0.50473
-0.0563125
0.510008
-0.0422312
0.515404
-0.0263917
0.521345
-0.0102596
0.528017
0.00758774
0.0259378
0.487667
-0.103463
0.489684
-0.0914121
0.490327
-0.0808212
0.491089
-0.0701157
0.49199
-0.0572143
0.493937
-0.0441781
0.496436
-0.0288906
0.500606
-0.0144296
0.505426
0.00276791
0.018824
0.497841
-0.0981937
0.49438
-0.0879512
0.490812
-0.0772531
0.487421
-0.0667243
0.484884
-0.0546776
0.483883
-0.0431774
0.484163
-0.0291705
0.486397
-0.0166632
0.489844
-0.000679478
0.0126925
0.504512
-0.0871961
0.495404
-0.0788426
0.488047
-0.069896
0.48203
-0.0607074
0.477537
-0.0501849
0.474748
-0.0403885
0.473913
-0.0283355
0.474991
-0.0177407
0.478228
-0.0039171
0.00733533
0.504708
-0.0741937
0.493394
-0.0675293
0.484002
-0.0605041
0.476485
-0.0531902
0.470962
-0.0446618
0.467219
-0.0366459
0.465753
-0.0268686
0.466136
-0.0181243
0.469062
-0.00684276
0.00252584
0.502654
-0.060297
0.490421
-0.0552959
0.480058
-0.050141
0.471597
-0.0447296
0.465305
-0.0383696
0.460882
-0.032223
0.458803
-0.0247893
0.458621
-0.0179427
0.461077
-0.00929916
-0.00182422
0.499936
-0.0457791
0.486996
-0.0423553
0.475814
-0.0389591
0.466504
-0.0354203
0.459351
-0.0312159
0.454124
-0.0269962
0.451202
-0.0218674
0.450259
-0.0169993
0.451948
-0.0109889
-0.00562242
0.493425
-0.0297496
0.478997
-0.0279275
0.466373
-0.0263344
0.455616
-0.0246637
0.446941
-0.0225403
0.440177
-0.0202328
0.435643
-0.0173329
0.433116
-0.0144724
0.433114
-0.0109873
-0.0078012
0.456096
-0.0116806
0.439857
-0.0116883
0.425267
-0.0117444
0.412262
-0.0116592
0.400967
-0.0112452
0.391331
-0.0105961
0.383633
-0.00963529
0.377764
-0.00860318
0.374108
-0.00733172
-0.00613361
0.277111
0.265422
0.253678
0.242019
0.230774
0.220178
0.210542
0.201939
0.194607
0.00771331
0.0422958
-0.0500091
0.0182177
0.113873
-0.124378
0.0251104
0.162407
-0.1693
0.0274301
0.188482
-0.190801
0.0263988
0.199506
-0.198474
0.0234494
0.202348
-0.199399
0.0195792
0.200918
-0.197048
0.0154257
0.19621
-0.192056
0.0115877
0.186741
-0.182903
0.168725
0.00868536
-0.165822
0.00914577
0.03315
0.0242934
0.0987256
0.0368808
0.14982
0.0443206
0.181042
0.0473369
0.196489
0.0474931
0.202192
0.0460268
0.202384
0.0436105
0.198626
0.0404137
0.189937
0.172941
0.0361973
0.00964305
0.023507
0.0287157
0.079653
0.0474001
0.131135
0.0609537
0.167488
0.0690015
0.188442
0.0729414
0.198252
0.074221
0.201105
0.0736088
0.199238
0.0711055
0.192441
0.178403
0.0656436
0.00908602
0.014421
0.0303787
0.0583603
0.0547897
0.106724
0.0753715
0.146906
0.0897884
0.174025
0.0987023
0.189338
0.103614
0.196193
0.105601
0.19725
0.104588
0.193454
0.183449
0.0995419
0.00761857
0.0068024
0.0285557
0.0374231
0.0567595
0.0785206
0.0844405
0.119226
0.106708
0.151757
0.122342
0.173704
0.132305
0.18623
0.13789
0.191666
0.139779
0.191565
0.186931
0.136297
0.00564024
0.00116216
0.0236413
0.019422
0.0519661
0.0501958
0.0846014
0.0865902
0.115202
0.121156
0.13989
0.149017
0.157611
0.16851
0.169139
0.180137
0.175368
0.185336
0.185553
0.176747
0.00361561
-0.00245346
0.0170621
0.00597553
0.0414448
0.0258131
0.0742174
0.0538177
0.110201
0.0851723
0.144145
0.115073
0.172428
0.140227
0.19346
0.159105
0.207599
0.171197
0.179482
0.213669
0.00167987
-0.00413333
0.0100863
-0.00243091
0.0279656
0.00793388
0.0558119
0.0259713
0.0913005
0.0496836
0.130261
0.0761131
0.168315
0.102173
0.201651
0.125769
0.228392
0.144456
0.158554
0.249319
-0.000217606
-0.00391572
0.0034598
-0.00610831
0.014347
-0.00295334
0.0344351
0.00588331
0.0638515
0.0202672
0.100754
0.0392105
0.141977
0.0609493
0.184098
0.0836478
0.221865
0.106689
0.12256
0.257859
-0.00131276
-0.00260296
-0.000210774
-0.00721029
0.00621226
-0.00937638
0.0196993
-0.00760377
0.0411511
-0.00118454
0.0707167
0.00964493
0.107421
0.0242448
0.149692
0.0413774
0.195482
0.0608988
0.0780557
0.239987
8.49704e-06
-0.00261146
0.00292311
-0.0101249
0.00990674
-0.01636
0.0212607
-0.0189578
0.0373845
-0.0173083
0.0587292
-0.0116998
0.0856991
-0.00272506
0.117864
0.00921263
0.155571
0.0231917
0.0411372
0.192489
0.00256937
-0.00518083
0.00971458
-0.0172701
0.0201188
-0.0267642
0.0327152
-0.0315542
0.0470679
-0.031661
0.0632853
-0.0279172
0.0817608
-0.0212006
0.103131
-0.0121578
0.127796
-0.00147292
0.0136501
0.155283
0.00431363
-0.00949446
0.0132339
-0.0261904
0.0239237
-0.037454
0.03507
-0.0427005
0.0464481
-0.0430391
0.0583648
-0.0398339
0.0712494
-0.0340851
0.0854165
-0.0263249
0.100663
-0.0167192
-0.00478946
0.119102
0.00360844
-0.0131029
0.009381
-0.0319629
0.0147763
-0.0428494
0.0192786
-0.0472027
0.0234341
-0.0471946
0.0281054
-0.0445052
0.0340861
-0.0400658
0.041996
-0.0342348
0.0522667
-0.0269898
-0.0177734
0.0652506
0.00107932
-0.0141822
0.00125199
-0.0321356
-0.000362365
-0.041235
-0.00317925
-0.0443858
-0.00622063
-0.0441532
-0.00855165
-0.0421742
-0.00938721
-0.0392302
-0.00806692
-0.0355551
-0.00399153
-0.0310652
-0.0253789
0.0036139
-0.00150098
-0.0126812
-0.0060148
-0.0276218
-0.0125513
-0.0346985
-0.0199927
-0.0369444
-0.02745
-0.036696
-0.034319
-0.0353052
-0.0401634
-0.0333858
-0.044612
-0.0311065
-0.0473313
-0.028346
-0.0247367
-0.0479734
-0.00335009
-0.00933115
-0.010732
-0.0202398
-0.0199538
-0.0254768
-0.0295573
-0.0273409
-0.0387471
-0.0275061
-0.0471613
-0.026891
-0.0546527
-0.0258944
-0.061129
-0.0246301
-0.066423
-0.0230521
-0.0209205
-0.0702391
-0.00455302
-0.00477814
-0.0136383
-0.0111545
-0.0243299
-0.0147852
-0.0349591
-0.0167117
-0.0447166
-0.0177486
-0.0532938
-0.0183138
-0.0606335
-0.0185548
-0.0667637
-0.0184999
-0.0716707
-0.018145
-0.0173963
-0.075195
-0.0051936
0.000415468
-0.0151389
-0.00120919
-0.0265325
-0.00339164
-0.0375993
-0.00564492
-0.0474988
-0.00784909
-0.055904
-0.00990867
-0.0627497
-0.0117091
-0.0680861
-0.0131635
-0.0719734
-0.0142577
-0.0150023
-0.0743674
-0.00538621
-0.0156018
-0.027219
-0.0384209
-0.0483306
-0.0565871
-0.0630824
-0.067859
-0.0710091
-0.0725616
0.257254
0.357962
-0.422727
0.276576
0.347597
-0.36692
0.244182
0.158758
-0.126364
0.203913
0.0702276
-0.0299582
0.186163
0.0235199
-0.00576986
0.184484
-0.00244919
0.00412855
0.188866
-0.0139321
0.00955009
0.194477
-0.0151637
0.00955219
0.20061
-0.0162122
0.0100788
-0.0125671
0.00701824
0.245995
0.26725
0.259063
0.33453
0.219369
0.198452
0.190859
0.0987377
0.184585
0.0297936
0.187268
-0.00513157
0.19227
-0.0189343
0.197235
-0.0201285
0.202303
-0.0212801
-0.0169372
0.206476
0.179877
0.208355
0.332651
0.183229
0.223577
0.178172
0.103795
0.183666
0.0243001
0.189838
-0.0113041
0.195197
-0.0242928
0.199528
-0.02446
0.203612
-0.0253636
-0.0202221
0.130149
0.114978
0.140628
0.322172
0.152394
0.211811
0.171206
0.0849834
0.184579
0.0109264
0.192556
-0.0192812
0.197888
-0.0296239
0.201577
-0.0281491
0.204768
-0.0285554
-0.0225358
0.0465478
0.072044
0.0889413
0.279779
0.137965
0.162787
0.17003
0.0529184
0.186661
-0.00570456
0.195257
-0.0278773
0.200338
-0.0347051
0.203418
-0.0312293
0.205823
-0.0309603
-0.0239998
-0.00425748
0.0283281
0.0692997
0.206221
0.136502
0.0955851
0.17186
0.017561
0.189126
-0.0229715
0.197764
-0.0365144
0.20252
-0.039461
0.205057
-0.0337664
0.206786
-0.0326897
-0.0247388
-0.021535
-0.0203761
0.0727637
0.111923
0.140087
0.0282621
0.174487
-0.0168395
0.191485
-0.0399691
0.199969
-0.0449986
0.204411
-0.0439026
0.206489
-0.0358452
0.207658
-0.0338587
-0.0248797
-0.0161228
-0.0794483
0.0830573
0.0127426
0.144157
-0.0328372
0.176876
-0.049559
0.193502
-0.0565952
0.201819
-0.0533158
0.205999
-0.048082
0.207713
-0.0375597
0.208439
-0.0345843
-0.0245507
-0.00630855
-0.147507
0.0911834
-0.0847493
0.147126
-0.0887802
0.178664
-0.0810966
0.195076
-0.0730069
0.203287
-0.061527
0.207277
-0.0520719
0.208726
-0.0390093
0.209126
-0.0349843
-0.0238815
0.000337929
0.0951411
0.148768
0.179796
0.196174
0.20436
0.20824
0.209527
0.209719
0.0112655
0.0650135
-0.0762789
-0.00935623
0.0206217
0.00811348
-0.0174697
0.032447
-0.0243336
0.0458596
-0.0134126
0.0509418
-0.0050822
0.0529214
-0.0019796
0.0538793
-0.000957865
0.0545651
-0.000685808
-0.000461396
0.133406
0.212585
-0.280977
0.0633044
0.0907229
0.0752423
-0.0294076
0.104583
-0.0536742
0.122123
-0.0309524
0.129701
-0.0126603
0.133402
-0.00568057
0.135579
-0.00313542
0.137366
-0.00247213
-0.00160627
0.291927
0.358275
-0.437618
0.182277
0.200373
0.156019
-0.00314925
0.162074
-0.0597294
0.170032
-0.0389105
0.174757
-0.017385
0.178114
-0.00903811
0.180628
-0.00564865
0.183029
-0.00487364
-0.00321608
0.403289
0.442166
-0.487179
0.296999
0.306663
0.238232
0.0556177
0.209992
-0.0314894
0.19859
-0.0275086
0.196076
-0.0148714
0.197445
-0.0104074
0.199622
-0.00782507
0.202217
-0.0074684
-0.00506786
0.441654
-0.422215
0.381397
0.31065
0.249203
0.215924
0.205182
0.204324
0.206051
0.208662
0.0111836
-0.000112
-0.0110716
0.0127649
-0.00158129
0.01573
-0.00296518
0.0201232
-0.00439316
0.0261364
-0.00601318
0.0339849
-0.00784848
0.0424881
-0.00850324
0.0539703
-0.0114822
0.0644076
-0.0104373
-0.0118713
0.031176
-0.000776794
-0.0305112
0.0358681
-0.00627346
0.0446252
-0.0117222
0.0581166
-0.0178846
0.0774522
-0.0253488
0.102208
-0.0326043
0.13463
-0.0409249
0.175596
-0.0524481
0.221114
-0.0559554
-0.0717344
0.0485936
-0.00232312
-0.0470472
0.0562382
-0.0139181
0.0702467
-0.0257307
0.09216
-0.0397979
0.122435
-0.0556242
0.162955
-0.0731242
0.21516
-0.0931296
0.27712
-0.114408
0.352526
-0.131362
-0.156826
0.0631598
-0.00493733
-0.0605456
0.073297
-0.0240553
0.0916273
-0.044061
0.119764
-0.0679344
0.157566
-0.0934261
0.208771
-0.124329
0.269165
-0.153523
0.339586
-0.184829
0.423336
-0.215112
-0.220669
0.0748933
-0.0711453
0.0870353
0.108618
0.140225
0.183096
0.235514
0.29566
0.36015
0.402898
0.0850854
-0.0763026
0.0846075
-0.0933902
0.0761856
-0.0774786
0.0863784
0.0670636
-0.0793699
0.0884919
0.0573334
-0.0813705
0.0911007
0.0468494
-0.0833496
0.0938337
0.0357198
-0.0850043
0.0961338
0.0243037
-0.0851931
0.0966093
0.0133562
-0.0809316
0.0918791
0.00437724
-0.0663754
0.0753544
-0.0325689
0.0369461
0.0933222
-0.0666427
-0.102982
0.0832781
-0.0674345
0.072519
-0.0686109
0.0611248
-0.0699763
0.049291
-0.0715158
0.037216
-0.0729293
0.0251763
-0.0731535
0.0138094
-0.0695647
0.00453403
-0.0571
-0.0280348
0.0927442
-0.05581
-0.103577
0.081843
-0.0565333
0.0707755
-0.0575434
0.0595537
-0.0587544
0.0481328
-0.060095
0.0364802
-0.0612766
0.0247516
-0.0614249
0.0135744
-0.0583875
0.00442729
-0.0479529
-0.0236075
0.0970447
-0.0449617
-0.107893
0.0860372
-0.0455258
0.0747973
-0.0463035
0.0632274
-0.0471845
0.0512644
-0.048132
0.0389401
-0.0489523
0.0264968
-0.0489816
0.0146223
-0.046513
0.00484263
-0.0381732
-0.0187649
0.0983937
-0.0337213
-0.109634
0.0870288
-0.034161
0.0754057
-0.0346803
0.0635023
-0.0352811
0.0513133
-0.035943
0.0388848
-0.0365239
0.0264235
-0.0365202
0.0145604
-0.0346499
0.00479873
-0.0284116
-0.0139662
0.100856
-0.022459
-0.112118
0.0893351
-0.0226399
0.0775542
-0.0228994
0.0654789
-0.0232058
0.0530827
-0.0235469
0.0403852
-0.0238263
0.0275774
-0.0237125
0.0153018
-0.0223743
0.00510814
-0.0182179
-0.00885805
0.102157
-0.0109582
-0.113658
0.090462
-0.0109446
0.0785026
-0.01094
0.0662527
-0.0109559
0.0536905
-0.0109847
0.0408404
-0.0109761
0.0278926
-0.0107647
0.0154825
-0.00996421
0.00516796
-0.00790336
-0.00369009
0.10356
0.000608447
-0.115127
0.0917387
0.000877073
0.0796416
0.00115713
0.0672415
0.00144421
0.0545192
0.0017376
0.0415013
0.00204174
0.028379
0.00235753
0.0157879
0.00262695
0.00529313
0.0025914
0.00160304
0.104473
0.0122744
-0.116139
0.0925574
0.0127925
0.0803658
0.0133487
0.0678725
0.0139376
0.0550567
0.0145533
0.0419406
0.0151578
0.0287085
0.0155897
0.0159925
0.0153429
0.00537144
0.0132125
0.00697448
0.105009
-0.116744
0.0930278
0.0807712
0.0682151
0.0553391
0.042164
0.0288713
0.0160908
0.00540808
0.0148356
-0.163623
-0.0170352
0.0100811
-0.178148
0.00422728
-0.186202
-0.00180968
-0.191011
-0.00736703
-0.193842
-0.0116445
-0.194197
-0.0134739
-0.188972
-0.0115337
-0.17124
-0.00566149
-0.13025
-0.0556706
0.0392825
-0.160411
-0.0424942
0.0328239
-0.171689
0.0250573
-0.178436
0.0169808