/*--------------------------------*- C++ -*----------------------------------*\
  =========                 |
  \\      /  F ield         | OpenFOAM: The Open Source CFD Toolbox
   \\    /   O peration     | Website:  https://openfoam.org
    \\  /    A nd           | Version:  13
     \\/     M anipulation  |
\*---------------------------------------------------------------------------*/
FoamFile
{
    format      ascii;
    class       surfaceScalarField;
    location    "17.7";
    object      phi;
}
// * * * * * * * * * * * * * * * * * * * * * * * * * * * * * * * * * * * * * //

dimensions      [0 3 -1 0 0 0 0];

internalField   nonuniform List<scalar> 
823
(
0.00272986
0.0285578
-0.0312877
0.0149645
0.0255868
-0.0378215
0.0556625
-0.0251841
-0.0155139
0.134511
-0.0871383
0.00829033
-0.117852
0.00217331
0.25019
0.0184289
0.010129
0.0740532
-0.0300375
0.161584
-0.112715
0.266771
-0.192326
-0.262526
0.411444
0.021684
-0.011555
0.104299
-0.112653
0.214383
-0.222798
0.322527
-0.300469
-0.35006
0.410061
0.0410581
-0.0526131
0.137195
-0.208789
0.22639
-0.311993
0.28527
-0.359349
-0.374178
0.309389
0.0553002
-0.107913
0.129419
-0.282908
0.174123
-0.356698
0.19188
-0.377107
0.200684
-0.382982
0.0153172
-0.0606823
0.0453651
0.0363473
-0.11985
0.0988199
0.0487405
-0.129676
0.117283
0.0475242
-0.110759
0.111975
-0.0829507
0.0344022
0.0960727
0.0171485
-0.0778308
0.031195
-0.133896
0.0275811
-0.126062
0.00791635
-0.0910938
-0.0511556
-0.0238787
0.0220081
-0.0998389
0.028999
-0.140887
0.0213072
-0.118371
0.0133781
-0.0831647
-0.0493869
0.0116094
-0.0313057
-0.0685332
-0.0925744
-0.0796187
-0.148069
-0.0628756
-0.188783
-0.0424509
-0.0206084
-0.217562
-0.0998209
-0.217261
-0.29565
-0.329811
-0.348246
0.134725
-0.136478
0.0361555
0.229028
1.79693
-1.89123
0.371527
0.458055
-0.600554
0.429407
-1.49891
1.44103
-0.909603
0.863829
-0.141491
-0.0188663
0.111431
1.54401
0.51278
0.0567055
0.519359
-1.50549
-0.917132
-0.0484623
0.0412054
0.15219
1.34336
0.581399
-0.372504
0.584703
-1.50879
-0.905158
-0.059371
-0.116985
0.247362
1.03662
0.616035
-0.741176
0.616483
-1.50924
-0.88141
-0.0456186
-0.419613
0.350585
0.640421
0.654448
-1.04504
0.650212
-1.505
-0.839015
0.80971
-0.146221
-1.0831
1.11178
0.338346
1.33994
-1.2732
1.14799
-1.31305
-0.628511
1.24684
-0.0578839
-1.33518
1.4789
0.106284
1.37083
-1.16512
1.05396
-0.996189
-0.407104
1.31957
-0.060981
-1.31647
1.55506
-0.129206
1.23439
-0.844453
0.871537
-0.63334
-0.236071
1.28788
-0.0457293
-1.30313
1.36779
-0.209116
0.961252
-0.437913
0.570348
-0.242435
-0.0689662
0.85287
-0.898599
0.643754
0.205841
-0.0365942
1.07339
0.152132
-1.02484
1.14237
0.240403
1.24673
0.305708
1.24782
0.410354
0.414905
1.00209
0.0834705
-0.933425
1.05655
0.185943
1.15548
0.206772
1.24725
0.318585
0.326982
0.941457
0.0375423
-0.895529
1.00417
0.123231
1.08512
0.125819
1.20498
0.198725
0.215496
0.891885
0.00902537
-0.863368
0.967463
0.0476535
1.04724
0.0460388
1.16835
0.0776179
0.0807111
0.646578
-0.637552
0.694231
0.74027
0.817888
0.127907
0.295316
-0.247345
-0.175878
0.0849084
0.302582
-0.259584
0.0460078
0.313027
-0.274127
0.0144098
0.304058
-0.27246
0.196271
-0.181861
0.0895302
0.332227
-0.126441
0.0552768
0.336836
0.0252712
0.343033
0.00258508
0.326744
0.198856
0.0496541
0.361536
-0.0789633
0.0214547
0.365035
-0.00153762
0.366025
-0.0102965
0.335503
0.188559
-0.0265868
0.376784
0.0113388
-0.0397869
0.378235
-0.0439058
0.370144
-0.0310462
0.322644
0.157513
-0.103911
0.0977135
-0.102782
-0.0893361
-0.0495999
0.20534
0.0930408
-0.258504
-0.0398775
0.150815
0.0971321
-0.0426068
0.0943357
0.1017
-0.045221
0.0386663
0.101828
-0.0461581
0.0724044
-0.0337381
0.198653
0.138119
-0.243731
0.151267
0.144518
0.0985568
0.154411
0.0420554
0.158329
0.11446
0.149822
0.183801
-0.195503
0.106495
0.187844
0.0643713
0.196534
0.0243492
0.198351
0.138809
0.158496
0.219841
-0.194536
0.117103
0.229237
0.0716528
0.241985
0.0277486
0.242255
0.166558
0.107998
-0.135502
0.0776506
0.0455085
0.0153035
0.403838
0.0690437
-0.0769024
0.422632
0.00344247
-0.0222362
0.415767
0.154375
-0.147511
0.392506
0.179388
-0.156126
0.385945
-0.251943
0.401396
0.0636276
0.417409
-0.0125708
0.405211
0.166573
0.377138
0.20746
0.519352
0.396195
0.0634127
0.413219
-0.029595
0.383654
0.196138
0.361996
0.229118
0.685845
0.394321
0.0650712
0.401414
-0.0366875
0.368092
0.22946
0.339592
0.257618
0.830901
0.388519
0.0725314
0.391059
-0.0392271
0.33941
0.281109
0.311577
0.285451
1.00698
0.627987
0.0485647
0.661865
-0.0731048
0.676805
0.266169
0.737333
0.224923
0.768691
0.975618
0.646836
0.0057492
0.660441
-0.0867096
0.68864
0.23797
0.782162
0.1314
0.542341
1.00851
0.654828
-0.045058
0.640913
-0.0727951
0.691204
0.187679
0.789137
0.033467
0.348197
0.983281
0.632093
-0.0731304
0.605279
-0.0459813
0.721122
0.0718368
0.764797
-0.0102082
0.168014
0.944979
0.53089
0.484909
0.556746
0.546537
0.714552
0.991362
-0.191622
0.991821
-0.1269
0.98346
-0.0706019
0.996897
-0.00209814
0.069773
0.949215
-0.132325
0.933044
-0.110729
0.903774
-0.0413318
0.925407
-0.0237317
0.0617548
0.925351
-0.0743941
0.891178
-0.0765565
0.871447
-0.0216006
0.877545
-0.0298297
0.0437707
0.898622
-0.0280367
0.855269
-0.0332034
0.845298
-0.01163
0.833875
-0.018407
0.0142775
0.686515
0.653312
0.641682
0.623275
0.0557155
0.178132
-0.233847
0.0795269
0.377291
-0.401103
0.0780747
0.431013
-0.429561
0.0680252
0.431259
-0.42121
0.398561
0.0541175
-0.384654
0.0868109
0.091321
0.163188
0.300914
0.196057
0.398145
0.200335
0.426982
0.414004
0.184892
0.0747895
0.0165315
0.203658
0.172045
0.299144
0.302659
0.353052
0.373073
0.418553
0.348503
0.0356518
-0.0191203
0.157944
0.0497528
0.295756
0.164848
0.426245
0.242584
0.336598
0.508199
0.00547421
-0.0245945
0.0695306
-0.0143036
0.190349
0.044029
0.338604
0.0943291
0.191322
0.48388
-0.00476388
-0.0198307
0.016501
-0.0355685
0.0851598
-0.0246298
0.189733
-0.010244
0.0650774
0.315978
-0.00206552
-0.0177651
0.00666903
-0.0443031
0.0356138
-0.0535745
0.0753995
-0.0500298
-0.0122109
0.152688
0.00228825
-0.0200534
0.0121645
-0.0541793
0.028695
-0.0701049
0.0478264
-0.0691613
-0.05349
0.0891055
0.0112095
-0.0312629
0.0330449
-0.0760147
0.0589083
-0.0959684
0.0856983
-0.0959513
-0.085362
0.11757
0.0141022
0.0369074
0.0582222
0.0742458
0.0849564
0.405003
1.06581
-1.15483
0.187256
0.846037
-0.62829
-0.0321651
0.419811
-0.20039
0.160993
-0.609778
0.41662
-0.472479
0.304609
0.345731
0.872763
0.0291461
1.16262
-0.088686
0.537643
0.18413
-0.882593
-0.624934
0.353227
0.608641
0.0042428
1.51161
-0.00274276
0.544628
0.260155
-1.14549
-0.720059
0.452077
0.274135
0.174839
1.78884
0.155916
0.563551
0.33599
-1.32556
-0.790898
0.395247
0.292856
0.255853
0.371318
-0.126563
0.734336
-0.607773
-0.273618
0.147056
-0.189224
-0.0843943
0.0669607
-0.256185
-0.136964
0.81863
-1.23912
0.337396
0.0526118
0.213047
0.097774
-0.0126309
-0.0851431
0.159248
-0.0614744
0.263805
-0.104557
0.421264
-0.157459
-0.186509
0.22365
-0.182163
0.347067
0.591013
0.941754
0.148618
-0.155659
0.187487
-0.180446
0.113875
-0.162352
0.197095
0.0742604
-0.171243
0.210857
0.0307925
-0.17226
0.215728
-0.12221
0.153002
0.192907
-0.114882
-0.233684
0.146609
-0.116055
0.0935944
-0.118228
0.0389161
-0.117582
-0.0832934
0.187873
-0.0633869
-0.239367
0.135656
-0.0638384
0.0836832
-0.0662548
0.0339676
-0.0678665
-0.0493258
0.205716
-0.0116354
-0.257468
0.153184
-0.0113064
0.0983198
-0.0113902
0.0417289
-0.0112756
-0.00759689
0.209293
-0.260806
0.15538
0.0987687
0.041335
0.0495184
-0.360388
-0.0737834
0.0195576
-0.391249
-0.00611681
-0.403886
-0.0175744
-0.389645
-0.251422
0.138899
-0.325078
-0.17421
0.0928458
-0.345196
0.04619
-0.35723
0.0100877
-0.353543
-0.241334
0.162487
-0.279878
-0.207687
0.113933
-0.296642
0.0670889
-0.310386
0.0244429
-0.310897
-0.216891
0.181233
-0.239631
-0.22148
0.133975
-0.249384
0.0834303
-0.259841
0.034041
-0.261507
-0.18285
0.1769
-0.229044
0.124611
0.0756273
0.0298483
0.388797
0.10343
-0.0962474
0.392197
0.0770504
-0.08045
0.360221
0.136484
-0.104508
0.3143
0.0224865
0.0234351
-0.277326
0.41118
0.396458
0.102951
0.406277
0.0672317
0.397645
0.145116
0.354887
0.0652449
-0.156123
0.401598
0.0973326
0.41561
0.0532194
0.411937
0.14879
0.376688
0.100494
-0.0188029
0.405855
0.0874576
0.42056
0.0385141
0.422193
0.147157
0.392906
0.129781
0.116635
0.406535
0.422813
0.422459
0.396114
0.415643
0.0944083
0.339175
0.0764674
0.261256
0.0779197
0.277955
-0.0166992
-0.221415
0.49937
0.508212
0.504229
0.47764
0.484376
0.674141
0.399826
0.0995436
0.311888
0.0879381
0.209711
0.102177
0.122426
0.0872849
0.0372829
0.54464
0.411099
0.305589
0.218664
)
;

boundaryField
{
    left
    {
        type            calculated;
        value           nonuniform List<scalar> 
17
(
-0.60402
-0.60402
-0.60402
-0.60402
-0.60402
-0.39598
-0.39598
-0.39598
-0.39598
-0.39598
-0.39598
-0.39598
-0.39598
-0.39598
-0.39598
-0.510051
-0.510051
)
;
    }
    right
    {
        type            calculated;
        value           nonuniform List<scalar> 
17
(
0.203925
0.380692
0.328863
0.336585
0.355279
0.406828
0.44425
0.47518
0.526889
0.572729
0.592736
0.607817
0.937487
0.832555
0.700504
0.403243
-0.10556
)
;
    }
    down
    {
        type            calculated;
        value           uniform 0;
    }
    up
    {
        type            calculated;
        value           uniform 0;
    }
    cylinder
    {
        type            calculated;
        value           uniform 0;
    }
    defaultFaces
    {
        type            empty;
    }
}


// ************************************************************************* //
