/*--------------------------------*- C++ -*----------------------------------*\
  =========                 |
  \\      /  F ield         | OpenFOAM: The Open Source CFD Toolbox
   \\    /   O peration     | Website:  https://openfoam.org
    \\  /    A nd           | Version:  13
     \\/     M anipulation  |
\*---------------------------------------------------------------------------*/
FoamFile
{
    format      ascii;
    class       surfaceScalarField;
    location    "0.535";
    object      phi;
}
// * * * * * * * * * * * * * * * * * * * * * * * * * * * * * * * * * * * * * //

dimensions      [0 3 -1 0 0 0 0];

internalField   nonuniform List<scalar> 
823
(
0.0113775
-0.050555
0.0391775
0.0387582
-0.133436
0.106056
0.0788325
-0.205878
0.165803
0.130174
-0.268868
0.217526
-0.323254
0.259406
0.194023
0.0107028
-0.0612578
0.0361427
-0.158876
0.0726481
-0.242383
0.117974
-0.314193
-0.375599
0.170318
0.00837698
-0.0696348
0.0282851
-0.178784
0.0567261
-0.270824
0.0918119
-0.349279
-0.41605
0.132264
0.00529932
-0.0749341
0.0179959
-0.191481
0.0362302
-0.289058
0.0588852
-0.371934
-0.442416
0.0852506
0.00196201
-0.0768961
0.00663018
-0.196149
0.01329
-0.295718
0.0215225
-0.380167
0.0310631
-0.451956
0.00667341
-0.0107335
0.00406
0.0222261
-0.0308707
0.015318
0.0454395
-0.0484457
0.0252322
0.0745936
-0.0638748
0.0347208
-0.076956
0.108251
0.0432986
0.005765
-0.0164985
0.0215073
-0.046613
0.0467384
-0.0736767
0.0798004
-0.0969369
-0.116045
0.118889
0.00639666
-0.0228952
0.0236676
-0.063884
0.0512568
-0.101266
0.0879506
-0.133631
-0.16009
0.131996
0.00753687
-0.030432
0.0270907
-0.0834378
0.0573258
-0.131501
0.097041
-0.173346
-0.207883
0.144834
0.00874545
0.0313633
0.0656654
0.109846
0.161369
0.322483
-0.956489
0.742256
0.473766
-0.820252
0.668969
0.570864
-0.351098
0.254
0.610389
-0.0716197
0.0320954
-0.0021726
-0.00300938
0.330632
-1.16823
0.471045
-0.960666
0.572573
-0.452626
0.622832
-0.121879
-0.0151782
0.33688
-1.37311
0.461791
-1.08558
0.561134
-0.551969
0.616757
-0.177501
-0.0347925
0.337679
-1.56596
0.44916
-1.19706
0.540208
-0.643017
0.603695
-0.240988
-0.0651734
0.327839
-1.73243
0.428896
-1.29812
0.509352
-0.723474
0.577775
-0.30941
-0.101908
1.19765
-1.58981
-1.34026
1.00802
-1.10848
0.896179
-0.611637
0.853167
-0.266398
-0.08234
1.33011
-1.13279
-1.78713
0.982842
-0.761221
0.777168
-0.405962
0.694582
-0.183813
-0.0589847
1.18964
-0.607574
-1.71485
0.816553
-0.388137
0.612232
-0.201641
0.523333
-0.094914
-0.0319674
0.822432
-0.185272
-1.24473
0.545359
-0.111064
0.396992
-0.0532733
0.328222
-0.0261448
-0.00963767
0.306731
-0.492002
0.195666
0.142393
0.116248
1.5626
0.0462515
-1.57778
1.52169
0.126161
1.46265
0.191296
1.39632
0.236656
0.250074
1.67587
0.0356524
-1.66527
1.69934
0.102697
1.73083
0.159801
1.76531
0.202181
0.228254
1.38797
0.0184776
-1.3708
1.43706
0.0536068
1.51389
0.0829759
1.61017
0.105893
0.123574
0.9777
0.00531454
-0.964537
1.01588
0.0154227
1.07582
0.0230438
1.15388
0.0278269
0.0327222
0.392987
-0.387672
0.408409
0.431453
0.45928
0.128777
0.327618
-0.264653
-0.191742
0.07816
0.273211
-0.222594
0.0385241
0.209793
-0.170158
0.0113397
0.136446
-0.109261
0.0519549
-0.0406151
0.115952
0.378903
-0.167237
0.0714958
0.317668
0.0356168
0.245673
0.0105604
0.161502
0.0625152
0.0888498
0.418274
-0.128221
0.0548102
0.351707
0.027287
0.273196
0.00806459
0.180724
0.0705798
0.0552418
0.443534
-0.0805021
0.0337633
0.373186
0.016655
0.290304
0.00486421
0.192515
0.075444
0.017481
-0.0259031
0.0105
0.00508597
0.00145207
0.0725145
0.0872416
-0.107097
-0.0526589
0.0428093
0.0736309
-0.0439256
0.0196944
0.056873
-0.0337581
0.00512553
0.0367599
-0.0221911
0.0132724
-0.00814688
0.0760449
0.12582
-0.114624
0.0437406
0.105935
0.0196563
0.0809574
0.00509499
0.0513212
0.0183674
0.0844847
0.168504
-0.127169
0.0491459
0.141274
0.0227635
0.10734
0.00618299
0.0679017
0.0245505
0.0941307
0.214653
-0.140279
0.0558159
0.179589
0.0265489
0.136607
0.00743545
0.0870152
0.0319859
0.107432
-0.157432
0.0644261
0.0308753
0.00862918
0.511992
0.17223
-0.288242
0.558478
0.166082
-0.212568
0.494636
0.312633
-0.24879
0.334062
0.803861
-0.643288
1.04035
-0.813382
0.511003
0.0572058
0.554911
0.122174
0.485197
0.382347
0.330946
0.958113
1.25667
0.510194
-0.0570089
0.541896
0.090472
0.465324
0.45892
0.328294
1.09514
1.4578
0.506524
-0.167553
0.522551
0.0744445
0.441685
0.539786
0.324337
1.21249
1.64185
0.497255
-0.268828
0.494621
0.0770791
0.413424
0.620983
0.312471
1.31344
1.79689
0.767423
-0.432231
0.849899
-0.00539736
0.957092
0.51379
1.16945
1.10108
1.61884
1.34751
0.711613
-0.539824
0.788883
-0.0826672
0.956847
0.345827
1.29825
0.759682
1.14326
1.77382
0.60297
-0.538773
0.635063
-0.11476
0.8043
0.176589
1.17272
0.391257
0.611998
1.70399
0.448561
-0.383314
0.406502
-0.0727005
0.536544
0.046547
0.816037
0.111764
0.186913
1.24112
0.220706
0.148006
0.194553
0.306316
0.493229
1.40256
-0.246793
1.46573
-0.230406
1.52299
-0.185484
1.56316
-0.120668
-0.0405298
1.75271
-0.225677
1.71977
-0.197473
1.69064
-0.156351
1.67085
-0.100879
-0.0349517
1.6015
-0.12319
1.50877
-0.104749
1.43457
-0.082143
1.38706
-0.0533683
-0.0186931
1.15106
-0.033129
1.0743
-0.0279846
1.0153
-0.0231408
0.97757
-0.0156433
-0.00565934
0.4601
0.432116
0.408975
0.393332
0.00250143
0.0430066
-0.045508
0.00732802
0.101052
-0.105879
0.0160954
0.148397
-0.157164
0.0165787
0.151911
-0.152395
0.114029
0.0148143
-0.112265
0.00682848
0.0361781
0.0201781
0.0877023
0.0409585
0.127617
0.0482557
0.144614
0.116383
0.0459021
0.00880938
0.0273687
0.027077
0.0694347
0.0521514
0.102542
0.0730927
0.123673
0.114037
0.0754388
0.00780138
0.0195674
0.0255139
0.0517222
0.049749
0.078307
0.0774311
0.0959907
0.0992454
0.0922222
0.00509908
0.0144683
0.0179737
0.0388476
0.0367669
0.0595138
0.0600077
0.0727499
0.0767486
0.0825046
0.00342451
0.0110438
0.0125822
0.0296899
0.0274431
0.0446529
0.0470525
0.0531405
0.0561614
0.0676396
0.00222545
0.00881833
0.00893157
0.0229838
0.022259
0.0313255
0.0409993
0.0344001
0.0347863
0.0623744
0.00166682
0.00715152
0.0100955
0.014555
0.0261271
0.0152939
0.046659
0.0138681
0.0115606
0.0698846
0.00370456
0.00344696
0.0174742
0.000785352
0.036787
-0.00401896
0.0597832
-0.00912811
-0.0143216
0.0856653
0.0075069
0.0236103
0.0448235
0.0704162
0.0993931
0.153711
0.0199753
-0.106047
0.243131
-0.129987
0.0405665
0.264512
-0.0380039
0.0166229
0.270574
0.00133502
-0.0073972
-0.00329915
-0.00370797
0.214592
-0.132243
0.324918
-0.240312
0.351108
-0.0641944
0.354867
-0.00242376
-0.00676959
0.2598
-0.322158
0.390872
-0.371384
0.433087
-0.106409
0.43553
-0.0048666
-0.00552161
0.292986
-0.529479
0.438005
-0.516403
0.501665
-0.170069
0.508678
-0.0118799
-0.00087496
0.312171
0.464737
0.548667
0.568883
0.0706469
0.038695
-0.109342
0.0785855
-0.00793857
0.0828791
-0.00429368
0.0806611
0.00221803
0.0009347
0.194029
-0.261381
0.226657
0.238986
0.233807
0.0207319
-0.00433149
-0.0164004
0.0342822
-0.0135502
0.0567608
-0.0224786
0.08562
-0.0288592
-0.0237219
0.0539235
-0.0434407
0.0862754
0.139236
0.202599
0.0478468
-0.0551278
0.0763406
-0.0690597
0.0275658
-0.0521476
0.0724286
0.0123384
-0.0443654
0.0595929
0.00331759
-0.0300385
0.0390593
-0.0112611
0.0145787
0.0454532
-0.0322282
-0.0683529
0.0250078
-0.0317021
0.0098475
-0.0292051
0.0021954
-0.0223864
-0.0090657
0.0561059
-0.00664079
-0.0816934
0.0331666
-0.00876283
0.0143124
-0.0103509
0.00260249
-0.0106764
-0.0064632
0.0700322
0.0215765
-0.0982495
0.0447857
0.0164837
0.0233447
0.0110901
0.00691977
0.00574851
0.000456559
0.0742427
-0.105325
0.0468009
0.024133
0.00769036
0.0165854
-0.114027
-0.0148227
0.0160948
-0.151904
0.0073068
-0.148376
0.00248919
-0.101061
-0.0430188
0.0482722
-0.116373
-0.0459271
0.0409327
-0.144565
0.0201643
-0.127608
0.00682134
-0.087718
-0.0361975
0.0731269
-0.113967
-0.0755326
0.0521243
-0.123562
0.0270655
-0.102549
0.00880637
-0.0694589
-0.0273911
0.0773424
-0.0989643
-0.0923449
0.0496217
-0.0958413
0.0254332
-0.0783606
0.00777548
-0.0518012
-0.0196156
0.0599591
-0.0825827
0.0365465
0.0177788
0.00503691
0.342024
0.583223
-0.529267
0.280856
0.224602
-0.163435
0.248096
0.0536932
-0.0209329
0.165492
0.115063
-0.0324584
-0.00060931
0.0970419
0.408154
0.571049
0.371975
0.260781
0.336284
0.0893834
0.233728
0.217619
0.164766
0.46053
0.506499
0.452107
0.269204
0.409672
0.131819
0.283784
0.343506
0.366857
0.497393
0.405086
0.515931
0.250666
0.461297
0.186453
0.317522
0.487281
0.58613
0.512823
0.550921
0.488583
0.332577
0.158667
0.351384
0.0848089
0.0738584
0.0803617
0.00444717
0.0724746
0.00788711
-0.0369268
0.109401
0.332167
0.242591
0.226106
0.201535
0.26165
0.0856714
0.02373
0.0567925
0.0288789
0.0342931
0.0224993
0.0207354
0.0135577
0.00433497
0.202797
0.139331
0.0862978
0.0539285
)
;

boundaryField
{
    left
    {
        type            calculated;
        value           nonuniform List<scalar> 
17
(
-0.60402
-0.60402
-0.60402
-0.60402
-0.60402
-0.39598
-0.39598
-0.39598
-0.39598
-0.39598
-0.39598
-0.39598
-0.39598
-0.39598
-0.39598
-0.510051
-0.510051
)
;
    }
    right
    {
        type            calculated;
        value           nonuniform List<scalar> 
17
(
0.0797264
0.231033
0.277581
0.358338
0.434282
0.504032
0.564998
0.615571
0.635837
0.636371
0.634075
0.61451
0.833599
0.671227
0.496316
0.305893
0.10661
)
;
    }
    down
    {
        type            calculated;
        value           uniform 0;
    }
    up
    {
        type            calculated;
        value           uniform 0;
    }
    cylinder
    {
        type            calculated;
        value           uniform 0;
    }
    defaultFaces
    {
        type            empty;
    }
}


// ************************************************************************* //
