/*--------------------------------*- C++ -*----------------------------------*\
  =========                 |
  \\      /  F ield         | OpenFOAM: The Open Source CFD Toolbox
   \\    /   O peration     | Website:  https://openfoam.org
    \\  /    A nd           | Version:  13
     \\/     M anipulation  |
\*---------------------------------------------------------------------------*/
FoamFile
{
    format      ascii;
    class       volScalarField;
    location    "0.535";
    object      strainRateViscosityModel:nu;
}
// * * * * * * * * * * * * * * * * * * * * * * * * * * * * * * * * * * * * * //

dimensions      [0 2 -1 0 0 0 0];

internalField   nonuniform List<scalar> 
440
(
9.41957
8.9697
8.54443
8.04233
7.58626
9.68996
9.35816
8.98174
8.48
7.87556
9.80075
9.53084
9.15876
8.58507
7.84825
9.84962
9.61817
9.25861
8.64755
7.86607
9.86917
9.65607
9.30592
8.68095
7.90879
1.30165
1.79044
2.05035
2.30081
2.36477
3.38138
3.30306
3.31926
3.42865
3.49943
5.89164
5.27186
4.92962
4.73088
4.7609
7.76973
6.99347
6.42069
5.90589
5.82871
8.82076
8.1513
7.55201
6.91839
6.87206
1.85221
0.843899
0.403653
0.130948
0.0759299
2.62037
0.914485
0.353147
0.0853269
0.0149505
3.51641
1.15808
0.298233
0.0504994
0.0108985
4.09392
1.44597
0.276663
0.0338747
0.0118096
4.60551
1.76323
0.327915
0.0130278
0.0477453
4.23083
1.74579
0.282338
0.0419335
0.247315
3.70974
1.82074
0.60531
0.321896
0.436829
4.91823
3.20879
1.22867
0.56168
0.578617
7.00949
4.29039
1.91086
0.909459
0.722632
8.27285
5.07829
2.4952
1.31945
0.905008
2.84842
3.68287
4.62018
5.50628
6.14981
3.68371
3.69643
3.77186
3.85172
3.36754
8.22657
8.0866
7.79934
7.38533
6.34603
9.05292
8.99239
8.85906
8.62153
8.1602
9.60671
9.56995
9.48702
9.33805
9.1188
7.50346
8.01245
8.55938
9.01087
9.46424
7.79402
8.45159
8.98708
9.37786
9.70865
7.77897
8.55901
9.1594
9.54077
9.80944
7.81626
8.62755
9.25739
9.62275
9.85359
7.89134
8.67366
9.30535
9.65744
9.87034
2.52243
2.46361
2.26399
2.11006
2.03794
3.47718
3.42879
3.46808
3.6863
4.23489
4.63898
4.66138
5.04976
5.59738
6.44688
5.6869
5.82819
6.49837
7.18786
8.04042
6.75458
6.84263
7.58069
8.24284
8.93547
0.194791
0.0544434
0.264474
0.847663
2.01606
0.160098
0.070501
0.211718
0.872724
2.65821
0.137685
0.0785395
0.165364
1.07987
3.4458
0.127493
0.0727995
0.163758
1.39411
3.94869
0.137658
0.0831904
0.261931
1.74346
4.36971
0.195903
0.120876
0.268633
1.87366
4.10484
0.326955
0.13987
0.255989
1.79596
3.85891
0.654825
0.276427
0.780362
3.03397
4.90626
2.27069
0.829088
1.51322
4.16168
6.96074
5.05464
2.54826
2.42833
5.03963
8.27903
5.94857
5.26732
4.40313
3.51086
2.78004
3.5213
3.99011
3.97025
3.87596
3.76355
6.32071
7.35233
7.77914
8.06782
8.21857
8.12136
8.60002
8.8495
8.98865
9.05205
9.1169
9.33779
9.4874
9.5705
9.60696
9.31079
7.91671
1.39859
3.63002
7.73664
9.08175
7.44063
3.20583
1.64065
6.78887
8.39853
6.5775
4.20833
1.00348
4.14756
6.8154
5.09453
3.45514
1.70044
1.0387
4.50353
3.14523
2.03877
1.37775
0.459823
2.59681
1.6187
1.00234
0.796483
0.926125
1.45534
0.778784
0.578929
0.611873
0.684752
0.801314
0.404555
0.588101
0.756781
0.830157
0.306107
0.504187
0.882197
1.04723
1.10875
0.160268
0.933635
1.27891
1.51464
1.56885
0.190332
0.360745
0.702912
0.771338
0.73787
0.394995
0.497399
0.571179
0.627592
0.618442
0.611697
0.642345
0.455962
0.479466
0.493144
0.962187
0.789001
0.406887
0.334714
0.359705
1.32792
0.839184
0.409964
0.208819
0.233851
1.10535
0.856637
1.11746
1.10806
1.01814
0.284118
0.470605
0.859438
0.917105
0.859811
9.19108
8.83853
7.75861
5.72993
3.55939
8.58716
7.72273
5.85138
3.49138
0.866162
0.965306
0.859433
1.02757
1.62017
2.65803
0.814992
0.769289
0.705602
0.825074
1.52523
1.05988
1.01115
0.848068
0.553584
0.740812
1.37976
1.34261
1.1449
0.794539
0.226138
1.84594
1.79932
1.54804
1.23156
0.595692
7.73617
3.62693
1.3999
7.91494
9.31093
6.78503
1.64038
3.20256
7.43752
9.08238
4.13386
1.01087
4.19423
6.57287
8.40008
1.03639
1.70582
3.43344
5.0853
6.82186
0.47653
1.3767
2.01469
3.1272
4.52636
1.3083
0.552049
0.551964
0.455764
0.176794
0.672783
0.301814
0.466914
0.521552
0.487912
0.391746
0.173797
0.377006
0.621174
0.804892
0.283838
0.0728449
0.33625
0.767444
1.21912
0.238251
0.0386466
0.309959
0.842345
1.57803
5.48023
2.46318
1.04049
0.967742
1.14205
2.88573
1.0928
0.727612
0.55954
0.25114
3.56836
5.73564
7.75979
8.83906
9.19123
0.842795
3.4716
5.8447
7.72135
8.58701
)
;

boundaryField
{
    left
    {
        type            calculated;
        value           nonuniform List<scalar> 
17
(
0.443602
1.10795
2.17929
3.91043
6.57999
0.29684
0.183767
0.136009
0.14032
0.206625
2.95788
2.05783
1.32667
0.805105
0.490015
6.97846
4.57938
)
;
    }
    right
    {
        type            calculated;
        value           nonuniform List<scalar> 
17
(
1.01846
0.861253
0.739799
0.62091
0.494911
0.358535
0.227179
0.0679517
0.0130233
0.0105956
0.0128479
0.0657898
0.304742
0.494523
0.616734
0.738179
0.896568
)
;
    }
    down
    {
        type            calculated;
        value           nonuniform List<scalar> 
20
(
5.99421
3.00105
1.14985
1.05037
1.85279
4.27031
6.38365
8.13125
9.01569
9.30918
9.30901
9.01505
8.12977
6.37956
4.26385
1.83141
0.931412
1.18398
1.16528
1.06624
)
;
    }
    up
    {
        type            calculated;
        value           nonuniform List<scalar> 
20
(
8.54861
5.4061
2.7245
1.46641
0.969122
9.69562
9.66615
9.59857
9.4742
9.29339
9.29635
9.47644
9.60016
9.66725
9.69603
5.70278
3.15545
2.66813
5.39523
8.56536
)
;
    }
    cylinder
    {
        type            calculated;
        value           nonuniform List<scalar> 
40
(
1.36515
3.58569
6.11815
7.96062
8.95719
9.50516
9.74577
9.84079
9.88145
9.89746
9.54751
9.76285
9.84855
9.88496
9.89849
2.27515
4.51161
6.69353
8.23346
9.06999
3.04371
1.84937
1.08992
0.440469
0.603995
9.51899
9.3318
8.74217
7.26949
4.98593
9.51882
9.33106
8.74012
7.26129
4.9573
2.96531
1.73194
1.07296
0.668888
0.104742
)
;
    }
    defaultFaces
    {
        type            empty;
    }
}


// ************************************************************************* //
