# Selection   : all
# Cells       : 1800
# Volume      : 7.372328e+01
# Time        	max(p)
0.35          	2.038822e+00
0.375         	2.725997e+00
0.4           	2.575385e+00
