# Selection   : all
# Cells       : 440
# Volume      : 7.374263e+01
# Time        	maxMag(U)
0.6           	2.935386e+00
0.65          	2.916102e+00
0.7           	2.892557e+00
