/*--------------------------------*- C++ -*----------------------------------*\
  =========                 |
  \\      /  F ield         | OpenFOAM: The Open Source CFD Toolbox
   \\    /   O peration     | Website:  https://openfoam.org
    \\  /    A nd           | Version:  13
     \\/     M anipulation  |
\*---------------------------------------------------------------------------*/
FoamFile
{
    format      ascii;
    class       volScalarField;
    location    "0.1475";
    object      p;
}
// * * * * * * * * * * * * * * * * * * * * * * * * * * * * * * * * * * * * * //

dimensions      [0 2 -2 0 0 0 0];

internalField   nonuniform List<scalar> 
1800
(
-0.93045
-0.876016
-0.781542
-0.677021
-0.580588
-0.496402
-0.423519
-0.359845
-0.303596
-0.257154
-1.10151
-1.04147
-0.935105
-0.817414
-0.708757
-0.613565
-0.53092
-0.458858
-0.396353
-0.345083
-1.26265
-1.19685
-1.07865
-0.948207
-0.827815
-0.72199
-0.629751
-0.54905
-0.478622
-0.419103
-1.40877
-1.33722
-1.20766
-1.06538
-0.934347
-0.819015
-0.718313
-0.630067
-0.552899
-0.487122
-1.53443
-1.45724
-1.31701
-1.16405
-1.02355
-0.899757
-0.791471
-0.696412
-0.613109
-0.541375
-1.63445
-1.55192
-1.40202
-1.23986
-1.09136
-0.960431
-0.845753
-0.744957
-0.656457
-0.579677
-1.704
-1.6166
-1.4583
-1.28868
-1.13381
-0.997214
-0.877443
-0.772065
-0.679395
-0.59853
-1.73896
-1.64731
-1.48216
-1.30708
-1.14763
-1.00694
-0.883499
-0.774811
-0.679094
-0.595172
-1.73613
-1.64091
-1.47093
-1.29247
-1.13027
-0.987137
-0.86148
-0.750811
-0.653233
-0.567334
-1.69356
-1.59577
-1.42319
-1.24315
-1.08011
-0.936243
-0.809826
-0.69846
-0.600144
-0.513322
0.348285
0.369272
0.386915
0.400244
0.408558
0.412568
0.413305
0.411613
0.408117
0.403386
0.309195
0.331264
0.351422
0.367918
0.379397
0.386302
0.389648
0.39031
0.388941
0.386247
0.243776
0.267513
0.291541
0.312866
0.329162
0.340462
0.347755
0.351969
0.353809
0.354207
0.153486
0.179434
0.208631
0.236349
0.25898
0.27604
0.288486
0.297318
0.30331
0.307711
0.0403236
0.0689896
0.104581
0.140127
0.170446
0.194467
0.213109
0.227459
0.23838
0.247506
-0.0930801
-0.0612227
-0.0181007
0.0265549
0.0657336
0.0977438
0.12346
0.144061
0.160511
0.17489
-0.243421
-0.207926
-0.156243
-0.101361
-0.0523318
-0.0114655
0.0220603
0.0495157
0.0719683
0.0919795
-0.406757
-0.367195
-0.306035
-0.239984
-0.180291
-0.129856
-0.0879088
-0.0531004
-0.0242308
0.00170826
-0.578667
-0.534591
-0.463103
-0.385024
-0.313916
-0.25323
-0.202265
-0.159613
-0.123824
-0.0917327
-0.754651
-0.705586
-0.622905
-0.531875
-0.448387
-0.376352
-0.3151
-0.263111
-0.218657
-0.179815
0.357856
0.277872
0.225224
0.182794
0.147759
0.117575
0.0899488
0.0636587
0.0379945
0.0126148
0.35374
0.278141
0.226472
0.184076
0.14873
0.11821
0.090335
0.0638763
0.0381
0.0126387
0.342989
0.27619
0.226725
0.185028
0.149681
0.118928
0.0908267
0.0641859
0.0382656
0.0126829
0.32486
0.272081
0.22603
0.185649
0.150595
0.119718
0.0914156
0.0645815
0.0384881
0.0127468
0.298403
0.265802
0.224445
0.185938
0.151457
0.120567
0.0920925
0.0650566
0.0387639
0.0128297
0.262729
0.257151
0.222006
0.185893
0.152247
0.12146
0.0928472
0.0656043
0.0390892
0.012931
0.217495
0.245654
0.218686
0.185503
0.152945
0.122381
0.0936687
0.0662169
0.0394598
0.0130501
0.163014
0.230302
0.214338
0.184745
0.15353
0.123315
0.0945455
0.0668864
0.0398714
0.0131862
0.0993756
0.209968
0.208443
0.183455
0.153944
0.124235
0.0954649
0.0676056
0.0403205
0.0133394
0.0311417
0.186177
0.201342
0.181767
0.154233
0.125155
0.0964302
0.0683733
0.0408063
0.0135134
-0.000835915
0.168695
0.194981
0.179068
0.153263
0.124972
0.0965408
0.0685404
0.040959
0.0136273
-0.0104872
0.146187
0.179747
0.169971
0.148058
0.122013
0.0948442
0.0675684
0.0404651
0.0134932
-0.00401113
0.133066
0.167966
0.161984
0.143077
0.11902
0.0930694
0.0665328
0.0399285
0.0133405
0.00667007
0.123332
0.157552
0.154473
0.138172
0.115973
0.0912221
0.0654407
0.0393546
0.0131722
0.0200286
0.116709
0.148682
0.147591
0.13347
0.112959
0.0893555
0.0643226
0.0387595
0.0129936
0.0331382
0.111952
0.14107
0.141346
0.129051
0.110052
0.0875225
0.0632103
0.0381597
0.0128093
0.0438897
0.108106
0.13445
0.135724
0.124978
0.10732
0.0857714
0.0621342
0.0375706
0.0126238
0.050961
0.104303
0.128502
0.130665
0.121278
0.104806
0.084139
0.0611186
0.0370042
0.0124406
0.0536056
0.0994941
0.122488
0.125726
0.117681
0.102342
0.0825163
0.0600913
0.0364064
0.0122293
0.0510296
0.0965817
0.119287
0.123172
0.115828
0.101071
0.0816783
0.0595625
0.0361039
0.0121271
-0.367147
-0.419821
-0.450871
-0.461218
-0.452626
-0.427542
-0.388439
-0.338061
-0.279885
-0.217488
-0.209036
-0.261831
-0.297138
-0.31585
-0.319065
-0.309227
-0.287307
-0.258246
-0.22171
-0.184986
-0.0876775
-0.138734
-0.17562
-0.198916
-0.209289
-0.209031
-0.19817
-0.181901
-0.1576
-0.133465
0.00608599
-0.043886
-0.0816097
-0.107577
-0.12234
-0.127834
-0.124041
-0.115431
-0.0998088
-0.0843495
0.0775711
0.0287065
-0.00938117
-0.0370329
-0.0547486
-0.0640626
-0.0652654
-0.0618222
-0.0524159
-0.0427451
0.132007
0.083878
0.0454972
0.0166474
-0.00315457
-0.0151048
-0.0197987
-0.0198276
-0.0146336
-0.00881708
0.17248
0.124708
0.0859639
0.0561297
0.0347507
0.0208964
0.0137691
0.0113868
0.0137071
0.0168632
0.201129
0.153246
0.113906
0.0830788
0.0603449
0.0449872
0.0361243
0.0322282
0.032784
0.0343344
0.218377
0.170049
0.129646
0.0974493
0.073186
0.0563317
0.0460501
0.0412314
0.041125
0.043216
0.229325
0.177747
0.134137
0.0984749
0.0705575
0.0501297
0.0364131
0.0291706
0.0272252
0.0305165
1.09844
1.05066
0.996376
0.938549
0.875484
0.804524
0.723504
0.632761
0.543037
0.481955
0.901674
0.847939
0.788949
0.724247
0.651722
0.569311
0.475183
0.369971
0.266172
0.195557
0.687704
0.630485
0.567557
0.496937
0.416662
0.324862
0.219635
0.101661
-0.0148935
-0.0941924
0.482547
0.420464
0.351405
0.273314
0.184452
0.0828624
-0.0335506
-0.164179
-0.293145
-0.380443
0.290718
0.222622
0.146571
0.0605657
-0.0371235
-0.148612
-0.276162
-0.419275
-0.560149
-0.65457
0.111444
0.0376269
-0.0449457
-0.138253
-0.244071
-0.364664
-0.502444
-0.657144
-0.80875
-0.9088
-0.0538069
-0.132369
-0.220462
-0.319992
-0.432746
-0.56107
-0.707533
-0.872485
-1.03427
-1.13602
-0.201723
-0.283982
-0.376504
-0.481064
-0.599423
-0.733877
-0.887064
-1.05909
-1.23292
-1.32998
-0.328799
-0.413836
-0.509749
-0.618122
-0.740769
-0.879985
-1.03755
-1.21844
-1.39075
-1.48938
-0.432805
-0.519571
-0.617582
-0.728314
-0.853773
-0.996545
-1.15842
-1.33834
-1.51212
-1.61093
2.30931
2.32701
2.34875
2.37232
2.39554
2.41749
2.4376
2.45521
2.47053
2.48236
2.25608
2.27194
2.29138
2.3123
2.3326
2.35135
2.36791
2.38168
2.39323
2.4023
2.18249
2.19569
2.2117
2.22866
2.24462
2.25859
2.26985
2.27786
2.2838
2.28884
2.08927
2.09904
2.11058
2.12238
2.13265
2.14037
2.1447
2.14513
2.14373
2.14371
1.97754
1.98317
1.98931
1.99484
1.99822
1.99836
1.99426
1.98548
1.975
1.96904
1.8487
1.84963
1.84958
1.8479
1.84333
1.83469
1.82085
1.80143
1.78042
1.76711
1.70461
1.70063
1.69392
1.68429
1.67083
1.65232
1.6275
1.59613
1.56329
1.54156
1.54866
1.53949
1.52548
1.50702
1.48368
1.45425
1.41731
1.37279
1.32702
1.29609
1.38794
1.37347
1.35101
1.32215
1.28738
1.24554
1.19505
1.13606
1.07627
1.03551
1.23267
1.20641
1.17092
1.12928
1.08181
1.02666
0.961878
0.887698
0.813362
0.762505
2.37265
1.81632
2.28011
2.07441
2.05032
2.04928
2.05728
2.0815
2.14067
2.24391
2.36549
1.80903
2.27416
2.06703
2.0421
2.03953
2.045
2.06546
2.117
2.20771
2.35917
1.80121
2.2691
2.05894
2.03305
2.02863
2.03078
2.04634
2.08665
2.15934
2.35361
1.79294
2.26492
2.05012
2.0232
2.01661
2.01469
2.02406
2.0496
2.09865
2.34873
1.78434
2.26163
2.04056
2.01262
2.00352
1.99675
1.99846
2.00565
2.02581
2.3445
1.77557
2.25919
2.0302
2.00137
1.9894
1.97703
1.96937
1.95473
1.94098
2.34086
1.76679
2.25755
2.01899
1.98952
1.97431
1.95552
1.93676
1.89834
1.84252
2.33777
1.75819
2.2566
2.00686
1.97718
1.95828
1.93221
1.90074
1.83759
1.73003
2.3352
1.75
2.25621
1.99376
1.96449
1.94137
1.90722
1.86145
1.77208
1.60175
2.33311
1.74252
2.25622
1.97968
1.95159
1.92371
1.88096
1.82035
1.70481
1.46877
2.33119
1.73474
2.25209
1.96786
1.93573
1.90071
1.84578
1.76592
1.62161
1.32606
2.33221
1.72794
2.24415
1.96012
1.9193
1.87662
1.81022
1.71439
1.54936
1.25303
2.33479
1.72307
2.23712
1.9528
1.90444
1.85457
1.77832
1.67011
1.4912
1.20458
2.3394
1.7201
2.23121
1.94616
1.8913
1.83495
1.75049
1.63277
1.44538
1.17134
2.34655
1.71896
2.22653
1.94041
1.88002
1.81806
1.72698
1.60212
1.41044
1.14838
2.35691
1.71958
2.2231
1.93573
1.87072
1.80409
1.70787
1.57785
1.38483
1.13307
2.37118
1.72185
2.22082
1.93221
1.86348
1.79314
1.69311
1.55957
1.36706
1.12378
2.3911
1.72559
2.21941
1.92988
1.85835
1.78527
1.68264
1.54692
1.35585
1.11958
2.41073
1.7304
2.2181
1.92884
1.85548
1.78061
1.67657
1.53992
1.35086
1.12136
2.46188
1.73809
2.22007
1.92708
1.85418
1.77801
1.67318
1.53592
1.3482
1.12168
1.06983
0.900666
0.709234
0.526369
0.357109
0.198623
0.0513068
-0.0818481
-0.197506
-0.292962
0.991452
0.86124
0.712515
0.564205
0.423866
0.290769
0.1654
0.0504979
-0.0514288
-0.138676
0.951418
0.845144
0.72421
0.59813
0.476306
0.360263
0.250338
0.148428
0.0567834
-0.0224699
0.930498
0.837754
0.734969
0.626004
0.518758
0.415718
0.317377
0.225317
0.141634
0.0681392
0.921893
0.837878
0.747198
0.650388
0.553513
0.459584
0.36945
0.284466
0.206447
0.13703
0.920359
0.842208
0.759522
0.671101
0.581619
0.494211
0.409931
0.33
0.256053
0.189632
0.922765
0.84867
0.771337
0.688582
0.604185
0.521277
0.441021
0.364553
0.293388
0.228966
0.927518
0.85618
0.782374
0.703214
0.622028
0.541961
0.464211
0.38986
0.320358
0.257099
0.936625
0.867127
0.79512
0.717458
0.63753
0.558485
0.481493
0.407599
0.338215
0.274744
0.949179
0.883786
0.813408
0.736107
0.656325
0.577028
0.499304
0.424295
0.353429
0.288059
-2.9351
-2.79922
-2.57211
-2.34831
-2.15651
-1.99798
-1.86865
-1.76442
-1.68248
-1.62121
-3.00586
-2.87689
-2.6532
-2.42935
-2.23596
-2.07581
-1.94528
-1.84011
-1.75752
-1.6969
-2.96017
-2.83955
-2.62343
-2.4018
-2.20853
-2.04793
-1.91671
-1.81057
-1.72645
-1.66338
-2.81128
-2.69962
-2.49514
-2.27955
-2.08912
-1.92987
-1.79905
-1.69248
-1.60696
-1.54073
-2.58121
-2.47901
-2.28951
-2.08435
-1.90049
-1.74546
-1.61717
-1.51165
-1.42577
-1.35793
-2.29641
-2.20403
-2.03223
-1.8419
-1.66899
-1.52194
-1.3993
-1.29744
-1.21333
-1.14648
-1.98319
-1.90074
-1.74847
-1.57684
-1.41918
-1.28411
-1.17073
-1.07587
-0.996564
-0.933792
-1.66379
-1.59101
-1.45894
-1.30851
-1.16924
-1.04932
-0.948176
-0.863138
-0.791609
-0.735411
-1.35434
-1.29067
-1.17835
-1.05002
-0.930808
-0.828021
-0.741253
-0.668227
-0.606648
-0.560436
-1.06449
-1.00911
-0.915097
-0.808125
-0.708795
-0.623251
-0.550979
-0.489769
-0.436631
-0.39503
-0.799297
-0.751295
-0.673768
-0.586665
-0.50647
-0.438275
-0.381779
-0.335487
-0.297249
-0.263956
-0.560517
-0.518875
-0.45559
-0.385844
-0.322413
-0.269227
-0.225819
-0.190784
-0.162614
-0.136923
-0.348423
-0.312128
-0.260804
-0.205684
-0.156342
-0.115623
-0.082868
-0.0567476
-0.0360967
-0.0171794
-0.163294
-0.13145
-0.0900873
-0.0472159
-0.00975897
0.020399
0.0440515
0.0624161
0.0765028
0.0891791
-0.00556942
0.0226197
0.0558285
0.0886171
0.11621
0.137561
0.153562
0.165321
0.173735
0.180925
0.124301
0.149575
0.176328
0.20109
0.220771
0.235026
0.244815
0.251148
0.254826
0.257379
0.225942
0.249008
0.270918
0.289628
0.3033
0.312141
0.317152
0.319266
0.319203
0.318057
0.299118
0.320661
0.339283
0.353855
0.363404
0.368512
0.370207
0.369366
0.366652
0.362854
0.34377
0.364465
0.381306
0.393622
0.400919
0.403985
0.403859
0.401387
0.397195
0.39189
0.360028
0.380552
0.397077
0.408991
0.41589
0.4186
0.418161
0.415409
0.410958
0.405345
-0.0345107
0.126009
0.154491
0.151398
0.137366
0.116939
0.0931061
0.0674866
0.0408116
0.013623
0.0554521
0.161237
0.168625
0.157174
0.138769
0.116569
0.0921808
0.0665708
0.040184
0.0134115
0.131374
0.188906
0.17945
0.16108
0.139831
0.116248
0.0913845
0.0657764
0.0396373
0.013226
0.192723
0.210636
0.188655
0.164945
0.140871
0.116029
0.090728
0.0651046
0.0391704
0.0130662
0.242385
0.228045
0.196737
0.168443
0.141874
0.115916
0.0902121
0.0645542
0.0387818
0.0129315
0.281556
0.242306
0.203852
0.17161
0.142859
0.115915
0.0898361
0.0641233
0.0384699
0.012821
0.311336
0.254006
0.210063
0.174468
0.143837
0.116027
0.089598
0.0638094
0.038233
0.0127344
0.332983
0.26337
0.21535
0.177021
0.144814
0.116253
0.0894948
0.0636097
0.0380693
0.012671
0.347588
0.270485
0.219658
0.179262
0.145794
0.116589
0.0895223
0.0635207
0.0379765
0.0126303
0.355771
0.275325
0.222954
0.181188
0.146777
0.117032
0.0896756
0.0635385
0.0379524
0.0126118
-0.227611
0.0141046
0.0999187
0.125922
0.126227
0.112992
0.0922632
0.0677809
0.0413204
0.0138887
-0.189254
0.0293858
0.106363
0.128671
0.127608
0.11336
0.0923157
0.0677295
0.041254
0.0138569
-0.161751
0.0479358
0.115898
0.133105
0.129513
0.11405
0.0924741
0.06769
0.0411672
0.0138092
-0.129837
0.0700578
0.127509
0.138699
0.1318
0.115079
0.0928225
0.0677555
0.0411407
0.0137848
-0.0901561
0.0976066
0.141804
0.145757
0.135166
0.116432
0.0933363
0.0679097
0.0411625
0.0137782
-1.55291
-1.63009
-1.61612
-1.52417
-1.37569
-1.19908
-1.01149
-0.84017
-0.677592
-0.536377
-1.55459
-1.63225
-1.61392
-1.51501
-1.3587
-1.17302
-0.974864
-0.791371
-0.61626
-0.471329
-1.55955
-1.63647
-1.61266
-1.50526
-1.33909
-1.14248
-0.937292
-0.749695
-0.582933
-0.453894
-1.57062
-1.64693
-1.61743
-1.50098
-1.32519
-1.12034
-0.912617
-0.723535
-0.560212
-0.429731
-1.58854
-1.66488
-1.63027
-1.50571
-1.32168
-1.11051
-0.899923
-0.706372
-0.537709
-0.390299
1.71337
1.69289
1.6643
1.63088
1.59315
1.54929
1.49736
1.43731
1.37704
1.33563
1.85072
1.84385
1.83025
1.81173
1.78885
1.76051
1.72527
1.68302
1.64002
1.61116
1.97986
1.97873
1.97438
1.96731
1.95695
1.94213
1.92157
1.89499
1.86723
1.84928
2.09359
2.09783
2.10105
2.10304
2.10266
2.09875
2.09022
2.07668
2.06172
2.05279
2.18743
2.19623
2.20574
2.21515
2.22297
2.22808
2.22953
2.22684
2.22251
2.22075
2.26042
2.27313
2.28786
2.30331
2.31772
2.33005
2.33948
2.34549
2.34959
2.3534
2.31246
2.32811
2.3468
2.36682
2.38621
2.40398
2.41943
2.43199
2.44242
2.45073
2.34343
2.36104
2.38239
2.4055
2.42824
2.44967
2.46919
2.48616
2.50087
2.5123
2.35318
2.37177
2.39451
2.41922
2.44371
2.46705
2.48868
2.50795
2.5249
2.53796
2.34169
2.36035
2.38322
2.40808
2.43271
2.45622
2.47804
2.49751
2.51465
2.52783
-1.43229
-1.49662
-1.57924
-1.68289
-1.81078
-1.9666
-2.15489
-2.37732
-2.60666
-2.7466
-1.14146
-1.20907
-1.29362
-1.39763
-1.52421
-1.6768
-1.85971
-2.07413
-2.31083
-2.45137
-0.769841
-0.842162
-0.930264
-1.03601
-1.16217
-1.31214
-1.49009
-1.69807
-1.91252
-2.06778
-0.351267
-0.430444
-0.522916
-0.630342
-0.755318
-0.901063
-1.07147
-1.26714
-1.46681
-1.61588
0.0689376
-0.0147934
-0.108833
-0.214804
-0.335267
-0.473299
-0.632465
-0.813035
-0.996289
-1.1327
0.455221
0.373405
0.283508
0.184062
0.0726403
-0.0535898
-0.197851
-0.360252
-0.524039
-0.644853
0.794519
0.720579
0.640126
0.551807
0.453327
0.342171
0.215572
0.0735829
-0.0688464
-0.172824
1.09341
1.02958
0.960612
0.885367
0.80139
0.706388
0.598119
0.476849
0.355819
0.26869
1.36446
1.30946
1.24928
1.18493
1.11392
1.03382
0.94273
0.841037
0.740277
0.669149
1.59213
1.54609
1.49291
1.43799
1.3797
1.31508
1.24188
1.16016
1.07951
1.02363
2.49602
1.86051
2.37278
2.09107
2.08471
2.08494
2.08168
2.07805
2.0344
1.91442
2.47887
1.85756
2.36291
2.09586
2.08436
2.08566
2.08533
2.09011
2.06578
2.00753
2.46291
1.85455
2.35259
2.09894
2.08367
2.08568
2.08884
2.10112
2.09604
2.09287
2.44813
1.85134
2.34209
2.10035
2.08245
2.08486
2.09078
2.10941
2.12182
2.15933
2.43443
1.84784
2.33168
2.10021
2.08054
2.08309
2.09117
2.11467
2.14321
2.20959
2.42176
1.84395
2.32158
2.09865
2.0778
2.0803
2.08996
2.11679
2.15922
2.24575
2.41007
1.83958
2.31193
2.09581
2.07417
2.07642
2.08709
2.11575
2.16859
2.26967
2.39934
1.83467
2.30288
2.09185
2.06961
2.07141
2.08246
2.11166
2.17151
2.28133
2.38953
1.82916
2.29451
2.08689
2.0641
2.06522
2.07599
2.10458
2.16787
2.2804
2.38065
1.82304
2.2869
2.08105
2.05766
2.05785
2.06761
2.09453
2.15762
2.26812
2.64362
1.88585
2.3866
2.09522
2.08596
2.07848
2.06046
2.03119
1.92837
1.74723
2.59017
1.87917
2.3842
2.09577
2.08564
2.07925
2.06207
2.03428
1.93439
1.74974
2.56435
1.87456
2.38475
2.09449
2.08559
2.08035
2.06498
2.04013
1.94719
1.75576
2.53845
1.8695
2.38262
2.09234
2.0854
2.08169
2.0692
2.04899
1.96722
1.77749
2.51519
1.86438
2.37952
2.08948
2.08504
2.08317
2.07443
2.06067
1.99393
1.81433
1.44182
1.30512
1.09275
0.795631
0.429703
0.0153639
-0.409662
-0.800547
-1.12922
-1.38347
1.42627
1.28459
1.07768
0.793062
0.444425
0.0452436
-0.375411
-0.773115
-1.11403
-1.37896
1.44412
1.2901
1.07698
0.797943
0.461004
0.0716826
-0.347909
-0.754154
-1.10623
-1.37972
1.49164
1.31569
1.08745
0.80853
0.477114
0.0920327
-0.328869
-0.743352
-1.10539
-1.38655
1.56837
1.36176
1.10818
0.821038
0.48908
0.105155
-0.31676
-0.737382
-1.10886
-1.39897
)
;

boundaryField
{
    left
    {
        type            zeroGradient;
    }
    right
    {
        type            fixedValue;
        value           uniform 0;
    }
    down
    {
        type            zeroGradient;
    }
    up
    {
        type            zeroGradient;
    }
    cylinder
    {
        type            zeroGradient;
    }
    defaultFaces
    {
        type            empty;
    }
}


// ************************************************************************* //
