/*--------------------------------*- C++ -*----------------------------------*\
  =========                 |
  \\      /  F ield         | OpenFOAM: The Open Source CFD Toolbox
   \\    /   O peration     | Website:  https://openfoam.org
    \\  /    A nd           | Version:  13
     \\/     M anipulation  |
\*---------------------------------------------------------------------------*/
FoamFile
{
    format      ascii;
    class       volScalarField;
    location    "0.34";
    object      p;
}
// * * * * * * * * * * * * * * * * * * * * * * * * * * * * * * * * * * * * * //

dimensions      [0 2 -2 0 0 0 0];

internalField   nonuniform List<scalar> 
1800
(
5.80103
7.90821
10.0611
11.4897
12.3243
12.7352
12.8669
12.7106
11.4661
7.37612
9.65393
12.1297
14.6348
16.319
17.3758
18.0389
18.4942
18.7342
18.0109
15.3348
16.0489
18.6738
21.3466
23.2101
24.4706
25.3527
26.004
26.3879
25.9175
24.0878
25.0462
27.6157
30.2643
32.179
33.5445
34.5538
35.3166
35.769
35.3634
33.6797
36.1064
38.4674
40.9198
42.7315
44.0561
45.0525
45.8073
46.2569
45.9071
44.3523
48.7846
50.8373
52.981
54.5875
55.7786
56.6811
57.3635
57.7743
57.4933
56.1345
62.7341
64.407
66.1629
67.495
68.4972
69.2669
69.8585
70.2356
70.0606
68.9722
77.6609
78.9026
80.2138
81.2232
81.9993
82.6132
83.1074
83.4623
83.429
82.6927
93.28
94.0598
94.8914
95.5464
96.0693
96.5068
96.8897
97.2131
97.3233
96.9889
109.31
109.615
109.947
110.221
110.459
110.68
110.897
111.111
111.272
111.299
-0.500383
-0.751755
-0.53354
-0.123931
0.341888
0.804189
1.16298
1.37489
1.51836
1.66209
-0.432532
-0.937391
-1.03668
-0.827412
-0.406471
0.0178692
0.314194
0.556352
0.832178
1.10244
0.527766
-0.425368
-1.23505
-1.39485
-1.07103
-0.76085
-0.540618
-0.234719
0.16988
0.554436
0.908126
-0.221863
-1.39828
-1.7323
-1.51332
-1.35165
-1.21712
-0.908693
-0.451785
0.0561856
0.478898
-0.481263
-1.4066
-1.69348
-1.63406
-1.63586
-1.58991
-1.32352
-0.830367
-0.135205
-0.212118
-0.724536
-1.11671
-1.24262
-1.26014
-1.31871
-1.30369
-1.08991
-0.561816
0.37237
-0.532829
-0.492986
-0.312579
-0.164151
-0.0771895
-0.0524911
-0.00885324
0.166105
0.748026
1.98025
-0.0372006
0.549949
1.27256
1.77833
2.10933
2.32496
2.47784
2.69853
3.43285
5.09723
1.41884
2.52709
3.77615
4.69828
5.36904
5.86263
6.20465
6.54654
7.53619
9.82574
3.66659
5.30959
7.12798
8.50417
9.52722
10.288
10.8114
11.2662
12.3295
14.4947
2.37267
2.51075
2.41012
2.17674
1.68692
1.27117
0.930012
0.659261
0.409328
0.146942
2.01181
2.47677
2.29359
2.07974
1.5935
1.19453
0.887362
0.63653
0.396036
0.140963
1.52735
2.44162
2.18335
1.97494
1.5037
1.12305
0.846244
0.614548
0.383422
0.135473
0.901664
2.35908
2.08005
1.86117
1.41477
1.05523
0.806739
0.594481
0.372556
0.131167
0.210515
2.18708
1.97181
1.73771
1.32503
0.991021
0.769808
0.576657
0.363593
0.128036
-0.357927
1.91349
1.83919
1.60228
1.23257
0.930624
0.736108
0.561197
0.356583
0.126047
-0.503631
1.57012
1.66658
1.45059
1.13496
0.87376
0.706132
0.548288
0.351615
0.125231
0.227464
1.24497
1.44341
1.27185
1.02702
0.818825
0.680206
0.538206
0.348826
0.12572
2.48493
1.11154
1.14844
1.03996
0.897243
0.761929
0.658034
0.531291
0.348442
0.127676
6.72079
1.48317
0.796705
0.73282
0.732943
0.698146
0.638752
0.527799
0.350937
0.131358
10.0578
2.66667
0.788484
0.504799
0.559898
0.620388
0.616211
0.52412
0.352534
0.132978
11.848
2.6598
0.348704
0.132346
0.397078
0.565914
0.596823
0.505594
0.33428
0.119631
12.9371
2.84322
0.441758
0.182972
0.479623
0.612201
0.595256
0.477739
0.309853
0.10338
14.2439
4.4108
1.3089
0.74522
0.80386
0.757521
0.62223
0.457605
0.283618
0.0844079
16.4183
7.15871
2.74454
1.63135
1.28261
0.982917
0.6841
0.448065
0.258421
0.0652663
19.3165
9.9411
4.40292
2.62543
1.84198
1.26354
0.782509
0.456225
0.239377
0.0484589
21.8272
12.0133
5.93563
3.60404
2.4291
1.5724
0.907495
0.482506
0.229806
0.036356
23.1077
13.1987
7.13702
4.51226
3.01377
1.89051
1.0492
0.525668
0.231879
0.0308249
23.0471
13.577
7.99742
5.36146
3.60611
2.22484
1.21123
0.5893
0.249474
0.0337146
22.494
13.8012
8.76755
6.22066
4.22905
2.59667
1.41241
0.688387
0.296915
0.0492324
111.855
97.909
84.144
71.1387
59.1994
48.4193
38.8379
30.1611
20.1493
5.04271
112.835
99.5468
86.0457
73.0393
60.9966
50.1165
40.5845
32.3278
23.6638
11.5492
113.367
100.281
87.3999
75.0731
63.5342
52.9424
43.5132
35.3258
27.5409
18.4068
114.579
102.838
90.8787
79.0468
67.6888
57.0923
47.4583
38.8574
31.1504
23.8871
115.156
104.145
93.2242
82.533
72.1856
62.2604
52.7967
43.8842
36.0638
29.8829
115.506
104.778
94.2718
84.1102
74.3897
65.1606
56.4014
48.16
41.1178
36.0997
115.737
105.178
94.8666
84.9345
75.4919
66.6117
58.3033
50.6362
44.2829
40.1641
115.838
105.316
95.0498
85.1784
75.8244
67.0787
58.9752
51.5822
45.466
41.5072
115.787
105.101
94.6754
84.6564
75.1773
66.345
58.2152
50.8461
44.6227
40.1704
115.664
104.717
94.0295
83.7521
74.0268
64.9768
56.6823
49.1879
42.6794
37.485
234.206
229.849
228.287
227.849
227.76
228.013
228.748
230.13
232.282
234.422
225.639
222.626
221.581
221.544
221.772
222.258
223.189
224.798
227.269
229.746
216.124
213.953
213.183
213.309
213.742
214.446
215.572
217.342
219.956
222.555
205.816
203.791
203.089
203.286
203.831
204.661
205.885
207.694
210.263
212.783
194.491
192.584
191.93
192.119
192.651
193.464
194.641
196.335
198.69
200.981
182.123
180.4
179.807
179.949
180.403
181.114
182.15
183.628
185.658
187.623
168.776
167.315
166.822
166.924
167.281
167.854
168.693
169.886
171.514
173.085
154.642
153.526
153.171
153.249
153.505
153.917
154.524
155.387
156.557
157.685
140.032
139.318
139.112
139.161
139.306
139.541
139.892
140.393
141.075
141.732
125.506
125.163
125.022
124.975
124.963
124.985
125.052
125.171
125.348
125.524
246.553
246.786
247.03
247.244
247.544
248.038
248.578
248.912
248.929
248.43
246.661
246.988
247.384
247.682
247.879
248.21
248.623
248.542
247.749
246.744
246.703
247.097
247.538
247.846
247.928
248.059
248.337
247.976
246.596
245.343
246.605
247.106
247.535
247.767
247.703
247.596
247.638
247.216
245.915
244.75
246.122
246.778
247.171
247.283
247.112
246.844
246.677
246.321
245.507
244.708
244.914
245.761
246.105
246.08
245.859
245.584
245.396
245.229
244.987
244.695
242.566
243.667
244.015
243.911
243.711
243.554
243.525
243.66
243.968
244.205
238.68
240.171
240.649
240.592
240.517
240.574
240.815
241.313
242.127
242.866
233.205
235.265
235.981
236.056
236.187
236.537
237.127
238.033
239.339
240.551
227.848
229.719
230.47
230.642
230.953
231.572
232.515
233.867
235.715
237.424
247.056
246.815
246.787
246.57
246.459
246.28
245.921
245.674
245.584
245.727
247.018
246.813
246.782
246.571
246.457
246.289
245.947
245.681
245.424
245.779
246.991
246.808
246.773
246.565
246.451
246.299
245.971
245.656
245.219
245.894
246.972
246.8
246.761
246.554
246.441
246.308
245.984
245.591
245.023
246.1
246.959
246.791
246.747
246.538
246.427
246.309
245.98
245.499
244.898
246.343
246.951
246.78
246.732
246.518
246.41
246.3
245.958
245.411
244.87
246.447
246.95
246.768
246.715
246.496
246.39
246.278
245.927
245.354
244.908
246.105
246.954
246.755
246.698
246.472
246.367
246.249
245.905
245.344
244.918
244.861
246.964
246.739
246.678
246.446
246.343
246.228
245.926
245.403
244.73
242.08
246.981
246.72
246.654
246.418
246.32
246.233
246.018
245.514
244.043
237.362
247.016
246.7
246.619
246.377
246.269
246.169
245.921
245.158
242.486
233.791
247.131
246.687
246.591
246.341
246.228
246.232
246.145
245.373
242.222
231.842
247.379
246.7
246.569
246.28
246.153
246.213
246.183
245.323
241.959
230.593
247.849
246.764
246.555
246.21
246.01
245.944
245.745
244.647
240.583
229.398
248.705
246.844
246.58
246.112
245.795
245.42
244.843
243.324
238.107
227.547
250.521
246.917
246.675
246.029
245.509
244.745
243.721
241.631
235.444
224.985
254.395
247.212
246.815
245.959
245.164
244.029
242.603
239.994
233.358
222.641
262.697
248.345
247.075
245.903
244.8
243.342
241.594
238.694
232.11
221.38
280.259
251.076
247.711
245.926
244.453
242.696
240.686
237.76
231.665
221.409
306.232
255.123
249.207
246.126
244.168
242.082
239.806
236.946
231.395
221.937
236.49
221.136
210.513
201.199
191.039
179.735
167.34
153.968
139.923
125.793
230.091
217.793
208.643
199.925
189.99
178.753
166.408
153.158
139.434
125.96
223.561
214.196
206.019
197.495
187.782
176.941
165.189
152.688
139.669
126.491
218.462
210.954
202.962
194.112
184.267
173.5
162.005
150.06
137.995
126.161
213.068
206.671
198.674
189.576
179.904
169.765
159.214
148.347
137.291
126.199
207.454
202.156
194.895
186.424
177.427
167.972
158.053
147.731
137.112
126.324
203.65
199.211
192.624
184.728
176.197
167.112
157.492
147.418
137.007
126.397
202.367
198.111
191.768
184.157
175.845
166.91
157.391
147.389
137.03
126.462
203.693
198.981
192.533
184.95
176.619
167.604
157.968
147.822
137.308
126.576
206.367
200.935
194.2
186.491
177.996
168.766
158.884
148.481
137.705
126.713
112.245
112.414
112.499
112.35
111.843
111.482
111.298
111.582
111.575
111.326
89.6741
90.1373
90.3558
89.9222
88.4904
87.4042
86.7834
87.445
87.4826
86.8962
68.8354
69.4628
69.7239
69.0571
67.118
65.4065
64.3865
64.9352
65.2396
64.6846
50.7217
51.3278
51.5171
50.6939
48.7151
46.5494
45.2196
45.255
45.9934
45.7602
36.0801
36.488
36.538
35.6565
33.8649
31.5494
29.9059
29.3407
30.1483
30.3361
25.0309
25.1339
25.0114
24.0881
22.5108
20.4819
18.6914
17.7499
18.0049
18.505
17.1469
16.9961
16.7807
15.7897
14.3756
12.8727
11.3855
10.3207
9.98083
10.3472
11.6619
11.4844
11.4352
10.4359
9.11748
8.116
7.22467
6.38188
5.79329
5.70931
7.98928
7.90035
8.1954
7.3278
6.16251
5.57233
5.24355
4.8589
4.37483
3.9949
6.12107
5.91563
6.29991
5.56263
4.69411
4.41821
4.44202
4.43242
4.27969
3.88359
5.35482
5.11749
5.19856
4.50493
3.97329
3.91694
4.0663
4.20865
4.32945
4.38585
4.92979
4.81986
4.54098
3.87489
3.58893
3.67554
3.87801
4.0451
4.1645
4.25052
4.55436
4.5086
4.07525
3.52413
3.40304
3.56454
3.78817
3.96622
4.0838
4.14396
4.10344
4.0475
3.64022
3.28777
3.29585
3.49701
3.7084
3.86482
3.96293
4.0041
3.56015
3.466
3.19156
3.07017
3.1847
3.39919
3.58768
3.72429
3.80508
3.8287
2.91597
2.82026
2.75811
2.84543
3.03977
3.24242
3.40703
3.52571
3.59221
3.60548
2.19975
2.21345
2.34395
2.57467
2.80804
3.00531
3.15992
3.27299
3.33859
3.35374
1.53116
1.64682
1.89341
2.1822
2.4355
2.64836
2.82274
2.9598
3.04628
3.07427
0.862198
0.997592
1.26783
1.59012
1.89428
2.16116
2.39434
2.57686
2.68175
2.7199
0.195422
0.113477
0.341732
0.743991
1.15566
1.5294
1.84825
2.06276
2.16719
2.22984
3.73885
3.78199
3.65214
3.32358
2.67707
1.98945
1.39816
0.916896
0.501993
0.149975
3.81141
3.75543
3.60165
3.30763
2.63708
1.93107
1.34535
0.88258
0.48674
0.151308
3.83801
3.65067
3.49028
3.25383
2.5924
1.87512
1.29466
0.850461
0.473668
0.152915
3.80011
3.47758
3.339
3.15213
2.53442
1.82001
1.246
0.820507
0.462535
0.154214
3.69509
3.27375
3.17395
3.00055
2.45168
1.7617
1.19882
0.792511
0.453005
0.155106
3.53576
3.0804
3.01803
2.82042
2.33857
1.69702
1.15313
0.766574
0.44481
0.155516
3.34628
2.91625
2.87906
2.64387
2.19915
1.62336
1.10871
0.742787
0.437701
0.155357
3.14102
2.77952
2.75547
2.49318
2.04954
1.53934
1.06483
0.721035
0.431405
0.154576
2.91622
2.6639
2.64051
2.37194
1.90969
1.44752
1.0206
0.701469
0.426085
0.153327
2.66319
2.57175
2.52666
2.27079
1.78973
1.35572
0.975134
0.682053
0.421164
0.151772
5.49949
4.05436
3.35833
2.9777
2.50128
1.98031
1.46649
0.985138
0.542824
0.15773
4.69597
3.83393
3.39389
3.03811
2.54139
1.98984
1.45801
0.972824
0.532674
0.153357
4.02628
3.74204
3.45406
3.10674
2.58003
1.99771
1.44968
0.962194
0.525159
0.150638
3.70651
3.74248
3.53882
3.18623
2.6204
2.00466
1.44087
0.952263
0.519278
0.149433
3.69177
3.78523
3.64016
3.27793
2.66538
2.01108
1.43018
0.941379
0.513901
0.149683
112.075
89.0125
67.9655
50.1976
36.186
25.8682
18.6999
13.8255
10.6441
8.83018
111.854
88.4502
67.2594
49.4633
35.3837
24.8639
17.3962
12.2922
9.15003
7.65009
111.668
87.97
66.6212
48.7227
34.4725
23.6912
15.9759
10.7576
7.61378
6.15604
111.458
87.3963
65.7809
47.6579
33.1479
22.0973
14.2046
8.97333
5.88873
4.51339
111.204
86.6683
64.6517
46.1849
31.348
20.0299
12.0363
7.00145
4.51932
3.70394
243.794
243.831
243.95
244.122
244.336
244.346
243.844
243.143
243.244
243.019
244.008
244.079
244.192
244.381
244.652
244.827
244.611
243.962
243.701
243.592
244.205
244.253
244.366
244.561
244.845
245.106
245.08
244.574
244.143
244.09
244.447
244.479
244.576
244.748
245.003
245.289
245.394
245.125
244.737
244.667
244.716
244.733
244.814
244.961
245.173
245.433
245.635
245.637
245.472
245.379
244.998
245.01
245.078
245.199
245.371
245.598
245.865
246.104
246.207
246.194
245.261
245.279
245.36
245.493
245.669
245.899
246.196
246.55
246.846
246.965
245.535
245.554
245.652
245.841
246.092
246.389
246.745
247.149
247.504
247.68
245.905
245.936
246.017
246.24
246.604
247.047
247.543
248.05
248.383
248.346
246.299
246.406
246.507
246.701
247.099
247.657
248.246
248.786
249.128
248.923
136.553
136.294
136.271
136.534
136.316
135.918
135.377
135.205
135.276
135.441
160.999
160.402
160.424
161.062
160.409
159.286
157.823
157.366
157.572
158.03
183.239
182.673
182.96
183.483
182.433
180.688
178.72
178.031
178.279
178.902
202.202
201.956
202.675
202.685
201.327
199.13
197.123
196.279
196.457
197.058
217.67
217.844
218.629
218.041
216.373
214.029
212.208
211.305
211.344
211.748
229.547
230.029
230.259
229.299
227.491
225.436
223.826
222.88
222.746
222.846
237.745
238.08
237.717
236.643
235.151
233.624
232.174
231.157
230.931
230.778
242.398
242.276
241.666
240.832
239.955
238.938
237.586
236.56
236.499
236.32
244.12
243.699
243.205
242.848
242.552
241.967
240.779
239.884
240.167
240.081
244.258
243.831
243.678
243.699
243.772
243.531
242.66
241.9
242.282
242.092
254.914
246.958
247.583
246.375
246.117
245.609
245.049
244.673
244.539
244.572
252.082
246.894
247.397
246.36
246.169
245.67
245.066
244.709
244.618
244.545
250.164
246.902
247.177
246.362
246.224
245.735
245.111
244.806
244.787
244.577
248.987
246.929
246.97
246.386
246.28
245.805
245.194
244.962
245.012
244.682
248.306
246.929
246.839
246.427
246.334
245.885
245.323
245.15
245.245
244.847
247.857
246.884
246.805
246.474
246.382
245.974
245.488
245.327
245.44
245.044
247.544
246.833
246.801
246.511
246.42
246.071
245.652
245.465
245.581
245.241
247.334
246.81
246.795
246.537
246.438
246.163
245.778
245.557
245.668
245.421
247.199
246.808
246.792
246.554
246.447
246.233
245.854
245.614
245.702
245.573
247.112
246.812
246.791
246.564
246.455
246.268
245.894
245.649
245.677
245.674
317.418
253.839
249.988
247.035
246.223
245.66
245.311
244.975
244.275
242.753
295.686
251.451
248.869
246.807
246.141
245.63
245.265
244.944
244.486
243.553
277.245
249.295
248.274
246.638
246.1
245.609
245.214
244.885
244.567
244.226
265.842
247.95
247.95
246.513
246.082
245.596
245.154
244.801
244.556
244.554
259.07
247.22
247.728
246.41
246.078
245.585
245.084
244.697
244.51
244.586
239.329
237.479
234.264
229.358
222.157
211.806
197.759
179.958
158.886
135.809
240.511
238.975
235.801
230.666
223.166
212.612
198.496
180.666
159.449
136.03
242.024
240.526
237.345
232.094
224.345
213.528
199.239
181.306
159.93
136.217
243.687
242.281
239.153
233.88
225.947
214.857
200.306
182.147
160.504
136.426
244.474
243.638
241.136
236.067
228.026
216.661
201.781
183.277
161.231
136.679
)
;

boundaryField
{
    left
    {
        type            zeroGradient;
    }
    right
    {
        type            fixedValue;
        value           uniform 0;
    }
    down
    {
        type            zeroGradient;
    }
    up
    {
        type            zeroGradient;
    }
    cylinder
    {
        type            zeroGradient;
    }
    defaultFaces
    {
        type            empty;
    }
}


// ************************************************************************* //
