/*--------------------------------*- C++ -*----------------------------------*\
  =========                 |
  \\      /  F ield         | OpenFOAM: The Open Source CFD Toolbox
   \\    /   O peration     | Website:  https://openfoam.org
    \\  /    A nd           | Version:  13
     \\/     M anipulation  |
\*---------------------------------------------------------------------------*/
FoamFile
{
    format      ascii;
    class       surfaceScalarField;
    location    "0.34";
    object      phi;
}
// * * * * * * * * * * * * * * * * * * * * * * * * * * * * * * * * * * * * * //

dimensions      [0 3 -1 0 0 0 0];

internalField   nonuniform List<scalar> 
3485
(
0.00137161
-0.0112584
0.00988682
0.00505109
-0.0319075
0.028228
0.0107643
-0.0513834
0.0456701
0.0183132
-0.0696767
0.0621279
0.027547
-0.0868338
0.0776
0.0383515
-0.102898
0.0920939
0.0506382
-0.117902
0.105615
0.0643643
-0.131864
0.118138
0.0796271
-0.144851
0.129588
-0.156882
0.139486
0.0970225
0.0015003
-0.0127587
0.0054458
-0.035853
0.0114763
-0.0574139
0.0193241
-0.0775245
0.0287741
-0.0962838
0.039649
-0.113773
0.0518049
-0.130057
0.0651338
-0.145193
0.0795444
-0.159262
-0.172188
0.0948508
0.00147415
-0.0142329
0.00532697
-0.0397058
0.0111746
-0.0632615
0.0187213
-0.0850711
0.0277263
-0.105289
0.0379903
-0.124037
0.0493476
-0.141415
0.0616586
-0.157504
0.0747914
-0.172395
-0.186031
0.0886345
0.00133885
-0.0155717
0.00485904
-0.043226
0.010211
-0.0686135
0.0171175
-0.0919776
0.0253548
-0.113526
0.0347419
-0.133425
0.045133
-0.151806
0.056408
-0.168779
0.0684604
-0.184447
-0.198787
0.0812166
0.00116693
-0.0167387
0.00425605
-0.0463151
0.00897337
-0.0733308
0.0150822
-0.0980865
0.0223927
-0.120837
0.0307541
-0.141786
0.0400487
-0.1611
0.050184
-0.178914
0.0610824
-0.195345
-0.210401
0.072696
0.000980044
-0.0177187
0.00358806
-0.0489231
0.00758691
-0.0773296
0.0127845
-0.103284
0.0190271
-0.127079
0.0261942
-0.148953
0.0341939
-0.1691
0.0429568
-0.187677
0.052428
-0.204816
-0.220549
0.0625765
0.000780759
-0.0184995
0.00286515
-0.0510075
0.00606933
-0.0805338
0.0102435
-0.107458
0.0152676
-0.132103
0.0210483
-0.154734
0.0275165
-0.175568
0.0346236
-0.194784
0.0423353
-0.212528
-0.228852
0.0506381
0.000569744
-0.0190692
0.00209362
-0.0525314
0.00443824
-0.0828784
0.00749333
-0.110513
0.0111697
-0.13578
0.0153983
-0.158962
0.0201296
-0.180299
0.0253322
-0.199986
0.0309899
-0.218186
-0.23497
0.0371074
0.000352552
-0.0194218
0.00129593
-0.0534748
0.00274537
-0.0843279
0.00462894
-0.112397
0.00688738
-0.138038
0.00947435
-0.161549
0.0123569
-0.183182
0.0155164
-0.203146
0.0189474
-0.221617
-0.238687
0.0226647
0.00013784
-0.0195596
0.00050262
-0.0538395
0.00105728
-0.0848825
0.00177005
-0.11311
0.00261444
-0.138882
0.00356935
-0.162504
0.00461928
-0.184232
0.00575472
-0.204281
0.0069722
-0.222835
0.00827682
-0.239992
0.000505731
-0.00188025
0.00137452
0.00212992
-0.00625674
0.00463255
0.00546653
-0.0113551
0.00801846
0.0101473
-0.0160932
0.0114124
0.0155796
-0.020086
0.0146537
0.0214931
-0.023492
0.0175785
0.0279711
-0.0266747
0.0201967
0.0351577
-0.0298604
0.0226739
0.0430417
-0.0330094
0.0251254
-0.0359748
0.0514938
0.0275227
0.000427669
-0.00230792
0.00211647
-0.00794554
0.00545312
-0.0146917
0.0098546
-0.0204947
0.0149567
-0.0251881
0.0208551
-0.0293904
0.0277191
-0.0335386
0.0355034
-0.0376447
0.0440036
-0.0415096
-0.0450268
0.0530555
0.000680422
-0.00298835
0.00271058
-0.0099757
0.00579509
-0.0177763
0.0098081
-0.0245077
0.0148879
-0.0302679
0.0212024
-0.0357049
0.028687
-0.0410233
0.0370695
-0.0460271
0.046132
-0.0505721
-0.0546757
0.0557808
0.000865838
-0.00385419
0.00305674
-0.0121666
0.006093
-0.0208125
0.0102366
-0.0286513
0.015752
-0.0357833
0.0226244
-0.0425773
0.0306164
-0.0490153
0.0394923
-0.054903
0.0491539
-0.0602337
-0.0650402
0.0595184
0.00092061
-0.0047748
0.00319831
-0.0144443
0.00652791
-0.0241421
0.0111391
-0.0332626
0.0171692
-0.0418133
0.0244956
-0.0499037
0.0329281
-0.0574479
0.0423671
-0.0643419
0.0527476
-0.0706142
-0.0762302
0.0639376
0.000942278
-0.00571708
0.00337154
-0.0168736
0.00709584
-0.0278664
0.0121862
-0.0383529
0.0186526
-0.0482797
0.0263852
-0.0576363
0.035287
-0.0663497
0.0453091
-0.074364
0.0563722
-0.0816774
-0.0881767
0.0683187
0.000979081
-0.00669616
0.00358326
-0.0194777
0.00764293
-0.0319261
0.0131123
-0.0438223
0.0199357
-0.0551031
0.0280273
-0.0657279
0.0373249
-0.0756473
0.0477818
-0.0848209
0.0593245
-0.0932201
-0.10066
0.0718081
0.00101751
-0.00771367
0.0037671
-0.0222273
0.00807127
-0.0362303
0.0138217
-0.0495727
0.0209239
-0.0622053
0.0292893
-0.0740933
0.0388484
-0.0852064
0.0495444
-0.0955168
0.0613183
-0.104994
-0.113412
0.0740698
0.00105433
-0.008768
0.00393621
-0.0251092
0.0084607
-0.0407548
0.0144826
-0.0555946
0.0218758
-0.0695985
0.0305301
-0.0827477
0.0403505
-0.0950268
0.0512482
-0.106415
0.0631422
-0.116888
-0.126297
0.0760274
0.00111882
0.00423759
0.00915296
0.0156862
0.0236878
0.033034
0.043622
0.055345
0.0680452
0.0812344
0.114365
-0.413136
0.350265
0.16803
-0.469603
0.415939
0.209767
-0.418696
0.376958
0.242813
-0.322765
0.289719
0.268139
-0.210341
0.185015
0.28606
-0.104886
0.086965
0.29596
-0.0331155
0.0232152
0.300255
-0.00680612
0.00251134
0.301673
-0.00229688
0.000879431
0.000440287
0.00045384
0.116086
-0.476167
0.169823
-0.523341
0.211662
-0.460535
0.244508
-0.355611
0.269781
-0.235614
0.287475
-0.12258
0.297062
-0.0427023
0.301186
-0.0109303
0.302774
-0.00388538
0.00119898
0.117974
-0.538361
0.170817
-0.576183
0.212413
-0.502131
0.244824
-0.388022
0.269977
-0.260767
0.28731
-0.139914
0.296535
-0.0519265
0.300654
-0.0150494
0.302387
-0.00561861
0.00176838
0.120374
-0.599216
0.171273
-0.627082
0.212136
-0.542995
0.243879
-0.419764
0.268839
-0.285727
0.285955
-0.157029
0.295155
-0.061127
0.299675
-0.0195692
0.301834
-0.00777739
0.00188219
0.123253
-0.658531
0.171407
-0.675236
0.210948
-0.582536
0.241778
-0.450594
0.266422
-0.310371
0.283541
-0.174148
0.293102
-0.0706879
0.298342
-0.0248094
0.301173
-0.010609
0.00129026
0.126077
-0.71629
0.171276
-0.720435
0.208949
-0.620209
0.238621
-0.480266
0.262771
-0.334521
0.280104
-0.191481
0.290416
-0.0810003
0.296671
-0.0310643
0.300409
-0.0143467
-0.00025035
0.127983
-0.772465
0.170718
-0.76317
0.206223
-0.655714
0.23453
-0.508573
0.257965
-0.357956
0.275656
-0.209173
0.28711
-0.092454
0.294675
-0.0386288
0.299545
-0.0192174
-0.00297472
0.128037
-0.826432
0.169263
-0.804396
0.202663
-0.689115
0.229511
-0.53542
0.252028
-0.380473
0.270153
-0.227298
0.283157
-0.105458
0.29235
-0.0478219
0.298576
-0.0254434
-0.00712493
0.125935
-0.876339
0.166508
-0.844969
0.19824
-0.720847
0.223694
-0.560874
0.245104
-0.401884
0.263635
-0.245829
0.278542
-0.120364
0.289671
-0.0589509
0.297457
-0.0332295
-0.0129309
0.122231
-0.917336
0.161652
-0.88439
0.192085
-0.75128
0.216425
-0.585213
0.236764
-0.422223
0.255726
-0.26479
0.273039
-0.137677
0.286307
-0.0722188
0.295066
-0.0419888
-0.0199128
0.58385
-0.919757
-0.581429
0.561082
-0.861622
0.523838
-0.714035
0.487417
-0.548792
0.459382
-0.394188
0.447149
-0.252557
0.448918
-0.139447
0.449298
-0.0725984
0.444569
-0.03726
-0.0177816
0.682772
-0.871127
-0.731403
0.619692
-0.798542
0.554217
-0.64856
0.49769
-0.492265
0.455608
-0.352106
0.433372
-0.230321
0.423535
-0.129609
0.415493
-0.0645572
0.409687
-0.0314539
-0.0155415
0.754067
-0.774786
-0.850407
0.655493
-0.699968
0.564477
-0.557544
0.489803
-0.417591
0.433955
-0.296258
0.39963
-0.195995
0.383913
-0.113892
0.376242
-0.0568867
0.371198
-0.0264101
-0.0131281
0.779234
-0.641463
-0.912558
0.654304
-0.575037
0.547349
-0.450589
0.463012
-0.333254
0.401425
-0.234671
0.362057
-0.156628
0.342262
-0.094097
0.333187
-0.0478124
0.328265
-0.0214873
-0.0107069
0.753184
-0.492328
-0.902319
0.617963
-0.439815
0.506902
-0.339528
0.421419
-0.247772
0.359844
-0.173096
0.319447
-0.11623
0.297411
-0.0720611
0.287358
-0.0377598
0.282576
-0.016705
-0.00833251
0.685214
-0.345789
-0.831752
0.552916
-0.307518
0.446859
-0.23347
0.366795
-0.167708
0.309814
-0.116115
0.271944
-0.0783601
0.249918
-0.0500351
0.239341
-0.0271835
0.234619
-0.0119822
-0.00603038
0.58267
-0.213844
-0.714616
0.462994
-0.187842
0.36953
-0.140006
0.300396
-0.0985746
0.251876
-0.0675945
0.219381
-0.0458652
0.199493
-0.0301471
0.189338
-0.0170287
0.184869
-0.00751304
-0.00387903
0.44878
-0.105519
-0.557105
0.351225
-0.090286
0.277158
-0.0659389
0.223761
-0.0451778
0.186869
-0.0307022
0.162019
-0.0210156
0.146126
-0.0142546
0.137486
-0.00838852
0.133637
-0.00366408
-0.00200783
0.286597
-0.0302203
-0.361896
0.220926
-0.0246143
0.172528
-0.0175407
0.138807
-0.0114569
0.115806
-0.00770119
0.100146
-0.00535629
0.0896965
-0.00380483
0.0836904
-0.00238238
0.0810343
-0.00100795
-0.000641148
0.101315
-0.131536
0.076701
0.0591604
0.0477035
0.0400023
0.034646
0.0308412
0.0284588
0.0274509
0.738829
0.0102245
-0.740777
0.733082
0.0284119
0.723441
0.0467484
0.710165
0.0639142
0.693568
0.0791735
0.674069
0.0921949
0.652259
0.103027
0.62869
0.112203
0.604236
0.119305
0.119829
0.845555
0.0134009
-0.848731
0.837326
0.0366415
0.827289
0.0567848
0.816591
0.0746121
0.805244
0.090521
0.792883
0.104555
0.779262
0.116648
0.764556
0.126909
0.749079
0.134782
0.137505
0.844997
0.0114289
-0.843025
0.848899
0.0327401
0.853038
0.0526452
0.856491
0.0711591
0.858852
0.0881599
0.859936
0.103471
0.859607
0.116978
0.85797
0.128545
0.855292
0.13746
0.142389
0.800221
0.00930778
-0.7981
0.805831
0.0271305
0.814431
0.0440444
0.825655
0.0599353
0.839028
0.0747869
0.853887
0.0886119
0.869468
0.101397
0.885113
0.112901
0.900007
0.122566
0.129839
0.737871
0.00704171
-0.735605
0.744161
0.020841
0.754132
0.0340738
0.767514
0.0465527
0.784098
0.0582031
0.803683
0.0690273
0.826021
0.0790588
0.85067
0.0882519
0.876611
0.0966253
0.10413
0.653924
0.00485632
-0.651739
0.660207
0.0145579
0.670383
0.0238977
0.684227
0.0327086
0.701533
0.0408973
0.722123
0.0484377
0.745822
0.0553595
0.772353
0.0617205
0.801252
0.0677262
0.0736306
0.549113
0.00291769
-0.547175
0.554814
0.00885705
0.564141
0.0145713
0.576909
0.0199405
0.592919
0.0248871
0.611974
0.0293831
0.633878
0.0334547
0.658417
0.0371814
0.685395
0.0407484
0.0444098
0.422792
0.00137657
-0.421251
0.427413
0.00423651
0.435008
0.00697592
0.445423
0.00952598
0.458471
0.0118387
0.473959
0.0138956
0.4917
0.0157138
0.511531
0.0173498
0.533352
0.0189275
0.020657
0.273828
0.00036692
-0.272818
0.276915
0.00114959
0.281999
0.00189181
0.288955
0.0025694
0.29763
0.00316439
0.307856
0.00366903
0.319482
0.00408791
0.332395
0.00443655
0.346562
0.00476032
0.00532321
0.100483
-0.100116
0.101633
0.103525
0.106094
0.109259
0.112928
0.117016
0.121452
0.126212
0.0779698
0.159468
-0.142444
-0.0949945
0.0630559
0.147433
-0.132519
0.0496385
0.134386
-0.120968
0.0376171
0.120318
-0.108297
0.0270353
0.105162
-0.0945802
0.017983
0.0888898
-0.0798375
0.0105755
0.071459
-0.0640515
0.00496438
0.0528098
-0.0471987
0.00134826
0.0328756
-0.0292594
0.0116399
-0.0102916
0.0779694
0.174409
-0.0929098
0.0638913
0.161511
0.0508534
0.147423
0.0389469
0.132225
0.0282814
0.115827
0.0190032
0.098168
0.0112909
0.0791712
0.00536006
0.0587407
0.00147729
0.0367583
0.0131171
0.0732009
0.187912
-0.0867041
0.0603847
0.174327
0.0483599
0.159448
0.0372545
0.14333
0.0272063
0.125876
0.0183808
0.106994
0.0109771
0.0865749
0.00523543
0.0644824
0.00144959
0.0405442
0.0145667
0.0667869
0.200343
-0.0792183
0.0550439
0.18607
0.0440563
0.170436
0.0339257
0.153461
0.0247685
0.135033
0.0167278
0.115034
0.00998184
0.0933208
0.00475139
0.0697128
0.00130958
0.043986
0.0158763
0.0593241
0.211652
-0.0706327
0.0487233
0.196671
0.0388724
0.180287
0.029844
0.162489
0.0217257
0.143151
0.0146301
0.12213
0.00870239
0.0992485
0.00412635
0.0742889
0.0011309
0.0469814
0.0170072
0.0506063
0.221519
-0.0604737
0.0414166
0.20586
0.032931
0.188772
0.0251992
0.170221
0.0182847
0.150066
0.0122724
0.128142
0.00727497
0.104246
0.00343644
0.0781274
0.00093723
0.0494806
0.0179444
0.0404626
0.229565
-0.0485079
0.0330163
0.213307
0.0261786
0.19561
0.0199785
0.176421
0.0144579
0.155586
0.00967759
0.132922
0.00572039
0.108203
0.00269368
0.0811541
0.000731794
0.0514425
0.0186762
0.0290573
0.235444
-0.0349364
0.0236532
0.218711
0.0187158
0.200547
0.0142557
0.180881
0.0102964
0.159546
0.00687748
0.136341
0.00405549
0.111025
0.00190417
0.0833054
0.000515241
0.0528314
0.0191915
0.0169187
0.238929
-0.0204039
0.0137425
0.221887
0.0108551
0.203435
0.00825477
0.183481
0.0059513
0.161849
0.00396627
0.138326
0.00233199
0.112659
0.00109054
0.0845469
0.000293198
0.0536288
0.0194847
0.00482741
-0.00589023
0.00387988
0.00303344
0.00228283
0.00162766
0.00107161
0.000621346
0.000285682
7.49255e-05
0.043492
0.041168
-0.0523547
-0.0323052
0.0351509
0.0381278
-0.0297868
0.0275189
0.0347431
-0.027111
0.0208133
0.0311521
-0.0244466
0.0150266
0.0276084
-0.0218217
0.00991963
0.0240618
-0.0189549
0.00539143
0.0199298
-0.0154016
0.00194409
0.0143412
-0.0108939
0.000378316
0.00733718
-0.00577141
0.00207159
-0.00169327
0.0437708
0.0503392
-0.052942
0.0351189
0.0467798
0.0270823
0.0427796
0.0199445
0.03829
0.0140123
0.0335406
0.00928243
0.0287917
0.00550984
0.0237024
0.00256019
0.0172909
0.000614452
0.00928292
0.00268605
0.0451027
0.0599174
-0.054681
0.0361551
0.0557275
0.0278899
0.0510447
0.0204297
0.0457502
0.0141013
0.039869
0.00916344
0.0337296
0.00555524
0.0273106
0.00290499
0.0199411
0.000809995
0.0113779
0.00349604
0.0475988
0.0701341
-0.0578155
0.0381313
0.065195
0.0295262
0.0596498
0.0218229
0.0534534
0.0151521
0.0465398
0.00977403
0.0391077
0.00580876
0.0312759
0.00298312
0.0227668
0.000881512
0.0134795
0.00437755
0.0510617
0.0810929
-0.0620204
0.040925
0.0753316
0.0317733
0.0688015
0.023669
0.0615577
0.016638
0.0535708
0.0108102
0.0449355
0.0063221
0.035764
0.00308311
0.0260058
0.000887349
0.0156753
0.0052649
0.0547216
0.092721
-0.0663497
0.0439694
0.0860838
0.0342564
0.0785145
0.025658
0.070156
0.0181973
0.0610315
0.011932
0.0512008
0.00695854
0.0407374
0.00329412
0.0296702
0.000913609
0.0180558
0.00617851
0.0577303
0.10483
-0.0698395
0.0465437
0.0972703
0.0364151
0.0886432
0.0274051
0.079166
0.0195505
0.0688862
0.0129021
0.0578493
0.00753985
0.0460996
0.00353513
0.0336749
0.000962707
0.0206282
0.00714122
0.0597473
0.117181
-0.0720977
0.0483477
0.10867
0.0379852
0.0990058
0.0287055
0.0884456
0.0205607
0.077031
0.0136197
0.0647903
0.00797359
0.0517457
0.0037275
0.037921
0.00100697
0.0233487
0.00814819
0.061531
0.129654
-0.0740041
0.0500156
0.120185
0.0394509
0.10957
0.029909
0.0979875
0.021476
0.085464
0.0142487
0.0720175
0.00834146
0.057653
0.00388766
0.0423748
0.00104272
0.0261937
0.0091909
0.0663653
-0.0791552
0.054032
0.0426342
0.032325
0.0232088
0.0153888
0.0089903
0.00416644
0.0011007
0.214957
0.0577241
-0.0746914
0.236019
0.0925387
-0.113601
0.258234
0.123877
-0.146091
0.269682
0.114735
-0.126183
0.269669
0.114449
-0.114436
0.249435
0.18146
-0.161226
0.216677
0.294103
-0.261344
0.173662
0.410782
-0.367768
0.117865
0.492041
-0.436243
0.459193
-0.393684
0.214179
0.0415354
0.23421
0.0725075
0.255703
0.102383
0.267792
0.102647
0.269008
0.113232
0.249934
0.200535
0.217287
0.32675
0.17385
0.454218
0.117881
0.54801
0.524133
0.213495
0.0260298
0.232947
0.0530558
0.253755
0.0815749
0.26625
0.0901524
0.26766
0.111822
0.249178
0.219017
0.216624
0.359304
0.173031
0.497811
0.118004
0.603038
0.587456
0.212923
0.0110963
0.232212
0.0337669
0.252366
0.0614212
0.264961
0.0775576
0.265726
0.111057
0.247202
0.237541
0.214737
0.391769
0.171498
0.541049
0.118744
0.655792
0.648384
0.212573
-0.00348697
0.231979
0.0143605
0.251447
0.0419537
0.26366
0.0653442
0.263102
0.111615
0.244006
0.256637
0.211727
0.424048
0.169602
0.583174
0.120209
0.705185
0.706573
0.212542
-0.0180393
0.232194
-0.00529157
0.250861
0.0232868
0.262088
0.0541171
0.25963
0.114073
0.23961
0.276657
0.207771
0.455888
0.167591
0.623354
0.121959
0.750817
0.762182
0.212828
-0.0328773
0.232752
-0.0252154
0.250443
0.00559559
0.260059
0.0445014
0.255218
0.118914
0.234125
0.29775
0.203102
0.486911
0.165468
0.660988
0.123142
0.793143
0.815484
0.213275
-0.0481624
0.233497
-0.0454374
0.25
-0.0109072
0.257351
0.0371498
0.249703
0.126562
0.227586
0.319867
0.197768
0.516729
0.162842
0.695914
0.122768
0.833217
0.866155
0.213597
-0.0637692
0.234265
-0.0661054
0.249354
-0.025997
0.253968
0.0325365
0.24326
0.137269
0.220305
0.342823
0.191911
0.545123
0.159326
0.728499
0.12046
0.872083
0.912611
0.213815
-0.0795945
0.23482
-0.0871098
0.248423
-0.0396005
0.249504
0.0314551
0.235301
0.151473
0.211633
0.366491
0.184658
0.572099
0.154071
0.759086
0.116726
0.909428
0.950182
0.332477
-0.110062
0.371479
-0.126112
0.406757
-0.0748779
0.425674
0.012538
0.441308
0.135838
0.468191
0.339608
0.506801
0.533489
0.549615
0.716271
0.58126
0.877782
0.94504
0.586402
0.333772
-0.141824
0.374104
-0.166443
0.409609
-0.110383
0.426859
-0.00471191
0.440954
0.121744
0.477868
0.302694
0.534948
0.476409
0.604637
0.646582
0.675323
0.807097
0.887491
0.732872
0.335828
-0.175641
0.375654
-0.206269
0.411073
-0.145803
0.426933
-0.0205715
0.436069
0.112607
0.477628
0.261135
0.548149
0.405888
0.639492
0.555239
0.742476
0.704112
0.78358
0.846386
0.339224
-0.212855
0.373946
-0.240991
0.390757
-0.162614
0.391501
-0.0213149
0.405542
0.0985658
0.456166
0.210511
0.536058
0.325995
0.641543
0.449754
0.767569
0.578087
0.646502
0.904648
0.346794
-0.257639
0.356428
-0.250625
0.342666
-0.148853
0.341376
-0.0200251
0.363
0.0769425
0.416262
0.157249
0.498668
0.243589
0.608701
0.33972
0.744178
0.44261
0.495553
0.895126
0.341268
-0.296897
0.322737
-0.232094
0.291508
-0.117624
0.288862
-0.017379
0.312076
0.0537291
0.362684
0.106641
0.440692
0.165581
0.546266
0.234146
0.679027
0.309849
0.347827
0.826753
0.314378
-0.309265
0.272352
-0.190068
0.236045
-0.0813161
0.231828
-0.0131625
0.253306
0.0322514
0.297322
0.0626255
0.365223
0.0976803
0.458615
0.140753
0.578928
0.189537
0.215035
0.71172
0.273845
-0.281099
0.213313
-0.129537
0.175796
-0.0437994
0.170739
-0.00810509
0.18782
0.0151702
0.221793
0.028653
0.274554
0.0449184
0.348832
0.0664757
0.447102
0.0912663
0.106116
0.556021
0.214645
-0.193734
0.140642
-0.0555342
0.110109
-0.0132662
0.105076
-0.00307198
0.116304
0.00394226
0.137797
0.00716013
0.1713
0.0114149
0.220031
0.0177452
0.286349
0.0249482
0.0304038
0.362061
0.108276
0.052742
0.0394758
0.0364039
0.0403461
0.0475062
0.0589211
0.0766663
0.101615
0.132018
0.608584
-0.117176
0.632268
-0.116594
0.655102
-0.109539
0.676268
-0.100383
0.695222
-0.0895868
0.711366
-0.0766184
0.724265
-0.0614068
0.733596
-0.044267
0.739083
-0.0258912
-0.00758402
0.750228
-0.134532
0.765154
-0.131519
0.779375
-0.12376
0.792615
-0.113623
0.80469
-0.101662
0.815835
-0.0877633
0.826397
-0.0719692
0.836392
-0.0542619
0.844845
-0.0343446
-0.01147
0.851031
-0.139176
0.853493
-0.133981
0.855022
-0.125289
0.855408
-0.114009
0.854564
-0.100818
0.852662
-0.0858617
0.849931
-0.0692377
0.846767
-0.0510976
0.843967
-0.0315446
-0.0105284
0.892692
-0.12722
0.878657
-0.119946
0.863954
-0.110587
0.849365
-0.0994205
0.835498
-0.0869506
0.823053
-0.0734168
0.812657
-0.0588415
0.80477
-0.0432105
0.799754
-0.026529
-0.00887407
0.870451
-0.102545
0.845648
-0.0951431
0.82201
-0.0869483
0.80053
-0.0779409
0.781679
-0.0680993
0.765729
-0.0574673
0.7529
-0.046012
0.74341
-0.0337208
0.737529
-0.0206481
-0.00695027
0.797069
-0.0728605
0.768977
-0.0670518
0.743148
-0.0611185
0.720051
-0.0548446
0.699979
-0.0480272
0.683116
-0.0406044
0.669644
-0.0325399
0.659771
-0.0238477
0.653728
-0.014605
-0.00496086
0.683007
-0.0441475
0.656511
-0.0405553
0.632405
-0.0370125
0.610878
-0.0333181
0.592143
-0.0292922
0.576393
-0.0248545
0.563826
-0.0199729
0.554645
-0.0146665
0.549043
-0.00900292
-0.00309263
0.532508
-0.0206345
0.510903
-0.0189499
0.491268
-0.0173777
0.473696
-0.0157465
0.458344
-0.0139397
0.445392
-0.0119022
0.435033
-0.00961397
0.427455
-0.00708895
0.422822
-0.00436999
-0.00152171
0.346778
-0.00535109
0.332636
-0.00480817
0.319742
-0.0044838
0.308128
-0.00413248
0.297901
-0.0037126
0.289209
-0.00320993
0.282214
-0.00261921
0.277072
-0.00194674
0.273911
-0.00120895
-0.000428845
0.126667
0.121859
0.117375
0.113243
0.10953
0.10632
0.103701
0.101754
0.100545
0.000185038
0.0116075
-0.0117926
0.000623673
0.0304424
-0.030881
0.00123704
0.046236
-0.0468493
0.00197713
0.0594606
-0.0602007
0.00277633
0.0700136
-0.0708128
0.00376913
0.0798801
-0.0808729
0.00396304
0.0772587
-0.0774526
0.00408439
0.0700346
-0.0701559
0.00394451
0.0610726
-0.0609327
0.04995
0.00350678
-0.0495123
0.00053334
0.0110742
0.00180368
0.0291721
0.00358472
0.0444549
0.00574066
0.0573046
0.00807198
0.0676823
0.0110385
0.0769136
0.0116747
0.0766224
0.0120795
0.0696297
0.0117723
0.0613799
0.0510723
0.01065
0.000835407
0.0102388
0.00283153
0.0271759
0.00563853
0.0416479
0.00904064
0.0539025
0.0127381
0.0639848
0.0172457
0.0724061
0.0187882
0.0750799
0.0195697
0.0688482
0.0193835
0.0615661
0.0524288
0.018027
0.00105586
0.00918295
0.00359661
0.0246352
0.00719286
0.0380517
0.0115546
0.0495408
0.0163549
0.0591845
0.0217455
0.0670155
0.0250702
0.0717551
0.0263524
0.0675661
0.0266006
0.061318
0.0535606
0.0254687
0.00115131
0.00803164
0.00397885
0.0218077
0.00804084
0.0339897
0.0129956
0.044586
0.0185498
0.0536303
0.0245552
0.0610102
0.0299494
0.0663609
0.0320871
0.0654284
0.0330083
0.0603968
0.0540855
0.0324834
0.00111135
0.00692029
0.00396552
0.0189535
0.00818467
0.0297705
0.0133888
0.0393819
0.0193161
0.047703
0.0257696
0.0545567
0.0324131
0.0597174
0.0363097
0.0615319
0.0381212
0.0585852
0.0537016
0.0385051
0.000926161
0.00599413
0.00357259
0.0163071
0.00770982
0.0256333
0.0128804
0.0342113
0.0187849
0.0417985
0.0253361
0.0480055
0.0323186
0.0527349
0.0382727
0.0555777
0.0415847
0.0552732
0.0521778
0.0431086
0.000567945
0.00542618
0.00278655
0.0140885
0.00665693
0.0217629
0.0116203
0.0292479
0.017203
0.0362157
0.0234459
0.0417626
0.0302843
0.0458965
0.0371822
0.0486799
0.0425595
0.0498959
0.0489189
0.0458184
0.000104292
0.00532189
0.0017691
0.0124237
0.00517579
0.0183562
0.00981444
0.0246093
0.0149565
0.0310737
0.0206208
0.0360983
0.0269031
0.0396142
0.0335865
0.0419964
0.0400844
0.043398
0.0437903
0.045213
-0.000174566
0.00549646
0.00108821
0.0111609
0.00385709
0.0155874
0.00788732
0.0205791
0.0125022
0.0264589
0.0175731
0.0310274
0.0231791
0.0340082
0.0292512
0.0359243
0.0356377
0.0370115
0.0373636
0.0420643
-1.93955e-05
0.00551585
0.00114251
0.00999897
0.00328037
0.0134495
0.00641597
0.0174435
0.0102989
0.022576
0.0148413
0.0264849
0.0199613
0.0288881
0.0254936
0.0303921
0.0312314
0.0312737
0.0316891
0.0369059
0.000380186
0.00513567
0.00153608
0.00884308
0.00318606
0.0117995
0.00549813
0.0151314
0.00871979
0.0193543
0.0129065
0.0222982
0.0177586
0.024036
0.0230257
0.0251249
0.0285172
0.0257823
0.0260524
0.0341539
0.000627701
0.00450797
0.00171337
0.0077574
0.0030362
0.0104767
0.00485805
0.0133095
0.00784983
0.0163625
0.0119389
0.0182091
0.0166898
0.0192852
0.0218628
0.0199518
0.0273258
0.0203193
0.0204007
0.0329775
0.000680492
0.00382747
0.00164995
0.00678794
0.00283177
0.00929486
0.00471334
0.011428
0.00798336
0.0130925
0.0122099
0.0139826
0.0170232
0.014472
0.0222609
0.0147141
0.0278264
0.0147538
0.014593
0.0336341
0.000665093
0.00316238
0.00155653
0.0058965
0.00299448
0.00785691
0.0055747
0.00884773
0.00935787
0.00930933
0.0138723
0.00946811
0.0189086
0.00943564
0.0243669
0.00925586
0.0301787
0.00894198
0.00849922
0.0362724
0.0005921
0.00257027
0.001705
0.00478359
0.00403891
0.00552299
0.00748604
0.00540059
0.0117293
0.00506605
0.0165676
0.00462985
0.0218991
0.00410413
0.027664
0.00349094
0.0338108
0.00279519
0.00202908
0.0402809
0.000515807
0.00205446
0.00245742
0.00284196
0.0057107
0.00226971
0.00969735
0.00141393
0.0142772
0.000486162
0.0194024
-0.000495373
0.0250417
-0.00153509
0.0311527
-0.00262005
0.0376759
-0.00372803
-0.00484668
0.0445516
0.000852247
0.00120221
0.00358446
0.000109736
0.0071375
-0.00128334
0.0113147
-0.00276328
0.0160987
-0.00429781
0.021498
-0.00589469
0.0274737
-0.00751079
0.0339384
-0.00908481
0.0408098
-0.0105994
-0.0120824
0.0480455
0.00149736
-0.000295158
0.00412834
-0.00252126
0.00754637
-0.00470137
0.0117497
-0.00696661
0.0167454
-0.00929347
0.0224623
-0.0116116
0.0287396
-0.0137881
0.0354555
-0.0158007
0.0425802
-0.0177241
-0.019614
0.0501118
0.00107936
0.00319063
0.00650772
0.0109536
0.0163138
0.0222806
0.0286892
0.0355623
0.0429636
0.0508723
0.0514502
0.0836375
-0.0981819
0.0772905
-0.00743898
-0.0184013
0.0997922
-0.0507899
0.0282882
0.113346
-0.0465328
0.0329795
0.121256
-0.0265499
0.0186393
0.124932
-0.00814355
0.00446804
0.126544
0.00137209
-0.00298435
0.127904
0.00299778
-0.00435825
0.129664
0.00166245
-0.00342202
-0.000647651
-0.00157733
0.0586083
0.059183
0.0915651
-0.0403958
0.118636
-0.0778606
0.134543
-0.0624397
0.143219
-0.0352262
0.146936
-0.011861
0.148367
-5.87854e-05
0.149581
0.00178404
0.151264
-1.99836e-05
-0.00265988
0.0665531
0.0256074
0.104832
-0.0786746
0.13574
-0.108769
0.155311
-0.0820104
0.165268
-0.0451836
0.16905
-0.0156427
0.170173
-0.00118173
0.171055
0.000902061
0.172442
-0.0014066
-0.00426787
0.0753487
-0.0161073
0.11755
-0.120876
0.151337
-0.142556
0.174695
-0.105369
0.186728
-0.0572166
0.190825
-0.0197391
0.191648
-0.0020054
0.19211
0.0004399
0.193059
-0.00235501
-0.00533452
0.084316
-0.0641509
0.129263
-0.165823
0.165183
-0.178476
0.191843
-0.132029
0.206814
-0.0721877
0.211811
-0.0247363
0.212489
-0.00268365
0.212524
0.000404949
0.212957
-0.00278829
-0.00577909
0.0927037
-0.116574
0.139655
-0.212774
0.177206
-0.216027
0.206368
-0.161191
0.224632
-0.090451
0.231439
-0.0315433
0.232329
-0.00357401
0.232039
0.000695085
0.23196
-0.00270952
-0.00558298
0.0998726
-0.171895
0.148473
-0.261374
0.187334
-0.254889
0.218216
-0.192073
0.239456
-0.111691
0.249016
-0.0411038
0.250729
-0.00528703
0.250342
0.00108208
0.249838
-0.00220488
-0.00479101
0.105494
-0.229343
0.155618
-0.311498
0.195546
-0.294817
0.227536
-0.224063
0.250963
-0.135117
0.263741
-0.0538817
0.267146
-0.00869197
0.267084
0.00114405
0.266361
-0.00148198
-0.00352404
0.109554
-0.288786
0.16114
-0.363084
0.201908
-0.335585
0.234569
-0.256724
0.259255
-0.159804
0.274909
-0.0695356
0.280803
-0.014586
0.28167
0.000277235
0.281022
-0.000833589
-0.00197803
0.112352
0.165207
0.20658
0.239575
0.264787
0.282216
0.290846
0.293634
0.29368
0.0131993
0.00607749
-0.0192768
0.0109842
0.00221511
0.0114987
-0.000514512
0.0128971
-0.00139847
0.0136037
-0.000706528
0.0137365
-0.000132882
0.01358
0.000156558
0.0133706
0.000209374
0.0131861
0.000184543
0.000116164
0.0372462
0.0232125
-0.0543813
0.0314863
0.00797503
0.0339728
-0.00300105
0.0379665
-0.00539212
0.0401102
-0.00285026
0.0405351
-0.000557731
0.0400935
0.000598182
0.0394982
0.000804699
0.0390009
0.000681842
0.000375232
0.0579661
0.0480853
-0.0828389
0.0508772
0.015064
0.0558373
-0.00796123
0.0623208
-0.0118756
0.0659378
-0.00646723
0.0667233
-0.00134316
0.0660492
0.00127229
0.0651128
0.0017411
0.0643582
0.00143641
0.000734509
0.0739141
0.0753748
-0.101204
0.0680815
0.0208966
0.0763684
-0.0162482
0.0855769
-0.0210841
0.0908222
-0.0117125
0.0920962
-0.00261713
0.0912732
0.00209526
0.0900625
0.00295183
0.0891239
0.00237506
0.00114997
0.0814224
-0.10423
0.0839175
0.0959575
0.107853
0.11478
0.116631
0.115742
0.114335
0.113289
0.0027333
-0.000172901
-0.0025604
0.00326409
-0.000530796
0.0041762
-0.000912101
0.00548707
-0.00131088
0.00718326
-0.00169619
0.00922758
-0.00204433
0.011584
-0.00235638
0.0141722
-0.0025882
0.0168573
-0.00268512
-0.0024195
0.0077864
-0.000645611
-0.00731369
0.0092331
-0.0019775
0.0117121
-0.00339114
0.0152681
-0.00486681
0.0198818
-0.0063099
0.0254792
-0.00764173
0.0319609
-0.00883814
0.0391519
-0.00977919
0.046763
-0.0102962
-0.0100378
0.0124764
-0.00138357
-0.0117385
0.0147259
-0.00422691
0.0185583
-0.00722354
0.0240216
-0.0103301
0.0310754
-0.0133638
0.0395815
-0.0161478
0.0493226
-0.0185793
0.0600452
-0.0205018
0.0714088
-0.0216598
-0.0214679
0.0168053
-0.0023474
-0.0158415
0.0197292
-0.00715079
0.0246719
-0.0121662
0.0316476
-0.0173059
0.0405453
-0.0222615
0.0511005
-0.026703
0.0629308
-0.0304096
0.0756871
-0.0332581
0.0888536
-0.0348263
-0.033818
0.0207904
-0.0196311
0.0242896
0.0301505
0.0383133
0.0485352
0.0603374
0.0730364
0.0855966
0.0959834
0.0314945
-0.0312794
0.0370932
-0.0373082
0.0256267
-0.0308762
0.036744
0.0199613
-0.0300436
0.0357089
0.0147075
-0.0286482
0.033902
0.010079
-0.0264419
0.0310704
0.00621566
-0.0227613
0.0266247
0.00312205
-0.0176424
0.0207361
0.0010238
-0.013618
0.0157163
-8.26398e-05
-0.0101549
0.0112613
-0.00563205
0.00554941
0.029539
-0.0254071
-0.0354113
0.0238148
-0.025152
0.0183166
-0.0245454
0.0132213
-0.0235529
0.00877989
-0.0220005
0.00537497
-0.0193564
0.00303632
-0.0153038
0.00140824
-0.0119899
0.000304892
-0.00905153
-0.00532715
0.0295247
-0.0194111
-0.0355208
0.0237132
-0.0193404
0.0181883
-0.0190205
0.0130663
-0.0184309
0.00854907
-0.0174833
0.00508619
-0.0158935
0.00303287
-0.0132505
0.00166384
-0.0106209
0.000592722
-0.00798041
-0.00473443
0.0314175
-0.0131452
-0.0376833
0.0253865
-0.0133095
0.0196735
-0.0133074
0.014365
-0.0131224
0.00960034
-0.0127186
0.00570241
-0.0119956
0.00323486
-0.0107829
0.00178503
-0.00917104
0.000739126
-0.0069345
-0.00399529
0.034936
-0.00649867
-0.0415826
0.0285717
-0.00694511
0.0225609
-0.00729671
0.0169707
-0.00753215
0.0118926
-0.00764043
0.00750941
-0.00761236
0.00416367
-0.00743715
0.00201029
-0.00701766
0.000804161
-0.00572836
-0.00319113
0.0391303
0.000583219
-0.0462122
0.0323739
-0.000188594
0.0260143
-0.000937155
0.0201247
-0.0016425
0.0147651
-0.0022809
0.00999912
-0.00284632
0.0059103
-0.00334832
0.00266966
-0.00377701
0.000719028
-0.00377772
-0.00247209
0.0428303
0.00805792
-0.050305
0.0356958
0.00694592
0.0289558
0.00580285
0.022708
0.00460536
0.0170496
0.00337749
0.0120183
0.00218495
0.0076001
0.00106989
0.00380806
1.50348e-05
0.000965297
-0.000934944
-0.00150679
0.0450081
0.015809
-0.0527591
0.0376304
0.0143237
0.0306257
0.0128075
0.0240346
0.0111965
0.0179988
0.00941323
0.0126956
0.00748824
0.00819622
0.00556923
0.00448228
0.00372898
0.00160091
0.00194643
9.4132e-05
0.0451489
0.0238503
-0.0531903
0.0375859
0.0218867
0.0305031
0.0198903
0.023819
0.0178806
0.0175127
0.0157196
0.0117817
0.0132193
0.00698816
0.0103628
0.00339635
0.00732079
0.00113948
0.00420331