# Selection   : all
# Cells       : 440
# Volume      : 7.374263e+01
# Time        	max(p)
2.9           	1.839420e+00
2.95          	1.840621e+00
3             	1.837409e+00
