# Forces      
# CofR        : (0.000000e+00 0.000000e+00 0.000000e+00)
# Time        forces(pressure viscous)	moments(pressure viscous)
0.45          	((4.515146e+00 -1.013890e+00 4.351572e-19) (1.281231e+00 -3.855710e-02 -7.635581e-18)) ((1.081693e-20 -1.618681e-19 1.524614e-06) (-4.725942e-18 4.736212e-18 -2.400189e-02))
