/*--------------------------------*- C++ -*----------------------------------*\
  =========                 |
  \\      /  F ield         | OpenFOAM: The Open Source CFD Toolbox
   \\    /   O peration     | Website:  https://openfoam.org
    \\  /    A nd           | Version:  13
     \\/     M anipulation  |
\*---------------------------------------------------------------------------*/
FoamFile
{
    format      ascii;
    class       volVectorField;
    location    "43.5";
    object      U;
}
// * * * * * * * * * * * * * * * * * * * * * * * * * * * * * * * * * * * * * //

dimensions      [0 1 -1 0 0 0 0];

internalField   nonuniform List<vector> 
440
(
(-0.0946418 0.0792479 -7.05246e-20)
(-0.0702169 0.100243 2.78496e-20)
(0.175432 0.057954 2.47725e-20)
(0.637243 0.0156063 1.71727e-19)
(0.948403 -0.0314414 5.79725e-21)
(-0.0758867 0.0444358 4.85389e-20)
(0.175402 -0.0220526 -1.36913e-19)
(0.789572 -0.0980608 -1.19275e-19)
(1.40195 -0.153526 4.36402e-20)
(1.9798 -0.20192 -1.43786e-20)
(0.0223699 -0.0131997 5.41825e-20)
(0.713482 -0.0869792 9.51025e-19)
(1.56247 -0.101668 -6.83479e-19)
(2.15876 -0.090168 -2.13754e-18)
(2.56768 -0.0959001 9.76007e-19)
(0.28296 -0.0624214 -1.83992e-19)
(1.42905 -0.0199919 -7.20217e-19)
(2.19323 0.0271473 2.33497e-18)
(2.5439 0.0454011 2.64317e-18)
(2.56773 0.0473484 -7.24715e-19)
(0.687948 -0.00172067 -3.47842e-19)
(1.93339 0.1743 -7.73582e-19)
(2.43985 0.231739 2.39932e-18)
(2.55603 0.233221 2.48383e-18)
(2.64414 0.207656 8.32651e-19)
(-0.0561665 0.454304 4.03368e-19)
(-0.202518 0.604062 5.38295e-19)
(-0.349697 0.618904 -1.62887e-18)
(-0.485074 0.58431 2.90325e-19)
(-0.524325 0.463417 1.61966e-18)
(-0.0747293 0.488245 -1.32516e-19)
(-0.0729292 0.766761 -7.48857e-19)
(-0.0423776 0.823806 2.20509e-20)
(0.0190119 0.800607 2.84955e-20)
(0.0423984 0.728976 -8.68169e-20)
(-0.0790244 0.262941 -4.34951e-20)
(-0.073947 0.51201 -1.04229e-19)
(-0.0206102 0.578666 5.65858e-20)
(0.0896323 0.556325 -2.8928e-19)
(0.122781 0.496227 8.79642e-21)
(-0.0740306 0.133073 -6.1358e-20)
(-0.108638 0.282368 9.57916e-20)
(-0.0769236 0.330944 -6.63618e-20)
(0.0114468 0.311305 -2.73006e-20)
(0.111028 0.23252 -1.94021e-20)
(-0.0874541 0.101311 -2.07164e-22)
(-0.131204 0.184649 -7.7386e-21)
(-0.0701917 0.204576 1.3639e-20)
(0.103066 0.172312 -8.95773e-20)
(0.311228 0.147384 -3.1534e-19)
(0.0276872 -0.626988 -1.84701e-18)
(1.30683 -0.976034 2.34907e-18)
(1.39157 1.05484 8.90088e-19)
(0.706301 0.434515 5.78668e-19)
(1.0834 -0.41483 -5.72694e-20)
(1.57821 -0.869542 1.40465e-18)
(1.05665 -1.05691 -9.50915e-20)
(1.10678 1.13531 4.98289e-20)
(0.740491 0.434587 -2.08196e-19)
(1.25347 -0.453782 3.73153e-20)
(1.94683 -1.00577 1.39233e-19)
(0.0518908 -0.925695 -1.4806e-18)
(0.50634 1.16328 3.86597e-20)
(0.886462 0.310107 1.26972e-20)
(1.42885 -0.511075 2.96674e-20)
(1.53406 -0.93542 -2.62842e-19)
(-0.70379 -0.842068 -1.479e-20)
(0.660844 0.96443 1.7736e-18)
(1.23835 0.184336 1.38264e-19)
(1.64886 -0.539618 -3.06301e-19)
(1.9353 -0.830439 -1.68903e-19)
(0.314029 -0.871964 5.56247e-19)
(0.480454 0.688106 0)
(1.67929 0.0881721 1.38559e-20)
(1.85385 -0.552013 -1.53112e-19)
(2.39641 -0.773594 -5.74893e-19)
(2.13322 -0.705378 1.98884e-19)
(0.437087 0.343254 1.71032e-20)
(2.12334 -0.201709 7.28434e-20)
(1.96655 -0.575814 3.24924e-19)
(2.35653 -0.820371 7.52876e-20)
(1.26436 -0.280817 2.20303e-19)
(0.590752 0.623226 1.04463e-20)
(2.26248 -0.37833 1.24026e-21)
(1.83016 -0.504415 0)
(2.29326 -0.42351 -6.2431e-19)
(1.16888 -0.0725841 2.09966e-20)
(1.39246 0.165633 6.25671e-19)
(2.36603 -0.561815 -1.78205e-19)
(1.48647 -0.43931 1.45471e-20)
(1.93185 -0.329774 1.16775e-20)
(1.16887 0.00726831 5.16689e-20)
(1.8206 0.0165447 1.05405e-20)
(1.81486 -0.383331 1.1818e-33)
(0.751843 -0.210884 -9.71972e-21)
(1.00229 -0.0296788 9.26655e-20)
(0.7623 -0.0126251 -1.05117e-20)
(1.01062 -0.123226 -3.93561e-20)
(0.336062 -0.0824484 8.91842e-20)
(-0.255093 -0.00321566 -3.10522e-20)
(2.45452 0.229276 -1.05143e-18)
(2.73567 -0.0308457 -1.3743e-18)
(2.46437 0.000690622 1.15857e-18)
(2.83379 -0.271247 1.25006e-20)
(2.18482 -0.11231 -4.78442e-20)
(2.15658 0.165606 4.53056e-20)
(2.47512 -0.0580205 -4.48768e-20)
(2.29281 -0.0125975 -1.52928e-19)
(2.51913 -0.254522 -2.46249e-19)
(2.37921 -0.25691 -7.33548e-21)
(2.10119 0.0487259 6.89684e-20)
(2.22951 -0.0299584 1.23664e-19)
(2.19461 -0.0804597 -1.82374e-19)
(2.26475 -0.154757 5.83686e-20)
(2.24919 -0.23752 5.96856e-20)
(2.02495 0.00558765 1.11013e-19)
(1.99558 -0.038916 9.77421e-20)
(2.08595 -0.0635472 -1.64448e-20)
(2.03223 -0.115571 3.23513e-20)
(2.11486 -0.142061 1.5909e-20)
(1.45734 -0.0213126 1.53815e-19)
(1.36613 -0.0176014 -1.23732e-20)
(1.45363 -0.0384991 2.53803e-20)
(1.31884 -0.0277404 -2.9688e-21)
(1.42247 -0.0615136 4.84206e-20)
(1.62629 0.845991 1.19693e-18)
(1.5689 0.947092 -3.84087e-19)
(1.56874 1.08547 -1.44006e-18)
(1.50288 1.13897 7.85867e-19)
(0.926173 0.828052 -1.84315e-19)
(1.92255 0.810939 -6.19947e-19)
(1.8815 0.887095 -3.2091e-18)
(1.88299 0.995881 -1.23648e-18)
(1.80173 1.01691 -4.4393e-19)
(1.11129 0.729391 -7.2743e-19)
(2.23503 0.672567 8.26239e-19)
(2.21408 0.747221 2.16427e-19)
(2.19079 0.844206 -2.41163e-18)
(2.06275 0.836854 -7.03133e-19)
(1.23857 0.573979 5.42727e-19)
(2.42529 0.562748 2.50665e-18)
(2.39897 0.609997 1.84247e-18)
(2.39409 0.667509 -2.15629e-18)
(2.19715 0.632501 -1.65273e-18)
(1.2314 0.384585 -3.21416e-19)
(2.5491 0.380555 1.2939e-18)
(2.58088 0.410364 -9.31376e-19)
(2.49995 0.443356 6.53578e-19)
(2.17637 0.397367 5.50744e-19)
(1.05966 0.175729 -4.84698e-19)
(0.574775 0.491049 -6.21212e-19)
(0.48462 0.527145 -4.66491e-19)
(0.366548 0.5631 5.05744e-20)
(0.229201 0.571428 -8.71797e-22)
(0.0573299 0.415948 9.32025e-20)
(0.681606 0.665322 1.31965e-19)
(0.619078 0.727457 -2.82225e-19)
(0.532954 0.797888 1.92586e-19)
(0.408094 0.853706 -8.99598e-20)
(0.1794 0.648506 1.27012e-19)
(0.782524 0.850954 1.14389e-19)
(0.707254 0.933233 4.98915e-19)
(0.653512 1.03409 1.22563e-19)
(0.573641 1.07781 -3.2632e-19)
(0.316557 0.796458 2.75879e-19)
(1.0796 0.927515 2.46593e-19)
(1.03213 1.01047 -7.45817e-19)
(0.978881 1.10797 -2.03034e-18)
(0.895326 1.17608 8.16976e-19)
(0.528679 0.878231 -1.71894e-19)
(1.13396 0.963743 -1.10339e-19)
(1.17591 1.09049 -1.9059e-19)
(1.20767 1.20913 -3.88227e-19)
(1.15924 1.23576 -4.40202e-19)
(0.715534 0.891049 -7.01676e-21)
(1.02489 0.0476636 -1.05772e-19)
(0.987663 0.0527007 -3.71601e-20)
(1.03106 0.123722 -1.46706e-21)
(0.94866 0.15813 -3.088e-19)
(0.893943 0.305473 3.24122e-19)
(1.01687 0.0438125 6.72338e-20)
(0.997687 0.053644 1.31436e-19)
(1.02028 0.129824 1.4231e-19)
(0.988631 0.186309 4.41251e-20)
(0.938436 0.383131 -2.26731e-20)
(1.02553 0.0421074 9.17307e-20)
(0.97479 0.0486675 -4.90869e-21)
(1.07074 0.147837 -7.04331e-21)
(0.941076 0.183247 1.58518e-19)
(1.16568 0.531797 -5.19946e-19)
(1.02204 0.0418394 -3.51581e-22)
(0.982852 0.0430044 -1.8122e-19)
(1.07439 0.159247 -7.32853e-20)
(1.04342 0.190377 -4.07268e-19)
(1.16051 0.574574 1.00027e-19)
(1.01919 0.0373445 -1.61308e-20)
(0.976188 0.0420986 4.9244e-20)
(1.13721 0.158022 3.45686e-20)
(0.999976 0.218897 4.83522e-19)
(1.44097 0.710974 -4.93819e-19)
(0.984001 0.0425348 -1.33791e-20)
(1.02425 0.0170083 1.00162e-19)
(1.13732 0.184207 -8.8865e-20)
(1.24188 0.137773 9.08221e-19)
(1.29061 0.741937 -3.83626e-19)
(0.924029 0.0217668 -1.3741e-21)
(1.09846 0.00346008 -9.77086e-20)
(1.13491 0.0949212 5.10372e-21)
(1.37154 0.169524 -2.60715e-19)
(1.19378 0.478429 -4.54817e-20)
(0.952364 0.0286727 -2.42076e-21)
(1.11797 -0.0374826 1.54004e-35)
(1.18372 0.062244 -5.90473e-20)
(1.24702 0.157908 7.95579e-20)
(1.41274 0.321713 1.85249e-19)
(1.05577 -0.022489 3.96008e-21)
(1.06731 -0.0651659 -2.56671e-20)
(1.11917 0.0337819 1.79808e-20)
(1.13413 0.103285 2.77021e-20)
(1.61587 0.182017 -2.82131e-19)
(0.986951 -0.0241098 -3.97654e-20)
(0.831124 -0.0250344 -1.87769e-21)
(0.813145 0.0133427 2.7609e-20)
(0.901375 0.0089049 -1.21108e-20)
(1.20066 0.0364905 -6.51154e-20)
(1.90631 0.627732 3.13917e-19)
(1.95662 0.655031 8.07824e-19)
(2.27215 0.507135 -1.17126e-18)
(2.28398 0.486848 3.08205e-20)
(2.55807 0.259286 5.12638e-19)
(1.77321 0.365552 8.65613e-20)
(1.75955 0.404719 1.05541e-18)
(2.05724 0.294431 1.21637e-19)
(1.9842 0.312677 -9.64532e-19)
(2.30903 0.126103 -3.06991e-19)
(1.73 0.258539 -2.40751e-19)
(1.81054 0.239043 -1.57514e-19)
(1.94723 0.187806 2.03879e-19)
(1.9734 0.158192 -3.00495e-19)
(2.12263 0.0816227 2.70605e-19)
(1.7065 0.132147 3.79643e-19)
(1.8221 0.114129 -5.17927e-21)
(1.82599 0.0866736 2.23664e-19)
(1.933 0.0666014 1.86903e-19)
(1.92326 0.0275562 -1.79005e-19)
(1.32151 0.0285618 -4.45569e-20)
(1.38275 0.0188677 2.4048e-19)
(1.36701 0.0120125 1.04863e-19)
(1.42694 -0.00174437 -2.1502e-19)
(1.38082 -0.0058595 4.62583e-22)
(1.09111 -0.0200657 5.11105e-20)
(2.09339 -0.0478002 -3.87778e-19)
(2.33061 -0.0362624 1.10027e-18)
(2.31958 0.00378277 4.94146e-19)
(2.16463 0.0314679 -3.3505e-19)
(0.668655 0.0893209 9.04473e-20)
(1.86997 0.0784033 -4.03455e-19)
(2.34056 0.0814958 -5.3775e-19)
(2.39965 0.0918264 6.59311e-19)
(2.14944 0.080984 -4.13776e-19)
(0.193675 0.0694382 -2.63399e-20)
(1.24097 0.135895 4.19579e-19)
(1.9934 0.15813 6.11844e-20)
(2.39175 0.151187 3.91068e-19)
(2.55759 0.149698 1.9136e-19)
(-0.047475 -0.0281279 1.82508e-19)
(0.429205 0.0650285 1.80511e-19)
(1.21564 0.136761 -3.85088e-19)
(1.71531 0.173449 2.11774e-20)
(2.31849 0.204564 3.62009e-20)
(-0.100832 -0.0817356 1.2105e-19)
(-0.0200459 -0.0590187 -1.36738e-19)
(0.407768 0.0162425 -1.97021e-20)
(0.868552 0.0448464 5.14961e-21)
(1.29986 0.114657 -4.08168e-20)
(-0.0779845 -0.0812712 1.03873e-20)
(-0.138518 -0.124548 7.03434e-20)
(-0.0449815 -0.131363 6.06691e-20)
(0.137058 -0.109839 -7.63119e-20)
(0.511955 -0.048787 1.20443e-21)
(-0.0426927 -0.0605359 -7.53436e-21)
(-0.112179 -0.139033 -1.66566e-20)
(-0.133434 -0.20142 -1.05968e-21)
(-0.103513 -0.231426 1.55545e-21)
(0.0296336 -0.185423 4.69764e-21)
(-0.0220063 -0.0374943 -2.25905e-24)
(-0.0819886 -0.126208 2.38836e-20)
(-0.129775 -0.218395 3.84331e-21)
(-0.163461 -0.279863 2.39306e-20)
(-0.154656 -0.284265 1.29906e-20)
(-0.0125349 0.000187564 -2.79776e-21)
(-0.0918057 -0.0799377 -7.29642e-21)
(-0.177385 -0.154538 4.06082e-20)
(-0.269696 -0.181975 9.9929e-20)
(-0.345741 -0.175402 -5.35453e-20)
(-0.0248882 0.156872 9.08342e-21)
(-0.189402 0.1664 -1.16338e-20)
(-0.363506 0.19346 -1.19629e-20)
(-0.544923 0.245342 1.19142e-19)
(-0.689315 0.23134 3.99487e-19)
(1.40161 0.583649 -2.16678e-20)
(1.46214 0.2362 1.23527e-18)
(1.05943 0.335656 1.2122e-19)
(-0.0611506 0.00789534 1.44231e-19)
(0.391257 -0.28011 -3.16101e-20)
(1.06989 0.432859 8.31753e-20)
(1.48431 0.22955 -7.31751e-19)
(1.3797 0.498839 6.54027e-19)
(0.268528 0.0899065 1.19119e-20)
(0.461328 -0.315784 1.49194e-19)
(0.278374 0.185924 2.82564e-19)
(1.39277 0.108548 -4.49394e-19)
(1.52174 0.666353 -7.26488e-20)
(0.447236 0.218081 1.19002e-19)
(0.598618 -0.343159 -1.78654e-20)
(-0.67185 -0.00879482 1.59041e-19)
(1.38327 -0.138227 -1.97026e-18)
(1.53182 0.80084 -5.538e-19)
(0.584184 0.309841 -7.06718e-22)
(0.76187 -0.362022 -1.03615e-19)
(-1.07202 -0.197013 2.31513e-19)
(1.40877 -0.577973 -7.38882e-19)
(1.5009 0.940986 7.3987e-19)
(0.683424 0.399172 -1.28444e-20)
(0.926083 -0.376638 -1.94616e-19)
(0.196947 0.183086 -6.94018e-20)
(-0.265816 -0.14524 0)
(-0.194961 -0.0904068 1.97395e-20)
(-0.341721 -0.0554 2.9966e-20)
(0.298662 -0.0365288 1.43008e-21)
(1.75579 0.528032 0)
(1.25799 0.270972 0)
(0.723471 0.0985751 6.39942e-21)
(-0.321938 -0.0755932 -3.88855e-20)
(0.473527 -0.176296 1.03123e-19)
(0.686998 0.000899142 -1.12115e-19)
(0.710355 -0.00600016 1.18527e-19)
(0.960953 -0.00239051 -4.59814e-20)
(0.93062 0.00601756 3.00975e-19)
(1.37576 0.078305 2.13012e-19)
(1.565 0.0237237 1.05253e-19)
(1.69403 0.0642158 1.93702e-19)
(1.8934 0.0342038 -2.9679e-19)
(2.44296 0.181075 -1.7784e-20)
(2.17823 0.102752 1.36138e-19)
(0.867851 -0.448091 -2.65769e-20)
(0.851982 -0.532221 -1.37402e-19)
(0.840374 -0.623602 -9.83661e-20)
(0.767272 -0.685432 6.05708e-20)
(0.460057 -0.53049 1.12399e-19)
(0.772128 -0.352253 1.29282e-19)
(0.716751 -0.413139 2.7332e-19)
(0.64233 -0.478418 -2.65034e-20)
(0.528379 -0.531722 1.18598e-19)
(0.282263 -0.417485 4.57661e-20)
(0.626091 -0.211368 -1.66831e-19)
(0.536655 -0.24612 -4.301e-20)
(0.434366 -0.290174 1.39329e-19)
(0.31702 -0.329736 -6.98364e-21)
(0.136323 -0.261711 -9.93643e-20)
(0.535937 0.0214649 -4.38323e-19)
(0.450005 0.00956463 -3.64328e-19)
(0.34052 -0.0115348 2.83855e-19)
(0.214252 -0.0416471 1.86439e-19)
(0.0545038 -0.0525963 1.38891e-20)
(0.515279 0.228955 -1.8209e-19)
(0.429122 0.235578 -1.78158e-19)
(0.313949 0.241773 -8.28645e-20)
(0.179566 0.248601 1.20552e-20)
(0.0245005 0.184487 1.09989e-20)
(1.92286 -0.0408319 7.19746e-19)
(2.17952 -0.103643 2.53217e-19)
(2.24966 -0.182993 -6.64969e-19)
(2.09438 -0.20957 -1.33438e-18)
(1.24082 -0.175471 1.04554e-19)
(1.90569 -0.118422 1.20754e-18)
(1.993 -0.22354 1.59107e-18)
(2.00653 -0.338758 1.30765e-19)
(1.92088 -0.394692 2.26292e-19)
(1.214 -0.335701 -1.48869e-19)
(1.63236 -0.273386 -3.1441e-18)
(1.69244 -0.38452 3.68687e-19)
(1.73355 -0.501372 9.77767e-19)
(1.66589 -0.569261 -3.71127e-19)
(1.06779 -0.471024 5.77414e-19)
(1.42974 -0.388281 7.44958e-19)
(1.4457 -0.480331 -1.9543e-18)
(1.42973 -0.590418 -2.25867e-18)
(1.35689 -0.669331 6.85888e-19)
(0.865118 -0.540708 4.58177e-19)
(1.15771 -0.442517 1.51985e-19)
(1.11161 -0.529977 2.12892e-19)
(1.09808 -0.643128 -3.36088e-19)
(1.03872 -0.719882 -4.04978e-19)
(0.650464 -0.562541 -3.77557e-21)
(1.0741 0.0568091 7.92685e-21)
(0.915439 0.0612154 -6.32794e-21)
(1.11515 0.0806647 -7.78046e-21)
(0.788995 0.0191575 -1.7874e-19)
(1.06595 -0.191866 -6.29451e-21)
(1.08338 0.0598683 -2.62985e-21)
(0.914845 0.0603682 5.61744e-20)
(1.11189 0.098046 -5.62762e-20)
(0.878378 0.0657231 8.95718e-20)
(0.957228 -0.0753494 -2.58098e-20)
(1.08139 0.0565724 -6.47667e-20)
(0.919501 0.0582902 5.43728e-22)
(1.10001 0.0989636 -2.34162e-20)
(0.878676 0.0920775 1.29536e-21)
(0.938429 -0.0160095 -1.43709e-19)
(1.06177 0.0545362 7.95285e-20)
(0.949445 0.05541 3.64865e-21)
(1.06236 0.105521 3.71363e-20)
(0.921177 0.11715 4.15983e-20)
(0.852794 0.0976057 1.22239e-19)
(1.03723 0.0503384 2.02078e-20)
(0.979967 0.0559002 -3.17416e-20)
(1.03075 0.110147 5.03266e-20)
(0.951125 0.145355 8.5986e-20)
(0.834041 0.197513 -1.37711e-19)
(0.891953 0.0340104 0)
(0.700338 0.0284239 1.06327e-20)
(0.595917 0.0235237 2.6485e-21)
(0.325998 -0.00538021 3.9099e-20)
(0.626713 -0.0503271 -1.02326e-19)
(1.04075 0.0761303 -6.6673e-20)
(0.925839 0.0753045 -2.19854e-20)
(1.01594 0.0806934 -2.44549e-20)
(0.786628 0.0102147 -9.19778e-20)
(0.982447 -0.176574 -1.09736e-19)
(0.866549 -0.0612187 -2.4853e-20)
(0.946818 -0.0295693 4.28747e-19)
(1.02841 0.035869 2.69333e-19)
(0.907293 0.0495789 2.38986e-20)
(0.704299 0.0255362 0)
(1.23057 -0.298228 2.41044e-19)
(1.33771 -0.263687 1.26002e-18)
(1.50125 -0.149415 -1.434e-18)
(1.58753 -0.0216498 -4.44221e-19)
(1.48834 0.0234526 3.30175e-19)
)
;

boundaryField
{
    left
    {
        type            fixedValue;
        value           uniform (1 0 0);
    }
    right
    {
        type            zeroGradient;
    }
    down
    {
        type            noSlip;
    }
    up
    {
        type            noSlip;
    }
    cylinder
    {
        type            noSlip;
    }
    defaultFaces
    {
        type            empty;
    }
}


// ************************************************************************* //
