/*--------------------------------*- C++ -*----------------------------------*\
  =========                 |
  \\      /  F ield         | OpenFOAM: The Open Source CFD Toolbox
   \\    /   O peration     | Website:  https://openfoam.org
    \\  /    A nd           | Version:  13
     \\/     M anipulation  |
\*---------------------------------------------------------------------------*/
FoamFile
{
    format      ascii;
    class       volScalarField;
    location    "0.09";
    object      strainRateViscosityModel:nu;
}
// * * * * * * * * * * * * * * * * * * * * * * * * * * * * * * * * * * * * * //

dimensions      [0 2 -1 0 0 0 0];

internalField   nonuniform List<scalar> 
1800
(
9.40595
9.1983
9.00919
8.797
8.56758
8.32943
8.09277
7.86555
7.57972
7.32386
9.58462
9.41764
9.26462
9.09307
8.90407
8.70054
8.48785
8.26673
7.99772
7.66299
9.70116
9.56107
9.42552
9.26703
9.08273
8.87034
8.62875
8.35233
8.00795
7.58014
9.77436
9.65448
9.53077
9.37923
9.19527
8.97447
8.71305
8.40305
8.01178
7.53216
9.82075
9.71674
9.60325
9.45828
9.276
9.05069
8.77747
8.44889
8.03529
7.54044
9.85103
9.75937
9.65512
9.51744
9.33924
9.1134
8.8336
8.49234
8.06254
7.55973
9.87105
9.78858
9.69194
9.56099
9.38744
9.1626
8.8783
8.5262
8.0809
7.56906
9.88407
9.808
9.71694
9.5911
9.42108
9.19665
8.90769
8.54466
8.08378
7.55961
9.89196
9.81986
9.73227
9.60941
9.44086
9.21492
8.91966
8.54434
8.06751
7.52648
9.89583
9.82566
9.73964
9.6179
9.44928
9.22104
8.92004
8.53493
8.04734
7.4918
2.01066
1.45425
1.40233
1.68545
2.03065
2.25515
2.3461
2.38826
2.41701
2.4279
3.12426
2.17816
2.07488
2.36653
2.59045
2.64315
2.67486
2.74566
2.8039
2.82825
4.03483
3.21532
3.07741
3.20355
3.21108
3.13694
3.15319
3.23963
3.29642
3.32751
5.00054
4.40814
4.21316
4.13603
3.98946
3.8458
3.81152
3.84587
3.86882
3.91139
6.02671
5.57955
5.33953
5.13343
4.90424
4.69966
4.57529
4.51905
4.49271
4.54916
6.99859
6.61278
6.34988
6.08566
5.8145
5.55975
5.35158
5.20623
5.12044
5.18154
7.811
7.45105
7.18115
6.89719
6.60596
6.31807
6.05043
5.83154
5.6806
5.73351
8.42519
8.08996
7.8234
7.53556
7.23297
6.92059
6.60801
6.32674
6.11004
6.14283
8.86226
8.56087
8.3045
8.01743
7.70332
7.364
7.00262
6.64709
6.34017
6.34071
9.16692
8.9072
8.67016
8.39603
8.08791
7.74793
7.37485
6.98668
6.64053
6.68034
2.23831
1.70086
1.22642
0.658386
0.227445
0.0616777
0.0240287
0.0145182
0.0118491
0.010277
2.55224
1.83626
1.3439
0.71626
0.248153
0.0662784
0.0249209
0.0148802
0.0120916
0.0103294
2.94118
1.9824
1.46346
0.785743
0.273031
0.0719837
0.0259668
0.015244
0.0123129
0.0103769
3.41205
2.16494
1.58265
0.865301
0.303075
0.0787602
0.0271682
0.0155962
0.0125008
0.0104156
3.93939
2.40681
1.70491
0.951621
0.338932
0.0865355
0.0285228
0.0159271
0.012643
0.0104427
4.46571
2.71463
1.84022
1.04271
0.380977
0.0954373
0.0300382
0.0162336
0.0127322
0.0104561
4.91595
3.06956
1.99411
1.13378
0.425651
0.104938
0.0316203
0.0165111
0.0127657
0.0104549
5.2207
3.45073
2.18935
1.23873
0.477478
0.117288
0.0334648
0.0167881
0.0127483
0.0104393
5.24755
3.73651
2.35731
1.31386
0.512632
0.126928
0.0346741
0.0169355
0.0126744
0.0104098
5.09763
4.0052
2.62295
1.47443
0.593499
0.15551
0.0394721
0.0175144
0.0126338
0.0103796
4.87417
4.01493
2.73297
1.51463
0.592555
0.157149
0.0406276
0.017523
0.0124173
0.0103257
5.3481
3.56641
2.48211
1.25619
0.41842
0.100381
0.0304922
0.0153384
0.0114995
0.0101163
4.99704
3.23863
2.30484
1.00789
0.244396
0.0400562
0.0168197
0.014382
0.0141466
0.0171722
4.58079
3.52245
2.3606
1.0618
0.31956
0.197029
0.230227
0.251218
0.2573
0.280055
5.0619
4.58849
3.02543
1.71269
0.901189
0.754379
0.767802
0.770009
0.761639
0.765509
6.22014
5.57832
3.86798
2.37947
1.39788
1.10941
1.06178
1.04107
1.02304
1.0243
7.24585
6.32817
4.61547
3.00511
1.93069
1.52779
1.40139
1.34396
1.31072
1.30016
7.98656
6.88261
5.20883
3.54531
2.41497
1.90156
1.68472
1.58302
1.53217
1.50946
8.50559
7.30435
5.66928
3.99857
2.83966
2.23452
1.92925
1.78037
1.7105
1.6755
8.91977
7.66524
6.04094
4.38438
3.24361
2.56456
2.16442
1.9592
1.86528
1.81456
6.51235
6.43707
6.42359
6.4365
6.46841
6.50319
6.54602
6.66404
6.8385
6.7574
0.248336
1.03623
1.98413
2.8976
3.67881
4.29205
4.70907
4.95743
5.19813
5.69854
3.88431
3.5799
3.31731
3.13943
3.13159
3.27655
3.50419
3.75309
4.21163
4.88788
6.64174
6.6245
6.53474
6.34242
6.04034
5.6535
5.24458
4.89361
4.74303
4.56484
7.68767
7.67235
7.6279
7.5368
7.39078
7.18264
6.91653
6.604
6.26384
5.62511
8.44135
8.42489
8.3861
8.31945
8.22125
8.08823
7.9194
7.70663
7.4151
6.88966
8.93118
8.91529
8.88141
8.82761
8.75215
8.65307
8.52804
8.36848
8.14353
7.79619
9.26592
9.25258
9.22495
9.18194
9.12211
9.04346
8.94309
8.81459
8.64182
8.41907
9.49951
9.48909
9.46775
9.43456
9.38811
9.32643
9.24676
9.14453
9.01348
8.86479
9.68724
9.68011
9.66564
9.64295
9.61065
9.56688
9.50922
9.43461
9.3402
9.23674
7.21468
7.49576
7.81016
8.06528
8.32715
8.58659
8.83261
9.05626
9.25166
9.45904
7.55711
7.92519
8.22074
8.46415
8.69567
8.91442
9.11489
9.29407
9.45079
9.61635
7.47758
7.93905
8.30973
8.60679
8.86466
9.08922
9.28186
9.44524
9.58253
9.72062
7.43178
7.94374
8.36102
8.69092
8.96742
9.19883
9.38946
9.5444
9.66886
9.78682
7.44619
7.97061
8.40878
8.75593
9.04289
9.27749
9.46527
9.61276
9.72659
9.82903
7.47614
8.00457
8.45641
8.8141
9.10584
9.3395
9.52214
9.66173
9.76617
9.85663
7.50009
8.03283
8.49669
8.86236
9.15628
9.38724
9.56416
9.69649
9.79322
9.87484
7.50944
8.04881
8.52361
8.89652
9.1923
9.42096
9.59324
9.71995
9.81104
9.88653
7.49768
8.04758
8.53284
8.9138
9.21283
9.44104
9.61076
9.73404
9.82161
9.89336
7.48238
8.04086
8.53147
8.91839
9.22053
9.44944
9.61839
9.74024
9.82624
9.89629
2.60933
2.60066
2.56683
2.53105
2.49511
2.34668
1.98307
1.6248
1.76552
2.99483
2.97389
2.95602
2.89373
2.80678
2.80181
2.85887
2.73353
2.46644
2.64045
3.88969
3.41302
3.39023
3.34493
3.26343
3.27535
3.43732
3.55192
3.53435
3.76364
4.69955
3.93171
3.89482
3.89485
3.89677
3.9881
4.21476
4.46366
4.65169
4.93539
5.59468
4.51809
4.4677
4.52651
4.63627
4.83186
5.11456
5.42396
5.71361
6.02315
6.52651
5.11585
5.06415
5.19111
5.39465
5.6701
5.99005
6.32151
6.64331
6.95534
7.38465
5.64666
5.60664
5.80383
6.07809
6.40235
6.74108
7.07654
7.39935
7.70185
8.08874
6.04285
6.0253
6.28956
6.6206
6.97967
7.3315
7.66663
7.98081
8.26795
8.61617
6.22752
6.24337
6.5983
6.9989
7.39994
7.77138
8.11045
8.41588
8.68489
8.99074
6.56451
6.53151
6.92169
7.35134
7.76005
8.12837
8.45767
8.74614
8.99159
9.25217
0.074553
0.0821202
0.0146825
0.0109443
0.0167984
0.111598
0.513067
1.187
1.76919
2.379
0.0530395
0.0888005
0.0158843
0.0129798
0.0209745
0.128622
0.569166
1.30548
1.89842
2.66319
0.039125
0.0974298
0.0181011
0.0169746
0.0284514
0.154789
0.644131
1.42949
2.03378
3.01014
0.0301804
0.107745
0.0214515
0.0232823
0.0398114
0.191189
0.735162
1.55418
2.20006
3.43331
0.0246909
0.11981
0.0260317
0.0319887
0.0552645
0.237782
0.836969
1.68111
2.42243
3.91336
0.0217871
0.133902
0.0318889
0.0429392
0.0747097
0.293852
0.945624
1.81996
2.71103
4.39602
0.0209607
0.150234
0.0391018
0.0556833
0.0968701
0.354587
1.05454
1.9769
3.04929
4.80763
0.0219334
0.169232
0.0478689
0.0698856
0.122723
0.423203
1.17741
2.17702
3.41658
5.07802
0.0251907
0.190353
0.0583604
0.0838933
0.145173
0.474164
1.26687
2.34856
3.69353
5.07433
0.0349432
0.209086
0.0711545
0.0990081
0.182202
0.571177
1.44931
2.62764
3.9477
4.87335
0.0642267
0.23658
0.089112
0.116958
0.202438
0.596778
1.5096
2.7598
3.98808
4.67543
0.138073
0.280951
0.102423
0.116964
0.156921
0.437201
1.263
2.54601
3.61704
5.25379
0.279438
0.333243
0.115391
0.113171
0.100174
0.279998
1.00756
2.36796
3.36926
5.02984
0.526412
0.35457
0.0565084
0.0370222
0.0535824
0.166174
0.861539
2.26975
3.54235
4.68645
0.894009
0.268385
0.0829425
0.357833
0.577037
0.725698
1.46699
2.83152
4.49419
5.07651
1.41719
0.0859558
0.677895
0.890116
1.044
1.29497
2.19052
3.69383
5.47911
6.1671
2.10738
0.605075
1.03533
1.25835
1.48882
1.87004
2.87071
4.48431
6.24805
7.19594
3.73846
1.63062
1.5338
1.68795
1.92928
2.41517
3.47483
5.12667
6.82833
7.9576
6.84807
3.52396
2.21438
2.06147
2.30493
2.88331
3.98427
5.63364
7.27875
8.49726
9.04761
6.39146
3.13443
2.58239
2.71359
3.34087
4.43534
6.05879
7.6742
8.92942
6.59272
6.6608
6.48878
6.37276
6.33711
6.31471
6.3009
6.31525
6.36154
6.47586
5.55325
5.04055
4.79105
4.54559
4.14208
3.55017
2.80217
1.9305
1.03914
0.277312
4.91079
4.28534
3.86131
3.63437
3.43375
3.30599
3.31061
3.4604
3.67001
3.89944
4.68923
4.84614
4.98507
5.29924
5.67386
6.0352
6.32509
6.51728
6.61423
6.63958
5.62416
6.24157
6.58179
6.89178
7.16031
7.37372
7.52623
7.62354
7.67248
7.68825
6.83721
7.37045
7.6716
7.89234
8.0679
8.20665
8.30978
8.38058
8.42255
8.44081
7.75212
8.10964
8.34216
8.5085
8.63876
8.74199
8.82077
8.87723
8.91318
8.93056
8.39434
8.62298
8.79968
8.93215
9.03566
9.11672
9.17839
9.22278
9.25145
9.26558
8.85722
9.00795
9.14012
9.24374
9.32453
9.38701
9.43399
9.4675
9.48901
9.4995
9.24233
9.34495
9.43832
9.51223
9.56934
9.61263
9.64449
9.66676
9.68079
9.68747
9.54914
9.05635
8.33355
7.05463
5.75115
0.165902
3.36375
6.06853
7.31177
8.25097
9.50929
8.99717
8.26849
7.01797
5.68445
0.647613
2.60996
5.82236
7.02014
8.02082
9.41898
8.86814
8.12713
6.93809
5.49755
1.73221
1.41199
5.32743
6.42761
7.52515
9.25346
8.64647
7.89253
6.78682
5.32562
2.8754
0.75028
4.35085
5.56079
6.71407
8.9701
8.29725
7.53772
6.51877
5.17305
3.50617
1.01855
2.73458
4.47797
5.56255
8.50543
7.77453
7.02385
6.08233
4.91977
3.58381
1.79696
1.37382
3.22014
4.1805
7.78366
7.03067
6.3101
5.44777
4.46849
3.38676
2.2597
1.23347
1.80129
2.75091
6.76427
6.05082
5.38046
4.60019
3.78248
2.96155
2.2054
1.54415
1.15215
1.37921
5.51812
4.91688
4.30774
3.59465
2.92116
2.32127
1.8621
1.49829
1.21005
0.703093
4.22222
3.81124
3.27126
2.60229
2.05484
1.65549
1.41071
1.29883
1.15088
0.871838
3.04572
2.88432
2.42329
1.78901
1.35815
1.13404
1.04879
1.05065
1.05488
1.08249
2.09787
2.16354
1.7809
1.20514
0.907061
0.851103
0.894837
0.941851
0.940904
0.95828
1.43143
1.59856
1.27294
0.809256
0.681062
0.76689
0.881653
0.959921
0.975859
0.988134
1.01655
1.13738
0.854523
0.598354
0.668122
0.829862
0.954569
1.02747
1.03757
1.03813
0.744709
0.725721
0.550995
0.594299
0.790327
0.96044
1.07685
1.14307
1.15284
1.14447
0.520471
0.371799
0.470576
0.717289
0.93772
1.10177
1.20896
1.27166
1.28575
1.27744
0.22577
0.257261
0.579751
0.84258
1.06868
1.22539
1.33387
1.40367
1.43112
1.42995
0.0654191
0.38183
0.695632
0.969592
1.17783
1.33957
1.46943
1.56338
1.60692
1.61244
0.203409
0.577025
0.844456
1.10785
1.31955
1.52691
1.69835
1.80471
1.84233
1.84324
0.834752
0.971406
1.07499
1.29996
1.58359
1.85832
2.02821
2.09856
2.11531
2.11301
0.373553
0.0362738
0.311884
0.608572
0.795346
0.896849
0.972906
1.02962
1.06424
1.08068
0.508291
0.265101
0.355059
0.543155
0.690722
0.771478
0.834246
0.88181
0.910445
0.920737
0.606472
0.446595
0.427803
0.475269
0.571133
0.63045
0.678618
0.715072
0.73651
0.738555
0.757046
0.686075
0.557948
0.441347
0.440444
0.475558
0.510769
0.537473
0.55276
0.551488
0.944854
0.877041
0.673973
0.455393
0.315614
0.298724
0.317474
0.335275
0.344873
0.331926
1.14546
1.03458
0.771033
0.489196
0.235315
0.137346
0.10616
0.0924705
0.0860441
0.0673983
1.34295
1.1645
0.851684
0.517767
0.198689
0.0694918
0.0314762
0.0188147
0.0145088
0.0113149
1.53978
1.29028
0.931151
0.544297
0.191075
0.0558699
0.0226232
0.0136837
0.0112039
0.0101396
1.74836
1.42338
1.01802
0.574421
0.197544
0.055819
0.0226746
0.0138465
0.0113588
0.0101721
1.97756
1.56285
1.11652
0.611707
0.210458
0.0581847
0.0232861
0.0141722
0.0116009
0.0102233
2.0602
0.693074
0.708165
0.990816
1.2642
1.4385
1.55055
1.62146
1.66091
1.68949
1.4795
0.448646
0.599811
0.916985
1.17442
1.33845
1.44811
1.51981
1.56094
1.58799
0.829417
0.264885
0.533425
0.851095
1.09142
1.24347
1.3489
1.41999
1.46157
1.48706
0.320236
0.178041
0.481411
0.786689
1.00359
1.13799
1.2349
1.30266
1.34309
1.36614
0.471929
0.0415169
0.371365
0.681508
0.889691
1.0126
1.10301
1.16864
1.20865
1.23019
9.43258
9.37341
9.23638
8.98831
8.58002
7.95191
7.06803
5.95763
4.75414
3.67086
9.2854
9.19638
8.99789
8.65272
8.11304
7.3391
6.33537
5.18433
4.05303
2.95736
9.12632
9.01151
8.75564
8.31577
7.64644
6.72764
5.59814
4.38895
3.27527
2.09064
8.9223
8.77755
8.4552
7.90686
7.0922
6.02081
4.76981
3.49651
2.39782
1.22593
8.68975
8.4909
8.05493
7.32959
6.28875
4.98782
3.55427
2.25662
1.10616
0.325018
1.10078
1.07897
1.07854
1.06896
1.12966
1.32895
1.77147
2.46705
2.9488
3.04277
0.99668
0.988672
0.998441
0.952632
0.889103
0.907248
1.20016
1.84718
2.2532
2.08321
1.05449
1.05518
1.05189
0.981496
0.858925
0.735981
0.829824
1.34586
1.69476
1.40609
1.13754
1.1509
1.15413
1.09198
0.96944
0.792512
0.677146
0.917298
1.20338
0.980248
1.27421
1.29513
1.29762
1.24299
1.13508
0.964382
0.749721
0.63308
0.726599
0.697782
1.43056
1.44797
1.44251
1.39075
1.29424
1.13556
0.899684
0.610119
0.374923
0.43872
1.60526
1.61307
1.58818
1.51912
1.41359
1.26132
1.03067
0.733175
0.345354
0.14183
1.8138
1.81968
1.78337
1.68183
1.53088
1.35022
1.13862
0.844291
0.501838
0.0658854
2.05767
2.07288
2.05899
1.96764
1.77528
1.51058
1.25257
1.00007
0.801229
0.575481
2.315
2.32512
2.32472
2.28905
2.14846
1.84465
1.47306
1.20994
1.2342
1.58179
8.25078
7.31141
6.06816
3.36325
0.166173
5.74962
7.05413
8.33336
9.05636
9.54923
8.02012
7.01902
5.82128
2.60955
0.647294
5.68054
7.01649
8.26793
8.99723
9.50958
7.52363
6.42562
5.32539
1.4142
1.72808
5.49297
6.93578
8.12628
8.86828
9.41955
6.71122
5.55763
4.34835
0.753642
2.86681
5.3207
6.78391
7.89156
8.64682
9.25446
5.55796
4.47336
2.73561
1.01844
3.4951
5.16703
6.51533
7.53683
8.29804
8.97182
4.17309
3.21385
1.38123
1.78968
3.57148
4.91157
6.07813
7.02326
7.7762
8.50831
2.73905
1.80104
1.24172
2.24679
3.37076
4.45607
5.44168
6.31021
7.03429
7.78838
1.36964
1.16456
1.54767
2.19108
2.93939
3.76294
4.59016
5.38271
6.05929
6.77165
0.711448
1.2236
1.50345
1.8498
2.29485
2.89277
3.5795
4.31667
4.93657
5.52782
0.893279
1.16806
1.31348
1.4095
1.63276
2.02021
2.58306
3.29405
3.8503
4.2292
2.0287
0.513848
1.07162
0.911699
0.906061
0.820271
0.644924
0.353317
0.0425965
0.366173
1.55876
0.220995
0.819054
0.704457
0.76906
0.710094
0.575742
0.380054
0.296312
0.524346
1.26224
0.0176545
0.56604
0.503304
0.611338
0.578821
0.498931
0.437023
0.501514
0.647999
0.973424
0.085011
0.187817
0.294359
0.447918
0.43516
0.445634
0.56229
0.760536
0.833176
0.718542
0.136499
0.0151634
0.0409846
0.235995
0.286891
0.436126
0.682671
0.961787
1.05163
0.508968
0.129008
0.0325498
0.0171242
0.0632099
0.182739
0.445897
0.779435
1.12186
1.27542
0.351736
0.105411
0.022829
0.0156836
0.0255586
0.128685
0.44627
0.851309
1.24928
1.48924
0.238408
0.0869192
0.0176691
0.0119
0.0187059
0.107011
0.445993
0.917384
1.37076
1.69777
0.160146
0.0787226
0.0152533
0.0104266
0.0159378
0.100609
0.454146
0.991551
1.49971
1.91133
0.108104
0.0781844
0.0144332
0.0102752
0.0152493
0.102495
0.475543
1.08105
1.63527
2.13468
9.33588
6.75924
2.80732
2.0368
1.52149
1.30098
1.02309
0.762678
0.729623
2.07999
8.20949
4.61108
2.33645
1.76545
1.40247
1.20982
0.950429
0.650592
0.472953
1.48086
6.11215
3.02546
1.90191
1.5585
1.29191
1.1268
0.886026
0.582055
0.284155
0.815661
4.10744
1.82758
1.58505
1.34129
1.17285
1.03709
0.822008
0.527609
0.199482
0.298959
2.78923
1.01754
1.30369
1.11742
1.03413
0.920535
0.718496
0.414738
0.0564018
0.444534
3.67885
4.76023
5.96172
7.07075
7.95373
8.58119
8.98904
9.2368
9.37364
9.43265
2.95064
4.04945
5.18225
6.33421
7.33871
8.11307
8.6529
8.99807
9.19651
9.28546
2.07555
3.26582
4.38308
5.59396
6.7252
7.64526
8.31531
8.75552
9.01152
9.12633
1.20173
2.37976
3.48544
4.7623
6.01645
7.08981
7.90566
8.45471
8.77739
8.92227
0.327851
1.08804
2.2417
3.54382
4.9812
6.28492
7.32748
8.05394
8.49052
8.68966
)
;

boundaryField
{
    left
    {
        type            calculated;
        value           nonuniform List<scalar> 
35
(
0.305295
0.48065
0.862659
1.52705
2.48153
3.69304
5.05537
6.47214
8.15802
9.4415
0.308965
0.261548
0.231526
0.212456
0.200973
0.195396
0.194865
0.199031
0.209834
0.236277
4.92746
4.04052
3.21402
2.49111
1.87426
1.37129
0.983688
0.701216
0.508815
0.385403
9.61554
8.97955
7.92405
6.85081
5.86073
)
;
    }
    right
    {
        type            calculated;
        value           nonuniform List<scalar> 
35
(
1.68971
1.58782
1.48627
1.36441
1.22717
1.07585
0.913949
0.729783
0.541276
0.322105
0.0631072
0.0109174
0.0100535
0.0100632
0.0100811
0.0100998
0.0101181
0.0101348
0.0101485
0.0101583
0.0101635
0.0101636
0.0101588
0.010149
0.0101396
0.0101192
0.010031
0.0188563
0.292183
0.78036
1.03605
1.30784
1.51344
1.67679
1.81361
)
;
    }
    down
    {
        type            calculated;
        value           nonuniform List<scalar> 
40
(
9.45368
7.25522
3.02167
2.11618
1.55714
1.33146
1.04846
0.797624
0.827947
2.29377
3.94771
5.03804
6.21944
7.27897
8.10806
8.68903
9.0627
9.28898
9.41425
9.46849
9.46841
9.414
9.28852
9.06188
8.68766
8.10582
7.27544
6.21396
5.02973
3.93633
2.26978
0.788384
0.741589
1.01708
1.29543
1.47059
1.58194
1.65181
1.69024
1.71894
)
;
    }
    up
    {
        type            calculated;
        value           nonuniform List<scalar> 
40
(
9.02375
7.78254
6.15868
4.5038
3.36347
2.65915
2.22713
2.00438
1.90434
1.85023
9.72709
9.72081
9.7081
9.68811
9.65956
9.62064
9.569
9.50156
9.41551
9.32176
9.32948
9.42183
9.50644
9.57284
9.62367
9.66194
9.68993
9.70938
9.72158
9.72735
9.26964
7.09926
3.48261
2.70144
2.81713
3.47219
4.57144
6.19006
7.8005
9.03679
)
;
    }
    cylinder
    {
        type            calculated;
        value           nonuniform List<scalar> 
80
(
2.31909
3.54968
4.35082
5.18966
6.14213
7.08546
7.88885
8.49654
8.9244
9.21789
9.44681
9.61813
9.72887
9.79737
9.84014
9.86774
9.88587
9.89759
9.90468
9.90816
9.49946
9.64914
9.74759
9.80922
9.84796
9.87302
9.88943
9.8999
9.90599
9.90859
3.57794
4.39651
5.02405
5.78542
6.64946
7.48027
8.17242
8.69009
9.05352
9.3031
3.02357
1.98386
1.28161
0.881645
0.658104
0.490889
0.248705
0.0559725
0.61748
1.82788
9.62795
9.59321
9.51354
9.36485
9.10425
8.66501
7.96289
6.94504
5.67054
4.30467
9.62785
9.59291
9.51295
9.36381
9.10245
8.662
7.95818
6.9387
5.66579
4.3118
3.05331
2.03417
1.34243
0.945654
0.717442
0.560322
0.334107
0.166733
0.157489
0.875175
)
;
    }
    defaultFaces
    {
        type            empty;
    }
}


// ************************************************************************* //
