/*--------------------------------*- C++ -*----------------------------------*\
  =========                 |
  \\      /  F ield         | OpenFOAM: The Open Source CFD Toolbox
   \\    /   O peration     | Website:  https://openfoam.org
    \\  /    A nd           | Version:  13
     \\/     M anipulation  |
\*---------------------------------------------------------------------------*/
FoamFile
{
    format      ascii;
    class       volScalarField;
    location    "0.37";
    object      p;
}
// * * * * * * * * * * * * * * * * * * * * * * * * * * * * * * * * * * * * * //

dimensions      [0 2 -2 0 0 0 0];

internalField   nonuniform List<scalar> 
1800
(
-0.895401
-0.834126
-0.741868
-0.642901
-0.551028
-0.469343
-0.39743
-0.334093
-0.277731
-0.230468
-1.05758
-0.989354
-0.885558
-0.773896
-0.670128
-0.577724
-0.496279
-0.424681
-0.362238
-0.310493
-1.21065
-1.13532
-1.02005
-0.896017
-0.780813
-0.67814
-0.587504
-0.507715
-0.437903
-0.378522
-1.34956
-1.26714
-1.14079
-1.00512
-0.879398
-0.767418
-0.668542
-0.581428
-0.505047
-0.439484
-1.46889
-1.3795
-1.24264
-1.09624
-0.960985
-0.840598
-0.734266
-0.64049
-0.558119
-0.486764
-1.56341
-1.46735
-1.32084
-1.16496
-1.02148
-0.893907
-0.781238
-0.681818
-0.594351
-0.518058
-1.62819
-1.52595
-1.37089
-1.20706
-1.05687
-0.92348
-0.80571
-0.701756
-0.610184
-0.529871
-1.65905
-1.55135
-1.38905
-1.2191
-1.06393
-0.926283
-0.804801
-0.697549
-0.60296
-0.519638
-1.65259
-1.54038
-1.37243
-1.19841
-1.04013
-0.899892
-0.776171
-0.666933
-0.570489
-0.485226
-1.60654
-1.49098
-1.31956
-1.14334
-0.983946
-0.842866
-0.7184
-0.608522
-0.51139
-0.425252
0.300652
0.320066
0.338235
0.352086
0.36144
0.366977
0.369362
0.369254
0.367239
0.363952
0.265779
0.286536
0.307112
0.323813
0.335986
0.344159
0.348962
0.351052
0.35103
0.349657
0.205847
0.228677
0.252966
0.274049
0.29055
0.30276
0.311258
0.3167
0.319716
0.32128
0.122287
0.147875
0.177124
0.204037
0.226271
0.243808
0.257168
0.267008
0.273999
0.27941
0.0170216
0.046009
0.0813938
0.115472
0.144719
0.168741
0.187991
0.203133
0.214895
0.224911
-0.107475
-0.0744863
-0.0318743
0.010583
0.0479823
0.0794942
0.105509
0.126698
0.143866
0.15907
-0.248138
-0.21058
-0.15974
-0.107813
-0.0612635
-0.0213977
0.0121116
0.039947
0.0629968
0.083776
-0.401344
-0.358667
-0.298681
-0.236302
-0.179709
-0.130718
-0.0890636
-0.0540701
-0.0247666
0.0018178
-0.56306
-0.514707
-0.444713
-0.370951
-0.303447
-0.244537
-0.194026
-0.151292
-0.115227
-0.0825763
-0.72911
-0.674519
-0.593683
-0.50761
-0.428223
-0.358326
-0.297759
-0.245914
-0.201373
-0.161829
0.328507
0.273728
0.22579
0.18504
0.150202
0.119748
0.0916485
0.064869
0.0387612
0.0129175
0.326291
0.275685
0.228163
0.187079
0.151697
0.120749
0.0922843
0.0652439
0.0389464
0.0129612
0.317903
0.275461
0.229556
0.188757
0.153134
0.1218
0.0930049
0.0656986
0.0391854
0.0130229
0.302862
0.272948
0.229976
0.190063
0.1545
0.122893
0.0938028
0.0662275
0.0394746
0.0131017
0.280549
0.267954
0.229424
0.190985
0.155781
0.124019
0.0946701
0.0668245
0.039811
0.013197
0.25035
0.260159
0.227873
0.191515
0.156961
0.125168
0.0955989
0.0674839
0.040191
0.0133082
0.211861
0.249191
0.225243
0.19164
0.158025
0.126329
0.0965811
0.068199
0.040611
0.013435
0.164882
0.234723
0.221478
0.191363
0.15896
0.12749
0.097607
0.0689624
0.0410672
0.013577
0.108351
0.215247
0.215922
0.190433
0.159665
0.128605
0.098654
0.0697619
0.0415535
0.0137334
0.0463093
0.192302
0.208939
0.188878
0.160108
0.129644
0.0997014
0.0705838
0.0420625
0.013904
0.0186104
0.174905
0.201473
0.185507
0.158802
0.129279
0.0997132
0.0707031
0.042187
0.0139991
0.0184245
0.155961
0.186684
0.176369
0.153538
0.126262
0.0979683
0.0696985
0.0416642
0.0138398
0.0318955
0.146405
0.176288
0.168758
0.148651
0.123266
0.0961604
0.0686316
0.041097
0.013663
0.0477393
0.140272
0.167567
0.161796
0.143909
0.120244
0.094289
0.0675085
0.0404908
0.0134702
0.064894
0.137087
0.160564
0.155639
0.139451
0.117291
0.0924136
0.0663643
0.0398651
0.0132687
0.080589
0.135345
0.154757
0.150185
0.135324
0.114472
0.0905862
0.0652334
0.0392389
0.0130646
0.0929923
0.134005
0.149766
0.14535
0.131563
0.111845
0.088855
0.0641482
0.0386303
0.0128633
0.100851
0.132116
0.145194
0.141018
0.128176
0.109454
0.087262
0.0631394
0.038058
0.0126733
0.103966
0.128959
0.140449
0.136817
0.124953
0.107179
0.0857352
0.0621615
0.0374875
0.0124726
0.102544
0.126673
0.137694
0.134554
0.123246
0.105982
0.0849356
0.0616516
0.0371906
0.0123727
-0.278979
-0.337913
-0.375464
-0.39245
-0.390572
-0.372044
-0.339423
-0.295278
-0.242515
-0.186101
-0.119433
-0.177225
-0.217984
-0.242439
-0.251649
-0.247643
-0.231682
-0.207696
-0.175441
-0.1436
0.00120238
-0.0546798
-0.0964567
-0.124754
-0.140216
-0.144763
-0.138859
-0.126573
-0.106155
-0.0861762
0.0942418
0.0400317
-0.00205156
-0.0325238
-0.051837
-0.06171
-0.0624614
-0.0575883
-0.0456161
-0.0336956
0.165304
0.112479
0.0703359
0.0384937
0.016585
0.00318331
-0.00215478
-0.00212353
0.0040464
0.01076
0.219379
0.167508
0.125292
0.0924839
0.0687492
0.0529389
0.0444537
0.0412722
0.0435045
0.0467358
0.259635
0.208255
0.165811
0.132164
0.107
0.0894146
0.0786927
0.0732979
0.0728437
0.0736861
0.288173
0.236782
0.193822
0.159249
0.132787
0.113729
0.101321
0.0944041
0.0922421
0.0915945
0.305728
0.253803
0.209776
0.173853
0.145855
0.125249
0.111298
0.103256
0.100296
0.100075
0.315611
0.261261
0.214786
0.176211
0.145395
0.122022
0.105385
0.0953258
0.0907882
0.0916275
1.21644
1.1717
1.12261
1.06984
1.01084
0.943605
0.866501
0.779799
0.693325
0.630132
1.01496
0.964653
0.909984
0.849324
0.780476
0.701839
0.611805
0.51096
0.410724
0.336333
0.804333
0.749291
0.688602
0.620345
0.542651
0.453827
0.352087
0.238224
0.125199
0.0398238
0.601487
0.540263
0.472192
0.39553
0.308511
0.20926
0.0958206
-0.0308752
-0.156254
-0.252524
0.407943
0.340212
0.264778
0.179916
0.0838163
-0.0255405
-0.150248
-0.289248
-0.426123
-0.532842
0.224907
0.151376
0.0693858
-0.0228325
-0.127134
-0.245665
-0.380613
-0.530908
-0.677645
-0.793843
0.0553675
-0.0229204
-0.110368
-0.208786
-0.320039
-0.446319
-0.590135
-0.750792
-0.905352
-1.02882
-0.0972688
-0.179204
-0.270915
-0.374233
-0.490994
-0.623261
-0.773716
-0.943255
-1.10746
-1.22986
-0.229695
-0.314203
-0.409017
-0.515948
-0.636869
-0.773639
-0.927834
-1.10491
-1.27606
-1.39332
-0.339169
-0.425302
-0.522065
-0.631258
-0.754843
-0.894845
-1.05279
-1.23044
-1.40282
-1.51985
2.5003
2.51847
2.54026
2.56311
2.58557
2.60724
2.62755
2.64579
2.66182
2.67321
2.4452
2.46156
2.48112
2.50144
2.52112
2.53972
2.55661
2.57112
2.58346
2.59224
2.36872
2.38241
2.39862
2.41516
2.43069
2.44469
2.45648
2.4654
2.47219
2.4772
2.27153
2.28177
2.29363
2.30523
2.31532
2.3233
2.3284
2.32997
2.32946
2.32974
2.1546
2.16074
2.16736
2.173
2.17652
2.17719
2.17416
2.16681
2.15744
2.15188
2.01949
2.02101
2.02164
2.02042
2.01634
2.00855
1.99607
1.97838
1.95874
1.94605
1.86831
1.8649
1.85903
1.85021
1.83767
1.82041
1.79732
1.76803
1.73689
1.71587
1.70487
1.69614
1.683
1.66566
1.64366
1.61585
1.58102
1.53894
1.4952
1.46477
1.53562
1.52138
1.49991
1.47273
1.4399
1.40018
1.35224
1.29607
1.23866
1.19786
1.36778
1.34266
1.30953
1.27085
1.22622
1.17382
1.11213
1.04129
0.969718
0.917937
2.49349
1.97602
2.43118
2.25409
2.24459
2.24489
2.2515
2.27538
2.3285
2.42908
2.48614
1.96829
2.42495
2.24632
2.23591
2.23458
2.2386
2.25862
2.30486
2.39167
2.47947
1.96006
2.41977
2.23799
2.22657
2.22326
2.22397
2.23901
2.27529
2.34183
2.47344
1.95144
2.41563
2.22907
2.21659
2.21095
2.20763
2.21642
2.23959
2.27929
2.46801
1.94258
2.41254
2.21955
2.20603
2.19767
2.18957
2.19076
2.19756
2.20362
2.46314
1.93367
2.41041
2.20937
2.19492
2.18343
2.16979
2.16186
2.14905
2.11438
2.45877
1.92494
2.40914
2.1985
2.18333
2.16825
2.14826
2.1295
2.09403
2.01102
2.45485
1.91669
2.40853
2.18689
2.17133
2.15213
2.12491
2.09348
2.03269
1.89402
2.45134
1.90924
2.40823
2.17461
2.15903
2.13513
2.09978
2.05375
1.96449
1.76252
2.44822
1.90304
2.40783
2.16175
2.1465
2.11734
2.07329
2.01187
1.89308
1.62651
2.44512
1.89723
2.40189
2.1512
2.13083
2.0947
2.03875
1.95778
1.80875
1.48901
2.44521
1.8912
2.3928
2.14336
2.11409
2.07034
2.00238
1.90382
1.73382
1.41248
2.44729
1.88654
2.3854
2.13567
2.0989
2.04789
1.96937
1.85694
1.67278
1.35703
2.45154
1.88371
2.37942
2.12863
2.08536
2.02771
1.94017
1.8169
1.6232
1.31781
2.45837
1.88281
2.37482
2.12253
2.07364
2.01017
1.91519
1.78366
1.58432
1.29102
2.46834
1.88383
2.37155
2.11755
2.06388
1.99552
1.89463
1.75705
1.55503
1.27346
2.48186
1.88654
2.36955
2.11375
2.05618
1.98393
1.87858
1.73676
1.53406
1.26293
2.50193
1.89059
2.36877
2.11117
2.05062
1.97551
1.86707
1.72253
1.52033
1.25816
2.52302
1.89475
2.36882
2.10971
2.04732
1.97041
1.8602
1.71425
1.51307
1.25867
2.56891
1.89965
2.37182
2.10776
2.04592
1.96768
1.85661
1.70987
1.50956
1.2589
1.18855
1.01281
0.823822
0.644107
0.473628
0.311637
0.160483
0.0231804
-0.0974463
-0.199014
1.11486
0.976044
0.824862
0.678093
0.536793
0.400524
0.271623
0.152925
0.0469357
-0.0443727
1.0756
0.960952
0.834521
0.708234
0.585571
0.466869
0.353923
0.248964
0.154058
0.0709496
1.05553
0.954766
0.845472
0.734792
0.626308
0.520701
0.419394
0.324314
0.237373
0.160245
1.04708
0.955603
0.858186
0.758567
0.66
0.563532
0.470438
0.382426
0.301248
0.228458
1.04557
0.960452
0.871088
0.779202
0.687633
0.597608
0.510321
0.427327
0.350241
0.28053
1.04813
0.967434
0.883506
0.796891
0.710123
0.624509
0.541183
0.461588
0.387243
0.319547
1.05328
0.975525
0.895152
0.811891
0.728141
0.645274
0.564389
0.486857
0.414124
0.347547
1.06246
0.986847
0.908234
0.826294
0.743666
0.661754
0.581628
0.50462
0.432129
0.365448
1.07346
1.00075
0.923032
0.841248
0.758715
0.676691
0.596176
0.518507
0.445061
0.377088
-2.8276
-2.67063
-2.44509
-2.22639
-2.04027
-1.88636
-1.76065
-1.65956
-1.58041
-1.52174
-2.89656
-2.74784
-2.52718
-2.30999
-2.12345
-1.96891
-1.84253
-1.74072
-1.66094
-1.60251
-2.85277
-2.71363
-2.50209
-2.28956
-2.1052
-1.95154
-1.82513
-1.72258
-1.64139
-1.58034
-2.71075
-2.58204
-2.3833
-2.17935
-1.99999
-1.84906
-1.72374
-1.62099
-1.53842
-1.47431
-2.49278
-2.37532
-2.19232
-2.00066
-1.82945
-1.68365
-1.56124
-1.45958
-1.37652
-1.31059
-2.22444
-2.11881
-1.95374
-1.77771
-1.61796
-1.4802
-1.36324
-1.265
-1.18355
-1.11838
-1.93018
-1.83654
-1.69064
-1.53285
-1.3876
-1.26085
-1.15222
-1.06025
-0.983144
-0.921736
-1.62992
-1.54795
-1.4214
-1.28328
-1.1547
-1.04138
-0.943523
-0.86021
-0.790014
-0.734704
-1.33808
-1.26708
-1.1592
-1.0411
-0.930414
-0.832282
-0.747149
-0.674467
-0.612965
-0.566463
-1.06359
-1.00258
-0.911946
-0.813101
-0.720342
-0.637899
-0.566135
-0.504451
-0.450603
-0.408038
-0.811435
-0.759312
-0.684196
-0.603289
-0.527983
-0.461733
-0.405068
-0.357907
-0.318745
-0.284233
-0.583538
-0.539091
-0.47738
-0.412157
-0.352214
-0.300102
-0.256109
-0.219935
-0.190583
-0.163775
-0.380459
-0.342485
-0.292063
-0.240086
-0.193105
-0.152817
-0.119235
-0.0918684
-0.069856
-0.0496116
-0.202627
-0.170048
-0.129049
-0.0881615
-0.0520666
-0.0217426
0.00301557
0.0227898
0.0383803
0.0525551
-0.050538
-0.0223867
0.0108698
0.0426213
0.069715
0.0917519
0.109103
0.122393
0.132358
0.141066
0.075301
0.099918
0.127002
0.151448
0.171322
0.186673
0.197994
0.20593
0.211164
0.215213
0.174443
0.196377
0.218791
0.237698
0.252084
0.262325
0.269006
0.27278
0.274288
0.274643
0.246571
0.266652
0.285865
0.300966
0.311573
0.318284
0.321741
0.322606
0.321486
0.319215
0.291549
0.310599
0.328054
0.341062
0.349587
0.354349
0.356021
0.355266
0.352674
0.34891
0.309458
0.328294
0.34541
0.358015
0.366134
0.370515
0.371839
0.370767
0.367881
0.363784
-0.0540595
0.107708
0.142817
0.144082
0.132781
0.114085
0.0914789
0.0666763
0.0405518
0.0136479
0.03265
0.143717
0.158581
0.151599
0.135047
0.11426
0.0909043
0.0659689
0.0400291
0.0134648
0.10544
0.172423
0.170743
0.155906
0.136849
0.114485
0.0904663
0.0653887
0.0395906
0.0133088
0.163714
0.195668
0.181432
0.160948
0.138662
0.11482
0.0901732
0.0649347
0.0392338
0.0131793
0.2109
0.215065
0.190896
0.165493
0.140416
0.115255
0.090018
0.0646014
0.0389554
0.0130748
0.248533
0.231112
0.1992
0.169635
0.142131
0.115788
0.0899954
0.0643843
0.0387523
0.0129943
0.277833
0.244305
0.206481
0.173414
0.143812
0.116416
0.0900993
0.0642786
0.0386215
0.0129367
0.299847
0.255005
0.212776
0.176839
0.145461
0.117133
0.0903233
0.0642793
0.03856
0.0129011
0.315347
0.263409
0.218094
0.179917
0.147078
0.117932
0.0906608
0.0643814
0.0385648
0.0128866
0.32484
0.269635
0.222434
0.182651
0.14866
0.118806
0.0911049
0.0645797
0.0386329
0.0128923
-0.238771
-0.00340785
0.0855723
0.116335
0.119862
0.108718
0.0896489
0.0663514
0.0407209
0.0138012
-0.21125
0.00898945
0.0913867
0.118932
0.12108
0.10916
0.0897694
0.0663476
0.0406825
0.0137805
-0.18095
0.0279281
0.101112
0.123615
0.123188
0.110043
0.0900744
0.0664077
0.0406567
0.0137564
-0.147764
0.0505039
0.113361
0.129743
0.125918
0.111365
0.0906238
0.0666013
0.0407019
0.0137566
-0.109558
0.0781181
0.128752
0.13754
0.130187
0.113105
0.0913918
0.066912
0.0408072
0.0137761
-1.45538
-1.53637
-1.53079
-1.45121
-1.31758
-1.15832
-0.989894
-0.832708
-0.681379
-0.545044
-1.45784
-1.54002
-1.5308
-1.4446
-1.30284
-1.13407
-0.953051
-0.781344
-0.619355
-0.485308
-1.46316
-1.54482
-1.53054
-1.43644
-1.28543
-1.10622
-0.918882
-0.745682
-0.589208
-0.464098
-1.47393
-1.55473
-1.53496
-1.43301
-1.27443
-1.08861
-0.898561
-0.721995
-0.565657
-0.439324
-1.49104
-1.57191
-1.54765
-1.43896
-1.27384
-1.08206
-0.887581
-0.705235
-0.543265
-0.401637
1.85283
1.83251
1.80574
1.77494
1.73975
1.69837
1.64932
1.59241
1.53458
1.49403
2.00403
1.99679
1.98367
1.96636
1.94498
1.91838
1.88534
1.84559
1.80456
1.77664
2.1427
2.14145
2.13749
2.13096
2.12133
2.10761
2.0887
2.06414
2.03795
2.02077
2.26429
2.26854
2.27211
2.2743
2.27421
2.271
2.26373
2.25182
2.23811
2.22971
2.36507
2.37398
2.38368
2.39293
2.40062
2.40603
2.40833
2.40688
2.4035
2.40204
2.44368
2.45649
2.47126
2.48625
2.50022
2.51256
2.52255
2.52952
2.53446
2.53834
2.49982
2.51565
2.53429
2.55365
2.57237
2.58995
2.60573
2.61904
2.63024
2.6383
2.53345
2.55135
2.57264
2.59497
2.61692
2.63804
2.65776
2.67535
2.69077
2.70175
2.54467
2.56364
2.58632
2.61022
2.63385
2.65683
2.67859
2.69841
2.71604
2.72857
2.53355
2.55261
2.57545
2.59951
2.6233
2.64645
2.6684
2.68843
2.70625
2.7189
-1.3315
-1.39329
-1.47335
-1.57432
-1.6992
-1.85105
-2.03295
-2.25323
-2.4789
-2.64179
-1.03927
-1.10546
-1.18837
-1.29052
-1.41483
-1.5644
-1.74437
-1.95738
-2.1763
-2.3467
-0.664817
-0.737269
-0.825032
-0.929808
-1.0543
-1.2019
-1.3768
-1.57884
-1.7844
-1.96152
-0.243508
-0.32368
-0.416557
-0.52344
-0.646954
-0.790305
-0.957115
-1.14751
-1.34245
-1.50589
0.178427
0.0938987
-0.000426852
-0.105755
-0.224706
-0.360299
-0.515966
-0.691986
-0.871422
-1.01706
0.566108
0.484241
0.394676
0.296317
0.186659
0.062953
-0.0778679
-0.236077
-0.396417
-0.522896
0.906629
0.833661
0.754374
0.667715
0.571341
0.462881
0.339727
0.201749
0.0625324
-0.0445695
1.20432
1.143
1.07667
1.00407
0.922839
0.831036
0.726573
0.609479
0.491736
0.403336
1.47266
1.42133
1.36622
1.30651
1.23946
1.16341
1.07676
0.979604
0.882303
0.811157
1.70657
1.66352
1.61646
1.5676
1.51392
1.45334
1.38434
1.30679
1.22925
1.174
2.61222
2.02869
2.53366
2.2827
2.2904
2.29237
2.29185
2.2907
2.24668
2.08113
2.5958
2.02403
2.5228
2.28559
2.28873
2.29174
2.29338
2.30075
2.27927
2.17846
2.58064
2.01958
2.51127
2.28697
2.28667
2.29045
2.29524
2.30983
2.30886
2.2674
2.56664
2.01519
2.49947
2.28687
2.28406
2.28828
2.29522
2.3156
2.332
2.33776
2.55365
2.01074
2.48778
2.28535
2.28078
2.28514
2.2937
2.31827
2.34911
2.39186
2.54158
2.00609
2.47648
2.28253
2.27673
2.28102
2.29069
2.31799
2.36036
2.43078
2.53037
2.0011
2.46576
2.27857
2.27189
2.27588
2.28613
2.3149
2.36562
2.45576
2.51998
1.99567
2.45578
2.27361
2.26624
2.26969
2.27998
2.3091
2.36502
2.46768
2.51038
1.98971
2.44664
2.26781
2.25978
2.26247
2.27218
2.30058
2.35854
2.46713
2.50156
1.98317
2.43842
2.26128
2.25255
2.2542
2.26269
2.28935
2.34637
2.45421
2.75666
2.05154
2.55379
2.28847
2.29352
2.28946
2.27645
2.24821
2.14959
1.90707
2.70805
2.04847
2.54968
2.28925
2.29315
2.29003
2.27754
2.25089
2.15507
1.91116
2.68001
2.04512
2.54772
2.2882
2.29293
2.29058
2.2797
2.25628
2.16659
1.92194
2.65375
2.04008
2.54448
2.28593
2.29242
2.29115
2.28284
2.26453
2.18436
1.94705
2.63082
2.03421
2.54076
2.2826
2.29162
2.29162
2.2867
2.27542
2.20862
1.98486
1.56894
1.41756
1.19608
0.902829
0.544532
0.131353
-0.299449
-0.697836
-1.03064
-1.28558
1.55726
1.40135
1.1839
0.901852
0.559175
0.160326
-0.26514
-0.669281
-1.01443
-1.28089
1.56868
1.40362
1.18224
0.905997
0.573602
0.184988
-0.237646
-0.649269
-1.00585
-1.28154
1.61033
1.42622
1.19409
0.917672
0.58821
0.203172
-0.219667
-0.63835
-1.0047
-1.28821
1.68255
1.46921
1.21674
0.931819
0.599885
0.215311
-0.208211
-0.632312
-1.00771
-1.3
)
;

boundaryField
{
    left
    {
        type            zeroGradient;
    }
    right
    {
        type            fixedValue;
        value           uniform 0;
    }
    down
    {
        type            zeroGradient;
    }
    up
    {
        type            zeroGradient;
    }
    cylinder
    {
        type            zeroGradient;
    }
    defaultFaces
    {
        type            empty;
    }
}


// ************************************************************************* //
