/*--------------------------------*- C++ -*----------------------------------*\
  =========                 |
  \\      /  F ield         | OpenFOAM: The Open Source CFD Toolbox
   \\    /   O peration     | Website:  https://openfoam.org
    \\  /    A nd           | Version:  13
     \\/     M anipulation  |
\*---------------------------------------------------------------------------*/
FoamFile
{
    format      ascii;
    class       surfaceScalarField;
    location    "0.03";
    object      phi;
}
// * * * * * * * * * * * * * * * * * * * * * * * * * * * * * * * * * * * * * //

dimensions      [0 3 -1 0 0 0 0];

internalField   nonuniform List<scalar> 
3485
(
0.00125096
-0.0121849
0.010934
0.00460902
-0.0342227
0.0308646
0.00981896
-0.0546643
0.0494543
0.016691
-0.0734953
0.0666233
0.0250796
-0.0907724
0.0823837
0.0348759
-0.106567
0.0967705
0.0459992
-0.120942
0.109819
0.058423
-0.133943
0.121519
0.0722712
-0.14565
0.131802
-0.156114
0.140242
0.088143
0.00134174
-0.0135267
0.00487609
-0.037757
0.010282
-0.0600701
0.0173184
-0.0805318
0.0257924
-0.0992464
0.0355488
-0.116323
0.0464711
-0.131864
0.0584914
-0.145964
0.0715761
-0.158734
-0.170162
0.0856246
0.0013037
-0.0148304
0.00471734
-0.0411707
0.00990498
-0.0652578
0.0166095
-0.0872363
0.024626
-0.107263
0.0337947
-0.125492
0.0439952
-0.142065
0.0551446
-0.157113
0.067176
-0.170766
-0.183024
0.0800372
0.00118012
-0.0160105
0.00428487
-0.0442754
0.00901226
-0.0699852
0.0151276
-0.0933516
0.0224511
-0.114586
0.0308463
-0.133887
0.040218
-0.151436
0.0504986
-0.167394
0.0616388
-0.181906
-0.194994
0.0736092
0.00102833
-0.0170388
0.00374926
-0.0469964
0.00791002
-0.0741459
0.0133185
-0.0987601
0.0198268
-0.121095
0.027331
-0.141391
0.0357561
-0.159861
0.0450574
-0.176695
0.0551997
-0.192048
-0.205966
0.066172
0.000861605
-0.0179004
0.0031506
-0.0492854
0.00666817
-0.0776635
0.0112606
-0.103353
0.0168183
-0.126652
0.0232586
-0.147831
0.0305326
-0.167135
0.038606
-0.184768
0.0474644
-0.200907
-0.215603
0.0571014
0.000680281
-0.0185807
0.00249526
-0.0511003
0.00529208
-0.0804603
0.00895943
-0.10702
0.0134116
-0.131105
0.0185949
-0.153015
0.0244704
-0.173011
0.0310256
-0.191323
0.0382534
-0.208134
-0.223515
0.0461648
0.000489419
-0.0190701
0.00179858
-0.0524095
0.00382093
-0.0824827
0.00647535
-0.109674
0.00970375
-0.134333
0.013465
-0.156776
0.0177374
-0.177283
0.0225139
-0.1961
0.027803
-0.213424
-0.229336
0.0336244
0.000297876
-0.019368
0.00109483
-0.0532065
0.00232615
-0.083714
0.00393705
-0.111285
0.00589124
-0.136287
0.00815781
-0.159043
0.0107246
-0.17985
0.0135856
-0.198961
0.0167542
-0.216592
-0.232836
0.0202537
0.000114453
-0.0194824
0.000418666
-0.0535107
0.000878937
-0.0841743
0.00147638
-0.111883
0.00218569
-0.136997
0.0030005
-0.159857
0.00390394
-0.180754
0.00489973
-0.199957
0.00598237
-0.217675
0.00716408
-0.234017
0.000808167
-0.00314142
0.00233325
0.00326416
-0.0090791
0.00662311
0.00766913
-0.0141973
0.0097923
0.0137213
-0.0181842
0.0121321
0.0210426
-0.0214372
0.0141159
0.0293707
-0.0243013
0.0159732
0.0385211
-0.0269461
0.0177957
0.0483414
-0.0294586
0.0196383
0.0586966
-0.0319114
0.0215562
-0.0343663
0.0694599
0.0236031
0.000717746
-0.00385917
0.00279505
-0.0111564
0.00652866
-0.0179309
0.012039
-0.0236945
0.0190795
-0.0284777
0.0273192
-0.0325409
0.036499
-0.036126
0.0464298
-0.0393893
0.0569579
-0.0424395
-0.0453472
0.0679388
0.000703161
-0.00456233
0.00271392
-0.0131672
0.00614156
-0.0213585
0.011189
-0.0287419
0.017854
-0.0351428
0.0259064
-0.0405933
0.0350636
-0.0452832
0.04509
-0.0494157
0.0557989
-0.0531484
-0.0565658
0.0670175
0.000732104
-0.00529443
0.00282304
-0.0152581
0.00626829
-0.0248038
0.0111573
-0.0336309
0.0175657
-0.0415512
0.0254282
-0.0484558
0.0345409
-0.054396
0.0446601
-0.0595349
0.0555664
-0.0640546
-0.0680524
0.0670529
0.000793715
-0.00608814
0.00303555
-0.0174999
0.00665524
-0.0284235
0.0116399
-0.0386156
0.0180177
-0.047929
0.0257947
-0.0562328
0.0348783
-0.0634795
0.0450806
-0.0697372
0.0561808
-0.0751548
-0.0798174
0.0679457
0.000867308
-0.00695545
0.00328053
-0.0199132
0.00712075
-0.0322637
0.012311
-0.0438059
0.0188156
-0.0544336
0.0266278
-0.064045
0.0357167
-0.0725684
0.0459748
-0.0799953
0.0572234
-0.0864034
-0.0918175
0.0692235
0.000932782
-0.00788823
0.00349743
-0.0224778
0.00753734
-0.0363036
0.0129345
-0.0492031
0.0196055
-0.0611045
0.0275056
-0.0719451
0.0366095
-0.0816724
0.0468668
-0.0902526
0.0581621
-0.0976987
-0.103941
0.0702855
0.000977703
-0.00886594
0.00365375
-0.0251539
0.00784693
-0.0404968
0.0134115
-0.0547676
0.0202306
-0.0679236
0.0282227
-0.0799373
0.0373396
-0.0907893
0.0475438
-0.100457
0.0587698
-0.108925
-0.116045
0.070874
0.00100939
-0.00987533
0.00377913
-0.0279236
0.00811776
-0.0448354
0.0138596
-0.0605094
0.0208636
-0.0749277
0.0290189
-0.0880925
0.0382427
-0.100013
0.0484659
-0.11068
0.0596185
-0.120077
-0.128086
0.0716597
0.00105863
0.00399966
0.00861858
0.0147324
0.0221885
0.0308665
0.0406719
0.0515115
0.0632358
0.0753917
0.138949
-0.375543
0.306053
0.1852
-0.380147
0.333897
0.211282
-0.28099
0.254908
0.225431
-0.195833
0.181684
0.232984
-0.13692
0.129367
0.236781
-0.094771
0.0909738
0.238223
-0.0636127
0.062171
0.238091
-0.0400302
0.0401619
0.236836
-0.0214438
0.0226994
-0.00516258
0.00732829
0.137684
-0.445288
0.185058
-0.427521
0.212338
-0.30827
0.226748
-0.210243
0.234236
-0.144409
0.237906
-0.0984399
0.239247
-0.064954
0.239077
-0.0398593
0.237853
-0.0202202
-0.00310148
0.135855
-0.514126
0.183711
-0.475377
0.21229
-0.336849
0.227162
-0.225115
0.234755
-0.152001
0.23845
-0.102135
0.239844
-0.066348
0.239789
-0.0398042
0.238756
-0.0191869
-0.00130628
0.133841
-0.580913
0.181306
-0.522842
0.211155
-0.366698
0.226685
-0.240645
0.234543
-0.159859
0.238411
-0.106004
0.240006
-0.0679421
0.240218
-0.0400162
0.239529
-0.0184984
5.93943e-05
0.13186
-0.644828
0.178065
-0.569047
0.208967
-0.397601
0.225335
-0.257013
0.233609
-0.168133
0.237792
-0.110187
0.239728
-0.0698779
0.240354
-0.0406424
0.240165
-0.0183094
0.000837396
0.129843
-0.705448
0.174235
-0.613438
0.205771
-0.429137
0.223113
-0.274354
0.231964
-0.176984
0.236596
-0.114818
0.239009
-0.0722907
0.240191
-0.0418249
0.240652
-0.0187704
0.000869486
0.127404
-0.762566
0.170027
-0.656062
0.201712
-0.460822
0.220056
-0.292698
0.229626
-0.186555
0.234831
-0.120023
0.237849
-0.0753083
0.239723
-0.0436994
0.24098
-0.0200268
-2.46961e-07
0.12394
-0.815632
0.165306
-0.697428
0.196774
-0.49229
0.216095
-0.312019
0.226572
-0.197032
0.232504
-0.125954
0.236253
-0.079057
0.238948
-0.0463953
0.241139
-0.0222171
-0.00192729
0.119275
-0.863247
0.160029
-0.738183
0.191388
-0.523649
0.211633
-0.332264
0.222955
-0.208354
0.229651
-0.13265
0.23423
-0.0836364
0.237867
-0.0500317
0.241122
-0.0254717
-0.00506161
0.113881
-0.901736
0.153262
-0.777564
0.184564
-0.554951
0.206087
-0.353787
0.218593
-0.22086
0.226231
-0.140288
0.231766
-0.0891717
0.23647
-0.0547354
0.240927
-0.0299286
-0.00953707
0.535701
-0.875804
-0.561633
0.491696
-0.733559
0.450842
-0.514096
0.421333
-0.324278
0.402676
-0.202203
0.391267
-0.12888
0.384109
-0.0820141
0.37968
-0.0503058
0.377252
-0.0275002
-0.0087784
0.611239
-0.799074
-0.687969
0.535604
-0.657924
0.475825
-0.454317
0.436338
-0.28479
0.412477
-0.178342
0.397836
-0.11424
0.388604
-0.0727814
0.382922
-0.0446237
0.379833
-0.024411
-0.00783474
0.667235
-0.684844
-0.781466
0.569135
-0.559824
0.49618
-0.381362
0.449503
-0.238114
0.421248
-0.150087
0.403692
-0.0966834
0.392604
-0.061693
0.385798
-0.0378181
0.382118
-0.0207303
-0.00673885
0.698098
-0.551856
-0.831086
0.587969
-0.449696
0.508664
-0.302057
0.458995
-0.188445
0.428251
-0.119342
0.408575
-0.0770077
0.395982
-0.0491002
0.388226
-0.0300612
0.38404
-0.0165452
-0.00553752
0.691322
-0.417878
-0.825299
0.582679
-0.341053
0.507467
-0.226845
0.460514
-0.141492
0.429998
-0.0888262
0.409541
-0.0565507
0.396166
-0.0357253
0.387844
-0.0217389
0.383259
-0.0119604
-0.00421198
0.63409
-0.291936
-0.760033
0.530874
-0.237836
0.460935
-0.156906
0.417656
-0.0982122
0.39043
-0.0616004
0.372749
-0.0388702
0.361367
-0.0243433
0.354321
-0.0146921
0.350282
-0.00792171
-0.00289833
0.538288
-0.180247
-0.649977
0.444935
-0.144484
0.382497
-0.0944682
0.343433
-0.0591485
0.319036
-0.0372025
0.303522
-0.0233563
0.293722
-0.0145434
0.287762
-0.0087325
0.284465
-0.00462416
-0.00175758
0.414559
-0.0893058
-0.5055
0.339071
-0.0689957
0.289537
-0.044934
0.25853
-0.0281415
0.239159
-0.0178316
0.226942
-0.0111394
0.219284
-0.00688503
0.214659
-0.00410742
0.21216
-0.00212477
-0.000839819
0.265329
-0.0258811
-0.328753
0.214879
-0.0185458
0.182054
-0.012109
0.161489
-0.00757699
0.148556
-0.00489836
0.140478
-0.0030618
0.135481
-0.00188758
0.132498
-0.0011245
0.130939
-0.000565936
-0.000241209
0.094568
-0.120449
0.0760222
0.0639132
0.0563362
0.0514378
0.0483761
0.0464885
0.045364
0.0447981
0.719343
0.00906531
-0.721244
0.713378
0.0262184
0.703234
0.0437686
0.689378
0.0600208
0.67226
0.0742188
0.65234
0.0860927
0.630253
0.0956958
0.606792
0.103498
0.583124
0.109292
0.109635
0.807623
0.0120291
-0.810587
0.799164
0.0346769
0.788632
0.054301
0.777213
0.0714397
0.765032
0.0863997
0.751807
0.0993179
0.737291
0.110212
0.721691
0.119099
0.705612
0.125371
0.127278
0.779464
0.010292
-0.777726
0.783397
0.0307432
0.787905
0.0497932
0.79182
0.067525
0.794392
0.0838273
0.79524
0.0984699
0.794239
0.111212
0.791567
0.121771
0.787544
0.129394
0.133356
0.733837
0.00836558
-0.731911
0.739149
0.0254315
0.7473
0.0416425
0.757873
0.0569515
0.770318
0.0713824
0.783853
0.0849354
0.797565
0.0975002
0.810643
0.108694
0.822231
0.117805
0.124502
0.669111
0.00630748
-0.667053
0.675106
0.0194371
0.684696
0.0320524
0.697636
0.044011
0.713737
0.0552814
0.732776
0.0658968
0.754384
0.0758916
0.777892
0.0851862
0.802014
0.0936832
0.101217
0.588194
0.00434929
-0.586236
0.594078
0.0135537
0.603694
0.0224364
0.61685
0.0308542
0.633398
0.0387335
0.653229
0.0460662
0.676224
0.0528962
0.702116
0.0592941
0.730342
0.0654578
0.0715261
0.491179
0.00262008
-0.489449
0.496479
0.00825332
0.505226
0.0136895
0.517259
0.0188212
0.532414
0.0235779
0.550546
0.0279347
0.571521
0.0319214
0.595192
0.0356229
0.621425
0.0392242
0.0429743
0.377348
0.00124383
-0.375971
0.381637
0.00396405
0.388747
0.00657938
0.398541
0.00902709
0.410858
0.0112609
0.425533
0.0132601
0.442416
0.0150382
0.461393
0.0166455
0.482429
0.0181887
0.0199028
0.244793
0.000336173
-0.243886
0.24767
0.00108773
0.252445
0.00180416
0.259009
0.00246324
0.267223
0.00304711
0.276936
0.00354641
0.288012
0.00396266
0.300353
0.00430489
0.313943
0.00459792
0.00509267
0.0905422
-0.090206
0.0916299
0.0934341
0.0958973
0.0989444
0.102491
0.106454
0.110758
0.115356
0.0717328
0.157243
-0.141502
-0.0874735
0.0580041
0.146843
-0.133114
0.0456844
0.135178
-0.122858
0.0346491
0.122191
-0.111156
0.0249252
0.107801
-0.0980773
0.0165939
0.0919535
-0.0836222
0.00976504
0.0745721
-0.0677433
0.004585
0.0555689
-0.0503889
0.00124469
0.0348659
-0.0315256
0.0124516
-0.0112069
0.0709657
0.171146
-0.0848696
0.05801
0.159799
0.0461021
0.147086
0.0352761
0.133017
0.0256005
0.117477
0.0171929
0.100361
0.010209
0.081556
0.00484204
0.0609359
0.00133247
0.0383755
0.0137841
0.0664465
0.183858
-0.0791577
0.0545547
0.171691
0.0435327
0.158108
0.0334456
0.143105
0.0243754
0.126547
0.0164421
0.108294
0.00980558
0.0881926
0.00466987
0.0660716
0.00129045
0.0417549
0.0150745
0.0607809
0.19567
-0.0725935
0.0497912
0.18268
0.0396517
0.168247
0.0304096
0.152347
0.0221307
0.134826
0.0149092
0.115516
0.00887999
0.0942218
0.00422056
0.070731
0.0011618
0.0448137
0.0162363
0.0542483
0.20649
-0.0650676
0.044256
0.192673
0.0351
0.177403
0.0268131
0.160634
0.0194385
0.1422
0.0130482
0.121906
0.00774322
0.0995268
0.00366671
0.0748075
0.00100444
0.0474759
0.0172408
0.0464609
0.21599
-0.0559614
0.0377415
0.201392
0.0298084
0.185336
0.0226743
0.167768
0.0163707
0.148504
0.0109432
0.127334
0.00646906
0.104001
0.00305085
0.0782257
0.000832366
0.0496944
0.0180731
0.0372172
0.223791
-0.0450182
0.0301098
0.208499
0.0236848
0.191761
0.017947
0.173505
0.012906
0.153545
0.00859513
0.131644
0.00506074
0.107535
0.00237813
0.0809083
0.00064573
0.0514268
0.0187189
0.0267101
0.229529
-0.032448
0.0215248
0.213685
0.0168717
0.196415
0.0127394
0.177638
0.00913011
0.157154
0.00605793
0.134717
0.00355374
0.11004
0.00166255
0.0827995
0.000449044
0.0526403
0.0191679
0.0155146
0.232948
-0.0189339
0.0124575
0.216742
0.00973441
0.199138
0.00732727
0.180045
0.0052345
0.159247
0.00345921
0.136492
0.00202024
0.111479
0.000938993
0.0838808
0.000251572
0.0533277
0.0194195
0.00451896
-0.00558815
0.00358628
0.00276711
0.00205835
0.00144808
0.000943507
0.000539359
0.000245877
6.29639e-05
0.0595367
0.0353615
-0.0704282
-0.02447
0.0490488
0.0328756
-0.0223877
0.039092
0.0303917
-0.020435
0.0298038
0.0278466
-0.0185584
0.021342
0.0251628
-0.016701
0.0139007
0.0222458
-0.0148045
0.00775862
0.0189104
-0.0127683
0.00330809
0.0147856
-0.0103351
0.000830452
0.0094536
-0.00697596
0.00327519
-0.00244474
0.0577462
0.0464636
-0.0688483
0.0470916
0.0435302
0.0370306
0.0404528
0.0277198
0.0371574
0.0193552
0.0335274
0.0122078
0.0293932
0.00662296
0.0244952
0.00284757
0.018561
0.000737128
0.011564
0.00401232
0.0565423
0.0577923
-0.067871
0.0457171
0.0543553
0.0355706
0.0505992
0.0262941
0.0464339
0.0181312
0.0416903
0.0113743
0.0361501
0.00625765
0.0296118
0.00277661
0.0220421
0.000723043
0.0136176
0.00473536
0.0562539
0.0693725
-0.0678342
0.0452466
0.0653627
0.0350221
0.0608237
0.0258059
0.0556502
0.0178488
0.0496474
0.0113587
0.0426401
0.00639918
0.0345714
0.00289237
0.0255489
0.000753531
0.0157564
0.00548889
0.0567868
0.0812091
-0.0686234
0.0456059
0.0765436
0.0353181
0.0711115
0.02615
0.0648183
0.0182939
0.0575035
0.0118427
0.0490914
0.00678874
0.0396253
0.00310637
0.0292312
0.000815721
0.0180471
0.00630461
0.0577118
0.0932539
-0.0697566
0.0464077
0.0878477
0.0360881
0.081431
0.0269368
0.0739696
0.0190627
0.0653775
0.0124962
0.0556579
0.00724419
0.0448773
0.00334664
0.0331288
0.000888079
0.0205056
0.00719269
0.0584901
0.105391
-0.0706269
0.0471692
0.0991685
0.0368794
0.0917208
0.027739
0.0831101
0.0197987
0.0733178
0.0130832
0.0623734
0.00763852
0.050322
0.00355251
0.0372148
0.000950335
0.0231078
0.00814302
0.0588907
0.117472
-0.0709718
0.0476744
0.110385
0.0374722
0.101923
0.0283506
0.0922317
0.020346
0.0813224
0.0135064
0.069213
0.0079149
0.0559135
0.00369218
0.0414375
0.000990312
0.0258097
0.00913333
0.0594857
0.129447
-0.0714612
0.0483853
0.121485
0.0382052
0.112103
0.0290146
0.101422
0.0208811
0.0894559
0.0138867
0.0762074
0.00814383
0.0616563
0.00379664
0.0457847
0.00101587
0.0285905
0.0101492
0.0628382
-0.0748927
0.051209
0.0404539
0.03072
0.0220986
0.0146839
0.00859699
0.00399284
0.00105771
0.210777
0.0587705
-0.0715581
0.222254
0.0927123
-0.104189
0.229342
0.0949579
-0.102046
0.232186
0.100443
-0.103287
0.230827
0.118
-0.11664
0.224639
0.150624
-0.144437
0.211369
0.20266
-0.18939
0.186124
0.283182
-0.257937
0.140351
0.38409
-0.338317
0.38482
-0.314897
0.20966
0.0471006
0.221345
0.0810266
0.228706
0.0875973
0.232022
0.0971263
0.231159
0.118862
0.225339
0.156445
0.212071
0.215928
0.185797
0.309456
0.13895
0.430937
0.454922
0.208799
0.0362915
0.220565
0.0692605
0.228035
0.0801274
0.231586
0.0935753
0.23097
0.119478
0.22527
0.162144
0.211753
0.229445
0.184287
0.336922
0.136971
0.478253
0.524022
0.208141
0.0261401
0.219908
0.0574932
0.227329
0.0727066
0.23089
0.0900143
0.230279
0.12009
0.224461
0.167962
0.210434
0.243473
0.181728
0.365627
0.134783
0.525199
0.59097
0.207649
0.0164806
0.219372
0.0457707
0.226582
0.0654967
0.229934
0.0866621
0.229093
0.12093
0.222929
0.174126
0.208137
0.258265
0.178324
0.39544
0.132597
0.570926
0.654943
0.207304
0.00716644
0.218951
0.0341234
0.225778
0.0586695
0.228705
0.0837354
0.227408
0.122227
0.220661
0.180873
0.20488
0.274045
0.17431
0.426011
0.130343
0.614893
0.71553
0.207095
-0.00193877
0.218636
0.0225819
0.224898
0.0524081
0.227184
0.0814491
0.225216
0.124195
0.217669
0.188421
0.200783
0.290931
0.169904
0.45689
0.12764
0.657157
0.772543
0.207019
-0.0109681
0.218406
0.0111954
0.223911
0.0469024
0.22534
0.0800207
0.222458
0.127077
0.213835
0.197044
0.195797
0.308968
0.164976
0.487711
0.123886
0.698247
0.825457
0.207067
-0.0200449
0.21823
3.22283e-05
0.222785
0.0423467
0.223157
0.0796493
0.21924
0.130994
0.209556
0.206727
0.190393
0.328132
0.159505
0.518599
0.118897
0.738855
0.872892
0.207654
-0.0297087
0.217852
-0.0101663
0.221493
0.0387056
0.220585
0.0805576
0.215369
0.13621
0.204194
0.217902
0.183486
0.34884
0.152498
0.549587
0.113148
0.778206
0.911147
0.328122
-0.0558202
0.348844
-0.0308882
0.367563
0.0199862
0.381973
0.0661472
0.396929
0.121254
0.417007
0.197825
0.446936
0.318911
0.48854
0.507982
0.534462
0.732283
0.881954
0.563656
0.332973
-0.0867834
0.354568
-0.0524824
0.373907
0.000646849
0.389739
0.0503153
0.407321
0.103672
0.432075
0.17307
0.47125
0.279736
0.530919
0.448313
0.607467
0.655736
0.802212
0.687208
0.339036
-0.12381
0.361683
-0.0751291
0.380706
-0.0183762
0.397232
0.0337892
0.416842
0.0840615
0.445398
0.144515
0.491215
0.233919
0.563322
0.376205
0.661508
0.55755
0.686162
0.777558
0.346117
-0.167917
0.369649
-0.0986605
0.387777
-0.0365043
0.404202
0.0173638
0.424881
0.0633834
0.455437
0.113959
0.50402
0.185335
0.582102
0.298123
0.691902
0.44775
0.552258
0.825806
0.352287
-0.218194
0.37742
-0.123794
0.394722
-0.0538061
0.409622
0.00246425
0.429489
0.0435166
0.459206
0.0842419
0.505146
0.139395
0.579063
0.224206
0.687015
0.339798
0.417825
0.821449
0.355583
-0.271766
0.375723
-0.143935
0.378564
-0.0566473
0.381992
-0.000963659
0.394563
0.0309459
0.419538
0.059267
0.461537
0.0973963
0.530027
0.155716
0.632405
0.23742
0.291823
0.758407
0.331784
-0.30154
0.327186
-0.139336
0.310118
-0.0395796
0.310364
-0.00120944
0.322012
0.0192977
0.345107
0.0361718
0.383554
0.0589499
0.445167
0.0941028
0.538131
0.144456
0.180149
0.649805
0.279624
-0.279154
0.248433
-0.108145
0.231826
-0.0229732
0.231819
-0.0012016
0.241547
0.00956891
0.260183
0.0175361
0.290938
0.028195
0.34008
0.0449609
0.415425
0.0691109
0.0892678
0.506306
0.216379
-0.193522
0.158692
-0.0504589
0.143595
-0.00787562
0.143292
-0.000898575
0.150089
0.00277156
0.162749
0.00487626
0.183305
0.00763926
0.216079
0.0121864
0.266568
0.0186225
0.0258744
0.329961
0.108488
0.058029
0.0501534
0.0492548
0.0520264
0.0569026
0.0645419
0.0767283
0.0953508
0.121225
0.584845
-0.108663
0.608029
-0.108054
0.631045
-0.102174
0.652773
-0.0943213
0.672427
-0.0847214
0.689366
-0.0729004
0.703133
-0.0587854
0.713293
-0.0426079
0.719336
-0.0249769
-0.00749597
0.704516
-0.12597
0.72016
-0.123699
0.735408
-0.117421
0.749675
-0.108589
0.762739
-0.0977858
0.774827
-0.0849879
0.786234
-0.0701925
0.796935
-0.0533089
0.806069
-0.0341109
-0.0120135
0.783487
-0.131898
0.787459
-0.127671
0.790227
-0.120188
0.791497
-0.109859
0.79109
-0.0973794
0.78912
-0.0830173
0.785932
-0.0670044
0.782203
-0.0495801
0.778964
-0.0308717
-0.0107765
0.817419
-0.123511
0.806499
-0.116751
0.794149
-0.107838
0.781158
-0.0968686
0.768293
-0.0845143
0.756436
-0.0711605
0.746369
-0.0569367
0.738644
-0.0418553
0.733659
-0.0258867
-0.00902832
0.798866
-0.100928
0.775497
-0.0933827
0.752613
-0.0849543
0.731491
-0.0757462
0.712834
-0.0658576
0.697044
-0.0553703
0.68436
-0.0442528
0.674967
-0.0324625
0.669089
-0.0200084
-0.00699267
0.729089
-0.0716108
0.701237
-0.0655302
0.675638
-0.0593554
0.652874
-0.0529824
0.633228
-0.0462114
0.616823
-0.0389653
0.603762
-0.0311915
0.594184
-0.0228844
0.588274
-0.0140985
-0.00495489
0.621378
-0.0431836
0.595273
-0.0394252
0.571718
-0.0358003
0.550836
-0.0321008
0.532766
-0.0281409
0.517632
-0.0238312
0.505574
-0.0191338
0.496752
-0.0140626
0.491331
-0.00867697
-0.00307353
0.483203
-0.0200801
0.462145
-0.0183682
0.443155
-0.0168094
0.42625
-0.0151965
0.411534
-0.0134249
0.399146
-0.0114434
0.389247
-0.00923402
0.381996
-0.00681172
0.377536
-0.00421719
-0.00150887
0.315047
-0.00516642
0.301356
-0.00467737
0.288926
-0.00437881
0.277762
-0.00403268
0.267953
-0.00361561
0.259629
-0.00311907
0.252935
-0.00254033
0.24801
-0.00188701
0.244968
-0.00117532
-0.000426463
0.116059
0.111381
0.107003
0.10297
0.0993542
0.0962351
0.0936948
0.0918078
0.0906325
0.000282241
0.0206379
-0.0209202
0.00096002
0.0542372
-0.054915
0.00190372
0.0816217
-0.0825654
0.00301107
0.103078
-0.104185
0.00416865
0.118973
-0.120131
0.0057301
0.131818
-0.133379
0.00650034
0.133621
-0.134391
0.00699903
0.125436
-0.125935
0.00707987
0.114189
-0.11427
0.0978416
0.00661418
-0.0973759
0.000812528
0.0198254
0.00277183
0.0522779
0.00550822
0.0788853
0.00872667
0.0998593
0.0121201
0.11558
0.0162883
0.12765
0.0187892
0.13112
0.0203454
0.12388
0.0208265
0.113708
0.0988671
0.0198011
0.00125859
0.0185668
0.00430515
0.0492313
0.00857737
0.0746131
0.0136099
0.0948268
0.0189766
0.110213
0.024951
0.121675
0.0293668
0.126704
0.0320731
0.121174
0.0333561
0.112425
0.0996407
0.0325824
0.0015771
0.0169897
0.0054216
0.0453868
0.010842
0.0691927
0.0172549
0.0884138
0.0241637
0.103304
0.031478
0.114361
0.0376706
0.120511
0.0415771
0.117267
0.0439526
0.110049
0.0994473
0.0441461
0.00176537
0.0152243
0.00610341
0.0410488
0.0122611
0.063035
0.0195919
0.081083
0.0275614
0.0953349
0.0358542
0.106068
0.0434649
0.112901
0.0485533
0.112179
0.052075
0.106528
0.0979807
0.0535416
0.00184247
0.0133819
0.00640827
0.036483
0.0129374
0.0565058
0.0207694
0.073251
0.0293569
0.0867474
0.0382857
0.0971393
0.046892
0.104294
0.0531675
0.105903
0.057683
0.102012
0.0952879
0.0603758
0.00183117
0.0115507
0.0064092
0.0319049
0.0130118
0.0499032
0.0210057
0.0652572
0.0298536
0.0778995
0.0391225
0.0878705
0.0483423
0.0950745
0.0558758
0.0983697
0.061301
0.096587
0.0915533
0.0650356
0.00173298
0.0098177
0.00612048
0.0275174
0.0125256
0.0434981
0.0203814
0.0574014
0.0291917
0.0690892
0.0385483
0.0785138
0.048078
0.0855449
0.0567876
0.0896601
0.063398
0.0899766
0.086797
0.0681543
0.00153659
0.00828111
0.00551238
0.0235416
0.0114196
0.0375909
0.01879
0.050031
0.0272012
0.0606779
0.0362976
0.0694175
0.0457707
0.0760718
0.0551183
0.0803124
0.0632143
0.0818806
0.0806275
0.0693838
0.00127922
0.00700188
0.00469446
0.0201264
0.00987665
0.0324087
0.0164589
0.0434487
0.0241034
0.0530334
0.0325218
0.060999
0.0414588
0.0671349
0.0506396
0.0711316
0.059678
0.0728422
0.0722665
0.068039
0.00107129
0.00593059
0.004
0.0171977
0.00853344
0.0278753
0.0144069
0.0375753
0.0213807
0.0460596
0.0292651
0.0531146
0.037873
0.058527
0.0469104
0.0620941
0.0559728
0.0637798
0.0637092
0.0645301
0.000897587
0.005033
0.00341916
0.0146761
0.0074107
0.0238837
0.0127023
0.0322837
0.0191482
0.0396137
0.0266243
0.0456385
0.0349599
0.0501914
0.043851
0.0532031
0.0529102
0.0547206
0.0547621
0.0618573
0.000754755
0.00427825
0.00294042
0.0124904
0.00649443
0.0203297
0.011348
0.0274301
0.0174476
0.0335141
0.0246952
0.0383909
0.0328769
0.0420097
0.0416812
0.0443988
0.0507963
0.0456055
0.0455997
0.0599587
0.00065636
0.00362188
0.00260877
0.010538
0.0058954
0.0170431
0.0105556
0.0227699
0.0165752
0.0274945
0.0237935
0.0311726
0.0319355
0.0338677
0.0407076
0.0356268
0.0498559
0.0364572
0.036292
0.0591636
0.000611051
0.00301083
0.0024798
0.00866927
0.00578019
0.0137427
0.010598
0.0179521
0.0168159
0.0212766
0.0241632
0.0238253
0.03236
0.0256709
0.0411721
0.0268147
0.0504034
0.0272258
0.0268312
0.0598642
0.000651676
0.00235916
0.00271702
0.00660393
0.00644741
0.0100123
0.0117429
0.0126567
0.0183101
0.0147094
0.0258653
0.0162701
0.0341948
0.0173413
0.0431255
0.017884
0.0525008
0.0178506
0.0171737
0.0621583
0.000896114
0.00146304
0.00360756
0.00389247
0.0080526
0.0055673
0.0138703
0.00683897
0.0207671
0.00781261
0.0285477
0.00848947
0.0370607
0.00882841
0.0461657
0.0087789
0.055727
0.00828931
0.00729771
0.065603
0.0014431
1.99435e-05
0.00496331
0.000372258
0.00995503
0.000575579
0.0161141
0.000679936
0.0232568
0.000669873
0.0312405
0.000505769
0.039936
0.000132893
0.0492178
-0.000502897
0.0589624
-0.00145532
-0.00277943
0.0690396
0.00142943
-0.00140949
0.00521124
-0.00340956
0.0104677
-0.00468084
0.0168618
-0.00571419
0.0242106
-0.00667891
0.0323834
-0.00766711
0.0412618
-0.00874549
0.0507302
-0.0099713
0.0606709
-0.011396
-0.0130689
0.0709604
0.000923763
0.00413732
0.00924877
0.0156666
0.0231036
0.0314097
0.0404599
0.0501269
0.0602871
0.0708213
0.08041
0.190336
-0.206216
0.10706
0.0371777
-0.0638279
0.1268
-0.0320092
0.0122691
0.138948
-0.0408895
0.0287414
0.149366
-0.0360904
0.0256731
0.158277
-0.0281779
0.019267
0.16576
-0.0208062
0.0133231
0.171994
-0.0147942
0.00855956
0.177194
-0.00997879
0.00477888
-0.00592544
0.00182139
0.0901755
0.162018
0.124775
0.00257772
0.149365
-0.0565991
0.163408
-0.054932
0.174301
-0.0469838
0.183403
-0.0372792
0.190936
-0.028339
0.197106
-0.0209633
0.20215
-0.0150229
-0.00958768
0.0986871
0.123289
0.137076
-0.0358114
0.163441
-0.0829643
0.181562
-0.0730526
0.194654
-0.0600758
0.204463
-0.0470883
0.21196
-0.0358358
0.217652
-0.0266548
0.221859
-0.0192303
-0.0122853
0.107019
0.0754342
0.14785
-0.0766429
0.173321
-0.108435
0.191134
-0.0908648
0.204004
-0.0729457
0.213289
-0.056374
0.219923
-0.0424692
0.22451
-0.0312422
0.227396
-0.022116
-0.013734
0.115211
0.0200872
0.157128
-0.11856
0.181908
-0.133215
0.198666
-0.107623
0.21027
-0.0845497
0.218287
-0.0643907
0.223703
-0.0478851
0.227144
-0.0346832
0.228978
-0.02395
-0.0142127
0.122997
-0.0407514
0.165213
-0.160776
0.189444
-0.157446
0.205339
-0.123518
0.215823
-0.0950339
0.22271
-0.0712781
0.227055
-0.0522294
0.229502
-0.0371306
0.230441
-0.0248886
-0.0138752
0.129736
-0.104884
0.171972
-0.203012
0.195954
-0.181427
0.211137
-0.138702
0.220686
-0.104583
0.226617
-0.0772094
0.230054
-0.0556655
0.231665
-0.0387421
0.231856
-0.0250795
-0.012867
0.134833
-0.170678
0.177406
-0.245585
0.201424
-0.205445
0.216052
-0.15333
0.224842
-0.113373
0.22999
-0.0823571
0.232683
-0.0583586
0.233619
-0.0396777
0.233214
-0.0246747
-0.0113375
0.137957
-0.237675
0.181443
-0.28907
0.205821
-0.229823
0.220078
-0.167588
0.228282
-0.121577
0.232815
-0.0868901
0.23493
-0.0604731
0.23535
-0.0400977
0.234504
-0.0238291
-0.00943955
0.1392
0.184026
0.209111
0.223207
0.230998
0.235082
0.23678
0.236845
0.235716
0.0180719
0.012519
-0.0305909
0.0138736
0.00419828
0.0135076
0.000366003
0.0151686
-0.00166101
0.0165945
-0.00142584
0.017559
-0.000964504
0.0181971
-0.000638082
0.0186014
-0.000404262
0.0188098
-0.000208386
-9.33157e-05
0.0539284
0.0476135
-0.0890229
0.0416516
0.0164751
0.042097
-7.93924e-05
0.0461326
-0.00569665
0.0497199
-0.00501311
0.0522952
-0.00353975
0.054037
-0.00237983
0.0551459
-0.00151316
0.0557439
-0.000806274
-0.000330864
0.0857271
0.0988495
-0.136963
0.0684762
0.033726
0.0705259
-0.00212913
0.07662
-0.0117907
0.0820451
-0.0104382
0.0860713
-0.00756591
0.0888314
-0.00513992
0.0905951
-0.00327682
0.0915682
-0.00177928
-0.000701588
0.112411
0.155268
-0.16883
0.0943871
0.0517502
0.0983633
-0.00610538
0.106094
-0.0195218
0.113035
-0.0173787
0.118321
-0.0128521
0.121997
-0.00881581
0.124362
-0.00564179
0.125691
-0.003108
-0.00119882
0.130669
-0.181617
0.118592
0.124755
0.133975
0.14227
0.148685
0.153192
0.15611
0.157782
0.00579727
-0.000337818
-0.00545945
0.00682279
-0.00102552
0.00855202
-0.00172924
0.0109576
-0.0024056
0.0139248
-0.00296721
0.0172506
-0.00332574
0.0206884
-0.00343785
0.0240051
-0.0033167
0.0271793
-0.00317414
-0.00341166
0.0165478
-0.00125557
-0.0156301
0.019328
-0.00380571
0.0239913
-0.00639251
0.0304482
-0.00886249
0.0384318
-0.0109508
0.0475439
-0.0124379
0.057389
-0.0132829
0.0676761
-0.0136039
0.0783034
-0.0138014
-0.0141312
0.0263472
-0.00267233
-0.0249304
0.0306098
-0.00806831
0.0376857
-0.0134685
0.0473796
-0.0185564
0.0592791
-0.0228503
0.0728685
-0.0260273
0.0877136
-0.028128
0.103574
-0.0294642
0.120252
-0.0304795
-0.0308421
0.0349768
-0.00448469
-0.0331644
0.0403952
-0.0134867
0.0492901
-0.0223634
0.061307
-0.0305732
0.0758702
-0.0374135
0.0923421
-0.0424992
0.110234
-0.0460198
0.129315
-0.0485453
0.149295
-0.0504598
-0.0503766
0.0422951
-0.0401656
0.0486094
0.0588285
0.0724013
0.0885294
0.106406
0.125422
0.145031
0.163955
0.0558551
-0.0636136
0.072159
-0.0644005
0.0468088
-0.0637304
0.0727767
0.0377852
-0.0621077
0.0711313
0.0291901
-0.0586044
0.0671994
0.0213222
-0.0532397
0.0611076
0.0143673
-0.046211
0.0531659
0.00851113
-0.0377326
0.0435888
0.00399039
-0.0280188
0.0325395
0.00106885
-0.0173052
0.0202267
-0.00597778
0.00704664
0.0528906
-0.0546609
-0.0618433
0.04383
-0.0546697
0.0349353
-0.0532131
0.026595
-0.050264
0.0191193
-0.045764
0.0126803
-0.039772
0.00739814
-0.0324505
0.00341434
-0.024035
0.000896683
-0.0147875
-0.0050811
0.0509506
-0.0454712
-0.0601403
0.0418091
-0.0455282
0.0329756
-0.0443796
0.0247617
-0.0420501
0.0174847
-0.0384869
0.0113652
-0.0336525
0.00650207
-0.0275874
0.00294424
-0.0204772
0.000756176
-0.0125995
-0.00432492
0.050242
-0.0361086
-0.0596046
0.0410385
-0.0363247
0.0322081
-0.0355493
0.0240031
-0.033845
0.0167191
-0.031203
0.0106401
-0.0275734
0.00593674
-0.022884
0.00262531
-0.0171657
0.000660689
-0.0106348
-0.00366424
0.0510541
-0.0265646
-0.0605981
0.0417385
-0.0270091
0.0328393
-0.0266501
0.0245505
-0.0255563
0.0171057
-0.0237581
0.010788
-0.0212558
0.00588098
-0.0179769
0.00251869
-0.0138035
0.000619836
-0.00873599
-0.0030444
0.0533987
-0.0168016
-0.0631618
0.0439163
-0.0175267
0.0348754
-0.0176092
0.026432
-0.0171129
0.0187583
-0.0160844
0.0120669
-0.0145644
0.00664507
-0.0125551
0.00280348
-0.00996187
0.000670789
-0.0066033
-0.00237361
0.0567969
-0.00680817
-0.0667903
0.0471158
-0.00784557
0.0378875
-0.00838092
0.0292481
-0.00847354
0.0213385
-0.00817481
0.0143104
-0.0075363
0.00835738
-0.00660208
0.0037737
-0.00537818
0.000941977
-0.00377159
-0.00143164
0.0600827
0.00338999
-0.0702809
0.0502138
0.00202333
0.0408044
0.00102852
0.031978
0.000352853
0.0238609
-5.77265e-05
0.016584
-0.000259426
0.0102923
-0.000310385
0.00516764
-0.000253504
0.00150985
-0.000113798
7.82042e-05
0.0617123
0.0138056
-0.0721279
0.0516421
0.0120935
0.0420404
0.0106302
0.0330251
0.00936815
0.0247117
0.00825568
0.0172195
0.00723278
0.0106822
0.0062269
0.00529928
0.00512945
0.00144881
0.00373666
0.00152702
0.0612103
-0.0718747
0.0509161
0.0411113
0.0319211
0.0234758
0.0159041
0.0093627
0.00415703
0.000917725
0.00707201
-0.097835
-0.00661294