# Selection   : all
# Cells       : 440
# Volume      : 7.374263e+01
# Time        	min(p)
4.615         	-2.097680e+00
4.66          	-1.769403e+00
4.71          	-1.771690e+00
