/*--------------------------------*- C++ -*----------------------------------*\
  =========                 |
  \\      /  F ield         | OpenFOAM: The Open Source CFD Toolbox
   \\    /   O peration     | Website:  https://openfoam.org
    \\  /    A nd           | Version:  13
     \\/     M anipulation  |
\*---------------------------------------------------------------------------*/
FoamFile
{
    format      ascii;
    class       volScalarField;
    location    "0.945";
    object      p;
}
// * * * * * * * * * * * * * * * * * * * * * * * * * * * * * * * * * * * * * //

dimensions      [0 2 -2 0 0 0 0];

internalField   nonuniform List<scalar> 
1800
(
5.75251
7.85961
10.0124
11.4408
12.2752
12.6857
12.8165
12.6588
11.4121
7.31944
9.60122
12.0769
14.5818
16.2658
17.3223
17.985
18.4395
18.6784
17.9536
15.2754
15.9928
18.6175
21.2902
23.1535
24.4136
25.2953
25.946
26.3291
25.8578
24.0264
24.9874
27.5568
30.2052
32.1196
33.4849
34.4939
35.2562
35.7081
35.3018
33.6169
36.0455
38.4064
40.8586
42.6702
43.9945
44.9906
45.7451
46.1944
45.8441
44.2884
48.7221
50.7746
52.9182
54.5245
55.7154
56.6176
57.2998
57.7104
57.4291
56.0696
62.6702
64.343
66.0987
67.4306
68.4326
69.2022
69.7936
70.1705
69.9954
68.9066
77.5957
78.8373
80.1483
81.1576
81.9336
82.5474
83.0415
83.3963
83.3629
82.6264
93.2136
93.9933
94.8248
95.4797
96.0025
96.4399
96.8227
97.1461
97.2563
96.9218
109.242
109.547
109.879
110.153
110.391
110.612
110.829
111.043
111.204
111.231
-0.60085
-0.854085
-0.63108
-0.216178
0.256881
0.725292
1.08498
1.29569
1.44084
1.58789
-0.466804
-0.984016
-1.09548
-0.89054
-0.466839
-0.0433363
0.248458
0.490647
0.771194
1.04513
0.539277
-0.430511
-1.26659
-1.4339
-1.10704
-0.802509
-0.59068
-0.286026
0.121503
0.507531
0.933885
-0.209587
-1.41167
-1.75132
-1.53116
-1.37941
-1.25668
-0.952646
-0.495959
0.0117559
0.501434
-0.4682
-1.41152
-1.7035
-1.64678
-1.65941
-1.62523
-1.36488
-0.874371
-0.180546
-0.205029
-0.722996
-1.12518
-1.25532
-1.27656
-1.34343
-1.33766
-1.1307
-0.607231
0.324629
-0.54336
-0.506137
-0.330489
-0.184934
-0.100864
-0.0813892
-0.0443309
0.124116
0.7007
1.93011
-0.0624865
0.523617
1.24422
1.74839
2.07763
2.29031
2.43893
2.65454
3.38414
5.0457
1.38282
2.49069
3.73899
4.66034
5.33019
5.82226
6.16185
6.5004
7.48652
9.77341
3.62327
5.26613
7.08426
8.46015
9.48282
10.2429
10.7651
11.2177
12.2782
14.4409
2.30687
2.44611
2.33829
2.09212
1.58636
1.18342
0.869118
0.599875
0.356139
0.141325
1.95911
2.42382
2.23533
2.01029
1.50416
1.1048
0.81803
0.583792
0.36452
0.153824
1.48201
2.39477
2.13474
1.91946
1.43023
1.03958
0.771909
0.56352
0.369141
0.165558
0.857016
2.31194
2.03461
1.81408
1.35585
0.982725
0.732822
0.545567
0.36553
0.176484
0.162139
2.13532
1.92342
1.69185
1.27482
0.929458
0.699373
0.530364
0.3559
0.183312
-0.411505
1.85558
1.78404
1.55148
1.18365
0.876394
0.669795
0.516681
0.360731
0.183323
-0.56185
1.50639
1.60344
1.39076
1.08063
0.821477
0.642145
0.504423
0.36353
0.17587
0.166125
1.17647
1.37267
1.2009
0.962484
0.762954
0.614806
0.492467
0.353553
0.162283
2.42218
1.03968
1.0711
0.957279
0.821055
0.698493
0.587426
0.47485
0.332704
0.142734
6.65685
1.4083
0.713062
0.639618
0.649215
0.62821
0.55757
0.451698
0.3069
0.120722
9.9813
2.57724
0.688493
0.397277
0.474063
0.552932
0.51858
0.417224
0.271714
0.0918325
11.766
2.57409
0.269536
0.066887
0.364933
0.521417
0.483853
0.371629
0.224898
0.0547527
12.8657
2.78282
0.403064
0.16479
0.480333
0.583052
0.485876
0.340821
0.183837
0.0193277
14.1884
4.37194
1.28853
0.738186
0.798797
0.728971
0.52883
0.329266
0.152391
-0.0119888
16.3651
7.11495
2.70672
1.599
1.24731
0.94255
0.61206
0.34004
0.134084
-0.0363758
19.2544
9.87854
4.33755
2.56191
1.77508
1.2058
0.727519
0.372335
0.130643
-0.0516415
21.7579
11.9393
5.85439
3.5207
2.33993
1.49956
0.865116
0.422848
0.141825
-0.0566349
23.0369
13.1221
7.05156
4.42051
2.9131
1.81001
1.01749
0.488249
0.166455
-0.0510422
22.9768
13.5013
7.91251
5.26786
3.50236
2.1448
1.19134
0.57294
0.208315
-0.0333422
22.424
13.7264
8.68403
6.12905
4.12883
2.52377
1.40889
0.69481
0.288638
0.00253089
111.787
97.8418
84.0772
71.072
59.1327
48.3526
38.7713
30.0948
20.0838
4.97921
112.767
99.4794
85.9788
72.9724
60.9294
50.0486
40.5155
32.2573
23.5923
11.4795
113.299
100.214
87.334
75.0079
63.4693
52.8775
43.4478
35.259
27.4727
18.3388
114.512
102.771
90.8129
78.9825
67.6262
57.0313
47.3986
38.7984
31.0918
23.8289
115.089
104.078
93.1572
82.4664
72.1196
62.1955
52.7335
43.8234
36.0057
29.8271
115.438
104.711
94.2047
84.0432
74.3228
65.0936
56.3344
48.0932
41.0518
36.035
115.67
105.111
94.7996
84.8676
75.425
66.5448
58.2361
50.5686
44.2147
40.0953
115.77
105.249
94.9826
85.1114
75.7575
67.0118
58.9081
51.5148
45.3981
41.4384
115.72
105.034
94.6082
84.5893
75.1103
66.278
58.148
50.7787
44.5549
40.102
115.596
104.65
93.9623
83.685
73.9598
64.9097
56.6151
49.1204
42.6115
37.4166
234.121
229.757
228.188
227.746
227.655
227.906
228.64
230.021
232.172
234.311
225.559
222.539
221.49
221.45
221.675
222.16
223.09
224.698
227.169
229.645
216.046
213.871
213.097
213.222
213.653
214.356
215.481
217.25
219.864
222.462
205.74
203.712
203.008
203.204
203.747
204.576
205.8
207.608
210.177
212.697
194.417
192.507
191.852
192.04
192.572
193.383
194.56
196.254
198.609
200.899
182.05
180.326
179.732
179.874
180.327
181.038
182.073
183.551
185.58
187.545
168.705
167.242
166.748
166.851
167.207
167.78
168.619
169.812
171.439
173.01
154.571
153.455
153.1
153.177
153.433
153.845
154.452
155.314
156.485
157.613
139.962
139.248
139.041
139.091
139.236
139.471
139.821
140.323
141.004
141.661
125.438
125.094
124.954
124.906
124.894
124.916
124.982
125.102
125.279
125.455
246.558
246.797
247.05
247.268
247.566
248.067
248.621
248.957
248.962
248.447
246.629
246.96
247.364
247.671
247.871
248.207
248.632
248.547
247.729
246.708
246.637
247.033
247.478
247.79
247.873
248.004
248.286
247.926
246.538
245.283
246.513
247.015
247.445
247.677
247.609
247.495
247.529
247.106
245.813
244.656
246.02
246.675
247.063
247.168
246.99
246.711
246.534
246.173
245.365
244.576
244.813
245.656
245.991
245.954
245.722
245.436
245.239
245.067
244.827
244.542
242.468
243.564
243.901
243.784
243.572
243.407
243.371
243.502
243.809
244.049
238.584
240.069
240.537
240.47
240.385
240.435
240.672
241.167
241.98
242.719
233.111
235.164
235.872
235.939
236.064
236.409
236.997
237.901
239.206
240.418
227.757
229.621
230.365
230.532
230.838
231.455
232.396
233.747
235.594
237.302
246.938
246.72
246.679
246.492
246.423
246.311
245.937
245.679
245.577
245.723
246.895
246.718
246.674
246.494
246.423
246.323
245.945
245.66
245.382
245.741
246.867
246.714
246.665
246.489
246.415
246.325
245.943
245.602
245.142
245.821
246.848
246.707
246.652
246.476
246.401
246.32
245.929
245.508
244.922
246.005
246.836
246.698
246.636
246.457
246.381
246.304
245.899
245.397
244.787
246.242
246.83
246.687
246.617
246.433
246.355
246.275
245.86
245.304
244.761
246.351
246.829
246.672
246.597
246.406
246.324
246.235
245.824
245.253
244.809
246.019
246.832
246.654
246.575
246.375
246.288
246.191
245.807
245.259
244.831
244.783
246.841
246.631
246.551
246.342
246.251
246.158
245.84
245.336
244.654
242.007
246.859
246.606
246.522
246.307
246.216
246.153
245.944
245.463
243.976
237.292
246.897
246.579
246.48
246.248
246.151
246.081
245.875
245.137
242.445
233.743
247.012
246.557
246.441
246.194
246.094
246.116
246.069
245.336
242.179
231.801
247.253
246.563
246.402
246.114
246.017
246.076
246.056
245.235
241.884
230.535
247.703
246.619
246.372
246.028
245.881
245.812
245.609
244.529
240.476
229.314
248.541
246.685
246.396
245.938
245.67
245.307
244.741
243.225
238.006
227.458
250.379
246.752
246.505
245.868
245.378
244.646
243.657
241.569
235.374
224.913
254.259
247.063
246.66
245.812
245.023
243.932
242.561
239.959
233.312
222.585
262.564
248.2
246.935
245.771
244.649
243.242
241.56
238.67
232.075
221.329
280.124
250.934
247.586
245.807
244.295
242.589
240.651
237.739
231.632
221.359
306.094
254.98
249.091
246.021
244.004
241.968
239.766
236.922
231.361
221.887
236.417
221.067
210.446
201.131
190.971
179.666
167.272
153.899
139.854
125.724
230.029
217.735
208.583
199.862
189.924
178.686
166.34
153.089
139.365
125.892
223.496
214.131
205.952
197.424
187.71
176.869
165.117
152.617
139.599
126.422
218.379
210.872
202.88
194.03
184.188
173.424
161.932
149.989
137.926
126.093
212.982
206.588
198.596
189.502
179.834
169.696
159.146
148.279
137.223
126.131
207.385
202.089
194.83
186.359
177.361
167.906
157.986
147.664
137.044
126.257
203.591
199.151
192.561
184.665
176.131
167.045
157.425
147.35
136.94
126.33
202.31
198.051
191.705
184.093
175.78
166.843
157.325
147.321
136.963
126.394
203.636
198.921
192.471
184.886
176.554
167.538
157.901
147.755
137.24
126.509
206.31
200.875
194.138
186.427
177.931
168.7
158.817
148.414
137.637
126.645
112.192
112.362
112.446
112.297
111.79
111.43
111.245
111.529
111.522
111.273
89.6167
90.0801
90.2987
89.8652
88.4332
87.3467
86.7258
87.3875
87.4251
86.8386
68.7736
69.4014
69.6627
68.996
67.0566
65.3448
64.3246
64.8734
65.1778
64.6226
50.6559
51.2624
51.4521
50.629
48.6498
46.4838
45.1537
45.1892
45.9276
45.6942
36.0106
36.4191
36.4695
35.5881
33.7963
31.4803
29.8365
29.2712
30.0788
30.2666
24.9584
25.0619
24.9399
24.0167
22.4391
20.4097
18.6189
17.6773
17.9323
18.4324
17.0719
16.9216
16.7068
15.7159
14.3014
12.798
11.3106
10.2456
9.90581
10.2723
11.5849
11.408
11.3596
10.3602
9.04123
8.03936
7.14785
6.30506
5.71656
5.63269
7.91079
7.8226
8.11867
7.25077
6.08467
5.49425
5.16561
4.78117
4.29724
3.91738
6.04176
5.8369
6.22243
5.48453
4.61515
4.3393
4.3636
4.35448
4.20199
3.8059
5.27426
5.03751
5.12004
4.42566
3.89353
3.83768
3.98783
4.1308
4.25201
4.30866
4.84666
4.73759
4.46037
3.79408
3.5085
3.59621
3.79976
3.96754
4.08735
4.17359
4.46772
4.42297
3.99124
3.44083
3.32123
3.48452
3.70958
3.88846
4.00648
4.06682
4.01287
3.95789
3.55182
3.20075
3.21112
3.41478
3.62792
3.78534
3.88397
3.92528
3.46438
3.37108
3.09824
2.97895
3.09614
3.3132
3.50347
3.6412
3.72253
3.74625
2.81257
2.71863
2.65993
2.75089
2.94791
3.15246
3.31836
3.43786
3.50483
3.51825
2.08909
2.10628
2.24193
2.47705
2.71296
2.91162
3.06697
3.18078
3.24717
3.26269
1.41663
1.53499
1.78674
2.0801
2.33638
2.551
2.72712
2.86606
2.95378
2.98194
0.739856
0.874295
1.14939
1.47905
1.78961
2.06196
2.30002
2.4853
2.59026
2.62792
0.0672914
-0.0181087
0.217674
0.630319
1.0518
1.43505
1.76007
1.97548
2.07873
2.14207
3.66241
3.70599
3.57548
3.24894
2.59675
1.90486
1.30868
0.833368
0.448606
0.0828683
3.73491
3.67937
3.52471
3.23289
2.55729
1.84893
1.25739
0.796854
0.424964
0.0803264
3.76105
3.57284
3.41249
3.17852
2.51323
1.79633
1.2093
0.763112
0.403821
0.0799017
3.72156
3.39599
3.25917
3.0756
2.45583
1.74535
1.16445
0.732279
0.385408
0.0811958
3.61326
3.18737
3.09042
2.92157
2.37316
1.69145
1.12213
0.704322
0.369946
0.0843629
3.44948
2.9894
2.92952
2.73695
2.2589
1.63069
1.08207
0.679601
0.357833
0.0895484
3.25591
2.82217
2.78575
2.55388
2.11597
1.55931
1.04357
0.658444
0.349486
0.0967747
3.04895
2.68562
2.65977
2.39666
1.95974
1.47452
1.00517
0.64081
0.345203
0.105923
2.82715
2.57522
2.54726
2.27245
1.81169
1.37756
0.9645
0.626129
0.345093
0.116721
2.58343
2.49366
2.44184
2.17509
1.68655
1.27661
0.919269
0.613163
0.348975
0.128726
5.42379
3.97722
3.27825
2.89794
2.41526
1.89024
1.38476
0.927348
0.540003
0.127302
4.61995
3.75673
3.31471
2.95949
2.4563
1.89934
1.37217
0.908445
0.51693
0.11471
3.94994
3.66487
3.37575
3.0293
2.49601
1.90754
1.36105
0.891641
0.499288
0.103855
3.63008
3.66548
3.46151
3.10998
2.5376
1.91551
1.35054
0.876227
0.483978
0.095089
3.61538
3.70881
3.5636
3.2028
2.58389
1.92373
1.33933
0.860635
0.469156
0.0882641
112.022
88.9553
67.9042
50.1324
36.1174
25.7969
18.6267
13.7512
10.5691
8.75483
111.801
88.3929
67.1978
49.3979
35.3151
24.7926
17.323
12.2176
9.07468
7.57442
111.615
87.9126
66.5595
48.6571
34.4038
23.6198
15.9026
10.6826
7.53789
6.07974
111.405
87.3387
65.719
47.5922
33.079
22.0256
14.1308
8.89784
5.81223
4.43649
111.151
86.6106
64.5896
46.1189
31.2787
19.9577
11.9618
6.92536
4.44228
3.62651
243.772
243.81
243.929
244.101
244.314
244.322
243.817
243.115
243.219
242.996
243.984
244.056
244.17
244.359
244.629
244.804
244.586
243.935
243.679
243.572
244.18
244.228
244.341
244.538
244.824
245.086
245.059
244.552
244.124
244.074
244.422
244.455
244.553
244.727
244.985
245.275
245.381
245.111
244.725
244.657
244.697
244.715
244.797
244.946
245.162
245.428
245.632
245.634
245.469
245.379
244.99
245.003
245.072
245.195
245.368
245.6
245.871
246.114
246.22
246.209
245.265
245.284
245.366
245.501
245.678
245.908
246.21
246.573
246.877
247.001
245.552
245.569
245.666
245.858
246.113
246.414
246.775
247.19
247.556
247.738
245.934
245.963
246.04
246.262
246.634
247.088
247.596
248.117
248.463
248.425
246.328
246.438
246.539
246.729
247.129
247.7
248.304
248.856
249.21
249.005
136.505
136.246
136.223
136.486
136.268
135.87
135.328
135.157
135.228
135.393
160.956
160.359
160.38
161.018
160.365
159.243
157.779
157.322
157.528
157.986
183.2
182.634
182.921
183.444
182.394
180.648
178.679
177.991
178.24
178.862
202.167
201.921
202.639
202.65
201.292
199.094
197.087
196.243
196.421
197.023
217.638
217.812
218.597
218.009
216.341
213.997
212.175
211.273
211.312
211.717
229.518
230
230.23
229.27
227.463
225.406
223.796
222.85
222.717
222.818
237.718
238.054
237.691
236.618
235.126
233.597
232.146
231.13
230.905
230.754
242.373
242.253
241.644
240.81
239.932
238.914
237.56
236.534
236.476
236.298
244.097
243.679
243.186
242.828
242.53
241.944
240.754
239.858
240.144
240.06
244.237
243.811
243.658
243.679
243.751
243.508
242.634
241.872
242.258
242.068
254.848
246.873
247.501
246.286
246.036
245.529
244.998
244.636
244.506
244.545
252.014
246.809
247.315
246.265
246.089
245.592
245.014
244.669
244.583
244.516
250.092
246.816
247.092
246.26
246.145
245.66
245.057
244.763
244.752
244.548
248.904
246.844
246.88
246.279
246.202
245.735
245.138
244.916
244.982
244.654
248.219
246.847
246.741
246.318
246.259
245.818
245.266
245.108
245.224
244.825
247.77
246.806
246.703
246.367
246.312
245.911
245.434
245.297
245.433
245.032
247.456
246.751
246.702
246.412
246.358
246.014
245.61
245.453
245.588
245.244
247.239
246.724
246.694
246.447
246.391
246.12
245.759
245.564
245.688
245.438
247.095
246.718
246.685
246.471
246.407
246.212
245.858
245.633
245.727
245.598
247
246.719
246.681
246.485
246.417
246.277
245.912
245.67
245.693
245.693
317.352
253.757
249.911
246.973
246.141
245.569
245.253
244.933
244.24
242.724
295.619
251.368
248.789
246.741
246.059
245.541
245.209
244.903
244.453
243.525
277.178
249.212
248.193
246.568
246.018
245.522
245.159
244.846
244.535
244.198
265.776
247.867
247.868
246.437
246
245.511
245.101
244.764
244.526
244.526
259.004
247.136
247.646
246.328
245.997
245.503
245.033
244.661
244.48
244.559
239.303
237.454
234.238
229.331
222.128
211.774
197.723
179.918
158.842
135.761
240.486
238.95
235.775
230.639
223.137
212.58
198.46
180.626
159.405
135.982
241.998
240.501
237.32
232.067
224.315
213.495
199.204
181.266
159.886
136.168
243.661
242.255
239.127
233.853
225.918
214.825
200.271
182.108
160.46
136.378
244.45
243.612
241.11
236.039
227.996
216.629
201.746
183.238
161.188
136.631
)
;

boundaryField
{
    left
    {
        type            zeroGradient;
    }
    right
    {
        type            fixedValue;
        value           uniform 0;
    }
    down
    {
        type            zeroGradient;
    }
    up
    {
        type            zeroGradient;
    }
    cylinder
    {
        type            zeroGradient;
    }
    defaultFaces
    {
        type            empty;
    }
}


// ************************************************************************* //
