/*--------------------------------*- C++ -*----------------------------------*\
  =========                 |
  \\      /  F ield         | OpenFOAM: The Open Source CFD Toolbox
   \\    /   O peration     | Website:  https://openfoam.org
    \\  /    A nd           | Version:  13
     \\/     M anipulation  |
\*---------------------------------------------------------------------------*/
FoamFile
{
    format      ascii;
    class       surfaceScalarField;
    location    "2.5625";
    object      phi;
}
// * * * * * * * * * * * * * * * * * * * * * * * * * * * * * * * * * * * * * //

dimensions      [0 3 -1 0 0 0 0];

internalField   nonuniform List<scalar> 
3485
(
0.00204692
-0.00359851
0.00155159
0.00861632
-0.0568761
0.0503067
0.0180243
-0.110175
0.100767
0.0283156
-0.139123
0.128831
0.0385012
-0.148881
0.138696
0.048291
-0.149321
0.139531
0.0576479
-0.14637
0.137013
0.0665678
-0.142509
0.133589
0.0750007
-0.138442
0.130009
-0.134191
0.126012
0.083179
0.00253312
-0.00613164
0.0095143
-0.0638573
0.0188858
-0.119547
0.0288086
-0.149045
0.038533
-0.158606
0.0479644
-0.158752
0.0572071
-0.155613
0.0663819
-0.151684
0.0756712
-0.147731
-0.143967
0.0854479
0.00295529
-0.00908692
0.0102006
-0.0711026
0.019286
-0.128632
0.0284773
-0.158237
0.0372202
-0.167348
0.0455282
-0.16706
0.0535283
-0.163613
0.0613158
-0.159471
0.0689587
-0.155374
-0.151401
0.0763919
0.0033906
-0.0124775
0.0108548
-0.0785668
0.0196073
-0.137385
0.0280783
-0.166708
0.0359519
-0.175222
0.0433898
-0.174498
0.0505845
-0.170808
0.0576486
-0.166536
0.0646416
-0.162367
-0.158447
0.0716878
0.00374273
-0.0162203
0.0112496
-0.0860737
0.0194557
-0.145591
0.0269824
-0.174234
0.0337476
-0.181987
0.0400414
-0.180792
0.0461004
-0.176866
0.052048
-0.172483
0.0579545
-0.168274
-0.164343
0.0638508
0.00403216
-0.0202524
0.0114315
-0.093473
0.0189472
-0.153106
0.0254338
-0.180721
0.0310486
-0.187602
0.0361931
-0.185936
0.041137
-0.18181
0.0460028
-0.177349
0.050842
-0.173113
-0.169196
0.055695
0.00421328
-0.0244657
0.0113082
-0.100568
0.0179483
-0.159747
0.0232594
-0.186032
0.0276252
-0.191968
0.0315365
-0.189848
0.0352839
-0.185558
0.0389873
-0.181052
0.042694
-0.17682
-0.172928
0.046426
0.0042733
-0.028739
0.0108664
-0.107161
0.0164645
-0.165345
0.0205055
-0.190073
0.0235697
-0.195032
0.0262092
-0.192487
0.0287179
-0.188066
0.0312061
-0.183541
0.0337115
-0.179325
-0.175466
0.0362488
0.00418813
-0.0329271
0.0100786
-0.113051
0.0144798
-0.169746
0.0171927
-0.192786
0.0189211
-0.196761
0.0202654
-0.193831
0.0215126
-0.189314
0.0227598
-0.184788
0.0240372
-0.180602
-0.176784
0.0253559
0.00395359
-0.0368807
0.008946
-0.118044
0.0120517
-0.172852
0.0134044
-0.194139
0.0137795
-0.197136
0.0138284
-0.19388
0.0138143
-0.189299
0.0138177
-0.184791
0.0138579
-0.180642
0.0139428
-0.176869
-0.000823986
0.000491881
0.000332105
0.00249709
-0.00829749
0.00497641
0.0111241
-0.0182836
0.00965656
0.0230733
-0.0242862
0.0123371
0.0364006
-0.0266797
0.0133524
0.0500208
-0.027112
0.0134917
0.0634711
-0.0267254
0.0132751
0.0765948
-0.0260715
0.0129479
0.0893609
-0.0253711
0.0126049
-0.0248935
0.101958
0.0122964
-0.000739378
0.00123126
0.00269711
-0.011734
0.011375
-0.0269615
0.0232999
-0.0362111
0.0365519
-0.0399316
0.0500705
-0.0406306
0.0634091
-0.040064
0.0764194
-0.0390818
0.0890769
-0.0380285
-0.0373874
0.101571
-0.000616446
0.0018477
0.00298722
-0.0153376
0.0117435
-0.0357178
0.0236407
-0.0481084
0.0367927
-0.0530835
0.0501737
-0.0540116
0.0633591
-0.0532494
0.0762123
-0.051935
0.0887167
-0.050533
-0.0497329
0.101062
-0.000445945
0.00229365
0.00338815
-0.0191717
0.0122547
-0.0445843
0.0241201
-0.0599737
0.0371442
-0.0661077
0.0503488
-0.0672162
0.0633385
-0.0662391
0.0759915
-0.0645879
0.0883013
-0.0628427
-0.0618863
0.100455
-0.000225594
0.00251924
0.00391225
-0.0233096
0.0129251
-0.0535972
0.0247534
-0.071802
0.0376207
-0.078975
0.0506106
-0.0802061
0.063366
-0.0789945
0.0757833
-0.0770053
0.0878664
-0.0749258
-0.0738094
0.0997895
2.29342e-05
0.00249631
0.00455772
-0.0278444
0.0137526
-0.062792
0.0255332
-0.0835826
0.0382106
-0.0916524
0.0509486
-0.0929441
0.0634383
-0.0914843
0.0755987
-0.0891656
0.0874412
-0.0867684
-0.0854685
0.0991002
0.000393286
0.00210302
0.00535464
-0.0328057
0.0147265
-0.0721639
0.0264205
-0.0952766
0.0388549
-0.104087
0.0512923
-0.105381
0.0634844
-0.103676
0.075379
-0.10106
0.0869893
-0.0983786
-0.096817
0.0983378
0.000806475
0.00129655
0.00623638
-0.0382356
0.0157611
-0.0816886
0.0272997
-0.106815
0.0394037
-0.116191
0.0514535
-0.117431
0.0632731
-0.115496
0.0748477
-0.112635
0.0861844
-0.109715
-0.107699
0.0970665
0.00122879
6.77605e-05
0.00709249
-0.0440993
0.0166754
-0.0912715
0.0279227
-0.118063
0.0395352
-0.127803
0.0510134
-0.128909
0.062247
-0.12673
0.0732461
-0.123634
0.0839871
-0.120456
-0.117647
0.0939352
0.00161935
0.00782672
0.0173224
0.0280911
0.0389834
0.0496049
0.0598884
0.0698436
0.0793965
0.0877617
0.154988
-0.151957
0.098927
0.181381
-0.108021
0.0816277
0.194606
-0.0807391
0.0675141
0.201125
-0.0610893
0.0545701
0.204073
-0.046081
0.0431336
0.204985
-0.0342385
0.0333258
0.204706
-0.0247573
0.025037
0.203692
-0.0169931
0.0180066
0.202222
-0.010897
0.012367
-0.00320675
0.00512003
0.153796
-0.204182
0.180365
-0.134589
0.193884
-0.0942584
0.20066
-0.0678655
0.203809
-0.0492297
0.204883
-0.0353125
0.204739
-0.0246134
0.203848
-0.016102
0.202496
-0.00954438
-0.00141665
0.151803
-0.254923
0.178454
-0.16124
0.192321
-0.108126
0.199451
-0.0749957
0.202914
-0.052692
0.204272
-0.0366705
0.204391
-0.0247325
0.203753
-0.0154644
0.202651
-0.00844205
0.000115497
0.148998
-0.303466
0.175635
-0.187877
0.189915
-0.122406
0.1975
-0.0825809
0.20139
-0.0565818
0.203153
-0.0384337
0.203662
-0.0252411
0.203408
-0.0152102
0.202687
-0.00772187
0.00125503
0.145384
-0.349061
0.171901
-0.214394
0.186669
-0.137174
0.194813
-0.0907252
0.199246
-0.0610144
0.201535
-0.0407232
0.202556
-0.0262619
0.20281
-0.0154642
0.202602
-0.00751407
0.00186802
0.140952
-0.390912
0.167232
-0.240674
0.182586
-0.152528
0.1914
-0.0995388
0.196491
-0.0661058
0.199425
-0.0436568
0.201082
-0.0279191
0.20197
-0.0163521
0.202398
-0.00794257
0.00182546
0.13562
-0.428194
0.161574
-0.266629
0.177654
-0.168608
0.187267
-0.109151
0.193139
-0.071978
0.196834
-0.0473519
0.199244
-0.0303293
0.200886
-0.0179938
0.202076
-0.00913213
0.00099907
0.129268
-0.460395
0.154786
-0.292147
0.171798
-0.18562
0.1824
-0.119753
0.189195
-0.078773
0.193775
-0.0519321
0.197055
-0.0336092
0.199566
-0.0205052
0.201635
-0.0112007
-0.00073323
0.121946
-0.488407
0.146642
-0.316842
0.16479
-0.203769
0.176685
-0.131647
0.184616
-0.0867048
0.190236
-0.0575522
0.194516
-0.0378884
0.198014
-0.0240032
0.201077
-0.0142639
-0.00349178
0.114639
-0.515284
0.138351
-0.340555
0.156881
-0.222299
0.170076
-0.144842
0.179343
-0.0959714
0.186188
-0.064398
0.191617
-0.0433172
0.19623
-0.0286155
0.200401
-0.0184357
-0.00738833
0.376698
-0.456145
-0.435836
0.345467
-0.309324
0.329791
-0.206623
0.322349
-0.1374
0.318473
-0.0920956
0.316155
-0.0620797
0.314612
-0.0417746
0.313559
-0.0275621
0.31285
-0.0177268
-0.00709199
0.389151
-0.386975
-0.458321
0.354856
-0.275029
0.337522
-0.189289
0.328216
-0.128094
0.32264
-0.086519
0.319056
-0.0584957
0.316658
-0.0393771
0.315055
-0.0259587
0.314007
-0.0166796
-0.00666564
0.405007
-0.322711
-0.469271
0.36796
-0.237982
0.346715
-0.168044
0.334405
-0.115783
0.326809
-0.0789232
0.321897
-0.0535837
0.318641
-0.0361208
0.316491
-0.0238095
0.315106
-0.0152943
-0.00611047
0.415249
-0.263123
-0.474836
0.377574
-0.200307
0.354225
-0.144695
0.339773
-0.101331
0.33054
-0.0696905
0.32448
-0.0475239
0.320454
-0.0320951
0.317809
-0.021164
0.316113
-0.0135983
-0.00543354
0.422419
-0.208361
-0.477182
0.385089
-0.162977
0.360426
-0.120032
0.344353
-0.0852577
0.333786
-0.0591235
0.326754
-0.0404926
0.32206
-0.0274008
0.318978
-0.0180821
0.317004
-0.0116245
-0.00464645
0.427328
-0.158004
-0.477684
0.390769
-0.126418
0.365354
-0.0946168
0.348114
-0.0680173
0.336503
-0.047513
0.328679
-0.0326687
0.323428
-0.0221493
0.319975
-0.0146295
0.317761
-0.00941067
-0.00376314
0.430562
-0.111287
-0.47728
0.394886
-0.0907419
0.369086
-0.0688171
0.351042
-0.0499728
0.338652
-0.0351235
0.330216
-0.024232
0.324525
-0.0164586
0.320776
-0.0108807
0.318368
-0.00700308
-0.00280024
0.432224
-0.0669856
-0.476525
0.397333
-0.0558507
0.371432
-0.0429163
0.35292
-0.0314607
0.34002
-0.0222236
0.331165
-0.0153776
0.325169
-0.0104624
0.321213
-0.00692401
0.318664
-0.00445408
-0.00177778
0.42634
-0.0215702
-0.471756
0.392188
-0.0216988
0.36694
-0.0176674
0.348723
-0.0132444
0.33592
-0.00942017
0.327084
-0.00654176
0.321085
-0.00446315
0.317124
-0.00296332
0.314572
-0.00190236
-0.000755088
0.318436
-0.340006
0.296737
0.279069
0.265825
0.256405
0.249863
0.2454
0.242437
0.240534
0.46953
0.0123396
-0.467927
0.470369
0.0245174
0.470319
0.0362985
0.469269
0.0474762
0.46693
0.058034
0.463961
0.0668202
0.45784
0.0778079
0.454335
0.0798973
0.44231
0.0974733
0.0896521
0.450869
0.01078
-0.449309
0.452493
0.0228932
0.454112
0.0346791
0.45575
0.0458386
0.456999
0.0567845
0.458565
0.0652542
0.458709
0.0776644
0.459921
0.0786854
0.460567
0.0968273
0.0918976
0.434661
0.00916683
-0.433048
0.436909
0.0206451
0.439714
0.0318743
0.443072
0.0424802
0.446805
0.0530514
0.450943
0.061116
0.455589
0.0730183
0.459507
0.074768
0.465684
0.0906501
0.0883104
0.422288
0.00754385
-0.420665
0.424894
0.0180391
0.428439
0.0283293
0.432877
0.0380426
0.438221
0.0477073
0.444076
0.0552607
0.451406
0.065689
0.457859
0.0683144
0.467232
0.0812778
0.0807055
0.412596
0.00591674
-0.410969
0.415465
0.0151693
0.419547
0.0242479
0.424756
0.0328338
0.431179
0.041284
0.43833
0.0481092
0.447247
0.0567723
0.455711
0.0598508
0.466961
0.0700276
0.0704845
0.405275
0.00426348
-0.403622
0.408341
0.0121038
0.41279
0.0197985
0.418534
0.02709
0.425646
0.0341713
0.433706
0.0400499
0.443523
0.0469545
0.453372
0.0500024
0.465713
0.057686
0.0585141
0.399947
0.00256843
-0.398252
0.403179
0.00887181
0.407908
0.0150696
0.414041
0.0209569
0.421607
0.0266052
0.430282
0.0313756
0.440609
0.0366266
0.451362
0.03925
0.464264
0.044784
0.0454982
0.395526
0.000671793
-0.39363
0.399028
0.00536975
0.404113
0.00998501
0.410683
0.0143865
0.4187
0.0185882
0.427904
0.0221719
0.438574
0.0259562
0.449918
0.0279065
0.463041
0.0316609
0.0320142
0.378823
-0.00126442
-0.376886
0.382867
0.0013254
0.388915
0.00393735
0.396789
0.00651162
0.40635
0.00902803
0.417263
0.0112583
0.429612
0.0136073
0.442628
0.0148902
0.457061
0.0172288
0.0173192
0.2449
-0.246164
0.246225
0.250162
0.256674
0.265702
0.27696
0.290568
0.305458
0.322687
0.0800165
0.127939
-0.115267
-0.0926892
0.0684169
0.129764
-0.118165
0.0578002
0.132558
-0.121941
0.0476742
0.136191
-0.126065
0.0376525
0.140255
-0.130233
0.0275775
0.144234
-0.134159
0.0176232
0.146051
-0.136096
0.00861021
0.13855
-0.129537
0.00221723
0.108058
-0.101665
0.0462188
-0.0440016
0.0805303
0.139174
-0.0917655
0.0690389
0.141256
0.0579526
0.143644
0.0473238
0.14682
0.0369662
0.150613
0.0267623
0.154438
0.0168785
0.155935
0.00810329
0.147325
0.00201499
0.114147
0.0482338
0.072146
0.148274
-0.0812454
0.0625578
0.150844
0.0528005
0.153402
0.0430635
0.156557
0.0333839
0.160292
0.0237967
0.164025
0.0145738
0.165157
0.00658287
0.155316
0.00135366
0.119376
0.0495874
0.0599421
0.155395
-0.0670637
0.0524038
0.158382
0.0444438
0.161362
0.0361862
0.164814
0.027747
0.168732
0.0192712
0.172501
0.0111559
0.173273
0.00439365
0.162078
0.000474834
0.123295
0.0500623
0.0480058
0.161178
-0.0537885
0.0419191
0.164469
0.0354154
0.167865
0.0285482
0.171681
0.0214188
0.175861
0.0142019
0.179718
0.00737283
0.180102
0.00201641
0.167434
-0.000461805
0.125773
0.0496005
0.0372938
0.166086
-0.042202
0.0321846
0.169578
0.0267668
0.173283
0.0210588
0.177389
0.01513
0.18179
0.00915164
0.185696
0.00362234
0.185631
-0.000388202
0.171445
-0.00134948
0.126734
0.048251
0.0272098
0.170225
-0.0313488
0.0229513
0.173836
0.0184961
0.177738
0.0138525
0.182033
0.00907424
0.186568
0.00434672
0.190424
0.000130819
0.189847
-0.00232367
0.1739
-0.00201977
0.12643
0.0462312
0.017155
0.173484
-0.0204139
0.0138184
0.177173
0.0103537
0.181203
0.00676871
0.185618
0.0031183
0.190218
-0.000423866
0.193966
-0.00313908
0.192562
-0.00419035
0.174951
-0.00257868
0.124818
0.0436525
0.00692205
0.175743
-0.00918054
0.00462026
0.179475
0.00225301
0.18357
-0.00017416
0.188045
-0.0026229
0.192667
-0.00483672
0.19618
-0.00633628
0.194062
-0.00600567
0.17462
-0.0031655
0.121978
0.040487
-0.0034202
0.00229389
-0.00458793
-0.00580902
-0.00706322
-0.00827647
-0.0092326
-0.00930935
-0.0075408
-0.00360632
0.103363
0.0237507
-0.114646
-0.0124674
0.0917503
0.024374
-0.012761
0.0797687
0.0250504
-0.0130688
0.0674033
0.0257651
-0.0133997
0.0546478
0.0265138
-0.0137584
0.0415072
0.0272754
-0.0141348
0.028116
0.0278147
-0.0144235
0.0151935
0.0270484
-0.0141259
0.0047679
0.0223557
-0.0119301
0.0107704
-0.00600251
0.1026
0.0350174
-0.113867
0.0910184
0.0359558
0.0790829
0.0369858
0.0667781
0.0380699
0.0540971
0.0391949
0.0410447
0.0403278
0.0277585
0.0411009
0.0149621
0.0398449
0.00467499
0.0326427
0.0154454
0.101501
0.0462512
-0.112735
0.0899716
0.0474849
0.0781086
0.0488488
0.0658949
0.0502837
0.0533221
0.0517676
0.0403955
0.0532544
0.0272578
0.0542387
0.0146393
0.0524633
0.00454312
0.0427389
0.0199885
0.0999524
0.0574256
-0.111127
0.0885096
0.0589276
0.0767576
0.0606008
0.0646776
0.0623637
0.052259
0.0641862
0.0395073
0.0660062
0.0265723
0.0671736
0.014199
0.0648367
0.00436394
0.052574
0.0243525
0.0977987
0.068496
-0.108869
0.0864992
0.0702271
0.0749241
0.0721759
0.0630474
0.0742404
0.0508525
0.0763811
0.0383432
0.0785155
0.0256782
0.0798387
0.0136178
0.076897
0.00412488
0.0620669
0.0284773
0.0948768
0.0793825
-0.105763
0.0837965
0.0813074
0.0724693
0.0835031
0.0608684
0.0858413
0.0489759
0.0882735
0.0367961
0.0906952
0.0244973
0.0921376
0.0128562
0.0885381
0.00381431
0.0711088
0.0322916
0.0910851
0.0898924
-0.101595
0.0804485
0.0919439
0.0695768
0.0943749
0.0584102
0.0970079
0.0469241
0.0997596
0.0351353
0.102484
0.0232422
0.104031
0.0120583
0.099722
0.00350316
0.0796639
0.0357948
0.0850715
0.0998738
-0.0950529
0.0749965
0.102019
0.0647643
0.104607
0.0543096
0.107463
0.0435645
0.110505
0.032511
0.113538
0.0213431
0.115199
0.0108883
0.110177
0.00303467
0.0875176
0.0388295
0.0822392
0.108427
-0.0907921
0.0731568
0.111101
0.063396
0.114368
0.0531026
0.117756
0.0424194
0.121188
0.0314542
0.124503
0.0204683
0.126185
0.0103182
0.120327
0.0028339
0.0950019
0.0416634
0.0697706
-0.0766103
0.0627073
0.055134
0.046825
0.0377795
0.0281231
0.0182113
0.00900155
0.00233819
0.202117
0.0129748
-0.0171015
0.204589
0.0282602
-0.0307324
0.205004
0.0342322
-0.0346476
0.205974
0.0358603
-0.0368299
0.205065
0.0424483
-0.0415392
0.20254
0.0510801
-0.0485558
0.196455
0.0638031
-0.0577176
0.185674
0.0805451
-0.0697638
0.159855
0.108573
-0.0827543
0.144499
-0.0992903
0.201849
0.00911577
0.204186
0.0259234
0.204553
0.0338648
0.20546
0.0349536
0.204469
0.0434393
0.201809
0.0537399
0.19558
0.0700323
0.184485
0.0916396
0.15873
0.134328
0.189362
0.201453
0.00565217
0.203513
0.0238643
0.203737
0.0336399
0.204438
0.0342529
0.203241
0.0446359
0.200324
0.0566571
0.193868
0.0764887
0.182345
0.103162
0.156829
0.159844
0.233456
0.200927
0.0027153
0.202574
0.0222168
0.202568
0.0336456
0.20292
0.0339017
0.201396
0.0461595
0.198102
0.059951
0.191323
0.0832675
0.179237
0.115248
0.154198
0.184883
0.276528
0.200262
0.000443077
0.201374
0.0211053
0.20106
0.0339589
0.200917
0.0340448
0.198949
0.0481275
0.195162
0.0637384
0.187958
0.090471
0.175125
0.128081
0.15092
0.209088
0.318579
0.199453
-0.00102054
0.199917
0.0206418
0.199227
0.0346484
0.198442
0.0348301
0.195922
0.0506478
0.191523
0.068137
0.183786
0.0982083
0.170015
0.141852
0.147032
0.232071
0.359848
0.198497
-0.00152732
0.198214
0.0209241
0.19709
0.0357729
0.19551
0.0364103
0.192337
0.0538201
0.187204
0.0732702
0.178799
0.106614
0.164041
0.15661
0.14257
0.253542
0.400823
0.197386
-0.000923574
0.196275
0.0220349
0.194667
0.0373813
0.192133
0.038944
0.188222
0.0577313
0.182222
0.0792699
0.172956
0.115881
0.157125
0.17244
0.136689
0.273979
0.442458
0.196134
0.000932418
0.19413
0.0240392
0.191985
0.0395255
0.188332
0.0425973
0.183612
0.0624515
0.176655
0.0862272
0.166538
0.125997
0.150579
0.188399
0.131863
0.292694
0.48353
0.194852
0.00407071
0.191856
0.0270348
0.189048
0.0423338
0.184068
0.0475769
0.178342
0.0681779
0.169891
0.0946774
0.157854
0.138035
0.140238
0.206016
0.1206
0.312332
0.527519
0.303321
0.00276039
0.306779
0.0235766
0.31039
0.0387221
0.31296
0.0450075
0.31586
0.0652776
0.319302
0.0912351
0.324873
0.132464
0.335926
0.194963
0.360731
0.287527
0.462172
0.426078
0.304215
0.000555725
0.307881
0.01991
0.312141
0.0344629
0.315467
0.0416808
0.319804
0.0609409
0.325401
0.0856381
0.334351
0.123515
0.350034
0.179279
0.379855
0.257707
0.398025
0.444001
0.305097
-0.00253096
0.309194
0.0158125
0.313875
0.0297824
0.317974
0.0375812
0.323525
0.05539
0.330966
0.0781976
0.342552
0.111928
0.361129
0.160702
0.394768
0.224067
0.335718
0.457076
0.306001
-0.00652208
0.310575
0.0112392
0.315556
0.0248006
0.320351
0.0327864
0.326925
0.0488158
0.33591
0.0692127
0.349519
0.0983191
0.370277
0.139945
0.405269
0.189076
0.276505
0.464482
0.306984
-0.0114961
0.312024
0.00619927
0.317164
0.0196609
0.322524
0.0274261
0.329933
0.0414067
0.340168
0.0589785
0.35528
0.0832062
0.377658
0.117567
0.412423
0.154311
0.220913
0.468015
0.308103
-0.017589
0.313586
0.00071667
0.31868
0.0145668
0.324445
0.0216612
0.332504
0.0333477
0.343706
0.0477765
0.359904
0.0670079
0.383395
0.0940765
0.417209
0.120497
0.168905
0.469216
0.309402
-0.0249806
0.315308
-0.00518986
0.320075
0.00980046
0.326067
0.0156686
0.334604
0.024811
0.346514
0.035866
0.363464
0.0500585
0.387637
0.0699034
0.420339
0.0877942
0.120104
0.469141
0.311059
-0.0340293
0.317214
-0.0113451
0.321231
0.00578371
0.327237
0.00966267
0.336086
0.0159616
0.348482
0.02347
0.365946
0.0325947
0.390483
0.0453666
0.422264
0.056013
0.074039
0.468329
0.309623
-0.0416419
0.314971
-0.0166933
0.31801
0.00274443
0.324094
0.00357902
0.333083
0.00697282
0.345791
0.0107616
0.363604
0.0147822
0.388253
0.0207175
0.419606
0.0246597
0.0323035
0.461342
0.260368
0.243675
0.246419
0.249998
0.256971
0.267733
0.282515
0.303233
0.327892
0.360196
0.439217
-0.105828
0.443979
-0.0965276
0.44595
-0.0832161
0.448067
-0.0691814
0.451133
-0.0568543
0.454888
-0.0459568
0.45881
-0.0352709
0.462451
-0.0240547
0.465514
-0.0122438
-0.000119114
0.444017
-0.105844
0.442319
-0.0948301
0.441174
-0.0820706
0.441601
-0.0696083
0.44288
-0.0581335
0.444248
-0.0473248
0.445488
-0.0365113
0.446692
-0.0252579
0.447966
-0.0135186
-0.00146171
0.45069
-0.0994575
0.445171
-0.0893116
0.440651
-0.0775509
0.437329
-0.0662857
0.434952
-0.0557568
0.43326
-0.0456329
0.432208
-0.0354595
0.431824
-0.0248738
0.432111
-0.0138048
-0.00239886
0.454011
-0.0889865
0.445053
-0.0803539
0.437667
-0.0701641
0.431879
-0.0604984
0.427485
-0.0513625
0.424188
-0.0423359
0.421844
-0.0331158
0.420452
-0.0234818
0.420052
-0.0134047
-0.00301191
0.455268
-0.0762393
0.444232
-0.0693182
0.435063
-0.0609948
0.42761
-0.0530453
0.421669
-0.0454223
0.417049
-0.037716
0.413659
-0.0297249
0.411502
-0.0213256
0.410605
-0.0125073
-0.00337553
0.455221
-0.0622441
0.442887
-0.056984
0.432489
-0.0505973
0.423882
-0.0444382
0.416889
-0.0384294
0.411385
-0.0322124
0.407305
-0.0256445
0.404641
-0.0186616
0.403409
-0.0112751
-0.00358838
0.454415
-0.047518
0.441286
-0.0438551
0.430115
-0.0394268
0.420784
-0.0351073
0.413129
-0.0307742
0.407059
-0.0261423
0.40253
-0.0211155
0.399542
-0.0156735
0.398114
-0.00984698
-0.00372675
0.452956
-0.0321451
0.439218
-0.0301166
0.427507
-0.0277157
0.417679
-0.0252791
0.409564
-0.0226601
0.403088
-0.0196654
0.398227
-0.0162545
0.395005
-0.0124521
0.393463
-0.00830523
-0.00389309
0.444468
-0.0152718
0.429592
-0.0152404
0.416812
-0.0149355
0.405903
-0.01437
0.396676
-0.0134333
0.389085
-0.0120741
0.383196
-0.0103654
0.379128
-0.00838435
0.377001
-0.00617819
-0.00377863
0.344924
0.329684
0.314748
0.300378
0.286945
0.274871
0.264505
0.256121
0.249943
0.0104913
0.0465958
-0.0570871
0.0213915
0.151046
-0.161946
0.0258697
0.218879
-0.223357
0.025379
0.244853
-0.244363
0.0225466
0.249454
-0.246622
0.0189908
0.247079
-0.243523
0.015247
0.2433
-0.239556
0.0113882
0.238961
-0.235103
0.00745044
0.231812
-0.227875
0.214013
0.00407873
-0.210641
0.0120108
0.034585
0.0272384
0.135818
0.0367792
0.209338
0.0409387
0.240694
0.0423767
0.248016
0.0429882
0.246468
0.0435131
0.242775
0.0438712
0.238603
0.0430639
0.23262
0.218381
0.0386963
0.0122188
0.0223662
0.0304163
0.117621
0.0444807
0.195274
0.0533517
0.231823
0.059273
0.242095
0.0642388
0.241502
0.0692104
0.237803
0.0742475
0.233566
0.0781918
0.228676
0.219695
0.076877
0.0111206
0.0112456
0.0303444
0.098397
0.0476792
0.177939
0.0607653
0.218737
0.0710128
0.231847
0.0802098
0.232305
0.089428
0.228585
0.0989882
0.224006
0.108341
0.219322
0.213622
0.114415
0.0090309
0.00221471
0.0272683
0.0801595
0.046175
0.159033
0.0624479
0.202464
0.0764433
0.217852
0.0894295
0.219319
0.10238
0.215635
0.11576
0.210626
0.129578
0.205505
0.200251
0.142949
0.00644838
-0.00423367
0.0221436
0.0644643
0.0408919
0.140284
0.0589581
0.184398
0.0756602
0.20115
0.0915502
0.203428
0.107301
0.199884
0.123347
0.19458
0.139923
0.188929
0.182819
0.157355
0.00391105
-0.00814473
0.0163811
0.0519942
0.0337288
0.122937
0.0522559
0.165871
0.0704503
0.182955
0.088132
0.185747
0.105559
0.182457
0.123004
0.177135
0.140614
0.171319
0.164594
0.158839
0.00179992
-0.00994464
0.0111719
0.0426223
0.0265239
0.107585
0.0444583
0.147936
0.0629209
0.164493
0.0811356
0.167532
0.098962
0.16463
0.116463
0.159634
0.133822
0.15396
0.147446
0.15097
0.000296723
-0.0102414
0.007345
0.035574
0.0208347
0.0940949
0.0377916
0.130979
0.055932
0.146352
0.0741382
0.149326
0.0920284
0.14674
0.109545
0.142117
0.126759
0.136746
0.12983
0.144375
-0.000473876
-0.00976749
0.00489244
0.0302077
0.0167374
0.0822499
0.0323934
0.115323
0.0494746
0.129271
0.0666357
0.132165
0.0832704
0.130105
0.0991507
0.126237
0.113993
0.121904
0.116208
0.127614
-0.000812353
-0.00895514
0.00364448
0.0257508
0.0144221
0.0714723
0.0291099
0.100636
0.0453918
0.112989
0.0619246
0.115632
0.0781003
0.11393
0.0937087
0.110628
0.108682
0.10693
0.103741
0.12115
-0.000927969
-0.00802717
0.00307864
0.0217442
0.0131852
0.0613657
0.0271442
0.0866766
0.0427319
0.0974015
0.058649
0.0997148
0.0743071
0.0982715
0.0894955
0.0954399
0.104197
0.0922282
0.0903329
0.117605
-0.000978682
-0.00704849
0.00272992
0.0180356
0.0123208
0.0517748
0.0256376
0.0733599
0.0405302
0.0825088
0.0557443
0.0845007
0.0707103
0.0833055
0.0852142
0.080936
0.0992056
0.0782368
0.0769727
0.112566
-0.000998442
-0.00605004
0.00250248
0.0145347
0.0117128
0.0425645
0.0245321
0.0605406
0.0388664
0.0681745
0.0535017
0.0698654
0.0678857
0.0689215
0.0818051
0.0670167
0.0951893
0.0648526
0.0639454
0.108217
-0.000996818
-0.00505323
0.0023662
0.0111717
0.0113164
0.0336143
0.0237926
0.0480644
0.0377417
0.0542254
0.0519834
0.0556237
0.065987
0.0549179
0.0795516
0.0534521
0.0926145
0.0517898
0.051138
0.105422
-0.000987443
-0.00406578
0.00228504
0.00789919
0.0110648
0.0248345
0.0233207
0.0358084
0.0370288
0.0405173
0.0510339
0.0416186
0.0648236
0.0411282
0.0782099
0.0400657
0.0911412
0.0388585
0.0384235
0.103856
-0.000973785
-0.003092
0.00224601
0.00467939
0.0109215
0.016159
0.0230449
0.0236851
0.0366123
0.0269499
0.0504854
0.0277456
0.0641642
0.0274493
0.0774702
0.0267598
0.0903578
0.0259708
0.025735
0.103046
-0.000953698
-0.0021383
0.00224586
0.00147983
0.0108649
0.00753998
0.0229118
0.0116381
0.0363978
0.0134639
0.0501963
0.0139471
0.0638166
0.013829
0.0770859
0.0134905
0.0899629
0.0130939
0.0130467
0.102651
-0.000923371
-0.00121493
0.00228534
-0.00172888
0.0108817
-0.00105634
0.0228837
-0.000363913
0.0363157
3.18955e-05
0.0500621
0.000200705
0.0636399
0.000251189
0.076881
0.000249399
0.0897469
0.000227941
0.00036205
0.102432
-0.000882825
0.00236471
0.0109649
0.0229381
0.0363223
0.0500148
0.0635411
0.0767383
0.0895712
0.10223
0.137541
0.285546
-0.301937
0.149576
0.120783
-0.132817
0.159399
0.041023
-0.0508466
0.167128
0.00486285
-0.0125917
0.173515
-0.00895462
0.00256823
0.17916
-0.0130041
0.00735823
0.184328
-0.0129273
0.00775968
0.189122
-0.0112327
0.00643886
0.193599
-0.00917087
0.00469354
-0.00597825
0.00197082
0.139741
0.263411
0.155559
0.104964
0.166344
0.0302379
0.173629
-0.00242174
0.179171
-0.0144963
0.183807
-0.0176403
0.18789
-0.0170102
0.191555
-0.0148984
0.194889
-0.0125049
-0.00885419
0.14226
0.233716
0.16095
0.0862749
0.172223
0.0189644
0.17925
-0.00944884
0.184176
-0.0194218
0.187991
-0.0214556
0.191127
-0.0201461
0.193786
-0.0175575
0.196094
-0.0148123
-0.0107085
0.145097
0.196836
0.165828
0.0655432
0.17749
0.00730289
0.184303
-0.0162623
0.188675
-0.0237937
0.191752
-0.0245318
0.194046
-0.0224405
0.195813
-0.0193247
0.19721
-0.0162091
-0.0116546
0.147891
0.154367
0.170164
0.0432697
0.182112
-0.0046449
0.188729
-0.0228795
0.192635
-0.0276991
0.195072
-0.0269695
0.196637
-0.0240051
0.19763
-0.0203172
0.198235
-0.0168142
-0.01181
0.150404
0.107818
0.173888
0.0197863
0.186069
-0.0168261
0.192524
-0.0293346
0.196037
-0.0312123
0.197938
-0.0288705
0.198888
-0.0249549
0.199227
-0.0206561
0.199163
-0.0167504
-0.0112969
0.152509
0.0583555
0.176938
-0.00464218
0.189321
-0.0292093
0.195656
-0.0356701
0.198861
-0.0344174
0.200333
-0.0303425
0.200788
-0.0254091
0.200598
-0.0204661
0.199991
-0.0161438
-0.0102411
0.154102
0.00690435
0.17926
-0.0298003
0.191829
-0.0417777
0.1981
-0.0419417
0.20109
-0.0374066
0.202245
-0.0314978
0.202326
-0.0254904
0.201735
-0.0198746
0.200714
-0.0151235
-0.00877158
0.155088
-0.0457522
0.180801
-0.0555135
0.193562
-0.0545385
0.199836
-0.048216
0.202707
-0.0402778
0.203662
-0.0324525
0.203496
-0.0253241
0.202632
-0.0190111
0.201329
-0.0138202
-0.00701987
0.155404
0.181519
0.194494
0.200848
0.203704
0.204577
0.20429
0.203286
0.201833
0.114182
-0.00173766
-0.112445
0.110431
0.00375134
0.107818
0.00261275
0.1075
0.000317835
0.108376
-0.000875413
0.109532
-0.0011563
0.110597
-0.00106465
0.111435
-0.00083824
0.112015
-0.00057996
-0.000231583
0.234402
0.0714438
-0.307584
0.201904
0.0362495
0.189701
0.0148164
0.186384
0.00363405
0.186554
-0.00104488
0.187914
-0.00251687
0.18945
-0.00260066
0.190755
-0.00214277
0.191716
-0.00154078
-0.000636028
0.248747
0.15667
-0.333972
0.213461
0.0715349
0.20014
0.0281376
0.196463
0.007311
0.196586
-0.0011675
0.198007
-0.00393819
0.19963
-0.00422361
0.201017
-0.00353016
0.202048
-0.00257163
-0.00107396
0.243488
0.234595
-0.321414
0.211495
0.103528
0.199638
0.0399938
0.196648
0.0103019
0.197122
-0.00164145
0.198714
-0.0055303
0.200425
-0.00593504
0.201853
-0.00495853
0.202903
-0.00362142
-0.00151872
0.238335
-0.305677
0.209046
0.198193
0.195903
0.19683
0.198658
0.200483
0.201963
0.203035
0.011089
0.000778008
-0.011867
0.0111999
-0.000110837
0.0117275
-0.000527664
0.0123893
-0.000661807
0.0142343
-0.00184491
0.0190532
-0.00481895
0.0318622
-0.0128089
0.0499198
-0.0180576
0.0810866
-0.0311668
-0.031358
0.0329805
0.00177275
-0.0339752
0.0360202
-0.00315055
0.0437723
-0.00827981
0.0584562
-0.0153456
0.0830335
-0.0264222
0.119474
-0.0412597
0.166858
-0.060193
0.216495
-0.0676946
0.268288
-0.0829599
-0.0706536
0.0553248
0.00169738
-0.0552495
0.063054
-0.0108798
0.0803647
-0.0255905
0.109786
-0.0447666
0.151085
-0.0677216
0.199377
-0.089552
0.245389
-0.106205
0.282886
-0.105192
0.312371
-0.112445
-0.0922548
0.0762119
-0.000208368
-0.0743061
0.0885496
-0.0232175
0.11296
-0.0500007
0.148732
-0.0805391
0.190198
-0.109188
0.229306
-0.128659
0.259494
-0.136393
0.284349
-0.130047
0.303562
-0.131657
-0.110107
0.0933949
-0.0895245
0.108874
0.13575
0.169626
0.203387
0.232083
0.254529
0.275452
0.28817
0.0915343
-0.0878023
0.0973181
-0.10105
0.0825558
-0.0907084
0.0996869
0.0734535
-0.0943278
0.10343
0.0635601
-0.098012
0.107905
0.0526271
-0.101579
0.112512
0.0406752
-0.104983
0.116935
0.0279579
-0.107221
0.119938
0.0153198
-0.103548
0.116186
0.00488868
-0.0834479
0.093879
-0.0380462
0.0429349
0.104263
-0.0779682
-0.114097
0.0937308
-0.0801761
0.0821781
-0.0827751
0.0697479
-0.0855818
0.0566768
-0.0885078
0.043132
-0.0914384
0.0293203
-0.0934089
0.0159804
-0.0902081
0.00513135
-0.0725989
-0.0329149
0.10182
-0.0667683
-0.11302
0.0903531
-0.068709
0.0786041
-0.0710261
0.0665407
-0.0735184
0.0540964
-0.0760635
0.0412193
-0.0785614
0.0280126
-0.0802022
0.0151869
-0.0773824
0.00477423
-0.0621862
-0.0281406
0.103657
-0.0554836
-0.114942
0.0921388
-0.0571903
0.0802708
-0.0591582
0.0679788
-0.0612264
0.0552318
-0.0633165
0.0420352
-0.0653648
0.0285367
-0.0667037
0.0154758
-0.0643215
0.00489252
-0.0516029
-0.0232481
0.104217
-0.0441213
-0.115579
0.0925492
-0.0455227
0.0805159
-0.0471249
0.0680881
-0.0487986
0.0552538
-0.0504821
0.042015
-0.052126
0.028505
-0.0531937
0.0154454
-0.0512619
0.00486503
-0.0410226
-0.0183831
0.104455
-0.0327699
-0.115806
0.0927799
-0.0338478
0.0807314
-0.0350764
0.0682834
-0.0363506
0.0554235
-0.0376223
0.0421545
-0.038857
0.0286108
-0.0396499
0.015512
-0.0381632
0.00489626
-0.0304068
-0.0134868
0.104518
-0.0214414
-0.115847
0.0928488
-0.0221782
0.0807941
-0.0230217
0.0683349
-0.0238913
0.0554635
-0.0247509
0.0421846
-0.0255782
0.028631
-0.0260963
0.0155193
-0.0250515
0.00489678
-0.0197842
-0.00859004
0.104448
-0.0101261
-0.115764
0.0927867
-0.0105165
0.0807377
-0.0109728
0.0682843
-0.0114379
0.0554203
-0.0118869
0.0421506
-0.0123085
0.0286071
-0.0125528
0.015506
-0.0119505
0.00489242
-0.00917063
-0.00369762
0.104231
0.00117415
-0.115531
0.0925847
0.00112991
0.080552
0.00105987
0.0681175
0.000996557
0.0552759
0.000954735
0.0420321
0.000935286
0.0285184
0.000960966
0.0154508
0.00111717
0.00486985
0.00141027
0.00117223
0.103868
-0.115161
0.0922366
0.0802277
0.0678245
0.0550209
0.0418214
0.0283588
0.0153501
0.00483027
0.0256957
-0.208094
-0.028243
0.0194403
-0.221619
0.0121372
-0.2278
0.00475512
-0.232174
-0.00238848
-0.23638
-0.00891243
-0.240098
-0.0135741
-0.239701
-0.0140109
-0.222921
-0.00797281
-0.167984
-0.0650599
0.0554649
-0.203478
-0.0600805
0.0464562
-0.212611
0.0362454
-0.217589
0.025954
-0.221882
0.0159135
-0.226339
0.00644033
-0.230625
-0.00156353