# Selection   : all
# Cells       : 1800
# Volume      : 7.372328e+01
# Time        	maxMag(U)
4.95          	3.137455e+00
4.975         	3.129407e+00
5             	3.121240e+00
