/*--------------------------------*- C++ -*----------------------------------*\
  =========                 |
  \\      /  F ield         | OpenFOAM: The Open Source CFD Toolbox
   \\    /   O peration     | Website:  https://openfoam.org
    \\  /    A nd           | Version:  13
     \\/     M anipulation  |
\*---------------------------------------------------------------------------*/
FoamFile
{
    format      ascii;
    class       volScalarField;
    location    "0.915";
    object      p;
}
// * * * * * * * * * * * * * * * * * * * * * * * * * * * * * * * * * * * * * //

dimensions      [0 2 -2 0 0 0 0];

internalField   nonuniform List<scalar> 
440
(
7.82784
10.5842
12.9467
13.1281
10.1517
20.7176
24.1009
27.0963
27.7967
25.9085
41.2541
44.2854
46.9885
47.7811
46.62
67.3869
69.4847
71.3981
72.0547
71.3672
96.6631
97.4801
98.2771
98.6771
98.6436
-0.450296
-0.550454
-0.0790553
0.482336
0.825567
-1.67151
-2.33923
-2.08109
-1.38651
-0.749017
-2.0153
-2.89865
-2.8239
-2.07203
-0.955787
-0.675898
-0.809205
-0.406204
0.55519
2.41845
3.08591
4.39715
5.8257
7.25587
9.50442
2.08778
2.26705
1.33534
0.680738
0.239686
1.0619
2.08149
1.21859
0.621965
0.235911
-0.0908351
1.67082
1.0904
0.576256
0.228229
-0.402795
1.0652
0.880587
0.544476
0.214582
1.50297
0.473958
0.596795
0.485782
0.187736
4.37253
0.245386
0.346192
0.412099
0.141329
6.71904
0.710277
0.449152
0.407317
0.0775616
9.9836
2.44781
1.09252
0.540606
0.0441825
13.8718
4.74603
2.13531
0.823739
0.0557292
16.6076
7.10713
3.45502
1.31384
0.162799
100.688
75.839
53.3232
33.148
12.3449
102.383
78.9417
57.5366
39.0567
23.4828
104.284
82.7012
62.4743
45.2343
32.8877
105.167
85.0201
66.5018
51.1826
40.6561
105.085
84.7427
66.3277
51.2501
40.8956
219.867
216.385
216.089
218.204
220.937
202.688
200.22
200.479
203.219
206.511
180.539
178.766
179.13
181.552
184.43
154.74
153.397
153.602
155.196
157.093
126.86
126.146
126.086
126.546
127.138
235.598
236.03
236.673
237.103
236.851
236.157
236.796
237.356
237.337
236.387
234.934
235.91
236.326
236.053
235.067
230.045
231.643
232.204
232.338
232.247
221.564
223.426
224.435
225.642
226.996
235.711
234.732
234.894
234.149
234.281
235.675
234.716
234.842
234.101
234.799
235.663
234.674
234.776
234.208
235.306
235.664
234.607
234.765
234.458
234.891
235.671
234.518
234.832
234.656
232.206
235.688
234.37
234.878
234.429
228.724
235.887
234.23
234.767
233.929
226.353
236.797
234
234.143
232.248
223.332
240.847
233.977
232.966
229.793
219.661
249.82
234.705
231.743
227.249
216.911
217.761
196.234
175.026
151.732
126.446
207.364
191.368
172.323
150.42
126.65
198.876
186.196
168.613
148.087
126.333
191.744
180.784
165.099
146.261
125.919
191.527
180.764
165.354
146.66
126.149
96.3951
95.5183
95.0706
94.3037
94.1471
57.3129
55.366
53.6606
51.7388
50.9728
29.4819
27.1386
24.3758
22.0767
20.7521
15.0297
12.6131
10.1476
8.12732
7.15673
9.19996
7.31218
5.92541
4.95016
4.36294
5.96928
4.86733
4.28791
4.19955
4.28792
4.05988
3.60079
3.52928
3.68543
3.83924
2.74989
2.73714
2.97176
3.27587
3.43446
1.64994
1.95475
2.40719
2.75827
2.90313
0.605861
1.00194
1.57494
1.97767
2.15234
3.60903
3.17572
2.0621
0.949924
0.268771
3.66249
3.00372
1.96993
0.894262
0.258534
3.46254
2.7408
1.84084
0.843719
0.251519
3.14199
2.49653
1.67775
0.793407
0.247549
2.72747
2.35094
1.4947
0.738973
0.243863
4.47637
3.15805
1.97492
0.995001
0.304999
3.74014
3.25372
2.06407
0.986631
0.283096
94.9026
54.1429
27.5048
14.481
9.46056
93.6814
51.1335
22.9813
9.46518
5.25477
232.146
232.227
232.176
231.659
230.581
232.732
232.906
233.135
233.173
232.797
233.296
233.468
233.856
234.253
234.424
233.899
234.05
234.455
235.059
235.479
234.648
234.885
235.391
236.007
236.269
141.98
141.788
140.96
140.449
139.538
185.215
184.406
182.427
180.661
178.683
215.515
214.145
211.795
208.981
206.607
229.152
228.145
226.095
223.596
221.151
232.001
231.387
230.415
229.031
227.132
238.822
234.447
234.525
233.516
232.898
237.118
234.49
234.614
233.683
232.915
236.349
234.58
234.718
233.907
233.246
235.975
234.662
234.822
234.111
233.628
235.793
234.716
234.89
234.199
233.947
252.265
235.787
234.881
233.453
231.981
243.17
234.693
234.463
233.396
232.702
226.937
221.864
208.756
182.038
141.229
231.135
226.892
213.309
185.062
142.453
)
;

boundaryField
{
    left
    {
        type            zeroGradient;
    }
    right
    {
        type            fixedValue;
        value           uniform 0;
    }
    down
    {
        type            zeroGradient;
    }
    up
    {
        type            zeroGradient;
    }
    cylinder
    {
        type            zeroGradient;
    }
    defaultFaces
    {
        type            empty;
    }
}


// ************************************************************************* //
