/*--------------------------------*- C++ -*----------------------------------*\
  =========                 |
  \\      /  F ield         | OpenFOAM: The Open Source CFD Toolbox
   \\    /   O peration     | Website:  https://openfoam.org
    \\  /    A nd           | Version:  13
     \\/     M anipulation  |
\*---------------------------------------------------------------------------*/
FoamFile
{
    format      ascii;
    class       volScalarField;
    location    "0.915";
    object      strainRateViscosityModel:nu;
}
// * * * * * * * * * * * * * * * * * * * * * * * * * * * * * * * * * * * * * //

dimensions      [0 2 -1 0 0 0 0];

internalField   nonuniform List<scalar> 
440
(
9.41953
8.96974
8.54455
8.04241
7.5862
9.68995
9.35817
8.98179
8.48006
7.87557
9.80074
9.53084
9.15877
8.58509
7.84826
9.84962
9.61817
9.25861
8.64755
7.86606
9.86917
9.65606
9.30591
8.68093
7.90878
1.30866
1.79055
2.04965
2.29963
2.36374
3.38707
3.30195
3.31552
3.42335
3.49405
5.89263
5.2713
4.92723
4.72671
4.75627
7.76953
6.99346
6.42025
5.90441
5.82667
8.82062
8.15139
7.55213
6.91816
6.87142
1.85076
0.845732
0.424335
0.167302
0.184177
2.61452
0.906082
0.368556
0.138845
0.0737794
3.51077
1.14522
0.301162
0.106659
0.0192721
4.09053
1.43299
0.275218
0.0559919
0.0947904
4.60349
1.75021
0.320172
0.0114699
0.191187
4.22906
1.73916
0.310021
0.0799322
0.290488
3.71203
1.82514
0.635358
0.306479
0.411883
4.92017
3.20813
1.24362
0.558753
0.519565
7.00949
4.28779
1.91821
0.899584
0.636956
8.27285
5.07583
2.4962
1.30356
0.812095
2.84818
3.68248
4.61956
5.50537
6.14858
3.68377
3.69671
3.77234
3.85235
3.36795
8.22648
8.08652
7.7993
7.38545
6.34651
9.0529
8.99236
8.85902
8.62148
8.16013
9.60671
9.56995
9.48702
9.33805
9.1188
7.5032
8.01245
8.55947
9.01088
9.46416
7.79401
8.45168
8.98716
9.37788
9.70863
7.77901
8.55907
9.15944
9.54077
9.80944
7.81628
8.62756
9.25739
9.62275
9.85359
7.89134
8.67365
9.30535
9.65743
9.87034
2.53521
2.4762
2.2762
2.12174
2.05075
3.48091
3.43303
3.47388
3.69427
4.24838
4.63536
4.65877
5.04956
5.59965
6.45254
5.68287
5.82513
6.49706
7.18778
8.04125
6.75286
6.84141
7.58023
8.24265
8.93533
0.213388
0.0627603
0.285731
0.875497
2.02922
0.186982
0.078416
0.231444
0.892636
2.6611
0.168618
0.0802432
0.172693
1.08189
3.43937
0.156645
0.0609033
0.155442
1.3845
3.94042
0.157613
0.065507
0.24647
1.73261
4.36325
0.205149
0.103262
0.27378
1.86833
4.09985
0.338217
0.120952
0.281433
1.81685
3.86222
0.668806
0.237704
0.772879
3.0378
4.90862
2.27563
0.813371
1.50836
4.16246
6.96073
5.05786
2.53638
2.41833
5.0374
8.27916
5.94669
5.26578
4.40214
3.51028
2.77974
3.52257
3.99135
3.97113
3.87644
3.76367
6.32109
7.35231
7.77899
8.06766
8.21845
8.12119
8.59991
8.84943
8.98861
9.05202
9.11694
9.33782
9.48741
9.57051
9.60696
9.31089
7.9169
1.39868
3.63025
7.73685
9.08189
7.44085
3.20603
1.64078
6.7891
8.39875
6.57777
4.20856
1.00361
4.14773
6.81574
5.09481
3.45532
1.70079
1.03871
4.50394
3.14529
2.03878
1.37804
0.460151
2.59749
1.61862
1.00258
0.797333
0.926922
1.45663
0.77932
0.580423
0.613864
0.686485
0.80103
0.406802
0.592222
0.76102
0.83427
0.30501
0.509611
0.886761
1.05269
1.11405
0.163503
0.935626
1.28179
1.51823
1.57281
0.19063
0.363344
0.711955
0.779728
0.732844
0.396394
0.502491
0.580896
0.639238
0.625233
0.615884
0.649885
0.466877
0.496019
0.514099
0.968028
0.798741
0.42012
0.35741
0.401398
1.33182
0.848192
0.426293
0.241511
0.286833
1.10593
0.859538
1.12577
1.11046
0.995515
0.283458
0.472732
0.86796
0.922508
0.844894
9.1912
8.8387
7.75888
5.73034
3.55985
8.58734
7.72297
5.85165
3.49148
0.865864
0.964483
0.858089
1.02669
1.62022
2.65828
0.812855
0.766805
0.703368
0.824385
1.52686
1.05933
1.01057
0.847306
0.552781
0.745303
1.38519
1.34819
1.15026
0.798427
0.22907
1.85828
1.8116
1.55932
1.24108
0.598642
7.73638
3.6272
1.39996
7.91514
9.31104
6.78529
1.6406
3.20266
7.43776
9.08253
4.13442
1.01086
4.1944
6.57319
8.40033
1.03689
1.7053
3.43375
5.08573
6.82225
0.475966
1.37619
2.01483
3.12777
4.52681
1.31265
0.540745
0.551086
0.452191
0.175661
0.679079
0.289512
0.469144
0.518957
0.48517
0.401801
0.150457
0.382422
0.621153
0.803798
0.2926
0.0667787
0.342386
0.774758
1.22439
0.247822
0.0464117
0.320465
0.861746
1.59063
5.48149
2.46078
1.03475
0.958486
1.14175
2.8881
1.08739
0.724363
0.553938
0.252416
3.56819
5.73584
7.76006
8.83923
9.19135
0.843781
3.4723
5.84509
7.72159
8.58718
)
;

boundaryField
{
    left
    {
        type            calculated;
        value           nonuniform List<scalar> 
17
(
0.460942
1.12669
2.18739
3.9099
6.58062
0.305725
0.189682
0.13892
0.144447
0.215212
2.95965
2.06281
1.34181
0.824582
0.50235
6.9789
4.57984
)
;
    }
    right
    {
        type            calculated;
        value           nonuniform List<scalar> 
17
(
0.995811
0.846346
0.734992
0.628196
0.516599
0.40082
0.280058
0.169568
0.0590397
0.0168821
0.114796
0.245316
0.354924
0.464984
0.551997
0.649379
0.804194
)
;
    }
    down
    {
        type            calculated;
        value           nonuniform List<scalar> 
20
(
5.99535
3.00021
1.14432
1.04102
1.85318
4.27031
6.38394
8.13151
9.01585
9.30929
9.30912
9.0152
8.13001
6.3799
4.26422
1.83183
0.934056
1.19227
1.16738
1.04237
)
;
    }
    up
    {
        type            calculated;
        value           nonuniform List<scalar> 
20
(
8.54864
5.40387
2.7256
1.45418
0.879244
9.69562
9.66615
9.59857
9.47421
9.2934
9.29641
9.47647
9.60018
9.66726
9.69603
5.70573
3.14792
2.65843
5.39324
8.56558
)
;
    }
    cylinder
    {
        type            calculated;
        value           nonuniform List<scalar> 
40
(
1.37567
3.59215
6.11887
7.96023
8.957
9.50511
9.74576
9.84079
9.88145
9.89745
9.54741
9.76283
9.84855
9.88495
9.89848
2.2894
4.52628
6.69951
8.23426
9.06981
3.0437
1.85063
1.09515
0.44775
0.605605
9.51907
9.33192
8.74238
7.26986
4.9863
9.5189
9.33117
8.74031
7.26161
4.95774
2.96613
1.73386
1.07392
0.666857
0.102878
)
;
    }
    defaultFaces
    {
        type            empty;
    }
}


// ************************************************************************* //
