/*--------------------------------*- C++ -*----------------------------------*\
  =========                 |
  \\      /  F ield         | OpenFOAM: The Open Source CFD Toolbox
   \\    /   O peration     | Website:  https://openfoam.org
    \\  /    A nd           | Version:  13
     \\/     M anipulation  |
\*---------------------------------------------------------------------------*/
FoamFile
{
    format      ascii;
    class       volScalarField;
    location    "0.315";
    object      p;
}
// * * * * * * * * * * * * * * * * * * * * * * * * * * * * * * * * * * * * * //

dimensions      [0 2 -2 0 0 0 0];

internalField   nonuniform List<scalar> 
440
(
7.92202
10.6787
13.0421
13.2261
10.2545
20.8183
24.2019
27.1978
27.8994
26.0137
41.3572
44.3888
47.0921
47.8852
46.7252
67.4917
69.5897
71.5033
72.16
71.4728
96.7699
97.5869
98.384
98.784
98.7504
-0.290144
-0.393691
0.0713391
0.624488
0.962016
-1.57864
-2.24068
-1.97746
-1.28289
-0.647787
-1.95955
-2.83667
-2.7495
-1.98798
-0.868093
-0.610622
-0.740419
-0.327562
0.644575
2.51414
3.16873
4.48123
5.91383
7.35022
9.60501
2.21385
2.40321
1.50701
0.805455
0.268323
1.16094
2.18169
1.38688
0.74499
0.25401
0.000963556
1.74994
1.24251
0.691717
0.243174
-0.294423
1.14833
1.02832
0.64554
0.237149
1.63054
0.571885
0.740456
0.598232
0.235213
4.51657
0.349692
0.441847
0.555213
0.240781
6.83507
0.773957
0.509115
0.567739
0.212719
10.0931
2.52599
1.1706
0.687281
0.168224
13.9928
4.8679
2.24617
0.938372
0.159322
16.7341
7.24727
3.5679
1.36131
0.227823
100.795
75.9455
53.4304
33.2572
12.4573
102.49
79.047
57.6408
39.1599
23.5873
104.391
82.8079
62.5796
45.3375
32.9906
105.274
85.1284
66.6114
51.294
40.7698
105.193
84.8507
66.4369
51.3614
41.0103
219.981
216.512
216.228
218.349
221.084
202.796
200.336
200.599
203.342
206.634
180.649
178.879
179.244
181.667
184.545
154.85
153.508
153.714
155.307
157.204
126.969
126.255
126.195
126.655
127.247
235.586
236.006
236.63
237.039
236.774
236.23
236.859
237.407
237.377
236.418
235.088
236.065
236.485
236.217
235.225
230.211
231.819
232.396
232.543
232.452
221.705
223.579
224.604
225.822
227.18
235.959
234.799
234.978
234.104
234.291
235.93
234.787
234.937
234.086
234.874
235.921
234.755
234.899
234.233
235.446
235.928
234.703
234.911
234.503
235.047
235.939
234.634
234.989
234.706
232.341
235.956
234.525
235.049
234.492
228.813
236.107
234.398
234.941
234.049
226.463
236.954
234.162
234.287
232.341
223.439
240.942
234.152
233.093
229.836
219.74
249.898
234.87
231.895
227.279
216.978
217.859
196.334
175.131
151.839
126.553
207.476
191.48
172.434
150.53
126.759
198.99
186.309
168.723
148.194
126.44
191.838
180.882
165.201
146.366
126.026
191.617
180.862
165.457
146.766
126.256
96.4965
95.6196
95.1718
94.405
94.2485
57.4268
55.4796
53.7742
51.8528
51.0872
29.6058
27.2622
24.4999
22.2017
20.8775
15.16
12.7435
10.2792
8.26017
7.28999
9.33175
7.44478
6.0597
5.08597
4.49877
6.10041
4.99913
4.42137
4.33442
4.42352
4.19156
3.73206
3.66058
3.8171
3.97132
2.89485
2.87912
3.1106
3.41261
3.57065
1.81213
2.1119
2.55723
2.90523
3.04974
0.779013
1.17059
1.73465
2.1316
2.30415
3.74519
3.31224
2.19638
1.09404
0.336395
3.79495
3.14247
2.10432
1.04156
0.325064
3.59938
2.88744
1.97659
0.990854
0.313321
3.28765
2.65499
1.81904
0.937335
0.301846
2.87308
2.51092
1.65034
0.872429
0.285873
4.61152
3.29632
2.10336
1.11294
0.353213
3.87891
3.39022
2.19862
1.12246
0.345773
95.0043
54.2579
27.6299
14.6115
9.59282
93.7832
51.2485
23.1063
9.59636
5.38876
232.196
232.277
232.231
231.721
230.646
232.791
232.964
233.196
233.238
232.867
233.346
233.516
233.9
234.296
234.466
233.917
234.067
234.464
235.055
235.464
234.629
234.862
235.357
235.951
236.196
142.068
141.876
141.048
140.538
139.626
185.29
184.481
182.503
180.737
178.759
215.579
214.209
211.86
209.046
206.672
229.206
228.198
226.15
223.654
221.21
232.051
231.436
230.467
229.089
227.191
238.919
234.554
234.666
233.562
232.954
237.239
234.591
234.755
233.736
232.98
236.509
234.675
234.855
233.956
233.301
236.168
234.748
234.949
234.129
233.653
236.021
234.79
234.99
234.17
233.943
252.336
235.881
235.028
233.503
232.042
243.249
234.799
234.603
233.439
232.754
226.995
221.921
208.818
182.112
141.317
231.19
226.95
213.373
185.136
142.54
)
;

boundaryField
{
    left
    {
        type            zeroGradient;
    }
    right
    {
        type            fixedValue;
        value           uniform 0;
    }
    down
    {
        type            zeroGradient;
    }
    up
    {
        type            zeroGradient;
    }
    cylinder
    {
        type            zeroGradient;
    }
    defaultFaces
    {
        type            empty;
    }
}


// ************************************************************************* //
