/*--------------------------------*- C++ -*----------------------------------*\
  =========                 |
  \\      /  F ield         | OpenFOAM: The Open Source CFD Toolbox
   \\    /   O peration     | Website:  https://openfoam.org
    \\  /    A nd           | Version:  13
     \\/     M anipulation  |
\*---------------------------------------------------------------------------*/
FoamFile
{
    format      ascii;
    class       volScalarField;
    location    "1.54";
    object      p;
}
// * * * * * * * * * * * * * * * * * * * * * * * * * * * * * * * * * * * * * //

dimensions      [0 2 -2 0 0 0 0];

internalField   nonuniform List<scalar> 
440
(
-1.37339
-1.35436
-1.35641
-1.33514
-1.27082
-1.50626
-1.48208
-1.45158
-1.38892
-1.29737
-1.68248
-1.642
-1.55578
-1.43384
-1.29701
-1.82753
-1.76543
-1.61489
-1.44197
-1.27995
-1.89435
-1.79039
-1.58258
-1.37474
-1.18988
-0.519602
-0.525545
-0.530484
-0.515903
-0.477282
-0.711839
-0.714555
-0.720278
-0.704888
-0.647186
-0.958869
-0.961168
-0.968458
-0.978979
-0.883455
-1.16158
-1.16077
-1.17402
-1.2042
-1.11206
-1.27653
-1.26524
-1.27169
-1.28764
-1.21008
-0.144747
-0.00274917
0.0760748
0.0456162
0.0140516
-0.253588
-0.0119934
0.0698441
0.042962
0.013196
-0.392454
-0.0284819
0.0613912
0.0397112
0.0122738
-0.525432
-0.0575831
0.0500536
0.0356345
0.0112195
-0.645206
-0.0969793
0.0355938
0.0306072
0.00991045
-0.65728
-0.123669
0.0161523
0.0218794
0.00763415
-0.541415
-0.144017
-0.0241783
0.00132796
0.00203441
-0.465501
-0.14388
-0.0291881
-0.00396356
5.18872e-05
-0.425254
-0.169201
-0.0531146
-0.0164479
-0.00368592
-0.395311
-0.178208
-0.0658769
-0.0231779
-0.00558544
-0.889021
-0.995967
-1.0487
-1.07686
-1.07535
-0.630937
-0.727108
-0.782004
-0.803455
-0.80161
-0.456147
-0.543805
-0.599135
-0.618709
-0.617955
-0.342447
-0.428962
-0.482608
-0.502554
-0.501647
-0.285949
-0.373533
-0.428113
-0.449935
-0.448555
0.390214
0.242903
0.0637786
-0.139362
-0.372589
-0.00155739
-0.164881
-0.364838
-0.593255
-0.853347
-0.411667
-0.585928
-0.804983
-1.04459
-1.30336
-0.759556
-0.942471
-1.17614
-1.42542
-1.64514
-1.02741
-1.21674
-1.44252
-1.68101
-1.84541
1.70438
1.72545
1.74577
1.7555
1.75067
1.49951
1.50972
1.51455
1.50353
1.47373
1.24126
1.22754
1.19452
1.14022
1.06114
0.962486
0.920908
0.847078
0.744285
0.612093
0.677995
0.584165
0.457905
0.306302
0.123411
1.56194
1.43864
1.53472
1.52827
1.63736
1.54936
1.42382
1.51226
1.49222
1.54089
1.53738
1.40728
1.48774
1.44541
1.41431
1.52615
1.38961
1.46117
1.38953
1.23597
1.51614
1.37104
1.43385
1.32649
1.04216
1.50502
1.34718
1.39643
1.22342
0.826238
1.49568
1.32135
1.36493
1.13225
0.829578
1.49544
1.30188
1.34187
1.07566
0.83159
1.49191
1.28368
1.3267
1.0325
0.840805
1.51924
1.2799
1.3185
1.00572
0.847544
0.400269
0.112994
-0.229588
-0.515073
-0.738652
0.361083
0.159245
-0.0798796
-0.301448
-0.489779
0.378742
0.198704
0.00908678
-0.173568
-0.327842
0.418096
0.246908
0.0765063
-0.0833494
-0.22068
0.440289
0.274434
0.114525
-0.0352082
-0.166821
-1.0682
-0.945847
-0.799431
-0.68469
-0.61759
-1.08518
-1.03169
-0.924569
-0.834051
-0.780092
-0.968586
-0.922338
-0.856204
-0.805576
-0.7714
-0.792637
-0.739663
-0.713574
-0.711209
-0.733183
-0.691148
-0.648846
-0.635437
-0.67187
-0.741685
-0.766802
-0.758677
-0.74128
-0.850787
-0.852773
-0.775402
-0.790867
-0.816421
-0.917554
-0.852323
-0.591971
-0.606761
-0.641557
-0.672557
-0.633253
-0.454863
-0.463135
-0.475127
-0.472218
-0.447174
-0.434127
-0.443327
-0.452008
-0.443937
-0.416631
-0.535157
-0.0802805
0.0698978
0.0494169
0.0173397
-0.452786
-0.0395428
0.0800648
0.0565053
0.017915
-0.29013
-0.012515
0.0817306
0.0503949
0.016282
-0.151115
-0.000585355
0.0826659
0.0499169
0.0157267
-0.100384
0.00185826
0.08002
0.0477163
0.0148312
-0.406222
-0.238392
0.0198743
0.0432597
0.0181381
-0.520923
-0.141626
0.0813706
0.0713717
0.0232104
-0.588084
-0.733551
-0.789935
-0.733011
-0.558038
-0.59838
-0.751354
-0.768574
-0.745232
-0.708976
1.58072
1.56248
1.53086
1.48645
1.42754
1.71417
1.73462
1.74385
1.73965
1.72268
1.82161
1.84822
1.86756
1.87656
1.87479
1.86059
1.89401
1.93093
1.96247
1.97788
1.82354
1.85377
1.88804
1.91659
1.92924
-0.227422
-0.317266
-0.462999
-0.638684
-0.844958
0.290858
0.172475
0.0165639
-0.174347
-0.415976
0.764783
0.643475
0.497236
0.323031
0.106021
1.13076
1.03894
0.92777
0.790648
0.625063
1.41802
1.35723
1.27561
1.17593
1.05962
1.62925
1.48332
1.60188
1.57686
1.67522
1.61465
1.47849
1.59311
1.58358
1.69882
1.60127
1.47155
1.58426
1.58295
1.74355
1.588
1.46271
1.57073
1.57414
1.72501
1.57487
1.45167
1.55424
1.55565
1.69674
1.67879
1.49256
1.60029
1.53126
1.58558
1.63979
1.48353
1.59632
1.54973
1.58712
1.30526
1.13644
0.818906
0.33239
-0.204707
1.38811
1.16852
0.83262
0.349947
-0.196297
)
;

boundaryField
{
    left
    {
        type            zeroGradient;
    }
    right
    {
        type            fixedValue;
        value           uniform 0;
    }
    down
    {
        type            zeroGradient;
    }
    up
    {
        type            zeroGradient;
    }
    cylinder
    {
        type            zeroGradient;
    }
    defaultFaces
    {
        type            empty;
    }
}


// ************************************************************************* //
