/*--------------------------------*- C++ -*----------------------------------*\
  =========                 |
  \\      /  F ield         | OpenFOAM: The Open Source CFD Toolbox
   \\    /   O peration     | Website:  https://openfoam.org
    \\  /    A nd           | Version:  13
     \\/     M anipulation  |
\*---------------------------------------------------------------------------*/
FoamFile
{
    format      ascii;
    class       volScalarField;
    location    "0.7";
    object      strainRateViscosityModel:nu;
}
// * * * * * * * * * * * * * * * * * * * * * * * * * * * * * * * * * * * * * //

dimensions      [0 2 -1 0 0 0 0];

internalField   nonuniform List<scalar> 
1800
(
9.40488
9.1976
9.01006
8.80095
8.57615
8.34414
8.11547
7.89817
7.62422
7.37927
9.58523
9.41878
9.2669
9.09732
8.91117
8.71142
8.50356
8.28867
8.0273
7.70209
9.70219
9.56269
9.42803
9.27096
9.08868
8.87899
8.64091
8.36903
8.03058
7.61062
9.77539
9.65614
9.53324
9.38287
9.20049
8.98172
8.7228
8.41596
8.02878
7.55457
9.82168
9.7183
9.60558
9.46166
9.28071
9.05696
8.78549
8.45888
8.04775
7.55615
9.85185
9.76081
9.6573
9.52059
9.34355
9.11896
8.84034
8.50016
8.07152
7.5702
9.87179
9.78991
9.69398
9.56396
9.39147
9.16769
8.8842
8.53252
8.08735
7.57567
9.88475
9.80924
9.71888
9.59394
9.42494
9.20146
8.91309
8.55005
8.08853
7.56355
9.8926
9.82107
9.73416
9.6122
9.44467
9.21963
8.92483
8.54923
8.07121
7.52871
9.89646
9.82686
9.74153
9.6207
9.45309
9.22573
8.92512
8.53953
8.05038
7.49285
1.79503
1.40531
1.21066
1.32108
1.73038
2.25066
2.49595
2.44915
2.35962
2.3359
3.72367
1.78214
1.49274
1.98133
2.69445
2.97188
2.81799
2.67291
2.68878
2.7419
4.6986
2.57094
2.43645
3.17594
3.59554
3.34682
3.08308
3.11959
3.25916
3.33959
5.26719
3.88246
3.81547
4.21293
4.18035
3.83017
3.72225
3.85573
3.95809
4.00712
6.0551
5.2755
5.1179
5.12108
4.91493
4.65371
4.57853
4.61265
4.61306
4.65286
6.95963
6.45998
6.22682
6.03816
5.78824
5.54548
5.38936
5.29361
5.2226
5.27524
7.77167
7.37774
7.11678
6.86025
6.58736
6.32053
6.08729
5.90107
5.77045
5.82406
8.40012
8.05531
7.792
7.51575
7.22646
6.93118
6.64218
6.38636
6.19238
6.22943
8.84935
8.54537
8.29099
8.01029
7.70567
7.37945
7.03561
6.70113
6.4158
6.42184
9.16164
8.90154
8.66632
8.39666
8.09569
7.76574
7.40643
7.03565
6.70857
6.75248
2.19367
1.72948
1.33213
0.93706
0.61944
0.348363
0.179772
0.128273
0.14178
0.210584
2.52824
1.84893
1.40761
0.932957
0.593842
0.332579
0.167396
0.0910348
0.0864072
0.150846
2.94893
1.97823
1.48029
0.930864
0.558865
0.305962
0.154313
0.0727133
0.0465889
0.0869599
3.44138
2.14821
1.55174
0.934128
0.520166
0.272239
0.137222
0.059046
0.0406536
0.0294486
3.98357
2.38621
1.6292
0.943296
0.481738
0.234636
0.116862
0.047524
0.0405881
0.017123
4.529
2.69729
1.72545
0.959697
0.446655
0.195407
0.0943405
0.0385647
0.0368209
0.020453
4.99737
3.05699
1.84734
0.982454
0.415275
0.156029
0.070662
0.0317804
0.0278754
0.0514725
5.31315
3.43996
2.01445
1.02527
0.394248
0.119917
0.0467504
0.0254476
0.023439
0.12486
5.34363
3.72335
2.16402
1.0572
0.371325
0.0865145
0.0290078
0.0163502
0.0721165
0.192052
5.20234
3.9895
2.3996
1.16094
0.38811
0.0699406
0.011375
0.0360585
0.130233
0.253835
4.94474
3.94298
2.45649
1.17458
0.362682
0.0514052
0.0211847
0.106258
0.194459
0.324498
5.3308
3.34822
2.13999
0.997821
0.356989
0.134569
0.114783
0.174818
0.275635
0.403606
4.90494
3.04538
2.24706
1.2034
0.588211
0.290745
0.198159
0.246369
0.342589
0.46586
4.54646
3.63134
2.68064
1.63932
0.890848
0.492881
0.333491
0.334398
0.412146
0.518609
5.11397
4.74742
3.34238
2.16371
1.23726
0.72814
0.491547
0.436948
0.48249
0.561547
6.2544
5.66947
4.05711
2.67381
1.59841
0.980835
0.670069
0.553939
0.557003
0.59776
7.26269
6.37372
4.71379
3.15477
1.95746
1.24038
0.856937
0.679444
0.634191
0.628868
8.00011
6.91206
5.25993
3.5892
2.3003
1.5009
1.04901
0.810934
0.71469
0.657621
8.51876
7.33074
5.69741
3.97025
2.62062
1.75419
1.23663
0.938985
0.791726
0.682311
8.931
7.6912
6.04981
4.28319
2.92532
2.02479
1.44855
1.08801
0.886716
0.715556
6.51282
6.43966
6.43043
6.44875
6.48736
6.52996
6.58201
6.71056
6.89525
6.82631
0.260678
1.05713
2.00773
2.92279
3.70373
4.31637
4.73313
4.98268
5.22177
5.72795
3.85078
3.54387
3.28462
3.11137
3.10643
3.25005
3.47229
3.71347
4.16503
4.84493
6.64418
6.62724
6.53714
6.34469
6.04327
5.65782
5.24953
4.89596
4.73933
4.54925
7.69185
7.67654
7.63213
7.5413
7.39614
7.18986
6.92708
6.61949
6.28595
5.65632
8.44951
8.43312
8.39435
8.32772
8.22958
8.09672
7.92837
7.71684
7.42792
6.90782
8.93968
8.92394
8.89029
8.83679
8.76166
8.6629
8.53816
8.37893
8.15468
7.80862
9.27298
9.25981
9.23246
9.18985
9.13052
9.05245
8.95269
8.82481
8.65282
8.43091
9.50446
9.49417
9.47307
9.44024
9.39426
9.33319
9.25424
9.15286
9.02289
8.87534
9.6899
9.68285
9.66852
9.64604
9.61405
9.5707
9.51361
9.43975
9.34638
9.2441
7.24814
7.52624
7.83694
8.08766
8.34479
8.5996
8.84137
9.06157
9.25458
9.46025
7.58315
7.94807
8.24096
8.48111
8.70933
8.9248
9.12229
9.299
9.45391
9.61806
7.49853
7.95738
8.32595
8.62049
8.87574
9.09773
9.28805
9.44951
9.58536
9.72226
7.44691
7.95761
8.37376
8.70199
8.97658
9.20596
9.39471
9.54806
9.67131
9.78824
7.45634
7.98066
8.4186
8.76489
9.05053
9.28356
9.46977
9.61591
9.72868
9.83022
7.48242
8.01168
8.46401
8.82146
9.11234
9.34474
9.52606
9.66446
9.76796
9.85764
7.50364
8.03786
8.50277
8.86862
9.16197
9.39189
9.56763
9.6989
9.79479
9.8757
7.51114
8.05246
8.52871
8.90209
9.19746
9.42521
9.5964
9.72212
9.81243
9.88729
7.49836
8.05045
8.53742
8.91898
9.21768
9.44503
9.61371
9.73606
9.82289
9.89404
7.48288
8.04358
8.53593
8.92344
9.22525
9.4533
9.62123
9.74216
9.82746
9.89693
2.55727
2.51392
2.53199
2.7434
2.92797
2.55464
1.69921
1.1821
1.523
4.19544
2.96461
2.87632
2.71677
2.71482
3.10435
3.43142
2.82221
1.90715
2.12515
5.13529
3.45283
3.40926
3.25135
3.06504
3.26523
3.82394
3.80353
3.1613
3.28871
5.45556
3.94462
3.93376
3.90723
3.79794
3.89073
4.31812
4.58937
4.46767
4.66044
5.91292
4.49768
4.47021
4.54548
4.61697
4.78069
5.11412
5.43834
5.61886
5.89629
6.63106
5.10119
5.05866
5.1982
5.39647
5.6572
5.98053
6.30863
6.59531
6.90068
7.4064
5.65361
5.61735
5.81814
6.09061
6.4078
6.74089
7.06851
7.37807
7.67865
8.08646
6.06669
6.0521
6.31512
6.64232
6.99497
7.33977
7.66725
7.97415
8.25892
8.61104
6.26034
6.27925
6.63099
7.02589
7.42009
7.78438
8.11669
8.41666
8.68281
8.98796
6.60012
6.56994
6.95602
7.37948
7.78131
8.14309
8.46651
8.75043
8.993
9.25187
0.111368
0.155623
0.120697
0.0610978
0.0150127
0.390051
0.927087
1.48124
1.94908
2.43163
0.0777197
0.140828
0.116328
0.0625741
0.014802
0.381253
0.931477
1.54488
2.02888
2.69847
0.0558954
0.132458
0.114528
0.0657939
0.0235064
0.381433
0.938838
1.59593
2.10045
3.00954
0.0428603
0.130408
0.11651
0.0734787
0.0415409
0.390042
0.946542
1.63418
2.20473
3.39664
0.0364704
0.13362
0.120838
0.0834809
0.0647456
0.400916
0.951433
1.67066
2.38303
3.86695
0.0356579
0.14092
0.125806
0.0930368
0.0888631
0.410326
0.957152
1.72852
2.64959
4.36406
0.0406002
0.152266
0.130081
0.0999757
0.109112
0.415553
0.968676
1.82427
2.98137
4.79471
0.0520816
0.168346
0.133299
0.104423
0.124967
0.425292
1.00999
1.98317
3.348
5.07928
0.0720374
0.189128
0.135544
0.102657
0.128442
0.425818
1.04699
2.13421
3.62634
5.08237
0.103123
0.211501
0.138394
0.104236
0.144031
0.472773
1.1834
2.39232
3.87616
4.89095
0.160194
0.239587
0.144246
0.101487
0.132867
0.47444
1.24733
2.50511
3.88539
4.67337
0.263518
0.270386
0.133764
0.0768248
0.0707876
0.381465
1.11943
2.30302
3.43034
5.1926
0.428417
0.269029
0.101562
0.0150817
0.0149029
0.338861
1.14628
2.34943
3.25565
4.93817
0.681605
0.25434
0.0225977
0.0806682
0.103916
0.534912
1.42947
2.62239
3.71403
4.69785
1.06517
0.0476651
0.261088
0.238641
0.3179
0.889247
1.9327
3.20531
4.70639
5.17706
1.5147
0.12142
0.536621
0.419144
0.59982
1.30745
2.47376
3.91673
5.59853
6.22323
2.19491
0.683961
0.854089
0.692095
0.945709
1.73849
2.99236
4.59341
6.30244
7.21636
3.79217
1.70619
1.27358
1.03942
1.32143
2.15105
3.46164
5.16519
6.85413
7.96879
6.86014
3.57583
1.96271
1.42374
1.68242
2.52516
3.87401
5.6313
7.29518
8.50725
9.04906
6.38373
2.84296
2.00373
2.11852
2.89827
4.2247
6.01928
7.68653
8.93808
6.62469
6.68769
6.51095
6.38915
6.34877
6.32257
6.30557
6.31734
6.36196
6.47626
5.5286
5.00974
4.76592
4.52482
4.12664
3.54066
2.79872
1.93219
1.04473
0.284246
4.84994
4.23685
3.8273
3.61671
3.42988
3.31039
3.31529
3.45758
3.65534
3.87431
4.71207
4.88555
5.02809
5.33769
5.70197
6.05231
6.33392
6.52142
6.61656
6.64161
5.68765
6.28576
6.61226
6.91133
7.17237
7.38148
7.53182
7.62815
7.67671
7.6924
6.86585
7.3886
7.68444
7.90233
8.0766
8.21485
8.31781
8.38856
8.43055
8.44889
7.76512
8.1205
8.35198
8.51792
8.64797
8.75099
8.82956
8.88582
8.92164
8.93899
8.40455
8.63268
8.80888
8.94093
9.04401
9.12466
9.18596
9.23006
9.25854
9.2726
8.86615
9.01619
9.14761
9.25059
9.33082
9.39283
9.43944
9.47267
9.494
9.50442
9.24868
9.35044
9.44301
9.5163
9.57294
9.61588
9.64748
9.66956
9.68348
9.69012
9.50946
8.98533
8.23588
6.92824
5.59793
0.131166
3.36079
5.96036
7.21408
8.15186
9.46541
8.92155
8.16811
6.89057
5.54935
0.563763
2.62218
5.70599
6.91642
7.91395
9.36567
8.78281
8.02026
6.8096
5.36633
1.60347
1.41355
5.20661
6.30934
7.40329
9.18254
8.54512
7.77448
6.6551
5.18643
2.74001
0.723089
4.23836
5.42156
6.57147
8.8681
8.17357
7.404
6.37693
5.02651
3.36801
0.97095
2.63161
4.31694
5.39379
8.35051
7.6297
6.8734
5.91727
4.7651
3.44003
1.71923
1.30192
3.04929
3.98814
7.53603
6.89658
6.15552
5.22755
4.29966
3.26954
2.14308
1.17248
1.65628
2.55746
6.32536
6.03755
5.28131
4.23189
3.53347
2.91263
2.11843
1.43514
1.06853
1.23545
4.63168
5.23222
4.47432
2.99959
2.43715
2.27452
1.85601
1.38477
1.1226
0.659128
2.67275
4.53951
4.02162
1.96675
1.39682
1.48838
1.4099
1.21162
1.06393
0.845082
1.27671
3.78883
3.6666
1.33733
0.816217
0.897603
0.970968
0.956115
0.971579
1.0197
0.613448
2.96951
3.08205
0.956643
0.575301
0.639796
0.759153
0.819724
0.843749
0.87676
0.355346
2.18921
2.28516
0.688197
0.492414
0.59494
0.72597
0.810355
0.848186
0.872989
0.265304
1.55043
1.48895
0.521271
0.534048
0.67361
0.787119
0.858171
0.881626
0.891913
0.239658
1.01903
0.845338
0.513589
0.668931
0.80257
0.903796
0.967317
0.983061
0.979995
0.242906
0.493601
0.499599
0.635714
0.816729
0.954214
1.052
1.10972
1.12029
1.11214
0.177475
0.204016
0.507659
0.755565
0.974057
1.11985
1.20962
1.2567
1.27349
1.27408
0.0453585
0.251421
0.648975
0.922181
1.13559
1.25312
1.32927
1.399
1.45543
1.47717
0.0605905
0.492177
0.821968
1.09588
1.22987
1.33864
1.48883
1.64714
1.73426
1.74982
0.694379
0.864514
1.04064
1.18425
1.3238
1.59703
1.90936
2.07903
2.08107
2.04819
0.363004
0.0803713
0.223513
0.549955
0.793419
0.889993
0.884377
0.8333
0.782619
0.755307
0.461956
0.201975
0.318697
0.520716
0.722846
0.809493
0.805953
0.761812
0.71798
0.704745
0.52549
0.371676
0.439411
0.512942
0.652552
0.72973
0.729261
0.691131
0.653463
0.653372
0.638448
0.587162
0.594704
0.554709
0.586608
0.6429
0.647491
0.618015
0.588174
0.601256
0.805376
0.802678
0.741107
0.637168
0.541482
0.555988
0.563802
0.544046
0.522675
0.548391
1.00882
0.998575
0.874382
0.736534
0.530379
0.474606
0.478677
0.469207
0.457066
0.494752
1.22688
1.1702
0.989354
0.824647
0.552247
0.408795
0.394916
0.3943
0.391695
0.440237
1.4517
1.32454
1.08831
0.887331
0.588943
0.368141
0.316764
0.32037
0.326849
0.384767
1.68444
1.4683
1.175
0.922772
0.618762
0.353553
0.250748
0.249106
0.263089
0.328062
1.92617
1.60363
1.2549
0.936552
0.629352
0.352514
0.204314
0.183538
0.200756
0.270346
2.0091
0.747333
0.717061
0.964282
1.19588
1.28165
1.25536
1.17774
1.10728
1.01555
1.39443
0.482866
0.578611
0.873679
1.1079
1.19566
1.17425
1.10279
1.03542
0.956808
0.75164
0.287925
0.480799
0.796797
1.03375
1.12383
1.10666
1.04008
0.976249
0.909059
0.253461
0.170259
0.405235
0.725145
0.958829
1.04778
1.0333
0.971555
0.911773
0.857499
0.435885
0.0327201
0.267038
0.612405
0.863051
0.963786
0.957802
0.902621
0.847354
0.806236
9.35464
9.29005
9.14099
8.87309
8.43755
7.77889
6.87135
5.7593
4.58198
3.53708
9.19247
9.09565
8.8811
8.51165
7.9415
7.13646
6.10963
4.95509
3.84476
2.78681
9.02388
8.90026
8.62661
8.16104
7.46175
6.51614
5.37142
4.16863
3.08127
1.94239
8.81631
8.6622
8.32149
7.74792
6.90616
5.81424
4.55497
3.29481
2.22586
1.09005
8.58749
8.37938
7.92583
7.17744
6.11251
4.79209
3.35065
2.08517
0.993993
0.302027
1.06036
1.02457
1.01642
1.01996
0.915321
0.79975
1.29347
3.68314
3.85959
1.32305
0.94933
0.93391
0.926345
0.870915
0.718985
0.588668
0.910966
3.1416
3.10959
0.647451
0.986079
0.982551
0.965691
0.892907
0.74749
0.584576
0.698465
2.37213
2.34612
0.377457
1.0534
1.06528
1.06112
1.0013
0.889901
0.74075
0.655789
1.5569
1.63383
0.277277
1.18585
1.20996
1.21564
1.16793
1.07683
0.951754
0.789113
0.909478
0.918856
0.246172
1.35071
1.37063
1.37888
1.35372
1.28381
1.15055
0.929242
0.669477
0.357992
0.216701
1.55471
1.55066
1.51831
1.47595
1.42498
1.31845
1.0784
0.753397
0.27235
0.0663799
1.82223
1.81576
1.73321
1.58048
1.44072
1.344
1.20885
0.900486
0.4938
0.0467727
2.10227
2.1494
2.14756
1.95368
1.61063
1.32185
1.18621
1.05566
0.855149
0.675171
2.3107
2.35756
2.48191
2.53346
2.23093
1.63037
1.18153
1.06602
1.3032
2.0384
8.15166
7.21372
5.96
3.36029
0.131422
5.59647
6.92775
8.23568
8.98534
9.50956
7.91326
6.91531
5.70499
2.62158
0.563633
5.5455
6.88912
8.16753
8.9216
9.46572
7.40184
6.30745
5.20481
1.41544
1.59975
5.36184
6.80733
8.01939
8.78294
9.36626
6.56882
5.41866
4.23619
0.726259
2.73171
5.1817
6.65226
7.7735
8.54545
9.18357
5.38941
4.31245
2.63261
0.971032
3.35667
5.02055
6.37348
7.40306
8.17432
8.86986
3.97978
3.04142
1.31014
1.71325
3.42677
4.75621
5.91246
6.87251
7.63119
8.35349
2.54101
1.6534
1.1872
2.13292
3.25088
4.28298
5.21882
6.15462
6.89948
7.54136
1.21747
1.08764
1.4518
2.1073
2.88047
3.50305
4.21747
5.28203
6.04351
6.33606
0.67159
1.15298
1.40717
1.8424
2.23204
2.40026
2.98384
4.47931
5.24349
4.6556
0.884949
1.10251
1.24721
1.41278
1.46386
1.36904
1.9433
4.02638
4.56504
2.71669
2.08986
0.543241
1.06097
0.63005
0.662188
0.758855
0.632579
0.300173
0.0621599
0.356548
1.63003
0.236808
0.869684
0.479889
0.568202
0.68155
0.593497
0.356752
0.266021
0.488572
1.33403
0.0582476
0.64151
0.341689
0.47957
0.602131
0.562148
0.45952
0.473298
0.591151
1.09775
0.0147453
0.393454
0.233273
0.39477
0.518433
0.562296
0.626009
0.732529
0.75832
0.847636
0.0895077
0.189469
0.159788
0.316859
0.441821
0.608645
0.804848
0.974345
0.977268
0.635416
0.154328
0.0530189
0.102687
0.244829
0.385999
0.69409
0.974358
1.19316
1.22419
0.463142
0.209698
0.0496086
0.0536621
0.180986
0.364662
0.787426
1.11753
1.38477
1.47983
0.330728
0.210975
0.107307
0.0107024
0.122587
0.373061
0.860516
1.2336
1.55591
1.73418
0.23209
0.196829
0.120995
0.035647
0.0641278
0.389325
0.903076
1.32806
1.70927
1.9749
0.161058
0.175243
0.125737
0.0554101
0.028066
0.396244
0.921281
1.40892
1.84228
2.19834
9.33657
6.77031
2.6652
1.69993
1.20267
1.12148
0.965717
0.782275
0.796686
2.0332
8.21092
4.6364
2.2152
1.418
1.07019
1.03651
0.891953
0.651526
0.528202
1.39866
6.12013
3.06389
1.78546
1.21072
0.965349
0.972084
0.832801
0.561653
0.329
0.741021
4.13312
1.87582
1.49749
1.00428
0.859387
0.904787
0.776264
0.48798
0.228851
0.225004
2.83547
1.06121
1.24626
0.80374
0.75632
0.827032
0.686267
0.35646
0.0444343
0.39806
3.54772
4.58914
5.76322
6.87351
7.78043
8.43868
8.87387
9.14147
9.29031
9.35473
2.78092
3.84103
4.95233
6.10786
7.13585
7.94151
8.51187
8.88133
9.09581
9.19254
1.9284
3.07188
4.16215
5.36666
6.51359
7.4606
8.16061
8.62653
8.90029
9.0239
1.05549
2.20304
3.28158
4.54674
5.81002
6.90394
7.74679
8.32103
8.66205
8.81629
0.300469
0.962558
2.06389
3.33745
4.78513
6.10892
7.17546
7.92488
8.37901
8.5874
)
;

boundaryField
{
    left
    {
        type            calculated;
        value           nonuniform List<scalar> 
35
(
0.298454
0.567716
0.987795
1.62612
2.52432
3.69545
5.06612
6.47612
8.15852
9.4418
0.211166
0.131124
0.0790759
0.047979
0.0320814
0.0271275
0.0323085
0.0514798
0.0915728
0.159837
4.9334
4.06158
3.23473
2.51292
1.9171
1.4271
1.03057
0.724045
0.495058
0.328558
9.61573
8.97908
7.92206
6.84779
5.85941
)
;
    }
    right
    {
        type            calculated;
        value           nonuniform List<scalar> 
35
(
1.01511
0.956668
0.909368
0.858781
0.808801
0.759515
0.710672
0.660873
0.610198
0.558618
0.506018
0.452153
0.396763
0.339363
0.279979
0.217456
0.153858
0.0849231
0.0256352
0.0145051
0.018342
0.0528377
0.137135
0.212669
0.278936
0.35244
0.432441
0.493778
0.543775
0.582216
0.612791
0.638058
0.661873
0.683367
0.713589
)
;
    }
    down
    {
        type            calculated;
        value           nonuniform List<scalar> 
40
(
9.45431
7.26631
2.89611
1.78907
1.24336
1.14989
0.991263
0.823844
0.897772
2.26042
3.83289
4.88243
6.03393
7.09285
7.94459
8.555
8.95446
9.19924
9.33564
9.39487
9.39477
9.33535
9.19872
8.95359
8.55367
7.94265
7.08993
6.02874
4.87317
3.81886
2.23221
0.847431
0.760932
0.9962
1.22756
1.31118
1.28224
1.20192
1.13039
1.03449
)
;
    }
    up
    {
        type            calculated;
        value           nonuniform List<scalar> 
40
(
9.0341
7.80884
6.16767
4.39494
3.03348
2.11963
1.52121
1.13706
0.917764
0.727252
9.72927
9.72305
9.71045
9.69064
9.66234
9.62377
9.57263
9.50586
9.42076
9.32814
9.33505
9.42655
9.51039
9.57623
9.62665
9.66461
9.69238
9.71168
9.72379
9.72952
9.27074
7.09625
3.23899
2.15537
2.23772
3.01789
4.3469
6.14892
7.81369
9.04495
)
;
    }
    cylinder
    {
        type            calculated;
        value           nonuniform List<scalar> 
80
(
1.99368
4.56216
5.53282
5.77616
6.3037
7.09019
7.86172
8.47476
8.91246
9.21291
9.44581
9.61872
9.72982
9.7983
9.84096
9.86846
9.8865
9.89817
9.90522
9.90869
9.5004
9.65061
9.74903
9.81046
9.849
9.87389
9.89016
9.90054
9.90657
9.90913
5.32176
6.2322
6.21062
6.31494
6.83388
7.52633
8.17609
8.68597
9.05066
9.30251
0.994417
0.47163
0.264239
0.18324
0.159611
0.165601
0.08286
0.0422408
0.74961
2.4265
9.59445
9.55588
9.46744
9.30186
9.00978
8.51135
7.68625
6.36658
4.38734
2.23895
9.59435
9.55556
9.46682
9.30078
9.00791
8.50818
7.6805
6.35448
4.35813
2.19128
0.95276
0.442233
0.244312
0.170821
0.150273
0.165466
0.161251
0.0841202
0.043357
0.733834
)
;
    }
    defaultFaces
    {
        type            empty;
    }
}


// ************************************************************************* //
