/*--------------------------------*- C++ -*----------------------------------*\
  =========                 |
  \\      /  F ield         | OpenFOAM: The Open Source CFD Toolbox
   \\    /   O peration     | Website:  https://openfoam.org
    \\  /    A nd           | Version:  13
     \\/     M anipulation  |
\*---------------------------------------------------------------------------*/
FoamFile
{
    format      ascii;
    class       volVectorField;
    location    "0.7";
    object      U;
}
// * * * * * * * * * * * * * * * * * * * * * * * * * * * * * * * * * * * * * //

dimensions      [0 1 -1 0 0 0 0];

internalField   nonuniform List<vector> 
1800
(
(0.0978009 -0.0883287 -4.48949e-20)
(0.286896 -0.241951 -3.41195e-20)
(0.473973 -0.379045 -4.85023e-19)
(0.657692 -0.500158 1.9147e-19)
(0.836611 -0.607171 7.43818e-20)
(1.00991 -0.701377 -3.90567e-20)
(1.17715 -0.783469 5.54973e-20)
(1.33793 -0.85368 1.97377e-19)
(1.49159 -0.912962 5.92246e-19)
(1.63353 -0.966899 8.10045e-19)
(0.119061 -0.0915027 -7.91142e-20)
(0.344291 -0.247709 -7.70613e-19)
(0.563282 -0.38475 3.78147e-21)
(0.775364 -0.504236 1.2576e-19)
(0.979505 -0.608922 -1.26263e-19)
(1.17521 -0.700695 7.65834e-20)
(1.36231 -0.780788 -2.80812e-19)
(1.54078 -0.850098 -5.02671e-20)
(1.7101 -0.910704 -6.93487e-19)
(1.86785 -0.967043 6.29764e-19)
(0.141651 -0.092323 4.88227e-20)
(0.40368 -0.247731 2.09288e-19)
(0.653755 -0.382117 5.43321e-19)
(0.892178 -0.497905 -1.90262e-19)
(1.11866 -0.598385 -1.42995e-19)
(1.33321 -0.685812 7.56109e-20)
(1.53605 -0.761706 9.82557e-20)
(1.72743 -0.827297 1.94065e-19)
(1.90721 -0.884801 2.73618e-21)
(2.07421 -0.937867 1.50983e-19)
(0.163906 -0.0897209 -4.57191e-20)
(0.461698 -0.23947 -2.04391e-19)
(0.741428 -0.367618 -1.81259e-19)
(1.00451 -0.476977 -1.42298e-19)
(1.25162 -0.571022 1.8131e-19)
(1.48351 -0.652127 -5.70904e-20)
(1.70092 -0.721906 -4.31054e-21)
(1.90453 -0.781621 2.92492e-21)
(2.09455 -0.833364 -1.6046e-19)
(2.27025 -0.880355 -1.0594e-19)
(0.184658 -0.0833565 -1.14039e-19)
(0.515894 -0.221807 8.76368e-20)
(0.823292 -0.339431 1.79841e-19)
(1.10931 -0.439063 2.43305e-19)
(1.37561 -0.524071 -2.85021e-19)
(1.62371 -0.596777 -3.58075e-21)
(1.85494 -0.658767 4.24977e-19)
(2.07042 -0.711262 -1.85055e-19)
(2.27083 -0.756163 -1.23988e-19)
(2.45578 -0.796396 -5.35552e-20)
(0.20319 -0.0735001 1.73591e-19)
(0.56447 -0.1952 1.02985e-18)
(0.896791 -0.298074 1.43255e-19)
(1.20351 -0.384735 -5.0314e-19)
(1.48719 -0.458227 -1.75502e-19)
(1.75003 -0.520669 6.37688e-19)
(1.9939 -0.573525 -1.45377e-19)
(2.22036 -0.6179 -4.31586e-19)
(2.43047 -0.655444 -3.16655e-19)
(2.62419 -0.688742 2.6159e-19)
(0.218898 -0.0605913 1.1634e-19)
(0.605745 -0.160701 -7.47591e-19)
(0.959313 -0.24503 -1.0856e-18)
(1.28371 -0.315798 3.83785e-19)
(1.58223 -0.375564 4.49943e-19)
(1.85767 -0.426128 -9.02058e-22)
(2.11239 -0.468739 -6.39681e-19)
(2.34829 -0.504325 2.19314e-19)
(2.56683 -0.534213 -3.64482e-19)
(2.76827 -0.56057 -3.11215e-19)
(0.231235 -0.0451722 -3.42486e-19)
(0.638199 -0.119684 -6.92604e-19)
(1.00849 -0.182294 1.21221e-18)
(1.34677 -0.2347 5.98701e-19)
(1.65693 -0.278852 -2.69757e-19)
(1.94224 -0.316136 -2.11496e-19)
(2.20543 -0.347515 0)
(2.44874 -0.373689 1.16805e-19)
(2.67398 -0.395622 -2.95841e-19)
(2.88171 -0.41497 -7.7427e-20)
(0.239766 -0.0278754 -2.04466e-19)
(0.660652 -0.0737558 5.62384e-19)
(1.04249 -0.112198 1.71008e-19)
(1.39031 -0.144289 -5.12493e-19)
(1.7084 -0.171277 -7.84194e-19)
(2.00037 -0.194053 3.66196e-20)
(2.26924 -0.213245 1.67124e-19)
(2.51752 -0.229293 -5.46841e-19)
(2.74731 -0.242784 -2.89763e-19)
(2.95953 -0.254778 -5.63594e-19)
(0.24426 -0.00940241 4.51408e-19)
(0.672452 -0.024704 3.44149e-19)
(1.0603 -0.0373616 -9.38596e-20)
(1.41303 -0.0477884 -1.29789e-20)
(1.73514 -0.0564622 -3.87507e-19)
(2.03041 -0.063723 -8.57329e-20)
(2.30205 -0.06981 -2.90578e-19)
(2.55276 -0.0748902 6.46558e-19)
(2.7848 -0.0791711 1.71003e-19)
(2.99945 -0.0830119 2.22273e-21)
(-0.00234387 -0.0217859 -3.4263e-20)
(0.00860399 -0.0693502 -7.02627e-20)
(0.0248916 -0.120508 -7.32251e-21)
(0.0493231 -0.171213 -3.40473e-20)
(0.077677 -0.216603 -1.27323e-20)
(0.10652 -0.254747 -3.90046e-19)
(0.13555 -0.28868 -1.95031e-20)
(0.16634 -0.321995 1.19953e-19)
(0.199169 -0.355511 1.09547e-20)
(0.233062 -0.387881 -3.57852e-20)
(0.000848182 -0.0246863 -9.77549e-20)
(0.0149432 -0.0850718 -2.12603e-19)
(0.0393454 -0.160333 -5.40929e-20)
(0.0692726 -0.225255 -1.10438e-19)
(0.0994933 -0.275546 -9.65092e-20)
(0.130463 -0.317979 -2.79812e-19)
(0.164483 -0.358971 2.00536e-19)
(0.202146 -0.400374 1.68619e-19)
(0.241649 -0.440293 -2.56621e-19)
(0.281161 -0.476677 8.13054e-20)
(0.00549555 -0.0314929 -8.54124e-20)
(0.0287775 -0.107418 -8.66804e-19)
(0.062856 -0.196104 -1.29565e-19)
(0.097451 -0.268967 9.32863e-20)
(0.131817 -0.327211 6.77997e-20)
(0.169656 -0.380276 -4.49898e-19)
(0.212952 -0.432301 3.56327e-20)
(0.259146 -0.481794 3.67012e-19)
(0.305496 -0.526257 -3.86459e-19)
(0.351447 -0.565653 -2.58555e-19)
(0.0113686 -0.0409865 -1.77228e-21)
(0.0466249 -0.130878 1.89819e-19)
(0.0896413 -0.225333 1.61452e-21)
(0.133077 -0.307035 -1.0778e-20)
(0.177791 -0.377871 -3.00948e-20)
(0.227247 -0.443854 8.65814e-20)
(0.281101 -0.505618 7.30759e-20)
(0.335673 -0.560887 -1.36134e-19)
(0.389738 -0.609369 9.20874e-21)
(0.443909 -0.651936 -1.04424e-20)
(0.0185094 -0.0507723 0)
(0.0672389 -0.15243 5.4776e-21)
(0.12194 -0.253638 -5.10192e-19)
(0.178696 -0.345479 5.15814e-20)
(0.23781 -0.428577 -1.0154e-20)
(0.300518 -0.505087 5.74715e-21)
(0.365312 -0.574372 -2.54078e-20)
(0.42981 -0.635429 -7.76949e-21)
(0.493949 -0.688833 0)
(0.558144 -0.734842 -2.05846e-20)
(0.027326 -0.0596508 3.18285e-20)
(0.0918957 -0.172858 -1.54278e-19)
(0.161767 -0.282526 -4.59701e-20)
(0.23463 -0.383892 -5.83634e-20)
(0.309737 -0.476754 4.96331e-20)
(0.386738 -0.561534 5.54602e-21)
(0.464243 -0.637699 8.96634e-20)
(0.540939 -0.704939 -2.17594e-20)
(0.61691 -0.763439 -6.96302e-19)
(0.69216 -0.812641 -1.01034e-20)
(0.0379752 -0.0676052 6.83654e-22)
(0.121237 -0.19218 5.57141e-20)
(0.209164 -0.310619 -7.84706e-20)
(0.299927 -0.420178 -1.66991e-20)
(0.392137 -0.52067 -7.29183e-20)
(0.484777 -0.612127 -9.53076e-21)
(0.5767 -0.694322 9.90935e-21)
(0.66694 -0.76714 -2.11662e-19)
(0.755524 -0.83026 3.83537e-19)
(0.842316 -0.882314 9.71576e-19)
(0.0503616 -0.0746013 1.51316e-20)
(0.15513 -0.209611 -1.42279e-19)
(0.263462 -0.335965 -2.1378e-19)
(0.37367 -0.452111 8.90165e-20)
(0.484102 -0.558265 -6.43248e-20)
(0.593544 -0.654615 9.87498e-20)
(0.700943 -0.741273 1.96841e-19)
(0.805407 -0.818294 -1.09124e-19)
(0.907019 -0.885107 -3.05956e-19)
(1.00569 -0.939521 7.25367e-19)
(0.0642901 -0.0803599 -2.64881e-20)
(0.193286 -0.224026 -5.78124e-19)
(0.324297 -0.35656 5.24316e-19)
(0.455683 -0.47723 3.37494e-19)
(0.585738 -0.586744 -8.59115e-20)
(0.713223 -0.685658 3.08688e-19)
(0.837128 -0.774431 -1.59968e-19)
(0.956563 -0.853454 -7.72922e-19)
(1.07173 -0.92203 -4.03717e-19)
(1.18267 -0.977274 4.53675e-19)
(0.0795452 -0.0846661 -7.98236e-20)
(0.235846 -0.234417 -5.44356e-19)
(0.392392 -0.370525 -8.27819e-21)
(0.547542 -0.492795 6.8823e-20)
(0.699594 -0.602463 3.37762e-19)
(0.847391 -0.700432 -1.85392e-19)
(0.990012 -0.787439 -1.69477e-19)
(1.12653 -0.863824 1.89003e-19)
(1.25681 -0.928645 -3.51627e-19)
(1.38007 -0.98035 -5.84592e-19)
(0.402971 -0.531976 9.84441e-19)
(0.684902 -0.618442 -2.43651e-19)
(0.913787 -0.557746 -1.42855e-19)
(1.08766 -0.431222 2.69177e-19)
(1.24013 -0.280128 -2.30714e-19)
(1.36251 -0.139364 -2.99769e-19)
(1.46005 -0.0333671 -2.65942e-19)
(1.51711 0.0202149 -3.18673e-20)
(1.53791 0.0312666 2.84333e-21)
(1.55389 0.0223961 3.00309e-20)
(0.468913 -0.619843 9.65319e-19)
(0.741544 -0.693875 7.14427e-20)
(0.966337 -0.617793 1.09559e-20)
(1.12485 -0.480457 -2.16233e-19)
(1.26559 -0.320482 -7.16794e-19)
(1.38092 -0.172015 0)
(1.47962 -0.0579916 -2.46951e-19)
(1.55359 0.00621637 5.18559e-20)
(1.59096 0.024955 4.50337e-21)
(1.61908 0.0189263 1.06472e-21)
(0.556244 -0.705501 -9.98099e-19)
(0.810836 -0.766849 -7.09917e-20)
(1.02558 -0.6757 1.56245e-19)
(1.16621 -0.527525 -5.38826e-20)
(1.29124 -0.35962 -3.63874e-20)
(1.39704 -0.204514 6.44071e-20)
(1.49126 -0.0843679 0)
(1.57263 -0.0123807 0)
(1.62613 0.0127485 -1.9524e-20)
(1.67498 0.0128699 0)
(0.66572 -0.787248 -2.249e-19)
(0.895645 -0.835416 4.04207e-19)
(1.092 -0.730405 2.68238e-20)
(1.21248 -0.571442 0)
(1.31798 -0.396658 6.05475e-19)
(1.41189 -0.23584 -1.43745e-19)
(1.49885 -0.110915 0)
(1.58004 -0.0325688 1.32783e-19)
(1.63481 -0.00412472 0)
(1.71406 0.00177648 -1.18991e-20)
(0.79575 -0.863933 -1.4892e-19)
(0.997659 -0.89759 4.54795e-19)
(1.16622 -0.780749 -1.46577e-20)
(1.26383 -0.61138 0)
(1.34651 -0.430777 1.78854e-19)
(1.42588 -0.265289 2.70373e-19)
(1.50436 -0.136458 4.7596e-20)
(1.581 -0.0526356 6.69969e-21)
(1.63247 -0.0216387 -2.28634e-20)
(1.72146 -0.0121266 3.29656e-20)
(0.942251 -0.934801 -1.33138e-18)
(1.11649 -0.95202 -9.42041e-19)
(1.24887 -0.825464 4.76147e-21)
(1.32002 -0.646617 5.75225e-19)
(1.3772 -0.461195 -3.04153e-19)
(1.43903 -0.292336 1.46935e-19)
(1.50826 -0.160318 2.33211e-19)
(1.57817 -0.0716751 -1.87933e-19)
(1.62758 -0.0393066 -1.89836e-21)
(1.71617 -0.0253604 2.45948e-20)
(1.1001 -0.999477 -2.60512e-19)
(1.25001 -0.998518 2.86583e-19)
(1.34018 -0.863435 3.94225e-21)
(1.38077 -0.676464 -1.76165e-20)
(1.41017 -0.487135 -5.89094e-19)
(1.45137 -0.316442 5.41421e-20)
(1.51006 -0.182085 -9.39678e-20)
(1.57248 -0.0897966 -2.70505e-20)
(1.62336 -0.0548421 -1.12249e-21)
(1.69157 -0.0382081 -2.29341e-20)
(1.26432 -1.05685 -1.20079e-18)
(1.39474 -1.03769 2.09944e-19)
(1.43915 -0.894071 0)
(1.44511 -0.700493 3.44809e-20)
(1.44474 -0.508071 5.19497e-19)
(1.46257 -0.337103 -1.52528e-21)
(1.50868 -0.201777 -3.11252e-19)
(1.56447 -0.106279 6.03026e-20)
(1.61418 -0.0692226 -8.38018e-22)
(1.6397 -0.0450536 -2.66368e-20)
(1.432 -1.10351 3.39105e-18)
(1.54804 -1.07044 2.46073e-19)
(1.54559 -0.918076 4.64195e-19)
(1.51327 -0.719126 -3.17947e-20)
(1.481 -0.524161 -3.43877e-20)
(1.47256 -0.354177 -4.27599e-19)
(1.50179 -0.219239 9.11278e-20)
(1.55441 -0.121142 3.06448e-21)
(1.56902 -0.07603 -2.47832e-20)
(1.57616 -0.0469647 3.37304e-20)
(1.59924 -1.12819 -2.99821e-18)
(1.70185 -1.09564 1.27225e-18)
(1.65394 -0.938095 -2.3292e-19)
(1.58138 -0.735854 -7.88486e-19)
(1.51592 -0.538984 -6.54879e-19)
(1.47869 -0.371431 -2.54669e-19)
(1.48945 -0.236728 -6.71624e-20)
(1.51317 -0.133738 0)
(1.50647 -0.0771167 -5.7323e-20)
(1.50446 -0.0472302 1.2134e-19)
(1.88818 -1.17023 -6.71197e-18)
(1.92739 -1.10519 -1.69193e-18)
(1.80485 -0.932298 -5.84284e-20)
(1.67306 -0.7277 1.11924e-19)
(1.56245 -0.534141 1.60374e-19)
(1.48625 -0.373227 -1.03082e-19)
(1.44959 -0.241129 -4.03427e-20)
(1.42784 -0.133947 7.07182e-20)
(1.41641 -0.0750346 -5.80335e-20)
(1.40611 -0.046449 -5.57572e-20)
(2.28933 -1.13487 4.95786e-19)
(2.17884 -1.05673 -2.88357e-19)
(1.94274 -0.865356 4.97145e-19)
(1.73564 -0.66485 -8.51405e-20)
(1.56228 -0.480837 5.13834e-21)
(1.42643 -0.333674 -6.83755e-20)
(1.34283 -0.217674 9.66225e-20)
(1.30967 -0.123452 -3.30611e-20)
(1.29223 -0.0696588 2.04446e-19)
(1.27629 -0.0435791 9.15247e-20)
(2.61059 -1.0436 2.2709e-18)
(2.35195 -0.948784 3.2581e-19)
(2.00827 -0.759487 -1.17806e-19)
(1.73251 -0.572974 1.62821e-36)
(1.5054 -0.410744 -2.55157e-20)
(1.33911 -0.286684 1.50713e-33)
(1.23455 -0.190122 -1.97034e-20)
(1.18346 -0.11112 -1.6423e-33)
(1.16029 -0.0628934 6.82284e-21)
(1.13935 -0.0395196 -1.44686e-20)
(2.78703 -0.893974 3.88685e-33)
(2.36943 -0.795634 2.96662e-18)
(1.9736 -0.63049 1.81805e-18)
(1.65344 -0.469416 0)
(1.40654 -0.334911 8.33289e-19)
(1.22973 -0.233638 4.30387e-19)
(1.11393 -0.156346 1.69636e-19)
(1.05081 -0.0945675 -2.88132e-33)
(1.02174 -0.0543587 -5.89217e-20)
(0.996771 -0.0343441 9.2986e-21)
(2.76365 -0.705895 3.84274e-18)
(2.24589 -0.629885 -1.46814e-19)
(1.84653 -0.491021 0)
(1.51552 -0.361709 0)
(1.27128 -0.255697 0)
(1.09729 -0.178413 0)
(0.980805 -0.120866 -1.26948e-20)
(0.911933 -0.0754325 -4.17973e-33)
(0.878248 -0.0442658 7.63506e-21)
(0.850176 -0.0282997 8.23238e-34)
(2.55117 -0.517038 3.26575e-18)
(2.02005 -0.462916 0)
(1.63856 -0.353644 0)
(1.32675 -0.256744 0)
(1.10094 -0.179699 0)
(0.941696 -0.125529 0)
(0.833444 -0.0860365 3.29792e-20)
(0.765718 -0.0552846 -9.09934e-20)
(0.730141 -0.0331473 8.51788e-21)
(0.700548 -0.0216686 3.3369e-20)
(2.19012 -0.342712 0)
(1.70262 -0.303513 1.09825e-18)
(1.36128 -0.227607 1.09036e-18)
(1.09131 -0.161992 0)
(0.89839 -0.112337 6.66919e-19)
(0.763985 -0.0786973 4.04844e-19)
(0.67157 -0.0546158 2.51641e-19)
(0.611166 -0.0360949 8.34405e-20)
(0.577291 -0.0219975 -2.65185e-20)
(0.548508 -0.0149279 -4.37858e-21)
(1.70286 -0.191137 -6.73872e-19)
(1.30018 -0.165594 -2.74165e-19)
(1.02505 -0.121756 1.75644e-19)
(0.81508 -0.0844376 -2.11263e-34)
(0.667699 -0.0580811 -7.70588e-20)
(0.566159 -0.0410367 3.7113e-33)
(0.495577 -0.0289379 4.88475e-20)
(0.447753 -0.0197353 9.87669e-20)
(0.419395 -0.0120926 9.89417e-21)
(0.394413 -0.00870776 -2.60583e-21)
(1.10088 -0.0758215 3.40805e-18)
(0.823158 -0.0626786 -1.8655e-19)
(0.640581 -0.0442931 -5.88873e-19)
(0.506145 -0.0289881 0)
(0.413817 -0.0195676 -6.40085e-19)
(0.350646 -0.014123 -4.32414e-19)
(0.306131 -0.0103007 -2.03847e-19)
(0.275027 -0.00746034 -1.42019e-19)
(0.255744 -0.00462 1.69735e-19)
(0.238154 -0.00367588 -2.75993e-20)
(0.397352 -0.00331881 0)
(0.287866 0.00159418 0)
(0.220891 0.00409434 0)
(0.173551 0.00624745 0)
(0.142372 0.00585623 0)
(0.121191 0.00471419 0)
(0.105863 0.0036793 5.60909e-20)
(0.094694 0.0025688 -2.17526e-34)
(0.0873823 0.0021368 1.24533e-20)
(0.0803284 0.000899334 1.13374e-20)
(3.3671 -0.0863117 5.39208e-19)
(3.32642 -0.265086 -8.41901e-20)
(3.24735 -0.430657 8.52093e-19)
(3.13238 -0.582158 -6.0475e-19)
(2.98634 -0.718125 6.664e-19)
(2.81524 -0.836382 2.75235e-19)
(2.6266 -0.934059 -1.92753e-18)
(2.42951 -1.00785 -7.74638e-20)
(2.22468 -1.05368 0)
(1.98485 -1.06656 4.26132e-19)
(3.86191 -0.0750596 7.07368e-18)
(3.79859 -0.234214 1.95637e-18)
(3.70428 -0.387311 -4.86732e-18)
(3.58426 -0.531992 -4.4909e-19)
(3.44238 -0.665895 3.55888e-18)
(3.28186 -0.787322 1.92344e-18)
(3.1065 -0.895069 -5.16863e-18)
(2.92204 -0.987704 -1.95217e-18)
(2.72759 -1.06339 2.20315e-18)
(2.49237 -1.12052 8.52171e-19)
(3.83308 -0.053301 -1.26251e-19)
(3.82024 -0.171566 4.40361e-18)
(3.78546 -0.299762 -1.08826e-18)
(3.72434 -0.43092 -3.44613e-18)
(3.63618 -0.558732 -6.80011e-18)
(3.52371 -0.678803 1.02787e-17)
(3.39117 -0.788793 4.18064e-18)
(3.2435 -0.887985 -3.91182e-18)
(3.08161 -0.978717 -2.90277e-18)
(2.88723 -1.063 -3.42503e-18)
(3.62866 -0.0472859 -4.83943e-18)
(3.61961 -0.144932 -4.35349e-18)
(3.59963 -0.243741 5.47222e-18)
(3.56735 -0.343095 1.91192e-18)
(3.52241 -0.442379 -8.97141e-18)
(3.46416 -0.540809 4.92208e-19)
(3.39183 -0.637047 3.8864e-18)
(3.30512 -0.730432 -1.05397e-18)
(3.20499 -0.823065 1.27682e-18)
(3.08306 -0.914773 2.81768e-19)
(3.34405 -0.0365784 -9.16003e-19)
(3.339 -0.111656 3.00412e-18)
(3.3271 -0.188677 1.6196e-18)
(3.30744 -0.267172 -1.89429e-18)
(3.27986 -0.346071 -2.00139e-18)
(3.24465 -0.424138 -2.43401e-18)
(3.20204 -0.500335 3.79666e-19)
(3.15176 -0.574495 1.39034e-19)
(3.09549 -0.647759 -2.13975e-18)
(3.03287 -0.721305 -2.03441e-18)
(2.96257 -0.0265545 -1.82251e-18)
(2.95981 -0.079889 -5.87231e-20)
(2.9533 -0.134599 -1.63755e-18)
(2.9424 -0.190903 3.12128e-19)
(2.92675 -0.248551 5.36787e-18)
(2.90629 -0.30693 -3.6675e-19)
(2.88092 -0.365116 4.4339e-20)
(2.85023 -0.42206 -2.60861e-18)
(2.81644 -0.476883 -3.49569e-18)
(2.786 -0.529864 3.72825e-19)
(2.48713 -0.0175108 -2.89313e-20)
(2.48578 -0.0519348 -8.14317e-19)
(2.48259 -0.0872483 -2.61487e-18)
(2.47707 -0.123771 -3.43104e-18)
(2.4688 -0.161534 2.49657e-18)
(2.45744 -0.200268 1.50226e-18)
(2.44261 -0.239354 -1.38508e-18)
(2.4237 -0.277791 1.6245e-18)
(2.40275 -0.314483 -4.29712e-19)
(2.38953 -0.349541 -9.63776e-19)
(1.91464 -0.00968841 7.72463e-19)
(1.91408 -0.0282976 -8.31807e-19)
(1.91278 -0.0474397 -3.27698e-20)
(1.91031 -0.0673591 -3.47232e-20)
(1.90624 -0.0881301 -7.27405e-20)
(1.90013 -0.109614 -2.33196e-18)
(1.89151 -0.131405 -6.78681e-19)
(1.87978 -0.152782 2.62613e-18)
(1.86664 -0.172975 -6.03512e-19)
(1.86191 -0.192207 -1.35115e-18)
(1.23988 -0.00373764 -1.64283e-18)
(1.23967 -0.0106957 -8.48917e-19)
(1.23923 -0.0179012 2.33921e-18)
(1.23823 -0.0254786 -8.89781e-19)
(1.23625 -0.0334753 -6.74128e-19)
(1.2329 -0.0418316 1.35204e-18)
(1.22775 -0.0503499 -1.2959e-18)
(1.22038 -0.0586654 1.287e-18)
(1.21202 -0.0663424 -1.21033e-18)
(1.21007 -0.0735081 -4.24831e-18)
(0.454916 -0.000257979 6.63084e-19)
(0.454827 -0.000700532 7.03058e-19)
(0.454692 -0.00115912 7.48186e-19)
(0.454325 -0.00164005 1.35398e-18)
(0.453496 -0.00214018 -6.7199e-19)
(0.451984 -0.00263719 -1.29963e-18)
(0.449567 -0.0030991 6.14719e-19)
(0.445992 -0.00359292 2.48373e-20)
(0.441737 -0.00439222 -4.96532e-20)
(0.44035 -0.00504562 1.1057e-19)
(1.65355 0.997261 -2.85786e-19)
(1.51227 0.941849 1.79969e-20)
(1.35879 0.880738 -2.28619e-19)
(1.19767 0.808432 1.7634e-19)
(1.02957 0.723974 -1.91963e-19)
(0.854823 0.627074 -1.01102e-19)
(0.673759 0.51694 2.31983e-19)
(0.487035 0.392146 -3.04916e-19)
(0.295891 0.250643 3.09877e-19)
(0.10143 0.0916437 2.38717e-19)
(1.88638 0.992181 0)
(1.72967 0.934732 6.39277e-19)
(1.56083 0.872763 3.32451e-19)
(1.38228 0.801849 1.62756e-19)
(1.19453 0.719875 4.31266e-19)
(0.997533 0.625897 -8.68516e-20)
(0.79136 0.518601 -7.85401e-20)
(0.576346 0.39599 8.87707e-20)
(0.353318 0.255175 -1.04517e-18)
(0.122698 0.0943551 -1.66438e-20)
(2.09103 0.959031 1.56804e-19)
(1.92523 0.905063 0)
(1.74614 0.846458 -1.00738e-19)
(1.55493 0.779547 -3.83399e-19)
(1.3517 0.702081 5.37069e-20)
(1.13609 0.612789 3.97119e-19)
(0.907783 0.510088 -6.06879e-19)
(0.666589 0.391638 -2.00881e-19)
(0.412595 0.254044 7.83587e-19)
(0.145251 0.094735 -1.75938e-19)
(2.28484 0.898349 1.87991e-19)
(2.11044 0.850557 1.19924e-20)
(1.9213 0.797858 2.45124e-20)
(1.71811 0.736999 3.60929e-20)
(1.50058 0.665855 -2.92733e-20)
(1.26792 0.583131 2.73257e-19)
(1.01926 0.487168 -2.06876e-19)
(0.753674 0.375531 -8.55569e-19)
(0.470271 0.244678 0)
(0.167388 0.0916964 0)
(2.46796 0.811815 -1.07079e-18)
(2.28435 0.770834 -6.09147e-19)
(2.08493 0.72506 -1.20669e-19)
(1.87003 0.671521 -6.65718e-20)
(1.6389 0.608294 0)
(1.39031 0.534136 2.4075e-19)
(1.12275 0.447434 2.67776e-19)
(0.834555 0.345835 2.8624e-19)
(0.52384 0.225953 -4.23743e-19)
(0.187908 0.084898 -8.12343e-20)
(2.634 0.702091 7.66387e-19)
(2.44156 0.668062 -1.39172e-19)
(2.23244 0.629678 -2.21571e-19)
(2.00664 0.584305 0)
(1.76301 0.530279 0)
(1.49988 0.466488 0)
(1.21522 0.391463 -3.89803e-20)
(0.906684 0.30309 3.70275e-19)
(0.571498 0.198348 3.79144e-19)
(0.206083 0.0746242 -3.08566e-19)
(2.7758 0.572354 -1.19355e-18)
(2.5755 0.545259 -1.48135e-18)
(2.35786 0.514529 -3.03288e-22)
(2.1226 0.477946 -1.8766e-19)
(1.86818 0.434181 -9.28797e-20)
(1.59258 0.382318 -1.78839e-19)
(1.29333 0.321124 4.5909e-19)
(0.967489 0.248837 2.14862e-19)
(0.611583 0.162967 5.40025e-19)
(0.221314 0.0613402 2.02853e-19)
(2.88707 0.425748 -1.15708e-18)
(2.68027 0.405633 8.47053e-20)
(2.45576 0.38282 1.64526e-19)
(2.21297 0.355611 1.68173e-20)
(1.95004 0.323051 -3.14403e-19)
(1.66465 0.284468 -1.7421e-19)
(1.35398 0.238937 -6.21208e-19)
(1.01464 0.18514 1.1853e-19)
(0.642604 0.121237 5.14754e-20)
(0.233066 0.0456127 -6.26903e-21)
(2.9628 0.265187 1.01363e-19)
(2.75121 0.252354 3.97005e-19)
(2.52189 0.237904 -3.30292e-19)
(2.27394 0.22074 3.63015e-19)
(2.00524 0.200297 3.72548e-19)
(1.71322 0.176176 4.91896e-19)
(1.39481 0.147809 -6.35739e-19)
(1.04633 0.11439 -3.24415e-19)
(0.663411 0.0748097 -4.58506e-20)
(0.240916 0.0280951 -3.26994e-19)
(3.00052 0.0935773 5.81812e-19)
(2.78612 0.0887858 -1.86158e-19)
(2.55425 0.0834441 4.79563e-19)
(2.30367 0.0771503 -3.10668e-19)
(2.03208 0.069728 2.66478e-19)
(1.73679 0.061062 6.0541e-19)
(1.41457 0.0509785 3.78885e-19)
(1.06162 0.0392347 3.09342e-19)
(0.673396 0.0255066 2.65861e-19)
(0.244654 0.00950723 5.43614e-19)
(0.239574 0.45209 -4.69182e-19)
(0.203974 0.41837 -1.87563e-19)
(0.16841 0.381289 1.39159e-19)
(0.134884 0.343628 -4.19302e-19)
(0.105153 0.307505 -1.19451e-19)
(0.0782561 0.270253 6.92755e-19)
(0.0518802 0.223848 3.35831e-19)
(0.0259635 0.158997 -1.55618e-19)
(0.0070594 0.0797064 1.14614e-19)
(-0.00112463 0.0224499 -6.07327e-20)
(0.288638 0.544368 4.11351e-19)
(0.248735 0.507574 4.58276e-19)
(0.208188 0.465525 -1.16998e-20)
(0.167861 0.418499 -1.32684e-19)
(0.131141 0.370379 -3.13154e-19)
(0.10061 0.322783 8.28235e-20)
(0.07348 0.269459 2.25059e-19)
(0.0458965 0.197 1.65399e-19)
(0.0183429 0.101915 -5.90942e-19)
(0.00279014 0.0288801 -1.23611e-19)
(0.359661 0.633179 -6.00809e-19)
(0.313796 0.593032 -4.81395e-19)
(0.267998 0.547194 2.57574e-19)
(0.221355 0.493885 1.38184e-19)
(0.17581 0.434124 -6.05874e-21)
(0.136272 0.371915 -1.40033e-19)
(0.10212 0.305647 -2.94439e-20)
(0.0684382 0.224924 -5.55178e-19)
(0.0336719 0.126039 -2.69404e-19)
(0.00763894 0.0378015 -3.90654e-20)
(0.454221 0.717918 5.03249e-19)
(0.400064 0.673724 1.64745e-19)
(0.346369 0.622713 -1.49369e-19)
(0.292231 0.563668 6.32679e-20)
(0.237749 0.49557 -5.63379e-22)
(0.186586 0.420892 1.32281e-21)
(0.140104 0.340674 -1.3227e-19)
(0.0954603 0.250264 3.78496e-19)
(0.0514357 0.147742 -4.19296e-19)
(0.0135812 0.0477114 -6.51124e-20)
(0.572008 0.797886 -2.82172e-19)
(0.507861 0.749792 -8.88983e-20)
(0.44358 0.692946 -1.43459e-20)
(0.378969 0.627226 -7.02396e-20)
(0.31372 0.551968 5.85302e-20)
(0.249662 0.468069 5.27107e-20)
(0.188379 0.376717 -2.79254e-20)
(0.129324 0.276653 -2.82172e-19)
(0.0725268 0.16764 2.18362e-19)
(0.0209184 0.0568395 8.72754e-20)
(0.709414 0.870968 6.43372e-19)
(0.634366 0.819585 3.20849e-19)
(0.55813 0.757419 2.03154e-19)
(0.480855 0.685356 4.8214e-20)
(0.402412 0.603521 1.54996e-19)
(0.32387 0.512356 7.84333e-20)
(0.246466 0.412512 1.43329e-19)
(0.170865 0.303907 5.79357e-20)
(0.098053 0.186796 -1.59529e-20)
(0.029997 0.0650297 -1.33376e-20)
(0.862017 0.934882 -1.19767e-19)
(0.775539 0.880684 -8.25e-19)
(0.686701 0.814059 -7.62232e-20)
(0.595723 0.736816 -5.20806e-20)
(0.502561 0.649616 -1.96375e-20)
(0.408124 0.552702 1.51484e-19)
(0.313477 0.446303 -4.38193e-20)
(0.219709 0.330407 6.49907e-20)
(0.128293 0.205077 -1.44615e-19)
(0.0409039 0.0724932 -1.2554e-21)
(1.02672 0.986043 -8.84788e-19)
(0.928465 0.929643 5.94295e-20)
(0.826654 0.859708 -2.33835e-19)
(0.721461 0.778884 -7.24987e-20)
(0.612767 0.688003 -2.4056e-20)
(0.501456 0.587062 -7.51801e-20)
(0.388525 0.475888 5.62805e-20)
(0.275162 0.354192 6.03066e-20)
(0.162982 0.221556 -9.82135e-21)
(0.053544 0.0791204 -1.03792e-19)
(1.20389 1.01794 1.23825e-19)
(1.0935 0.960947 5.23151e-19)
(0.978251 0.889722 1.55291e-21)
(0.858221 0.807554 -2.96184e-20)
(0.733144 0.715298 1.50891e-19)
(0.60389 0.612547 -3.47317e-19)
(0.471403 0.498748 -2.44389e-19)
(0.33683 0.373207 3.56116e-19)
(0.201771 0.235006 1.44185e-19)
(0.0677021 0.0845325 -3.62255e-20)
(1.40058 1.01547 7.39773e-19)
(1.27806 0.962349 3.23727e-19)
(1.14783 0.895367 5.59236e-20)
(1.01087 0.816404 -1.9497e-19)
(0.86727 0.726523 -1.64382e-20)
(0.7179 0.625337 4.656e-19)
(0.563584 0.512003 -2.68227e-19)
(0.405341 0.385475 -1.84483e-19)
(0.244705 0.244319 3.35797e-19)
(0.083114 0.0884409 -6.0474e-21)
(0.976782 0.0985051 8.66202e-21)
(1.14285 0.142085 -1.15016e-21)
(1.21367 0.19033 -2.34295e-20)
(1.3262 0.170859 0)
(1.3776 0.155655 5.81378e-22)
(1.27892 0.234382 -5.35843e-20)
(1.12938 0.385649 -5.42379e-20)
(0.949366 0.543534 -1.23402e-20)
(0.71167 0.648407 -3.046e-19)
(0.416558 0.595599 4.26391e-19)
(0.982003 0.0795851 1.96147e-19)
(1.13484 0.114434 -3.07096e-20)
(1.21001 0.159949 1.89829e-21)
(1.31708 0.152051 1.16747e-20)
(1.38053 0.157815 3.50618e-21)
(1.29865 0.268979 -2.76915e-21)
(1.15931 0.435825 1.42983e-20)
(0.993971 0.606609 0)
(0.761558 0.727464 7.97464e-19)
(0.479417 0.6868 -5.66878e-19)
(0.986792 0.0609431 -1.13366e-19)
(1.13138 0.0878209 6.72527e-21)
(1.20941 0.130434 7.77532e-20)
(1.31401 0.131949 1.9161e-20)
(1.38358 0.15912 -2.31472e-20)
(1.31854 0.301473 -3.4945e-20)
(1.1924 0.484488 -9.27148e-21)
(1.04408 0.668104 4.45837e-20)
(0.823145 0.803942 -1.25171e-21)
(0.564491 0.774584 -3.71059e-19)
(0.990935 0.0420369 -8.08958e-20)
(1.13207 0.0618016 1.54343e-20)
(1.21238 0.101597 7.55075e-20)
(1.31722 0.111681 3.07901e-20)
(1.38933 0.159954 -2.37505e-20)
(1.33871 0.331831 -2.69231e-20)
(1.22899 0.530935 7.28767e-20)
(1.10021 0.726887 2.68835e-20)
(0.89993 0.875584 -5.4623e-19)
(0.673714 0.856989 -1.77877e-19)
(0.994303 0.0225212 3.67712e-20)
(1.13613 0.0358997 -4.66554e-20)
(1.21851 0.0733254 -6.7751e-20)
(1.32533 0.0918889 2.24208e-20)
(1.39672 0.16132 0)
(1.35885 0.360492 0)
(1.26914 0.574517 7.61818e-20)
(1.16352 0.781573 -2.82545e-20)
(0.994688 0.939902 -1.18101e-19)
(0.80512 0.932372 -5.73765e-20)
(0.996786 0.00223978 3.42634e-21)
(1.14269 0.00970203 5.79368e-20)
(1.2269 0.0455274 -2.07742e-19)
(1.3365 0.0731279 -7.66617e-20)
(1.40452 0.164035 -4.8495e-21)
(1.37884 0.387621 1.24452e-19)
(1.31306 0.61438 1.52499e-19)
(1.23554 0.830444 -1.80488e-20)
(1.10783 0.995097 -4.35874e-20)
(0.953767 1.00009 2.77148e-21)
(0.997663 -0.0190438 1.61946e-21)
(1.15089 -0.0171426 2.96459e-20)
(1.23658 0.0182201 -6.55362e-20)
(1.34928 0.055923 -1.54452e-19)
(1.41179 0.168337 1.181e-20)
(1.39896 0.412893 7.39374e-21)
(1.36134 0.649408 -5.95988e-20)
(1.31737 0.871846 -1.08843e-19)
(1.2373 1.04088 -3.02779e-20)
(1.11388 1.06028 -9.80024e-19)
(0.995802 -0.0411461 1.48801e-20)
(1.16017 -0.0449176 -1.43415e-19)
(1.24681 -0.00842768 1.32456e-19)
(1.36246 0.0410271 1.01981e-19)
(1.41739 0.174693 5.02449e-21)
(1.41917 0.435855 -1.32411e-19)
(1.41386 0.678572 4.71163e-23)
(1.40837 0.904841 -1.30458e-19)
(1.37933 1.07813 1.11039e-20)
(1.27986 1.11238 2.88345e-18)
(0.990917 -0.063395 -8.75675e-20)
(1.1704 -0.0737385 8.02412e-20)
(1.25715 -0.0342484 1.90401e-19)
(1.37535 0.0285587 -1.14387e-19)
(1.42185 0.182861 -2.25218e-19)
(1.44103 0.456216 9.25923e-21)
(1.47191 0.701737 1.6879e-19)
(1.5085 0.930132 -5.72657e-19)
(1.53085 1.10812 -2.68442e-20)
(1.44835 1.15337 -6.47474e-18)
(0.983916 -0.0862567 4.10933e-21)
(1.18187 -0.103581 1.41148e-19)
(1.26743 -0.0590475 6.12409e-20)
(1.38677 0.0208473 -2.75773e-19)
(1.42297 0.196881 -2.43745e-19)
(1.46212 0.477563 -7.19946e-20)
(1.53114 0.722684 7.98221e-20)
(1.6116 0.951062 -2.07938e-19)
(1.68374 1.13049 -1.0866e-18)
(1.61563 1.17234 -7.95158e-18)
(0.974132 -0.117328 -1.44972e-20)
(1.1959 -0.143195 -3.25754e-20)
(1.27685 -0.0925981 -7.65355e-20)
(1.39744 0.0063627 1.40695e-19)
(1.42502 0.1959 2.01489e-19)
(1.4919 0.473117 -6.03231e-20)
(1.61191 0.712102 -1.41577e-19)
(1.75379 0.940205 -1.20196e-18)
(1.90279 1.13248 -1.59933e-18)
(1.89934 1.20868 3.28629e-18)
(0.961934 -0.155947 -4.05441e-19)
(1.21415 -0.192626 1.72089e-20)
(1.2807 -0.138672 -5.7849e-20)
(1.39781 -0.0152441 3.33578e-19)
(1.40372 0.173932 3.44351e-19)
(1.49354 0.428376 -6.32918e-22)
(1.66813 0.647789 -6.65589e-20)
(1.88068 0.865789 -2.88483e-19)
(2.13955 1.07132 2.77452e-19)
(2.28452 1.1608 -3.23429e-19)
(0.949356 -0.196365 -2.78886e-20)
(1.23925 -0.242462 -5.48878e-20)
(1.27957 -0.183094 3.06899e-20)
(1.3929 -0.0338032 2.70108e-20)
(1.37744 0.162759 1.72396e-33)
(1.47014 0.371221 2.54986e-21)
(1.68052 0.561284 -2.04077e-33)
(1.94905 0.759521 1.85289e-19)
(2.30192 0.956365 -9.31041e-19)
(2.58733 1.05843 -6.29296e-19)
(0.937004 -0.243023 1.41133e-18)
(1.27066 -0.282412 -7.75054e-34)
(1.24939 -0.228631 -4.02991e-20)
(1.27077 -0.036434 -2.28271e-19)
(1.26278 0.144558 -4.46779e-19)
(1.38944 0.302397 -8.8542e-19)
(1.61917 0.459983 -5.06722e-33)
(1.92924 0.631035 -1.73803e-18)
(2.3258 0.802067 -3.1774e-18)
(2.75374 0.902574 1.67524e-18)
(0.927283 -0.30054 0)
(1.31628 -0.327208 -1.61842e-33)
(1.11264 -0.206968 0)
(1.10738 -0.029487 0)
(1.11946 0.115048 0)
(1.25864 0.232821 0)
(1.48966 0.355376 -8.07114e-33)
(1.81503 0.491519 0)
(2.21348 0.634258 -3.39744e-19)
(2.735 0.712004 1.25755e-18)
(0.916478 -0.360809 1.16126e-19)
(1.25167 -0.326217 -4.68862e-19)
(0.960004 -0.174053 -5.49755e-20)
(0.934066 -0.0257667 0)
(0.956452 0.0827012 0)
(1.09016 0.165452 6.04733e-20)
(1.30638 0.253865 1.17754e-18)
(1.61598 0.354656 -1.9506e-19)
(1.99672 0.466187 -4.95304e-19)
(2.53246 0.520472 4.67302e-18)
(0.883463 -0.405317 -1.52016e-17)
(1.0921 -0.279946 1.08746e-18)
(0.792659 -0.130476 -7.27217e-20)
(0.747079 -0.0210215 -7.52388e-20)
(0.773059 0.0525601 -5.12197e-19)
(0.88961 0.104512 -7.72646e-19)
(1.07635 0.161246 -1.04841e-18)
(1.34606 0.228998 -1.38275e-18)
(1.68762 0.306109 -1.60564e-18)
(2.17994 0.344442 3.61284e-18)
(0.808999 -0.394519 -4.13658e-19)
(0.886477 -0.20759 -1.21644e-18)
(0.605552 -0.0828418 -1.25673e-19)
(0.549716 -0.0152729 -8.41832e-20)
(0.571968 0.027631 -9.87316e-34)
(0.661644 0.0545361 9.37976e-20)
(0.805478 0.0845655 -1.4857e-32)
(1.01622 0.122929 -1.93436e-19)
(1.29248 0.167304 2.9894e-19)
(1.69929 0.19207 7.05763e-19)
(0.664251 -0.288845 3.42549e-17)
(0.618259 -0.108099 -3.1402e-18)
(0.393378 -0.0351097 -2.40752e-19)
(0.339395 -0.00735852 -1.57567e-19)
(0.353806 0.00926298 3.93831e-19)
(0.410494 0.0183549 7.84054e-19)
(0.501213 0.0291817 7.95177e-19)
(0.636735 0.0448803 4.59844e-19)
(0.820755 0.0634547 -1.90401e-19)
(1.10156 0.0762251 3.56936e-18)
(0.336836 -0.0768241 5.58814e-19)
(0.261851 -0.00230487 -6.76604e-33)
(0.144383 0.0190774 -3.04968e-19)
(0.120406 0.0033609 0)
(0.123631 -0.00234725 0)
(0.141862 -0.00541297 9.644e-20)
(0.17238 -0.00624543 9.34538e-35)
(0.220297 -0.00417557 -1.23574e-19)
(0.28813 -0.00161896 -2.82604e-19)
(0.399009 0.00331835 1.00157e-18)
(2.00205 1.09641 -1.7898e-18)
(2.23906 1.07845 -2.30495e-18)
(2.44207 1.0291 0)
(2.63707 0.9525 -7.58068e-19)
(2.82358 0.852508 -1.78277e-18)
(2.99276 0.732391 -2.2495e-18)
(3.13709 0.595042 -4.75913e-19)
(3.25054 0.442698 1.26928e-18)
(3.32824 0.276965 -3.54792e-18)
(3.36764 0.0986984 1.35669e-18)
(2.49866 1.14197 2.67726e-19)
(2.73055 1.08191 1.39732e-18)
(2.92386 1.00419 1.43903e-19)
(3.10673 0.9098 6.75772e-19)
(3.2806 0.80066 -1.10401e-18)
(3.43997 0.678326 -5.00047e-18)
(3.58096 0.544013 2.46795e-18)
(3.70047 0.399322 1.27035e-17)
(3.79428 0.246325 1.04066e-19)