/*--------------------------------*- C++ -*----------------------------------*\
  =========                 |
  \\      /  F ield         | OpenFOAM: The Open Source CFD Toolbox
   \\    /   O peration     | Website:  https://openfoam.org
    \\  /    A nd           | Version:  13
     \\/     M anipulation  |
\*---------------------------------------------------------------------------*/
FoamFile
{
    format      ascii;
    class       volScalarField;
    object      p;
}
// * * * * * * * * * * * * * * * * * * * * * * * * * * * * * * * * * * * * * //

dimensions      [0 2 -2 0 0 0 0];

internalField   nonuniform List<scalar>
440
(
950.120423147
952.157749859
950.475581787
943.620357452
932.88172339
1037.86581834
1040.90925912
1040.74718411
1035.62135557
1027.13240053
1142.46731503
1145.41965558
1145.90806122
1142.5914339
1136.70411966
1259.96808464
1262.20770852
1262.94795036
1261.31531388
1257.89535278
1384.93524342
1386.08028596
1386.7070349
1386.57388533
1385.85892834
715.704239822
711.687897479
708.030149666
703.887568118
697.259178556
739.098614777
733.417009098
727.829875523
722.623723865
716.285226222
773.938914966
769.246370171
763.007912842
756.925868965
751.098265482
820.376531229
817.943928493
812.832591443
807.119050763
802.594923998
880.124494089
880.108921876
876.963483145
872.130409774
868.594064198
651.734647622
521.253698685
377.094491574
228.033928356
76.3770763245
664.151850013
530.817737118
383.136610865
231.281242669
77.3254105275
684.991731799
545.942174885
393.033949091
236.711264945
78.9563442829
715.755182691
566.532449762
406.685055499
244.216713767
81.2373163768
758.375603689
592.436941222
423.687340857
253.68460041
84.1269642309
802.255504129
615.028769389
436.4777746
260.719111125
86.7062642145
826.595497439
624.4886607
440.69541175
262.741158826
87.4562635362
845.321561942
633.718563718
444.733671972
264.416877524
88.0206110082
862.417303737
644.247936415
448.815695991
265.734284849
88.3896761632
873.843410122
652.324906939
451.503069323
266.52401066
88.657240052
1391.15709893
1270.86987836
1156.87649049
1051.97375231
954.727426427
1397.23415195
1285.6470551
1179.85777923
1083.03011485
996.87325017
1402.45063525
1298.44476747
1198.51653124
1106.54421352
1026.62366188
1405.67064804
1307.44893044
1213.2119502
1126.25458578
1049.76863125
1407.12524865
1311.63745004
1220.06877816
1135.05962924
1058.88467509
1977.48452838
1966.26708608
1958.8892166
1956.71900462
1958.27523754
1880.45821089
1871.12526454
1865.23590329
1864.39718538
1866.77030825
1768.32714566
1761.35006158
1757.12485444
1756.80257318
1758.91459432
1645.19781538
1640.52792468
1637.90511923
1637.71075527
1638.97728131
1516.08530004
1514.01753563
1512.86146515
1512.53150762
1512.64567388
2222.35203617
2215.58766339
2211.37088919
2207.75420492
2203.70234339
2202.55622295
2196.12662759
2191.02702955
2185.74645441
2180.38712531
2166.50015258
2160.66283198
2154.83064124
2148.97042589
2144.43365057
2113.03107273
2108.44938673
2102.85808949
2097.86909918
2095.33209077
2044.47772437
2040.6818402
2035.64818721
2032.32194021
2032.02513588
2878.35838116
2693.78158584
2544.17533095
2399.77004411
2268.47687105
2876.07611403
2689.87087875
2538.09563588
2390.04692913
2255.66777839
2873.74853864
2683.7811837
2528.2023574
2374.75093837
2234.19267964
2871.3339864
2675.64915117
2514.60186768
2353.90260339
2202.42862363
2868.66394432
2665.72125708
2497.63241552
2327.6324463
2158.53669865
2865.54713346
2658.88411786
2484.51570306
2304.49763612
2113.36583873
2864.37225231
2657.04963059
2479.33229528
2293.9718955
2088.5764634
2863.50996936
2655.04213067
2474.87813156
2284.16676386
2069.7902455
2866.86853911
2652.69537569
2470.82782321
2273.49793736
2052.55635723
2879.99938725
2651.51361191
2468.55349227
2265.36709657
2040.96268981
1955.67384865
1856.8804075
1750.14687572
1634.76529639
1513.66347616
1914.57284011
1827.62507287
1729.74191605
1623.07695015
1511.00249731
1886.14853969
1805.61573971
1712.89511449
1612.27227196
1507.84461928
1863.3709713
1786.20919095
1698.64314136
1603.88407535
1505.33330688
1854.14517514
1777.35552174
1691.83145884
1599.82050988
1504.06738604
1364.19216844
1363.3260641
1361.75270911
1358.83995702
1356.24250988
1193.05628741
1190.85790428
1185.65912624
1177.79476438
1171.22124641
1052.71235714
1050.35335429
1042.640809
1032.64814895
1024.14513895
947.806278603
944.616519929
936.256311645
925.372148626
916.149324934
873.588889168
869.419055548
862.533356335
853.377904652
844.479753766
814.10450709
809.573643769
804.439217297
799.099524454
793.004782192
767.802872244
764.09592
760.16822008
755.801821942
749.762116332
735.179473315
732.829089545
729.971268605
725.691553146
718.833857619
716.01185022
714.337665579
712.137902454
707.649262241
700.221777119
709.195585412
706.501742092
703.968604973
699.798463067
692.623370314
703.463394724
555.060715515
402.88865897
244.381693264
81.7018029383
678.165455929
538.110420011
390.956480276
237.26022055
79.4616149896
660.000526916
525.854856195
382.001887249
231.831959387
77.7346012256
649.667862919
518.88556976
376.542262859
228.355394044
76.6000348285
646.956756489
517.309619878
374.888692764
227.055283072
76.1334364649
735.551815441
567.14336352
408.889411751
247.760359682
83.063273136
725.667344535
566.128250308
409.710071534
248.562586433
83.3973927495
1361.71741262
1184.61561675
1046.23084419
948.810111035
878.597647481
1355.49366093
1171.48274497
1028.86998232
925.748209256
853.840089
2127.1271421
2120.89403229
2115.36866898
2110.02457536
2105.22935901
2171.0993031
2164.96345254
2160.48392667
2156.44452798
2152.62867839
2202.27070977
2195.32313131
2190.952984
2187.99428386
2185.38665963
2220.78901244
2213.34014281
2208.91829275
2206.75281158
2205.10658356
2227.86548109
2220.64411558
2216.5300116
2214.1649699
2211.81796028
1559.23309998
1556.22937599
1552.72970137
1550.27118163
1548.24928681
1744.8082505
1737.82961091
1729.41594167
1723.44671509
1720.2587292
1892.97571441
1884.05177458
1873.53224108
1865.17376491
1861.99955813
2002.16030985
1992.56675613
1981.23215421
1972.3338471
1968.49422928
2074.81728313
2065.66561775
2056.18643657
2048.90707978
2044.27896937
2885.13018477
2677.82396674
2519.20876471
2366.58423631
2217.66684111
2884.5479632
2685.85772775
2531.0087487
2383.65772653
2243.3870907
2883.82496517
2691.54118018
2539.75892279
2395.92114843
2261.44288809
2882.43808234
2694.69826534
2544.94087718
2402.6911355
2271.38540772
2880.53021329
2695.42013266
2546.42998661
2403.95718682
2273.63756105
2904.87839128
2674.88895846
2514.13162343
2354.66452512
2185.05582465
2889.2991958
2672.91212164
2512.62817327
2355.47565655
2195.1290213
2040.4600084
1969.64392198
1871.15413314
1731.66168802
1553.92829391
2065.42058349
1992.76577051
1888.53081095
1744.78163073
1560.11764203
)
;

boundaryField
{
    left
    {
        type            zeroGradient;
    }

    right
    {
        type            fixedValue;
        value           uniform 0;
    }

    down
    {
        type            zeroGradient;
    }

    up
    {
        type            zeroGradient;
    }

    cylinder
    {
        type            zeroGradient;
    }

    defaultFaces
    {
        type            empty;
    }
}

// ************************************************************************* //
