# Selection   : all
# Cells       : 440
# Volume      : 7.374263e+01
# Time        	min(p)
2.1           	-1.898980e+00
2.15          	-1.907387e+00
2.2           	-1.911783e+00
