/*--------------------------------*- C++ -*----------------------------------*\
  =========                 |
  \\      /  F ield         | OpenFOAM: The Open Source CFD Toolbox
   \\    /   O peration     | Website:  https://openfoam.org
    \\  /    A nd           | Version:  13
     \\/     M anipulation  |
\*---------------------------------------------------------------------------*/
FoamFile
{
    format      ascii;
    class       volVectorField;
    location    "0.2975";
    object      U;
}
// * * * * * * * * * * * * * * * * * * * * * * * * * * * * * * * * * * * * * //

dimensions      [0 1 -1 0 0 0 0];

internalField   nonuniform List<vector> 
1800
(
(0.177146 -0.162999 1.31789e-19)
(0.662107 -0.56524 6.02177e-20)
(1.0592 -0.856399 -4.58827e-19)
(1.29754 -1.00273 4.96816e-19)
(1.41253 -1.04229 1.22036e-18)
(1.45671 -1.02314 5.28628e-19)
(1.46711 -0.978277 -2.7535e-19)
(1.46317 -0.925275 -7.02233e-19)
(1.45434 -0.869102 -3.68765e-19)
(1.42455 -0.820759 -3.00849e-19)
(0.219748 -0.172321 4.07469e-20)
(0.779256 -0.566853 -4.79291e-19)
(1.21929 -0.84203 4.96744e-21)
(1.47245 -0.975104 -4.24426e-19)
(1.58653 -1.00666 1.07731e-19)
(1.62361 -0.983858 1.21727e-18)
(1.62581 -0.937763 -8.87462e-19)
(1.61485 -0.88431 4.51417e-19)
(1.60009 -0.829443 7.42774e-19)
(1.57666 -0.786498 -3.79934e-19)
(0.267684 -0.177755 2.2776e-20)
(0.901881 -0.554534 1.41127e-19)
(1.38024 -0.806796 3.62627e-19)
(1.64348 -0.923658 -2.86918e-19)
(1.75326 -0.947133 -1.44518e-18)
(1.78103 -0.922306 3.27856e-19)
(1.77321 -0.877764 5.82736e-19)
(1.75274 -0.827918 -6.64111e-20)
(1.7291 -0.77818 -4.92446e-21)
(1.69721 -0.738083 -2.96487e-20)
(0.32049 -0.178057 -2.78784e-20)
(1.02758 -0.526639 -1.59379e-19)
(1.53847 -0.749677 -2.82991e-19)
(1.80701 -0.847975 6.16718e-20)
(1.91013 -0.863287 3.80178e-19)
(1.92826 -0.837127 3.28017e-20)
(1.91132 -0.79464 -2.36563e-20)
(1.88305 -0.748027 5.36356e-19)
(1.85269 -0.701864 4.4663e-19)
(1.81768 -0.665883 -1.52422e-19)
(0.377363 -0.172204 1.20536e-19)
(1.15336 -0.482656 2.21135e-19)
(1.6895 -0.671718 -7.29002e-20)
(1.95786 -0.75062 -8.37469e-20)
(2.05155 -0.759005 -1.14151e-18)
(2.05917 -0.73355 1.00444e-20)
(2.0332 -0.695423 9.17859e-19)
(1.99751 -0.65458 3.08007e-19)
(1.96086 -0.614922 1.76829e-20)
(1.92183 -0.583903 -2.00056e-19)
(0.436871 -0.158975 -7.16191e-20)
(1.27538 -0.421693 4.19834e-19)
(1.82868 -0.573191 1.0923e-18)
(2.09179 -0.632652 -7.96569e-19)
(2.17414 -0.63541 -8.30513e-19)
(2.17134 -0.612041 1.40573e-18)
(2.13724 -0.579294 -1.01016e-18)
(2.09522 -0.544818 -1.13216e-18)
(2.0534 -0.511694 8.08651e-19)
(2.01137 -0.486236 -2.46322e-20)
(0.497281 -0.137594 1.66194e-19)
(1.38978 -0.34422 -8.01951e-19)
(1.95172 -0.456362 -2.95033e-18)
(2.20487 -0.497614 1.3143e-18)
(2.27451 -0.496793 2.10492e-18)
(2.26175 -0.477388 -6.1157e-21)
(2.22067 -0.451559 -2.74238e-18)
(2.17358 -0.424744 5.82981e-21)
(2.1278 -0.399287 2.46511e-18)
(2.0834 -0.380001 6.45683e-19)
(0.556288 -0.107501 -5.07391e-20)
(1.49216 -0.251046 5.47678e-19)
(2.05426 -0.323499 2.29645e-18)
(2.29365 -0.348496 -5.45981e-20)
(2.35007 -0.346182 -1.35855e-18)
(2.32833 -0.332252 -4.26531e-19)
(2.28162 -0.314323 0)
(2.23075 -0.295839 9.63551e-19)
(2.18214 -0.278471 -1.71317e-22)
(2.13619 -0.265845 -7.88727e-19)
(0.61139 -0.0687381 -3.47224e-21)
(1.57854 -0.144128 1.25385e-18)
(2.13294 -0.178062 2.03812e-18)
(2.35576 -0.189412 -1.93951e-18)
(2.39922 -0.187779 -1.40291e-18)
(2.36991 -0.180694 4.30871e-19)
(2.31913 -0.171484 -1.80922e-18)
(2.26591 -0.161852 -1.25745e-18)
(2.21573 -0.152883 1.46892e-18)
(2.16904 -0.147091 1.24763e-18)
(0.659987 -0.0219102 1.62891e-19)
(1.6453 -0.0260736 8.34711e-19)
(2.18498 -0.0237515 3.80604e-19)
(2.38952 -0.0243519 -2.80526e-18)
(2.42094 -0.0253937 2.31301e-20)
(2.38571 -0.0261802 4.10455e-18)
(2.33246 -0.0261775 -2.19389e-18)
(2.27824 -0.0256473 -1.20396e-18)
(2.22766 -0.0251368 4.0665e-19)
(2.18113 -0.0261197 -9.12286e-19)
(0.00028706 -0.0264619 1.09026e-19)
(0.0182224 -0.106027 9.22806e-20)
(0.0644885 -0.172361 -1.88964e-21)
(0.123235 -0.212219 -7.29304e-21)
(0.18636 -0.229665 -2.26174e-21)
(0.24876 -0.233173 -6.02763e-20)
(0.307675 -0.22952 5.93131e-21)
(0.362044 -0.222795 -4.91506e-21)
(0.411685 -0.215128 2.51622e-21)
(0.457065 -0.208673 -6.39663e-21)
(0.00382231 -0.0379975 5.07893e-20)
(0.0347874 -0.168236 9.86818e-20)
(0.0923357 -0.278777 -1.13107e-19)
(0.157829 -0.344758 -4.83956e-20)
(0.223654 -0.372315 -6.77333e-20)
(0.286287 -0.375867 -9.47514e-20)
(0.344208 -0.367144 4.93192e-20)
(0.397073 -0.35326 2.63103e-21)
(0.444966 -0.337969 -1.52844e-20)
(0.489362 -0.326013 -3.7165e-21)
(0.00937791 -0.0500533 -2.06872e-20)
(0.0617187 -0.229351 2.22071e-19)
(0.137878 -0.381858 7.50457e-20)
(0.2145 -0.472199 2.7914e-19)
(0.284788 -0.50885 5.18934e-20)
(0.347799 -0.512019 -3.18594e-19)
(0.404069 -0.498171 -1.43209e-20)
(0.454444 -0.477276 1.08747e-19)
(0.499462 -0.45466 -5.82252e-20)
(0.542325 -0.437361 -1.5361e-20)
(0.0172399 -0.0627343 -1.06968e-19)
(0.0992234 -0.288586 -4.31135e-20)
(0.200938 -0.479735 2.94406e-20)
(0.292677 -0.591874 -1.23732e-19)
(0.36892 -0.636183 5.22653e-20)
(0.432301 -0.6384 1.96206e-19)
(0.486196 -0.619386 6.4415e-20)
(0.533089 -0.591727 -2.63204e-20)
(0.574154 -0.562227 1.94921e-20)
(0.614941 -0.539787 -2.73712e-21)
(0.0278035 -0.0761581 0)
(0.147541 -0.345163 8.25872e-20)
(0.281185 -0.570553 3.0484e-19)
(0.391453 -0.701163 -2.69536e-19)
(0.474764 -0.751304 -5.60389e-19)
(0.538312 -0.751893 2.03544e-19)
(0.589048 -0.727731 -3.37724e-20)
(0.63149 -0.693679 -9.25737e-20)
(0.667627 -0.657889 0)
(0.705802 -0.63053 -8.95598e-21)
(0.0415834 -0.0904065 2.41701e-20)
(0.206924 -0.398243 1.676e-19)
(0.378075 -0.652444 6.39746e-20)
(0.509506 -0.797512 2.22491e-19)
(0.600492 -0.85135 -1.77123e-19)
(0.663765 -0.8496 -2.92878e-19)
(0.710503 -0.820416 5.21498e-19)
(0.747585 -0.780517 5.03009e-20)
(0.777979 -0.739181 -3.23027e-19)
(0.81295 -0.707086 -6.96481e-21)
(0.0591975 -0.105454 1.3698e-20)
(0.277552 -0.446845 1.49052e-19)
(0.490737 -0.723501 1.08107e-19)
(0.64499 -0.878499 2.35528e-20)
(0.743643 -0.933751 3.02417e-19)
(0.80592 -0.929047 -3.95985e-19)
(0.847777 -0.895198 -4.02389e-19)
(0.878664 -0.850281 -3.50379e-19)
(0.902702 -0.804327 2.56079e-19)
(0.933539 -0.76757 2.80866e-19)
(0.0812627 -0.121037 -1.20677e-19)
(0.359282 -0.489713 -2.11694e-20)
(0.61765 -0.781735 2.59125e-19)
(0.795209 -0.941867 -1.62638e-19)
(0.900825 -0.996315 3.14428e-19)
(0.961105 -0.988329 7.73524e-19)
(0.997177 -0.950587 5.51774e-19)
(1.02112 -0.901984 -4.24343e-19)
(1.03836 -0.852674 -2.04862e-19)
(1.0631 -0.811314 2.93217e-19)
(0.108164 -0.136486 -2.40565e-19)
(0.451301 -0.525138 -5.43023e-19)
(0.756306 -0.824911 7.01544e-19)
(0.956267 -0.985281 7.24228e-19)
(1.06726 -1.03681 -7.10013e-19)
(1.12405 -1.0254 8.09229e-19)
(1.15317 -0.984809 1.23934e-19)
(1.16925 -0.934195 -9.99941e-19)
(1.17917 -0.882893 -2.43625e-19)
(1.1938 -0.837194 3.22504e-19)
(0.140039 -0.150797 2.89779e-20)
(0.55247 -0.550965 -5.04622e-19)
(0.904054 -0.850485 -4.26381e-19)
(1.12438 -1.00618 7.20145e-19)
(1.23838 -1.05265 5.85277e-19)
(1.28954 -1.03753 -7.22318e-19)
(1.3098 -0.994702 -6.0697e-19)
(1.3163 -0.942976 3.63276e-19)
(1.31745 -0.889786 -3.73197e-19)
(1.31526 -0.840646 -2.30894e-19)
(0.622161 -0.169288 1.94388e-20)
(0.802198 -0.128732 -3.55715e-20)
(0.888657 -0.100769 1.0016e-20)
(0.93857 -0.0788855 6.07709e-21)
(0.967832 -0.0611439 -2.70273e-21)
(0.985142 -0.0465876 3.95904e-22)
(0.995743 -0.0346153 -1.40005e-21)
(1.00238 -0.0246114 -3.14336e-21)
(1.00637 -0.0166784 5.21174e-21)
(1.00907 -0.00685259 2.99282e-21)
(0.639852 -0.242293 8.50832e-20)
(0.813673 -0.167231 2.24586e-21)
(0.896801 -0.121683 4.02247e-21)
(0.944778 -0.0905193 -7.98801e-22)
(0.972746 -0.0678927 -1.67555e-21)
(0.989103 -0.0506177 0)
(0.998965 -0.0370659 -1.51578e-21)
(1.00504 -0.026101 3.32444e-21)
(1.00865 -0.0175778 4.9276e-22)
(1.01101 -0.00720082 -3.19754e-21)
(0.668234 -0.312781 -5.15648e-20)
(0.830218 -0.204889 -2.79599e-20)
(0.90764 -0.142333 1.01356e-20)
(0.952399 -0.102036 -8.55208e-21)
(0.978421 -0.074541 -3.89368e-21)
(0.993504 -0.0545506 6.09852e-21)
(1.00245 -0.039426 0)
(1.00787 -0.0275134 0)
(1.01104 -0.0184152 -6.39268e-22)
(1.01305 -0.0075203 0)
(0.707364 -0.379336 -2.92566e-20)
(0.851631 -0.241182 5.05272e-20)
(0.921108 -0.162471 7.91844e-21)
(0.961421 -0.113317 0)
(0.984855 -0.0810204 8.33911e-21)
(0.998338 -0.0583451 -3.97688e-22)
(1.0062 -0.0416698 0)
(1.01086 -0.0288322 1.14666e-23)
(1.01354 -0.0191802 0)
(1.01515 -0.00780692 7.66991e-23)
(0.757245 -0.440546 -3.00041e-20)
(0.877664 -0.275663 7.70805e-20)
(0.937113 -0.181864 -4.40589e-21)
(0.971819 -0.124247 0)
(0.992038 -0.0872665 1.6894e-22)
(1.00359 -0.0619612 2.74912e-22)
(1.01019 -0.043772 6.12801e-21)
(1.014 -0.0300411 1.21957e-21)
(1.01613 -0.0198623 -1.35495e-21)
(1.01732 -0.00805652 2.82453e-21)
(0.817564 -0.4949 -6.17416e-19)
(0.907966 -0.307943 -1.43112e-19)
(0.955526 -0.200341 1.83776e-21)
(0.983551 -0.134729 1.80906e-20)
(0.999955 -0.0932223 2.68967e-22)
(1.00926 -0.065362 1.53807e-21)
(1.01442 -0.0457077 -2.7273e-21)
(1.01727 -0.0311234 -1.92966e-21)
(1.01879 -0.0204512 -2.40214e-22)
(1.01955 -0.00826496 1.28687e-21)
(0.887431 -0.540775 -7.83802e-21)
(0.941755 -0.337357 5.69851e-20)
(0.976035 -0.217696 3.79083e-21)
(0.996524 -0.144668 -4.80649e-22)
(1.00857 -0.0988365 -1.32442e-20)
(1.01531 -0.0685145 5.28297e-21)
(1.01886 -0.0474544 -4.0177e-22)
(1.02065 -0.0320635 -4.62576e-21)
(1.02152 -0.0209365 5.22206e-23)
(1.0218 -0.00842823 -1.9985e-21)
(0.966177 -0.577846 2.59922e-19)
(0.977779 -0.363468 6.67452e-20)
(0.997761 -0.233687 0)
(1.01038 -0.153907 -1.99418e-21)
(1.01774 -0.104025 1.03449e-20)
(1.02168 -0.0713745 1.5569e-21)
(1.02348 -0.0489875 -5.45574e-21)
(1.02413 -0.0328465 1.54955e-21)
(1.02429 -0.0213094 1.1023e-23)
(1.02408 -0.00854335 2.14786e-22)
(1.05535 -0.608525 -3.83114e-19)
(1.01706 -0.388066 -1.78977e-19)
(1.02005 -0.249509 3.77094e-20)
(1.02446 -0.162963 8.88174e-22)
(1.02709 -0.108965 -2.04762e-21)
(1.02818 -0.0739868 -5.79801e-21)
(1.02818 -0.0503099 5.38613e-22)
(1.02765 -0.0334651 5.77429e-22)
(1.02708 -0.0215625 -3.50973e-21)
(1.02637 -0.00861027 -3.81719e-21)
(1.15547 -0.630848 2.65849e-19)
(1.06582 -0.409295 -1.75729e-19)
(1.04542 -0.265539 -2.72831e-20)
(1.03937 -0.172701 -2.45959e-20)
(1.03662 -0.114284 -1.21265e-20)
(1.03472 -0.0766927 -5.77914e-21)
(1.0329 -0.0515771 -3.66828e-21)
(1.03118 -0.0339772 0)
(1.02985 -0.0217146 1.09375e-21)
(1.02865 -0.00862038 1.23172e-21)
(1.30726 -0.614373 4.22477e-19)
(1.16106 -0.408765 1.1801e-19)
(1.0994 -0.267143 -7.89138e-20)
(1.07042 -0.174366 4.27873e-21)
(1.05492 -0.115227 5.5314e-21)
(1.04603 -0.07698 -1.38617e-21)
(1.04026 -0.0514705 3.24078e-21)
(1.03624 -0.0337073 2.96278e-21)
(1.03358 -0.0214213 -2.6771e-21)
(1.03157 -0.00848373 6.40516e-22)
(1.35921 -0.508667 -6.45199e-21)
(1.19672 -0.350698 1.19585e-19)
(1.12836 -0.237956 9.12454e-20)
(1.09291 -0.160219 -1.06956e-20)
(1.07095 -0.107791 4.06619e-20)
(1.0571 -0.0726262 2.56071e-20)
(1.04797 -0.0487212 1.79205e-20)
(1.04175 -0.031938 -1.6612e-21)
(1.03776 -0.0203011 6.25697e-21)
(1.03488 -0.00803043 3.83736e-21)
(1.41428 -0.435776 -1.25433e-19)
(1.24684 -0.312723 -9.74014e-21)
(1.16334 -0.216383 4.0414e-21)
(1.11665 -0.147551 -6.79241e-38)
(1.08693 -0.0999646 1.74773e-21)
(1.06789 -0.0675495 -7.10491e-35)
(1.0554 -0.0453409 -3.71181e-21)
(1.04702 -0.0297042 -2.45991e-34)
(1.04173 -0.0188667 1.00658e-21)
(1.03798 -0.00745796 -2.96107e-21)
(1.44821 -0.358889 -1.91977e-34)
(1.28264 -0.266761 -3.09013e-20)
(1.19131 -0.18895 -3.20591e-20)
(1.1369 -0.131077 0)
(1.10111 -0.0897097 -1.76833e-20)
(1.07767 -0.0609149 -1.18943e-20)
(1.06219 -0.0409611 -6.01524e-21)
(1.05186 -0.0268406 -3.37956e-34)
(1.04537 -0.0170464 -1.65024e-21)
(1.04081 -0.00673813 2.87038e-21)
(1.46975 -0.289114 -7.27569e-20)
(1.3101 -0.221918 3.86053e-21)
(1.21419 -0.160187 0)
(1.154 -0.112623 0)
(1.11336 -0.07774 0)
(1.08625 -0.053027 0)
(1.06821 -0.0357277 -8.15861e-22)
(1.05616 -0.0234235 -3.79445e-34)
(1.04861 -0.0148803 9.34239e-22)
(1.04331 -0.00588356 3.48855e-34)
(1.48289 -0.224904 -2.47293e-20)
(1.33049 -0.177329 0)
(1.23227 -0.130132 0)
(1.16793 -0.0925463 0)
(1.12356 -0.0643653 0)
(1.09349 -0.0440903 0)
(1.07332 -0.0297666 1.45984e-21)
(1.05983 -0.0195285 4.34136e-21)
(1.05138 -0.0124111 9.00509e-22)
(1.04544 -0.00490903 3.48222e-21)
(1.49045 -0.165735 0)
(1.34499 -0.133543 -9.43841e-21)
(1.24587 -0.0993216 -1.37012e-20)
(1.1787 -0.0712976 0)
(1.13158 -0.0499039 -8.7174e-21)
(1.09925 -0.0343129 -6.12629e-21)
(1.07742 -0.0232097 -2.74476e-21)
(1.06277 -0.0152376 -2.61458e-21)
(1.05359 -0.00968723 3.83988e-21)
(1.04713 -0.00383268 2.0973e-21)
(1.4933 -0.110566 6.71005e-21)
(1.35325 -0.090625 5.41428e-21)
(1.25416 -0.06795 -2.71009e-21)
(1.18538 -0.0490924 3.64693e-36)
(1.13653 -0.0345237 -2.17746e-22)
(1.10271 -0.0238058 -4.9989e-35)
(1.07973 -0.016126 1.27232e-21)
(1.06429 -0.0105914 4.51556e-21)
(1.0546 -0.00672675 7.78839e-22)
(1.04777 -0.00265416 -2.53284e-21)
(1.47205 -0.0552735 -3.21344e-20)
(1.33567 -0.0500507 9.17952e-21)
(1.23916 -0.0386979 1.05569e-20)
(1.17153 -0.0283301 0)
(1.12319 -0.0200551 6.21561e-21)
(1.08953 -0.013874 4.35329e-21)
(1.06659 -0.00941246 4.12683e-21)
(1.05115 -0.00618522 1.89386e-21)
(1.04146 -0.00392271 -1.44497e-21)
(1.03464 -0.00154082 2.87873e-21)
(1.13568 -0.00393776 0)
(1.04688 -0.00722551 0)
(0.978163 -0.00634984 0)
(0.927981 -0.00482629 0)
(0.89148 -0.00345789 0)
(0.86588 -0.00240929 0)
(0.84835 -0.00164095 1.13975e-21)
(0.836529 -0.00108361 -5.93307e-36)
(0.829081 -0.000669963 7.99714e-22)
(0.823903 -0.000249749 2.40447e-21)
(2.09881 -0.0253004 8.44596e-19)
(2.0891 -0.1295 5.77324e-20)
(2.06212 -0.231479 -1.20006e-19)
(2.01784 -0.32937 -3.34661e-19)
(1.95881 -0.42055 -1.10483e-19)
(1.88225 -0.506269 -1.68305e-19)
(1.80158 -0.57508 -4.16555e-19)
(1.69121 -0.649579 1.28085e-19)
(1.61174 -0.675282 0)
(1.45915 -0.754593 4.36697e-20)
(2.01367 -0.0186802 2.2664e-19)
(2.00604 -0.0968974 -3.20284e-19)
(1.98591 -0.173917 -1.70903e-20)
(1.95108 -0.249402 -1.32408e-19)
(1.90844 -0.318578 3.31568e-20)
(1.84635 -0.390673 1.27363e-19)
(1.79111 -0.438824 -9.66477e-21)
(1.70086 -0.514625 8.06917e-20)
(1.64495 -0.524279 -1.01401e-19)
(1.53675 -0.609345 2.55757e-20)
(1.94153 -0.0139577 -1.11221e-19)
(1.93569 -0.0759315 2.17451e-19)
(1.9203 -0.13661 1.79006e-19)
(1.89225 -0.196786 -2.28782e-19)
(1.85941 -0.250491 7.33711e-20)
(1.80925 -0.310437 1.55718e-19)
(1.76599 -0.345678 -4.37616e-20)
(1.69615 -0.41276 5.5636e-20)
(1.64733 -0.419177 6.08986e-20)
(1.56798 -0.493404 8.02869e-20)
(1.88582 -0.012885 -2.15662e-19)
(1.88121 -0.0605363 1.98256e-20)
(1.86851 -0.107187 -7.16795e-20)
(1.8453 -0.154177 -5.18731e-20)
(1.81784 -0.195787 -1.94592e-20)
(1.77713 -0.244049 -9.59658e-20)
(1.73971 -0.271577 9.62599e-20)
(1.68536 -0.326708 2.23988e-20)
(1.64122 -0.333141 -7.29226e-21)
(1.58104 -0.393543 9.50506e-21)
(1.84236 -0.0110747 4.60051e-20)
(1.83858 -0.0474457 6.76612e-20)
(1.82765 -0.0830161 -4.87556e-20)
(1.8081 -0.119048 2.03904e-19)
(1.78401 -0.150984 5.81117e-22)
(1.75032 -0.188335 -1.42737e-19)
(1.71671 -0.210151 2.14651e-20)
(1.67301 -0.252919 -8.03186e-20)
(1.63322 -0.259592 9.21658e-20)
(1.58531 -0.306187 6.57188e-20)
(1.80932 -0.0105158 -1.14545e-19)
(1.80625 -0.0372575 -5.66533e-20)
(1.79653 -0.0634058 2.15961e-20)
(1.77957 -0.0899814 7.96116e-20)
(1.75772 -0.113763 8.01813e-20)
(1.72884 -0.141479 -4.11424e-20)
(1.69798 -0.158463 3.30069e-21)
(1.66108 -0.190252 3.25075e-20)
(1.62472 -0.196742 6.69418e-20)
(1.58426 -0.231489 -4.54882e-20)
(1.78497 -0.0103569 -4.19136e-20)
(1.78253 -0.0288036 -8.38446e-20)
(1.77376 -0.0467946 -7.09727e-20)
(1.75864 -0.065128 -1.27797e-19)
(1.7384 -0.0817497 6.28798e-22)
(1.71267 -0.101121 7.88534e-21)
(1.68376 -0.113593 3.35469e-20)
(1.65098 -0.13611 -2.04011e-21)
(1.61719 -0.141781 -3.34221e-20)
(1.58103 -0.166732 2.83762e-21)
(1.76337 -0.0100571 4.06672e-20)
(1.76203 -0.0210395 2.73702e-20)
(1.75468 -0.0317118 1.22408e-20)
(1.74159 -0.0425527 -2.23387e-20)
(1.72326 -0.0524415 -1.85225e-20)
(1.70024 -0.064316 1.39381e-20)
(1.67326 -0.0721618 -8.07776e-21)
(1.64321 -0.0869685 -2.07714e-20)
(1.61133 -0.09097 3.39372e-21)
(1.57772 -0.108724 3.66446e-20)
(1.69185 -0.0138711 -3.8088e-20)
(1.69126 -0.0172045 -2.01101e-21)
(1.68712 -0.0201417 5.99713e-20)
(1.67923 -0.0231172 -4.10561e-21)
(1.6672 -0.0255049 -8.86356e-21)
(1.65176 -0.0294223 7.08502e-21)
(1.63192 -0.030976 5.81861e-21)
(1.61045 -0.0377543 -1.49911e-20)
(1.58327 -0.0382756 2.11632e-20)
(1.55994 -0.0482481 7.56763e-20)
(1.18099 -0.00768802 3.59744e-20)
(1.17276 -0.00564389 2.59509e-20)
(1.16659 -0.00357099 2.28427e-20)
(1.16275 -0.00160899 3.06198e-20)
(1.16056 0.000271035 -9.80524e-21)
(1.1608 0.00173278 -8.12203e-21)
(1.15995 0.00351962 -2.03571e-21)
(1.16421 0.00332646 2.193e-21)
(1.15861 0.00565318 -3.58498e-21)
(1.17024 0.00218431 3.99142e-21)
(1.36927 0.746407 -5.3641e-20)
(1.35812 0.793489 2.50105e-20)
(1.36349 0.847211 -4.38315e-19)
(1.37391 0.907819 2.18969e-19)
(1.38419 0.972718 8.27478e-19)
(1.38986 1.03889 -1.39439e-19)
(1.37644 1.09447 -8.3231e-19)
(1.29929 1.09602 -4.21146e-20)
(1.06075 0.93836 -4.63058e-19)
(0.508675 0.468514 1.22305e-19)
(1.52493 0.716677 0)
(1.52056 0.763714 5.34917e-19)
(1.52341 0.815234 1.20054e-18)
(1.53263 0.874231 -7.2124e-19)
(1.54548 0.93871 -1.734e-18)
(1.55616 1.00513 -1.40209e-19)
(1.54653 1.06087 -1.79847e-19)
(1.46401 1.06235 6.61567e-19)
(1.19571 0.906642 9.85618e-19)
(0.57128 0.449132 4.24924e-19)
(1.662 0.687167 6.44577e-20)
(1.66902 0.732995 0)
(1.67686 0.781447 -6.70809e-20)
(1.68919 0.835928 7.34588e-19)
(1.70578 0.895899 5.31649e-20)
(1.72091 0.958404 -1.83875e-18)
(1.71388 1.01075 1.18573e-18)
(1.62454 1.01013 7.8192e-19)
(1.32534 0.858012 -8.95045e-19)
(0.629801 0.420651 -2.88754e-19)
(1.77713 0.648227 -1.12951e-19)
(1.79476 0.690602 -9.22492e-20)
(1.81161 0.734867 2.20012e-19)
(1.83143 0.784087 -2.76424e-19)
(1.85468 0.838483 -1.33835e-18)
(1.87567 0.895506 -1.0375e-18)
(1.87128 0.942532 1.1658e-18)
(1.77413 0.93834 7.81295e-19)
(1.44314 0.79125 0)
(0.679825 0.381884 0)
(1.87501 0.592238 -7.76372e-19)
(1.90142 0.630002 -1.34199e-18)
(1.92769 0.669548 -5.38014e-19)
(1.95648 0.713342 -3.49914e-20)
(1.9879 0.76179 0)
(2.0156 0.812501 1.46341e-19)
(2.0136 0.853066 1.73697e-19)
(1.90724 0.844607 2.22126e-19)
(1.54354 0.705225 -3.37279e-19)
(0.717506 0.333061 -8.53214e-20)
(1.96084 0.517317 9.2923e-19)
(1.99392 0.550168 -4.4994e-20)
(2.02818 0.584783 -1.11061e-18)
(2.06525 0.622952 0)
(2.10451 0.665008 0)
(2.13836 0.708674 0)
(2.13742 0.741984 1.48939e-18)
(2.01986 0.729278 -1.83223e-18)
(1.62233 0.601715 -1.2759e-18)
(0.740904 0.276804 6.04516e-21)
(2.03577 0.426347 -1.25968e-18)
(2.07368 0.453965 -2.6491e-18)
(2.1141 0.483102 -4.63565e-21)
(2.15786 0.515043 5.4272e-19)
(2.20355 0.550006 -4.26005e-20)
(2.24195 0.585748 1.2634e-18)
(2.23997 0.611365 -7.3744e-19)
(2.10857 0.595786 -2.30688e-18)
(1.67653 0.48465 1.75947e-19)
(0.750303 0.21593 1.31112e-19)
(2.09769 0.323404 -1.02709e-18)
(2.13914 0.345074 1.77325e-20)
(2.18413 0.367837 4.03157e-19)
(2.23288 0.392691 -3.93386e-19)
(2.28319 0.419793 6.15935e-19)
(2.32417 0.44692 1.79903e-18)
(2.31858 0.464319 -2.33882e-19)
(2.1705 0.449336 -1.33645e-18)
(1.70572 0.35968 3.46547e-19)
(0.746154 0.152971 6.46427e-20)
(2.14366 0.211814 3.90031e-19)
(2.18777 0.226924 8.80574e-20)
(2.236 0.24249 -4.33047e-19)
(2.28815 0.259476 -1.00506e-18)
(2.34131 0.277827 9.96746e-20)
(2.3826 0.29592 1.04957e-19)
(2.37056 0.306771 -1.69709e-18)
(2.20388 0.294538 7.63038e-19)
(1.7101 0.22994 2.54328e-19)
(0.728969 0.0907713 -1.96538e-19)
(2.17199 0.0942226 7.79361e-19)
(2.21777 0.102011 -1.18972e-18)
(2.2678 0.109881 1.93338e-19)
(2.32176 0.118437 2.52184e-18)
(2.37589 0.127785 1.33133e-18)
(2.41518 0.13709 -3.0789e-18)
(2.39439 0.142475 -3.31926e-18)
(2.20879 0.135304 1.76318e-18)
(1.68974 0.0998724 8.877e-22)
(0.699796 0.0318049 2.89519e-20)
(0.519863 0.200716 -1.90971e-19)
(0.484778 0.207597 -1.71587e-19)
(0.442081 0.215088 1.01237e-19)
(0.393822 0.223178 -3.35291e-19)
(0.340822 0.231878 -4.50861e-20)
(0.282458 0.241006 2.81248e-19)
(0.217587 0.24887 7.79601e-20)
(0.146068 0.247986 -4.77932e-20)
(0.0742075 0.21713 -6.28082e-21)
(0.0130291 0.115926 2.38484e-20)
(0.546973 0.300891 1.54358e-19)
(0.512678 0.314413 2.204e-19)
(0.471315 0.329399 3.5268e-20)
(0.424643 0.345656 -9.39431e-20)
(0.373366 0.3631 -3.14646e-19)
(0.316824 0.381403 1.67881e-20)
(0.253558 0.397651 1.81342e-19)
(0.182214 0.399019 2.59695e-21)
(0.106118 0.349871 -5.00943e-20)
(0.0301356 0.185478 -1.57119e-20)
(0.591199 0.396819 -1.66645e-19)
(0.55831 0.416767 -1.76764e-19)
(0.51925 0.438877 1.52956e-19)
(0.475276 0.462879 1.39776e-19)
(0.426894 0.488626 -6.26453e-20)
(0.373383 0.51564 -1.15323e-19)
(0.312752 0.539801 -8.59462e-20)
(0.241581 0.543119 1.75847e-20)
(0.158216 0.476108 -3.46835e-20)
(0.0577361 0.251163 5.25252e-21)
(0.651516 0.486353 9.01796e-20)
(0.62061 0.51241 -7.06343e-21)
(0.584742 0.541096 -1.246e-19)
(0.5445 0.57222 7.28274e-20)
(0.500115 0.605627 -8.90205e-20)
(0.450779 0.640682 3.29603e-20)
(0.39377 0.672082 -1.31256e-19)
(0.322779 0.676938 -3.95703e-20)
(0.229146 0.592822 -2.19139e-19)
(0.0949589 0.311255 4.96405e-20)
(0.726417 0.567541 -2.77106e-20)
(0.698034 0.599263 -9.55191e-21)
(0.666207 0.633833 -4.25799e-20)
(0.63072 0.671303 -1.56357e-19)
(0.591428 0.711565 6.90396e-20)
(0.54738 0.753814 -7.56989e-20)
(0.494922 0.791595 1.4508e-19)
(0.424123 0.797459 -1.8875e-20)
(0.31721 0.697286 2.84631e-19)
(0.140745 0.364295 2.18361e-19)
(0.813752 0.63886 -2.43699e-21)
(0.788265 0.675515 -6.54651e-20)
(0.761101 0.714895 1.4977e-19)
(0.73116 0.757598 8.76162e-20)
(0.6979 0.803665 2.02249e-19)
(0.660171 0.852067 1.07261e-19)
(0.613156 0.895164 3.97598e-19)
(0.542585 0.901291 1.89378e-19)
(0.419864 0.786212 1.68759e-19)
(0.193689 0.408464 1.91741e-19)
(0.911786 0.697424 -9.30434e-20)
(0.890357 0.738367 2.82379e-19)
(0.869259 0.781731 1.69687e-19)
(0.846168 0.828656 -1.84158e-19)
(0.819953 0.879414 -1.01739e-19)
(0.789257 0.932848 4.57421e-19)
(0.748017 0.980263 -9.5671e-20)
(0.677094 0.986227 -2.95941e-19)
(0.535652 0.857895 -4.93606e-20)
(0.252621 0.442802 2.11061e-19)
(1.01125 0.745438 1.59612e-19)
(0.99288 0.788938 5.26819e-20)
(0.978168 0.834431 -5.37874e-19)
(0.96339 0.884219 5.66499e-20)
(0.946406 0.938499 3.36017e-19)
(0.925088 0.9956 -2.45396e-19)
(0.891517 1.04565 -5.45374e-20)
(0.820899 1.05002 -1.3247e-19)
(0.659173 0.909579 1.40783e-20)
(0.314739 0.46575 -2.81285e-19)
(1.12929 0.766631 2.21588e-20)
(1.11841 0.813286 -3.62453e-19)
(1.11092 0.860501 -2.84662e-21)
(1.10263 0.912318 3.01608e-19)
(1.0921 0.96975 -3.00429e-19)
(1.07757 1.03073 6.23446e-19)
(1.04954 1.0841 4.52875e-19)
(0.976934 1.08842 -7.37225e-19)
(0.791224 0.939953 -4.87625e-20)
(0.379647 0.477576 -2.99124e-19)
(1.20993 0.783263 -2.0669e-19)
(1.21112 0.830944 -2.08364e-19)
(1.22129 0.879637 2.31712e-19)
(1.22953 0.932587 5.12029e-19)
(1.233 0.990488 2.0712e-19)
(1.23017 1.05159 -5.24749e-19)
(1.21032 1.10443 3.16328e-20)
(1.13635 1.106 1.6243e-19)
(0.92544 0.950459 -2.3811e-19)
(0.44464 0.478588 -2.16871e-19)
(0.769166 0.0217512 1.09195e-20)
(1.17263 0.0397279 -1.87962e-20)
(0.923339 0.0464538 -9.32297e-21)
(1.0221 0.0497369 0)
(0.99403 0.0571097 1.88924e-20)
(0.972556 0.0678435 2.39651e-20)
(0.947981 0.0825088 3.0815e-20)
(0.898812 0.101771 6.29861e-20)
(0.833837 0.128596 -9.24464e-20)
(0.664064 0.165174 -1.04744e-19)
(0.768733 0.0190983 3.69366e-20)
(1.17261 0.0394386 -6.2985e-20)
(0.923823 0.0485747 -6.29774e-22)
(1.02382 0.0513877 -1.25496e-20)
(0.996657 0.0607045 9.70089e-21)
(0.976451 0.0738594 -1.22198e-20)
(0.953163 0.0930677 -7.67154e-20)
(0.90666 0.119261 0)
(0.843422 0.16452 2.0073e-19)
(0.685899 0.229211 -2.46024e-19)
(0.768092 0.0165508 -4.54379e-20)
(1.17279 0.0390257 1.74966e-20)
(0.924207 0.0504568 3.26623e-20)
(1.02598 0.0528149 1.43081e-20)
(0.999637 0.0640939 -2.34592e-20)
(0.98105 0.0797032 5.99981e-22)
(0.959409 0.103418 -5.47045e-20)
(0.917334 0.136675 -4.93619e-21)
(0.856676 0.199924 2.63477e-22)
(0.720598 0.291041 6.13041e-19)
(0.767241 0.0142071 -1.55933e-20)
(1.17312 0.0384927 3.27842e-21)
(0.924503 0.0520527 2.73556e-20)
(1.02858 0.0540117 1.60239e-20)
(1.00298 0.0672586 -1.10605e-20)
(0.986353 0.0853336 -1.39683e-20)
(0.966801 0.113464 8.18805e-20)
(0.930737 0.153887 -1.45525e-21)
(0.873748 0.234401 -2.46275e-19)
(0.76752 0.349515 6.56502e-20)
(0.766174 0.0121227 1.21294e-20)
(1.17352 0.0378227 -3.50796e-20)
(0.924729 0.0533114 -2.11797e-20)
(1.03165 0.0549742 7.82019e-21)
(1.0067 0.0701814 0)
(0.992351 0.0907134 0)
(0.975428 0.123137 6.99955e-20)
(0.946712 0.170756 2.61008e-22)
(0.894889 0.267239 -1.17978e-19)
(0.825797 0.403874 8.95266e-20)
(0.764888 0.0103597 9.04638e-22)
(1.17393 0.0369898 2.92001e-20)
(0.924912 0.0541807 -4.82514e-20)
(1.03517 0.0557035 -3.04649e-20)
(1.01079 0.0728468 6.60948e-23)
(0.999037 0.0958109 5.75756e-20)
(0.985373 0.132409 1.09371e-19)
(0.965008 0.187143 -7.36865e-22)
(0.920512 0.297533 1.95314e-19)
(0.894306 0.454215 -1.97446e-19)
(0.763376 0.00900113 -2.30763e-20)
(1.17423 0.0359572 1.54124e-20)
(0.925091 0.0546091 -9.10922e-21)
(1.03918 0.0562067 -5.33477e-20)
(1.01523 0.0752375 1.04609e-22)
(1.00641 0.100596 -1.13254e-21)
(0.996691 0.141239 -6.53158e-21)
(0.985307 0.203007 -1.94774e-19)
(0.951206 0.324091 1.47236e-19)
(0.970757 0.498753 -4.62446e-19)
(0.761622 0.00813334 5.96071e-21)
(1.17435 0.0346609 -4.49053e-20)
(0.925315 0.0545462 2.12099e-20)
(1.04365 0.0564957 3.81961e-20)
(1.02002 0.0773282 1.55403e-22)
(1.01448 0.105029 -6.74548e-20)
(1.00943 0.1495 -6.01731e-20)
(1.0073 0.218421 3.50871e-19)
(0.987434 0.34739 1.13585e-20)
(1.05354 0.544236 7.43996e-19)
(0.759603 0.00782924 1.95074e-21)
(1.17429 0.0330321 1.99083e-20)
(0.925662 0.0539197 1.52076e-20)
(1.04861 0.0565825 -4.02257e-20)
(1.02511 0.0790857 -6.98306e-20)
(1.02317 0.109019 1.45134e-21)
(1.02351 0.156746 -8.27991e-20)
(1.03099 0.231422 4.55881e-19)
(1.03233 0.360615 -7.27129e-21)
(1.13574 0.568753 -1.01353e-18)
(0.757299 0.00832321 4.68814e-21)
(1.17482 0.0313205 2.98096e-20)
(0.926019 0.0527175 1.12241e-20)
(1.05409 0.0565321 -8.64846e-20)
(1.0302 0.080699 -6.63538e-20)
(1.0315 0.113324 -5.73963e-20)
(1.03617 0.165757 -1.48377e-19)
(1.05 0.249528 -4.25217e-19)
(1.0717 0.386218 -2.4549e-19)
(1.22513 0.627029 -1.09978e-18)
(0.755868 0.00813013 -1.31947e-20)
(1.17765 0.0286504 -6.2272e-21)
(0.92751 0.0497462 -1.02961e-20)
(1.06033 0.0553632 1.16509e-20)
(1.03916 0.0796959 5.01313e-20)
(1.04613 0.113082 -3.97689e-20)
(1.06 0.16558 1.32783e-19)
(1.08779 0.247364 -4.18565e-19)
(1.13958 0.365284 -1.77458e-19)
(1.24811 0.614839 5.81139e-19)
(0.756157 0.00561687 9.79982e-21)
(1.18164 0.025093 1.20811e-20)
(0.931876 0.0443944 -1.24111e-21)
(1.06593 0.0522938 4.38407e-20)
(1.04972 0.0754479 7.86258e-20)
(1.06193 0.107753 1.16266e-19)
(1.08409 0.156956 2.7935e-20)
(1.12541 0.231014 2.18853e-19)
(1.19151 0.333759 2.83481e-19)
(1.31947 0.527718 -3.22454e-21)
(0.75627 0.00252767 -1.34019e-20)
(1.18599 0.021077 -3.62297e-21)
(0.936646 0.0388694 -3.41171e-21)
(1.07165 0.0481261 1.41237e-20)
(1.05989 0.0698014 2.18339e-34)
(1.07676 0.100052 -8.00805e-21)
(1.10582 0.144729 -5.33364e-34)
(1.15805 0.210089 1.86287e-20)
(1.22937 0.293651 -5.32708e-20)
(1.38005 0.451339 -4.7133e-20)
(0.75646 -0.00146818 2.86944e-20)
(1.19042 0.0163408 -3.94016e-35)
(0.941453 0.0330357 3.09933e-21)
(1.07726 0.0429502 -1.71298e-20)
(1.06929 0.0628051 -3.15248e-20)
(1.09019 0.0902602 -3.89812e-20)
(1.12496 0.129588 -6.5962e-34)
(1.18518 0.185945 -9.3872e-20)
(1.25954 0.251715 -1.32256e-19)
(1.42068 0.376115 8.61691e-20)
(0.756809 -0.00656299 0)
(1.19509 0.0109441 1.30253e-35)
(0.946241 0.0269429 0)
(1.08257 0.0369462 0)
(1.07772 0.0546252 0)
(1.10196 0.0786971 0)
(1.14138 0.112167 -3.94076e-34)
(1.20695 0.159376 0)
(1.28386 0.209515 -2.01485e-20)
(1.44465 0.304923 5.22521e-20)
(0.757392 -0.0127536 1.49395e-20)
(1.2003 0.00500431 -1.80026e-21)
(0.951016 0.0207436 2.40558e-21)
(1.08743 0.0303201 0)
(1.08503 0.0454679 0)
(1.11191 0.0657104 6.76613e-21)
(1.15498 0.0930622 2.75467e-20)
(1.22389 0.131081 -1.39044e-20)
(1.30291 0.168096 -2.97587e-20)
(1.45765 0.238331 1.97956e-19)
(0.758302 -0.0209621 -5.83653e-20)
(1.2063 -0.00166704 3.86249e-21)
(0.955771 0.0145604 2.05265e-21)
(1.09165 0.0232821 -5.55772e-21)
(1.09105 0.0355445 -1.08713e-20)
(1.11991 0.0516273 -8.72751e-21)
(1.16572 0.0727422 -2.07266e-20)
(1.23655 0.101674 -3.88507e-20)
(1.31704 0.127854 -5.31318e-20)
(1.46414 0.176445 7.78274e-20)
(0.759468 -0.0270367 -2.1522e-20)
(1.2132 -0.00781428 -1.4032e-20)
(0.960141 0.00947736 1.61078e-21)
(1.09464 0.0160922 -1.08067e-20)
(1.0952 0.0250295 4.36891e-35)
(1.12548 0.0367152 7.29238e-21)
(1.17322 0.0515115 -9.47227e-34)
(1.24515 0.071481 -1.40883e-20)
(1.32637 0.0885573 1.85863e-20)
(1.46701 0.117783 2.5839e-20)
(0.75781 -0.0478993 1.73181e-19)
(1.20634 -0.0171075 -9.72805e-21)
(0.95133 0.00228989 1.47359e-21)
(1.08395 0.00979783 2.97634e-21)
(1.08522 0.0146894 3.30253e-21)
(1.11653 0.0220964 1.37607e-20)
(1.16558 0.0309101 7.7974e-21)
(1.23824 0.0427275 -5.13594e-21)
(1.31918 0.0521772 -2.12408e-20)
(1.45784 0.0666961 1.37725e-19)
(0.690879 -0.0311206 1.92288e-20)
(0.996868 -0.015099 -7.15445e-35)
(0.753327 0.00210912 6.5102e-22)
(0.8755 0.00076387 0)
(0.869929 0.00296724 0)
(0.897419 0.00450371 7.52417e-21)
(0.940093 0.00619479 -9.01745e-36)
(1.00178 0.00878038 -1.39927e-20)
(1.07219 0.0103959 -2.71423e-20)
(1.182 0.0126521 5.61719e-20)
(1.45343 0.633773 -1.70279e-19)
(1.55022 0.616629 -2.75564e-19)
(1.65225 0.5946 0)
(1.74532 0.562527 1.01876e-19)
(1.82787 0.514472 4.93452e-19)
(1.90243 0.448594 -1.29465e-19)
(1.96902 0.367853 1.45289e-18)
(2.02444 0.277044 -6.69511e-20)
(2.06572 0.179463 -3.47054e-19)
(2.09081 0.0787768 3.19289e-19)
(1.49792 0.515277 6.8048e-20)
(1.56695 0.501964 1.0909e-19)
(1.64557 0.479414 -5.56356e-21)
(1.72338 0.445708 1.71615e-19)
(1.79396 0.400677 -1.49348e-19)
(1.85648 0.345149 -3.69876e-19)
(1.91094 0.280985 -9.69104e-20)
(1.95549 0.210616 5.15136e-19)
(1.98819 0.136289 -2.03748e-20)
(2.00757 0.0595084 -4.36915e-19)