/*--------------------------------*- C++ -*----------------------------------*\
  =========                 |
  \\      /  F ield         | OpenFOAM: The Open Source CFD Toolbox
   \\    /   O peration     | Website:  https://openfoam.org
    \\  /    A nd           | Version:  13
     \\/     M anipulation  |
\*---------------------------------------------------------------------------*/
FoamFile
{
    format      ascii;
    class       surfaceScalarField;
    location    "0.82";
    object      phi;
}
// * * * * * * * * * * * * * * * * * * * * * * * * * * * * * * * * * * * * * //

dimensions      [0 3 -1 0 0 0 0];

internalField   nonuniform List<scalar> 
3485
(
0.00137167
-0.011258
0.00988631
0.00505115
-0.0319067
0.0282273
0.0107642
-0.0513829
0.0456699
0.0183125
-0.0696769
0.0621286
0.0275453
-0.0868351
0.0776023
0.0383483
-0.102901
0.0920982
0.0506328
-0.117906
0.105622
0.0643559
-0.131871
0.118148
0.079615
-0.144862
0.129603
-0.156896
0.139505
0.0970059
0.00150033
-0.0127583
0.00544582
-0.0358522
0.0114762
-0.0574132
0.0193235
-0.0775243
0.0287727
-0.0962843
0.0396465
-0.113775
0.0518006
-0.130061
0.0651271
-0.145197
0.0795344
-0.159269
-0.172198
0.0948365
0.00147418
-0.0142325
0.00532698
-0.039705
0.0111745
-0.0632607
0.0187208
-0.0850706
0.0277252
-0.105289
0.0379883
-0.124038
0.0493441
-0.141416
0.0616531
-0.157506
0.0747831
-0.172399
-0.186037
0.0886227
0.00133886
-0.0155714
0.00485903
-0.0432252
0.0102108
-0.0686125
0.017117
-0.0919768
0.0253538
-0.113525
0.0347401
-0.133424
0.0451299
-0.151806
0.0564032
-0.16878
0.0684534
-0.184449
-0.198791
0.0812068
0.00116693
-0.0167383
0.00425599
-0.0463142
0.00897313
-0.0733297
0.0150817
-0.0980853
0.0223916
-0.120835
0.0307522
-0.141785
0.0400458
-0.1611
0.0501798
-0.178914
0.0610764
-0.195346
-0.210402
0.0726879
0.000980023
-0.0177183
0.00358795
-0.0489222
0.00758659
-0.0773283
0.0127839
-0.103283
0.019026
-0.127078
0.0261924
-0.148951
0.0341912
-0.169099
0.042953
-0.187676
0.0524229
-0.204816
-0.220549
0.0625697
0.000780725
-0.018499
0.002865
-0.0510064
0.00606896
-0.0805323
0.0102428
-0.107456
0.0152665
-0.132101
0.0210466
-0.154732
0.0275141
-0.175566
0.0346202
-0.194782
0.0423309
-0.212526
-0.228851
0.0506324
0.000569701
-0.0190687
0.00209345
-0.0525302
0.00443786
-0.0828767
0.00749265
-0.110511
0.0111686
-0.135777
0.0153967
-0.15896
0.0201274
-0.180297
0.0253293
-0.199984
0.0309863
-0.218183
-0.234967
0.0371028
0.000352505
-0.0194212
0.00129575
-0.0534734
0.002745
-0.0843259
0.00462831
-0.112395
0.00688643
-0.138035
0.00947303
-0.161546
0.0123552
-0.183179
0.0155142
-0.203143
0.0189447
-0.221614
-0.238684
0.0226614
0.000137793
-0.019559
0.000502456
-0.0538381
0.00105695
-0.0848804
0.00176952
-0.113107
0.00261369
-0.138879
0.00356837
-0.162501
0.00461806
-0.184229
0.00575326
-0.204278
0.00697052
-0.222831
0.00827491
-0.239988
0.00048783
-0.00186886
0.00138103
0.00208739
-0.00625522
0.00465566
0.00542891
-0.011425
0.00808344
0.0101174
-0.0162003
0.0115118
0.0155421
-0.0201933
0.0147686
0.0214395
-0.0235889
0.0176915
0.0279059
-0.0267698
0.0203034
0.0350897
-0.0299646
0.0227808
0.0429757
-0.0331253
0.0252393
-0.0360995
0.05143
0.0276452
0.000426903
-0.00229576
0.0021107
-0.00793902
0.00543797
-0.0147522
0.00981477
-0.0205771
0.0148862
-0.0252647
0.020762
-0.0294647
0.0276153
-0.0336231
0.0353942
-0.0377435
0.043887
-0.0416181
-0.0451411
0.0529286
0.000682815
-0.00297858
0.00271665
-0.00997285
0.00577988
-0.0178155
0.00976165
-0.0245589
0.014815
-0.030318
0.0211128
-0.0357625
0.0285858
-0.0410961
0.0369541
-0.0461119
0.0459989
-0.0506628
-0.0547713
0.055629
0.000868549
-0.00384713
0.00306133
-0.0121656
0.00607903
-0.0208332
0.0102003
-0.0286802
0.0156984
-0.0358161
0.0225564
-0.0426205
0.0305321
-0.0490718
0.0393885
-0.0549683
0.0490306
-0.0603049
-0.0651172
0.0593765
0.000923287
-0.00477041
0.00320096
-0.0144433
0.00651916
-0.0241514
0.011117
-0.033278
0.0171351
-0.0418342
0.0244483
-0.0499337
0.0328645
-0.057488
0.0422864
-0.0643902
0.052651
-0.0706696
-0.0762922
0.0638261
0.000944064
-0.00571448
0.003373
-0.0168722
0.00709155
-0.02787
0.0121745
-0.0383609
0.0186329
-0.0482926
0.0263553
-0.0576562
0.0352448
-0.0663774
0.0452541
-0.0743995
0.056305
-0.0817204
-0.0882266
0.0682393
0.000980079
-0.00669456
0.00358424
-0.0194764
0.00764144
-0.0319271
0.013107
-0.0438265
0.0199255
-0.0551111
0.0280104
-0.0657411
0.0372996
-0.0756667
0.0477472
-0.0848471
0.0592801
-0.0932533
-0.1007
0.0717535
0.00101809
-0.00771264
0.0037679
-0.0222262
0.00807121
-0.0362305
0.0138198
-0.0495751
0.0209192
-0.0622105
0.0292804
-0.0741023
0.0388339
-0.0852201
0.0495229
-0.0955361
0.061289
-0.105019
-0.113443
0.074032
0.00105468
-0.00876732
0.00393682
-0.0251084
0.00846105
-0.0407547
0.014482
-0.055596
0.0218735
-0.069602
0.0305252
-0.082754
0.0403417
-0.0950367
0.0512343
-0.106429
0.063122
-0.116907
-0.126321
0.076
0.00111899
0.00423789
0.00915308
0.0156857
0.023686
0.0330303
0.0436155
0.0553347
0.0680301
0.0812137
0.114333
-0.41459
0.351687
0.16814
-0.471877
0.41807
0.210283
-0.422009
0.379866
0.24416
-0.326761
0.292884
0.270958
-0.21441
0.187612
0.291536
-0.109933
0.0893555
0.304943
-0.0310883
0.0176808
0.309972
0.0118271
-0.0168559
0.310353
0.0251325
-0.0255132
0.0203468
-0.0190399
0.115912
-0.477574
0.169698
-0.525662
0.211812
-0.464123
0.245431
-0.360379
0.272377
-0.241357
0.293748
-0.131303
0.309888
-0.0472287
0.318828
0.00288707
0.322358
0.0216022
0.0200308
0.11772
-0.539665
0.170521
-0.578464
0.212227
-0.505829
0.245231
-0.393383
0.27204
-0.268166
0.293717
-0.15298
0.311395
-0.0649072
0.323727
-0.00944467
0.331534
0.0137953
0.0169216
0.1201
-0.600389
0.170888
-0.629251
0.211709
-0.54665
0.243791
-0.425466
0.270193
-0.294568
0.291932
-0.174719
0.310387
-0.0833619
0.324448
-0.0235061
0.336453
0.00179034
0.00907283
0.122999
-0.659561
0.171
-0.677252
0.210387
-0.586037
0.241299
-0.456378
0.26703
-0.320298
0.288692
-0.196381
0.307634
-0.102304
0.322529
-0.0384014
0.33723
-0.0129099
-0.00308534
0.125857
-0.717179
0.170885
-0.722281
0.208344
-0.623496
0.237896
-0.48593
0.262701
-0.345103
0.284178
-0.217858
0.303446
-0.121573
0.319172
-0.0541271
0.334222
-0.0279605
-0.0152481
0.127797
-0.773222
0.170359
-0.764843
0.205628
-0.658765
0.233695
-0.513997
0.25735
-0.368758
0.278497
-0.239006
0.297985
-0.14106
0.314797
-0.0709388
0.32846
-0.0416235
-0.0241276
0.127879
-0.827069
0.168938
-0.805903
0.2021
-0.691927
0.228665
-0.540562
0.251025
-0.391118
0.271648
-0.259628
0.291478
-0.16089
0.308249
-0.08771
0.319041
-0.0524157
-0.0305329
0.125801
-0.87687
0.166214
-0.846316
0.19771
-0.723422
0.222892
-0.565745
0.243851
-0.412077
0.263621
-0.279399
0.283307
-0.180575
0.297866
-0.102269
0.305416
-0.0599656
-0.0367884
0.122118
-0.917774
0.161388
-0.885586
0.191583
-0.753617
0.215669
-0.589831
0.235317
-0.431725
0.254378
-0.29846
0.271186
-0.197384
0.282729
-0.113812
0.290036
-0.0672731
-0.0434445
0.583953
-0.92025
-0.581476
0.561182
-0.862815
0.523946
-0.716382
0.487863
-0.553747
0.460494
-0.404357
0.44399
-0.281955
0.432442
-0.185836
0.42652
-0.10789
0.423264
-0.0640173
-0.041935
0.682868
-0.871657
-0.731461
0.619677
-0.799624
0.553859
-0.650563
0.496272
-0.49616
0.450666
-0.35875
0.418707
-0.249996
0.399
-0.166129
0.38991
-0.0987995
0.38482
-0.0589275
-0.0388769
0.753986
-0.775215
-0.850428
0.655081
-0.700719
0.563353
-0.558834
0.487244
-0.420052
0.42926
-0.300766
0.38903
-0.209766
0.36385
-0.140949
0.351217
-0.086167
0.344345
-0.0520554
-0.0345628
0.77897
-0.641705
-0.912481
0.6537
-0.57545
0.546194
-0.451328
0.46089
-0.334749
0.397856
-0.237732
0.354064
-0.165975
0.325888
-0.112773
0.310676
-0.0709551
0.302246
-0.0436249
-0.0292619
0.752965
-0.492443
-0.902227
0.617534
-0.440019
0.506134
-0.339928
0.42002
-0.248634
0.357398
-0.175111
0.313813
-0.122389
0.28509
-0.08405
0.268483
-0.054348
0.258921
-0.0340636
-0.0232625
0.685097
-0.34584
-0.8317
0.552688
-0.30761
0.446429
-0.233669
0.365955
-0.16816
0.308211
-0.117366
0.267996
-0.0821746
0.240974
-0.0570285
0.224463
-0.0378364
0.2145
-0.0241013
-0.0169594
0.582616
-0.213863
-0.714592
0.462884
-0.187878
0.369307
-0.140092
0.299926
-0.0987791
0.250865
-0.0683048
0.216693
-0.0480032
0.19334
-0.0336752
0.178413
-0.022909
0.168997
-0.0146852
-0.0108605
0.448758
-0.105525
-0.557096
0.351176
-0.0902971
0.277053
-0.0659682
0.223521
-0.0452474
0.18625
-0.0310338
0.160246
-0.0219986
0.142181
-0.0156105
0.130192
-0.0109197
0.122374
-0.00686778
-0.00555855
0.286591
-0.0302209
-0.361894
0.220909
-0.0246156
0.172488
-0.0175469
0.13871
-0.0114696
0.115473
-0.00779669
0.0991086
-0.00563441
0.0875578
-0.00405974
0.0796281
-0.00298999
0.0744897
-0.00172939
-0.00171079
0.101315
-0.131536
0.0766999
0.059153
0.0476834
0.0398868
0.0342523
0.0301926
0.0272026
0.0254732
0.73882
0.0102223
-0.740768
0.733075
0.0284073
0.723436
0.0467416
0.710163
0.0639054
0.69357
0.0791626
0.674076
0.0921814
0.652273
0.10301
0.628713
0.112183
0.604269
0.119281
0.119798
0.845548
0.0133981
-0.848724
0.837321
0.0366345
0.827288
0.056775
0.816593
0.0745997
0.805251
0.0905054
0.792896
0.104536
0.779283
0.116624
0.764587
0.126878
0.749123
0.134745
0.13746
0.844982
0.0114254
-0.843009
0.848882
0.0327349
0.853019
0.0526379
0.85647
0.0711483
0.858832
0.088144
0.859919
0.103448
0.859594
0.116948
0.857966
0.128506
0.8553
0.137412
0.142332
0.800213
0.00930446
-0.798092
0.80582
0.0271271
0.814418
0.0440405
0.825636
0.0599303
0.839
0.0747794
0.853849
0.0886
0.869418
0.101379
0.885051
0.112873
0.899937
0.122526
0.129787
0.737866
0.00703875
-0.7356
0.744154
0.0208384
0.754123
0.0340715
0.767503
0.0465502
0.784083
0.0581999
0.80366
0.0690224
0.825988
0.0790511
0.850621
0.0882396
0.876542
0.0966062
0.104102
0.653921
0.00485398
-0.651736
0.660203
0.0145561
0.670378
0.0238963
0.684221
0.0327074
0.701525
0.040896
0.722111
0.0484359
0.745806
0.0553568
0.772329
0.061716
0.801217
0.0677188
0.0736189
0.549112
0.00291609
-0.547174
0.554812
0.0088559
0.564138
0.0145706
0.576905
0.01994
0.592915
0.0248867
0.611968
0.0293826
0.633871
0.033454
0.658407
0.0371801
0.685379
0.0407461
0.0444059
0.422793
0.00137572
-0.421252
0.427413
0.00423595
0.435008
0.00697561
0.445422
0.00952586
0.45847
0.0118387
0.473957
0.0138957
0.491697
0.0157138
0.511527
0.0173497
0.533346
0.0189271
0.0206561
0.273828
0.000366659
-0.272819
0.276915
0.00114944
0.281999
0.00189174
0.288955
0.00256941
0.29763
0.00316447
0.307856
0.00366914
0.319482
0.00408805
0.332395
0.00443667
0.346561
0.00476039
0.0053232
0.100484
-0.100117
0.101633
0.103525
0.106094
0.109259
0.112928
0.117016
0.121453
0.126213
0.07793
0.159504
-0.142491
-0.0949428
0.0630264
0.14746
-0.132557
0.0496175
0.134406
-0.120997
0.0376027
0.120332
-0.108317
0.0270261
0.105171
-0.0945939
0.0179776
0.0888943
-0.0798458
0.0105727
0.0714605
-0.0640557
0.00496324
0.0528094
-0.0471999
0.001348
0.0328743
-0.0292591
0.011639
-0.010291
0.0779398
0.174433
-0.0928695
0.0638705
0.161529
0.0508393
0.147437
0.0389378
0.132234
0.0282759
0.115832
0.0190002
0.0981701
0.0112895
0.0791712
0.00535957
0.0587394
0.00147721
0.0367567
0.0131162
0.073179
0.187928
-0.0866736
0.0603698
0.174339
0.0483502
0.159457
0.0372486
0.143335
0.0272031
0.125878
0.0183793
0.106994
0.0109766
0.0865738
0.00523535
0.0644806
0.00144963
0.0405424
0.0145658
0.0667707
0.200353
-0.0791956
0.055033
0.186077
0.0440493
0.17044
0.0339217
0.153463
0.0247665
0.135033
0.016727
0.115033
0.00998166
0.0933191
0.00475147
0.0697108
0.00130965
0.0439842
0.0158755
0.0593123
0.211657
-0.0706161
0.0487153
0.196674
0.0388674
0.180288
0.0298411
0.162489
0.0217243
0.14315
0.0146296
0.122128
0.00870233
0.0992463
0.00412644
0.0742867
0.00113097
0.0469797
0.0170064
0.050598
0.221521
-0.060462
0.041411
0.205861
0.0329275
0.188772
0.0251972
0.170219
0.0182837
0.150064
0.0122721
0.12814
0.00727495
0.104243
0.00343653
0.0781251
0.000937283
0.0494789
0.0179437
0.0404572
0.229564
-0.0485002
0.0330127
0.213305
0.0261764
0.195608
0.0199773
0.176418
0.0144573
0.155583
0.00967743
0.13292
0.00572043
0.1082
0.00269376
0.0811518
0.000731838
0.0514408
0.0186755
0.0290541
0.235441
-0.0349317
0.0236512
0.218708
0.0187146
0.200544
0.0142551
0.180878
0.0102962
0.159542
0.00687751
0.136338
0.0040556
0.111022
0.00190427
0.0833031
0.000515282
0.0528298
0.0191908
0.0169174
0.238926
-0.0204019
0.0137418
0.221884
0.0108549
0.203431
0.0082548
0.183478
0.00595147
0.161846
0.00396649
0.138323
0.00233218
0.112657
0.00109066
0.0845446
0.000293241
0.0536272
0.0194841
0.00482784
-0.00589044
0.00388043
0.00303403
0.00228341
0.00162817
0.00107201
0.00062162
0.000285829
7.49716e-05
0.0436691
0.0414115
-0.0525678
-0.0325128
0.0352902
0.0383621
-0.0299832
0.0276181
0.034962
-0.0272898
0.0208798
0.0313461
-0.0246079
0.0150783
0.0277777
-0.0219762
0.00997204
0.0242189
-0.0191126
0.00544236
0.0200826
-0.0155529
0.00197607
0.0144701
-0.0110038
0.000386783
0.00739854
-0.00580925
0.00208885
-0.00170206
0.0437646
0.0505848
-0.052938
0.0351107
0.0470161
0.0270671
0.0430056
0.0199165
0.0384967
0.0139761
0.0337181
0.00925367
0.0289414
0.00550433
0.0238319
0.00257615
0.0173982
0.000621831
0.00935286
0.00271068
0.0449402
0.0601434
-0.0544988
0.0360148
0.0559414
0.0277738
0.0512466
0.0203336
0.0459369
0.01402
0.0400316
0.00909827
0.0338631
0.00551466
0.0274156
0.00289206
0.0200209
0.000809537
0.0114354
0.00352022
0.0473638
0.0703309
-0.0575513
0.0379273
0.0653779
0.0293568
0.0598171
0.0216901
0.0536036
0.0150522
0.0466695
0.00970216
0.0392132
0.00576185
0.0313559
0.00295874
0.022824
0.000874947
0.0135192
0.00439517
0.0508292
0.0812573
-0.0617557
0.0407254
0.0754817
0.0316081
0.0689343
0.0235399
0.0616719
0.0165435
0.0536658
0.0107457
0.045011
0.00628173
0.0358199
0.00306132
0.0260444
0.000880299
0.0157002
0.00527547
0.0545272
0.0928543
-0.0661242
0.0438061
0.0862028
0.034124
0.0786165
0.0255558
0.0702401
0.0181232
0.0610984
0.0118824
0.0512518
0.00692835
0.0407739
0.00327841
0.0296943
0.000908478
0.0180701
0.00618394
0.0575818
0.104936
-0.0696634
0.0464224
0.0973623
0.0363194
0.0887194
0.0273331
0.0792265
0.0194992
0.0689323
0.0128682
0.0578828
0.00751977
0.0461224
0.00352512
0.033689
0.000959583
0.0206357
0.00714353
0.0596392
0.117263
-0.0719661
0.048262
0.108739
0.0379199
0.0990616
0.0286579
0.0884884
0.0205278
0.0770624
0.0135986
0.064812
0.00796147
0.0517595
0.00372174
0.0379287
0.00100529
0.0233521
0.00814882
0.0614534
0.129717
-0.0739071
0.0499559
0.120237
0.0394069
0.109611
0.029878
0.0980174
0.0214553
0.0854851
0.014236
0.0720313
0.00833445
0.057661
0.00388453
0.0423786
0.0010419
0.0261948
0.00919071
0.0663098
-0.0790843
0.0539902
0.0426039
0.0323039
0.0231951
0.0153805
0.00898591
0.00416458
0.00110025
0.213796
0.0619829
-0.0777887
0.236482
0.0902377
-0.112924
0.261023
0.123725
-0.148266
0.277014
0.112486
-0.128477
0.276184
0.10957
-0.10874
0.253184
0.178661
-0.155661
0.218945
0.293648
-0.25941
0.174869
0.412552
-0.368475
0.118429
0.494679
-0.43824
0.46171
-0.395849
0.213149
0.0468236
0.234734
0.0686525
0.258368
0.100091
0.274978
0.0958768
0.275761
0.108787
0.253568
0.200854
0.219156
0.32806
0.174624
0.457084
0.118095
0.551208
0.526867
0.212906
0.0319071
0.233638
0.0479207
0.256412
0.0773176
0.273024
0.0792642
0.274133
0.107678
0.252374
0.222613
0.217919
0.362516
0.17332
0.501683
0.117883
0.606646
0.590251
0.212996
0.0169014
0.233195
0.0277212
0.255221
0.0552921
0.271384
0.0631003
0.271619
0.107443
0.249737
0.244495
0.215391
0.396862
0.171345
0.545728
0.118382
0.659609
0.651082
0.213296
0.00159547
0.233258
0.00775908
0.25459
0.0339598
0.269685
0.0480057
0.268125
0.109002
0.245723
0.266898
0.21177
0.430815
0.169118
0.58838
0.119726
0.709001
0.709052
0.213663
-0.0140781
0.233608
-0.0121858
0.254201
0.0133674
0.267567
0.0346391
0.263543
0.113027
0.24044
0.290001
0.207312
0.463943
0.166913
0.62878
0.121453
0.75446
0.764381
0.213932
-0.0300206
0.234043
-0.0322962
0.25377
-0.00635967
0.2648
0.0236089
0.257848
0.119978
0.234096
0.313754
0.202297
0.495741
0.164717
0.66636
0.12267
0.796507
0.817388
0.213982
-0.0460124
0.234433
-0.0527479
0.253074
-0.0250003
0.261149
0.0155336
0.250963
0.130164
0.226815
0.337902
0.196775
0.525781
0.162099
0.701036
0.122353
0.836253
0.867774
0.213808
-0.0618302
0.234755
-0.073695
0.251985
-0.0422306
0.256643
0.0108759
0.243148
0.143658
0.218961
0.36209
0.190859
0.553884
0.158634
0.733261
0.120105
0.874782
0.913972
0.213679
-0.0775193
0.234968
-0.0949839
0.25049
-0.0577532
0.25094
0.0104262
0.233873
0.160726
0.209901
0.386061
0.183621
0.580165
0.153449
0.763432
0.116429
0.911802
0.951317
0.331916
-0.107426
0.370535
-0.133602
0.406925
-0.0941428
0.424399
-0.00704851
0.438912
0.146213
0.467421
0.357551
0.506594
0.540992
0.54958
0.720446
0.581372
0.88001
0.946187
0.586502
0.333601
-0.139016
0.37312
-0.173122
0.408268
-0.129291
0.422169
-0.0209489
0.435543
0.132839
0.47594
0.317154
0.534287
0.482645
0.604468
0.650265
0.675402
0.809077
0.888603
0.732986
0.336324
-0.17333
0.375356
-0.212154
0.408635
-0.16257
0.417242
-0.029556
0.427387
0.122695
0.473976
0.270565
0.546485
0.410136
0.638816
0.557934
0.742288
0.705605
0.784475
0.846416
0.340486
-0.211806
0.373355
-0.245023
0.384178
-0.173393
0.380588
-0.0259662
0.398996
0.104287
0.452906
0.216655
0.534131
0.32891
0.64052
0.451545
0.767084
0.57904
0.647064
0.904496
0.348505
-0.258301
0.356541
-0.253059
0.337453
-0.154304
0.334267
-0.0227801
0.358578
0.0799756
0.414028
0.161205
0.497247
0.245692
0.607879
0.340913
0.743738
0.443181
0.495864
0.894938
0.340777
-0.297068
0.321125
-0.233407
0.28785
-0.121029
0.283952
-0.0188818
0.308917
0.0550099
0.361089
0.109034
0.439748
0.167033
0.545756
0.234905
0.678765
0.310171
0.347984
0.826646
0.314272
-0.309329
0.271543
-0.190679
0.233593
-0.083079
0.228618
-0.0139069
0.251043
0.0325847
0.296161
0.0639155
0.364609
0.0985849
0.458327
0.141187
0.578798
0.189701
0.215103
0.711678
0.273772
-0.281091
0.21287
-0.129777
0.174329
-0.0445374
0.168782
-0.00835982
0.186257
0.0151094
0.220965
0.0292074
0.274173
0.0453766
0.348684
0.066676
0.44705
0.0913343
0.106139
0.556015
0.214646
-0.193726
0.140471
-0.0556024
0.109364
-0.0134297
0.104086
-0.00308213
0.115358
0.003837
0.137274
0.0072916
0.171096
0.0115549
0.219971
0.0178008
0.28634
0.0249656
0.0304073
0.362071
0.108284
0.0526814
0.0392517
0.0361696
0.0400066
0.0472982
0.0588531
0.0766539
0.101619
0.132027
0.608657
-0.117098
0.632321
-0.116533
0.655139
-0.109491
0.67629
-0.100347
0.695233
-0.0895596
0.71137
-0.0765988
0.724263
-0.0613932
0.73359
-0.0442583
0.739075
-0.0258869
-0.00758338
0.75032
-0.134432
0.765223
-0.131436
0.779425
-0.123693
0.792649
-0.11357
0.804712
-0.101623
0.815847
-0.0877342
0.826403
-0.0719484
0.836392
-0.0542476
0.844841
-0.0343357
-0.0114668
0.851037
-0.139053
0.85348
-0.133879
0.854994
-0.125208
0.855371
-0.113948
0.854523
-0.100774
0.852622
-0.0858337
0.849896
-0.0692222
0.846739
-0.0510907
0.843946
-0.031543
-0.0105298
0.892552
-0.127109
0.878535
-0.119862
0.863855
-0.110528
0.849291
-0.0993834
0.835446
-0.0869296
0.823019
-0.0734069
0.812636
-0.0588384
0.804756
-0.0432111
0.799744
-0.0265313
-0.00887705
0.870311
-0.102481
0.845549
-0.0951008
0.821945
-0.0869233
0.80049
-0.0779281
0.781654
-0.0680942
0.765714
-0.0574669
0.75289
-0.0460141
0.743403
-0.0337241
0.737523
-0.0206516
-0.00695358
0.796998
-0.0728335
0.768934
-0.0670368
0.743122
-0.0611116
0.720037
-0.0548429
0.699971
-0.0480286
0.683112
-0.0406074
0.669641
-0.0325437
0.659769
-0.0238515
0.653726
-0.0146085
-0.00496377
0.682984
-0.0441393
0.6565
-0.0405524
0.632401
-0.0370128
0.610878
-0.0333202
0.592145
-0.0292954
0.576395
-0.024858
0.563828
-0.0199763
0.554646
-0.0146696
0.549043
-0.00900555
-0.00309474
0.53251
-0.0206337
0.510908
-0.0189508
0.491275
-0.0173795
0.473704
-0.0157489
0.45835
-0.0139423
0.445397
-0.0119046
0.435037
-0.00961618
0.427458
-0.00709083
0.422824
-0.00437152
-0.00152289
0.346789
-0.00535164
0.332647
-0.00480905
0.319752
-0.00448484
0.308137
-0.00413357
0.297908
-0.00371363
0.289215
-0.00321085
0.282219
-0.00262
0.277075
-0.00194739
0.273913
-0.00120945
-0.000429222
0.126675
0.121866
0.117381
0.113248
0.109534
0.106323
0.103703
0.101756
0.100546
0.000185057
0.0116092
-0.0117943
0.000623737
0.0304465
-0.0308852
0.00123716
0.0462417
-0.0468552
0.00197733
0.0594676
-0.0602077
0.00277662
0.0700216
-0.0708209
0.00376954
0.0798892
-0.0808821
0.00396348
0.0772673
-0.0774613
0.00408485
0.0700425
-0.0701639
0.00394498
0.0610797
-0.0609399
0.0499561
0.00350723
-0.0495184
0.000533397
0.0110758
0.00180387
0.029176
0.00358509
0.0444605
0.00574126
0.0573114
0.00807284
0.06769
0.0110396
0.0769224
0.011676
0.076631
0.0120809
0.0696376
0.0117737
0.061387
0.0510785
0.0106513
0.0008355
0.0102403
0.00283184
0.0271797
0.00563913
0.0416532
0.00904158
0.053909
0.0127395
0.0639921
0.0172475
0.0724144
0.0187902
0.0750883
0.0195719
0.068856
0.0193857
0.0615732
0.052435
0.0180292
0.00105598
0.00918436
0.00359702
0.0246387
0.00719366
0.0380566
0.0115559
0.0495467
0.0163567
0.0591914
0.0217478
0.0670232
0.0250729
0.0717632
0.0263552
0.0675736
0.0266035
0.0613249
0.0535668
0.0254717
0.00115146
0.0080329
0.00397934
0.0218108
0.00804179
0.0339942
0.012997
0.0445915
0.0185518
0.0536366
0.0245578
0.0610173
0.0299524
0.0663686
0.0320904
0.0654357
0.0330117
0.0604035
0.0540916
0.0324869
0.00111149
0.00692141
0.00396603
0.0189563
0.00818568
0.0297745
0.0133904
0.0393868
0.0193182
0.0477087
0.0257723
0.0545632
0.0324163
0.0597246
0.036313
0.061539
0.0381248
0.0585917
0.0537075
0.0385088
0.000926239
0.00599517
0.00357299
0.0163095
0.00771073
0.0256368
0.0128819
0.0342157
0.0187869
0.0418037
0.0253385
0.0480116
0.0323214
0.0527417
0.0382758
0.0555847
0.041588
0.0552795
0.0521834
0.0431121
0.000567822
0.00542735
0.0027866
0.0140907
0.00665749
0.0217659
0.0116214
0.0292518
0.0172044
0.0362207
0.0234475
0.0417685
0.0302863
0.0459029
0.0371845
0.0486864
0.042562
0.049902
0.0489244
0.045821
0.000103746
0.00532361
0.00176846
0.012426
0.00517554
0.0183588
0.00981468
0.0246127
0.0149567
0.0310787
0.020621
0.0361042
0.0269035
0.0396204
0.0335873
0.0420026
0.0400855
0.0434038
0.0437957
0.0452142
-0.000175806
0.00549942
0.00108648
0.0111637
0.00385544
0.0155899
0.00788592
0.0205822
0.0125002
0.0264644
0.0175707
0.0310337
0.0231767
0.0340143
0.0292492
0.0359301
0.035636
0.037017
0.0373689
0.0420628
-2.16397e-05
0.00552106
0.00113915
0.010003
0.0032765
0.0134525
0.00641168
0.017447
0.0102929
0.0225832
0.0148345
0.0264921
0.0199547
0.0288942
0.0254873
0.0303975
0.0312252
0.031279
0.0316946
0.0368995
0.000376683
0.00514438
0.00153026
0.00884938
0.00317857
0.0118042
0.00548888
0.0151367
0.00870799
0.0193641
0.0128938
0.0223063
0.0177459
0.0240421
0.0230134
0.02513
0.0285051
0.0257872
0.0260576
0.0341421
0.000623243
0.00452113
0.00170515
0.00776747
0.00302494
0.0104844
0.00484439
0.0133172
0.00783603
0.0163724
0.0119261
0.0182162
0.0166784
0.0192898
0.0218533
0.0199551
0.0273183
0.0203221
0.0204036
0.0329723
0.000676464
0.00384467
0.0016419
0.00680203
0.00282176
0.00930455
0.00470569
0.0114333
0.00798241
0.0130957
0.0122153
0.0139833
0.0170345
0.0144706
0.0222783
0.0147113
0.0278503
0.0147501
0.0145892
0.0336648
0.000664549
0.00318012
0.00155593
0.00591064
0.0030009
0.00785957
0.00559332
0.00884088
0.0093904
0.00929862
0.0139182
0.00945551
0.0189673
0.00942143
0.0244384
0.00924019
0.0302636
0.00892496
0.00848161
0.0363712
0.000594775
0.00258534
0.00172278
0.00478263
0.00407757
0.00550478
0.00754359
0.00537485
0.011805
0.00503719
0.0166615
0.00459901
0.0220117
0.00407122
0.0277965
0.00345542
0.0339643
0.00275709
0.00198937
0.0404566
0.000527879
0.00205745
0.00249981
0.00281068
0.00577617
0.00222841
0.00978189
0.00136913
0.0143802
0.000438879
0.0195257
-0.000546468
0.0251884
-0.00159148
0.0313254
-0.00268162
0.0378757
-0.00379325
-0.00491421
0.0447793
0.000884054
0.00117339
0.00363531
5.94063e-05
0.00720195
-0.00133823
0.0113924
-0.00282131
0.0161938
-0.00436251
0.0216168
-0.00596956
0.0276198
-0.00759446
0.0341114
-0.00917322
0.0410083
-0.0106902
-0.0121757
0.0482699
0.00150696
-0.000333578
0.00413504
-0.00256869
0.007558
-0.00476119
0.0117763
-0.00703962
0.0167971
-0.00938331
0.0225407
-0.0117132
0.0288391
-0.0138929
0.0355712
-0.0159053
0.0427117
-0.0178307
-0.0197254
0.0502614
0.00104744
0.00313441
0.00645665
0.0109288
0.0163141
0.0222924
0.0287029
0.0355785
0.042987
0.0509068
0.0514227
0.0837155
-0.0982387
0.0773365
-0.00754737
-0.0183664
0.0999837
-0.0512273
0.02858
0.113677
-0.047147
0.0334535
0.121646
-0.0268588
0.0188897
0.125263
-0.00797004
0.00435375
0.126277
0.00349068
-0.00450466
0.126373
0.0074812
-0.00757742
0.126274
0.00773692
-0.00763847
0.00531185
-0.00593588
0.0586403
0.0592172
0.091721
-0.0406282
0.118923
-0.0784292
0.134956
-0.0631801
0.143689
-0.0355921
0.147339
-0.0116197
0.148076
0.00275372
0.147818
0.00773913
0.147381
0.00817405
0.00503016
0.0666727
0.0255168
0.105122
-0.0790776
0.136162
-0.10947
0.155823
-0.0828407
0.165829
-0.0455983
0.169549
-0.0153394
0.169902
0.00240028
0.169128
0.00851347
0.168184
0.00911853
0.00523541
0.0755734
-0.0163919
0.117979
-0.121483
0.151917
-0.143407
0.175342
-0.106266
0.1874
-0.0576565
0.191456
-0.0193953
0.191464
0.00239249
0.190121
0.00985636
0.188588
0.0106516
0.00600972
0.0846465
-0.0646671
0.129824
-0.16666
0.165932
-0.179515
0.19267
-0.133004
0.207637
-0.0726234
0.212631
-0.024389
0.212493
0.00253082
0.210626
0.011723
0.208499
0.0127787
0.00737594
0.0931169
-0.117327
0.14032
-0.213863
0.178115
-0.21731
0.207419
-0.162309
0.225682
-0.0908863
0.232534
-0.0312417
0.23267
0.00239501
0.230449
0.0139445
0.227812
0.0154159
0.00929146
0.10032
-0.172868
0.149191
-0.262734
0.188366
-0.256486
0.219508
-0.19345
0.240836
-0.112214
0.250523
-0.0409295
0.251632
0.001286
0.249374
0.016203
0.246409
0.0183814
0.0116452
0.105906
-0.230504
0.156311
-0.313139
0.19663
-0.296806
0.229043
-0.225862
0.252776
-0.135947
0.265866
-0.05402
0.268935
-0.00178237
0.26715
0.0179879
0.264153
0.0213777
0.0142511
0.109857
-0.2901
0.161712
-0.364993
0.202932
-0.338026
0.236198
-0.259128
0.261552
-0.161301
0.277929
-0.0703971
0.284025
-0.00787811
0.283468
0.018545
0.28088
0.023965
0.0168398
0.112493
0.16557
0.207409
0.241165
0.267476
0.286435
0.296237
0.297926
0.296378
0.0132005
0.00607784
-0.0192783
0.010989
0.00221153
0.0115082
-0.000519244
0.0129317
-0.00142346
0.0136461
-0.000714412
0.0137616
-0.000115522
0.0135352
0.000226355
0.0131714
0.000363824
0.01291
0.000261421
0.000358275
0.0372487
0.0232152
-0.0543861
0.0314939
0.00796639
0.0340056
-0.00303097
0.0380638
-0.00548172
0.0402354
-0.00288601
0.0406285
-0.000508598
0.039983
0.000871846
0.038983
0.0013638
0.0380571
0.00118728
0.00120211
0.0579657
0.0480958
-0.0828463
0.0508836
0.0150485
0.0558954
-0.0080428
0.0624771
-0.0120635
0.0661433
-0.00655214
0.0668935
-0.0012588
0.0658963
0.00186896
0.0643145
0.00294561
0.0627263
0.00277547
0.00245001
0.0739058
0.0754007
-0.101211
0.0680817
0.0208725
0.0764514
-0.0164125
0.0857898
-0.0214019
0.0911068
-0.0118691
0.0923555
-0.00250748
0.0911114
0.00311298
0.0890125
0.00504458
0.0868333
0.00495467
0.00405
0.0813983
-0.104236
0.0839043
0.0960718
0.108123
0.115144
0.11699
0.115598
0.113066
0.110382
0.00273369
-0.000172927
-0.00256076
0.00326456
-0.000530875
0.0041768
-0.000912238
0.00548787
-0.00131107
0.00718429
-0.00169642
0.00922887
-0.00204458
0.0115855
-0.0023566
0.0141738
-0.00258834
0.0168589
-0.00268514
-0.0024194
0.00778747
-0.000645703
-0.00731469
0.00923437
-0.00197778
0.0117138
-0.00339162
0.0152702
-0.00486748
0.0198845
-0.00631071
0.0254825
-0.0076426
0.0319648
-0.00883895
0.0391563
-0.0097798
0.0467677
-0.0102966
-0.0100379
0.0124781
-0.00138376
-0.01174
0.0147278
-0.00422749
0.0185607
-0.00722451
0.0240247
-0.0103315
0.0310794
-0.0133654
0.0395862
-0.0161495
0.0493282
-0.0185809
0.0600516
-0.0205032
0.0714159
-0.0216608
-0.0214683
0.0168075
-0.00234771
-0.0158436
0.0197318
-0.00715173
0.024675
-0.0121678
0.0316515
-0.017308
0.0405502
-0.022264
0.0511064
-0.0267057
0.0629377
-0.0304122
0.0756947
-0.0332603
0.0888614
-0.0348275
-0.0338176
0.0207931
-0.0196336
0.0242927
0.0301542
0.0383178
0.0485408
0.0603439
0.0730438
0.0856045
0.0959912
0.031445
-0.0313063
0.0371111
-0.0372498
0.0255847
-0.0309033
0.0367636
0.0199263
-0.0300706
0.0357291
0.0146799
-0.0286746
0.033921
0.0100601
-0.026466
0.0310858
0.0062049
-0.0227787
0.0266339
0.00311394
-0.0176476
0.0207386
0.00101751
-0.0136221
0.0157185
-8.66878e-05
-0.0101615
0.0112657
-0.00564218
0.0055555
0.0294617
-0.0254429
-0.035325
0.0237459
-0.0251875
0.0182559
-0.0245807
0.0131699
-0.0235886
0.0087409
-0.022037
0.00535074
-0.0193885
0.00301998
-0.0153169
0.00139669
-0.0119988
0.000298284
-0.00906309
-0.0053439
0.0294333
-0.0194547
-0.0354216
0.0236292
-0.0193833
0.0181119
-0.0190633
0.0129984
-0.0184751
0.00849177
-0.0175304
0.00504306
-0.0159398
0.00300437
-0.0132782
0.00164475
-0.0106391
0.000582558
-0.0080009
-0.00476134
0.0313533
-0.0131916
-0.0376163
0.0253248
-0.0133548
0.0196142
-0.0133528
0.0143081
-0.013169
0.00954523
-0.0127674
0.00565029
-0.0120448
0.00319629
-0.0108241
0.0017607
-0.00920354
0.000726796
-0.00696699
-0.00403454
0.0349541
-0.00653638
-0.0416093
0.0285807
-0.00698138
0.0225613
-0.00733334
0.0169619
-0.00756965
0.0118733
-0.00767881
0.00748005
-0.00765153
0.0041342
-0.00747829
0.00199229
-0.00706163
0.000798235
-0.00577292
-0.0032363
0.0392738
0.000571521
-0.0463817
0.032491
-0.00019859
0.0261059
-0.000948183
0.020193
-0.00165672
0.0148129
-0.00229875
0.0100288
-0.00286739
0.00592432
-0.00337382
0.00267394
-0.00381124
0.000720608
-0.00381958
-0.00251568
0.0431115
0.0080892
-0.0506292
0.0359341
0.0069789
0.0291503
0.00583557
0.0228603
0.00463326
0.0171665
0.00339513
0.0121084
0.00219071
0.00766713
0.00106741
0.0038488
7.10565e-06
0.000979571
-0.00095034
-0.0015361
0.04539
0.0158941
-0.0531949
0.0379614
0.0144075
0.0309065
0.0128905
0.0242613
0.0112785
0.018169
0.00948745
0.012816
0.00754369
0.00828138
0.00560202
0.00454044
0.00374806
0.00163186
0.00195825
9.57591e-05
0.0455428
0.0239975
-0.0536462
0.0379244
0.022026
0.0307943
0.0200206
0.0240653
0.0180075
0.0177047
0.015848
0.0119067
0.0133417
0.00704887
0.0104599
0.00341802
0.00737892
0.00114775
0.00422853
0.00124351
0.044483
-0.0529983
0.0365258
0.0292566
0.0226562
0.016528
0.0107572
0.00566411
0.00203927
0.000458551
0.00394825
-0.0499563
-0.00351032