/*--------------------------------*- C++ -*----------------------------------*\
  =========                 |
  \\      /  F ield         | OpenFOAM: The Open Source CFD Toolbox
   \\    /   O peration     | Website:  https://openfoam.org
    \\  /    A nd           | Version:  13
     \\/     M anipulation  |
\*---------------------------------------------------------------------------*/
FoamFile
{
    format      ascii;
    class       volScalarField;
    location    "2.2";
    object      p;
}
// * * * * * * * * * * * * * * * * * * * * * * * * * * * * * * * * * * * * * //

dimensions      [0 2 -2 0 0 0 0];

internalField   nonuniform List<scalar>
1800
(
-1.55527821058
-1.56871333612
-1.52005285247
-1.42988554309
-1.32903405345
-1.23366085896
-1.14937940587
-1.07561831799
-1.01093437647
-0.959022565523
-1.75471883256
-1.76925318154
-1.71246745604
-1.61019662272
-1.49690082115
-1.39002724963
-1.29562156728
-1.21346385902
-1.14286864298
-1.08574163475
-1.94611772211
-1.96096340533
-1.89517357535
-1.78061830268
-1.65491512814
-1.53646798577
-1.4314878716
-1.33965697495
-1.25980279466
-1.19257274185
-2.12422477642
-2.13857183223
-2.0633475822
-1.93712179116
-1.80015799389
-1.67157002647
-1.55758671744
-1.45770728618
-1.37060197526
-1.29666089957
-2.28303860526
-2.29598541596
-2.21095096441
-2.07374011278
-1.92648568561
-1.78874085576
-1.66654803594
-1.5592244928
-1.46530976297
-1.3845460357
-2.41735148303
-2.42805939078
-2.33327359563
-2.18623404441
-2.0302021829
-1.88488194439
-1.75600969057
-1.64268412032
-1.54326729224
-1.45711257438
-2.52197217404
-2.52960509506
-2.42541084756
-2.26992027447
-2.10671669289
-1.95543261336
-1.82136000332
-1.70335324494
-1.59963709669
-1.5092002417
-2.59247417165
-2.59634161099
-2.48359020382
-2.32118265124
-2.15268308525
-1.99724644691
-1.85960507362
-1.73838425388
-1.63165669157
-1.5380966232
-2.62527922332
-2.62495125008
-2.50474082574
-2.33710655583
-2.16535153548
-2.00768343807
-1.86806981335
-1.7450628745
-1.63663616915
-1.54112878361
-2.61813584664
-2.61350592353
-2.48656643678
-2.31644190409
-2.14333572833
-1.98516644466
-1.8450218699
-1.72148280548
-1.61250344125
-1.51614574169
-0.133264094618
-0.124528795912
-0.113030355245
-0.0993228097944
-0.0878812772812
-0.0810009597708
-0.0784999236616
-0.0794819150353
-0.0831266958189
-0.0888001191401
-0.180656549482
-0.173072388902
-0.160683844419
-0.14448984911
-0.129755272514
-0.119530071146
-0.11390284928
-0.112013386515
-0.113022551386
-0.116121846343
-0.254138344259
-0.248258699352
-0.234487270187
-0.214480955542
-0.194763004388
-0.17946315675
-0.169096825548
-0.162855712276
-0.159869342736
-0.159035781623
-0.352773819768
-0.349034886384
-0.333321584964
-0.308191921813
-0.281929683144
-0.259967758044
-0.243389005929
-0.23146110493
-0.223263899095
-0.217282235782
-0.475232865705
-0.47394532742
-0.455672818654
-0.424160414521
-0.389944747065
-0.359916867156
-0.335849352175
-0.317097756107
-0.302671950971
-0.290528496061
-0.619639303545
-0.62099932734
-0.599512418523
-0.560458091208
-0.517070248792
-0.477813330374
-0.445219873824
-0.418749415486
-0.39732140918
-0.378274643825
-0.783430034381
-0.787536869109
-0.762199122416
-0.714628640335
-0.661131553376
-0.611805382564
-0.569954632193
-0.53516512091
-0.506240669327
-0.479913787811
-0.963184932784
-0.970042965626
-0.940266145204
-0.88346815295
-0.81932089042
-0.759543663714
-0.708176902595
-0.66493001754
-0.628386239003
-0.594920219578
-1.15465907515
-1.16410630709
-1.12913000626
-1.06231863169
-0.986963539725
-0.916399188753
-0.855367548935
-0.803660977322
-0.759466600691
-0.719498579287
-1.35346603615
-1.36514680003
-1.32383706549
-1.2457490122
-1.15795319501
-1.07532379948
-1.00320129278
-0.94135836004
-0.887830075479
-0.841343760788
-0.13308685974
-0.210640852053
-0.279631293543
-0.329917522075
-0.368381820495
-0.399309338891
-0.426020159523
-0.45038170145
-0.473497238457
-0.496019332813
-0.144400735936
-0.218583935183
-0.283380872746
-0.33200542973
-0.369799115292
-0.400388067553
-0.426841406178
-0.450964867202
-0.473850293655
-0.496147299851
-0.162100592094
-0.230948802918
-0.289161964893
-0.334961970017
-0.371545990284
-0.401574872578
-0.427680213467
-0.451532926496
-0.474185816039
-0.496268786905
-0.187090661327
-0.247282980217
-0.296899339827
-0.338773564473
-0.373632611973
-0.402878952707
-0.428543630831
-0.452091894507
-0.474507354016
-0.496384368122
-0.220708625524
-0.266935863442
-0.306451801846
-0.343412169763
-0.376057393444
-0.404305511689
-0.429437636824
-0.452646898052
-0.474818239343
-0.496495022836
-0.264676824157
-0.289099908117
-0.317595819286
-0.348831202183
-0.37882168401
-0.405858152212
-0.430367740672
-0.453203291317
-0.475121652459
-0.496600817001
-0.321007374507
-0.31291207088
-0.329939911734
-0.354944443044
-0.381916878162
-0.407541830206
-0.43133874848
-0.453765605916
-0.475420426507
-0.49670173388
-0.391873333994
-0.338827102433
-0.34314486188
-0.361658568797
-0.385333131655
-0.40935944977
-0.432355038613
-0.454338431866
-0.475717420798
-0.496797634617
-0.477718922967
-0.368948111767
-0.357466806525
-0.369099600558
-0.389150343279
-0.411354563171
-0.433437814696
-0.45493201168
-0.47601664138
-0.496888637418
-0.571317127597
-0.403435500585
-0.372683678144
-0.377125978177
-0.39333230976
-0.413523633987
-0.434588538445
-0.455551353485
-0.476323136665
-0.496970527184
-0.630204592368
-0.440433553168
-0.390678383846
-0.388454465882
-0.400338950923
-0.417768352944
-0.437166356805
-0.457096117461
-0.477129337368
-0.497167983484
-0.653869294451
-0.477748526733
-0.416267652357
-0.405279694094
-0.411209612067
-0.424694655196
-0.441552751221
-0.459793855667
-0.478585703133
-0.497612042396
-0.659916947279
-0.499436853935
-0.43485638799
-0.419210858338
-0.4209769807
-0.431216110707
-0.445781887981
-0.462426304044
-0.480021519933
-0.498056984508
-0.662040448016
-0.517267198286
-0.451824893463
-0.432046664221
-0.430129903055
-0.437443973199
-0.449870739979
-0.464989533405
-0.48143028448
-0.4984993564
-0.659633881758
-0.530159181053
-0.46612613687
-0.443426841519
-0.438483745112
-0.443249234418
-0.453733374967
-0.467430643948
-0.482782647153
-0.498929355764
-0.655308487002
-0.540004560481
-0.478259440992
-0.453448599559
-0.445989828031
-0.448546857947
-0.457297511709
-0.469700876309
-0.484051734544
-0.499338667214
-0.651122036938
-0.547910051466
-0.488551560083
-0.46216775066
-0.452603092081
-0.453263914026
-0.460498540345
-0.47175468622
-0.485213391504
-0.499720633012
-0.648461064991
-0.554894767361
-0.49743030643
-0.469683294545
-0.458305405255
-0.457343467614
-0.463280401162
-0.473551896781
-0.486245836205
-0.500066984192
-0.646352727988
-0.561545123731
-0.505792947821
-0.476654153249
-0.463539185724
-0.461070661514
-0.465826076091
-0.475209954446
-0.48723649614
-0.500425018269
-0.653919373201
-0.568754358074
-0.512349267388
-0.481656059425
-0.467163349239
-0.463619477785
-0.467556656795
-0.476331184761
-0.4879009803
-0.500661665779
-1.35491797587
-1.37969631546
-1.38115906016
-1.36069836657
-1.3204577489
-1.2632081768
-1.19257355822
-1.10979562312
-1.02223532014
-0.925978552066
-1.18293489171
-1.20905973036
-1.21639731298
-1.20629772572
-1.17963966325
-1.14005130588
-1.08837504031
-1.02910822519
-0.965945457205
-0.897775241421
-1.05065269882
-1.07632650019
-1.08681369339
-1.08329924142
-1.06582064596
-1.03852625766
-0.999996793993
-0.956404567423
-0.907560313841
-0.854403663292
-0.948157601606
-0.974145178898
-0.986898172516
-0.987580735605
-0.976156216446
-0.956437261069
-0.926653984337
-0.893023788205
-0.853918962157
-0.81180915076
-0.870612668491
-0.896364783297
-0.910502268886
-0.913933863904
-0.906773159033
-0.892093395933
-0.8687187835
-0.842041592257
-0.810274509364
-0.776337509328
-0.811366054616
-0.837190229726
-0.852486593298
-0.857949050539
-0.853937487954
-0.842818738442
-0.8241531289
-0.802335037436
-0.775716973388
-0.747360395178
-0.767374706058
-0.793464706974
-0.809726678549
-0.816722366998
-0.815011390593
-0.806402458598
-0.791042007494
-0.772523836561
-0.749568490383
-0.725185026559
-0.736159229713
-0.762886943714
-0.7801966382
-0.788491441025
-0.788504561938
-0.781657344889
-0.768491933251
-0.751993343789
-0.731339680328
-0.709643005285
-0.720570235686
-0.746491945776
-0.76464926982
-0.774331474633
-0.77578718519
-0.770071034634
-0.757874431589
-0.741607607801
-0.721091803473
-0.698100464566
-0.706154454258
-0.737063846497
-0.75877663344
-0.772100867653
-0.777751652027
-0.776368165706
-0.768816082204
-0.75610974794
-0.738303138542
-0.715710301062
-0.0700494646798
-0.123329552175
-0.188014703297
-0.258144109025
-0.333667872997
-0.417562635995
-0.51152906575
-0.611747854601
-0.699777972334
-0.726632761325
-0.25910112993
-0.317444249526
-0.385158755827
-0.460091622088
-0.543700703291
-0.638521341897
-0.74530802702
-0.859358681434
-0.959520448715
-0.98800092253
-0.471499475008
-0.533641593153
-0.603658323358
-0.682369449909
-0.771910986969
-0.874483765626
-0.990561258964
-1.11517894825
-1.22527822401
-1.25379342238
-0.670916781689
-0.738094324178
-0.813807351289
-0.899554443583
-0.997238938251
-1.10891818047
-1.23500047937
-1.37030968623
-1.4903377075
-1.51771755474
-0.848655217035
-0.922708809334
-1.00615847039
-1.10058161972
-1.20778746929
-1.32985224668
-1.46697690999
-1.61354941334
-1.74390364937
-1.76864154544
-1.00871852969
-1.08967000134
-1.18073567394
-1.28357634604
-1.40004063711
-1.53215701482
-1.67966080936
-1.83625302291
-1.97744749969
-1.99603624516
-1.15302382426
-1.23962305127
-1.33716123224
-1.44731867671
-1.5719765998
-1.71304943814
-1.86904306392
-2.03135415419
-2.18717021468
-2.18817934983
-1.27884908459
-1.36984166581
-1.4725703309
-1.58866163219
-1.72013970533
-1.86904434498
-2.03313965743
-2.20018052796
-2.35019475305
-2.34958741629
-1.38217708877
-1.47673519965
-1.58346174551
-1.70390791212
-1.84039862644
-1.99554000111
-2.16810707046
-2.33710795391
-2.46506626663
-2.479142173
-1.46246854286
-1.55854644287
-1.6668862641
-1.78952045426
-1.92928818367
-2.08670643837
-2.259328906
-2.42979602514
-2.56012730021
-2.56980392989
1.03463118545
1.04892414117
1.06519986259
1.08180871118
1.09733249749
1.11090368647
1.12171675769
1.12920728806
1.13444559084
1.13936763602
0.984813989604
0.997219881971
1.01108290696
1.0248465551
1.03722150652
1.04731565823
1.05429171152
1.05782016324
1.0597268286
1.06288886031
0.915469154168
0.925199587408
0.935574190325
0.945222142404
0.953034256895
0.958086707666
0.959484760082
0.957232193609
0.954387446255
0.954942234125
0.82735817191
0.833681010106
0.839556183927
0.843903665734
0.84584674968
0.844422959729
0.838660784455
0.828943991445
0.819926815387
0.816890348202
0.72139770872
0.723649367286
0.724245364686
0.722312880722
0.717249293028
0.708096649596
0.693781990374
0.67504667651
0.657976798252
0.651693696924
0.598376841436
0.596353066965
0.591166415086
0.58218405185
0.569173583869
0.551167124808
0.527032460398
0.497922760224
0.471469830074
0.461686359431
0.460554820389
0.454477171966
0.443411466955
0.426879856749
0.405105290676
0.377220774741
0.342083776446
0.301356428551
0.264420724202
0.250927574779
0.314361524118
0.303812006663
0.285666398899
0.260121761871
0.228137434368
0.188956939768
0.141460567333
0.087805738777
0.0393780222405
0.0222515277244
0.168974128649
0.153339845107
0.126619080946
0.090202476608
0.0461068568502
-0.00619274160789
-0.0678063416786
-0.136002633466
-0.197118651969
-0.217880519238
0.039934295303
0.0079581338709
-0.0356465464294
-0.0874090799958
-0.145714183833
-0.212151607725
-0.288434093233
-0.371510551403
-0.445452919927
-0.469395576045
0.849511435639
0.93947970264
0.932277245596
0.767982795232
0.784273768947
0.796696719819
0.806610571444
0.828330901395
0.870226861711
0.973382101624
0.843730703868
0.935235950882
0.92749725519
0.762222594345
0.778074060986
0.789081480756
0.796728582532
0.815138778627
0.850931472351
0.940279493837
0.838277325494
0.931266072222
0.922605356905
0.755497944094
0.771419442569
0.780747070969
0.785331115418
0.799448392279
0.826329879793
0.895495100876
0.833156534081
0.927602745685
0.917556602579
0.747849618678
0.764372373155
0.771700605483
0.772421594478
0.781084332073
0.795890839842
0.839434444304
0.828383792808
0.924295989959
0.912363984365
0.73933424638
0.75700205362
0.761928016957
0.758023225653
0.759794729204
0.758801926616
0.772795538491
0.824024153534
0.921324888668
0.906980749792
0.730013734563
0.749375431071
0.751429344689
0.742104016405
0.735482559592
0.717198256993
0.692893821972
0.820153824613
0.918730729275
0.901385393587
0.719974971043
0.741587521168
0.740159286167
0.724633202726
0.708276610758
0.672495433904
0.59695139633
0.816834853118
0.916479422578
0.895532838249
0.709375989177
0.733664784125
0.728050932624
0.705599539242
0.67821427744
0.62369395388
0.487115214534
0.814156459891
0.914542070885
0.889406527659
0.698368618776
0.725635354933
0.715096493347
0.685139546539
0.645172882372
0.568874518034
0.359990352722
0.812430184675
0.912998820265
0.883024034007
0.687181640662
0.717406660697
0.701296411282
0.66360534114
0.61060132022
0.510288768004
0.231869046213
0.810718702969
0.910509367173
0.878623106172
0.676656733774
0.705191466827
0.683118041429
0.635270839356
0.566163090668
0.445334298233
0.111258644854
0.810803916477
0.907375082387
0.877354981592
0.668484106268
0.69028468237
0.663424605469
0.606397063286
0.524500214185
0.38710005936
0.0742460332979
0.81297019765
0.905031849242
0.876319520882
0.6613030541
0.676504113327
0.645085380205
0.580231323092
0.488794237889
0.339030584842
0.0471003230948
0.817380955113
0.903710864268
0.875510790987
0.655127274647
0.664226931291
0.628557045086
0.557269945461
0.458771943021
0.300181245432
0.0308036651795
0.82490152113
0.90355653616
0.875004791
0.649965938097
0.653686926257
0.614189201439
0.537766478914
0.43402467522
0.270240891392
0.0216427654467
0.835200041861
0.904590296851
0.874775158502
0.64585264475
0.644996356636
0.602181602624
0.521835346603
0.414245642089
0.248361782943
0.0171763124225
0.852963364273
0.906665935272
0.874729057385
0.642749772699
0.638220575893
0.592642357799
0.509423608744
0.399167580578
0.23330987867
0.0160001071845
0.873400121084
0.909774316785
0.874770756058
0.640673026203
0.633438296299
0.585634294493
0.50049457239
0.388572448051
0.223927495891
0.0175748333904
0.887419507523
0.910451383428
0.872067587968
0.639848599836
0.630879408679
0.581350633447
0.495245147573
0.382605966326
0.219720281604
0.0232488795707
0.946297950542
0.921420770547
0.875581489581
0.638072916397
0.631034636859
0.579614340354
0.493189749642
0.380229354883
0.219141231654
0.0267505462677
-0.106815456502
-0.26407465574
-0.446402316516
-0.618490144021
-0.770676065319
-0.908050082629
-1.03381649036
-1.14495726578
-1.23649899636
-1.30629651937
-0.172673147695
-0.290950977828
-0.427370995101
-0.562734121043
-0.686018590297
-0.798095086897
-0.901696530053
-0.994812419689
-1.07480917189
-1.13823524549
-0.199633615721
-0.293266169422
-0.396638809641
-0.507270644882
-0.613360159285
-0.711005634845
-0.801440194169
-0.88347268881
-0.953949147899
-1.00996345378
-0.204434538536
-0.285997198622
-0.371711729527
-0.465169231867
-0.557499587416
-0.643153860181
-0.72246368335
-0.794817955395
-0.857786568543
-0.909207497915
-0.197752949495
-0.272336810238
-0.347245802791
-0.428365090955
-0.510599883142
-0.588187719999
-0.660295032921
-0.726495840065
-0.784860483838
-0.833367042425
-0.186423273156
-0.256456469395
-0.324772044595
-0.397814570069
-0.473048974012
-0.544992648224
-0.612088369991
-0.673907149582
-0.728883068296
-0.775140014003
-0.17434662377
-0.241161837911
-0.305143601968
-0.372880901432
-0.443373152908
-0.511458321826
-0.575169547322
-0.634036890177
-0.686732934696
-0.731607889589
-0.162982172828
-0.227642524248
-0.288737125141
-0.353210308159
-0.420856960326
-0.486616420527
-0.548315587899
-0.605421901317
-0.656698664824
-0.700638569142
-0.149547298285
-0.212516961681
-0.272286284749
-0.335977812979
-0.403170006517
-0.46875179268
-0.530494127397
-0.5878307341
-0.639591483157
-0.684237042595
-0.131432554002
-0.190161336522
-0.248688953304
-0.313171706127
-0.381008219127
-0.447301647244
-0.510227133799
-0.568961405032
-0.6221009928
-0.668204763297
-3.79596843109
-3.77618279113
-3.59977517582
-3.3871400133
-3.18344869423
-3.00714863426
-2.85972808697
-2.73835310719
-2.64089181805
-2.56666035127
-3.84853608527
-3.84017729209
-3.67682424798
-3.46552759028
-3.25927299825
-3.07924776124
-2.92872617735
-2.80475336657
-2.70566905776
-2.63211449788
-3.78612477829
-3.7890133002
-3.64106443957
-3.43336028507
-3.22477131226
-3.04082111855
-2.88690761611
-2.76003161162
-2.65792323606
-2.58110463796
-3.6157636361
-3.62793516389
-3.49724670137
-3.29532421436
-3.08594634545
-2.8987963222
-2.74169325514
-2.61213038033
-2.50714147062
-2.4256574779
-3.35378137467
-3.37270762183
-3.25968034065
-3.0668128777
-2.85999822735
-2.67227603457
-2.513789392
-2.38290061825
-2.27634193717
-2.19204363834
-3.02392327948
-3.0469941006
-2.95089354543
-2.77123740584
-2.57234478428
-2.38883828442
-2.23268425061
-2.10319676157
-1.99715449298
-1.91343396409
-2.65469156174
-2.67936950147
-2.59899411116
-2.43704393234
-2.25272073509
-2.08001689375
-1.93175597387
-1.80820870447
-1.70598088029
-1.62625228354
-2.27448797741
-2.29839685815
-2.23215174656
-2.09126701394
-1.92741331659
-1.77176863668
-1.63695876259
-1.52391558624
-1.42976546797
-1.35692265987
-1.90741833925
-1.92871356709
-1.87489463792
-1.75653325556
-1.61685813858
-1.48301927672
-1.36652710237
-1.26859267088
-1.18683827051
-1.12710430985
-1.56903749602
-1.58648751498
-1.54304553805
-1.44615711421
-1.33082738714
-1.21969991307
-1.12243803792
-1.03984366799
-0.968618181858
-0.914819454165
-1.26735798543
-1.28044574933
-1.24546475203
-1.1679215031
-1.07563440233
-0.987165750662
-0.91052663646
-0.846639729986
-0.792872903805
-0.746508140432
-1.00456351166
-1.01338086149
-0.98503777717
-0.923745442761
-0.851240640081
-0.78235640168
-0.723274966069
-0.674461682712
-0.634214101846
-0.597186434719
-0.779387271917
-0.784167823334
-0.760866577478
-0.71261578192
-0.656182878341
-0.603249165175
-0.558340433169
-0.521495434008
-0.491589968082
-0.463726123797
-0.589828082066
-0.590999508673
-0.571648543226
-0.534036620489
-0.49097420547
-0.45154008954
-0.418873537001
-0.392688844271
-0.372020693984
-0.353141454503
-0.434075687673
-0.432137490496
-0.415883313924
-0.38686981574
-0.354803365828
-0.326599339233
-0.304235190802
-0.287188625313
-0.274523341345
-0.263612471001
-0.310442231708
-0.305892274086
-0.291925248801
-0.2695536131
-0.246139701699
-0.226821997928
-0.21267011951
-0.203002012497
-0.196915694821
-0.192618394246
-0.217499885868
-0.210853833619
-0.198448220195
-0.1808962996
-0.16392325102
-0.151238112088
-0.143262936467
-0.139204550261
-0.138196959558
-0.139023813759
-0.154120431654
-0.145949867392
-0.134492408214
-0.120096400263
-0.107462053193
-0.0992605466606
-0.0954849050601
-0.0952747129201
-0.0977900442989
-0.102180726283
-0.119406616981
-0.110350397874
-0.0993340526927
-0.0865644712557
-0.0762508155589
-0.0704629459261
-0.0689626955235
-0.0708514437517
-0.075307033984
-0.0816885049389
-0.112650657401
-0.103415192478
-0.0923512293563
-0.07980710394
-0.0698665009642
-0.06449463086
-0.0633967729107
-0.0656645922258
-0.0704816626783
-0.0772726062413
-0.466812337315
-0.347542972402
-0.341229696878
-0.35154824869
-0.369493100024
-0.392047266807
-0.416759907786
-0.442283213106
-0.468146405039
-0.494158103986
-0.369209805009
-0.316650004699
-0.328422340094
-0.346108556753
-0.368291695199
-0.392646602758
-0.417910782507
-0.443376649638
-0.468888512516
-0.494409732507
-0.292610691866
-0.292424401814
-0.317996018606
-0.342207192592
-0.367434992733
-0.393274303664
-0.418997089168
-0.444392604383
-0.469574619324
-0.494643419727
-0.235985945441
-0.272451647431
-0.30818146439
-0.338269934423
-0.366691176686
-0.393894614391
-0.420013161001
-0.445333519274
-0.470207995082
-0.49486042141
-0.194763707562
-0.254605654767
-0.299135304468
-0.334872971502
-0.366159410323
-0.394527939273
-0.420969290136
-0.446205669584
-0.47079275076
-0.495061984069
-0.165652401679
-0.238420173909
-0.291337601439
-0.332123878079
-0.36585699473
-0.395186373735
-0.421875254143
-0.447016121223
-0.471332720648
-0.495249608652
-0.145940626029
-0.224927247659
-0.285129088359
-0.330080418023
-0.365799576856
-0.395881448341
-0.422741645897
-0.447771645069
-0.471831783144
-0.495424416251
-0.13368676209
-0.21456950065
-0.280737927252
-0.328802860563
-0.366008541564
-0.396628671409
-0.423579148057
-0.448478996542
-0.472293900953
-0.495587761194
-0.127838137955
-0.208712785952
-0.278323503625
-0.328329904767
-0.366498459256
-0.397440552437
-0.424398113476
-0.449145340763
-0.472722848498
-0.495740553897
-0.127630822978
-0.207343870738
-0.277945250028
-0.328695030752
-0.367284731624
-0.398329502898
-0.42520862652
-0.449777346263
-0.473122573455
-0.495884128767
-0.676751547064
-0.477989999522
-0.402232463165
-0.38060981361
-0.381379754257
-0.395910197047
-0.417125136189
-0.441463404815
-0.467220974065
-0.493726474273
-0.629962382026
-0.451828691777
-0.391694600834
-0.376435538812
-0.380382725281
-0.395573719967
-0.417138399185
-0.441578956114
-0.467342466199
-0.493783632835
-0.601413435148
-0.433374513483
-0.382282145095
-0.371907268371
-0.378357455349
-0.394887608847
-0.417037925044
-0.441691298158
-0.467495856585
-0.493861047843
-0.568591733826
-0.409883791783
-0.370412200243
-0.366015678333
-0.375602205197
-0.393834096601
-0.416772053942
-0.44172778127
-0.467605951126
-0.493919619953
-0.527077846476
-0.377915597239
-0.354227484135
-0.357793032628
-0.371886272672
-0.392466620125
-0.416369955126
-0.441705556248
-0.467686270211
-0.493965231488
-2.49839047565
-2.56502168782
-2.53359753966
-2.41294372274
-2.21854495533
-1.98618913453
-1.71769888831
-1.47288610055
-1.23778895327
-1.03627014991
-2.49520865225
-2.5604595779
-2.52246974878
-2.3945388855
-2.19479185667
-1.95957616986
-1.69489227594
-1.45458692142
-1.22548411712
-1.01201846595
-2.49738567884
-2.56127825218
-2.51803433139
-2.38198714485
-2.17428036722
-1.92710891033
-1.65453818157
-1.39729474353
-1.16662043729
-0.976793440778
-2.50790527902
-2.57265093597
-2.52541310518
-2.37948239768
-2.1585972472
-1.89415325175
-1.61425701467
-1.35160518264
-1.13011733918
-0.947952261301
-2.52744158963
-2.59328194663
-2.54161506488
-2.38554189371
-2.15153266774
-1.87383525615
-1.58878400077
-1.3234484966
-1.10007135098
-0.907356926423
0.463200300701
0.441985825884
0.411053835394
0.373183257829
0.330362699458
0.281248514811
0.22361870975
0.159584352414
0.102533496433
0.0815045215729
0.583743256171
0.579366207128
0.565997867957
0.544519124496
0.517025587166
0.48314602006
0.441563787897
0.394173667677
0.351977238253
0.336869235368
0.706323667564
0.70632032091
0.70077392981
0.689861625554
0.674393907565
0.653703751315
0.626534714268
0.594233905824
0.565493999801
0.555684746866
0.816027838037
0.820305877644
0.821552335135
0.81929977607
0.813599306926
0.803603255426
0.78818337167
0.768229106265
0.750540421551
0.744941859264
0.908176890263
0.915942557412
0.922380157231
0.926817927739
0.92877318753
0.927348357498
0.921442137999
0.91158653535
0.90293424944
0.900713971659
0.980047997974
0.990997398622
1.00195140589
1.01192224619
1.02007403478
1.02548730096
1.02718570666
1.02530142041
1.0232561784
1.02468633627
1.03143582748
1.04487525869
1.05930521374
1.07346750613
1.08626895258
1.09682912939
1.10423889932
1.10826201055
1.11094388116
1.11502831118
1.0627181996
1.07771268987
1.09441008363
1.11133593039
1.12721235795
1.14116013499
1.15231581997
1.16020978093
1.16600146747
1.17157044979
1.07383371721
1.08941937855
1.10711235233
1.12532549389
1.14266412034
1.15822304839
1.17118433032
1.180924854
1.18821907117
1.19438922891
1.06436953626
1.07976275502
1.09735166514
1.11544906614
1.13261731403
1.14800780711
1.1608087202
1.17039871782
1.17742502635
1.18330373556
-2.39326278043
-2.47055899592
-2.56755801673
-2.68620752217
-2.82990477853
-3.00196142417
-3.205759665
-3.41260138272
-3.60276812918
-3.63128293398
-2.13393282147
-2.21248492151
-2.30851378789
-2.42393202432
-2.56298292855
-2.72942140582
-2.92234972592
-3.13055233321
-3.33891068403
-3.36841055152
-1.81330635854
-1.89015000446
-1.98382654082
-2.0955573653
-2.22890807373
-2.38694134989
-2.57104042212
-2.77796711916
-2.98703399332
-3.02704596374
-1.45216446221
-1.52825511688
-1.62014312257
-1.72852104956
-1.85629466603
-2.00679116711
-2.18249977089
-2.37987524091
-2.56820431394
-2.62519373976
-1.07958142464
-1.15680575242
-1.24717591047
-1.35126705186
-1.47188699897
-1.61253849195
-1.7757313341
-1.95740407872
-2.12798572708
-2.18806260247
-0.730299610764
-0.805462550802
-0.890973747657
-0.987314244224
-1.09731445041
-1.22449324881
-1.37130992819
-1.53367050344
-1.684678328
-1.74127445549
-0.420066683712
-0.487667989514
-0.563605606609
-0.648174930263
-0.744245165715
-0.855269344853
-0.983467406183
-1.12485952728
-1.25511582641
-1.30518105452
-0.138285119627
-0.19576054072
-0.260777451265
-0.332803453123
-0.414769372493
-0.510170970135
-0.620814937545
-0.742612024985
-0.853488770228
-0.896233784593
0.129165393327
0.0809752579963
0.022679101952
-0.0417218864965
-0.113863906398
-0.197224808693
-0.293434913466
-0.398360281093
-0.492214303086
-0.527933533887
0.356253346157
0.315104839352
0.260258335117
0.200557000594
0.13696593399
0.0663198503598
-0.0137510480503
-0.100108973754
-0.176278358866
-0.204744927716
0.941739423847
0.988664339499
0.95620026542
0.768650571076
0.82618746414
0.832341106453
0.826319015244
0.824153853788
0.786594139553
0.631670845531
0.927691529096
0.984342983162
0.957487143262
0.772414627258
0.822771909556
0.832377930795
0.829557785229
0.834994378977
0.816100430201
0.719215011591
0.915179093001
0.979577573036
0.957663419009
0.775773139276
0.819263783158
0.831516548208
0.832810388224
0.844758585158
0.842189010779
0.806910069329
0.904062195262
0.974527589013
0.95678138956
0.778440205665
0.81571628004
0.82983487118
0.834474803579
0.851914970358
0.862166081735
0.874542075346
0.894101570563
0.969306521078
0.954978891444
0.780197584098
0.812094946788
0.827307550801
0.834732193193
0.856301779342
0.877550927824
0.926762766063
0.885100683609
0.964031667944
0.952377285477
0.780938386607
0.808334573319
0.823998543087
0.833613436749
0.858174069468
0.889798907038
0.963433813341
0.876874108918
0.95880767578
0.949136012877
0.780551936301
0.80432643837
0.81997301615
0.831107126615
0.857212877087
0.896706732156
0.988111390311
0.869306544671
0.953700731925
0.945398670283
0.7790583985
0.799987828595
0.815226692385
0.827195946246
0.85359837917
0.89780203508
1.00184435266
0.862259963751
0.948750343368
0.941276341944
0.776432981109
0.795217699704
0.809771694392
0.821828377873
0.847547268657
0.89364875008
1.00426729235
0.855672787798
0.943998815124
0.936875000438
0.772734773316
0.789993103278
0.803588564941
0.814976121636
0.839115040125
0.884447519553
0.994701017421
1.07707189935
1.00551328351
0.958959442823
0.765422720787
0.828976003053
0.82602984913
0.806202504825
0.780725088709
0.687883947895
0.500004354177
1.0176086397
0.99817866479
0.958286891215
0.767384996125
0.828046904816
0.827161111676
0.807806055968
0.783761120942
0.694213260341
0.502841767353
0.998740759068
0.997606722424
0.960267525168
0.767177666656
0.828179796036
0.828416860215
0.810822163837
0.789698505494
0.708515047788
0.507785205072
0.976665289377
0.9953271935
0.958742057907
0.76694307958
0.828238071762
0.829742735761
0.814946444752
0.798206759044
0.728205843242
0.524554839135
0.957696242756
0.992278909773
0.956448858389
0.76669293823
0.82809384193
0.831072166673
0.819792100975
0.809057625005
0.752514782851
0.544734517382
0.147882225552
0.00650188475546
-0.191450602631
-0.468090966729
-0.804841337261
-1.15979011362
-1.49922289973
-1.81225716862
-2.09905852646
-2.33659792663
0.140777819545
0.00153463281283
-0.186260629707
-0.449957318819
-0.774323911658
-1.12631040211
-1.47312604276
-1.79724382322
-2.09086482269
-2.33285379247
0.168003413982
0.0186563463183
-0.174086703454
-0.431068153887
-0.743911203085
-1.09368447536
-1.45112240785
-1.78687393079
-2.08693790355
-2.33297085945
0.228072524052
0.0545569621625
-0.157714782543
-0.414699960626
-0.718998448659
-1.06685787989
-1.4329852721
-1.78030526571
-2.08796656866
-2.33919781516
0.313897763154
0.111302100188
-0.131702662194
-0.399136817398
-0.702504634264
-1.04972154579
-1.4210096718
-1.77802286254
-2.09476596738
-2.35330327502
)
;

boundaryField
{
    left
    {
        type            zeroGradient;
    }
    right
    {
        type            fixedValue;
        value           uniform 0;
    }
    down
    {
        type            zeroGradient;
    }
    up
    {
        type            zeroGradient;
    }
    cylinder
    {
        type            zeroGradient;
    }
    defaultFaces
    {
        type            empty;
    }
}


// ************************************************************************* //
