/*--------------------------------*- C++ -*----------------------------------*\
  =========                 |
  \\      /  F ield         | OpenFOAM: The Open Source CFD Toolbox
   \\    /   O peration     | Website:  https://openfoam.org
    \\  /    A nd           | Version:  13
     \\/     M anipulation  |
\*---------------------------------------------------------------------------*/
FoamFile
{
    format      ascii;
    class       volScalarField;
    location    "0.115";
    object      p;
}
// * * * * * * * * * * * * * * * * * * * * * * * * * * * * * * * * * * * * * //

dimensions      [0 2 -2 0 0 0 0];

internalField   nonuniform List<scalar> 
440
(
8.74891
11.5009
13.8429
13.9817
10.9698
21.5937
24.975
27.9629
28.6457
26.7366
42.102
45.1327
47.8333
48.6197
47.4492
68.2234
70.321
72.2335
72.8878
72.196
97.4974
98.3138
99.11
99.509
99.4736
0.469629
0.293416
0.681865
1.21381
1.56659
-0.530802
-1.32058
-1.20892
-0.61419
-0.00466769
-0.879586
-1.81857
-1.86822
-1.2363
-0.170732
0.382481
0.241821
0.583321
1.45842
3.27102
4.08163
5.39142
6.79041
8.1639
10.3678
2.89553
3.27313
2.20298
1.29451
0.438265
1.80099
3.06929
2.10189
1.23801
0.423762
0.615091
2.67066
1.99429
1.19631
0.41375
0.335063
2.12789
1.84024
1.16595
0.408558
2.31926
1.61481
1.62768
1.13812
0.408005
5.34546
1.44844
1.36061
1.09048
0.407259
7.58926
1.61541
1.31026
1.0975
0.406286
10.7983
3.29211
1.95744
1.24317
0.401174
14.7565
5.80817
3.06091
1.47301
0.395365
17.5505
8.30854
4.29609
1.79834
0.453383
101.514
76.6609
54.1414
33.9664
13.1879
103.213
79.7645
58.353
39.869
24.3023
105.109
83.5244
63.2928
46.0442
33.6895
105.99
85.8444
67.3278
52.0118
41.4913
105.908
85.5642
67.1501
52.0791
41.7429
220.718
217.25
216.956
219.072
221.806
203.515
201.056
201.316
204.058
207.35
181.37
179.601
179.964
182.387
185.266
155.573
154.232
154.437
156.031
157.929
127.693
126.98
126.92
127.381
127.974
236.265
236.673
237.241
237.557
237.211
236.981
237.579
238.05
237.931
236.92
235.888
236.835
237.196
236.877
235.868
230.997
232.585
233.134
233.266
233.174
222.464
224.325
225.337
226.551
227.91
237.524
235.72
235.761
234.701
234.949
237.475
235.704
235.755
234.696
235.629
237.475
235.67
235.742
234.84
236.275
237.521
235.615
235.761
235.078
235.887
237.604
235.547
235.824
235.234
233.133
237.739
235.477
235.872
234.972
229.45
237.992
235.416
235.793
234.698
227.167
238.71
235.237
235.132
233.032
224.177
242.357
235.2
233.931
230.362
220.378
251.185
235.845
232.862
227.71
217.549
218.552
197.04
175.847
152.561
127.275
208.2
192.208
173.162
151.258
127.485
199.747
187.056
169.456
148.918
127.159
192.525
181.579
165.906
147.078
126.741
192.285
181.555
166.164
147.48
126.973
97.2072
96.3305
95.8827
95.1158
94.9593
58.126
56.1786
54.4722
52.5503
51.784
30.2982
27.9526
25.1886
22.891
21.5653
15.849
13.4297
10.9699
8.95738
7.98468
9.97922
8.09693
6.73803
5.78731
5.19681
6.65357
5.57161
5.05002
5.00943
5.11819
4.62327
4.20728
4.20383
4.41881
4.60765
3.27133
3.33557
3.63348
3.97724
4.15946
2.37285
2.6728
3.1372
3.49551
3.65808
1.49297
1.78264
2.30252
2.71136
2.91202
4.51558
3.98504
2.86078
1.61175
0.525913
4.54324
3.82668
2.76967
1.56592
0.515232
4.30601
3.60329
2.63817
1.51416
0.50106
3.9905
3.43287
2.48175
1.44121
0.479218
3.5799
3.34992
2.33025
1.36486
0.457302
5.37372
3.92819
2.7228
1.56381
0.51315
4.67519
4.05458
2.85463
1.62438
0.530198
95.7149
54.9568
28.3235
15.3043
10.2899
94.4937
51.9457
23.7919
10.2759
6.07577
232.951
233.048
233.035
232.571
231.518
233.597
233.793
234.065
234.158
233.828
234.146
234.328
234.731
235.165
235.373
234.643
234.807
235.213
235.802
236.21
235.308
235.556
236.042
236.574
236.747
142.792
142.601
141.772
141.262
140.351
186.029
185.219
183.24
181.473
179.496
216.327
214.956
212.607
209.793
207.417
229.954
228.944
226.9
224.409
221.963
232.8
232.181
231.228
229.872
227.983
240.191
235.506
235.494
234.363
233.635
238.687
235.567
235.562
234.534
233.718
238.072
235.65
235.64
234.723
234.014
237.79
235.702
235.697
234.817
234.298
237.626
235.721
235.737
234.784
234.553
253.431
236.78
235.929
234.373
232.731
244.377
235.738
235.464
234.259
233.422
227.741
222.67
209.564
182.849
142.042
231.943
227.707
214.123
185.874
143.265
)
;

boundaryField
{
    left
    {
        type            zeroGradient;
    }
    right
    {
        type            fixedValue;
        value           uniform 0;
    }
    down
    {
        type            zeroGradient;
    }
    up
    {
        type            zeroGradient;
    }
    cylinder
    {
        type            zeroGradient;
    }
    defaultFaces
    {
        type            empty;
    }
}


// ************************************************************************* //
