/*--------------------------------*- C++ -*----------------------------------*\
  =========                 |
  \\      /  F ield         | OpenFOAM: The Open Source CFD Toolbox
   \\    /   O peration     | Website:  https://openfoam.org
    \\  /    A nd           | Version:  13
     \\/     M anipulation  |
\*---------------------------------------------------------------------------*/
FoamFile
{
    format      ascii;
    class       volScalarField;
    location    "2.05";
    object      p;
}
// * * * * * * * * * * * * * * * * * * * * * * * * * * * * * * * * * * * * * //

dimensions      [0 2 -2 0 0 0 0];

internalField   nonuniform List<scalar> 
1800
(
-1.56671
-1.56019
-1.55092
-1.53979
-1.53074
-1.52728
-1.53144
-1.54441
-1.56315
-1.60081
-1.59663
-1.58896
-1.58013
-1.57053
-1.5625
-1.55797
-1.55738
-1.56006
-1.56389
-1.57482
-1.64615
-1.63694
-1.62761
-1.61824
-1.60974
-1.60201
-1.59393
-1.58395
-1.5718
-1.55861
-1.71253
-1.70113
-1.69012
-1.67917
-1.66706
-1.6519
-1.63199
-1.60676
-1.57641
-1.54337
-1.79452
-1.7809
-1.76724
-1.75207
-1.73199
-1.70448
-1.669
-1.62675
-1.58008
-1.53225
-1.88951
-1.87378
-1.85578
-1.83247
-1.79921
-1.75481
-1.70125
-1.64203
-1.58036
-1.51932
-1.99125
-1.97356
-1.94867
-1.91244
-1.86122
-1.79689
-1.72465
-1.64956
-1.57525
-1.50445
-2.09023
-2.07018
-2.03521
-1.98163
-1.90907
-1.8238
-1.73358
-1.64396
-1.55806
-1.47756
-2.17437
-2.15094
-2.10297
-2.02907
-1.93412
-1.82901
-1.72288
-1.62093
-1.5255
-1.4375
-2.23094
-2.20282
-2.14005
-2.04481
-1.92885
-1.80651
-1.68711
-1.57491
-1.4713
-1.37637
-0.978156
-0.984578
-0.992657
-1.00312
-1.01659
-1.03186
-1.04739
-1.06117
-1.06911
-1.0665
-1.12378
-1.12878
-1.13583
-1.14673
-1.16211
-1.18051
-1.20009
-1.21873
-1.23188
-1.23292
-1.27801
-1.28131
-1.28697
-1.2986
-1.31647
-1.33877
-1.36332
-1.38791
-1.40822
-1.41596
-1.41667
-1.41795
-1.42172
-1.43392
-1.45401
-1.47984
-1.50883
-1.53864
-1.56599
-1.58189
-1.52003
-1.51796
-1.51986
-1.53107
-1.55129
-1.57843
-1.60958
-1.64198
-1.67281
-1.69297
-1.579
-1.57333
-1.57185
-1.57946
-1.59636
-1.62107
-1.65104
-1.68336
-1.71479
-1.73699
-1.59718
-1.58889
-1.58327
-1.58449
-1.59385
-1.61134
-1.63564
-1.66435
-1.69445
-1.71838
-1.58861
-1.57962
-1.5707
-1.56481
-1.56452
-1.5718
-1.58711
-1.60915
-1.63544
-1.65773
-1.57078
-1.56265
-1.55236
-1.54168
-1.53424
-1.53367
-1.54199
-1.55909
-1.58322
-1.60401
-1.55953
-1.55234
-1.54232
-1.5302
-1.52023
-1.51657
-1.52187
-1.53642
-1.55723
-1.57383
-0.9728
-0.255677
-0.0281925
0.112223
0.100916
0.0809754
0.0596411
0.0406406
0.0235187
0.00797307
-1.1024
-0.324509
-0.0514326
0.102343
0.0966111
0.0782131
0.0576575
0.0392429
0.0226827
0.00764306
-1.2588
-0.408401
-0.0845406
0.0866601
0.0901157
0.0743132
0.0550586
0.0375268
0.0216952
0.00726396
-1.41554
-0.494453
-0.125776
0.0654059
0.0812359
0.069204
0.0518165
0.0354763
0.0205471
0.00683391
-1.55112
-0.577592
-0.171921
0.0390668
0.0697731
0.062816
0.0479082
0.0330782
0.0192314
0.00635214
-1.65512
-0.656253
-0.220116
0.00839552
0.0556445
0.0551077
0.0433228
0.0303255
0.017745
0.00581909
-1.71936
-0.731886
-0.269039
-0.0255387
0.0389477
0.0460903
0.0380669
0.027221
0.0160909
0.0052382
-1.74296
-0.805926
-0.318236
-0.0616224
0.0199319
0.0358069
0.0321481
0.023768
0.0142738
0.00461716
-1.72533
-0.875801
-0.367114
-0.0985633
-0.000975381
0.0243124
0.025544
0.0199444
0.0122796
0.00396198
-1.66803
-0.938003
-0.414853
-0.134748
-0.0228597
0.0118682
0.0183063
0.0157378
0.0100797
0.00326936
-1.54599
-0.92099
-0.428708
-0.160901
-0.0454518
-0.00343212
0.00865525
0.00989436
0.00696413
0.00231486
-1.30782
-0.832944
-0.418902
-0.180837
-0.0694985
-0.0217525
-0.00338717
0.0024429
0.00302999
0.00106254
-1.13502
-0.766768
-0.416099
-0.196998
-0.0881689
-0.0368686
-0.0138504
-0.00421105
-0.000536649
-6.70182e-05
-1.0015
-0.710228
-0.415286
-0.217159
-0.111128
-0.0547574
-0.025513
-0.0112322
-0.00416661
-0.00122553
-0.89898
-0.670764
-0.421761
-0.237526
-0.129884
-0.0691366
-0.0353245
-0.0173284
-0.00736093
-0.00222759
-0.818492
-0.642618
-0.432862
-0.261434
-0.150943
-0.0843434
-0.0451037
-0.0231082
-0.0102865
-0.00312224
-0.754614
-0.625919
-0.450896
-0.287877
-0.170824
-0.0973552
-0.0532254
-0.0278266
-0.0126404
-0.00380201
-0.706925
-0.619145
-0.472328
-0.313899
-0.189147
-0.108537
-0.0599387
-0.0316137
-0.0144578
-0.00426713
-0.678895
-0.620721
-0.488127
-0.329947
-0.200136
-0.114925
-0.0636311
-0.0336066
-0.0153106
-0.00442032
-0.664344
-0.623872
-0.496143
-0.336542
-0.205519
-0.118417
-0.0658339
-0.0348995
-0.0160325
-0.00463394
-1.21273
-1.28192
-1.33255
-1.37396
-1.40281
-1.43602
-1.46546
-1.51683
-1.55637
-1.62982
-1.02772
-1.10044
-1.15697
-1.20597
-1.24273
-1.27897
-1.30654
-1.33769
-1.36523
-1.40316
-0.881347
-0.951934
-1.01065
-1.0597
-1.09889
-1.13053
-1.15558
-1.17573
-1.19523
-1.21382
-0.761852
-0.829513
-0.887622
-0.934966
-0.973886
-1.00317
-1.02686
-1.04395
-1.05926
-1.07153
-0.665361
-0.730028
-0.785795
-0.83155
-0.869072
-0.89783
-0.920423
-0.936691
-0.948916
-0.957018
-0.58779
-0.649585
-0.702749
-0.74687
-0.78273
-0.810682
-0.831859
-0.846888
-0.856798
-0.862234
-0.526356
-0.585599
-0.63648
-0.678674
-0.712749
-0.739092
-0.758643
-0.772023
-0.780311
-0.784132
-0.480136
-0.537357
-0.586448
-0.626624
-0.658935
-0.683174
-0.701138
-0.712547
-0.719556
-0.721461
-0.452214
-0.508504
-0.556257
-0.595074
-0.626253
-0.649118
-0.665886
-0.675494
-0.681395
-0.681092
-0.439323
-0.495875
-0.544027
-0.58367
-0.614951
-0.638233
-0.654542
-0.663849
-0.66838
-0.665343
0.329766
0.256985
0.173628
0.0843186
-0.0122275
-0.118462
-0.234317
-0.353351
-0.453656
-0.502943
0.115425
0.0363874
-0.0517683
-0.148281
-0.255025
-0.373704
-0.503242
-0.635497
-0.745817
-0.798831
-0.119753
-0.202267
-0.293589
-0.394933
-0.508486
-0.635592
-0.774583
-0.916072
-1.03346
-1.08827
-0.346645
-0.433394
-0.529748
-0.637239
-0.757767
-0.89235
-1.03901
-1.18748
-1.30936
-1.36378
-0.553657
-0.645889
-0.748586
-0.863014
-0.990756
-1.13264
-1.286
-1.44041
-1.56168
-1.61557
-0.740713
-0.838497
-0.947193
-1.06785
-1.20178
-1.34948
-1.50851
-1.66221
-1.78117
-1.83398
-0.90761
-1.00993
-1.12329
-1.2484
-1.38651
-1.53746
-1.69618
-1.8471
-1.96106
-2.011
-1.05655
-1.16122
-1.27618
-1.40253
-1.54122
-1.69129
-1.84637
-1.99029
-2.09534
-2.14078
-1.18738
-1.29042
-1.40357
-1.52786
-1.66358
-1.8087
-1.95559
-2.08745
-2.18019
-2.22004
-1.29459
-1.39426
-1.50352
-1.62301
-1.75222
-1.888
-2.02164
-2.13682
-2.21499
-2.2488
1.74194
1.75602
1.7705
1.78429
1.79653
1.80654
1.81365
1.81788
1.82135
1.82539
1.66526
1.67617
1.68675
1.69597
1.70313
1.70753
1.70851
1.70637
1.70429
1.70503
1.56787
1.57468
1.5802
1.58355
1.58422
1.58152
1.57478
1.56463
1.5555
1.55219
1.45122
1.45339
1.45283
1.449
1.44167
1.43015
1.41382
1.39371
1.3758
1.36776
1.31512
1.31166
1.3041
1.2922
1.27598
1.25469
1.22773
1.19655
1.16876
1.15546
1.16306
1.15383
1.13834
1.117
1.0903
1.05754
1.01824
0.974434
0.935597
0.916301
0.995158
0.979586
0.956031
0.925235
0.887833
0.843086
0.790612
0.733172
0.682448
0.656873
0.820118
0.797182
0.763435
0.720883
0.670833
0.612611
0.545921
0.474181
0.411297
0.379343
0.642931
0.612468
0.567977
0.512759
0.448773
0.375428
0.292708
0.205083
0.129178
0.0908558
0.477953
0.429784
0.367735
0.296669
0.217606
0.128951
0.0304667
-0.0725417
-0.160769
-0.204892
1.49258
1.46622
1.46443
1.46172
1.45865
1.46802
1.48847
1.52519
1.58482
1.67951
1.48547
1.46032
1.45862
1.45482
1.4507
1.45707
1.47428
1.50464
1.55331
1.63002
1.47892
1.4544
1.45266
1.44748
1.44214
1.44508
1.45865
1.48101
1.5162
1.56889
1.47289
1.44848
1.44659
1.43974
1.43299
1.43201
1.44165
1.45417
1.47391
1.49537
1.46736
1.44263
1.44042
1.43164
1.42325
1.41783
1.42332
1.42387
1.4271
1.40832
1.46234
1.43685
1.43418
1.42323
1.41292
1.40255
1.40365
1.39005
1.37602
1.3069
1.45782
1.4312
1.42786
1.41454
1.40198
1.38625
1.38254
1.35263
1.32081
1.18948
1.45384
1.42567
1.42148
1.4056
1.39043
1.36904
1.35983
1.31182
1.26121
1.05741
1.45042
1.42031
1.41505
1.39646
1.3783
1.35108
1.33533
1.2678
1.1955
0.908749
1.44763
1.41512
1.40856
1.3871
1.36576
1.33255
1.30997
1.22219
1.12629
0.755012
1.44482
1.4091
1.40029
1.37546
1.3489
1.30848
1.27521
1.16649
1.04692
0.609032
1.4433
1.40289
1.39112
1.36264
1.33014
1.28319
1.23709
1.11827
0.97066
0.581953
1.44374
1.3976
1.38227
1.35042
1.31192
1.26042
1.20126
1.07954
0.90958
0.568239
1.44675
1.39323
1.37368
1.33875
1.29422
1.24077
1.16822
1.04903
0.861046
0.563281
1.45288
1.38984
1.36524
1.32748
1.27687
1.22428
1.13825
1.02627
0.824571
0.563847
1.46281
1.38746
1.3573
1.31693
1.26021
1.2108
1.1124
1.01032
0.798326
0.564047
1.47614
1.3845
1.34761
1.30479
1.24409
1.19973
1.09089
0.999132
0.780456
0.563658
1.50093
1.38612
1.34145
1.29495
1.23027
1.19094
1.07384
0.991783
0.769191
0.563842
1.51285
1.37789
1.32803
1.28251
1.21927
1.18476
1.06245
0.98821
0.764146
0.565957
1.58876
1.39098
1.3308
1.2782
1.21525
1.18179
1.0568
0.987567
0.761606
0.569301
0.313796
0.138098
-0.0699063
-0.270871
-0.453257
-0.618105
-0.767779
-0.904233
-1.02355
-1.12773
0.263889
0.125166
-0.0329454
-0.192334
-0.342395
-0.481668
-0.611042
-0.732189
-0.842644
-0.942977
0.250526
0.133256
0.00601591
-0.125635
-0.254635
-0.378178
-0.495478
-0.60592
-0.70785
-0.800093
0.266465
0.157569
0.0434181
-0.071597
-0.185197
-0.295728
-0.4021
-0.502992
-0.597506
-0.683902
0.287344
0.184362
0.0785718
-0.0256539
-0.127835
-0.228103
-0.325927
-0.42008
-0.509185
-0.591163
0.307847
0.210215
0.110955
0.0142423
-0.0800378
-0.173086
-0.264829
-0.354097
-0.438921
-0.517205
0.326616
0.233994
0.14012
0.0487098
-0.0405501
-0.129022
-0.216659
-0.302205
-0.383526
-0.458668
0.343338
0.255286
0.165905
0.078038
-0.00855816
-0.094748
-0.180133
-0.263304
-0.342126
-0.41474
0.358167
0.274007
0.18817
0.102054
0.0158242
-0.0703379
-0.155355
-0.237735
-0.315652
-0.387542
0.370446
0.288617
0.204176
0.117494
0.0298343
-0.0574702
-0.142967
-0.225355
-0.30306
-0.374808
-1.15137
-1.11726
-1.04413
-0.951207
-0.85631
-0.769521
-0.69472
-0.633047
-0.584859
-0.550634
-1.19435
-1.16413
-1.10374
-1.02539
-0.94279
-0.865609
-0.798268
-0.742378
-0.698922
-0.669104
-1.17779
-1.15068
-1.1038
-1.04286
-0.976091
-0.911561
-0.853911
-0.805221
-0.766971
-0.740587
-1.11542
-1.09073
-1.05587
-1.01238
-0.963257
-0.913807
-0.868172
-0.828609
-0.796777
-0.774052
-1.02694
-1.00465
-0.978886
-0.949562
-0.916417
-0.881738
-0.848262
-0.817847
-0.792059
-0.77162
-0.932711
-0.913434
-0.893908
-0.873977
-0.852562
-0.830081
-0.807868
-0.786996
-0.768941
-0.754713
-0.847915
-0.832601
-0.817519
-0.802749
-0.787887
-0.773082
-0.758833
-0.745728
-0.733939
-0.723103
-0.779987
-0.769201
-0.757974
-0.746113
-0.733958
-0.722273
-0.712225
-0.704066
-0.700205
-0.699769
-0.728337
-0.721894
-0.713994
-0.703732
-0.69223
-0.681298
-0.673132
-0.670014
-0.671122
-0.68564
-0.69173
-0.688249
-0.68143
-0.671079
-0.658773
-0.647354
-0.640418
-0.642807
-0.653972
-0.692595
-0.679215
-0.675731
-0.668167
-0.656026
-0.641997
-0.629565
-0.622371
-0.624091
-0.635673
-0.653231
-0.694059
-0.688791
-0.68107
-0.670856
-0.65986
-0.650929
-0.64699
-0.650453
-0.663332
-0.681405
-0.719516
-0.71378
-0.708416
-0.704352
-0.702601
-0.704505
-0.71119
-0.723309
-0.741087
-0.759612
-0.739933
-0.736176
-0.734765
-0.737322
-0.744428
-0.756421
-0.77336
-0.795004
-0.820304
-0.842628
-0.746841
-0.746582
-0.748929
-0.755694
-0.767351
-0.783794
-0.804629
-0.829302
-0.856718
-0.879289
-0.741161
-0.744232
-0.749391
-0.757785
-0.770136
-0.78631
-0.805838
-0.827904
-0.850564
-0.871323
-0.73455
-0.740056
-0.747111
-0.756144
-0.767964
-0.782324
-0.798529
-0.815495
-0.831472
-0.845411
-0.743379
-0.750553
-0.75904
-0.768715
-0.780401
-0.793619
-0.807431
-0.820518
-0.830833
-0.837156
-0.782792
-0.790334
-0.799272
-0.809451
-0.8214
-0.834375
-0.847235
-0.858416
-0.865236
-0.865756
-0.861133
-0.868481
-0.877289
-0.887587
-0.899971
-0.913456
-0.926699
-0.937921
-0.943739
-0.94104
-0.780727
-0.664853
-0.40288
-0.148784
0.0107094
0.0565806
0.0559648
0.0437115
0.0272444
0.00972209
-0.856001
-0.639713
-0.318207
-0.0803246
0.0368874
0.0627407
0.0569791
0.0434895
0.0268468
0.00954838
-0.919754
-0.601727
-0.239205
-0.0226529
0.0574498
0.0680831
0.0582307
0.0435039
0.0265763
0.00941049
-0.990531
-0.555056
-0.173179
0.0208661
0.0721571
0.0725351
0.0595214
0.0436041
0.0263575
0.00928534
-1.00076
-0.494323
-0.121107
0.0517298
0.0828402
0.0763173
0.0606798
0.0436749
0.0261405
0.00916014
-0.961518
-0.412478
-0.0775132
0.0757334
0.0912026
0.0794378
0.0615804
0.0436522
0.0258985
0.00902711
-0.896053
-0.319111
-0.0431368
0.0944743
0.097431
0.0816913
0.0621217
0.0434853
0.0256064
0.00887765
-0.851316
-0.246452
-0.0211888
0.10746
0.101463
0.0829936
0.0622422
0.0431333
0.0252414
0.00870385
-0.845926
-0.211987
-0.0123204
0.114698
0.103346
0.083324
0.0618959
0.0425612
0.0247833
0.00849893
-0.885805
-0.215724
-0.0150391
0.116301
0.103151
0.0826625
0.0610418
0.0417391
0.0242143
0.008257
-0.540802
-0.595524
-0.532532
-0.270859
-0.0496627
0.0383874
0.0530709
0.0441926
0.0280809
0.010124
-0.532675
-0.59093
-0.538819
-0.276664
-0.0503217
0.0393161
0.0533442
0.0441353
0.0279527
0.0100583
-0.563564
-0.604962
-0.542174
-0.277466
-0.0482523
0.0407058
0.0533714
0.043908
0.0277656
0.00999009
-0.629851
-0.629942
-0.527074
-0.265273
-0.0384601
0.0438683
0.0536659
0.0437312
0.0276163
0.00992506
-0.714274
-0.65822
-0.471703
-0.209959
-0.0160055
0.0500014
0.0549045
0.0438639
0.0275623
0.00987989
-0.517759
-0.631505
-0.706985
-0.746617
-0.757104
-0.741403
-0.729155
-0.685237
-0.655453
-0.610273
-0.518211
-0.633572
-0.70741
-0.745785
-0.75089
-0.736573
-0.721283
-0.674183
-0.652354
-0.602281
-0.52022
-0.636648
-0.709161
-0.74674
-0.74603
-0.738132
-0.710413
-0.679822
-0.658566
-0.625863
-0.525379
-0.64328
-0.715371
-0.751698
-0.748389
-0.742842
-0.707211
-0.695651
-0.676538
-0.689501
-0.534432
-0.654212
-0.726347
-0.760768
-0.758008
-0.746366
-0.714479
-0.704259
-0.689701
-0.751069
1.48394
1.47623
1.46217
1.44462
1.42442
1.40065
1.37269
1.34235
1.31719
1.30603
1.56926
1.5726
1.5698
1.56278
1.55267
1.53901
1.52139
1.50126
1.48463
1.47786
1.65082
1.65879
1.66231
1.66267
1.66068
1.65594
1.64792
1.63744
1.62886
1.62622
1.72081
1.73275
1.74211
1.74932
1.75463
1.75756
1.75748
1.75481
1.75269
1.75371
1.77857
1.79355
1.80693
1.81881
1.8292
1.83758
1.84332
1.84658
1.84953
1.85344
1.8197
1.83658
1.85304
1.86871
1.88325
1.8961
1.9066
1.91459
1.92146
1.92771
1.84369
1.86177
1.88013
1.89812
1.91515
1.93063
1.94391
1.95467
1.96392
1.97161
1.84852
1.8669
1.88605
1.90508
1.92323
1.93988
1.95435
1.96626
1.97645
1.9847
1.83353
1.85137
1.87017
1.88886
1.90658
1.92271
1.93654
1.94776
1.95733
1.96517
1.79811
1.81455
1.8318
1.84874
1.8645
1.87841
1.88979
1.89844
1.90577
1.9122
-0.38487
-0.424979
-0.477804
-0.543834
-0.623698
-0.716747
-0.819935
-0.923282
-1.0063
-1.04417
-0.178626
-0.22419
-0.281254
-0.350505
-0.432995
-0.528849
-0.636877
-0.746784
-0.836533
-0.8768
0.0560632
0.00563907
-0.0551547
-0.126708
-0.210237
-0.306383
-0.41375
-0.523952
-0.61928
-0.660368
0.30019
0.24662
0.183924
0.112005
0.0297187
-0.0637269
-0.167262
-0.274496
-0.366352
-0.408781
0.535457
0.48153
0.419888
0.350602
0.272609
0.1849
0.0880937
-0.012133
-0.0970977
-0.137755
0.748516
0.697989
0.641103
0.577947
0.507448
0.428455
0.341342
0.251185
0.175141
0.138275
0.936612
0.892817
0.843773
0.78945
0.728701
0.660322
0.584581
0.506063
0.440142
0.40822
1.10674
1.0707
1.03029
0.985438
0.934856
0.877332
0.813128
0.746388
0.690695
0.664037
1.26653
1.23692
1.20297
1.16563
1.12373
1.07601
1.02265
0.96724
0.921423
0.899931
1.40491
1.38114
1.35208
1.32116
1.28775
1.2504
1.20877
1.16545
1.12986
1.11356
1.61155
1.50804
1.50074
1.49498
1.49937
1.52332
1.54683
1.58341
1.60071
1.57305
1.5939
1.50691
1.50043
1.4955
1.49872
1.52215
1.54725
1.58712
1.61818
1.62492
1.5779
1.50466
1.49896
1.49495
1.4973
1.51998
1.5467
1.5906
1.63529
1.67562
1.56344
1.50153
1.49657
1.49344
1.49508
1.51684
1.54482
1.59149
1.64734
1.71366
1.55035
1.49769
1.49342
1.49106
1.49211
1.51278
1.54143
1.58993
1.65454
1.74152
1.53846
1.49328
1.48964
1.48787
1.48836
1.50776
1.53648
1.58585
1.65663
1.7586
1.52762
1.48842
1.48533
1.48393
1.48386
1.50177
1.52997
1.57915
1.65338
1.76493
1.51772
1.4832
1.48057
1.47929
1.47861
1.49481
1.52192
1.56974
1.64462
1.76042
1.50863
1.47772
1.47546
1.474
1.47264
1.48687
1.51232
1.55764
1.63037
1.74473
1.50028
1.47203
1.47006
1.46813
1.46598
1.47794
1.50116
1.54281
1.61048
1.71774
1.77833
1.51139
1.49048
1.48319
1.49314
1.5149
1.52857
1.54843
1.51311
1.48459
1.70408
1.50519
1.49113
1.48526
1.49404
1.51577
1.52921
1.54977
1.51633
1.48166
1.68132
1.50992
1.49545
1.48812
1.4954
1.51743
1.53167
1.55389
1.52701
1.48398
1.65463
1.50961
1.49815
1.49097
1.49705
1.51971
1.53618
1.56158
1.54529
1.49541
1.63141
1.50876
1.49994
1.49337
1.4986
1.52209
1.54156
1.57176
1.56959
1.51426
1.28986
1.20226
1.08262
0.926751
0.73678
0.519377
0.285036
0.0490561
-0.171747
-0.362542
1.28441
1.19961
1.08516
0.934022
0.748795
0.534638
0.300786
0.0622974
-0.163276
-0.359336
1.29565
1.20669
1.0897
0.939921
0.75815
0.546406
0.312434
0.0714665
-0.158106
-0.358383
1.32849
1.22588
1.09795
0.94556
0.765383
0.554864
0.320161
0.0767374
-0.156368
-0.360495
1.38162
1.25846
1.11183
0.951272
0.769373
0.559163
0.324289
0.0790834
-0.157555
-0.366071
)
;

boundaryField
{
    left
    {
        type            zeroGradient;
    }
    right
    {
        type            fixedValue;
        value           uniform 0;
    }
    down
    {
        type            zeroGradient;
    }
    up
    {
        type            zeroGradient;
    }
    cylinder
    {
        type            zeroGradient;
    }
    defaultFaces
    {
        type            empty;
    }
}


// ************************************************************************* //
