# Forces      
# CofR        : (0.000000e+00 0.000000e+00 0.000000e+00)
# Time        forces(pressure viscous)	moments(pressure viscous)
4.615         	((8.399366e+00 -9.797672e-01 5.934000e-19) (1.181415e+00 1.400308e-01 1.389180e-18)) ((1.799457e-19 -3.832860e-19 -2.061966e-07) (4.385121e-18 -2.382298e-19 -2.667242e-02))
4.62          	((8.362053e+00 -3.533603e-01 6.049996e-19) (1.181445e+00 1.391610e-01 1.342978e-18)) ((6.817116e-20 -4.231188e-19 -2.619599e-07) (4.364554e-18 -1.861505e-19 -2.681635e-02))
4.625         	((8.332411e+00 -3.002372e-01 5.951825e-19) (1.181449e+00 1.383652e-01 1.338924e-18)) ((7.086685e-20 -4.119172e-19 -2.556268e-07) (4.354887e-18 -1.793472e-19 -2.694999e-02))
4.63          	((8.331259e+00 -2.608411e-01 5.929661e-19) (1.181441e+00 1.376102e-01 1.334423e-18)) ((7.499543e-20 -4.074728e-19 -2.459781e-07) (4.344601e-18 -1.750116e-19 -2.707665e-02))
4.635         	((8.341817e+00 -2.448399e-01 5.906383e-19) (1.181447e+00 1.368681e-01 1.330506e-18)) ((7.664410e-20 -4.043314e-19 -2.449855e-07) (4.334567e-18 -1.724002e-19 -2.719833e-02))
4.64          	((8.339238e+00 -2.114865e-01 5.912228e-19) (1.181461e+00 1.361632e-01 1.327147e-18)) ((8.024468e-20 -4.035484e-19 -2.356257e-07) (4.325169e-18 -1.710341e-19 -2.731641e-02))
4.645         	((8.350603e+00 -2.082374e-01 5.895209e-19) (1.181498e+00 1.354587e-01 1.323833e-18)) ((8.098447e-20 -4.015414e-19 -2.373378e-07) (4.315830e-18 -1.702775e-19 -2.743188e-02))
4.65          	((8.359932e+00 -2.050873e-01 5.878965e-19) (1.181553e+00 1.347554e-01 1.320152e-18)) ((8.129076e-20 -4.001947e-19 -2.391423e-07) (4.306586e-18 -1.696704e-19 -2.754546e-02))
4.655         	((8.368272e+00 -2.032239e-01 5.860135e-19) (1.181624e+00 1.340535e-01 1.316264e-18)) ((8.114756e-20 -3.990057e-19 -2.409683e-07) (4.297514e-18 -1.692229e-19 -2.765771e-02))
4.66          	((8.378501e+00 -2.021856e-01 5.843308e-19) (1.181712e+00 1.333535e-01 1.312245e-18)) ((8.095183e-20 -3.980770e-19 -2.437546e-07) (4.288547e-18 -1.689501e-19 -2.776908e-02))
4.665         	((8.388183e+00 -2.045370e-01 5.827343e-19) (1.181817e+00 1.326537e-01 1.308125e-18)) ((8.077632e-20 -3.969782e-19 -2.467378e-07) (4.279780e-18 -1.687527e-19 -2.787993e-02))
4.67          	((8.397305e+00 -2.095696e-01 5.811213e-19) (1.181938e+00 1.319520e-01 1.303922e-18)) ((8.045199e-20 -3.958301e-19 -2.500126e-07) (4.271219e-18 -1.685913e-19 -2.799052e-02))
4.675         	((8.406688e+00 -2.177655e-01 5.795493e-19) (1.182074e+00 1.312456e-01 1.299585e-18)) ((7.985409e-20 -3.948124e-19 -2.541234e-07) (4.262846e-18 -1.683707e-19 -2.810108e-02))
4.68          	((8.415663e+00 -2.265872e-01 5.779967e-19) (1.182223e+00 1.305344e-01 1.295236e-18)) ((7.923864e-20 -3.938354e-19 -2.582585e-07) (4.254667e-18 -1.681823e-19 -2.821179e-02))
4.685         	((8.423456e+00 -2.279080e-01 5.764927e-19) (1.182384e+00 1.298278e-01 1.291309e-18)) ((7.932047e-20 -3.926513e-19 -2.602529e-07) (4.246693e-18 -1.684552e-19 -2.832283e-02))
4.69          	((8.431406e+00 -2.338314e-01 5.749160e-19) (1.182555e+00 1.291208e-01 1.287253e-18)) ((7.885776e-20 -3.915976e-19 -2.637013e-07) (4.238891e-18 -1.685754e-19 -2.843432e-02))
4.695         	((8.438664e+00 -2.404033e-01 5.732112e-19) (1.182736e+00 1.284129e-01 1.283100e-18)) ((7.823444e-20 -3.904916e-19 -2.674782e-07) (4.231250e-18 -1.685662e-19 -2.854641e-02))
4.7           	((8.448003e+00 -2.480975e-01 5.717111e-19) (1.182928e+00 1.277031e-01 1.278690e-18)) ((7.767643e-20 -3.895426e-19 -2.717268e-07) (4.223724e-18 -1.682627e-19 -2.865926e-02))
4.705         	((8.456777e+00 -2.569400e-01 5.699799e-19) (1.183130e+00 1.269908e-01 1.273532e-18)) ((7.687722e-20 -3.884683e-19 -2.769201e-07) (4.216235e-18 -1.671653e-19 -2.877310e-02))
4.71          	((8.466087e+00 -2.669342e-01 5.681182e-19) (1.183343e+00 1.262750e-01 1.267239e-18)) ((7.587739e-20 -3.873272e-19 -2.832645e-07) (4.208708e-18 -1.648818e-19 -2.888824e-02))
4.715         	((8.473436e+00 -2.691953e-01 5.675368e-19) (1.183564e+00 1.255620e-01 1.264826e-18)) ((7.587578e-20 -3.871117e-19 -2.834584e-07) (4.202059e-18 -1.663343e-19 -2.900440e-02))
