# Selection   : all
# Cells       : 440
# Volume      : 7.374263e+01
# Time        	max(p)
7.315         	2.496640e+00
7.36          	2.496723e+00
7.41          	2.498039e+00
