/*--------------------------------*- C++ -*----------------------------------*\
  =========                 |
  \\      /  F ield         | OpenFOAM: The Open Source CFD Toolbox
   \\    /   O peration     | Website:  https://openfoam.org
    \\  /    A nd           | Version:  13
     \\/     M anipulation  |
\*---------------------------------------------------------------------------*/
FoamFile
{
    format      ascii;
    class       volScalarField;
    location    "0.89";
    object      p;
}
// * * * * * * * * * * * * * * * * * * * * * * * * * * * * * * * * * * * * * //

dimensions      [0 2 -2 0 0 0 0];

internalField   nonuniform List<scalar> 
440
(
7.82746
10.5838
12.9463
13.1278
10.1514
20.7173
24.1006
27.096
27.7964
25.9082
41.2538
44.2851
46.9882
47.7808
46.6197
67.3866
69.4844
71.3978
72.0544
71.3669
96.6629
97.4798
98.2768
98.6769
98.6433
-0.45079
-0.550887
-0.0794251
0.481956
0.825151
-1.67269
-2.34022
-2.08187
-1.38716
-0.749637
-2.01652
-2.89976
-2.82479
-2.07272
-0.956394
-0.676788
-0.810051
-0.406931
0.554607
2.41795
3.08533
4.39658
5.82517
7.25542
9.50402
2.08726
2.26677
1.33515
0.680314
0.239038
1.06128
2.08114
1.21809
0.621555
0.234673
-0.0914134
1.6706
1.08964
0.575852
0.227121
-0.403252
1.06518
0.879982
0.543808
0.214107
1.50261
0.474101
0.596163
0.485683
0.188283
4.37228
0.245491
0.344953
0.412567
0.142729
6.71867
0.710136
0.447787
0.407718
0.0791422
9.9832
2.44772
1.0915
0.540668
0.0457305
13.8715
4.7461
2.13475
0.823258
0.05683
16.6073
7.10725
3.45458
1.31282
0.163227
100.687
75.8387
53.323
33.1478
12.3447
102.383
78.9414
57.5363
39.0564
23.4825
104.284
82.7009
62.4741
45.234
32.8874
105.166
85.0199
66.5016
51.1823
40.6558
105.085
84.7424
66.3275
51.2499
40.8953
219.867
216.384
216.089
218.204
220.937
202.688
200.22
200.478
203.219
206.511
180.539
178.766
179.129
181.552
184.43
154.74
153.397
153.602
155.196
157.092
126.86
126.146
126.085
126.545
127.138
235.597
236.029
236.672
237.102
236.85
236.157
236.796
237.356
237.337
236.386
234.934
235.91
236.326
236.053
235.067
230.045
231.643
232.205
232.339
232.247
221.564
223.426
224.435
225.642
226.996
235.711
234.731
234.894
234.147
234.28
235.676
234.715
234.841
234.1
234.798
235.663
234.673
234.776
234.207
235.306
235.665
234.606
234.765
234.457
234.891
235.671
234.518
234.833
234.655
232.206
235.688
234.37
234.879
234.428
228.724
235.887
234.229
234.768
233.929
226.353
236.797
234
234.143
232.248
223.332
240.846
233.977
232.966
229.792
219.661
249.818
234.705
231.743
227.248
216.911
217.761
196.234
175.026
151.732
126.445
207.364
191.368
172.323
150.42
126.65
198.875
186.195
168.613
148.086
126.332
191.743
180.783
165.098
146.261
125.919
191.526
180.764
165.353
146.66
126.149
96.3947
95.5179
95.0702
94.3033
94.1467
57.3125
55.3656
53.6602
51.7384
50.9724
29.4815
27.1383
24.3755
22.0763
20.7518
15.0294
12.6128
10.1472
8.12697
7.15639
9.19964
7.31187
5.92508
4.9498
4.36259
5.96903
4.86707
4.28761
4.19921
4.28756
4.05977
3.60064
3.52906
3.68516
3.83895
2.74994
2.73709
2.97162
3.27568
3.43427
1.64985
1.95464
2.40702
2.75809
2.90295
0.605583
1.00174
1.57475
1.97744
2.15209
3.60871
3.17554
2.06204
0.9506
0.26922
3.6622
3.0036
1.96985
0.894858
0.258863
3.46232
2.74078
1.84076
0.844151
0.25166
3.14178
2.49655
1.67768
0.793566
0.247438
2.72714
2.35085
1.49462
0.738813
0.24348
4.47607
3.15798
1.97496
0.995685
0.305452
3.73979
3.25353
2.06405
0.987338
0.283597
94.9022
54.1426
27.5045
14.4806
9.46024
93.681
51.1331
22.981
9.46486
5.25445
232.145
232.226
232.175
231.658
230.58
232.732
232.905
233.134
233.172
232.797
233.295
233.468
233.855
234.253
234.423
233.898
234.05
234.454
235.059
235.479
234.647
234.884
235.39
236.006
236.268
141.979
141.787
140.959
140.449
139.538
185.215
184.406
182.427
180.66
178.683
215.515
214.144
211.795
208.981
206.606
229.152
228.144
226.094
223.596
221.151
232
231.386
230.414
229.031
227.131
238.822
234.446
234.526
233.515
232.898
237.117
234.489
234.614
233.682
232.915
236.348
234.579
234.719
233.906
233.245
235.974
234.661
234.822
234.11
233.627
235.793
234.715
234.89
234.198
233.946
252.264
235.786
234.882
233.452
231.981
243.17
234.692
234.464
233.395
232.701
226.937
221.863
208.755
182.038
141.229
231.134
226.892
213.309
185.061
142.452
)
;

boundaryField
{
    left
    {
        type            zeroGradient;
    }
    right
    {
        type            fixedValue;
        value           uniform 0;
    }
    down
    {
        type            zeroGradient;
    }
    up
    {
        type            zeroGradient;
    }
    cylinder
    {
        type            zeroGradient;
    }
    defaultFaces
    {
        type            empty;
    }
}


// ************************************************************************* //
