/*--------------------------------*- C++ -*----------------------------------*\
  =========                 |
  \\      /  F ield         | OpenFOAM: The Open Source CFD Toolbox
   \\    /   O peration     | Website:  https://openfoam.org
    \\  /    A nd           | Version:  13
     \\/     M anipulation  |
\*---------------------------------------------------------------------------*/
FoamFile
{
    format      ascii;
    class       volScalarField;
    location    "0.89";
    object      strainRateViscosityModel:nu;
}
// * * * * * * * * * * * * * * * * * * * * * * * * * * * * * * * * * * * * * //

dimensions      [0 2 -1 0 0 0 0];

internalField   nonuniform List<scalar> 
440
(
9.41954
8.96974
8.54454
8.04241
7.5862
9.68995
9.35817
8.98178
8.48005
7.87557
9.80074
9.53084
9.15877
8.58509
7.84826
9.84962
9.61817
9.25861
8.64755
7.86606
9.86917
9.65606
9.30591
8.68093
7.90878
1.30851
1.7906
2.04974
2.29973
2.36384
3.38695
3.302
3.31565
3.42352
3.49422
5.89262
5.27132
4.92729
4.72682
4.75639
7.76954
6.99346
6.42025
5.90445
5.82672
8.82063
8.15139
7.55213
6.91816
6.87143
1.85089
0.845872
0.424134
0.166435
0.18152
2.61471
0.906381
0.36864
0.137672
0.0705129
3.51093
1.14547
0.301712
0.104466
0.0185322
4.09064
1.43322
0.275508
0.0554838
0.0885077
4.60357
1.75046
0.320612
0.0114756
0.188592
4.22911
1.73929
0.309114
0.0783028
0.288781
3.71196
1.82507
0.63472
0.307114
0.412676
4.92011
3.20818
1.2433
0.558308
0.521584
7.00948
4.28787
1.91812
0.899468
0.639746
8.27285
5.0759
2.49623
1.30354
0.815072
2.84818
3.68249
4.61957
5.5054
6.14861
3.68376
3.6967
3.77233
3.85234
3.36794
8.22648
8.08652
7.7993
7.38545
6.3465
9.0529
8.99236
8.85903
8.62148
8.16014
9.60671
9.56995
9.48702
9.33805
9.1188
7.5032
8.01245
8.55947
9.01088
9.46416
7.794
8.45168
8.98716
9.37788
9.70863
7.77901
8.55907
9.15943
9.54077
9.80944
7.81628
8.62756
9.25739
9.62275
9.85359
7.89134
8.67365
9.30535
9.65743
9.87034
2.53491
2.47591
2.27592
2.12148
2.05049
3.48081
3.43292
3.47373
3.69408
4.24808
4.63545
4.65883
5.04957
5.5996
6.45241
5.68297
5.8252
6.49709
7.18778
8.04123
6.7529
6.84144
7.58024
8.24265
8.93534
0.212921
0.0624978
0.28532
0.874822
2.02891
0.186207
0.0781231
0.230914
0.89208
2.66102
0.167657
0.0801265
0.172405
1.0818
3.43953
0.155712
0.0612685
0.155591
1.38477
3.94063
0.157018
0.0660248
0.246908
1.73293
4.36341
0.204879
0.10383
0.273444
1.86845
4.09996
0.337778
0.12155
0.28075
1.81638
3.86215
0.668416
0.23868
0.773083
3.03774
4.90856
2.27551
0.813569
1.50845
4.16245
6.96073
5.05777
2.53653
2.41854
5.03746
8.27916
5.94673
5.26581
4.40216
3.51029
2.77975
3.52254
3.99133
3.97111
3.87643
3.76367
6.32108
7.35231
7.77899
8.06766
8.21845
8.12119
8.59991
8.84943
8.98861
9.05202
9.11694
9.33781
9.48741
9.57051
9.60696
9.31089
7.9169
1.39868
3.63025
7.73685
9.08189
7.44085
3.20603
1.64078
6.7891
8.39874
6.57777
4.20856
1.00361
4.14773
6.81574
5.09481
3.45532
1.70078
1.03871
4.50394
3.1453
2.03879
1.37803
0.460132
2.59746
1.61863
1.00257
0.797289
0.926879
1.4566
0.779302
0.580355
0.613769
0.686399
0.801085
0.406732
0.592077
0.760872
0.834123
0.305085
0.509466
0.88666
1.05256
1.11393
0.163419
0.935621
1.28178
1.51821
1.57278
0.190604
0.36327
0.711673
0.779282
0.732156
0.396323
0.50235
0.580657
0.638782
0.624211
0.615749
0.649697
0.466676
0.495549
0.512686
0.967907
0.798555
0.419899
0.356886
0.399531
1.3318
0.848118
0.426041
0.240882
0.284518
1.1059
0.85936
1.12537
1.11001
0.995373
0.283499
0.47262
0.867621
0.92206
0.844499
9.1912
8.8387
7.75888
5.73033
3.55984
8.58733
7.72296
5.85165
3.49149
0.865889
0.964498
0.858114
1.02671
1.62022
2.65827
0.812899
0.766858
0.703417
0.824403
1.52683
1.05936
1.01059
0.847335
0.552808
0.745212
1.38509
1.34809
1.15016
0.79836
0.229008
1.85802
1.81134
1.55908
1.24089
0.598601
7.73638
3.6272
1.39996
7.91514
9.31104
6.78529
1.6406
3.20266
7.43776
9.08253
4.13441
1.01086
4.1944
6.57319
8.40032
1.03688
1.70531
3.43374
5.08573
6.82225
0.475978
1.3762
2.01483
3.12776
4.5268
1.31257
0.540856
0.551003
0.452311
0.175687
0.678947
0.289715
0.46901
0.519025
0.485235
0.401548
0.150874
0.382275
0.621158
0.803846
0.292276
0.067236
0.342243
0.774611
1.22431
0.247569
0.0463059
0.32042
0.861343
1.59038
5.48147
2.4607
1.03473
0.958731
1.14175
2.88806
1.0874
0.724302
0.554097
0.252385
3.5682
5.73583
7.76006
8.83922
9.19135
0.843761
3.47229
5.84508
7.72159
8.58718
)
;

boundaryField
{
    left
    {
        type            calculated;
        value           nonuniform List<scalar> 
17
(
0.460498
1.12616
2.18719
3.90993
6.5806
0.305568
0.189566
0.13879
0.144289
0.215015
2.95961
2.06269
1.34148
0.823982
0.501951
6.97889
4.57983
)
;
    }
    right
    {
        type            calculated;
        value           nonuniform List<scalar> 
17
(
0.995668
0.845949
0.734302
0.62717
0.51518
0.398961
0.2778
0.167086
0.0563913
0.0162862
0.107461
0.242104
0.353085
0.466061
0.554295
0.652304
0.807142
)
;
    }
    down
    {
        type            calculated;
        value           nonuniform List<scalar> 
20
(
5.99533
3.00011
1.14429
1.04126
1.85316
4.27032
6.38393
8.1315
9.01584
9.30929
9.30912
9.0152
8.13001
6.3799
4.26421
1.83181
0.933886
1.19185
1.16693
1.04228
)
;
    }
    up
    {
        type            calculated;
        value           nonuniform List<scalar> 
20
(
8.54864
5.40394
2.72565
1.45407
0.882054
9.69562
9.66615
9.59857
9.47421
9.2934
9.29641
9.47647
9.60018
9.66726
9.69603
5.70565
3.14797
2.65863
5.3933
8.56558
)
;
    }
    cylinder
    {
        type            calculated;
        value           nonuniform List<scalar> 
40
(
1.37542
3.59201
6.11887
7.96025
8.95701
9.50511
9.74576
9.84079
9.88145
9.89745
9.54742
9.76283
9.84855
9.88495
9.89848
2.28911
4.52595
6.69937
8.23424
9.06982
3.0437
1.85061
1.09505
0.447585
0.605602
9.51907
9.33192
8.74237
7.26985
4.98629
9.5189
9.33117
8.74031
7.2616
4.95773
2.9661
1.7338
1.07394
0.666983
0.102945
)
;
    }
    defaultFaces
    {
        type            empty;
    }
}


// ************************************************************************* //
