/*--------------------------------*- C++ -*----------------------------------*\
  =========                 |
  \\      /  F ield         | OpenFOAM: The Open Source CFD Toolbox
   \\    /   O peration     | Website:  https://openfoam.org
    \\  /    A nd           | Version:  13
     \\/     M anipulation  |
\*---------------------------------------------------------------------------*/
FoamFile
{
    format      ascii;
    class       volScalarField;
    location    "0.47";
    object      p;
}
// * * * * * * * * * * * * * * * * * * * * * * * * * * * * * * * * * * * * * //

dimensions      [0 2 -2 0 0 0 0];

internalField   nonuniform List<scalar> 
1800
(
5.75465
7.86179
10.0146
11.4431
12.2776
12.6884
12.8197
12.6629
11.4175
7.32649
9.60578
12.0815
14.5865
16.2706
17.3273
17.9903
18.4452
18.6848
17.9609
15.284
15.9994
18.6241
21.2969
23.1603
24.4206
25.3026
25.9536
26.3372
25.8664
24.036
24.9955
27.5649
30.2134
32.128
33.4934
34.5026
35.2652
35.7174
35.3115
33.6273
36.0548
38.4157
40.868
42.6797
44.0042
45.0004
45.7551
46.2046
45.8545
44.2993
48.7323
50.7849
52.9286
54.5349
55.726
56.6283
57.3106
57.7213
57.4403
56.0811
62.6812
64.354
66.1098
67.4418
68.4439
69.2136
69.8051
70.1821
70.0071
68.9185
77.6074
78.849
80.1601
81.1695
81.9455
82.5594
83.0535
83.4084
83.3751
82.6387
93.2259
94.0056
94.8372
95.4921
96.015
96.4525
96.8353
97.1587
97.2689
96.9345
109.255
109.56
109.892
110.166
110.404
110.625
110.842
111.056
111.217
111.244
-0.580194
-0.831584
-0.610066
-0.196659
0.27397
0.739805
1.09898
1.31047
1.4552
1.6008
-0.478122
-0.989476
-1.09485
-0.886427
-0.462606
-0.0379598
0.25681
0.499876
0.778549
1.0507
0.504873
-0.456804
-1.27923
-1.4413
-1.11481
-0.806453
-0.589002
-0.282656
0.123653
0.50892
0.892644
-0.24376
-1.43165
-1.76761
-1.54785
-1.39016
-1.25992
-0.952576
-0.495399
0.0125844
0.463426
-0.500897
-1.43423
-1.72367
-1.66581
-1.67213
-1.63062
-1.36625
-0.873918
-0.179188
-0.233655
-0.748456
-1.14524
-1.27348
-1.29295
-1.35506
-1.3438
-1.13276
-0.606487
0.326834
-0.562043
-0.523348
-0.345204
-0.198325
-0.112847
-0.090518
-0.0497787
0.122381
0.702113
1.93328
-0.0730976
0.513574
1.23521
1.74013
2.07022
2.28444
2.43537
2.65384
3.3862
5.04949
1.37802
2.4861
3.73478
4.6565
5.32679
5.81963
6.16052
6.50095
7.48912
9.77762
3.62247
5.2654
7.08367
8.4597
9.48255
10.243
10.7658
11.2197
12.2819
14.4461
2.31572
2.45418
2.34936
2.10885
1.61233
1.20614
0.868043
0.600956
0.372587
0.140003
1.96261
2.42751
2.24118
2.02058
1.52534
1.12745
0.8218
0.582418
0.366546
0.138391
1.48297
2.39668
2.13734
1.92403
1.4448
1.05778
0.780076
0.563489
0.356904
0.13364
0.858355
2.31472
2.0368
1.81542
1.36469
0.99359
0.741987
0.545618
0.347713
0.129204
0.165604
2.14053
1.92765
1.69297
1.28091
0.933218
0.706396
0.529351
0.340481
0.126345
-0.405448
1.86357
1.79159
1.55465
1.1904
0.875844
0.673592
0.515247
0.335485
0.125408
-0.553541
1.51684
1.61451
1.39713
1.0906
0.820279
0.644284
0.503506
0.332836
0.126477
0.17594
1.18888
1.38691
1.21083
0.977101
0.764154
0.618669
0.494317
0.332864
0.129276
2.43267
1.05342
1.08801
0.970772
0.840324
0.703573
0.596046
0.488006
0.334785
0.133087
6.66791
1.42317
0.732231
0.656208
0.670685
0.635052
0.575064
0.4834
0.33318
0.130486
9.99847
2.59795
0.712773
0.417778
0.493098
0.55354
0.548401
0.469992
0.319467
0.118692
11.7847
2.59162
0.282994
0.0693688
0.359796
0.509764
0.51803
0.433273
0.28803
0.100396
12.8787
2.789
0.400231
0.15016
0.462234
0.565464
0.514405
0.400908
0.256066
0.0782289
14.1945
4.37014
1.28062
0.722268
0.78489
0.715533
0.549431
0.381071
0.22452
0.0546277
16.3708
7.11663
2.70777
1.59543
1.24672
0.939521
0.625089
0.37951
0.198562
0.0319908
19.2642
9.88831
4.34971
2.5712
1.78733
1.21519
0.737011
0.398605
0.182231
0.0133696
21.7706
11.9533
5.87187
3.53722
2.3607
1.51899
0.87327
0.436879
0.178069
0.00127918
23.0501
13.1369
7.06973
4.43953
2.93811
1.83504
1.0241
0.491325
0.186938
-0.00259112
22.9899
13.5156
7.92992
5.28715
3.5286
2.17114
1.19446
0.565373
0.212548
0.00367448
22.4369
13.7403
8.70078
6.14762
4.15391
2.54803
1.40544
0.675042
0.27127
0.0250277
111.8
97.8545
84.0897
71.0844
59.1451
48.3649
38.7835
30.1069
20.0955
4.98981
112.78
99.4922
85.9913
72.9848
60.9419
50.0614
40.5287
32.2711
23.6065
11.4927
113.312
100.227
87.346
75.0195
63.4806
52.8887
43.459
35.2707
27.4849
18.3507
114.524
102.784
90.8248
78.9935
67.6364
57.0406
47.4071
38.8065
31.0996
23.8364
115.101
104.09
93.1696
82.4785
72.1313
62.2066
52.7437
43.8325
36.0135
29.8338
115.451
104.724
94.2172
84.0554
74.3349
65.1055
56.3463
48.1049
41.0631
36.0457
115.682
105.123
94.812
84.8798
75.4371
66.5567
58.248
50.5807
44.2269
40.1077
115.783
105.262
94.9951
85.1237
75.7696
67.0237
58.92
51.5268
45.4102
41.4509
115.733
105.047
94.6207
84.6016
75.1224
66.29
58.16
50.7907
44.567
40.1144
115.609
104.662
93.9748
83.6973
73.9719
64.9218
56.6271
49.1325
42.6236
37.429
234.142
229.781
228.216
227.775
227.685
227.937
228.671
230.053
232.205
234.344
225.578
222.561
221.513
221.475
221.701
222.187
223.118
224.725
227.197
229.673
216.064
213.891
213.119
213.244
213.676
214.379
215.505
217.274
219.888
222.487
205.757
203.731
203.027
203.223
203.768
204.597
205.821
207.63
210.199
212.718
194.433
192.524
191.87
192.058
192.59
193.402
194.579
196.273
198.628
200.919
182.066
180.342
179.748
179.89
180.344
181.055
182.091
183.568
185.598
187.563
168.72
167.257
166.764
166.867
167.223
167.796
168.635
169.828
171.455
173.026
154.585
153.469
153.114
153.192
153.448
153.86
154.467
155.33
156.5
157.628
139.976
139.263
139.056
139.105
139.25
139.485
139.835
140.337
141.019
141.675
125.451
125.107
124.967
124.92
124.907
124.93
124.996
125.116
125.293
125.469
246.541
246.777
247.026
247.243
247.542
248.039
248.587
248.923
248.932
248.424
246.628
246.957
247.357
247.66
247.86
248.193
248.613
248.529
247.722
246.707
246.651
247.046
247.489
247.799
247.882
248.013
248.293
247.932
246.547
245.292
246.539
247.04
247.47
247.701
247.635
247.524
247.561
247.138
245.841
244.681
246.05
246.705
247.095
247.203
247.028
246.754
246.581
246.222
245.411
244.618
244.842
245.687
246.026
245.994
245.766
245.485
245.292
245.122
244.881
244.593
242.495
243.594
243.935
243.824
243.617
243.455
243.423
243.556
243.863
244.102
238.61
240.098
240.571
240.508
240.427
240.48
240.719
241.215
242.029
242.767
233.137
235.193
235.904
235.974
236.102
236.449
237.038
237.943
239.248
240.46
227.781
229.648
230.395
230.564
230.872
231.49
232.432
233.784
235.631
237.34
246.97
246.74
246.708
246.504
246.424
246.283
245.91
245.659
245.563
245.709
246.931
246.74
246.703
246.506
246.422
246.289
245.926
245.652
245.384
245.742
246.904
246.735
246.694
246.502
246.414
246.292
245.937
245.61
245.16
245.838
246.885
246.728
246.682
246.489
246.401
246.294
245.937
245.529
244.951
246.032
246.873
246.717
246.666
246.471
246.384
246.287
245.92
245.427
244.821
246.271
246.866
246.706
246.649
246.45
246.362
246.268
245.889
245.336
244.794
246.378
246.864
246.692
246.629
246.425
246.336
246.237
245.855
245.283
244.837
246.041
246.867
246.676
246.609
246.398
246.306
246.2
245.836
245.28
244.854
244.801
246.875
246.656
246.586
246.368
246.275
246.173
245.863
245.349
244.672
242.024
246.892
246.634
246.559
246.335
246.247
246.174
245.961
245.47
243.99
237.307
246.928
246.61
246.52
246.285
246.188
246.106
245.879
245.131
242.448
233.749
247.044
246.594
246.486
246.242
246.138
246.156
246.088
245.338
242.183
231.804
247.29
246.603
246.455
246.172
246.061
246.126
246.098
245.259
241.902
230.546
247.748
246.661
246.431
246.093
245.92
245.856
245.653
244.565
240.508
229.335
248.591
246.73
246.454
245.998
245.707
245.34
244.768
243.252
238.034
227.481
250.419
246.798
246.556
245.922
245.417
244.672
243.669
241.58
235.389
224.929
254.297
247.106
246.706
245.858
245.066
243.957
242.564
239.96
233.317
222.595
262.602
248.244
246.976
245.81
244.695
243.269
241.56
238.667
232.076
221.337
280.163
250.979
247.623
245.84
244.344
242.619
240.652
237.735
231.632
221.366
306.134
255.025
249.126
246.048
244.054
242
239.769
236.919
231.361
221.894
236.433
221.082
210.459
201.145
190.984
179.68
167.285
153.913
139.868
125.738
230.041
217.745
208.594
199.874
189.937
178.699
166.353
153.103
139.379
125.905
223.509
214.144
205.966
197.439
187.725
176.885
165.132
152.631
139.613
126.435
218.4
210.892
202.9
194.05
184.207
173.441
161.947
150.004
137.94
126.106
213.004
206.609
198.614
189.519
179.849
169.71
159.16
148.292
137.237
126.144
207.4
202.103
194.843
186.372
177.374
167.919
158
147.677
137.057
126.27
203.602
199.162
192.573
184.677
176.144
167.059
157.438
147.364
136.953
126.343
202.32
198.063
191.717
184.105
175.793
166.857
157.338
147.335
136.976
126.407
203.646
198.932
192.483
184.898
176.567
167.552
157.914
147.768
137.253
126.522
206.32
200.886
194.15
186.439
177.944
168.713
158.831
148.427
137.651
126.658
112.197
112.367
112.452
112.303
111.796
111.435
111.25
111.535
111.528
111.279
89.624
90.0873
90.3059
89.8723
88.4404
87.354
86.7332
87.3948
87.4324
86.8459
68.7825
69.4101
69.6713
69.0046
67.0653
65.3536
64.3334
64.8822
65.1866
64.6314
50.6661
51.2724
51.462
50.6388
48.6598
46.4939
45.164
45.1994
45.9378
45.7044
36.0221
36.4304
36.4805
35.5992
33.8074
31.4916
29.8479
29.2827
30.0903
30.278
24.9708
25.0741
24.9519
24.0288
22.4513
20.4221
18.6314
17.6898
17.9449
18.4449
17.0851
16.9346
16.7196
15.7287
14.3145
12.8113
11.3238
10.2588
9.91914
10.2857
11.5987
11.4216
11.3729
10.3737
9.05503
8.05323
7.16144
6.31842
5.73005
5.64643
7.92518
7.83673
8.13253
7.26492
6.0992
5.50864
5.1794
4.79441
4.31047
3.931
6.05712
5.85195
6.23711
5.49963
4.63051
4.35414
4.37757
4.36774
4.21503
3.81928
5.29118
5.05412
5.13603
4.44196
3.90965
3.85283
4.00185
4.14409
4.26501
4.32171
4.86565
4.75629
4.47842
3.81201
3.52553
3.61184
3.81416
3.9813
4.10089
4.18716
4.48881
4.44384
4.01172
3.46066
3.33951
3.50108
3.72489
3.90318
4.021
4.08136
4.03616
3.98113
3.57479
3.22249
3.23106
3.43291
3.64494
3.80179
3.90018
3.94149
3.49063
3.39737
3.12328
3.00217
3.11758
3.33328
3.5227
3.65988
3.74096
3.76469
2.84275
2.74784
2.68655
2.77494
2.97043
3.17417
3.33954
3.45869
3.52546
3.53884
2.12184
2.13681
2.26942
2.50226
2.73694
2.93487
3.08981
3.20322
3.26919
3.28448
1.44926
1.56632
1.81592
2.1074
2.36219
2.57576
2.75086
2.88872
2.97567
3.00361
0.775064
0.910835
1.18435
1.51074
1.81807
2.08757
2.32306
2.50671
2.61135
2.6491
0.10414
0.0211388
0.254282
0.662395
1.07936
1.45809
1.77987
1.99449
2.09822
2.16124
3.67678
3.71949
3.58866
3.26235
2.61478
1.93118
1.34212
0.869607
0.468199
0.119149
3.74964
3.6939
3.53841
3.24639
2.57534
1.87443
1.28885
0.832203
0.449183
0.119646
3.77654
3.58885
3.42732
3.19259
2.53127
1.82049
1.23779
0.796886
0.432552
0.121275
3.73834
3.41397
3.27562
3.09081
2.47393
1.76768
1.18893
0.763747
0.418247
0.12344
3.63183
3.2073
3.10878
2.93855
2.39161
1.71165
1.14167
0.732764
0.406148
0.126045
3.46987
3.0108
2.94979
2.75622
2.27821
1.64875
1.09598
0.704299
0.396214
0.128967
3.27749
2.84413
2.80744
2.57561
2.13691
1.57574
1.05157
0.678705
0.388342
0.132025
3.07048
2.70674
2.68171
2.42031
1.98311
1.49048
1.00762
0.656083
0.382311
0.13482
2.84666
2.59354
2.56753
2.29641
1.8377
1.39473
0.962886
0.636176
0.377911
0.137148
2.59844
2.50725
2.45827
2.1968
1.71399
1.29657
0.916235
0.618382
0.374866
0.138722
5.43767
3.99196
3.29482
2.91553
2.437
1.92037
1.4194
0.957171
0.532729
0.140211
4.63395
3.77116
3.33045
2.97612
2.47727
1.9292
1.40811
0.940599
0.516704
0.132491
3.96415
3.67895
3.39069
3.04503
2.5162
1.93686
1.39747
0.925938
0.504413
0.126634
3.64435
3.67915
3.47555
3.12481
2.55698
1.94402
1.38674
0.912096
0.49407
0.122695
3.62959
3.722
3.57681
3.21669
2.60243
1.95116
1.37457
0.89732
0.484203
0.120552
112.028
88.9623
67.9124
50.1419
36.128
25.8084
18.6388
13.7637
10.5819
8.76791
111.807
88.4
67.2062
49.4075
35.3258
24.8042
17.3351
12.2301
9.08755
7.58758
111.621
87.9197
66.568
48.6669
34.4146
23.6315
15.9148
10.6954
7.55106
6.09332
111.411
87.346
65.7276
47.6022
33.09
22.0374
14.1434
8.91105
5.826
4.45058
111.156
86.6179
64.5984
46.1291
31.2899
19.9699
11.975
6.9391
4.4562
3.64041
243.767
243.805
243.924
244.096
244.309
244.318
243.814
243.113
243.216
242.992
243.98
244.052
244.165
244.354
244.625
244.8
244.582
243.932
243.674
243.566
244.176
244.225
244.337
244.533
244.819
245.08
245.054
244.547
244.118
244.067
244.418
244.451
244.549
244.722
244.979
245.267
245.373
245.103
244.716
244.647
244.691
244.709
244.79
244.939
245.153
245.416
245.619
245.622
245.456
245.365
244.98
244.992
245.061
245.183
245.355
245.585
245.855
246.096
246.201
246.189
245.249
245.268
245.349
245.484
245.66
245.89
246.19
246.549
246.85
246.972
245.531
245.549
245.646
245.837
246.09
246.389
246.749
247.159
247.52
247.699
245.907
245.937
246.016
246.238
246.607
247.057
247.559
248.075
248.415
248.377
246.3
246.409
246.511
246.702
247.101
247.667
248.264
248.811
249.16
248.955
136.509
136.25
136.227
136.49
136.272
135.874
135.333
135.161
135.232
135.397
160.958
160.361
160.383
161.02
160.368
159.245
157.781
157.325
157.531
157.989
183.201
182.635
182.922
183.445
182.395
180.649
178.681
177.992
178.241
178.863
202.166
201.921
202.639
202.649
201.291
199.094
197.087
196.243
196.421
197.023
217.637
217.811
218.595
218.008
216.34
213.995
212.174
211.272
211.31
211.715
229.516
229.997
230.227
229.268
227.46
225.404
223.794
222.848
222.715
222.815
237.715
238.051
237.688
236.614
235.122
233.594
232.143
231.127
230.901
230.75
242.369
242.249
241.639
240.805
239.927
238.91
237.557
236.531
236.471
236.293
244.092
243.673
243.18
242.822
242.525
241.939
240.75
239.855
240.14
240.055
244.232
243.805
243.652
243.673
243.746
243.504
242.631
241.87
242.254
242.064
254.858
246.891
247.516
246.305
246.055
245.549
245.005
244.638
244.506
244.542
252.025
246.828
247.329
246.285
246.107
245.611
245.022
244.672
244.583
244.514
250.103
246.835
247.107
246.283
246.163
245.678
245.065
244.767
244.753
244.546
248.919
246.863
246.897
246.304
246.22
245.751
245.147
244.921
244.981
244.652
248.235
246.865
246.761
246.344
246.276
245.832
245.276
245.112
245.219
244.82
247.786
246.822
246.725
246.392
246.328
245.924
245.443
245.296
245.422
245.023
247.472
246.768
246.723
246.433
246.371
246.025
245.614
245.444
245.571
245.228
247.259
246.74
246.716
246.464
246.399
246.126
245.753
245.547
245.665
245.417
247.119
246.735
246.711
246.484
246.411
246.21
245.842
245.61
245.701
245.572
247.028
246.738
246.709
246.496
246.419
246.262
245.888
245.644
245.67
245.669
317.362
253.774
249.924
246.982
246.159
245.592
245.263
244.937
244.241
242.722
295.63
251.385
248.803
246.751
246.077
245.563
245.218
244.906
244.453
243.523
277.188
249.229
248.207
246.579
246.036
245.544
245.168
244.848
244.535
244.195
265.785
247.885
247.883
246.451
246.018
245.532
245.109
244.765
244.525
244.524
259.014
247.154
247.66
246.344
246.016
245.523
245.04
244.662
244.479
244.556
239.3
237.45
234.235
229.328
222.126
211.773
197.723
179.92
158.845
135.765
240.482
238.946
235.772
230.636
223.135
212.579
198.46
180.628
159.408
135.986
241.995
240.498
237.316
232.064
224.313
213.494
199.204
181.268
159.889
136.172
243.658
242.252
239.124
233.85
225.916
214.823
200.271
182.109
160.463
136.382
244.446
243.609
241.107
236.036
227.994
216.628
201.746
183.239
161.19
136.635
)
;

boundaryField
{
    left
    {
        type            zeroGradient;
    }
    right
    {
        type            fixedValue;
        value           uniform 0;
    }
    down
    {
        type            zeroGradient;
    }
    up
    {
        type            zeroGradient;
    }
    cylinder
    {
        type            zeroGradient;
    }
    defaultFaces
    {
        type            empty;
    }
}


// ************************************************************************* //
