/*--------------------------------*- C++ -*----------------------------------*\
  =========                 |
  \\      /  F ield         | OpenFOAM: The Open Source CFD Toolbox
   \\    /   O peration     | Website:  https://openfoam.org
    \\  /    A nd           | Version:  13
     \\/     M anipulation  |
\*---------------------------------------------------------------------------*/
FoamFile
{
    format      ascii;
    class       surfaceScalarField;
    location    "0.47";
    object      phi;
}
// * * * * * * * * * * * * * * * * * * * * * * * * * * * * * * * * * * * * * //

dimensions      [0 3 -1 0 0 0 0];

internalField   nonuniform List<scalar> 
3485
(
0.00137164
-0.0112582
0.00988655
0.00505114
-0.0319071
0.0282276
0.0107643
-0.0513831
0.0456699
0.0183129
-0.0696767
0.0621281
0.0275462
-0.0868343
0.077601
0.03835
-0.1029
0.0920958
0.0506358
-0.117904
0.105618
0.0643605
-0.131867
0.118142
0.0796215
-0.144856
0.129595
-0.156888
0.139495
0.0970149
0.00150032
-0.0127585
0.0054458
-0.0358526
0.0114762
-0.0574135
0.0193238
-0.0775243
0.0287734
-0.0962839
0.0396478
-0.113774
0.0518028
-0.130059
0.0651306
-0.145195
0.0795396
-0.159265
-0.172192
0.0948439
0.00147416
-0.0142327
0.00532696
-0.0397053
0.0111745
-0.063261
0.018721
-0.0850707
0.0277257
-0.105289
0.0379892
-0.124038
0.0493458
-0.141415
0.0616558
-0.157505
0.0747873
-0.172396
-0.186034
0.0886287
0.00133885
-0.0155715
0.00485901
-0.0432255
0.0102109
-0.0686129
0.0171172
-0.091977
0.0253542
-0.113526
0.0347409
-0.133424
0.0451313
-0.151806
0.0564055
-0.168779
0.0684568
-0.184448
-0.198789
0.0812116
0.00116693
-0.0167384
0.004256
-0.0463146
0.00897321
-0.0733301
0.0150819
-0.0980857
0.022392
-0.120836
0.030753
-0.141785
0.0400471
-0.1611
0.0501818
-0.178914
0.0610793
-0.195345
-0.210401
0.0726918
0.000980027
-0.0177185
0.00358798
-0.0489225
0.00758671
-0.0773288
0.0127841
-0.103283
0.0190265
-0.127078
0.0261932
-0.148952
0.0341924
-0.169099
0.0429547
-0.187676
0.0524253
-0.204816
-0.220549
0.0625729
0.000780736
-0.0184992
0.00286506
-0.0510069
0.00606911
-0.0805329
0.0102431
-0.107457
0.0152669
-0.132102
0.0210473
-0.154732
0.0275152
-0.175567
0.0346217
-0.194782
0.0423329
-0.212527
-0.228851
0.050635
0.000569717
-0.0190689
0.00209352
-0.0525307
0.00443801
-0.0828774
0.00749293
-0.110512
0.0111691
-0.135778
0.0153974
-0.158961
0.0201283
-0.180298
0.0253306
-0.199985
0.0309879
-0.218184
-0.234968
0.0371049
0.000352523
-0.0194214
0.00129582
-0.053474
0.00274515
-0.0843267
0.00462857
-0.112395
0.00688683
-0.138036
0.0094736
-0.161547
0.012356
-0.18318
0.0155151
-0.203144
0.0189459
-0.221615
-0.238685
0.0226629
0.000137811
-0.0195593
0.000502521
-0.0538387
0.00105709
-0.0848813
0.00176974
-0.113108
0.002614
-0.138881
0.00356879
-0.162502
0.00461859
-0.18423
0.0057539
-0.204279
0.00697128
-0.222832
0.00827579
-0.23999
0.000497582
-0.00187358
0.001376
0.00211247
-0.00625492
0.00464003
0.00545605
-0.0113894
0.00804579
0.0101437
-0.0161439
0.0114562
0.015574
-0.0201339
0.0147036
0.021482
-0.0235335
0.0176255
0.0279578
-0.0267155
0.0202397
0.0351467
-0.0299059
0.022717
0.0430349
-0.0330603
0.0251721
-0.0360295
0.051491
0.0275734
0.000428231
-0.00230181
0.00211644
-0.00794314
0.00544943
-0.0147224
0.00983919
-0.0205337
0.0149279
-0.0252226
0.0208183
-0.0294239
0.02768
-0.0335772
0.0354637
-0.0376896
0.0439616
-0.0415582
-0.0450778
0.0530098
0.000682178
-0.00298399
0.00271437
-0.00997533
0.00578766
-0.0177957
0.00978589
-0.0245319
0.0148547
-0.0302914
0.021163
-0.0357321
0.0286428
-0.0410571
0.0370187
-0.0460654
0.046073
-0.0506125
-0.0547183
0.0557135
0.000867143
-0.00385113
0.00305842
-0.0121666
0.00608531
-0.0208225
0.0102186
-0.0286652
0.0157263
-0.0357992
0.022592
-0.0425978
0.030576
-0.0490411
0.0394427
-0.0549322
0.0490956
-0.0602654
-0.0650746
0.0594519
0.000921702
-0.00477284
0.00319901
-0.0144439
0.006523
-0.0241465
0.0111278
-0.03327
0.0171519
-0.0418233
0.0244717
-0.0499176
0.0328966
-0.057466
0.0423279
-0.0643635
0.0527015
-0.070639
-0.076258
0.0638849
0.000943009
-0.00571585
0.00337195
-0.0168729
0.00709339
-0.027868
0.01218
-0.0383566
0.0186423
-0.0482856
0.0263701
-0.0576453
0.0352662
-0.0663622
0.0452827
-0.0743799
0.0563403
-0.0816967
-0.0881991
0.0682815
0.000979509
-0.00669536
0.00358363
-0.019477
0.00764206
-0.0319264
0.0131096
-0.0438241
0.0199305
-0.0551066
0.028019
-0.0657338
0.0373128
-0.0756559
0.0477655
-0.0848326
0.0593038
-0.0932351
-0.100678
0.0717829
0.00101778
-0.00771314
0.00376748
-0.0222267
0.00807125
-0.0362302
0.0138208
-0.0495736
0.0209217
-0.0622075
0.0292852
-0.0740973
0.0388417
-0.0852125
0.0495346
-0.0955255
0.0613051
-0.105006
-0.113426
0.0740529
0.00105451
-0.00876764
0.00393654
-0.0251087
0.00846095
-0.0407546
0.0144824
-0.0555951
0.0218749
-0.0695999
0.0305281
-0.0827504
0.0403467
-0.0950312
0.0512422
-0.106421
0.0631334
-0.116897
-0.126308
0.0760154
0.00111891
0.00423777
0.0091531
0.0156861
0.0236871
0.0330325
0.0436192
0.0553405
0.0680387
0.0812254
0.114399
-0.413772
0.350863
0.168168
-0.470659
0.416891
0.210165
-0.420329
0.378332
0.243721
-0.32467
0.291114
0.269961
-0.21233
0.186089
0.289561
-0.107236
0.0876361
0.301315
-0.0280988
0.0163455
0.305734
0.00631214
-0.0107315
0.306384
0.0106371
-0.0112876
0.00796559
-0.00669525
0.116034
-0.476796
0.169822
-0.524448
0.211852
-0.46236
0.24519
-0.358008
0.271511
-0.238651
0.291502
-0.127228
0.304781
-0.0413778
0.311628
-0.000534184
0.314906
0.0073586
0.00760997
0.117869
-0.538951
0.170711
-0.57729
0.212404
-0.504053
0.245217
-0.390821
0.271431
-0.264864
0.291472
-0.147269
0.304914
-0.0548193
0.312286
-0.00790685
0.316676
0.00296861
0.00621268
0.120251
-0.59975
0.171107
-0.628146
0.211977
-0.544923
0.243984
-0.422828
0.269914
-0.290794
0.289954
-0.167309
0.3033
-0.0681648
0.310999
-0.0156057
0.315816
-0.00184824
0.00441931
0.123136
-0.659001
0.171221
-0.676231
0.210699
-0.584401
0.241642
-0.453771
0.267076
-0.316229
0.287148
-0.187381
0.300637
-0.0816536
0.309044
-0.024013
0.314653
-0.00745664
0.00190219
0.125976
-0.716695
0.171095
-0.72135
0.208664
-0.62197
0.238319
-0.483426
0.263008
-0.340918
0.283124
-0.207496
0.297114
-0.0956442
0.306628
-0.0335268
0.313362
-0.0141911
-0.00170147
0.127898
-0.77281
0.170551
-0.764003
0.205938
-0.657357
0.234144
-0.511632
0.257825
-0.364599
0.277915
-0.227587
0.292791
-0.11052
0.303788
-0.0445239
0.311962
-0.0223646
-0.0067425
0.127965
-0.826723
0.169113
-0.805151
0.202393
-0.690637
0.229108
-0.538347
0.251575
-0.387066
0.271509
-0.247521
0.287643
-0.126654
0.300501
-0.0573814
0.310316
-0.0321801
-0.0134414
0.125874
-0.876582
0.166373
-0.845649
0.197986
-0.72225
0.223318
-0.56368
0.244408
-0.408156
0.263935
-0.267048
0.281557
-0.144276
0.296555
-0.0723789
0.306346
-0.0419716
-0.0200224
0.12218
-0.917537
0.16153
-0.884999
0.191842
-0.752562
0.216076
-0.587914
0.235859
-0.427938
0.254879
-0.286068
0.274234
-0.16363
0.289008
-0.0871537
0.295932
-0.0488958
-0.0255667
0.583913
-0.919997
-0.581453
0.561178
-0.862263
0.523994
-0.715378
0.48788
-0.5518
0.460177
-0.400235
0.44623
-0.272121
0.44402
-0.161421
0.44081
-0.0839437
0.435672
-0.043757
-0.0238147
0.682842
-0.871405
-0.731434
0.619736
-0.799157
0.554115
-0.649757
0.497048
-0.494734
0.453015
-0.356202
0.424369
-0.243476
0.410676
-0.147728
0.40408
-0.0773474
0.399475
-0.0391514
-0.0214172
0.75404
-0.775023
-0.850421
0.655295
-0.700412
0.563873
-0.558334
0.488331
-0.419192
0.43126
-0.299131
0.393009
-0.205224
0.373303
-0.128022
0.36461
-0.0686547
0.359503
-0.0340446
-0.0186811
0.77909
-0.641597
-0.912516
0.653962
-0.575284
0.546674
-0.451046
0.461739
-0.334257
0.399313
-0.236706
0.356975
-0.162886
0.333098
-0.104144
0.322184
-0.0577412
0.31671
-0.0285705
-0.0156873
0.753058
-0.492389
-0.902267
0.61771
-0.439935
0.506439
-0.339776
0.420556
-0.248373
0.358345
-0.174495
0.315801
-0.120342
0.290291
-0.0786339
0.277803
-0.0452534
0.271834
-0.0226012
-0.0124901
0.685147
-0.345813
-0.831723
0.552782
-0.30757
0.446597
-0.233592
0.366265
-0.168041
0.308793
-0.117023
0.26934
-0.080889
0.2446
-0.0538938
0.231554
-0.0322078
0.225296
-0.0163427
-0.00918948
0.582641
-0.213851
-0.714603
0.462932
-0.187861
0.369397
-0.140057
0.300093
-0.0987372
0.2512
-0.0681304
0.217574
-0.0472627
0.195761
-0.0320809
0.183459
-0.0199059
0.17736
-0.0102436
-0.00597017
0.44877
-0.10552
-0.557101
0.3512
-0.0902909
0.277098
-0.0659548
0.223601
-0.0452402
0.186433
-0.0309621
0.160813
-0.0216429
0.143709
-0.0149762
0.133472
-0.0096692
0.128195
-0.00496632
-0.00310735
0.286596
-0.0302197
-0.361896
0.22092
-0.0246146
0.172508
-0.0175436
0.138739
-0.0114709
0.115556
-0.00777889
0.0994387
-0.00552566
0.088387
-0.00392449
0.0814168
-0.00269901
0.0777883
-0.00133786
-0.000985764
0.101317
-0.131536
0.076702
0.0591584
0.0476875
0.0399086
0.034383
0.0304585
0.0277595
0.0264216
0.738824
0.0102234
-0.740771
0.733077
0.0284095
0.723437
0.0467447
0.710163
0.0639095
0.693568
0.0791677
0.674072
0.0921879
0.652265
0.103018
0.628701
0.112193
0.604252
0.119293
0.119814
0.845551
0.0133996
-0.848727
0.837322
0.0366379
0.827287
0.0567796
0.816591
0.0746055
0.805246
0.0905127
0.792889
0.104545
0.779273
0.116635
0.764572
0.126893
0.749102
0.134763
0.137482
0.844988
0.011427
-0.843016
0.848889
0.0327372
0.853027
0.0526413
0.856479
0.0711533
0.858841
0.0881513
0.859927
0.103459
0.8596
0.116962
0.857969
0.128524
0.855298
0.137434
0.142358
0.800216
0.00930589
-0.798095
0.805825
0.0271286
0.814424
0.0440423
0.825644
0.0599327
0.839013
0.074783
0.853866
0.0886056
0.86944
0.101387
0.885079
0.112886
0.899969
0.122544
0.129811
0.737868
0.00703997
-0.735602
0.744157
0.0208396
0.754127
0.0340725
0.767508
0.0465514
0.784089
0.0582016
0.80367
0.0690249
0.826003
0.0790549
0.850643
0.0882456
0.876572
0.0966152
0.104115
0.653922
0.00485492
-0.651737
0.660204
0.0145569
0.67038
0.0238969
0.684223
0.032708
0.701528
0.0408967
0.722116
0.0484369
0.745813
0.0553584
0.77234
0.0617185
0.801232
0.0677227
0.0736248
0.549113
0.00291672
-0.547174
0.554813
0.00885636
0.564139
0.0145709
0.576907
0.0199403
0.592917
0.024887
0.611971
0.029383
0.633874
0.0334546
0.658412
0.0371811
0.685387
0.0407477
0.0444083
0.422792
0.00137605
-0.421252
0.427413
0.00423616
0.435008
0.00697573
0.445422
0.00952591
0.45847
0.0118388
0.473958
0.0138957
0.491698
0.0157139
0.511529
0.0173499
0.53335
0.0189276
0.0206569
0.273828
0.000366758
-0.272819
0.276915
0.00114949
0.281999
0.00189176
0.288955
0.0025694
0.297629
0.00316444
0.307856
0.00366911
0.319482
0.00408802
0.332395
0.00443667
0.346562
0.00476045
0.00532333
0.100484
-0.100117
0.101633
0.103525
0.106094
0.109259
0.112928
0.117016
0.121453
0.126213
0.077946
0.15949
-0.142472
-0.0949636
0.0630383
0.147449
-0.132541
0.0496259
0.134398
-0.120985
0.0376085
0.120327
-0.108309
0.0270297
0.105167
-0.0945884
0.0179797
0.0888925
-0.0798426
0.0105738
0.07146
-0.0640541
0.00496368
0.0528096
-0.0471995
0.0013481
0.0328749
-0.0292593
0.0116393
-0.0102912
0.0779517
0.174424
-0.0928857
0.0638788
0.161522
0.0508449
0.147432
0.0389414
0.13223
0.0282781
0.115831
0.0190013
0.0981693
0.0112901
0.0791712
0.00535975
0.0587399
0.00147724
0.0367574
0.0131166
0.0731877
0.187922
-0.0866858
0.0603757
0.174334
0.048354
0.159453
0.0372509
0.143333
0.0272043
0.125877
0.0183798
0.106994
0.0109768
0.0865743
0.00523537
0.0644814
0.00144961
0.0405431
0.0145662
0.0667772
0.200349
-0.0792046
0.0550373
0.186074
0.044052
0.170439
0.0339232
0.153462
0.0247672
0.135033
0.0167273
0.115034
0.00998171
0.0933198
0.00475143
0.0697117
0.00130962
0.0439849
0.0158758
0.059317
0.211655
-0.0706226
0.0487184
0.196672
0.0388693
0.180288
0.0298422
0.162489
0.0217248
0.143151
0.0146297
0.122129
0.00870233
0.0992472
0.0041264
0.0742876
0.00113094
0.0469804
0.0170067
0.0506013
0.22152
-0.0604666
0.0414132
0.205861
0.0329288
0.188772
0.025198
0.17022
0.0182841
0.150064
0.0122722
0.128141
0.00727494
0.104245
0.00343649
0.078126
0.000937259
0.0494796
0.017944
0.0404593
0.229564
-0.0485032
0.0330141
0.213306
0.0261772
0.195609
0.0199777
0.176419
0.0144575
0.155585
0.00967748
0.132921
0.0057204
0.108202
0.00269372
0.0811527
0.000731819
0.0514415
0.0186758
0.0290553
0.235442
-0.0349335
0.023652
0.218709
0.0187151
0.200546
0.0142553
0.180879
0.0102962
0.159544
0.00687749
0.13634
0.00405554
0.111024
0.00190422
0.083304
0.000515264
0.0528305
0.0191911
0.0169179
0.238927
-0.0204026
0.013742
0.221885
0.0108549
0.203433
0.00825476
0.183479
0.00595139
0.161847
0.00396639
0.138325
0.0023321
0.112658
0.00109061
0.0845455
0.000293224
0.0536279
0.0194843
0.0048276
-0.00589027
0.00388016
0.00303376
0.00228315
0.00162795
0.00107184
0.000621508
0.00028577
7.49532e-05
0.0435923
0.0413119
-0.0524756
-0.0324286
0.0352295
0.0382663
-0.0299035
0.0275743
0.0348725
-0.0272173
0.0208499
0.0312669
-0.0245425
0.015055
0.0277086
-0.0219136
0.00994903
0.0241547
-0.0190488
0.00542067
0.0200203
-0.015492
0.0019627
0.0144176
-0.0109596
0.000383318
0.00737287
-0.00579348
0.00208146
-0.00169814
0.0437645
0.0504841
-0.0529367
0.0351117
0.0469191
0.0270714
0.0429128
0.0199264
0.0384119
0.0139897
0.0336452
0.00926456
0.0288799
0.00550615
0.0237787
0.00256962
0.0173541
0.000618828
0.00932367
0.00270029
0.0450067
0.0600508
-0.0545734
0.0360721
0.0558537
0.0278212
0.0511637
0.0203729
0.0458602
0.0140533
0.0399648
0.00912499
0.0338082
0.00553137
0.0273724
0.00289754
0.019988
0.000809775
0.0114114
0.00351006
0.0474615
0.0702505
-0.0576611
0.038012
0.0653031
0.0294271
0.0597486
0.0217453
0.0535421
0.0150938
0.0466163
0.00973211
0.0391699
0.00578146
0.031323
0.00296902
0.0228004
0.000877734
0.0135027
0.0043878
0.0509258
0.0811903
-0.0618657
0.0408084
0.0754205
0.0316768
0.0688802
0.0235936
0.0616253
0.0165829
0.053627
0.0107727
0.0449801
0.00629866
0.035797
0.0030705
0.0260286
0.000883283
0.0156899
0.00527108
0.0546076
0.0928001
-0.0662174
0.0438737
0.0861544
0.0341788
0.078575
0.0255982
0.0702059
0.018154
0.0610712
0.011903
0.0512311
0.00694096
0.0407591
0.003285
0.0296845
0.00091064
0.0180643
0.00618172
0.0576428
0.104893
-0.0697358
0.0464723
0.097325
0.0363588
0.0886885
0.0273628
0.0792019
0.0195204
0.0689136
0.0128822
0.0578692
0.00752808
0.0461132
0.00352928
0.0336833
0.000960887
0.0206327
0.00714261
0.0596834
0.11723
-0.0720199
0.0482971
0.108711
0.0379466
0.099039
0.0286774
0.0884711
0.0205412
0.0770498
0.0136072
0.0648033
0.00796643
0.051754
0.0037241
0.0379257
0.00100598
0.0233508
0.00814859
0.061485
0.129691
-0.0739466
0.0499802
0.120216
0.0394248
0.109594
0.0298905
0.0980054
0.0214637
0.0854766
0.0142411
0.0720258
0.00833728
0.0576579
0.00388579
0.0423771
0.00104223
0.0261944
0.00919082
0.0663323
-0.0791131
0.0540071
0.0426161
0.0323124
0.0232006
0.0153839
0.00898766
0.00416532
0.00110043
0.214436
0.0598347
-0.0762809
0.236612
0.0902018
-0.112377
0.260308
0.123748
-0.147444
0.273862
0.114357
-0.127911
0.27357
0.111487
-0.111194
0.251622
0.180228
-0.158281
0.217983
0.293912
-0.260272
0.174353
0.411859
-0.36823
0.118187
0.493615
-0.437448
0.460684
-0.394973
0.213774
0.0440506
0.234767
0.0692088
0.257582
0.100933
0.271626
0.100313
0.272806
0.110306
0.252011
0.201024
0.218351
0.327571
0.174289
0.455921
0.118
0.549903
0.525748
0.21333
0.0287109
0.233522
0.0490161
0.255515
0.07894
0.26982
0.0860084
0.271208
0.108918
0.250997
0.221234
0.217361
0.361208
0.173194
0.500088
0.117931
0.605166
0.589106
0.21305
0.0136503
0.232877
0.0291891
0.254133
0.0576847
0.26838
0.0717608
0.26892
0.108379
0.248652
0.241502
0.215114
0.394746
0.17141
0.543792
0.118533
0.658043
0.649978
0.212963
-0.00132283
0.232757
0.00939507
0.253289
0.0371529
0.266898
0.058152
0.265817
0.109459
0.245
0.262318
0.211759
0.427988
0.169324
0.586227
0.119928
0.707439
0.70804
0.21311
-0.0164434
0.233038
-0.0105325
0.252769
0.0174216
0.265047
0.0458743
0.261752
0.112754
0.240108
0.283963
0.207515
0.46058
0.167199
0.626543
0.121663
0.752975
0.763486
0.213435
-0.0318882
0.23356
-0.0306578
0.25235
-0.00136801
0.262634
0.0355895
0.256663
0.118726
0.234137
0.306489
0.202644
0.492073
0.165031
0.664156
0.122864
0.795141
0.816614
0.213728
-0.0476265
0.234146
-0.0510755
0.251799
-0.0190215
0.259437
0.0279518
0.250427
0.127736
0.227172
0.329744
0.197194
0.522051
0.162407
0.698944
0.122523
0.835025
0.867117
0.213773
-0.0634097
0.234673
-0.0719751
0.25093
-0.035279
0.255467
0.023415
0.243259
0.139943
0.219553
0.35345
0.191296
0.550308
0.158919
0.731321
0.12025
0.873695
0.91342
0.213747
-0.0791665
0.234998
-0.0932263
0.249679
-0.0499599
0.250337
0.022757
0.234597
0.155683
0.210643
0.377404
0.184046
0.576905
0.153704
0.761664
0.11655
0.910848
0.950857
0.33201
-0.109167
0.370893
-0.132109
0.407033
-0.0861002
0.425227
0.00456293
0.440108
0.140801
0.467724
0.349789
0.506674
0.537955
0.549596
0.718742
0.581328
0.879116
0.945723
0.586462
0.333421
-0.140577
0.373236
-0.171924
0.408777
-0.121641
0.424703
-0.0113632
0.438157
0.127347
0.476791
0.311155
0.534576
0.48017
0.604544
0.648774
0.675373
0.808286
0.888156
0.732941
0.33586
-0.174427
0.374941
-0.211005
0.409224
-0.155924
0.422276
-0.0244148
0.431349
0.118274
0.475552
0.266952
0.547197
0.408525
0.639102
0.556868
0.74237
0.705019
0.78412
0.846405
0.339781
-0.212198
0.373043
-0.244267
0.386429
-0.16931
0.385329
-0.0233141
0.401564
0.102039
0.454206
0.21431
0.534911
0.327819
0.640933
0.450846
0.767281
0.578672
0.646843
0.904557
0.347854
-0.258042
0.356143
-0.252555
0.339146
-0.152313
0.337119
-0.0212874
0.360283
0.0788759
0.41489
0.159703
0.497805
0.244904
0.608202
0.340449
0.743912
0.442961
0.495743
0.895013
0.340982
-0.297014
0.321519
-0.233092
0.289011
-0.119806
0.28584
-0.0181161
0.310122
0.054594
0.361696
0.108128
0.440114
0.166487
0.545953
0.23461
0.678867
0.310047
0.347923
0.826687
0.314306
-0.30931
0.271735
-0.190522
0.23438
-0.0824497
0.22982
-0.0135565
0.251905
0.0325088
0.296604
0.0634301
0.364847
0.0982432
0.458438
0.141019
0.578848
0.189637
0.215077
0.711694
0.273796
-0.281096
0.212985
-0.129711
0.174806
-0.0442707
0.1695
-0.00824989
0.18685
0.0151583
0.22128
0.0289998
0.274321
0.0452029
0.348741
0.0665986
0.44707
0.0913077
0.10613
0.556017
0.214644
-0.19373
0.140515
-0.055582
0.109612
-0.0133679
0.104443
-0.00308007
0.115716
0.00388446
0.137473
0.00724273
0.171175
0.0115017
0.219994
0.0177795
0.286343
0.0249587
0.030406
0.362067
0.10828
0.0526983
0.0393305
0.0362504
0.0401348
0.0473776
0.0588792
0.0766587
0.101617
0.132023
0.608628
-0.117129
0.6323
-0.116558
0.655124
-0.10951
0.676281
-0.100361
0.695229
-0.0895704
0.711369
-0.0766065
0.724264
-0.0613985
0.733592
-0.0442616
0.739078
-0.0258885
-0.00758348
0.750284
-0.134472
0.765195
-0.131469
0.779406
-0.12372
0.792635
-0.113591
0.804703
-0.101638
0.815842
-0.0877457
0.826401
-0.0719566
0.836392
-0.0542531
0.844843
-0.0343391
-0.0114678
0.851035
-0.139102
0.853486
-0.13392
0.855005
-0.12524
0.855386
-0.113972
0.854539
-0.100791
0.852638
-0.0858446
0.84991
-0.0692282
0.84675
-0.0510933
0.843954
-0.0315435
-0.0105291
0.892608
-0.127153
0.878584
-0.119895
0.863894
-0.110551
0.84932
-0.0993977
0.835467
-0.0869377
0.823033
-0.0734106
0.812644
-0.0588395
0.804761
-0.0432107
0.799748
-0.0265304
-0.00887579
0.870366
-0.102506
0.845588
-0.0951171
0.82197
-0.0869329
0.800505
-0.0779329
0.781664
-0.0680961
0.76572
-0.0574669
0.752894
-0.0460132
0.743406
-0.0337227
0.737525
-0.0206502
-0.00695224
0.797025
-0.0728439
0.76895
-0.0670425
0.743132
-0.0611142
0.720042
-0.0548434
0.699974
-0.0480279
0.683113
-0.0406061
0.669642
-0.0325421
0.659769
-0.02385
0.653726
-0.0146071
-0.00496261
0.682993
-0.0441424
0.656504
-0.0405534
0.632402
-0.0370126
0.610878
-0.0333193
0.592144
-0.0292941
0.576394
-0.0248566
0.563827
-0.0199749
0.554646
-0.0146684
0.549043
-0.00900451
-0.00309391
0.532509
-0.020634
0.510906
-0.0189504
0.491272
-0.0173788
0.473701
-0.0157479
0.458348
-0.0139412
0.445395
-0.0119036
0.435035
-0.0096153
0.427457
-0.00709008
0.422823
-0.00437092
-0.00152243
0.346784
-0.00535141
0.332643
-0.00480869
0.319748
-0.00448442
0.308133
-0.00413313
0.297905
-0.00371322
0.289212
-0.00321048
0.282217
-0.00261969
0.277074
-0.00194713
0.273912
-0.00120926
-0.000429076
0.126672
0.121863
0.117379
0.113246
0.109533
0.106322
0.103702
0.101755
0.100546
0.00018505
0.0116086
-0.0117936
0.000623713
0.0304449
-0.0308836
0.00123712
0.0462395
-0.0468529
0.00197725
0.0594649
-0.060205
0.00277651
0.0700185
-0.0708178
0.00376939
0.0798857
-0.0808786
0.00396332
0.077264
-0.0774579
0.00408468
0.0700394
-0.0701608
0.0039448
0.061077
-0.0609371
0.0499538
0.00350706
-0.049516
0.000533375
0.0110752
0.0018038
0.0291745
0.00358495
0.0444584
0.00574103
0.0573088
0.00807251
0.067687
0.0110392
0.076919
0.0116755
0.0766277
0.0120804
0.0696346
0.0117732
0.0613842
0.0510761
0.0106508
0.000835464
0.0102398
0.00283172
0.0271783
0.0056389
0.0416512
0.00904121
0.0539065
0.012739
0.0639893
0.0172468
0.0724112
0.0187895
0.075085
0.0195711
0.068853
0.0193849
0.0615705
0.0524326
0.0180284
0.00105593
0.00918382
0.00359686
0.0246373
0.00719334
0.0380547
0.0115554
0.0495444
0.016356
0.0591887
0.0217469
0.0670203
0.0250719
0.0717601
0.0263541
0.0675707
0.0266024
0.0613222
0.0535644
0.0254706
0.0011514
0.00803243
0.00397914
0.0218096
0.0080414
0.0339925
0.0129965
0.0445894
0.018551
0.0536342
0.0245568
0.0610145
0.0299512
0.0663657
0.0320891
0.0654329
0.0330104
0.0604009
0.0540892
0.0324856
0.00111144
0.00692099
0.00396583
0.0189552
0.00818527
0.029773
0.0133898
0.0393849
0.0193174
0.0477065
0.0257713
0.0545607
0.032415
0.0597219
0.0363115
0.0615364
0.0381232
0.0585891
0.0537052
0.0385073
0.000926214
0.00599478
0.00357286
0.0163086
0.00771043
0.0256355
0.0128814
0.034214
0.0187862
0.0418017
0.0253377
0.0480092
0.0323203
0.0527393
0.0382741
0.0555826
0.0415859
0.0552773
0.0521811
0.04311
0.000567888
0.00542689
0.00278668
0.0140898
0.00665749
0.0217646
0.0116213
0.0292502
0.0172043
0.0362187
0.0234473
0.0417662
0.0302857
0.0459009
0.0371833
0.048685
0.0425598
0.0499008
0.0489228
0.045818
0.000103993
0.0053229
0.00176889
0.0124249
0.00517608
0.0183575
0.00981534
0.0246109
0.0149576
0.0310764
0.0206218
0.036102
0.0269038
0.0396189
0.0335868
0.0420019
0.040084
0.0434037
0.0437954
0.0452115
-0.000175189
0.00549809
0.00108754
0.0111622
0.00385679
0.0155882
0.00788759
0.0205801
0.0125024
0.0264615
0.0175728
0.0310317
0.0231779
0.0340138
0.0292491
0.0359307
0.0356347
0.0370181
0.0373699
0.0420602
-2.04083e-05
0.0055185
0.00114121
0.0100005
0.00327909
0.0134503
0.00641479
0.0174444
0.0102968
0.0225796
0.0148377
0.0264907
0.0199563
0.0288952
0.0254872
0.0303998
0.0312235
0.0312819
0.0316975
0.0368958
0.000378373
0.00514013
0.00153316
0.00884575
0.00318227
0.0118012
0.00549305
0.0151336
0.0087114
0.0193612
0.0128949
0.0223073
0.0177443
0.0240457
0.023009
0.025135
0.0284979
0.025793
0.0260637
0.0341318
0.000624788
0.00451534
0.00170796
0.00776258
0.00302842
0.0104807
0.00484675
0.0133153
0.00783368
0.0163743
0.0119189
0.0182221
0.0166666
0.0192979
0.021837
0.0199647
0.0272973
0.0203326
0.0204146
0.0329463
0.000676938
0.0038384
0.00164281
0.0067967
0.002821
0.00930255
0.00469831
0.011438
0.00796603
0.0131066
0.0121912
0.0139969
0.0170032
0.0144859
0.0222398
0.014728
0.0278045
0.014768
0.0146077
0.0336114
0.00066289
0.0031755
0.00155166
0.00590792
0.00298758
0.00786663
0.00556779
0.00885777
0.00935417
0.00932017
0.013872
0.00947911
0.0189113
0.00944655
0.0243727
0.00926669
0.0301878
0.00895279
0.00851041
0.0362851
0.000592803
0.0025827
0.00170866
0.00479206
0.00404716
0.00552812
0.00750071
0.00540422
0.0117516
0.0050693
0.0165976
0.00463307
0.0219371
0.00410709
0.0277105
0.00349329
0.0338663
0.00279694
0.00203076
0.0403459
0.000521041
0.00206165
0.00247429
0.0028388
0.00573803
0.00226436
0.00973429
0.00140797
0.0143237
0.000479862
0.0194597
-0.000502888
0.0251114
-0.00154464
0.0312362
-0.0026315
0.0377737
-0.00374056
-0.00485962
0.0446641
0.000866447
0.00119519
0.0036098
9.54367e-05
0.00717192
-0.00129777
0.0113578
-0.00277795
0.0161529
-0.00431519
0.0215667
-0.00591674
0.0275586
-0.00753655
0.0340392
-0.00911211
0.0409259
-0.0106272
-0.0121109
0.0481772
0.00150452
-0.000309336
0.00413744
-0.00253749
0.00756118
-0.00472152
0.0117757
-0.00699246
0.0167878
-0.00932736
0.0225215
-0.0116504
0.0288123
-0.0138274
0.0355394
-0.0158391
0.0426755
-0.0177633
-0.0196553
0.0502199
0.00106665
0.00316919
0.00649345
0.0109572
0.0163334
0.0223085
0.0287209
0.0355987
0.0430075
0.0509257
0.0513711
0.0838016
-0.0982768
0.0772008
-0.00727627
-0.0185534
0.0997674
-0.0508982
0.0283316
0.113379
-0.0467998
0.033188
0.121301
-0.0266255
0.018704
0.124897
-0.00789806
0.00430138
0.126029
0.00300855
-0.00414024
0.126593
0.00572033
-0.00628367
0.127465
0.00468469
-0.00555751
0.00181303
-0.00339734
0.0585475
0.0593858
0.0915376
-0.0402665
0.118655
-0.078016
0.134601
-0.0627458
0.143286
-0.03531
0.14691
-0.0115221
0.147768
0.00215087
0.148051
0.0054376
0.148747
0.00398843
0.000468963
0.0665397
0.0257925
0.10489
-0.0786164
0.13584
-0.108967
0.155413
-0.0823182
0.165368
-0.0452655
0.169051
-0.0152051
0.169516
0.00168624
0.169346
0.00560766
0.169674
0.00366046
-0.000465635
0.075403
-0.0159991
0.117704
-0.120918
0.151543
-0.142806
0.174877
-0.105652
0.186882
-0.0572707
0.190883
-0.0192063
0.190976
0.00159343
0.190284
0.00629942
0.190132
0.003813
-0.000876103
0.0844478
-0.0641618
0.129518
-0.165988
0.165514
-0.178802
0.192151
-0.13229
0.20706
-0.0721793
0.211974
-0.0241199
0.211871
0.00169631
0.210676
0.00749377
0.209997
0.00449251
-0.000701691
0.0929073
-0.116723
0.14
-0.213081
0.177666
-0.216467
0.206848
-0.161472
0.225037
-0.0903688
0.231777
-0.0308595
0.231867
0.00160657
0.230303
0.00905757
0.229128
0.00566767
5.94892e-05
0.100124
-0.172183
0.148883
-0.26184
0.187908
-0.255492
0.218892
-0.192455
0.24011
-0.111587
0.249641
-0.0403901
0.25058
0.000667704
0.248917
0.0107199
0.247363
0.00722213
0.00134817
0.105751
-0.229757
0.156046
-0.312135
0.196193
-0.295639
0.2284
-0.224662
0.251954
-0.135142
0.264817
-0.0532529
0.267536
-0.00205171
0.266219
0.0120366
0.264503
0.00893857
0.00303635
0.109769
-0.289305
0.161523
-0.36389
0.202558
-0.336673
0.235562
-0.257666
0.260627
-0.160207
0.276647
-0.0692733
0.282139
-0.00754369
0.281847
0.0123292
0.280315
0.01047
0.00492749
0.112484
0.165485
0.207144
0.240592
0.266474
0.284837
0.293639
0.295237
0.294419
0.0131984
0.00607888
-0.0192773
0.0109791
0.00221934
0.0114889
-0.000509841
0.0128998
-0.00141084
0.0136035
-0.00070373
0.013722
-0.000118546
0.013516
0.000206005
0.0132325
0.000283501
0.0129923
0.000240212
0.000224172
0.0372425
0.0232196
-0.0543832
0.0314649
0.00799694
0.0339459
-0.00299081
0.0379688
-0.0054338
0.0401145
-0.00284936
0.0405075
-0.000511555
0.0399207
0.000792821
0.0391015
0.00110275
0.0383697
0.000972006
0.000737355
0.0579535
0.0481075
-0.0828415
0.0508345
0.015116
0.0557954
-0.00795176
0.0623219
-0.0119603
0.0659493
-0.00647678
0.0666928
-0.00125508
0.0657823
0.0017034
0.0644662
0.0024189
0.0632831
0.00215504
0.00147422
0.0738882
0.0754233
-0.101204
0.0680145
0.0209896
0.0763133
-0.0162505
0.0855783
-0.0212253
0.0908451
-0.0117435
0.0920766
-0.00248652
0.0909318
0.00284821
0.0891791
0.00417159
0.0876218
0.00371234
0.00238069
0.0813793
-0.104233
0.0838153
0.0958962
0.107859
0.114819
0.116634
0.115342
0.11323
0.111385
0.00273354
-0.000172917
-0.00256062
0.00326438
-0.000530845
0.00417657
-0.000912186
0.00548757
-0.001311
0.00718391
-0.00169634
0.00922839
-0.00204449
0.0115849
-0.00235652
0.0141731
-0.00258824
0.0168582
-0.00268501
-0.00241918
0.00778706
-0.000645667
-0.00731431
0.00923388
-0.00197767
0.0117131
-0.00339144
0.0152694
-0.00486723
0.0198834
-0.00631042
0.0254812
-0.00764229
0.0319634
-0.00883864
0.0391545
-0.00977939
0.0467654
-0.010296
-0.010037
0.0124775
-0.00138369
-0.0117394
0.0147271
-0.00422726
0.0185598
-0.00722414
0.0240235
-0.010331
0.0310779
-0.0133648
0.0395845
-0.0161489
0.0493261
-0.0185803
0.0600489
-0.0205022
0.0714123
-0.0216593
-0.0214662
0.0168067
-0.0023476
-0.0158428
0.0197308
-0.00715137
0.0246738
-0.0121672
0.03165
-0.0173072
0.0405483
-0.0222631
0.0511042
-0.0267047
0.0629349
-0.030411
0.0756909
-0.0332583
0.0888561
-0.0348246
-0.0338141
0.0207921
-0.0196326
0.0242915
0.0301527
0.0383161
0.0485387
0.0603412
0.0730403
0.0856
0.0959869
0.0314657
-0.0312951
0.0371037
-0.0372743
0.0256023
-0.0308921
0.0367556
0.0199409
-0.0300595
0.0357208
0.0146914
-0.0286637
0.0339132
0.010068
-0.0264561
0.0310795
0.00620938
-0.0227716
0.0266302
0.00311729
-0.0176455
0.0207376
0.00102008
-0.0136204
0.0157176
-8.50426e-05
-0.0101588
0.0112639
-0.00563807
0.00555303
0.0294934
-0.0254281
-0.0353604
0.0237741
-0.0251728
0.0182808
-0.0245661
0.0131909
-0.0235738
0.00875682
-0.022022
0.00536061
-0.0193753
0.00302662
-0.0153115
0.00140136
-0.0119951
0.000300947
-0.00905838
-0.00533712
0.0294705
-0.0194367
-0.0354619
0.0236634
-0.0193656
0.0181429
-0.0190457
0.013026
-0.0184569
0.00851503
-0.017511
0.00506052
-0.0159208
0.00301586
-0.0132668
0.00165243
-0.0106317
0.000586637
-0.00799258
-0.00475048
0.0313796
-0.0131725
-0.0376438
0.0253501
-0.0133361
0.0196385
-0.0133341
0.0143314
-0.0131498
0.00956774
-0.0127473
0.00567151
-0.0120246
0.00321191
-0.0108072
0.00177051
-0.00919029
0.000731767
-0.00695383
-0.00401871
0.0349479
-0.00652059
-0.0415998
0.0285781
-0.00696618
0.022562
-0.00731802
0.0169663
-0.00755399
0.0118818
-0.00766282
0.00749248
-0.00763524
0.0041465
-0.00746123
0.00199974
-0.00704352
0.000800684
-0.00575477
-0.00321802
0.0392177
0.000577033
-0.0463154
0.0324454
-0.000193794
0.0260704
-0.000942995
0.0201667
-0.00165027
0.0147947
-0.00229087
0.0100177
-0.00285827
0.00591946
-0.00336293
0.00267275
-0.0037968
0.000720135
-0.00380214
-0.00249787
0.0429996
0.00807753
-0.0505001
0.0358393
0.00696648
0.0290731
0.00582321
0.0228
0.00462284
0.0171203
0.00338886
0.0120728
0.0021892
0.00764077
0.00106915
0.00383295
1.10259e-05
0.000974195
-0.000943374
-0.00152367
0.0452355
0.0158606
-0.0530186
0.0378276
0.0143745
0.030793
0.0128578
0.0241698
0.0112461
0.0181004
0.00945826
0.0127674
0.00752219
0.00824686
0.00558969
0.00451676
0.00374113
0.00161934
0.00195406
9.5678e-05
0.0453806
0.0239385
-0.0534585
0.0377849
0.0219702
0.0306743
0.0199683
0.0239638
0.0179566
0.0176256
0.0157965
0.011855
0.0132928
0.00702319
0.0104215
0.00340813
0.0073562
0.00114374
0.00421845
0.00123942
0.0443489
-0.0528389
0.0364155
0.0291666
0.0225807
0.0164636
0.0107077