/*--------------------------------*- C++ -*----------------------------------*\
  =========                 |
  \\      /  F ield         | OpenFOAM: The Open Source CFD Toolbox
   \\    /   O peration     | Website:  https://openfoam.org
    \\  /    A nd           | Version:  13
     \\/     M anipulation  |
\*---------------------------------------------------------------------------*/
FoamFile
{
    format      ascii;
    class       volScalarField;
    location    "67.7";
    object      p;
}
// * * * * * * * * * * * * * * * * * * * * * * * * * * * * * * * * * * * * * //

dimensions      [0 2 -2 0 0 0 0];

internalField   nonuniform List<scalar> 
440
(
-1.17503
-1.1539
-1.14391
-1.13596
-1.19164
-1.23805
-1.21265
-1.18734
-1.16248
-1.1383
-1.36774
-1.32525
-1.26971
-1.19772
-1.12054
-1.5037
-1.44621
-1.32662
-1.18772
-1.04797
-1.58013
-1.49646
-1.31143
-1.12258
-0.953115
-0.926383
-0.97151
-1.09431
-1.29246
-1.52189
-1.18836
-1.20626
-1.26185
-1.34953
-1.47028
-1.17704
-1.15875
-1.13859
-1.1251
-1.13292
-1.16855
-1.1512
-1.1378
-1.14038
-1.17548
-1.15891
-1.14093
-1.12751
-1.12312
-1.1503
-0.697412
-0.0855767
-0.417539
0.0847569
-0.143891
-0.879067
-0.258985
-0.37225
0.130342
-0.161855
-0.99301
-0.18372
0.00131275
0.16791
-0.199776
-1.22011
-0.0782915
0.559801
0.19895
-0.211878
-1.28141
-0.106149
0.719044
0.25852
-0.167832
-0.984255
-0.0413562
0.441076
0.303363
-0.084397
-0.498478
0.200576
0.178904
0.22567
0.00574387
-0.301688
0.294474
0.564351
0.227214
0.0322439
-0.134723
0.227673
0.586176
0.27111
0.0201067
-0.0560587
0.192864
0.655403
0.393837
0.0520009
-0.666999
-0.787833
-0.953309
-1.11235
-1.29245
-0.384561
-0.505485
-0.596137
-0.656316
-0.695162
-0.194929
-0.300336
-0.355078
-0.390904
-0.405751
-0.0817703
-0.171698
-0.220127
-0.241359
-0.237053
-0.0287909
-0.115146
-0.160541
-0.173914
-0.153581
0.795169
0.632469
0.424759
0.192399
-0.0622751
0.341931
0.168099
-0.0422629
-0.283124
-0.56262
-0.0992039
-0.278252
-0.503492
-0.752929
-1.02482
-0.497179
-0.678917
-0.911992
-1.15863
-1.37254
-0.763158
-0.956468
-1.17771
-1.40838
-1.55216
1.98138
2.00849
2.03155
2.03968
2.03037
1.76652
1.78251
1.79142
1.7823
1.7507
1.53473
1.5165
1.4733
1.40582
1.30999
1.26512
1.22648
1.14944
1.03919
0.897367
1.03404
0.918672
0.770818
0.601645
0.395991
1.78188
1.77054
1.7511
1.81673
1.88278
1.77003
1.7576
1.72723
1.78922
1.7779
1.75929
1.74207
1.70129
1.74872
1.64878
1.74978
1.72475
1.67325
1.69647
1.46303
1.74157
1.70593
1.64404
1.64069
1.26794
1.73465
1.67926
1.60759
1.53162
1.0528
1.72816
1.64742
1.58592
1.42581
1.18011
1.73462
1.62847
1.55791
1.37965
1.1931
1.72817
1.60042
1.54154
1.33016
1.1986
1.76495
1.59781
1.53233
1.30418
1.20438
0.758369
0.434457
0.0718053
-0.255589
-0.465654
0.643904
0.416213
0.170671
-0.0481431
-0.235263
0.631399
0.446426
0.261012
0.0930167
-0.0708873
0.690267
0.509049
0.336817
0.18119
0.0349625
0.714123
0.534839
0.372564
0.225432
0.0853354
-0.69186
-0.58659
-0.449314
-0.338374
-0.272146
-0.744603
-0.691987
-0.589995
-0.508453
-0.460693
-0.672412
-0.629366
-0.57381
-0.528865
-0.50144
-0.540205
-0.50709
-0.472915
-0.448275
-0.432154
-0.445145
-0.42713
-0.408329
-0.398569
-0.421322
-0.393644
-0.386867
-0.372408
-0.371359
-0.354136
-0.387055
-0.386273
-0.383976
-0.392179
-0.400745
-0.360954
-0.364225
-0.375142
-0.396575
-0.415815
-0.359131
-0.356488
-0.359062
-0.359238
-0.345977
-0.353807
-0.389583
-0.484154
-0.616099
-0.684027
-0.494134
0.636072
0.258572
0.00764314
-0.0536748
-0.430258
0.754811
0.17029
-0.00066207
-0.0822857
-0.306355
0.884468
0.0634092
0.00526687
-0.104061
-0.219596
0.762995
-0.0573695
0.0272422
-0.120487
-0.382816
0.355545
-0.247452
0.0549497
-0.131031
-0.0223932
0.392364
0.259443
0.0204286
0.00492826
-0.371819
0.454597
0.315217
0.0361599
-0.0181229
-0.233857
-0.44992
-0.46053
-0.44955
-0.233591
-0.250201
-0.444522
-0.484332
-0.437258
-0.45374
1.80132
1.78787
1.75979
1.7185
1.66377
1.95084
1.97395
1.98448
1.981
1.9642
2.07195
2.10611
2.13393
2.15102
2.15492
2.12806
2.16636
2.20655
2.23936
2.25503
2.09755
2.13191
2.16913
2.19913
2.21178
0.0932075
0.00777534
-0.125635
-0.289437
-0.461116
0.581714
0.470834
0.321951
0.144303
-0.0656167
1.01809
0.902067
0.763802
0.602362
0.411006
1.36253
1.27484
1.16778
1.03897
0.888219
1.63624
1.57788
1.5013
1.40962
1.30368
1.85201
1.81064
1.80901
1.83705
1.88285
1.83558
1.80558
1.80422
1.84549
1.92144
1.82114
1.79912
1.79798
1.85455
1.9721
1.80738
1.79136
1.78676
1.85193
1.96766
1.79425
1.78207
1.77066
1.83959
1.94193
1.91038
1.82085
1.80462
1.7771
1.77652
1.86363
1.80992
1.79733
1.79308
1.78964
1.54167
1.37568
1.07096
0.617927
0.118892
1.60572
1.39827
1.08268
0.63472
0.125987
)
;

boundaryField
{
    left
    {
        type            zeroGradient;
    }
    right
    {
        type            fixedValue;
        value           uniform 0;
    }
    down
    {
        type            zeroGradient;
    }
    up
    {
        type            zeroGradient;
    }
    cylinder
    {
        type            zeroGradient;
    }
    defaultFaces
    {
        type            empty;
    }
}


// ************************************************************************* //
