/*--------------------------------*- C++ -*----------------------------------*\
  =========                 |
  \\      /  F ield         | OpenFOAM: The Open Source CFD Toolbox
   \\    /   O peration     | Website:  https://openfoam.org
    \\  /    A nd           | Version:  13
     \\/     M anipulation  |
\*---------------------------------------------------------------------------*/
FoamFile
{
    format      ascii;
    class       volScalarField;
    location    "0.37";
    object      strainRateViscosityModel:nu;
}
// * * * * * * * * * * * * * * * * * * * * * * * * * * * * * * * * * * * * * //

dimensions      [0 2 -1 0 0 0 0];

internalField   nonuniform List<scalar> 
1800
(
9.40489
9.19758
9.01001
8.80085
8.57601
8.34398
8.11534
7.89816
7.62442
7.37964
9.58524
9.41878
9.26688
9.09728
8.91109
8.71133
8.50347
8.28862
8.02737
7.70229
9.7022
9.56269
9.42802
9.27094
9.08864
8.87892
8.64084
8.36899
8.03061
7.61075
9.7754
9.65614
9.53324
9.38286
9.20047
8.98168
8.72276
8.41593
8.02881
7.55468
9.82168
9.71831
9.60559
9.46166
9.2807
9.05694
8.78547
8.45887
8.04778
7.55623
9.85186
9.76082
9.65731
9.52059
9.34355
9.11896
8.84034
8.50016
8.07154
7.57026
9.87179
9.78992
9.69399
9.56397
9.39148
9.16769
8.88421
8.53253
8.08737
7.57571
9.88475
9.80925
9.71889
9.59396
9.42496
9.20147
8.91311
8.55006
8.08855
7.56358
9.8926
9.82108
9.73417
9.61221
9.44468
9.21964
8.92485
8.54924
8.07122
7.52873
9.89647
9.82686
9.74154
9.62071
9.45311
9.22575
8.92514
8.53955
8.05039
7.49286
1.73596
1.40489
1.22386
1.33004
1.72513
2.23466
2.48408
2.44678
2.3606
2.33641
3.65632
1.79418
1.50715
1.97939
2.67711
2.9625
2.82395
2.68287
2.69536
2.74593
4.6571
2.58274
2.44572
3.16659
3.58411
3.35292
3.09727
3.12975
3.26461
3.34379
5.24605
3.88989
3.82
4.20745
4.17856
3.83893
3.73232
3.86174
3.96261
4.0121
6.04681
5.27855
5.1196
5.11909
4.91537
4.65833
4.58351
4.61691
4.61799
4.65835
6.95682
6.46086
6.22728
6.03739
5.78824
5.547
5.39172
5.29681
5.22681
5.2797
7.77087
7.37787
7.11673
6.85971
6.58693
6.32066
6.08816
5.90288
5.77316
5.82703
8.39992
8.05525
7.79181
7.5153
7.22593
6.93081
6.64225
6.38709
6.19387
6.23128
8.8493
8.5453
8.29081
8.00996
7.70523
7.37903
7.03539
6.70133
6.41659
6.42304
9.16164
8.90149
8.66621
8.39645
8.09541
7.76544
7.40623
7.03572
6.7091
6.75335
2.19262
1.72848
1.32872
0.924477
0.59008
0.288188
0.101609
0.0381977
0.0298046
0.0363452
2.53162
1.85356
1.41156
0.930003
0.573246
0.272875
0.0784691
0.0193952
0.0126866
0.0105554
2.95488
1.98649
1.48988
0.93748
0.551465
0.255506
0.064239
0.0158416
0.0115449
0.0101152
3.44816
2.15752
1.5642
0.947737
0.526752
0.236783
0.056704
0.0152561
0.0114094
0.0100897
3.98975
2.39485
1.6421
0.960529
0.500194
0.216064
0.0526891
0.0152195
0.01139
0.0100798
4.534
2.70485
1.73749
0.977884
0.473606
0.192936
0.0497088
0.0154237
0.0114412
0.0100866
5.00139
3.06373
1.85827
1.00018
0.447515
0.166985
0.0460304
0.0157742
0.0115583
0.0101108
5.31659
3.44629
2.02475
1.04252
0.42949
0.14062
0.0410113
0.016043
0.0116976
0.0101328
5.34684
3.72932
2.17387
1.07447
0.408976
0.112595
0.0335988
0.015916
0.0112311
0.010171
5.20532
3.99591
2.4103
1.17933
0.426562
0.0998019
0.029018
0.0115909
0.0110277
0.0332144
4.94825
3.94955
2.46799
1.19529
0.400598
0.0637956
0.0105622
0.0210443
0.0917897
0.182938
5.33551
3.35672
2.14763
0.999036
0.336985
0.0666894
0.0606442
0.1785
0.2644
0.32362
4.90763
3.04224
2.23296
1.17367
0.548978
0.230565
0.202435
0.277227
0.360181
0.435888
4.54267
3.61974
2.6615
1.61115
0.858999
0.433609
0.319141
0.385484
0.469365
0.541308
5.10992
4.74159
3.33258
2.14833
1.21849
0.683784
0.486753
0.500232
0.564846
0.628822
6.25361
5.66826
4.05523
2.66876
1.59033
0.952624
0.670894
0.623313
0.658599
0.704808
7.26289
6.37418
4.71498
3.15489
1.95621
1.22783
0.869822
0.753604
0.748293
0.768503
8.00032
6.91264
5.26155
3.59109
2.30301
1.50111
1.07333
0.888647
0.836476
0.823324
8.51886
7.3311
5.69863
3.97219
2.62521
1.76309
1.26923
1.01716
0.915614
0.866812
8.93102
7.69131
6.05049
4.2848
2.93212
2.04288
1.48991
1.16638
1.00832
0.91279
6.51285
6.43967
6.4305
6.4489
6.48762
6.53038
6.5826
6.71129
6.89616
6.82741
0.260888
1.05765
2.00851
2.9239
3.7052
4.31821
4.73538
4.98539
5.22502
5.73134
3.8504
3.54335
3.28382
3.11031
3.10536
3.24928
3.47204
3.7139
4.16619
4.84732
6.64444
6.62745
6.53725
6.34459
6.04276
5.65669
5.24765
4.89339
4.73636
4.54644
7.69198
7.67667
7.63226
7.54142
7.39624
7.18988
6.9269
6.61894
6.28484
5.65427
8.4496
8.4332
8.39443
8.3278
8.22967
8.09683
7.92849
7.71693
7.42793
6.90763
8.93972
8.92398
8.89033
8.83683
8.76171
8.66296
8.53823
8.37902
8.1548
7.80878
9.273
9.25983
9.23248
9.18987
9.13054
9.05248
8.95272
8.82486
8.65288
8.43101
9.50447
9.49417
9.47308
9.44024
9.39427
9.33319
9.25425
9.15288
9.02291
8.87538
9.6899
9.68285
9.66852
9.64604
9.61405
9.5707
9.51361
9.43975
9.34637
9.2441
7.24952
7.52709
7.83718
8.08755
8.34454
8.59934
8.84116
9.06145
9.25455
9.46031
7.58389
7.9484
8.24095
8.48095
8.70914
8.92463
9.12218
9.29895
9.45391
9.61811
7.499
7.95754
8.32588
8.62034
8.87559
9.09761
9.28798
9.44949
9.58537
9.72229
7.44723
7.9577
8.37369
8.70188
8.97647
9.20589
9.39467
9.54805
9.67132
9.78826
7.45654
7.98071
8.41855
8.76482
9.05047
9.28352
9.46976
9.61591
9.72869
9.83024
7.48253
8.0117
8.46398
8.82142
9.11231
9.34473
9.52605
9.66447
9.76797
9.85765
7.50369
8.03786
8.50275
8.8686
9.16196
9.39189
9.56764
9.69891
9.7948
9.87571
7.51117
8.05246
8.52871
8.90208
9.19747
9.42521
9.59641
9.72214
9.81244
9.88729
7.49837
8.05046
8.53742
8.91899
9.21769
9.44504
9.61373
9.73607
9.8229
9.89405
7.48289
8.04359
8.53594
8.92345
9.22527
9.45332
9.62125
9.74218
9.82747
9.89694
2.5363
2.49603
2.51858
2.72671
2.89281
2.50695
1.66889
1.17282
1.51386
4.12452
2.95133
2.8633
2.70831
2.71317
3.09944
3.40669
2.78855
1.88444
2.10472
5.10174
3.45266
3.40694
3.24833
3.06614
3.26975
3.82286
3.79012
3.13884
3.2624
5.43573
3.9549
3.94265
3.91344
3.80257
3.89501
4.32052
4.58586
4.45482
4.64125
5.89679
4.51051
4.48276
4.55587
4.62409
4.78472
5.1157
5.43678
5.61237
5.88604
6.62109
5.11205
5.06933
5.20692
5.40225
5.66004
5.98123
6.30757
6.59219
6.89606
7.40173
5.66152
5.62479
5.82361
6.09381
6.40901
6.74078
7.06758
7.37648
7.67672
8.08474
6.07208
6.05677
6.31801
6.64361
6.99509
7.33923
7.66643
7.97326
8.25811
8.61054
6.26412
6.28214
6.63239
7.0262
7.41976
7.78377
8.11606
8.41614
8.68247
8.98787
6.60285
6.57195
6.95681
7.37951
7.78097
8.14264
8.46611
8.75015
8.99287
9.2519
0.0995551
0.142954
0.0854649
0.0371687
0.0117909
0.324481
0.873654
1.44177
1.92143
2.40959
0.0663826
0.130471
0.0834224
0.0371975
0.0141072
0.318457
0.889022
1.51698
2.01354
2.6882
0.0453875
0.126202
0.0850145
0.0423406
0.0235873
0.328523
0.912363
1.58218
2.09847
3.01182
0.0332801
0.128918
0.0901134
0.0521542
0.0421185
0.350112
0.937884
1.63418
2.2133
3.40671
0.0275268
0.136809
0.0974743
0.0645647
0.0667805
0.376095
0.960548
1.68171
2.39706
3.87921
0.0264001
0.148088
0.105721
0.0773834
0.0935178
0.40142
0.981882
1.74624
2.66456
4.3755
0.0296069
0.161788
0.113595
0.0885165
0.117482
0.421459
1.00493
1.84426
2.995
4.80463
0.0386731
0.178307
0.120627
0.0974445
0.137793
0.442776
1.05284
2.00278
3.36001
5.0879
0.0572632
0.19861
0.126894
0.100821
0.144874
0.449242
1.09148
2.15211
3.63681
5.09024
0.088968
0.221215
0.134292
0.106414
0.164263
0.498648
1.22709
2.40928
3.88678
4.89838
0.148158
0.249969
0.147336
0.106135
0.152849
0.48965
1.2827
2.52012
3.89513
4.68077
0.253582
0.282375
0.141221
0.0890598
0.0884688
0.365892
1.13113
2.31303
3.4412
5.20068
0.418847
0.280805
0.120927
0.0234776
0.0147468
0.28112
1.11132
2.33186
3.25075
4.94212
0.671242
0.271236
0.0263638
0.0838451
0.125927
0.484385
1.38912
2.59167
3.69505
4.69116
1.0531
0.0583602
0.241457
0.282636
0.352489
0.862446
1.91035
3.18512
4.69426
5.16897
1.51388
0.0993174
0.534335
0.466259
0.639184
1.29518
2.46425
3.90826
5.59429
6.22088
2.19006
0.68958
0.851271
0.743033
0.987273
1.73889
2.99085
4.59107
6.30194
7.21643
3.79005
1.69821
1.27639
1.08588
1.36299
2.16136
3.46572
5.16572
6.85469
7.96913
6.85953
3.5757
1.96727
1.46443
1.72235
2.54268
3.88209
5.63314
7.29576
8.50737
9.04899
6.38451
2.85266
2.03718
2.15491
2.92276
4.23751
6.02208
7.6868
8.938
6.62773
6.69017
6.51291
6.39067
6.34984
6.32324
6.30594
6.31751
6.36201
6.47629
5.53553
5.01639
4.7716
4.52953
4.13047
3.54366
2.80094
1.93368
1.04561
0.284562
4.85388
4.23841
3.82748
3.61561
3.42784
3.30785
3.31281
3.45567
3.65414
3.8737
4.70685
4.87992
5.02315
5.33399
5.6997
6.05126
6.33367
6.52157
6.61686
6.6419
5.68329
6.28326
6.61093
6.91082
7.17233
7.38165
7.53205
7.62838
7.6769
7.69256
6.86513
7.38845
7.68456
7.90255
8.07683
8.21505
8.31798
8.3887
8.43067
8.44899
7.76536
8.12072
8.35218
8.51808
8.6481
8.75109
8.82964
8.88589
8.9217
8.93904
8.40473
8.6328
8.80896
8.94099
9.04405
9.12469
9.18598
9.23008
9.25856
9.27261
8.86618
9.0162
9.14761
9.25059
9.33082
9.39282
9.43943
9.47267
9.494
9.50442
9.2486
9.35037
9.44296
9.51626
9.5729
9.61585
9.64746
9.66955
9.68347
9.69011
9.50932
8.98508
8.23554
6.92791
5.59783
0.131171
3.36073
5.96013
7.21369
8.1515
9.46525
8.92128
8.16776
6.89022
5.54924
0.563751
2.62213
5.70578
6.91603
7.91356
9.36549
8.78251
8.01988
6.80921
5.36616
1.60346
1.41346
5.20643
6.30894
7.40286
9.18231
8.54476
7.77405
6.65466
5.18616
2.74
0.722983
4.2382
5.4212
6.57099
8.86779
8.17315
7.40349
6.37641
5.02614
3.36791
0.970882
2.63141
4.31663
5.3933
8.3501
7.62918
6.8728
5.91666
4.76463
3.43982
1.71922
1.30171
3.049
3.98771
7.53551
6.89594
6.15482
5.22687
4.29911
3.26924
2.14302
1.17236
1.65594
2.55711
6.32483
6.03678
5.28051
4.23123
3.53296
2.9123
2.11829
1.43502
1.06827
1.23511
4.63134
5.23127
4.4734
2.99919
2.43691
2.27431
1.85585
1.38456
1.12236
0.658875
2.67284
4.53818
4.02039
1.96683
1.39701
1.48845
1.40983
1.2114
1.06362
0.84489
1.27709
3.78673
3.66489
1.33813
0.81675
0.897828
0.970942
0.9559
0.97124
1.01942
0.613873
2.96592
3.07953
0.958278
0.576059
0.639851
0.758843
0.819357
0.843355
0.876466
0.355702
2.18371
2.28112
0.689821
0.492771
0.594211
0.724828
0.809269
0.847211
0.872195
0.265654
1.54382
1.48339
0.521117
0.532542
0.671265
0.784473
0.855583
0.879231
0.889812
0.240134
1.01407
0.83957
0.509565
0.664417
0.797841
0.898826
0.962358
0.97836
0.975677
0.243444
0.493055
0.493358
0.628348
0.809064
0.946298
1.0441
1.10222
1.11322
1.10536
0.180512
0.20227
0.500087
0.746396
0.963269
1.10927
1.20023
1.24819
1.26486
1.26513
0.0464094
0.246207
0.64123
0.910965
1.12504
1.24489
1.32194
1.39032
1.44496
1.46597
0.0564291
0.486882
0.813505
1.08917
1.22705
1.33535
1.48085
1.63483
1.72127
1.73768
0.669994
0.852796
1.0385
1.1897
1.32651
1.58998
1.89449
2.06484
2.07151
2.04085
0.362835
0.0801698
0.220535
0.544387
0.786338
0.877275
0.863726
0.822376
0.799244
0.809335
0.461857
0.201339
0.314574
0.514019
0.714956
0.794839
0.781163
0.744494
0.728108
0.746638
0.524869
0.368658
0.43431
0.505135
0.643544
0.712734
0.699593
0.666239
0.655549
0.680833
0.636258
0.581353
0.587965
0.545891
0.5761
0.623062
0.612703
0.585187
0.581125
0.612064
0.800566
0.793908
0.731849
0.62694
0.529115
0.532722
0.523628
0.502856
0.50522
0.54038
1.00102
0.987209
0.862125
0.723756
0.515766
0.447213
0.433004
0.419328
0.427725
0.465691
1.2165
1.15701
0.97441
0.8082
0.534397
0.37652
0.343602
0.335874
0.349505
0.388445
1.43997
1.31105
1.07211
0.867281
0.566215
0.33021
0.259523
0.252529
0.269223
0.30808
1.67374
1.45684
1.16015
0.901157
0.590399
0.308866
0.186781
0.173294
0.19113
0.225345
1.91954
1.59667
1.24456
0.917244
0.597692
0.299338
0.134237
0.0953148
0.107077
0.142625
2.00864
0.747022
0.716188
0.959658
1.18863
1.2743
1.25311
1.19701
1.14601
1.10234
1.39416
0.4831
0.577931
0.869242
1.10098
1.18735
1.1687
1.11668
1.07211
1.04079
0.751552
0.288463
0.48011
0.792377
1.02701
1.11466
1.09792
1.04891
1.0097
0.9885
0.25323
0.171131
0.404068
0.720463
0.952103
1.03756
1.02091
0.974453
0.940808
0.930491
0.435489
0.0330603
0.265796
0.607632
0.856408
0.952589
0.941343
0.898446
0.870208
0.870566
9.35445
9.28984
9.14075
8.87279
8.43715
7.77839
6.87076
5.75868
4.58138
3.53655
9.19225
9.0954
8.8808
8.51128
7.94104
7.13589
6.10899
4.95443
3.84417
2.78635
9.02362
8.89998
8.62627
8.16062
7.46123
6.51553
5.37076
4.16801
3.08076
1.94208
8.81602
8.66188
8.32112
7.74746
6.90561
5.81362
4.55436
3.29428
2.22544
1.0898
8.58717
8.37903
7.92542
7.17695
6.11195
4.79153
3.35017
2.08481
0.993682
0.301845
1.06224
1.02666
1.01919
1.02292
0.917687
0.801469
1.29489
3.67926
3.85589
1.32498
0.951675
0.936517
0.929516
0.874179
0.72209
0.591589
0.91417
3.13578
3.10271
0.648908
0.988201
0.984699
0.968066
0.895309
0.750511
0.588825
0.703295
2.36278
2.33411
0.378389
1.05391
1.06543
1.06111
1.00148
0.891274
0.744196
0.660353
1.54411
1.61685
0.277915
1.18278
1.20629
1.21149
1.1638
1.07382
0.950177
0.787846
0.897332
0.903249
0.246852
1.34233
1.36195
1.36986
1.34359
1.2725
1.1392
0.919197
0.659699
0.352229
0.215872
1.53893
1.535
1.50371
1.46148
1.40803
1.29763
1.05824
0.739272
0.269131
0.0660151
1.7981
1.79052
1.70863
1.56026
1.42469
1.32676
1.18601
0.879238
0.483406
0.0462851
2.07456
2.11924
2.11252
1.91862
1.58549
1.30841
1.17502
1.03672
0.832307
0.660493
2.28566
2.33328
2.45395
2.49398
2.18612
1.59991
1.17005
1.06081
1.28579
1.97415
8.1513
7.21333
5.95977
3.36023
0.131427
5.59637
6.92742
8.23534
8.98509
9.50941
7.91288
6.91492
5.70478
2.62152
0.563626
5.54539
6.88877
8.16718
8.92133
9.46556
7.40141
6.30706
5.20465
1.41533
1.59977
5.36166
6.80694
8.019
8.78264
9.36608
6.56835
5.41831
4.236
0.726132
2.73176
5.18143
6.65181
7.77307
8.54509
9.18334
5.3889
4.3121
2.63217
0.971078
3.35666
5.02019
6.37295
7.40255
8.17388
8.86956
3.97917
3.04079
1.3097
1.71372
3.42662
4.75574
5.91183
6.87188
7.63063
8.35309
2.53996
1.65225
1.18766
2.13351
3.25062
4.28234
5.21808
6.15379
6.89872
7.5409
1.21571
1.08763
1.45298
2.1079
2.88004
3.5024
4.2168
5.28091
6.0424
6.33579
0.67136
1.15413
1.40855
1.84315
2.23196
2.40025
2.98358
4.47761
5.24181
4.65618
0.886588
1.10394
1.24917
1.41448
1.46503
1.36999
1.94367
4.02362
4.56261
2.71844
2.08748
0.542538
1.05322
0.649522
0.687537
0.763263
0.631048
0.298333
0.0647494
0.357364
1.6269
0.239469
0.858768
0.499772
0.593401
0.683781
0.588727
0.354855
0.268458
0.490026
1.33133
0.0549009
0.630552
0.361883
0.503125
0.601248
0.55453
0.458514
0.474062
0.592714
1.09242
0.0161097
0.379569
0.254585
0.415497
0.514352
0.55333
0.624213
0.72893
0.758349
0.839441
0.0958952
0.183119
0.174004
0.332734
0.434388
0.599402
0.798577
0.964906
0.973333
0.626547
0.159506
0.044308
0.120692
0.254172
0.376331
0.682258
0.959972
1.17649
1.2141
0.453635
0.207258
0.0540045
0.0291456
0.184079
0.352002
0.767558
1.09278
1.36009
1.46213
0.320393
0.205806
0.0891079
0.0123952
0.109186
0.353829
0.827483
1.19836
1.52384
1.70909
0.22085
0.187745
0.0920536
0.0375115
0.0418617
0.357637
0.856583
1.28512
1.67287
1.94538
0.149258
0.163104
0.0903278
0.0387047
0.0156496
0.343017
0.866409
1.36395
1.80704
2.16964
9.33653
6.77023
2.66815
1.71463
1.22241
1.13702
0.980989
0.791222
0.800629
2.03389
8.21085
4.63624
2.21636
1.43353
1.09231
1.05077
0.904312
0.659062
0.531474
1.39877
6.11983
3.06378
1.78531
1.22731
0.989
0.98456
0.842247
0.567373
0.331683
0.740685
4.13215
1.87546
1.49489
1.02158
0.884402
0.91515
0.782481
0.491797
0.231138
0.223049
2.83364
1.06165
1.2414
0.822468
0.781474
0.834049
0.688326
0.357097
0.0444534
0.397116
3.54764
4.58872
5.7626
6.87288
7.7799
8.43828
8.87356
9.14122
9.29011
9.35454
2.78059
3.8405
4.95168
6.1072
7.13527
7.94104
8.51149
8.88103
9.09556
9.19231
1.928
3.07137
4.16156
5.36602
6.513
7.46009
8.1602
8.62619
8.9
9.02364
1.05349
2.20179
3.28073
4.54609
5.80945
6.90341
7.74634
8.32065
8.66173
8.816
0.299749
0.960495
2.06261
3.33658
4.78452
6.10838
7.17498
7.92447
8.37866
8.58708
)
;

boundaryField
{
    left
    {
        type            calculated;
        value           nonuniform List<scalar> 
35
(
0.297781
0.573161
0.995469
1.62986
2.52523
3.69391
5.06435
6.47591
8.1585
9.44179
0.197216
0.121024
0.0748578
0.0497161
0.0377455
0.0337836
0.0368061
0.0511973
0.0873966
0.155598
4.93298
4.05981
3.23156
2.5098
1.91351
1.42122
1.02233
0.712943
0.481126
0.313421
9.61572
8.97911
7.92221
6.84802
5.85949
)
;
    }
    right
    {
        type            calculated;
        value           nonuniform List<scalar> 
35
(
1.1021
1.04113
0.989587
0.932669
0.874016
0.814002
0.752353
0.687235
0.618808
0.547146
0.472137
0.394196
0.312701
0.228465
0.144029
0.0360199
0.0104127
0.010072
0.0100542
0.0100416
0.010038
0.0100431
0.0100486
0.0103161
0.0384741
0.200355
0.345061
0.45733
0.561822
0.646741
0.71905
0.778323
0.828798
0.86884
0.911199
)
;
    }
    down
    {
        type            calculated;
        value           nonuniform List<scalar> 
40
(
9.45427
7.26616
2.89873
1.80303
1.26218
1.1658
1.00752
0.833172
0.90159
2.261
3.83276
4.88197
6.0333
7.09223
7.94408
8.55462
8.95416
9.19901
9.33544
9.39469
9.3946
9.33516
9.19849
8.9533
8.55329
7.94217
7.08936
6.02814
4.87258
3.81831
2.23169
0.846953
0.759949
0.991425
1.2201
1.304
1.28076
1.22265
1.16927
1.12167
)
;
    }
    up
    {
        type            calculated;
        value           nonuniform List<scalar> 
40
(
9.0341
7.80887
6.16816
4.39609
3.03993
2.13887
1.56279
1.21235
1.03526
0.926232
9.72926
9.72304
9.71045
9.69064
9.66233
9.62377
9.57262
9.50586
9.42075
9.32813
9.33496
9.42648
9.51033
9.57618
9.62661
9.66459
9.69236
9.71167
9.72378
9.72951
9.27068
7.09693
3.247
2.18568
2.27272
3.04373
4.36016
6.15146
7.81378
9.04482
)
;
    }
    cylinder
    {
        type            calculated;
        value           nonuniform List<scalar> 
80
(
1.9108
4.46424
5.47411
5.74542
6.29157
7.08621
7.86065
8.47453
8.91242
9.21291
9.44582
9.61873
9.72983
9.7983
9.84096
9.86846
9.8865
9.89817
9.90522
9.9087
9.50048
9.65067
9.74906
9.81049
9.84902
9.8739
9.89017
9.90055
9.90658
9.90914
5.23336
6.20003
6.1966
6.30203
6.82497
7.52202
8.17456
8.68559
9.05065
9.30258
0.996101
0.472645
0.264793
0.183629
0.160395
0.166188
0.0832628
0.0418751
0.737013
2.34084
9.59433
9.55574
9.46728
9.30165
9.0095
8.51099
7.68587
6.36659
4.38864
2.24119
9.59423
9.55542
9.46666
9.30057
9.00763
8.50779
7.68003
6.35402
4.35799
2.19157
0.953113
0.442497
0.244496
0.171024
0.150653
0.165997
0.163846
0.0857047
0.0435061
0.704213
)
;
    }
    defaultFaces
    {
        type            empty;
    }
}


// ************************************************************************* //
