# Selection   : all
# Cells       : 1800
# Volume      : 7.372328e+01
# Time        	maxMag(U)
3.75          	3.137455e+00
3.775         	3.129407e+00
3.8           	3.121240e+00
