/*--------------------------------*- C++ -*----------------------------------*\
  =========                 |
  \\      /  F ield         | OpenFOAM: The Open Source CFD Toolbox
   \\    /   O peration     | Website:  https://openfoam.org
    \\  /    A nd           | Version:  13
     \\/     M anipulation  |
\*---------------------------------------------------------------------------*/
FoamFile
{
    format      ascii;
    class       volScalarField;
    location    "0.3";
    object      p;
}
// * * * * * * * * * * * * * * * * * * * * * * * * * * * * * * * * * * * * * //

dimensions      [0 2 -2 0 0 0 0];

internalField   nonuniform List<scalar> 
1800
(
-1.00959
-0.988703
-0.935414
-0.852583
-0.758723
-0.667275
-0.584053
-0.510197
-0.444964
-0.39184
-1.19355
-1.17004
-1.10893
-1.01468
-0.908913
-0.806443
-0.713512
-0.63156
-0.560619
-0.50276
-1.36893
-1.34234
-1.27268
-1.16663
-1.04896
-0.935514
-0.83267
-0.741735
-0.662321
-0.595355
-1.53055
-1.50039
-1.42173
-1.30416
-1.1755
-1.05236
-0.941044
-0.842603
-0.75646
-0.683146
-1.67274
-1.63855
-1.55052
-1.42174
-1.2829
-1.15098
-1.03195
-0.926609
-0.834166
-0.754529
-1.79044
-1.7519
-1.65446
-1.51534
-1.36768
-1.22845
-1.10317
-0.992307
-0.89484
-0.810265
-1.8785
-1.83542
-1.72877
-1.58044
-1.42544
-1.28039
-1.15021
-1.03503
-0.933635
-0.845108
-1.93267
-1.88513
-1.76988
-1.61384
-1.45326
-1.30406
-1.17051
-1.05238
-0.948242
-0.856866
-1.94937
-1.8977
-1.77477
-1.61276
-1.44848
-1.29687
-1.16149
-1.04179
-0.936167
-0.843062
-1.92628
-1.87105
-1.74172
-1.5757
-1.40962
-1.2573
-1.12155
-1.00156
-0.895544
-0.801741
0.325007
0.337412
0.351392
0.366271
0.3792
0.388507
0.393921
0.395925
0.395163
0.392209
0.282219
0.294657
0.309767
0.326794
0.342502
0.354799
0.363126
0.367853
0.369602
0.369103
0.213663
0.22619
0.243039
0.263364
0.283327
0.300183
0.312945
0.321807
0.327368
0.330614
0.12052
0.133221
0.152415
0.177157
0.202773
0.225639
0.244225
0.258493
0.269019
0.277154
0.00440119
0.0174054
0.0395487
0.069782
0.102344
0.132521
0.158141
0.1789
0.195352
0.209317
-0.132539
-0.119047
-0.0933546
-0.0566224
-0.0159691
0.0226154
0.0562533
0.0843557
0.107467
0.127951
-0.287488
-0.273261
-0.243447
-0.199336
-0.149688
-0.101898
-0.059573
-0.0235817
0.00663733
0.0339712
-0.456877
-0.441591
-0.407097
-0.35485
-0.295561
-0.238119
-0.18683
-0.14281
-0.1054
-0.0713735
-0.636555
-0.619787
-0.579911
-0.518583
-0.448831
-0.381129
-0.32048
-0.268204
-0.22344
-0.183077
-0.822273
-0.803582
-0.757421
-0.685752
-0.60424
-0.524944
-0.45347
-0.391243
-0.337269
-0.29002
0.355811
0.273764
0.214992
0.170741
0.135679
0.1066
0.080835
0.0568758
0.0338404
0.0112386
0.347546
0.269508
0.213817
0.170434
0.135515
0.106416
0.0806411
0.0567071
0.033723
0.0111861
0.332694
0.261636
0.211081
0.169503
0.135148
0.106198
0.0804757
0.0565814
0.0336384
0.0111449
0.310443
0.250476
0.206845
0.16795
0.134569
0.105938
0.0803316
0.0564931
0.0335833
0.0111142
0.279717
0.236447
0.201192
0.165782
0.133771
0.105627
0.0802018
0.0564364
0.0335542
0.0110937
0.239376
0.219978
0.194229
0.163013
0.132745
0.105258
0.0800797
0.0564059
0.0335479
0.011083
0.188246
0.201383
0.186136
0.159684
0.131489
0.104824
0.0799587
0.056396
0.0335611
0.011082
0.124732
0.180247
0.177012
0.155825
0.130001
0.104317
0.0798321
0.056401
0.0335905
0.0110908
0.0480977
0.155367
0.166586
0.151304
0.128201
0.103697
0.0796816
0.0564111
0.033632
0.0111097
-0.0358356
0.127231
0.155255
0.146259
0.126118
0.102963
0.079501
0.0564208
0.0336813
0.0111419
-0.0838135
0.103241
0.143261
0.139181
0.122035
0.100673
0.0782039
0.0556821
0.0333212
0.0110873
-0.0994137
0.0745117
0.122718
0.125986
0.11388
0.0956947
0.0751513
0.0538382
0.0323384
0.0107926
-0.0971052
0.0580299
0.108749
0.115492
0.106634
0.0909704
0.0721528
0.0519978
0.0313445
0.0104883
-0.0911868
0.0441981
0.0956513
0.105581
0.0996895
0.0863534
0.0691832
0.0501615
0.0303437
0.0101763
-0.0818993
0.0346252
0.084505
0.0966792
0.0932478
0.0819623
0.0663142
0.048371
0.0293586
0.0098641
-0.0719759
0.0275588
0.0748588
0.0886837
0.0873441
0.0778679
0.0636051
0.0466655
0.0284103
0.00955823
-0.063467
0.0219296
0.0665141
0.0815758
0.0820263
0.0741363
0.0611114
0.0450824
0.0275183
0.00926397
-0.0576692
0.0167057
0.0591083
0.0752843
0.0773206
0.0708216
0.0588826
0.0436569
0.0267008
0.00898824
-0.0541948
0.0114585
0.0519904
0.0693199
0.0728971
0.0677108
0.0567816
0.0422996
0.0258892
0.00869244
-0.0604905
0.00613208
0.0469501
0.0654957
0.0701658
0.0658102
0.0555023
0.0414763
0.0253987
0.00851493
-0.644001
-0.684325
-0.701715
-0.697346
-0.67322
-0.631567
-0.576214
-0.50805
-0.433662
-0.351829
-0.47534
-0.515907
-0.538053
-0.542866
-0.53124
-0.505941
-0.468937
-0.423067
-0.372114
-0.318726
-0.345457
-0.384817
-0.409047
-0.419318
-0.41557
-0.401145
-0.376041
-0.344219
-0.306837
-0.267525
-0.245111
-0.283881
-0.309462
-0.323046
-0.324345
-0.316649
-0.299289
-0.27646
-0.248263
-0.218443
-0.169017
-0.206944
-0.233266
-0.248924
-0.253716
-0.250443
-0.238564
-0.221936
-0.200447
-0.17742
-0.110935
-0.148417
-0.175396
-0.192556
-0.199922
-0.19975
-0.191852
-0.179546
-0.162696
-0.144193
-0.0678008
-0.1052
-0.132807
-0.15112
-0.160398
-0.162428
-0.157353
-0.147981
-0.13434
-0.118965
-0.0371756
-0.0749742
-0.103438
-0.122868
-0.133649
-0.13726
-0.134086
-0.126554
-0.114919
-0.101584
-0.0206303
-0.0584105
-0.0877036
-0.108479
-0.120807
-0.125697
-0.123643
-0.11652
-0.10527
-0.0906966
-0.00931276
-0.0499129
-0.0819472
-0.105605
-0.121185
-0.129401
-0.130854
-0.126528
-0.117372
-0.103039
0.752331
0.70078
0.640626
0.57585
0.505436
0.426881
0.339019
0.244855
0.16026
0.116083
0.559506
0.502803
0.438568
0.36746
0.287877
0.197772
0.096638
-0.0115483
-0.108261
-0.15826
0.34475
0.284445
0.216852
0.140823
0.0544596
-0.0441191
-0.155245
-0.274466
-0.381177
-0.435872
0.137982
0.0726434
-0.000849107
-0.0839557
-0.178414
-0.286034
-0.407112
-0.536906
-0.653083
-0.711505
-0.0514677
-0.123435
-0.204391
-0.295816
-0.39941
-0.516987
-0.6487
-0.789305
-0.915051
-0.975774
-0.224203
-0.302883
-0.391225
-0.4908
-0.603383
-0.730785
-0.872959
-1.02351
-1.15811
-1.21855
-0.381002
-0.465284
-0.559956
-0.666644
-0.787154
-0.923221
-1.07463
-1.2353
-1.37185
-1.43282
-0.519808
-0.608431
-0.708152
-0.820572
-0.947533
-1.09061
-1.25021
-1.41555
-1.5524
-1.6138
-0.637183
-0.729173
-0.832756
-0.94946
-1.08116
-1.22964
-1.39339
-1.56091
-1.69731
-1.75781
-0.731863
-0.825659
-0.93123
-1.05037
-1.18506
-1.3364
-1.50233
-1.67013
-1.80413
-1.8624
1.92905
1.94529
1.96427
1.98418
2.00333
2.02089
2.03614
2.0486
2.05905
2.06741
1.87584
1.89012
1.90663
1.92368
1.93969
1.95379
1.96525
1.97373
1.9806
1.98663
1.80275
1.81422
1.82716
1.84007
1.8515
1.86057
1.8665
1.86918
1.87084
1.87354
1.71034
1.71826
1.72663
1.73421
1.73976
1.74236
1.74117
1.73632
1.73115
1.72974
1.59933
1.60314
1.60615
1.60743
1.60598
1.60084
1.59113
1.57722
1.56369
1.55759
1.47117
1.47057
1.46761
1.46171
1.4522
1.43811
1.41854
1.39418
1.37098
1.3595
1.328
1.32289
1.31364
1.29997
1.2816
1.25761
1.22711
1.19115
1.15723
1.1397
1.17652
1.16621
1.14917
1.12609
1.0973
1.06193
1.01909
0.970234
0.92467
0.900685
1.02206
1.00632
0.980712
0.947057
0.906505
0.858271
0.801522
0.738284
0.679992
0.64922
0.877963
0.847532
0.806753
0.759051
0.705096
0.64325
0.572286
0.494566
0.423615
0.386125
1.82868
1.5699
1.79045
1.65677
1.66519
1.67321
1.68351
1.70927
1.76193
1.86335
1.82223
1.56408
1.78509
1.65031
1.65801
1.66445
1.67224
1.69418
1.73956
1.82776
1.81641
1.55807
1.78012
1.64318
1.65029
1.6548
1.65926
1.67621
1.71094
1.78065
1.81116
1.55192
1.77555
1.63541
1.64208
1.64427
1.64459
1.65524
1.67598
1.72197
1.80649
1.54571
1.77139
1.62702
1.63341
1.63288
1.62827
1.63113
1.6352
1.65096
1.80236
1.53952
1.76763
1.61801
1.62434
1.6206
1.61028
1.60381
1.58931
1.56653
1.7988
1.53344
1.76422
1.60843
1.61491
1.60744
1.59062
1.57329
1.53876
1.46729
1.79579
1.52756
1.76112
1.5983
1.6052
1.59337
1.56929
1.53955
1.48378
1.35449
1.79329
1.52201
1.75825
1.58767
1.59523
1.57843
1.54635
1.50264
1.42337
1.22523
1.79144
1.51693
1.75552
1.57659
1.58508
1.56268
1.52224
1.46421
1.35983
1.09265
1.78966
1.51139
1.75092
1.56594
1.57138
1.54202
1.49018
1.41391
1.28442
0.960127
1.79024
1.5062
1.74512
1.55726
1.55594
1.52008
1.45773
1.36704
1.21871
0.908886
1.79251
1.50228
1.74003
1.54936
1.5417
1.49986
1.42849
1.32713
1.1652
0.872785
1.79669
1.49972
1.73574
1.54237
1.52895
1.48173
1.40287
1.29367
1.1222
0.848877
1.80383
1.49853
1.73232
1.53639
1.5179
1.46599
1.38113
1.26616
1.08907
0.833318
1.81412
1.49866
1.72974
1.5315
1.50868
1.45285
1.36336
1.24422
1.06471
0.823496
1.82789
1.49985
1.72785
1.52771
1.50142
1.4424
1.34952
1.22751
1.04776
0.818098
1.84842
1.50289
1.72699
1.5251
1.4962
1.43471
1.33957
1.21577
1.03696
0.81656
1.86446
1.50398
1.72333
1.52369
1.49318
1.42991
1.33359
1.20904
1.03176
0.819807
1.92092
1.5136
1.72605
1.52167
1.4924
1.42744
1.33062
1.20554
1.02973
0.821442
0.720084
0.555853
0.366324
0.185002
0.020706
-0.129066
-0.266739
-0.390236
-0.495731
-0.580041
0.648688
0.522399
0.378087
0.233789
0.0991319
-0.0251542
-0.140743
-0.246605
-0.339644
-0.416963
0.613791
0.510896
0.397684
0.278576
0.162886
0.0545317
-0.0466454
-0.139842
-0.222311
-0.291407
0.601613
0.51132
0.416066
0.314491
0.213133
0.117133
0.0273791
-0.0556871
-0.130074
-0.193682
0.60175
0.519031
0.43482
0.34571
0.255088
0.167867
0.0857662
0.00931234
-0.0599056
-0.119888
0.607659
0.530142
0.453011
0.372197
0.289034
0.207912
0.131094
0.0593147
-0.0060924
-0.0633235
0.61565
0.541899
0.46955
0.394214
0.316096
0.239169
0.165967
0.0973634
0.0345124
-0.0209924
0.624331
0.553131
0.483936
0.411967
0.336888
0.262514
0.191512
0.124828
0.0635502
0.00914513
0.6359
0.566711
0.498994
0.427895
0.353436
0.279497
0.208712
0.142082
0.080695
0.0260192
0.650568
0.585046
0.518387
0.446655
0.371774
0.297582
0.226126
0.158444
0.0957803
0.0394926
-3.01811
-2.93427
-2.75412
-2.54862
-2.35759
-2.19269
-2.05446
-1.94078
-1.84977
-1.78101
-3.09134
-3.01698
-2.85016
-2.65021
-2.45952
-2.29301
-2.15266
-2.03674
-1.94394
-1.87495
-3.05722
-2.99292
-2.84305
-2.65164
-2.46262
-2.29492
-2.15263
-2.03452
-1.93921
-1.86708
-2.92531
-2.87102
-2.73997
-2.55944
-2.37323
-2.20449
-2.05999
-1.9395
-1.84147
-1.76524
-2.71151
-2.66727
-2.55476
-2.38691
-2.20514
-2.03619
-1.88984
-1.7672
-1.66685
-1.58726
-2.4353
-2.40036
-2.30474
-2.15122
-1.97677
-1.81023
-1.66403
-1.54086
-1.43968
-1.35963
-2.11756
-2.09023
-2.00932
-1.87189
-1.70918
-1.5499
-1.4081
-1.28792
-1.18851
-1.11122
-1.77933
-1.75732
-1.68888
-1.56884
-1.42253
-1.27629
-1.14422
-1.03135
-0.937366
-0.865257
-1.4413
-1.42248
-1.36465
-1.26258
-1.13639
-1.0086
-0.892003
-0.791723
-0.707789
-0.646803
-1.12051
-1.10335
-1.05456
-0.969659
-0.86456
-0.757381
-0.658695
-0.572687
-0.498132
-0.441541
-0.82833
-0.812054
-0.771071
-0.701894
-0.617262
-0.531401
-0.45295
-0.385609
-0.328591
-0.279299
-0.569764
-0.554637
-0.520164
-0.464423
-0.397564
-0.330438
-0.269594
-0.217723
-0.17454
-0.13526
-0.346119
-0.331779
-0.302718
-0.257935
-0.20549
-0.153546
-0.106886
-0.0672811
-0.0345776
-0.00446011
-0.156343
-0.142567
-0.118008
-0.0822058
-0.0415869
-0.00225402
0.0323973
0.0613095
0.0847482
0.105983
0.001
0.0143291
0.0351842
0.0636596
0.0946181
0.123554
0.14817
0.167967
0.183366
0.19667
0.1273
0.140282
0.158217
0.18095
0.20434
0.225095
0.241757
0.254247
0.263096
0.269875
0.22371
0.236439
0.252212
0.270705
0.288502
0.303184
0.31391
0.320899
0.324745
0.326523
0.291105
0.303643
0.317967
0.333626
0.347672
0.358261
0.364971
0.368209
0.368608
0.366926
0.329982
0.342477
0.356061
0.370222
0.382262
0.390642
0.395174
0.396365
0.394866
0.391258
0.34115
0.353568
0.367034
0.380946
0.392632
0.400611
0.404734
0.405537
0.40367
0.39966
-0.000866872
0.125962
0.144799
0.141434
0.127939
0.108493
0.086049
0.0621889
0.0375696
0.0125736
0.0949408
0.156845
0.158615
0.14747
0.129528
0.108211
0.0851554
0.0612805
0.0369377
0.0123583
0.171227
0.181831
0.169875
0.151874
0.130773
0.107932
0.0843523
0.060467
0.0363722
0.0121643
0.228653
0.203088
0.180069
0.156167
0.131925
0.107697
0.083647
0.0597471
0.0358698
0.0119903
0.271997
0.222135
0.18926
0.159948
0.132931
0.107497
0.0830328
0.0591156
0.0354271
0.0118352
0.304569
0.2389
0.197216
0.163184
0.13379
0.107325
0.0825029
0.0585673
0.0350408
0.0116977
0.328287
0.252892
0.203805
0.165866
0.1345
0.107174
0.0820492
0.0580966
0.0347077
0.0115767
0.344537
0.263651
0.208942
0.167979
0.135052
0.107036
0.0816638
0.0576979
0.0344245
0.0114713
0.354266
0.270825
0.212548
0.169504
0.135438
0.106901
0.0813384
0.0573654
0.0341878
0.0113803
0.357986
0.274218
0.214572
0.170429
0.13565
0.106758
0.0810648
0.0570933
0.0339942
0.0113031
-0.214454
0.00793448
0.0871271
0.114441
0.116411
0.104482
0.0853182
0.0626603
0.0382527
0.012914
-0.182356
0.0282074
0.0955902
0.117792
0.117574
0.104817
0.0853402
0.0625705
0.0381465
0.0128637
-0.143865
0.0473857
0.104582
0.121959
0.119399
0.105479
0.0854672
0.0624997
0.0380295
0.0128019
-0.104289
0.0702995
0.116297
0.127611
0.121957
0.106518
0.0857836
0.0625234
0.0379643
0.0127602
-0.060328
0.100246
0.132208
0.135386
0.125484
0.107912
0.0862653
0.0626272
0.0379413
0.0127354
-1.71508
-1.80614
-1.80993
-1.7331
-1.58697
-1.40706
-1.19136
-0.986723
-0.782
-0.592827
-1.71448
-1.80498
-1.80409
-1.72095
-1.56853
-1.3825
-1.16143
-0.949279
-0.743848
-0.552041
-1.71687
-1.8076
-1.80259
-1.71255
-1.5524
-1.35431
-1.12613
-0.902366
-0.694171
-0.512618
-1.72719
-1.81861
-1.81054
-1.7133
-1.54392
-1.33069
-1.0938
-0.858721
-0.651192
-0.478149
-1.7455
-1.83862
-1.82809
-1.72409
-1.54525
-1.31894
-1.07288
-0.830767
-0.618581
-0.432218
1.37161
1.35043
1.3207
1.2856
1.24606
1.20053
1.14735
1.08785
1.03275
1.00243
1.49652
1.49149
1.4786
1.45936
1.43489
1.4045
1.36713
1.32402
1.28394
1.26273
1.61879
1.61912
1.61467
1.60602
1.59346
1.57614
1.55308
1.52505
1.49876
1.48552
1.72652
1.7316
1.73456
1.73506
1.73258
1.72624
1.71509
1.69958
1.68474
1.678
1.81708
1.82614
1.8347
1.84209
1.84738
1.84964
1.84798
1.84258
1.83709
1.83564
1.8873
1.89974
1.913
1.92604
1.93762
1.94683
1.95284
1.95555
1.95737
1.96032
1.93686
1.95191
1.96877
1.98606
2.00234
2.01671
2.02842
2.03715
2.04433
2.05068
1.96582
1.98258
2.00182
2.02194
2.04133
2.05913
2.07461
2.08731
2.09802
2.10662
1.97421
1.99171
2.01208
2.03356
2.05445
2.0739
2.09122
2.10583
2.11826
2.12795
1.96191
1.97925
1.99952
2.02091
2.04171
2.06107
2.0783
2.09283
2.10515
2.11475
-1.58822
-1.65877
-1.74901
-1.8604
-1.99576
-2.15792
-2.3476
-2.55596
-2.74524
-2.83677
-1.30778
-1.38065
-1.47122
-1.58104
-1.71335
-1.87115
-2.05561
-2.2658
-2.45971
-2.55639
-0.960644
-1.03608
-1.1278
-1.23695
-1.36644
-1.51947
-1.69814
-1.89888
-2.09323
-2.19438
-0.575872
-0.654514
-0.747501
-0.855652
-0.981509
-1.1283
-1.29817
-1.4879
-1.67049
-1.77376
-0.188921
-0.269529
-0.361845
-0.466551
-0.586004
-0.723401
-0.881062
-1.05599
-1.22287
-1.32066
0.168672
0.0909989
0.0040168
-0.0928715
-0.201917
-0.326237
-0.468086
-0.624647
-0.773032
-0.860928
0.485363
0.416146
0.339317
0.254318
0.158942
0.0502366
-0.0737912
-0.210362
-0.338946
-0.414894
0.770934
0.712152
0.646735
0.574441
0.492977
0.399533
0.292541
0.17493
0.0652511
0.00144137
1.03661
0.986436
0.928615
0.865229
0.794477
0.713723
0.621712
0.52136
0.429089
0.376741
1.25998
1.2166
1.16338
1.10691
1.04661
0.979816
0.904784
0.823543
0.749484
0.708309
1.93757
1.61222
1.8513
1.67468
1.70648
1.71067
1.70813
1.70847
1.67384
1.54649
1.92191
1.60947
1.84634
1.67716
1.70436
1.71091
1.71111
1.71953
1.70399
1.63367
1.90756
1.60635
1.84072
1.67871
1.70194
1.71037
1.71425
1.72957
1.73139
1.71817
1.89445
1.60289
1.8346
1.67929
1.69918
1.70897
1.71582
1.73692
1.75356
1.78253
1.88245
1.59911
1.82818
1.67886
1.69598
1.70664
1.71592
1.74154
1.771
1.83205
1.87144
1.595
1.82161
1.67743
1.69229
1.70337
1.71452
1.74329
1.78377
1.86715
1.86134
1.59058
1.81502
1.67503
1.68805
1.69918
1.71159
1.74211
1.79132
1.88952
1.85206
1.58585
1.80852
1.6717
1.68323
1.69406
1.70708
1.73804
1.79295
1.90027
1.84355
1.58081
1.80222
1.66751
1.67782
1.68802
1.70091
1.73118
1.78856
1.89956
1.83578
1.57549
1.79617
1.66251
1.6718
1.68107
1.69307
1.72158
1.77823
1.88727
2.08055
1.62921
1.85726
1.67551
1.70812
1.70363
1.68686
1.6625
1.56854
1.40806
2.02252
1.62241
1.85604
1.67662
1.70759
1.70476
1.68855
1.66575
1.57525
1.41041
2.00043
1.62161
1.85797
1.67605
1.70782
1.70608
1.69163
1.67178
1.58953
1.41558
1.97627
1.61867
1.85684
1.67511
1.70785
1.70756
1.69599
1.68068
1.61012
1.4326
1.95515
1.61521
1.85485
1.67379
1.70767
1.7091
1.70112
1.69216
1.63627
1.45659
1.07776
0.937157
0.736965
0.463134
0.127538
-0.243231
-0.619533
-0.975021
-1.28853
-1.5398
1.06871
0.927416
0.734398
0.471666
0.148693
-0.214211
-0.590732
-0.952887
-1.27542
-1.5348
1.09114
0.939936
0.741238
0.482833
0.169475
-0.188223
-0.567935
-0.937832
-1.26847
-1.53442
1.14559
0.972833
0.756247
0.495481
0.187503
-0.167773
-0.551702
-0.929566
-1.26796
-1.54027
1.22728
1.02543
0.780268
0.508557
0.19979
-0.154962
-0.541685
-0.926099
-1.27261
-1.55281
)
;

boundaryField
{
    left
    {
        type            zeroGradient;
    }
    right
    {
        type            fixedValue;
        value           uniform 0;
    }
    down
    {
        type            zeroGradient;
    }
    up
    {
        type            zeroGradient;
    }
    cylinder
    {
        type            zeroGradient;
    }
    defaultFaces
    {
        type            empty;
    }
}


// ************************************************************************* //
