/*--------------------------------*- C++ -*----------------------------------*\
  =========                 |
  \\      /  F ield         | OpenFOAM: The Open Source CFD Toolbox
   \\    /   O peration     | Website:  https://openfoam.org
    \\  /    A nd           | Version:  13
     \\/     M anipulation  |
\*---------------------------------------------------------------------------*/
FoamFile
{
    format      ascii;
    class       volVectorField;
    location    "0.3";
    object      U;
}
// * * * * * * * * * * * * * * * * * * * * * * * * * * * * * * * * * * * * * //

dimensions      [0 1 -1 0 0 0 0];

internalField   nonuniform List<vector> 
1800
(
(0.174934 -0.160964 1.31832e-19)
(0.65736 -0.561072 6.02568e-20)
(1.05486 -0.852638 -4.54727e-19)
(1.29504 -1.00053 4.95072e-19)
(1.41178 -1.04157 1.21988e-18)
(1.45708 -1.02338 5.29225e-19)
(1.46805 -0.978998 -2.75885e-19)
(1.46434 -0.926167 -7.04008e-19)
(1.45558 -0.87 -3.69689e-19)
(1.42575 -0.821629 -3.01592e-19)
(0.217317 -0.170411 4.10641e-20)
(0.77416 -0.562992 -4.74147e-19)
(1.21477 -0.83858 4.93317e-21)
(1.46999 -0.973089 -4.23876e-19)
(1.58596 -1.00598 1.07847e-19)
(1.6242 -0.984037 1.2184e-18)
(1.62697 -0.938369 -8.89026e-19)
(1.61623 -0.885075 4.52356e-19)
(1.60153 -0.830239 7.44386e-19)
(1.57809 -0.787295 -3.8074e-19)
(0.265076 -0.176016 2.24476e-20)
(0.896543 -0.551067 1.39694e-19)
(1.37566 -0.803718 3.59304e-19)
(1.64112 -0.921852 -2.85874e-19)
(1.75286 -0.946488 -1.44448e-18)
(1.78181 -0.922391 3.28117e-19)
(1.77452 -0.878208 5.83633e-19)
(1.75423 -0.828498 -6.65121e-20)
(1.73062 -0.77879 -4.93395e-21)
(1.69867 -0.738704 -2.97044e-20)
(0.317752 -0.176529 -2.75345e-20)
(1.02212 -0.52363 -1.57873e-19)
(1.53393 -0.747011 -2.81301e-19)
(1.80482 -0.846386 6.1748e-20)
(1.90993 -0.862664 3.79917e-19)
(1.92921 -0.837101 3.28346e-20)
(1.91277 -0.794908 -2.36884e-20)
(1.88467 -0.748405 5.37223e-19)
(1.85432 -0.702267 4.47388e-19)
(1.81928 -0.666297 -1.52677e-19)
(0.374549 -0.170916 1.20256e-19)
(1.14789 -0.480145 2.19613e-19)
(1.68511 -0.669482 -7.29518e-20)
(1.95588 -0.74925 -8.38323e-20)
(2.05152 -0.758402 -1.14098e-18)
(2.06022 -0.733419 1.00518e-20)
(2.0347 -0.69553 9.18986e-19)
(1.99914 -0.654786 3.08459e-19)
(1.96249 -0.615164 1.77144e-20)
(1.9234 -0.58417 -2.00355e-19)
(0.434037 -0.157943 -7.17e-20)
(1.27004 -0.419689 4.15086e-19)
(1.82454 -0.571372 1.08744e-18)
(2.09005 -0.631478 -7.94617e-19)
(2.17427 -0.634807 -8.30215e-19)
(2.17247 -0.611791 1.40657e-18)
(2.13877 -0.579224 -1.01128e-18)
(2.09685 -0.544827 -1.1336e-18)
(2.05502 -0.511736 8.09752e-19)
(2.01294 -0.486304 -2.46877e-20)
(0.494484 -0.136824 1.64753e-19)
(1.38465 -0.342712 -7.9595e-19)
(1.94787 -0.454937 -2.93735e-18)
(2.20338 -0.496624 1.31181e-18)
(2.27477 -0.496196 2.10439e-18)
(2.26291 -0.477042 -6.11944e-21)
(2.22217 -0.45135 -2.74513e-18)
(2.17516 -0.424605 5.81498e-21)
(2.12936 -0.399188 2.46809e-18)
(2.08491 -0.379936 6.46479e-19)
(0.553579 -0.106984 -4.98976e-20)
(1.48733 -0.249997 5.45096e-19)
(2.05077 -0.322424 2.28723e-18)
(2.29241 -0.347658 -5.46815e-20)
(2.35045 -0.345579 -1.35836e-18)
(2.32949 -0.331812 -4.2677e-19)
(2.28306 -0.313985 0)
(2.23226 -0.29556 9.64565e-19)
(2.18363 -0.278232 -1.2783e-22)
(2.13763 -0.265642 -7.89566e-19)
(0.608818 -0.0684558 -3.33252e-21)
(1.57407 -0.143486 1.24706e-18)
(2.12982 -0.17729 2.03129e-18)
(2.35477 -0.188702 -1.93701e-18)
(2.39968 -0.187173 -1.40281e-18)
(2.37105 -0.180184 4.31131e-19)
(2.3205 -0.171047 -1.81086e-18)
(2.26732 -0.161467 -1.25861e-18)
(2.21713 -0.152539 1.47043e-18)
(2.1704 -0.146784 1.24893e-18)
(0.657588 -0.0218339 1.6207e-19)
(1.64124 -0.0257765 8.30846e-19)
(2.18225 -0.0232277 3.79497e-19)
(2.38875 -0.0237396 -2.80245e-18)
(2.42145 -0.024782 2.31709e-20)
(2.3868 -0.025612 4.10715e-18)
(2.33374 -0.025662 -2.19574e-18)
(2.27955 -0.0251767 -1.20522e-18)
(2.22896 -0.0247051 4.07004e-19)
(2.1824 -0.0257278 -9.13139e-19)
(0.000239081 -0.0260328 1.0874e-19)
(0.0178475 -0.105127 9.16708e-20)
(0.0637402 -0.171538 -1.88816e-21)
(0.122227 -0.21177 -7.31066e-21)
(0.185227 -0.229603 -2.28011e-21)
(0.247607 -0.233386 -6.12013e-20)
(0.306566 -0.229887 5.70688e-21)
(0.361011 -0.223231 -4.16363e-21)
(0.410738 -0.215583 2.52817e-21)
(0.456196 -0.209128 -6.42164e-21)
(0.00370416 -0.0372436 5.03899e-20)
(0.0342591 -0.16661 9.81991e-20)
(0.0914464 -0.27724 -1.12933e-19)
(0.156752 -0.343848 -4.84992e-20)
(0.222527 -0.37207 -6.78753e-20)
(0.285189 -0.3761 -9.56802e-20)
(0.343181 -0.36765 5.02579e-20)
(0.396132 -0.35389 3.42611e-21)
(0.444113 -0.33864 -1.60253e-20)
(0.488586 -0.326691 -3.55993e-21)
(0.00914061 -0.0489917 -2.10173e-20)
(0.0609264 -0.227045 2.20893e-19)
(0.136741 -0.379659 7.48842e-20)
(0.213292 -0.470865 2.79274e-19)
(0.283648 -0.508441 5.21047e-20)
(0.34677 -0.512275 -3.21094e-19)
(0.403155 -0.498805 -1.38808e-20)
(0.453635 -0.478082 1.09994e-19)
(0.498744 -0.455524 -5.92938e-20)
(0.541685 -0.438236 -1.58438e-20)
(0.0168377 -0.0613893 -1.06977e-19)
(0.0980677 -0.285662 -4.27652e-20)
(0.199462 -0.476945 2.94593e-20)
(0.291287 -0.590169 -1.23869e-19)
(0.36776 -0.635634 5.22177e-20)
(0.431361 -0.638679 1.97163e-19)
(0.48543 -0.620134 6.50738e-20)
(0.532452 -0.592685 -2.69474e-20)
(0.573612 -0.563254 1.95225e-20)
(0.614479 -0.540824 -2.7586e-21)
(0.0271954 -0.0745619 0)
(0.145938 -0.341704 8.25919e-20)
(0.2793 -0.567263 3.0227e-19)
(0.38985 -0.699152 -2.69011e-19)
(0.473588 -0.750645 -5.61131e-19)
(0.53749 -0.752196 2.04428e-19)
(0.588469 -0.728572 -3.41162e-20)
(0.631068 -0.694757 -9.27326e-20)
(0.667304 -0.65904 0)
(0.705561 -0.631687 -9.00449e-21)
(0.0407347 -0.0885999 2.44829e-20)
(0.204808 -0.394351 1.65934e-19)
(0.375737 -0.648764 6.27193e-20)
(0.50768 -0.795271 2.22786e-19)
(0.599317 -0.850615 -1.77357e-19)
(0.663092 -0.849925 -2.9379e-19)
(0.710149 -0.821327 5.23905e-19)
(0.747415 -0.78168 5.03699e-20)
(0.777912 -0.740415 -3.25293e-19)
(0.812966 -0.708316 -6.99483e-21)
(0.0580828 -0.103486 1.35262e-20)
(0.274884 -0.44264 1.46353e-19)
(0.487928 -0.719556 1.09005e-19)
(0.642951 -0.876115 2.36408e-20)
(0.742496 -0.932975 3.02632e-19)
(0.805429 -0.929392 -3.96913e-19)
(0.847677 -0.896154 -4.03772e-19)
(0.878773 -0.851494 -3.52096e-19)
(0.902913 -0.805607 2.57395e-19)
(0.933825 -0.768831 2.82455e-19)
(0.0798664 -0.118964 -1.20688e-19)
(0.356048 -0.485326 -1.96854e-20)
(0.61438 -0.777656 2.60249e-19)
(0.792981 -0.939424 -1.62805e-19)
(0.899731 -0.99553 3.14545e-19)
(0.960813 -0.988685 7.74951e-19)
(0.997341 -0.951558 5.53709e-19)
(1.02151 -0.903212 -4.25877e-19)
(1.03885 -0.853962 -2.0575e-19)
(1.06363 -0.812572 2.94442e-19)
(0.106481 -0.134367 -2.39965e-19)
(0.447511 -0.5207 -5.37696e-19)
(0.752607 -0.820826 6.95891e-19)
(0.953884 -0.982855 7.21388e-19)
(1.06624 -1.03603 -7.09833e-19)
(1.12396 -1.02574 8.1048e-19)
(1.15358 -0.985742 1.24108e-19)
(1.16989 -0.935367 -1.0036e-18)
(1.17988 -0.884116 -2.44539e-19)
(1.19452 -0.838381 3.23523e-19)
(0.138079 -0.148691 2.94615e-20)
(0.548164 -0.546604 -5.00365e-19)
(0.899988 -0.846509 -4.25254e-19)
(1.1219 -1.00383 7.18736e-19)
(1.23746 -1.0519 5.84724e-19)
(1.28966 -1.03782 -7.23276e-19)
(1.31045 -0.995537 -6.08463e-19)
(1.31718 -0.944014 3.64385e-19)
(1.31838 -0.890848 -3.7434e-19)
(1.31616 -0.841668 -2.31702e-19)
(0.621784 -0.169648 1.9771e-20)
(0.802006 -0.128958 -3.59825e-20)
(0.888618 -0.100949 9.97841e-21)
(0.9386 -0.0790278 6.10747e-21)
(0.967905 -0.0612551 -2.71899e-21)
(0.985241 -0.046675 3.74004e-22)
(0.995859 -0.0346856 -1.41987e-21)
(1.00251 -0.0246683 -3.13773e-21)
(1.00651 -0.0167359 5.22196e-21)
(1.00921 -0.00688728 2.98701e-21)
(0.639482 -0.242811 8.52927e-20)
(0.81351 -0.167506 2.4228e-21)
(0.896775 -0.121895 4.02051e-21)
(0.944818 -0.0906805 -8.42223e-22)
(0.972827 -0.0680151 -1.77753e-21)
(0.989208 -0.0507119 0)
(0.999085 -0.0371406 -1.53895e-21)
(1.00517 -0.026161 3.32277e-21)
(1.00878 -0.017638 4.91733e-22)
(1.01116 -0.00723714 -3.1956e-21)
(0.667871 -0.313442 -5.19067e-20)
(0.830096 -0.205213 -2.81273e-20)
(0.90763 -0.142577 1.01952e-20)
(0.952453 -0.102216 -8.54409e-21)
(0.978512 -0.074674 -3.88819e-21)
(0.993616 -0.0546513 6.0898e-21)
(1.00258 -0.0395047 0)
(1.008 -0.027576 0)
(1.01118 -0.0184778 -6.51163e-22)
(1.01319 -0.00755803 0)
(0.707014 -0.38012 -2.92864e-20)
(0.85156 -0.241557 5.08904e-20)
(0.921117 -0.162746 7.90381e-21)
(0.961489 -0.113514 0)
(0.984956 -0.0811635 8.45133e-21)
(0.998457 -0.0584517 -4.24083e-22)
(1.00633 -0.0417521 0)
(1.011 -0.0288971 4.98035e-23)
(1.01368 -0.0192448 0)
(1.0153 -0.00784581 8.21675e-23)
(0.75692 -0.441425 -3.02134e-20)
(0.877648 -0.276091 7.74073e-20)
(0.937147 -0.18217 -4.3931e-21)
(0.971904 -0.124461 0)
(0.992152 -0.0874189 2.13652e-22)
(1.00372 -0.0620731 3.35765e-22)
(1.01033 -0.0438574 6.1163e-21)
(1.01414 -0.0301078 1.21626e-21)
(1.01627 -0.0199285 -1.36077e-21)
(1.01747 -0.0080963 2.81819e-21)
(0.817282 -0.495834 -6.1854e-19)
(0.908001 -0.308426 -1.43593e-19)
(0.955589 -0.200678 1.82967e-21)
(0.983657 -0.134959 1.82189e-20)
(1.00008 -0.0933832 1.89615e-22)
(1.0094 -0.0654784 1.56902e-21)
(1.01456 -0.0457956 -2.64732e-21)
(1.01741 -0.0311915 -1.99835e-21)
(1.01894 -0.0205184 -2.395e-22)
(1.01969 -0.00830535 1.27211e-21)
(0.887215 -0.54172 -7.65673e-21)
(0.941826 -0.337888 5.71167e-20)
(0.976126 -0.218061 3.76493e-21)
(0.99665 -0.144912 -4.84938e-22)
(1.00871 -0.0990046 -1.33379e-20)
(1.01546 -0.0686346 5.27538e-21)
(1.01901 -0.0475441 -4.32151e-22)
(1.0208 -0.0321325 -4.61447e-21)
(1.02167 -0.0210044 6.2783e-23)
(1.02195 -0.00846894 -1.99361e-21)
(0.966089 -0.578785 2.60301e-19)
(0.97788 -0.364045 6.68629e-20)
(0.997876 -0.234081 0)
(1.01052 -0.154165 -1.97041e-21)
(1.0179 -0.104199 1.04262e-20)
(1.02184 -0.0714973 1.55024e-21)
(1.02363 -0.0490783 -5.55019e-21)
(1.02428 -0.0329158 1.57581e-21)
(1.02444 -0.0213773 1.04567e-23)
(1.02423 -0.00858409 2.087e-22)
(1.0555 -0.609459 -3.83809e-19)
(1.01726 -0.388691 -1.79242e-19)
(1.02021 -0.249939 3.78434e-20)
(1.02463 -0.16324 8.71403e-22)
(1.02726 -0.109147 -2.04727e-21)
(1.02835 -0.0741127 -5.88739e-21)
(1.02834 -0.0504017 5.74026e-22)
(1.0278 -0.0335343 5.75955e-22)
(1.02723 -0.02163 -3.50068e-21)
(1.02651 -0.00865074 -3.79929e-21)
(1.15588 -0.631741 2.66456e-19)
(1.06622 -0.409924 -1.76014e-19)
(1.0457 -0.265976 -2.73702e-20)
(1.0396 -0.172989 -2.4769e-20)
(1.03681 -0.114474 -1.22374e-20)
(1.0349 -0.0768226 -5.8334e-21)
(1.03306 -0.0516706 -3.68338e-21)
(1.03134 -0.0340467 0)
(1.03001 -0.0217817 1.07521e-21)
(1.0288 -0.00866042 1.23902e-21)
(1.30796 -0.615212 4.23508e-19)
(1.16162 -0.409444 1.18168e-19)
(1.0998 -0.267604 -7.92541e-20)
(1.07071 -0.174663 4.31248e-21)
(1.05516 -0.11542 5.56614e-21)
(1.04623 -0.0771103 -1.42837e-21)
(1.04044 -0.051563 3.20289e-21)
(1.0364 -0.0337753 2.97603e-21)
(1.03373 -0.0214866 -2.67836e-21)
(1.03172 -0.00852286 6.33028e-22)
(1.3599 -0.509224 -6.44773e-21)
(1.1972 -0.351115 1.19717e-19)
(1.12871 -0.238266 9.13863e-20)
(1.0932 -0.160441 -1.07213e-20)
(1.0712 -0.107946 4.07813e-20)
(1.05731 -0.0727366 2.56911e-20)
(1.04815 -0.0488024 1.79705e-20)
(1.04192 -0.0319992 -1.66749e-21)
(1.03792 -0.0203613 6.27457e-21)
(1.03502 -0.00806694 3.83145e-21)
(1.41505 -0.436255 -1.25756e-19)
(1.24743 -0.313126 -9.76416e-21)
(1.16376 -0.21668 4.06244e-21)
(1.11698 -0.147755 -6.07758e-38)
(1.0872 -0.100105 1.73363e-21)
(1.06812 -0.0676482 -7.12606e-35)
(1.05559 -0.0454134 -3.69713e-21)
(1.0472 -0.0297592 -2.45234e-34)
(1.04189 -0.0189215 1.00319e-21)
(1.03812 -0.00749148 -2.95124e-21)
(1.449 -0.359241 -1.92487e-34)
(1.28326 -0.26706 -3.09871e-20)
(1.19175 -0.189174 -3.20978e-20)
(1.13725 -0.131238 0)
(1.10139 -0.0898248 -1.77233e-20)
(1.07791 -0.0609975 -1.19264e-20)
(1.0624 -0.0410227 -6.0461e-21)
(1.05204 -0.0268878 -3.36553e-34)
(1.04554 -0.0170945 -1.66293e-21)
(1.04095 -0.00676795 2.8602e-21)
(1.47055 -0.289375 -7.29979e-20)
(1.31074 -0.222149 3.87138e-21)
(1.21465 -0.160357 0)
(1.15436 -0.112747 0)
(1.11366 -0.0778297 0)
(1.0865 -0.0530923 0)
(1.06842 -0.0357771 -8.11823e-22)
(1.05634 -0.023462 -3.77855e-34)
(1.04877 -0.0149207 9.3062e-22)
(1.04346 -0.00590903 3.47559e-34)
(1.4837 -0.225085 -2.48554e-20)
(1.33114 -0.17749 0)
(1.23275 -0.130248 0)
(1.16831 -0.0926312 0)
(1.12386 -0.0644284 0)
(1.09374 -0.0441372 0)
(1.07354 -0.0298028 1.45184e-21)
(1.06001 -0.0195575 4.35396e-21)
(1.05154 -0.012443 8.96794e-22)
(1.04558 -0.00492962 3.47429e-21)
(1.49127 -0.165845 0)
(1.34565 -0.133637 -9.45718e-21)
(1.24636 -0.0993846 -1.37246e-20)
(1.17908 -0.0713441 0)
(1.13189 -0.0499398 -8.73424e-21)
(1.0995 -0.0343406 -6.14e-21)
(1.07763 -0.0232322 -2.76324e-21)
(1.06296 -0.0152565 -2.62163e-21)
(1.05375 -0.00970982 3.84484e-21)
(1.04727 -0.00384791 2.08444e-21)
(1.49409 -0.110612 6.74543e-21)
(1.35388 -0.090657 5.43363e-21)
(1.25462 -0.0679618 -2.72565e-21)
(1.18574 -0.0490999 3.63522e-36)
(1.13682 -0.0345311 -2.07649e-22)
(1.10294 -0.0238131 -5.00899e-35)
(1.07993 -0.0161337 1.26397e-21)
(1.06446 -0.0105993 4.49223e-21)
(1.05475 -0.00673917 7.75265e-22)
(1.04789 -0.00266344 -2.52152e-21)
(1.4725 -0.0551677 -3.23381e-20)
(1.33595 -0.0499948 9.21358e-21)
(1.23929 -0.03866 1.05943e-20)
(1.1716 -0.0283053 0)
(1.12322 -0.02004 6.23447e-21)
(1.08953 -0.0138652 4.36681e-21)
(1.06656 -0.00940815 4.12784e-21)
(1.0511 -0.00618416 1.90013e-21)
(1.04139 -0.00392633 -1.45699e-21)
(1.03455 -0.00154473 2.86892e-21)
(1.13356 -0.0038435 0)
(1.04502 -0.00717172 0)
(0.976444 -0.00631665 0)
(0.926366 -0.00480492 0)
(0.889936 -0.00344373 0)
(0.86438 -0.00239991 0)
(0.846878 -0.00163494 1.13101e-21)
(0.835073 -0.00108004 -5.89417e-36)
(0.827633 -0.000668396 7.95727e-22)
(0.82245 -0.000249488 2.39268e-21)
(2.10002 -0.0249611 8.45317e-19)
(2.09038 -0.129245 5.77932e-20)
(2.06347 -0.231322 -1.20177e-19)
(2.01924 -0.329336 -3.35031e-19)
(1.96028 -0.420617 -1.10663e-19)
(1.88368 -0.50653 -1.68572e-19)
(1.80312 -0.575407 -4.17213e-19)
(1.69257 -0.650142 1.28332e-19)
(1.61316 -0.675938 0)
(1.46048 -0.755363 4.37774e-20)
(2.01481 -0.0184163 2.26678e-19)
(2.00725 -0.0967049 -3.20639e-19)
(1.9872 -0.173786 -1.69824e-20)
(1.95237 -0.249382 -1.32539e-19)
(1.90983 -0.318575 3.30664e-20)
(1.84765 -0.390902 1.27458e-19)
(1.79253 -0.438989 -9.45387e-21)
(1.70215 -0.51505 8.09106e-20)
(1.64619 -0.524761 -1.01648e-19)
(1.53802 -0.609975 2.56268e-20)
(1.94262 -0.0137582 -1.11333e-19)
(1.93683 -0.0757838 2.17525e-19)
(1.92152 -0.136502 1.79242e-19)
(1.89346 -0.196784 -2.28933e-19)
(1.8607 -0.250464 7.37223e-20)
(1.81047 -0.31064 1.55541e-19)
(1.76729 -0.345765 -4.40091e-20)
(1.69737 -0.413073 5.59068e-20)
(1.6485 -0.419529 6.11057e-20)
(1.56917 -0.493856 8.05447e-20)
(1.88686 -0.012756 -2.15574e-19)
(1.8823 -0.0604472 2.01152e-20)
(1.86966 -0.107118 -7.20911e-20)
(1.84645 -0.154193 -5.20515e-20)
(1.81906 -0.195764 -1.89631e-20)
(1.7783 -0.244219 -9.61374e-20)
(1.74091 -0.271633 9.62044e-20)
(1.68653 -0.326949 2.24971e-20)
(1.64234 -0.333406 -7.36981e-21)
(1.58215 -0.393888 9.51703e-21)
(1.84337 -0.0109963 4.61183e-20)
(1.83964 -0.047395 6.75014e-20)
(1.82876 -0.0829766 -4.89353e-20)
(1.80921 -0.119071 2.04314e-19)
(1.78516 -0.150972 7.38636e-22)
(1.75145 -0.188468 -1.42786e-19)
(1.71785 -0.210191 2.14768e-20)
(1.67413 -0.253101 -8.04804e-20)
(1.6343 -0.259786 9.25033e-20)
(1.58636 -0.306437 6.59847e-20)
(1.81031 -0.0104908 -1.14505e-19)
(1.80728 -0.0372486 -5.67047e-20)
(1.7976 -0.0633995 2.17595e-20)
(1.78066 -0.0900142 7.96752e-20)
(1.75884 -0.113766 7.97906e-20)
(1.72994 -0.14158 -4.11674e-20)
(1.69908 -0.158491 3.30221e-21)
(1.66216 -0.190381 3.27979e-20)
(1.62577 -0.196873 6.7415e-20)
(1.58527 -0.231657 -4.56384e-20)
(1.78594 -0.0103807 -4.19541e-20)
(1.78354 -0.0288335 -8.38527e-20)
(1.77481 -0.0468195 -7.08013e-20)
(1.75972 -0.0651712 -1.27597e-19)
(1.7395 -0.0817661 3.80611e-22)
(1.71376 -0.101196 7.74412e-21)
(1.68485 -0.113612 3.37404e-20)
(1.65205 -0.136194 -2.21529e-21)
(1.61823 -0.14186 -3.34445e-20)
(1.58202 -0.166833 2.93087e-21)
(1.76422 -0.0101196 4.06314e-20)
(1.76292 -0.0210968 2.74506e-20)
(1.75563 -0.031758 1.22512e-20)
(1.74258 -0.0426003 -2.2349e-20)
(1.72429 -0.0524599 -1.85247e-20)
(1.70127 -0.0643597 1.41962e-20)
(1.67431 -0.0721586 -8.00221e-21)
(1.64425 -0.0870051 -2.1116e-20)
(1.61236 -0.0909918 3.49574e-21)
(1.57871 -0.108766 3.68546e-20)
(1.69188 -0.0140111 -3.79985e-20)
(1.69132 -0.0173321 -1.94153e-21)
(1.68722 -0.0202492 5.97925e-20)
(1.67939 -0.0232088 -4.0177e-21)
(1.66745 -0.0255569 -8.8041e-21)
(1.65209 -0.0294653 6.9566e-21)
(1.63234 -0.0309613 5.96889e-21)
(1.61096 -0.0377307 -1.51618e-20)
(1.58383 -0.0382212 2.13802e-20)
(1.56062 -0.0481603 7.63353e-20)
(1.17854 -0.0077615 3.59229e-20)
(1.17023 -0.00570889 2.58847e-20)
(1.164 -0.00362488 2.27677e-20)
(1.16012 -0.00165185 3.04685e-20)
(1.15791 0.0002434 -9.73326e-21)
(1.15818 0.00171661 -7.93784e-21)
(1.15736 0.00352922 -2.12381e-21)
(1.16171 0.0033503 2.18119e-21)
(1.15618 0.0056959 -3.56733e-21)
(1.16795 0.0022625 3.97486e-21)
(1.36941 0.746926 -5.3711e-20)
(1.3582 0.793951 2.50066e-20)
(1.36357 0.847649 -4.38786e-19)
(1.37403 0.908263 2.18941e-19)
(1.38434 0.973171 8.28441e-19)
(1.38997 1.0393 -1.39425e-19)
(1.37631 1.09467 -8.32578e-19)
(1.2987 1.09572 -4.22154e-20)
(1.05973 0.937536 -4.62444e-19)
(0.508003 0.467889 1.2268e-19)
(1.5252 0.71703 0)
(1.52074 0.764045 5.35347e-19)
(1.52354 0.81556 1.20159e-18)
(1.53276 0.874582 -7.22046e-19)
(1.54564 0.939092 -1.73578e-18)
(1.55626 1.00549 -1.4022e-19)
(1.54637 1.06103 -1.79852e-19)
(1.4633 1.062 6.61365e-19)
(1.19449 0.905776 9.83768e-19)
(0.570476 0.448491 4.24423e-19)
(1.66254 0.687303 6.44667e-20)
(1.66947 0.733173 0)
(1.67723 0.781661 -6.70796e-20)
(1.68951 0.836187 7.35405e-19)
(1.70606 0.896204 5.31714e-20)
(1.72109 0.958699 -1.83993e-18)
(1.71372 1.01086 1.18605e-18)
(1.62373 1.00975 7.81485e-19)
(1.32393 0.857137 -8.9331e-19)
(0.628875 0.420021 -2.88656e-19)
(1.77793 0.648313 -1.13051e-19)
(1.79551 0.69077 -9.23404e-20)
(1.81228 0.735088 2.20176e-19)
(1.83199 0.784356 -2.76627e-19)
(1.85515 0.838794 -1.33916e-18)
(1.87595 0.895804 -1.03799e-18)
(1.87115 0.942641 1.16583e-18)
(1.77322 0.937979 7.80359e-19)
(1.44154 0.790424 0)
(0.678782 0.381293 0)
(1.87597 0.592457 -7.76751e-19)
(1.90236 0.630295 -1.34293e-18)
(1.92856 0.669881 -5.38374e-19)
(1.95724 0.713707 -3.5e-20)
(1.98854 0.762183 0)
(2.01601 0.812873 1.46373e-19)
(2.01349 0.853244 1.73732e-19)
(1.90622 0.844321 2.22137e-19)
(1.54172 0.704483 -3.37206e-19)
(0.716325 0.332518 -8.53014e-20)
(1.96185 0.517712 9.29837e-19)
(1.99494 0.550609 -4.49885e-20)
(2.02916 0.585245 -1.11139e-18)
(2.06614 0.623431 0)
(2.10527 0.665505 0)
(2.13885 0.709139 0)
(2.1373 0.742254 1.48921e-18)
(2.0187 0.729088 -1.82998e-18)
(1.62023 0.60107 -1.27276e-18)
(0.739556 0.276321 5.4033e-21)
(2.0368 0.426856 -1.26058e-18)
(2.07473 0.454502 -2.65116e-18)
(2.11513 0.483651 -4.63936e-21)
(2.15883 0.515608 5.43147e-19)
(2.20439 0.550586 -4.26044e-20)
(2.24249 0.586295 1.26378e-18)
(2.23981 0.611684 -7.37296e-19)
(2.10717 0.595718 -2.30343e-18)
(1.67409 0.48416 1.76115e-19)
(0.748764 0.215493 1.31084e-19)
(2.09874 0.323948 -1.02785e-18)
(2.14022 0.345639 1.77234e-20)
(2.1852 0.368419 4.03452e-19)
(2.23392 0.393294 -3.93671e-19)
(2.28411 0.420417 6.16312e-19)
(2.32475 0.447485 1.80003e-18)
(2.31832 0.464727 -2.33885e-19)
(2.1688 0.449399 -1.33385e-18)
(1.70292 0.359302 3.45596e-19)
(0.744396 0.152616 6.44105e-20)
(2.14478 0.212336 3.90413e-19)
(2.18891 0.227469 8.80335e-20)
(2.23714 0.243061 -4.33341e-19)
(2.28927 0.260078 -1.00595e-18)
(2.3423 0.278455 9.96683e-20)
(2.38318 0.296524 1.04952e-19)
(2.37015 0.307243 -1.69611e-18)
(2.20188 0.294714 7.61339e-19)
(1.70689 0.229732 2.53414e-19)
(0.726988 0.0905278 -1.961e-19)
(2.17318 0.0946809 7.80023e-19)
(2.21898 0.102517 -1.1908e-18)
(2.26903 0.110418 1.93403e-19)
(2.32296 0.11901 2.52406e-18)
(2.37693 0.128394 1.33214e-18)
(2.41573 0.137705 -3.07951e-18)
(2.39381 0.143012 -3.31668e-18)
(2.20644 0.135632 1.75899e-18)
(1.6861 0.0998885 1.00972e-21)
(0.697597 0.0317051 2.92378e-20)
(0.5198 0.201018 -1.90858e-19)
(0.484688 0.207908 -1.71473e-19)
(0.441982 0.215409 1.01065e-19)
(0.393722 0.223509 -3.34677e-19)
(0.340719 0.232219 -4.49568e-20)
(0.282348 0.241353 2.80752e-19)
(0.217471 0.249201 7.77139e-20)
(0.145956 0.248249 -4.75369e-20)
(0.0741347 0.217274 -6.16896e-21)
(0.0130208 0.115968 2.37779e-20)
(0.546938 0.30121 1.5426e-19)
(0.512616 0.314739 2.20128e-19)
(0.471244 0.329732 3.52889e-20)
(0.42457 0.345999 -9.37178e-20)
(0.37329 0.363454 -3.1407e-19)
(0.316741 0.381761 1.66508e-20)
(0.253463 0.397973 1.80717e-19)
(0.182113 0.399223 2.73884e-21)
(0.106042 0.349901 -5.03285e-20)
(0.0301217 0.185439 -1.57987e-20)
(0.591197 0.397154 -1.66441e-19)
(0.558278 0.417106 -1.7642e-19)
(0.519207 0.439222 1.52669e-19)
(0.475232 0.463234 1.39426e-19)
(0.426846 0.488993 -6.26733e-20)
(0.373327 0.516007 -1.14901e-19)
(0.312676 0.540113 -8.59849e-20)
(0.241481 0.543263 1.72276e-20)
(0.15812 0.476027 -3.47769e-20)
(0.0577045 0.251043 5.23535e-21)
(0.651552 0.486704 8.99913e-20)
(0.620611 0.512764 -7.21895e-21)
(0.584729 0.541454 -1.24389e-19)
(0.544485 0.572588 7.23121e-20)
(0.500096 0.606007 -8.89001e-20)
(0.450748 0.641058 3.28039e-20)
(0.393707 0.672382 -1.31725e-19)
(0.322666 0.677022 -3.92567e-20)
(0.229011 0.592627 -2.19324e-19)
(0.0948971 0.311055 4.9629e-20)
(0.726492 0.56791 -2.76139e-20)
(0.69807 0.599632 -9.47813e-21)
(0.666225 0.634204 -4.2591e-20)
(0.630734 0.671684 -1.56697e-19)
(0.591439 0.711959 6.92095e-20)
(0.547376 0.7542 -7.52711e-20)
(0.494872 0.791886 1.44707e-19)
(0.423989 0.797486 -1.9264e-20)
(0.31702 0.696983 2.84754e-19)
(0.140641 0.364018 2.18401e-19)
(0.813858 0.639263 -2.61298e-21)
(0.788322 0.675916 -6.57499e-20)
(0.761134 0.715292 1.49346e-19)
(0.731187 0.758001 8.7634e-20)
(0.697923 0.804078 2.02747e-19)
(0.660175 0.852465 1.0777e-19)
(0.613096 0.895444 3.98236e-19)
(0.542404 0.901256 1.89503e-19)
(0.419585 0.785799 1.68781e-19)
(0.193523 0.408108 1.91781e-19)
(0.911942 0.697823 -9.30583e-20)
(0.890468 0.738758 2.83076e-19)
(0.869352 0.782121 1.70296e-19)
(0.846259 0.829053 -1.85134e-19)
(0.820039 0.879821 -1.02207e-19)
(0.789312 0.933237 4.57981e-19)
(0.74798 0.980519 -9.56826e-20)
(0.676879 0.986131 -2.96118e-19)
(0.535281 0.857383 -4.95048e-20)
(0.252387 0.442378 2.10978e-19)
(1.01137 0.74593 1.59905e-19)
(0.992927 0.789415 5.26847e-20)
(0.978189 0.834895 -5.38488e-19)
(0.963417 0.884685 5.70232e-20)
(0.946445 0.938971 3.36791e-19)
(0.925107 0.996041 -2.45584e-19)
(0.891431 1.04592 -5.46417e-20)
(0.820588 1.04988 -1.32497e-19)
(0.658656 0.908971 1.40655e-20)
(0.314408 0.465257 -2.814e-19)
(1.12949 0.76704 2.21462e-20)
(1.11857 0.81368 -3.62896e-19)
(1.11105 0.860885 -2.85167e-21)
(1.10275 0.912706 3.02114e-19)
(1.0922 0.970148 -3.01018e-19)
(1.07763 1.03111 6.24425e-19)
(1.04945 1.0843 4.53289e-19)
(0.976547 1.0882 -7.37232e-19)
(0.79056 0.939241 -4.86168e-20)
(0.379213 0.477021 -2.99016e-19)
(1.21014 0.783717 -2.07053e-19)
(1.21129 0.831373 -2.08681e-19)
(1.22145 0.880055 2.3188e-19)
(1.2297 0.933007 5.12777e-19)
(1.23316 0.990911 2.07312e-19)
(1.23028 1.05198 -5.25448e-19)
(1.21023 1.10462 3.17571e-20)
(1.13588 1.10573 1.62367e-19)
(0.924615 0.94968 -2.37668e-19)
(0.444095 0.477992 -2.16741e-19)
(0.770135 0.0217038 1.082e-20)
(1.1721 0.0397797 -1.87607e-20)
(0.923631 0.0465544 -9.38514e-21)
(1.02227 0.0498403 0)
(0.994141 0.0572097 1.88663e-20)
(0.972645 0.0679478 2.39575e-20)
(0.948087 0.0826265 3.08142e-20)
(0.898887 0.101916 6.30029e-20)
(0.833914 0.128779 -9.24771e-20)
(0.664183 0.165427 -1.04821e-19)
(0.7697 0.0190449 3.6905e-20)
(1.17208 0.039478 -6.28473e-20)
(0.924111 0.0486652 -6.20172e-22)
(1.02398 0.0514911 -1.25952e-20)
(0.996768 0.0608054 9.69567e-21)
(0.976543 0.0739642 -1.2212e-20)
(0.953274 0.0931928 -7.66955e-20)
(0.906747 0.119403 0)
(0.843511 0.164722 2.00784e-19)
(0.686051 0.229494 -2.46053e-19)
(0.769058 0.0164928 -4.52356e-20)
(1.17225 0.0390534 1.74609e-20)
(0.924491 0.0505371 3.26996e-20)
(1.02614 0.0529176 1.42552e-20)
(0.999746 0.0641949 -2.34486e-20)
(0.981146 0.0798081 6.06659e-22)
(0.959524 0.103549 -5.4688e-20)
(0.917438 0.136817 -4.93611e-21)
(0.856773 0.200148 2.63061e-22)
(0.720788 0.291348 6.13045e-19)
(0.768206 0.0141451 -1.57075e-20)
(1.17258 0.0385094 3.26089e-21)
(0.924782 0.052123 2.73636e-20)
(1.02874 0.054113 1.60568e-20)
(1.00309 0.0673589 -1.10434e-20)
(0.986454 0.0854383 -1.39563e-20)
(0.96692 0.1136 8.18506e-20)
(0.930862 0.154028 -1.45521e-21)
(0.873849 0.234645 -2.46177e-19)
(0.767758 0.349846 6.56785e-20)
(0.767139 0.0120568 1.21946e-20)
(1.17299 0.0378292 -3.49857e-20)
(0.925005 0.053372 -2.11828e-20)
(1.0318 0.0550734 7.85666e-21)
(1.00681 0.0702805 0)
(0.992458 0.0908177 0)
(0.975552 0.123276 6.99689e-20)
(0.946861 0.170898 2.61924e-22)
(0.894994 0.267489 -1.17889e-19)
(0.826091 0.404235 8.953e-20)
(0.765853 0.0102894 9.45129e-22)
(1.17339 0.0369872 2.91117e-20)
(0.925184 0.0542321 -4.83427e-20)
(1.03533 0.0557997 -3.03804e-20)
(1.01089 0.072944 7.45397e-23)
(0.999151 0.0959146 5.75381e-20)
(0.985502 0.132549 1.09327e-19)
(0.96518 0.18729 -7.3525e-22)
(0.920625 0.297774 1.95162e-19)
(0.894662 0.454622 -1.97493e-19)
(0.76434 0.00892552 -2.30232e-20)
(1.17369 0.0359466 1.5369e-20)
(0.925359 0.054652 -9.17744e-21)
(1.03934 0.0562989 -5.32826e-20)
(1.01534 0.0753322 8.61216e-23)
(1.00653 0.1007 -1.133e-21)
(0.996828 0.14138 -6.52874e-21)
(0.985498 0.203163 -1.9476e-19)
(0.951334 0.324312 1.4712e-19)
(0.971165 0.499188 -4.62595e-19)
(0.762589 0.00805214 5.87522e-21)
(1.17381 0.0346436 -4.47666e-20)
(0.925581 0.0545814 2.13006e-20)
(1.04382 0.0565824 3.80605e-20)
(1.02013 0.0774201 1.48492e-22)
(1.01461 0.105131 -6.74149e-20)
(1.00958 0.149639 -6.01489e-20)
(1.00751 0.218591 3.50845e-19)
(0.987584 0.34759 1.13679e-20)
(1.054 0.54478 7.44152e-19)
(0.760572 0.00774034 2.04541e-21)
(1.17375 0.0330096 1.98484e-20)
(0.925923 0.0539481 1.54276e-20)
(1.04877 0.0566622 -4.00914e-20)
(1.02522 0.079175 -6.97296e-20)
(1.0233 0.109121 1.45003e-21)
(1.02367 0.156881 -8.27647e-20)
(1.03121 0.231603 4.5584e-19)
(1.03254 0.360779 -7.27618e-21)
(1.13614 0.569299 -1.01379e-18)
(0.758269 0.00822476 4.64586e-21)
(1.1743 0.0312951 2.97274e-20)
(0.926276 0.0527411 1.12093e-20)
(1.05426 0.0566039 -8.61493e-20)
(1.03031 0.0807866 -6.62707e-20)
(1.03165 0.113428 -5.73634e-20)
(1.03635 0.165895 -1.48313e-19)
(1.05023 0.249729 -4.25112e-19)
(1.07199 0.386378 -2.45406e-19)
(1.22582 0.62766 -1.0998e-18)
(0.75681 0.00802204 -1.30768e-20)
(1.17714 0.0286184 -6.21343e-21)
(0.927761 0.0497633 -1.03024e-20)
(1.06051 0.0554209 1.1829e-20)
(1.03927 0.0797778 5.00991e-20)
(1.04629 0.113183 -3.9747e-20)
(1.06019 0.165713 1.32711e-19)
(1.088 0.247572 -4.18352e-19)
(1.13998 0.365318 -1.77422e-19)
(1.24821 0.615705 5.81047e-19)
(0.757093 0.0054986 9.68605e-21)
(1.18114 0.0250469 1.20678e-20)
(0.932132 0.0443996 -1.32018e-21)
(1.06612 0.0523347 4.39256e-20)
(1.04984 0.0755185 7.85909e-20)
(1.06209 0.107843 1.16206e-19)
(1.08429 0.157076 2.79206e-20)
(1.12564 0.231182 2.18691e-19)
(1.19195 0.333825 2.83309e-19)
(1.3194 0.52848 -3.08059e-21)
(0.757202 0.00240214 -1.32863e-20)
(1.1855 0.0210159 -3.61554e-21)
(0.93691 0.0388623 -3.32825e-21)
(1.07185 0.0481529 1.40209e-20)
(1.06002 0.0698605 2.18286e-34)
(1.07694 0.100132 -8.0036e-21)
(1.10602 0.144835 -5.33211e-34)
(1.15832 0.210235 1.86145e-20)
(1.22976 0.293711 -5.32611e-20)
(1.38018 0.452054 -4.71694e-20)
(0.757388 -0.00160634 2.85103e-20)
(1.18993 0.0162624 -3.93053e-35)
(0.941729 0.0330156 3.01536e-21)
(1.07747 0.0429643 -1.71635e-20)
(1.06943 0.0628523 -3.15224e-20)
(1.09038 0.0903285 -3.89662e-20)
(1.12518 0.129677 -6.59358e-34)
(1.18548 0.186074 -9.37799e-20)
(1.25987 0.251763 -1.32237e-19)
(1.42097 0.376732 8.62123e-20)
(0.757735 -0.0067182 0)
(1.19462 0.0108459 1.33071e-35)
(0.946532 0.0269099 0)
(1.08279 0.036949 0)
(1.07787 0.0546604 0)
(1.10216 0.0787534 0)
(1.1416 0.11224 -3.93921e-34)
(1.20727 0.15949 0)
(1.28417 0.209546 -2.01399e-20)
(1.44504 0.305418 5.2274e-20)
(0.758316 -0.0129258 1.48198e-20)
(1.19986 0.00488534 -1.74393e-21)
(0.951326 0.0206993 2.32154e-21)
(1.08765 0.0303137 0)
(1.08519 0.0454916 0)
(1.11211 0.0657545 6.76212e-21)
(1.1552 0.0931174 2.75417e-20)
(1.22422 0.131176 -1.38959e-20)
(1.3032 0.168111 -2.97438e-20)
(1.45808 0.238703 1.98055e-19)
(0.759225 -0.021167 -5.84872e-20)
(1.2059 -0.0018167 3.82941e-21)
(0.956105 0.0145026 1.96989e-21)
(1.09189 0.0232682 -5.5762e-21)
(1.09122 0.0355574 -1.08799e-20)
(1.12012 0.0516593 -8.735e-21)
(1.16595 0.0727812 -2.07266e-20)
(1.23689 0.101747 -3.8827e-20)
(1.31735 0.127858 -5.31228e-20)
(1.46459 0.176699 7.7783e-20)
(0.760389 -0.0272425 -2.13667e-20)
(1.21283 -0.00797152 -1.40154e-20)
(0.960495 0.00943304 1.52994e-21)
(1.09488 0.0160765 -1.07388e-20)
(1.09537 0.0250322 4.33211e-35)
(1.12568 0.036735 7.28792e-21)
(1.17345 0.0515346 -9.46717e-34)
(1.24547 0.0715268 -1.40802e-20)
(1.32667 0.0885556 1.85752e-20)
(1.46746 0.117922 2.58415e-20)
(0.758706 -0.0482207 1.7313e-19)
(1.20581 -0.0173472 -9.69302e-21)
(0.951512 0.00221642 1.39397e-21)
(1.08401 0.00978269 2.98957e-21)
(1.08519 0.0146807 3.30796e-21)
(1.11654 0.0221027 1.37651e-20)
(1.16563 0.0309159 7.80186e-21)
(1.23839 0.0427457 -5.12692e-21)
(1.31929 0.0521641 -2.12137e-20)
(1.45817 0.0667431 1.37731e-19)
(0.691521 -0.0312729 1.91142e-20)
(0.995218 -0.0152186 -7.15414e-35)
(0.752248 0.00207812 5.69814e-22)
(0.874228 0.000751415 0)
(0.868517 0.00296379 0)
(0.896032 0.00450225 7.51966e-21)
(0.938706 0.00619005 -9.01043e-36)
(1.00043 0.00877909 -1.39849e-20)
(1.07078 0.0103831 -2.7125e-20)
(1.18065 0.0126512 5.61719e-20)
(1.45369 0.634355 -1.70273e-19)
(1.55065 0.616941 -2.75522e-19)
(1.65287 0.594601 0)
(1.74609 0.562427 1.01963e-19)
(1.82873 0.514517 4.93857e-19)
(1.90331 0.448862 -1.2937e-19)
(1.96992 0.368274 1.45409e-18)
(2.02539 0.277523 -6.70994e-20)
(2.06673 0.179926 -3.47126e-19)
(2.09192 0.0791729 3.1949e-19)
(1.49833 0.515577 6.81219e-20)
(1.56752 0.502033 1.0908e-19)
(1.64619 0.479323 -5.58247e-21)
(1.72402 0.445641 1.71766e-19)
(1.79462 0.400763 -1.49449e-19)
(1.85716 0.345398 -3.69965e-19)
(1.91169 0.281332 -9.71061e-20)
(1.95634 0.210992 5.15226e-19)
(1.98916 0.136648 -2.03916e-20)
(2.00864 0.05984 -4.37038e-19)
(1.53378 0.411399 9.66697e-20)