# Selection   : all
# Cells       : 440
# Volume      : 7.374263e+01
# Time        	maxMag(U)
9.215         	2.754663e+00
9.26          	2.779021e+00
9.31          	2.806953e+00
