/*--------------------------------*- C++ -*----------------------------------*\
  =========                 |
  \\      /  F ield         | OpenFOAM: The Open Source CFD Toolbox
   \\    /   O peration     | Website:  https://openfoam.org
    \\  /    A nd           | Version:  13
     \\/     M anipulation  |
\*---------------------------------------------------------------------------*/
FoamFile
{
    format      ascii;
    class       volVectorField;
    location    "4.835";
    object      U;
}
// * * * * * * * * * * * * * * * * * * * * * * * * * * * * * * * * * * * * * //

dimensions      [0 1 -1 0 0 0 0];

internalField   nonuniform List<vector> 
440
(
(-0.075459 0.0506633 -6.64419e-20)
(-0.111528 0.0800349 1.74941e-20)
(-0.025151 0.0890754 1.0177e-19)
(0.361656 0.124516 2.55354e-19)
(0.242387 0.326115 1.28223e-20)
(-0.0983406 0.0553379 3.17854e-20)
(0.0100381 0.0240086 -1.24277e-19)
(0.440037 -0.00766008 -1.09082e-19)
(0.977072 -0.0205143 6.58682e-20)
(1.38348 -0.0111278 1.69958e-20)
(-0.0392239 0.0179259 5.17539e-20)
(0.433972 -0.0255802 6.50323e-19)
(1.17478 -0.00535287 -3.18722e-19)
(1.73365 0.0294818 -9.63871e-19)
(2.2588 0.051532 2.96119e-19)
(0.166147 -0.0340212 -1.68326e-19)
(1.10904 0.00683703 -4.4976e-19)
(1.84882 0.0771347 1.42565e-18)
(2.28285 0.114358 1.45913e-18)
(2.3692 0.124797 -4.19357e-19)
(0.509164 -0.00218633 -2.6755e-19)
(1.61917 0.16861 -5.41936e-19)
(2.14995 0.247685 1.59977e-18)
(2.28203 0.263282 1.7348e-18)
(2.37579 0.242966 5.89163e-19)
(-0.011315 -0.138649 -1.26099e-19)
(-0.121891 -0.118876 1.61885e-19)
(-0.227107 -0.0473522 -2.53933e-19)
(-0.315633 0.0266382 5.43751e-20)
(-0.381033 0.103695 4.14567e-19)
(-0.0286755 0.0296177 -3.48927e-20)
(-0.155754 0.101606 -1.39888e-19)
(-0.270214 0.128138 -5.01931e-20)
(-0.356846 0.169322 -3.75285e-20)
(-0.420901 0.22787 5.3571e-20)
(-0.0533633 0.131977 4.35824e-20)
(-0.149823 0.320906 2.08279e-20)
(-0.213567 0.370428 4.66953e-20)
(-0.248175 0.34718 -1.40974e-19)
(-0.271352 0.329078 4.95246e-21)
(-0.0308506 0.0672044 -1.00643e-20)
(-0.0943476 0.259711 2.31915e-20)
(-0.12209 0.390603 3.52982e-20)
(-0.131548 0.452078 -1.31153e-19)
(-0.128009 0.465108 3.59442e-20)
(-0.0323348 0.0272043 -3.98252e-20)
(-0.118096 0.124242 -6.16297e-20)
(-0.174251 0.256869 -1.54533e-19)
(-0.153864 0.34737 1.13571e-19)
(-0.118182 0.487777 2.49217e-20)
(-0.541545 0.515905 5.31455e-19)
(-0.398379 0.448601 5.12613e-19)
(0.513427 -0.288535 2.85496e-19)
(0.863551 -0.542033 -2.32343e-19)
(1.0025 -0.372526 -2.15924e-21)
(-0.651003 0.511118 -4.92382e-19)
(0.128064 0.256641 -9.51373e-20)
(0.820301 -0.437677 1.14438e-19)
(1.24064 -0.604948 3.72492e-19)
(1.2336 -0.380648 3.88139e-20)
(-0.443698 0.366199 -2.61636e-19)
(0.653271 0.043673 5.68043e-19)
(1.10447 -0.576655 -8.05119e-20)
(1.42025 -0.673296 2.49037e-19)
(1.38523 -0.386318 9.89422e-21)
(-0.207859 0.323064 3.28518e-19)
(1.26816 -0.0813647 -1.21139e-20)
(1.62099 -0.617795 1.2544e-19)
(1.63042 -0.691565 -1.28751e-19)
(1.46066 -0.387983 9.54646e-20)
(-0.0292132 0.126511 -1.05362e-19)
(1.69941 -0.299111 4.26633e-20)
(2.08726 -0.635331 0)
(1.92827 -0.64311 -9.2023e-22)
(1.5311 -0.35979 3.3137e-20)
(1.32926 0.0685177 -2.30004e-19)
(2.17494 -0.443002 -8.33859e-20)
(2.38752 -0.635385 -1.94899e-20)
(2.16563 -0.54002 8.33288e-20)
(1.58355 -0.291116 -1.19147e-19)
(2.18334 0.0742221 -1.41839e-20)
(2.54322 -0.518556 8.48435e-19)
(2.32837 -0.665926 -1.29255e-20)
(2.01593 -0.393937 -1.02525e-19)
(1.40962 -0.152442 0)
(2.39599 -0.0200202 -2.15708e-19)
(2.48823 -0.432734 -4.73606e-21)
(1.91081 -0.456525 1.82322e-19)
(1.69897 -0.213168 2.61827e-20)
(1.30916 -0.0744539 -5.01429e-20)
(2.29685 -0.0497183 9.16973e-20)
(2.26343 -0.319528 2.2655e-19)
(1.59016 -0.382409 -7.40861e-21)
(1.11783 -0.139211 -4.69237e-34)
(0.84964 -0.00527672 6.26338e-20)
(1.57513 -0.0617784 7.79026e-20)
(1.14973 -0.093709 8.40375e-20)
(0.401224 0.00776764 -5.48814e-20)
(0.14144 0.0392446 -1.44323e-20)
(0.161443 0.0148995 1.38775e-20)
(2.34848 0.27901 -7.22947e-19)
(2.51482 0.0552443 -8.53835e-19)
(2.39533 0.116656 4.72741e-19)
(2.57212 -0.0247081 9.37173e-20)
(1.9748 0.137897 -2.05167e-21)
(2.10095 0.157774 8.00223e-20)
(2.36449 0.0379791 -3.36443e-20)
(2.23822 -0.00772681 -1.12052e-19)
(2.42606 -0.045403 -1.63669e-19)
(2.3115 -0.152619 -4.85912e-21)
(2.11836 0.0455701 8.02134e-20)
(2.27173 0.0229283 6.32966e-20)
(2.23477 -0.0649419 -5.8163e-20)
(2.32226 -0.039064 2.86253e-20)
(2.31019 -0.139198 -1.9991e-20)
(2.12458 -0.0284539 1.12777e-19)
(2.18173 -0.016449 1.74396e-19)
(2.19755 -0.0789186 -1.88991e-20)
(2.22105 -0.0500794 -9.02934e-20)
(2.25816 -0.111405 3.32253e-20)
(1.55101 -0.0168166 1.89999e-19)
(1.55377 -0.0189801 -1.11233e-20)
(1.53506 -0.0218353 1.63889e-20)
(1.53681 -0.0243706 -4.30637e-20)
(1.53431 -0.0269938 -3.79266e-20)
(1.54125 0.885467 1.13271e-18)
(1.50117 0.970512 -3.72995e-19)
(1.4939 1.08195 -1.31054e-18)
(1.40786 1.10119 6.83277e-19)
(0.847684 0.757282 -1.55957e-19)
(1.77748 0.832124 -5.56978e-19)
(1.75667 0.897164 -2.95437e-18)
(1.76518 0.987718 -1.11348e-18)
(1.65674 0.972246 -3.69317e-19)
(0.984749 0.642763 -5.83112e-19)
(2.08404 0.700202 7.39693e-19)
(2.05228 0.752514 1.80375e-19)
(2.01673 0.819681 -2.15144e-18)
(1.86178 0.790923 -5.6338e-19)
(1.06361 0.494219 3.93488e-19)
(2.21077 0.571548 2.15446e-18)
(2.19353 0.611743 1.52822e-18)
(2.17925 0.647149 -1.71896e-18)
(1.93854 0.589442 -1.2746e-18)
(1.02281 0.318373 -2.20996e-19)
(2.36691 0.400911 9.98775e-19)
(2.348 0.416895 -6.99173e-19)
(2.22447 0.432458 5.08336e-19)
(1.87701 0.367387 3.79531e-19)
(0.848062 0.136859 -3.16129e-19)
(0.591808 0.475407 -6.68399e-19)
(0.497507 0.513361 -5.16005e-19)
(0.375716 0.550524 5.91861e-20)
(0.23367 0.54836 -8.24913e-21)
(0.057141 0.385742 7.98643e-20)
(0.695363 0.646529 9.32421e-20)
(0.630184 0.701791 -3.0336e-19)
(0.538984 0.767226 1.83982e-19)
(0.409728 0.826899 -8.57162e-20)
(0.178499 0.6288 1.21874e-19)
(0.761958 0.856477 8.41224e-20)
(0.686689 0.941985 4.89976e-19)
(0.633721 1.0386 1.18197e-19)
(0.554204 1.06818 -3.09098e-19)
(0.306218 0.775843 2.55579e-19)
(1.07719 0.931041 2.34034e-19)
(1.01596 1.00472 -7.0997e-19)
(0.951617 1.09462 -1.92832e-18)
(0.862808 1.15189 7.60533e-19)
(0.506339 0.840657 -1.63486e-19)
(1.10856 1.00306 -1.03974e-19)
(1.14922 1.11785 -1.7902e-19)
(1.16688 1.21413 -3.55184e-19)
(1.10179 1.20769 -3.90194e-19)
(0.670579 0.836414 -6.20182e-21)
(0.990235 0.0383679 -8.99311e-20)
(1.03726 0.0205662 -2.94369e-20)
(1.02793 0.131231 -2.83512e-21)
(0.964214 0.10373 -1.79751e-19)
(0.926241 0.284199 2.94748e-19)
(0.980861 0.0337207 5.63221e-20)
(1.0588 0.0188191 9.77628e-20)
(1.00256 0.141455 1.19962e-19)
(1.00376 0.117604 2.14037e-20)
(0.954843 0.380381 -6.41365e-21)
(0.99027 0.031389 7.54824e-20)
(1.04068 0.0107175 -3.67897e-21)
(1.04198 0.163417 5.13781e-22)
(0.959897 0.121346 1.55684e-19)
(1.18149 0.520328 -4.71438e-19)
(0.989224 0.0288664 -9.08807e-23)
(1.05311 0.00357045 -1.36496e-19)
(1.02463 0.182571 -5.97762e-20)
(1.0731 0.0913366 -3.44949e-19)
(1.19531 0.600635 9.20929e-20)
(0.994185 0.0229758 -1.21962e-20)
(1.04118 0.00700679 3.81331e-20)
(1.06717 0.171782 2.74292e-20)
(1.05373 0.138541 4.35806e-19)
(1.34903 0.745117 -4.55161e-19)
(0.98047 0.0239522 -1.03149e-20)
(1.07656 -0.0122409 7.69765e-20)
(1.03225 0.203075 -6.05977e-20)
(1.3091 0.0406315 1.0403e-18)
(1.33365 0.783949 -3.47965e-19)
(0.9665 0.0004679 -9.01545e-22)
(1.11373 -0.00427198 -6.86182e-20)
(0.995529 0.106503 5.10955e-21)
(1.45668 0.0208965 -2.88471e-19)
(1.1623 0.622321 -6.65356e-20)
(0.985492 -0.00827694 4.02037e-21)
(1.09599 -0.00262411 1.30807e-35)
(1.08104 0.04868 -7.54926e-21)
(1.33358 0.0190218 6.97987e-20)
(1.10869 0.504639 1.65183e-19)
(1.02892 -0.0434338 2.98108e-21)
(1.00905 -0.0209062 -2.3739e-20)
(1.18195 -0.0104622 1.77762e-20)
(1.04402 0.0445237 1.79204e-20)
(1.37143 0.34166 -2.54456e-19)
(0.944869 -0.0222328 -3.77209e-20)
(0.826315 -0.0244075 -2.78543e-22)
(0.899343 -0.00579104 2.0508e-20)
(0.6752 0.00927575 -2.17372e-20)
(1.20357 0.0857099 -5.93353e-20)
(1.79263 0.681686 2.88436e-19)
(1.85748 0.701042 7.43824e-19)
(2.12174 0.557234 -1.0197e-18)
(2.16695 0.526839 3.85506e-20)
(2.3756 0.299537 4.23287e-19)
(1.65858 0.465747 6.31933e-20)
(1.63954 0.478322 9.21752e-19)
(1.92738 0.364032 1.03065e-19)
(1.88386 0.336941 -8.42257e-19)
(2.18822 0.175803 -2.61684e-19)
(1.59481 0.324591 -2.10182e-19)
(1.69548 0.28836 -1.45077e-19)
(1.90623 0.229182 1.62443e-19)
(1.94041 0.170606 -2.65737e-19)
(2.13716 0.113863 2.5141e-19)
(1.75544 0.191639 4.25414e-19)
(1.87275 0.145988 -3.47825e-21)
(1.98466 0.105755 2.09742e-19)
(2.02629 0.0486693 1.83884e-19)
(2.11209 0.0293313 -1.88871e-19)
(1.46174 0.0330301 -5.54774e-20)
(1.54724 0.0154781 2.62122e-19)
(1.57324 0.000394875 1.02085e-19)
(1.5735 -0.00808989 -2.13724e-19)
(1.57137 -0.0124722 2.14757e-22)
(1.24978 -0.0282177 7.49516e-20)
(2.31518 -0.0374249 -4.91172e-19)
(2.54766 -0.033232 1.30022e-18)
(2.52424 0.0148296 5.72976e-19)
(2.34197 0.0338797 -4.08229e-19)
(0.799803 0.0975424 1.44161e-19)
(2.06971 0.103133 -5.11841e-19)
(2.53061 0.103721 -7.15599e-19)
(2.57629 0.106027 9.30342e-19)
(2.33978 0.102644 -6.5773e-19)
(0.271958 0.0907746 -2.46182e-20)
(1.44989 0.191463 5.89136e-19)
(2.19053 0.215143 8.81695e-20)
(2.54471 0.221361 7.15768e-19)
(2.66223 0.194491 3.07703e-19)
(-0.00756481 -0.00393147 2.36584e-19)
(0.609847 0.13843 2.35869e-19)
(1.44675 0.227131 -5.16276e-19)
(1.95661 0.25352 3.1521e-20)
(2.47512 0.286094 1.46347e-19)
(-0.0860841 -0.0743869 1.54286e-19)
(0.0568277 -0.0263926 -1.70536e-19)
(0.575091 0.067648 -1.82832e-20)
(1.07944 0.128088 5.19332e-20)
(1.589 0.229778 1.2221e-20)
(-0.0837475 -0.0999243 9.14047e-21)
(-0.110684 -0.148214 7.58531e-20)
(0.0579503 -0.116695 1.8347e-20)
(0.338704 -0.011101 -7.80233e-20)
(0.810918 0.131001 8.86147e-21)
(-0.062982 -0.10404 -2.89275e-20)
(-0.10314 -0.201332 -5.28835e-20)
(-0.0681906 -0.210613 -2.0007e-21)
(0.0473147 -0.139682 -2.12166e-20)
(0.271359 0.00119622 2.39588e-21)
(-0.0558403 -0.173878 -2.87111e-20)
(-0.0669165 -0.334048 9.72553e-21)
(-0.0400535 -0.364783 4.00727e-20)
(0.0165103 -0.311646 3.16094e-19)
(0.0945126 -0.208524 -7.27951e-20)
(-0.0492434 -0.277595 1.92888e-20)
(-0.0626467 -0.432213 1.83957e-19)
(-0.062492 -0.411105 -6.0278e-19)
(-0.0503345 -0.325236 -5.34187e-19)
(-0.0372317 -0.222575 9.91043e-20)
(-0.0260515 -0.2664 -1.36384e-20)
(-0.0934154 -0.333384 5.53913e-20)
(-0.166433 -0.270153 -1.80997e-20)
(-0.234368 -0.178048 -5.40608e-20)
(-0.278693 -0.077681 -6.95116e-21)
(1.46114 0.525327 -4.00102e-20)
(1.08239 0.290873 5.90469e-19)
(0.633586 0.0186066 -1.0189e-19)
(0.529786 -0.0900808 -6.28425e-20)
(0.843778 -0.0596045 1.59157e-21)
(1.31054 0.455853 7.44812e-20)
(0.821429 0.363996 1.49062e-19)
(0.22315 0.0870192 -1.36006e-19)
(0.199437 -0.131862 -9.041e-21)
(0.702459 -0.113018 -2.05455e-20)
(0.926951 0.285461 1.01337e-19)
(0.184182 0.493958 5.92032e-19)
(-0.0763766 0.131796 6.96353e-20)
(0.0948919 -0.239965 -2.468e-19)
(0.673166 -0.190535 -6.49852e-21)
(0.237725 0.357212 -1.25857e-19)
(-0.55388 0.598089 -1.7339e-18)
(-0.0447512 0.0557288 -3.66736e-19)
(0.172767 -0.348958 6.303e-21)
(0.712669 -0.268611 1.43281e-20)
(-0.296887 0.480106 -1.06293e-19)
(-0.786249 0.563101 -1.1359e-19)
(0.173851 -0.120828 4.00344e-19)
(0.428425 -0.459076 -5.11218e-20)
(0.812686 -0.336361 1.49369e-20)
(0.491997 0.141962 -6.91308e-20)
(-0.156162 -0.0607694 0)
(-0.0254636 -0.0920087 -4.93949e-20)
(0.164812 -0.0481703 2.96045e-20)
(0.372939 -0.0202109 8.31144e-21)
(1.96491 0.457777 0)
(1.28816 0.252713 0)
(0.873448 -0.00290043 3.59079e-19)
(0.831475 -0.075283 4.53637e-20)
(0.973507 -0.0405329 -6.70482e-21)
(0.748092 0.00257547 -1.36941e-19)
(0.840825 0.00124303 3.39246e-19)
(0.945625 -0.0111806 -9.99863e-21)
(1.06791 0.0213752 2.91144e-19)
(1.33264 0.0904533 1.86647e-19)
(1.68989 0.0260265 1.32136e-19)
(1.89355 0.0766332 4.20327e-19)
(1.98843 0.0942199 -2.49524e-19)
(2.53589 0.187929 4.70369e-20)
(2.22875 0.20379 2.11334e-19)
(0.931952 -0.490349 -9.64626e-21)
(0.920899 -0.581379 -1.90496e-19)
(0.910445 -0.679048 -1.4117e-19)
(0.839532 -0.751728 8.60478e-20)
(0.515636 -0.600509 1.4163e-19)
(0.829522 -0.39682 1.17378e-19)
(0.775445 -0.465292 2.05388e-19)
(0.702335 -0.540236 -7.12265e-20)
(0.58785 -0.602556 1.51589e-19)
(0.322743 -0.48266 5.27662e-20)
(0.662766 -0.254121 -1.26083e-19)
(0.574589 -0.295373 -5.98645e-20)
(0.472836 -0.348383 5.09573e-20)
(0.354016 -0.395872 -3.31606e-20)
(0.160372 -0.319687 -1.37027e-19)
(0.569259 -0.0173228 -4.45653e-19)
(0.482359 -0.0336856 -3.64572e-19)
(0.369272 -0.0579196 2.97549e-19)
(0.238036 -0.0891258 1.64869e-19)
(0.0678621 -0.0948537 1.39109e-20)
(0.540339 0.193653 -1.49496e-19)
(0.449956 0.194195 -1.61048e-19)
(0.327653 0.193164 -5.47884e-20)
(0.187178 0.198446 3.2993e-20)
(0.0281405 0.146737 1.1696e-20)
(2.07525 -0.028773 8.69545e-19)
(2.34276 -0.0935029 2.91928e-19)
(2.42614 -0.183021 -7.79748e-19)
(2.29475 -0.211678 -1.66208e-18)
(1.40234 -0.199813 1.36837e-19)
(2.09217 -0.126327 1.45904e-18)
(2.17529 -0.243889 1.93297e-18)
(2.18383 -0.370341 1.63255e-19)
(2.10377 -0.427028 2.87206e-19)
(1.35943 -0.382363 -1.90206e-19)
(1.752 -0.289809 -3.80171e-18)
(1.81587 -0.408236 4.07e-19)
(1.87392 -0.539716 1.18476e-18)
(1.83246 -0.621493 -4.49123e-19)
(1.20279 -0.536382 7.24459e-19)
(1.54855 -0.418845 8.81722e-19)
(1.56264 -0.518843 -2.36917e-18)
(1.54743 -0.636769 -2.72359e-18)
(1.48717 -0.728411 8.47743e-19)
(0.970357 -0.612545 5.79861e-19)
(1.24276 -0.469695 1.9706e-19)
(1.20294 -0.568193 2.7626e-19)
(1.20447 -0.698767 -4.1605e-19)
(1.15703 -0.793947 -5.04102e-19)
(0.736496 -0.639457 -4.73037e-21)
(1.01493 0.0398954 7.28625e-21)
(1.00794 0.058509 -3.72738e-21)
(1.10595 0.0878802 -7.19037e-22)
(0.838457 -0.0119962 -2.54682e-19)
(1.11681 -0.208546 -1.96231e-20)
(1.02964 0.042707 -2.27897e-21)
(0.978922 0.0497644 4.97862e-20)
(1.11907 0.10844 -1.95308e-20)
(0.917327 0.0285953 2.19082e-19)
(1.00668 -0.0962878 2.15314e-21)
(1.03566 0.0408681 -5.56699e-20)
(0.966673 0.0402352 8.01759e-22)
(1.10348 0.108069 -1.08787e-20)
(0.925551 0.054025 1.11737e-19)
(0.971298 -0.0339944 -2.45883e-19)
(1.0247 0.0419286 6.78891e-20)
(0.985724 0.0315121 2.1028e-21)
(1.06732 0.112132 2.76921e-20)
(0.956665 0.075331 -5.51651e-20)
(0.884436 0.0770102 7.20648e-20)
(1.0036 0.0395617 1.73106e-20)
(1.02073 0.0293016 -2.27124e-20)
(1.02939 0.11393 3.94706e-20)
(0.977184 0.0992882 3.79505e-20)
(0.869038 0.180936 -5.27699e-20)
(0.883923 0.0328292 0)
(0.769768 0.0303443 1.11539e-20)
(0.563431 0.0193251 4.49882e-21)
(0.405726 -0.0130897 5.03755e-20)
(0.711902 -0.0494646 -1.72768e-19)
(0.98997 0.0619567 -6.19698e-20)
(1.03608 0.0790168 -1.70082e-20)
(0.980975 0.081238 -5.28755e-20)
(0.843832 -0.0184172 -1.44551e-19)
(1.03695 -0.194811 -1.81216e-19)
(0.982342 -0.06152 -3.80638e-20)
(1.07247 -0.027655 5.71789e-19)
(1.16482 0.041795 3.3633e-19)
(1.0359 0.0572276 3.32069e-20)
(0.796493 0.0302484 0)
(1.32539 -0.315881 3.86896e-19)
(1.44885 -0.283388 1.61138e-18)
(1.63462 -0.15941 -1.75245e-18)
(1.75024 -0.0209911 -5.42615e-19)
(1.63252 0.0332582 4.07453e-19)
)
;

boundaryField
{
    left
    {
        type            fixedValue;
        value           uniform (1 0 0);
    }
    right
    {
        type            zeroGradient;
    }
    down
    {
        type            noSlip;
    }
    up
    {
        type            noSlip;
    }
    cylinder
    {
        type            noSlip;
    }
    defaultFaces
    {
        type            empty;
    }
}


// ************************************************************************* //
