# Selection   : all
# Cells       : 440
# Volume      : 7.374263e+01
# Time        	minMag(U)
0.4           	1.332040e-02
0.45          	1.431319e-02
0.5           	1.866339e-02
