/*--------------------------------*- C++ -*----------------------------------*\
  =========                 |
  \\      /  F ield         | OpenFOAM: The Open Source CFD Toolbox
   \\    /   O peration     | Website:  https://openfoam.org
    \\  /    A nd           | Version:  13
     \\/     M anipulation  |
\*---------------------------------------------------------------------------*/
FoamFile
{
    format      ascii;
    class       volScalarField;
    location    "80";
    object      p;
}
// * * * * * * * * * * * * * * * * * * * * * * * * * * * * * * * * * * * * * //

dimensions      [0 2 -2 0 0 0 0];

internalField   nonuniform List<scalar> 
440
(
-1.11582
-1.09514
-1.08631
-1.06957
-1.13205
-1.18704
-1.16222
-1.13556
-1.10897
-1.08562
-1.32213
-1.27988
-1.22622
-1.1581
-1.08757
-1.46235
-1.40565
-1.28835
-1.15337
-1.01786
-1.54525
-1.46365
-1.2826
-1.09776
-0.932356
-1.12549
-1.1873
-1.3504
-1.57117
-1.81243
-1.27329
-1.28164
-1.31422
-1.36825
-1.44364
-1.21309
-1.19386
-1.17872
-1.18068
-1.21087
-1.15383
-1.1296
-1.10481
-1.08915
-1.10422
-1.08785
-1.06771
-1.03944
-1.00831
-1.00789
-1.13567
-0.241214
0.262161
0.151797
-0.0140643
-1.35568
-0.274117
0.561179
0.122153
0.00330403
-1.37968
-0.317255
0.708074
0.0858057
-0.0114951
-1.27655
-0.382022
0.634945
0.110512
-0.0646733
-1.16446
-0.446321
0.366938
0.173034
-0.0903469
-0.933288
-0.347708
0.192478
0.253811
-0.0723609
-0.492221
0.0210849
0.152329
0.296246
0.0221382
-0.325249
0.176995
0.344519
0.28381
0.0526621
-0.172756
0.151846
0.343869
0.274421
0.0360089
-0.0771344
0.0987948
0.403608
0.356224
0.0612682
-0.654204
-0.768083
-0.940481
-1.10002
-1.28997
-0.386262
-0.501366
-0.59405
-0.649508
-0.682145
-0.200683
-0.303202
-0.362157
-0.397803
-0.414899
-0.0865814
-0.176894
-0.229649
-0.253669
-0.254779
-0.0316701
-0.120014
-0.168467
-0.183634
-0.166356
0.769146
0.606969
0.39934
0.168262
-0.0828266
0.322669
0.15061
-0.0578767
-0.295894
-0.569852
-0.107591
-0.284395
-0.507621
-0.754724
-1.02059
-0.490655
-0.671049
-0.901758
-1.1463
-1.35611
-0.748099
-0.938328
-1.15632
-1.38383
-1.52478
1.92609
1.95293
1.975
1.98196
1.97167
1.71505
1.73108
1.74025
1.73138
1.70045
1.48885
1.47043
1.42716
1.35976
1.26436
1.22541
1.18615
1.1086
0.998524
0.857666
1.0003
0.884943
0.736766
0.568032
0.363717
1.7275
1.71841
1.69455
1.76323
1.82706
1.71609
1.7062
1.67152
1.73806
1.72516
1.70578
1.69133
1.64638
1.7001
1.5975
1.69667
1.67473
1.61956
1.64819
1.41664
1.6888
1.65681
1.59161
1.59689
1.22386
1.68261
1.6307
1.55717
1.48817
1.01141
1.67621
1.60033
1.54144
1.36698
1.14987
1.68541
1.58248
1.51844
1.32347
1.17878
1.67629
1.55341
1.50575
1.26612
1.2015
1.71456
1.55187
1.4977
1.23405
1.22559
0.729594
0.410964
0.0590143
-0.255278
-0.457226
0.61691
0.388914
0.151823
-0.0597071
-0.238712
0.604206
0.421259
0.242448
0.0813095
-0.0779591
0.680969
0.500594
0.327885
0.173821
0.0292883
0.715358
0.531941
0.364933
0.218274
0.0815645
-0.847605
-0.740463
-0.60174
-0.489385
-0.422229
-0.914472
-0.859576
-0.755142
-0.671167
-0.620927
-0.853561
-0.809797
-0.751201
-0.702269
-0.670629
-0.729967
-0.696366
-0.659711
-0.630919
-0.609102
-0.640892
-0.62235
-0.60215
-0.587969
-0.600398
-0.595332
-0.588493
-0.575277
-0.573772
-0.545668
-0.584581
-0.582416
-0.57545
-0.570302
-0.558145
-0.620518
-0.64728
-0.700599
-0.764216
-0.830013
-0.445395
-0.453843
-0.482913
-0.523838
-0.532166
-0.420266
-0.529796
-0.755203
-1.00578
-1.14001
-0.628423
0.746064
0.191078
0.126608
-0.024802
-0.540865
0.8309
0.119398
0.129395
-0.0416765
-0.382103
0.909669
0.0642903
0.14012
-0.0452237
-0.307231
0.672384
0.0676064
0.156001
-0.0385021
-0.617693
0.0833197
0.071075
0.159135
-0.0228271
-0.181491
0.51958
0.176361
0.126575
0.0168326
-0.514654
0.585494
0.239138
0.140739
0.00304978
-0.382556
-0.607041
-0.622654
-0.614655
-0.398513
-0.39946
-0.603079
-0.648537
-0.605032
-0.614534
1.71167
1.69791
1.66948
1.62778
1.57248
1.86975
1.89232
1.90261
1.89905
1.8821
1.99823
2.03216
2.0603
2.07788
2.08213
2.06163
2.09971
2.13976
2.17237
2.18782
2.03526
2.06928
2.10633
2.13624
2.14887
-0.0456212
-0.131569
-0.265373
-0.429861
-0.602226
0.454304
0.343078
0.193729
0.015816
-0.194155
0.901611
0.785133
0.646387
0.48458
0.293232
1.25582
1.16742
1.05971
0.930476
0.77939
1.53795
1.47895
1.4021
1.31029
1.20416
1.79582
1.75514
1.7485
1.7716
1.80731
1.77963
1.75066
1.74477
1.78179
1.85132
1.76553
1.74488
1.73924
1.79343
1.90561
1.75215
1.7378
1.72874
1.79337
1.90527
1.73942
1.72927
1.7133
1.78368
1.88258
1.85391
1.76469
1.74268
1.70884
1.69316
1.80725
1.75394
1.73585
1.72495
1.70946
1.44172
1.26704
0.952731
0.489686
-0.0197604
1.50671
1.29091
0.965742
0.507286
-0.012633
)
;

boundaryField
{
    left
    {
        type            zeroGradient;
    }
    right
    {
        type            fixedValue;
        value           uniform 0;
    }
    down
    {
        type            zeroGradient;
    }
    up
    {
        type            zeroGradient;
    }
    cylinder
    {
        type            zeroGradient;
    }
    defaultFaces
    {
        type            empty;
    }
}


// ************************************************************************* //
