/*--------------------------------*- C++ -*----------------------------------*\
  =========                 |
  \\      /  F ield         | OpenFOAM: The Open Source CFD Toolbox
   \\    /   O peration     | Website:  https://openfoam.org
    \\  /    A nd           | Version:  13
     \\/     M anipulation  |
\*---------------------------------------------------------------------------*/
FoamFile
{
    format      ascii;
    class       surfaceScalarField;
    location    "80";
    object      phi;
}
// * * * * * * * * * * * * * * * * * * * * * * * * * * * * * * * * * * * * * //

dimensions      [0 3 -1 0 0 0 0];

internalField   nonuniform List<scalar> 
823
(
-0.0007208
0.0157676
-0.0150467
0.0253244
0.000694619
-0.0267398
0.0994981
-0.0566342
-0.0175395
0.210982
-0.128138
0.0166546
-0.183243
0.029418
0.364806
0.00838181
0.00738573
0.0695431
-0.0604666
0.179006
-0.166097
0.30477
-0.253902
-0.328084
0.449611
0.0291678
-0.0217821
0.12851
-0.159808
0.245426
-0.283013
0.348586
-0.357063
-0.393959
0.414461
0.0527656
-0.0745477
0.152473
-0.259516
0.228654
-0.359193
0.267976
-0.396385
-0.405629
0.279646
0.0625023
-0.13705
0.128244
-0.325258
0.160942
-0.391892
0.172528
-0.407971
0.180357
-0.413457
0.0134576
0.102583
-0.11604
0.0102424
0.168958
-0.165743
0.00609927
0.176424
-0.172281
0.00736377
0.158348
-0.159613
0.130908
0.0180769
-0.141621
0.0462733
0.0563094
0.0945134
0.120718
0.13089
0.140047
0.15949
0.129749
0.108534
0.181863
0.0317771
0.0245323
0.0821253
0.0703696
0.129918
0.0922546
0.169515
0.0901518
0.0824433
0.195606
0.0130949
0.0114374
0.0462421
0.0372223
0.0886999
0.0497968
0.135071
0.0437803
0.0391762
0.178339
-0.00360936
0.00687313
0.0391305
0.0995653
0.16816
0.03011
-0.177365
0.165332
0.228798
-1.88587
1.68718
0.514016
0.187131
-0.472349
0.415765
0.948127
-0.849876
-0.0691865
0.0872757
0.24224
-0.237742
0.278798
-1.92242
0.533469
-0.0675404
0.440827
1.04077
-0.069855
0.366199
-0.408335
0.387195
-1.94342
0.419452
-0.0997978
0.418522
1.0417
-0.139659
0.563874
-0.79387
0.541842
-1.92139
0.345215
0.0968286
0.440015
0.946899
-0.272392
0.473519
-1.09923
0.500448
-1.94832
0.394056
0.203221
0.523097
0.817858
-0.414871
1.28412
-1.06256
-1.32079
0.877512
-1.54171
0.713617
0.367116
1.02749
0.503983
-0.519555
1.25466
-0.853436
-1.46378
0.554848
-0.841901
0.567058
0.354906
1.09079
-0.0197458
-0.538592
1.18144
-0.661718
-1.37316
0.667107
-0.32757
0.787941
0.234072
1.12686
-0.358669
-0.430573
0.956411
-0.343006
-1.27512
0.704325
-0.0754838
0.91827
0.0201279
0.851029
-0.291428
-0.177321
0.46735
-0.810356
0.391866
0.411994
0.120566
1.13781
0.145878
-1.10333
1.23134
0.186111
1.33478
0.311028
1.4072
0.377194
0.451213
1.02221
0.0838364
-0.960171
1.10013
0.108198
1.20766
0.203496
1.33028
0.254569
0.317715
0.981413
0.0344954
-0.932072
1.02992
0.0596912
1.12067
0.112748
1.23552
0.139713
0.180082
0.933895
0.00349043
-0.90289
0.97767
0.0159167
1.05533
0.035087
1.15212
0.0429283
0.0570749
0.659349
-0.655859
0.675266
0.710353
0.753282
0.144964
0.308141
-0.251357
-0.201747
0.0972586
0.313164
-0.265459
0.0554051
0.323925
-0.282072
0.0197323
0.315983
-0.28031
0.204765
-0.185033
0.105883
0.344411
-0.142154
0.0690152
0.350033
0.0358661
0.357074
0.00944706
0.342402
0.214212
0.0772405
0.382711
-0.115541
0.0433793
0.383894
0.0139641
0.38649
-0.00388881
0.360255
0.210323
-0.00122426
0.398578
-0.0146426
-0.0200374
0.402707
-0.0304407
0.396893
-0.0251664
0.35498
0.185157
-0.0775665
0.0626874
-0.082831
-0.0778298
-0.0481071
0.196982
0.112348
-0.250379
-0.0589502
0.143015
0.116828
-0.0628618
0.0883262
0.12157
-0.0668808
0.0357578
0.12107
-0.0685016
0.0855887
-0.0498309
0.194447
0.154614
-0.236714
0.14866
0.162615
0.0967729
0.173457
0.0411533
0.17669
0.126742
0.135831
0.20016
-0.181376
0.0948289
0.203617
0.0562791
0.212007
0.0202603
0.212708
0.147002
0.15561
0.231773
-0.187223
0.116415
0.242812
0.0718332
0.256589
0.0281963
0.256345
0.175199
0.0819289
-0.101514
0.0592817
0.0337988
0.00983438
0.408996
0.0500938
-0.0631098
0.422172
0.0671029
-0.0802798
0.408036
0.19976
-0.185624
0.39568
0.233149
-0.220793
0.51842
-0.373119
0.406699
0.0393747
0.414922
0.0588798
0.3985
0.216182
0.382248
0.249402
0.663954
0.399535
0.0358197
0.408101
0.050313
0.376058
0.248225
0.373937
0.251523
0.856515
0.394588
0.0372115
0.391182
0.0537185
0.369567
0.26984
0.350336
0.270754
1.01963
0.384114
0.0490774
0.380259
0.057573
0.339909
0.310191
0.323968
0.286695
1.24208
0.613752
0.0393462
0.637842
0.0334825
0.701178
0.246855
0.792228
0.195644
1.01793
1.01638
0.619522
0.0238449
0.639094
0.0139107
0.76063
0.125319
0.790653
0.165622
0.80512
1.00347
0.627624
0.000241123
0.673434
-0.0318996
0.768273
0.0304802
0.780159
0.153735
0.558679
1.0266
0.64424
-0.0399783
0.671396
-0.0590554
0.700113
0.00176271
0.771085
0.082764
0.261981
1.06778
0.564042
0.504987
0.506749
0.589513
0.851494
1.05073
-0.236106
1.03752
-0.12894
1.04898
-0.126996
1.04423
-0.00989841
0.00358752
0.950664
-0.183303
0.938148
-0.116424
0.922451
-0.111299
0.938831
-0.0262783
-0.0177523
0.96557
-0.122273
0.947696
-0.0985506
0.918437
-0.0820398
0.930732
-0.0385726
-0.0190921
1.00175
-0.0562434
0.954692
-0.051489
0.91575
-0.043098
0.905667
-0.0284896
-0.0163149
0.795251
0.743762
0.700664
0.672174
0.0463594
0.137515
-0.183874
0.0709447
0.306063
-0.330648
0.072008
0.360742
-0.361805
0.0623009
0.364577
-0.35487
0.333737
0.0498544
-0.32129
0.0665497
0.0709653
0.136986
0.235627
0.171521
0.326207
0.176081
0.360017
0.353422
0.156395
0.0553056
0.0156597
0.164334
0.126598
0.256872
0.233669
0.321453
0.295436
0.346903
0.327972
0.0261087
-0.010449
0.119245
0.0334621
0.237216
0.115698
0.353876
0.178777
0.248456
0.452323
0.00539808
-0.0158471
0.0511559
-0.0122958
0.145823
0.0210311
0.263313
0.0612864
0.10743
0.404339
-0.00299967
-0.0128474
0.00793542
-0.0232309
0.0492262
-0.0202596
0.116797
-0.0062846
0.0244565
0.199771
-0.000203959
-0.0126435
0.00232962
-0.0257645
0.0125061
-0.0304361
0.0343523
-0.0281307
-0.0162719
0.0750807
0.00569261
-0.0183361
0.00965209
-0.0297239
0.00567927
-0.0264633
-0.00266587
-0.0197856
-0.0175656
-0.00137214
-0.0443581
0.0260221
-0.114611
0.040529
-0.198067
0.0569925
-0.285462
0.0676093
0.0617837
-0.364811
-0.0900183
-0.215232
-0.330521
-0.422524
-0.502361
0.31439
0.8661
-0.980719
0.451654
-0.0371707
-0.100092
0.267259
0.517316
-0.332921
0.125251
0.224773
-0.0827646
-0.265438
0.246642
0.319534
0.621646
0.495242
-0.212879
0.379969
0.632589
0.223805
0.380937
-0.238154
0.170212
0.450062
0.494164
-0.536831
0.470269
0.656483
0.305626
0.54558
-0.18925
-0.0850146
0.170266
0.510222
-1.13207
0.529455
0.637251
0.367453
0.707582
-0.135875
-0.166763
0.388347
0.553249
0.410954
-0.0289256
0.61134
-0.582415
-0.0416
0.0126744
-0.0442504
0.00265045
0.020565
-0.0648154
-0.127179
0.656651
-1.02603
0.569233
0.238962
0.0913823
0.0813851
-0.0135102
-0.0678749
0.132214
-0.0508292
0.237693
-0.105479
0.387069
-0.149376
-0.195346
0.18603
-0.149686
0.291596
0.514089
0.817037
0.136305
-0.129589
0.159339
-0.166055
0.103452
-0.134467
0.16732
0.0662401
-0.140918
0.17813
0.0266851
-0.140007
0.179562
-0.0971423
0.123827
0.174962
-0.0911283
-0.213423
0.132139
-0.091644
0.0839789
-0.0927579
0.0345472
-0.0905754
-0.0625951
0.18527
-0.042635
-0.233763
0.135246
-0.0416206
0.0838736
-0.0413851
0.033968
-0.0406699
-0.028627
0.199141
0.0084119
-0.250188
0.147358
0.0101617
0.0938998
0.0120734
0.0394409
0.013789
0.0108138
0.201237
-0.251775
0.148537
0.0937296
0.039017
0.0364413
-0.302072
-0.0556602
0.0132344
-0.331663
-0.0076216
-0.340949
-0.015457
-0.322813
-0.199331
0.114929
-0.273042
-0.143959
0.0744329
-0.291167
0.0354439
-0.30196
0.00657484
-0.293944
-0.192757
0.132533
-0.235623
-0.169951
0.0930868
-0.251721
0.0540315
-0.262905
0.0188345
-0.258747
-0.173922
0.150479
-0.202586
-0.183516
0.109907
-0.211149
0.0665226
-0.21952
0.0258034
-0.218028
-0.148119
0.147976
-0.191223
0.104147
0.0627569
0.0242914
0.390624
0.102453
-0.0970971
0.386538
0.1124
-0.108313
0.352998
0.163281
-0.129742
0.293055
0.0833243
-0.0233812
-0.173302
0.300301
0.398973
0.0994591
0.401967
0.109406
0.39239
0.172858
0.342422
0.133292
-0.0443026
0.404379
0.09106
0.412496
0.101289
0.408066
0.177288
0.369093
0.172266
0.091027
0.408974
0.0780654
0.418913
0.0913506
0.416309
0.179891
0.388722
0.199853
0.229562
0.410935
0.422006
0.416273
0.395333
0.413969
0.0960823
0.324588
0.0893806
0.233772
0.0908166
0.228432
0.00533991
-0.165479
0.39391
0.509036
0.490104
0.451178
0.433137
0.56796
0.316248
0.0776623
0.246224
0.0700246
0.163665
0.0825581
0.0948878
0.0687776
0.0270129
0.454399
0.340908
0.253515
0.178333
)
;

boundaryField
{
    left
    {
        type            calculated;
        value           nonuniform List<scalar> 
17
(
-0.60402
-0.60402
-0.60402
-0.60402
-0.60402
-0.39598
-0.39598
-0.39598
-0.39598
-0.39598
-0.39598
-0.39598
-0.39598
-0.39598
-0.39598
-0.510051
-0.510051
)
;
    }
    right
    {
        type            calculated;
        value           nonuniform List<scalar> 
17
(
0.147744
0.210845
0.144047
0.196521
0.256722
0.314078
0.362355
0.397676
0.441496
0.488326
0.572748
0.665576
1.13218
1.10982
1.01884
0.597778
-0.0567552
)
;
    }
    down
    {
        type            calculated;
        value           uniform 0;
    }
    up
    {
        type            calculated;
        value           uniform 0;
    }
    cylinder
    {
        type            calculated;
        value           uniform 0;
    }
    defaultFaces
    {
        type            empty;
    }
}


// ************************************************************************* //
