/*--------------------------------*- C++ -*----------------------------------*\
  =========                 |
  \\      /  F ield         | OpenFOAM: The Open Source CFD Toolbox
   \\    /   O peration     | Website:  https://openfoam.org
    \\  /    A nd           | Version:  13
     \\/     M anipulation  |
\*---------------------------------------------------------------------------*/
FoamFile
{
    format      ascii;
    class       volVectorField;
    location    "80";
    object      U;
}
// * * * * * * * * * * * * * * * * * * * * * * * * * * * * * * * * * * * * * //

dimensions      [0 1 -1 0 0 0 0];

internalField   nonuniform List<vector> 
440
(
(-0.086636 0.062232 -7.80296e-20)
(-0.0919358 0.0877913 5.28734e-20)
(0.115871 0.0659021 7.50082e-20)
(0.587164 0.0535508 1.82305e-19)
(0.772859 0.0773259 1.96126e-20)
(-0.0845455 0.0461516 4.29438e-20)
(0.135883 -0.0113498 -1.54333e-19)
(0.74116 -0.0744407 -1.27011e-19)
(1.3465 -0.120399 5.50571e-20)
(1.94253 -0.151304 -1.66604e-21)
(0.00889365 -0.0090332 5.29369e-20)
(0.687441 -0.0757506 9.3863e-19)
(1.54398 -0.084161 -6.16231e-19)
(2.15828 -0.0658907 -1.84975e-18)
(2.58574 -0.0720906 7.97524e-19)
(0.268947 -0.0595625 -1.86396e-19)
(1.42116 -0.0124979 -6.9577e-19)
(2.19351 0.0370934 2.22968e-18)
(2.54729 0.0532352 2.46274e-18)
(2.57848 0.0562615 -6.72356e-19)
(0.681878 -0.000313756 -3.42626e-19)
(1.92841 0.176091 -7.50115e-19)
(2.43044 0.229617 2.30347e-18)
(2.54678 0.228892 2.39025e-18)
(2.62952 0.198329 7.95561e-19)
(-0.0159009 0.823953 5.50744e-19)
(-0.0548423 1.19543 9.6103e-19)
(-0.0837189 1.20586 -2.44321e-18)
(-0.0702204 1.10187 4.66527e-19)
(-0.0686357 0.969551 3.07814e-18)
(-0.0621992 0.527984 -4.75723e-20)
(-0.0150903 1.01423 -2.71534e-19)
(0.0398833 1.11913 -5.36101e-20)
(0.142981 1.03056 -6.71664e-20)
(0.164814 0.841892 1.32093e-19)
(-0.0613484 0.212863 1.40965e-19)
(-0.059852 0.603123 -2.41973e-19)
(-0.0129666 0.778716 1.17723e-19)
(0.0999157 0.784655 -2.70388e-19)
(0.143454 0.702022 1.08303e-20)
(-0.0395979 0.0745227 -4.98751e-20)
(-0.0854782 0.294422 1.01946e-19)
(-0.0625133 0.448909 1.45139e-20)
(0.0275758 0.509559 -5.01226e-20)
(0.0767161 0.530889 -1.63352e-20)
(-0.0557923 0.0493686 -5.90587e-20)
(-0.134892 0.145629 -8.43046e-20)
(-0.122131 0.216507 -1.80918e-19)
(0.019889 0.233685 1.04721e-19)
(0.155674 0.278697 -3.73993e-20)
(0.631091 -0.141231 -2.36848e-18)
(-0.399963 -1.25237 1.21316e-18)
(1.51045 0.283673 -7.12386e-19)
(0.985602 0.634726 -1.83878e-19)
(1.00474 -0.0562712 3.70181e-20)
(1.41582 -0.0981672 9.72738e-19)
(0.0787384 -1.2787 -1.47869e-19)
(1.4834 -0.0145375 7.35342e-21)
(1.00945 0.670054 2.57596e-19)
(1.1152 -0.0440552 1.93059e-21)
(1.14007 -0.233537 -2.39677e-19)
(1.2902 -1.31185 7.32594e-19)
(1.07446 -0.0950297 -4.62168e-20)
(0.798677 0.708912 7.36855e-20)
(1.23347 -0.0778628 -6.65175e-21)
(1.3011 -0.338015 2.83598e-19)
(2.603 -1.29685 -3.80699e-19)
(0.825948 -0.06188 -4.70272e-19)
(0.704633 0.649536 2.61172e-19)
(1.44708 -0.151298 2.45635e-19)
(1.62887 -0.695352 -2.0573e-19)
(2.53317 -1.27883 -3.48296e-19)
(0.890828 0.144505 0)
(0.919183 0.584723 -2.91266e-19)
(1.68175 -0.221155 1.48823e-20)
(2.25233 -0.607621 -5.72208e-19)
(2.03218 -1.09853 1.12482e-19)
(0.896432 0.0938278 -1.68515e-20)
(1.42752 0.412053 -1.55975e-19)
(1.87535 -0.300562 2.22653e-19)
(2.67739 -0.661213 5.35783e-20)
(1.56079 -0.744943 9.48349e-19)
(0.226773 0.346201 -6.6583e-21)
(1.69535 0.202544 5.33618e-20)
(1.83787 -0.322103 0)
(2.3029 -0.44741 -5.47091e-19)
(1.69702 -0.301615 1.56016e-20)
(0.532278 0.138176 2.51325e-19)
(2.02946 -0.231126 1.90411e-20)
(1.68703 -0.358995 1.82928e-20)
(2.04764 -0.363044 4.75072e-20)
(1.16848 -0.129355 2.71128e-20)
(1.20887 0.12829 -8.67657e-21)
(1.77895 -0.233809 4.29247e-34)
(0.990009 -0.196545 -2.98366e-20)
(1.05569 -0.0521351 1.35851e-19)
(0.480395 0.0269464 -3.08402e-20)
(0.864282 -0.0979145 -7.09776e-20)
(0.469293 -0.104687 4.75541e-20)
(-0.0936046 -0.0129294 -2.23189e-20)
(2.46891 0.214252 -9.65829e-19)
(2.69044 -0.0392733 -1.2751e-18)
(2.54247 0.0246408 9.96104e-19)
(2.84464 -0.241216 5.79398e-20)
(2.27125 -0.0252718 -2.27233e-20)
(2.13402 0.146413 5.25274e-20)
(2.43116 -0.0976354 -4.20189e-20)
(2.26443 -0.0227387 -1.4704e-19)
(2.54967 -0.255245 -2.35515e-19)
(2.36317 -0.250128 -7.888e-21)
(2.11977 0.0377354 6.96688e-20)
(2.24093 -0.0686723 1.11641e-19)
(2.19842 -0.0929626 -1.63575e-19)
(2.2738 -0.182919 5.35523e-20)
(2.26999 -0.238534 4.06488e-20)
(2.0878 -0.0153276 1.12833e-19)
(2.07503 -0.0736404 1.10788e-19)
(2.12685 -0.0823382 -1.74081e-20)
(2.09342 -0.145114 1.28144e-20)
(2.13804 -0.158225 2.25886e-20)
(1.51538 -0.0272066 1.59023e-19)
(1.42126 -0.0241066 -1.26531e-20)
(1.48119 -0.0431206 2.62578e-20)
(1.35253 -0.0342158 -7.09437e-21)
(1.42314 -0.0663077 4.11834e-20)
(1.599 0.835685 1.18357e-18)
(1.55353 0.939761 -3.90675e-19)
(1.55983 1.07896 -1.43469e-18)
(1.49216 1.13074 7.73237e-19)
(0.914579 0.814853 -1.77261e-19)
(1.90512 0.814262 -6.07962e-19)
(1.86936 0.889701 -3.18237e-18)
(1.87162 0.994733 -1.22504e-18)
(1.7866 1.0115 -4.31027e-19)
(1.09613 0.7183 -7.08293e-19)
(2.20374 0.662486 8.11366e-19)
(2.19116 0.740199 2.09392e-19)
(2.17277 0.837797 -2.40808e-18)
(2.04243 0.829182 -6.94232e-19)
(1.22098 0.563917 5.24076e-19)
(2.40125 0.550755 2.44887e-18)
(2.38047 0.60075 1.81485e-18)
(2.37658 0.657777 -2.11878e-18)
(2.17853 0.623559 -1.63319e-18)
(1.21622 0.377534 -3.1043e-19)
(2.53274 0.371571 1.26298e-18)
(2.56433 0.402222 -9.05218e-19)
(2.48349 0.436093 6.42018e-19)
(2.16004 0.391697 5.31653e-19)
(1.05182 0.174805 -4.68045e-19)
(0.572129 0.510505 -6.04735e-19)
(0.479238 0.547722 -4.39718e-19)
(0.360418 0.583333 4.30571e-20)
(0.225081 0.584133 6.1253e-21)
(0.0557893 0.417246 9.21635e-20)
(0.688175 0.670583 1.24548e-19)
(0.626531 0.730374 -2.79325e-19)
(0.539317 0.798132 1.88192e-19)
(0.413198 0.856632 -8.79793e-20)
(0.18146 0.650569 1.24322e-19)
(0.778982 0.87222 8.4251e-20)
(0.706109 0.957417 5.00399e-19)
(0.654565 1.05629 1.34945e-19)
(0.57364 1.09088 -3.27586e-19)
(0.315683 0.799176 2.78443e-19)
(1.0706 0.927088 2.53426e-19)
(1.02086 1.00799 -7.80239e-19)
(0.971755 1.10933 -2.05044e-18)
(0.892869 1.1801 8.13918e-19)
(0.526736 0.875055 -1.63606e-19)
(1.13535 0.98843 -1.01321e-19)
(1.17654 1.10973 -1.79493e-19)
(1.20201 1.21985 -3.96993e-19)
(1.14888 1.23565 -4.44552e-19)
(0.705911 0.880103 -6.98027e-21)
(1.02195 0.0425654 -1.0143e-19)
(0.998013 0.0527867 -3.33708e-20)
(1.03021 0.138299 -1.40618e-21)
(0.944638 0.156001 -2.65008e-19)
(0.902293 0.318265 3.1163e-19)
(1.01341 0.0379822 6.41783e-20)
(1.01187 0.0527774 1.21723e-19)
(1.0137 0.14752 1.37936e-19)
(0.99009 0.182438 3.8042e-20)
(0.935514 0.394614 -2.34284e-20)
(1.02363 0.0358701 8.75067e-20)
(0.989131 0.0467589 -4.64034e-21)
(1.0614 0.168312 -6.30963e-21)
(0.935733 0.175857 1.51421e-19)
(1.17417 0.54582 -5.06154e-19)
(1.02258 0.0344432 -2.3996e-22)
(0.996683 0.0420735 -1.68503e-19)
(1.05159 0.184483 -6.94548e-20)
(1.05371 0.174391 -3.79278e-19)
(1.16394 0.596175 9.60213e-20)
(1.02427 0.0292516 -1.47735e-20)
(0.981006 0.044368 4.62206e-20)
(1.11301 0.179501 3.23223e-20)
(1.01578 0.204751 4.6958e-19)
(1.41948 0.728112 -4.86679e-19)
(0.995931 0.0345788 -1.2209e-20)
(1.02048 0.0196808 9.58004e-20)
(1.09701 0.208091 -7.37112e-20)
(1.27789 0.112549 9.87443e-19)
(1.3148 0.783567 -3.67619e-19)
(0.94438 0.0121964 -1.22014e-21)
(1.08177 0.0199998 -8.57663e-20)
(1.06199 0.108342 5.64662e-21)
(1.45266 0.11878 -2.92969e-19)
(1.24587 0.55788 -7.33099e-20)
(0.961711 0.0203966 -1.54703e-21)
(1.0855 -0.000923403 1.50722e-35)
(1.17611 0.0431744 -4.10443e-20)
(1.33722 0.100188 8.79982e-20)
(1.33703 0.417297 1.88019e-19)
(1.03131 -0.0206375 3.65687e-21)
(1.06486 -0.0425082 -2.70107e-20)
(1.19836 -0.00378936 2.0336e-20)
(1.07336 0.0836827 2.15367e-20)
(1.57482 0.27628 -2.78887e-19)
(0.963401 -0.0229525 -4.04786e-20)
(0.863872 -0.027204 -8.91605e-22)
(0.84626 0.0055848 2.95962e-20)
(0.786149 0.0158002 -1.86403e-20)
(1.25198 0.0586112 -6.46406e-20)
(1.85461 0.596231 2.92154e-19)
(1.92668 0.647327 7.57106e-19)
(2.21065 0.479268 -1.1054e-18)
(2.26105 0.46902 2.31312e-20)
(2.49611 0.235918 4.96446e-19)
(1.72279 0.355983 8.96009e-20)
(1.74234 0.414781 1.03317e-18)
(1.99377 0.263277 1.23453e-19)
(1.96407 0.300762 -9.15973e-19)
(2.24225 0.0795718 -2.8619e-19)
(1.72446 0.289661 -2.3417e-19)
(1.81583 0.264764 -1.53493e-19)
(1.96365 0.182799 2.2506e-19)
(1.99604 0.15836 -2.91358e-19)
(2.14074 0.0512964 2.64724e-19)
(1.76145 0.154995 4.18033e-19)
(1.8847 0.124228 -1.62588e-21)
(1.92113 0.0729654 2.29438e-19)
(2.0114 0.0533716 1.86674e-19)
(2.01987 -0.00362841 -1.79009e-19)
(1.40551 0.0264068 -5.17568e-20)
(1.4902 0.0109375 2.62055e-19)
(1.47754 0.00218889 1.11023e-19)
(1.52595 -0.00965961 -2.13801e-19)
(1.46343 -0.0139887 5.68992e-22)
(1.07418 -0.0155327 5.82715e-20)
(2.05314 -0.042501 -3.91562e-19)
(2.28667 -0.0317913 1.09593e-18)
(2.27194 0.00566499 4.89824e-19)
(2.10965 0.0318677 -3.41487e-19)
(0.676107 0.093331 1.09483e-19)
(1.83524 0.087786 -4.07492e-19)
(2.291 0.091013 -5.53028e-19)
(2.34505 0.0989823 6.85987e-19)
(2.10334 0.0862192 -4.44831e-19)
(0.22215 0.0783247 -1.50636e-20)
(1.23432 0.147946 4.36682e-19)
(1.95327 0.1701 5.9878e-20)
(2.33286 0.161675 4.42036e-19)
(2.47345 0.156121 2.10997e-19)
(-0.0198684 -0.0119482 1.73304e-19)
(0.46329 0.0861273 1.77401e-19)
(1.21252 0.156894 -4.09904e-19)
(1.69027 0.191716 2.62048e-20)
(2.25974 0.219662 1.02338e-19)
(-0.081305 -0.0657782 1.10009e-19)
(0.0197243 -0.0350403 -1.33803e-19)
(0.431777 0.0403013 -4.36922e-20)
(0.884011 0.072383 2.38445e-20)
(1.28111 0.135453 -2.04433e-20)
(-0.0648447 -0.0682471 6.79423e-21)
(-0.10196 -0.100677 6.16725e-20)
(-0.000285622 -0.0942454 5.39343e-20)
(0.186704 -0.0562857 -1.35382e-19)
(0.535479 8.51046e-05 2.63536e-21)
(-0.0379846 -0.0612375 5.53284e-21)
(-0.0802515 -0.12871 -3.08262e-20)
(-0.0769716 -0.155059 -5.30433e-20)
(-0.0322071 -0.137496 1.08827e-19)
(0.102648 -0.0623469 8.57844e-20)
(-0.033517 -0.103401 -1.80264e-20)
(-0.0552932 -0.199163 -7.91087e-19)
(-0.0712651 -0.242732 6.39114e-19)
(-0.0996823 -0.242826 1.8092e-18)
(-0.108254 -0.213386 -3.08138e-19)
(-0.0569529 -0.0767072 9.87263e-21)
(-0.239689 -0.04714 1.72396e-19)
(-0.407452 0.10952 -5.09322e-19)
(-0.585755 0.265799 -4.91831e-19)
(-0.710974 0.311663 -7.78845e-20)
(-0.0615217 0.476149 -8.813e-20)
(-0.400865 0.710372 3.69951e-19)
(-0.719651 0.798916 -1.69533e-19)
(-0.939647 0.764534 2.1732e-19)
(-0.992322 0.649422 1.29405e-18)
(1.24742 0.631398 1.54507e-20)
(1.17194 0.0151781 1.15724e-18)
(1.33756 0.276975 1.36737e-19)
(0.256582 0.103892 5.1116e-20)
(0.364191 -0.176973 -1.33999e-20)
(1.09457 0.537405 1.53839e-19)
(0.986989 -0.05459 -6.21773e-19)
(1.56351 0.406371 5.33692e-19)
(0.611491 0.199672 3.94283e-21)
(0.496846 -0.164217 3.26809e-20)
(0.35212 0.3307 5.33785e-19)
(0.629982 -0.182936 8.70612e-19)
(1.7289 0.462506 -8.82189e-20)
(0.85103 0.325939 1.2824e-19)
(0.648944 -0.13945 8.07732e-23)
(-0.910085 0.323615 5.19957e-19)
(0.510739 -0.532959 -7.23128e-18)
(1.79098 0.493103 -2.31593e-20)
(0.990937 0.443926 -1.33734e-21)
(0.793793 -0.104707 3.10977e-20)
(-0.81684 -0.12606 4.74534e-19)
(-0.00713611 -1.13553 -1.13906e-18)
(1.73041 0.360796 -2.55246e-19)
(1.06179 0.547738 8.35915e-21)
(0.915612 -0.0673925 7.43575e-20)
(0.150103 0.167062 -1.13724e-19)
(-0.241183 -0.136613 0)
(0.0517893 -0.0878979 2.69656e-20)
(-0.213327 -0.0469113 2.01516e-20)
(0.289823 -0.028569 -8.09311e-21)
(1.59489 0.531331 0)
(1.10804 0.150649 0)
(1.01802 0.093749 -3.98692e-20)
(-0.0619513 -0.0276443 8.35314e-22)
(0.41366 -0.132526 5.92174e-20)
(0.673781 0.000678931 -1.16475e-19)
(0.692322 -0.0045471 1.59472e-19)
(0.927361 -0.00326359 -5.23269e-20)
(0.896186 0.0101604 2.83709e-19)
(1.3138 0.0790676 2.05056e-19)
(1.52948 0.0238758 1.09798e-19)
(1.64266 0.0653557 2.3454e-19)
(1.84055 0.0395012 -3.76099e-19)
(2.34384 0.189029 4.99848e-21)
(2.11253 0.114665 1.7661e-19)
(0.859446 -0.441929 -3.59762e-20)
(0.843092 -0.525328 -1.39849e-19)
(0.829292 -0.615721 -8.933e-20)
(0.756443 -0.677218 5.54892e-20)
(0.455533 -0.525837 1.15381e-19)
(0.75997 -0.343066 1.27137e-19)
(0.705114 -0.403964 2.70073e-19)
(0.633033 -0.470385 -2.58722e-20)
(0.522574 -0.5255 1.2536e-19)
(0.280978 -0.415788 5.13298e-20)
(0.625031 -0.200781 -1.59107e-19)
(0.538502 -0.236041 -4.6531e-20)
(0.43676 -0.279859 1.42363e-19)
(0.317362 -0.319192 -5.64574e-21)
(0.135877 -0.256896 -1.05838e-19)
(0.535311 0.0311859 -4.31743e-19)
(0.448847 0.019892 -3.58089e-19)
(0.338274 0.000714461 2.80616e-19)
(0.211302 -0.0278551 1.79644e-19)
(0.0526357 -0.0447496 1.35317e-20)
(0.514533 0.238137 -1.70878e-19)
(0.42805 0.244162 -1.70147e-19)
(0.31197 0.250725 -7.70178e-20)
(0.176669 0.259566 1.34654e-20)
(0.023365 0.19138 1.06299e-20)
(1.88486 -0.0399942 7.17566e-19)
(2.13763 -0.100971 2.42884e-19)
(2.20855 -0.178435 -6.46543e-19)
(2.05683 -0.20464 -1.30329e-18)
(1.22036 -0.169662 1.09781e-19)
(1.86221 -0.117113 1.19257e-18)
(1.95249 -0.221275 1.58451e-18)
(1.9714 -0.335065 1.32124e-19)
(1.88631 -0.389235 2.31961e-19)
(1.19226 -0.32823 -1.52496e-19)
(1.59756 -0.269178 -3.09026e-18)
(1.66268 -0.379932 3.47208e-19)
(1.70553 -0.495869 9.68305e-19)
(1.63876 -0.562045 -3.57558e-19)
(1.051 -0.462629 5.61723e-19)
(1.39902 -0.383969 7.32986e-19)
(1.41793 -0.476515 -1.94093e-18)
(1.40579 -0.586151 -2.21683e-18)
(1.33496 -0.662625 6.67051e-19)
(0.852596 -0.533302 4.586e-19)
(1.1347 -0.43657 1.46796e-19)
(1.09584 -0.524409 2.19695e-19)
(1.08512 -0.636538 -3.3186e-19)
(1.02655 -0.712203 -3.99313e-19)
(0.644465 -0.556753 -3.67681e-21)
(1.07553 0.0548465 7.80257e-21)
(0.922776 0.0642499 -4.73769e-21)
(1.1072 0.085079 -3.19059e-21)
(0.795571 0.0210628 -1.97599e-19)
(1.03859 -0.181199 -9.59809e-21)
(1.08461 0.0569811 -2.56457e-21)
(0.921514 0.0634624 4.76754e-20)
(1.10704 0.103144 -4.49302e-20)
(0.882267 0.0687301 1.19968e-19)
(0.946607 -0.0661166 -1.83847e-20)
(1.08218 0.0527091 -6.28303e-20)
(0.925989 0.0615491 3.25993e-22)
(1.09551 0.105517 -2.17183e-20)
(0.885207 0.0950101 3.50528e-20)
(0.9265 -0.00480334 -1.66696e-19)
(1.06186 0.0501184 7.66308e-20)
(0.954939 0.0581386 3.43389e-21)
(1.06127 0.11381 3.52632e-20)
(0.921517 0.119427 1.09122e-20)
(0.851223 0.106317 1.07154e-19)
(1.0357 0.0454428 1.94336e-20)
(0.987615 0.0577752 -2.88668e-20)
(1.02955 0.120964 4.86234e-20)
(0.951136 0.146279 7.04235e-20)
(0.834745 0.207822 -1.18883e-19)
(0.892646 0.034085 0)
(0.702845 0.0286597 1.04745e-20)
(0.586419 0.0233612 3.83195e-21)
(0.321292 -0.00504666 3.86157e-20)
(0.611237 -0.0483173 -1.15101e-19)
(1.04189 0.0753123 -6.64193e-20)
(0.932417 0.0775877 -1.85275e-20)
(1.00604 0.0841549 -3.28727e-20)
(0.78152 0.010654 -1.06778e-19)
(0.967769 -0.169042 -1.24892e-19)
(0.841564 -0.0617857 -2.78831e-20)
(0.92285 -0.0291446 4.47001e-19)
(1.00196 0.0347943 2.72645e-19)
(0.88511 0.0472114 2.76485e-20)
(0.688826 0.0243988 0)
(1.19836 -0.293762 2.64416e-19)
(1.30481 -0.259824 1.28064e-18)
(1.46432 -0.14629 -1.42172e-18)
(1.55109 -0.02159 -4.37491e-19)
(1.45329 0.0222323 3.34199e-19)
)
;

boundaryField
{
    left
    {
        type            fixedValue;
        value           uniform (1 0 0);
    }
    right
    {
        type            zeroGradient;
    }
    down
    {
        type            noSlip;
    }
    up
    {
        type            noSlip;
    }
    cylinder
    {
        type            noSlip;
    }
    defaultFaces
    {
        type            empty;
    }
}


// ************************************************************************* //
