# Selection   : all
# Cells       : 440
# Volume      : 7.374263e+01
# Time        	maxMag(U)
7.515         	2.788226e+00
7.56          	2.790486e+00
7.61          	2.792414e+00
