# Selection   : all
# Cells       : 440
# Volume      : 7.374263e+01
# Time        	min(p)
3.3           	-1.662300e+00
3.35          	-1.645429e+00
3.4           	-1.638207e+00
