/*--------------------------------*- C++ -*----------------------------------*\
  =========                 |
  \\      /  F ield         | OpenFOAM: The Open Source CFD Toolbox
   \\    /   O peration     | Website:  https://openfoam.org
    \\  /    A nd           | Version:  13
     \\/     M anipulation  |
\*---------------------------------------------------------------------------*/
FoamFile
{
    format      ascii;
    class       volScalarField;
    location    "0.44";
    object      strainRateViscosityModel:nu;
}
// * * * * * * * * * * * * * * * * * * * * * * * * * * * * * * * * * * * * * //

dimensions      [0 2 -1 0 0 0 0];

internalField   nonuniform List<scalar> 
440
(
9.41959
8.96968
8.54438
8.04232
7.58631
9.68997
9.35816
8.98172
8.47999
7.87559
9.80075
9.53084
9.15876
8.58508
7.84827
9.84963
9.61818
9.25862
8.64757
7.86608
9.86917
9.65608
9.30593
8.68096
7.9088
1.29712
1.78902
2.04904
2.2996
2.36349
3.37758
3.30305
3.32048
3.43059
3.50145
5.89069
5.27208
4.93087
4.73301
4.76326
7.76971
6.99348
6.42101
5.90676
5.82986
8.8208
8.15126
7.55198
6.91858
6.87245
1.8509
0.839523
0.385663
0.10257
0.0373716
2.62254
0.917934
0.33546
0.0599245
0.0112376
3.51912
1.16648
0.287683
0.0379709
0.0104359
4.09544
1.45571
0.273244
0.0280335
0.0103723
4.60622
1.77307
0.331062
0.0150405
0.0186843
4.23223
1.75201
0.272012
0.029533
0.1848
3.70836
1.81486
0.580553
0.323022
0.456347
4.91715
3.20779
1.21854
0.575963
0.604949
7.00963
4.29122
1.90437
0.924734
0.769531
8.27287
5.0793
2.49449
1.34054
0.958188
2.84858
3.68312
4.6206
5.50688
6.15064
3.68371
3.69629
3.77154
3.85125
3.36708
8.22666
8.08669
7.7994
7.38529
6.34572
9.05294
8.99241
8.8591
8.62157
8.16026
9.60671
9.56995
9.48702
9.33804
9.11879
7.50372
8.01249
8.55932
9.01085
9.46429
7.79407
8.45154
8.98702
9.37785
9.70867
7.77896
8.55898
9.15938
9.54076
9.80945
7.81626
8.62754
9.25738
9.62275
9.85359
7.89135
8.67367
9.30536
9.65744
9.87034
2.51329
2.45456
2.25509
2.10136
2.02756
3.47504
3.42624
3.4642
3.68055
4.22464
4.64178
4.6634
5.04991
5.59563
6.44262
5.6898
5.83034
6.49916
7.18777
8.0397
6.7559
6.84352
7.58098
8.24291
8.93552
0.18168
0.0507461
0.249013
0.828364
2.00666
0.144355
0.0668617
0.200301
0.860515
2.65673
0.121227
0.0783886
0.163352
1.07935
3.45039
0.112075
0.07975
0.17057
1.40005
3.95441
0.125777
0.0940414
0.271434
1.75
4.37445
0.189826
0.13118
0.269805
1.87806
4.10883
0.321849
0.150349
0.239566
1.7795
3.85627
0.645374
0.303946
0.785479
3.03003
4.9043
2.26637
0.846267
1.51807
4.16085
6.96079
5.05256
2.56098
2.4369
5.04127
8.27896
5.95022
5.26865
4.404
3.51136
2.78028
3.52022
3.98906
3.96949
3.87555
3.76346
6.32034
7.35232
7.77926
8.06795
8.21867
8.12149
8.60012
8.84956
8.98869
9.05207
9.11687
9.33777
9.48739
9.5705
9.60696
9.31068
7.91652
1.39852
3.62977
7.73644
9.08161
7.4404
3.20567
1.64048
6.78863
8.3983
6.5772
4.2081
1.0034
4.14726
6.81504
5.09418
3.45486
1.7004
1.03853
4.50315
3.14492
2.03856
1.37768
0.459904
2.5965
1.61863
1.00233
0.796536
0.926215
1.4546
0.778641
0.578873
0.611875
0.684839
0.800231
0.403656
0.586853
0.755453
0.828923
0.305508
0.501366
0.87927
1.04392
1.10551
0.1585
0.931342
1.27576
1.51102
1.56506
0.19065
0.360008
0.698914
0.77119
0.749712
0.395177
0.495084
0.565544
0.623771
0.623625
0.610202
0.638169
0.44789
0.469783
0.485166
0.958327
0.782324
0.396607
0.318865
0.347273
1.32375
0.831173
0.396499
0.184494
0.187399
1.10541
0.857832
1.1165
1.11484
1.04212
0.283844
0.4713
0.85713
0.920594
0.878732
9.19095
8.83836
7.75833
5.72961
3.55917
8.58698
7.72249
5.85107
3.49104
0.865888
0.966026
0.860549
1.02831
1.62016
2.65774
0.816628
0.771135
0.707238
0.825511
1.52368
1.05983
1.01108
0.848137
0.553833
0.737123
1.37486
1.33756
1.14009
0.790938
0.223878
1.83611
1.78956
1.53903
1.22388
0.592524
7.73597
3.62668
1.39984
7.91475
9.31083
6.78477
1.64017
3.20244
7.43729
9.08224
4.13337
1.01087
4.19405
6.57255
8.39984
1.03598
1.7062
3.43314
5.08489
6.82148
0.476941
1.3771
2.01457
3.12672
4.52595
1.30403
0.563952
0.554615
0.457206
0.177603
0.667158
0.313397
0.466795
0.52287
0.489774
0.384169
0.191633
0.372662
0.62057
0.804891
0.278914
0.0680338
0.331081
0.760992
1.21393
0.23026
0.0341247
0.296899
0.82692
1.56767
5.47906
2.4684
1.04797
0.97349
1.14256
2.88317
1.10036
0.732913
0.562711
0.250271
3.56843
5.73542
7.75952
8.83889
9.1911
0.841993
3.47102
5.84433
7.72111
8.58683
)
;

boundaryField
{
    left
    {
        type            calculated;
        value           nonuniform List<scalar> 
17
(
0.431607
1.09452
2.17268
3.91018
6.57965
0.290183
0.181453
0.137078
0.140126
0.201733
2.95632
2.05334
1.31428
0.793633
0.482095
6.97812
4.57893
)
;
    }
    right
    {
        type            calculated;
        value           nonuniform List<scalar> 
17
(
1.04246
0.880061
0.751279
0.625443
0.486034
0.344962
0.180533
0.032763
0.0106503
0.0102293
0.0103869
0.0254099
0.230871
0.51425
0.644299
0.78619
0.949715
)
;
    }
    down
    {
        type            calculated;
        value           nonuniform List<scalar> 
20
(
5.99313
3.00474
1.15714
1.05622
1.85275
4.2702
6.38336
8.13099
9.01554
9.30908
9.30891
9.0149
8.12952
6.37923
4.26355
1.83125
0.932617
1.18321
1.1725
1.09111
)
;
    }
    up
    {
        type            calculated;
        value           nonuniform List<scalar> 
20
(
8.5486
5.4069
2.72321
1.48495
1.02218
9.69562
9.66614
9.59856
9.47419
9.29337
9.2963
9.47641
9.60015
9.66725
9.69603
5.70084
3.16487
2.67662
5.3967
8.56522
)
;
    }
    cylinder
    {
        type            calculated;
        value           nonuniform List<scalar> 
40
(
1.35883
3.58131
6.11724
7.96067
8.95726
9.50518
9.74578
9.84079
9.88145
9.89746
9.54757
9.76287
9.84856
9.88496
9.89849
2.26353
4.5005
6.68908
8.23279
9.07008
3.04362
1.84803
1.0855
0.435231
0.601465
9.51891
9.33169
8.74196
7.26915
4.98559
9.51874
9.33095
8.73993
7.26095
4.95693
2.96501
1.73106
1.07139
0.668118
0.10521
)
;
    }
    defaultFaces
    {
        type            empty;
    }
}


// ************************************************************************* //
