/*--------------------------------*- C++ -*----------------------------------*\
  =========                 |
  \\      /  F ield         | OpenFOAM: The Open Source CFD Toolbox
   \\    /   O peration     | Website:  https://openfoam.org
    \\  /    A nd           | Version:  13
     \\/     M anipulation  |
\*---------------------------------------------------------------------------*/
FoamFile
{
    format      ascii;
    class       volScalarField;
    location    "21";
    object      p;
}
// * * * * * * * * * * * * * * * * * * * * * * * * * * * * * * * * * * * * * //

dimensions      [0 2 -2 0 0 0 0];

internalField   nonuniform List<scalar> 
440
(
-1.02083
-1.00356
-0.991635
-0.957534
-0.999471
-1.09614
-1.07523
-1.04974
-1.01969
-0.992795
-1.2209
-1.18412
-1.13702
-1.07621
-1.00913
-1.36378
-1.31257
-1.21135
-1.09116
-0.970326
-1.45773
-1.38582
-1.22171
-1.05195
-0.897677
-1.09135
-1.12222
-1.18225
-1.23551
-1.26569
-1.14384
-1.15004
-1.17018
-1.19704
-1.21132
-1.11987
-1.10736
-1.09833
-1.10051
-1.10607
-1.06496
-1.04683
-1.0235
-1.00347
-1.00546
-0.99725
-0.983104
-0.958767
-0.91926
-0.924978
-1.39261
-0.625279
0.175378
0.0765217
0.02365
-1.24749
-0.901698
0.0381727
-0.0512874
0.0272003
-1.23574
-1.12531
-0.0781545
-0.149624
0.0311205
-1.15265
-1.13948
-0.141441
-0.150235
0.0405557
-1.00965
-1.02822
-0.153478
-0.110686
0.0425522
-0.721388
-0.758086
-0.100886
-0.0517451
0.0281489
-0.432477
-0.392387
-0.0426662
-0.0540113
0.000183034
-0.329981
-0.234814
-0.0255913
0.120358
0.0117686
-0.23125
-0.131401
-0.0461002
0.0735251
0.00129058
-0.104496
-0.169417
-0.0444944
0.120106
0.0177495
-0.639289
-0.746602
-0.877139
-1.0218
-1.13902
-0.387538
-0.498812
-0.568717
-0.612527
-0.62288
-0.217518
-0.311416
-0.36556
-0.396427
-0.4151
-0.106462
-0.189474
-0.243077
-0.270134
-0.281192
-0.0520083
-0.131989
-0.179131
-0.193813
-0.178891
0.668763
0.513331
0.315611
0.0974276
-0.137251
0.247921
0.0848812
-0.113743
-0.338823
-0.592976
-0.156434
-0.323261
-0.533736
-0.768228
-1.00822
-0.511458
-0.681976
-0.894907
-1.1238
-1.31036
-0.748796
-0.923332
-1.12356
-1.33237
-1.45518
1.72722
1.75657
1.78188
1.79277
1.78656
1.5372
1.55659
1.56951
1.56469
1.53855
1.32707
1.31338
1.27583
1.21513
1.12863
1.08794
1.05242
0.980059
0.877087
0.74644
0.879952
0.772533
0.632776
0.473158
0.282667
1.51379
1.50692
1.4804
1.55165
1.61511
1.50437
1.49656
1.46185
1.53365
1.52601
1.49608
1.4833
1.44075
1.50412
1.40883
1.48901
1.46777
1.41857
1.45834
1.24208
1.48302
1.45206
1.39583
1.41234
1.06151
1.47929
1.427
1.3678
1.31304
0.857853
1.47778
1.39754
1.36618
1.18284
0.991148
1.48369
1.3827
1.36094
1.11996
1.04072
1.48432
1.35746
1.35219
1.058
1.06907
1.51813
1.35536
1.34921
1.01909
1.1145
0.636428
0.329132
-0.00562559
-0.302921
-0.481871
0.53008
0.313727
0.0927686
-0.101928
-0.262443
0.510773
0.340088
0.178833
0.0332644
-0.106595
0.578237
0.417712
0.266599
0.128809
0.00064334
0.6273
0.460903
0.309482
0.174065
0.0507903
-1.63514
-1.49872
-1.33435
-1.19891
-1.11711
-1.73759
-1.66551
-1.53205
-1.41788
-1.3415
-1.69344
-1.6407
-1.55159
-1.46604
-1.3967
-1.57746
-1.53449
-1.47787
-1.41635
-1.35296
-1.46253
-1.44315
-1.41207
-1.3705
-1.32095
-1.4401
-1.4337
-1.41129
-1.39549
-1.30911
-1.37815
-1.37181
-1.35665
-1.35279
-1.30899
-1.46032
-1.47121
-1.48354
-1.49004
-1.4815
-1.43047
-1.49506
-1.57949
-1.65541
-1.7179
-1.03816
-1.14783
-1.27588
-1.38056
-1.455
-1.09589
0.0454497
0.284015
0.319853
0.0150034
-1.11923
0.0812452
0.342746
0.321755
0.0116816
-1.23693
0.0962307
0.350345
0.283531
0.0113946
-1.53345
0.0402469
0.294293
0.20846
0.0144362
-1.57513
-0.283743
0.24382
0.136978
0.0177881
-0.641148
-0.160545
0.179584
0.300352
0.0202598
-0.919958
-0.0438644
0.242141
0.327145
0.0267817
-1.06815
-1.29827
-1.32122
-1.26084
-1.02588
-1.08783
-1.30506
-1.34505
-1.27998
-1.22121
1.37514
1.35497
1.31837
1.26651
1.19798
1.56567
1.58529
1.59157
1.58261
1.55842
1.72445
1.75705
1.78396
1.79975
1.80153
1.81691
1.85522
1.89576
1.92863
1.94372
1.81254
1.84804
1.88727
1.91949
1.93386
-0.680177
-0.780124
-0.935069
-1.12292
-1.33286
-0.103838
-0.229792
-0.398515
-0.601105
-0.848232
0.416996
0.28508
0.127718
-0.0566907
-0.280554
0.834047
0.732337
0.608872
0.460336
0.283555
1.16763
1.09737
1.00709
0.899529
0.773958
1.57433
1.53358
1.51473
1.52024
1.52231
1.55925
1.53107
1.51456
1.53614
1.58672
1.54653
1.5274
1.51295
1.55722
1.65772
1.53474
1.5224
1.50636
1.56519
1.67067
1.52377
1.51597
1.49501
1.56365
1.66031
1.63054
1.53985
1.50256
1.44442
1.38548
1.58471
1.53027
1.49744
1.4629
1.40679
1.05835
0.842591
0.471684
-0.0637025
-0.649254
1.13376
0.872916
0.488585
-0.0433876
-0.642091
)
;

boundaryField
{
    left
    {
        type            zeroGradient;
    }
    right
    {
        type            fixedValue;
        value           uniform 0;
    }
    down
    {
        type            zeroGradient;
    }
    up
    {
        type            zeroGradient;
    }
    cylinder
    {
        type            zeroGradient;
    }
    defaultFaces
    {
        type            empty;
    }
}


// ************************************************************************* //
