/*--------------------------------*- C++ -*----------------------------------*\
  =========                 |
  \\      /  F ield         | OpenFOAM: The Open Source CFD Toolbox
   \\    /   O peration     | Website:  https://openfoam.org
    \\  /    A nd           | Version:  13
     \\/     M anipulation  |
\*---------------------------------------------------------------------------*/
FoamFile
{
    format      ascii;
    class       volScalarField;
    location    "0.56";
    object      p;
}
// * * * * * * * * * * * * * * * * * * * * * * * * * * * * * * * * * * * * * //

dimensions      [0 2 -2 0 0 0 0];

internalField   nonuniform List<scalar> 
1800
(
5.74681
7.85392
10.0067
11.4352
12.2696
12.6803
12.8114
12.6542
11.4083
7.31663
9.59707
12.0728
14.5777
16.2618
17.3184
17.9812
18.436
18.6753
17.9511
15.2736
15.9899
18.6147
21.2874
23.1508
24.411
25.2928
25.9437
26.3272
25.8562
24.0254
24.9855
27.555
30.2034
32.1179
33.4833
34.4924
35.2549
35.707
35.3009
33.6164
36.0445
38.4053
40.8576
42.6692
43.9937
44.9899
45.7445
46.1939
45.8437
44.2883
48.7216
50.7742
52.9178
54.5241
55.7152
56.6174
57.2997
57.7104
57.4292
56.0699
62.6703
64.3431
66.0988
67.4308
68.4329
69.2025
69.7939
70.1709
69.9959
68.9072
77.5962
78.8378
80.1489
81.1583
81.9342
82.5481
83.0422
83.3971
83.3637
82.6273
93.2146
93.9942
94.8258
95.4807
96.0035
96.441
96.8238
97.1472
97.2574
96.923
109.244
109.548
109.88
110.155
110.392
110.613
110.83
111.044
111.205
111.233
-0.59873
-0.850795
-0.628419
-0.21413
0.257756
0.724887
1.08442
1.29564
1.44055
1.58677
-0.483473
-0.997139
-1.10482
-0.897577
-0.4735
-0.0490258
0.244714
0.487524
0.767051
1.04001
0.509674
-0.455341
-1.28336
-1.44746
-1.12057
-0.813504
-0.59814
-0.292321
0.114616
0.500273
0.900764
-0.238549
-1.43228
-1.7697
-1.54962
-1.39418
-1.26683
-0.960672
-0.503569
0.00437316
0.470685
-0.495798
-1.43323
-1.72372
-1.6663
-1.67513
-1.6365
-1.37364
-0.881928
-0.187502
-0.22987
-0.745941
-1.14495
-1.274
-1.29423
-1.35829
-1.34922
-1.13975
-0.614527
0.318259
-0.562054
-0.523943
-0.346831
-0.200532
-0.115674
-0.0945397
-0.0552962
0.115389
0.693892
1.92439
-0.0762001
0.510246
1.23144
1.73603
2.06574
2.27929
2.42925
2.64656
3.37782
5.04044
1.37272
2.48071
3.72922
4.65077
5.32084
5.81334
6.15367
6.4933
7.48063
9.76849
3.61568
5.25858
7.07678
8.45273
9.47549
10.2358
10.7583
11.2116
12.2731
14.4367
2.3035
2.44239
2.33636
2.09329
1.59303
1.18949
0.85765
0.586121
0.358171
0.135592
1.95296
2.41798
2.2309
2.0082
1.50838
1.11044
0.809067
0.568869
0.356985
0.137978
1.47468
2.38824
2.12892
1.91458
1.43123
1.04248
0.765377
0.551258
0.351085
0.136695
0.850112
2.30611
2.02889
1.80771
1.35429
0.981088
0.726994
0.534638
0.343259
0.133587
0.156603
2.13098
1.91905
1.68548
1.27248
0.923281
0.692371
0.51912
0.337019
0.131213
-0.415426
1.85289
1.78164
1.5461
1.18242
0.867474
0.660696
0.505269
0.333196
0.131215
-0.564354
1.50517
1.60313
1.38674
1.0817
0.812203
0.632026
0.493549
0.332247
0.133415
0.164593
1.17643
1.3743
1.19827
0.966276
0.75509
0.606179
0.484218
0.333898
0.136497
2.42112
1.04044
1.07443
0.955995
0.827249
0.692642
0.582199
0.477303
0.332304
0.135642
6.65619
1.4097
0.717719
0.639476
0.656226
0.622414
0.559007
0.46795
0.323603
0.127033
9.98428
2.58196
0.695655
0.398838
0.478549
0.54139
0.52796
0.446124
0.303453
0.11295
11.7698
2.57669
0.269901
0.0584741
0.355442
0.502607
0.493641
0.404566
0.267825
0.0896432
12.8661
2.77886
0.394226
0.14767
0.463564
0.561596
0.491715
0.372324
0.232063
0.0640031
14.1849
4.36371
1.2774
0.721496
0.784644
0.711491
0.530307
0.355155
0.199372
0.0377294
16.3615
7.10898
2.701
1.58993
1.24062
0.932662
0.611138
0.358263
0.174525
0.0137452
19.2531
9.87712
4.33787
2.56008
1.77523
1.20424
0.726948
0.382837
0.161121
-0.00493858
21.7582
11.9401
5.85728
3.52258
2.34435
1.50451
0.865927
0.426538
0.160931
-0.0159973
23.0374
13.1233
7.05452
4.42343
2.91949
1.81867
1.0189
0.485836
0.174175
-0.0180205
22.9773
13.5022
7.91491
5.27074
3.50928
2.15463
1.19159
0.564308
0.204488
-0.00915905
22.4244
13.7271
8.68604
6.13156
4.1352
2.53272
1.40583
0.678658
0.269456
0.015871
111.789
97.8429
84.0782
71.0729
59.1335
48.3533
38.7719
30.0952
20.0838
4.97854
112.769
99.4806
85.9797
72.9733
60.9302
50.0495
40.5165
32.2586
23.5937
11.4803
113.3
100.215
87.3346
75.0082
63.4693
52.8774
43.4476
35.259
27.4728
18.3387
114.513
102.772
90.8134
78.9824
67.6255
57.0301
47.3968
38.7963
31.0894
23.8263
115.09
104.079
93.158
82.4669
72.1198
62.1953
52.7326
43.8218
36.0033
29.8241
115.439
104.712
94.2055
84.0437
74.3231
65.0937
56.3345
48.093
41.0514
36.0342
115.671
105.112
94.8003
84.8681
75.4253
66.5449
58.2361
50.5686
44.2147
40.0954
115.771
105.25
94.9834
85.1119
75.7578
67.0119
58.9082
51.5148
45.3981
41.4386
115.721
105.035
94.609
84.5898
75.1106
66.2781
58.1481
50.7787
44.5549
40.1021
115.597
104.651
93.963
83.6855
73.9601
64.9099
56.6152
49.1205
42.6115
37.4167
234.127
229.765
228.198
227.757
227.666
227.918
228.652
230.033
232.185
234.324
225.564
222.546
221.498
221.459
221.684
222.17
223.1
224.708
227.179
229.655
216.05
213.876
213.104
213.229
213.66
214.364
215.489
217.258
219.872
222.47
205.744
203.717
203.013
203.209
203.753
204.582
205.807
207.615
210.184
212.703
194.42
192.511
191.857
192.045
192.577
193.388
194.565
196.259
198.614
200.905
182.053
180.329
179.735
179.877
180.33
181.042
182.077
183.555
185.585
187.55
168.707
167.245
166.751
166.854
167.21
167.783
168.622
169.815
171.442
173.013
154.573
153.457
153.102
153.18
153.435
153.848
154.455
155.317
156.488
157.616
139.964
139.25
139.043
139.093
139.238
139.473
139.823
140.325
141.007
141.663
125.439
125.096
124.955
124.908
124.895
124.918
124.984
125.104
125.281
125.457
246.544
246.781
247.032
247.25
247.548
248.047
248.598
248.933
248.941
248.43
246.624
246.954
247.356
247.66
247.86
248.194
248.616
248.533
247.72
246.702
246.64
247.035
247.48
247.791
247.873
248.004
248.285
247.924
246.538
245.283
246.523
247.025
247.454
247.686
247.619
247.506
247.542
247.119
245.823
244.664
246.032
246.687
247.076
247.183
247.006
246.73
246.555
246.196
245.386
244.594
244.825
245.668
246.006
245.971
245.742
245.459
245.264
245.093
244.853
244.565
242.479
243.576
243.915
243.801
243.593
243.429
243.395
243.527
243.834
244.074
238.594
240.081
240.551
240.486
240.403
240.455
240.694
241.189
242.002
242.741
233.12
235.175
235.885
235.954
236.08
236.427
237.015
237.92
239.225
240.437
227.765
229.631
230.377
230.545
230.852
231.469
232.411
233.763
235.61
237.318
246.949
246.724
246.689
246.491
246.419
246.292
245.916
245.663
245.564
245.71
246.909
246.724
246.684
246.494
246.418
246.298
245.928
245.649
245.378
245.736
246.882
246.72
246.676
246.489
246.409
246.3
245.933
245.601
245.147
245.825
246.863
246.712
246.663
246.477
246.396
246.298
245.927
245.515
244.933
246.015
246.851
246.702
246.647
246.458
246.377
246.288
245.906
245.409
244.801
246.254
246.844
246.691
246.629
246.435
246.354
246.265
245.872
245.317
244.775
246.361
246.842
246.677
246.609
246.409
246.326
246.231
245.837
245.265
244.82
246.027
246.845
246.659
246.588
246.381
246.293
246.191
245.819
245.266
244.839
244.788
246.854
246.638
246.564
246.35
246.26
246.161
245.848
245.338
244.659
242.012
246.871
246.615
246.536
246.315
246.229
246.16
245.949
245.462
243.979
237.296
246.908
246.59
246.496
246.261
246.167
246.091
245.873
245.129
242.442
233.742
247.024
246.572
246.46
246.219
246.114
246.135
246.075
245.332
242.177
231.798
247.268
246.579
246.426
246.143
246.037
246.101
246.076
245.244
241.889
230.536
247.722
246.635
246.399
246.061
245.898
245.832
245.629
244.545
240.489
229.321
248.561
246.702
246.421
245.967
245.686
245.32
244.751
243.235
238.017
227.466
250.394
246.77
246.526
245.894
245.395
244.656
243.659
241.57
235.378
224.918
254.273
247.08
246.679
245.833
245.041
243.941
242.558
239.955
233.31
222.586
262.578
248.218
246.952
245.787
244.669
243.252
241.555
238.664
232.071
221.329
280.139
250.954
247.601
245.819
244.316
242.601
240.647
237.732
231.628
221.358
306.109
255
249.106
246.03
244.026
241.981
239.763
236.916
231.356
221.886
236.421
221.07
210.448
201.133
190.973
179.669
167.274
153.901
139.856
125.726
230.03
217.736
208.584
199.863
189.926
178.688
166.342
153.091
139.367
125.893
223.498
214.133
205.955
197.427
187.713
176.873
165.12
152.619
139.601
126.423
218.386
210.878
202.886
194.036
184.193
173.428
161.935
149.991
137.928
126.094
212.989
206.595
198.601
189.506
179.837
169.699
159.148
148.281
137.225
126.133
207.389
202.092
194.832
186.361
177.363
167.908
157.988
147.666
137.046
126.258
203.592
199.152
192.563
184.666
176.133
167.048
157.427
147.352
136.941
126.331
202.31
198.053
191.707
184.095
175.782
166.846
157.327
147.323
136.965
126.396
203.637
198.922
192.472
184.888
176.556
167.54
157.903
147.757
137.242
126.51
206.311
200.876
194.14
186.429
177.933
168.702
158.819
148.416
137.639
126.647
112.188
112.358
112.443
112.294
111.787
111.426
111.241
111.526
111.519
111.27
89.614
90.0773
90.2959
89.8623
88.4304
87.344
86.7231
87.3847
87.4224
86.8358
68.7715
69.3991
69.6604
68.9937
67.0543
65.3426
64.3224
64.8711
65.1755
64.6204
50.6542
51.2606
51.4502
50.6271
48.648
46.4821
45.152
45.1875
45.9258
45.6925
36.0094
36.4178
36.4681
35.5867
33.7949
31.479
29.8352
29.27
30.0776
30.2653
24.9575
25.0609
24.9388
24.0156
22.4381
20.4088
18.618
17.6764
17.9315
18.4315
17.0712
16.9208
16.706
15.7151
14.3007
12.7974
11.3099
10.2449
9.90521
10.2718
11.5844
11.4074
11.3589
10.3596
9.04082
8.03896
7.14719
6.30421
5.71583
5.63217
7.91056
7.82225
8.11822
7.25051
6.08463
5.49405
5.16495
4.78009
4.29615
3.91662
6.04219
5.83715
6.22254
5.48489
4.61562
4.33936
4.36301
4.35337
4.20073
3.80492
5.27578
5.03885
5.12106
4.42684
3.89451
3.83794
3.98727
4.12972
4.25074
4.30746
4.84953
4.74034
4.46279
3.79638
3.51013
3.59684
3.79953
3.96687
4.08655
4.17284
4.47187
4.42707
3.99521
3.44436
3.32369
3.48581
3.71004
3.88854
4.00645
4.06682
4.01834
3.96343
3.55728
3.20538
3.21458
3.41708
3.62953
3.78661
3.8851
3.92644
3.47163
3.37845
3.10479
2.98428
3.10036
3.31663
3.50642
3.64384
3.72504
3.74878
2.82209
2.72757
2.66719
2.75651
2.95261
3.15674
3.32236
3.44169
3.50855
3.52195
2.09983
2.11564
2.24945
2.48324
2.71846
2.91671
3.07181
3.18538
3.25151
3.26689
1.42682
1.54445
1.79507
2.08745
2.34288
2.55686
2.73233
2.87061
2.95786
2.98588
0.751216
0.886624
1.16101
1.48888
1.79756
2.0682
2.30472
2.48904
2.5938
2.63149
0.0794226
-0.00449452
0.229916
0.640084
1.05903
1.4397
1.76288
1.97785
2.08136
2.14448
3.66236
3.70534
3.57453
3.24851
2.59928
1.91428
1.32534
0.854474
0.459826
0.105923
3.73514
3.67956
3.52419
3.23252
2.55987
1.85808
1.27256
0.816465
0.438835
0.105481
3.76184
3.57402
3.41283
3.17858
2.51589
1.8049
1.22223
0.780589
0.420239
0.106526
3.72321
3.39834
3.26061
3.07653
2.45868
1.75304
1.17434
0.746969
0.404075
0.108508
3.61597
3.19074
3.09298
2.92374
2.37642
1.69803
1.12825
0.715612
0.390338
0.111375
3.45313
2.99341
2.93301
2.7405
2.26287
1.63607
1.08387
0.686938
0.379122
0.115043
3.26003
2.82625
2.78978
2.55861
2.12095
1.56367
1.04076
0.66137
0.370478
0.119308
3.05281
2.689
2.6637
2.40208
1.96591
1.47838
0.997913
0.639033
0.364303
0.123846
2.82969
2.57693
2.55012
2.27768
1.81891
1.38171
0.953912
0.619669
0.360412
0.12828
2.5834
2.49279
2.44263
2.17891
1.69416
1.28175
0.907132
0.602482
0.358517
0.132269
5.42345
3.97746
3.27968
2.90062
2.42066
1.90246
1.40377
0.947618
0.535311
0.134846
4.61966
3.7567
3.31556
2.96144
2.46103
1.91117
1.39168
0.929698
0.516571
0.125432
3.94979
3.66455
3.37604
3.03059
2.50011
1.91886
1.38052
0.913734
0.502133
0.117861
3.62996
3.66484
3.46117
3.11061
2.54108
1.92622
1.36953
0.898701
0.489754
0.112302
3.61521
3.70784
3.56265
3.20274
2.58675
1.93371
1.35735
0.882866
0.477804
0.108616
112.019
88.9522
67.9014
50.1299
36.1153
25.7952
18.6252
13.7498
10.5679
8.75386
111.798
88.3899
67.1951
49.3956
35.3131
24.7909
17.3215
12.2163
9.07354
7.57348
111.612
87.9096
66.5569
48.655
34.4019
23.6182
15.9012
10.6814
7.53694
6.07908
111.402
87.3358
65.7165
47.5902
33.0773
22.0242
14.1297
8.897
5.81172
4.43618
111.147
86.6078
64.5873
46.1171
31.2772
19.9566
11.9611
6.9249
4.44182
3.62598
243.765
243.802
243.922
244.093
244.306
244.316
243.811
243.11
243.213
242.989
243.977
244.049
244.163
244.352
244.622
244.797
244.579
243.929
243.672
243.564
244.173
244.222
244.335
244.531
244.816
245.078
245.052
244.545
244.117
244.066
244.416
244.448
244.546
244.72
244.977
245.266
245.372
245.102
244.716
244.648
244.69
244.707
244.789
244.938
245.153
245.417
245.621
245.623
245.458
245.367
244.98
244.993
245.062
245.184
245.357
245.587
245.858
246.1
246.206
246.194
245.252
245.271
245.353
245.488
245.664
245.894
246.195
246.556
246.858
246.981
245.536
245.554
245.651
245.842
246.096
246.396
246.757
247.169
247.533
247.713
245.915
245.945
246.022
246.245
246.615
247.067
247.572
248.09
248.433
248.395
246.308
246.418
246.519
246.71
247.109
247.677
248.278
248.827
249.178
248.973
136.501
136.242
136.219
136.482
136.264
135.866
135.325
135.153
135.224
135.389
160.951
160.354
160.376
161.013
160.36
159.238
157.774
157.318
157.523
157.982
183.195
182.629
182.916
183.439
182.388
180.643
178.675
177.986
178.235
178.857
202.161
201.915
202.634
202.644
201.286
199.089
197.082
196.238
196.415
197.018
217.632
217.807
218.591
218.003
216.335
213.991
212.169
211.267
211.306
211.711
229.512
229.994
230.224
229.264
227.456
225.4
223.79
222.844
222.711
222.812
237.711
238.047
237.684
236.611
235.119
233.591
232.14
231.123
230.898
230.747
242.366
242.246
241.636
240.803
239.924
238.907
237.553
236.527
236.468
236.291
244.09
243.671
243.178
242.82
242.523
241.937
240.747
239.852
240.137
240.052
244.229
243.803
243.65
243.671
243.743
243.501
242.628
241.866
242.251
242.062
254.848
246.877
247.503
246.29
246.041
245.535
244.997
244.632
244.501
244.539
252.014
246.814
247.317
246.269
246.094
245.597
245.013
244.666
244.578
244.51
250.092
246.821
247.095
246.266
246.15
245.665
245.057
244.76
244.748
244.542
248.906
246.849
246.883
246.285
246.207
245.738
245.138
244.914
244.977
244.648
248.221
246.852
246.746
246.325
246.263
245.821
245.267
245.105
245.217
244.818
247.772
246.809
246.709
246.374
246.316
245.913
245.434
245.292
245.422
245.023
247.458
246.755
246.708
246.416
246.361
246.015
245.608
245.444
245.575
245.231
247.243
246.726
246.7
246.449
246.391
246.119
245.751
245.55
245.671
245.422
247.101
246.72
246.693
246.471
246.405
246.207
245.845
245.615
245.708
245.579
247.009
246.722
246.69
246.484
246.414
246.266
245.894
245.65
245.675
245.675
317.352
253.761
249.912
246.973
246.146
245.576
245.254
244.93
244.236
242.718
295.619
251.372
248.791
246.741
246.063
245.547
245.209
244.9
244.448
243.519
277.178
249.216
248.194
246.568
246.023
245.529
245.159
244.843
244.53
244.192
265.775
247.871
247.87
246.439
246.005
245.517
245.101
244.76
244.521
244.52
259.004
247.141
247.648
246.331
246.002
245.508
245.032
244.657
244.475
244.553
239.297
237.447
234.232
229.324
222.122
211.768
197.718
179.914
158.838
135.757
240.479
238.943
235.769
230.633
223.131
212.574
198.455
180.622
159.401
135.978
241.992
240.495
237.314
232.061
224.309
213.49
199.199
181.262
159.882
136.164
243.654
242.249
239.121
233.846
225.912
214.819
200.266
182.103
160.456
136.374
244.443
243.606
241.103
236.033
227.99
216.624
201.741
183.233
161.183
136.627
)
;

boundaryField
{
    left
    {
        type            zeroGradient;
    }
    right
    {
        type            fixedValue;
        value           uniform 0;
    }
    down
    {
        type            zeroGradient;
    }
    up
    {
        type            zeroGradient;
    }
    cylinder
    {
        type            zeroGradient;
    }
    defaultFaces
    {
        type            empty;
    }
}


// ************************************************************************* //
