/*--------------------------------*- C++ -*----------------------------------*\
  =========                 |
  \\      /  F ield         | OpenFOAM: The Open Source CFD Toolbox
   \\    /   O peration     | Website:  https://openfoam.org
    \\  /    A nd           | Version:  13
     \\/     M anipulation  |
\*---------------------------------------------------------------------------*/
FoamFile
{
    format      ascii;
    class       volScalarField;
    location    "0.56";
    object      strainRateViscosityModel:nu;
}
// * * * * * * * * * * * * * * * * * * * * * * * * * * * * * * * * * * * * * //

dimensions      [0 2 -1 0 0 0 0];

internalField   nonuniform List<scalar> 
1800
(
9.40488
9.1976
9.01005
8.80092
8.57611
8.3441
8.11543
7.89817
7.62428
7.37938
9.58523
9.41878
9.26689
9.09731
8.91115
8.7114
8.50354
8.28866
8.02732
7.70215
9.70219
9.56269
9.42803
9.27095
9.08867
8.87897
8.64089
8.36902
8.03059
7.61065
9.77539
9.65614
9.53324
9.38287
9.20048
8.9817
8.72279
8.41595
8.02878
7.5546
9.82168
9.7183
9.60558
9.46166
9.2807
9.05695
8.78548
8.45888
8.04776
7.55617
9.85185
9.76081
9.6573
9.52059
9.34355
9.11896
8.84034
8.50016
8.07152
7.57022
9.87179
9.78991
9.69399
9.56396
9.39147
9.16769
8.8842
8.53252
8.08736
7.57568
9.88475
9.80925
9.71888
9.59395
9.42495
9.20146
8.91309
8.55005
8.08853
7.56356
9.8926
9.82107
9.73416
9.6122
9.44467
9.21963
8.92484
8.54923
8.07121
7.52871
9.89646
9.82686
9.74153
9.6207
9.4531
9.22573
8.92513
8.53953
8.05038
7.49285
1.78062
1.40532
1.21397
1.32367
1.72998
2.24775
2.49382
2.44922
2.36057
2.33678
3.70779
1.78487
1.49633
1.98149
2.69097
2.97005
2.81985
2.67593
2.69107
2.74355
4.6886
2.5738
2.43891
3.17394
3.59279
3.34836
3.08694
3.12266
3.26102
3.34105
5.26211
3.88433
3.81659
4.21146
4.17972
3.83239
3.72504
3.85754
3.95945
4.00856
6.05314
5.27626
5.11826
5.12044
4.91492
4.65486
4.57985
4.61379
4.61438
4.65435
6.95897
6.46019
6.22688
6.03789
5.78817
5.5458
5.38992
5.29442
5.22372
5.27645
7.77149
7.37777
7.11674
6.86007
6.58721
6.32052
6.08747
5.90152
5.77117
5.82488
8.40007
8.05529
7.79194
7.51562
7.2263
6.93106
6.64218
6.38654
6.19279
6.22994
8.84934
8.54535
8.29094
8.0102
7.70555
7.37933
7.03554
6.70118
6.41602
6.42218
9.16164
8.90152
8.66629
8.3966
8.09562
7.76566
7.40638
7.03567
6.70872
6.75273
2.19415
1.72993
1.33224
0.935399
0.615366
0.338961
0.161894
0.104093
0.114436
0.167191
2.52959
1.85048
1.40917
0.933213
0.591514
0.323072
0.146353
0.0658573
0.0509791
0.0936535
2.9507
1.98044
1.48288
0.932937
0.559088
0.298465
0.131194
0.0450339
0.0247154
0.0229032
3.44325
2.15055
1.55477
0.937414
0.522906
0.268541
0.114063
0.034055
0.0204318
0.0115584
3.98527
2.38836
1.63218
0.947071
0.486252
0.235167
0.0962804
0.028629
0.0196081
0.0113551
4.53041
2.6992
1.72818
0.963461
0.452056
0.199354
0.0784562
0.025757
0.019462
0.0113232
4.99852
3.05871
1.8498
0.986009
0.420973
0.161954
0.0606675
0.0237949
0.0190293
0.0119918
5.31414
3.44158
2.01674
1.02864
0.400121
0.126475
0.0430393
0.0214177
0.0156074
0.0342701
5.34454
3.72486
2.16616
1.06051
0.37757
0.092912
0.0283643
0.0169789
0.0256038
0.124238
5.2032
3.99109
2.40184
1.1643
0.394988
0.0765688
0.0155482
0.0151375
0.102372
0.196287
4.94567
3.94446
2.45862
1.17786
0.369018
0.0510069
0.013194
0.0887861
0.17971
0.281701
5.33186
3.34973
2.14072
0.996492
0.352317
0.119991
0.103024
0.181068
0.273114
0.379885
4.9054
3.04421
2.24363
1.1968
0.580708
0.27814
0.191277
0.2522
0.350998
0.457985
4.54556
3.62881
2.67693
1.63389
0.885372
0.481236
0.323055
0.34459
0.427878
0.526281
5.11312
4.74628
3.3408
2.16115
1.23461
0.720136
0.483402
0.447461
0.503647
0.582536
6.25424
5.66925
4.05702
2.67331
1.59778
0.976075
0.664349
0.565463
0.581633
0.630088
7.26272
6.3738
4.71418
3.15517
1.95787
1.23837
0.854899
0.692051
0.661086
0.670183
8.00015
6.91216
5.26034
3.58981
2.30108
1.50087
1.0503
0.824958
0.742926
0.705734
8.51879
7.33082
5.69773
3.97076
2.6214
1.75537
1.24032
0.953664
0.819936
0.734926
8.93101
7.69125
6.05004
4.28353
2.92608
2.02733
1.45482
1.10373
0.913994
0.770601
6.51283
6.43966
6.43045
6.44879
6.48742
6.53006
6.58216
6.71075
6.8955
6.82663
0.260727
1.05726
2.00791
2.92305
3.70408
4.3168
4.73366
4.98331
5.22254
5.72876
3.85069
3.54374
3.28443
3.11112
3.10617
3.24986
3.47221
3.71352
4.16523
4.84541
6.64423
6.62728
6.53716
6.34466
6.04315
5.65757
5.24911
4.89538
4.73865
4.5486
7.69187
7.67657
7.63215
7.54132
7.39616
7.18986
6.92703
6.61937
6.28571
5.65589
8.44953
8.43314
8.39437
8.32774
8.22959
8.09674
7.92839
7.71685
7.42792
6.90777
8.93968
8.92395
8.89029
8.8368
8.76167
8.66291
8.53817
8.37894
8.1547
7.80865
9.27299
9.25981
9.23246
9.18986
9.13052
9.05245
8.95269
8.82482
8.65283
8.43093
9.50446
9.49417
9.47308
9.44024
9.39426
9.33319
9.25424
9.15287
9.02289
8.87535
9.6899
9.68285
9.66852
9.64604
9.61405
9.5707
9.51361
9.43975
9.34638
9.2441
7.24841
7.52641
7.83699
8.08764
8.34474
8.59955
8.84133
9.06155
9.25458
9.46026
7.5833
7.94814
8.24096
8.48108
8.70929
8.92477
9.12227
9.29899
9.45391
9.61807
7.49862
7.95741
8.32593
8.62046
8.87571
9.0977
9.28804
9.44951
9.58536
9.72226
7.44697
7.95763
8.37374
8.70197
8.97656
9.20594
9.3947
9.54806
9.67131
9.78824
7.45638
7.98067
8.41859
8.76487
9.05052
9.28355
9.46977
9.61591
9.72868
9.83023
7.48244
8.01168
8.46401
8.82146
9.11233
9.34474
9.52606
9.66446
9.76796
9.85764
7.50365
8.03786
8.50277
8.86862
9.16197
9.39189
9.56764
9.6989
9.79479
9.8757
7.51115
8.05246
8.52871
8.90209
9.19746
9.42521
9.5964
9.72213
9.81243
9.88729
7.49836
8.05045
8.53742
8.91898
9.21768
9.44503
9.61372
9.73606
9.8229
9.89404
7.48288
8.04359
8.53593
8.92344
9.22526
9.4533
9.62123
9.74217
9.82746
9.89694
2.55285
2.5101
2.52903
2.7398
2.92082
2.54508
1.693
1.17997
1.52085
4.182
2.96179
2.87354
2.71486
2.71422
3.10316
3.42646
2.81543
1.90234
2.12071
5.12899
3.45275
3.40875
3.25068
3.06514
3.26601
3.82371
3.80085
3.15662
3.28317
5.45177
3.94671
3.93557
3.9085
3.79888
3.89158
4.31864
4.58869
4.46502
4.65646
5.90973
4.5003
4.47277
4.54762
4.61845
4.78154
5.11449
5.43806
5.61755
5.8942
6.62908
5.10339
5.06083
5.19999
5.39767
5.65781
5.98072
6.30845
6.5947
6.89976
7.40548
5.65521
5.61886
5.81926
6.09128
6.40806
6.74089
7.06834
7.37776
7.67827
8.08613
6.06777
6.05305
6.31571
6.64259
6.995
7.33967
7.66709
7.97397
8.25876
8.61095
6.2611
6.27983
6.63128
7.02595
7.42003
7.78426
8.11657
8.41656
8.68275
8.98795
6.60066
6.57034
6.95618
7.37948
7.78124
8.143
8.46643
8.75037
8.99298
9.25188
0.107982
0.15475
0.113409
0.0548903
0.0135012
0.37667
0.915287
1.47276
1.9431
2.42696
0.074133
0.139699
0.10919
0.0550138
0.014027
0.366643
0.921523
1.53876
2.02549
2.69623
0.0523556
0.13175
0.107948
0.0585379
0.0228275
0.368358
0.932517
1.59298
2.09998
3.00997
0.0395577
0.130702
0.11074
0.0670211
0.0409154
0.379859
0.944487
1.63431
2.20658
3.39873
0.0333992
0.135157
0.116032
0.0779225
0.0644826
0.39438
0.953586
1.67319
2.38602
3.86949
0.032604
0.143439
0.122065
0.0884524
0.0892974
0.407711
0.962916
1.7324
2.65273
4.3664
0.0373045
0.155103
0.127402
0.096495
0.110518
0.416597
0.977032
1.82851
2.98418
4.79671
0.048515
0.17099
0.131683
0.10209
0.127472
0.429153
1.01978
1.98722
3.35044
5.081
0.0685679
0.191507
0.134999
0.101635
0.131804
0.431095
1.05712
2.13783
3.62846
5.08394
0.100179
0.213806
0.139024
0.104958
0.148242
0.478483
1.19331
2.3957
3.87832
4.89243
0.158035
0.241615
0.146305
0.102635
0.137434
0.477304
1.2554
2.50809
3.88739
4.67484
0.261934
0.271768
0.135844
0.0791295
0.0742884
0.376062
1.12189
2.30486
3.43256
5.19421
0.426875
0.269553
0.106408
0.0169691
0.0146621
0.323983
1.1387
2.34538
3.25456
4.93891
0.679801
0.256633
0.0228903
0.0811506
0.109774
0.524213
1.42173
2.6161
3.71024
4.69649
1.06341
0.0488413
0.255476
0.247295
0.325194
0.883775
1.92878
3.20138
4.70407
5.17548
1.51477
0.117386
0.534281
0.427772
0.608046
1.30508
2.47228
3.91513
5.59775
6.22278
2.19428
0.685438
0.85145
0.701081
0.953989
1.73853
2.99227
4.59296
6.30236
7.21638
3.79191
1.70517
1.27246
1.04738
1.32951
2.15297
3.46253
5.16527
6.85424
7.96885
6.86006
3.57606
1.96236
1.43063
1.69001
2.52842
3.87561
5.63164
7.29529
8.50727
9.04905
6.3839
2.84389
2.00942
2.12532
2.90281
4.22717
6.0198
7.68658
8.93807
6.6253
6.68818
6.51134
6.38945
6.34898
6.3227
6.30564
6.31737
6.36197
6.47626
5.52998
5.01105
4.76704
4.52574
4.12739
3.54125
2.79915
1.93248
1.0449
0.284308
4.85069
4.23713
3.82732
3.61648
3.42947
3.30989
3.3148
3.45721
3.65511
3.87419
4.71103
4.88443
5.02713
5.33697
5.70154
6.05211
6.33387
6.52145
6.61662
6.64167
5.68681
6.28528
6.61201
6.91124
7.17237
7.38152
7.53186
7.6282
7.67675
7.69243
6.86571
7.38858
7.68447
7.90237
8.07665
8.21489
8.31785
8.38859
8.43057
8.44891
7.76517
8.12055
8.35202
8.51795
8.64799
8.75101
8.82958
8.88584
8.92165
8.939
8.40458
8.6327
8.80889
8.94094
9.04402
9.12466
9.18596
9.23007
9.25855
9.2726
8.86615
9.01619
9.14761
9.25059
9.33082
9.39282
9.43944
9.47267
9.494
9.50442
9.24866
9.35043
9.443
9.51629
9.57293
9.61587
9.64747
9.66956
9.68348
9.69011
9.50943
8.98528
8.23582
6.92818
5.59792
0.131167
3.36079
5.96033
7.21401
8.15179
9.46538
8.9215
8.16805
6.89051
5.54934
0.563762
2.62218
5.70596
6.91635
7.91388
9.36564
8.78275
8.02019
6.80953
5.36631
1.60347
1.41353
5.20658
6.30927
7.40322
9.1825
8.54505
7.7744
6.65502
5.18638
2.74001
0.723073
4.23833
5.42149
6.57138
8.86805
8.1735
7.4039
6.37683
5.02644
3.36799
0.970937
2.63159
4.31689
5.3937
8.35044
7.62961
6.87329
5.91716
4.76502
3.44
1.71921
1.30189
3.04927
3.98808
7.53594
6.89647
6.1554
5.22744
4.29958
3.26951
2.14305
1.17239
1.65627
2.55746
6.32528
6.03742
5.28117
4.2318
3.53346
2.91264
2.11837
1.43499
1.06842
1.23551
4.6316
5.23206
4.47417
2.99956
2.43721
2.2746
1.85596
1.38456
1.12237
0.659042
2.67267
4.53926
4.02144
1.96685
1.39693
1.48845
1.40981
1.21135
1.06364
0.844799
1.27663
3.78833
3.66634
1.33762
0.816354
0.897547
0.970707
0.955738
0.971206
1.01937
0.613397
2.96853
3.08153
0.957071
0.57536
0.639462
0.758583
0.819125
0.843198
0.876279
0.355315
2.18791
2.28432
0.688396
0.49208
0.594149
0.725023
0.809435
0.847354
0.872249
0.265304
1.5493
1.48807
0.520747
0.532925
0.672287
0.785758
0.856848
0.88039
0.890783
0.239708
1.01888
0.844591
0.511916
0.667097
0.800759
0.901986
0.965533
0.981361
0.978403
0.243009
0.494604
0.498357
0.633595
0.814498
0.95194
1.04976
1.10759
1.11827
1.11019
0.178582
0.203845
0.505925
0.753487
0.971578
1.11739
1.20741
1.25469
1.27145
1.27195
0.0457199
0.250057
0.647541
0.920018
1.13363
1.25161
1.32792
1.39731
1.4533
1.47485
0.0592943
0.491137
0.820571
1.09501
1.22981
1.33844
1.48757
1.64485
1.73177
1.74752
0.687799
0.861955
1.04061
1.186
1.325
1.59612
1.90664
2.07637
2.07948
2.04715
0.362902
0.080157
0.222654
0.548139
0.79086
0.886873
0.878662
0.825753
0.77959
0.766388
0.461691
0.201255
0.317494
0.518866
0.720477
0.806511
0.799723
0.752604
0.713259
0.713058
0.52494
0.37036
0.437818
0.510983
0.650345
0.726851
0.722436
0.680072
0.646735
0.658248
0.637425
0.585302
0.592658
0.552515
0.584503
0.640051
0.639977
0.605075
0.57931
0.60203
0.803804
0.800367
0.73861
0.634619
0.539348
0.553045
0.55551
0.529233
0.511511
0.544381
1.00679
0.995966
0.871498
0.733528
0.528017
0.471366
0.46951
0.452622
0.443478
0.485244
1.22458
1.1675
0.986251
0.821159
0.549409
0.404955
0.384735
0.376111
0.375579
0.424655
1.44941
1.32205
1.0853
0.883493
0.585397
0.363315
0.305327
0.300768
0.308039
0.362287
1.68263
1.46645
1.17255
0.918972
0.614465
0.347321
0.237646
0.228201
0.241557
0.298811
1.92539
1.60283
1.25354
0.933449
0.624698
0.344592
0.189002
0.161312
0.175748
0.232325
2.00894
0.746987
0.715831
0.961793
1.19197
1.27729
1.25131
1.17792
1.11088
1.03292
1.39437
0.482665
0.577468
0.871303
1.10428
1.19154
1.16989
1.10144
1.0382
0.973947
0.751683
0.287818
0.479755
0.794553
1.03039
1.11994
1.102
1.03741
0.978002
0.925448
0.253585
0.170121
0.404203
0.722998
0.955724
1.04414
1.0283
0.967361
0.912191
0.872672
0.435947
0.0327695
0.266301
0.610518
0.860281
0.960468
0.952504
0.896759
0.846033
0.819581
9.35461
9.29001
9.14095
8.87304
8.43748
7.7788
6.87125
5.7592
4.58186
3.53694
9.19243
9.09561
8.88105
8.51158
7.94142
7.13636
6.10952
4.95498
3.84465
2.78671
9.02383
8.90021
8.62655
8.16096
7.46166
6.51603
5.3713
4.16852
3.08119
1.94234
8.81626
8.66214
8.32143
7.74783
6.90606
5.81412
4.55487
3.29475
2.22587
1.09016
8.58743
8.37932
7.92575
7.17735
6.11241
4.79199
3.35061
2.0852
0.99412
0.302041
1.06076
1.02501
1.017
1.02057
0.915805
0.800097
1.29375
3.68238
3.85887
1.32345
0.94981
0.934445
0.926997
0.871587
0.719621
0.589254
0.911593
3.14044
3.10824
0.647743
0.986516
0.982999
0.966189
0.893414
0.748119
0.585438
0.69942
2.37028
2.34376
0.377643
1.05353
1.06535
1.06116
1.00138
0.890219
0.741479
0.656733
1.55438
1.63047
0.277402
1.18529
1.20929
1.21488
1.16718
1.07631
0.951525
0.788954
0.907107
0.915711
0.246304
1.34913
1.36898
1.37717
1.35179
1.28166
1.14841
0.927356
0.667613
0.356833
0.216511
1.55167
1.54763
1.51548
1.47313
1.42166
1.31438
1.07447
0.750668
0.27177
0.0662882
1.8175
1.81081
1.72838
1.57649
1.43752
1.34053
1.20428
0.896272
0.491781
0.0467099
2.09671
2.14337
2.14059
1.94672
1.6056
1.31908
1.18384
1.05178
0.850613
0.6726
2.30552
2.35253
2.47618
2.5255
2.22195
1.6242
1.17906
1.06473
1.29954
2.02626
8.1516
7.21365
5.95996
3.36029
0.131424
5.59646
6.92769
8.23562
8.9853
9.50953
7.91319
6.91524
5.70495
2.62157
0.563633
5.54549
6.88906
8.16747
8.92155
9.46569
7.40176
6.30738
5.20479
1.41542
1.59975
5.36181
6.80726
8.01932
8.78288
9.36623
6.56874
5.4186
4.23616
0.726236
2.73173
5.18165
6.65218
7.77343
8.54538
9.18353
5.38932
4.31239
2.63253
0.971045
3.35668
5.02049
6.37338
7.40297
8.17424
8.86981
3.97967
3.0413
1.31006
1.71335
3.42675
4.75613
5.91235
6.8724
7.63109
8.35342
2.5408
1.65317
1.1873
2.13305
3.25084
4.28286
5.21868
6.15446
6.89934
7.54128
1.21711
1.08764
1.45205
2.10743
2.88039
3.50293
4.21735
5.28182
6.0433
6.33602
0.671548
1.15322
1.40746
1.84256
2.23203
2.40026
2.9838
4.47898
5.24316
4.65574
0.885293
1.10281
1.24762
1.41313
1.4641
1.36923
1.94338
4.02583
4.56456
2.71706
2.08942
0.543241
1.05978
0.632904
0.666721
0.759866
0.632462
0.299863
0.062697
0.356713
1.62945
0.237152
0.86801
0.482947
0.572833
0.682199
0.592777
0.356449
0.266503
0.488857
1.33342
0.0580078
0.639762
0.34504
0.484068
0.602265
0.560906
0.459408
0.473496
0.591462
1.09687
0.0148862
0.391356
0.237092
0.398928
0.518035
0.560812
0.625789
0.731902
0.75835
0.846311
0.0903888
0.188462
0.162919
0.320313
0.44087
0.607146
0.803829
0.97261
0.976548
0.633947
0.155133
0.051711
0.106249
0.247311
0.384706
0.692196
0.971823
1.19002
1.22228
0.461491
0.20993
0.0506836
0.051481
0.182493
0.362918
0.784108
1.11297
1.38003
1.47642
0.328753
0.211489
0.105353
0.0104567
0.122132
0.370221
0.854698
1.22687
1.54959
1.72924
0.229629
0.197339
0.11582
0.0372411
0.0615851
0.384092
0.894324
1.31954
1.70188
1.96895
0.158078
0.175066
0.119016
0.0515198
0.0248291
0.387632
0.910171
1.39965
1.8349
2.1924
9.33656
6.77029
2.66566
1.70173
1.20566
1.12421
0.968692
0.784051
0.797514
2.03335
8.2109
4.63638
2.2154
1.41996
1.07367
1.03907
0.894408
0.653036
0.528892
1.39869
6.12009
3.06387
1.78545
1.21288
0.969191
0.97438
0.834725
0.562811
0.329569
0.740954
4.13296
1.87579
1.49712
1.0066
0.863579
0.906762
0.777595
0.488769
0.229323
0.224596
2.83516
1.06128
1.24553
0.806377
0.760692
0.828467
0.686817
0.356615
0.0444346
0.397868
3.54772
4.58907
5.76311
6.8734
7.78033
8.43861
8.87381
9.14143
9.29028
9.3547
2.78087
3.84094
4.95221
6.10774
7.13574
7.94143
8.5118
8.88128
9.09577
9.19249
1.92833
3.07179
4.16205
5.36655
6.51348
7.46051
8.16054
8.62646
8.90024
9.02386
1.05509
2.20279
3.28142
4.54662
5.80992
6.90384
7.74671
8.32096
8.66199
8.81624
0.300325
0.962139
2.06363
3.33729
4.78502
6.10882
7.17537
7.9248
8.37895
8.58734
)
;

boundaryField
{
    left
    {
        type            calculated;
        value           nonuniform List<scalar> 
35
(
0.299344
0.569951
0.989772
1.62654
2.52411
3.69512
5.0659
6.47613
8.15853
9.4418
0.206422
0.126692
0.0758547
0.0464761
0.0319215
0.0273655
0.0320296
0.0503208
0.0902574
0.15929
4.93339
4.06141
3.23436
2.51253
1.91666
1.42631
1.02926
0.721886
0.491772
0.324292
9.61572
8.97909
7.9221
6.84785
5.85947
)
;
    }
    right
    {
        type            calculated;
        value           nonuniform List<scalar> 
35
(
1.03253
0.973986
0.926099
0.874432
0.822757
0.771229
0.719584
0.666263
0.611334
0.554746
0.496352
0.436056
0.373372
0.308826
0.240357
0.172511
0.0950346
0.0217752
0.0109688
0.0108791
0.0108413
0.0117042
0.0375027
0.138651
0.217415
0.306815
0.406177
0.484259
0.550655
0.603299
0.645871
0.680425
0.710947
0.736556
0.76873
)
;
    }
    down
    {
        type            calculated;
        value           nonuniform List<scalar> 
40
(
9.4543
7.26629
2.89653
1.79075
1.24616
1.15266
0.994415
0.825692
0.898576
2.26055
3.83287
4.88235
6.03382
7.09274
7.9445
8.55493
8.95441
9.1992
9.3356
9.39484
9.39474
9.33532
9.19868
8.95354
8.5536
7.94257
7.08983
6.02864
4.87305
3.81872
2.23204
0.847072
0.759671
0.993658
1.22354
1.30672
1.27823
1.20254
1.13413
1.05179
)
;
    }
    up
    {
        type            calculated;
        value           nonuniform List<scalar> 
40
(
9.0341
7.80887
6.16788
4.3952
3.03407
2.12228
1.52771
1.15228
0.943545
0.782214
9.72927
9.72305
9.71045
9.69064
9.66234
9.62377
9.57263
9.50586
9.42075
9.32814
9.33503
9.42654
9.51038
9.57622
9.62664
9.66461
9.69238
9.71168
9.72379
9.72951
9.27073
7.09639
3.23977
2.16052
2.24423
3.02268
4.34946
6.14939
7.8137
9.04492
)
;
    }
    cylinder
    {
        type            calculated;
        value           nonuniform List<scalar> 
80
(
1.97345
4.53935
5.51878
5.76875
6.3008
7.08925
7.86147
8.47471
8.91245
9.21291
9.44581
9.61872
9.72982
9.7983
9.84096
9.86846
9.8865
9.89817
9.90522
9.90869
9.50042
9.65062
9.74903
9.81047
9.849
9.87389
9.89016
9.90055
9.90657
9.90913
5.30526
6.22641
6.20814
6.31247
6.83213
7.52549
8.1758
8.6859
9.05067
9.30253
0.994759
0.471834
0.26435
0.183316
0.159763
0.165701
0.0829236
0.0421563
0.747601
2.4105
9.59443
9.55585
9.46741
9.30182
9.00973
8.51129
7.68619
6.3666
4.38762
2.23941
9.59433
9.55553
9.4668
9.30074
9.00786
8.50811
7.68043
6.3544
4.35807
2.19121
0.95269
0.442174
0.244266
0.170802
0.150294
0.165476
0.162045
0.0845454
0.043369
0.725643
)
;
    }
    defaultFaces
    {
        type            empty;
    }
}


// ************************************************************************* //
