/*--------------------------------*- C++ -*----------------------------------*\
  =========                 |
  \\      /  F ield         | OpenFOAM: The Open Source CFD Toolbox
   \\    /   O peration     | Website:  https://openfoam.org
    \\  /    A nd           | Version:  13
     \\/     M anipulation  |
\*---------------------------------------------------------------------------*/
FoamFile
{
    format      ascii;
    class       volScalarField;
    location    "1.02";
    object      p;
}
// * * * * * * * * * * * * * * * * * * * * * * * * * * * * * * * * * * * * * //

dimensions      [0 2 -2 0 0 0 0];

internalField   nonuniform List<scalar> 
440
(
-1.32108
-1.30878
-1.25461
-1.13005
-0.973781
-1.55585
-1.52833
-1.43508
-1.27771
-1.11124
-1.75271
-1.70119
-1.55245
-1.36009
-1.1699
-1.88254
-1.79643
-1.59473
-1.37757
-1.18237
-1.91325
-1.77667
-1.53611
-1.302
-1.09957
-0.136381
-0.125468
-0.097697
-0.047495
0.0175039
-0.29544
-0.285802
-0.261436
-0.208846
-0.121195
-0.531188
-0.521608
-0.508488
-0.450678
-0.34298
-0.801004
-0.795501
-0.778145
-0.71581
-0.594151
-1.06788
-1.06196
-1.03539
-0.950947
-0.81204
0.215337
0.0617083
0.0670935
0.0423125
0.0136514
0.18366
0.0509101
0.0641584
0.0408491
0.0131122
0.123569
0.0436693
0.0599296
0.0389286
0.0125145
0.0185189
0.0381195
0.0548179
0.0365183
0.0118781
-0.133157
0.0292606
0.0492822
0.0336513
0.0111372
-0.230025
0.0190616
0.0421435
0.0290904
0.00994451
-0.241335
-0.012826
0.0191914
0.0185367
0.00697059
-0.217426
-0.0162831
0.0158263
0.0145685
0.0054201
-0.216856
-0.0399188
0.00345479
0.00796126
0.00321611
-0.214396
-0.0526809
-0.004806
0.00391689
0.00196293
-0.783038
-0.861045
-0.861871
-0.834352
-0.753173
-0.534365
-0.610532
-0.63647
-0.623612
-0.587759
-0.372777
-0.441937
-0.47114
-0.460888
-0.432279
-0.274832
-0.33938
-0.369351
-0.36686
-0.345077
-0.219906
-0.288546
-0.324215
-0.327513
-0.310996
0.461987
0.328931
0.164877
-0.022886
-0.238353
0.0809757
-0.0679526
-0.253003
-0.469218
-0.720631
-0.319436
-0.483801
-0.690949
-0.924725
-1.19049
-0.668418
-0.848373
-1.07771
-1.32878
-1.56614
-0.937022
-1.13135
-1.36897
-1.62232
-1.81449
1.67134
1.6957
1.72206
1.73977
1.74292
1.48557
1.49958
1.51115
1.50933
1.48983
1.24773
1.24135
1.21802
1.17509
1.11022
0.98777
0.958573
0.900136
0.814736
0.703817
0.725967
0.645095
0.535216
0.401763
0.239585
1.54555
1.36173
1.52305
1.46649
1.59791
1.53389
1.34781
1.50271
1.43304
1.50877
1.52267
1.33241
1.48027
1.3898
1.393
1.51209
1.31598
1.45597
1.33723
1.22153
1.50266
1.2989
1.43104
1.27503
1.0351
1.49206
1.2771
1.39518
1.1814
0.832151
1.48358
1.25411
1.36481
1.10025
0.827804
1.48368
1.23642
1.34249
1.04479
0.823065
1.4816
1.22218
1.32766
1.00462
0.831339
1.50712
1.21932
1.31985
0.982319
0.835339
0.450096
0.164488
-0.164557
-0.44545
-0.657311
0.389283
0.191551
-0.0328526
-0.243461
-0.414981
0.385986
0.215218
0.0462406
-0.118385
-0.260034
0.41371
0.25095
0.100396
-0.0414297
-0.167835
0.432136
0.2759
0.135147
0.00442585
-0.114782
-1.65745
-1.47737
-1.28816
-1.12748
-1.02952
-1.67174
-1.59505
-1.43785
-1.28361
-1.17162
-1.54129
-1.5027
-1.3939
-1.27436
-1.15723
-1.37117
-1.33845
-1.29453
-1.21904
-1.12266
-1.21852
-1.20525
-1.2056
-1.15656
-1.02618
-1.07827
-1.09029
-1.1127
-1.13167
-0.983911
-0.797021
-0.805541
-0.811598
-0.844267
-0.664063
-0.429496
-0.420968
-0.401844
-0.358234
-0.229312
-0.181918
-0.166839
-0.133888
-0.0738378
0.0130152
-0.0896455
-0.0774781
-0.048513
0.0012764
0.0598574
-0.0938509
0.0291005
0.0579932
0.0428669
0.0154392
0.0893579
0.0383965
0.0711021
0.0460269
0.0153063
0.170783
0.0399507
0.0668663
0.0443867
0.0147988
0.201224
0.058463
0.070348
0.044375
0.0145215
0.224965
0.0657462
0.0688605
0.0433956
0.0141063
-0.365748
-0.0976912
0.0340535
0.038796
0.015234
-0.287397
0.0317185
0.0816323
0.0521015
0.0171113
-0.978024
-1.07835
-1.12294
-0.924967
-0.734926
-0.99427
-1.1067
-1.09193
-0.968005
-0.749493
1.46499
1.43405
1.38822
1.32792
1.24848
1.61388
1.63131
1.63644
1.62588
1.59945
1.74007
1.76346
1.78075
1.78643
1.77946
1.79212
1.82369
1.85918
1.8893
1.90345
1.77366
1.80477
1.84052
1.87096
1.88503
-0.608603
-0.719032
-0.894191
-1.10327
-1.38248
-0.0102802
-0.147766
-0.330523
-0.556919
-0.862812
0.531676
0.390035
0.221337
0.0179385
-0.247157
0.969356
0.860296
0.726262
0.560537
0.357772
1.30052
1.22375
1.12084
0.995139
0.848267
1.60671
1.40348
1.583
1.50421
1.59784
1.59363
1.39904
1.57512
1.51397
1.62352
1.5815
1.39256
1.5673
1.51469
1.68728
1.56946
1.38427
1.55546
1.50755
1.6725
1.55745
1.37394
1.54072
1.4912
1.6522
1.65196
1.41223
1.58096
1.45737
1.5035
1.61662
1.40464
1.5781
1.4792
1.49534
1.17336
0.974161
0.603664
0.0441406
-0.574452
1.26827
1.01036
0.613963
0.0597231
-0.568943
)
;

boundaryField
{
    left
    {
        type            zeroGradient;
    }
    right
    {
        type            fixedValue;
        value           uniform 0;
    }
    down
    {
        type            zeroGradient;
    }
    up
    {
        type            zeroGradient;
    }
    cylinder
    {
        type            zeroGradient;
    }
    defaultFaces
    {
        type            empty;
    }
}


// ************************************************************************* //
