/*--------------------------------*- C++ -*----------------------------------*\
  =========                 |
  \\      /  F ield         | OpenFOAM: The Open Source CFD Toolbox
   \\    /   O peration     | Website:  https://openfoam.org
    \\  /    A nd           | Version:  13
     \\/     M anipulation  |
\*---------------------------------------------------------------------------*/
FoamFile
{
    format      ascii;
    class       volScalarField;
    location    "0.17";
    object      strainRateViscosityModel:nu;
}
// * * * * * * * * * * * * * * * * * * * * * * * * * * * * * * * * * * * * * //

dimensions      [0 2 -1 0 0 0 0];

internalField   nonuniform List<scalar> 
440
(
9.41949
8.96981
8.5444
8.04134
7.5829
9.68995
9.35826
8.98194
8.48006
7.87493
9.80075
9.5309
9.1589
8.58528
7.84835
9.84964
9.61822
9.25874
8.64778
7.86636
9.86919
9.65612
9.30601
8.68112
7.90901
1.30128
1.75947
2.0068
2.25249
2.31785
3.39188
3.29617
3.29795
3.39822
3.4693
5.89701
5.27813
4.92825
4.71935
4.74614
7.77176
6.99757
6.42279
5.9018
5.82062
8.82093
8.15215
7.5523
6.91577
6.86634
1.82085
0.768013
0.223884
0.0250564
0.0103556
2.61071
0.89709
0.210955
0.0272148
0.0104693
3.51509
1.18941
0.220148
0.0287232
0.0106045
4.09156
1.51382
0.265088
0.0281736
0.0106704
4.5971
1.84198
0.373226
0.0338991
0.0105885
4.25639
1.85871
0.324249
0.017942
0.0116215
3.71595
1.67899
0.333621
0.170137
0.262355
4.91212
3.13171
1.18816
0.803397
0.836592
7.01301
4.25922
1.89425
1.16621
1.0847
8.27189
5.06868
2.56538
1.65534
1.38019
2.84915
3.68314
4.62026
5.50602
6.1482
3.68446
3.69657
3.77081
3.85013
3.36462
8.22737
8.0875
7.80032
7.38594
6.34448
9.05314
8.99268
8.85958
8.62244
8.1616
9.60671
9.56994
9.48698
9.3379
9.11844
7.50391
8.01226
8.55879
9.01066
9.46447
7.79409
8.45116
8.98663
9.37772
9.70872
7.77888
8.55876
9.1592
9.54071
9.80946
7.81626
8.62754
9.25737
9.62276
9.8536
7.89144
8.67377
9.30541
9.65747
9.87036
2.43552
2.37608
2.18165
2.03903
1.97034
3.44808
3.39729
3.43351
3.64599
4.16478
4.65011
4.66894
5.04934
5.58636
6.41699
5.70298
5.84028
6.50345
7.18726
8.03482
6.7619
6.8478
7.58245
8.2432
8.93548
0.0925421
0.0378371
0.166103
0.686543
1.9391
0.0712193
0.0543466
0.160263
0.784588
2.64628
0.060086
0.0794811
0.166322
1.07522
3.4759
0.0509763
0.114487
0.209218
1.43741
3.98993
0.0592026
0.155112
0.323126
1.79748
4.40486
0.123498
0.211072
0.326334
1.94029
4.15353
0.282484
0.198021
0.136852
1.62083
3.84498
0.536188
0.522875
0.813692
2.94208
4.8813
2.19948
1.13748
1.62114
4.13927
6.96231
5.03086
2.77801
2.56363
5.05205
8.27835
5.96193
5.27894
4.41102
3.51562
2.78229
3.51322
3.98096
3.96282
3.87148
3.76253
6.31452
7.35132
7.77995
8.06899
8.21953
8.12317
8.6013
8.85031
8.9891
9.05231
9.11648
9.33754
9.48728
9.57046
9.60695
9.31
7.9153
1.39814
3.62808
7.73511
9.08068
7.43889
3.20484
1.63919
6.78688
8.39669
6.57494
4.20614
1.00391
4.14334
6.81295
5.09054
3.45073
1.70504
1.03545
4.50345
3.1387
2.03397
1.38178
0.46559
2.60517
1.61955
1.01328
0.822514
0.9495
1.45516
0.785972
0.61099
0.657464
0.728675
0.756279
0.419377
0.627188
0.795121
0.868818
0.267132
0.51747
0.873586
1.04404
1.10451
0.168719
0.903446
1.23763
1.4732
1.52883
0.200202
0.372399
0.699513
0.824414
0.869407
0.432431
0.488698
0.52698
0.620981
0.662601
0.643474
0.611132
0.351564
0.36564
0.404402
0.958415
0.720555
0.264731
0.111473
0.0819197
1.29283
0.743657
0.233361
0.0323138
0.0119748
1.12353
0.910709
1.17777
1.27256
1.29701
0.26721
0.509516
0.892814
1.03377
1.07809
9.19016
8.83727
7.75656
5.72919
3.56064
8.58586
7.72093
5.84832
3.48646
0.854784
0.983539
0.884647
1.04402
1.62408
2.6625
0.855672
0.811722
0.740411
0.835815
1.50923
1.07811
1.02852
0.865488
0.566143
0.688668
1.33802
1.29806
1.10053
0.761619
0.194847
1.75275
1.70495
1.46111
1.16188
0.588246
7.73464
3.62502
1.39942
7.91353
9.31014
6.78304
1.63895
3.20153
7.43576
9.08132
4.1297
1.01124
4.19231
6.5703
8.39831
1.03275
1.7106
3.43017
5.08153
6.81952
0.480509
1.38266
2.0134
3.12213
4.52572
1.23454
0.708585
0.608162
0.450149
0.184603
0.566461
0.488518
0.474118
0.513534
0.525965
0.303545
0.149082
0.321352
0.592726
0.814812
0.210081
0.0180509
0.228445
0.676265
1.16785
0.136538
0.030686
0.173279
0.683646
1.48154
5.4602
2.58706
1.16014
1.01715
1.16015
2.83259
1.24872
0.821725
0.58405
0.241169
3.57005
5.73493
7.75778
8.8378
9.19031
0.833154
3.46718
5.8418
7.71956
8.58571
)
;

boundaryField
{
    left
    {
        type            calculated;
        value           nonuniform List<scalar> 
17
(
0.374129
0.91696
2.05905
3.88392
6.57566
0.308902
0.249971
0.22621
0.216059
0.237948
2.92117
1.94669
1.17499
0.701744
0.440426
6.97271
4.5639
)
;
    }
    right
    {
        type            calculated;
        value           nonuniform List<scalar> 
17
(
1.29776
1.07741
0.86626
0.657316
0.396704
0.0761754
0.0112116
0.010117
0.0101403
0.0101675
0.0101739
0.0101175
0.0134363
0.292676
0.873731
1.10301
1.3738
)
;
    }
    down
    {
        type            calculated;
        value           nonuniform List<scalar> 
20
(
5.97617
3.10343
1.26554
1.10304
1.85912
4.268
6.38166
8.12927
9.01455
9.30837
9.3082
9.01391
8.12772
6.37737
4.26055
1.83544
0.985041
1.24739
1.338
1.35655
)
;
    }
    up
    {
        type            calculated;
        value           nonuniform List<scalar> 
20
(
8.54691
5.3936
2.78384
1.78387
1.44992
9.69563
9.66614
9.59851
9.47401
9.29292
9.29572
9.47611
9.60002
9.6672
9.69602
5.68274
3.34675
2.80409
5.40654
8.56372
)
;
    }
    cylinder
    {
        type            calculated;
        value           nonuniform List<scalar> 
40
(
1.37646
3.59388
6.12063
7.96173
8.95714
9.50504
9.74575
9.84079
9.88146
9.89747
9.54781
9.76293
9.84857
9.88497
9.8985
2.19707
4.43298
6.66136
8.22794
9.07021
3.05209
1.83972
1.03366
0.362214
0.612555
9.51839
9.33096
8.74064
7.26744
4.98641
9.51822
9.33021
8.73852
7.25905
4.9581
2.97718
1.74053
1.03723
0.606219
0.0872677
)
;
    }
    defaultFaces
    {
        type            empty;
    }
}


// ************************************************************************* //
