# Selection   : all
# Cells       : 440
# Volume      : 7.374263e+01
# Time        	max(p)
6.915         	2.470580e+00
6.96          	2.474042e+00
7.01          	2.483811e+00
