/*--------------------------------*- C++ -*----------------------------------*\
  =========                 |
  \\      /  F ield         | OpenFOAM: The Open Source CFD Toolbox
   \\    /   O peration     | Website:  https://openfoam.org
    \\  /    A nd           | Version:  13
     \\/     M anipulation  |
\*---------------------------------------------------------------------------*/
FoamFile
{
    format      ascii;
    class       surfaceScalarField;
    location    "0.71";
    object      phi;
}
// * * * * * * * * * * * * * * * * * * * * * * * * * * * * * * * * * * * * * //

dimensions      [0 3 -1 0 0 0 0];

internalField   nonuniform List<scalar> 
823
(
0.0113779
-0.0505542
0.0391763
0.0387589
-0.133435
0.106054
0.0788326
-0.205877
0.165804
0.130172
-0.268869
0.21753
-0.323258
0.259414
0.194016
0.0107031
-0.0612573
0.0361433
-0.158876
0.0726483
-0.242382
0.117973
-0.314194
-0.3756
0.170314
0.00837704
-0.0696344
0.0282851
-0.178784
0.0567257
-0.270823
0.0918105
-0.349279
-0.41605
0.132261
0.00529927
-0.0749336
0.0179956
-0.19148
0.0362296
-0.289057
0.058884
-0.371933
-0.442414
0.0852484
0.00196197
-0.0768956
0.00663003
-0.196148
0.0132897
-0.295717
0.021522
-0.380165
0.0310623
-0.451955
0.00663777
-0.010756
0.00411808
0.0221666
-0.0309174
0.0153885
0.0453644
-0.0485103
0.0253125
0.0745077
-0.0639505
0.0348071
-0.0770411
0.108158
0.0433913
0.00574785
-0.0165039
0.0214611
-0.0466307
0.0466612
-0.0737104
0.0796947
-0.0969839
-0.116102
0.118755
0.00639093
-0.0228949
0.0236475
-0.0638873
0.0512151
-0.101278
0.0878843
-0.133653
-0.160122
0.131904
0.00753579
-0.0304307
0.0270856
-0.0834371
0.057312
-0.131504
0.0970142
-0.173355
-0.207899
0.144792
0.00874567
0.031363
0.0656625
0.109837
0.161352
0.322501
-0.957778
0.743435
0.474477
-0.82278
0.670803
0.574037
-0.354604
0.255044
0.615244
-0.0668839
0.0256776
0.00366439
-0.00821625
0.330314
-1.16934
0.471015
-0.96348
0.575874
-0.459464
0.637053
-0.128062
-0.0169627
0.33648
-1.37391
0.460954
-1.08795
0.563307
-0.561817
0.633519
-0.198274
-0.0484836
0.337396
-1.56652
0.448004
-1.19856
0.540645
-0.654458
0.614037
-0.271666
-0.0870796
0.327713
-1.73288
0.428122
-1.29897
0.508707
-0.735043
0.574646
-0.337605
-0.120741
1.19774
-1.59032
-1.3403
1.00781
-1.10904
0.889312
-0.616545
0.836239
-0.284532
-0.0989873
1.3298
-1.13303
-1.7871
0.981993
-0.76123
0.773733
-0.408285
0.683361
-0.194161
-0.0701301
1.18944
-0.60765
-1.71482
0.816283
-0.38807
0.610497
-0.202499
0.515362
-0.0990251
-0.0374096
0.822367
-0.185288
-1.24473
0.545343
-0.111046
0.396369
-0.0535254
0.324255
-0.0269113
-0.011057
0.306716
-0.492004
0.195671
0.142145
0.115234
1.56259
0.0462501
-1.57778
1.52169
0.126156
1.46266
0.191287
1.39633
0.236642
0.25005
1.67586
0.0356513
-1.66526
1.69932
0.102695
1.73081
0.159797
1.76528
0.202171
0.228234
1.38797
0.0184774
-1.37079
1.43706
0.0536078
1.51387
0.0829773
1.61015
0.105893
0.12357
0.977699
0.00531449
-0.964536
1.01588
0.0154232
1.07582
0.0230446
1.15388
0.0278276
0.0327218
0.392987
-0.387673
0.40841
0.431455
0.459283
0.128771
0.327626
-0.264668
-0.191729
0.0781584
0.273214
-0.222602
0.0385243
0.209793
-0.170159
0.0113401
0.136443
-0.109259
0.0519531
-0.040613
0.115952
0.378905
-0.167231
0.0714976
0.317668
0.0356186
0.245672
0.0105612
0.161501
0.0625143
0.0888492
0.418274
-0.128218
0.0548109
0.351707
0.0272878
0.273195
0.00806498
0.180724
0.0705793
0.0552408
0.443533
-0.0804999
0.0337631
0.373184
0.016655
0.290303
0.0048643
0.192514
0.0754435
0.0174806
-0.0259022
0.0104998
0.00508593
0.00145207
0.072637
0.0873384
-0.10727
-0.0527049
0.0428882
0.0737165
-0.0439675
0.019735
0.0569455
-0.0337923
0.00513746
0.0368127
-0.0222152
0.0132966
-0.00815909
0.0760186
0.125917
-0.114598
0.0437177
0.106017
0.0196413
0.081022
0.00508963
0.0513643
0.0183862
0.0843892
0.168569
-0.127041
0.0490823
0.141324
0.02273
0.107374
0.00617232
0.067922
0.0245586
0.0940545
0.214686
-0.140171
0.0557684
0.17961
0.026525
0.136618
0.00742788
0.0870191
0.0319865
0.107399
-0.157381
0.0644077
0.0308666
0.00862655
0.513263
0.175491
-0.292775
0.562601
0.16128
-0.210618
0.496894
0.313401
-0.247695
0.334946
0.803166
-0.641218
1.04146
-0.813784
0.513648
0.0578229
0.560374
0.114555
0.487584
0.386192
0.33136
0.959389
1.25822
0.513788
-0.059985
0.547118
0.0812243
0.466987
0.466322
0.32809
1.09829
1.45927
0.510153
-0.174159
0.525714
0.0656642
0.441935
0.5501
0.323869
1.21635
1.64297
0.498933
-0.277112
0.494584
0.0700127
0.41269
0.631994
0.312027
1.31702
1.79762
0.764291
-0.437382
0.844678
-0.0103738
0.956392
0.52028
1.16944
1.10397
1.61949
1.34756
0.707229
-0.540591
0.781989
-0.0851337
0.954624
0.347645
1.29772
0.760869
1.14345
1.77376
0.602261
-0.538831
0.633068
-0.115941
0.803544
0.177169
1.17252
0.391898
0.612035
1.70393
0.448456
-0.383267
0.405488
-0.0729725
0.536076
0.0465809
0.816005
0.111969
0.186913
1.24113
0.220753
0.14778
0.194361
0.30633
0.493243
1.40259
-0.246756
1.46574
-0.230384
1.523
-0.18547
1.56316
-0.120661
-0.040527
1.75266
-0.225655
1.71974
-0.197464
1.69062
-0.156349
1.67084
-0.10088
-0.0349535
1.60147
-0.123191
1.50876
-0.104754
1.43456
-0.0821484
1.38705
-0.053372
-0.018695
1.15107
-0.033133
1.0743
-0.0279884
1.0153
-0.0231435
0.977571
-0.0156449
-0.00566008
0.46011
0.432121
0.408978
0.393333
0.00250153
0.0430084
-0.04551
0.0073283
0.101056
-0.105883
0.0160959
0.148402
-0.157169
0.0165793
0.151916
-0.1524
0.114033
0.0148149
-0.112269
0.00682877
0.0361797
0.0201789
0.0877057
0.0409598
0.127621
0.0482574
0.144619
0.116387
0.0459038
0.0088098
0.0273699
0.0270781
0.0694373
0.0521533
0.102546
0.0730954
0.123677
0.11404
0.0754417
0.00780172
0.0195681
0.0255148
0.0517242
0.0497507
0.0783098
0.077434
0.0959933
0.0992478
0.0922267
0.00509908
0.0144691
0.0179738
0.0388495
0.0367677
0.0595159
0.0600108
0.0727502
0.0767485
0.0825101
0.00342382
0.0110452
0.0125805
0.0296929
0.0274437
0.0446527
0.0470581
0.0531357
0.0561553
0.0676513
0.00222257
0.00882266
0.00893035
0.0229851
0.0222674
0.0313156
0.0410186
0.0343844
0.0347703
0.0624035
0.00167424
0.00714843
0.0101316
0.0145277
0.0261914
0.0152557
0.0467492
0.0138266
0.0115183
0.0700011
0.00374932
0.0033991
0.0175534
0.000723575
0.0368949
-0.00408592
0.0599201
-0.00919875
-0.0143953
0.0858335
0.00751704
0.0236291
0.0448556
0.0704639
0.0994599
0.153825
0.0197905
-0.105964
0.2434
-0.130347
0.0407721
0.264738
-0.0380196
0.0166809
0.269696
0.00389531
-0.00885272
-0.00138779
-0.00476062
0.214815
-0.132621
0.325318
-0.240851
0.351443
-0.0641443
0.353877
0.00146144
-0.00392277
0.260162
-0.322782
0.391472
-0.372162
0.433671
-0.106343
0.434739
0.000393487
-0.00175558
0.293434
-0.530383
0.438853
-0.51758
0.502744
-0.170234
0.508633
-0.00549528
0.00373145
0.312513
0.465736
0.550546
0.570728
0.0706715
0.0386747
-0.109346
0.0786481
-0.00797664
0.0829695
-0.00432134
0.0803605
0.00260898
0.00118441
0.194105
-0.261395
0.2269
0.239259
0.233015
0.0207328
-0.00433167
-0.0164011
0.0342836
-0.0135507
0.0567629
-0.0224793
0.0856231
-0.0288602
-0.0237231
0.0539256
-0.0434424
0.0862787
0.139241
0.202608
0.0478293
-0.0551492
0.0763545
-0.0690346
0.027557
-0.0521694
0.0724416
0.0123374
-0.0443802
0.0595998
0.00331805
-0.0300417
0.039061
-0.011261
0.0145791
0.0453853
-0.0322677
-0.0682668
0.0249582
-0.0317423
0.00982129
-0.0292432
0.00218954
-0.0224099
-0.00907146
0.0560577
-0.00668545
-0.08164
0.0331218
-0.00880641
0.0142756
-0.0103971
0.0025879
-0.0107222
-0.00648354
0.0701116
0.0215616
-0.0983586
0.0448356
0.0164697
0.023367
0.0110715
0.00692193
0.00572288
0.000438376
0.0744315
-0.105575
0.0469338
0.0242131
0.00772076
0.0165859
-0.114032
-0.0148232
0.0160951
-0.151909
0.00730699
-0.148381
0.00248926
-0.101065
-0.0430207
0.0482731
-0.116376
-0.0459285
0.0409337
-0.144569
0.0201649
-0.127613
0.00682157
-0.0877216
-0.0361991
0.0731269
-0.11397
-0.0755329
0.0521256
-0.123568
0.0270664
-0.102553
0.00880673
-0.0694619
-0.0273924
0.0773417
-0.098972
-0.0923398
0.049623
-0.0958492
0.0254345
-0.078365
0.00777601
-0.0518033
-0.0196164
0.0599524
-0.0825698
0.0365448
0.0177797
0.00503734
0.341911
0.583369
-0.529301
0.280517
0.225105
-0.16371
0.247426
0.0548897
-0.021799
0.165305
0.113596
-0.0314747
-0.000951359
0.0972211
0.407762
0.571587
0.371349
0.261518
0.335613
0.0906251
0.233554
0.215655
0.164336
0.459797
0.50777
0.451367
0.269948
0.40923
0.132763
0.283768
0.341117
0.366464
0.495203
0.408546
0.514493
0.250658
0.461455
0.185801
0.317885
0.484688
0.58599
0.511751
0.551791
0.489898
0.333368
0.158667
0.351384
0.0847699
0.0738972
0.0800092
0.0047607
0.0724304
0.00757869
-0.036969
0.109399
0.332134
0.242321
0.225283
0.201387
0.261639
0.085673
0.0237264
0.0567947
0.0288782
0.0342946
0.0225001
0.0207363
0.0135583
0.00433516
0.202795
0.139333
0.0863007
0.0539305
)
;

boundaryField
{
    left
    {
        type            calculated;
        value           nonuniform List<scalar> 
17
(
-0.60402
-0.60402
-0.60402
-0.60402
-0.60402
-0.39598
-0.39598
-0.39598
-0.39598
-0.39598
-0.39598
-0.39598
-0.39598
-0.39598
-0.39598
-0.510051
-0.510051
)
;
    }
    right
    {
        type            calculated;
        value           nonuniform List<scalar> 
17
(
0.0791761
0.229439
0.275844
0.356412
0.432572
0.503146
0.566243
0.619796
0.65768
0.66504
0.652633
0.608307
0.814485
0.654504
0.482641
0.297903
0.104177
)
;
    }
    down
    {
        type            calculated;
        value           uniform 0;
    }
    up
    {
        type            calculated;
        value           uniform 0;
    }
    cylinder
    {
        type            calculated;
        value           uniform 0;
    }
    defaultFaces
    {
        type            empty;
    }
}


// ************************************************************************* //
