/*--------------------------------*- C++ -*----------------------------------*\
  =========                 |
  \\      /  F ield         | OpenFOAM: The Open Source CFD Toolbox
   \\    /   O peration     | Website:  https://openfoam.org
    \\  /    A nd           | Version:  13
     \\/     M anipulation  |
\*---------------------------------------------------------------------------*/
FoamFile
{
    format      ascii;
    class       surfaceScalarField;
    location    "0.5675";
    object      phi;
}
// * * * * * * * * * * * * * * * * * * * * * * * * * * * * * * * * * * * * * //

dimensions      [0 3 -1 0 0 0 0];

internalField   nonuniform List<scalar> 
3485
(
0.00206281
-0.0037848
0.00172199
0.00863509
-0.0563424
0.0497701
0.018039
-0.108828
0.0994241
0.0283469
-0.138051
0.127743
0.0385663
-0.148451
0.138232
0.0483931
-0.149341
0.139514
0.0577866
-0.146593
0.137199
0.0667452
-0.142796
0.133837
0.0752228
-0.13874
0.130262
-0.134486
0.12626
0.083449
0.00254563
-0.00633042
0.00954125
-0.063338
0.0189297
-0.118216
0.0288808
-0.148002
0.038633
-0.158203
0.0480799
-0.158788
0.0573261
-0.155839
0.0664978
-0.151967
0.0757827
-0.148025
-0.14425
0.0855473
0.00296762
-0.00929804
0.0102419
-0.0706123
0.0193684
-0.127343
0.0286065
-0.15724
0.0373827
-0.16698
0.0457033
-0.167108
0.0536994
-0.163835
0.0614729
-0.159741
0.069094
-0.155646
-0.15166
0.0765034
0.00340389
-0.0127019
0.0109129
-0.0781214
0.0197313
-0.136161
0.0282684
-0.165777
0.0361849
-0.174896
0.0436408
-0.174564
0.0508385
-0.171033
0.057901
-0.166803
0.0648936
-0.162639
-0.158711
0.0719449
0.00375531
-0.0164572
0.0113189
-0.0856849
0.0196071
-0.14445
0.0272085
-0.173378
0.0340153
-0.181703
0.040318
-0.180867
0.0463674
-0.177082
0.0522982
-0.172734
0.0581851
-0.168526
-0.164588
0.0640625
0.00404637
-0.0205036
0.0115133
-0.0931518
0.0191261
-0.152062
0.0256982
-0.17995
0.0313581
-0.187363
0.0365126
-0.186021
0.0414479
-0.182017
0.0462988
-0.177585
0.0511224
-0.173349
-0.169428
0.0559621
0.00422661
-0.0247302
0.0113937
-0.100319
0.0181394
-0.158808
0.0235393
-0.18535
0.0279479
-0.191771
0.0318655
-0.189939
0.0356009
-0.185753
0.0392871
-0.181271
0.0429761
-0.177038
-0.173144
0.0466922
0.0042858
-0.029016
0.0109515
-0.106985
0.0166605
-0.164517
0.0207913
-0.189481
0.0238962
-0.194876
0.0265402
-0.192583
0.029037
-0.18825
0.0315081
-0.183742
0.0339958
-0.179526
-0.175665
0.0365166
0.00419916
-0.0332152
0.0101572
-0.112943
0.0146742
-0.169034
0.0174694
-0.192276
0.0192364
-0.196643
0.0205852
-0.193932
0.0218217
-0.189486
0.0230534
-0.184974
0.0243163
-0.180789
-0.176969
0.0256206
0.00396391
-0.0371791
0.00902338
-0.118002
0.0122397
-0.17225
0.0136623
-0.193699
0.0140773
-0.197058
0.014131
-0.193986
0.0141058
-0.189461
0.0140957
-0.184964
0.0141236
-0.180817
0.014195
-0.177041
-0.000815047
0.000465229
0.000349818
0.00244168
-0.00817265
0.00491592
0.010893
-0.0179807
0.00952941
0.0226828
-0.024036
0.0122461
0.035925
-0.0265722
0.01333
0.0495214
-0.0271155
0.013519
0.0629808
-0.0267855
0.0133261
0.0761266
-0.0261516
0.0130058
0.0889191
-0.0254552
0.0126627
-0.0249751
0.101542
0.0123518
-0.000729728
0.00119496
0.00264436
-0.0115467
0.0111521
-0.0264884
0.0229241
-0.035808
0.0360957
-0.0397438
0.0495932
-0.0406129
0.0629416
-0.0401339
0.0759738
-0.0391838
0.0886567
-0.0381381
-0.0374937
0.101175
-0.000604349
0.0017993
0.00293835
-0.0150894
0.0115315
-0.0350816
0.0232846
-0.0475611
0.0363628
-0.052822
0.0497263
-0.0539764
0.0629229
-0.0533305
0.0757977
-0.0520586
0.0883265
-0.0506669
-0.049862
0.100695
-0.00043112
0.00223042
0.00334382
-0.0188644
0.0120568
-0.0437945
0.0237895
-0.0592938
0.0367488
-0.0657813
0.0499407
-0.0671684
0.0629436
-0.0663334
0.0756186
-0.0647336
0.087952
-0.0630003
-0.0620368
0.100127
-0.000209746
0.00244017
0.00387287
-0.022947
0.0127449
-0.0526666
0.0244556
-0.0710045
0.0372692
-0.0785949
0.050253
-0.0801521
0.0630246
-0.079105
0.0754652
-0.0771742
0.0875723
-0.0751074
-0.0739804
0.0995159
4.44065e-05
0.00239576
0.0045263
-0.0274289
0.0135953
-0.0617356
0.0252757
-0.0826849
0.0379124
-0.0912316
0.0506515
-0.0928912
0.0631613
-0.0916148
0.0753476
-0.0893605
0.0872162
-0.086976
-0.0856598
0.0988956
0.000413916
0.00198185
0.00532998
-0.0323449
0.0145957
-0.0710014
0.0262098
-0.094299
0.0386167
-0.103638
0.051061
-0.105336
0.0632748
-0.103829
0.0751954
-0.101281
0.0868314
-0.0986119
-0.0970255
0.098197
0.000824684
0.00115716
0.0062191
-0.0377394
0.0156598
-0.080442
0.0271394
-0.105779
0.039227
-0.115726
0.0512842
-0.117393
0.0631189
-0.115663
0.0747087
-0.112871
0.0860569
-0.10996
-0.107911
0.0969422
0.00124564
-8.8471e-05
0.0070826
-0.0435763
0.0166038
-0.0899632
0.0278123
-0.116987
0.0394166
-0.12733
0.0509
-0.128876
0.0621383
-0.126902
0.0731362
-0.123869
0.0838682
-0.120692
-0.117851
0.0938087
0.00163352
0.00782731
0.0172882
0.0280438
0.0389453
0.0495833
0.059881
0.0698493
0.0794196
0.0878281
0.154822
-0.1526
0.0993202
0.18131
-0.108399
0.0819111
0.194592
-0.0810286
0.0677459
0.201143
-0.0613068
0.0547564
0.204107
-0.0462449
0.0432807
0.205029
-0.0343655
0.0334429
0.204756
-0.0248595
0.0251332
0.203746
-0.0170759
0.0180857
0.20228
-0.0109896
0.0124551
-0.00326717
0.00517756
0.153638
-0.205062
0.180296
-0.135057
0.193873
-0.094605
0.200679
-0.0681134
0.203844
-0.04941
0.204928
-0.0354491
0.204789
-0.024721
0.203903
-0.016189
0.202554
-0.00964125
-0.00147887
0.151654
-0.256022
0.178389
-0.161792
0.192313
-0.108529
0.199472
-0.0752726
0.20295
-0.052888
0.204317
-0.0368158
0.204441
-0.0248454
0.203807
-0.0155546
0.202708
-0.00854262
5.07919e-05
0.14886
-0.304754
0.175576
-0.188508
0.189911
-0.122864
0.197523
-0.082885
0.201428
-0.0567928
0.2032
-0.0385876
0.203713
-0.0253587
0.203462
-0.0153035
0.202745
-0.00782581
0.00118865
0.145257
-0.350496
0.17185
-0.215101
0.186669
-0.137683
0.194839
-0.0910545
0.199285
-0.0612393
0.201582
-0.0408845
0.202609
-0.0263853
0.202867
-0.0155614
0.20266
-0.00761974
0.00180052
0.140831
-0.392431
0.16719
-0.24146
0.182591
-0.153084
0.191428
-0.0998913
0.196532
-0.0663437
0.199473
-0.0438248
0.201133
-0.0280458
0.202024
-0.0164523
0.202456
-0.00805179
0.00175602
0.135502
-0.429737
0.161538
-0.267496
0.177662
-0.169208
0.187297
-0.109527
0.193182
-0.0722282
0.196884
-0.0475277
0.199297
-0.0304588
0.20094
-0.0180952
0.202132
-0.00924333
0.000928539
0.12917
-0.461965
0.15475
-0.293076
0.171805
-0.186262
0.182432
-0.120154
0.189238
-0.0790337
0.193824
-0.0521135
0.197108
-0.0337431
0.199621
-0.0206082
0.20169
-0.0113121
-0.000804824
0.121904
-0.49006
0.146639
-0.317811
0.1648
-0.204423
0.176715
-0.132069
0.18466
-0.086978
0.190285
-0.057739
0.194567
-0.0380254
0.198068
-0.0241087
0.201131
-0.0143754
-0.0035628
0.11467
-0.516902
0.138418
-0.341559
0.15693
-0.222936
0.170123
-0.145262
0.17939
-0.0962454
0.186239
-0.0645873
0.191671
-0.0434575
0.196283
-0.0287214
0.200456
-0.0185484
-0.00746116
0.377194
-0.457347
-0.436749
0.34582
-0.310185
0.330037
-0.207152
0.322525
-0.13775
0.318612
-0.0923325
0.316271
-0.0622466
0.314715
-0.0419015
0.313653
-0.0276591
0.312938
-0.0178333
-0.00716229
0.389605
-0.387883
-0.45907
0.355138
-0.275718
0.337732
-0.189747
0.328382
-0.1284
0.322779
-0.0867289
0.319177
-0.0586445
0.316765
-0.0394893
0.31515
-0.0260447
0.314094
-0.0167769
-0.00673103
0.405491
-0.323408
-0.469966
0.368298
-0.238524
0.346962
-0.168411
0.334592
-0.11603
0.326961
-0.0790972
0.322025
-0.0537087
0.318749
-0.0362138
0.316588
-0.0238835
0.315193
-0.0153818
-0.00616938
0.415717
-0.263652
-0.475473
0.377917
-0.200724
0.354481
-0.144974
0.339969
-0.101519
0.330697
-0.0698248
0.32461
-0.0476221
0.320565
-0.0321683
0.317906
-0.0212248
0.316197
-0.0136725
-0.00548451
0.42288
-0.208744
-0.477789
0.385438
-0.163282
0.360689
-0.120225
0.344558
-0.0853881
0.33395
-0.0592171
0.326888
-0.0405601
0.322174
-0.0274544
0.319076
-0.0181266
0.317086
-0.0116827
-0.00468828
0.427789
-0.158258
-0.478275
0.391121
-0.126614
0.365622
-0.0947259
0.348321
-0.0680877
0.336667
-0.0475632
0.328814
-0.032707
0.323543
-0.0221828
0.320074
-0.0146578
0.317845
-0.00945393
-0.00379588
0.431024
-0.111418
-0.477865
0.395238
-0.0908274
0.369358
-0.0688453
0.351253
-0.0499833
0.33882
-0.0351297
0.330352
-0.0242396
0.324639
-0.016469
0.320874
-0.0108933
0.31845
-0.00702992
-0.00282275
0.432662
-0.0669616
-0.477118
0.397658
-0.0558231
0.371676
-0.0428633
0.353109
-0.0314162
0.340171
-0.0221914
0.331288
-0.0153564
0.32527
-0.0104517
0.321297
-0.00692021
0.318732
-0.00446469
-0.00179006
0.426492
-0.0213464
-0.472107
0.392221
-0.0215519
0.366915
-0.0175581
0.348668
-0.0131693
0.335848
-0.00937037
0.326999
-0.00650831
0.320989
-0.0044413
0.31702
-0.00295115
0.314455
-0.00189937
-0.000756451
0.317103
-0.338449
0.295551
0.277993
0.264824
0.255453
0.248945
0.244504
0.241553
0.239653
0.470027
0.0125518
-0.468384
0.470916
0.0247311
0.470918
0.0365154
0.469924
0.0476863
0.467612
0.0582738
0.464727
0.066947
0.458577
0.0780948
0.455069
0.0800114
0.443138
0.097479
0.0898379
0.451328
0.0109322
-0.449709
0.453005
0.023054
0.454673
0.0348477
0.456364
0.0459951
0.457636
0.0570022
0.459263
0.0653199
0.459419
0.0779384
0.460602
0.0788287
0.461301
0.0967804
0.0920688
0.435103
0.00927631
-0.433447
0.437393
0.020764
0.440236
0.0320049
0.443636
0.0425952
0.447404
0.0532342
0.451568
0.0611559
0.456253
0.0732529
0.460187
0.0748955
0.466351
0.0906164
0.0884536
0.42271
0.00761659
-0.421051
0.425355
0.0181197
0.428936
0.0284236
0.433405
0.038126
0.43879
0.0478493
0.444654
0.0552916
0.452028
0.065879
0.458504
0.0684193
0.467848
0.0812728
0.0808286
0.413006
0.00595461
-0.411344
0.415909
0.0152171
0.420022
0.0243101
0.425258
0.0328905
0.431719
0.0413881
0.438873
0.0481375
0.447834
0.0569184
0.456321
0.0599316
0.467551
0.0700427
0.0705912
0.405673
0.00426997
-0.403988
0.40877
0.0121204
0.413251
0.0198292
0.419019
0.027122
0.426168
0.034239
0.434234
0.0400717
0.444091
0.0470615
0.45396
0.0500629
0.466289
0.0577135
0.0586054
0.400336
0.00254428
-0.39861
0.403597
0.00885892
0.408357
0.0150692
0.414517
0.020962
0.422118
0.0266381
0.430804
0.0313853
0.441167
0.0366986
0.451938
0.0392926
0.464834
0.0448169
0.0455746
0.39583
0.000607932
-0.393894
0.39937
0.00531947
0.404498
0.00994131
0.41111
0.0143495
0.419173
0.0185749
0.428407
0.0221511
0.439121
0.0259847
0.45049
0.0279235
0.463629
0.0316782
0.0320852
0.37857
-0.00132444
-0.376637
0.382637
0.0012517
0.388717
0.00386134
0.39664
0.00642706
0.40627
0.00894463
0.417255
0.0111659
0.429702
0.0135386
0.4428
0.0148245
0.457321
0.0171578
0.0172991
0.243979
-0.245303
0.24523
0.249092
0.255519
0.264463
0.275629
0.289168
0.303992
0.32115
0.0795544
0.12788
-0.115323
-0.092111
0.0680656
0.129716
-0.118228
0.0575382
0.132505
-0.121977
0.0474768
0.13616
-0.126099
0.0375049
0.140242
-0.13027
0.0274747
0.144202
-0.134172
0.0175686
0.145934
-0.136028
0.00860025
0.138418
-0.12945
0.00221866
0.108243
-0.101862
0.0464665
-0.0442479
0.0804099
0.139086
-0.0916161
0.068933
0.141193
0.0578417
0.143596
0.0472147
0.146787
0.0368733
0.150584
0.0266979
0.154377
0.0168529
0.155779
0.00811312
0.147158
0.00202416
0.114332
0.0484907
0.0724279
0.148271
-0.0816135
0.0627433
0.150878
0.0529018
0.153437
0.0431091
0.15658
0.0334011
0.160292
0.0238078
0.16397
0.0145989
0.164988
0.00662641
0.15513
0.00138014
0.119579
0.0498708
0.0602903
0.155499
-0.0675176
0.0526513
0.158517
0.0446066
0.161482
0.0362851
0.164901
0.0277998
0.168777
0.0192972
0.172473
0.0111809
0.173104
0.00443081
0.16188
0.000492939
0.123516
0.0503638
0.0481588
0.161335
-0.0539948
0.0420293
0.164647
0.0354869
0.168024
0.0285823
0.171806
0.0214179
0.175941
0.0141788
0.179712
0.00735096
0.179932
0.00201251
0.167219
-0.000449607
0.125979
0.0499142
0.0372395
0.166248
-0.042153
0.0321311
0.169755
0.02671
0.173446
0.0209903
0.177525
0.0150481
0.181884
0.00907339
0.185687
0.00358241
0.185423
-0.000413994
0.171215
-0.00131787
0.126882
0.0485963
0.0270386
0.170379
-0.0311697
0.0227906
0.174003
0.0183392
0.177897
0.013688
0.182177
0.00889562
0.186676
0.00415678
0.190426
-2.92786e-05
0.189609
-0.00235917
0.173545
-0.00202758
0.126551
0.0465687
0.0169357
0.173632
-0.0201882
0.0136068
0.177332
0.0101466
0.181357
0.00656322
0.18576
0.00291453
0.190325
-0.000590644
0.193931
-0.00326802
0.192287
-0.00425851
0.174536
-0.0026102
0.124903
0.0439585
0.00668502
0.175896
-0.00894868
0.00438036
0.179636
0.0020061
0.183731
-0.000429255
0.188195
-0.00287273
0.192768
-0.00507332
0.196131
-0.00649012
0.193704
-0.00605418
0.1741
-0.00316852
0.122017
0.04079
-0.00365671
0.00251156
-0.00483709
-0.00606958
-0.00733541
-0.00855269
-0.00947947
-0.00947489
-0.00762561
-0.0036109
0.103406
0.0238014
-0.114695
-0.0125122
0.0917885
0.0244251
-0.0128077
0.0798053
0.0251003
-0.0131171
0.0674391
0.0258153
-0.0134492
0.0546828
0.0265652
-0.0138089
0.0415423
0.0273258
-0.0141854
0.0281566
0.0278564
-0.0144706
0.0152398
0.0270862
-0.0141694
0.0047931
0.0224299
-0.0119832
0.0108323
-0.00603921
0.102642
0.0350744
-0.113915
0.0910555
0.0360116
0.0791182
0.0370376
0.0668125
0.0381209
0.0541304
0.0392473
0.0410783
0.0403779
0.0277981
0.0411366
0.0150082
0.0398761
0.00469959
0.0327385
0.0155319
0.10154
0.046315
-0.11278
0.0900059
0.0475452
0.078141
0.0489025
0.0659264
0.0503356
0.0533526
0.0518211
0.0404264
0.0533041
0.027295
0.054268
0.0146839
0.0524872
0.00456757
0.0428548
0.0200995
0.0999864
0.0574963
-0.111168
0.0885393
0.0589923
0.0767853
0.0606565
0.0647042
0.0624167
0.0522847
0.0642406
0.0395339
0.066055
0.0266062
0.0671957
0.0142401
0.0648533
0.00438672
0.0527082
0.0244862
0.0978256
0.0685745
-0.108904
0.0865218
0.0702961
0.0749448
0.0722336
0.0630674
0.0742941
0.0508721
0.0764359
0.0383647
0.0785624
0.0257085
0.0798519
0.0136579
0.0769039
0.00414837
0.0622178
0.0286345
0.0948874
0.0794692
-0.105782
0.0838029
0.0813807
0.0724733
0.0835631
0.0608716
0.0858958
0.0489796
0.0883279
0.0368038
0.0907381
0.0245172
0.0921385
0.0128898
0.0885314
0.00383431
0.0712732
0.0324689
0.0911059
0.0899867
-0.101623
0.0804675
0.092019
0.0695953
0.0944354
0.0584275
0.0970635
0.0469395
0.0998159
0.0351513
0.102526
0.0232672
0.104023
0.012095
0.0997036
0.00352476
0.0798435
0.0359936
0.0849862
0.099986
-0.0949854
0.0749078
0.102097
0.0646794
0.104664
0.054235
0.107508
0.0435049
0.110546
0.0324708
0.11356
0.0213307
0.115163
0.010904
0.11013
0.00304872
0.0876988
0.0390423
0.0822542
0.108562
-0.0908306
0.0731633
0.111188
0.0633942
0.114433
0.0530956
0.117807
0.0424101
0.121231
0.0314485
0.124522
0.0204781
0.126133
0.0103467
0.120262
0.00285204
0.0951935
0.0418944
0.069669
-0.0764298
0.0626297
0.0550853
0.0467933
0.0377543
0.0281047
0.0182099
0.00902175
0.00235349
0.20212
0.012842
-0.0169719
0.204619
0.0282756
-0.0307749
0.205053
0.0343615
-0.0347952
0.206017
0.0360144
-0.0369792
0.205116
0.0425808
-0.0416791
0.202598
0.0512146
-0.048697
0.196508
0.0639521
-0.0578623
0.185748
0.0807139
-0.0699537
0.15995
0.108768
-0.0829697
0.144853
-0.099598
0.20185
0.00898132
0.204212
0.0259141
0.204597
0.0339764
0.2055
0.0351116
0.204518
0.0435629
0.201865
0.0538677
0.195632
0.070185
0.184556
0.0917897
0.158818
0.134506
0.189756
0.201456
0.0055153
0.203538
0.023832
0.203779
0.0337351
0.204477
0.0344141
0.203289
0.0447505
0.200378
0.0567789
0.193918
0.0766444
0.18241
0.103299
0.156911
0.160005
0.233887
0.200928
0.00257756
0.202596
0.022164
0.202608
0.0337228
0.202957
0.0340647
0.201442
0.0462659
0.198153
0.0600681
0.191372
0.0834249
0.17929
0.115381
0.154272
0.185023
0.276991
0.200263
0.00030484
0.201393
0.0210338
0.201096
0.034019
0.200954
0.0342074
0.198994
0.0482256
0.195209
0.0638533
0.188006
0.090628
0.175165
0.128221
0.150982
0.209206
0.319069
0.199455
-0.00116042
0.199935
0.0205534
0.19926
0.0346947
0.198478
0.0349888
0.195965
0.0507388
0.191566
0.0682519
0.18383
0.0983644
0.170045
0.142007
0.147071
0.23218
0.360358
0.198497
-0.00166776
0.198231
0.0208198
0.197118
0.0358074
0.195547
0.0365597
0.192379
0.0539071
0.187244
0.0733872
0.178839
0.106769
0.164057
0.156788
0.142583
0.253654
0.401318
0.197388
-0.00106559
0.196293
0.0219141
0.194692
0.0374089
0.192177
0.0390745
0.188263
0.0578211
0.182259
0.0793909
0.172991
0.116038
0.157124
0.172655
0.13668
0.274098
0.443013
0.196136
0.000787783
0.194151
0.0238991
0.192001
0.0395595
0.188379
0.0426959
0.183649
0.062552
0.176687
0.0863524
0.166564
0.126161
0.150559
0.18866
0.131849
0.292808
0.484031
0.194856
0.00392204
0.19188
0.0268749
0.189058
0.0423811
0.184123
0.0476313
0.178377
0.0682978
0.169931
0.0947981
0.157891
0.138201
0.14024
0.206311
0.120723
0.312326
0.528324
0.303335
0.00259748
0.306788
0.0234216
0.310452
0.0387175
0.313025
0.0450582
0.315942
0.0653803
0.319387
0.0913534
0.324957
0.132631
0.336039
0.195228
0.36099
0.287375
0.463622
0.425692
0.304224
0.00038395
0.307902
0.019743
0.312194
0.0344255
0.315537
0.0417159
0.319891
0.0610264
0.325497
0.0857472
0.334451
0.123676
0.350179
0.1795
0.379944
0.257609
0.399562
0.444004
0.305102
-0.00270761
0.309226
0.0156192
0.313933
0.0297185
0.318052
0.0375961
0.323618
0.0554609
0.331069
0.078296
0.34267
0.112075
0.361275
0.160896
0.394881
0.224003
0.337098
0.457344
0.306007
-0.00670393
0.310614
0.011012
0.315619
0.0247135
0.320432
0.0327827
0.327022
0.0488714
0.336018
0.0692999
0.349648
0.0984447
0.370428
0.140115
0.405408
0.189024
0.277634
0.464872
0.306993
-0.0116865
0.312075
0.00593004
0.317236
0.0195518
0.322611
0.0274085
0.330033
0.0414485
0.340281
0.0590523
0.35542
0.0833061
0.377819
0.117717
0.412577
0.154266
0.221775
0.468435
0.308121
-0.017797
0.313651
0.000399466
0.318762
0.0144412
0.324536
0.0216344
0.332612
0.0333729
0.343828
0.0478357
0.36005
0.0670846
0.383563
0.0942031
0.41737
0.120459
0.169515
0.469631
0.309437
-0.0252242
0.315391
-0.00555429
0.320175
0.00965742
0.326166
0.0156438
0.334716
0.0248228
0.346639
0.035912
0.363612
0.050112
0.387816
0.0699985
0.420503
0.0877721
0.120479
0.469538
0.311112
-0.0343257
0.31731
-0.0117521
0.321345
0.00562225
0.327331
0.00965773
0.336194
0.0159599
0.348605
0.0235004
0.36609
0.0326275
0.39066
0.0454282
0.422425
0.0560073
0.0742068
0.468698
0.309614
-0.0419296
0.314889
-0.0170271
0.317977
0.00253461
0.324014
0.00362047
0.333026
0.00694817
0.345751
0.0107749
0.363588
0.0147905
0.388273
0.020743
0.419631
0.0246496
0.0323474
0.461491
0.260081
0.243054
0.245588
0.249209
0.256157
0.266932
0.281722
0.302465
0.327115
0.359462
0.439144
-0.105562
0.444137
-0.0966093
0.446309
-0.0837852
0.448486
-0.0696946
0.451524
-0.0570337
0.455243
-0.0458711
0.459152
-0.0350786
0.462806
-0.0238422
0.465886
-0.0120292
1.40198e-05
0.444249
-0.105807
0.442706
-0.0950669
0.441505
-0.0825842
0.441807
-0.0699961
0.443033
-0.0582597
0.444432
-0.0472701
0.445739
-0.0363855
0.447014
-0.025117
0.448361
-0.0133767
-0.00133362
0.450998
-0.0994603
0.445497
-0.0895658
0.440908
-0.077996
0.437532
-0.0666194
0.435158
-0.0558859
0.433503
-0.0456152
0.432494
-0.035377
0.432153
-0.0247756
0.432481
-0.013705
-0.00229946
0.454417
-0.0890052
0.445436
-0.0805844
0.437963
-0.0705231
0.432102
-0.0607584
0.427687
-0.0514706
0.424412
-0.0423403
0.422108
-0.0330736
0.42076
-0.0234269
0.420401
-0.0133459
-0.00294966
0.455691
-0.076261
0.444613
-0.0695061
0.435361
-0.0612709
0.427848
-0.0532451
0.421892
-0.0455148
0.41729
-0.0377387
0.413932
-0.0297158
0.411811
-0.0213057
0.410948
-0.0124826
-0.00334599
0.455637
-0.0622678
0.443261
-0.0571296
0.432793
-0.0508028
0.424136
-0.0445879
0.417129
-0.038508
0.411639
-0.0322486
0.407584
-0.0256605
0.404948
-0.0186701
0.403746
-0.0112801
-0.00358885
0.454812
-0.0475417
0.441646
-0.0439629
0.430413
-0.0395703
0.421039
-0.0352137
0.413371
-0.03084
0.40731
-0.0261877
0.402802
-0.0211527
0.399841
-0.0157088
0.398442
-0.00988133
-0.00375676
0.453323
-0.0321668
0.439537
-0.0301769
0.427757
-0.0277903
0.417881
-0.0253379
0.409748
-0.0227069
0.403272
-0.0197119
0.398423
-0.0163042
0.39522
-0.0125055
0.3937
-0.00836124
-0.00395044
0.444591
-0.0152669
0.429641
-0.0152275
0.416773
-0.0149218
0.405792
-0.0143572
0.396518
-0.0134333
0.388896
-0.0120896
0.382983
-0.0103913
0.378896
-0.00841842
0.376755
-0.0062205
-0.00383233
0.344195
0.328968
0.314046
0.299689
0.286255
0.274166
0.263774
0.255356
0.249135
0.0104048
0.0471461
-0.0575509
0.0213306
0.151255
-0.16218
0.0258869
0.218308
-0.222864
0.0254366
0.244313
-0.243863
0.0225583
0.249177
-0.246298
0.0188827
0.246954
-0.243279
0.014991
0.243196
-0.239305
0.0110171
0.238756
-0.234783
0.00710744
0.231333
-0.227423
0.213281
0.00400463
-0.210178
0.0119579
0.0351882
0.0272949
0.135918
0.0369936
0.208609
0.0412237
0.240083
0.0425927
0.247808
0.0430289
0.246518
0.0433129
0.242912
0.043395
0.238674
0.0423603
0.232367
0.217511
0.0381296
0.0122171
0.0229711
0.0306197
0.117515
0.0449481
0.194281
0.0539669
0.231064
0.0598559
0.241919
0.0646527
0.241722
0.0693711
0.238194
0.0740779
0.233967
0.0775759
0.228869
0.219247
0.0758408
0.0111784
0.0117927
0.0306802
0.0980132
0.0483646
0.176596
0.0616754
0.217754
0.0719482
0.231646
0.0810118
0.232658
0.0900052
0.229201
0.0992685
0.224704
0.108176
0.219962
0.213953
0.11347
0.00914473
0.00264799
0.0276748
0.0794831
0.0469496
0.157322
0.0634869
0.201216
0.0775614
0.217571
0.0904707
0.219749
0.103255
0.216416
0.116418
0.211541
0.129938
0.206442
0.201162
0.142729
0.00659689
-0.0039489
0.0225286
0.0635515
0.0415751
0.138275
0.0598821
0.182909
0.0766971
0.200756
0.0925837
0.203862
0.108265
0.200735
0.124217
0.195589
0.14068
0.189979
0.18389
0.157952
0.0040476
-0.0079965
0.0166541
0.050945
0.0341678
0.120761
0.0528594
0.164218
0.0711769
0.182439
0.0889331
0.186106
0.106407
0.183261
0.123898
0.178098
0.141568
0.172309
0.16555
0.159908
0.00189193
-0.00988844
0.011289
0.0415479
0.0266556
0.105395
0.0446492
0.146224
0.0632096
0.163878
0.0815383
0.167777
0.0994834
0.165316
0.117109
0.160472
0.1346
0.154818
0.148239
0.151911
0.000361972
-0.0102504
0.00733666
0.0345732
0.0207115
0.09202
0.0376283
0.129307
0.0558242
0.145683
0.0741491
0.149452
0.0921861
0.147279
0.109859
0.142799
0.127243
0.137435
0.130449
0.145033
-0.000460894
-0.00978951
0.0047931
0.0293192
0.0164569
0.0803562
0.0320148
0.113749
0.0491235
0.128574
0.0664046
0.132171
0.083204
0.13048
0.0992612
0.126741
0.114281
0.122415
0.116663
0.128066
-0.000821892
-0.00896762
0.00350285
0.0249944
0.0140629
0.0697961
0.0286082
0.099204
0.0448747
0.112308
0.0614854
0.11556
0.0777841
0.114181
0.0935291
0.110996
0.108635
0.107309
0.104072
0.121226
-0.00094116
-0.00802646
0.00293532
0.021118
0.0128158
0.0599156
0.0266117
0.0854081
0.0421565
0.0967627
0.058121
0.0995959
0.07387
0.0984319
0.08916
0.0957063
0.103953
0.0925166
0.0905946
0.11743
-0.000987615
-0.00703885
0.00260209
0.0175283
0.0119722
0.0505455
0.0251193
0.072261
0.0399528
0.0819292
0.0551937
0.0843551
0.0702298
0.0833957
0.0848173
0.0811189
0.0988896
0.0784443
0.0771669
0.112317
-0.00100199
-0.00603686
0.00239261
0.0141337
0.0113902
0.0415479
0.024037
0.0596142
0.0382993
0.0676669
0.0529423
0.0697121
0.067376
0.068962
0.0813597
0.0671351
0.0948095
0.0649946
0.064082
0.107894
-0.000995761
-0.0050411
0.0022729
0.010865
0.0110188
0.032802
0.0233219
0.0473111
0.0371895
0.0537993
0.0514238
0.0554778
0.065459
0.0549268
0.0790695
0.0535247
0.0921801
0.0518839
0.0512312
0.105031
-0.000983427
-0.00405767
0.00220473
0.00767684
0.0107873
0.0242194
0.0228708
0.0352276
0.0364913
0.0401788
0.0504786
0.0414905
0.0642878
0.0411176
0.0777079
0.0401047
0.0906758
0.038916
0.0384823
0.103425
-0.000969471
-0.0030882
0.00217404
0.00453332
0.0106583
0.0157352
0.0226104
0.0232755
0.0360873
0.0267019
0.049937
0.0276408
0.0636289
0.0274257
0.076962
0.0267715
0.0898811
0.0259969
0.0257635
0.1026
-0.000947434
-0.00214077
0.00218034
0.00140554
0.0106121
0.00730344
0.0224895
0.0113981
0.0358842
0.0133072
0.0496569
0.0138681
0.0632871
0.0137955
0.0765807
0.0134779
0.0894866
0.013091
0.0130465
0.102204
-0.000916376
-0.00122439
0.00222391
-0.00173474
0.0106368
-0.00110946
0.0224717
-0.000436817
0.0358132
-3.43108e-05
0.0495333
0.000148008
0.0631197
0.000209008
0.0763838
0.000213896
0.0892775
0.000197275
0.000334074
0.10199
-0.000874575
0.0023066
0.0107266
0.0225358
0.0358316
0.0494986
0.0630337
0.0762534
0.0891133
0.101799
0.137609
0.287253
-0.303636
0.149649
0.121342
-0.133382
0.159436
0.041138
-0.0509248
0.167155
0.00488001
-0.0125994
0.173543
-0.00898207
0.00259398
0.179195
-0.0130392
0.00738735
0.18437
-0.0129618
0.00778718
0.189171
-0.0112636
0.00646279
0.193656
-0.00920768
0.00472224
-0.00600296
0.00198986
0.139703
0.26498
0.155578
0.105467
0.166359
0.0303573
0.173652
-0.00241329
0.179199
-0.0145291
0.183843
-0.0176827
0.187933
-0.0170517
0.191605
-0.014936
0.194947
-0.0125493
-0.00888398
0.142156
0.235141
0.160939
0.0866835
0.17223
0.0190661
0.17927
-0.00945327
0.184205
-0.0194643
0.188029
-0.0215059
0.191172
-0.0201947
0.193837
-0.0176012
0.196151
-0.0148636
-0.0107429
0.14496
0.198076
0.165803
0.0658406
0.177491
0.0073774
0.184322
-0.0162839
0.188705
-0.0238477
0.19179
-0.0245905
0.194091
-0.0224962
0.195865
-0.0193743
0.197268
-0.0162668
-0.0116932
0.147744
0.155363
0.170122
0.0434626
0.182108
-0.00460878
0.188747
-0.0229223
0.192665
-0.027766
0.195112
-0.0270372
0.196683
-0.0240677
0.197681
-0.0203725
0.198293
-0.0168779
-0.0118525
0.150254
0.108534
0.173832
0.0198842
0.186061
-0.0168372
0.19254
-0.0294019
0.196068
-0.0312935
0.197978
-0.0289477
0.198935
-0.0250245
0.199279
-0.0207168
0.199221
-0.0168197
-0.011343
0.152352
0.0587815
0.176873
-0.00463707
0.189309
-0.0292734
0.195672
-0.0357645
0.198893
-0.0345142
0.200375
-0.0304295
0.200836
-0.0254856
0.200651
-0.0205318
0.200049
-0.0162183
-0.0102903
0.153939
0.00704606
0.179192
-0.0298898
0.191815
-0.0418962
0.198116
-0.0420658
0.201122
-0.0375199
0.202287
-0.0315949
0.202375
-0.0255736
0.201788
-0.0199449
0.200773
-0.0152027
-0.0088237
0.15492
-0.0458839
0.18073
-0.0557
0.193547
-0.0547131
0.199852
-0.0483709
0.20274
-0.0404079
0.203705
-0.0325597
0.203545
-0.0254139
0.202686
-0.0190859
0.201388
-0.0139041
-0.00707492
0.155236
0.181447
0.194479
0.200865
0.203738
0.204621
0.20434
0.20334
0.201891
0.112942
-0.00196158
-0.110981
0.10958
0.0033616
0.107138
0.00244228
0.106885
0.000253285
0.107785
-0.000899919
0.10895
-0.00116545
0.110015
-0.00106519
0.110852
-0.000836956
0.111432
-0.000579533
-0.000232142
0.23389
0.0702433
-0.306095
0.201492
0.0357593
0.189313
0.0146208
0.186013
0.00355341
0.186195
-0.0010816
0.187563
-0.00253317
0.189105
-0.00260721
0.190414
-0.00214576
0.191379
-0.00154527
-0.000639849
0.249198
0.156654
-0.335609
0.213528
0.071429
0.200131
0.0280186
0.196433
0.00725093
0.196557
-0.00120524
0.197982
-0.00395886
0.199613
-0.00423741
0.201007
-0.00353998
0.202045
-0.00258384
-0.0010826
0.244006
0.23557
-0.322921
0.211652
0.103783
0.199702
0.0399685
0.19668
0.0102733
0.197149
-0.00167441
0.198745
-0.00555544
0.200464
-0.00595568
0.201899
-0.00497544
0.202957
-0.00364205
-0.00153266
0.238825
-0.306891
0.209226
0.19827
0.195943
0.196863
0.198695
0.200526
0.202014
0.203094
0.0111658
0.000756294
-0.0119221
0.011287
-0.000121169
0.0118003
-0.000513301
0.0124569
-0.000656647
0.0143317
-0.00187482
0.0191206
-0.00478884
0.0318037
-0.0126832
0.0495413
-0.0177376
0.0800966
-0.0305553
-0.0308839
0.0331637
0.00172585
-0.0341333
0.036217
-0.00317442
0.0439468
-0.00824312
0.0585196
-0.0152294
0.0827367
-0.026092
0.118419
-0.0404713
0.164942
-0.0592064
0.213959
-0.0667544
0.266024
-0.0826196
-0.0709549
0.0555526
0.00163331
-0.0554601
0.0632236
-0.0108455
0.0802853
-0.0253048
0.109141
-0.0440852
0.149664
-0.0666146
0.197601
-0.0884089
0.244241
-0.105846
0.283017
-0.10553
0.313599
-0.113202
-0.0929645
0.0763104
-0.00023848
-0.0744387
0.0884234
-0.0229584
0.112365
-0.0492466
0.147665
-0.0793848
0.18922
-0.108169
0.229227
-0.128416
0.260494
-0.137113
0.285972
-0.131007
0.305255
-0.132486
-0.110631
0.093264
-0.0894979
0.108435
0.135029
0.169114
0.203674
0.23321
0.256004
0.276908
0.289456
0.0914382
-0.0878417
0.0972839
-0.10088
0.0824793
-0.0907033
0.0996622
0.0734132
-0.0942969
0.103363
0.0635471
-0.0979629
0.107829
0.0526254
-0.101525
0.112446
0.0406768
-0.104915
0.116863
0.0279672
-0.107106
0.119815
0.0153407
-0.103436
0.116062
0.00490081
-0.0835671
0.094007
-0.0382124
0.0431132
0.104379
-0.0779917
-0.114229
0.0938429
-0.0801673
0.0822821
-0.082736
0.0698409
-0.0855217
0.0567547
-0.0884384
0.0431952
-0.0913553
0.0293766
-0.0932871
0.0160326
-0.0900919
0.00515514
-0.0726896
-0.0330572
0.101754
-0.0667706
-0.112975
0.0902745
-0.0686878
0.0785209
-0.0709825
0.0664638
-0.0734646
0.0540355
-0.0760101
0.0411811
-0.0785008
0.0280026
-0.0801086
0.0152024
-0.0772917
0.00478584
-0.062273
-0.0282714
0.10368
-0.0554779
-0.114973
0.0921606
-0.0571685
0.0802953
-0.0591172
0.0680067
-0.0611759
0.0552614
-0.0632649
0.0420663
-0.0653057
0.028574
-0.0666162
0.0155191
-0.0642369
0.00491614
-0.0516701
-0.0233553
0.104236
-0.044108
-0.115606
0.0925648
-0.045497
0.0805302
-0.0470826
0.0681029
-0.0487486
0.0552698
-0.0504317
0.0420343
-0.0520703
0.0285336
-0.0531155
0.015483
-0.0511863
0.00488612
-0.0410732
-0.0184691
0.104483
-0.0327496
-0.115842
0.0928045
-0.0338182
0.0807552
-0.0350333
0.0683081
-0.0363015
0.0554494
-0.037573
0.0421826
-0.0388035
0.028646
-0.0395789
0.0155544
-0.0380946
0.00491925
-0.0304381
-0.0135499
0.104553
-0.0214148
-0.115888
0.092879
-0.0221445
0.0808233
-0.0229776
0.0683643
-0.0238425
0.0554931
-0.0247018
0.0422157
-0.0255261
0.0286688
-0.026032
0.0155644
-0.0249902
0.00492097
-0.0197947
-0.00862892
0.104486
-0.0100932
-0.115808
0.0928204
-0.0104785
0.0807702
-0.0109275
0.0683169
-0.0113893
0.0554529
-0.0118378
0.0421842
-0.0122574
0.0286469
-0.0124947
0.0155521
-0.0118954
0.00491717
-0.00915972
-0.00371176
0.104274
0.00121295
-0.11558
0.0926229
0.0011723
0.0805887
0.00110678
0.0681536
0.0010458
0.055311
0.00100475
0.0420673
0.000986399
0.0285587
0.00101383
0.0154968
0.00116655
0.00489492
0.00144214
0.00118317
0.103909
-0.115208
0.0922735
0.0802632
0.0678599
0.0550558
0.0418568
0.0284
0.0153971
0.00485604
0.0256301
-0.207727
-0.028081
0.0194771
-0.22127
0.0121975
-0.227503
0.00478486
-0.231892
-0.00240085
-0.236093
-0.00892998
-0.239769
-0.0135252
-0.239268
-0.0138592
-0.22253
-0.00789505
-0.168145
-0.0654459
0.0552461
-0.203122
-0.0598512
0.0463079
-0.212332
0.0361549
-0.21735
0.025895
-0.221632
0.0158675
-0.226066
0.00639734
-0.230299
-0.00162739
-0.231243
-0.00612243