# Selection   : all
# Cells       : 440
# Volume      : 7.374263e+01
# Time        	minMag(U)
0.8           	1.157871e-02
0.85          	2.769375e-02
0.9           	4.124554e-02
