# Selection   : all
# Cells       : 440
# Volume      : 7.374263e+01
# Time        	minMag(U)
5.915         	1.791812e-02
5.96          	2.111019e-02
6.01          	2.412964e-02
