/*--------------------------------*- C++ -*----------------------------------*\
  =========                 |
  \\      /  F ield         | OpenFOAM: The Open Source CFD Toolbox
   \\    /   O peration     | Website:  https://openfoam.org
    \\  /    A nd           | Version:  13
     \\/     M anipulation  |
\*---------------------------------------------------------------------------*/
FoamFile
{
    format      ascii;
    class       volScalarField;
    location    "6.155";
    object      p;
}
// * * * * * * * * * * * * * * * * * * * * * * * * * * * * * * * * * * * * * //

dimensions      [0 2 -2 0 0 0 0];

internalField   nonuniform List<scalar> 
440
(
-0.607428
-0.589865
-0.619228
-0.588033
-0.724818
-0.620009
-0.602946
-0.588435
-0.573217
-0.580504
-0.709747
-0.681111
-0.650627
-0.618246
-0.583449
-0.825469
-0.778337
-0.707216
-0.622891
-0.537298
-0.919082
-0.858187
-0.726682
-0.589411
-0.463534
-0.863373
-0.865922
-0.88188
-0.910504
-0.941066
-0.700664
-0.706377
-0.721552
-0.743127
-0.761038
-0.586924
-0.590566
-0.599193
-0.609343
-0.61318
-0.563545
-0.56564
-0.570351
-0.5741
-0.572079
-0.540504
-0.543557
-0.548721
-0.537911
-0.559777
-1.04543
-0.862954
-0.753661
-0.608217
-0.0527508
-0.85194
-0.775937
-0.777589
-0.708788
-0.0497506
-0.630255
-0.64258
-0.780505
-0.743265
-0.0576956
-0.456933
-0.499425
-0.788641
-0.739259
-0.0736968
-0.433903
-0.368934
-0.79676
-0.708413
-0.0911273
-0.259297
-0.243098
-0.749664
-0.618767
-0.109031
-0.121622
-0.219241
-0.495342
-0.434637
-0.128808
-0.146384
-0.0683938
-0.259309
-0.288094
-0.13671
-0.0682123
0.0490707
-0.138653
-0.237199
-0.133455
-0.00673533
0.135805
0.0354688
-0.183251
-0.142903
-0.246275
-0.373811
-0.561628
-0.749659
-0.870055
-0.0130822
-0.13993
-0.222648
-0.262923
-0.266022
0.147672
0.0349836
-0.0389641
-0.0953162
-0.133146
0.242028
0.133107
0.0481957
-0.0131288
-0.0523324
0.28407
0.175038
0.0899949
0.032479
0.00329139
1.06355
0.923328
0.744684
0.54216
0.314041
0.658444
0.50607
0.31761
0.102502
-0.141458
0.259395
0.104293
-0.0920718
-0.31859
-0.532145
-0.0844408
-0.242306
-0.434927
-0.644513
-0.803935
-0.312407
-0.465173
-0.640955
-0.824284
-0.923385
2.2176
2.25015
2.28029
2.29668
2.29559
2.03237
2.05557
2.07505
2.07807
2.05994
1.80888
1.80144
1.77286
1.72225
1.64547
1.56275
1.5302
1.4637
1.36654
1.23978
1.31964
1.22521
1.09918
0.948938
0.765074
1.95451
1.94492
1.93537
1.99494
2.09178
1.94473
1.93279
1.91748
1.97209
2.00536
1.93596
1.9175
1.89667
1.93746
1.89787
1.92856
1.89951
1.87347
1.89131
1.74049
1.92246
1.88064
1.8489
1.83729
1.57075
1.91809
1.8514
1.81665
1.73608
1.37032
1.91747
1.81985
1.80464
1.61899
1.42613
1.92356
1.80316
1.79884
1.5382
1.39153
1.91945
1.77877
1.7942
1.48371
1.3497
1.95632
1.77128
1.79177
1.46045
1.34934
1.03033
0.736498
0.39932
0.114316
-0.0812869
0.939969
0.727185
0.496273
0.298475
0.128114
0.920081
0.752408
0.582979
0.428958
0.27657
0.959522
0.810792
0.659955
0.512503
0.370018
1.0018
0.855224
0.706785
0.556185
0.414059
-1.44898
-1.29485
-1.12044
-0.977588
-0.89375
-1.50398
-1.43707
-1.30566
-1.19759
-1.13274
-1.41091
-1.36137
-1.28404
-1.21954
-1.17855
-1.24238
-1.19917
-1.15365
-1.11783
-1.09489
-1.09946
-1.07558
-1.04611
-1.02706
-1.04562
-1.02139
-1.00749
-0.976379
-0.972759
-0.956375
-1.01693
-1.00017
-0.977739
-0.967296
-0.971253
-1.0428
-1.02828
-1.0128
-1.00581
-1.01579
-1.05443
-1.04629
-1.04441
-1.05505
-1.07509
-0.998427
-0.996713
-1.00615
-1.02942
-1.06141
-1.05791
-0.794552
-0.360766
-0.262449
0.00109558
-1.06561
-0.752127
-0.367379
-0.270367
-0.0121165
-1.03046
-0.767334
-0.429662
-0.307039
-0.0420995
-1.06745
-0.83575
-0.550375
-0.364657
-0.0624895
-1.09758
-0.886288
-0.672997
-0.47209
-0.0623084
-0.557709
-0.916724
-0.480908
-0.289857
-0.000660069
-0.935047
-0.881539
-0.395906
-0.246339
0.00538159
-0.845467
-1.10552
-1.14363
-1.10724
-0.876545
-0.866156
-1.10627
-1.15704
-1.09324
-1.08417
1.84284
1.8145
1.76711
1.70164
1.61538
2.03493
2.0528
2.05374
2.03609
2.00066
2.19938
2.23136
2.25453
2.26448
2.25962
2.29487
2.33477
2.37672
2.41063
2.4257
2.29828
2.33704
2.38025
2.4168
2.43405
-0.409243
-0.520082
-0.695327
-0.906394
-1.15984
0.230087
0.084954
-0.10893
-0.342441
-0.645246
0.803733
0.651679
0.470318
0.256234
-0.0178881
1.26332
1.14613
1.00284
0.827797
0.612546
1.62954
1.5458
1.43702
1.30673
1.15233
2.01844
1.97563
1.96706
1.97313
1.99001
2.00294
1.97208
1.96652
1.99154
2.05516
1.98946
1.96749
1.96596
2.01041
2.13074
1.97685
1.96191
1.95988
2.01552
2.14153
1.96516
1.9549
1.94943
2.01066
2.13371
2.07295
1.98257
1.95435
1.8971
1.86439
2.02897
1.97285
1.95006
1.91841
1.87295
1.50706
1.27612
0.871415
0.279389
-0.376756
1.59517
1.31069
0.888442
0.300642
-0.367644
)
;

boundaryField
{
    left
    {
        type            zeroGradient;
    }
    right
    {
        type            fixedValue;
        value           uniform 0;
    }
    down
    {
        type            zeroGradient;
    }
    up
    {
        type            zeroGradient;
    }
    cylinder
    {
        type            zeroGradient;
    }
    defaultFaces
    {
        type            empty;
    }
}


// ************************************************************************* //
