/*--------------------------------*- C++ -*----------------------------------*\
  =========                 |
  \\      /  F ield         | OpenFOAM: The Open Source CFD Toolbox
   \\    /   O peration     | Website:  https://openfoam.org
    \\  /    A nd           | Version:  13
     \\/     M anipulation  |
\*---------------------------------------------------------------------------*/
FoamFile
{
    format      ascii;
    class       surfaceScalarField;
    location    "0.65";
    object      phi;
}
// * * * * * * * * * * * * * * * * * * * * * * * * * * * * * * * * * * * * * //

dimensions      [0 3 -1 0 0 0 0];

internalField   nonuniform List<scalar> 
3485
(
0.00137165
-0.011258
0.00988639
0.00505113
-0.0319068
0.0282274
0.0107642
-0.051383
0.0456699
0.0183125
-0.0696769
0.0621285
0.0275454
-0.0868349
0.077602
0.0383486
-0.102901
0.0920977
0.0506335
-0.117906
0.105621
0.064357
-0.13187
0.118146
0.0796165
-0.14486
0.129601
-0.156894
0.139502
0.0970081
0.00150032
-0.0127584
0.0054458
-0.0358523
0.0114761
-0.0574133
0.0193235
-0.0775243
0.0287728
-0.0962843
0.0396468
-0.113775
0.0518011
-0.13006
0.0651279
-0.145197
0.0795356
-0.159268
-0.172196
0.0948383
0.00147417
-0.0142325
0.00532696
-0.0397051
0.0111744
-0.0632608
0.0187208
-0.0850706
0.0277253
-0.105289
0.0379884
-0.124038
0.0493444
-0.141416
0.0616537
-0.157506
0.0747841
-0.172398
-0.186036
0.0886241
0.00133886
-0.0155714
0.00485901
-0.0432253
0.0102108
-0.0686126
0.017117
-0.0919768
0.0253538
-0.113526
0.0347402
-0.133424
0.0451302
-0.151806
0.0564037
-0.16878
0.0684541
-0.184449
-0.19879
0.081208
0.00116693
-0.0167383
0.00425598
-0.0463143
0.00897313
-0.0733298
0.0150817
-0.0980854
0.0223917
-0.120835
0.0307524
-0.141785
0.0400461
-0.1611
0.0501802
-0.178914
0.0610771
-0.195346
-0.210402
0.0726888
0.000980022
-0.0177183
0.00358795
-0.0489222
0.00758661
-0.0773284
0.0127839
-0.103283
0.0190261
-0.127078
0.0261926
-0.148952
0.0341915
-0.169099
0.0429534
-0.187676
0.0524235
-0.204816
-0.220549
0.0625705
0.000780726
-0.0184991
0.00286501
-0.0510065
0.00606899
-0.0805324
0.0102429
-0.107457
0.0152666
-0.132101
0.0210468
-0.154732
0.0275143
-0.175566
0.0346206
-0.194782
0.0423314
-0.212526
-0.228851
0.050633
0.000569704
-0.0190688
0.00209347
-0.0525303
0.00443789
-0.0828768
0.00749271
-0.110511
0.0111687
-0.135777
0.0153969
-0.15896
0.0201276
-0.180297
0.0253296
-0.199984
0.0309867
-0.218183
-0.234967
0.0371033
0.000352509
-0.0194213
0.00129577
-0.0534735
0.00274504
-0.0843261
0.00462837
-0.112395
0.00688653
-0.138035
0.00947317
-0.161547
0.0123554
-0.183179
0.0155144
-0.203143
0.018945
-0.221614
-0.238684
0.0226618
0.000137797
-0.0195591
0.000502472
-0.0538382
0.00105699
-0.0848806
0.00176957
-0.113107
0.00261377
-0.13888
0.00356847
-0.162501
0.00461819
-0.184229
0.00575342
-0.204278
0.00697071
-0.222831
0.00827513
-0.239988
0.000490618
-0.00187024
0.00137962
0.00209467
-0.00625527
0.00465122
0.00543726
-0.0114153
0.00807267
0.0101262
-0.0161849
0.0114959
0.015553
-0.0201769
0.0147501
0.0214538
-0.0235735
0.0176727
0.0279232
-0.0267546
0.0202851
0.0351089
-0.0299481
0.0227624
0.042996
-0.033107
0.0252198
-0.0360797
0.0514513
0.0276244
0.00042727
-0.00229751
0.00211238
-0.00794038
0.00544149
-0.0147444
0.00982216
-0.0205655
0.0148986
-0.0252533
0.0207787
-0.0294536
0.0276346
-0.0336105
0.0354152
-0.0377286
0.0439097
-0.0416015
-0.0451235
0.0529535
0.000682653
-0.00298016
0.00271604
-0.00997378
0.00578206
-0.0178104
0.00976838
-0.0245519
0.0148261
-0.030311
0.0211269
-0.0357544
0.028602
-0.0410856
0.0369726
-0.0460993
0.0460202
-0.0506491
-0.0547567
0.0556534
0.000868153
-0.00384831
0.00306048
-0.0121661
0.00608064
-0.0208306
0.0102052
-0.0286764
0.0157059
-0.0358118
0.0225661
-0.0426146
0.0305442
-0.0490636
0.0394035
-0.0549586
0.0490487
-0.0602942
-0.0651056
0.0593976
0.000922831
-0.00477115
0.00320035
-0.0144436
0.00652008
-0.0241503
0.0111198
-0.033276
0.0171395
-0.0418316
0.0244545
-0.0499296
0.0328731
-0.0574823
0.0422976
-0.0643831
0.0526648
-0.0706614
-0.076283
0.0638422
0.000943757
-0.0057149
0.00337266
-0.0168725
0.00709195
-0.0278696
0.0121758
-0.0383599
0.0186352
-0.048291
0.0263591
-0.0576535
0.0352504
-0.0663735
0.0452617
-0.0743944
0.0563144
-0.0817141
-0.0882193
0.0682507
0.00097991
-0.00669481
0.00358403
-0.0194766
0.00764153
-0.0319271
0.0131076
-0.043826
0.0199267
-0.0551101
0.0280125
-0.0657393
0.037303
-0.075664
0.0477519
-0.0848433
0.0592863
-0.0932485
-0.100694
0.0717612
0.00101799
-0.00771281
0.00376775
-0.0222264
0.00807115
-0.0362305
0.0138199
-0.0495748
0.0209197
-0.0622098
0.0292815
-0.0741011
0.0388358
-0.0852182
0.0495259
-0.0955334
0.0612931
-0.105016
-0.113438
0.0740374
0.00105462
-0.00876743
0.00393672
-0.0251085
0.00846097
-0.0407547
0.014482
-0.0555958
0.0218738
-0.0696015
0.0305258
-0.0827531
0.0403429
-0.0950353
0.0512362
-0.106427
0.0631248
-0.116904
-0.126318
0.0760039
0.00111896
0.00423783
0.00915304
0.0156857
0.0236862
0.0330307
0.0436163
0.055336
0.0680322
0.0812167
0.11436
-0.414356
0.351448
0.168162
-0.471524
0.417722
0.210276
-0.421514
0.3794
0.244083
-0.326076
0.292268
0.270772
-0.213665
0.186976
0.29114
-0.108986
0.088618
0.303999
-0.0288478
0.0159883
0.308449
0.012732
-0.0171818
0.308644
0.0217687
-0.0219631
0.0166542
-0.0151856
0.115951
-0.477354
0.169742
-0.525315
0.211843
-0.463614
0.245405
-0.359638
0.272233
-0.240494
0.29332
-0.130073
0.308702
-0.0442293
0.316805
0.0046287
0.319794
0.0187801
0.0167845
0.117764
-0.539465
0.17058
-0.578131
0.212289
-0.505323
0.245259
-0.392608
0.271964
-0.267198
0.293307
-0.151416
0.309916
-0.0608381
0.320791
-0.00624717
0.32757
0.0120016
0.0140622
0.120144
-0.600211
0.170952
-0.628939
0.21179
-0.546162
0.243865
-0.424683
0.270197
-0.293529
0.291619
-0.172838
0.308676
-0.0778954
0.32061
-0.0181807
0.330162
0.00244939
0.00818233
0.123038
-0.659407
0.171064
-0.676965
0.210478
-0.585576
0.241406
-0.455611
0.267103
-0.319226
0.288544
-0.19428
0.30583
-0.0951813
0.318435
-0.0307854
0.329015
-0.00813082
0.00101622
0.12589
-0.717047
0.170946
-0.72202
0.208437
-0.623067
0.238019
-0.485194
0.262815
-0.344022
0.284197
-0.215661
0.301796
-0.112781
0.315212
-0.0442013
0.327005
-0.0199232
-0.00747275
0.127825
-0.77311
0.170414
-0.76461
0.205718
-0.658371
0.233827
-0.513303
0.257476
-0.367671
0.278622
-0.236808
0.29668
-0.130839
0.311269
-0.0587907
0.323923
-0.0325765
-0.0165665
0.127903
-0.826976
0.168988
-0.805695
0.202186
-0.691569
0.228803
-0.53992
0.251144
-0.390011
0.271815
-0.257479
0.290438
-0.149462
0.306611
-0.0749637
0.317668
-0.0436329
-0.0232076
0.125821
-0.876793
0.166259
-0.846133
0.197789
-0.723099
0.223036
-0.565167
0.243963
-0.410938
0.263737
-0.277253
0.28306
-0.168785
0.298662
-0.0905658
0.306725
-0.0516953
-0.0287841
0.122135
-0.917711
0.161428
-0.885426
0.191655
-0.753327
0.215814
-0.589325
0.235429
-0.430554
0.254271
-0.296095
0.272714
-0.187228
0.285733
-0.103585
0.292325
-0.0582873
-0.0350152
0.583942
-0.920183
-0.58147
0.561183
-0.862666
0.523967
-0.716111
0.487926
-0.553284
0.460512
-0.40314
0.444806
-0.280389
0.436316
-0.178738
0.431381
-0.0986504
0.427893
-0.0547988
-0.0333586
0.682861
-0.87159
-0.731454
0.619698
-0.799502
0.55394
-0.650353
0.496506
-0.49585
0.451358
-0.357993
0.419851
-0.248881
0.402261
-0.161148
0.394655
-0.0910445
0.390034
-0.0501771
-0.0307179
0.754001
-0.775165
-0.850426
0.655141
-0.700642
0.563496
-0.558708
0.487526
-0.41988
0.429843
-0.30031
0.38996
-0.208997
0.366385
-0.137573
0.355457
-0.0801165
0.349652
-0.0443728
-0.0272429
0.779001
-0.641677
-0.91249
0.653768
-0.575409
0.546317
-0.451257
0.461096
-0.334658
0.398255
-0.237469
0.35472
-0.165462
0.327715
-0.110569
0.314178
-0.0665791
0.307219
-0.0374138
-0.0231091
0.752988
-0.492429
-0.902237
0.617577
-0.439998
0.506209
-0.339889
0.420143
-0.248592
0.357645
-0.174971
0.314244
-0.122062
0.286354
-0.0826781
0.271208
-0.0514333
0.263285
-0.0294904
-0.0184662
0.685109
-0.345832
-0.831706
0.552711
-0.307599
0.44647
-0.233648
0.366023
-0.168144
0.308352
-0.117301
0.268266
-0.0819749
0.241818
-0.0562304
0.226463
-0.0360779
0.218081
-0.0211089
-0.0135638
0.582622
-0.213859
-0.714595
0.462896
-0.187873
0.369329
-0.140082
0.299961
-0.098776
0.25094
-0.0682794
0.216854
-0.0478898
0.193883
-0.0332587
0.179791
-0.0219857
0.171717
-0.0130352
-0.0087631
0.448761
-0.105523
-0.557097
0.351183
-0.0902951
0.277065
-0.065964
0.223538
-0.0452487
0.186286
-0.0310273
0.16034
-0.0219439
0.142516
-0.0154348
0.131066
-0.0105363
0.124228
-0.00619686
-0.00452689
0.286592
-0.0302204
-0.361895
0.220912
-0.0246152
0.172494
-0.0175457
0.138716
-0.0114707
0.115485
-0.00779629
0.0991581
-0.00561693
0.0877394
-0.00401614
0.0801002
-0.00289707
0.0755114
-0.00160799
-0.00141267
0.101316
-0.131536
0.0767006
0.0591549
0.0476842
0.039888
0.034271
0.0302549
0.0273578
0.0257498
0.738821
0.0102226
-0.740769
0.733075
0.0284079
0.723436
0.0467423
0.710163
0.0639064
0.693569
0.0791639
0.674075
0.092183
0.652271
0.103012
0.62871
0.112185
0.604264
0.119284
0.119802
0.845549
0.0133985
-0.848725
0.837321
0.0366354
0.827287
0.0567762
0.816593
0.0746011
0.805249
0.0905072
0.792894
0.104538
0.77928
0.116627
0.764583
0.126882
0.749117
0.13475
0.137466
0.844983
0.0114258
-0.843011
0.848883
0.0327354
0.853021
0.0526388
0.856472
0.0711496
0.858834
0.0881458
0.859921
0.103451
0.859596
0.116951
0.857967
0.128511
0.855299
0.137418
0.142338
0.800213
0.0093048
-0.798092
0.805821
0.0271274
0.814419
0.044041
0.825638
0.0599309
0.839003
0.0747803
0.853853
0.0886014
0.869423
0.101381
0.885058
0.112876
0.899945
0.122531
0.129793
0.737866
0.00703904
-0.7356
0.744155
0.0208387
0.754124
0.0340717
0.767504
0.0465505
0.784084
0.0582003
0.803663
0.069023
0.825992
0.079052
0.850627
0.0882411
0.876549
0.0966084
0.104106
0.653921
0.00485419
-0.651736
0.660203
0.0145563
0.670378
0.0238964
0.684221
0.0327075
0.701525
0.0408961
0.722112
0.0484361
0.745807
0.0553571
0.772332
0.0617166
0.80122
0.0677198
0.0736204
0.549112
0.00291623
-0.547174
0.554812
0.008856
0.564138
0.0145706
0.576906
0.0199401
0.592915
0.0248868
0.611968
0.0293827
0.633871
0.0334541
0.658408
0.0371803
0.685381
0.0407465
0.0444065
0.422792
0.00137579
-0.421252
0.427412
0.00423599
0.435007
0.00697562
0.445422
0.00952585
0.45847
0.0118387
0.473957
0.0138957
0.491697
0.0157138
0.511528
0.0173497
0.533347
0.0189272
0.0206563
0.273828
0.000366681
-0.272819
0.276915
0.00114945
0.281999
0.00189174
0.288955
0.0025694
0.297629
0.00316445
0.307856
0.00366912
0.319482
0.00408803
0.332395
0.00443666
0.346562
0.0047604
0.00532323
0.100484
-0.100117
0.101633
0.103525
0.106094
0.109259
0.112928
0.117016
0.121453
0.126213
0.0779337
0.1595
-0.142486
-0.0949477
0.0630292
0.147457
-0.132553
0.0496195
0.134404
-0.120994
0.0376041
0.120331
-0.108315
0.0270269
0.10517
-0.0945926
0.0179781
0.0888939
-0.0798451
0.010573
0.0714604
-0.0640553
0.00496334
0.0528095
-0.0471999
0.00134802
0.0328745
-0.0292591
0.0116391
-0.010291
0.0779426
0.174431
-0.0928733
0.0638724
0.161528
0.0508406
0.147436
0.0389386
0.132233
0.0282764
0.115832
0.0190004
0.0981699
0.0112896
0.0791712
0.0053596
0.0587395
0.00147722
0.0367568
0.0131163
0.073181
0.187927
-0.0866765
0.0603711
0.174338
0.0483511
0.159456
0.0372491
0.143335
0.0272034
0.125878
0.0183794
0.106994
0.0109766
0.0865739
0.00523534
0.0644808
0.00144962
0.0405426
0.0145659
0.0667722
0.200352
-0.0791977
0.055034
0.186076
0.0440499
0.17044
0.033922
0.153463
0.0247666
0.135033
0.016727
0.115033
0.00998166
0.0933193
0.00475145
0.069711
0.00130964
0.0439844
0.0158755
0.0593134
0.211656
-0.0706176
0.048716
0.196673
0.0388678
0.180288
0.0298414
0.162489
0.0217244
0.14315
0.0146296
0.122128
0.00870232
0.0992465
0.00412643
0.0742869
0.00113096
0.0469798
0.0170065
0.0505987
0.22152
-0.060463
0.0414115
0.205861
0.0329278
0.188772
0.0251974
0.170219
0.0182838
0.150064
0.0122721
0.12814
0.00727494
0.104244
0.00343651
0.0781253
0.000937276
0.0494791
0.0179438
0.0404577
0.229564
-0.0485008
0.033013
0.213305
0.0261766
0.195608
0.0199774
0.176419
0.0144574
0.155584
0.00967744
0.13292
0.00572042
0.108201
0.00269375
0.081152
0.000731833
0.051441
0.0186756
0.0290544
0.235441
-0.0349321
0.0236514
0.218708
0.0187147
0.200545
0.0142552
0.180878
0.0102962
0.159543
0.0068775
0.136339
0.00405558
0.111023
0.00190425
0.0833033
0.000515277
0.05283
0.0191909
0.0169175
0.238926
-0.0204021
0.0137419
0.221884
0.0108549
0.203432
0.00825479
0.183478
0.00595145
0.161846
0.00396646
0.138324
0.00233216
0.112657
0.00109065
0.0845448
0.000293237
0.0536274
0.0194841
0.00482778
-0.00589039
0.00388036
0.00303396
0.00228334
0.00162811
0.00107197
0.000621592
0.000285814
7.4967e-05
0.0436488
0.0413877
-0.0525435
-0.032493
0.0352739
0.0383393
-0.0299644
0.027606
0.0349406
-0.0272727
0.0208714
0.0313272
-0.0245925
0.0150718
0.0277612
-0.0219616
0.00996594
0.0242037
-0.0190979
0.00543685
0.020068
-0.0155389
0.0019727
0.0144577
-0.0109936
0.000385926
0.00739203
-0.00580526
0.0020869
-0.00170097
0.0437632
0.0505606
-0.0529361
0.0351097
0.0469928
0.027067
0.0429833
0.0199179
0.0384763
0.0139787
0.0337005
0.00925583
0.0289265
0.0055046
0.0238192
0.0025746
0.0173877
0.000621099
0.00934553
0.002708
0.0449556
0.060121
-0.0545161
0.0360282
0.0559202
0.0277848
0.0512266
0.0203427
0.0459184
0.0140278
0.0400154
0.00910452
0.0338498
0.00551866
0.0274051
0.00289348
0.0200129
0.000809615
0.0114294
0.00351762
0.0473874
0.0703115
-0.0575778
0.0379478
0.0653598
0.0293739
0.0598006
0.0217035
0.0535888
0.0150623
0.0466566
0.00970945
0.0392027
0.00576667
0.0313479
0.00296135
0.0228182
0.00087567
0.0135151
0.00439329
0.0508528
0.0812412
-0.0617826
0.0407457
0.075467
0.031625
0.0689213
0.0235531
0.0616606
0.0165532
0.0536565
0.0107524
0.0450035
0.00628595
0.0358143
0.00306365
0.0260405
0.000881069
0.0156977
0.00527436
0.0545469
0.0928413
-0.066147
0.0438227
0.0861912
0.0341375
0.0786065
0.0255662
0.0702319
0.0181308
0.0610919
0.0118875
0.0512468
0.0069315
0.0407703
0.00328008
0.029692
0.000909034
0.0180687
0.00618339
0.0575967
0.104926
-0.069681
0.0464346
0.0973533
0.0363291
0.088712
0.0273404
0.0792206
0.0195044
0.0689278
0.0128717
0.0578796
0.00752183
0.0461202
0.00352616
0.0336876
0.000959916
0.020635
0.00714331
0.0596499
0.117255
-0.0719791
0.0482705
0.108733
0.0379264
0.0990562
0.0286626
0.0884843
0.0205311
0.0770594
0.0136007
0.0648099
0.00796269
0.0517582
0.00372233
0.037928
0.00100547
0.0233518
0.00814877
0.061461
0.12971
-0.0739166
0.0499618
0.120232
0.0394112
0.109607
0.029881
0.0980146
0.0214573
0.0854831
0.0142372
0.07203
0.00833513
0.0576603
0.00388484
0.0423783
0.00104198
0.0261947
0.00919075
0.0663152
-0.0790912
0.0539942
0.0426068
0.0323059
0.0231964
0.0153813
0.00898632
0.00416475
0.00110029
0.213994
0.0613729
-0.0773773
0.236636
0.0898453
-0.112487
0.261053
0.123471
-0.147888
0.27634
0.113484
-0.128772
0.275637
0.110127
-0.109424
0.252809
0.179119
-0.156292
0.218704
0.293718
-0.259614
0.174737
0.412384
-0.368417
0.118367
0.494424
-0.438053
0.461465
-0.395642
0.213356
0.0460069
0.234851
0.0683501
0.258344
0.0999779
0.274143
0.0976859
0.275039
0.109231
0.253174
0.200984
0.218948
0.327945
0.174536
0.456797
0.118069
0.550891
0.526597
0.213062
0.0309344
0.233695
0.0477171
0.256314
0.0773593
0.272176
0.0818243
0.273369
0.108038
0.252016
0.222337
0.217771
0.36219
0.173284
0.501284
0.117892
0.606283
0.589974
0.213037
0.0158872
0.233177
0.0275768
0.255032
0.0555043
0.270576
0.0662802
0.270891
0.107723
0.249452
0.243775
0.215316
0.396326
0.171359
0.545241
0.118418
0.659223
0.650814
0.213207
0.000669607
0.233175
0.00760955
0.254314
0.0343653
0.268928
0.0516656
0.26749
0.109161
0.245533
0.265733
0.211765
0.430094
0.169168
0.587838
0.119776
0.708616
0.708807
0.21351
-0.0148505
0.2335
-0.0123802
0.25387
0.0139954
0.266875
0.0386599
0.263044
0.112993
0.240353
0.288423
0.207363
0.463084
0.166984
0.628217
0.121505
0.754095
0.764165
0.213809
-0.0306699
0.233958
-0.0325293
0.253432
-0.00547833
0.264199
0.0278932
0.257514
0.119677
0.234108
0.311829
0.202385
0.494807
0.164795
0.665808
0.122718
0.796172
0.817201
0.213932
-0.0466118
0.234399
-0.0529966
0.252768
-0.0238471
0.260669
0.0199923
0.25081
0.129536
0.22691
0.335729
0.196881
0.524837
0.162175
0.700513
0.122394
0.835953
0.867616
0.213804
-0.062426
0.234762
-0.0739548
0.251728
-0.0408128
0.256308
0.0154119
0.243177
0.142668
0.219117
0.359789
0.190968
0.552985
0.158704
0.732778
0.12014
0.874517
0.91384
0.213684
-0.0781201
0.234981
-0.0952524
0.250279
-0.0561099
0.250754
0.0149369
0.234074
0.159348
0.210093
0.383769
0.183726
0.579352
0.153511
0.762993
0.116459
0.91157
0.951207
0.331875
-0.107985
0.370537
-0.133914
0.406927
-0.0924994
0.424606
-0.00274216
0.439257
0.144697
0.467497
0.355529
0.506611
0.540238
0.549582
0.720022
0.581361
0.879792
0.946075
0.586493
0.333477
-0.139452
0.372978
-0.173415
0.408208
-0.127729
0.422932
-0.0174662
0.436288
0.131342
0.476169
0.315647
0.534362
0.482045
0.604487
0.649897
0.675395
0.808884
0.888494
0.732975
0.336154
-0.173596
0.375037
-0.212298
0.40848
-0.161173
0.418744
-0.0277297
0.428462
0.121623
0.474387
0.269722
0.546669
0.409763
0.638889
0.557677
0.742309
0.705464
0.78439
0.846413
0.340297
-0.211883
0.373109
-0.24511
0.384501
-0.172565
0.381793
-0.0250212
0.399611
0.103806
0.453221
0.216111
0.534323
0.328662
0.640621
0.451379
0.767132
0.578953
0.647011
0.90451
0.348386
-0.258259
0.35636
-0.253084
0.337693
-0.153897
0.334935
-0.0222634
0.358978
0.0797621
0.41423
0.16086
0.49738
0.245511
0.607956
0.340803
0.74378
0.443129
0.495835
0.894956
0.340817
-0.297065
0.321132
-0.2334
0.288018
-0.120783
0.28438
-0.0186258
0.309198
0.0549439
0.361229
0.108829
0.439834
0.166907
0.545802
0.234835
0.678789
0.310142
0.347969
0.826655
0.314275
-0.30933
0.271545
-0.19067
0.233713
-0.0829508
0.228883
-0.0137961
0.251243
0.0325841
0.296264
0.0638078
0.364665
0.0985059
0.458353
0.141147
0.578809
0.189685
0.215097
0.711682
0.273774
-0.281094
0.212876
-0.129771
0.174406
-0.0444815
0.168937
-0.00832679
0.186393
0.0151278
0.221038
0.0291626
0.274208
0.0453363
0.348697
0.0666576
0.447055
0.0913278
0.106136
0.556016
0.214644
-0.193728
0.140473
-0.0555999
0.109407
-0.0134155
0.104161
-0.00308132
0.11544
0.0038494
0.137321
0.00728171
0.171114
0.0115424
0.219976
0.0177958
0.28634
0.0249639
0.030407
0.36207
0.108282
0.0526826
0.0392671
0.0361857
0.0400351
0.0473168
0.0588593
0.076655
0.101619
0.132026
0.60865
-0.117105
0.632316
-0.116539
0.655135
-0.109496
0.676288
-0.10035
0.695232
-0.0895621
0.71137
-0.0766006
0.724263
-0.0613944
0.73359
-0.0442591
0.739076
-0.0258872
-0.00758338
0.750311
-0.134441
0.765216
-0.131444
0.77942
-0.1237
0.792645
-0.113575
0.80471
-0.101626
0.815846
-0.0877369
0.826402
-0.0719503
0.836392
-0.0542489
0.844841
-0.0343365
-0.011467
0.851036
-0.139064
0.853481
-0.133888
0.854997
-0.125215
0.855375
-0.113953
0.854527
-0.100778
0.852626
-0.0858363
0.849899
-0.0692235
0.846742
-0.0510913
0.843948
-0.0315431
-0.0105296
0.892565
-0.127119
0.878547
-0.11987
0.863865
-0.110533
0.849298
-0.0993867
0.835451
-0.0869314
0.823022
-0.0734077
0.812637
-0.0588386
0.804757
-0.0432109
0.799745
-0.0265311
-0.00887674
0.870324
-0.102487
0.845558
-0.0951045
0.821951
-0.0869254
0.800493
-0.0779291
0.781656
-0.0680946
0.765715
-0.0574668
0.752891
-0.0460138
0.743403
-0.0337237
0.737524
-0.0206513
-0.00695326
0.797004
-0.0728358
0.768937
-0.067038
0.743124
-0.0611121
0.720038
-0.0548429
0.699972
-0.0480284
0.683112
-0.040607
0.669641
-0.0325433
0.659769
-0.0238511
0.653726
-0.0146081
-0.00496349
0.682986
-0.04414
0.6565
-0.0405526
0.632401
-0.0370126
0.610878
-0.03332
0.592144
-0.029295
0.576395
-0.0248576
0.563828
-0.0199759
0.554646
-0.0146693
0.549043
-0.00900529
-0.00309454
0.532509
-0.0206337
0.510907
-0.0189506
0.491274
-0.0173793
0.473703
-0.0157486
0.45835
-0.013942
0.445396
-0.0119044
0.435036
-0.00961595
0.427458
-0.00709064
0.422824
-0.00437137
-0.00152278
0.346787
-0.00535157
0.332646
-0.00480895
0.319751
-0.00448472
0.308136
-0.00413345
0.297908
-0.00371352
0.289214
-0.00321075
0.282218
-0.00261992
0.277075
-0.00194732
0.273913
-0.0012094
-0.000429187
0.126674
0.121865
0.117381
0.113247
0.109534
0.106323
0.103703
0.101756
0.100546
0.000185056
0.0116091
-0.0117942
0.000623732
0.0304462
-0.0308849
0.00123715
0.0462413
-0.0468547
0.00197731
0.059467
-0.0602072
0.0027766
0.070021
-0.0708203
0.00376951
0.0798886
-0.0808815
0.00396345
0.0772667
-0.0774606
0.00408482
0.0700419
-0.0701632
0.00394495
0.0610792
-0.0609393
0.0499557
0.00350719
-0.0495179
0.000533392
0.0110757
0.00180385
0.0291757
0.00358506
0.0444601
0.00574121
0.0573109
0.00807277
0.0676894
0.0110396
0.0769218
0.0116759
0.0766304
0.0120808
0.069637
0.0117736
0.0613864
0.051078
0.0106512
0.000835493
0.0102402
0.00283181
0.0271794
0.00563908
0.0416528
0.0090415
0.0539085
0.0127394
0.0639916
0.0172474
0.0724138
0.0187901
0.0750877
0.0195717
0.0688554
0.0193855
0.0615726
0.0524345
0.0180291
0.00105597
0.00918426
0.00359698
0.0246384
0.00719359
0.0380562
0.0115558
0.0495463
0.0163565
0.0591908
0.0217477
0.0670226
0.0250727
0.0717627
0.026355
0.067573
0.0266033
0.0613243
0.0535663
0.0254715
0.00115145
0.00803281
0.0039793
0.0218106
0.0080417
0.0339938
0.0129969
0.0445911
0.0185516
0.0536361
0.0245576
0.0610167
0.0299522
0.0663681
0.0320901
0.0654351
0.0330115
0.060403
0.0540911
0.0324867
0.00111148
0.00692133
0.00396599
0.0189561
0.00818559
0.0297742
0.0133903
0.0393864
0.0193181
0.0477083
0.0257721
0.0545627
0.032416
0.0597241
0.0363126
0.0615385
0.0381245
0.0585912
0.053707
0.0385085
0.000926236
0.0059951
0.00357297
0.0163093
0.00771068
0.0256365
0.0128818
0.0342153
0.0187868
0.0418033
0.0253383
0.0480111
0.0323212
0.0527413
0.0382753
0.0555844
0.0415874
0.0552791
0.0521829
0.0431115
0.00056784
0.00542726
0.00278664
0.0140905
0.00665754
0.0217656
0.0116214
0.0292515
0.0172045
0.0362203
0.0234475
0.041768
0.0302862
0.0459026
0.0371842
0.0486864
0.0425612
0.0499021
0.0489243
0.0458199
0.000103805
0.00532346
0.00176859
0.0124257
0.00517576
0.0183585
0.009815
0.0246122
0.0149571
0.0310782
0.0206214
0.0361038
0.0269036
0.0396203
0.0335872
0.0420029
0.0400849
0.0434043
0.0437961
0.0452131
-0.000175648
0.00549911
0.00108679
0.0111633
0.00385588
0.0155894
0.00788652
0.0205816
0.012501
0.0264637
0.0175714
0.0310334
0.023177
0.0340147
0.029249
0.0359309
0.0356353
0.037018
0.0373699
0.0420615
-2.13023e-05
0.00552041
0.00113974
0.0100023
0.00327728
0.0134518
0.00641265
0.0174462
0.0102941
0.0225823
0.0148353
0.0264921
0.0199548
0.0288952
0.0254867
0.030399
0.0312239
0.0312808
0.0316964
0.0368973
0.000377115
0.00514329
0.00153101
0.00884836
0.00317952
0.0118033
0.00548989
0.0151358
0.00870846
0.0193637
0.0128931
0.0223075
0.0177441
0.0240442
0.0230104
0.0251327
0.028501
0.0257902
0.0260608
0.0341366
0.000623538
0.00451975
0.00170567
0.00776622
0.0030255
0.0104835
0.00484426
0.0133171
0.00783388
0.0163741
0.011922
0.0182194
0.0166724
0.0192937
0.0218455
0.0199596
0.0273087
0.020327
0.0204087
0.0329607
0.000676338
0.00384341
0.00164163
0.00680093
0.00282061
0.00930451
0.00470189
0.0114358
0.00797532
0.0131006
0.0122054
0.0139893
0.017022
0.0144771
0.0222633
0.0147183
0.0278327
0.0147576
0.014597
0.0336444
0.0006638
0.00317961
0.00155406
0.00591066
0.00299573
0.00786283
0.00558393
0.00884758
0.00937757
0.009307
0.0139022
0.00946462
0.0189482
0.00943108
0.0244162
0.00925034
0.0302382
0.00893561
0.00849267
0.0363425
0.000594156
0.00258545
0.0017182
0.00478661
0.00406773
0.00551329
0.00752997
0.00538533
0.0117884
0.00504859
0.0166419
0.00461108
0.0219891
0.00408394
0.0277706
0.00346882
0.033935
0.00277117
0.00200403
0.0404236
0.000525933
0.00205951
0.00249237
0.00282016
0.00576525
0.00224041
0.00976852
0.00138205
0.0143646
0.000452517
0.0195076
-0.000531981
0.0251675
-0.00157596
0.0313014
-0.00266508
0.0378485
-0.00377589
-0.00489618
0.0447487
0.000879075
0.00118043
0.00362861
7.06124e-05
0.00719451
-0.00132549
0.0113842
-0.0028076
0.0161842
-0.00434756
0.0216052
-0.005953
0.0276057
-0.00757642
0.0340948
-0.00915423
0.0409895
-0.0106706
-0.0121555
0.0482488
0.0015068
-0.000326382
0.0041368
-0.0025594
0.00756058
-0.00474928
0.0117784
-0.00702542
0.0167974
-0.00936659
0.022539
-0.0116945
0.028836
-0.0138735
0.0355674
-0.0158856
0.0427074
-0.0178106
-0.0197044
0.0502563
0.00105323
0.00314504
0.00646843
0.0109389
0.0163224
0.0223005
0.0287122
0.035589
0.0429982
0.0509182
0.0513984
0.0837609
-0.098262
0.0772806
-0.00743348
-0.0184487
0.0999004
-0.0511081
0.0284883
0.113561
-0.0470235
0.0333627
0.121498
-0.0267207
0.0187839
0.12509
-0.00787026
0.00427832
0.126085
0.00352379
-0.00451884
0.126238
0.00719061
-0.00734373
0.126404
0.0069185
-0.00708461
0.00419527
-0.00512997
0.0586031
0.0592944
0.0916533
-0.0404838
0.118825
-0.0782796
0.134819
-0.0630175
0.143517
-0.035419
0.147139
-0.0114924
0.147845
0.00281882
0.147644
0.00739093
0.147519
0.00704394
0.00356468
0.0666253
0.0256298
0.105044
-0.0789025
0.136052
-0.109288
0.155668
-0.0826336
0.165636
-0.0453872
0.169324
-0.0151803
0.169628
0.00251531
0.168907
0.00811141
0.168315
0.00763628
0.00339052
0.0755185
-0.0162442
0.117894
-0.121278
0.151797
-0.14319
0.175174
-0.10601
0.187189
-0.0574032
0.191207
-0.019198
0.191141
0.0025818
0.189841
0.00941093
0.188691
0.00878659
0.00376632
0.084588
-0.0644897
0.129736
-0.166426
0.165807
-0.179261
0.192495
-0.132698
0.207415
-0.0723229
0.212361
-0.024144
0.212116
0.00282644
0.210273
0.011254
0.208545
0.0105146
0.00472976
0.0930606
-0.117127
0.140235
-0.213601
0.177991
-0.217016
0.207242
-0.161949
0.225453
-0.0905342
0.232245
-0.0309361
0.232233
0.00283852
0.230003
0.013484
0.227761
0.0127561
0.00625748
0.100273
-0.172651
0.149117
-0.262445
0.18825
-0.256149
0.219335
-0.193034
0.240606
-0.111806
0.250218
-0.0405478
0.251126
0.00193081
0.24881
0.0157995
0.246211
0.0153558
0.0082623
0.105874
-0.230276
0.156254
-0.312825
0.196529
-0.296424
0.22888
-0.225386
0.252551
-0.135476
0.265548
-0.0535454
0.268348
-0.000869218
0.266436
0.017712
0.263741
0.018051
0.0105892
0.109845
-0.289864
0.161678
-0.364659
0.202855
-0.3376
0.236053
-0.258584
0.261334
-0.160756
0.277596
-0.0698083
0.283347
-0.00661943
0.282559
0.0184996
0.280166
0.0204444
0.0130033
0.112502
0.165564
0.207364
0.241048
0.267268
0.286078
0.295447
0.296765
0.295246
0.0131996
0.00607842
-0.019278
0.0109848
0.00221476
0.0114997
-0.00051485
0.0129195
-0.00141983
0.0136279
-0.000708424
0.0137404
-0.000112505
0.0135149
0.000225549
0.0131745
0.000340405
0.0129156
0.000258914
0.000317993
0.037246
0.0232177
-0.0543853
0.031481
0.00797969
0.0339802
-0.00301401
0.038027
-0.00546668
0.0401837
-0.00286511
0.0405673
-0.000496097
0.0399248
0.000868059
0.0389673
0.00129795
0.0380905
0.00113575
0.00105959
0.0579599
0.0481026
-0.0828449
0.0508613
0.0150783
0.0558537
-0.00800639
0.0624167
-0.0120296
0.0660605
-0.00650891
0.0667953
-0.00123088
0.0658001
0.00186326
0.0642706
0.00282747
0.06279
0.00261632
0.00214663
0.0738966
0.0754143
-0.101208
0.0680506
0.0209243
0.0763946
-0.0163504
0.0857075
-0.0213426
0.0909959
-0.0117972
0.0922236
-0.00245856
0.0909751
0.00311174
0.0889337
0.00486887
0.086922
0.00462806
0.00352517
0.0813877
-0.104236
0.0838631
0.0960009
0.108021
0.115008
0.116828
0.115421
0.112946
0.110489
0.00273366
-0.000172925
-0.00256073
0.00326453
-0.00053087
0.00417676
-0.000912229
0.00548781
-0.00131105
0.00718422
-0.00169641
0.00922878
-0.00204456
0.0115854
-0.00235658
0.0141737
-0.0025883
0.0168587
-0.00268508
-0.00241929
0.00778739
-0.000645696
-0.00731462
0.00923428
-0.00197776
0.0117136
-0.00339158
0.01527
-0.00486743
0.0198843
-0.00631066
0.0254822
-0.00764254
0.0319645
-0.00883888
0.0391559
-0.00977967
0.0467671
-0.0102963
-0.0100375
0.012478
-0.00138375
-0.0117399
0.0147277
-0.00422744
0.0185605
-0.00722444
0.0240245
-0.0103314
0.0310791
-0.0133653
0.0395859
-0.0161494
0.0493278
-0.0185808
0.060051
-0.0205029
0.0714149
-0.0216602
-0.0214674
0.0168074
-0.00234769
-0.0158434
0.0197316
-0.00715166
0.0246748
-0.0121676
0.0316512
-0.0173078
0.0405498
-0.0222638
0.0511059
-0.0267055
0.0629371
-0.0304119
0.0756937
-0.0332596
0.0888598
-0.0348263
-0.033816
0.0207929
-0.0196334
0.0242924
0.0301539
0.0383175
0.0485404
0.0603434
0.0730429
0.0856033
0.0959901
0.0314501
-0.0313037
0.0371094
-0.0372558
0.025589
-0.0309006
0.0367618
0.0199298
-0.030068
0.0357271
0.0146827
-0.028672
0.0339192
0.010062
-0.0264637
0.0310844
0.00620595
-0.022777
0.0266331
0.00311472
-0.0176472
0.0207384
0.0010181
-0.0136217
0.0157183
-8.63147e-05
-0.0101609
0.0112653
-0.00564126
0.00555494
0.0294694
-0.0254394
-0.0353337
0.0237527
-0.0251839
0.018262
-0.0245772
0.013175
-0.023585
0.00874471
-0.0220334
0.00535307
-0.0193854
0.00302152
-0.0153156
0.00139777
-0.0119979
0.000298895
-0.00906202
-0.00534236
0.0294425
-0.0194503
-0.0354315
0.0236376
-0.019379
0.0181195
-0.019059
0.0130051
-0.0184707
0.00849742
-0.0175257
0.00504725
-0.0159352
0.00300708
-0.0132754
0.00164655
-0.0106374
0.00058351
-0.00799897
-0.00475884
0.0313602
-0.0131869
-0.0376236
0.0253313
-0.0133502
0.0196205
-0.0133482
0.0143141
-0.0131642
0.00955089
-0.0127625
0.00565553
-0.0120398
0.00320009
-0.01082
0.00176305
-0.00920035
0.000727984
-0.0069639
-0.00403085
0.0349536
-0.00653238
-0.0416082
0.028581
-0.0069775
0.0225622
-0.00732942
0.0169636
-0.00756564
0.0118759
-0.00767471
0.00748346
-0.00764736
0.00413743
-0.00747394
0.0019942
-0.00705711
0.000798851
-0.00576854
-0.003232
0.0392617
0.000573217
-0.0463673
0.0324813
-0.000197044
0.0260984
-0.000946539
0.0201875
-0.00165478
0.0148093
-0.00229647
0.0100268
-0.00286482
0.00592367
-0.00337083
0.00267398
-0.00380741
0.000720581
-0.00381513
-0.00251141
0.043086
0.00808693
-0.0505997
0.0359125
0.00697647
0.0291328
0.00583317
0.0228467
0.00463132
0.0171561
0.00339415
0.0121004
0.00219082
0.00766131
0.00106829
0.00384539
8.50858e-06
0.000978503
-0.00094823
-0.0015329
0.0453536
0.0158867
-0.0531533
0.0379299
0.0144002
0.0308798
0.0128833
0.0242397
0.0112714
0.0181527
0.00948111
0.0128044
0.00753914
0.00827313
0.00559959
0.00453479
0.00374686
0.00162894
0.00195763
9.60427e-05
0.0455033
0.0239839
-0.0536005
0.0378904
0.0220131
0.0307651
0.0200086
0.0240406
0.0179959
0.0176854
0.0158364
0.0118938
0.0133307
0.00704212
0.0104513
0.00341507
0.00737392
0.00114649
0.00422622
0.00124254
0.0444492
-0.0529583
0.0364979
0.0292338
0.0226371
0.0165119