/*--------------------------------*- C++ -*----------------------------------*\
  =========                 |
  \\      /  F ield         | OpenFOAM: The Open Source CFD Toolbox
   \\    /   O peration     | Website:  https://openfoam.org
    \\  /    A nd           | Version:  13
     \\/     M anipulation  |
\*---------------------------------------------------------------------------*/
FoamFile
{
    format      ascii;
    class       volScalarField;
    location    "4";
    object      p;
}
// * * * * * * * * * * * * * * * * * * * * * * * * * * * * * * * * * * * * * //

dimensions      [0 2 -2 0 0 0 0];

internalField   nonuniform List<scalar> 
1800
(
-0.889547
-0.890283
-0.889555
-0.886565
-0.881601
-0.875197
-0.869455
-0.867172
-0.86768
-0.909619
-0.914159
-0.913029
-0.910829
-0.907025
-0.901651
-0.89497
-0.888039
-0.882969
-0.87849
-0.911739
-0.947827
-0.943787
-0.939337
-0.934099
-0.928293
-0.922028
-0.915452
-0.9093
-0.904391
-0.914017
-0.989013
-0.981883
-0.974496
-0.966991
-0.959382
-0.951371
-0.942575
-0.932992
-0.923672
-0.917495
-1.04309
-1.03294
-1.02291
-1.01285
-1.0021
-0.989646
-0.974629
-0.956909
-0.937344
-0.91736
-1.11219
-1.09922
-1.08619
-1.07232
-1.05559
-1.03442
-1.00843
-0.978387
-0.945711
-0.912039
-1.19543
-1.17985
-1.1628
-1.14239
-1.11534
-1.08074
-1.03993
-0.995362
-0.949378
-0.904212
-1.28737
-1.26962
-1.24657
-1.21538
-1.17308
-1.12099
-1.06305
-1.00316
-0.944048
-0.887483
-1.37872
-1.35879
-1.3269
-1.28039
-1.21881
-1.14721
-1.07193
-0.997562
-0.926576
-0.860239
-1.45693
-1.43419
-1.39056
-1.32533
-1.24265
-1.15175
-1.06041
-0.972982
-0.891299
-0.815874
-0.984921
-0.993183
-1.00352
-1.01679
-1.03466
-1.05703
-1.08297
-1.11212
-1.14635
-1.18788
-0.968765
-0.974188
-0.981456
-0.991885
-1.00706
-1.02684
-1.05024
-1.07658
-1.10673
-1.14225
-0.975052
-0.976854
-0.980566
-0.988268
-1.00101
-1.01853
-1.03993
-1.06419
-1.09103
-1.12121
-0.981833
-0.979526
-0.979635
-0.984436
-0.99444
-1.00937
-1.02849
-1.0509
-1.07549
-1.10098
-0.976119
-0.970418
-0.967314
-0.968698
-0.974878
-0.985649
-1.00049
-1.01873
-1.03933
-1.05986
-0.956937
-0.949692
-0.944145
-0.941512
-0.942006
-0.9457
-0.952476
-0.962046
-0.973918
-0.986006
-0.931768
-0.925376
-0.919179
-0.913389
-0.907901
-0.902929
-0.898859
-0.89609
-0.895208
-0.896807
-0.907637
-0.903874
-0.898973
-0.892219
-0.883108
-0.871723
-0.858641
-0.844809
-0.832076
-0.825397
-0.888891
-0.887945
-0.88524
-0.879299
-0.869661
-0.856435
-0.840349
-0.822667
-0.805741
-0.794262
-0.876854
-0.877913
-0.876496
-0.871463
-0.862791
-0.850737
-0.836007
-0.819576
-0.803176
-0.788198
-1.42389
-1.63637
-1.16907
-0.787343
-0.520892
-0.225732
-0.0742339
0.00908061
0.026884
0.0201652
-1.35195
-1.65214
-1.30846
-0.940179
-0.595489
-0.259593
-0.0856287
0.00411016
0.0240763
0.0188088
-1.31279
-1.70826
-1.47355
-1.08814
-0.668476
-0.295814
-0.0998769
-0.00333442
0.019977
0.0167495
-1.27737
-1.7678
-1.63154
-1.22236
-0.737141
-0.332792
-0.116718
-0.0131232
0.0146815
0.0141265
-1.2188
-1.7999
-1.75643
-1.33589
-0.800047
-0.369654
-0.135896
-0.0250812
0.00827224
0.0110723
-1.12612
-1.78874
-1.83378
-1.42396
-0.856054
-0.406299
-0.157334
-0.0390453
0.000823622
0.00768595
-0.999003
-1.73448
-1.86172
-1.48406
-0.903803
-0.442666
-0.181089
-0.054941
-0.00761418
0.0040393
-0.860489
-1.64247
-1.84572
-1.51577
-0.941426
-0.477977
-0.207052
-0.0727821
-0.0170643
0.000193888
-0.744047
-1.52611
-1.79867
-1.52159
-0.967991
-0.51086
-0.234743
-0.0926256
-0.027678
-0.00383044
-0.689503
-1.40433
-1.73246
-1.50933
-0.98613
-0.541029
-0.263519
-0.114412
-0.0396874
-0.00809833
-0.577509
-1.30551
-1.66867
-1.44501
-0.961982
-0.553741
-0.291466
-0.140833
-0.0558016
-0.0138282
-0.655113
-1.20077
-1.48559
-1.2768
-0.887413
-0.55362
-0.322322
-0.173153
-0.075736
-0.020535
-0.669587
-1.06013
-1.2742
-1.12106
-0.826655
-0.562234
-0.358127
-0.207338
-0.0960875
-0.0264732
-0.674376
-0.929524
-1.09126
-0.990888
-0.777269
-0.57728
-0.40131
-0.246912
-0.119559
-0.0329767
-0.641488
-0.815306
-0.937612
-0.879
-0.737575
-0.600271
-0.450603
-0.287753
-0.141639
-0.0377927
-0.598695
-0.71832
-0.809121
-0.783521
-0.707189
-0.625277
-0.494636
-0.322934
-0.160998
-0.0415948
-0.551905
-0.637038
-0.702668
-0.703089
-0.682553
-0.647624
-0.529665
-0.349657
-0.174232
-0.043777
-0.507085
-0.572057
-0.620695
-0.644521
-0.664112
-0.654427
-0.542019
-0.360012
-0.180467
-0.0449797
-0.472821
-0.538393
-0.581139
-0.612663
-0.651246
-0.64898
-0.536547
-0.358956
-0.181193
-0.0457223
-0.447485
-0.531063
-0.588809
-0.623391
-0.647334
-0.639499
-0.525692
-0.3557
-0.180606
-0.0467081
-0.685653
-0.742303
-0.785063
-0.819061
-0.846746
-0.876158
-0.903668
-0.925532
-0.909702
-0.890652
-0.536667
-0.601786
-0.655566
-0.701023
-0.738156
-0.768227
-0.787418
-0.797375
-0.793404
-0.793712
-0.418324
-0.48601
-0.544477
-0.593668
-0.633321
-0.664033
-0.685052
-0.700246
-0.709054
-0.718379
-0.321455
-0.389647
-0.44945
-0.500464
-0.542382
-0.577095
-0.604533
-0.629
-0.649176
-0.669257
-0.242757
-0.310574
-0.370147
-0.422589
-0.466615
-0.505369
-0.537733
-0.567469
-0.593141
-0.617746
-0.179567
-0.2465
-0.305577
-0.358597
-0.403919
-0.444389
-0.478907
-0.510091
-0.537349
-0.562613
-0.130065
-0.1959
-0.254502
-0.307095
-0.352624
-0.392745
-0.42728
-0.457704
-0.484647
-0.509168
-0.0937791
-0.158596
-0.216715
-0.268277
-0.3132
-0.351839
-0.38523
-0.413644
-0.43895
-0.460848
-0.0721362
-0.136322
-0.194152
-0.245076
-0.289572
-0.327078
-0.359262
-0.385249
-0.407986
-0.425532
-0.0628765
-0.127463
-0.185571
-0.23689
-0.281536
-0.319265
-0.351077
-0.376096
-0.396837
-0.409728
0.673752
0.603604
0.523168
0.436887
0.34345
0.240532
0.128358
0.013528
-0.0824652
-0.128383
0.477201
0.40151
0.316963
0.224251
0.121527
0.00725255
-0.117281
-0.243745
-0.34825
-0.39691
0.261993
0.183646
0.0967555
0.000157559
-0.108246
-0.229582
-0.361907
-0.495612
-0.605287
-0.654723
0.0561545
-0.0253161
-0.11603
-0.217398
-0.331186
-0.458286
-0.596479
-0.73448
-0.845778
-0.893832
-0.128861
-0.214536
-0.31007
-0.416639
-0.535658
-0.667603
-0.810544
-0.949933
-1.05761
-1.10496
-0.292545
-0.382402
-0.482204
-0.592873
-0.715685
-0.850934
-0.993851
-1.13048
-1.23387
-1.2792
-0.436419
-0.528892
-0.630775
-0.743095
-0.866857
-1.00143
-1.14122
-1.27163
-1.36753
-1.40918
-0.563129
-0.654768
-0.755358
-0.865928
-0.986998
-1.11699
-1.24929
-1.36881
-1.45375
-1.49054
-0.668872
-0.757164
-0.853863
-0.959684
-1.07444
-1.19554
-1.31538
-1.41944
-1.49103
-1.52254
-0.75317
-0.835913
-0.9262
-1.02419
-1.12889
-1.23671
-1.33953
-1.42479
-1.48207
-1.50871
1.95713
1.97366
1.99075
2.0072
2.02209
2.03469
2.04422
2.05059
2.05574
2.0608
1.8919
1.90524
1.91836
1.93016
1.93987
1.94676
1.95007
1.95
1.94956
1.95125
1.80552
1.81466
1.82256
1.82829
1.83132
1.8309
1.82632
1.81809
1.81048
1.80805
1.70001
1.7044
1.70603
1.70434
1.69911
1.68962
1.67518
1.65677
1.64024
1.63298
1.57531
1.5739
1.5683
1.55832
1.54398
1.52452
1.49926
1.46963
1.44313
1.43063
1.43538
1.42804
1.41432
1.39468
1.36964
1.33851
1.30077
1.25841
1.22084
1.20244
1.28028
1.26648
1.24458
1.21539
1.17957
1.13638
1.08542
1.02947
0.98015
0.955666
1.11897
1.09769
1.06554
1.0246
0.976177
0.919593
0.854567
0.784557
0.723402
0.692859
0.956365
0.927542
0.884734
0.8313
0.769167
0.697743
0.617065
0.531677
0.458086
0.42166
0.806499
0.760249
0.700301
0.631486
0.554751
0.468544
0.37273
0.272743
0.18767
0.146082
1.66827
1.65506
1.64494
1.6382
1.6383
1.64293
1.66323
1.70282
1.77173
1.88209
1.66236
1.65009
1.64094
1.63321
1.63329
1.63566
1.65448
1.689
1.74898
1.84271
1.65707
1.64516
1.63677
1.62777
1.62771
1.62722
1.64431
1.67202
1.72065
1.79156
1.65229
1.64034
1.63244
1.62192
1.62157
1.61758
1.63278
1.65168
1.68728
1.72806
1.64798
1.63567
1.62794
1.61571
1.61484
1.60679
1.61988
1.62781
1.6495
1.65123
1.64414
1.63119
1.62327
1.6092
1.60746
1.59492
1.60552
1.60038
1.60754
1.56031
1.64074
1.62691
1.61842
1.60241
1.59939
1.58202
1.58957
1.5694
1.56151
1.45379
1.6378
1.62286
1.61338
1.59538
1.59061
1.5682
1.57184
1.53507
1.51117
1.33318
1.63536
1.61904
1.60818
1.58814
1.58114
1.55363
1.55222
1.4976
1.45475
1.19659
1.63342
1.61545
1.60289
1.58071
1.57112
1.53844
1.53176
1.45876
1.39535
1.05557
1.63158
1.61152
1.59575
1.57144
1.55702
1.51823
1.50142
1.40943
1.32427
0.920516
1.63098
1.60801
1.58766
1.56134
1.54033
1.49672
1.46666
1.36677
1.25342
0.900737
1.63223
1.60567
1.57943
1.55183
1.52324
1.47722
1.4333
1.33244
1.1958
0.893013
1.63591
1.60451
1.5713
1.54309
1.5063
1.45992
1.40209
1.30503
1.14875
0.890808
1.64273
1.60431
1.56336
1.53513
1.48886
1.44487
1.37314
1.28398
1.11229
0.891233
1.65332
1.60524
1.55571
1.52801
1.47171
1.43196
1.3469
1.26834
1.08553
0.890922
1.66752
1.6046
1.54721
1.51879
1.45426
1.42001
1.32387
1.25639
1.06701
0.890534
1.69276
1.60822
1.54176
1.51204
1.43918
1.40934
1.30472
1.2482
1.05507
0.891323
1.7055
1.60055
1.52978
1.50029
1.42647
1.40187
1.29241
1.24451
1.04956
0.894483
1.78216
1.61357
1.53338
1.49775
1.42077
1.39871
1.28694
1.24474
1.04709
0.899391
0.661283
0.501632
0.311252
0.128557
-0.0347936
-0.179745
-0.309292
-0.425123
-0.526955
-0.614381
0.616439
0.491164
0.347604
0.203202
0.0691372
-0.0537408
-0.166962
-0.273172
-0.371474
-0.460166
0.605017
0.498943
0.384205
0.265853
0.150728
0.0406727
-0.0640805
-0.163316
-0.25603
-0.341261
0.620688
0.52198
0.419234
0.316251
0.214687
0.115313
0.018742
-0.0741544
-0.162602
-0.245273
0.640746
0.547747
0.452728
0.359375
0.267546
0.176327
0.0860739
-0.00252311
-0.0876585
-0.168364
0.66089
0.573233
0.484168
0.397153
0.311634
0.2258
0.139851
0.0543153
-0.0281864
-0.106988
0.679741
0.59703
0.512757
0.429965
0.348097
0.265412
0.182117
0.0988651
0.0182658
-0.0588112
0.69659
0.618278
0.537969
0.457845
0.377528
0.29603
0.213811
0.131884
0.0525016
-0.0232618
0.71154
0.63675
0.559476
0.480438
0.399696
0.317457
0.234781
0.152932
0.0735975
-0.00189658
0.723549
0.650293
0.573646
0.493542
0.411113
0.327592
0.244286
0.162277
0.0829812
0.00750618
-1.81928
-1.77787
-1.6892
-1.57785
-1.46519
-1.3627
-1.27458
-1.20194
-1.14504
-1.10434
-1.89976
-1.86368
-1.78939
-1.69338
-1.59311
-1.50002
-1.41906
-1.35191
-1.29959
-1.26341
-1.91223
-1.88084
-1.82226
-1.74505
-1.66098
-1.58025
-1.50831
-1.44744
-1.39914
-1.365
-1.86977
-1.84222
-1.79827
-1.74072
-1.67524
-1.60947
-1.54879
-1.49598
-1.45303
-1.42168
-1.79225
-1.76816
-1.736
-1.69579
-1.64855
-1.59861
-1.55021
-1.5061
-1.4682
-1.43759
-1.70095
-1.68041
-1.65678
-1.62936
-1.59703
-1.56127
-1.5247
-1.48935
-1.4574
-1.43037
-1.61302
-1.59638
-1.57879
-1.55968
-1.53782
-1.51334
-1.4873
-1.46123
-1.43623
-1.41369
-1.53822
-1.52574
-1.51271
-1.4988
-1.48341
-1.46627
-1.44765
-1.42759
-1.40841
-1.39004
-1.47981
-1.47114
-1.46182
-1.45158
-1.44043
-1.42832
-1.4153
-1.40164
-1.38707
-1.38047
-1.43665
-1.4311
-1.4247
-1.41724
-1.4091
-1.40054
-1.39149
-1.38264
-1.37037
-1.36893
-1.40625
-1.40289
-1.39864
-1.39331
-1.38754
-1.38186
-1.37656
-1.37176
-1.36464
-1.34157
-1.38601
-1.38385
-1.38074
-1.37676
-1.37262
-1.36883
-1.36556
-1.36248
-1.3574
-1.33083
-1.3737
-1.37147
-1.36857
-1.3652
-1.36184
-1.35895
-1.35684
-1.35516
-1.35195
-1.34103
-1.36613
-1.36348
-1.36106
-1.35947
-1.3589
-1.35959
-1.3617
-1.36525
-1.37039
-1.37961
-1.35533
-1.35304
-1.3526
-1.35507
-1.36034
-1.36831
-1.37889
-1.39208
-1.40821
-1.42939
-1.3306
-1.33036
-1.33354
-1.34152
-1.35398
-1.37053
-1.39089
-1.41478
-1.44187
-1.47229
-1.28237
-1.2854
-1.29263
-1.30536
-1.3233
-1.34602
-1.37309
-1.40424
-1.43885
-1.47561
-1.20857
-1.21516
-1.22596
-1.24194
-1.26338
-1.28991
-1.32086
-1.35533
-1.39294
-1.43642
-1.11889
-1.12776
-1.14026
-1.15699
-1.1789
-1.20585
-1.23702
-1.27183
-1.31176
-1.3607
-1.03675
-1.0461
-1.05832
-1.07393
-1.09434
-1.11945
-1.14835
-1.18074
-1.21873
-1.26533
-1.33333
-1.53215
-1.06138
-0.737916
-0.523628
-0.271919
-0.113664
-0.0325169
0.0015464
0.00726388
-1.4106
-1.62315
-1.04739
-0.640184
-0.440223
-0.23469
-0.106426
-0.0330338
0.000894699
0.00710191
-1.49456
-1.68494
-1.01634
-0.527137
-0.358829
-0.198921
-0.0967996
-0.0294602
0.00311805
0.00813511
-1.58781
-1.72808
-0.973915
-0.419282
-0.286828
-0.167957
-0.085152
-0.0220816
0.00783899
0.0102048
-1.67868
-1.77264
-0.932491
-0.341033
-0.239656
-0.147653
-0.0739474
-0.0127745
0.013713
0.0128385
-1.75139
-1.81536
-0.904692
-0.308939
-0.225228
-0.139916
-0.0652328
-0.00375861
0.019317
0.0154896
-1.78333
-1.83392
-0.904167
-0.328376
-0.249545
-0.142956
-0.0600487
0.003547
0.023776
0.0177593
-1.75438
-1.80825
-0.938854
-0.399779
-0.302009
-0.153819
-0.0585624
0.00862623
0.0267812
0.0194501
-1.6631
-1.74328
-0.995866
-0.509145
-0.371105
-0.171632
-0.0605818
0.0113082
0.0282843
0.0204644
-1.53236
-1.67192
-1.06818
-0.642135
-0.445494
-0.195939
-0.0658537
0.0114872
0.0283073
0.0207219
-1.15879
-1.10953
-0.925393
-0.82268
-0.604528
-0.300004
-0.104663
-0.0156165
0.0121329
0.0111203
-1.15218
-1.09805
-0.918762
-0.825594
-0.612521
-0.304703
-0.106665
-0.0165394
0.0116517
0.0109798
-1.16425
-1.13985
-0.933921
-0.83152
-0.619114
-0.309241
-0.10992
-0.0190439
0.0102115
0.0104903
-1.20062
-1.23966
-0.971481
-0.835304
-0.620377
-0.309425
-0.113473
-0.0232549
0.00769253
0.00955271
-1.26357
-1.4009
-1.02529
-0.797791
-0.581668
-0.298665
-0.116401
-0.0288614
0.00428348
0.00829027
-1.06349
-1.21489
-1.31608
-1.38073
-1.39558
-1.39894
-1.37626
-1.34422
-1.30494
-1.26054
-1.0643
-1.21808
-1.31767
-1.38045
-1.39001
-1.39263
-1.36876
-1.33226
-1.29964
-1.25116
-1.06703
-1.22251
-1.32118
-1.38204
-1.38946
-1.39144
-1.3672
-1.33404
-1.30687
-1.26793
-1.07354
-1.23114
-1.33032
-1.38899
-1.39826
-1.39696
-1.37555
-1.34966
-1.32921
-1.31338
-1.08472
-1.245
-1.34553
-1.40239
-1.41504
-1.40941
-1.39286
-1.37154
-1.35801
-1.3627
1.46598
1.45394
1.43455
1.41105
1.38438
1.35341
1.31731
1.27793
1.2439
1.22745
1.58196
1.58292
1.57695
1.56609
1.55157
1.53284
1.50928
1.4823
1.45879
1.44794
1.69537
1.70228
1.70415
1.70231
1.69762
1.68959
1.67748
1.6621
1.64852
1.64276
1.7966
1.80843
1.81721
1.82342
1.82735
1.82841
1.8258
1.81992
1.81446
1.81322
1.88345
1.89903
1.91272
1.92462
1.93474
1.9425
1.94711
1.94866
1.94971
1.95222
1.95053
1.96859
1.98607
2.00259
2.0178
2.03106
2.04157
2.0491
2.05526
2.0609
1.99699
2.01671
2.0367
2.05625
2.07473
2.09148
2.1057
2.11702
2.1265
2.13422
2.02099
2.04137
2.0626
2.08373
2.10391
2.12245
2.13856
2.15177
2.16288
2.17164
2.02226
2.04237
2.06356
2.08471
2.10486
2.1233
2.13925
2.15227
2.16322
2.17188
2.00088
2.01973
2.03954
2.05913
2.07751
2.09396
2.10772
2.11845
2.12739
2.13481
-0.889578
-0.936602
-0.998314
-1.07535
-1.16857
-1.27742
-1.3986
-1.521
-1.62075
-1.66711
-0.626169
-0.679654
-0.746487
-0.827471
-0.923854
-1.03589
-1.16212
-1.2919
-1.39928
-1.44887
-0.32961
-0.389306
-0.461068
-0.545348
-0.643521
-0.756361
-0.882424
-1.01267
-1.12637
-1.17731
-0.0224291
-0.0867075
-0.161616
-0.247281
-0.344979
-0.455641
-0.578153
-0.705447
-0.81549
-0.868647
0.272913
0.207121
0.132375
0.0487256
-0.045027
-0.150032
-0.265647
-0.385547
-0.488269
-0.539645
0.540112
0.477274
0.407105
0.329651
0.243699
0.147954
0.0427853
-0.0661663
-0.159192
-0.20635
0.775416
0.719723
0.658053
0.590289
0.51514
0.431242
0.338815
0.242898
0.161144
0.119618
0.986916
0.940096
0.888368
0.83154
0.768176
0.696878
0.617809
0.535447
0.465359
0.42997
1.18395
1.14516
1.10152
1.05398
1.00124
0.941808
0.875712
0.806736
0.748206
0.719013
1.35625
1.32534
1.28842
1.24927
1.20718
1.16039
1.10835
1.05373
1.00731
0.984477
1.78031
1.69011
1.66692
1.65637
1.64986
1.65369
1.66021
1.6793
1.6662
1.60104
1.763
1.68937
1.66714
1.65799
1.65234
1.65782
1.66778
1.69276
1.69976
1.67837
1.74741
1.68765
1.66653
1.65864
1.65388
1.66069
1.67424
1.70651
1.73246
1.75327
1.73342
1.68513
1.66528
1.65842
1.65455
1.66235
1.67901
1.71681
1.75941
1.81427
1.72085
1.68195
1.6635
1.65742
1.65444
1.66293
1.68194
1.72401
1.78027
1.86277
1.70956
1.67823
1.66127
1.6557
1.65357
1.6624
1.68306
1.72806
1.79475
1.89793
1.69942
1.67408
1.65863
1.65332
1.65194
1.66075
1.68242
1.72896
1.80269
1.91989
1.69032
1.6696
1.65564
1.65033
1.64957
1.65797
1.68009
1.72677
1.80414
1.9291
1.68216
1.66489
1.65233
1.64679
1.64648
1.65407
1.6761
1.72164
1.79937
1.92569
1.67484
1.66002
1.64875
1.64273
1.64271
1.64906
1.67047
1.71366
1.78855
1.90987
1.94686
1.69234
1.65875
1.6429
1.6371
1.63578
1.62855
1.62659
1.55438
1.49614
1.87244
1.68642
1.6598
1.64596
1.63905
1.63712
1.62943
1.62802
1.55693
1.49222
1.84952
1.6915
1.66346
1.64899
1.64122
1.63948
1.63246
1.63246
1.56796
1.49089
1.82294
1.6913
1.66521
1.65171
1.64375
1.64302
1.63908
1.64243
1.58935
1.50126
1.79989
1.69059
1.66624
1.65412
1.64663
1.64778
1.64758
1.65757
1.62094
1.5249
1.23596
1.11936
0.963602
0.763751
0.522623
0.248366
-0.0461267
-0.342524
-0.620848
-0.863748
1.23044
1.11752
0.967621
0.773366
0.538082
0.26786
-0.0260846
-0.325684
-0.610063
-0.859731
1.2412
1.12502
0.973494
0.781639
0.550805
0.283523
-0.0107412
-0.31367
-0.603268
-0.858469
1.27419
1.1444
0.982439
0.789065
0.560847
0.295223
-7.4203e-05
-0.306369
-0.600663
-0.86091
1.33135
1.1786
0.996785
0.795664
0.566605
0.301837
0.00627752
-0.30253
-0.601474
-0.867405
)
;

boundaryField
{
    left
    {
        type            zeroGradient;
    }
    right
    {
        type            fixedValue;
        value           uniform 0;
    }
    down
    {
        type            zeroGradient;
    }
    up
    {
        type            zeroGradient;
    }
    cylinder
    {
        type            zeroGradient;
    }
    defaultFaces
    {
        type            empty;
    }
}


// ************************************************************************* //
