/*--------------------------------*- C++ -*----------------------------------*\
  =========                 |
  \\      /  F ield         | OpenFOAM: The Open Source CFD Toolbox
   \\    /   O peration     | Website:  https://openfoam.org
    \\  /    A nd           | Version:  13
     \\/     M anipulation  |
\*---------------------------------------------------------------------------*/
FoamFile
{
    format      ascii;
    class       surfaceScalarField;
    location    "4";
    object      phi;
}
// * * * * * * * * * * * * * * * * * * * * * * * * * * * * * * * * * * * * * //

dimensions      [0 3 -1 0 0 0 0];

internalField   nonuniform List<scalar> 
3485
(
-0.00155151
0.00401775
-0.00246624
-0.00390591
0.00801917
-0.00566477
-0.00522021
0.00911999
-0.00780569
-0.00396625
0.00778975
-0.00904371
0.00117647
0.00413107
-0.00927379
0.0113212
-0.00184902
-0.00829568
0.0275099
-0.010227
-0.00596174
0.0503906
-0.020673
-0.00220763
0.0803297
-0.0323561
0.00241695
-0.0378276
0.00556302
0.112594
-0.000597911
0.00461566
-0.000705689
0.00812695
0.00124826
0.00716604
0.00678167
0.00225634
0.0172433
-0.00633053
0.0337013
-0.018307
0.0566301
-0.0331559
0.0860548
-0.0500977
0.121844
-0.0681455
-0.0810175
0.165034
0.000317465
0.0042982
0.00266801
0.0057764
0.00857757
0.00125648
0.0195875
-0.0087536
0.0368088
-0.0235519
0.0606315
-0.0421297
0.0904907
-0.0630151
0.124932
-0.0845388
0.162158
-0.105372
-0.12251
0.203651
0.000934433
0.00336376
0.0055672
0.00114363
0.0156627
-0.00883906
0.0324693
-0.0255602
0.0563454
-0.0474279
0.0863377
-0.072122
0.120379
-0.0970569
0.155853
-0.120013
0.190023
-0.139542
-0.154848
0.222361
0.0017681
0.00159567
0.00912959
-0.00621787
0.0237665
-0.023476
0.0461706
-0.0479643
0.0750709
-0.0763281
0.107686
-0.104737
0.140666
-0.130037
0.17105
-0.150397
0.196837
-0.165329
-0.175575
0.217563
0.00290537
-0.00130971
0.0133929
-0.0167054
0.0324199
-0.042503
0.058768
-0.0743125
0.0891245
-0.106685
0.119456
-0.135068
0.14647
-0.157051
0.168359
-0.172285
0.184821
-0.181791
-0.187119
0.196366
0.00421636
-0.00552607
0.0177491
-0.0302381
0.039895
-0.0646489
0.0672036
-0.101621
0.094978
-0.134459
0.119434
-0.159524
0.138716
-0.176333
0.152764
-0.186333
0.162538
-0.191566
-0.193953
0.169372
0.00551843
-0.0110445
0.0213201
-0.0460397
0.0443929
-0.0877217
0.0695213
-0.12675
0.0921039
-0.157042
0.109801
-0.177221
0.122402
-0.188934
0.130877
-0.194808
0.136494
-0.197182
-0.197621
0.140162
0.00657142
-0.0176159
0.0233407
-0.062809
0.0450512
-0.109432
0.0660006
-0.147699
0.0828035
-0.173845
0.0946624
-0.18908
0.102338
-0.19661
0.107076
-0.199547
0.109949
-0.200055
-0.199315
0.111643
0.0071886
-0.0248045
0.0234705
-0.0790909
0.0421871
-0.128149
0.0583134
-0.163825
0.0698792
-0.18541
0.0771131
-0.196314
0.0811493
-0.200646
0.0831565
-0.201554
0.083966
-0.200864
0.0839783
-0.199327
-0.00523016
0.00531146
-8.12995e-05
-0.0160237
0.0144429
-0.00364938
-0.0296083
0.0202818
-0.00669713
-0.0445376
0.0233146
-0.00838536
-0.0601423
0.0247105
-0.00910581
-0.0761387
0.0253845
-0.00938809
-0.0923807
0.0257889
-0.00954687
-0.108744
0.0260917
-0.00972848
-0.125109
0.0263752
-0.0100104
0.026962
-0.141592
-0.0104782
-0.00353669
0.00884816
-0.0114469
0.0223531
-0.022137
0.0309719
-0.0344863
0.035664
-0.0477292
0.0379534
-0.0614142
0.0390695
-0.0752942
0.0396689
-0.0892079
0.0400054
-0.103012
0.0401795
0.0405745
-0.116625
-0.000849535
0.00969769
-0.00378408
0.0252876
-0.00904887
0.0362367
-0.0162446
0.0428597
-0.0246613
0.04637
-0.0336476
0.0480558
-0.0427776
0.0487989
-0.0518095
0.0490373
-0.0605775
0.0489475
0.0487757
-0.0687788
0.00157794
0.00811975
0.00385155
0.023014
0.00500058
0.0350877
0.00432591
0.0435344
0.00201533
0.0486806
-0.00132192
0.051393
-0.00504828
0.0525253
-0.00869293
0.052682
-0.0119278
0.0521824
0.0512875
-0.0144396
0.00288267
0.00523709
0.0088581
0.0170385
0.0156205
0.0283252
0.0216232
0.0375318
0.0262288
0.0440749
0.029522
0.0480998
0.0319623
0.0500851
0.034102
0.0505422
0.0364276
0.0498567
0.0481201
0.039595
0.00285551
0.00238158
0.00984566
0.0100484
0.0192872
0.0188837
0.0296106
0.0272083
0.0397077
0.0339779
0.0490403
0.0387672
0.0575393
0.0415861
0.0654156
0.0426659
0.0729875
0.0422849
0.040314
0.0807936
0.00196993
0.000411654
0.00754049
0.00447783
0.0160458
0.0103784
0.0265419
0.0167122
0.0380905
0.0224293
0.0499721
0.0268856
0.0617574
0.0298007
0.0732741
0.0311492
0.0845568
0.0310022
0.0288967
0.0959741
0.000729115
-0.000317462
0.00349332
0.00171362
0.00850633
0.00536535
0.0155878
0.00963077
0.0243052
0.0137119
0.0341617
0.0170291
0.0447345
0.0192279
0.0557653
0.0201184
0.0672576
0.0195099
0.0166629
0.0794913
-0.000742812
0.00042535
-0.00135869
0.00232951
-0.000863662
0.00487032
0.00118979
0.00757732
0.0049013
0.0100004
0.0101856
0.0117448
0.0168965
0.012517
0.0249115
0.0121034
0.0341749
0.0102465
0.00633454
0.0445033
-0.00204089
-0.00537616
-0.00831152
-0.00977791
-0.00905132
-0.0056022
0.000953084
0.0108489
0.0235124
0.0354099
-0.22878
0.212492
-0.125304
-0.210083
0.373094
-0.391791
-0.0940619
0.317373
-0.433394
0.0133141
-0.0657491
-0.0416269
0.0893947
-0.370021
0.29394
0.141888
-0.428085
0.375592
0.174101
-0.413023
0.380809
0.192398
-0.322637
0.30434
0.20423
-0.269562
0.257729
-0.170285
0.16343
-0.195548
0.291415
-0.177667
0.355214
-0.0602236
0.199929
0.0455904
-0.171563
0.116432
-0.440862
0.165272
-0.476925
0.192746
-0.440497
0.207113
-0.337003
0.214689
-0.277139
-0.174267
-0.129744
0.35238
-0.116321
0.34179
-0.0130506
0.0966591
0.0815473
-0.266161
0.146004
-0.505319
0.189338
-0.520259
0.21132
-0.462479
0.221401
-0.347084
0.224938
-0.280675
-0.17561
-0.0501135
0.388054
-0.0401701
0.331847
0.0399908
0.0164981
0.120146
-0.346317
0.176093
-0.561265
0.212724
-0.55689
0.229148
-0.478904
0.234812
-0.352747
0.234504
-0.280367
-0.174586
0.0279949
0.399654
0.0353672
0.324474
0.0933511
-0.0414858
0.15864
-0.411606
0.204979
-0.607604
0.234299
-0.58621
0.245509
-0.490114
0.247025
-0.354263
0.243133
-0.276476
-0.171457
0.0964314
0.384017
0.100949
0.319957
0.142574
-0.0831112
0.194391
-0.463423
0.23113
-0.644343
0.253321
-0.608401
0.259841
-0.496635
0.257771
-0.352193
0.250682
-0.269386
-0.166496
0.14491
0.335081
0.153998
0.310869
0.184755
-0.113868
0.225283
-0.503951
0.253224
-0.672284
0.269173
-0.624349
0.271759
-0.499221
0.266843
-0.347277
0.257057
-0.259601
-0.160019
0.168693
0.245879
0.191965
0.287597
0.218864
-0.140767
0.250448
-0.535535
0.270651
-0.692487
0.281526
-0.635224
0.281069
-0.498765
0.274103
-0.340311
0.262214
-0.247711
-0.152382
0.163498
0.126885
0.214867
0.236228
0.245299
-0.1712
0.269586
-0.559821
0.283217
-0.706119
0.29033
-0.642337
0.287781
-0.496215
0.279508
-0.332038
0.266116
-0.23432
-0.14397
0.141353
0.0209414
0.227021
0.15056
0.26516
-0.209339
0.282205
-0.576867
0.291592
-0.715506
0.296055
-0.6468
0.29219
-0.49235
0.283151
-0.323
0.26878
-0.219948
-0.135163
0.388075
0.00799658
-0.37513
0.533569
0.00506625
0.648131
-0.323901
0.673509
-0.602244
0.64129
-0.683286
0.587392
-0.592902
0.527877
-0.432836
0.476204
-0.271326
0.428865
-0.17261
-0.105667
0.639142
-0.0037564
-0.627389
0.721372
-0.0771634
0.766713
-0.369242
0.730239
-0.56577
0.661884
-0.614931
0.594241
-0.52526
0.529428
-0.368022
0.475157
-0.217055
0.427389
-0.124842
-0.0757173
0.747445
-0.0323436
-0.718858
0.791898
-0.121617
0.773062
-0.350405
0.71603
-0.508738
0.658763
-0.557665
0.600661
-0.467158
0.536433
-0.303794
0.478357
-0.158979
0.427106
-0.0735911
-0.0441479
0.76603
-0.0614283
-0.736945
0.784664
-0.140251
0.760252
-0.325994
0.722796
-0.471281
0.669818
-0.504687
0.600146
-0.397486
0.525588
-0.229236
0.46272
-0.0961109
0.412309
-0.0231804
-0.0147756
0.754325
-0.0835311
-0.732222
0.765507
-0.151433
0.748193
-0.30868
0.709718
-0.432805
0.644204
-0.439173
0.564815
-0.318096
0.491232
-0.155653
0.434274
-0.0391527
0.390943
0.0201506
0.00999979
0.739274
-0.0987094
-0.724096
0.746848
-0.159007
0.729127
-0.29096
0.6787
-0.382379
0.594827
-0.355301
0.50413
-0.227399
0.431796
-0.0833188
0.384057
0.00858552
0.353808
0.0503999
0.0263131
0.720987
-0.105514
-0.714182
0.720667
-0.158687
0.684862
-0.255154
0.600186
-0.297703
0.488298
-0.243412
0.393816
-0.132917
0.335813
-0.0253158
0.308245
0.0361534
0.298842
0.059803
0.0306567
0.675558
-0.0956907
-0.685381
0.649213
-0.132343
0.56952
-0.175461
0.442448
-0.17063
0.31911
-0.120075
0.241428
-0.0552356
0.212135
0.00397726
0.211867
0.0364217
0.225234
0.0464357
0.023367
0.528395
-0.0567982
-0.567287
0.457693
-0.0616409
0.33931
-0.0570783
0.212095
-0.0434155
0.124109
-0.032088
0.0851128
-0.0162397
0.0849744
0.00411561
0.104667
0.0167293
0.131134
0.0199681
0.0101242
0.192929
-0.249727
0.131288
0.0742099
0.0307944
-0.00129354
-0.0175332
-0.0134176
0.0033117
0.0232798
0.546967
0.0727999
-0.535788
0.559276
0.099333
0.574199
0.125239
0.590003
0.153568
0.605404
0.180965
0.61713
0.205837
0.607465
0.232026
0.572916
0.2382
0.480838
0.257112
0.218302
0.527873
0.0617467
-0.51682
0.542685
0.0845216
0.558638
0.109286
0.580784
0.131422
0.601186
0.160563
0.628261
0.178762
0.646467
0.21382
0.661585
0.223081
0.658991
0.259707
0.249904
0.514176
0.0519668
-0.504396
0.529198
0.0694995
0.544629
0.0938548
0.566155
0.109896
0.587998
0.13872
0.614692
0.152068
0.643624
0.184889
0.671571
0.195134
0.703848
0.227429
0.234894
0.50474
0.0421593
-0.494933
0.518594
0.055646
0.534621
0.0778278
0.553965
0.0905525
0.577256
0.115428
0.602023
0.127301
0.633844
0.153068
0.664251
0.164727
0.703145
0.188535
0.201094
0.497355
0.0318779
-0.487074
0.510034
0.0429666
0.52676
0.061102
0.54505
0.0722631
0.568898
0.0915795
0.593377
0.102822
0.624662
0.121784
0.65605
0.133338
0.694036
0.15055
0.162908
0.490243
0.0216174
-0.479983
0.502392
0.0308173
0.51912
0.0443747
0.537404
0.0539792
0.560974
0.0680095
0.585943
0.0778526
0.616335
0.0913926
0.648301
0.101372
0.685097
0.113753
0.123909
0.479899
0.0119521
-0.470233
0.491826
0.0188899
0.508081
0.0281196
0.526628
0.0354319
0.54977
0.0448681
0.575302
0.0523205
0.605318
0.0613768
0.637907
0.0687826
0.674702
0.076958
0.0844292
0.455118
0.00363865
-0.446804
0.466171
0.00783664
0.48121
0.0130803
0.49918
0.0174618
0.521317
0.0227313
0.54656
0.0270778
0.575962
0.0319743
0.608589
0.0361557
0.645316
0.0402314
0.0443636
0.383513
-0.00116218
-0.378713
0.390987
0.000363581
0.401861
0.00220605
0.41557
0.00375209
0.432835
0.00546691
0.453045
0.00686753
0.476741
0.00827872
0.503514
0.00938258
0.533483
0.0102623
0.0105595
0.192588
-0.19375
0.192952
0.195158
0.19891
0.204377
0.211244
0.219523
0.228905
0.239168
0.0712158
0.147129
-0.135512
-0.0828328
0.0605404
0.149298
-0.138622
0.0506898
0.151898
-0.142048
0.0411432
0.155363
-0.145816
0.0316584
0.159039
-0.149554
0.022333
0.161796
-0.152471
0.0136016
0.160921
-0.15219
0.00628755
0.150484
-0.14317
0.00148108
0.120171
-0.115364
0.0563189
-0.0548379
0.067063
0.157534
-0.0774678
0.0568148
0.159546
0.0469072
0.161806
0.0373535
0.164917
0.0280643
0.168328
0.0191591
0.170701
0.011102
0.168978
0.00469647
0.156889
0.000863341
0.124004
0.0571823
0.0592548
0.166694
-0.0684151
0.0498179
0.168983
0.0405073
0.171116
0.031509
0.173915
0.0228705
0.176966
0.0147704
0.178802
0.00770654
0.176042
0.00251652
0.162079
-9.5284e-06
0.12653
0.0571728
0.0478244
0.174565
-0.055695
0.0396264
0.177181
0.031379
0.179364
0.023335
0.181959
0.0156781
0.184623
0.008723
0.185757
0.00303127
0.181734
-0.000487651
0.165598
-0.0011111
0.127153
0.0560617
0.0342267
0.181322
-0.0409837
0.0272734
0.184134
0.0202289
0.186408
0.0133397
0.188848
0.0068907
0.191072
0.00131473
0.191333
-0.00252515
0.185574
-0.00379347
0.166866
-0.00237074
0.125731
0.0536909
0.018751
0.186991
-0.0244203
0.013017
0.189868
0.00725697
0.192168
0.00170029
0.194405
-0.0032756
0.196048
-0.00703092
0.195088
-0.00875181
0.187295
-0.00759493
0.16571
-0.0036956
0.121831
0.0499953
0.00202261
0.191804
-0.00683583
-0.0026247
0.194516
-0.00714907
0.196693
-0.0113154
0.198571
-0.0146592
0.199392
-0.0164319
0.196861
-0.0156339
0.186497
-0.0115471
0.161623
-0.00496078
0.115245
0.0450345
-0.0167605
0.195465
0.0130998
-0.0201745
0.19793
-0.0233284
0.199847
-0.0259246
0.201167
-0.0273587
0.200826
-0.0266947
0.196197
-0.022878
0.18268
-0.0154638
0.154208
-0.00606575
0.105847
0.0389688
-0.0372198
0.198021
0.0346639
-0.0393985
0.200108
-0.0411075
0.201556
-0.0419297
0.20199
-0.0410878
0.199984
-0.0374913
0.1926
-0.0301287
0.175318
-0.0190413
0.143121
-0.00687945
0.093685
0.0320893
-0.0597927
0.0584867
-0.0605488
-0.0605473
-0.0592035
-0.0555333
-0.0483435
-0.0368512
-0.0218789
-0.00728482
0.110095
0.0375911
-0.122336
-0.02535
0.0975683
0.0386219
-0.0260954
0.0847455
0.0397412
-0.0269184
0.0716005
0.040934
-0.0277889
0.0581152
0.0421821
-0.0286968
0.0443142
0.0433509
-0.0295499
0.0303826
0.0439118
-0.0299802
0.0169656
0.0423685
-0.0289515
0.00571582
0.0355115
-0.0242617
0.0179936
-0.0122778
0.108659
0.0497775
-0.120845
0.0962643
0.0510164
0.0835868
0.0524186
0.0705956
0.0539253
0.0572648
0.0555128
0.0436172
0.0569985
0.0298471
0.057682
0.0166135
0.0556021
0.00556517
0.0465598
0.0235588
0.106848
0.0617998
-0.11887
0.094557
0.0633075
0.0820086
0.064967
0.0691763
0.0667575
0.0560377
0.0686514
0.0426114
0.0704249
0.029089
0.0712044
0.0161327
0.0685583
0.00537107
0.0573214
0.0289298
0.104474
0.07381
-0.116484
0.0923428
0.0754389
0.0799488
0.077361
0.0672697
0.0794366
0.0543026
0.0816185
0.0411
0.0836276
0.0278855
0.0844189
0.0153347
0.0811092
0.00503562
0.0676205
0.0339655
0.101581
0.0855676
-0.113339
0.0896776
0.0873426
0.0776012
0.0894374
0.0652811
0.0917567
0.0526674
0.0942321
0.0397923
0.0965027
0.0268998
0.0973113
0.0147046
0.0933044
0.00478958
0.0775355
0.038755
0.0975928
0.0973616
-0.109387
0.0858024
0.099133
0.0738542
0.101386
0.0617596
0.103851
0.0495088
0.106483
0.0371309
0.108881
0.0248552
0.109587
0.0133856
0.104774
0.00424418
0.086677
0.0429992
0.0933963
0.108506
-0.10454
0.0822533
0.110276
0.0709141
0.112725
0.0592852
0.11548
0.0473803
0.118388
0.0353192
0.120942
0.0234227
0.121484
0.0124467
0.11575
0.00386869
0.095255
0.0468679
0.0859405
0.119461
-0.0968963
0.075209
0.121007
0.0645244
0.12341
0.0537592
0.126245
0.0428035
0.129343
0.0316968
0.132049
0.0207609
0.132419
0.0107871
0.125724
0.00320782
0.102834
0.0500757
0.0809921
0.128704
-0.0902346
0.0713463
0.130653
0.061131
0.133625
0.0505729
0.136803
0.039839
0.140077
0.0290915
0.142796
0.0186994
0.142811
0.0094579
0.134965
0.00268998
0.109602
0.0527657
0.069973
-0.0767812
0.0620038
0.0535811
0.0445683
0.0350916
0.0254169
0.0160384
0.00783411
0.00207216
0.201691
0.00349553
-0.00719633
0.205473
0.0241443
-0.0279265
0.209687
0.0313574
-0.0355713
0.212312
0.048352
-0.0509768
0.214134
0.0617089
-0.063531
0.213107
0.0768224
-0.0757953
0.20859
0.100292
-0.0957754
0.197496
0.130059
-0.118965
0.172605
0.183327
-0.158436
0.244704
-0.194435
0.20136
0.000125145
0.204618
0.020886
0.208817
0.0271592
0.210738
0.0464304
0.212653
0.0597943
0.210772
0.0787035
0.206335
0.104729
0.194559
0.141835
0.169796
0.20809
0.293655
0.200996
-0.00288094
0.203625
0.0182566
0.207717
0.0230676
0.208819
0.0453281
0.210766
0.0578471
0.207854
0.081616
0.20353
0.109053
0.190578
0.154787
0.166434
0.232234
0.341218
0.200573
-0.00546432
0.202497
0.0163323
0.206366
0.0191995
0.206582
0.0451114
0.208463
0.0559666
0.204378
0.085701
0.200214
0.113216
0.185663
0.169339
0.162566
0.25533
0.387299
0.200072
-0.00754672
0.201236
0.0151681
0.204753
0.0156826
0.204052
0.0458129
0.205717
0.0543011
0.200383
0.0910353
0.196309
0.11729
0.179956
0.185692
0.1581
0.277187
0.43206
0.199474
-0.00903097
0.199843
0.0147987
0.202878
0.0126484
0.201246
0.0474444
0.202523
0.0530241
0.195881
0.0976772
0.191815
0.121356
0.173245
0.204262
0.153293
0.297139
0.475966
0.198765
-0.00980573
0.198324
0.0152398
0.20074
0.0102318
0.198192
0.0499925
0.198856
0.0523601
0.190964
0.105569
0.186522
0.125799
0.166087
0.224696
0.147497
0.315729
0.518923
0.197939
-0.00975504
0.196685
0.0164939
0.198352
0.00856453
0.194905
0.0534397
0.194726
0.0525394
0.185622
0.114673
0.180557
0.130864
0.157645
0.247608
0.141461
0.331913
0.563488
0.197007
-0.00877266
0.194933
0.0185688
0.195734
0.00776344
0.191396
0.0577771
0.190092
0.0538433
0.179989
0.124776
0.173878
0.136975
0.150448
0.271038
0.134667
0.347694
0.607921
0.196019
-0.00680182
0.193027
0.0215607
0.192967
0.00782323
0.187572
0.0631725
0.184907
0.056508
0.173391
0.136292
0.165247
0.145118
0.139948
0.296337
0.128056
0.359585
0.659196
0.305253
-0.0100446
0.30729
0.019524
0.316898
-0.00178554
0.318892
0.0611786
0.330261
0.0451396
0.330283
0.13627
0.349279
0.126122
0.353683
0.291933
0.4048
0.308468
0.589941
0.474055
0.305382
-0.0134168
0.308656
0.01625
0.319242
-0.0123708
0.322856
0.0575647
0.335347
0.0326481
0.339267
0.13235
0.359486
0.105904
0.373597
0.277822
0.42064
0.261425
0.523984
0.486597
0.305356
-0.0167627
0.311054
0.0105522
0.321286
-0.0226033
0.327683
0.0511676
0.339909
0.0204226
0.348754
0.123505
0.368339
0.0863186
0.388962
0.257199
0.430285
0.220102
0.453094
0.501176
0.305625
-0.020377
0.314608
0.00156874
0.323235
-0.0312307
0.33348
0.0409229
0.343689
0.0102138
0.357504
0.10969
0.374783
0.0690391
0.400278
0.231704
0.43962
0.18076
0.379699
0.513015
0.306773
-0.02514
0.319119
-0.0107773
0.326128
-0.038239
0.339755
0.0272955
0.348896
0.00107229
0.367108
0.0914785
0.381493
0.0546541
0.412226
0.200971
0.445722
0.147264
0.308603
0.516818
0.308931
-0.0320608
0.324194
-0.0260407
0.330016
-0.0440605
0.346502
0.010809
0.354973
-0.00739845
0.375395
0.0710563
0.387204
0.042846
0.421489
0.166686
0.450662
0.118091
0.241321
0.517944
0.312282
-0.0423325
0.328947
-0.0427061
0.334239
-0.0493523
0.351817
-0.00676889
0.357535
-0.0131164
0.378713
0.0498786
0.388198
0.0333604
0.426251
0.128633
0.453605
0.0907373
0.177344
0.517581
0.31555
-0.0558719
0.32916
-0.0563166
0.331167
-0.0513591
0.343717
-0.0193187
0.343691
-0.0130905
0.363427
0.0301424
0.372152
0.024635
0.415104
0.0856808
0.444609
0.0612328
0.113141
0.508812
0.308437
-0.0622989
0.303671
-0.0515505
0.290774
-0.0384616
0.287215
-0.0157602
0.280556
-0.00643157
0.297134
0.0135645
0.30923
0.0125395
0.356885
0.0380255
0.39058
0.027538
0.0473125
0.456408
0.239711
0.188161
0.149699
0.133939
0.127508
0.141072
0.153612
0.191637
0.219175
0.266488
0.487008
-0.0957861
0.491399
-0.0818581
0.494717
-0.0717339
0.497856
-0.0588332
0.502227
-0.0453554
0.506879
-0.0290718
0.512595
-0.0125522
0.518928
0.00676734
0.527002
0.0265901
0.0496998
0.487355
-0.0965433
0.487784
-0.0822874
0.487737
-0.071687
0.487813
-0.0589091
0.489178
-0.0467203
0.491348
-0.0312416
0.495328
-0.0165325
0.500733
0.00136283
0.507736
0.0195866
0.0406159
0.494692
-0.0900595
0.491079
-0.0786749
0.487753
-0.068361
0.485301
-0.0564563
0.483799
-0.0452186
0.484328
-0.031771
0.485945
-0.0181494
0.489978
-0.00266978
0.495296
0.0142682
0.0315159
0.502107
-0.0791515
0.493935
-0.0705033
0.48746
-0.0618861
0.483091
-0.0520874
0.479615
-0.0417418
0.478646
-0.0308022
0.478753
-0.018257
0.482007
-0.00592332
0.486576
0.00969875
0.0231593
0.50474
-0.0670734
0.494683
-0.0604462
0.486294
-0.0534975
0.480185
-0.0459785
0.475622
-0.0371786
0.473409
-0.0285889
0.473
-0.0178487
0.475239
-0.00816168
0.479787
0.00515086
0.0158724
0.505039
-0.0541687
0.493866
-0.0492729
0.48446
-0.0440916
0.477113
-0.0386316
0.471837
-0.0319027
0.468655
-0.0254069
0.467847
-0.01704
0.46918
-0.0094954
0.473506
0.000825134
0.009396
0.503776
-0.0403636
0.491541
-0.0370375
0.481091
-0.0336419
0.472574
-0.0301142
0.4663
-0.0256291
0.462055
-0.0211619
0.460372
-0.0153568
0.460818
-0.0099413
0.464385
-0.00274244
0.00354802
0.493245
-0.0247972
0.479408
-0.0231998
0.467456
-0.0216908
0.457432
-0.02009
0.449665
-0.0178617
0.443951
-0.0154482
0.440811
-0.012217
0.439889
-0.00901862
0.442064
-0.00491744
-0.00119246
0.440486
-0.00887453
0.426301
-0.00901502
0.413739
-0.00912935
0.402729
-0.00907945
0.393519
-0.0086518
0.386054
-0.007983
0.380775
-0.00693792
0.377561
-0.00580439
0.376984
-0.00434129
-0.00292066
0.257613
0.248598
0.239469
0.230389
0.221737
0.213754
0.206817
0.201012
0.196671
0.00737251
0.0456299
-0.0530025
0.0172961
0.118048
-0.127971
0.023856
0.165673
-0.172233
0.0261524
0.190893
-0.19319
0.0252789
0.201331
-0.200457
0.02255
0.203653
-0.200924
0.0189118
0.201659
-0.198021
0.0149912
0.196419
-0.192498
0.0113721
0.186673
-0.183054
0.168915
0.00865502
-0.166197
0.00881345
0.0368165
0.0231313
0.10373
0.0350626
0.153742
0.0422483
0.183707
0.0453182
0.198261
0.0456831
0.203288
0.0444964
0.202846
0.0424168
0.198498
0.0396484
0.189442
0.172623
0.0359401
0.00939122
0.0274253
0.0274354
0.0856858
0.0450478
0.13613
0.0579762
0.170779
0.0658616
0.190375
0.0699301
0.199219
0.071481
0.201295
0.0712437
0.198736
0.0692289
0.191457
0.177375
0.0644769
0.00898239
0.0184429
0.0292165
0.0654517
0.0520933
0.113253
0.0714468
0.151426
0.0852328
0.176589
0.0940038
0.190448
0.0990697
0.196229
0.101394
0.196411
0.100996
0.191855
0.181465
0.0969061
0.00771551
0.0107274
0.0278745
0.0452927
0.0543244
0.0868028
0.0800796
0.12567
0.100954
0.155715
0.115928
0.175474
0.1258
0.186357
0.131677
0.190534
0.134067
0.189465
0.18391
0.131621
0.00592606
0.00480132
0.02367
0.0275488
0.0505319
0.0599409
0.0807945
0.0954079
0.10895
0.12756
0.131779
0.152644
0.148444
0.169693
0.159516
0.179461
0.16574
0.183241
0.182428
0.167222
0.00404715
0.00075418
0.0178588
0.0137372
0.0415995
0.0362002
0.0723479
0.0646595
0.105345
0.0945629
0.136167
0.121822
0.161956
0.143904
0.1816
0.159817
0.19528
0.169561
0.175306
0.202403
0.00242053
-0.00166635
0.0119525
0.00420522
0.0302436
0.0179091
0.0569835
0.0379195
0.0896674
0.0618791
0.124586
0.0869027
0.158139
0.110352
0.187403
0.130554
0.21111
0.145854
0.157047
0.229369
0.00119858
-0.00286493
0.00702092
-0.00161711
0.0194208
0.00550923
0.0395013
0.017839
0.0669265
0.0344539
0.0998984
0.0539308
0.135745
0.0745048
0.171714
0.0945844
0.204338
0.11323
0.12487
0.236516
0.000387923
-0.00325286
0.00343265
-0.00466184
0.0108486
-0.00190676
0.0240461
0.00464156
0.0438299
0.0146701
0.0700715
0.0276893
0.101653
0.0429231
0.136932
0.0593057
0.17351
0.0766521
0.0907758
0.207603
-6.41296e-05
-0.00318873
0.00122305
-0.00594902
0.00513082
-0.00581454
0.0128413
-0.00306888
0.0253749
0.00213645
0.0433925
0.00967166
0.0670235
0.0192921
0.0957162
0.0306131
0.128979
0.043389
0.0601317
0.159623
-0.000173532
-0.00301519
0.000372007
-0.00649456
0.0023872
-0.00782974
0.00655782
-0.00723949
0.0135812
-0.00488695
0.0240817
-0.000828872
0.0385583
0.00481559
0.0570567
0.0121147
0.0791739
0.0212718
0.0344524
0.104853
0.000204075
-0.00321927
0.00119042
-0.0074809
0.00310713
-0.00974645
0.0060724
-0.0102048
0.0103031
-0.00911766
0.0161504
-0.00667612
0.023927
-0.00296108
0.033944
0.0020977
0.0464385
0.00877723
0.0174922
0.0633988
0.00108555
-0.00430482
0.00360229
-0.00999764
0.00703934
-0.0131835
0.0111287
-0.0142941
0.0158264
-0.0138154
0.0212662
-0.0121159
0.0277206
-0.00941544
0.0356177
-0.00579942
0.045659
-0.00126406
0.00439656
0.0587546
0.00192769
-0.00623251
0.00571091
-0.0137809
0.0103244
-0.017797
0.0153898
-0.0193596
0.0208991
-0.0193247
0.0270293
-0.0182461
0.0340525
-0.0164386
0.042312
-0.014059
0.0522053
-0.0111573
-0.00766106
0.0642629
0.00208451
-0.00831702
0.00550543
-0.0172018
0.00914207
-0.0214336
0.0128137
-0.0230312
0.016727
-0.0232379
0.0211891
-0.0227082
0.0264908
-0.0217404
0.0328805
-0.0204487
0.0404953
-0.0187721
-0.0168966
0.0497308
0.00112779
-0.0094448
0.00202078
-0.0180948
0.00213987
-0.0215527
0.00177156
-0.0226629
0.00134449
-0.0228108
0.00118012
-0.0225439
0.00144896
-0.0220092
0.00219118
-0.0211909
0.00349924
-0.0200801
-0.0184736
0.00507624
-0.000915488
-0.00852932
-0.00418077
-0.0148295
-0.00908787
-0.0166456
-0.0147494
-0.0170014
-0.020526
-0.0170342
-0.0260672
-0.0170026
-0.0312109
-0.0168656
-0.0358846
-0.0165172
-0.0401014
-0.0158633
-0.0151065
-0.0434686
-0.00341852
-0.0051108
-0.0111903
-0.00705768
-0.0212322
-0.00660367
-0.032222
-0.00601162
-0.043495
-0.00576123
-0.0547732
-0.00572443
-0.0659328
-0.00570599
-0.0768824
-0.00556753
-0.0875142
-0.00523154
-0.00474384
-0.0978768
-0.0051921
-0.0158992
-0.0292
-0.0435969
-0.058464
-0.0735765
-0.0888294
-0.104125
-0.119367
-0.134589
0.213714
0.144343
-0.198434
0.204474
0.528116
-0.518876
0.15981
0.582076
-0.537413
0.146967
0.258341
-0.245497
0.160899
-0.0683838
0.0544511
0.171481
-0.182904
0.172323
0.178095
-0.158899
0.152285
0.185667
-0.105398
0.0978264
0.194092
-0.0683428
0.0599179
-0.0383759
0.0303105
0.172246
0.0769499
0.199217
0.501146
0.171657
0.609636
0.169704
0.260294
0.173929
-0.0726093
0.170408
-0.179383
0.172071
-0.160562
0.180199
-0.113527
0.191329
-0.0794719
-0.0479379
0.141037
-0.000688212
0.182193
0.45999
0.172181
0.619648
0.173977
0.258498
0.163587
-0.0622191
0.150457
-0.166254
0.153475
-0.163579
0.166265
-0.126317
0.182887
-0.0960942
-0.060463
0.122254
-0.0641878
0.152694
0.42955
0.155852
0.61649
0.154567
0.259783
0.132278
-0.0399296
0.120401
-0.154377
0.131966
-0.175144
0.151891
-0.146242
0.174395
-0.118599
-0.0759584
0.0967895
-0.0967144
0.110174
0.416166
0.119012
0.607651
0.111449
0.267347
0.0907693
-0.0192504
0.0941939
-0.157802
0.117778
-0.198728
0.14361
-0.172074
0.169789
-0.144778
-0.0931075
0.0512479
-0.0982314
0.056744
0.410669
0.0619391
0.602456
0.0532235
0.276063
0.0564263
-0.0224533
0.0815055
-0.182881
0.114157
-0.231379
0.142741
-0.200658
0.169756
-0.171792
-0.110347
-0.0138127
-0.0793425
-0.00867011
0.405527
-0.00868565
0.602472
-0.0011108
0.268488
0.0410584
-0.0646225
0.0812052
-0.223028
0.118269
-0.268443
0.147139
-0.229528
0.173027
-0.19768
-0.126601
-0.0929275
-0.0298836
-0.0933668
0.405966
-0.0745886
0.583694
-0.0279863
0.221886
0.0412216
-0.13383
0.0886458
-0.270452
0.127197
-0.306994
0.15484
-0.257171
0.178412
-0.221252
-0.141219
-0.168989
0.0412286
-0.166484
0.403461
-0.110228
0.527438
-0.0296106
0.141268
0.0503555
-0.213796
0.102008
-0.322105
0.14003
-0.345015
0.165249
-0.282391
0.185524
-0.241527
-0.153657
-0.218664
-0.206995
-0.112951
-0.0133101
0.0668336
0.120321
0.156115
0.178064
0.194266
0.0416402
0.0379292
-0.0795694
-0.00127735
0.0429176
-0.0323704
0.031093
-0.0492852
0.0169148
-0.0450907
-0.00419449
-0.018193
-0.0268977
0.00851648
-0.0267094
0.0254302
-0.0169137
0.0345355
-0.00910535
-0.00371645
0.186707
0.121234
-0.270012
0.0663103
0.163314
-0.0229687
0.120372
-0.0550374
0.0489835
-0.0368102
-0.0224217
0.00873312
-0.072441
0.0509798
-0.0689561
0.0782787
-0.0442126
0.0943674
-0.025194
-0.0109082
0.335251
0.195128
-0.409145
0.179418
0.319147
0.0428297
0.25696
-0.00684408
0.0986573
0.0166605
-0.0459263
0.0613629
-0.117143
0.0999092
-0.107502
0.125059
-0.0693619
0.141037
-0.0411723
-0.018878
0.422877
0.223982
-0.451731
0.286772
0.455253
0.133694
0.410038
0.0673793
0.164972
0.0826152
-0.0611622
0.118254
-0.152782
0.146149
-0.135397
0.163657
-0.0868704
0.175123
-0.0526382
-0.0254145
0.419776
-0.394228
0.356153
0.228778
0.148253
0.141542
0.161082
0.177969
0.188925
0.196205
0.0117076
-0.000125989
-0.0115816
0.0133744
-0.00166681
0.0164452
-0.00307082
0.0209202
-0.00447502
0.0274
-0.00647972
0.0344032
-0.00700321
0.0444994
-0.0100962
0.0542912
-0.00979183
0.0674784
-0.0131872
-0.0120911
0.0321176
-0.00080613
-0.0314375
0.0368981
-0.00644736
0.0456162
-0.0117889
0.0591661
-0.0180249
0.0781906
-0.0255042
0.10145
-0.0302623
0.13459
-0.0432361
0.170363
-0.0455649
0.217456
-0.0602802
-0.0646472
0.0495484
-0.00235996
-0.0479946
0.0571838
-0.0140828
0.0709608
-0.0255659
0.0924432
-0.0395073
0.12155
-0.0546114
0.160013
-0.068725
0.209703
-0.0929262
0.265593
-0.101455
0.33728
-0.131968
-0.136512
0.0639037
-0.00495874
-0.061305
0.0738878
-0.0240668
0.0918197
-0.0434978
0.118862
-0.0665494
0.155151
-0.0909009
0.203612
-0.117186
0.258517
-0.147831
0.325286
-0.168224
0.396944
-0.203626
-0.191299
0.0753502
-0.0716539
0.0872236
0.108203
0.138559
0.17928
0.229316
0.283888
0.345033
0.377923
0.0858513
-0.0812655
0.0891277
-0.0937135
0.0770192
-0.0824795
0.0913116
0.0677412
-0.0844034
0.0936814
0.0577801
-0.0864598
0.096421
0.0470748
-0.0885486
0.0992539
0.0357631
-0.0903921
0.101704
0.0242195
-0.0908754
0.102419
0.013227
-0.0869301
0.0979226
0.00429963
-0.0721842
0.0811115
-0.0362043
0.0405039
0.0951051
-0.0714279
-0.104943
0.0848335
-0.0722079
0.0738624
-0.0734323
0.0622717
-0.0748691
0.0502287
-0.0765057
0.0379119
-0.0780753
0.0256108
-0.0785743
0.0140086
-0.0753279
0.00458306
-0.0627586
-0.0316212
0.0972497
-0.0601981
-0.10848
0.0859169
-0.0608751
0.0743781
-0.0618935
0.062632
-0.063123
0.0506373
-0.064511
0.0383802
-0.0658182
0.0260434
-0.0662376
0.0142927
-0.0635772
0.00467137
-0.0531373
-0.0269498
0.102995
-0.0485944
-0.114599
0.0912423
-0.0491221
0.0792538
-0.049905
0.0669448
-0.0508139
0.0542599
-0.0518261
0.041229
-0.0527873
0.0280879
-0.0530965
0.0155342
-0.0510234
0.00516149
-0.0427646
-0.0217884
0.105642
-0.0364815
-0.117755
0.0934089
-0.0368886
0.0809314
-0.0374274
0.068183
-0.0380656
0.0551507
-0.0387938
0.0418705
-0.0395071
0.0285418
-0.0397677
0.0158086
-0.0382903
0.00525669
-0.0322126
-0.0165317
0.108554
-0.0242375
-0.120798
0.0960995
-0.0244345
0.0833976
-0.0247256
0.0704129
-0.0250809
0.0571164
-0.0254973
0.0435208
-0.0259115
0.0298064
-0.0260533
0.0166201
-0.025104
0.00559294
-0.0211855
-0.0109387
0.110085
-0.0118316
-0.122491
0.0974862
-0.0118358
0.0846279
-0.0118673
0.0714795
-0.0119325
0.0580136
-0.0120315
0.0442433
-0.0121412
0.0303436
-0.0121536
0.0169527
-0.0117131
0.00571856
-0.00995133
-0.00522016
0.111083
0.000588978
-0.123503
0.0984196
0.000827366
0.0854795
0.00107284
0.0722336
0.00131342
0.0586578
0.00154433
0.0447677
0.00174895
0.0307377
0.00187639
0.0172046
0.00181999
0.00582232
0.00143094
0.000602159
0.11134
0.0129963
-0.123747
0.09868
0.0134875
0.0857329
0.0140199
0.0724714
0.0145749
0.0588716
0.0151441
0.0449482
0.0156724
0.0308746
0.01595
0.0172884
0.0154062
0.00585261
0.0128667
0.00645477
0.110944
-0.123298
0.0983362
0.0854377
0.0722237
0.058671
0.0447935
0.0307633
0.017218
0.00582302
0.0146345
-0.1639
-0.016932
0.00994264
-0.178362
0.00424422
-0.1868
-0.00159297
-0.192184
-0.00692743
-0.19559
-0.0109942
-0.19639
-0.0127091
-0.191475
-0.0108763
-0.174066
-0.00536216
-0.133486
-0.0583646
0.0385781
-0.160442
-0.0420358
0.0321329
-0.171917
0.0245125
-0.179179
0.0166388
-0.18431
0.00902322
-0.187974
0.0022389
-0.189606
-0.00273691
-0.186499
-0.0046856
-0.172117
-0.0031564
-0.135015