/*--------------------------------*- C++ -*----------------------------------*\
  =========                 |
  \\      /  F ield         | OpenFOAM: The Open Source CFD Toolbox
   \\    /   O peration     | Website:  https://openfoam.org
    \\  /    A nd           | Version:  13
     \\/     M anipulation  |
\*---------------------------------------------------------------------------*/
FoamFile
{
    format      ascii;
    class       volVectorField;
    location    "4";
    object      U;
}
// * * * * * * * * * * * * * * * * * * * * * * * * * * * * * * * * * * * * * //

dimensions      [0 1 -1 0 0 0 0];

internalField   nonuniform List<vector> 
1800
(
(-0.0332351 0.0273809 1.3347e-20)
(-0.0789056 0.0490596 5.8703e-21)
(-0.10371 0.0560775 -5.95942e-21)
(-0.106179 0.0572348 2.24602e-20)
(-0.0820049 0.0579792 8.66812e-20)
(-0.0269169 0.0609743 4.46697e-20)
(0.0618511 0.0679495 -2.17872e-20)
(0.181898 0.0794984 1.29403e-20)
(0.342868 0.122049 1.09277e-19)
(0.424924 0.152611 1.06634e-19)
(-0.0451727 0.0342177 8.97963e-21)
(-0.0885218 0.0619766 -1.90549e-20)
(-0.0897067 0.0675792 1.92787e-22)
(-0.0496337 0.0603958 -4.02866e-20)
(0.0342115 0.0470123 1.66005e-20)
(0.163895 0.0312308 9.40943e-20)
(0.339088 0.0156495 -5.06306e-20)
(0.552274 -0.00144022 2.84563e-20)
(0.813059 0.00828328 -1.68217e-19)
(0.959126 0.0128134 1.5152e-19)
(-0.0485016 0.0323428 3.36043e-21)
(-0.076041 0.0564028 1.23735e-20)
(-0.0396732 0.0585176 1.77395e-22)
(0.0582018 0.0468224 -8.20769e-21)
(0.217059 0.0284036 -9.56929e-20)
(0.432423 0.00823944 1.91903e-20)
(0.693246 -0.00987451 3.83504e-20)
(0.98194 -0.0247089 -1.67701e-20)
(1.28653 -0.0290611 1.65302e-22)
(1.53597 -0.0429818 1.62269e-23)
(-0.0438792 0.0249322 -6.66424e-21)
(-0.0384471 0.0361514 -2.11533e-20)
(0.0555405 0.0297308 -2.14778e-20)
(0.232827 0.0131842 1.97214e-20)
(0.484484 -0.00610256 1.67149e-20)
(0.79146 -0.0227298 7.54068e-21)
(1.12576 -0.0337598 -2.08238e-21)
(1.45739 -0.0381255 5.50741e-20)
(1.76223 -0.0378831 4.21323e-20)
(2.0105 -0.0380219 -1.6312e-20)
(-0.0305639 0.0153233 5.15544e-20)
(0.0301743 0.0116545 4.8617e-20)
(0.206137 -0.00198286 -3.29459e-20)
(0.481961 -0.0177508 -4.06094e-20)
(0.829143 -0.0287431 -9.82553e-20)
(1.20566 -0.0319371 1.61754e-21)
(1.56777 -0.0279865 1.18558e-19)
(1.88216 -0.0196541 6.26831e-20)
(2.12925 -0.0103009 2.47403e-21)
(2.313 -0.00781556 -5.82714e-20)
(-0.00426154 0.00413263 -5.23942e-20)
(0.138604 -0.0117138 -7.71859e-21)
(0.418514 -0.0257221 1.74986e-19)
(0.797362 -0.0308863 -4.20028e-20)
(1.21636 -0.0248279 -1.10077e-19)
(1.61352 -0.0104437 2.16572e-19)
(1.94462 0.0070024 -2.40342e-19)
(2.19047 0.0227615 -3.38631e-19)
(2.35496 0.0337048 2.93586e-19)
(2.45142 0.0388134 1.37213e-21)
(0.0388708 -0.00689556 6.1761e-20)
(0.289997 -0.0272486 -1.29156e-19)
(0.683167 -0.0305602 -4.11471e-19)
(1.14453 -0.0152549 1.89084e-19)
(1.58754 0.0114411 4.21514e-19)
(1.95033 0.0400873 -1.67927e-21)
(2.20993 0.0638734 -9.44498e-19)
(2.37425 0.0798072 2.52954e-21)
(2.46587 0.0888485 1.19169e-18)
(2.51137 0.088864 3.3253e-19)
(0.10029 -0.0143588 6.06789e-20)
(0.478276 -0.0265185 3.1971e-19)
(0.974323 -0.00734134 3.25614e-19)
(1.47728 0.0330064 -1.12767e-19)
(1.89521 0.0763771 -4.03048e-19)
(2.1914 0.111267 -1.54293e-19)
(2.37434 0.134085 0)
(2.47312 0.146138 5.16804e-19)
(2.51865 0.150227 -7.69449e-21)
(2.53282 0.148132 -5.01571e-19)
(0.177816 -0.0142119 5.6227e-20)
(0.687535 -0.00225472 3.16322e-19)
(1.25806 0.0481174 5.80896e-19)
(1.75926 0.111238 -5.94081e-19)
(2.12254 0.163552 -5.20522e-19)
(2.34718 0.19772 2.2077e-19)
(2.46647 0.215649 -1.07257e-18)
(2.51889 0.222077 -8.108e-19)
(2.53385 0.221611 1.01242e-18)
(2.52879 0.215055 8.84367e-19)
(0.266007 -0.00283262 -5.09564e-20)
(0.896607 0.0491394 2.47156e-19)
(1.50609 0.133841 1.58941e-19)
(1.97526 0.213319 -1.26306e-18)
(2.275 0.267251 4.97495e-20)
(2.43643 0.295878 2.61586e-18)
(2.50748 0.306285 -1.52907e-18)
(2.52862 0.305805 -9.11015e-19)
(2.52541 0.299354 3.20694e-19)
(2.50959 0.288598 -7.36614e-19)
(-0.00921642 0.0355375 -1.01179e-19)
(-0.064142 0.114132 -5.28538e-20)
(-0.136133 0.166391 1.51673e-21)
(-0.214419 0.19195 1.10888e-20)
(-0.291306 0.201581 4.07391e-21)
(-0.364994 0.204434 1.98704e-19)
(-0.434756 0.205176 3.577e-20)
(-0.500418 0.205696 -2.42984e-19)
(-0.56453 0.206908 -8.99331e-21)
(-0.631732 0.209734 2.42559e-20)
(-0.0158877 0.0926955 -2.0271e-20)
(-0.0684278 0.233219 -3.89185e-20)
(-0.132097 0.31666 5.60488e-20)
(-0.200365 0.35576 3.73333e-20)
(-0.267525 0.369925 2.51084e-20)
(-0.331903 0.373185 1.80977e-19)
(-0.392671 0.372336 -2.11603e-19)
(-0.449354 0.369813 -2.31718e-19)
(-0.503544 0.366531 2.98586e-19)
(-0.559028 0.36359 -8.4141e-20)
(-0.0243927 0.120127 -9.63513e-21)
(-0.0706694 0.303652 -2.97687e-20)
(-0.117952 0.420709 -1.66614e-20)
(-0.165977 0.481884 -1.41507e-19)
(-0.213086 0.50749 -4.36515e-20)
(-0.258115 0.51507 4.52652e-19)
(-0.300133 0.51473 -1.01449e-19)
(-0.338287 0.510689 -2.94266e-19)
(-0.372736 0.504463 3.35009e-19)
(-0.405851 0.497109 1.95935e-19)
(-0.0290306 0.113282 -4.87172e-22)
(-0.0683506 0.309107 -2.73907e-21)
(-0.0985595 0.455045 -1.91365e-21)
(-0.124266 0.546427 1.26697e-20)
(-0.148124 0.593903 4.2989e-20)
(-0.170518 0.613265 -1.50224e-19)
(-0.191027 0.617324 -1.13e-19)
(-0.208843 0.613503 1.28447e-19)
(-0.222779 0.605054 -6.98309e-21)
(-0.230052 0.593915 6.52689e-21)
(-0.025969 0.0821867 0)
(-0.0577759 0.255174 -9.42772e-21)
(-0.0750422 0.411363 3.30762e-20)
(-0.0826485 0.531122 3.2935e-20)
(-0.0851264 0.61 1.49455e-19)
(-0.0847244 0.654173 -1.00479e-19)
(-0.0821754 0.67336 3.58816e-20)
(-0.0773752 0.676258 4.83666e-20)
(-0.0697105 0.668555 0)
(-0.0528619 0.654507 1.19788e-20)
(-0.016418 0.0439475 -2.13297e-20)
(-0.039712 0.168587 5.35156e-20)
(-0.0501771 0.306729 4.42569e-20)
(-0.049084 0.433828 -5.01606e-20)
(-0.0393181 0.535439 4.65554e-20)
(-0.0232431 0.607325 3.75616e-20)
(-0.00253657 0.651678 -1.39191e-19)
(0.0218856 0.673418 -3.09563e-20)
(0.0489161 0.677092 1.66574e-19)
(0.0859414 0.666195 5.60428e-21)
(-0.00515819 0.0135164 6.02752e-21)
(-0.020032 0.0853616 8.61152e-20)
(-0.0291133 0.185268 -4.92137e-20)
(-0.0291662 0.292633 -8.30784e-21)
(-0.0195116 0.391624 -1.85189e-20)
(-0.000710237 0.473002 -4.01188e-20)
(0.0260662 0.533214 -2.68852e-21)
(0.0596468 0.572602 -3.23115e-20)
(0.0985523 0.593051 -2.9209e-21)
(0.144976 0.590869 -1.98947e-21)
(0.00226919 -0.00248966 1.48244e-20)
(-0.00855591 0.029592 -3.50812e-20)
(-0.0214533 0.0888005 -5.47094e-20)
(-0.029839 0.161612 1.77306e-20)
(-0.0298692 0.236225 1.31955e-20)
(-0.0199481 0.303817 1.75327e-19)
(9.29637e-05 0.359103 2.07144e-19)
(0.0299329 0.399912 -9.97692e-20)
(0.0701886 0.425604 -5.63409e-20)
(0.116124 0.421247 4.25277e-20)
(0.00155052 -0.00420822 1.32322e-20)
(-0.0152467 0.00642085 -2.68687e-20)
(-0.0375629 0.0336512 6.61695e-20)
(-0.0577922 0.0710883 9.40044e-20)
(-0.0703482 0.112775 -9.33353e-20)
(-0.0721625 0.152993 2.13771e-19)
(-0.0616244 0.187331 -1.29406e-20)
(-0.0374431 0.212707 -4.07929e-19)
(0.00221544 0.225556 -8.18998e-20)
(0.0542422 0.212217 5.99639e-20)
(-0.0137562 0.00968839 1.64811e-21)
(-0.0489239 0.0191401 -4.21775e-21)
(-0.0828435 0.0284466 -1.28884e-20)
(-0.109995 0.0403376 4.78186e-20)
(-0.124909 0.0554745 8.60631e-20)
(-0.12378 0.0725239 -1.26478e-19)
(-0.10415 0.0901078 -1.43382e-19)
(-0.0643603 0.107194 1.04017e-19)
(-0.00279977 0.121067 -1.15141e-19)
(0.0764841 0.122652 -7.10742e-20)
(-0.967562 0.23575 -5.92366e-19)
(-1.21542 0.530747 1.35101e-19)
(-0.703818 0.522835 -4.03852e-19)
(-0.186255 -0.016226 5.42884e-19)
(0.315466 -0.464299 -1.93213e-19)
(0.580806 -0.560793 -1.43733e-19)
(0.794588 -0.553988 -5.5361e-20)
(0.915848 -0.438062 6.79972e-21)
(0.981964 -0.369169 2.44363e-20)
(1.06606 -0.234387 3.84452e-21)
(-0.844062 0.349969 -2.34723e-19)
(-1.11099 0.499552 1.36223e-19)
(-0.575055 0.352133 -2.68798e-20)
(0.00132962 -0.170478 -5.78076e-19)
(0.480943 -0.567807 -8.97683e-19)
(0.731264 -0.633007 0)
(0.916402 -0.597432 -6.68204e-20)
(1.00528 -0.462966 1.17426e-21)
(1.05471 -0.384925 -2.63931e-22)
(1.10439 -0.244637 -1.36738e-20)
(-0.600144 0.447671 2.76829e-19)
(-0.831288 0.476437 -1.6e-19)
(-0.334035 0.195529 4.15049e-19)
(0.232581 -0.311073 9.03393e-20)
(0.674489 -0.661345 5.70917e-20)
(0.895181 -0.696954 -6.34311e-20)
(1.04414 -0.632282 0)
(1.09571 -0.481132 0)
(1.12659 -0.394046 -2.7909e-20)
(1.14282 -0.250291 0)
(-0.301589 0.512049 1.42747e-20)
(-0.45918 0.45901 1.85253e-19)
(-0.0247432 0.0683031 -5.13641e-20)
(0.500679 -0.432241 0)
(0.88602 -0.742554 5.96311e-19)
(1.06377 -0.750154 -1.14282e-19)
(1.1731 -0.657504 0)
(1.18506 -0.491769 9.97305e-20)
(1.19499 -0.39653 0)
(1.17919 -0.251488 1.73056e-20)
(-0.0194006 0.54 1.83276e-19)
(-0.0671701 0.442522 7.50206e-20)
(0.308472 -0.0271108 2.78468e-20)
(0.784962 -0.530057 0)
(1.10697 -0.80883 2.17482e-19)
(1.23083 -0.791065 2.36963e-19)
(1.29795 -0.672998 -4.2953e-20)
(1.27109 -0.494665 -5.92476e-21)
(1.25859 -0.392431 -2.1077e-20)
(1.21215 -0.248402 1.54023e-21)
(0.215971 0.536916 1.52191e-18)
(0.28632 0.430498 2.08526e-19)
(0.630694 -0.0950641 -1.10972e-20)
(1.06932 -0.605365 4.18612e-19)
(1.3274 -0.859066 -3.32886e-19)
(1.39223 -0.819288 1.00322e-19)
(1.4149 -0.679158 2.38756e-19)
(1.35143 -0.490187 -2.02206e-19)
(1.31664 -0.381996 6.98298e-22)
(1.24103 -0.241243 -3.79057e-20)
(0.386294 0.493195 6.7886e-20)
(0.576625 0.417545 -1.40802e-19)
(0.926424 -0.140455 -2.08165e-20)
(1.34089 -0.659801 -9.15467e-21)
(1.53736 -0.89288 -1.71283e-19)
(1.54348 -0.835303 -6.35874e-20)
(1.52144 -0.676787 -8.90769e-20)
(1.42411 -0.479124 1.93587e-20)
(1.36852 -0.365705 2.91251e-20)
(1.26558 -0.230293 1.15268e-22)
(0.467061 0.396102 -5.56813e-19)
(0.787065 0.395204 -2.91055e-19)
(1.19188 -0.173758 0)
(1.59385 -0.694514 7.65946e-20)
(1.73056 -0.909613 1.0247e-19)
(1.6812 -0.839523 -3.20747e-20)
(1.61623 -0.666827 -2.68631e-19)
(1.48788 -0.462529 8.49675e-20)
(1.41368 -0.344294 -1.54461e-21)
(1.28577 -0.215939 -1.85466e-20)
(0.418751 0.251176 4.7078e-19)
(0.914885 0.346442 8.39411e-19)
(1.43643 -0.203623 -1.96192e-19)
(1.82496 -0.711114 -4.18265e-20)
(1.90263 -0.909494 2.96466e-20)
(1.80305 -0.832273 -1.84646e-19)
(1.69889 -0.650115 9.94132e-20)
(1.54239 -0.441588 -2.59595e-21)
(1.45166 -0.318802 6.91492e-21)
(1.30157 -0.198684 2.885e-20)
(0.350203 0.052096 -2.84582e-19)
(1.00444 0.249525 8.00931e-19)
(1.67944 -0.231576 1.51735e-19)
(2.0319 -0.715486 9.52479e-20)
(2.05073 -0.89667 -2.81891e-20)
(1.90759 -0.815307 -6.6078e-20)
(1.7695 -0.627594 -3.27525e-20)
(1.58797 -0.417504 0)
(1.48212 -0.290567 -4.94773e-20)
(1.31303 -0.179205 3.49e-20)
(1.01221 -0.00771889 -2.28022e-19)
(1.44158 0.0631203 -4.74306e-19)
(2.05936 -0.341027 5.19889e-19)
(2.2905 -0.729908 -2.61782e-20)
(2.22246 -0.869968 -3.02311e-20)
(2.02438 -0.782204 -7.19816e-20)
(1.84493 -0.589894 -1.03096e-19)
(1.63372 -0.381122 5.31381e-20)
(1.50941 -0.250763 -2.07282e-20)
(1.32234 -0.152592 -1.95554e-20)
(1.92781 0.0207426 -4.20318e-20)
(2.18454 -0.0501562 -6.49731e-19)
(2.59035 -0.44268 -1.04452e-18)
(2.55789 -0.743317 1.46619e-19)
(2.32291 -0.818249 -3.58339e-19)
(2.06092 -0.695422 2.24877e-20)
(1.85917 -0.492429 1.5881e-19)
(1.63349 -0.298069 -3.01e-20)
(1.50583 -0.181241 1.02986e-19)
(1.31595 -0.111571 1.02282e-20)
(2.29595 -0.0280541 5.26124e-20)
(2.5522 -0.133826 2.86785e-20)
(2.68698 -0.458582 -4.30728e-21)
(2.4928 -0.664687 1.28646e-35)
(2.28519 -0.71896 -3.95076e-20)
(2.07769 -0.612976 -1.96535e-34)
(1.89038 -0.421563 3.36672e-20)
(1.65281 -0.240101 1.13866e-33)
(1.51078 -0.127955 -4.37108e-21)
(1.30965 -0.0763721 8.23965e-21)
(2.41605 -0.0560651 6.59632e-35)
(2.58197 -0.16707 3.24146e-19)
(2.5996 -0.418461 4.45639e-19)
(2.4843 -0.608919 0)
(2.33243 -0.669368 1.17939e-19)
(2.10059 -0.54977 -5.03595e-20)
(1.86994 -0.338064 -1.37807e-19)
(1.60758 -0.159317 2.83248e-33)
(1.45557 -0.057843 -6.54786e-20)
(1.26792 -0.0348153 -1.02589e-20)
(2.42737 -0.091461 4.88866e-20)
(2.51264 -0.184229 -6.88929e-21)
(2.53783 -0.398123 0)
(2.45671 -0.569137 0)
(2.26588 -0.592646 0)
(1.99317 -0.447546 0)
(1.75304 -0.239517 7.55281e-21)
(1.50645 -0.0827938 3.1376e-33)
(1.37121 6.1695e-05 -6.04095e-21)
(1.21238 -0.00161665 -1.45005e-33)
(2.40824 -0.113778 6.39461e-20)
(2.449 -0.19599 0)
(2.47869 -0.375294 0)
(2.38086 -0.512874 0)
(2.12594 -0.505635 0)
(1.80399 -0.349284 0)
(1.54697 -0.151295 -1.4068e-20)
(1.32513 -0.0162673 8.1959e-20)
(1.22238 0.0490879 -6.79929e-21)
(1.11742 0.0262869 -5.52792e-21)
(2.37069 -0.129568 0)
(2.37956 -0.20032 1.2745e-19)
(2.38102 -0.346106 1.64189e-19)
(2.17618 -0.437027 0)
(1.79434 -0.384553 3.75363e-20)
(1.42738 -0.224933 -2.5401e-20)
(1.19613 -0.0607669 -5.51523e-20)
(1.04363 0.0364554 -3.23087e-20)
(1.00286 0.0764511 2.65381e-20)
(0.975038 0.0397732 -1.74156e-20)
(2.24973 -0.12986 -6.36136e-21)
(2.21129 -0.188739 -5.28625e-21)
(2.08369 -0.281594 3.37175e-21)
(1.69523 -0.303477 -3.37934e-35)
(1.22164 -0.224492 -4.60953e-22)
(0.880577 -0.104506 -1.2392e-35)
(0.732681 -0.00104902 -1.36991e-20)
(0.686632 0.0551868 -5.04687e-20)
(0.722422 0.0734863 -7.04479e-21)
(0.769826 0.036986 1.48324e-20)
(1.81446 -0.109832 3.83042e-20)
(1.67361 -0.144548 -3.57207e-20)
(1.36152 -0.152136 -2.77852e-20)
(0.885825 -0.115383 0)
(0.505499 -0.0720138 -1.46197e-20)
(0.307323 -0.0304821 -1.30083e-20)
(0.2657 0.0120806 -2.77213e-20)
(0.306958 0.0380958 -3.75738e-21)
(0.392119 0.0439983 -7.81163e-21)
(0.477963 0.0217371 -1.34224e-20)
(0.725244 -0.0267998 0)
(0.539204 -0.0137171 0)
(0.331658 0.00179385 0)
(0.162367 0.000228395 0)
(0.0378999 -0.00803027 0)
(-0.0479396 -0.00773903 0)
(-0.0640845 -0.000472952 -1.31907e-20)
(-0.0213913 0.00508531 7.09043e-35)
(0.0452723 0.00614207 -7.45943e-21)
(0.110522 0.00296856 -1.50972e-20)
(2.45532 0.263407 7.12929e-19)
(2.49353 0.202578 4.26299e-20)
(2.50991 0.141638 -6.6256e-20)
(2.52799 0.0973104 -2.11211e-19)
(2.52427 0.0446803 -3.4125e-20)
(2.49231 0.0217851 -5.07548e-20)
(2.44053 -0.0279339 -1.62712e-19)
(2.20215 -0.0210409 2.12853e-20)
(2.02185 -0.0602488 0)
(1.33117 -0.00785685 6.06535e-20)
(2.38119 0.223919 2.34043e-19)
(2.39568 0.181307 -2.55089e-19)
(2.45967 0.126002 -6.02234e-20)
(2.44197 0.093077 -1.07081e-19)
(2.52409 0.0442283 9.09587e-20)
(2.45321 0.0157911 1.52407e-19)
(2.55892 -0.0229906 -1.80455e-19)
(2.38937 -0.0616361 1.35211e-20)
(2.46631 -0.0720312 -4.00428e-20)
(2.12925 -0.124493 5.23645e-20)
(2.3335 0.19319 -1.03403e-19)
(2.32013 0.14891 2.38978e-19)
(2.4108 0.114626 1.36302e-19)
(2.36846 0.0697887 -2.35174e-19)
(2.47088 0.0479966 -4.57721e-20)
(2.40196 -0.00420457 3.17914e-19)
(2.50674 -0.00779901 5.22586e-20)
(2.42529 -0.0730143 -4.98313e-20)
(2.49548 -0.0541023 -2.28754e-20)
(2.41059 -0.127234 -2.02092e-20)
(2.28683 0.16122 -2.85396e-19)
(2.28101 0.112285 -6.22402e-20)
(2.35581 0.0978501 4.72889e-20)
(2.33562 0.0443414 -3.17656e-21)
(2.40363 0.041871 -2.18885e-19)
(2.3802 -0.0170673 -6.54167e-20)
(2.4316 -0.00699455 1.73662e-19)
(2.42144 -0.0680991 -1.27125e-20)
(2.4452 -0.0497163 3.19745e-20)
(2.4538 -0.106 1.05211e-20)
(2.24182 0.125414 3.18883e-20)
(2.25795 0.0807101 1.32847e-19)
(2.30571 0.0727845 -8.86508e-21)
(2.31586 0.0253329 1.41487e-19)
(2.35095 0.0244434 -5.81567e-20)
(2.36197 -0.0232063 -1.9483e-19)
(2.38191 -0.0192273 2.90748e-20)
(2.39958 -0.0629224 -5.53894e-20)
(2.40616 -0.0584121 -1.90767e-20)
(2.43001 -0.0945544 -2.47424e-20)
(2.2029 0.0867918 -1.58298e-19)
(2.23238 0.0523734 -6.3722e-20)
(2.26499 0.043249 -1.73814e-20)
(2.29008 0.00834237 9.62591e-20)
(2.31249 0.00242688 2.63636e-19)
(2.33553 -0.0309205 -5.67099e-20)
(2.34852 -0.0355663 5.09892e-21)
(2.37079 -0.0654254 -8.02657e-20)
(2.37693 -0.0706915 -1.18182e-19)
(2.39864 -0.0960519 -1.80053e-20)
(2.15477 0.0493706 -4.89714e-20)
(2.18793 0.0251333 -1.15384e-19)
(2.2152 0.0147423 -1.48281e-19)
(2.24496 -0.00924336 -2.56392e-19)
(2.26512 -0.018253 8.27978e-20)
(2.29246 -0.0414583 6.78226e-20)
(2.30583 -0.0503132 -1.3455e-20)
(2.33179 -0.0724151 8.00386e-20)
(2.3388 -0.0817625 -7.16069e-20)
(2.36522 -0.102494 -4.75454e-20)
(2.04355 0.0154389 6.06652e-20)
(2.07633 -0.000594757 2.10288e-20)
(2.09663 -0.00935651 1.58614e-20)
(2.13005 -0.0253873 -3.37826e-20)
(2.14433 -0.0333193 -3.21599e-20)
(2.18014 -0.0498387 -5.92794e-20)
(2.18743 -0.0577785 -4.7131e-20)
(2.22773 -0.0753626 1.07411e-19)
(2.22645 -0.0838755 -4.39671e-20)
(2.27412 -0.102884 2.4305e-21)
(1.72643 -0.0123736 -7.15121e-20)
(1.74646 -0.0204228 -1.61362e-20)
(1.75327 -0.0255072 1.2594e-19)
(1.77808 -0.0334506 -2.08321e-20)
(1.77981 -0.0381187 -3.59915e-20)
(1.81246 -0.0468572 7.43947e-20)
(1.80651 -0.0518993 -5.77657e-20)
(1.85016 -0.0623669 4.65869e-20)
(1.83246 -0.0687856 -2.33545e-20)
(1.89128 -0.0818585 -9.65553e-20)
(0.875517 -0.0106584 5.13571e-20)
(0.867974 -0.0100345 4.46043e-20)
(0.859262 -0.00942044 4.47536e-20)
(0.855392 -0.00914674 7.48172e-20)
(0.847352 -0.00919162 -3.81446e-20)
(0.848411 -0.00955327 -5.31758e-20)
(0.837855 -0.0104056 2.41634e-20)
(0.846205 -0.0120621 -2.23403e-21)
(0.824476 -0.0131135 3.35748e-21)
(0.849599 -0.019387 -5.07443e-21)
(1.54508 0.947472 -8.14359e-20)
(1.52945 0.993157 2.5757e-20)
(1.53293 1.04641 -6.13256e-19)
(1.54129 1.10679 2.26229e-19)
(1.54738 1.17026 1.15367e-18)
(1.5425 1.22863 -1.41507e-19)
(1.50473 1.25939 -1.0247e-18)
(1.38441 1.21083 -2.19871e-21)
(1.09446 0.989145 -5.01158e-19)
(0.511171 0.472942 1.15897e-19)
(1.70648 0.919024 0)
(1.69555 0.963206 7.0907e-19)
(1.69546 1.01265 1.57317e-18)
(1.70338 1.07048 -9.71539e-19)
(1.7126 1.13232 -2.2712e-18)
(1.71074 1.1884 -1.48134e-19)
(1.67058 1.21488 -1.89773e-19)
(1.53493 1.16082 6.91972e-19)
(1.20724 0.938659 1.03345e-18)
(0.557951 0.4411 4.07121e-19)
(1.85468 0.882139 6.53549e-20)
(1.85255 0.925653 0)
(1.85394 0.971859 -6.45966e-20)
(1.86263 1.0249 9.90034e-19)
(1.87379 1.08158 5.3478e-20)
(1.87284 1.13175 -2.21126e-18)
(1.82748 1.15114 1.39672e-18)
(1.67338 1.09074 8.2002e-19)
(1.30626 0.870669 -8.80447e-19)
(0.595152 0.400076 -2.59265e-19)
(1.98586 0.835543 -1.79182e-19)
(1.99302 0.877061 -1.32155e-19)
(1.99945 0.919608 2.70062e-19)
(2.01086 0.96715 -3.35178e-19)
(2.0237 1.01718 -1.54928e-18)
(2.02175 1.05962 -1.20407e-18)
(1.96824 1.07001 1.25974e-18)
(1.79198 1.00162 8.28999e-19)
(1.38316 0.785873 0)
(0.618265 0.350447 0)
(2.1005 0.775099 -8.81085e-19)
(2.1159 0.813783 -1.61887e-18)
(2.12865 0.852522 -6.22343e-19)
(2.14376 0.894607 -3.19017e-20)
(2.15775 0.937593 0)
(2.1528 0.970548 1.27497e-19)
(2.08682 0.970501 1.46464e-19)
(1.88272 0.896011 1.81894e-19)
(1.43121 0.687112 -2.59742e-19)
(0.62393 0.293319 -6.484e-20)
(2.20166 0.704833 1.04946e-18)
(2.22311 0.739291 -3.90027e-20)
(2.24114 0.773379 -1.23199e-18)
(2.25923 0.809329 0)
(2.2727 0.844132 0)
(2.26062 0.867245 0)
(2.17591 0.856664 1.39317e-18)
(1.93875 0.775443 -1.52561e-18)
(1.4452 0.575849 -9.57092e-19)
(0.609358 0.231457 1.76457e-20)
(2.28945 0.624572 -1.35562e-18)
(2.31518 0.654266 -2.84586e-18)
(2.33662 0.683591 -4.93532e-21)
(2.35566 0.713311 5.76924e-19)
(2.36524 0.739789 -3.41948e-20)
(2.3406 0.752508 1.2062e-18)
(2.2306 0.730933 -6.65853e-19)
(1.95473 0.643675 -1.72776e-18)
(1.42008 0.457138 8.72732e-20)
(0.573487 0.168988 6.92801e-20)
(2.3655 0.540472 -1.04701e-18)
(2.39225 0.565171 1.44496e-20)
(2.4143 0.588947 3.93622e-19)
(2.43115 0.611611 -3.8093e-19)
(2.43224 0.62894 5.93697e-19)
(2.38835 0.630508 1.56004e-18)
(2.24487 0.597907 -1.25316e-19)
(1.92422 0.506486 -8.91849e-19)
(1.35198 0.337732 1.98683e-19)
(0.517112 0.1105 3.64763e-20)
(2.42716 0.453521 3.78703e-19)
(2.45329 0.473772 7.34766e-20)
(2.4732 0.491937 -3.86398e-19)
(2.48381 0.507294 -9.10866e-19)
(2.47018 0.51517 5.8456e-20)
(2.39833 0.505587 3.9843e-20)
(2.21192 0.463081 -1.07456e-18)
(1.8415 0.370682 4.65968e-19)
(1.23966 0.225024 1.3238e-19)
(0.443268 0.0603563 -4.09545e-20)
(2.47528 0.369496 6.9345e-19)
(2.4978 0.384867 -1.03265e-18)
(2.51199 0.396916 1.50411e-19)
(2.51068 0.404631 2.0295e-18)
(2.47387 0.402973 9.73036e-19)
(2.36338 0.382923 -2.09515e-18)
(2.12438 0.332781 -1.90627e-18)
(1.70237 0.243894 7.81817e-19)
(1.08537 0.126564 -4.10291e-20)
(0.357193 0.0219724 -1.08752e-19)
(0.551471 0.371742 -1.92453e-19)
(0.510367 0.384796 -1.7318e-19)
(0.464012 0.398658 8.37824e-20)
(0.413059 0.413465 -2.68275e-19)
(0.357215 0.429088 -2.70044e-20)
(0.29564 0.444184 2.31987e-19)
(0.227354 0.453211 4.43308e-20)
(0.152832 0.440273 -7.16794e-21)
(0.0792829 0.371107 1.47513e-20)
(0.015779 0.189005 1.51764e-20)
(0.590862 0.480028 1.49752e-19)
(0.550933 0.499912 1.92961e-19)
(0.506608 0.521208 4.35254e-20)
(0.458122 0.544063 -6.08252e-20)
(0.404856 0.56823 -2.38255e-19)
(0.345703 0.591823 -9.45071e-21)
(0.279006 0.607342 7.72579e-20)
(0.203445 0.593276 3.37983e-20)
(0.122605 0.502638 -1.1121e-19)
(0.0383674 0.257391 -3.82656e-20)
(0.648465 0.5806 -1.36312e-19)
(0.609968 0.60639 -1.23066e-19)
(0.568201 0.634078 1.09308e-19)
(0.522932 0.664127 8.07356e-20)
(0.473261 0.69641 -7.56787e-20)
(0.417777 0.728589 -3.56571e-20)
(0.353788 0.751129 -1.05497e-19)
(0.277174 0.73677 -6.75522e-20)
(0.185784 0.626005 -6.44981e-20)
(0.0712286 0.320987 1.07376e-21)
(0.723902 0.677309 5.29827e-20)
(0.687392 0.709614 -4.16495e-20)
(0.649114 0.743692 -8.67619e-20)
(0.607842 0.780219 -3.89996e-20)
(0.562237 0.819195 -6.87381e-20)
(0.510702 0.857932 -1.65876e-21)
(0.449523 0.885076 -2.64366e-19)
(0.371194 0.868255 4.89612e-20)
(0.266057 0.737183 -3.09186e-19)
(0.112787 0.377252 4.88764e-20)
(0.812601 0.757567 -8.68986e-22)
(0.778747 0.794909 9.94185e-21)
(0.745187 0.834567 -4.78675e-20)
(0.709811 0.877582 -2.52591e-19)
(0.670496 0.923723 1.17346e-19)
(0.624847 0.969587 3.03363e-20)
(0.567528 1.00196 4.89209e-20)
(0.486833 0.983646 -1.66886e-19)
(0.363917 0.834454 3.76332e-19)
(0.162738 0.425545 2.7441e-19)
(0.917942 0.836862 -7.53277e-20)
(0.885813 0.878699 -1.66241e-19)
(0.855624 0.921684 2.97214e-20)
(0.824686 0.968262 9.72029e-20)
(0.790836 1.01877 3.5052e-19)
(0.751174 1.06912 2.57367e-19)
(0.698241 1.10386 6.27449e-19)
(0.61512 1.08136 2.59704e-19)
(0.472485 0.913876 1.47695e-19)
(0.217931 0.46321 2.03391e-19)
(1.02944 0.889887 -1.03545e-19)
(1.00346 0.936541 5.69159e-19)
(0.981142 0.984078 3.79027e-19)
(0.9579 1.035 -4.92174e-19)
(0.930973 1.08985 -2.48249e-19)
(0.897322 1.1444 6.58231e-19)
(0.847853 1.18166 -1.04296e-19)
(0.76016 1.15604 -4.45886e-19)
(0.593359 0.973419 1.96506e-20)
(0.277978 0.489679 2.48978e-19)
(1.14809 0.944194 2.84587e-19)
(1.1224 0.991174 5.71752e-20)
(1.10488 1.039 -7.47336e-19)
(1.08973 1.09168 1.6219e-19)
(1.07225 1.14889 5.74656e-19)
(1.04736 1.20501 -3.18622e-19)
(1.00306 1.24129 -9.97242e-20)
(0.910839 1.20941 -1.84048e-19)
(0.718147 1.01187 1.85369e-20)
(0.339017 0.503825 -2.93807e-19)
(1.27583 0.963527 1.80723e-20)
(1.26059 1.01435 -5.45351e-19)
(1.2504 1.06317 -4.63103e-21)
(1.24085 1.1169 4.7039e-19)
(1.22924 1.17642 -4.89578e-19)
(1.21031 1.23503 9.59738e-19)
(1.16884 1.27158 6.45157e-19)
(1.06922 1.23509 -9.50479e-19)
(0.846645 1.02666 -7.39141e-20)
(0.399884 0.505251 -3.21178e-19)
(1.37727 0.975057 -3.2828e-19)
(1.37357 1.02656 -3.11385e-19)
(1.38048 1.07693 2.91741e-19)
(1.38551 1.13123 7.72468e-19)
(1.38517 1.18998 2.77389e-19)
(1.37458 1.24676 -7.97275e-19)
(1.33625 1.2796 1.03805e-19)
(1.22788 1.23636 2.15626e-19)
(0.973082 1.01919 -2.87956e-19)
(0.457894 0.494793 -2.26509e-19)
(0.99765 0.00887714 5.54347e-22)
(1.01101 0.0374995 -1.62631e-20)
(1.02058 0.0480163 -1.18203e-20)
(1.03116 0.0703338 0)
(1.02632 0.0885471 1.31501e-20)
(1.02359 0.107349 1.94272e-20)
(1.00098 0.137592 2.5349e-20)
(0.960833 0.174379 6.03233e-20)
(0.882742 0.238352 -9.74556e-20)
(0.730778 0.306117 -1.18451e-19)
(0.999024 0.00688271 3.32733e-20)
(1.00839 0.0354712 -5.23291e-20)
(1.01978 0.0450815 2.09038e-22)
(1.02885 0.0700014 -1.48826e-20)
(1.02582 0.0887911 6.79662e-21)
(1.02396 0.112066 -1.02391e-20)
(1.00178 0.146474 -5.93761e-20)
(0.967797 0.192576 0)
(0.891085 0.274782 2.03712e-19)
(0.762587 0.376605 -2.63227e-19)
(0.99983 0.00510006 -2.37695e-20)
(1.00702 0.033893 1.43753e-20)
(1.01896 0.0418433 3.0927e-20)
(1.02828 0.070276 8.11378e-21)
(1.02557 0.0884458 -1.67952e-20)
(1.02705 0.117505 1.28507e-21)
(1.0036 0.154604 -4.3202e-20)
(0.980005 0.211218 -7.33066e-21)
(0.90295 0.309719 4.19951e-22)
(0.809318 0.444315 6.57899e-19)
(1.00018 0.00341304 -2.64409e-20)
(1.00665 0.032719 1.99297e-21)
(1.01825 0.0382843 2.54107e-20)
(1.0292 0.0711095 1.7202e-20)
(1.02579 0.0874322 -8.55129e-21)
(1.03253 0.123704 -1.26159e-20)
(1.00657 0.161609 6.42312e-20)
(0.997213 0.230775 -2.56538e-21)
(0.917887 0.342039 -2.31607e-19)
(0.870624 0.507694 7.69111e-20)
(1.00026 0.00170908 1.81775e-20)
(1.00693 0.0318551 -2.61511e-20)
(1.01785 0.034429 -2.05549e-20)
(1.03128 0.0723723 1.02716e-20)
(1.02688 0.085769 0)
(1.03978 0.130556 0)
(1.01153 0.167385 5.59502e-20)
(1.01776 0.251092 1.34251e-21)
(0.938354 0.37165 -1.08759e-19)
(0.942292 0.565169 8.93059e-20)
(1.00027 -4.03761e-05 5.07275e-21)
(1.00749 0.0311846 2.07752e-20)
(1.01803 0.030321 -5.69533e-20)
(1.03415 0.0738943 -2.01683e-20)
(1.02923 0.0835163 -4.50589e-22)
(1.04842 0.137954 5.58662e-20)
(1.01866 0.171711 8.76272e-20)
(1.04213 0.272668 1.08639e-23)
(0.960948 0.396308 1.78454e-19)
(1.03084 0.622677 -2.05237e-19)
(1.00036 -0.00184457 -1.9362e-20)
(1.00802 0.0305678 1.08042e-20)
(1.01908 0.0260067 -1.59523e-20)
(1.03746 0.0754706 -4.31289e-20)
(1.03332 0.0808083 1.48067e-21)
(1.05771 0.145588 -1.52674e-21)
(1.02939 0.174846 -3.98967e-21)
(1.06712 0.294719 -1.95761e-19)
(0.994396 0.417102 1.34063e-19)
(1.11405 0.664238 -5.02267e-19)
(1.00063 -0.00369234 -3.23684e-21)
(1.00835 0.0298565 -3.08222e-20)
(1.02117 0.0215266 3.23877e-20)
(1.04102 0.0768824 2.31669e-20)
(1.03939 0.077817 7.9034e-22)
(1.06741 0.15302 -6.62358e-20)
(1.04359 0.177068 -5.04961e-20)
(1.09477 0.317257 3.53825e-19)
(1.02797 0.435052 1.24492e-20)
(1.22712 0.72332 7.93984e-19)
(1.00108 -0.00554749 1.28729e-20)
(1.00848 0.0289136 1.38755e-20)
(1.02425 0.0169217 3.85697e-20)
(1.0449 0.0779954 -2.55556e-20)
(1.04734 0.0745855 -6.80441e-20)
(1.07723 0.160405 8.51983e-22)
(1.06216 0.1768 -7.08843e-20)
(1.12228 0.338076 4.65148e-19)
(1.08192 0.435905 -7.91594e-21)
(1.295 0.74071 -1.10055e-18)
(1.00168 -0.00734632 3.05539e-22)
(1.0086 0.0275766 2.14399e-20)
(1.02797 0.0126782 1.26814e-20)
(1.04963 0.0785455 -5.14403e-20)
(1.05583 0.0729795 -6.74889e-20)
(1.08687 0.167021 -5.74731e-20)
(1.08112 0.184246 -1.3187e-19)
(1.14546 0.361941 -4.26416e-19)
(1.13737 0.46476 -2.31833e-19)
(1.42836 0.812041 -1.16298e-18)
(1.00273 -0.0103597 -9.47831e-22)
(1.0084 0.0257206 -4.58883e-21)
(1.03329 0.00445511 -1.50521e-20)
(1.05748 0.078028 2.81076e-20)
(1.06635 0.0640165 5.17375e-20)
(1.10634 0.171439 -3.7437e-20)
(1.10359 0.168807 1.32989e-19)
(1.19023 0.372713 -3.94615e-19)
(1.19712 0.40503 -1.79201e-19)
(1.44294 0.802364 6.09359e-19)
(1.00466 -0.0147841 2.46609e-22)
(1.00654 0.0228017 7.75376e-21)
(1.04316 -0.00883212 -1.06872e-20)
(1.06506 0.0745183 5.19307e-20)
(1.08395 0.0482636 8.94345e-20)
(1.12374 0.168999 1.12034e-19)
(1.14459 0.143853 3.08305e-20)
(1.21809 0.359594 1.93934e-19)
(1.29494 0.354583 3.07242e-19)
(1.46204 0.703346 2.35792e-20)
(1.00586 -0.0189742 -1.21599e-21)
(1.00458 0.0176879 -3.63746e-21)
(1.05862 -0.0222309 3.80623e-21)
(1.06873 0.0687382 3.97237e-21)
(1.10901 0.0326533 2.74874e-34)
(1.1332 0.160608 -6.35865e-21)
(1.19438 0.119197 -4.50704e-34)
(1.23446 0.335422 1.67906e-20)
(1.37092 0.3005 -5.15128e-20)
(1.4971 0.614249 -5.29698e-20)
(1.00348 -0.0232041 1.49718e-20)
(1.00782 0.00881866 -4.11343e-35)
(1.07505 -0.0342633 -4.3425e-21)
(1.0727 0.0587419 -2.21106e-20)
(1.13462 0.0187479 -4.5528e-20)
(1.14467 0.147045 -3.79761e-20)
(1.23466 0.0958521 -5.94697e-34)
(1.25668 0.307226 -7.59432e-20)
(1.41016 0.248435 -1.39854e-19)
(1.53423 0.523802 8.92661e-20)
(0.995562 -0.0279987 0)
(1.02172 -0.00495674 -9.18559e-36)
(1.08664 -0.043783 0)
(1.08508 0.0433158 0)
(1.15494 0.00632914 0)
(1.16792 0.126751 0)
(1.25731 0.0756843 -4.3613e-34)
(1.28871 0.272201 0)
(1.42748 0.203637 -1.82746e-20)
(1.56449 0.430597 5.28039e-20)
(0.982647 -0.0345185 2.25875e-21)
(1.04658 -0.0211695 -3.8099e-22)
(1.09223 -0.0507198 -5.45983e-21)
(1.10928 0.0259666 0)
(1.16974 -0.00355041 0)
(1.19966 0.10256 5.80763e-21)
(1.26932 0.0599737 4.29321e-20)
(1.32161 0.231146 -1.21613e-20)
(1.44439 0.165378 -2.66823e-20)
(1.58343 0.342933 2.01779e-19)
(0.968443 -0.0474289 -8.203e-20)
(1.07918 -0.0454645 2.69593e-21)
(1.09092 -0.0609028 -6.06658e-21)
(1.14123 3.7498e-06 -1.39177e-20)
(1.16907 -0.0155292 -2.83529e-20)
(1.22198 0.0740778 -1.36473e-20)
(1.26244 0.046206 -3.67541e-20)
(1.34005 0.184794 -2.9495e-20)
(1.45142 0.130821 -5.2407e-20)
(1.59672 0.261022 6.56042e-20)
(0.958524 -0.0538979 -5.22827e-21)
(1.10575 -0.0574615 -1.74287e-20)
(1.068 -0.0592033 -6.62592e-21)
(1.146 -0.0158894 -4.77335e-21)
(1.10789 -0.0172882 -4.45284e-35)
(1.19438 0.0490296 6.25624e-21)
(1.18495 0.0356481 -7.95209e-34)
(1.31435 0.135046 -1.1616e-20)
(1.39994 0.0957206 1.66056e-20)
(1.588 0.181449 2.40701e-20)
(0.953773 -0.0944239 1.97535e-19)
(1.05933 -0.088896 -4.84378e-21)
(0.951635 -0.0735579 -7.08819e-21)
(0.994478 -0.0346073 1.24535e-20)
(0.886045 -0.0164365 1.60369e-20)
(0.99756 0.0254132 1.54998e-20)
(0.942586 0.0257294 1.54904e-20)
(1.13934 0.0793714 -8.28047e-21)
(1.18958 0.0588648 -1.77887e-20)
(1.43729 0.102548 1.30487e-19)
(0.825102 -0.0468018 7.91159e-21)
(0.726861 -0.0334898 -9.20959e-35)
(0.530382 -0.0184713 -8.17932e-21)
(0.475629 -0.00338073 0)
(0.396466 0.000136695 0)
(0.466006 0.0086431 6.22025e-21)
(0.448293 0.00526061 -4.41717e-36)
(0.593973 0.0171268 -1.11481e-20)
(0.64867 0.00948602 -2.43886e-20)
(0.832253 0.0182898 5.20152e-20)
(1.6446 0.834245 -1.83035e-19)
(1.74412 0.816745 -2.71362e-19)
(1.85802 0.785421 0)
(1.9649 0.743519 1.4895e-19)
(2.06284 0.688095 6.31136e-19)
(2.15172 0.625767 -1.10499e-19)
(2.22998 0.555001 1.60488e-18)
(2.30306 0.482371 -7.86651e-20)
(2.36204 0.405891 -3.46553e-19)
(2.41823 0.334344 3.01505e-19)
(1.66985 0.686337 9.27586e-20)
(1.74298 0.671867 1.07822e-19)
(1.83821 0.641777 -1.31396e-20)
(1.92181 0.603989 2.06689e-19)
(2.01254 0.554363 -1.68928e-19)
(2.08085 0.504451 -3.92152e-19)
(2.15896 0.446539 -1.1662e-19)
(2.2128 0.393769 5.33425e-19)
(2.28184 0.333411 -2.00506e-20)