/*--------------------------------*- C++ -*----------------------------------*\
  =========                 |
  \\      /  F ield         | OpenFOAM: The Open Source CFD Toolbox
   \\    /   O peration     | Website:  https://openfoam.org
    \\  /    A nd           | Version:  13
     \\/     M anipulation  |
\*---------------------------------------------------------------------------*/
FoamFile
{
    format      ascii;
    class       volScalarField;
    location    "0.3875";
    object      p;
}
// * * * * * * * * * * * * * * * * * * * * * * * * * * * * * * * * * * * * * //

dimensions      [0 2 -2 0 0 0 0];

internalField   nonuniform List<scalar> 
1800
(
-0.915645
-0.859959
-0.770678
-0.672063
-0.579404
-0.49671
-0.423862
-0.359671
-0.302633
-0.2551
-1.08261
-1.02079
-0.919984
-0.808584
-0.703939
-0.610443
-0.528012
-0.45557
-0.392488
-0.340412
-1.24065
-1.17252
-1.06012
-0.936191
-0.819965
-0.716038
-0.624255
-0.543461
-0.472797
-0.41279
-1.3846
-1.31015
-1.18646
-1.05072
-0.923843
-0.810476
-0.710345
-0.622126
-0.544802
-0.478537
-1.50893
-1.42827
-1.29376
-1.14712
-1.01059
-0.888701
-0.781013
-0.686042
-0.602642
-0.530484
-1.60832
-1.52175
-1.37724
-1.22098
-1.07614
-0.946985
-0.832894
-0.732225
-0.643679
-0.566527
-1.67776
-1.58577
-1.43236
-1.26804
-1.11643
-0.981398
-0.862159
-0.756919
-0.664237
-0.583037
-1.71295
-1.61628
-1.45536
-1.28485
-1.1282
-0.98888
-0.865898
-0.757335
-0.661613
-0.577388
-1.71047
-1.61003
-1.44338
-1.26874
-1.10892
-0.966967
-0.841714
-0.731149
-0.633557
-0.547381
-1.66817
-1.56499
-1.39486
-1.21804
-1.05703
-0.914135
-0.788083
-0.67691
-0.5786
-0.491519
0.307787
0.327475
0.345035
0.358804
0.368242
0.373826
0.376196
0.376008
0.373849
0.370329
0.271491
0.292299
0.312133
0.328725
0.341012
0.349278
0.354116
0.356176
0.356061
0.35451
0.209991
0.232534
0.255878
0.276806
0.293464
0.305832
0.314437
0.319926
0.322925
0.324393
0.124665
0.149526
0.177574
0.20427
0.226718
0.2445
0.25806
0.268043
0.275113
0.280532
0.0173646
0.0451004
0.0789899
0.112792
0.142322
0.166692
0.186254
0.201651
0.213602
0.223746
-0.109505
-0.0783657
-0.0375596
0.00456962
0.0423339
0.074313
0.100762
0.122331
0.139806
0.155263
-0.252943
-0.217892
-0.169167
-0.11761
-0.0706072
-0.0301469
0.00392895
0.0322743
0.0557544
0.0769162
-0.409363
-0.369903
-0.312329
-0.250356
-0.19323
-0.143528
-0.101188
-0.0655642
-0.0357055
-0.00861123
-0.574733
-0.530354
-0.463031
-0.3897
-0.321594
-0.26188
-0.210598
-0.167149
-0.130407
-0.0971468
-0.744865
-0.695043
-0.617071
-0.531405
-0.451324
-0.380509
-0.319073
-0.266398
-0.221062
-0.180943
0.33373
0.27636
0.226381
0.184654
0.149409
0.118843
0.0908124
0.0642083
0.038342
0.012776
0.330363
0.277294
0.228056
0.186205
0.150555
0.119594
0.0912727
0.0644676
0.0384616
0.0127983
0.320723
0.275894
0.228664
0.187352
0.151617
0.120378
0.0918062
0.0647992
0.0386309
0.012837
0.304283
0.272088
0.228223
0.188083
0.152581
0.121186
0.0924056
0.0651976
0.0388461
0.0128915
0.280357
0.26574
0.226745
0.18839
0.153435
0.122011
0.0930631
0.0656568
0.0391042
0.0129611
0.248248
0.256598
0.224213
0.188267
0.154164
0.122843
0.093771
0.066171
0.0394017
0.0130453
0.20748
0.244347
0.220574
0.187711
0.154753
0.123671
0.0945217
0.0667339
0.0397352
0.0131436
0.157688
0.228586
0.215793
0.186729
0.155194
0.124485
0.0953063
0.0673385
0.040101
0.0132559
0.0979193
0.207778
0.20924
0.185076
0.155384
0.125238
0.0961019
0.0679724
0.040493
0.0133816
0.032443
0.183334
0.20129
0.182791
0.155297
0.125901
0.096888
0.0686222
0.0409038
0.0135206
0.00172896
0.163844
0.192588
0.17851
0.153338
0.12508
0.096589
0.0685396
0.0409139
0.013578
-0.00115164
0.142731
0.176361
0.168373
0.147369
0.121575
0.0945136
0.0673224
0.0402725
0.0133802
0.0100255
0.131413
0.164857
0.159947
0.141872
0.118141
0.0924031
0.0660588
0.0395948
0.0131674
0.0238465
0.123604
0.155063
0.152222
0.136571
0.114719
0.0902541
0.0647547
0.0388864
0.0129412
0.0393743
0.119008
0.147105
0.145383
0.131616
0.111408
0.08813
0.0634478
0.0381685
0.0127092
0.0538196
0.116101
0.140464
0.139331
0.127056
0.108278
0.0860858
0.0621746
0.0374611
0.0124779
0.0653146
0.113835
0.134773
0.133991
0.12293
0.105389
0.0841722
0.0609693
0.0367833
0.0122533
0.0725832
0.111239
0.129637
0.12925
0.11925
0.102789
0.0824331
0.0598638
0.0361545
0.0120436
0.0754205
0.10758
0.124452
0.124726
0.115794
0.100347
0.0807899
0.0588081
0.0355365
0.0118255
0.073301
0.104795
0.121295
0.122171
0.113879
0.0990018
0.0798874
0.0582294
0.0351981
0.0117107
-0.344198
-0.39895
-0.432201
-0.44479
-0.438477
-0.41551
-0.378539
-0.330082
-0.273405
-0.212492
-0.184282
-0.238159
-0.274827
-0.295122
-0.300121
-0.291961
-0.271882
-0.24394
-0.20823
-0.172377
-0.0624442
-0.114671
-0.152716
-0.177218
-0.18881
-0.18957
-0.179861
-0.163994
-0.14032
-0.116665
0.0316518
-0.0191946
-0.0577901
-0.0847195
-0.100428
-0.106779
-0.10398
-0.0957891
-0.080694
-0.0654287
0.103464
0.053846
0.0150166
-0.0134664
-0.0319742
-0.042052
-0.0440617
-0.0409329
-0.0317929
-0.0220254
0.158133
0.10934
0.0702999
0.0407105
0.0202197
0.00758639
0.00225327
0.00200373
0.00707887
0.0131528
0.198824
0.150432
0.111069
0.0805479
0.0585225
0.0440176
0.0363274
0.0337505
0.0360296
0.0395536
0.227664
0.179192
0.139251
0.107751
0.0843716
0.0683484
0.0589129
0.0547611
0.0552677
0.0571932
0.245175
0.196245
0.155229
0.122362
0.0974371
0.0798757
0.068915
0.0636827
0.0634205
0.0658156
0.255574
0.203922
0.160263
0.124539
0.0965716
0.0760183
0.062148
0.0547367
0.0527869
0.0561874
1.12556
1.07984
1.02895
0.974287
0.913541
0.844511
0.765486
0.676991
0.589663
0.527914
0.925509
0.874177
0.81814
0.756025
0.685638
0.605267
0.513336
0.410673
0.309595
0.237551
0.714916
0.65915
0.597574
0.528253
0.449304
0.358984
0.25556
0.140009
0.026239
-0.0555013
0.5131
0.451321
0.382514
0.3049
0.216728
0.116088
0.00107895
-0.127273
-0.253394
-0.344312
0.321758
0.253427
0.177206
0.0913461
-0.00593719
-0.116705
-0.242992
-0.383776
-0.521535
-0.620773
0.141408
0.0671953
-0.0156644
-0.108947
-0.214488
-0.334473
-0.471029
-0.623362
-0.771356
-0.87748
-0.0251952
-0.104219
-0.192601
-0.292142
-0.404682
-0.532453
-0.677798
-0.840827
-0.998083
-1.10715
-0.17462
-0.257328
-0.350029
-0.454521
-0.572623
-0.706399
-0.858344
-1.02927
-1.19919
-1.30277
-0.303509
-0.388879
-0.484767
-0.592847
-0.715162
-0.853462
-1.00861
-1.19061
-1.35932
-1.46358
-0.409198
-0.49649
-0.594817
-0.70411
-0.829667
-0.971737
-1.13179
-1.30973
-1.48105
-1.58553
2.38747
2.40517
2.42636
2.44859
2.47035
2.49119
2.5105
2.52762
2.54256
2.5536
2.33314
2.34903
2.36795
2.38762
2.40655
2.42426
2.44012
2.45346
2.46472
2.47314
2.2577
2.2709
2.28646
2.30229
2.31702
2.33008
2.34076
2.34848
2.35425
2.35887
2.16179
2.17154
2.18271
2.19356
2.20279
2.20976
2.21369
2.21401
2.21257
2.21246
2.04635
2.052
2.05792
2.06275
2.06535
2.06497
2.06069
2.05203
2.04177
2.03598
1.9129
1.91395
1.9139
1.91182
1.90676
1.89785
1.88406
1.86501
1.84453
1.83171
1.76355
1.75973
1.7532
1.7435
1.72993
1.71149
1.68703
1.65634
1.6244
1.60334
1.6022
1.59312
1.57934
1.56107
1.53795
1.50889
1.47262
1.42909
1.38458
1.35426
1.43558
1.42107
1.39898
1.37074
1.33668
1.2956
1.24611
1.18843
1.13023
1.08982
1.2719
1.24621
1.21194
1.1718
1.12568
1.07176
1.00838
0.935938
0.863575
0.812617
2.38355
1.91851
2.32031
2.14039
2.13403
2.13509
2.14172
2.16536
2.21774
2.3178
2.37632
1.91115
2.31422
2.13285
2.12567
2.12513
2.12922
2.14906
2.19454
2.28104
2.36978
1.90337
2.309
2.12467
2.11664
2.11418
2.11501
2.1299
2.16538
2.23201
2.36388
1.89529
2.30465
2.11586
2.10699
2.10226
2.09911
2.10777
2.13007
2.17045
2.3586
1.88704
2.30116
2.10639
2.09677
2.08939
2.0815
2.08258
2.08847
2.09594
2.35389
1.87877
2.29846
2.09625
2.08602
2.07558
2.06219
2.05416
2.04053
2.00798
2.3497
1.87068
2.29646
2.08542
2.07483
2.06084
2.04115
2.02233
1.98631
1.90592
2.34599
1.86299
2.295
2.07389
2.06325
2.04517
2.01831
1.98693
1.92604
1.7902
2.34274
1.85593
2.29384
2.06171
2.05139
2.02862
1.99373
1.94791
1.85923
1.65968
2.33998
1.84982
2.29272
2.04896
2.03932
2.01129
1.96779
1.90681
1.78932
1.52482
2.33735
1.8437
2.28733
2.0383
2.02403
1.98917
1.93399
1.85385
1.7069
1.38876
2.33758
1.83793
2.27914
2.03047
2.00753
1.96538
1.89851
1.80133
1.63408
1.31612
2.33971
1.83364
2.27232
2.02295
1.99257
1.94344
1.86635
1.75577
1.57495
1.26357
2.34405
1.83106
2.26679
2.01612
1.97924
1.92373
1.83791
1.71693
1.527
1.22667
2.35103
1.83024
2.26253
2.01021
1.96773
1.9066
1.81359
1.68474
1.48946
1.20168
2.36123
1.83114
2.25952
2.0054
1.95815
1.89229
1.79359
1.65899
1.46124
1.18548
2.37509
1.83359
2.25766
2.00173
1.95061
1.88097
1.77798
1.63938
1.4411
1.17593
2.3951
1.83743
2.25684
1.99923
1.94518
1.87274
1.76679
1.62563
1.42797
1.17188
2.41581
1.84167
2.25644
1.99787
1.94198
1.86776
1.76012
1.61766
1.42109
1.17292
2.46545
1.84771
2.2587
1.99597
1.94074
1.86512
1.75667
1.61349
1.41785
1.17357
1.09743
0.923873
0.735435
0.556826
0.388695
0.229425
0.0811042
-0.0531871
-0.170562
-0.268348
1.02478
0.888154
0.738285
0.592904
0.453942
0.320322
0.194166
0.078397
-0.0245027
-0.112788
0.986653
0.874297
0.749976
0.625438
0.504968
0.388714
0.278303
0.176016
0.0839279
0.00379176
0.968116
0.869437
0.762356
0.653572
0.547236
0.444028
0.345225
0.252773
0.168619
0.09446
0.961171
0.871533
0.776299
0.678692
0.582239
0.488089
0.39743
0.311973
0.233496
0.163559
0.960953
0.877496
0.790221
0.700374
0.610879
0.523104
0.438198
0.357706
0.283259
0.216334
0.964479
0.885346
0.803425
0.71884
0.634108
0.550693
0.469707
0.392576
0.320827
0.255863
0.970347
0.894038
0.815601
0.734347
0.652598
0.571894
0.49332
0.418225
0.348066
0.284201
0.980042
0.905806
0.829083
0.7491
0.668421
0.588623
0.510757
0.43613
0.366149
0.302121
0.991595
0.920593
0.845007
0.765231
0.684638
0.604675
0.526326
0.450921
0.379855
0.314386
-2.8905
-2.74733
-2.52205
-2.30214
-2.1137
-1.9574
-1.82953
-1.72645
-1.64548
-1.58517
-2.95778
-2.82153
-2.60141
-2.38279
-2.19362
-2.03641
-1.90766
-1.80368
-1.72194
-1.66196
-2.9107
-2.78325
-2.5727
-2.35841
-2.17102
-2.01437
-1.88537
-1.7805
-1.6972
-1.63452
-2.76341
-2.64574
-2.44863
-2.24265
-2.0599
-1.90568
-1.77759
-1.67242
-1.58768
-1.5218
-2.53805
-2.43089
-2.2502
-2.05643
-1.88158
-1.73229
-1.60696
-1.50281
-1.41756
-1.34978
-2.26058
-2.16439
-2.00222
-1.82424
-1.66084
-1.51952
-1.39955
-1.29873
-1.21502
-1.14796
-1.95631
-1.87122
-1.72867
-1.56932
-1.42068
-1.29052
-1.17893
-1.08438
-1.00499
-0.941726
-1.64623
-1.57187
-1.44896
-1.30981
-1.17833
-1.06194
-0.961318
-0.875558
-0.803188
-0.746182
-1.34564
-1.28127
-1.17709
-1.05852
-0.945545
-0.844835
-0.757324
-0.682518
-0.61917
-0.571484
-1.06398
-1.00855
-0.921477
-0.822589
-0.72809
-0.643547
-0.569769
-0.506228
-0.450742
-0.407152
-0.806418
-0.75883
-0.686962
-0.606287
-0.529708
-0.461813
-0.403513
-0.354797
-0.314176
-0.278455
-0.574811
-0.533897
-0.475035
-0.41019
-0.349353
-0.296017
-0.25078
-0.213428
-0.183
-0.155158
-0.369438
-0.334081
-0.286065
-0.234502
-0.186892
-0.145711
-0.111212
-0.0829815
-0.0602242
-0.0392781
-0.190418
-0.159654
-0.120626
-0.080134
-0.0436161
-0.0126822
0.0126926
0.0330319
0.0490845
0.0636598
-0.0379719
-0.0109566
0.0207264
0.0521299
0.0794923
0.101914
0.119639
0.133251
0.143457
0.152334
0.0876271
0.111664
0.137522
0.16169
0.181729
0.197304
0.208823
0.216904
0.222214
0.226261
0.186122
0.207908
0.229383
0.248085
0.262572
0.272931
0.279689
0.283485
0.284952
0.285182
0.257335
0.277573
0.296057
0.311015
0.32169
0.328456
0.331917
0.332724
0.331486
0.329009
0.301228
0.320602
0.337455
0.350363
0.358946
0.363733
0.365372
0.364519
0.361767
0.357753
0.3179
0.337112
0.35367
0.366196
0.374381
0.378787
0.380073
0.378896
0.375843
0.371487
-0.0443518
0.115563
0.146947
0.146389
0.134205
0.114834
0.0918206
0.0667978
0.0405786
0.013652
0.0433781
0.151032
0.162264
0.153427
0.136325
0.114904
0.0911697
0.0660397
0.0400268
0.0134595
0.116604
0.1792
0.174157
0.158148
0.137994
0.115012
0.0906471
0.0654034
0.0395562
0.0132931
0.17481
0.201942
0.184648
0.16293
0.139636
0.115218
0.0902611
0.0648873
0.0391639
0.013152
0.22154
0.220906
0.193917
0.167211
0.141201
0.11551
0.0900042
0.0644862
0.0388466
0.0130348
0.258515
0.236587
0.201988
0.171078
0.142709
0.115888
0.0898705
0.0641949
0.0386011
0.0129405
0.287014
0.249422
0.208982
0.174561
0.144163
0.116346
0.0898534
0.0640086
0.0384244
0.0128679
0.308131
0.2597
0.214925
0.17766
0.145562
0.116879
0.0899461
0.0639221
0.0383132
0.012816
0.322665
0.267574
0.219812
0.180376
0.146905
0.117477
0.0901417
0.0639301
0.0382646
0.012784
0.33114
0.273118
0.223633
0.182709
0.14819
0.118135
0.0904329
0.0640274
0.0382752
0.012771
-0.233527
0.00270073
0.0893415
0.118765
0.121294
0.109639
0.0901588
0.066604
0.0408332
0.0138361
-0.202513
0.0161415
0.0953946
0.121426
0.122673
0.110078
0.0902662
0.0665883
0.0407863
0.013812
-0.172302
0.0352837
0.105187
0.126095
0.12477
0.11094
0.0905489
0.0666296
0.040747
0.0137826
-0.138828
0.0580207
0.11746
0.132171
0.127364
0.112226
0.0910665
0.0667978
0.0407752
0.0137765
-0.100103
0.0860255
0.133018
0.139987
0.131571
0.11392
0.0917938
0.0670763
0.0408596
0.0137887
-1.5181
-1.59588
-1.58604
-1.50094
-1.35955
-1.19113
-1.01171
-0.845561
-0.686651
-0.54506
-1.52002
-1.59845
-1.58455
-1.49273
-1.34361
-1.16637
-0.976088
-0.796708
-0.626935
-0.485212
-1.52501
-1.60275
-1.58362
-1.48378
-1.32554
-1.13783
-0.940815
-0.758726
-0.595237
-0.464336
-1.53586
-1.61291
-1.58834
-1.4802
-1.31374
-1.1186
-0.918847
-0.733734
-0.57108
-0.43924
-1.55336
-1.63051
-1.60133
-1.48604
-1.31252
-1.11112
-0.907081
-0.716221
-0.547897
-0.40084
1.74903
1.7288
1.70152
1.66986
1.63377
1.59147
1.54131
1.48332
1.42519
1.38506
1.89678
1.88971
1.87647
1.85862
1.83653
1.8091
1.77504
1.73424
1.69284
1.6652
2.03357
2.03231
2.02809
2.02104
2.01073
1.99621
1.97631
1.95073
1.9241
1.9071
2.15371
2.15785
2.16108
2.16276
2.16204
2.15806
2.14984
2.13693
2.12268
2.11432
2.25336
2.26206
2.27135
2.28008
2.28715
2.2918
2.29318
2.29073
2.28671
2.28511
2.3311
2.34364
2.35795
2.37242
2.38577
2.39736
2.40645
2.41242
2.4166
2.42023
2.38663
2.40213
2.42028
2.43911
2.45721
2.47405
2.48893
2.50123
2.51154
2.51935
2.41994
2.43746
2.45823
2.48002
2.50134
2.52171
2.54052
2.55708
2.57152
2.58223
2.4311
2.44965
2.47179
2.49513
2.51812
2.54033
2.56117
2.57993
2.59652
2.60875
2.42021
2.43882
2.46109
2.48456
2.5077
2.53005
2.55104
2.56998
2.58672
2.59905
-1.39839
-1.46184
-1.54357
-1.64629
-1.77312
-1.92732
-2.1112
-2.33176
-2.55863
-2.70614
-1.11058
-1.17791
-1.262
-1.36532
-1.49088
-1.64188
-1.82279
-2.03567
-2.26426
-2.41471
-0.742233
-0.814819
-0.902957
-1.00827
-1.13353
-1.28219
-1.45827
-1.66278
-1.87096
-2.03424
-0.327201
-0.40662
-0.499177
-0.606107
-0.730034
-0.874205
-1.04227
-1.23442
-1.42983
-1.58441
0.0896817
0.00618645
-0.0875568
-0.192703
-0.311838
-0.448039
-0.604724
-0.781952
-0.96141
-1.10146
0.473473
0.392535
0.303519
0.205381
0.095636
-0.0285472
-0.170237
-0.32943
-0.489709
-0.612629
0.810967
0.738717
0.659829
0.573321
0.476846
0.367924
0.243935
0.105038
-0.0340983
-0.138929
1.10704
1.04608
0.979826
0.907151
0.82565
0.733232
0.627806
0.509696
0.39191
0.304948
1.37551
1.32403
1.26829
1.20792
1.14016
1.06312
0.975205
0.8768
0.779233
0.70898
1.60833
1.56512
1.51678
1.46653
1.41171
1.34993
1.27955
1.2007
1.12281
1.06814
2.50231
1.96987
2.4122
2.16454
2.17819
2.18021
2.17874
2.17649
2.1325
1.97104
2.48569
1.96566
2.40291
2.1677
2.17646
2.17976
2.18071
2.1869
2.16499
2.06749
2.47038
1.96146
2.39295
2.16946
2.17438
2.17863
2.18274
2.19628
2.19448
2.15612
2.45628
1.95718
2.38266
2.16983
2.17182
2.17663
2.18301
2.20243
2.21775
2.22595
2.44324
1.95275
2.37235
2.16884
2.16865
2.17368
2.18179
2.20555
2.23522
2.27963
2.43118
1.94807
2.36226
2.16658
2.16479
2.16977
2.1791
2.20572
2.24696
2.31829
2.42002
1.94306
2.35258
2.16317
2.16017
2.16487
2.17487
2.20309
2.25279
2.3432
2.40971
1.93765
2.34345
2.15874
2.15478
2.15895
2.16906
2.19774
2.25271
2.35524
2.40021
1.93177
2.33497
2.1534
2.14862
2.15201
2.16162
2.18967
2.24678
2.3549
2.3915
1.92539
2.32724
2.14725
2.14169
2.14406
2.15251
2.17889
2.23512
2.3424
2.64915
1.99364
2.42904
2.16939
2.18106
2.17678
2.1626
2.13338
2.03518
1.80002
2.59728
1.98907
2.42548
2.17004
2.18063
2.1774
2.16376
2.13615
2.04076
1.8039
2.56997
1.98527
2.42466
2.16903
2.18046
2.17805
2.16602
2.14167
2.05245
1.81405
2.54396
1.9803
2.42198
2.16699
2.18005
2.17875
2.1693
2.15003
2.0703
1.83826
2.52108
1.97476
2.41855
2.16406
2.17939
2.17938
2.17328
2.16101
2.09452
1.87479
1.46408
1.31435
1.09533
0.802951
0.4464
0.0385455
-0.383208
-0.772176
-1.09889
-1.3507
1.45221
1.29822
1.08355
0.802753
0.462071
0.0679807
-0.349475
-0.744761
-1.08346
-1.34613
1.46565
1.30239
1.08331
0.808444
0.478209
0.0936144
-0.322379
-0.725774
-1.07553
-1.34685
1.50937
1.32678
1.09585
0.820923
0.494118
0.112961
-0.304093
-0.715235
-1.0747
-1.35361
1.58325
1.37126
1.119
0.835529
0.506467
0.125716
-0.292477
-0.709566
-1.0782
-1.36578
)
;

boundaryField
{
    left
    {
        type            zeroGradient;
    }
    right
    {
        type            fixedValue;
        value           uniform 0;
    }
    down
    {
        type            zeroGradient;
    }
    up
    {
        type            zeroGradient;
    }
    cylinder
    {
        type            zeroGradient;
    }
    defaultFaces
    {
        type            empty;
    }
}


// ************************************************************************* //
