/*--------------------------------*- C++ -*----------------------------------*\
  =========                 |
  \\      /  F ield         | OpenFOAM: The Open Source CFD Toolbox
   \\    /   O peration     | Website:  https://openfoam.org
    \\  /    A nd           | Version:  13
     \\/     M anipulation  |
\*---------------------------------------------------------------------------*/
FoamFile
{
    format      ascii;
    class       surfaceScalarField;
    location    "0.3875";
    object      phi;
}
// * * * * * * * * * * * * * * * * * * * * * * * * * * * * * * * * * * * * * //

dimensions      [0 3 -1 0 0 0 0];

internalField   nonuniform List<scalar> 
3485
(
0.00410518
-0.0461529
0.0420477
0.0126392
-0.110195
0.101661
0.0225304
-0.135153
0.125261
0.0325363
-0.141546
0.131541
0.0422925
-0.141483
0.131726
0.0517182
-0.139219
0.129794
0.0608081
-0.136162
0.127072
0.0695633
-0.132875
0.124119
0.0779199
-0.129534
0.121178
-0.12581
0.11788
0.0858497
0.00411753
-0.0502704
0.0123488
-0.118426
0.0217236
-0.144527
0.0311194
-0.150942
0.0402482
-0.150611
0.0490867
-0.148058
0.0576819
-0.144757
0.0660938
-0.141286
0.074415
-0.137856
-0.13439
0.0829959
0.00409918
-0.0543696
0.0119437
-0.126271
0.0206845
-0.153268
0.0293293
-0.159587
0.0376569
-0.158939
0.0456761
-0.156077
0.0534442
-0.152525
0.0610187
-0.148861
0.0684537
-0.145291
-0.141723
0.0757858
0.00404964
-0.0584192
0.0114263
-0.133647
0.0194383
-0.16128
0.0272472
-0.167396
0.0347115
-0.166403
0.0418811
-0.163247
0.0488336
-0.159478
0.0556332
-0.15566
0.0623286
-0.151986
-0.148433
0.0690386
0.00394445
-0.0623637
0.01074
-0.140443
0.0178953
-0.168436
0.0247419
-0.174243
0.0312163
-0.172878
0.0374034
-0.169434
0.0433925
-0.165467
0.0492488
-0.161517
0.0550241
-0.157761
-0.154205
0.0607969
0.00377934
-0.066143
0.00988473
-0.146548
0.0160776
-0.174628
0.0218741
-0.180039
0.0272887
-0.178292
0.0324404
-0.174585
0.0374271
-0.170454
0.0423141
-0.166404
0.0471473
-0.162594
-0.15905
0.0519914
0.0035351
-0.0696781
0.00882581
-0.151839
0.0139442
-0.179747
0.0185917
-0.184687
0.0228571
-0.182558
0.0268875
-0.178616
0.0307837
-0.17435
0.0346078
-0.170228
0.0384003
-0.166387
-0.162854
0.042205
0.00321069
-0.0728888
0.00757615
-0.156205
0.0115355
-0.183706
0.0149622
-0.188113
0.0180222
-0.185618
0.0208823
-0.181476
0.0236412
-0.177109
0.0263528
-0.17294
0.0290499
-0.169084
-0.165563
0.0317581
0.00280057
-0.0756894
0.00614381
-0.159548
0.00886935
-0.186432
0.0110074
-0.190251
0.0128177
-0.187428
0.0144662
-0.183124
0.016045
-0.178688
0.0175985
-0.174493
0.0191505
-0.170636
-0.167122
0.0207103
0.00231095
-0.0780003
0.00455683
-0.161794
0.00597953
-0.187854
0.00680334
-0.191075
0.00735004
-0.187975
0.00777168
-0.183546
0.008145
-0.179061
0.00851195
-0.17486
0.00889112
-0.171015
0.00927918
-0.16751
0.00361885
-0.00727095
0.0036521
0.0131321
-0.0181236
0.00861034
0.0251575
-0.0226602
0.0106348
0.0379469
-0.0240428
0.0112534
0.0508547
-0.0242626
0.0113549
0.0636335
-0.0240329
0.011254
0.0761709
-0.0235983
0.011061
0.088415
-0.0230714
0.0108273
0.100348
-0.0225147
0.0105819
-0.0221104
0.112108
0.01035
0.00364035
-0.0109113
0.0131346
-0.0276179
0.0251082
-0.0346338
0.0378286
-0.0367632
0.0506582
-0.0370922
0.0633547
-0.0367294
0.0758093
-0.0360529
0.0879735
-0.0352356
0.0998332
-0.0343744
-0.0338025
0.111525
0.00367398
-0.0145853
0.0131466
-0.0370905
0.0250524
-0.0465395
0.0376797
-0.0493905
0.0504022
-0.0498147
0.0629843
-0.0493115
0.0753225
-0.0483911
0.0873725
-0.0472856
0.0991258
-0.0461277
-0.0453921
0.110715
0.00372114
-0.0183064
0.013168
-0.0465374
0.0249856
-0.0583571
0.0374901
-0.061895
0.0500703
-0.0623949
0.0624994
-0.0617406
0.0746814
-0.060573
0.0865779
-0.0591821
0.0981874
-0.0577372
-0.0568401
0.109635
0.00378219
-0.0220886
0.0131962
-0.0559514
0.0248998
-0.0700608
0.0372449
-0.07424
0.0496396
-0.0747897
0.0618699
-0.0739709
0.0738492
-0.0725523
0.085547
-0.0708799
0.0969703
-0.0691605
-0.0680994
0.10823
0.00385526
-0.0259439
0.0132235
-0.0653197
0.0247797
-0.081617
0.0369192
-0.0863795
0.0490756
-0.0869461
0.0610509
-0.0859462
0.0727714
-0.0842729
0.0842164
-0.082325
0.0954016
-0.0803457
-0.0791063
0.106409
0.00393496
-0.0298788
0.0132355
-0.0746202
0.0245999
-0.0929813
0.0364763
-0.098256
0.0483293
-0.098799
0.0599811
-0.097598
0.071374
-0.0956657
0.082498
-0.093449
0.0933754
-0.0912231
-0.089764
0.104033
0.00401003
-0.0338889
0.0132058
-0.083816
0.02432
-0.104096
0.0358639
-0.1098
0.0473386
-0.110274
0.0585901
-0.10885
0.0695784
-0.106654
0.0803057
-0.104176
0.0907937
-0.101711
-0.0999298
0.10096
0.00406557
-0.0379544
0.0131011
-0.0928515
0.0238908
-0.114885
0.03502
-0.120929
0.0460332
-0.121287
0.0568051
-0.119621
0.0673158
-0.117165
0.0775808
-0.114441
0.0876092
-0.11174
-0.109404
0.0970838
0.00409326
0.0129027
0.0232789
0.0338904
0.0443299
0.0545021
0.0644095
0.0740876
0.0835258
0.0920012
0.158164
-0.12965
0.0835944
0.182329
-0.0941798
0.0700147
0.194211
-0.0699026
0.0580201
0.199972
-0.0527674
0.0470065
0.202461
-0.0396559
0.0371674
0.203093
-0.0292462
0.0286139
0.202632
-0.020813
0.0212738
0.201493
-0.0138057
0.0149449
0.199913
-0.00798234
0.00956191
-0.00164852
0.00361033
0.157049
-0.175174
0.181304
-0.118434
0.193464
-0.0820632
0.19947
-0.0587734
0.202159
-0.0423442
0.202956
-0.0300434
0.202637
-0.0204942
0.201628
-0.0127965
0.200173
-0.0065277
0.000187177
0.155155
-0.219614
0.179383
-0.142662
0.191878
-0.0945581
0.198227
-0.0651222
0.201229
-0.0453459
0.202313
-0.0311282
0.202264
-0.0204446
0.201515
-0.0120473
0.200318
-0.00533071
0.00176192
0.152465
-0.262444
0.176567
-0.166764
0.189451
-0.107442
0.196244
-0.0719147
0.199673
-0.0487756
0.201167
-0.032622
0.201513
-0.0207908
0.201155
-0.0116885
0.200345
-0.00452156
0.00294353
0.148964
-0.303178
0.172864
-0.190665
0.186186
-0.120764
0.193527
-0.0792552
0.1975
-0.0527492
0.199524
-0.0346454
0.20039
-0.0216567
0.200547
-0.0118456
0.200255
-0.00422959
0.00359873
0.144625
-0.341395
0.168283
-0.214323
0.182091
-0.134572
0.190086
-0.0872501
0.19472
-0.0573823
0.197392
-0.0373175
0.198898
-0.0231627
0.199694
-0.0126416
0.200046
-0.00458182
0.00359795
0.139408
-0.37677
0.162787
-0.237702
0.17717
-0.148955
0.185934
-0.0960138
0.191344
-0.0627925
0.194782
-0.0407556
0.197047
-0.025427
0.198601
-0.0141965
0.19972
-0.00570041
0.00281541
0.133246
-0.409057
0.156318
-0.260774
0.171418
-0.164055
0.181077
-0.105673
0.187387
-0.0691021
0.191707
-0.0450753
0.194845
-0.0285653
0.197275
-0.0166264
0.199277
-0.00770231
0.00112897
0.125761
-0.437734
0.148669
-0.283681
0.164725
-0.180111
0.175474
-0.116422
0.182839
-0.0764669
0.188171
-0.0504077
0.192301
-0.0326951
0.195719
-0.0200451
0.198719
-0.0107019
-0.0015779
0.11645
-0.462183
0.139086
-0.306317
0.156514
-0.197539
0.168799
-0.128707
0.177545
-0.0852129
0.184114
-0.056977
0.189398
-0.0379788
0.193933
-0.0245803
0.198048
-0.0148165
-0.0054205
0.362479
-0.410827
-0.413835
0.334627
-0.278465
0.322068
-0.18498
0.316334
-0.122973
0.313374
-0.0822534
0.311591
-0.0551935
0.310396
-0.0367839
0.309585
-0.0237691
0.309069
-0.0143004
-0.00521987
0.375523
-0.352027
-0.434323
0.345112
-0.248054
0.330081
-0.16995
0.322016
-0.114908
0.317276
-0.0775134
0.314277
-0.0521942
0.312297
-0.0348044
0.311
-0.0224717
0.310203
-0.0135037
-0.00492149
0.388974
-0.295707
-0.445294
0.356477
-0.215557
0.338197
-0.15167
0.32757
-0.104281
0.321048
-0.0709909
0.316866
-0.0480121
0.314123
-0.0320618
0.312352
-0.0207011
0.311281
-0.0124327
-0.00452631
0.398295
-0.242761
-0.451242
0.365259
-0.182521
0.34498
-0.131392
0.332432
-0.0917327
0.324439
-0.0629978
0.319227
-0.0428001
0.315802
-0.0286363
0.313598
-0.0184978
0.312273
-0.0111073
-0.00404133
0.404975
-0.193725
-0.45401
0.372156
-0.149702
0.350606
-0.109842
0.336596
-0.077723
0.327404
-0.0538059
0.321319
-0.0367145
0.317299
-0.0246165
0.314712
-0.0159108
0.313158
-0.00955323
-0.00347463
0.409664
-0.14847
-0.454919
0.377422
-0.11746
0.355118
-0.0875383
0.340037
-0.0626418
0.3299
-0.0436688
0.3231
-0.0299151
0.318581
-0.020097
0.315669
-0.0129988
0.31392
-0.00780448
-0.00283691
0.412846
-0.106462
-0.454853
0.381295
-0.0859085
0.35858
-0.0648233
0.342748
-0.0468097
0.331898
-0.0328188
0.32454
-0.0225575
0.319622
-0.0151791
0.316448
-0.00982465
0.31454
-0.00589618
-0.00214028
0.414744
-0.06681
-0.454396
0.383824
-0.0549881
0.360931
-0.0419304
0.344625
-0.0305037
0.333288
-0.0214822
0.325534
-0.0148032
0.320329
-0.0099743
0.316963
-0.0064583
0.314936
-0.00386932
-0.00139966
0.413117
-0.0279877
-0.451939
0.382799
-0.0246701
0.360102
-0.0192335
0.343736
-0.0141377
0.332255
-0.0100019
0.324361
-0.00690936
0.319048
-0.00466083
0.315609
-0.00301935
0.313539
-0.00179974
-0.000644378
0.361225
-0.389212
0.336555
0.317321
0.303183
0.293182
0.286272
0.281611
0.278592
0.276792
0.444344
0.00873065
-0.443796
0.444192
0.0208629
0.443289
0.0326602
0.441623
0.0438711
0.438991
0.0546241
0.435676
0.0641116
0.430816
0.0738985
0.42616
0.0804415
0.416889
0.0922668
0.0889045
0.42673
0.00802645
-0.426026
0.427682
0.0199116
0.428796
0.0315455
0.430086
0.042581
0.431312
0.0533981
0.432705
0.0627184
0.433696
0.0729079
0.434929
0.0792084
0.435601
0.0915944
0.0901833
0.412109
0.00711821
-0.411201
0.413735
0.0182859
0.416026
0.0292544
0.418963
0.0396437
0.422451
0.0499108
0.426436
0.0587329
0.430923
0.0684207
0.435441
0.0746907
0.441284
0.0857516
0.0861735
0.400669
0.00611194
-0.399663
0.402731
0.0162233
0.405821
0.0261645
0.40988
0.0355855
0.414918
0.0448727
0.420722
0.0529283
0.427566
0.061577
0.434685
0.067572
0.443572
0.0768646
0.0785032
0.391712
0.00503724
-0.390637
0.394078
0.0138566
0.39772
0.0225231
0.402559
0.0307463
0.408639
0.0387926
0.415714
0.0458531
0.424081
0.0532103
0.433041
0.0586119
0.443788
0.0661174
0.0682812
0.384845
0.00390902
-0.383717
0.387429
0.0112727
0.391452
0.0184998
0.396834
0.0253647
0.403607
0.0320195
0.411552
0.0379082
0.420894
0.0438686
0.43109
0.0484155
0.442986
0.054221
0.0563483
0.379755
0.00273221
-0.378578
0.382503
0.00852441
0.386801
0.0142019
0.39257
0.019596
0.399811
0.0247777
0.408342
0.0293775
0.418298
0.0339125
0.429286
0.0374275
0.441859
0.0416483
0.0433539
0.37586
0.00148767
-0.374616
0.378776
0.00560862
0.383327
0.00965122
0.389427
0.0134958
0.397042
0.017163
0.406012
0.0204074
0.416381
0.0235433
0.427866
0.0259432
0.440799
0.0287147
0.0297568
0.368357
0.000211661
-0.367081
0.371503
0.00246248
0.376437
0.00471758
0.383068
0.00686414
0.391322
0.00890967
0.401001
0.0107279
0.412083
0.0124618
0.424253
0.0137727
0.437694
0.0152736
0.0155122
0.29851
-0.298299
0.300973
0.30569
0.312554
0.321464
0.332192
0.344654
0.358427
0.3737
0.0805225
0.123549
-0.112719
-0.0913522
0.0705022
0.1258
-0.11578
0.0609072
0.128671
-0.119076
0.0514048
0.132105
-0.122603
0.0418261
0.135908
-0.126329
0.0321013
0.139915
-0.13019
0.0222499
0.143586
-0.133734
0.0125496
0.144064
-0.134364
0.00413706
0.12936
-0.120948
0.069057
-0.06492
0.0766385
0.132589
-0.0856783
0.0673685
0.13507
0.0580837
0.137955
0.0488216
0.141368
0.0395405
0.145189
0.030192
0.149263
0.0207927
0.152985
0.0116168
0.15324
0.00376033
0.137217
0.0728173
0.0690116
0.140277
-0.0767002
0.0609398
0.143142
0.0526511
0.146244
0.0442553
0.149763
0.035778
0.153666
0.0272086
0.157833
0.0185897
0.161604
0.0102212
0.161609
0.00318237
0.144256
0.0759997
0.0603238
0.146961
-0.0670071
0.0533367
0.150129
0.0461102
0.15347
0.0387223
0.157151
0.0312044
0.161184
0.0235716
0.165465
0.0158992
0.169276
0.00851866
0.168989
0.00248313
0.150291
0.0784828
0.0512381
0.152795
-0.0570719
0.0452235
0.156143
0.0390249
0.159669
0.0326686
0.163508
0.0261706
0.167682
0.019558
0.172078
0.0129346
0.1759
0.00666204
0.175262
0.00174325
0.15521
0.0802261
0.0418152
0.157751
-0.0467718
0.0367654
0.161193
0.0315874
0.164847
0.0262768
0.168818
0.0208397
0.173119
0.0153157
0.177602
0.00981994
0.181396
0.00471967
0.180362
0.00098407
0.158946
0.0812102
0.0321038
0.161768
-0.0361203
0.0280443
0.165253
0.0238992
0.168992
0.0196531
0.173064
0.0153097
0.177462
0.010917
0.181995
0.00662741
0.185685
0.00279202
0.184197
0.000166562
0.161571
0.0813767
0.0221198
0.164771
-0.025123
0.019098
0.168274
0.0160193
0.172071
0.0128709
0.176213
0.00965593
0.180677
0.00643655
0.185214
0.00338699
0.188735
0.000792011
0.186792
-0.000496456
0.16286
0.0808803
0.0118926
0.166696
-0.0138177
0.00995839
0.170209
0.00798584
0.174043
0.00597499
0.178224
0.00394234
0.18271
0.00191395
0.187242
3.79792e-05
0.190611
-0.00111676
0.187947
-0.00113219
0.162875
0.0797481
0.00157125
-0.00238567
0.000764808
-5.18276e-05
-0.00088913
-0.00172514
-0.00245742
-0.00292191
-0.00282908
-0.00174776
0.107038
0.0217458
-0.118237
-0.0105475
0.0955026
0.0223164
-0.0107805
0.0836338
0.0228986
-0.0110298
0.0714183
0.0235145
-0.011299
0.0588342
0.0241754
-0.0115913
0.0458596
0.0248816
-0.011907
0.0325072
0.0255728
-0.0122204
0.0190228
0.0258276
-0.0123432
0.0067472
0.0236377
-0.0113621
0.0132968
-0.00654962
0.106214
0.0329045
-0.117373
0.0947305
0.0337997
0.082926
0.0347031
0.070786
0.0356544
0.0582884
0.036673
0.0454111
0.0377589
0.0321674
0.0388165
0.0188041
0.0391908
0.00665541
0.0357864
0.0199522
0.105053
0.0440002
-0.116149
0.0936498
0.0452028
0.0819398
0.0464131
0.0699085
0.0476857
0.0575333
0.0490483
0.0447919
0.0505002
0.0316985
0.0519099
0.0185022
0.0523871
0.00652919
0.0477594
0.0264814
0.103469
0.0550023
-0.114471
0.0921823
0.0564896
0.0806068
0.0579887
0.0687271
0.0595653
0.0565203
0.0612551
0.043964
0.0630565
0.0310732
0.0648007
0.0181003
0.0653601
0.006365
0.0594947
0.0328464
0.101348
0.0658675
-0.112213
0.0902287
0.0676089
0.0788444
0.069373
0.0671769
0.0712328
0.0552006
0.0732313
0.0428922
0.075365
0.0302686
0.0774244
0.0175877
0.0780409
0.006159
0.0709234
0.0390054
0.0985178
0.0765288
-0.109179
0.0876395
0.0784872
0.0765208
0.0804917
0.0651412
0.0826124
0.0534742
0.0848983
0.0414956
0.0873436
0.0292236
0.0896964
0.0169207
0.0903437
0.0058822
0.0819619
0.0448876
0.0949655
0.0868578
-0.105294
0.0844701
0.0889826
0.0737511
0.0912107
0.0627706
0.093593
0.0514977
0.0961712
0.0399133
0.098928
0.0280463
0.101563
0.0161735
0.102217
0.00557727
0.0925582
0.0504649
0.0900021
0.0967135
-0.0998578
0.0800244
0.0989603
0.0698554
0.10138
0.0594483
0.104
0.0487605
0.106859
0.0377615
0.109927
0.0264786
0.112846
0.0151964
0.113499
0.00517914
0.102575
0.055644
0.0854525
0.10556
-0.0942994
0.0763019
0.108111
0.066725
0.110957
0.0567924
0.113933
0.0465391
0.117112
0.0359751
0.120491
0.025151
0.123671
0.0143641
0.124286
0.00485097
0.112089
0.060495
0.0768001
-0.083959
0.0691314
0.0610124
0.052342
0.0431255
0.0334265
0.0233627
0.0132842
0.00442495
0.201057
0.0147431
-0.0178104
0.203238
0.0228156
-0.0249968
0.203173
0.0279006
-0.0278354
0.203972
0.0299645
-0.0307636
0.203294
0.0362031
-0.0355251
0.200912
0.0444978
-0.042116
0.19534
0.0559875
-0.050415
0.184582
0.071345
-0.0605876
0.16087
0.0954398
-0.071727
0.127528
-0.0848955
0.200881
0.0118514
0.202932
0.0207646
0.202814
0.0280185
0.203528
0.0292514
0.202738
0.0369928
0.200201
0.0470346
0.19444
0.0617489
0.183393
0.0823915
0.159626
0.119207
0.169782
0.200577
0.00926447
0.20234
0.0190012
0.202081
0.0282781
0.202575
0.0287567
0.201547
0.0380212
0.198737
0.0498445
0.192693
0.0677931
0.181268
0.093816
0.157557
0.142918
0.21119
0.200133
0.00712083
0.201461
0.0176735
0.200981
0.0287582
0.201124
0.0286142
0.199732
0.039413
0.196531
0.0530449
0.190104
0.0742202
0.178211
0.105709
0.154683
0.166447
0.251402
0.199548
0.00556299
0.200305
0.0169158
0.19953
0.0295331
0.199184
0.028961
0.197307
0.0412895
0.193599
0.0567527
0.186681
0.0811383
0.174233
0.118157
0.151035
0.189645
0.290224
0.198808
0.0047444
0.198879
0.016845
0.197746
0.030666
0.196769
0.0299388
0.194291
0.0437675
0.189959
0.0610842
0.182435
0.0886626
0.169334
0.131257
0.146639
0.21234
0.327684
0.197904
0.00483068
0.197192
0.0175566
0.195649
0.0322094
0.193892
0.0316954
0.190703
0.0469566
0.185632
0.0661553
0.177387
0.0969074
0.163519
0.145125
0.141548
0.23431
0.363938
0.196823
0.00599733
0.195261
0.0191192
0.19326
0.03421
0.190571
0.0343845
0.186569
0.0509582
0.180639
0.0720857
0.171529
0.106018
0.156757
0.159896
0.135472
0.255596
0.399552
0.195559
0.0084277
0.193109
0.0215693
0.1906
0.0367198
0.186814
0.0381696
0.181917
0.055856
0.175037
0.0789659
0.165042
0.116012
0.149815
0.175123
0.129549
0.275863
0.434801
0.194201
0.0122169
0.190768
0.0250022
0.187704
0.0397838
0.182566
0.0433077
0.176581
0.0618403
0.168296
0.0872512
0.156507
0.127801
0.139305
0.192325
0.11809
0.297078
0.468933
0.302715
0.0115123
0.304703
0.0230142
0.307986
0.0365001
0.309462
0.0418324
0.31171
0.0595921
0.314558
0.0844035
0.3194
0.122959
0.329478
0.182247
0.355239
0.271317
0.412322
0.411849
0.303505
0.0100177
0.305798
0.0207215
0.309423
0.032875
0.311858
0.0393973
0.31541
0.0560397
0.32032
0.079493
0.328287
0.114993
0.342736
0.167798
0.372079
0.241973
0.356075
0.428326
0.304209
0.00781884
0.306967
0.0179635
0.310863
0.0289795
0.31419
0.03607
0.318893
0.0513367
0.325556
0.0728301
0.336005
0.104543
0.353382
0.150421
0.384844
0.210511
0.300791
0.440128
0.304884
0.00494489
0.308103
0.0147445
0.31226
0.0248225
0.316355
0.0319751
0.322067
0.0456246
0.330198
0.0646995
0.342585
0.0921557
0.362041
0.130966
0.394221
0.178331
0.248222
0.44679
0.305562
0.00139299
0.309208
0.0110983
0.313581
0.02045
0.318306
0.0272503
0.324868
0.0390621
0.334197
0.0553706
0.348045
0.0783073
0.36892
0.110092
0.40085
0.1464
0.198977
0.450096
0.306284
-0.00288056
0.310299
0.00708257
0.314791
0.0159583
0.320002
0.0220396
0.327254
0.0318094
0.337524
0.0451015
0.352439
0.0633915
0.374225
0.0883055
0.405453
0.115173
0.153103
0.451327
0.307075
-0.00794575
0.311387
0.002771
0.315868
0.0114778
0.32141
0.0164967
0.329189
0.0240312
0.340164
0.034126
0.355833
0.0477221
0.378161
0.0659782
0.408569
0.0847641
0.110256
0.451416
0.308027
-0.0139629
0.312474
-0.0016752
0.316742
0.00720893
0.322454
0.0107853
0.330601
0.0158841
0.342077
0.0226504
0.358256
0.0315424
0.380864
0.0433709
0.410556
0.0550713
0.0698997
0.450913
0.307926
-0.0198783
0.311923
-0.00567222
0.315827
0.00330436
0.321617
0.00499576
0.329989
0.00751134
0.341788
0.0108518
0.358295
0.0150359
0.381009
0.0206568
0.410269
0.0258112
0.0322308
0.447938
0.282132
0.27646
0.279764
0.28476
0.292271
0.303123
0.318159
0.338816
0.364627
0.396858
0.419565
-0.099068
0.422161
-0.0882749
0.425087
-0.0796257
0.428571
-0.0704917
0.432138
-0.0606388
0.43548
-0.0501138
0.438414
-0.0390539
0.440834
-0.0275429
0.442667
-0.0156506
-0.00351452
0.427794
-0.0985354
0.427203
-0.0876841
0.426779
-0.0792017
0.426414
-0.0701271
0.425994
-0.0602186
0.425617
-0.0497369
0.425383
-0.0388191
0.42535
-0.0275106
0.425558
-0.0158583
-0.00398258
0.434285
-0.0926924
0.42942
-0.0828185
0.424849
-0.0746307
0.420827
-0.0661056
0.417462
-0.0568534
0.41479
-0.0470648
0.412822
-0.0368511
0.411566
-0.0262542
0.41103
-0.0153225
-0.00415351
0.437351
-0.0832533
0.42937
-0.0748375
0.422187
-0.0674475
0.415895
-0.0598138
0.410591
-0.0515496
0.406309
-0.0427828
0.403063
-0.0336053
0.400866
-0.0240566
0.399727
-0.0141841
-0.00408893
0.438402
-0.0715594
0.428294
-0.0647297
0.419295
-0.0584483
0.411423
-0.051942
0.40477
-0.0448968
0.399376
-0.0373887
0.395254
-0.0294832
0.392415
-0.0212174
0.390873
-0.0126423
-0.00385272
0.438255
-0.0584872
0.426757
-0.0532322
0.416548
-0.0482388
0.407623
-0.0430174
0.40006
-0.037334
0.393903
-0.0312317
0.389173
-0.0247533
0.385888
-0.0179321
0.384066
-0.0108198
-0.00350408
0.43751
-0.044582
0.425144
-0.0408663
0.414157
-0.0372515
0.404549
-0.033409
0.396387
-0.0291726
0.389722
-0.0245664
0.384585
-0.0196158
0.381001
-0.014348
0.378994
-0.00881299
-0.00308824
0.436481
-0.0301496
0.423568
-0.0279537
0.412089
-0.0257725
0.402031
-0.023351
0.393461
-0.0206029
0.386438
-0.0175431
0.381004
-0.0141821
0.3772
-0.0105436
0.375061
-0.00667428
-0.00264296
0.432778
-0.01499
0.419351
-0.0145261
0.407383
-0.0138052
0.396818
-0.0127856
0.387724
-0.0115085
0.380179
-0.00999878
0.374266
-0.00826907
0.370068
-0.00634534
0.367657
-0.0042639
-0.00206649
0.381868
0.367341
0.353536
0.340751
0.329242
0.319243
0.310974
0.304629
0.300365
0.00601844
0.0943835
-0.100402
0.01076
0.198084
-0.202825
0.0128496
0.230685
-0.232775
0.0134953
0.235213
-0.235858
0.0136296
0.232257
-0.232391
0.0136907
0.228119
-0.22818
0.013838
0.224232
-0.224379
0.0141292
0.220732
-0.221023
0.0145357
0.217154
-0.217561
0.211686
0.0146883
-0.211839
0.0075958
0.0867877
0.0158187
0.189861
0.0218196
0.224684
0.0262658
0.230767
0.0301134
0.22841
0.0338771
0.224355
0.0377901
0.220318
0.0419506
0.216571
0.0463319
0.212773
0.207746
0.0502718
0.00845227
0.0783354
0.0195438
0.178769
0.0291291
0.215099
0.0372469
0.222649
0.0446451
0.221011
0.051888
0.217112
0.0592792
0.212927
0.0669435
0.208907
0.0748449
0.204872
0.200041
0.0825508
0.00856731
0.0697681
0.0216576
0.165679
0.034222
0.202535
0.0455508
0.21132
0.0560783
0.210484
0.0663297
0.206861
0.0766644
0.202593
0.0872565
0.198315
0.0980757
0.194052
0.189255
0.108861
0.00808849
0.0616797
0.0221709
0.151597
0.0368257
0.18788
0.0506296
0.197516
0.0636189
0.197495
0.0761872
0.194292
0.0886962
0.190084
0.10137
0.185641
0.114248
0.181174
0.176315
0.127188
0.00725464
0.054425
0.0213941
0.137457
0.0371087
0.172165
0.0524577
0.182167
0.0670858
0.182866
0.0811888
0.180189
0.095063
0.176209
0.108939
0.171765
0.122931
0.167182
0.162121
0.137124
0.00631517
0.0481098
0.0198447
0.123928
0.0356882
0.156322
0.0516599
0.166195
0.0671153
0.167411
0.0820449
0.16526
0.0966279
0.161626
0.111049
0.157344
0.125412
0.152819
0.147576
0.139957
0.00544925
0.0426606
0.0180372
0.11134
0.0333537
0.141005
0.0491983
0.150351
0.0647749
0.151834
0.0799063
0.150128
0.094637
0.146896
0.109065
0.142917
0.1233
0.138583
0.133464
0.137412
0.00477058
0.03789
0.0164079
0.0997025
0.030925
0.126488
0.0462359
0.13504
0.0615144
0.136556
0.0764875
0.135155
0.0910995
0.132284
0.105375
0.128641
0.119344
0.124614
0.119243
0.133566
0.00429772
0.0335923
0.0151495
0.0888507
0.028855
0.112783
0.0434576
0.120437
0.0581473
0.121866
0.0725843
0.120718
0.0866054
0.118263
0.100125
0.115122
0.112991
0.111747
0.107339
0.124895
0.00402759
0.0295647
0.0143641
0.0785141
0.0274761
0.0996708
0.0415233
0.10639
0.0557573
0.107632
0.0698519
0.106624
0.0836444
0.10447
0.0970626
0.101704
0.110112
0.0986983
0.0960662
0.121384
0.0038819
0.0256828
0.0139095
0.0684865
0.0266246
0.0869558
0.04025
0.0927646
0.0540792
0.0938031
0.0677966
0.0929061
0.0812303
0.0910365
0.0942818
0.0886522
0.106922
0.0860578
0.084336
0.118652
0.00379385
0.021889
0.0136358
0.0586445
0.0260962
0.0744954
0.0394226
0.0794382
0.0529342
0.0802915
0.066332
0.0795083
0.0794515
0.077917
0.0921964
0.0759073
0.104527
0.0737273
0.0724787
0.116384
0.00373384
0.0181551
0.0134649
0.0489135
0.0257742
0.062186
0.0389142
0.0662983
0.0522185
0.0669872
0.0654041
0.0663227
0.0783201
0.0650011
0.0908809
0.0633465
0.103051
0.0615575
0.0606054
0.114924
0.00368975
0.0144654
0.013354
0.0392492
0.0255784
0.0499616
0.0386103
0.0532664
0.0517896
0.0538079
0.0648448
0.0532675
0.0776366
0.0522092
0.0900904
0.0508928
0.102176
0.0494721
0.0487511
0.11403
0.00365618
0.0108092
0.0132775
0.0296279
0.0254529
0.0377863
0.0384228
0.0402965
0.0515286
0.040702
0.0645064
0.0402898
0.0772255
0.0394901
0.0896188
0.0384994
0.10166
0.0374309
0.0369167
0.113494
0.00363122
0.00717797
0.0132222
0.0200369
0.025366
0.0256426
0.0382978
0.0273646
0.0513596
0.0276401
0.064292
0.0273574
0.0769701
0.026812
0.0893319
0.0261377
0.101353
0.0254098
0.0250918
0.113178
0.00361488
0.00356309
0.0131827
0.0104691
0.0253016
0.0135237
0.0382052
0.014461
0.0512363
0.014609
0.0641387
0.014455
0.0767914
0.0141593
0.0891355
0.0137936
0.101148
0.0133973
0.0132684
0.112971
0.00360712
-4.4027e-05
0.0131555
0.000920686
0.0252496
0.00142951
0.0381249
0.00158576
0.0511262
0.00160775
0.0639999
0.00158133
0.0766277
0.00153143
0.0889534
0.00146791
0.100955
0.00139576
0.00145033
0.112773
0.00360807
0.0131391
0.0252034
0.0380425
0.0510051
0.0638405
0.0764329
0.0887281
0.100706
0.112506
0.136671
0.255154
-0.270441
0.149226
0.115399
-0.127955
0.159015
0.0396969
-0.0494861
0.166438
0.00660895
-0.0140318
0.17251
-0.00665397
0.00058204
0.177866
-0.0109093
0.0055531
0.182755
-0.011175
0.006286
0.187291
-0.00979176
0.00525631
0.191519
-0.0078588
0.00363061
-0.00526382
0.00141036
0.141503
0.232303
0.156435
0.100468
0.166141
0.0299911
0.172908
-0.000158423
0.178085
-0.0118313
0.182429
-0.0152528
0.186247
-0.0149933
0.189674
-0.0132184
0.19278
-0.0109652
-0.00800333
0.14477
0.203917
0.161807
0.083431
0.171949
0.0198493
0.178424
-0.00663408
0.183011
-0.0164178
0.186534
-0.0187756
0.189417
-0.0178772
0.191857
-0.0156576
0.193957
-0.0130651
-0.00973709
0.147861
0.170981
0.166727
0.0645644
0.177208
0.009369
0.183436
-0.0128629
0.187439
-0.0204207
0.190223
-0.0215593
0.192276
-0.0199305
0.19384
-0.0172212
0.195047
-0.0142717
-0.0105764
0.150784
0.134226
0.171066
0.0442825
0.181831
-0.0013954
0.187825
-0.0188575
0.191334
-0.0239298
0.193478
-0.0237034
0.194812
-0.0212639
0.195615
-0.0180247
0.196046
-0.0147021
-0.0106375
0.153379
0.0943418
0.174785
0.0228764
0.185784
-0.0123941
0.191579
-0.0246528
0.194676
-0.0270264
0.196283
-0.0253111
0.197012
-0.0219921
0.197175
-0.0181879
0.19695
-0.0144772
-0.0100406
0.155527
0.0519926
0.177849
0.000554492
0.189024
-0.0235686
0.194668
-0.0302976
0.197442
-0.0298
0.198622
-0.0264911
0.198864
-0.0222339
0.19851
-0.0178341
0.197755
-0.0137221
-0.00891053
0.157149
0.00781482
0.18019
-0.0224868
0.191512
-0.0348899
0.19707
-0.0358554
0.199616
-0.0323465
0.200482
-0.0273567
0.200359
-0.0221113
0.199615
-0.0170896
0.198457
-0.012564
-0.00737467
0.158165
-0.0375772
0.181747
-0.0460683
0.19322
-0.0463638
0.198763
-0.0413982
0.201184
-0.0347671
0.201852
-0.0280245
0.201489
-0.0217491
0.200483
-0.0160832
0.199052
-0.0111335
-0.00556379
0.158523
0.18247
0.194126
0.199734
0.202134
0.202724
0.202249
0.20111
0.199539
0.177439
0.0274626
-0.204901
0.160847
0.0165919
0.153301
0.00754516
0.150882
0.00241897
0.150809
7.36268e-05
0.1516
-0.000790899
0.152546
-0.000946107
0.153351
-0.000805482
0.1539
-0.000549114
-0.000206863
0.236494
0.0894303
-0.298462
0.207892
0.0451943
0.196425
0.0190116
0.192801
0.00604295
0.192528
0.000346615
0.193479
-0.00174166
0.194683
-0.00214988
0.195724
-0.00184635
0.196453
-0.00127858
-0.000491657
0.2413
0.155087
-0.306957
0.211263
0.0752316
0.199755
0.0305198
0.196305
0.00949308
0.196188
0.000463859
0.197245
-0.00279912
0.198521
-0.00342545
0.19961
-0.00293546
0.200373
-0.0020416
-0.000791289
0.236387
0.217069
-0.298368
0.208712
0.102906
0.198645
0.040587
0.195966
0.0121724
0.196237
0.000193043
0.197491
-0.0040534
0.198857
-0.00479177
0.199987
-0.00406533
0.200768
-0.00282238
-0.00109657
0.230919
-0.284291
0.20587
0.196971
0.195111
0.195886
0.197386
0.19888
0.200071
0.20088
0.0194576
-0.000576402
-0.0188812
0.0228931
-0.00343558
0.0296497
-0.00675659
0.0407411
-0.0110914
0.0573732
-0.016632
0.0798505
-0.0224774
0.108154
-0.0283038
0.139172
-0.0310174
0.174212
-0.0350403
-0.0306891
0.0535571
-0.00265448
-0.051479
0.0628011
-0.0126796
0.0796495
-0.023605
0.104246
-0.0356879
0.135253
-0.047639
0.169698
-0.0569226
0.204759
-0.0633643
0.237321
-0.06358
0.26985
-0.0675691
-0.0593006
0.0789854
-0.00605955
-0.0755804
0.0913453
-0.0250395
0.112004
-0.0442639
0.138919
-0.0626025
0.168676
-0.077396
0.198496
-0.0867431
0.227207
-0.0920751
0.254931
-0.091304
0.282575
-0.0952133
-0.0836825
0.095119
-0.0102405
-0.0909381
0.108036
-0.0379568
0.128019
-0.0642463
0.152261
-0.0868444
0.178174
-0.10331
0.204503
-0.113072
0.229977
-0.117549
0.255006
-0.116332
0.277663
-0.117871
-0.104387
0.104033
-0.0995851
0.116348
0.134652
0.156669
0.180548
0.2046
0.227009
0.248088
0.263783
0.0999869
-0.0891602
0.0982634
-0.10909
0.0905025
-0.0920614
0.101546
0.0805143
-0.095259
0.105247
0.0697456
-0.0984919
0.109261
0.0581303
-0.101828
0.113443
0.0457267
-0.105304
0.117707
0.0326572
-0.10865
0.12172
0.0192543
-0.10995
0.123353
0.00690673
-0.100208
0.112556
-0.0550908
0.0619976
0.105589
-0.0789914
-0.115758
0.0949375
-0.0814097
0.0836002
-0.0839217
0.0716683
-0.0865599
0.0592159
-0.0893753
0.0462768
-0.0923646
0.0328932
-0.0952668
0.0193251
-0.0963816
0.00691609
-0.0877995
-0.0481747
0.10569
-0.0679941
-0.116687
0.0944142
-0.0701341
0.0828088
-0.0723163
0.0708457
-0.0745968
0.0584873
-0.0770169
0.0456928
-0.0795701
0.0324624
-0.0820364
0.0190423
-0.0829615
0.00678039
-0.0755376
-0.0413944
0.107087
-0.0568477
-0.118234
0.0956559
-0.0587028
0.0838854
-0.0605458
0.0717378
-0.0624492
0.0591804
-0.0644595
0.0461898
-0.0665794
0.0327833
-0.0686299
0.0192168
-0.069395
0.00684478
-0.0631655
-0.0345496
0.107679
-0.0456229
-0.118904
0.0961266
-0.0471502
0.0842291
-0.0486484
0.0719709
-0.050191
0.059329
-0.0518176
0.0462798
-0.0535302
0.0328336
-0.0551838
0.0192368
-0.0557982
0.00684079
-0.0507695
-0.0277088
0.108034
-0.034383
-0.119274
0.0964485
-0.0355643
0.0845127
-0.0367126
0.0722136
-0.0378919
0.0595288
-0.0391328
0.046435
-0.0404364
0.0329438
-0.0416925
0.0193018
-0.0421563
0.00686087
-0.0383286
-0.0208479
0.108164
-0.0231438
-0.119403
0.096569
-0.0239692
0.0846199
-0.0247634
0.0723045
-0.0255765
0.0596021
-0.0264304
0.0464911
-0.0273255
0.0329841
-0.0281855
0.019327
-0.0284992
0.00687062
-0.0258721
-0.0139773
0.108136
-0.0119063
-0.119373
0.0965406
-0.0123739
0.0845923
-0.0128152
0.0722789
-0.0132631
0.0595793
-0.0137309
0.0464722
-0.0142184
0.0329701
-0.0146834
0.0193187
-0.0148477
0.00686831
-0.0134218
-0.00710897
0.107954
-0.000674646
-0.119186
0.0963674
-0.000786862
0.0844314
-0.00087917
0.0721337
-0.000965372
0.0594532
-0.00105038
0.0463685
-0.00113371
0.0328921
-0.00120692
0.0192693
-0.00122497
0.00684892
-0.00100141
-0.00026006
0.107592
-0.118814
0.0960243
0.0841153
0.071851
0.0592094
0.0461686
0.0327413
0.0191731
0.00680968
0.0185134
-0.208546
-0.0218058
0.0147629
-0.21381
0.0109958
-0.217256
0.00727074
-0.220654
0.00359904
-0.224508
5.2172e-05
-0.228845
-0.00314671
-0.23266
-0.00490331
-0.231018
-0.00386848
-0.20386
-0.10427
0.0500985
-0.201626
-0.0570191
0.0423813
-0.206093
0.0347636
-0.209638
0.0273853
-0.213276
0.0202028
-0.217326
0.013182
-0.221824
0.00657648
-0.226054
0.00106864
-0.225511
-0.00149352
-0.201298
-0.105764
0.0769268
-0.190944
-0.0876087
0.0658816
-0.195048
0.0551448
-0.198901
0.0447945
-0.202925
0.034756
-0.207287