/*--------------------------------*- C++ -*----------------------------------*\
  =========                 |
  \\      /  F ield         | OpenFOAM: The Open Source CFD Toolbox
   \\    /   O peration     | Website:  https://openfoam.org
    \\  /    A nd           | Version:  13
     \\/     M anipulation  |
\*---------------------------------------------------------------------------*/
FoamFile
{
    format      ascii;
    class       volVectorField;
    location    "0.3875";
    object      U;
}
// * * * * * * * * * * * * * * * * * * * * * * * * * * * * * * * * * * * * * //

dimensions      [0 1 -1 0 0 0 0];

internalField   nonuniform List<vector> 
1800
(
(0.410558 -0.369165 1.18569e-19)
(1.00816 -0.863639 5.24825e-20)
(1.26942 -1.02936 -6.76462e-19)
(1.36157 -1.04677 5.35366e-19)
(1.39431 -1.01251 1.13321e-18)
(1.40428 -0.962901 4.6452e-19)
(1.40394 -0.909741 -2.37042e-19)
(1.39855 -0.857657 -6.20604e-19)
(1.39248 -0.805391 -3.22448e-19)
(1.36863 -0.75766 -2.6046e-19)
(0.47909 -0.367191 6.86558e-22)
(1.15517 -0.847075 -9.09375e-19)
(1.43959 -1.00325 6.72587e-21)
(1.53125 -1.01677 -4.10548e-19)
(1.5566 -0.980635 9.02837e-20)
(1.55779 -0.930291 1.08989e-18)
(1.54897 -0.876984 -7.94615e-19)
(1.53624 -0.824528 4.01013e-19)
(1.52305 -0.772514 6.65684e-19)
(1.50145 -0.731394 -3.38879e-19)
(0.549599 -0.356552 6.09035e-20)
(1.30157 -0.810338 2.61501e-19)
(1.60644 -0.953197 5.47823e-19)
(1.69605 -0.962825 -3.15541e-19)
(1.71316 -0.926144 -1.35993e-18)
(1.70511 -0.876973 2.97039e-19)
(1.68751 -0.825824 5.19753e-19)
(1.66682 -0.776111 -5.19083e-20)
(1.64629 -0.727791 -4.40433e-21)
(1.61902 -0.688185 -2.30552e-20)
(0.620774 -0.336737 -6.82107e-20)
(1.44395 -0.75325 -2.86976e-19)
(1.76582 -0.879423 -3.71318e-19)
(1.8519 -0.885296 5.04137e-20)
(1.86031 -0.849177 3.66204e-19)
(1.84315 -0.802475 2.75603e-20)
(1.81725 -0.754629 -2.12704e-20)
(1.78927 -0.708431 4.81816e-19)
(1.7621 -0.663788 4.04765e-19)
(1.73091 -0.628104 -1.4293e-19)
(0.691084 -0.30747 1.51583e-19)
(1.57869 -0.676411 3.48686e-19)
(1.91337 -0.783321 -6.23446e-20)
(1.99437 -0.786059 -6.83044e-20)
(1.99374 -0.751962 -1.08858e-18)
(1.96768 -0.709408 8.99679e-21)
(1.93395 -0.6665 8.39011e-19)
(1.89919 -0.625391 2.71676e-19)
(1.86595 -0.586091 1.17283e-20)
(1.83093 -0.554732 -1.85722e-19)
(0.758731 -0.268615 -6.13227e-20)
(1.70203 -0.580754 8.45327e-19)
(2.04498 -0.666571 1.34333e-18)
(2.11969 -0.667018 -8.51208e-19)
(2.11013 -0.636312 -7.92638e-19)
(2.07588 -0.599311 1.30687e-18)
(2.03524 -0.562516 -9.19694e-19)
(1.99461 -0.527468 -1.04396e-18)
(1.95626 -0.4942 7.34885e-19)
(1.9181 -0.467885 -1.59235e-20)
(0.821774 -0.220407 3.50972e-19)
(1.81032 -0.468076 -1.34144e-18)
(2.15685 -0.531915 -3.66494e-18)
(2.22433 -0.531242 1.37046e-18)
(2.20626 -0.505378 2.01324e-18)
(2.16477 -0.475398 -5.65279e-21)
(2.11827 -0.445958 -2.52226e-18)
(2.07285 -0.418064 1.30791e-20)
(2.03039 -0.391778 2.26696e-18)
(1.98965 -0.371168 5.91715e-19)
(0.878109 -0.163383 -1.58627e-19)
(1.90008 -0.340641 7.78156e-19)
(2.24566 -0.382422 2.82927e-18)
(2.30538 -0.38187 -3.14111e-20)
(2.27961 -0.362123 -1.30099e-18)
(2.23215 -0.340369 -4.01791e-19)
(2.18108 -0.319186 0)
(2.132 -0.299186 8.89125e-19)
(2.08649 -0.28045 -1.04684e-20)
(2.04389 -0.266091 -7.35871e-19)
(0.925698 -0.0985322 -1.73017e-20)
(1.96833 -0.201455 1.9146e-18)
(2.30887 -0.221902 2.42636e-18)
(2.36064 -0.222751 -1.99525e-18)
(2.32834 -0.210269 -1.36375e-18)
(2.27639 -0.197755 4.01393e-19)
(2.22218 -0.185521 -1.66186e-18)
(2.1707 -0.17398 -1.18016e-18)
(2.12328 -0.163237 1.35153e-18)
(2.07954 -0.155507 1.14614e-18)
(0.962608 -0.0271926 2.76795e-19)
(2.01269 -0.0540249 1.22573e-18)
(2.34459 -0.0545409 4.4381e-19)
(2.38852 -0.0578523 -2.84621e-18)
(2.35126 -0.0535373 7.91172e-21)
(2.29642 -0.0508978 3.82349e-18)
(2.24051 -0.0480294 -2.04367e-18)
(2.18793 -0.0452645 -1.09041e-18)
(2.13972 -0.0427306 3.83272e-19)
(2.09566 -0.0418044 -8.48041e-19)
(0.00612274 -0.0681531 1.21799e-19)
(0.0530348 -0.165402 1.41143e-19)
(0.117731 -0.204011 -2.04382e-21)
(0.184902 -0.21393 -5.05455e-21)
(0.248801 -0.213437 -1.54034e-21)
(0.307967 -0.209037 -3.32428e-20)
(0.362278 -0.202957 6.75356e-21)
(0.411852 -0.196224 -1.56002e-20)
(0.457194 -0.189388 1.44095e-21)
(0.498486 -0.183812 -3.64237e-21)
(0.0169324 -0.112537 8.26235e-20)
(0.0800138 -0.27883 1.33523e-19)
(0.15105 -0.343309 -1.22786e-19)
(0.219477 -0.357381 -4.26999e-20)
(0.282893 -0.353345 -5.28742e-20)
(0.340934 -0.342738 -6.23711e-20)
(0.393859 -0.329457 2.51563e-20)
(0.441981 -0.315265 -1.03283e-20)
(0.485819 -0.301102 -5.92206e-22)
(0.526201 -0.290319 -5.47758e-21)
(0.0348443 -0.155692 1.22901e-20)
(0.125099 -0.388055 3.0843e-19)
(0.206794 -0.476982 8.18366e-20)
(0.277323 -0.494788 2.60183e-19)
(0.339914 -0.487165 4.10343e-20)
(0.396053 -0.47047 -2.24812e-19)
(0.446643 -0.450199 -1.95927e-20)
(0.492314 -0.428814 7.10853e-20)
(0.533615 -0.407664 -3.25118e-20)
(0.572518 -0.391861 -5.867e-21)
(0.0597826 -0.196925 -9.81108e-20)
(0.187717 -0.490901 -7.06154e-20)
(0.28409 -0.602179 2.55708e-20)
(0.357428 -0.623117 -1.05043e-19)
(0.418781 -0.611854 4.43836e-20)
(0.472215 -0.589258 1.50529e-19)
(0.519517 -0.562318 4.32989e-20)
(0.561755 -0.534131 -1.17329e-20)
(0.59954 -0.506484 1.62122e-20)
(0.636387 -0.485911 -2.02178e-21)
(0.0916329 -0.235547 0)
(0.26704 -0.585242 7.53994e-20)
(0.381683 -0.716124 4.46544e-19)
(0.458351 -0.739425 -2.70893e-19)
(0.517969 -0.724477 -4.80213e-19)
(0.567865 -0.696248 1.588e-19)
(0.610934 -0.663079 -2.26715e-20)
(0.648791 -0.628626 -7.73969e-20)
(0.682159 -0.595129 0)
(0.716357 -0.570089 -6.98295e-21)
(0.130233 -0.270857 -1.27653e-20)
(0.361963 -0.669013 3.03359e-19)
(0.497909 -0.816162 1.37097e-19)
(0.578192 -0.840914 1.87447e-19)
(0.635472 -0.822261 -1.49932e-19)
(0.680962 -0.788765 -2.36836e-19)
(0.71887 -0.749949 4.07431e-19)
(0.751446 -0.70992 4.2313e-20)
(0.77959 -0.67137 -2.40951e-19)
(0.810475 -0.642192 -5.5516e-21)
(0.175349 -0.302115 3.31178e-20)
(0.471072 -0.740232 3.80751e-19)
(0.630671 -0.899803 4.31768e-20)
(0.714568 -0.924997 1.72089e-20)
(0.768787 -0.902674 2.62704e-19)
(0.808971 -0.864398 -3.2818e-19)
(0.840817 -0.820665 -3.24108e-19)
(0.867268 -0.77591 -2.7457e-19)
(0.889475 -0.733234 1.99615e-19)
(0.916188 -0.700217 2.19472e-19)
(0.226613 -0.328501 -1.11257e-19)
(0.592579 -0.797004 -1.54973e-19)
(0.777389 -0.964787 1.66736e-19)
(0.864587 -0.989383 -1.38459e-19)
(0.914912 -0.963508 2.77161e-19)
(0.948889 -0.921068 6.55797e-19)
(0.973846 -0.873282 4.52425e-19)
(0.993422 -0.824786 -3.43121e-19)
(1.0091 -0.778961 -1.64008e-19)
(1.03042 -0.742214 2.36995e-19)
(0.28345 -0.349095 -3.0364e-19)
(0.724288 -0.837538 -9.92425e-19)
(0.935016 -1.00912 9.86794e-19)
(1.02489 -1.03215 7.87293e-19)
(1.07042 -1.003 -6.49584e-19)
(1.09734 -0.957167 7.0425e-19)
(1.11475 -0.906339 1.01279e-19)
(1.12688 -0.855259 -8.31149e-19)
(1.13575 -0.807196 -2.01083e-19)
(1.14967 -0.766329 2.65294e-19)
(0.345061 -0.362931 -3.43689e-20)
(0.863675 -0.860198 -8.55334e-19)
(1.10015 -1.03111 -4.58612e-19)
(1.19177 -1.05173 7.17226e-19)
(1.23145 -1.01977 5.59726e-19)
(1.25044 -0.971564 -6.32662e-19)
(1.25959 -0.918976 -5.1931e-19)
(1.26369 -0.866866 3.07284e-19)
(1.26578 -0.81709 -3.11334e-19)
(1.26729 -0.771347 -1.99646e-19)
(0.6419 -0.149109 -7.5561e-21)
(0.815144 -0.115211 2.04163e-20)
(0.889646 -0.0901074 1.54999e-20)
(0.936087 -0.0706436 -1.017e-21)
(0.96263 -0.0547676 8.04384e-22)
(0.978457 -0.0416386 4.26168e-21)
(0.988195 -0.0307096 2.15994e-21)
(0.994232 -0.0214629 -3.5047e-21)
(0.997754 -0.0136886 2.94034e-21)
(0.999806 -0.00516035 3.39063e-21)
(0.659153 -0.214289 5.30123e-20)
(0.824924 -0.150958 -1.38413e-20)
(0.896998 -0.109194 3.65667e-21)
(0.941615 -0.0813829 6.53204e-21)
(0.967052 -0.0610501 1.46658e-20)
(0.982056 -0.0453979 0)
(0.991161 -0.0329893 2.08235e-21)
(0.996723 -0.0228313 3.10851e-21)
(0.999932 -0.0144703 5.6581e-22)
(1.00176 -0.00543797 -3.14985e-21)
(0.687267 -0.277377 -3.4856e-20)
(0.839079 -0.185979 -8.81059e-21)
(0.906887 -0.128113 8.20162e-22)
(0.948409 -0.0920345 -8.67718e-21)
(0.972174 -0.0672559 -4.28239e-21)
(0.986066 -0.0490833 6.66381e-21)
(0.994383 -0.0351997 0)
(0.999381 -0.0241415 0)
(1.00223 -0.0152095 8.7732e-22)
(1.0038 -0.00569897 0)
(0.726011 -0.33717 -2.20012e-20)
(0.857538 -0.219751 1.58667e-20)
(0.91923 -0.146656 8.06178e-21)
(0.956471 -0.102493 0)
(0.97799 -0.0733227 -6.55704e-21)
(0.990482 -0.052657 2.891e-21)
(0.997845 -0.0373173 0)
(1.0022 -0.0253792 -4.55507e-21)
(1.00464 -0.0158968 0)
(1.00593 -0.00593936 -4.646e-22)
(0.775044 -0.392573 -2.77465e-20)
(0.880236 -0.25178 3.9916e-20)
(0.93391 -0.1646 -4.82076e-21)
(0.965795 -0.112657 0)
(0.984492 -0.0791916 -5.12909e-21)
(0.995292 -0.0560815 -6.75241e-21)
(1.00154 -0.0393188 7.00804e-21)
(1.00516 -0.0265299 1.49521e-21)
(1.00714 -0.0165227 -6.29195e-22)
(1.00813 -0.00615563 3.29458e-21)
(0.833783 -0.442594 -4.95592e-19)
(0.907113 -0.281659 -8.73236e-20)
(0.950782 -0.181728 2.20095e-21)
(0.976359 -0.122431 2.62262e-21)
(0.991667 -0.0848074 9.1611e-21)
(1.00048 -0.0593216 -1.93857e-21)
(1.00546 -0.0411802 -1.11691e-20)
(1.00824 -0.0275767 5.49608e-21)
(1.00972 -0.0170786 -2.98411e-22)
(1.01039 -0.00634509 2.56552e-21)
(0.901236 -0.486161 8.41759e-21)
(0.938031 -0.309215 3.90507e-20)
(0.969661 -0.197906 5.13899e-21)
(0.988105 -0.131744 -5.35822e-24)
(0.999489 -0.0901255 -2.48904e-21)
(1.00602 -0.0623457 5.82899e-21)
(1.00958 -0.0428784 2.76006e-21)
(1.01143 -0.0285042 -5.52062e-21)
(1.01236 -0.0175553 -9.8809e-22)
(1.01269 -0.00650361 -2.36922e-21)
(0.975802 -0.522303 1.92036e-19)
(0.972365 -0.333769 5.28854e-20)
(0.990213 -0.212871 0)
(1.00089 -0.14048 -4.1637e-21)
(1.0079 -0.0950947 1.5559e-21)
(1.0119 -0.0651247 2.1733e-21)
(1.01386 -0.0443951 4.1483e-21)
(1.01472 -0.0292993 -1.08418e-21)
(1.01505 -0.0179431 6.40063e-23)
(1.01502 -0.00662635 7.31077e-22)
(1.05472 -0.551552 -2.89958e-19)
(1.00849 -0.355154 -1.53761e-19)
(1.01122 -0.226429 2.60305e-20)
(1.01406 -0.148431 2.32625e-21)
(1.0166 -0.0995919 -2.0327e-21)
(1.01796 -0.0676017 2.87223e-21)
(1.01827 -0.0457089 -2.79264e-21)
(1.01806 -0.0299551 6.95567e-22)
(1.01776 -0.0182381 -4.21999e-21)
(1.01736 -0.00671496 -5.23014e-21)
(1.13641 -0.577694 2.00815e-19)
(1.04413 -0.380233 -1.51417e-19)
(1.03003 -0.243819 -2.13249e-20)
(1.02569 -0.158579 -1.07701e-20)
(1.02444 -0.105089 -2.54444e-21)
(1.0236 -0.0704286 -1.05222e-21)
(1.02251 -0.0470817 -2.34809e-21)
(1.02135 -0.0305641 0)
(1.02044 -0.0184722 2.625e-21)
(1.0197 -0.00676795 6.896e-22)
(1.27302 -0.559492 2.8451e-19)
(1.13091 -0.374547 9.2955e-20)
(1.07936 -0.243944 -5.6265e-20)
(1.05408 -0.159882 1.8766e-21)
(1.04134 -0.106053 2.81434e-21)
(1.03414 -0.0708634 2.0828e-21)
(1.02943 -0.0471411 6.36788e-21)
(1.02616 -0.0304399 1.86796e-21)
(1.02407 -0.0183078 -2.56935e-21)
(1.02271 -0.00668629 1.18814e-21)
(1.32061 -0.471496 2.78517e-21)
(1.16809 -0.326585 8.5877e-20)
(1.10922 -0.221203 7.34322e-20)
(1.07584 -0.148717 -8.40159e-21)
(1.05642 -0.100023 3.03599e-20)
(1.04451 -0.067262 1.83728e-20)
(1.03668 -0.0448411 1.36085e-20)
(1.03143 -0.0289615 -1.12276e-21)
(1.02817 -0.0174122 4.79655e-21)
(1.02614 -0.00634945 4.32052e-21)
(1.36921 -0.403639 -9.44213e-20)
(1.21211 -0.289918 -7.34403e-21)
(1.14102 -0.201497 2.01727e-21)
(1.0978 -0.137413 -6.60679e-37)
(1.07127 -0.0931081 2.95553e-21)
(1.05461 -0.0628193 -5.16055e-35)
(1.0437 -0.0419102 -4.9408e-21)
(1.03648 -0.0270542 -3.07538e-34)
(1.03208 -0.01625 1.27826e-21)
(1.02939 -0.0059183 -3.71665e-21)
(1.40042 -0.334212 -1.60099e-34)
(1.24518 -0.248114 -1.64241e-20)
(1.16696 -0.176916 -2.35023e-20)
(1.11675 -0.122719 0)
(1.08453 -0.0839525 -1.35787e-20)
(1.06379 -0.0569138 -8.91479e-21)
(1.05014 -0.0380402 -3.33254e-21)
(1.04115 -0.0245637 -4.53121e-34)
(1.03568 -0.0147493 -6.36191e-22)
(1.03238 -0.00536751 3.65144e-21)
(1.42016 -0.270746 -4.73824e-20)
(1.27067 -0.207008 2.50635e-21)
(1.18814 -0.150712 0)
(1.1328 -0.106046 0)
(1.09606 -0.0731613 0)
(1.07189 -0.0498237 0)
(1.05587 -0.0333711 -1.15908e-21)
(1.04531 -0.0215613 -5.10398e-34)
(1.0389 -0.0129454 1.22623e-21)
(1.03504 -0.00470899 4.48262e-34)
(1.43229 -0.212115 -7.7711e-21)
(1.28976 -0.166347 0)
(1.2049 -0.123244 0)
(1.14595 -0.0878015 0)
(1.1057 -0.0610364 0)
(1.07877 -0.0417432 0)
(1.06078 -0.0280179 2.14516e-21)
(1.04889 -0.0181153 3.28151e-21)
(1.04167 -0.0108764 1.20105e-21)
(1.03732 -0.00395467 4.12089e-21)
(1.43933 -0.157967 0)
(1.30354 -0.126545 -4.23587e-21)
(1.21761 -0.0950895 -9.434e-21)
(1.15623 -0.0684424 0)
(1.11339 -0.0478871 -6.80137e-21)
(1.08432 -0.0328731 -4.78275e-21)
(1.06475 -0.0221063 -1.116e-21)
(1.05179 -0.014304 -2.01361e-21)
(1.04393 -0.00858742 3.45447e-21)
(1.03918 -0.00312056 3.06367e-21)
(1.44272 -0.107321 2.83039e-21)
(1.31237 -0.0872515 2.65471e-21)
(1.22619 -0.0661929 -8.38038e-22)
(1.16329 -0.048002 4.59945e-36)
(1.11875 -0.0337476 -1.23124e-21)
(1.08817 -0.0232335 -3.89836e-35)
(1.06748 -0.015647 1.99729e-21)
(1.05374 -0.0101298 6.46e-21)
(1.04539 -0.00607415 1.06936e-21)
(1.04035 -0.00220074 -3.39646e-21)
(1.4351 -0.0599925 -1.14912e-20)
(1.30881 -0.0511244 5.61588e-21)
(1.22351 -0.0394761 7.269e-21)
(1.16057 -0.0289039 0)
(1.11558 -0.0204202 4.68019e-21)
(1.08449 -0.0140931 3.29995e-21)
(1.06338 -0.0095013 4.1511e-21)
(1.04935 -0.00615196 1.42413e-21)
(1.04081 -0.00367906 -5.31174e-22)
(1.03567 -0.00132603 3.6372e-21)
(1.24961 -0.00948223 0)
(1.14885 -0.00983559 0)
(1.07747 -0.00799553 0)
(1.02335 -0.00594699 0)
(0.984245 -0.00422806 0)
(0.957071 -0.00292949 0)
(0.938563 -0.00197842 1.89506e-21)
(0.926248 -0.00128294 -9.09746e-36)
(0.918771 -0.000755002 1.12302e-21)
(0.914366 -0.000263104 3.30228e-21)
(2.01908 -0.0374727 7.93473e-19)
(2.00598 -0.134914 5.32192e-20)
(1.97634 -0.229645 -1.04585e-19)
(1.93072 -0.319917 -3.16475e-19)
(1.87104 -0.403564 -9.50014e-20)
(1.79716 -0.479976 -1.5052e-19)
(1.71533 -0.544858 -3.95911e-19)
(1.61713 -0.603516 1.13896e-19)
(1.52928 -0.634635 0)
(1.39453 -0.699747 5.14879e-20)
(1.93778 -0.0275011 2.32604e-19)
(1.9277 -0.100864 -2.9511e-19)
(1.90569 -0.17271 -3.49429e-20)
(1.87118 -0.242264 -1.27411e-19)
(1.82738 -0.306787 5.32268e-20)
(1.77066 -0.368867 1.35788e-19)
(1.71175 -0.419592 -5.81007e-20)
(1.63412 -0.474156 5.7785e-20)
(1.57368 -0.493946 -7.82582e-20)
(1.47123 -0.566186 2.89289e-20)
(1.87032 -0.0211142 -1.04026e-19)
(1.86239 -0.0792785 2.23069e-19)
(1.84502 -0.136143 1.60298e-19)
(1.8172 -0.191732 -2.28577e-19)
(1.78252 -0.243012 3.17294e-20)
(1.7369 -0.294232 2.04289e-19)
(1.69017 -0.334926 -1.21267e-20)
(1.62852 -0.382664 2.30827e-20)
(1.57868 -0.399487 3.52004e-20)
(1.50339 -0.463704 4.71932e-20)
(1.81771 -0.0172451 -2.40091e-19)
(1.81119 -0.0622687 -1.71759e-20)
(1.79683 -0.106347 -2.23261e-20)
(1.77383 -0.149851 -3.21917e-20)
(1.74509 -0.189947 -8.59989e-20)
(1.70783 -0.230921 -8.27455e-20)
(1.66882 -0.263238 1.16312e-19)
(1.61981 -0.302447 1.22382e-20)
(1.5768 -0.317322 3.64641e-21)
(1.51963 -0.369606 9.99783e-21)
(1.77656 -0.0137217 3.41332e-20)
(1.77106 -0.048266 9.24545e-20)
(1.75875 -0.0820945 -2.90101e-20)
(1.73921 -0.115643 1.66686e-19)
(1.71449 -0.146647 -1.89793e-20)
(1.68318 -0.178609 -1.49642e-19)
(1.64936 -0.20407 2.23507e-20)
(1.60921 -0.235006 -7.00783e-20)
(1.57099 -0.248155 6.03569e-20)
(1.52576 -0.288468 3.98143e-20)
(1.74503 -0.0111892 -1.263e-19)
(1.74028 -0.0369306 -5.37176e-20)
(1.72939 -0.0621707 2.50226e-21)
(1.71227 -0.0872883 7.7401e-20)
(1.69028 -0.110668 1.33693e-19)
(1.66304 -0.13484 -4.14715e-20)
(1.63281 -0.154486 3.43404e-21)
(1.59856 -0.178085 1.96425e-21)
(1.56383 -0.189273 1.71281e-20)
(1.52624 -0.219323 -3.35399e-20)
(1.72164 -0.00919351 -3.96342e-20)
(1.71747 -0.0273911 -8.80707e-20)
(1.70758 -0.0452507 -9.67065e-20)
(1.69216 -0.0630795 -1.60632e-19)
(1.67206 -0.0798374 3.03293e-20)
(1.64753 -0.0972222 2.54118e-20)
(1.61975 -0.11169 1.42655e-20)
(1.58927 -0.128903 1.74078e-20)
(1.557 -0.137856 -3.43237e-20)
(1.52414 -0.159486 -7.74083e-21)
(1.70366 -0.00743752 4.74266e-20)
(1.70007 -0.0188611 1.83487e-20)
(1.69114 -0.030082 1.17003e-20)
(1.67713 -0.0413451 -2.25137e-20)
(1.65856 -0.0520525 -1.93002e-20)
(1.63602 -0.0633255 -1.58421e-20)
(1.61004 -0.0729146 -1.66006e-20)
(1.582 -0.0845703 1.47069e-20)
(1.55137 -0.0909831 -6.63281e-21)
(1.52135 -0.106138 1.7021e-20)
(1.66931 -0.0072183 -5.34126e-20)
(1.66647 -0.0120456 -1.03555e-20)
(1.6592 -0.0167393 8.54814e-20)
(1.64767 -0.0215445 -1.3725e-20)
(1.63211 -0.0261613 -1.76963e-20)
(1.61312 -0.0314231 2.68751e-20)
(1.59047 -0.0358734 -1.365e-20)
(1.56649 -0.0421557 4.4132e-21)
(1.5379 -0.0453234 1.2189e-21)
(1.51259 -0.0550558 1.47367e-20)
(1.35376 -0.00330164 4.30679e-20)
(1.34927 -0.00248228 3.45193e-20)
(1.34467 -0.00170142 3.2451e-20)
(1.33998 -0.00106731 4.9083e-20)
(1.33484 -0.00060079 -1.98515e-20)
(1.32954 -0.000480085 -2.72617e-20)
(1.32229 -0.00043214 7.77701e-21)
(1.31654 -0.00119993 1.79311e-21)
(1.30352 -0.000810291 -2.99924e-21)
(1.30063 -0.00499308 3.04572e-21)
(1.35332 0.715796 -4.73968e-20)
(1.34986 0.760448 2.71733e-20)
(1.35463 0.812592 -3.49111e-19)
(1.36165 0.87094 2.33515e-19)
(1.36961 0.933408 6.80766e-19)
(1.37672 0.999492 -1.47762e-19)
(1.3775 1.06598 -7.73592e-19)
(1.34574 1.11115 -5.79056e-20)
(1.18084 1.03072 -5.2426e-19)
(0.614459 0.570971 7.40013e-20)
(1.49163 0.699487 0)
(1.49415 0.741342 4.75153e-19)
(1.50046 0.790455 1.04857e-18)
(1.51083 0.846224 -6.16931e-19)
(1.52404 0.906822 -1.51505e-18)
(1.5378 0.97154 -1.40293e-19)
(1.54561 1.03686 -1.79926e-19)
(1.5169 1.08124 6.71892e-19)
(1.33565 1.00114 1.17019e-18)
(0.695614 0.552541 5.02771e-19)
(1.60947 0.670423 6.25504e-20)
(1.62115 0.710705 0)
(1.6349 0.756821 -6.6912e-20)
(1.65204 0.808559 6.52564e-19)
(1.67208 0.865097 5.28509e-20)
(1.69329 0.925961 -1.70454e-18)
(1.70847 0.987658 1.11831e-18)
(1.68274 1.02938 7.94146e-19)
(1.48477 0.950171 -1.0798e-18)
(0.772493 0.521657 -3.02909e-19)
(1.71426 0.622517 -1.01566e-19)
(1.73478 0.66102 -8.32831e-20)
(1.75702 0.70397 2.05898e-19)
(1.78196 0.75146 -2.58301e-19)
(1.80966 0.803361 -1.26418e-18)
(1.83878 0.859389 -9.78695e-19)
(1.86138 0.91619 1.1357e-18)
(1.83826 0.954208 8.11669e-19)
(1.62317 0.877017 0)
(0.841628 0.477947 0)
(1.81009 0.558609 -7.53508e-19)
(1.83769 0.594056 -1.26056e-18)
(1.86731 0.632913 -5.09276e-19)
(1.89957 0.675471 -3.57357e-20)
(1.9347 0.721941 0)
(1.97142 0.772085 1.48775e-19)
(2.00078 0.822747 1.76378e-19)
(1.97931 0.856151 2.26721e-19)
(1.7465 0.782416 -3.48249e-19)
(0.900311 0.422364 -9.00134e-20)
(1.89579 0.480945 8.83993e-19)
(1.92878 0.511971 -4.82259e-20)
(1.96441 0.545687 -1.0478e-18)
(2.00306 0.582448 0)
(2.04491 0.622544 0)
(2.08834 0.665705 0)
(2.12337 0.708923 1.47489e-18)
(2.10204 0.737121 -1.92302e-18)
(1.85114 0.668634 -1.61671e-18)
(0.946521 0.356808 1.26734e-19)
(1.96893 0.391157 -1.20156e-18)
(2.00601 0.416811 -2.50202e-18)
(2.04642 0.444504 -4.32978e-21)
(2.09036 0.474635 5.00192e-19)
(2.13782 0.50746 -4.40461e-20)
(2.18675 0.542483 1.20049e-18)
(2.22582 0.57734 -7.22673e-19)
(2.20336 0.599758 -2.47358e-18)
(1.93423 0.538696 1.7039e-19)
(0.978686 0.283588 1.37023e-19)
(2.02722 0.291447 -9.8549e-19)
(2.06738 0.311024 1.99527e-20)
(2.11141 0.331925 3.8136e-19)
(2.15942 0.354647 -3.66056e-19)
(2.21117 0.379409 5.63455e-19)
(2.26404 0.405624 1.69906e-18)
(2.30549 0.43043 -2.43209e-19)
(2.28047 0.44717 -1.50076e-18)
(1.99305 0.397845 4.61022e-19)
(0.995738 0.206284 1.04485e-19)
(2.06861 0.184328 3.64049e-19)
(2.11098 0.197333 9.68127e-20)
(2.15757 0.210817 -4.14626e-19)
(2.20842 0.225481 -9.18991e-19)
(2.2631 0.241604 1.0853e-19)
(2.3184 0.258359 1.18826e-19)
(2.36037 0.272422 -1.74042e-18)
(2.33032 0.2835 8.8163e-19)
(2.0257 0.24955 3.50823e-19)
(0.998415 0.127624 -2.58482e-19)
(2.09178 0.0723447 7.38047e-19)
(2.13543 0.0782164 -1.11174e-18)
(2.1834 0.0839371 1.9756e-19)
(2.23579 0.0900657 2.32161e-18)
(2.2919 0.0967302 1.25712e-18)
(2.34795 0.104029 -2.90967e-18)
(2.38839 0.108644 -3.34738e-18)
(2.35176 0.115188 2.03172e-18)
(2.03195 0.0975765 -1.20918e-20)
(0.987206 0.0489448 -3.19722e-20)
(0.525615 0.181552 -2.09053e-19)
(0.491158 0.187893 -1.86601e-19)
(0.448361 0.194809 1.13743e-19)
(0.401079 0.202237 -3.76998e-19)
(0.349623 0.210255 -5.40285e-20)
(0.292773 0.218913 3.29032e-19)
(0.22946 0.227718 1.02276e-19)
(0.158806 0.23289 -7.43012e-20)
(0.0850203 0.215962 -1.67893e-20)
(0.0149512 0.123804 3.11435e-20)
(0.550989 0.279236 1.69911e-19)
(0.517461 0.292253 2.47792e-19)
(0.47603 0.306546 3.5943e-20)
(0.430249 0.321871 -1.09443e-19)
(0.380422 0.338381 -3.63133e-19)
(0.325376 0.356217 2.756e-20)
(0.263963 0.374537 2.44835e-19)
(0.194619 0.386749 -1.10342e-20)
(0.11848 0.360554 -3.04057e-20)
(0.0339142 0.205623 -9.04492e-21)
(0.593246 0.372819 -1.8997e-19)
(0.561367 0.392255 -2.079e-19)
(0.522289 0.41355 1.77274e-19)
(0.479055 0.436379 1.66544e-19)
(0.431971 0.460976 -6.38121e-20)
(0.379938 0.487554 -1.54737e-19)
(0.321672 0.514927 -8.68823e-20)
(0.254456 0.533788 5.56472e-20)
(0.174171 0.498575 -2.68426e-20)
(0.0651867 0.283443 7.08004e-21)
(0.651327 0.460198 1.09195e-19)
(0.621785 0.485678 3.24911e-21)
(0.585996 0.513429 -1.45549e-19)
(0.546311 0.543189 1.10777e-19)
(0.503038 0.575277 -1.02552e-19)
(0.455183 0.609966 4.84047e-20)
(0.401262 0.645724 -9.02943e-20)
(0.336964 0.670665 -7.76822e-20)
(0.250746 0.626847 -2.07891e-19)
(0.10797 0.35549 5.32297e-20)
(0.723744 0.539397 -3.73969e-20)
(0.69719 0.570405 -1.61473e-20)
(0.665579 0.603898 -4.42336e-20)
(0.630411 0.639861 -1.38502e-19)
(0.59199 0.67869 5.81979e-20)
(0.549438 0.720681 -1.22052e-19)
(0.501001 0.763975 1.96328e-19)
(0.44032 0.794292 3.46341e-20)
(0.346634 0.74237 2.79765e-19)
(0.16139 0.420029 2.22799e-19)
(0.808487 0.608732 1.50827e-20)
(0.785494 0.644574 -4.28097e-20)
(0.758842 0.682843 1.96357e-19)
(0.729047 0.724038 9.11665e-20)
(0.696425 0.768642 1.66435e-19)
(0.660231 0.81693 5.83985e-20)
(0.618348 0.866698 3.37831e-19)
(0.561929 0.901502 1.78538e-19)
(0.459479 0.842055 1.79703e-19)
(0.22404 0.475169 1.95944e-19)
(0.903495 0.665941 -9.748e-20)
(0.884893 0.705886 2.36361e-19)
(0.864238 0.747957 1.20784e-19)
(0.84085 0.793368 -9.45149e-20)
(0.814987 0.842689 -5.57456e-20)
(0.786049 0.896163 4.13998e-19)
(0.751532 0.951292 -9.96095e-20)
(0.699743 0.989741 -2.65366e-19)
(0.587134 0.923587 -5.14576e-20)
(0.294463 0.519544 2.27869e-19)
(1.0038 0.710556 1.50355e-19)
(0.98953 0.753158 5.61563e-20)
(0.975446 0.79762 -5.13933e-19)
(0.959511 0.846141 1.95119e-20)
(0.941745 0.899156 2.63832e-19)
(0.921506 0.956657 -2.33705e-19)
(0.895673 1.01579 -3.89694e-20)
(0.849277 1.05666 -1.23513e-19)
(0.725634 0.984447 1.51135e-20)
(0.370379 0.551663 -2.79622e-19)
(1.11361 0.73716 2.57053e-20)
(1.10607 0.78214 -3.46656e-19)
(1.0996 0.827758 -2.42313e-21)
(1.09102 0.878054 2.53648e-19)
(1.0808 0.933601 -2.37151e-19)
(1.06878 0.994151 5.11643e-19)
(1.05129 1.05648 3.96254e-19)
(1.00976 1.09944 -7.07632e-19)
(0.873359 1.02292 -5.92338e-20)
(0.450423 0.571048 -3.22324e-19)
(1.2007 0.74597 -1.70909e-19)
(1.20464 0.793543 -1.75754e-19)
(1.21262 0.84084 2.23856e-19)
(1.21712 0.892566 4.12443e-19)
(1.21886 0.94952 1.87034e-19)
(1.21814 1.0115 -4.23785e-19)
(1.21095 1.0752 -9.56367e-22)
(1.17519 1.11876 1.53707e-19)
(1.02552 1.03883 -2.77562e-19)
(0.532166 0.577469 -2.40154e-19)
(0.702945 0.0236775 1.94424e-20)
(1.20519 0.0350284 -2.35414e-20)
(0.906544 0.0400873 -2.96724e-21)
(1.01354 0.0437135 0)
(0.983298 0.0512944 2.2891e-20)
(0.96586 0.0615875 2.71338e-20)
(0.941382 0.0752712 3.3939e-20)
(0.894127 0.0929008 6.7672e-20)
(0.829249 0.117285 -9.58648e-20)
(0.660096 0.148539 -1.07619e-19)
(0.702667 0.0215614 4.17287e-20)
(1.20554 0.0355209 -8.07898e-20)
(0.907312 0.0427731 -1.73214e-21)
(1.01536 0.0455274 -1.21651e-20)
(0.985916 0.0550645 1.10292e-20)
(0.969542 0.0676784 -1.41411e-20)
(0.94621 0.0857103 -8.45828e-20)
(0.901243 0.11043 0)
(0.837827 0.152381 2.05541e-19)
(0.679613 0.209165 -2.5622e-19)
(0.702195 0.0195135 -6.45757e-20)
(1.20603 0.0358795 2.21219e-20)
(0.907987 0.045224 3.01947e-20)
(1.01756 0.0471589 1.7595e-20)
(0.988896 0.0586601 -2.63074e-20)
(0.973902 0.0736144 -3.36382e-22)
(0.95212 0.0959659 -5.94866e-20)
(0.910982 0.127834 -4.81055e-21)
(0.84998 0.186712 2.33997e-22)
(0.711245 0.267991 6.41283e-19)
(0.701523 0.017629 -8.269e-21)
(1.20657 0.0360968 5.2199e-21)
(0.908577 0.0473761 2.78583e-20)
(1.02013 0.0485961 1.53882e-20)
(0.99224 0.0620506 -1.32726e-20)
(0.978936 0.0793419 -1.6244e-20)
(0.959166 0.105932 8.85611e-20)
(0.923212 0.144957 -1.43637e-21)
(0.865883 0.219747 -2.4983e-19)
(0.754445 0.324023 6.85549e-20)
(0.700633 0.0159756 8.55641e-21)
(1.20714 0.0361507 -4.59285e-20)
(0.909105 0.0491634 -2.20089e-20)
(1.02308 0.0498346 6.32586e-21)
(0.995952 0.0652063 0)
(0.984638 0.0848097 0)
(0.967397 0.115516 7.51972e-20)
(0.937745 0.16164 2.63892e-22)
(0.88581 0.250844 -1.21366e-19)
(0.80844 0.376482 9.41272e-20)
(0.699505 0.0146332 -1.95223e-21)
(1.20763 0.0360061 3.88131e-20)
(0.9096 0.0505217 -4.1311e-20)
(1.02644 0.0508787 -3.52135e-20)
(1.00002 0.0680982 -6.45426e-22)
(0.990994 0.089971 6.46897e-20)
(0.976856 0.124645 1.17274e-19)
(0.954354 0.177738 -7.60509e-22)
(0.910163 0.279745 2.07196e-19)
(0.872148 0.424813 -2.04617e-19)
(0.698116 0.0137002 -2.9554e-20)
(1.20794 0.0356142 1.97635e-20)
(0.910101 0.0513848 -2.35134e-21)
(1.03022 0.0517449 -5.68894e-20)
(1.00443 0.0706972 1.77048e-21)
(0.997996 0.094787 -1.07636e-21)
(0.987564 0.133261 -7.16627e-21)
(0.972909 0.193124 -2.03815e-19)
(0.939238 0.305863 1.59582e-19)
(0.943927 0.467691 -4.75428e-19)
(0.696427 0.0132772 1.26539e-20)
(1.20799 0.0348998 -5.76214e-20)
(0.910662 0.0516937 1.43267e-20)
(1.03444 0.0524639 4.53552e-20)
(1.00916 0.0729767 8.2986e-22)
(1.00564 0.0992424 -7.48153e-20)
(0.999543 0.14139 -6.44439e-20)
(0.993269 0.20805 3.69796e-19)
(0.973532 0.329677 1.21097e-20)
(1.0225 0.508906 7.57621e-19)
(0.694393 0.0134931 -1.88763e-21)
(1.2077 0.0337222 2.46524e-20)
(0.911364 0.0513883 -4.9506e-21)
(1.03908 0.0530944 -4.70626e-20)
(1.01413 0.0748724 -8.33231e-20)
(1.01387 0.103113 1.70636e-21)
(1.01271 0.148241 -8.8911e-20)
(1.01536 0.21982 4.84333e-19)
(1.01447 0.344188 -7.55573e-21)
(1.10309 0.535277 -1.03902e-18)
(0.692022 0.0147622 8.29516e-21)
(1.20759 0.0321677 3.51528e-20)
(0.912191 0.0504609 1.65226e-20)
(1.04399 0.0538035 -1.0337e-19)
(1.01879 0.0768622 -7.71691e-20)
(1.02115 0.10782 -6.19986e-20)
(1.02332 0.157675 -1.58081e-19)
(1.03131 0.237789 -4.50295e-19)
(1.04634 0.371729 -2.68451e-19)
(1.17705 0.585288 -1.1326e-18)
(0.693008 0.0153406 -2.31925e-20)
(1.20929 0.0299591 -7.08909e-21)
(0.914323 0.0478438 -1.33843e-20)
(1.05009 0.0534649 5.17631e-22)
(1.02762 0.0763609 5.4115e-20)
(1.03574 0.108062 -4.29291e-20)
(1.04739 0.15803 1.42088e-19)
(1.0712 0.236165 -4.51686e-19)
(1.11503 0.356569 -1.90801e-19)
(1.24171 0.560869 6.41553e-19)
(0.693632 0.0135674 2.04307e-20)
(1.21304 0.027399 1.33198e-20)
(0.918414 0.0432629 6.81762e-21)
(1.05545 0.0509305 4.06279e-20)
(1.03749 0.0724704 8.33031e-20)
(1.05052 0.102796 1.26152e-19)
(1.07009 0.149323 3.0613e-20)
(1.1062 0.219646 2.47398e-19)
(1.16318 0.321778 3.15093e-19)
(1.30474 0.480429 -1.51366e-20)
(0.693986 0.0112726 -2.31672e-20)
(1.2168 0.0242856 -4.64266e-21)
(0.922702 0.038615 -1.33838e-20)
(1.06089 0.0472874 1.97779e-20)
(1.04695 0.067272 2.28023e-34)
(1.06445 0.095449 -8.92349e-21)
(1.09076 0.137547 -5.79538e-34)
(1.13674 0.199201 2.06012e-20)
(1.20157 0.282567 -5.76994e-20)
(1.35423 0.409237 -4.96491e-20)
(0.694355 0.00813777 3.86497e-20)
(1.22039 0.020545 -4.95494e-35)
(0.926888 0.0336032 1.30829e-20)
(1.06611 0.0426218 -1.68667e-20)
(1.05564 0.060741 -3.28877e-20)
(1.077 0.0861576 -4.22081e-20)
(1.10891 0.123175 -7.26698e-34)
(1.16222 0.17602 -1.08511e-19)
(1.23229 0.242564 -1.47836e-19)
(1.38769 0.341613 9.20894e-20)
(0.694789 0.004127 0)
(1.22394 0.0162431 -1.04806e-36)
(0.930893 0.0282757 0)
(1.07099 0.0370843 0)
(1.06335 0.0530426 0)
(1.08797 0.0751988 0)
(1.1244 0.106692 -4.39617e-34)
(1.18286 0.150698 0)
(1.25656 0.202408 -2.24763e-20)
(1.40818 0.277955 5.58519e-20)
(0.695352 -0.000622845 2.49025e-20)
(1.2276 0.0114675 -4.43906e-21)
(0.934683 0.0227327 1.23191e-20)
(1.07533 0.0308512 0)
(1.07 0.0443813 0)
(1.09722 0.0629079 7.65695e-21)
(1.13719 0.0886517 3.10244e-20)
(1.19909 0.123957 -1.54639e-20)
(1.27525 0.162935 -3.34758e-20)
(1.41994 0.218597 2.08172e-19)
(0.696077 -0.0068347 -4.75292e-20)
(1.2315 0.00616328 5.69372e-21)
(0.938222 0.0170421 1.18865e-20)
(1.07904 0.0240928 -5.36981e-21)
(1.07543 0.0349593 -1.13011e-20)
(1.10465 0.0495912 -9.00139e-21)
(1.14727 0.0694912 -2.33527e-20)
(1.21137 0.0963525 -4.47392e-20)
(1.28906 0.124494 -6.17595e-20)
(1.42624 0.163443 9.18662e-20)
(0.697071 -0.0121527 -3.44847e-20)
(1.23589 0.000873911 -1.59575e-20)
(0.941361 0.0117905 1.11466e-20)
(1.08182 0.0169402 -1.45016e-20)
(1.07941 0.024861 7.54378e-35)
(1.11006 0.0353576 8.30048e-21)
(1.15456 0.0493154 -1.06797e-33)
(1.22 0.0679158 -1.57652e-20)
(1.29847 0.0866161 2.11132e-20)
(1.42937 0.111053 2.79673e-20)
(0.696873 -0.0251231 1.78546e-19)
(1.23473 -0.00516973 -9.30021e-21)
(0.938925 0.00584279 1.10424e-20)
(1.07853 0.0103943 2.84513e-21)
(1.07693 0.0151137 3.86989e-21)
(1.10852 0.0217169 1.51074e-20)
(1.15423 0.0301674 8.8173e-21)
(1.22049 0.0413671 -5.1979e-21)
(1.29906 0.0520763 -2.2626e-20)
(1.42643 0.0652489 1.44914e-19)
(0.653527 -0.0187184 2.89888e-20)
(1.10954 -0.00802043 -7.15676e-35)
(0.824235 0.00276726 1.04701e-20)
(0.95769 0.0016429 0)
(0.953177 0.00333508 0)
(0.982394 0.0047724 8.55531e-21)
(1.02439 0.00658405 -1.01811e-35)
(1.08439 0.00912239 -1.57479e-20)
(1.15605 0.0112562 -3.10678e-20)
(1.2652 0.013586 6.17716e-20)
(1.4165 0.622482 -1.90744e-19)
(1.50831 0.618939 -2.8229e-19)
(1.60176 0.593093 0)
(1.6881 0.546559 9.12095e-20)
(1.76922 0.486673 4.50782e-19)
(1.84333 0.416478 -1.47321e-19)
(1.90729 0.336925 1.3556e-18)
(1.95847 0.249651 -5.13139e-20)
(1.99508 0.156674 -3.56986e-19)
(2.01548 0.0606211 3.09573e-19)
(1.45653 0.512801 7.71758e-20)
(1.53093 0.500253 1.15568e-19)
(1.61147 0.467177 -2.48146e-21)
(1.6837 0.42326 1.5374e-19)
(1.7484 0.373323 -1.41913e-19)
(1.80581 0.317553 -3.72788e-19)
(1.85441 0.255893 -7.37338e-20)
(1.89284 0.189187 5.2863e-19)
(1.91999 0.118814 -1.86704e-20)
(1.93508 0.0460707 -4.40877e-19)