# Selection   : all
# Cells       : 1800
# Volume      : 7.372328e+01
# Time        	maxMag(U)
2.55          	3.137455e+00
2.575         	3.129407e+00
2.6           	3.121240e+00
