/*--------------------------------*- C++ -*----------------------------------*\
  =========                 |
  \\      /  F ield         | OpenFOAM: The Open Source CFD Toolbox
   \\    /   O peration     | Website:  https://openfoam.org
    \\  /    A nd           | Version:  13
     \\/     M anipulation  |
\*---------------------------------------------------------------------------*/
FoamFile
{
    format      ascii;
    class       volVectorField;
    location    "0.55";
    object      U;
}
// * * * * * * * * * * * * * * * * * * * * * * * * * * * * * * * * * * * * * //

dimensions      [0 1 -1 0 0 0 0];

internalField   nonuniform List<vector> 
440
(
(0.218262 -0.176696 -1.81104e-19)
(0.61308 -0.436661 1.07883e-18)
(0.984291 -0.640908 4.23332e-19)
(1.32754 -0.795387 1.24255e-18)
(1.63256 -0.916741 -2.59999e-19)
(0.304894 -0.177684 -5.445e-19)
(0.819134 -0.428702 -1.01957e-18)
(1.27997 -0.618902 1.14515e-19)
(1.6919 -0.761638 -1.21516e-18)
(2.05374 -0.875109 -1.02099e-18)
(0.38488 -0.152407 -6.98074e-19)
(1.00468 -0.363015 1.58978e-18)
(1.53976 -0.518386 -1.93465e-18)
(2.00471 -0.632633 1.37938e-18)
(2.40594 -0.721475 1.42987e-18)
(0.445867 -0.102745 5.62393e-19)
(1.14609 -0.243084 -1.29951e-18)
(1.73744 -0.344812 -7.50806e-19)
(2.24294 -0.418221 1.96656e-18)
(2.67446 -0.474463 2.50018e-18)
(0.479256 -0.0361583 6.86908e-19)
(1.22363 -0.0847544 1.69139e-19)
(1.8459 -0.119363 2.53132e-18)
(2.37402 -0.143864 -1.06202e-18)
(2.82295 -0.162494 -4.83733e-19)
(-0.000879896 -0.0516835 2.76707e-19)
(0.050162 -0.144372 -3.85671e-19)
(0.106092 -0.22244 1.1087e-18)
(0.171631 -0.292309 -1.76461e-19)
(0.239797 -0.353922 -1.59765e-18)
(0.0137129 -0.0843265 -2.62145e-19)
(0.0893306 -0.227857 -4.2286e-19)
(0.174155 -0.350201 1.10889e-19)
(0.268453 -0.450115 5.97921e-20)
(0.364733 -0.530212 -3.61792e-20)
(0.0433376 -0.114269 7.05282e-20)
(0.165463 -0.303177 5.25274e-19)
(0.296167 -0.467386 9.49099e-20)
(0.432869 -0.598829 1.46087e-18)
(0.567929 -0.69737 -2.49913e-20)
(0.0866186 -0.140999 6.69228e-20)
(0.276371 -0.367825 -3.47325e-20)
(0.469492 -0.563002 2.17774e-19)
(0.661407 -0.718496 -2.03739e-18)
(0.844117 -0.83041 9.57535e-19)
(0.142125 -0.161724 -2.35892e-19)
(0.420083 -0.412852 -4.4271e-19)
(0.691401 -0.621471 -7.70679e-19)
(0.950144 -0.782398 9.53744e-19)
(1.1852 -0.892813 3.45511e-18)
(0.592854 -0.591682 -4.06417e-18)
(0.962422 -0.516536 1.03051e-18)
(1.29315 -0.211536 3.71846e-19)
(1.48438 -0.0380479 -6.04957e-19)
(1.55599 -0.00194556 -8.20305e-20)
(0.785602 -0.743159 4.83908e-18)
(1.04404 -0.622951 -3.13601e-19)
(1.31913 -0.283361 -1.4154e-19)
(1.52318 -0.0780845 3.90561e-19)
(1.61196 -0.0188344 1.56514e-19)
(1.03654 -0.877829 1.5393e-18)
(1.1787 -0.709001 4.04939e-18)
(1.34379 -0.352849 6.75749e-20)
(1.53244 -0.117836 4.17299e-19)
(1.61386 -0.0346644 -4.96171e-20)
(1.33057 -0.98853 1.22229e-18)
(1.35935 -0.770723 -4.1945e-19)
(1.38899 -0.412404 -7.74346e-19)
(1.51788 -0.15092 -2.93789e-19)
(1.60678 -0.0484073 2.57966e-20)
(1.62985 -1.04738 3.23056e-21)
(1.55538 -0.810891 -1.70272e-18)
(1.4491 -0.461049 0)
(1.48702 -0.196405 2.72251e-19)
(1.55134 -0.0629459 4.50021e-20)
(2.15625 -1.11522 -1.5789e-18)
(1.83407 -0.800793 -4.9407e-19)
(1.55948 -0.453871 -1.01831e-20)
(1.41877 -0.197537 6.00896e-20)
(1.37617 -0.0635498 -2.15102e-19)
(2.63267 -0.889746 -1.6122e-18)
(1.90023 -0.59101 2.97543e-18)
(1.43349 -0.317919 6.09352e-21)
(1.16558 -0.145176 2.03287e-19)
(1.10855 -0.0465597 0)
(2.47863 -0.522804 -6.92748e-18)
(1.60565 -0.338883 -1.49263e-19)
(1.14915 -0.178063 1.99143e-18)
(0.896772 -0.0873167 -3.18265e-19)
(0.819785 -0.0299629 -4.52577e-20)
(1.76238 -0.219985 6.83573e-18)
(1.08882 -0.135718 1.24795e-18)
(0.75183 -0.0675861 2.24228e-19)
(0.573448 -0.0349738 2.89012e-33)
(0.506053 -0.0133881 -7.88444e-20)
(0.683158 0.000161718 1.55232e-18)
(0.39529 0.0235415 7.13023e-19)
(0.267611 0.0240508 -5.17858e-19)
(0.206143 0.0144232 2.20584e-19)
(0.177428 0.00508247 -6.89851e-20)
(3.58189 -0.168158 1.25617e-17)
(3.41717 -0.502935 -1.04435e-17)
(3.13668 -0.78699 7.10864e-18)
(2.7806 -0.996084 2.32075e-18)
(2.33313 -1.10179 -4.14328e-19)
(3.78454 -0.103586 1.03948e-17)
(3.71748 -0.324458 -6.63904e-19)
(3.57774 -0.55182 -4.26997e-18)
(3.3783 -0.785754 2.68994e-18)
(3.10034 -1.01977 -6.62792e-19)
(3.11484 -0.0605671 3.65445e-18)
(3.09866 -0.181683 -2.51879e-18)
(3.05962 -0.309665 5.01275e-18)
(2.99892 -0.444854 -1.52932e-19)
(2.92437 -0.593614 -4.79055e-18)
(2.19087 -0.0276238 2.78877e-18)
(2.18384 -0.0833701 8.43037e-18)
(2.16463 -0.144006 -6.53261e-19)
(2.13408 -0.207281 -6.60859e-18)
(2.11307 -0.269437 1.94592e-18)
(0.87944 -0.00184245 5.21225e-18)
(0.87649 -0.00523908 -1.16439e-19)
(0.867371 -0.00956812 -4.25788e-20)
(0.850509 -0.0162545 -2.00939e-18)
(0.841158 -0.0229065 -3.60544e-18)
(1.65313 0.940077 2.27544e-18)
(1.3483 0.816709 -7.86883e-20)
(1.00338 0.658652 -3.51954e-20)
(0.627869 0.449481 -1.96277e-19)
(0.225228 0.182296 -1.34103e-19)
(2.0705 0.892515 -1.21848e-18)
(1.71068 0.777736 -1.20295e-18)
(1.29832 0.632588 7.31966e-19)
(0.834042 0.438724 -4.84105e-19)
(0.312141 0.182088 -4.0787e-21)
(2.4186 0.735855 -5.89262e-19)
(2.01967 0.645357 5.25248e-19)
(1.555 0.528763 2.43659e-18)
(1.01754 0.370198 8.0831e-19)
(0.391338 0.155286 5.26069e-19)
(2.68202 0.486721 1.53904e-20)
(2.25239 0.428295 -2.7163e-19)
(1.74743 0.352326 -6.46754e-19)
(1.15477 0.247647 2.05641e-18)
(0.450326 0.104145 -3.26832e-19)
(2.82547 0.173873 -1.17057e-18)
(2.37728 0.152648 -1.60649e-18)
(1.8494 0.125348 -7.28694e-19)
(1.22672 0.0878349 7.9628e-19)
(0.480857 0.036687 -3.2583e-19)
(0.241002 0.417089 -2.14753e-18)
(0.170841 0.353562 -1.82131e-18)
(0.103368 0.277122 3.16527e-19)
(0.0457292 0.183701 -4.69441e-20)
(-0.00163028 0.0675877 3.41796e-20)
(0.371115 0.59469 -8.01748e-19)
(0.274179 0.510276 -6.71113e-19)
(0.178828 0.399579 1.21144e-20)
(0.0926041 0.259627 -2.55741e-20)
(0.0168624 0.0965528 2.61503e-20)
(0.581692 0.753885 2.18412e-18)
(0.446223 0.649969 -1.52458e-19)
(0.307951 0.507381 -1.44769e-19)
(0.174405 0.328655 -2.15337e-19)
(0.0484078 0.123995 1.67446e-19)
(0.862056 0.875108 -1.29544e-18)
(0.679169 0.758501 1.97653e-18)
(0.485285 0.59422 3.04323e-19)
(0.28834 0.388446 1.02128e-19)
(0.092541 0.149192 -1.18365e-19)
(1.20368 0.925243 -4.41331e-19)
(0.969111 0.811848 -4.57994e-19)
(0.708595 0.645106 3.60199e-19)
(0.433328 0.429182 3.59368e-19)
(0.148463 0.168538 1.89651e-21)
(0.936716 0.165592 -4.23874e-19)
(1.49231 0.134331 5.24222e-20)
(1.32636 0.19606 1.95686e-20)
(1.01276 0.499954 -5.02198e-19)
(0.598796 0.645504 5.2369e-20)
(0.941395 0.0877416 1.62178e-19)
(1.50063 0.109955 2.94183e-19)
(1.35347 0.244805 2.60909e-19)
(1.06023 0.615257 -6.06237e-20)
(0.784703 0.803306 7.59138e-19)
(0.94465 0.010652 5.53804e-20)
(1.51539 0.0863255 -2.06612e-20)
(1.35423 0.293863 -5.70052e-20)
(1.16551 0.712555 -4.31422e-19)
(1.03728 0.937594 1.13466e-19)
(0.945989 -0.064204 -1.9464e-20)
(1.52216 0.0662943 -6.97688e-19)
(1.35985 0.343279 8.75249e-20)
(1.327 0.779512 1.20482e-18)
(1.33494 1.04202 9.45264e-19)
(0.94385 -0.137327 -2.63712e-20)
(1.50835 0.0566095 2.02551e-19)
(1.38242 0.392094 -6.43284e-20)
(1.51069 0.821099 -3.85234e-19)
(1.63603 1.09203 -2.7349e-18)
(0.930986 -0.231988 2.3373e-19)
(1.46967 0.0233039 4.84402e-19)
(1.46269 0.3901 -3.20033e-20)
(1.76759 0.800081 3.08497e-18)
(2.15308 1.14335 -5.52054e-18)
(0.88395 -0.344403 -2.51034e-20)
(1.3336 -0.0282934 -6.45783e-19)
(1.40594 0.280816 7.18573e-21)
(1.84326 0.594788 -3.06689e-18)
(2.59447 0.900648 1.66937e-18)
(0.78618 -0.411947 5.51628e-18)
(1.08191 -0.089661 6.83763e-35)
(1.13615 0.14972 -2.13514e-18)
(1.57668 0.339824 2.63916e-18)
(2.4567 0.529627 5.03199e-18)
(0.634286 -0.291704 1.50495e-19)
(0.714093 -0.0716975 5.27216e-19)
(0.733013 0.0519792 2.48724e-19)
(1.07551 0.135044 6.23064e-19)
(1.75836 0.220501 -8.64393e-18)
(0.322549 -0.0431627 -4.3069e-18)
(0.293877 0.00559157 2.83351e-19)
(0.265359 -0.0132719 1.11049e-18)
(0.393499 -0.024028 -7.70618e-19)
(0.686175 -0.000453156 -1.46606e-18)
(2.34862 1.12119 4.69038e-18)
(2.78729 1.01256 3.4728e-18)
(3.14088 0.803386 -5.69171e-18)
(3.41899 0.519603 -1.46159e-17)
(3.5824 0.18588 1.57636e-17)
(3.07888 1.01884 5.00883e-18)
(3.35407 0.795224 2.56355e-17)
(3.55697 0.560668 7.24263e-18)
(3.70111 0.331823 -3.08292e-17)
(3.77794 0.111137 -5.17337e-18)
(2.90573 0.592001 -7.22861e-18)
(2.98598 0.448101 -3.38046e-18)
(3.05218 0.312113 -6.29755e-18)
(3.09524 0.181726 -6.88931e-18)
(3.11401 0.0584286 6.52281e-18)
(2.10627 0.265906 5.41547e-18)
(2.13012 0.205752 -4.0463e-19)
(2.16254 0.143043 4.87118e-18)
(2.18312 0.0821355 6.28923e-18)
(2.19077 0.025998 -5.88787e-18)
(0.842534 0.0220582 -5.74635e-19)
(0.851931 0.0156553 3.52099e-18)
(0.868633 0.00913225 2.44315e-18)
(0.877492 0.00479292 -5.16938e-18)
(0.879838 0.00136166 -3.84286e-20)
(0.281977 0.0207598 5.52126e-19)
(0.656765 0.0404724 -7.43591e-19)
(0.973261 0.0440731 -8.18491e-19)
(0.944431 0.0274356 -1.51802e-18)
(0.697942 0.0163883 -6.63734e-19)
(0.245615 0.0554683 7.45747e-19)
(0.59135 0.10709 1.44151e-18)
(0.86479 0.12516 -6.97373e-19)
(0.940058 0.0970127 1.96082e-18)
(0.724266 0.0532491 -2.70089e-18)
(0.185648 0.0742756 4.96245e-19)
(0.476455 0.145916 -1.3989e-18)
(0.70786 0.184786 -9.13924e-19)
(0.857411 0.175437 -1.81024e-18)
(0.741646 0.101245 -2.86233e-18)
(0.123322 0.0774844 -7.72677e-19)
(0.344807 0.160375 -1.37664e-18)
(0.534599 0.214905 4.39914e-18)
(0.677801 0.233343 -3.66699e-19)
(0.713127 0.180051 2.25507e-18)
(0.0752807 0.0723743 -6.22991e-19)
(0.230736 0.160118 1.56427e-18)
(0.372314 0.224549 6.12354e-19)
(0.482865 0.257803 -1.29589e-18)
(0.561377 0.258497 -1.74884e-19)
(0.0451482 0.0637772 8.42655e-20)
(0.149955 0.148763 -1.22232e-18)
(0.247754 0.212155 -9.45757e-19)
(0.325468 0.234127 -8.67705e-20)
(0.371259 0.223881 -5.00113e-20)
(0.0264613 0.0556948 3.12138e-19)
(0.0950715 0.134295 5.94713e-19)
(0.160892 0.184861 -2.08432e-19)
(0.213776 0.195526 2.59581e-19)
(0.253626 0.185485 1.71423e-19)
(0.0133321 0.0488591 2.49939e-19)
(0.0586101 0.111501 1.31119e-18)
(0.103709 0.121362 -1.23769e-18)
(0.142682 0.107589 -2.78724e-18)
(0.178863 0.0861724 4.08364e-19)
(0.00616566 0.0393822 -2.37595e-19)
(0.0425303 0.0491477 -1.8085e-18)
(0.0798129 0.0221643 3.21859e-18)
(0.119851 -0.00959208 1.31509e-18)
(0.161331 -0.0433541 -2.69632e-19)
(0.00999737 0.002215 2.10029e-19)
(0.0421305 -0.0496956 -4.52363e-19)
(0.0822123 -0.0958656 8.99097e-20)
(0.130893 -0.143821 1.05225e-19)
(0.181584 -0.190025 2.84009e-21)
(0.338672 0.0720635 -7.50118e-20)
(0.613155 -0.0421126 -1.22408e-18)
(0.702669 -0.0132749 2.53997e-19)
(0.714784 0.00603471 3.99903e-19)
(0.700572 0.00334553 1.26215e-20)
(0.302785 -0.0340818 -1.00155e-19)
(0.74961 -0.114643 1.46476e-18)
(0.88642 -0.022887 9.18581e-19)
(0.913698 0.00915106 7.57641e-20)
(0.904402 0.00571217 -3.46528e-20)
(0.319502 -0.149397 -8.09653e-19)
(0.834216 -0.19783 3.14635e-18)
(1.04778 -0.0420978 -1.81408e-19)
(1.10029 0.0109356 -3.62672e-19)
(1.09617 0.00799996 7.19418e-20)
(0.375772 -0.288072 1.1059e-18)
(0.883536 -0.29726 -2.71056e-18)
(1.17012 -0.0827283 -5.33129e-19)
(1.26586 0.00720157 -3.2119e-20)
(1.27254 0.00871221 1.6433e-21)
(0.462849 -0.436442 5.02048e-19)
(0.918977 -0.404555 -5.49922e-19)
(1.24829 -0.142422 4.79124e-19)
(1.39902 -0.00704176 1.17947e-19)
(1.42687 0.00682218 -4.75906e-21)
(0.182963 -0.0449843 9.54887e-19)
(0.144894 -0.00525882 0)
(0.162403 0.000991495 1.16412e-19)
(0.161903 -0.000365129 -5.24473e-21)
(0.156273 -0.00071025 -7.27398e-20)
(0.399676 0.0700216 0)
(0.408296 -0.000435964 0)
(0.46605 -0.00408542 5.05109e-20)
(0.467369 0.00322765 -2.77271e-20)
(0.452727 0.00138401 4.4193e-20)
(0.16269 -0.000821287 -3.68466e-19)
(0.186408 -0.00179208 3.10767e-18)
(0.213218 -0.00502082 -6.86297e-19)
(0.229816 -0.0149893 -3.117e-18)
(0.24571 -0.0170123 -7.97017e-19)
(0.43204 0.00444137 6.09929e-19)
(0.48457 0.0196962 4.11557e-18)
(0.536466 0.0466984 -6.73001e-18)
(0.567635 0.0806185 2.20943e-18)
(0.598323 0.162222 3.79768e-18)
(0.37072 -0.220618 -3.32718e-19)
(0.324348 -0.231604 -9.29452e-20)
(0.248386 -0.212662 -3.30668e-19)
(0.150767 -0.15074 3.88203e-19)
(0.0458671 -0.0645779 1.14065e-19)
(0.257519 -0.169628 4.22316e-19)
(0.215073 -0.181717 1.41379e-18)
(0.162386 -0.177064 2.59348e-19)
(0.0967179 -0.135082 2.36408e-19)
(0.0269024 -0.0571926 -1.86243e-20)
(0.19319 -0.0548083 -3.11123e-19)
(0.151617 -0.0773704 -1.05254e-19)
(0.108779 -0.0949269 1.63362e-18)
(0.0623219 -0.0971657 2.86243e-19)
(0.0132384 -0.0479992 -3.13587e-19)
(0.178687 0.0868797 -6.36045e-19)
(0.132656 0.0530323 -7.05969e-19)
(0.0877611 0.0193315 1.30952e-18)
(0.0494785 -0.0107486 1.60116e-18)
(0.0112337 -0.0298601 1.99e-19)
(0.188715 0.244151 1.23727e-19)
(0.134308 0.197857 -1.20236e-19)
(0.0819066 0.148061 2.4837e-19)
(0.0382097 0.0969705 6.22425e-19)
(-0.00227243 0.0356119 9.24737e-20)
(0.697939 -0.0163436 1.53156e-18)
(0.944437 -0.0274127 -1.80083e-18)
(0.973069 -0.0441991 2.27003e-18)
(0.656777 -0.0405349 3.64618e-19)
(0.28201 -0.0207685 5.36681e-19)
(0.724256 -0.0531419 1.77259e-18)
(0.939916 -0.0970273 7.94683e-18)
(0.864587 -0.125264 1.03367e-18)
(0.591403 -0.10713 1.3495e-18)
(0.245711 -0.0554895 -4.78509e-19)
(0.741564 -0.101 -1.22148e-18)
(0.856807 -0.175272 -2.29647e-18)
(0.707781 -0.184847 2.92447e-18)
(0.476522 -0.145984 -1.08279e-19)
(0.185771 -0.0743113 3.39521e-19)
(0.712602 -0.179871 1.76202e-20)
(0.677098 -0.23329 -7.68595e-18)
(0.534634 -0.215236 -5.99956e-18)
(0.344943 -0.16071 1.09165e-18)
(0.123504 -0.0775885 5.08043e-19)
(0.558962 -0.256972 4.68212e-19)
(0.481842 -0.25722 5.33456e-19)
(0.372386 -0.225271 -8.99454e-19)
(0.230992 -0.160992 -8.88277e-19)
(0.0756291 -0.0726325 -5.14432e-21)
(0.72755 0.373119 1.1756e-18)
(0.880892 0.127656 -1.91218e-19)
(0.677422 0.0194293 2.51816e-19)
(0.645359 0.0362887 -7.55771e-19)
(0.362656 -0.0618431 -1.00786e-19)
(0.827306 0.398054 -1.70434e-19)
(1.08933 0.157637 -5.68072e-19)
(0.868965 0.0379064 8.35355e-19)
(0.805173 0.0994856 1.6789e-18)
(0.340554 0.0541245 1.03487e-19)
(0.891907 0.372656 -2.24762e-18)
(1.2697 0.171724 -3.74365e-20)
(1.03973 0.0621183 2.50186e-19)
(0.908919 0.178889 1.69685e-18)
(0.364856 0.176705 -1.43811e-18)
(0.922801 0.317314 1.48778e-18)
(1.41466 0.173924 1.6203e-20)
(1.17653 0.0999251 -2.13658e-19)
(0.964197 0.27748 -7.42907e-19)
(0.415585 0.323345 -5.87388e-19)
(0.931906 0.243723 1.74919e-19)
(1.4877 0.157187 3.79893e-20)
(1.26973 0.146234 -7.70721e-20)
(0.992168 0.385268 -8.69274e-20)
(0.485663 0.480629 1.36056e-18)
(0.275648 0.04837 0)
(0.244319 -0.0112365 6.49418e-19)
(0.157672 -0.0159183 1.27215e-19)
(0.15053 0.00553135 -1.10137e-19)
(0.184392 0.0440945 -1.80762e-18)
(0.573333 0.266338 -1.01979e-17)
(0.609549 0.0751672 -2.56229e-18)
(0.445379 0.0130922 4.99737e-19)
(0.424259 0.000511875 -6.57666e-19)
(0.407641 -0.068323 -6.62007e-19)
(0.245846 0.0169756 -9.40785e-22)
(0.229912 0.0150778 1.92875e-18)
(0.213295 0.0050643 5.24496e-19)
(0.186458 0.001802 3.23023e-19)
(0.162705 0.000825148 0)
(0.599213 -0.162117 -1.14494e-19)
(0.568195 -0.080325 2.54723e-18)
(0.536573 -0.0464753 -1.37623e-19)
(0.48463 -0.0196431 -2.70491e-19)
(0.432064 -0.00441911 7.60499e-19)
)
;

boundaryField
{
    left
    {
        type            fixedValue;
        value           uniform (1 0 0);
    }
    right
    {
        type            zeroGradient;
    }
    down
    {
        type            noSlip;
    }
    up
    {
        type            noSlip;
    }
    cylinder
    {
        type            noSlip;
    }
    defaultFaces
    {
        type            empty;
    }
}


// ************************************************************************* //
