/*--------------------------------*- C++ -*----------------------------------*\
  =========                 |
  \\      /  F ield         | OpenFOAM: The Open Source CFD Toolbox
   \\    /   O peration     | Website:  https://openfoam.org
    \\  /    A nd           | Version:  13
     \\/     M anipulation  |
\*---------------------------------------------------------------------------*/
FoamFile
{
    format      ascii;
    class       volScalarField;
    location    "31.8";
    object      p;
}
// * * * * * * * * * * * * * * * * * * * * * * * * * * * * * * * * * * * * * //

dimensions      [0 2 -2 0 0 0 0];

internalField   nonuniform List<scalar> 
440
(
-1.16585
-1.14559
-1.1359
-1.12904
-1.18217
-1.23115
-1.206
-1.18108
-1.15607
-1.131
-1.36182
-1.31944
-1.26341
-1.19033
-1.11146
-1.49787
-1.44033
-1.31995
-1.17991
-1.03895
-1.57366
-1.48951
-1.30366
-1.11395
-0.943725
-0.89107
-0.934218
-1.05051
-1.23909
-1.45232
-1.15875
-1.17763
-1.23541
-1.32771
-1.45627
-1.15306
-1.13542
-1.11675
-1.10436
-1.11367
-1.14715
-1.12976
-1.1155
-1.11642
-1.14818
-1.14439
-1.12714
-1.11485
-1.11224
-1.13937
-0.669524
-0.0707406
-0.365753
0.117854
-0.133233
-0.849998
-0.264435
-0.372551
0.166204
-0.152652
-0.959827
-0.193699
-0.0320199
0.210915
-0.192939
-1.18223
-0.0735672
0.527629
0.255215
-0.208802
-1.25722
-0.0809389
0.728222
0.33254
-0.166288
-0.977918
-0.00202771
0.479924
0.410137
-0.0817505
-0.479436
0.237259
0.163191
0.137899
-0.00072918
-0.283386
0.326383
0.565415
0.169794
0.0220401
-0.113689
0.249058
0.592343
0.235702
0.00660863
-0.0361012
0.213222
0.66436
0.375476
0.0404664
-0.656361
-0.776491
-0.940332
-1.09794
-1.27653
-0.371915
-0.492417
-0.582084
-0.642344
-0.68042
-0.181154
-0.285929
-0.339753
-0.375163
-0.389246
-0.0675013
-0.15649
-0.203872
-0.224212
-0.218795
-0.014317
-0.0996641
-0.144022
-0.156511
-0.135232
0.807734
0.644896
0.437131
0.204672
-0.0502138
0.353935
0.179931
-0.0306217
-0.271713
-0.551521
-0.0879744
-0.267242
-0.492697
-0.742343
-1.01463
-0.486875
-0.668845
-0.902309
-1.14932
-1.36369
-0.753142
-0.947046
-1.16895
-1.40027
-1.54468
1.99671
2.02385
2.047
2.05525
2.04604
1.78163
1.79766
1.80658
1.79742
1.76578
1.54912
1.53099
1.48791
1.4205
1.32471
1.27895
1.24031
1.1633
1.05307
0.911188
1.04712
0.931778
0.783941
0.61474
0.408957
1.79667
1.78501
1.76596
1.83174
1.89799
1.7848
1.77199
1.74203
1.80407
1.79298
1.77405
1.75638
1.71601
1.76346
1.66357
1.76453
1.73897
1.68792
1.7111
1.47735
1.75632
1.72005
1.65864
1.65527
1.28189
1.74937
1.6934
1.62207
1.54593
1.06604
1.74288
1.66155
1.60002
1.44061
1.19251
1.74929
1.64248
1.57182
1.39427
1.20595
1.74295
1.61451
1.55512
1.34505
1.2109
1.77964
1.61192
1.54574
1.31961
1.21559
0.771431
0.44685
0.0835033
-0.244698
-0.454671
0.656885
0.429387
0.183446
-0.0355761
-0.222862
0.644595
0.459767
0.274301
0.106266
-0.0574685
0.702373
0.521468
0.349791
0.194537
0.0487607
0.72594
0.547206
0.385663
0.238934
0.0991518
-0.674321
-0.569039
-0.431731
-0.320821
-0.254601
-0.725916
-0.673434
-0.571604
-0.490223
-0.442753
-0.652806
-0.609753
-0.554478
-0.509991
-0.483075
-0.520072
-0.487083
-0.453037
-0.42839
-0.412308
-0.424869
-0.407136
-0.388391
-0.378023
-0.4001
-0.37236
-0.365768
-0.351222
-0.348809
-0.331161
-0.3654
-0.364146
-0.361635
-0.367939
-0.375467
-0.34316
-0.34538
-0.353467
-0.370717
-0.386439
-0.349832
-0.346825
-0.348536
-0.347361
-0.333321
-0.353179
-0.383282
-0.465322
-0.58217
-0.641414
-0.46031
0.638522
0.288762
0.0515813
-0.0418489
-0.394625
0.763683
0.204764
0.0412233
-0.0710066
-0.275427
0.892552
0.101001
0.0441568
-0.0934608
-0.202828
0.782822
-0.0122138
0.062834
-0.109891
-0.352699
0.386114
-0.189149
0.0880399
-0.12046
0.00120972
0.39538
0.275496
0.0622344
0.0102506
-0.341781
0.453571
0.336436
0.0777953
-0.00801073
-0.216323
-0.43217
-0.443647
-0.430391
-0.214767
-0.232657
-0.426833
-0.46675
-0.417829
-0.432748
1.81851
1.80502
1.77689
1.73551
1.68066
1.96763
1.99077
2.00126
1.99769
1.98078
2.08835
2.12255
2.15037
2.16744
2.17131
2.14412
2.18246
2.22268
2.25552
2.2712
2.11332
2.14776
2.18507
2.21514
2.22782
0.110624
0.0251265
-0.108454
-0.272441
-0.444497
0.599337
0.488241
0.339092
0.161102
-0.0493626
1.0357
0.919448
0.780962
0.619247
0.427401
1.38014
1.29235
1.18511
1.05602
0.904895
1.65382
1.59533
1.51857
1.42668
1.32049
1.8669
1.82538
1.82418
1.85273
1.8992
1.85045
1.82028
1.8193
1.86108
1.93751
1.836
1.81378
1.81301
1.86996
1.98793
1.82222
1.80596
1.80173
1.86721
1.98325
1.80906
1.7966
1.78559
1.8547
1.95736
1.92527
1.83561
1.81987
1.79291
1.79335
1.87852
1.82468
1.81256
1.80891
1.80624
1.55909
1.39342
1.08885
0.635697
0.136306
1.62327
1.41599
1.1005
0.652453
0.14343
)
;

boundaryField
{
    left
    {
        type            zeroGradient;
    }
    right
    {
        type            fixedValue;
        value           uniform 0;
    }
    down
    {
        type            zeroGradient;
    }
    up
    {
        type            zeroGradient;
    }
    cylinder
    {
        type            zeroGradient;
    }
    defaultFaces
    {
        type            empty;
    }
}


// ************************************************************************* //
