# Selection   : all
# Cells       : 440
# Volume      : 7.374263e+01
# Time        	maxMag(U)
1.5           	2.665488e+00
1.55          	2.661709e+00
1.6           	2.658109e+00
