/*--------------------------------*- C++ -*----------------------------------*\
  =========                 |
  \\      /  F ield         | OpenFOAM: The Open Source CFD Toolbox
   \\    /   O peration     | Website:  https://openfoam.org
    \\  /    A nd           | Version:  13
     \\/     M anipulation  |
\*---------------------------------------------------------------------------*/
FoamFile
{
    format      ascii;
    class       surfaceScalarField;
    location    "0.33";
    object      phi;
}
// * * * * * * * * * * * * * * * * * * * * * * * * * * * * * * * * * * * * * //

dimensions      [0 3 -1 0 0 0 0];

internalField   nonuniform List<scalar> 
3485
(
0.0013716
-0.0112584
0.00988685
0.00505108
-0.0319075
0.028228
0.0107643
-0.0513834
0.0456702
0.0183132
-0.0696768
0.0621279
0.027547
-0.0868338
0.0776
0.0383515
-0.102898
0.0920938
0.0506383
-0.117901
0.105615
0.0643644
-0.131863
0.118137
0.0796273
-0.144851
0.129588
-0.156881
0.139486
0.0970229
0.0015003
-0.0127587
0.0054458
-0.035853
0.0114763
-0.0574139
0.0193241
-0.0775245
0.0287741
-0.0962838
0.0396491
-0.113773
0.051805
-0.130057
0.065134
-0.145192
0.0795447
-0.159262
-0.172188
0.0948512
0.00147415
-0.0142329
0.00532697
-0.0397058
0.0111746
-0.0632616
0.0187213
-0.0850712
0.0277263
-0.105289
0.0379904
-0.124037
0.0493477
-0.141415
0.0616588
-0.157503
0.0747917
-0.172394
-0.186031
0.0886349
0.00133885
-0.0155717
0.00485905
-0.043226
0.010211
-0.0686135
0.0171175
-0.0919777
0.0253548
-0.113526
0.034742
-0.133425
0.0451331
-0.151806
0.0564082
-0.168779
0.0684606
-0.184447
-0.198787
0.081217
0.00116694
-0.0167387
0.00425606
-0.0463151
0.00897339
-0.0733309
0.0150823
-0.0980866
0.0223927
-0.120837
0.0307542
-0.141786
0.0400489
-0.1611
0.0501842
-0.178914
0.0610827
-0.195345
-0.210401
0.0726964
0.000980046
-0.0177187
0.00358807
-0.0489232
0.00758693
-0.0773297
0.0127846
-0.103284
0.0190272
-0.127079
0.0261943
-0.148953
0.034194
-0.1691
0.042957
-0.187677
0.0524283
-0.204817
-0.22055
0.0625769
0.000780762
-0.0184995
0.00286516
-0.0510076
0.00606935
-0.0805339
0.0102436
-0.107458
0.0152677
-0.132103
0.0210484
-0.154734
0.0275167
-0.175568
0.0346237
-0.194784
0.0423355
-0.212528
-0.228852
0.0506383
0.000569747
-0.0190692
0.00209364
-0.0525315
0.00443827
-0.0828785
0.00749338
-0.110514
0.0111698
-0.13578
0.0153984
-0.158963
0.0201297
-0.1803
0.0253323
-0.199987
0.0309901
-0.218186
-0.23497
0.0371076
0.000352555
-0.0194218
0.00129594
-0.0534748
0.0027454
-0.084328
0.00462898
-0.112397
0.00688744
-0.138038
0.00947443
-0.16155
0.012357
-0.183182
0.0155165
-0.203146
0.0189476
-0.221617
-0.238687
0.0226649
0.000137844
-0.0195596
0.000502632
-0.0538396
0.00105731
-0.0848827
0.00177009
-0.11311
0.00261449
-0.138883
0.00356941
-0.162504
0.00461936
-0.184232
0.0057548
-0.204282
0.0069723
-0.222835
0.00827691
-0.239992
0.000505955
-0.00188067
0.00137471
0.00212973
-0.00625607
0.00463229
0.00546528
-0.0113521
0.00801651
0.0101459
-0.0160903
0.0114097
0.0155784
-0.0200839
0.0146514
0.0214916
-0.0234901
0.0175769
0.0279687
-0.0266722
0.0201952
0.0351542
-0.0298575
0.022672
0.0430375
-0.0330064
0.0251231
-0.0359717
0.051489
0.0275202
0.000427158
-0.00230783
0.00211557
-0.00794448
0.00545312
-0.0146896
0.0098558
-0.020493
0.0149582
-0.0251864
0.0208563
-0.0293881
0.0277198
-0.0335358
0.0355042
-0.0376418
0.0440046
-0.0415068
-0.0450239
0.0530568
0.00068021
-0.00298804
0.00271062
-0.00997489
0.00579632
-0.0177753
0.00981001
-0.0245067
0.0148899
-0.0302663
0.0212046
-0.0357028
0.0286898
-0.0410211
0.0370731
-0.0460251
0.0461362
-0.0505699
-0.0546733
0.0557856
0.00086594
-0.00385398
0.0030573
-0.0121663
0.00609412
-0.0208121
0.0102381
-0.0286506
0.015754
-0.0357821
0.0226271
-0.0425759
0.0306199
-0.049014
0.0394964
-0.0549016
0.0491585
-0.060232
-0.0650382
0.0595234
0.000920756
-0.00477474
0.00319873
-0.0144442
0.00652859
-0.024142
0.0111402
-0.0332622
0.0171708
-0.0418127
0.0244978
-0.0499029
0.0329309
-0.0574471
0.0423702
-0.0643408
0.0527511
-0.0706129
-0.0762286
0.0639415
0.000942358
-0.00571709
0.00337175
-0.0168736
0.00709619
-0.0278665
0.0121868
-0.0383529
0.0186535
-0.0482795
0.0263866
-0.057636
0.0352886
-0.0663491
0.045311
-0.0743632
0.0563744
-0.0816763
-0.0881755
0.0683213
0.000979109
-0.0066962
0.00358333
-0.0194778
0.00764306
-0.0319262
0.0131126
-0.0438224
0.0199361
-0.055103
0.0280279
-0.0657277
0.0373257
-0.0756469
0.0477828
-0.0848203
0.0593258
-0.0932194
-0.100659
0.0718097
0.00101751
-0.00771372
0.00376709
-0.0222274
0.00807127
-0.0362304
0.0138217
-0.0495728
0.020924
-0.0622053
0.0292894
-0.0740932
0.0388487
-0.0852062
0.0495448
-0.0955164
0.061319
-0.104994
-0.113411
0.0740707
0.00105432
-0.00876804
0.00393618
-0.0251093
0.00846065
-0.0407548
0.0144825
-0.0555947
0.0218757
-0.0695985
0.0305301
-0.0827476
0.0403506
-0.0950266
0.0512484
-0.106414
0.0631425
-0.116888
-0.126296
0.0760278
0.00111881
0.00423756
0.00915292
0.0156862
0.0236877
0.033034
0.043622
0.055345
0.0680453
0.0812347
0.114354
-0.413098
0.350233
0.168004
-0.469517
0.415867
0.209709
-0.418533
0.376828
0.242693
-0.322555
0.289571
0.267909
-0.21009
0.184874
0.285611
-0.104661
0.0869585
0.295248
-0.0338316
0.0241951
0.299394
-0.00805968
0.0039134
0.300751
-0.00331812
0.00196175
-4.89844e-05
0.000994353
0.116085
-0.476126
0.169813
-0.523245
0.211626
-0.460347
0.24441
-0.355339
0.269557
-0.235237
0.286966
-0.122069
0.296195
-0.0430609
0.300087
-0.0119519
0.301507
-0.0047377
0.000826915
0.11798
-0.538321
0.17082
-0.576084
0.2124
-0.501926
0.244757
-0.387696
0.269778
-0.260258
0.286795
-0.139087
0.295667
-0.051932
0.299571
-0.0158563
0.301142
-0.00630893
0.00150282
0.120383
-0.59918
0.171283
-0.626985
0.212142
-0.542785
0.243844
-0.419398
0.268675
-0.285089
0.285467
-0.155879
0.294334
-0.0607987
0.298639
-0.0201614
0.300631
-0.00830141
0.00171874
0.123261
-0.6585
0.171421
-0.675145
0.210966
-0.582329
0.241773
-0.450205
0.266301
-0.309617
0.283103
-0.172681
0.292347
-0.0700431
0.297359
-0.0251738
0.300014
-0.0109555
0.00123121
0.126085
-0.716263
0.171291
-0.720351
0.208973
-0.620012
0.238639
-0.479871
0.262698
-0.333675
0.279734
-0.189717
0.289741
-0.0800498
0.295747
-0.0311803
0.299291
-0.0144992
-0.000197033
0.127989
-0.772443
0.170731
-0.763093
0.206248
-0.655529
0.234563
-0.508186
0.257941
-0.357053
0.27537
-0.207147
0.286522
-0.0912019
0.293812
-0.0384697
0.298467
-0.0191545
-0.00279543
0.128041
-0.826414
0.169274
-0.804326
0.202687
-0.688942
0.22955
-0.53505
0.252051
-0.379553
0.269966
-0.225062
0.282668
-0.103905
0.291553
-0.047354
0.297536
-0.0251383
-0.00679997
0.125938
-0.876324
0.166518
-0.844905
0.198262
-0.720686
0.223734
-0.560521
0.24517
-0.400989
0.26356
-0.243453
0.27817
-0.118515
0.288951
-0.0581345
0.296467
-0.0326545
-0.01244
0.122234
-0.917324
0.161661
-0.884332
0.192106
-0.751131
0.216464
-0.584879
0.236869
-0.421394
0.255777
-0.262361
0.272806
-0.135544
0.285737
-0.0710647
0.294418
-0.0413358
-0.0194287
0.583841
-0.919738
-0.581427
0.561063
-0.861554
0.523802
-0.71387
0.487343
-0.54842
0.459302
-0.393353
0.44716
-0.25022
0.448993
-0.137377
0.449622
-0.0716938
0.445236
-0.0369496
-0.0174365
0.682761
-0.871099
-0.7314
0.619677
-0.79847
0.554212
-0.648405
0.49774
-0.491948
0.455878
-0.351491
0.434302
-0.228644
0.424833
-0.127907
0.416683
-0.0635437
0.410673
-0.0309401
-0.015155
0.754066
-0.77476
-0.850405
0.655509
-0.699913
0.564543
-0.557438
0.489978
-0.417383
0.434318
-0.295831
0.400483
-0.194808
0.385034
-0.112459
0.377383
-0.0558921
0.372322
-0.0258795
-0.0127669
0.77925
-0.641448
-0.912562
0.654343
-0.575006
0.547431
-0.450527
0.463169
-0.333121
0.401702
-0.234364
0.362714
-0.15582
0.343286
-0.0930309
0.334331
-0.0469375
0.329418
-0.0209668
-0.0103717
0.753199
-0.492322
-0.902325
0.617993
-0.439801
0.50696
-0.339494
0.421528
-0.247688
0.360046
-0.172882
0.31993
-0.115704
0.298238
-0.0713382
0.288368
-0.0370679
0.283656
-0.0162544
-0.00804725
0.685221
-0.345788
-0.831755
0.552933
-0.307512
0.446892
-0.233453
0.366863
-0.167659
0.309955
-0.115974
0.272292
-0.0780412
0.250554
-0.0496003
0.240187
-0.0267009
0.235569
-0.0116364
-0.00580892
0.582673
-0.213844
-0.714617
0.463001
-0.18784
0.369546
-0.139999
0.300436
-0.0985488
0.251973
-0.0675112
0.219625
-0.0456937
0.19995
-0.029925
0.189991
-0.0167414
0.185643
-0.00728874
-0.00372965
0.448781
-0.105519
-0.557105
0.351227
-0.0902856
0.277165
-0.0659367
0.223783
-0.0451668
0.186933
-0.0306615
0.162181
-0.020942
0.146427
-0.0141704
0.137941
-0.00825549
0.134205
-0.003553
-0.0019279
0.286597
-0.0302205
-0.361896
0.220926
-0.0246143
0.172529
-0.0175403
0.138817
-0.011454
0.115844
-0.00768894
0.10024
-0.00533817
0.0898606
-0.00379055
0.0839529
-0.00234779
0.081378
-0.000978086
-0.000615504
0.101315
-0.131535
0.0767006
0.0591603
0.0477063
0.0400174
0.0346792
0.0308887
0.0285409
0.0275628
0.73883
0.0102246
-0.740778
0.733083
0.0284122
0.723442
0.0467488
0.710165
0.0639146
0.693568
0.079174
0.674069
0.0921955
0.652258
0.103028
0.62869
0.112204
0.604235
0.119306
0.11983
0.845556
0.0134009
-0.848732
0.837326
0.0366418
0.827289
0.0567853
0.816591
0.0746128
0.805244
0.0905218
0.792883
0.104556
0.779261
0.11665
0.764554
0.12691
0.749076
0.134784
0.137507
0.844998
0.0114291
-0.843026
0.8489
0.0327404
0.853039
0.0526456
0.856492
0.0711596
0.858853
0.0881607
0.859937
0.103472
0.859607
0.11698
0.85797
0.128547
0.855291
0.137463
0.142393
0.800222
0.00930799
-0.7981
0.805831
0.0271307
0.814432
0.0440446
0.825656
0.0599356
0.83903
0.0747873
0.85389
0.0886125
0.869471
0.101398
0.885116
0.112902
0.900011
0.122568
0.129842
0.737872
0.0070419
-0.735606
0.744161
0.0208412
0.754132
0.0340739
0.767515
0.0465528
0.784099
0.0582032
0.803684
0.0690274
0.826023
0.0790591
0.850673
0.0882525
0.876615
0.0966263
0.104132
0.653924
0.00485649
-0.651739
0.660207
0.014558
0.670383
0.0238978
0.684228
0.0327087
0.701533
0.0408973
0.722123
0.0484377
0.745823
0.0553595
0.772355
0.0617206
0.801255
0.0677264
0.0736311
0.549114
0.00291781
-0.547175
0.554814
0.00885712
0.564141
0.0145714
0.576909
0.0199405
0.592919
0.0248871
0.611974
0.029383
0.633879
0.0334547
0.658418
0.0371814
0.685396
0.0407484
0.0444099
0.422792
0.00137664
-0.421251
0.427413
0.00423655
0.435008
0.00697594
0.445423
0.00952597
0.458471
0.0118387
0.473959
0.0138956
0.4917
0.0157137
0.511531
0.0173497
0.533352
0.0189274
0.0206569
0.273828
0.00036694
-0.272818
0.276915
0.00114961
0.281999
0.00189182
0.288955
0.0025694
0.29763
0.00316439
0.307856
0.00366901
0.319482
0.00408789
0.332395
0.00443652
0.346562
0.00476028
0.00532317
0.100483
-0.100116
0.101633
0.103525
0.106094
0.109259
0.112928
0.117015
0.121452
0.126212
0.0779726
0.159466
-0.14244
-0.094998
0.0630579
0.147431
-0.132516
0.04964
0.134384
-0.120966
0.037618
0.120317
-0.108295
0.0270359
0.105161
-0.0945792
0.0179834
0.0888894
-0.0798369
0.0105757
0.0714589
-0.0640512
0.00496446
0.0528098
-0.0471986
0.00134828
0.0328756
-0.0292595
0.0116399
-0.0102916
0.0779714
0.174407
-0.0929126
0.0638927
0.161509
0.0508544
0.147423
0.0389475
0.132224
0.0282818
0.115827
0.0190034
0.0981679
0.011291
0.0791712
0.00536009
0.0587408
0.00147729
0.0367584
0.0131172
0.0732024
0.187911
-0.0867062
0.0603857
0.174326
0.0483605
0.159448
0.0372549
0.14333
0.0272065
0.125875
0.0183809
0.106993
0.0109772
0.0865749
0.00523543
0.0644825
0.00144959
0.0405443
0.0145668
0.0667881
0.200343
-0.0792199
0.0550447
0.186069
0.0440567
0.170436
0.033926
0.153461
0.0247687
0.135033
0.0167279
0.115034
0.00998185
0.0933209
0.00475139
0.069713
0.00130958
0.0439861
0.0158764
0.059325
0.211652
-0.0706339
0.0487238
0.19667
0.0388728
0.180287
0.0298442
0.162489
0.0217258
0.143151
0.0146301
0.12213
0.00870239
0.0992487
0.00412635
0.074289
0.00113089
0.0469815
0.0170073
0.0506069
0.221519
-0.0604745
0.041417
0.20586
0.0329312
0.188772
0.0251994
0.170221
0.0182847
0.150066
0.0122725
0.128142
0.00727497
0.104246
0.00343644
0.0781276
0.000937226
0.0494807
0.0179445
0.040463
0.229565
-0.0485085
0.0330166
0.213307
0.0261788
0.19561
0.0199786
0.176421
0.014458
0.155586
0.0096776
0.132923
0.00572039
0.108203
0.00269367
0.0811543
0.000731791
0.0514426
0.0186763
0.0290576
0.235444
-0.0349367
0.0236534
0.218711
0.0187159
0.200548
0.0142558
0.180881
0.0102964
0.159546
0.00687748
0.136342
0.00405548
0.111025
0.00190416
0.0833056
0.000515238
0.0528315
0.0191915
0.0169188
0.238929
-0.0204041
0.0137426
0.221887
0.0108551
0.203435
0.00825477
0.183482
0.00595129
0.161849
0.00396625
0.138327
0.00233197
0.11266
0.00109053
0.084547
0.000293195
0.0536289
0.0194847
0.0048274
-0.00589024
0.00387985
0.0030334
0.0022828
0.00162763
0.00107158
0.000621327
0.000285671
7.49221e-05
0.0434801
0.0411515
-0.0523405
-0.0322911
0.0351415
0.038112
-0.0297734
0.027512
0.0347283
-0.0270988
0.0208087
0.0311389
-0.0244355
0.0150231
0.0275969
-0.0218113
0.00991627
0.0240512
-0.0189444
0.00538813
0.0199197
-0.0153915
0.00194187
0.0143326
-0.0108864
0.000377696
0.0073328
-0.00576862
0.00207034
-0.00169264
0.0437713
0.0503225
-0.0529423
0.0351195
0.0467638
0.0270834
0.0427644
0.0199462
0.038276
0.0140146
0.0335285
0.00928437
0.0287815
0.00551033
0.0236937
0.00255919
0.0172838
0.000613946
0.00927804
0.00268428
0.0451135
0.059902
-0.0546929
0.0361644
0.0557129
0.0278978
0.051031
0.0204362
0.0457376
0.0141067
0.0398579
0.00916775
0.0337205
0.00555799
0.0273035
0.00290595
0.0199358
0.000810046
0.0113739
0.00349433
0.0476144
0.0701206
-0.057833
0.0381448
0.0651825
0.0295375
0.0596384
0.0218319
0.0534432
0.0151588
0.0465309
0.00977883
0.0391005
0.0058119
0.0312704
0.00298481
0.0227629
0.000881981
0.0134768
0.00437631
0.0510773
0.0810815
-0.0620382
0.0409384
0.0753213
0.0317844
0.0687924
0.0236778
0.0615498
0.0166444
0.0535643
0.0108146
0.0449304
0.00632483
0.0357601
0.00308461
0.0260031
0.000887844
0.0156735
0.00526416
0.0547348
0.0927118
-0.066365
0.0439805
0.0860756
0.0342654
0.0785075
0.025665
0.0701502
0.0182024
0.0610269
0.0119354
0.0511973
0.0069606
0.0407349
0.00329521
0.0296685
0.000913968
0.0180548
0.00617812
0.0577405
0.104823
-0.0698516
0.0465521
0.097264
0.0364216
0.088638
0.0274101
0.0791618
0.019554
0.068883
0.0129044
0.057847
0.00754124
0.046098
0.00353583
0.0336739
0.000962927
0.0206277
0.00714105
0.0597548
0.117175
-0.0721067
0.0483536
0.108665
0.0379897
0.0990019
0.0287088
0.0884426
0.020563
0.0770288
0.0136212
0.0647888
0.00797444
0.0517448
0.00372791
0.0379205
0.00100709
0.0233485
0.00814814
0.0615363
0.129649
-0.0740107
0.0500197
0.120182
0.0394539
0.109568
0.0299111
0.0979855
0.0214774
0.0854625
0.0142496
0.0720165
0.00834196
0.0576524
0.00388788
0.0423745
0.00104277
0.0261936
0.00919091
0.0663691
-0.0791601
0.0540349
0.0426363
0.0323264
0.0232098
0.0153894
0.00899061
0.00416657
0.00110073
0.214999
0.0575221
-0.0745315
0.235932
0.092866
-0.113799
0.257977
0.123846
-0.145891
0.26924
0.114762
-0.126025
0.269229
0.114824
-0.114813
0.249182
0.181554
-0.161507
0.216525
0.294112
-0.261455
0.173582
0.410651
-0.367707
0.117827
0.491857
-0.436102
0.459021
-0.393535
0.214205
0.0413074
0.234133
0.0729376
0.255474
0.102504
0.26739
0.102847
0.268587
0.113628
0.249693
0.200447
0.217162
0.326643
0.173799
0.454015
0.117867
0.547789
0.523946
0.213498
0.0257994
0.232874
0.0535618
0.253544
0.0818339
0.265871
0.0905197
0.267268
0.112231
0.248964
0.218751
0.216536
0.359071
0.173011
0.49754
0.118011
0.602788
0.587264
0.212902
0.0108875
0.232134
0.0343291
0.25216
0.0618084
0.264592
0.0780873
0.265371
0.111452
0.247029
0.237093
0.21469
0.39141
0.171507
0.540723
0.118768
0.655527
0.648199
0.212532
-0.00365426
0.231894
0.014967
0.251239
0.0424635
0.263307
0.0660191
0.262798
0.11196
0.243884
0.256007
0.21172
0.423575
0.169633
0.58281
0.120242
0.704918
0.706402
0.212486
-0.0181504
0.232101
-0.00464832
0.250648
0.0239172
0.26176
0.0549065
0.259389
0.114332
0.239545
0.275851
0.207797
0.455323
0.167635
0.622972
0.121993
0.750561
0.76203
0.212765
-0.0329258
0.232658
-0.024541
0.250227
0.00634753
0.259769
0.0453654
0.255048
0.119053
0.234116
0.296782
0.203153
0.486287
0.165518
0.660606
0.123174
0.792905
0.815352
0.213221
-0.0481572
0.233413
-0.044733
0.249791
-0.0100306
0.257111
0.0380458
0.249611
0.126553
0.227628
0.318765
0.197833
0.516082
0.162892
0.695547
0.122797
0.833
0.866042
0.213569
-0.0637359
0.234202
-0.0653665
0.249165
-0.0249935
0.253788
0.033423
0.243247
0.137094
0.220388
0.341623
0.191983
0.544487
0.159374
0.728157
0.120484
0.87189
0.912516
0.213816
-0.0795625
0.234782
-0.086332
0.248265
-0.0384768
0.249395
0.0322935
0.235365
0.151124
0.211747
0.365241
0.18473
0.571504
0.154114
0.758773
0.116747
0.909257
0.950103
0.332535
-0.110088
0.371525
-0.125321
0.406687
-0.073639
0.425683
0.0132977
0.441423
0.135384
0.468245
0.338419
0.506813
0.532936
0.549615
0.715971
0.581251
0.87762
0.944959
0.586395
0.333833
-0.141911
0.374203
-0.165691
0.409669
-0.109105
0.427048
-0.00408123
0.441244
0.121188
0.477989
0.301673
0.534987
0.475938
0.604645
0.646313
0.675315
0.80695
0.887411
0.732864
0.335852
-0.175753
0.375762
-0.205601
0.411269
-0.144612
0.427377
-0.0201894
0.43659
0.111976
0.477869
0.260394
0.548259
0.405548
0.639536
0.555036
0.742487
0.703999
0.783515
0.846383
0.339188
-0.21293
0.374096
-0.240509
0.391284
-0.1618
0.392212
-0.0211173
0.406041
0.0981469
0.456409
0.210026
0.536198
0.325759
0.641617
0.449617
0.767604
0.578013
0.646459
0.904659
0.346676
-0.257596
0.356509
-0.250342
0.343119
-0.14841
0.341893
-0.0198916
0.363344
0.0766969
0.416435
0.156934
0.498775
0.243418
0.608763
0.339629
0.744211
0.442565
0.49553
0.89514
0.341297
-0.296883
0.322906
-0.231951
0.291838
-0.117342
0.289242
-0.0172955
0.312326
0.0536131
0.36281
0.106451
0.440764
0.165464
0.546306
0.234087
0.679047
0.309824
0.347815
0.826761
0.314387
-0.30926
0.27244
-0.190004
0.236266
-0.081168
0.232085
-0.013115
0.253485
0.032213
0.297413
0.0625227
0.36527
0.0976074
0.458638
0.140719
0.578938
0.189524
0.21503
0.711724
0.27385
-0.2811
0.213358
-0.129513
0.175928
-0.043738
0.1709
-0.00808637
0.187944
0.0151684
0.221858
0.028609
0.274584
0.0448816
0.348843
0.0664601
0.447106
0.0912611
0.106114
0.556022
0.214645
-0.193735
0.14066
-0.0555277
0.110175
-0.013253
0.105159
-0.0030704
0.116379
0.00394847
0.137838
0.00714982
0.171316
0.0114037
0.220036
0.0177408
0.28635
0.0249469
0.0304035
0.36206
0.108276
0.0527479
0.0394949
0.0364245
0.040373
0.0475228
0.0589264
0.0766673
0.101614
0.132018
0.608578
-0.117182
0.632264
-0.116598
0.6551
-0.109542
0.676266
-0.100386
0.695221
-0.0895887
0.711366
-0.0766198
0.724265
-0.0614078
0.733596
-0.0442676
0.739084
-0.0258916
-0.00758411
0.750222
-0.134539
0.765148
-0.131525
0.779372
-0.123765
0.792612
-0.113626
0.804688
-0.101665
0.815834
-0.0877654
0.826397
-0.0719707
0.836392
-0.0542629
0.844846
-0.0343452
-0.0114703
0.85103
-0.139185
0.853493
-0.133989
0.855024
-0.125295
0.855411
-0.114014
0.854567
-0.100821
0.852665
-0.0858638
0.849934
-0.0692389
0.846769
-0.0510981
0.843968
-0.0315448
-0.0105283
0.892702
-0.127229
0.878666
-0.119953
0.863961
-0.110591
0.849371
-0.0994233
0.835502
-0.0869521
0.823056
-0.0734176
0.812658
-0.0588417
0.804771
-0.0432104
0.799755
-0.0265289
-0.00887387
0.870462
-0.10255
0.845655
-0.0951463
0.822014
-0.0869501
0.800533
-0.0779419
0.781681
-0.0680997
0.76573
-0.0574673
0.7529
-0.0460118
0.743411
-0.0337206
0.73753
-0.0206479
-0.00695004
0.797074
-0.0728626
0.768981
-0.067053
0.74315
-0.061119
0.720052
-0.0548447
0.69998
-0.0480271
0.683116
-0.0406041
0.669644
-0.0325397
0.659771
-0.0238474
0.653728
-0.0146048
-0.00496065
0.683009
-0.0441481
0.656512
-0.0405555
0.632405
-0.0370125
0.610878
-0.0333179
0.592143
-0.029292
0.576393
-0.0248542
0.563826
-0.0199726
0.554645
-0.0146663
0.549043
-0.00900272
-0.00309248
0.532508
-0.0206346
0.510902
-0.0189498
0.491267
-0.0173775
0.473696
-0.0157463
0.458343
-0.0139395
0.445391
-0.011902
0.435032
-0.00961381
0.427455
-0.00708881
0.422822
-0.00436988
-0.00152162
0.346777
-0.00535105
0.332635
-0.0048081
0.319741
-0.00448372
0.308128
-0.0041324
0.297901
-0.00371253
0.289208
-0.00320986
0.282214
-0.00261916
0.277072
-0.00194669
0.273911
-0.00120891
-0.000428817
0.126667
0.121859
0.117375
0.113242
0.10953
0.10632
0.103701
0.101754
0.100545
0.000185036
0.0116074
-0.0117925
0.000623668
0.0304421
-0.0308808
0.00123703
0.0462356
-0.0468489
0.00197711
0.0594601
-0.0602002
0.00277631
0.070013
-0.0708122
0.0037691
0.0798795
-0.0808723
0.00396302
0.0772581
-0.077452
0.00408436
0.070034
-0.0701554
0.00394447
0.0610721
-0.0609322
0.0499496
0.00350675
-0.0495119
0.000533336
0.0110741
0.00180367
0.0291718
0.00358469
0.0444545
0.00574062
0.0573042
0.00807193
0.0676817
0.0110384
0.076913
0.0116746
0.0766218
0.0120794
0.0696292
0.0117722
0.0613794
0.0510719
0.0106499
0.0008354
0.0102387
0.00283151
0.0271757
0.00563849
0.0416476
0.00904057
0.0539021
0.012738
0.0639843
0.0172455
0.0724056
0.0187881
0.0750793
0.0195696
0.0688477
0.0193833
0.0615657
0.0524283
0.0180269
0.00105585
0.00918285
0.00359658
0.024635
0.00719281
0.0380513
0.0115546
0.0495403
0.0163548
0.059184
0.0217454
0.067015
0.0250701
0.0717546
0.0263522
0.0675656
0.0266004
0.0613175
0.0535602
0.0254685
0.0011513
0.00803155
0.00397882
0.0218074
0.00804078
0.0339894
0.0129955
0.0445856
0.0185497
0.0536299
0.024555
0.0610097
0.0299492
0.0663604
0.0320869
0.0654279
0.0330081
0.0603964
0.0540851
0.0324832
0.00111134
0.00692021
0.00396549
0.0189533
0.00818461
0.0297703
0.0133887
0.0393815
0.019316
0.0477026
0.0257694
0.0545562
0.0324129
0.0597169
0.0363095
0.0615313
0.038121
0.0585848
0.0537012
0.0385049
0.000926152
0.00599406
0.00357256
0.0163069
0.00770975
0.0256331
0.0128803
0.034211
0.0187848
0.0417981
0.0253359
0.0480051
0.0323184
0.0527344
0.0382726
0.0555771
0.0415847
0.0552727
0.0521774
0.0431085
0.000567945
0.00542612
0.00278651
0.0140883
0.00665683
0.0217628
0.0116201
0.0292477
0.0172028
0.0362154
0.0234457
0.0417623
0.0302841
0.045896
0.0371821
0.0486792
0.0425596
0.0498952
0.0489184
0.0458186
0.000104313
0.00532181
0.00176908
0.0124236
0.00517568
0.0183562
0.00981422
0.0246092
0.0149562
0.0310735
0.0206206
0.0360979
0.0269029
0.0396136
0.0335865
0.0419956
0.0400846
0.0433971
0.0437895
0.0452135
-0.000174527
0.00549633
0.00108821
0.0111608
0.00385701
0.0155874
0.00788711
0.0205791
0.0125019
0.0264587
0.0175729
0.0310268
0.0231792
0.0340073
0.0292515
0.0359233
0.0356382
0.0370104
0.0373626
0.0420651
-1.93473e-05
0.00551568
0.00114252
0.00999895
0.00328033
0.0134496
0.00641586
0.0174435
0.0102988
0.0225757
0.0148415
0.0264842
0.019962
0.0288869
0.0254946
0.0303906
0.0312328
0.0312722
0.0316876
0.0369078
0.000380331
0.00513535
0.0015363
0.00884299
0.00318635
0.0117995
0.00549858
0.0151313
0.00872086
0.0193534
0.0129083
0.0222967
0.0177611
0.0240342
0.0230288
0.0251228
0.028521
0.0257801
0.0260501
0.0341584
0.00062805
0.0045073
0.00171402
0.00775701
0.00303719
0.0104764
0.00485974
0.0133087
0.00785276
0.0163604
0.0119429
0.0182065
0.0166947
0.0192824
0.0218686
0.0199489
0.0273325
0.0203162
0.0203975
0.0329851
0.000681052
0.00382625
0.00165108
0.00678698
0.00283368
0.00929375
0.00471658
0.0114258
0.0079878
0.0130892
0.0122153
0.013979
0.0170294
0.0144683
0.022268
0.0147104
0.0278343
0.0147499
0.014589
0.0336428
0.000665614
0.00316063
0.00155776
0.00589483
0.00299688
0.00785463
0.0055782
0.00884451
0.00936181
0.00930557
0.0138766
0.00946416
0.0189133
0.0094316
0.0243719
0.00925174
0.030184
0.00893778
0.0084949
0.0362781
0.000592145
0.00256848
0.00170564
0.00478132
0.00404025
0.00552002
0.00748742
0.00539732
0.0117304
0.00506261
0.0165683
0.00462628
0.0218994
0.0041005
0.0276638
0.00348727
0.0338101
0.00279147
0.00202525
0.0402798
0.000515494
0.00205298
0.00245681
0.00283999
0.00570946
0.00226736
0.00969534
0.00141143
0.0142743
0.000483606
0.0193985
-0.000497865
0.0250365
-0.00153751
0.0311462
-0.00262248
0.0376682
-0.00373051
-0.00484923
0.0445427
0.000851351
0.00120162
0.00358244
0.000108886
0.00713433
-0.00128453
0.0113103
-0.00276455
0.0160927
-0.00429883
0.0214904
-0.00589548
0.0274644
-0.00751155
0.0339276
-0.00908565
0.0407973
-0.0106003
-0.0120832
0.0480313
0.00149649
-0.000294876
0.00412665
-0.00252128
0.00754334
-0.00470123
0.0117448
-0.00696598
0.0167384
-0.00929247
0.0224537
-0.0116108
0.0287297
-0.0137875
0.0354442
-0.0158001
0.0425672
-0.0177233
-0.0196129
0.050097
0.00107983
0.00319083
0.00650611
0.0109498
0.0163088
0.0222749
0.0286825
0.0355543
0.0429541
0.0508613
0.0514683
0.0836048
-0.0981653
0.0773172
-0.00748602
-0.0183629
0.0998118
-0.0507931
0.0282985
0.113357
-0.0465055
0.0329598
0.121264
-0.0265288
0.0186225
0.124955
-0.00818986
0.00449854
0.126633
0.00115029
-0.00282822
0.128081
0.00269682
-0.00414462
0.129921
0.00137599
-0.00321629
-0.000848519
-0.00142788
0.0586271
0.059136
0.0915854
-0.0404444
0.118652
-0.0778599
0.134553
-0.0624068
0.143226
-0.035201
0.146963
-0.0119267
0.148472
-0.000358611
0.149786
0.00138275
0.151556
-0.000393898
-0.00291266
0.0665675
0.0255536
0.104842
-0.0787189
0.135748
-0.108766
0.155318
-0.0819773
0.165273
-0.0451554
0.169076
-0.01573
0.170289
-0.00157103
0.171282
0.000389216
0.17276
-0.001872
-0.0045711
0.0753548
-0.0161585
0.117547
-0.120911
0.151331
-0.14255
0.174694
-0.10534
0.186728
-0.0571892
0.190846
-0.0198487
0.191769
-0.00249392
0.192352
-0.000193428
0.193393
-0.00291317
-0.00568497
0.0843112
-0.0641916
0.129246
-0.165845
0.165159
-0.178464
0.191825
-0.132006
0.206803
-0.0721673
0.211821
-0.0248675
0.212606
-0.00327867
0.212768
-0.000354919
0.213293
-0.00343809
-0.00617211
0.0926873
-0.116599
0.139622
-0.21278
0.177163
-0.216004
0.206327
-0.161169
0.224601
-0.0904412
0.231427
-0.031694
0.232428
-0.00427919
0.232267
-0.000194231
0.232277
-0.00344829
-0.00601329
0.0998467
-0.171903
0.148428
-0.261362
0.187273
-0.254849
0.218145
-0.192042
0.239391
-0.111687
0.248966
-0.0412691
0.250789
-0.00610188
0.250531
6.33849e-05
0.25011
-0.00302723
-0.00525223
0.105463
-0.229335
0.155567
-0.311465
0.195471
-0.294753
0.227437
-0.224008
0.250851
-0.135101
0.263627
-0.0540446
0.267132
-0.00960671
0.267199
-3.51617e-06
0.266558
-0.0023864
-0.00401317
0.109525
-0.288764
0.161091
-0.363031
0.201827
-0.33549
0.234449
-0.25663
0.259091
-0.159743
0.2747
-0.0696541
0.280668
-0.0155749
0.281657
-0.000992718
0.281075
-0.0018041
-0.00248065
0.11233
0.165167
0.206505
0.239447
0.264577
0.281882
0.290502
0.293423
0.293581
0.0131995
0.00607726
-0.0192768
0.0109856
0.00221387
0.0115013
-0.000515668
0.0128989
-0.00139762
0.0136055
-0.000706652
0.0137403
-0.000134785
0.01359
0.000150372
0.0133883
0.000201664
0.0132105
0.000177805
0.000106933
0.0372471
0.0232114
-0.0543812
0.0314915
0.0079694
0.033981
-0.0030051
0.0379722
-0.00538888
0.0401148
-0.00284923
0.0405444
-0.000564425
0.0401217
0.000573144
0.039551
0.000772411
0.0390778
0.000651005
0.000344558
0.0579687
0.0480815
-0.0828388
0.0508872
0.0150509
0.0558508
-0.00796877
0.0623304
-0.0118685
0.0659444
-0.00646321
0.0667368
-0.00135684
0.0660942
0.0012158
0.0652001
0.00166656
0.0644874
0.00136368
0.000672404
0.0739189
0.0753666
-0.101204
0.0680965
0.0208733
0.0763869
-0.0162592
0.0855899
-0.0210714
0.0908299
-0.0117033
0.0921121
-0.00263899
0.0913329
0.00199499
0.0901827
0.00281681
0.0893029
0.00224351
0.00104773
0.0814306
-0.104229
0.0839408
0.09598
0.107868
0.114788
0.116647
0.115814
0.114486
0.113514
0.00273327
-0.000172899
-0.00256037
0.00326406
-0.000530791
0.00417616
-0.000912092
0.00548702
-0.00131086
0.00718319
-0.00169617
0.00922749
-0.00204431
0.0115839
-0.00235636
0.0141721
-0.0025882
0.0168572
-0.00268515
-0.00241957
0.00778633
-0.000645605
-0.00731362
0.00923301
-0.00197748
0.011712
-0.00339111
0.0152679
-0.00486676
0.0198816
-0.00630984
0.025479
-0.00764167
0.0319607
-0.00883809
0.0391517
-0.00977919
0.0467628
-0.0102963
-0.010038
0.0124763
-0.00138356
-0.0117384
0.0147257
-0.00422687
0.0185581
-0.00722347
0.0240214
-0.01033
0.0310752
-0.0133636
0.0395811
-0.0161476
0.0493222
-0.0185792
0.0600448
-0.0205018
0.0714085
-0.02166
-0.0214683
0.0168052
-0.00234738
-0.0158414
0.019729
-0.00715073
0.0246717
-0.0121661
0.0316473
-0.0173057
0.040545
-0.0222613
0.0511001
-0.0267028
0.0629304
-0.0304094
0.0756868
-0.0332582
0.0888535
-0.0348268
-0.0338188
0.0207903
-0.0196309
0.0242894
0.0301502
0.038313
0.0485349
0.0603369
0.073036
0.0855964
0.0959831
0.0314977
-0.0312777
0.037092
-0.037312
0.0256294
-0.0308745
0.0367427
0.0199636
-0.0300418
0.0357076
0.0147093
-0.0286465
0.0339008
0.0100802
-0.0264403
0.0310694
0.00621632
-0.0227602
0.0266241
0.00312255
-0.0176421
0.0207359
0.00102419
-0.0136178
0.0157161
-8.23784e-05
-0.0101545
0.011261
-0.00563139
0.00554901
0.0295444
-0.0254047
-0.0354173
0.0238195
-0.0251496
0.0183208
-0.0245431
0.0132248
-0.0235504
0.00878255
-0.021998
0.0053766
-0.0193542
0.00303741
-0.0153029
0.00140901
-0.0119894
0.000305336
-0.0090508
-0.00532605
0.0295315
-0.0194081
-0.0355281
0.0237194
-0.0193375
0.0181938
-0.0190175
0.0130712
-0.0184278
0.00855318
-0.01748
0.00508925
-0.0158903
0.00303486
-0.0132485
0.00166517
-0.0106197
0.000593432
-0.00797906
-0.00473261
0.0314226
-0.013142
-0.0376887
0.0253914
-0.0133063
0.0196781
-0.0133042
0.0143694
-0.0131191
0.00960447
-0.0127151
0.00570624
-0.0119921
0.00323767
-0.01078
0.00178678
-0.00916877
0.000740012
-0.00693228
-0.0039926
0.0349354
-0.00649595
-0.0415814
0.0285716
-0.00694247
0.0225614
-0.00729404
0.0169718
-0.0075294
0.0118943
-0.00763761
0.00751174
-0.00760947
0.00416592
-0.00743413
0.00201164
-0.00701449
0.000804596
-0.00572522
-0.003188
0.0391207
0.000584184
-0.0462009
0.032366
-0.000187733
0.0260082
-0.000936221
0.0201202
-0.00164136
0.0147621
-0.00227949
0.00999728
-0.00284467
0.0059095
-0.00334635
0.00266947
-0.00377444
0.000718934
-0.00377468
-0.00246905
0.0428109
0.0080559
-0.0502826
0.0356793
0.00694382
0.0289423
0.0058008
0.0226973
0.00460363
0.0170414
0.00337643
0.0120121
0.00218468
0.00759552
0.00107022
0.0038053
1.57836e-05
0.00096433
-0.000933701
-0.00150472
0.0449816
0.0158032
-0.0527288
0.0376074
0.014318
0.0306062
0.012802
0.0240187
0.0111911
0.0179868
0.00940836
0.012687
0.00748455
0.00819018
0.00556701
0.00447823
0.00372774
0.0015988
0.00194574
9.40868e-05
0.0451216
0.0238402
-0.0531587
0.0375624
0.0218772
0.030483
0.0198814
0.0238021
0.0178721
0.0174994
0.015711
0.0117728
0.0132111
0.00698364
0.0103562
0.00339467
0.00731672
0.00113887
0.00420154
0.00123296
0.0441422
-0.0525931