/*--------------------------------*- C++ -*----------------------------------*\
  =========                 |
  \\      /  F ield         | OpenFOAM: The Open Source CFD Toolbox
   \\    /   O peration     | Website:  https://openfoam.org
    \\  /    A nd           | Version:  13
     \\/     M anipulation  |
\*---------------------------------------------------------------------------*/
FoamFile
{
    format      ascii;
    class       volVectorField;
    location    "0.33";
    object      U;
}
// * * * * * * * * * * * * * * * * * * * * * * * * * * * * * * * * * * * * * //

dimensions      [0 1 -1 0 0 0 0];

internalField   nonuniform List<vector> 
1800
(
(0.097805 -0.0883326 -4.49525e-20)
(0.286902 -0.241957 -3.41574e-20)
(0.473976 -0.379048 -4.85122e-19)
(0.657689 -0.500154 1.91502e-19)
(0.8366 -0.607154 7.4346e-20)
(1.00989 -0.701341 -3.90437e-20)
(1.17712 -0.783408 5.54477e-20)
(1.33788 -0.853586 1.96695e-19)
(1.49151 -0.912829 5.91832e-19)
(1.63343 -0.966721 8.09544e-19)
(0.119065 -0.091506 -7.91377e-20)
(0.344298 -0.247715 -7.70649e-19)
(0.563288 -0.384754 3.78179e-21)
(0.775366 -0.504236 1.25865e-19)
(0.9795 -0.608912 -1.26333e-19)
(1.1752 -0.700673 7.6709e-20)
(1.36229 -0.780747 -2.81175e-19)
(1.54074 -0.850034 -5.00477e-20)
(1.71004 -0.910611 -6.92829e-19)
(1.86778 -0.966915 6.29198e-19)
(0.141655 -0.0923257 4.88252e-20)
(0.403687 -0.247737 2.09298e-19)
(0.653763 -0.382122 5.43413e-19)
(0.892183 -0.497906 -1.90304e-19)
(1.11866 -0.598381 -1.43042e-19)
(1.33321 -0.685799 7.56544e-20)
(1.53604 -0.76168 9.83664e-20)
(1.7274 -0.827255 1.94116e-19)
(1.90717 -0.884738 2.73345e-21)
(2.07416 -0.93778 1.51002e-19)
(0.16391 -0.0897231 -4.5721e-20)
(0.461707 -0.239475 -2.04402e-19)
(0.741438 -0.367623 -1.81274e-19)
(1.00452 -0.47698 -1.42326e-19)
(1.25163 -0.571021 1.81351e-19)
(1.48351 -0.65212 -5.71008e-20)
(1.70092 -0.72189 -4.31339e-21)
(1.90452 -0.781594 3.02084e-21)
(2.09453 -0.833323 -1.60284e-19)
(2.27022 -0.880296 -1.06114e-19)
(0.184662 -0.0833584 -1.14057e-19)
(0.515903 -0.221811 8.76341e-20)
(0.823304 -0.339435 1.79865e-19)
(1.10932 -0.439067 2.43338e-19)
(1.37563 -0.524072 -2.85078e-19)
(1.62372 -0.596774 -3.58093e-21)
(1.85495 -0.658757 4.25084e-19)
(2.07043 -0.711245 -1.85046e-19)
(2.27083 -0.756136 -1.24001e-19)
(2.45577 -0.796357 -5.36943e-20)
(0.203194 -0.0735017 1.73607e-19)
(0.564481 -0.195204 1.02993e-18)
(0.896806 -0.298079 1.43264e-19)
(1.20353 -0.384739 -5.03196e-19)
(1.48721 -0.458229 -1.75533e-19)
(1.75005 -0.520668 6.37788e-19)
(1.99392 -0.573519 -1.45429e-19)
(2.22037 -0.617889 -4.31705e-19)
(2.43048 -0.655427 -3.16535e-19)
(2.6242 -0.688716 2.61602e-19)
(0.218903 -0.0605926 1.16348e-19)
(0.605757 -0.160704 -7.4765e-19)
(0.959331 -0.245034 -1.08571e-18)
(1.28373 -0.315801 3.83829e-19)
(1.58225 -0.375566 4.50009e-19)
(1.8577 -0.426128 -9.02245e-22)
(2.11241 -0.468736 -6.39795e-19)
(2.34831 -0.504318 2.1933e-19)
(2.56685 -0.534201 -3.64249e-19)
(2.76829 -0.560552 -3.1108e-19)
(0.231241 -0.0451733 -3.42511e-19)
(0.638214 -0.119686 -6.92645e-19)
(1.00851 -0.182297 1.21231e-18)
(1.3468 -0.234702 5.98742e-19)
(1.65696 -0.278854 -2.6979e-19)
(1.94227 -0.316135 -2.11515e-19)
(2.20546 -0.347512 0)
(2.44878 -0.373683 1.1683e-19)
(2.67401 -0.395613 -2.95857e-19)
(2.88174 -0.414957 -7.75122e-20)
(0.239772 -0.027876 -2.04479e-19)
(0.660668 -0.073757 5.62443e-19)
(1.04251 -0.1122 1.7104e-19)
(1.39034 -0.14429 -5.12542e-19)
(1.70844 -0.171276 -7.84253e-19)
(2.00041 -0.194052 3.66244e-20)
(2.26928 -0.213242 1.67125e-19)
(2.51756 -0.229289 -5.46879e-19)
(2.74735 -0.242777 -2.8976e-19)
(2.95957 -0.254769 -5.6359e-19)
(0.244266 -0.00940261 4.51442e-19)
(0.67247 -0.0247041 3.44188e-19)
(1.06033 -0.0373612 -9.38628e-20)
(1.41306 -0.0477873 -1.29905e-20)
(1.73518 -0.0564601 -3.87533e-19)
(2.03045 -0.0637201 -8.5747e-20)
(2.3021 -0.0698061 -2.90584e-19)
(2.5528 -0.0748854 6.46606e-19)
(2.78485 -0.0791654 1.71006e-19)
(2.99949 -0.0830055 2.25058e-21)
(-0.00237222 -0.0219476 -2.59832e-20)
(0.00881785 -0.069334 -7.69842e-20)
(0.0250922 -0.119723 -7.15774e-21)
(0.0493962 -0.169892 -3.49697e-20)
(0.0777335 -0.215204 -1.26443e-20)
(0.106663 -0.253487 -3.89457e-19)
(0.135766 -0.287509 -1.87524e-20)
(0.166558 -0.320772 1.19085e-19)
(0.199353 -0.354168 1.11766e-20)
(0.233222 -0.386427 -3.68176e-20)
(0.000812133 -0.0248409 -9.75617e-20)
(0.0150086 -0.0851603 -2.03856e-19)
(0.0392764 -0.159484 -6.11773e-20)
(0.0692358 -0.224078 -1.10659e-19)
(0.0996353 -0.274449 -1.00057e-19)
(0.130762 -0.316965 -2.82321e-19)
(0.164822 -0.357885 2.01166e-19)
(0.202459 -0.399126 1.64974e-19)
(0.241953 -0.438904 -2.53101e-19)
(0.281497 -0.475203 8.01639e-20)
(0.00546999 -0.031612 -8.5347e-20)
(0.0287835 -0.107438 -8.47057e-19)
(0.0627416 -0.195513 -1.24776e-19)
(0.097441 -0.268197 9.50141e-20)
(0.131985 -0.326455 6.80382e-20)
(0.169922 -0.37944 -4.58951e-19)
(0.213209 -0.431284 3.57504e-20)
(0.2594 -0.480612 3.65277e-19)
(0.305802 -0.524989 -3.83894e-19)
(0.351813 -0.564318 -2.57304e-19)
(0.0113612 -0.0410867 -1.97669e-21)
(0.0466194 -0.130881 1.87012e-19)
(0.0895696 -0.22501 1.8656e-21)
(0.133072 -0.306578 -1.19192e-20)
(0.17789 -0.377343 -2.99916e-20)
(0.227389 -0.443184 9.18491e-20)
(0.28124 -0.504774 7.53593e-20)
(0.33585 -0.559924 -1.36369e-19)
(0.389979 -0.608324 9.24061e-21)
(0.444195 -0.650813 -1.04318e-20)
(0.0185088 -0.0508346 0)
(0.067231 -0.152433 5.39128e-21)
(0.121897 -0.253483 -5.01675e-19)
(0.178681 -0.345223 4.99127e-20)
(0.237841 -0.428232 -1.50891e-20)
(0.300567 -0.50461 1.05578e-20)
(0.365371 -0.573756 -2.66472e-20)
(0.4299 -0.6347 -7.86425e-21)
(0.494075 -0.688007 0)
(0.558289 -0.733927 -2.05879e-20)
(0.0273305 -0.0596873 3.14695e-20)
(0.0918933 -0.172871 -1.52019e-19)
(0.161745 -0.282464 -4.42019e-20)
(0.234612 -0.38376 -5.8797e-20)
(0.309731 -0.476545 4.98935e-20)
(0.386734 -0.561223 2.23082e-21)
(0.464241 -0.637274 9.55829e-20)
(0.540944 -0.704406 -2.17787e-20)
(0.616922 -0.762803 -6.98501e-19)
(0.692174 -0.811916 -1.01198e-20)
(0.0379818 -0.0676269 7.35378e-22)
(0.12124 -0.192197 5.72817e-20)
(0.209154 -0.3106 -7.93018e-20)
(0.29991 -0.420114 -1.68109e-20)
(0.392114 -0.520549 -7.27814e-20)
(0.484745 -0.611932 -1.15389e-20)
(0.576658 -0.694039 7.72408e-21)
(0.666889 -0.766761 -2.1435e-19)
(0.755464 -0.829786 3.84851e-19)
(0.842245 -0.881756 9.73141e-19)
(0.0503681 -0.0746146 1.53081e-20)
(0.155134 -0.209626 -1.42728e-19)
(0.263457 -0.335963 -2.14597e-19)
(0.373655 -0.452081 8.92987e-20)
(0.484075 -0.558196 -6.43098e-20)
(0.593501 -0.654493 1.00608e-19)
(0.700883 -0.741085 1.99313e-19)
(0.805331 -0.818031 -1.10745e-19)
(0.906925 -0.884761 -3.06727e-19)
(1.00558 -0.939099 7.26491e-19)
(0.0642955 -0.0803682 -2.63313e-20)
(0.193291 -0.224038 -5.78321e-19)
(0.324295 -0.356562 5.24717e-19)
(0.455671 -0.477215 3.3788e-19)
(0.585712 -0.586703 -8.61379e-20)
(0.713182 -0.68558 3.0977e-19)
(0.837069 -0.774305 -1.60102e-19)
(0.956484 -0.853271 -7.75872e-19)
(1.07163 -0.921782 -4.04344e-19)
(1.18255 -0.97696 4.54466e-19)
(0.0795496 -0.0846714 -7.98676e-20)
(0.235851 -0.234425 -5.44324e-19)
(0.392393 -0.370527 -8.0876e-21)
(0.547534 -0.492786 6.86621e-20)
(0.699575 -0.602435 3.38018e-19)
(0.847359 -0.700379 -1.85668e-19)
(0.989963 -0.787352 -1.70018e-19)
(1.12646 -0.863695 1.89546e-19)
(1.25672 -0.928465 -3.52153e-19)
(1.37995 -0.980118 -5.85339e-19)
(0.403093 -0.530134 1.02337e-18)
(0.684656 -0.615575 -3.30933e-19)
(0.912416 -0.553647 -1.65923e-19)
(1.08345 -0.426644 3.05263e-19)
(1.23076 -0.275997 -2.49267e-19)
(1.34299 -0.135017 -2.86852e-19)
(1.42422 -0.0425213 -2.42585e-19)
(1.46883 -0.0109197 -3.4601e-20)
(1.49221 -0.00620376 1.93096e-19)
(1.51418 -0.00311508 3.73377e-20)
(0.469387 -0.617988 9.93956e-19)
(0.741943 -0.690848 8.92853e-20)
(0.96603 -0.613176 1.06897e-20)
(1.12234 -0.474698 -2.55082e-19)
(1.25776 -0.314096 -8.52638e-19)
(1.36126 -0.163227 0)
(1.4358 -0.060017 -2.2824e-19)
(1.47476 -0.0207811 6.39401e-20)
(1.49706 -0.0124836 5.06353e-21)
(1.51836 -0.0062886 -7.14788e-20)
(0.556821 -0.703733 -1.00233e-18)
(0.811594 -0.763799 -7.55459e-20)
(1.02604 -0.670789 1.66327e-19)
(1.16535 -0.520744 -5.20679e-20)
(1.28557 -0.350797 -3.3916e-20)
(1.37883 -0.190013 6.56742e-20)
(1.44335 -0.0759701 0)
(1.4769 -0.029675 0)
(1.49805 -0.0182121 -7.33211e-20)
(1.51754 -0.0090856 0)
(0.666189 -0.78564 -2.24135e-19)
(0.896462 -0.832475 3.98058e-19)
(1.09282 -0.725452 2.68171e-20)
(1.21284 -0.563976 0)
(1.31455 -0.385559 6.94819e-19)
(1.39602 -0.214949 -1.72655e-19)
(1.44978 -0.0906054 0)
(1.47901 -0.0381917 1.6654e-19)
(1.49933 -0.0237101 0)
(1.51728 -0.0116505 2.12833e-20)
(0.796016 -0.86252 -1.49378e-19)
(0.998332 -0.894855 4.4287e-19)
(1.16707 -0.775968 -1.48262e-20)
(1.26484 -0.603642 0)
(1.34488 -0.417852 1.91674e-19)
(1.41263 -0.237976 3.17763e-19)
(1.45603 -0.10422 5.08425e-20)
(1.48151 -0.0463389 8.01331e-21)
(1.50107 -0.0288692 -3.90037e-20)
(1.51772 -0.0139822 3.15419e-20)
(0.942323 -0.933589 -1.31384e-18)
(1.11695 -0.949532 -9.21624e-19)
(1.24955 -0.820988 4.85683e-21)
(1.32119 -0.638975 5.43205e-19)
(1.37664 -0.447074 -2.95978e-19)
(1.42831 -0.259066 1.58632e-19)
(1.46226 -0.116973 2.6247e-19)
(1.48444 -0.0541928 -2.13452e-19)
(1.50328 -0.0337094 -1.97757e-21)
(1.51882 -0.0161201 -1.12438e-21)
(1.10003 -0.998452 -2.56108e-19)
(1.25025 -0.996281 2.80705e-19)
(1.34062 -0.859318 4.03814e-21)
(1.3818 -0.669169 -1.63466e-20)
(1.40986 -0.472514 -5.43434e-19)
(1.44276 -0.278071 5.2037e-20)
(1.46825 -0.128969 -9.82859e-20)
(1.4878 -0.0618344 -3.43203e-20)
(1.50594 -0.0382551 1.452e-20)
(1.52056 -0.0181335 -2.17836e-20)
(1.26415 -1.056 -1.20391e-18)
(1.39478 -1.03569 2.05911e-19)
(1.43935 -0.890318 0)
(1.44586 -0.693654 3.07759e-20)
(1.44404 -0.493586 4.67801e-19)
(1.45542 -0.294858 -7.18815e-22)
(1.47334 -0.140361 -2.90222e-19)
(1.49149 -0.0693608 5.34467e-20)
(1.50901 -0.0425443 -2.27353e-22)
(1.52296 -0.0200819 6.43066e-21)
(1.43178 -1.10281 3.39176e-18)
(1.54794 -1.06869 2.51111e-19)
(1.54561 -0.91468 4.53302e-19)
(1.51379 -0.712724 -2.97853e-20)
(1.47946 -0.510277 -3.23123e-20)
(1.46632 -0.309535 -3.74174e-19)
(1.47701 -0.1515 7.18326e-20)
(1.49517 -0.0767488 3.93806e-21)
(1.51233 -0.0465389 -3.16255e-20)
(1.5258 -0.0219827 -5.64578e-20)
(1.599 -1.12764 -3.00038e-18)
(1.70164 -1.09412 1.2785e-18)
(1.65378 -0.935051 -2.18636e-19)
(1.58176 -0.72981 -7.45749e-19)
(1.5137 -0.52597 -6.14244e-19)
(1.47377 -0.325229 -2.32772e-19)
(1.47665 -0.164706 -4.84988e-20)
(1.49702 -0.0854005 0)
(1.51383 -0.0508407 2.01398e-20)
(1.52225 -0.0236918 -8.89129e-21)
(1.88792 -1.16969 -6.73068e-18)
(1.92708 -1.10372 -1.70481e-18)
(1.80453 -0.929317 -4.75756e-20)
(1.67315 -0.721521 1.12186e-19)
(1.55884 -0.522196 1.75365e-19)
(1.48485 -0.331464 -1.14454e-19)
(1.47797 -0.175651 -1.91496e-20)
(1.48924 -0.0911386 2.11325e-20)
(1.48253 -0.0494646 -2.33568e-20)
(1.46756 -0.0233384 2.1026e-21)
(2.28902 -1.1342 4.9477e-19)
(2.17854 -1.05524 -2.49521e-19)
(1.94288 -0.862707 5.96993e-19)
(1.7377 -0.659818 -1.16992e-19)
(1.56744 -0.472641 2.08245e-19)
(1.45582 -0.304534 2.6102e-20)
(1.41823 -0.167558 5.30911e-20)
(1.38875 -0.0852905 -1.89453e-20)
(1.36744 -0.0426152 1.10122e-19)
(1.35219 -0.0206879 6.57198e-20)
(2.61048 -1.04304 2.27002e-18)
(2.35252 -0.947819 3.26729e-19)
(2.01026 -0.757728 -1.19815e-19)
(1.73798 -0.569311 7.66472e-37)
(1.51634 -0.403606 -2.67852e-20)
(1.3609 -0.265033 1.38853e-33)
(1.28819 -0.151875 -1.20848e-20)
(1.25854 -0.0748611 -1.71808e-33)
(1.23972 -0.0352392 8.45823e-21)
(1.2249 -0.017434 -2.70697e-20)
(2.7874 -0.893608 3.90223e-33)
(2.37075 -0.794928 2.95854e-18)
(1.97626 -0.629132 1.8211e-18)
(1.65858 -0.466556 0)
(1.41559 -0.329524 8.77843e-19)
(1.24477 -0.218568 4.42248e-19)
(1.15542 -0.129475 1.18914e-19)
(1.11718 -0.0648684 -2.70327e-33)
(1.09713 -0.0293443 -5.13791e-20)
(1.08287 -0.0144962 2.30625e-20)
(2.76411 -0.705648 3.84591e-18)
(2.24688 -0.629415 -1.47131e-19)
(1.8484 -0.490162 0)
(1.51886 -0.359999 0)
(1.2775 -0.25221 0)
(1.10749 -0.168298 0)
(1.00991 -0.102578 -1.14705e-20)
(0.965575 -0.0527045 -3.86453e-33)
(0.945139 -0.0232874 8.20207e-21)
(0.931637 -0.0115224 2.54128e-33)
(2.55143 -0.516926 3.26923e-18)
(2.02058 -0.462729 0)
(1.63956 -0.353266 0)
(1.32864 -0.255891 0)
(1.10492 -0.177548 0)
(0.948561 -0.119063 0)
(0.853653 -0.07478 3.20783e-20)
(0.806539 -0.0397638 -3.69273e-20)
(0.785588 -0.0174111 8.51726e-21)
(0.772752 -0.00865229 4.85422e-20)
(2.19023 -0.342688 0)
(1.70287 -0.303464 1.1031e-18)
(1.36178 -0.227478 1.09893e-18)
(1.09229 -0.161614 0)
(0.90079 -0.111079 6.87688e-19)
(0.768551 -0.0749329 4.18296e-19)
(0.685085 -0.0484786 2.30217e-19)
(0.640122 -0.0267604 4.90863e-20)
(0.619846 -0.0117046 2.12847e-20)
(0.60801 -0.00591314 6.72083e-22)
(1.7029 -0.191134 -6.7372e-19)
(1.30028 -0.165585 -2.73885e-19)
(1.02527 -0.121717 1.75282e-19)
(0.815546 -0.084294 -2.14265e-34)
(0.669061 -0.0574331 -7.75533e-20)
(0.569155 -0.0391616 3.73635e-33)
(0.504225 -0.0262355 5.00428e-20)
(0.466554 -0.0151087 9.27825e-20)
(0.448827 -0.00661092 9.14105e-21)
(0.43864 -0.00345635 -1.33508e-20)
(1.10089 -0.0758216 3.4073e-18)
(0.823184 -0.0626779 -1.86033e-19)
(0.64066 -0.0442844 -5.8824e-19)
(0.506321 -0.0289529 0)
(0.414486 -0.0193232 -6.39187e-19)
(0.352384 -0.0134551 -4.25733e-19)
(0.310912 -0.00955711 -1.8033e-19)
(0.285269 -0.00591033 -1.11027e-19)
(0.272609 -0.00265557 1.00295e-19)
(0.265355 -0.00148723 9.43581e-22)
(0.397349 -0.00331897 0)
(0.287863 0.00159202 0)
(0.220901 0.00408753 0)
(0.173586 0.00621305 0)
(0.142593 0.00578253 0)
(0.121852 0.00456469 0)
(0.107444 0.00323998 5.75748e-20)
(0.0977824 0.00200863 -2.01268e-34)
(0.0925965 0.00123762 1.12474e-20)
(0.0894528 0.000412714 1.61929e-20)
(3.36715 -0.0863044 5.39163e-19)
(3.32646 -0.265073 -8.41845e-20)
(3.24738 -0.430635 8.52036e-19)
(3.1324 -0.582127 -6.04995e-19)
(2.98634 -0.71808 6.66213e-19)
(2.81522 -0.836316 2.74857e-19)
(2.62656 -0.933963 -1.92895e-18)
(2.42944 -1.00771 -7.69475e-20)
(2.22458 -1.05349 0)
(1.98473 -1.0663 4.27265e-19)
(3.86195 -0.07505 7.07329e-18)
(3.79861 -0.234189 1.9563e-18)
(3.70429 -0.387275 -4.86654e-18)
(3.58426 -0.531943 -4.48854e-19)
(3.44237 -0.665827 3.55768e-18)
(3.28182 -0.787224 1.92251e-18)
(3.10643 -0.894931 -5.16577e-18)
(2.92194 -0.98751 -1.95089e-18)
(2.72745 -1.06312 2.20187e-18)
(2.49219 -1.12016 8.52034e-19)
(3.83314 -0.0532892 -1.26219e-19)
(3.82031 -0.171543 4.40412e-18)
(3.78554 -0.299732 -1.08867e-18)
(3.72443 -0.430883 -3.44621e-18)
(3.63627 -0.558682 -6.80152e-18)
(3.52379 -0.67873 1.02777e-17)
(3.39123 -0.788685 4.18003e-18)
(3.24353 -0.887827 -3.91029e-18)
(3.0816 -0.97849 -2.90155e-18)
(2.88717 -1.06268 -3.42317e-18)
(3.6287 -0.0472695 -4.83937e-18)
(3.61965 -0.144914 -4.35357e-18)
(3.59968 -0.243719 5.47258e-18)
(3.56742 -0.343064 1.91216e-18)
(3.5225 -0.442334 -8.97342e-18)
(3.46429 -0.540746 4.9245e-19)
(3.392 -0.636963 3.88747e-18)
(3.30533 -0.730322 -1.0545e-18)
(3.20522 -0.822923 1.27725e-18)
(3.0833 -0.914592 2.81624e-19)
(3.34408 -0.0365637 -9.15972e-19)
(3.33903 -0.111644 3.00407e-18)
(3.32714 -0.188668 1.61948e-18)
(3.30748 -0.267164 -1.8937e-18)
(3.27992 -0.34606 -2.00149e-18)
(3.24473 -0.424119 -2.43524e-18)
(3.20214 -0.5003 3.79927e-19)
(3.1519 -0.574434 1.386e-19)
(3.09569 -0.647667 -2.14069e-18)
(3.03314 -0.721179 -2.03561e-18)
(2.96258 -0.0265417 -1.82246e-18)
(2.95982 -0.0798794 -5.8722e-20)
(2.95332 -0.134593 -1.6375e-18)
(2.94242 -0.190899 3.12163e-19)
(2.92678 -0.248548 5.36774e-18)
(2.90633 -0.306928 -3.66868e-19)
(2.88097 -0.365112 4.43606e-20)
(2.8503 -0.422049 -2.60876e-18)
(2.81654 -0.47686 -3.49636e-18)
(2.78615 -0.529821 3.72199e-19)
(2.48713 -0.017501 -2.89284e-20)
(2.48579 -0.0519278 -8.1431e-19)
(2.4826 -0.0872438 -2.61483e-18)
(2.47709 -0.123769 -3.43098e-18)
(2.46881 -0.161533 2.49648e-18)
(2.45746 -0.200267 1.50219e-18)
(2.44264 -0.239353 -1.38497e-18)
(2.42373 -0.277789 1.62437e-18)
(2.40279 -0.314479 -4.29868e-19)
(2.3896 -0.349532 -9.63859e-19)
(1.91464 -0.0096823 7.7245e-19)
(1.91408 -0.0282935 -8.31779e-19)
(1.91278 -0.0474373 -3.27641e-20)
(1.91032 -0.0673582 -3.47329e-20)
(1.90624 -0.0881303 -7.2747e-20)
(1.90014 -0.109615 -2.33187e-18)
(1.89151 -0.131405 -6.78641e-19)
(1.87979 -0.152782 2.62589e-18)
(1.86666 -0.172974 -6.03397e-19)
(1.86194 -0.192205 -1.35092e-18)
(1.23988 -0.00373499 -1.64278e-18)
(1.23966 -0.010694 -8.4889e-19)
(1.23923 -0.0179004 2.33918e-18)
(1.23823 -0.0254785 -8.89758e-19)
(1.23625 -0.0334758 -6.74115e-19)
(1.2329 -0.0418325 1.352e-18)
(1.22775 -0.050351 -1.29584e-18)
(1.22038 -0.0586663 1.28691e-18)
(1.21202 -0.066343 -1.2102e-18)
(1.21008 -0.0735081 -4.24768e-18)
(0.454914 -0.000257736 6.63076e-19)
(0.454825 -0.000700388 7.03048e-19)
(0.454691 -0.00115906 7.48177e-19)
(0.454324 -0.00164008 1.35396e-18)
(0.453495 -0.00214027 -6.71976e-19)
(0.451982 -0.00263733 -1.29958e-18)
(0.449565 -0.00309928 6.14691e-19)
(0.44599 -0.0035931 2.4836e-20)
(0.441734 -0.00439236 -4.96515e-20)
(0.440347 -0.00504567 1.10572e-19)
(1.65331 0.996744 -2.85174e-19)
(1.51208 0.941447 1.80252e-20)
(1.35865 0.88044 -2.26961e-19)
(1.19757 0.808222 1.76655e-19)
(1.02951 0.723836 -1.9327e-19)
(0.854792 0.626993 -1.01307e-19)
(0.673749 0.516902 2.3213e-19)
(0.48704 0.392136 -3.0531e-19)
(0.295902 0.250648 3.09891e-19)
(0.101437 0.0916503 2.38969e-19)
(1.88619 0.991819 0)
(1.72952 0.934459 6.37699e-19)
(1.56072 0.872567 3.30299e-19)
(1.38221 0.801717 1.63827e-19)
(1.19449 0.719794 4.32751e-19)
(0.997516 0.625855 -8.69544e-20)
(0.791361 0.518587 -7.86509e-20)
(0.576359 0.395994 8.90502e-20)
(0.353334 0.255186 -1.04545e-18)
(0.122708 0.0943625 -1.64983e-20)
(2.09089 0.958788 1.56818e-19)
(1.92512 0.904885 0)
(1.74606 0.846335 -1.00794e-19)
(1.55488 0.779468 -3.84231e-19)
(1.35167 0.702037 5.37418e-20)
(1.13609 0.612771 3.97584e-19)
(0.907793 0.510089 -6.07226e-19)
(0.666607 0.391648 -2.00858e-19)
(0.412614 0.254057 7.83707e-19)
(0.145261 0.0947418 -1.76079e-19)
(2.28475 0.898193 1.88738e-19)
(2.11037 0.850446 1.22191e-20)
(1.92125 0.797784 2.43729e-20)
(1.71809 0.736954 3.62041e-20)
(1.50057 0.665833 -2.90716e-20)
(1.26793 0.583127 2.73453e-19)
(1.01928 0.487175 -2.06939e-19)
(0.753696 0.375543 -8.55826e-19)
(0.47029 0.244689 0)
(0.167398 0.091702 0)
(2.46791 0.811719 -1.0698e-18)
(2.28432 0.770768 -6.07944e-19)
(2.08491 0.725018 -1.20503e-19)
(1.87003 0.671499 -6.65901e-20)
(1.63891 0.608287 0)
(1.39032 0.534139 2.40824e-19)
(1.12277 0.447443 2.6786e-19)
(0.834579 0.345847 2.86331e-19)
(0.523859 0.225963 -4.23877e-19)
(0.187917 0.0849024 -8.12597e-20)
(2.63398 0.702035 7.65381e-19)
(2.44156 0.668026 -1.39198e-19)
(2.23245 0.629657 -2.21365e-19)
(2.00666 0.584296 0)
(1.76303 0.530279 0)
(1.4999 0.466494 0)
(1.21525 0.391473 -3.89955e-20)
(0.906711 0.3031 3.703e-19)
(0.571519 0.198356 3.79133e-19)
(0.206092 0.0746276 -3.08614e-19)
(2.77581 0.572324 -1.19282e-18)
(2.57552 0.545242 -1.4807e-18)
(2.35789 0.514521 -3.02696e-22)
(2.12263 0.477945 -1.87732e-19)
(1.86821 0.434186 -9.28934e-20)
(1.59261 0.382326 -1.78904e-19)
(1.29336 0.321133 4.5917e-19)
(0.967517 0.248845 2.14865e-19)
(0.611604 0.162973 5.40106e-19)
(0.221323 0.0613428 2.02884e-19)
(2.8871 0.425734 -1.15682e-18)
(2.6803 0.405626 8.47137e-20)
(2.45579 0.382819 1.64515e-19)
(2.21301 0.355614 1.68373e-20)
(1.95008 0.323057 -3.14462e-19)
(1.66469 0.284475 -1.74267e-19)
(1.35401 0.238945 -6.21282e-19)
(1.01466 0.185147 1.18535e-19)
(0.642625 0.121241 5.14899e-20)
(0.233074 0.0456144 -6.2676e-21)
(2.96284 0.265183 1.013e-19)
(2.75125 0.252354 3.97035e-19)
(2.52193 0.237907 -3.30303e-19)
(2.27398 0.220745 3.63078e-19)
(2.00528 0.200303 3.72581e-19)
(1.71326 0.176182 4.91941e-19)
(1.39484 0.147814 -6.35792e-19)
(1.04636 0.114394 -3.24441e-19)
(0.663431 0.0748126 -4.58496e-20)
(0.240924 0.0280961 -3.27027e-19)
(3.00057 0.0935804 5.81786e-19)
(2.78617 0.0887899 -1.86115e-19)
(2.5543 0.0834487 4.79592e-19)
(2.30371 0.0771551 -3.10737e-19)
(2.03212 0.0697326 2.66482e-19)
(1.73683 0.061066 6.05477e-19)
(1.4146 0.0509818 3.78917e-19)
(1.06164 0.039237 3.09378e-19)
(0.673415 0.0255079 2.65881e-19)
(0.244661 0.00950759 5.43655e-19)
(0.238572 0.449195 -4.64771e-19)
(0.203097 0.415597 -1.81151e-19)
(0.167717 0.378756 1.37236e-19)
(0.134403 0.341397 -4.2083e-19)
(0.104812 0.305486 -1.20792e-19)
(0.0778994 0.268235 6.90309e-19)
(0.0514624 0.221789 3.36386e-19)
(0.0256279 0.157303 -1.63674e-19)
(0.00697805 0.0791167 1.09426e-19)
(-0.00117851 0.0223084 -6.01485e-20)
(0.288309 0.541228 4.07556e-19)
(0.248415 0.504533 4.52603e-19)
(0.207888 0.462621 -1.36509e-20)
(0.167661 0.415891 -1.29968e-19)
(0.131081 0.368149 -3.05069e-19)
(0.100583 0.320854 8.24679e-20)
(0.0733609 0.267688 2.20482e-19)
(0.0456715 0.195475 1.6123e-19)
(0.0181632 0.100981 -5.82139e-19)
(0.00270249 0.0285895 -1.22494e-19)
(0.359868 0.630077 -5.96744e-19)
(0.313957 0.590072 -4.78061e-19)
(0.268079 0.544375 2.53507e-19)
(0.221375 0.491264 1.35086e-19)
(0.17584 0.431849 -4.00677e-21)
(0.136318 0.370044 -1.37405e-19)
(0.102133 0.304158 -2.64713e-20)
(0.0683719 0.223774 -5.56882e-19)
(0.033522 0.125215 -2.69583e-19)
(0.00754842 0.0374748 -3.91779e-20)
(0.454609 0.715018 5.00275e-19)
(0.400396 0.671017 1.64549e-19)
(0.346625 0.620215 -1.4779e-19)
(0.292391 0.561405 6.47319e-20)
(0.237828 0.493604 -2.81547e-22)
(0.186619 0.41929 2.13326e-21)
(0.14011 0.339453 -1.28606e-19)
(0.0954284 0.249393 3.82581e-19)
(0.0513421 0.14715 -4.20604e-19)
(0.0135028 0.0474582 -6.61551e-20)
(0.572291 0.795337 -2.81825e-19)
(0.508103 0.747455 -8.90977e-20)
(0.443774 0.690857 -1.40808e-20)
(0.379101 0.625412 -6.63754e-20)
(0.313784 0.550448 5.65432e-20)
(0.249671 0.466859 4.93348e-20)
(0.18836 0.375817 -2.65806e-20)
(0.129283 0.276032 -2.84001e-19)
(0.0724588 0.167246 2.19263e-19)
(0.0208557 0.0566811 8.77118e-20)
(0.709503 0.868856 6.44873e-19)
(0.634435 0.817684 3.23791e-19)
(0.558179 0.755773 2.08665e-19)
(0.480881 0.683982 4.79956e-20)
(0.402411 0.602416 1.50485e-19)
(0.323844 0.511508 7.48115e-20)
(0.246428 0.411902 1.39881e-19)
(0.17082 0.303502 5.76838e-20)
(0.0980028 0.186557 -1.72306e-20)
(0.0299551 0.0649445 -1.41361e-20)
(0.861931 0.933209 -1.19507e-19)
(0.775459 0.879213 -8.33497e-19)
(0.686628 0.812825 -8.42089e-20)
(0.595657 0.735824 -4.16855e-20)
(0.502501 0.648851 -1.60636e-20)
(0.408069 0.552139 1.49005e-19)
(0.31343 0.445916 -4.39819e-20)
(0.219669 0.330164 6.56456e-20)
(0.128259 0.204946 -1.44599e-19)
(0.0408811 0.0724542 -1.04013e-21)
(1.02652 0.984759 -8.88026e-19)
(0.928292 0.928545 5.93684e-20)
(0.826509 0.858817 -2.289e-19)
(0.721343 0.778193 -7.50414e-20)
(0.612675 0.68749 -2.7617e-20)
(0.501388 0.586702 -7.48851e-20)
(0.388478 0.475654 5.6678e-20)
(0.275131 0.354057 6.05001e-20)
(0.162963 0.221493 -9.82895e-21)
(0.0535349 0.0791068 -1.04122e-19)
(1.20364 1.01698 1.23915e-19)
(1.09329 0.960151 5.2627e-19)
(0.978084 0.889096 1.58442e-21)
(0.858091 0.807084 -3.18211e-20)
(0.733049 0.714962 1.52644e-19)
(0.603826 0.612322 -3.49361e-19)
(0.471363 0.498612 -2.45163e-19)
(0.33681 0.373137 3.56576e-19)
(0.201764 0.234981 1.444e-19)
(0.0677013 0.0845311 -3.64858e-20)
(1.40033 1.01477 7.42628e-19)
(1.27785 0.961783 3.25227e-19)
(1.14767 0.894935 5.53744e-20)
(1.01076 0.81609 -1.97293e-19)
(0.867191 0.726306 -1.66916e-20)
(0.717852 0.625199 4.66732e-19)
(0.563559 0.511927 -2.68724e-19)
(0.405333 0.385442 -1.84673e-19)
(0.244707 0.244314 3.3604e-19)
(0.0831181 0.0884449 -6.18539e-21)
(0.967618 0.0936581 9.6106e-21)
(1.15775 0.144842 -8.67974e-22)
(1.20073 0.188951 -2.83619e-20)
(1.29817 0.169465 0)
(1.33198 0.16163 8.04538e-21)
(1.25789 0.240283 -3.24911e-20)
(1.11537 0.387472 -7.59332e-20)
(0.941901 0.541853 -6.10009e-20)
(0.707822 0.645174 -2.50969e-19)
(0.414912 0.592315 5.07625e-19)
(0.969134 0.0731288 1.8597e-19)
(1.15106 0.119671 -3.94534e-20)
(1.19539 0.16192 2.08392e-21)
(1.2932 0.156652 1.14313e-20)
(1.33334 0.164102 1.55938e-21)
(1.27769 0.270731 2.41901e-21)
(1.14681 0.4353 1.11096e-19)
(0.988421 0.603382 0)
(0.759272 0.723385 6.78264e-19)
(0.478865 0.68313 -5.14686e-19)
(0.96967 0.0532349 -1.16847e-19)
(1.14732 0.0951918 8.74972e-21)
(1.19361 0.135348 7.50431e-20)
(1.29348 0.142494 2.14057e-20)
(1.33811 0.165014 -9.84155e-21)
(1.29872 0.298562 -3.60903e-20)
(1.18224 0.481325 5.9138e-20)
(1.04068 0.663391 4.23501e-20)
(0.822408 0.799182 -9.04143e-22)
(0.564781 0.770708 -4.93512e-19)
(0.969676 0.033973 -8.72927e-20)
(1.14637 0.0706977 1.65017e-20)
(1.19547 0.109141 6.4943e-20)
(1.29841 0.127235 2.0817e-20)
(1.34681 0.165249 -1.7709e-20)
(1.32088 0.324367 -1.0768e-20)
(1.22154 0.525141 -1.44933e-20)
(1.09881 0.720931 2.58195e-20)
(0.900378 0.870392 -4.93711e-19)
(0.674353 0.853139 -1.81733e-19)
(0.969914 0.0151692 4.14475e-20)
(1.14832 0.0457111 -4.31086e-20)
(1.20082 0.0832794 -5.50133e-20)
(1.30715 0.11135 1.32219e-20)
(1.3585 0.165594 0)
(1.34383 0.348683 0)
(1.26439 0.566323 2.48901e-20)
(1.1637 0.774734 -2.74953e-20)
(0.995758 0.934596 -1.13275e-19)
(0.8057 0.928777 -5.78018e-20)
(0.971022 -0.00366281 3.16555e-21)
(1.1532 0.019987 4.85336e-20)
(1.20936 0.057835 -1.68262e-19)
(1.31875 0.09547 -6.49866e-20)
(1.37184 0.166638 -6.62252e-21)
(1.36725 0.371766 6.05399e-20)
(1.31063 0.604238 1.10404e-19)
(1.23669 0.823156 -1.78165e-20)
(1.10901 0.989983 -3.28679e-20)
(0.954087 0.99689 -2.23133e-21)
(0.973146 -0.0230783 7.82405e-21)
(1.16072 -0.00658486 1.81024e-20)
(1.22056 0.0329453 -5.42765e-20)
(1.3324 0.0801778 -1.1797e-19)
(1.38579 0.168616 1.5015e-20)
(1.39104 0.393485 8.30202e-21)
(1.3606 0.637966 -5.57094e-20)
(1.31891 0.864542 -1.39378e-19)
(1.2383 1.03616 -1.91374e-20)
(1.1139 1.05752 -9.86513e-19)
(0.975486 -0.0435736 1.74093e-20)
(1.17021 -0.0341327 -1.01279e-19)
(1.23376 0.00881412 1.05671e-19)
(1.34724 0.0662566 8.45515e-20)
(1.39907 0.172127 6.06289e-21)
(1.41478 0.41368 -8.43404e-20)
(1.41412 0.666602 -1.25414e-20)
(1.40988 0.897865 -5.94972e-20)
(1.38002 1.0739 1.11935e-20)
(1.27964 1.11006 2.88681e-18)
(0.976161 -0.0652354 -9.07229e-20)
(1.18083 -0.0627773 5.92368e-20)
(1.24816 -0.0144568 1.59407e-19)
(1.36272 0.0539157 -9.20669e-20)
(1.41194 0.17703 -1.48261e-19)
(1.43973 0.432255 9.27344e-21)
(1.47257 0.690014 1.41977e-19)
(1.5098 0.923698 -4.8624e-19)
(1.53123 1.10441 -2.67208e-20)
(1.44796 1.15145 -6.46687e-18)
(0.974101 -0.0883326 4.24692e-21)
(1.19206 -0.0924363 1.10488e-19)
(1.26275 -0.0369286 4.85006e-20)
(1.37767 0.0450685 -2.21439e-19)
(1.42186 0.187236 -1.77561e-19)
(1.46332 0.452925 -4.65906e-20)
(1.5319 0.711846 2.45584e-20)
(1.61264 0.945288 -2.96836e-19)
(1.68383 1.1273 -1.09874e-18)
(1.61514 1.17081 -7.95614e-18)
(0.969222 -0.120327 -1.44403e-20)
(1.20435 -0.132107 -2.59729e-20)
(1.27718 -0.0684305 -6.03952e-20)
(1.39374 0.0290103 8.58437e-20)
(1.4352 0.183432 1.50857e-19)
(1.49624 0.449221 -4.40318e-20)
(1.6128 0.70216 -1.25285e-19)
(1.75458 0.934789 -1.25935e-18)
(1.90268 1.12958 -1.60907e-18)
(1.8988 1.20725 3.29074e-18)
(0.960696 -0.159592 -4.1358e-19)
(1.21772 -0.182428 -1.10702e-22)
(1.28604 -0.114617 -4.47837e-20)
(1.40163 0.0068122 2.46743e-19)
(1.42861 0.161925 2.96533e-19)
(1.50327 0.408476 -1.09206e-19)
(1.67083 0.639568 -9.35851e-20)
(1.88197 0.860881 -3.97425e-19)
(2.13953 1.06857 2.31653e-19)
(2.28397 1.15931 -3.22105e-19)
(0.949952 -0.199743 -2.75064e-20)
(1.23645 -0.233727 -5.20267e-20)
(1.28712 -0.157752 2.88698e-20)
(1.40472 -0.0179252 2.931e-20)
(1.41858 0.14673 1.73885e-33)
(1.48803 0.357087 1.89435e-21)
(1.68782 0.555455 -2.15117e-33)
(1.95249 0.755911 1.88021e-19)
(2.30314 0.95441 -9.33597e-19)
(2.58723 1.0572 -6.29495e-19)
(0.938127 -0.244866 1.45691e-18)
(1.26138 -0.27535 -7.44264e-34)
(1.2662 -0.208091 -3.81374e-20)
(1.30082 -0.0298946 -2.15565e-19)
(1.29448 0.133552 -4.56361e-19)
(1.40397 0.29191 -9.20246e-19)
(1.62746 0.455057 -5.17724e-33)
(1.93386 0.628176 -1.73764e-18)
(2.32819 0.800575 -3.16861e-18)
(2.75447 0.901734 1.67715e-18)
(0.927418 -0.300468 0)
(1.30398 -0.319612 -1.89138e-33)
(1.12752 -0.199265 0)
(1.12987 -0.0260806 0)
(1.14099 0.109982 0)
(1.26783 0.226294 0)
(1.49576 0.351868 -8.36697e-33)
(1.81866 0.489426 0)
(2.21545 0.633166 -3.40632e-19)
(2.73595 0.711406 1.25927e-18)
(0.916066 -0.360317 1.15476e-19)
(1.25527 -0.325756 -4.56171e-19)
(0.969201 -0.168575 -5.56881e-20)
(0.951291 -0.023383 0)
(0.971558 0.0803872 0)
(1.09658 0.161596 6.29672e-20)
(1.31063 0.251602 1.21302e-18)
(1.61827 0.353394 -1.95262e-19)
(1.99793 0.465599 -4.954e-19)
(2.53305 0.520147 4.6704e-18)
(0.883291 -0.405215 -1.51995e-17)
(1.09288 -0.278466 1.07098e-18)
(0.79814 -0.127269 -7.29639e-20)
(0.758862 -0.0197692 -9.32114e-20)
(0.783505 0.0517855 -4.91908e-19)
(0.894278 0.102314 -7.68716e-19)
(1.07929 0.159806 -1.06422e-18)
(1.34742 0.228294 -1.39903e-18)
(1.68826 0.305839 -1.61715e-18)
(2.18019 0.344327 3.62243e-18)
(0.808866 -0.394475 -4.13519e-19)
(0.887088 -0.207167 -1.21688e-18)
(0.608144 -0.0814172 -1.26181e-19)
(0.55712 -0.0146834 -8.27759e-20)
(0.578818 0.0275747 -8.86742e-34)
(0.665009 0.0534781 9.71427e-20)
(0.807429 0.083752 -1.50309e-32)
(1.01698 0.122571 -1.93401e-19)
(1.29276 0.16719 2.98466e-19)
(1.69937 0.192036 7.05354e-19)
(0.664176 -0.288844 3.4262e-17)
(0.618352 -0.107876 -3.13955e-18)
(0.394403 -0.034654 -2.41346e-19)
(0.343252 -0.00723569 -1.39214e-19)
(0.357672 0.00943089 3.81904e-19)
(0.412604 0.0180214 7.77334e-19)
(0.502349 0.0288551 7.91539e-19)
(0.637096 0.0447502 4.59589e-19)
(0.820848 0.0634191 -1.89267e-19)
(1.10154 0.0762181 3.5671e-18)
(0.33681 -0.0768297 5.58794e-19)
(0.261875 -0.00231452 -6.76812e-33)
(0.144694 0.018915 -3.0553e-19)
(0.121459 0.00313127 0)
(0.124807 -0.0021919 0)
(0.142659 -0.00530728 9.87233e-20)
(0.172803 -0.00619016 9.03951e-35)
(0.220406 -0.00414145 -1.23605e-19)
(0.288136 -0.00160917 -2.82097e-19)
(0.398982 0.00332054 1.00088e-18)
(2.00175 1.09573 -1.78773e-18)
(2.23882 1.07795 -2.30444e-18)
(2.44189 1.02875 0)
(2.63695 0.952257 -7.5962e-19)
(2.82351 0.852347 -1.78679e-18)
(2.99273 0.73229 -2.24932e-18)
(3.13708 0.594983 -4.79511e-19)
(3.25056 0.442667 1.26936e-18)
(3.32828 0.276953 -3.54777e-18)
(3.36768 0.098699 1.35665e-18)
(2.4983 1.14114 2.66508e-19)
(2.73025 1.0813 1.39574e-18)
(2.92363 1.00375 1.43763e-19)
(3.10656 0.909484 6.75098e-19)
(3.28048 0.800446 -1.1032e-18)
(3.43989 0.678184 -4.99728e-18)
(3.58092 0.543922 2.46617e-18)
(3.70046 0.399264 1.26994e-17)