/*--------------------------------*- C++ -*----------------------------------*\
  =========                 |
  \\      /  F ield         | OpenFOAM: The Open Source CFD Toolbox
   \\    /   O peration     | Website:  https://openfoam.org
    \\  /    A nd           | Version:  13
     \\/     M anipulation  |
\*---------------------------------------------------------------------------*/
FoamFile
{
    format      ascii;
    class       volScalarField;
    location    "1";
    object      p;
}
// * * * * * * * * * * * * * * * * * * * * * * * * * * * * * * * * * * * * * //

dimensions      [0 2 -2 0 0 0 0];

internalField   nonuniform List<scalar> 
440
(
-1.3197
-1.30674
-1.24868
-1.11976
-0.961996
-1.55834
-1.52985
-1.43283
-1.27174
-1.10342
-1.75729
-1.70444
-1.55236
-1.3572
-1.16547
-1.88769
-1.79999
-1.59571
-1.37664
-1.18021
-1.91779
-1.77951
-1.53731
-1.30198
-1.09882
-0.134923
-0.123371
-0.0948066
-0.0445789
0.033867
-0.289103
-0.278552
-0.252326
-0.197806
-0.110202
-0.522083
-0.512162
-0.494606
-0.435283
-0.328114
-0.791213
-0.785478
-0.764768
-0.699552
-0.577772
-1.06155
-1.05508
-1.02498
-0.936551
-0.796804
0.226421
0.0660566
0.0672966
0.0422251
0.0136418
0.195189
0.0551405
0.064452
0.0408095
0.0131158
0.13508
0.047607
0.0603618
0.0389463
0.0125318
0.0299097
0.0418335
0.0554245
0.0366056
0.0119111
-0.121858
0.0330334
0.0500332
0.0338139
0.0111884
-0.219939
0.0227568
0.0430683
0.0293673
0.0100276
-0.23373
-0.00945724
0.0205622
0.0190788
0.00712534
-0.211421
-0.0133661
0.0171264
0.0151437
0.00559438
-0.211603
-0.0367871
0.00500393
0.00868473
0.00343587
-0.209825
-0.0495968
-0.00310696
0.00474059
0.0022108
-0.781818
-0.857972
-0.856502
-0.826991
-0.743723
-0.533886
-0.608934
-0.633317
-0.619365
-0.58202
-0.372622
-0.440698
-0.468478
-0.457262
-0.427691
-0.275292
-0.338635
-0.367518
-0.364179
-0.341487
-0.220474
-0.288081
-0.322793
-0.325334
-0.308131
0.460105
0.327532
0.163911
-0.0234735
-0.238571
0.0798424
-0.0685754
-0.253189
-0.469147
-0.720482
-0.320179
-0.484125
-0.69084
-0.92444
-1.19055
-0.669101
-0.84894
-1.07812
-1.32927
-1.56753
-0.936986
-1.13166
-1.36992
-1.62407
-1.8176
1.6642
1.68869
1.7153
1.73333
1.73677
1.47969
1.49382
1.50559
1.50406
1.48491
1.24288
1.23687
1.21404
1.17161
1.10731
0.983745
0.955094
0.89735
0.812677
0.702505
0.722826
0.642435
0.533162
0.400332
0.238711
1.53962
1.35226
1.51731
1.45781
1.59069
1.52801
1.33841
1.49711
1.42455
1.50217
1.51685
1.32309
1.47481
1.38153
1.38702
1.50632
1.30674
1.45066
1.32917
1.2159
1.49693
1.28975
1.42589
1.26716
1.0301
1.48637
1.26807
1.39016
1.17411
0.827937
1.47799
1.24523
1.35985
1.09339
0.822801
1.47812
1.22767
1.33756
1.0381
0.817248
1.4761
1.21361
1.32273
0.998205
0.82511
1.50156
1.21078
1.31492
0.976151
0.828856
0.447289
0.162106
-0.166353
-0.446861
-0.657476
0.385801
0.188634
-0.0350713
-0.245134
-0.415505
0.381837
0.21197
0.0441019
-0.119855
-0.260728
0.409054
0.247151
0.0977405
-0.0433767
-0.169201
0.427436
0.272071
0.132406
0.00245461
-0.116181
-1.69588
-1.51243
-1.32066
-1.15733
-1.05771
-1.71048
-1.6321
-1.47209
-1.31511
-1.20087
-1.58004
-1.54159
-1.43003
-1.30672
-1.18612
-1.41069
-1.37847
-1.33113
-1.24892
-1.14512
-1.25164
-1.23953
-1.23703
-1.1797
-1.03805
-1.09456
-1.1065
-1.12709
-1.13587
-0.982582
-0.800325
-0.807049
-0.811674
-0.832485
-0.651059
-0.432701
-0.423016
-0.401071
-0.354157
-0.223909
-0.187064
-0.172179
-0.139953
-0.0829455
-0.00333013
-0.0919123
-0.079027
-0.0487441
0.00255817
0.0630642
-0.0802443
0.0319457
0.057707
0.0427706
0.0153819
0.104875
0.0425704
0.0711533
0.045756
0.0152399
0.185609
0.0442863
0.0666557
0.0442067
0.0147555
0.219476
0.0630245
0.0703391
0.0442079
0.0144866
0.237717
0.0702067
0.0689912
0.0432713
0.0140851
-0.363592
-0.0936321
0.0341418
0.0386661
0.0151637
-0.277341
0.0369504
0.081399
0.051463
0.0169641
-1.00504
-1.10725
-1.14892
-0.944119
-0.749932
-1.02166
-1.13517
-1.11803
-0.984707
-0.757402
1.4523
1.42085
1.37446
1.31347
1.23306
1.60234
1.61956
1.62438
1.61339
1.58639
1.72986
1.75312
1.77039
1.776
1.76884
1.7829
1.81438
1.84978
1.87981
1.89383
1.76549
1.79665
1.8325
1.86306
1.87723
-0.63592
-0.747378
-0.924004
-1.13474
-1.41766
-0.0329226
-0.171414
-0.355441
-0.583327
-0.892228
0.512689
0.370357
0.200761
-0.00397692
-0.271354
0.953893
0.843939
0.708815
0.541798
0.337362
1.28781
1.21034
1.10641
0.979408
0.831099
1.60043
1.39378
1.5767
1.49465
1.58764
1.58743
1.38937
1.56892
1.50461
1.61368
1.57536
1.38293
1.56118
1.50548
1.67844
1.56339
1.37469
1.54946
1.49851
1.66422
1.55145
1.36441
1.53484
1.48234
1.64452
1.64549
1.40249
1.57458
1.44769
1.49242
1.61031
1.39497
1.57181
1.46966
1.48403
1.15984
0.958683
0.585248
0.0219885
-0.601067
1.25525
0.99506
0.59544
0.0375549
-0.595742
)
;

boundaryField
{
    left
    {
        type            zeroGradient;
    }
    right
    {
        type            fixedValue;
        value           uniform 0;
    }
    down
    {
        type            zeroGradient;
    }
    up
    {
        type            zeroGradient;
    }
    cylinder
    {
        type            zeroGradient;
    }
    defaultFaces
    {
        type            empty;
    }
}


// ************************************************************************* //
