/*--------------------------------*- C++ -*----------------------------------*\
  =========                 |
  \\      /  F ield         | OpenFOAM: The Open Source CFD Toolbox
   \\    /   O peration     | Website:  https://openfoam.org
    \\  /    A nd           | Version:  13
     \\/     M anipulation  |
\*---------------------------------------------------------------------------*/
FoamFile
{
    format      ascii;
    class       volVectorField;
    location    "1";
    object      U;
}
// * * * * * * * * * * * * * * * * * * * * * * * * * * * * * * * * * * * * * //

dimensions      [0 1 -1 0 0 0 0];

internalField   nonuniform List<vector> 
440
(
(-0.0876148 0.0762185 -1.17411e-19)
(0.473273 -0.245104 5.53093e-20)
(1.12357 -0.558432 5.46851e-19)
(1.55989 -0.733253 -1.36806e-18)
(1.73387 -0.811977 4.08516e-20)
(0.0491334 -0.0321579 1.1805e-19)
(0.895861 -0.323541 -3.72708e-19)
(1.60125 -0.526398 -5.2176e-19)
(1.96619 -0.609136 1.69097e-19)
(2.11266 -0.655854 8.40987e-20)
(0.295532 -0.112871 6.24509e-20)
(1.37566 -0.300999 1.90124e-18)
(2.01389 -0.400364 -1.85258e-18)
(2.26304 -0.435351 -5.16653e-18)
(2.29395 -0.432834 1.94378e-18)
(0.622986 -0.10809 -2.24456e-19)
(1.79096 -0.161542 -1.20417e-18)
(2.28742 -0.188892 3.6655e-18)
(2.41171 -0.195796 3.75313e-18)
(2.3986 -0.208631 -1.03205e-18)
(0.943381 -0.00390315 -5.20409e-19)
(2.06272 0.0472993 -1.0673e-18)
(2.40619 0.0528583 3.04636e-18)
(2.44569 0.0261265 3.00365e-18)
(2.39515 0.00724976 9.69696e-19)
(-0.0304112 0.0784693 7.35675e-20)
(-0.0961304 0.00461869 -1.76895e-19)
(-0.0818435 -0.123691 4.28982e-19)
(-0.026907 -0.236294 -1.29065e-19)
(0.0668409 -0.326816 -1.23464e-18)
(-0.060841 0.179866 4.69065e-20)
(-0.084877 0.0574493 1.28842e-19)
(-0.00112243 -0.181836 1.04493e-19)
(0.111531 -0.397163 6.67066e-20)
(0.267448 -0.57361 -5.56596e-20)
(-0.104799 0.233202 -5.90841e-19)
(-0.0551281 0.0603016 -1.97656e-19)
(0.147107 -0.267308 -2.86556e-19)
(0.354553 -0.552409 1.33731e-18)
(0.594389 -0.771891 -2.89867e-20)
(-0.137012 0.226205 -1.11343e-19)
(0.0236106 -0.00577664 1.45095e-19)
(0.377175 -0.384969 -4.34564e-19)
(0.700356 -0.687547 -1.27505e-18)
(0.993022 -0.888879 3.10441e-19)
(-0.138296 0.167346 1.68447e-19)
(0.187552 -0.12319 8.46085e-20)
(0.702641 -0.500376 -2.33138e-19)
(1.11632 -0.761766 6.74796e-19)
(1.38883 -0.901006 2.07642e-18)
(0.497614 -0.283777 -4.58708e-20)
(0.857405 -0.150864 8.53526e-20)
(0.947315 -0.0919326 6.62352e-21)
(0.992958 -0.0565003 -1.52638e-20)
(1.01612 -0.0227468 -4.14247e-21)
(0.499326 -0.442103 4.4013e-19)
(0.8827 -0.209886 -4.08978e-21)
(0.962053 -0.116115 -8.70493e-22)
(1.00277 -0.0661463 1.11705e-20)
(1.02151 -0.0257995 8.72567e-21)
(0.574304 -0.554852 1.99596e-19)
(0.916824 -0.27027 6.14291e-20)
(0.982212 -0.139403 7.77634e-23)
(1.01468 -0.0745935 2.0274e-20)
(1.02756 -0.0283199 -3.10423e-21)
(0.774172 -0.623788 -4.67233e-19)
(0.966515 -0.32602 -9.60416e-21)
(1.008 -0.160715 -1.67936e-20)
(1.0282 -0.0814843 -1.68479e-20)
(1.03402 -0.0300816 3.96187e-21)
(1.08069 -0.646777 -1.00176e-19)
(1.05572 -0.364095 -9.34853e-20)
(1.046 -0.178688 0)
(1.04468 -0.0877867 1.95261e-20)
(1.04093 -0.0314843 3.44619e-21)
(1.55616 -0.606056 2.07802e-21)
(1.25078 -0.353545 5.34279e-20)
(1.12942 -0.174155 4.12454e-23)
(1.07896 -0.0846529 1.11062e-20)
(1.05316 -0.03025 -1.18163e-20)
(1.56251 -0.38197 5.64678e-20)
(1.25083 -0.216081 -5.83313e-20)
(1.13928 -0.116982 -6.90511e-22)
(1.09037 -0.0630104 -2.53008e-20)
(1.05999 -0.0236839 0)
(1.60541 -0.275435 -4.38857e-20)
(1.3036 -0.162701 5.32378e-21)
(1.16997 -0.0894011 -2.13143e-20)
(1.10706 -0.0472326 9.06848e-21)
(1.06689 -0.0174765 -4.87504e-21)
(1.60254 -0.142687 -6.28522e-20)
(1.30203 -0.0774357 8.36339e-21)
(1.16419 -0.0443127 -3.21876e-21)
(1.10062 -0.0256127 -1.31817e-35)
(1.05873 -0.00994777 -1.48137e-21)
(1.20166 -0.0197913 2.75264e-21)
(1.01811 -0.00830913 -7.44662e-21)
(0.94018 -0.0059 3.31987e-21)
(0.90013 -0.0040654 -2.29283e-21)
(0.869666 -0.00163784 1.07923e-21)
(2.19751 -0.0407366 -1.16591e-18)
(2.27007 -0.156338 -1.39889e-18)
(2.14853 -0.394061 1.42948e-18)
(2.13004 -0.475794 -2.00667e-19)
(1.87543 -0.777583 -9.93219e-20)
(2.03426 -0.0456178 2.0619e-20)
(2.09122 -0.0595649 -3.49427e-20)
(2.04019 -0.247964 -7.44861e-20)
(2.01237 -0.235393 -1.58972e-19)
(1.93711 -0.473432 4.94475e-21)
(1.95879 -0.059059 5.47952e-20)
(1.98083 -0.0517915 1.05844e-19)
(1.95789 -0.178131 -1.56551e-19)
(1.91522 -0.16042 4.04317e-20)
(1.87646 -0.301798 9.30298e-20)
(1.87343 -0.0480359 9.59438e-20)
(1.87631 -0.0482313 6.31132e-20)
(1.87453 -0.115072 -1.02788e-20)
(1.83267 -0.105779 5.88111e-20)
(1.83011 -0.174411 -4.24456e-21)
(1.48033 -0.0321821 1.35559e-19)
(1.44698 -0.0281916 -1.08722e-20)
(1.42281 -0.0380165 1.91993e-20)
(1.3681 -0.0295335 1.93364e-21)
(1.35731 -0.0405458 3.84637e-20)
(1.45322 0.787498 1.01073e-18)
(1.43136 0.882971 -2.88367e-19)
(1.44115 1.00582 -1.1792e-18)
(1.38058 1.05173 6.63924e-19)
(0.860238 0.771849 -1.79696e-19)
(1.74833 0.693223 -5.33683e-19)
(1.7385 0.783769 -2.78805e-18)
(1.75116 0.896524 -1.09528e-18)
(1.68163 0.930923 -4.10654e-19)
(1.04783 0.681653 -6.66616e-19)
(2.01265 0.579238 7.51911e-19)
(2.01725 0.655546 1.97373e-19)
(2.02906 0.75075 -2.23435e-18)
(1.93242 0.754311 -6.71661e-19)
(1.18392 0.537818 5.45277e-19)
(2.19941 0.407168 2.4157e-18)
(2.235 0.468244 1.8086e-18)
(2.25423 0.543028 -2.15159e-18)
(2.11165 0.534423 -1.75098e-18)
(1.23439 0.361509 -3.63874e-19)
(2.34106 0.228266 1.27189e-18)
(2.38235 0.268102 -9.59854e-19)
(2.38416 0.311943 7.01331e-19)
(2.15916 0.295322 6.64023e-19)
(1.15677 0.170283 -6.61609e-19)
(0.522522 0.35558 -5.39468e-19)
(0.446015 0.381823 -4.60762e-19)
(0.341806 0.410716 6.71493e-20)
(0.215386 0.425329 -2.76129e-20)
(0.0549215 0.318192 6.95158e-20)
(0.63305 0.538411 1.3475e-19)
(0.565514 0.58662 -2.69313e-19)
(0.473109 0.646758 1.71975e-19)
(0.351891 0.694794 -7.83476e-20)
(0.151051 0.532359 1.10469e-19)
(0.740278 0.727301 2.09633e-19)
(0.676309 0.795998 3.9343e-19)
(0.612225 0.87865 2.54313e-20)
(0.520936 0.922646 -2.45305e-19)
(0.283462 0.68812 1.90206e-19)
(0.978536 0.805752 1.9573e-19)
(0.93177 0.88577 -5.19365e-19)
(0.881873 0.977314 -1.59322e-18)
(0.796625 1.03434 6.54058e-19)
(0.469683 0.774582 -1.8364e-19)
(1.12072 0.844611 -1.34748e-19)
(1.12927 0.950435 -2.08478e-19)
(1.13601 1.05717 -2.80671e-19)
(1.07692 1.1008 -3.2611e-19)
(0.664508 0.811668 -5.55383e-21)
(0.82391 0.0251399 -1.01773e-19)
(1.14432 0.0586262 -3.8693e-20)
(0.929701 0.093262 -3.33024e-21)
(0.954391 0.123939 -3.38734e-19)
(0.79383 0.228003 2.89182e-19)
(0.823231 0.020113 7.64049e-20)
(1.14492 0.0619702 1.29602e-19)
(0.939161 0.103537 1.25191e-19)
(0.967543 0.158292 5.6997e-20)
(0.87399 0.310445 -1.11745e-20)
(0.822532 0.0158834 1.00848e-19)
(1.14425 0.0640202 -4.49128e-21)
(0.952627 0.114236 -3.49879e-22)
(0.978343 0.181473 1.55222e-19)
(1.0122 0.422016 -4.66974e-19)
(0.821372 0.0126051 -3.46197e-21)
(1.14366 0.0646679 -1.62231e-19)
(0.964003 0.123677 -6.23533e-20)
(1.0165 0.196599 -4.20718e-19)
(1.12161 0.478386 9.99874e-20)
(0.818781 0.0116907 -2.54087e-20)
(1.14483 0.0653142 4.20632e-20)
(0.976528 0.131765 2.99167e-20)
(1.04165 0.216776 4.56435e-19)
(1.30938 0.593922 -4.58373e-19)
(0.80863 0.00942978 -1.29292e-20)
(1.16438 0.0603947 7.60535e-20)
(0.98855 0.129283 -9.09236e-20)
(1.16245 0.180686 8.03568e-19)
(1.27241 0.613688 -3.85911e-19)
(0.806748 -0.00136937 -3.74292e-21)
(1.17593 0.0480913 -7.18568e-20)
(1.02069 0.0997638 3.67418e-21)
(1.19269 0.161637 -2.41931e-19)
(1.34246 0.441715 6.68262e-21)
(0.806057 -0.00682052 -6.45403e-21)
(1.18693 0.0319722 1.00214e-35)
(1.04943 0.0737584 -4.46255e-20)
(1.20714 0.113587 8.30437e-20)
(1.41476 0.319272 1.55396e-19)
(0.804515 -0.0270719 7.81144e-21)
(1.18655 0.00719307 -1.50171e-20)
(1.06272 0.0426542 1.52475e-20)
(1.21008 0.0717859 3.52244e-20)
(1.46282 0.186676 -2.46621e-19)
(0.764901 -0.021085 -3.55129e-20)
(1.02792 -0.00992443 -1.64532e-21)
(0.892236 0.0106452 2.35014e-20)
(1.04041 0.0138987 -1.28208e-20)
(1.2635 0.0465335 -5.76645e-20)
(1.60576 0.596888 3.20469e-19)
(1.76364 0.520826 7.39749e-19)
(1.96164 0.441014 -1.06145e-18)
(2.07147 0.281002 3.29602e-20)
(2.21128 0.163505 4.37117e-19)
(1.63911 0.366263 5.27873e-20)
(1.73624 0.317423 9.37754e-19)
(1.87077 0.275946 1.03882e-19)
(1.939 0.155815 -8.92115e-19)
(2.04693 0.112568 -2.8313e-19)
(1.67003 0.231725 -2.1958e-19)
(1.75036 0.188333 -1.45518e-19)
(1.8346 0.159678 1.45939e-19)
(1.88236 0.0744052 -2.72217e-19)
(1.94879 0.0527315 2.39181e-19)
(1.66016 0.127754 3.428e-19)
(1.72623 0.0956431 -6.25892e-21)
(1.78385 0.0760541 2.02519e-19)
(1.81658 0.0280686 1.67152e-19)
(1.85639 0.01496 -1.59285e-19)
(1.43683 0.0231753 -4.09587e-20)
(1.48226 0.00957164 2.20519e-19)
(1.50106 0.000281788 9.36147e-20)
(1.49863 -0.0130373 -1.85206e-19)
(1.49246 -0.0179095 7.65231e-22)
(1.41309 -0.0411225 5.89585e-20)
(2.50854 -0.00437965 -5.74625e-19)
(2.72511 -0.0025276 1.55177e-18)
(2.71113 0.0579283 7.40954e-19)
(2.49337 0.0598101 -4.76594e-19)
(0.964685 0.0964724 1.1572e-19)
(2.32712 0.140791 -6.22519e-19)
(2.72795 0.16798 -9.02966e-19)
(2.72515 0.174894 1.29536e-18)
(2.52644 0.192787 -9.63094e-19)
(0.286447 0.0924111 -5.86572e-20)
(1.77114 0.224971 6.44946e-19)
(2.52292 0.28971 1.24191e-19)
(2.80655 0.346713 1.37823e-18)
(2.75231 0.291706 7.7993e-19)
(-0.124651 -0.0721187 2.06288e-19)
(0.841624 0.142405 2.25303e-19)
(1.87117 0.316141 -7.7806e-19)
(2.408 0.395826 9.60666e-20)
(2.84381 0.488474 1.00532e-18)
(-0.262491 -0.253857 2.24276e-19)
(0.0830794 -0.105058 -1.12587e-19)
(0.96546 0.192293 -4.52111e-20)
(1.63189 0.415695 4.03718e-19)
(2.23451 0.600267 2.72642e-19)
(-0.288623 -0.382454 2.70794e-19)
(-0.206233 -0.320884 -3.48977e-20)
(0.317463 0.00786284 4.7127e-20)
(0.819998 0.338771 -5.99857e-19)
(1.5886 0.662302 7.20924e-20)
(-0.254393 -0.421095 -2.15712e-19)
(-0.280692 -0.370417 3.75736e-20)
(-0.0301156 -0.0752822 2.15097e-19)
(0.253549 0.277981 -4.19781e-19)
(0.775278 0.644297 -1.72018e-19)
(-0.166785 -0.344113 -2.18537e-19)
(-0.258588 -0.296041 2.6227e-20)
(-0.181708 -0.0694009 -6.266e-19)
(-0.0542115 0.190604 -2.13552e-18)
(0.208607 0.4659 1.00467e-18)
(-0.0781068 -0.202058 -3.60543e-20)
(-0.17849 -0.185787 -1.2248e-19)
(-0.173271 -0.0678188 5.23876e-19)
(-0.112313 0.0661379 1.45471e-18)
(0.0162028 0.212554 -1.79307e-19)
(-0.0316317 -0.053768 1.414e-20)
(-0.119085 -0.0805422 -5.24066e-20)
(-0.129054 -0.0859308 2.87511e-20)
(-0.090107 -0.0783428 -1.42804e-20)
(-0.0101586 -0.058874 -3.84482e-19)
(1.02218 0.406756 2.83619e-19)
(0.923458 0.152379 5.71339e-20)
(0.929924 0.0330366 -1.92577e-21)
(0.96812 -0.00339337 1.71578e-20)
(0.998856 -0.00479222 6.03346e-22)
(0.527058 0.399103 2.96808e-19)
(0.861724 0.0764643 -6.60491e-20)
(0.929063 -0.00830359 -3.29271e-20)
(0.975229 -0.0195959 1.86236e-21)
(1.00268 -0.0093349 -2.90959e-21)
(0.432081 0.279874 2.52982e-19)
(0.855085 0.0219776 -1.07179e-19)
(0.929853 -0.0155489 -4.48152e-22)
(0.976122 -0.0243854 -4.63295e-21)
(1.00469 -0.0120427 4.27172e-21)
(0.474014 0.110946 -6.83917e-20)
(0.841319 -0.0458374 2.43665e-19)
(0.930399 -0.0466654 2.40724e-21)
(0.979739 -0.0363058 -1.20592e-21)
(1.00771 -0.0158625 4.07392e-22)
(0.500791 -0.0908526 -2.03229e-20)
(0.84406 -0.0962792 -3.77581e-20)
(0.937197 -0.0678993 5.33479e-21)
(0.985314 -0.0461669 5.1177e-21)
(1.0115 -0.0193374 2.98556e-22)
(0.48429 -0.0699953 -1.17103e-19)
(0.614135 -0.0895808 0)
(0.687613 -0.0332095 -9.07749e-21)
(0.732159 -0.00909432 1.8206e-20)
(0.756277 -0.0018239 -3.84083e-21)
(1.88315 0.308393 0)
(1.25451 0.0454373 0)
(1.02733 0.0026499 3.63043e-20)
(0.981418 -0.00690464 5.68427e-21)
(0.986745 -0.00376977 8.08251e-22)
(0.765952 0.00873874 -9.81165e-20)
(0.874552 0.00993553 3.70196e-19)
(0.774577 0.0307008 6.68942e-20)
(0.98081 0.0553761 4.38709e-19)
(1.01097 0.162224 1.57396e-19)
(1.79617 0.053408 9.65646e-20)
(1.98373 0.113454 5.16033e-19)
(2.00679 0.242343 -4.14569e-19)
(2.46884 0.225996 4.63965e-19)
(2.38373 0.60647 7.00169e-19)
(0.885034 -0.489947 7.71299e-20)
(0.889105 -0.591831 -1.89893e-19)
(0.904769 -0.707717 -1.91157e-19)
(0.851952 -0.785267 1.09728e-19)
(0.52128 -0.61361 1.27515e-19)
(0.844758 -0.395483 1.0015e-19)
(0.797839 -0.461911 1.78048e-19)
(0.725306 -0.535894 -6.58805e-20)
(0.607865 -0.606581 1.23327e-19)
(0.328433 -0.483602 3.36412e-20)
(0.622623 -0.28042 -9.32877e-20)
(0.541671 -0.326594 -4.08429e-20)
(0.451204 -0.386282 9.72387e-21)
(0.343271 -0.426549 -4.12913e-20)
(0.155084 -0.322215 -9.59073e-20)
(0.531958 -0.0653883 -3.52857e-19)
(0.459344 -0.0899387 -3.04329e-19)
(0.359384 -0.126757 2.52846e-19)
(0.236136 -0.16519 1.54767e-19)
(0.0715153 -0.135466 1.23556e-20)
(0.493919 0.131068 -1.50963e-19)
(0.417141 0.132138 -1.55476e-19)
(0.30978 0.131165 -6.33429e-20)
(0.1814 0.128608 2.93598e-20)
(0.0302207 0.0953665 1.25298e-20)
(2.29542 0.00376672 8.90636e-19)
(2.50759 -0.075455 3.37439e-19)
(2.57803 -0.170426 -8.5487e-19)
(2.46718 -0.205934 -1.92921e-18)
(1.5468 -0.224965 1.36287e-19)
(2.22128 -0.100497 1.50695e-18)
(2.29668 -0.211268 1.95165e-18)
(2.30095 -0.339282 1.63848e-19)
(2.22955 -0.413888 2.842e-19)
(1.47267 -0.414759 -1.94435e-19)
(1.93406 -0.26953 -3.83838e-18)
(1.96051 -0.390169 4.19764e-19)
(1.96795 -0.523471 1.20236e-18)
(1.90771 -0.618118 -4.9117e-19)
(1.25558 -0.555984 7.85487e-19)
(1.63465 -0.392177 9.0456e-19)
(1.60416 -0.486639 -2.4175e-18)
(1.58279 -0.615354 -2.84231e-18)
(1.53119 -0.727436 9.00023e-19)
(0.998019 -0.623419 5.77118e-19)
(1.2968 -0.460778 2.12177e-19)
(1.22683 -0.556619 2.43941e-19)
(1.21383 -0.689605 -4.34545e-19)
(1.16494 -0.791449 -5.27684e-19)
(0.737727 -0.638149 -5.14657e-21)
(0.825073 0.040621 2.74726e-21)
(1.12529 0.039123 -6.8792e-21)
(0.922494 0.0179333 -2.53088e-20)
(0.88098 -0.00696539 -1.20515e-19)
(1.11721 -0.21235 -1.09501e-20)
(0.826709 0.0425393 -2.74042e-21)
(1.12792 0.0437046 5.04795e-20)
(0.928411 0.0389224 -7.97201e-20)
(0.895936 0.00587683 6.01497e-20)
(0.970079 -0.0994489 -1.42188e-20)
(0.826632 0.0392377 -4.77968e-20)
(1.13217 0.0471251 6.96747e-22)
(0.929805 0.0542514 -2.2787e-20)
(0.892393 0.0246032 -3.74392e-20)
(0.899354 -0.0547637 -1.51008e-19)
(0.825805 0.03523 7.6516e-20)
(1.13753 0.0505758 3.51847e-21)
(0.925493 0.0696594 3.77681e-20)
(0.922007 0.0518002 7.42876e-20)
(0.791025 0.0568134 1.128e-19)
(0.824786 0.0303421 1.7501e-20)
(1.14183 0.0546061 -3.23518e-20)
(0.925154 0.0820484 4.5847e-20)
(0.939724 0.0890677 8.74369e-20)
(0.765412 0.129173 -1.12909e-19)
(0.755434 0.0283737 0)
(0.907125 0.0184221 7.32805e-21)
(0.686848 0.00348338 -3.10164e-21)
(0.755598 -0.0100596 5.26607e-20)
(0.870713 -0.0291618 -1.41328e-19)
(0.817564 0.0518655 -4.5582e-20)
(1.12252 0.0387049 -2.17731e-20)
(0.898021 0.00966013 1.27997e-21)
(0.97062 -0.00997006 -8.87258e-20)
(0.999573 -0.211372 -1.39006e-19)
(1.23211 -0.0399771 -2.80414e-20)
(1.30403 -0.0198915 5.16193e-19)
(1.40153 0.0482469 3.37479e-19)
(1.21555 0.0741567 9.88699e-21)
(0.897753 0.0405989 0)
(1.44836 -0.29945 3.13782e-19)
(1.60038 -0.262178 1.53645e-18)
(1.81612 -0.142491 -1.8093e-18)
(1.92656 0.00495791 -5.85423e-19)
(1.83057 0.0620634 4.08642e-19)
)
;

boundaryField
{
    left
    {
        type            fixedValue;
        value           uniform (1 0 0);
    }
    right
    {
        type            zeroGradient;
    }
    down
    {
        type            noSlip;
    }
    up
    {
        type            noSlip;
    }
    cylinder
    {
        type            noSlip;
    }
    defaultFaces
    {
        type            empty;
    }
}


// ************************************************************************* //
