/*--------------------------------*- C++ -*----------------------------------*\
  =========                 |
  \\      /  F ield         | OpenFOAM: The Open Source CFD Toolbox
   \\    /   O peration     | Website:  https://openfoam.org
    \\  /    A nd           | Version:  13
     \\/     M anipulation  |
\*---------------------------------------------------------------------------*/
FoamFile
{
    format      ascii;
    class       volVectorField;
    location    "4.7";
    object      U;
}
// * * * * * * * * * * * * * * * * * * * * * * * * * * * * * * * * * * * * * //

dimensions      [0 1 -1 0 0 0 0];

internalField   nonuniform List<vector>
1800
(
(0.00744044564934 -0.0209194948907 2.44153222993e-17)
(0.532906504697 -0.455365737814 3.79150320809e-17)
(1.05808007044 -0.864910420669 6.97916069176e-18)
(1.34528481335 -1.05764175346 6.89757838057e-18)
(1.45511400226 -1.09525129919 -1.75426050107e-17)
(1.48379824752 -1.06220598406 -9.57562808537e-18)
(1.48336241848 -1.00660176934 6.12110387838e-18)
(1.47361425021 -0.947869261588 5.5333596565e-18)
(1.46153164629 -0.88845444136 -1.26106656905e-18)
(1.42803512958 -0.840378033583 -1.80450101247e-18)
(0.0303241864786 -0.0375333385598 3.16384749044e-18)
(0.637053868473 -0.460706870711 5.48667716703e-18)
(1.21846331273 -0.848299501223 -4.97861333758e-20)
(1.52511753069 -1.02499499991 -1.54073606385e-18)
(1.63390198236 -1.05525105946 1.67381875126e-18)
(1.65485515671 -1.01990707375 6.89063787025e-19)
(1.64625696575 -0.963681998478 -5.86928257845e-19)
(1.63003042402 -0.904141958081 2.56089678976e-19)
(1.61296930333 -0.845442057877 1.18074672755e-18)
(1.58929267239 -0.8016294229 -3.77376448254e-19)
(0.060453497857 -0.053574908345 1.0348925814e-19)
(0.747755913742 -0.454425641961 -2.79577711265e-19)
(1.3789474396 -0.810944281913 4.73930973629e-19)
(1.6995143891 -0.967936227297 -5.95360939007e-19)
(1.80405012917 -0.991240601322 -1.54673743188e-18)
(1.81543798267 -0.956152343475 3.13704766906e-19)
(1.79690759252 -0.903351691474 5.86026668485e-19)
(1.77140656815 -0.848868698556 -7.48541280514e-20)
(1.74574486524 -0.796656565957 -4.97892539282e-21)
(1.71313828144 -0.755765263886 -3.42027256815e-20)
(0.0979038066562 -0.0673084497726 1.13992568545e-20)
(0.86294468838 -0.434412377338 -8.73242091229e-20)
(1.53604033866 -0.751558449647 -2.81785909203e-19)
(1.86503647084 -0.885501669239 7.09136510076e-20)
(1.96324958095 -0.901543183651 3.98601000532e-19)
(1.96507923993 -0.867159948863 3.68432824877e-20)
(1.93755155341 -0.817838492095 -2.42604192811e-20)
(1.90417686031 -0.767261970382 5.46377263387e-19)
(1.87141493126 -0.718835677028 4.51247307677e-19)
(1.83532995762 -0.682439825413 -1.49070157043e-19)
(0.142390411612 -0.0772737324464 8.89115709696e-20)
(0.980006484619 -0.400044111675 1.51091453082e-19)
(1.68548934386 -0.671542186945 -8.3371180269e-20)
(2.01669329101 -0.780875097774 -9.8048968305e-20)
(2.1062476694 -0.790858885198 -1.20271159624e-18)
(2.09841897452 -0.759267859792 1.06850325229e-20)
(2.06258833282 -0.715763734243 9.32286049597e-19)
(2.02224526185 -0.671686789296 3.23069643448e-19)
(1.98353142238 -0.630110006165 2.30532411862e-20)
(1.94362222173 -0.59846884036 -1.99675580278e-19)
(0.19284661909 -0.0816928195043 -8.03101233136e-20)
(1.0954110418 -0.350227094674 1.65572537749e-19)
(1.8228819528 -0.571421454369 1.10227876463e-18)
(2.15016274365 -0.655509102027 -8.24331069354e-19)
(2.22925463192 -0.660656699381 -8.73153674598e-19)
(2.21208296177 -0.633170082277 1.44712974411e-18)
(2.1688974638 -0.596527413642 -1.04090645079e-18)
(2.12257124053 -0.559694681264 -1.14477044119e-18)
(2.0786932527 -0.525211501468 8.30403454867e-19)
(2.03560412192 -0.499344308407 -3.19999597907e-20)
(0.247722152762 -0.0791373618641 -1.95500829448e-20)
(1.20545049573 -0.285009858535 -4.83546552465e-19)
(1.9440430529 -0.453310865435 -2.92525512386e-18)
(2.26167758546 -0.512889477776 1.36716643627e-18)
(2.329134202 -0.515110259378 2.20429516609e-18)
(2.30341791212 -0.493308350761 -6.3627776006e-21)
(2.25422518971 -0.464802966406 -2.81692612128e-18)
(2.20327310931 -0.436288126965 -2.52287656248e-21)
(2.15555061035 -0.4097992478 2.52237642715e-18)
(2.1100356751 -0.390183357848 6.64147158583e-19)
(0.304796455715 -0.0684428959466 5.49817921538e-20)
(1.30597113147 -0.204947646109 4.20141749365e-19)
(2.04489029587 -0.319665317386 2.24755646911e-18)
(2.34790316313 -0.356504822974 -8.11663545495e-20)
(2.40325503184 -0.35793312348 -1.41791729723e-18)
(2.37014489242 -0.343081176497 -4.36816154241e-19)
(2.31637679109 -0.323597034901 0)
(2.26210064779 -0.304087391337 9.88937041076e-19)
(2.21169896726 -0.286105681894 1.01759608181e-20)
(2.16454623932 -0.273308047651 -8.0322493162e-19)
(0.361375950742 -0.0490212492503 8.10969641046e-21)
(1.39296984492 -0.111603118026 8.46737820414e-19)
(2.12190730444 -0.173845511199 2.01891715176e-18)
(2.40648829442 -0.190576136943 -1.99453948223e-18)
(2.45013547922 -0.193421305017 -1.43636442206e-18)
(2.41105707492 -0.186445395639 4.47465386464e-19)
(2.35422158778 -0.176590880037 -1.8813046806e-18)
(2.29801490809 -0.166512154198 -1.27785249168e-18)
(2.24613820021 -0.157286633963 1.52006847572e-18)
(2.19823220817 -0.151484800623 1.29386394205e-18)
(0.414513011131 -0.0210136041005 5.28103543596e-20)
(1.46289826433 -0.0072793758642 5.8999912016e-19)
(2.17212748845 -0.0195043836447 3.79023596344e-19)
(2.43631964438 -0.0196260261412 -2.89289994696e-18)
(2.4690624864 -0.0259197209204 4.05655266387e-20)
(2.42560067945 -0.0271674473772 4.27013300659e-18)
(2.36717753081 -0.0271832782277 -2.26039278017e-18)
(2.31029048132 -0.0267406508401 -1.26841478751e-18)
(2.25812709691 -0.0263270411557 4.13521241449e-19)
(2.21043398582 -0.0274721277632 -9.39346657576e-19)
(-0.00508397559018 0.00127111558003 1.01687926038e-19)
(-0.00383923844591 -0.0885130154346 6.07111815959e-20)
(0.042895040639 -0.180231623381 -1.69118996599e-21)
(0.105529459646 -0.229638527961 -8.66173030594e-21)
(0.17276139202 -0.245566364765 -2.05722574261e-21)
(0.238196814296 -0.244838120734 -4.30630588653e-20)
(0.298845907464 -0.237812730972 1.56171569302e-20)
(0.354164584773 -0.229090889528 -2.85499530553e-20)
(0.404202611462 -0.220373627053 3.08475764649e-21)
(0.451482670064 -0.213435187344 -8.13079518601e-21)
(-0.00682810122078 0.0127490774737 2.92439229305e-20)
(0.00948275955678 -0.132473007792 7.65636874851e-20)
(0.0720817504226 -0.287604851281 -1.054787438e-19)
(0.14297319906 -0.371260946498 -4.71858330047e-20)
(0.212442110878 -0.39678831981 -7.50179004115e-20)
(0.277322715679 -0.393217567349 -8.1241852987e-20)
(0.336390592939 -0.378721680264 2.89299683648e-20)
(0.389863603145 -0.361406128488 -2.12917388173e-20)
(0.437965390288 -0.344319976181 4.00400974802e-21)
(0.484264048388 -0.331572134197 -8.63699986002e-21)
(-0.0102485993653 0.0224358321507 -4.43715544951e-20)
(0.0305019701791 -0.176394366409 1.67414833868e-19)
(0.119337286611 -0.391527287001 7.23530354851e-20)
(0.204039514188 -0.507119177336 2.80395600323e-19)
(0.277320607518 -0.541245037334 5.08475701157e-20)
(0.341325441259 -0.534598664064 -2.84053342757e-19)
(0.397801536743 -0.512767511563 -3.00514186967e-20)
(0.448239717588 -0.48713990358 8.69501027623e-20)
(0.493160251676 -0.462072310053 -3.40787714053e-20)
(0.53794626025 -0.443705599082 -3.72387167116e-21)
(-0.0147628883048 0.0296244533157 -1.12813085821e-19)
(0.0597249523817 -0.219998184899 -2.57129854282e-20)
(0.184466314949 -0.490116251975 3.1896540865e-20)
(0.288013549437 -0.634291833613 -1.3368759902e-19)
(0.36641699442 -0.675603021085 6.43505260794e-20)
(0.429106255183 -0.665592599846 1.90446019473e-19)
(0.481960949444 -0.636649083183 5.27164144188e-20)
(0.528200755911 -0.603127671149 -1.11254162506e-20)
(0.568781566633 -0.570635588539 2.10877810835e-20)
(0.611523038974 -0.5468841951 -2.48079993913e-21)
(-0.019567697977 0.0336191466025 0)
(0.097777865381 -0.262967064422 8.8055033215e-20)
(0.267099367751 -0.581502631421 2.6668549381e-19)
(0.393772726033 -0.749910203811 -2.83140629551e-19)
(0.478255378988 -0.796626732966 -5.86357853387e-19)
(0.539069888667 -0.782952118032 1.98716737667e-19)
(0.587286924593 -0.747243526547 -2.74897458391e-20)
(0.628248788838 -0.706412324639 -9.89933492004e-20)
(0.663473056529 -0.66722094592 0)
(0.703656535929 -0.63833795148 -8.70691120709e-21)
(-0.0236355356378 0.0338153779858 5.50175771316e-20)
(0.145357369488 -0.30483698611 8.41871667709e-20)
(0.36661720559 -0.663783992088 4.53384898649e-20)
(0.519701497974 -0.851210168089 2.40079263283e-19)
(0.610764351191 -0.901278112607 -1.90367161371e-19)
(0.669025554627 -0.883693850802 -2.95378486246e-19)
(0.71165796718 -0.841739438542 5.09504620397e-19)
(0.746416377087 -0.794369983647 5.43404727353e-20)
(0.775507462639 -0.749347194155 -2.99267552388e-19)
(0.812621849612 -0.715542012038 -6.99669688054e-21)
(-0.0257416936247 0.0298149739016 -3.36884791442e-21)
(0.20311729028 -0.344870216598 6.72921869934e-21)
(0.482040389638 -0.735013052482 1.30513220591e-19)
(0.663602262838 -0.935632505502 2.56152391558e-20)
(0.761212580723 -0.986902089793 3.24555495321e-19)
(0.816142800118 -0.965331224399 -4.06928219315e-19)
(0.852359247905 -0.917901325722 -4.06680232943e-19)
(0.88020516427 -0.865017009567 -3.41165544337e-19)
(0.902727784575 -0.815143356922 2.50481278489e-19)
(0.936100198182 -0.776420842279 2.72150693241e-19)
(-0.0245926243161 0.0215794280944 -1.279043404e-19)
(0.271402359309 -0.381921525941 6.16932680254e-20)
(0.611755548758 -0.793175757418 2.96433598285e-19)
(0.822491891903 -1.00093299926 -1.77036189617e-19)
(0.92604704694 -1.05145971088 3.38850800404e-19)
(0.97680955828 -1.02626632497 8.00866666222e-19)
(1.00596834442 -0.974671173251 5.47383364235e-19)
(1.02645470166 -0.917919369708 -4.2873571297e-19)
(1.04237771869 -0.864485706478 -2.03891180068e-19)
(1.07028886805 -0.820653551011 2.94631421589e-19)
(-0.019135519539 0.00963979802695 -1.79364592168e-19)
(0.349728823246 -0.414250971178 -2.76426859699e-19)
(0.752942919964 -0.835983190782 6.78569629337e-19)
(0.991897685201 -1.04483398871 7.78410246589e-19)
(1.09995496914 -1.09299089441 -7.60503095139e-19)
(1.14536101277 -1.06505126729 8.32417227396e-19)
(1.166654707 -1.01130273825 1.37737833055e-19)
(1.17921707681 -0.953255863483 -9.88598897041e-19)
(1.18845979837 -0.898079145725 -2.43749943666e-19)
(1.20600470127 -0.849459000562 3.33898083941e-19)
(-0.00871373208057 -0.00490680686153 8.88878905091e-20)
(0.437021794852 -0.439491392 -3.00823317235e-19)
(0.902258654068 -0.860689921832 -4.47520239918e-19)
(1.16676810332 -1.06450843148 7.79772591754e-19)
(1.27675357234 -1.10843809763 6.18113091027e-19)
(1.31447618721 -1.07818911138 -7.50102537569e-19)
(1.32559493676 -1.02370655552 -6.14297964645e-19)
(1.32787475037 -0.965972443179 3.6437121806e-19)
(1.3280251551 -0.909624097317 -3.81925876996e-19)
(1.32544257366 -0.858477889379 -2.26277137184e-19)
(0.622190544572 -0.173413064057 3.63751107155e-20)
(0.800043977982 -0.132608527666 -7.50940979364e-20)
(0.888417597871 -0.103565385572 5.69899929055e-21)
(0.939232908612 -0.080945686068 1.31238051559e-20)
(0.969092095656 -0.0627093227168 -6.1882977742e-21)
(0.986741757108 -0.0477917809043 -3.07876983984e-21)
(0.997575277813 -0.0355501453072 -4.74090761773e-21)
(1.00438307674 -0.0253712508457 -3.14479542546e-21)
(1.00849172555 -0.0172482759706 7.82444349887e-21)
(1.01125129988 -0.00707595901075 2.95038570765e-21)
(0.639897681322 -0.24668013123 1.03885041455e-19)
(0.811849097981 -0.172225176287 1.57216922955e-20)
(0.896864269037 -0.125055037134 4.58761483962e-21)
(0.945638142364 -0.0928647239112 -7.5995797012e-21)
(0.974136928015 -0.0696269809603 -1.68961724595e-20)
(0.99079623439 -0.0519249042586 0)
(1.0008660588 -0.0380664581944 -4.95704819148e-21)
(1.00709106627 -0.0269064638511 3.87151268898e-21)
(1.01080610589 -0.018179089583 4.77688528453e-22)
(1.01322816762 -0.00743659159821 -3.58883141347e-21)
(0.668050767918 -0.317495213922 -5.83116074078e-20)
(0.828776230714 -0.210940965631 -4.09647454796e-20)
(0.9080969027 -0.146237546824 1.85864111145e-20)
(0.953501205233 -0.10465054991 -9.16312083566e-21)
(0.97996129514 -0.0764333854969 -3.89925179363e-21)
(0.995302548305 -0.0559541361114 6.19837261427e-21)
(1.00443004619 -0.0404876042849 0)
(1.00997382427 -0.0283602892761 0)
(1.0132275616 -0.019044873838 -2.1350600571e-21)
(1.01528039807 -0.00776750348983 0)
(0.706712610025 -0.384484010834 -3.26987740034e-20)
(0.850594469599 -0.248170107563 7.72888382677e-20)
(0.922038371813 -0.166842051678 8.6491325511e-21)
(0.962808320937 -0.116176272798 0)
(0.986564235255 -0.0830565323893 2.28338072297e-20)
(1.00025219558 -0.0598363716814 -3.51234664549e-21)
(1.00825751916 -0.0427865678362 0)
(1.01301887453 -0.0297163349856 4.28328279793e-21)
(1.01576527866 -0.0198351474038 0)
(1.01741501906 -0.00806439890363 6.03421728928e-22)
(0.755951907056 -0.446318532079 -2.91549924816e-20)
(0.877043034123 -0.283378869856 1.04851788398e-19)
(0.938580859998 -0.186609534139 -4.68192655562e-21)
(0.973527073759 -0.127318066637 0)
(0.993932676006 -0.0894280830207 5.04828917674e-21)
(1.00563475251 -0.063529761761 6.89059781595e-21)
(1.01234146754 -0.0449370727404 5.96777483272e-21)
(1.01620854937 -0.0309571657228 1.09378737467e-21)
(1.01839418722 -0.0205392680568 -2.20424305336e-21)
(1.01961944794 -0.00832297166406 2.69532377225e-21)
(0.815603256768 -0.501658583149 -6.69365755256e-19)
(0.907815025085 -0.316107868495 -1.87601665038e-19)
(0.957574892657 -0.205331642351 1.88111243136e-21)
(0.985611952259 -0.137964816632 3.33733960439e-20)
(1.00205398767 -0.0954866353627 -7.83481403275e-21)
(1.01142629982 -0.0669954691419 4.96058131194e-21)
(1.0166568635 -0.0469136240078 4.95129609664e-21)
(1.01953661256 -0.0320658993647 -9.19163726238e-21)
(1.02110365068 -0.0211459368816 -2.11208359608e-22)
(1.02187306437 -0.00853894155534 1.72992020736e-22)
(0.884717285805 -0.548977075628 -1.99292606828e-20)
(0.942165511511 -0.345404287655 7.17790513111e-20)
(0.97872190952 -0.222771999297 3.69045065759e-21)
(0.998978386582 -0.148014502197 -9.3285567682e-22)
(1.01089117677 -0.101180783931 -2.43132335032e-20)
(1.01761766941 -0.0702007379647 5.3342280306e-21)
(1.02118415205 -0.0486930455377 -3.44387872678e-21)
(1.02298914948 -0.033026588651 -4.29121518591e-21)
(1.02386819815 -0.0216450454358 1.06902079887e-21)
(1.02415299554 -0.00870813637331 -1.86954586951e-21)
(0.961754863239 -0.587439364501 2.99982211323e-19)
(0.978211159621 -0.370652569653 8.06404566101e-20)
(1.00088132095 -0.238533462608 0)
(1.01322724725 -0.15724621323 -4.48402477014e-22)
(1.02030770916 -0.10641129239 1.93303703035e-20)
(1.02414299502 -0.0730987103001 1.14800674307e-21)
(1.02590335377 -0.0502516801506 -1.52159218775e-20)
(1.02652840061 -0.0338248030863 4.24921103538e-21)
(1.02668754895 -0.02202795511 -3.94571134404e-23)
(1.02646630108 -0.00882811993323 -2.9416553549e-22)
(1.04956698525 -0.620159544408 -4.36824949594e-19)
(1.01571996175 -0.395436519388 -2.13448672485e-19)
(1.0225144037 -0.254410686386 5.03095949114e-20)
(1.02733398392 -0.166346446166 -1.58245921164e-22)
(1.02977569554 -0.111395345969 -2.28399562998e-21)
(1.03075929324 -0.0757397615355 -1.46582498816e-20)
(1.03068874229 -0.0515896424311 3.81358444735e-21)
(1.03012694673 -0.0344508307332 5.2972837567e-22)
(1.02951042802 -0.0222861217177 -3.224189204e-21)
(1.02878735468 -0.00889765938796 -2.81077140898e-21)
(1.15440246626 -0.64430319647 3.0235053057e-19)
(1.0661542695 -0.415953002199 -2.15859981502e-19)
(1.0479046889 -0.27099176488 -3.80964900963e-20)
(1.04233600117 -0.176532210245 -4.056341113e-20)
(1.03943309069 -0.116995543963 -2.30706207485e-20)
(1.0374148053 -0.0786036756918 -1.13058147724e-20)
(1.03549564913 -0.0529373130504 -5.4914054941e-21)
(1.03371279607 -0.0349990050494 0)
(1.03233071087 -0.0224528601093 -3.3768587725e-22)
(1.03109278659 -0.00891062955404 2.0380273354e-21)
(1.3081856035 -0.631486543862 5.04015680277e-19)
(1.16589994854 -0.416635027296 1.6150874821e-19)
(1.10361664946 -0.272866256947 -1.08081145382e-19)
(1.07425490847 -0.178251040692 6.99358309971e-21)
(1.0582206701 -0.117949179802 8.82772340637e-21)
(1.0490053436 -0.078887076994 -5.06622334496e-21)
(1.04303958254 -0.0528217848656 4.30366186812e-22)
(1.03886987659 -0.0347179729463 4.45882436872e-21)
(1.03611888885 -0.0221514043437 -3.1332681932e-21)
(1.0340712111 -0.00877419989534 1.11530346087e-22)
(1.36119876209 -0.518093988749 -1.32109613719e-20)
(1.20107294693 -0.356309884048 1.53871012729e-19)
(1.13287063941 -0.242037620412 1.15096704441e-19)
(1.09721595427 -0.163300966145 -1.36982844291e-20)
(1.07458146334 -0.110077371618 5.38344368937e-20)
(1.0602984855 -0.0742913842798 3.50846402214e-20)
(1.05089975634 -0.0499345848327 2.41118846097e-20)
(1.04448467993 -0.0328662198987 -2.3788040637e-21)
(1.04035724814 -0.0209832217771 8.46563587662e-21)
(1.03741244944 -0.00830435954035 3.84090130893e-21)
(1.41935156184 -0.444482621886 -1.40281050551e-19)
(1.25184511431 -0.317458392927 -1.06145222492e-20)
(1.16801717195 -0.219447690881 5.60536886489e-21)
(1.12109763145 -0.150062589484 3.84122516104e-37)
(1.09075314594 -0.101938212667 8.65895501952e-22)
(1.07126812561 -0.0690395898326 -9.65070705849e-35)
(1.05846001204 -0.0464481796401 -2.95822321641e-21)
(1.04985038435 -0.0305604066493 -2.14452931608e-34)
(1.04439229052 -0.0195014243596 8.58391312266e-22)
(1.0405456557 -0.00771462117577 -2.55426677066e-21)
(1.45541126708 -0.365971154521 -1.99584537615e-34)
(1.28845719672 -0.27091884255 -4.00075492031e-20)
(1.19642677315 -0.191689677723 -4.07541125243e-20)
(1.14157566941 -0.133282242412 0)
(1.10510818668 -0.0914320194246 -2.28494020613e-20)
(1.08119994033 -0.062227835315 -1.57168171389e-20)
(1.06536950001 -0.0419475341976 -9.10864827852e-21)
(1.05477119158 -0.027610169109 -2.65767320782e-34)
(1.04808055738 -0.0176225134193 -2.80456716847e-21)
(1.04340305892 -0.00697319940761 2.42722071549e-21)
(1.4783178828 -0.294662756458 -8.67443475702e-20)
(1.3164793874 -0.22512302711 4.46658566077e-21)
(1.21961133671 -0.162391771573 0)
(1.15885389955 -0.114437472353 0)
(1.11751493027 -0.0791788670545 0)
(1.08990935294 -0.0541416756915 0)
(1.07147173915 -0.0365764470217 -5.86177917232e-22)
(1.05913858035 -0.0240927837823 -2.97295818115e-34)
(1.05135955229 -0.0153872732968 7.59810849549e-22)
(1.04593845676 -0.0060926858046 2.90629178707e-34)
(1.49237965704 -0.228982885039 -3.65782820906e-20)
(1.33730474863 -0.179707807959 0)
(1.23791037801 -0.131845940244 0)
(1.17291699166 -0.0939856403952 0)
(1.12783456019 -0.065520759073 0)
(1.09724049062 -0.0449975912089 0)
(1.07667106698 -0.0304658392521 9.89505612149e-22)
(1.06286486849 -0.0200862711407 5.66479431377e-21)
(1.05416018038 -0.0128396962582 7.15360817888e-22)
(1.04809333907 -0.00508842303613 3.22421336757e-21)
(1.50054899664 -0.168358699112 0)
(1.35212654857 -0.135134865363 -1.27211418316e-20)
(1.25169593567 -0.100547667987 -1.65185141042e-20)
(1.18380958696 -0.0723633107804 0)
(1.13595067106 -0.0507726812914 -1.0617394098e-20)
(1.1030958502 -0.0350046790139 -7.58668695484e-21)
(1.08083070145 -0.0237501563976 -4.29503123826e-21)
(1.06585591505 -0.0156740333578 -3.3246180469e-21)
(1.05640886047 -0.0100293500933 4.46780969949e-21)
(1.04979334812 -0.00397890708992 1.42753179117e-21)
(1.50396006743 -0.11165561128 8.94725815039e-21)
(1.3609836122 -0.091338889486 6.93560837177e-21)
(1.26048183267 -0.0686341621231 -3.90536725778e-21)
(1.19090321224 -0.0497570019891 2.9637305328e-36)
(1.14125887507 -0.0350867768995 5.46923060286e-22)
(1.10684740985 -0.0242657473477 -6.05650084283e-35)
(1.08342309576 -0.0164930170543 7.61917100558e-22)
(1.06762372754 -0.0108941913845 3.21389802656e-21)
(1.05763745386 -0.00697288059225 5.92774294436e-22)
(1.05062553169 -0.00276291163466 -1.9838768998e-21)
(1.48396968209 -0.0559583089062 -4.37154944701e-20)
(1.34500087223 -0.0507063030224 1.17101860905e-20)
(1.24701575056 -0.0392279389994 1.27259471448e-20)
(1.1783896879 -0.0287942922015 0)
(1.12908588226 -0.0204332262611 7.57486183535e-21)
(1.09471682052 -0.0141792880755 5.36945900408e-21)
(1.07120943804 -0.00965589385188 4.32728326618e-21)
(1.05535199236 -0.00638574180428 2.38159987229e-21)
(1.04533339345 -0.0040911642518 -2.23484469026e-21)
(1.0382839365 -0.00161944478608 2.41861089993e-21)
(1.11312156592 -0.0032207976896 0)
(1.02435725661 -0.00706905892322 0)
(0.955289424885 -0.00627217389831 0)
(0.905174554888 -0.00477638093728 0)
(0.868589359102 -0.00343214273837 0)
(0.842880995346 -0.00240387551518 0)
(0.825214269009 -0.00164810671059 6.01721237314e-22)
(0.8132213614 -0.00109991499723 -3.72008572127e-36)
(0.805601390931 -0.000692755376139 5.88174629144e-22)
(0.800242804124 -0.000263429767361 1.82420064181e-21)
(2.12592003532 -0.0273317190661 8.65334463016e-19)
(2.11628724404 -0.133760956951 5.99617989107e-20)
(2.08875788742 -0.238022284224 -1.29840618434e-19)
(2.04361992723 -0.337720869092 -3.37677040368e-19)
(1.98268340252 -0.431119932386 -1.19572809714e-19)
(1.905276495 -0.517073733864 -1.75785335445e-19)
(1.82125514818 -0.587560005054 -4.09237830648e-19)
(1.70879892673 -0.664559516668 1.32667789297e-19)
(1.63278559508 -0.681929417747 0)
(1.46508036975 -0.770498279722 3.3624253538e-20)
(2.0398666516 -0.0200758999464 2.14983379058e-19)
(2.03187805773 -0.0996570663101 -3.34162273767e-19)
(2.01055247877 -0.17835735852 -9.55994525603e-25)
(1.97516587802 -0.254802058667 -1.32812065624e-19)
(1.9301638535 -0.326940396739 1.43347152884e-20)
(1.86743027194 -0.398192876116 1.15198374555e-19)
(1.81022152406 -0.448668544241 3.33591043187e-20)
(1.71498693663 -0.530119665595 9.75978719283e-20)
(1.66494902675 -0.527739690988 -1.19081452818e-19)
(1.54694206969 -0.622626302894 2.17923270615e-20)
(1.96598422471 -0.0149077850159 -1.14064117224e-19)
(1.96001696962 -0.0781538743229 2.04864429735e-19)
(1.94357511 -0.140349106056 1.89258172843e-19)
(1.91534072293 -0.200891547709 -2.20243764175e-19)
(1.88045937977 -0.257410123076 1.06785171375e-19)
(1.82964212969 -0.315784544371 1.0542632135e-19)
(1.78570418372 -0.353270450036 -6.9531499243e-20)
(1.7112522784 -0.425923641654 8.19043815824e-20)
(1.66596687986 -0.420849266935 8.29605292207e-20)
(1.57997988999 -0.505032921813 1.0714150754e-19)
(1.90932730076 -0.013634586061 -1.86688894839e-19)
(1.90452418149 -0.0620628710275 5.25446795375e-20)
(1.8908361296 -0.109900330283 -1.13398905335e-19)
(1.8673690128 -0.157053669285 -6.73494558098e-20)
(1.83824188416 -0.201135651541 3.83107989229e-20)
(1.79664156411 -0.248028686449 -1.03621400506e-19)
(1.75873904137 -0.277687878839 7.46649817504e-20)
(1.70076158374 -0.33732704449 3.00520322089e-20)
(1.65815593917 -0.334796326515 -1.72056371599e-20)
(1.5938160752 -0.403463165875 8.30829839898e-21)
(1.86504907405 -0.0115167537843 5.54171483113e-20)
(1.86108579642 -0.0484370803527 4.35170247364e-20)
(1.84934458504 -0.0848881167179 -6.454973782e-20)
(1.82939334415 -0.120963225092 2.2882619091e-19)
(1.80395357776 -0.154766156048 1.70107277912e-20)
(1.76931798514 -0.191048609873 -1.31198321482e-19)
(1.73510440667 -0.21459446732 1.97227658265e-20)
(1.68883685035 -0.260514194512 -8.50730170791e-20)
(1.6493882132 -0.260772109475 1.16216257941e-19)
(1.59844956014 -0.313768438107 8.46211309441e-20)
(1.83154705565 -0.0106803706644 -1.00637387005e-19)
(1.82823116113 -0.0377177555944 -5.75563593748e-20)
(1.8178400127 -0.0644295616203 3.75465227802e-20)
(1.80034722935 -0.0909836666028 7.87872005755e-20)
(1.77733167767 -0.116055616647 3.27457775167e-20)
(1.74750907112 -0.143028290497 -3.92951283075e-20)
(1.71577598537 -0.161347070453 3.04729217898e-21)
(1.67707671549 -0.195265529607 5.65724991568e-20)
(1.64031827961 -0.197518125103 1.07200724238e-19)
(1.59734852243 -0.236969387779 -5.26934122012e-20)
(1.80718030403 -0.0102987622282 -4.27657620016e-20)
(1.80443712027 -0.0287763493256 -7.77634514147e-20)
(1.79504436991 -0.0470196430231 -4.67208486038e-20)
(1.77925704758 -0.0652521311127 -9.63534096034e-20)
(1.75789856445 -0.0826618904575 -2.3885546468e-20)
(1.73118669576 -0.101513812326 -6.76859882892e-21)
(1.70111927636 -0.114926171921 4.75305264342e-20)
(1.66699220431 -0.1388579712 -1.8033288469e-20)
(1.63235132802 -0.141891396716 -3.08711483597e-20)
(1.5939068232 -0.170225158633 1.14792796081e-20)
(1.78721853216 -0.00984355322204 3.36102365954e-20)
(1.78553548832 -0.0206914791974 3.53627206612e-20)
(1.77748492906 -0.0312559227759 1.2504649393e-20)
(1.76348422295 -0.041801171833 -2.17538294193e-20)
(1.74384437651 -0.0520424318122 -1.7527366571e-20)
(1.71956913609 -0.0634917197851 3.75705389666e-20)
(1.69088392871 -0.0719446314837 -1.13465295168e-21)
(1.65950337145 -0.0875212420715 -4.87759067047e-20)
(1.62630783271 -0.0900191260166 1.14640675389e-20)
(1.59009729537 -0.110095756587 4.94605880375e-20)
(1.71623382876 -0.0140955658816 -2.17128996681e-20)
(1.716371752 -0.0164282952298 6.1088508382e-21)
(1.71282258902 -0.0184440076999 3.66659993015e-20)
(1.70502299376 -0.0204654635934 3.78054480513e-21)
(1.69245500306 -0.0224266950903 -1.13708670332e-21)
(1.67621698271 -0.0256028581174 -1.00358424859e-20)
(1.65480150288 -0.0272294489858 2.15830054677e-20)
(1.63162324234 -0.0346776567383 -3.04614851526e-20)
(1.60284967986 -0.0341782311462 3.51476967502e-20)
(1.57532875563 -0.0465744229534 1.16566660358e-19)
(1.12274709789 -0.00854841418512 2.95842076073e-20)
(1.11500326179 -0.00555321688574 1.83231218626e-20)
(1.11027450948 -0.00261674612412 1.4461673916e-20)
(1.10905902838 0.000188697516426 1.51781610437e-20)
(1.11045048259 0.00279207388823 -1.16748503512e-21)
(1.1151333501 0.00496888977283 6.00694075157e-21)
(1.11889739766 0.00713178534977 -9.44395206399e-21)
(1.12861117897 0.00689069184522 3.12419787198e-21)
(1.12665496622 0.0101319710827 -4.96849101144e-21)
(1.14414795141 0.00528791629768 5.57058619772e-21)
(1.38312881438 0.747489742156 -5.45686738144e-20)
(1.36654463154 0.799898339256 2.36035031908e-20)
(1.37123469675 0.857093605215 -4.86187663858e-19)
(1.38190373334 0.920159712076 2.08403424163e-19)
(1.39222856161 0.98746851464 9.12996667191e-19)
(1.39855611018 1.05628268037 -1.32618899461e-19)
(1.3829288566 1.11305159944 -8.79749132697e-19)
(1.2829662405 1.09807874884 -1.94517313789e-20)
(0.978505141434 0.879553114426 -4.20925894261e-19)
(0.408441982064 0.368369043181 1.71642432817e-19)
(1.55095868418 0.721744721821 0)
(1.54278639909 0.772704814577 5.57375534733e-19)
(1.54296157386 0.825549517589 1.26720039621e-18)
(1.54987965299 0.886095176114 -7.69321550626e-19)
(1.56116301692 0.952786260768 -1.84079436392e-18)
(1.5714499462 1.02200962641 -1.39151661876e-19)
(1.55835739695 1.07936313299 -1.79284656534e-19)
(1.44881129871 1.06478241404 6.63549105703e-19)
(1.10309638594 0.849508346184 8.59739737591e-19)
(0.455386691122 0.349556619118 3.53745473441e-19)
(1.69042379226 0.703595106588 6.36285024223e-20)
(1.69523967616 0.749912176853 0)
(1.70066670167 0.797718381427 -6.55713023403e-20)
(1.71124651608 0.852591109401 7.74089369171e-19)
(1.72695292034 0.913889894751 5.24105425586e-20)
(1.74194619692 0.978538897507 -1.91229686077e-18)
(1.7308158459 1.03193625702 1.24363533395e-18)
(1.61025360258 1.01494677958 7.99478800759e-19)
(1.22181133266 0.804942475399 -7.71928285256e-19)
(0.497684011928 0.323817864629 -2.78048552656e-19)
(1.80146803464 0.670656051134 -1.26243237669e-19)
(1.81768461386 0.711573052957 -9.95765469581e-20)
(1.83363396443 0.754654596197 2.26922665318e-19)
(1.85371402209 0.803985436731 -2.8557181089e-19)
(1.87794002753 0.859352135755 -1.37324419082e-18)
(1.90017818002 0.91812091444 -1.07720383666e-18)
(1.8920059901 0.965751712102 1.20120568732e-18)
(1.75982116969 0.94505099045 8.23873507792e-19)
(1.3277004099 0.743083368274 0)
(0.530531475914 0.289407065213 0)
(1.89574956668 0.612592104444 -7.82340983197e-19)
(1.92136746996 0.649215367925 -1.39377611695e-18)
(1.94801522711 0.6883761332 -5.52245983414e-19)
(1.97850266138 0.732776610287 -3.30737118266e-20)
(2.01230318969 0.782356150747 0)
(2.04262965353 0.83480791579 1.39444543084e-19)
(2.03736570563 0.875909111924 1.65984930085e-19)
(1.89226811001 0.851626080743 2.14310587029e-19)
(1.41567411754 0.662458091025 -3.25359598175e-19)
(0.550717424082 0.246854513643 -8.06483833814e-20)
(1.98156240383 0.532420899405 9.53340710086e-19)
(2.01428673387 0.565259382277 -4.08396805238e-20)
(2.04943989249 0.600466598297 -1.14183405904e-18)
(2.08866510432 0.639770256847 0)
(2.13088797009 0.683198565237 0)
(2.16820149424 0.728752595948 0)
(2.16424451877 0.76276161269 1.52557126943e-18)
(2.00398930897 0.735598661088 -1.88899011895e-18)
(1.48314913364 0.565456480672 -1.07717333753e-18)
(0.556440524497 0.198718849437 -9.86099779881e-20)
(2.05868269459 0.436821003798 -1.28287746497e-18)
(2.09652670486 0.465168095778 -2.71185724297e-18)
(2.13801322376 0.495348772026 -4.78943635664e-21)
(2.18394364947 0.528580612219 5.68132928415e-19)
(2.23275912673 0.564995897726 -4.0133390056e-20)
(2.27520944842 0.602927929304 1.30691344914e-18)
(2.27012276705 0.629758908726 -7.5937896439e-19)
(2.09259884353 0.599667704626 -2.41829501275e-18)
(1.52719987606 0.456967871357 1.77856279536e-19)
(0.547847605471 0.150565480291 1.22568080074e-19)
(2.12302374304 0.330469625024 -1.03674552878e-18)
(2.16476490613 0.353051948533 1.53269977803e-20)
(2.21094961288 0.376837593537 4.10992138456e-19)
(2.2618175533 0.40284737224 -4.07580690667e-19)
(2.31550902013 0.43125734329 6.52270589862e-19)
(2.36121509318 0.460937498965 1.86227857079e-18)
(2.35286282798 0.48111734672 -2.20081163698e-19)
(2.15567864421 0.450360563014 -1.38210267293e-18)
(1.54472241112 0.341261835386 2.68389833774e-19)
(0.528950996582 0.103955341103 8.55791899945e-21)
(2.1708797355 0.216138693345 4.01142335208e-19)
(2.21564359679 0.231976931382 7.71071121517e-20)
(2.26523382413 0.248283994017 -4.35419524917e-19)
(2.31956563191 0.266031945116 -1.05358798361e-18)
(2.37647156811 0.285412217405 8.78062843888e-20)
(2.42353850053 0.305648148498 8.72283156161e-20)
(2.40980480846 0.318987050562 -1.72137045376e-18)
(2.18931440121 0.297097502421 7.37282705871e-19)
(1.53888773256 0.224469585496 1.86932194875e-19)
(0.500287119406 0.0568909320166 -1.40803253493e-19)
(2.20062100501 0.0959784303964 7.85063726937e-19)
(2.24733133912 0.103987399729 -1.22048139996e-18)