/*--------------------------------*- C++ -*----------------------------------*\
  =========                 |
  \\      /  F ield         | OpenFOAM: The Open Source CFD Toolbox
   \\    /   O peration     | Website:  https://openfoam.org
    \\  /    A nd           | Version:  13
     \\/     M anipulation  |
\*---------------------------------------------------------------------------*/
FoamFile
{
    format      ascii;
    class       volScalarField;
    location    "26";
    object      p;
}
// * * * * * * * * * * * * * * * * * * * * * * * * * * * * * * * * * * * * * //

dimensions      [0 2 -2 0 0 0 0];

internalField   nonuniform List<scalar> 
440
(
-1.15135
-1.12661
-1.11586
-1.10121
-1.16495
-1.21076
-1.18477
-1.15788
-1.132
-1.10902
-1.33968
-1.2969
-1.24276
-1.17406
-1.10267
-1.47523
-1.418
-1.30079
-1.16572
-1.03005
-1.55347
-1.47141
-1.28972
-1.10439
-0.938296
-1.10825
-1.1753
-1.34442
-1.601
-1.95677
-1.30101
-1.31201
-1.34663
-1.39775
-1.46736
-1.24304
-1.22269
-1.2017
-1.19282
-1.20743
-1.20013
-1.17965
-1.16376
-1.16345
-1.19907
-1.14559
-1.12182
-1.09795
-1.0743
-1.08266
-0.687926
-0.0724732
-0.237785
0.0904095
-0.102694
-0.94818
-0.143372
0.0629125
0.116616
-0.110135
-1.13619
-0.117378
0.487591
0.138217
-0.142551
-1.31275
-0.125642
0.801712
0.163273
-0.160715
-1.25668
-0.218072
0.686117
0.230103
-0.133207
-0.949617
-0.156564
0.34008
0.279895
-0.0705927
-0.513296
0.101151
0.223215
0.253035
0.0154384
-0.319771
0.212325
0.485657
0.241582
0.0379581
-0.163963
0.170458
0.488021
0.265715
0.026802
-0.0772521
0.135777
0.540489
0.357316
0.0508016
-0.658017
-0.778622
-0.950635
-1.11301
-1.29959
-0.384847
-0.505033
-0.598805
-0.657768
-0.697044
-0.198026
-0.304188
-0.36239
-0.39903
-0.416304
-0.0850669
-0.1773
-0.229592
-0.253537
-0.253471
-0.0317397
-0.121121
-0.170053
-0.185954
-0.169048
0.791819
0.629645
0.422306
0.190985
-0.0612907
0.341356
0.168481
-0.0406308
-0.279535
-0.555639
-0.0946936
-0.272289
-0.496118
-0.743969
-1.01207
-0.486668
-0.667122
-0.8981
-1.14274
-1.35369
-0.750207
-0.940838
-1.15916
-1.38695
-1.52828
1.96857
1.99547
2.01794
2.02537
2.01544
1.754
1.76993
1.77893
1.76992
1.73862
1.52383
1.50523
1.46175
1.39415
1.29842
1.25622
1.21722
1.13983
1.0296
0.888282
1.02807
0.912565
0.764423
0.595472
0.390724
1.77104
1.7611
1.73924
1.80625
1.87029
1.7593
1.74842
1.71552
1.77945
1.76567
1.74866
1.73311
1.68974
1.73968
1.63621
1.73921
1.71608
1.66205
1.68731
1.45198
1.73102
1.69767
1.6332
1.63322
1.25705
1.72425
1.67133
1.59746
1.52342
1.04221
1.71745
1.63911
1.57865
1.41185
1.17467
1.72475
1.6195
1.55286
1.36629
1.19483
1.71684
1.58965
1.53821
1.3123
1.20835
1.75397
1.58784
1.52978
1.28229
1.22188
0.753351
0.431935
0.0736147
-0.248838
-0.457668
0.638673
0.41027
0.167517
-0.0496293
-0.235143
0.626233
0.441087
0.256921
0.0902896
-0.0734241
0.693539
0.511538
0.337177
0.180284
0.0327743
0.721687
0.539169
0.372799
0.224126
0.0838987
-0.717049
-0.611701
-0.474481
-0.36348
-0.297228
-0.773828
-0.720563
-0.618041
-0.536018
-0.487519
-0.705018
-0.661795
-0.605278
-0.558938
-0.530075
-0.575429
-0.541841
-0.506638
-0.480832
-0.463219
-0.48286
-0.463798
-0.444105
-0.433334
-0.454472
-0.436468
-0.428493
-0.412924
-0.411039
-0.390145
-0.438106
-0.435201
-0.432789
-0.436198
-0.434875
-0.422917
-0.432713
-0.459267
-0.500245
-0.53248
-0.383207
-0.381877
-0.38973
-0.400535
-0.384696
-0.388183
-0.461116
-0.630335
-0.83989
-0.945629
-0.526677
0.742223
0.19705
-0.0174673
-0.0536613
-0.449323
0.835039
0.103811
-0.0189887
-0.0759728
-0.301301
0.917181
-0.00202279
-0.00115594
-0.0887289
-0.152299
0.737652
-0.106193
0.0312707
-0.0950971
-0.394984
0.266355
-0.255043
0.0634543
-0.0976382
-0.0557852
0.505686
0.209923
-0.00478047
0.0101264
-0.406264
0.570803
0.262634
0.00916821
-0.0201964
-0.258713
-0.476247
-0.485516
-0.478808
-0.261586
-0.275149
-0.470849
-0.510891
-0.46648
-0.482983
1.78158
1.76827
1.74037
1.69931
1.6448
1.93291
1.95595
1.9666
1.96337
1.94684
2.05554
2.08964
2.11765
2.13502
2.13914
2.11322
2.15141
2.1915
2.22418
2.23974
2.08296
2.11707
2.1541
2.18395
2.19653
0.0691881
-0.0160083
-0.148885
-0.312201
-0.482905
0.558057
0.447742
0.299512
0.122756
-0.0857666
0.995188
0.879737
0.74206
0.581354
0.391262
1.34034
1.25295
1.14631
1.01815
0.868292
1.61479
1.5567
1.48061
1.38951
1.28423
1.84074
1.80015
1.79649
1.82325
1.86642
1.82436
1.79526
1.79199
1.83202
1.90615
1.81
1.78901
1.78584
1.84184
1.95757
1.79633
1.78146
1.77472
1.83996
1.95401
1.7833
1.77243
1.75866
1.82844
1.92873
1.89909
1.81022
1.79177
1.76277
1.75793
1.85234
1.79931
1.7846
1.77863
1.77213
1.52046
1.35295
1.04718
0.593788
0.0948441
1.58421
1.37568
1.05917
0.610724
0.101869
)
;

boundaryField
{
    left
    {
        type            zeroGradient;
    }
    right
    {
        type            fixedValue;
        value           uniform 0;
    }
    down
    {
        type            zeroGradient;
    }
    up
    {
        type            zeroGradient;
    }
    cylinder
    {
        type            zeroGradient;
    }
    defaultFaces
    {
        type            empty;
    }
}


// ************************************************************************* //
