/*--------------------------------*- C++ -*----------------------------------*\
  =========                 |
  \\      /  F ield         | OpenFOAM: The Open Source CFD Toolbox
   \\    /   O peration     | Website:  https://openfoam.org
    \\  /    A nd           | Version:  13
     \\/     M anipulation  |
\*---------------------------------------------------------------------------*/
FoamFile
{
    format      ascii;
    class       volVectorField;
    location    "26";
    object      U;
}
// * * * * * * * * * * * * * * * * * * * * * * * * * * * * * * * * * * * * * //

dimensions      [0 1 -1 0 0 0 0];

internalField   nonuniform List<vector> 
440
(
(-0.0849225 0.0622721 -8.47288e-20)
(-0.0893972 0.0936789 7.84467e-20)
(0.11963 0.071863 7.5127e-20)
(0.589842 0.0553963 2.08009e-19)
(0.790287 0.0639179 9.70092e-21)
(-0.0808608 0.0440784 3.57267e-20)
(0.136652 -0.011474 -1.58613e-19)
(0.735225 -0.0733342 -1.23051e-19)
(1.34016 -0.118305 4.61621e-20)
(1.93303 -0.14964 -8.21032e-21)
(0.0104557 -0.0095524 4.87593e-20)
(0.681796 -0.0757741 9.43179e-19)
(1.53651 -0.0828677 -6.25692e-19)
(2.15039 -0.0641469 -1.86544e-18)
(2.58551 -0.0685396 8.16634e-19)
(0.268815 -0.059766 -1.84251e-19)
(1.41755 -0.0117338 -6.98953e-19)
(2.1924 0.0398832 2.22308e-18)
(2.55401 0.0585154 2.47075e-18)
(2.58533 0.0624944 -6.68854e-19)
(0.681722 -0.000562458 -3.41073e-19)
(1.93145 0.178089 -7.52001e-19)
(2.43741 0.23336 2.31709e-18)
(2.55258 0.232818 2.39518e-18)
(2.63983 0.202647 7.98651e-19)
(-0.029266 0.758292 5.8871e-19)
(-0.0944452 1.06874 1.00691e-18)
(-0.135172 1.07715 -2.7355e-18)
(-0.138413 0.987397 6.19153e-19)
(-0.132677 0.834373 4.37524e-18)
(-0.0668312 0.536106 -6.09896e-20)
(-0.033259 0.965049 -3.15128e-19)
(0.0191268 1.04866 -4.69818e-20)
(0.112402 0.963414 -7.07322e-20)
(0.127936 0.802076 1.79181e-19)
(-0.0737096 0.244404 1.19118e-19)
(-0.0822067 0.600756 -2.94066e-19)
(-0.0406711 0.733513 1.03068e-19)
(0.0585423 0.712531 -5.51275e-20)
(0.0906953 0.620909 4.91191e-21)
(-0.0597805 0.112484 -4.33093e-20)
(-0.106363 0.332155 7.36276e-20)
(-0.0804348 0.463844 3.38526e-20)
(0.00714132 0.509781 2.43939e-19)
(0.0599198 0.514421 -9.19636e-20)
(-0.0668269 0.0701822 -6.91094e-20)
(-0.136706 0.181159 -8.71985e-20)
(-0.11031 0.250351 -1.51981e-19)
(0.04238 0.2626 5.69348e-20)
(0.176036 0.304644 -1.49689e-19)
(0.750079 -0.469008 -1.0522e-18)
(-0.0691264 -1.17111 1.573e-18)
(1.47411 0.696852 -4.63432e-19)
(0.844743 0.53902 2.4251e-19)
(1.01297 -0.186592 -1.25629e-20)
(1.52061 -0.400551 1.8313e-18)
(-0.387536 -1.15741 -7.66816e-20)
(1.49788 0.496151 -6.45445e-20)
(0.809413 0.58721 -2.26069e-19)
(1.14735 -0.203853 1.03392e-19)
(1.17999 -0.440647 7.32643e-19)
(-0.104881 -1.14928 5.27893e-20)
(1.04427 0.367838 2.34578e-20)
(0.706536 0.577709 -1.80331e-19)
(1.32716 -0.265163 7.75264e-21)
(1.44449 -0.39683 -1.94798e-19)
(1.53642 -1.20219 -4.22767e-19)
(0.659834 0.186378 3.58135e-19)
(0.934086 0.490304 2.7093e-19)
(1.58128 -0.326977 -3.16673e-20)
(1.75213 -0.659607 -2.49372e-19)
(2.59246 -1.13443 -6.26935e-19)
(0.717451 0.248932 0)
(1.35244 0.391118 -2.14655e-19)
(1.8079 -0.368679 -8.88535e-20)
(2.12241 -0.688353 -6.44037e-19)
(2.35518 -0.973984 1.69437e-19)
(0.848844 0.232362 -1.49029e-20)
(1.77623 0.185892 -7.39765e-20)
(1.93871 -0.410197 3.27175e-19)
(2.62824 -0.693133 5.78404e-20)
(1.4392 -0.653843 6.7333e-19)
(0.389752 0.459762 -3.67525e-21)
(1.93746 0.00391835 -6.81499e-20)
(1.84932 -0.383255 0)
(2.34199 -0.437545 -5.97846e-19)
(1.52215 -0.244502 1.87616e-20)
(0.838148 0.143755 3.50326e-19)
(2.18549 -0.349549 -1.10625e-20)
(1.62902 -0.388386 1.49891e-20)
(2.02576 -0.345543 4.13158e-20)
(1.17484 -0.119736 5.35342e-20)
(1.42853 0.0787508 -6.74284e-21)
(1.77458 -0.272093 6.53412e-34)
(0.874383 -0.189171 -2.70123e-20)
(1.06204 -0.0462896 1.23305e-19)
(0.573341 0.0060528 -2.01608e-20)
(0.830532 -0.107926 -6.20162e-20)
(0.375993 -0.0882299 5.32502e-20)
(-0.162688 -0.00937098 -2.12104e-20)
(2.47539 0.219076 -9.71031e-19)
(2.71414 -0.0275698 -1.29122e-18)
(2.54531 0.027672 1.02185e-18)
(2.83971 -0.236434 5.21376e-20)
(2.27437 -0.0237302 -2.94525e-20)
(2.14635 0.152349 5.53919e-20)
(2.44469 -0.0869635 -4.29206e-20)
(2.29113 -0.00731498 -1.50185e-19)
(2.5479 -0.250893 -2.36327e-19)
(2.38672 -0.232368 -8.56786e-21)
(2.11515 0.0405004 7.1695e-20)
(2.23847 -0.0584386 1.12277e-19)
(2.19881 -0.0835952 -1.66494e-19)
(2.27838 -0.17151 5.46873e-20)
(2.26797 -0.229368 4.331e-20)
(2.07101 -0.00939665 1.13422e-19)
(2.05457 -0.0613137 1.12346e-19)
(2.1168 -0.0741614 -1.72883e-20)
(2.07894 -0.131756 1.41871e-20)
(2.1365 -0.149375 2.15069e-20)
(1.49926 -0.0244342 1.61724e-19)
(1.41022 -0.0212162 -1.25577e-20)
(1.47655 -0.0407292 2.5536e-20)
(1.35106 -0.0312223 -7.26506e-21)
(1.4302 -0.0637194 4.09366e-20)
(1.60742 0.837036 1.18759e-18)
(1.55888 0.940542 -3.8839e-19)
(1.56338 1.07967 -1.43689e-18)
(1.49603 1.13246 7.76657e-19)
(0.918298 0.818562 -1.79566e-19)
(1.90882 0.814805 -6.12959e-19)
(1.87153 0.890427 -3.19453e-18)
(1.8742 0.996124 -1.22825e-18)
(1.79023 1.0134 -4.35478e-19)
(1.10028 0.721495 -7.14785e-19)
(2.21505 0.662425 8.14567e-19)
(2.1985 0.739619 2.12087e-19)
(2.17747 0.837761 -2.40891e-18)
(2.04823 0.830017 -6.97158e-19)
(1.22635 0.566273 5.30264e-19)
(2.41254 0.553521 2.45495e-18)
(2.38822 0.603138 1.81348e-18)
(2.38347 0.660005 -2.12518e-18)
(2.18509 0.625529 -1.6322e-18)
(1.22214 0.379986 -3.13865e-19)
(2.54372 0.375076 1.2644e-18)
(2.57338 0.405226 -9.11266e-19)
(2.48917 0.439093 6.40551e-19)
(2.16665 0.394669 5.35614e-19)
(1.05587 0.176022 -4.71066e-19)
(0.572903 0.508261 -6.07464e-19)
(0.480742 0.545046 -4.44095e-19)
(0.362106 0.580475 4.4397e-20)
(0.226283 0.583116 5.00767e-21)
(0.0562434 0.418999 9.35655e-20)
(0.686779 0.672033 1.29486e-19)
(0.625521 0.732794 -2.81081e-19)
(0.539039 0.801444 1.91069e-19)
(0.413142 0.859573 -8.9247e-20)
(0.181663 0.653208 1.26026e-19)
(0.777016 0.868328 8.63725e-20)
(0.703178 0.95282 5.06008e-19)
(0.651871 1.05298 1.34267e-19)
(0.57252 1.09019 -3.29349e-19)
(0.315955 0.800085 2.79359e-19)
(1.07394 0.930198 2.52207e-19)
(1.02472 1.01138 -7.74006e-19)
(0.973826 1.11104 -2.05198e-18)
(0.893278 1.17992 8.166e-19)
(0.527039 0.875356 -1.65537e-19)
(1.13313 0.982306 -1.0378e-19)
(1.17529 1.10481 -1.82633e-19)
(1.2028 1.21661 -3.96294e-19)
(1.1507 1.23461 -4.4437e-19)
(0.707847 0.882077 -6.9963e-21)
(1.02255 0.0442468 -1.04326e-19)
(0.995182 0.0529779 -3.4889e-20)
(1.03102 0.135031 -1.41539e-21)
(0.945745 0.158148 -2.84944e-19)
(0.899819 0.317807 3.18736e-19)
(1.01404 0.0398647 6.61942e-20)
(1.0082 0.0531556 1.25665e-19)
(1.0159 0.143361 1.4165e-19)
(0.990271 0.185448 4.13516e-20)
(0.935319 0.393547 -2.48341e-20)
(1.02387 0.0379065 9.05647e-20)
(0.985349 0.0471776 -4.74975e-21)
(1.06464 0.16374 -6.79047e-21)
(0.936397 0.179209 1.54793e-19)
(1.17353 0.545687 -5.14391e-19)
(1.0221 0.0367457 -2.55416e-22)
(0.993168 0.0422636 -1.72922e-19)
(1.05788 0.17861 -7.16946e-20)
(1.05219 0.181317 -3.91336e-19)
(1.15934 0.593261 9.80186e-20)
(1.02248 0.0318228 -1.56102e-20)
(0.979833 0.0433672 4.71183e-20)
(1.12059 0.174926 3.35153e-20)
(1.0103 0.210776 4.82038e-19)
(1.42889 0.726781 -4.91804e-19)
(0.991727 0.0370835 -1.33307e-20)
(1.0225 0.0183484 9.85537e-20)
(1.1074 0.203619 -7.91155e-20)
(1.27208 0.120104 9.6812e-19)
(1.30085 0.775821 -3.73508e-19)
(0.938909 0.0151762 -1.25969e-21)
(1.08558 0.0147115 -9.21938e-20)
(1.08243 0.104911 5.49931e-21)
(1.43577 0.137332 -2.79503e-19)
(1.21377 0.541241 -6.66736e-20)
(0.960576 0.0231505 -2.47752e-21)
(1.09312 -0.012679 1.5905e-35)
(1.18038 0.048987 -4.74916e-20)
(1.31012 0.122298 8.68522e-20)
(1.36423 0.395197 1.89445e-19)
(1.04051 -0.0210644 3.78476e-21)
(1.06529 -0.0494204 -2.79464e-20)
(1.17577 0.00803461 1.96329e-20)
(1.08811 0.0909874 2.33493e-20)
(1.6046 0.251655 -2.83722e-19)
(0.971583 -0.0232897 -3.9672e-20)
(0.853609 -0.0264479 -1.05656e-21)
(0.836823 0.00822326 2.9058e-20)
(0.822277 0.0138588 -1.74419e-20)
(1.24582 0.051842 -6.58918e-20)
(1.86845 0.601973 2.96871e-19)
(1.93352 0.65036 7.71087e-19)
(2.23278 0.482345 -1.12357e-18)
(2.27122 0.473942 1.62275e-20)
(2.52464 0.242304 5.06926e-19)
(1.73008 0.348871 9.05884e-20)
(1.74504 0.402658 1.04604e-18)
(2.01058 0.260767 1.28606e-19)
(1.97133 0.296794 -9.40837e-19)
(2.26392 0.0866637 -2.91152e-19)
(1.73304 0.274766 -2.39577e-19)
(1.82281 0.250573 -1.57243e-19)
(1.96533 0.178872 2.0905e-19)
(1.99408 0.153015 -2.97686e-19)
(2.13857 0.0569055 2.68815e-19)
(1.75878 0.144636 4.13276e-19)
(1.87717 0.11712 -3.37306e-21)
(1.90319 0.0737528 2.3204e-19)
(1.99373 0.0537769 1.92193e-19)
(1.997 0.00439272 -1.82633e-19)
(1.38724 0.0258366 -5.01622e-20)
(1.46477 0.0125821 2.60507e-19)
(1.45081 0.00554748 1.12395e-19)
(1.4989 -0.00664843 -2.18462e-19)
(1.44255 -0.0105973 4.86973e-22)
(1.06947 -0.0164092 5.45746e-20)
(2.05172 -0.0443046 -3.84091e-19)
(2.2867 -0.0331406 1.08339e-18)
(2.27394 0.00488434 4.84936e-19)
(2.11235 0.0315201 -3.33868e-19)
(0.66709 0.0913612 1.00153e-19)
(1.83244 0.0840688 -4.00877e-19)
(2.29236 0.0870954 -5.3803e-19)
(2.34794 0.0957488 6.62694e-19)
(2.10638 0.0834421 -4.22519e-19)
(0.210463 0.0743473 -2.023e-20)
(1.22574 0.142376 4.22654e-19)
(1.95219 0.164585 5.9579e-20)
(2.33762 0.15621 4.07102e-19)
(2.48416 0.152686 1.95669e-19)
(-0.029872 -0.0179177 1.76556e-19)
(0.447723 0.0774131 1.77691e-19)
(1.20313 0.147451 -3.89725e-19)
(1.68667 0.183072 2.24981e-20)
(2.26588 0.210846 5.48363e-20)
(-0.0883633 -0.0715413 1.13491e-19)
(0.00558221 -0.0451886 -1.35379e-19)
(0.419123 0.0276998 -2.80512e-20)
(0.871743 0.0561931 6.3944e-21)
(1.27899 0.120826 -3.61882e-20)
(-0.0702997 -0.0747331 -3.07388e-21)
(-0.114933 -0.115633 7.02356e-20)
(-0.0159453 -0.117171 5.78905e-20)
(0.167598 -0.0874996 -1.09152e-19)
(0.528556 -0.0293542 -1.73158e-21)
(-0.0456271 -0.0749933 -7.13712e-21)
(-0.0972167 -0.156852 -1.52869e-20)
(-0.0993836 -0.204417 -8.92495e-21)
(-0.0582036 -0.211782 4.97833e-20)
(0.0776671 -0.152918 4.15545e-20)
(-0.0342498 -0.0769294 -8.85054e-21)
(-0.084082 -0.170986 -3.48213e-19)
(-0.121421 -0.234202 3.65805e-19)
(-0.155973 -0.257864 1.01071e-18)
(-0.149583 -0.239545 -1.39034e-19)
(-0.0379515 -0.043249 -4.35619e-21)
(-0.190706 -0.064924 1.2194e-20)
(-0.347202 -0.00628764 1.12179e-20)
(-0.512571 0.0949981 -7.9547e-20)
(-0.637516 0.145793 -1.52017e-19)
(-0.0551472 0.394051 -5.48303e-20)
(-0.356543 0.579435 2.59914e-19)
(-0.656276 0.694964 -1.37434e-19)
(-0.904621 0.699476 2.40965e-19)
(-0.993224 0.597303 1.26601e-18)
(1.29518 0.620666 8.44558e-23)
(1.31278 0.0957067 1.21876e-18)
(1.15877 0.334261 1.73499e-19)
(0.180144 0.0593984 1.03241e-19)
(0.320161 -0.238418 -1.98089e-20)
(1.06336 0.517332 1.31984e-19)
(1.24796 0.0497581 -6.99491e-19)
(1.46004 0.47422 7.83757e-19)
(0.528942 0.144857 4.44499e-21)
(0.472165 -0.234171 6.64458e-20)
(0.317334 0.283315 6.14578e-19)
(1.04995 -0.0825946 5.08194e-19)
(1.66088 0.587802 -1.01679e-19)
(0.730048 0.270803 2.35823e-19)
(0.612345 -0.225568 -1.09453e-20)
(-0.950709 0.191541 2.54277e-19)
(1.07782 -0.394301 -5.66613e-18)
(1.73209 0.674961 -4.00824e-19)
(0.851871 0.37909 2.86726e-21)
(0.763782 -0.200797 -1.62015e-20)
(-0.878789 -0.244768 2.76435e-19)
(0.665126 -0.980954 -1.11314e-18)
(1.66986 0.684406 1.89384e-19)
(0.884887 0.481258 -1.93378e-20)
(0.890658 -0.186536 -2.95926e-20)
(0.146323 0.1704 -9.84393e-20)
(-0.258878 -0.143591 0)
(-0.0685373 -0.0759298 3.50251e-20)
(-0.347209 -0.0512873 1.98446e-20)
(0.326641 -0.0406371 -1.16985e-21)
(1.62935 0.540473 0)
(1.16759 0.19236 0)
(0.815373 0.11493 -1.32494e-19)
(-0.245366 -0.0582234 -3.0301e-20)
(0.39642 -0.183583 8.613e-20)
(0.672112 0.000742343 -1.13242e-19)
(0.690278 -0.00535139 1.34444e-19)
(0.936383 -0.00238504 -5.13578e-20)
(0.896351 0.00776335 2.8419e-19)
(1.33189 0.0787932 2.05751e-19)
(1.52888 0.0238554 1.06459e-19)
(1.64699 0.0636582 2.09693e-19)
(1.84785 0.0363561 -3.42757e-19)
(2.36041 0.186233 -1.58462e-20)
(2.12764 0.102689 1.45569e-19)
(0.857271 -0.440528 -3.4692e-20)
(0.840748 -0.523672 -1.35724e-19)
(0.827454 -0.61392 -8.92007e-20)
(0.754634 -0.675025 5.54995e-20)
(0.453268 -0.522893 1.12744e-19)
(0.760037 -0.342313 1.2882e-19)
(0.705202 -0.402902 2.77173e-19)
(0.632587 -0.468581 -2.2283e-20)
(0.521023 -0.522618 1.21367e-19)
(0.278914 -0.412087 4.94909e-20)
(0.622934 -0.200368 -1.63939e-19)
(0.535564 -0.235181 -4.44322e-20)
(0.433538 -0.278623 1.4722e-19)
(0.31473 -0.317534 -4.36593e-21)
(0.134296 -0.254263 -1.01434e-19)
(0.533919 0.0318564 -4.34022e-19)
(0.447548 0.0206386 -3.6077e-19)
(0.337286 0.00117811 2.81158e-19)
(0.210632 -0.0276869 1.83257e-19)
(0.0522331 -0.0436385 1.36045e-20)
(0.513364 0.239146 -1.76576e-19)
(0.426979 0.245545 -1.73608e-19)
(0.311337 0.252254 -8.09801e-20)
(0.17664 0.260577 1.09378e-20)
(0.0233023 0.192489 1.05772e-20)
(1.88562 -0.04018 7.08379e-19)
(2.13759 -0.101483 2.43753e-19)
(2.20819 -0.179037 -6.45559e-19)
(2.05505 -0.205308 -1.29431e-18)
(1.21651 -0.169769 1.06131e-19)
(1.86323 -0.116914 1.18051e-18)
(1.95358 -0.220808 1.56439e-18)
(1.9708 -0.33446 1.29653e-19)
(1.88477 -0.388827 2.2637e-19)
(1.18924 -0.327544 -1.48803e-19)
(1.59925 -0.268933 -3.06493e-18)
(1.66218 -0.379322 3.51258e-19)
(1.70392 -0.494979 9.58281e-19)
(1.63641 -0.561064 -3.57017e-19)
(1.04781 -0.461294 5.57969e-19)
(1.39936 -0.383159 7.26517e-19)
(1.41762 -0.475141 -1.91674e-18)
(1.40477 -0.584381 -2.19915e-18)
(1.33312 -0.660816 6.63102e-19)
(0.849818 -0.531247 4.51303e-19)
(1.1354 -0.435729 1.45341e-19)
(1.09487 -0.523035 2.13738e-19)
(1.08289 -0.634761 -3.27704e-19)
(1.02357 -0.709964 -3.94655e-19)
(0.641276 -0.553977 -3.64721e-21)
(1.07538 0.0555534 7.91862e-21)
(0.920229 0.0636895 -5.60027e-21)
(1.1088 0.0844948 -5.42953e-21)
(0.792907 0.021596 -1.86766e-19)
(1.04117 -0.182273 -7.77548e-21)
(1.08454 0.0579561 -2.60144e-21)
(0.919262 0.0629642 5.17955e-20)
(1.10795 0.102283 -5.18373e-20)
(0.880625 0.0691673 1.03578e-19)
(0.946243 -0.0667565 -2.23516e-20)
(1.08218 0.0539746 -6.40614e-20)
(0.923929 0.0610537 4.22748e-22)
(1.09651 0.104244 -2.3384e-20)
(0.883091 0.0957257 1.86987e-20)
(0.927471 -0.00585291 -1.5274e-19)
(1.06193 0.0515468 7.83818e-20)
(0.953221 0.0578057 3.53582e-21)
(1.06171 0.11203 3.69573e-20)
(0.921134 0.12039 2.5038e-20)
(0.850369 0.106257 1.15616e-19)
(1.03607 0.0470226 1.9937e-20)
(0.98541 0.0576401 -3.01261e-20)
(1.03023 0.118523 5.04447e-20)
(0.951187 0.147723 7.75363e-20)
(0.833542 0.207576 -1.31757e-19)
(0.892475 0.0340796 0)
(0.701751 0.0286555 1.06338e-20)
(0.587983 0.0234117 3.25602e-21)
(0.320676 -0.00494772 3.80227e-20)
(0.61131 -0.0485353 -1.07031e-19)
(1.04173 0.0756443 -6.67743e-20)
(0.930012 0.0771957 -2.07084e-20)
(1.00815 0.0836682 -2.80514e-20)
(0.780227 0.0111652 -9.85698e-20)
(0.968343 -0.169699 -1.16034e-19)
(0.842358 -0.0614084 -2.61327e-20)
(0.922794 -0.0290134 4.32623e-19)
(1.00166 0.0349893 2.67372e-19)
(0.883619 0.0474782 2.58666e-20)
(0.687389 0.0244241 0)
(1.20072 -0.293397 2.49088e-19)
(1.30673 -0.259522 1.25196e-18)
(1.46634 -0.146285 -1.40474e-18)
(1.55133 -0.0214208 -4.33258e-19)
(1.45404 0.0222045 3.27794e-19)
)
;

boundaryField
{
    left
    {
        type            fixedValue;
        value           uniform (1 0 0);
    }
    right
    {
        type            zeroGradient;
    }
    down
    {
        type            noSlip;
    }
    up
    {
        type            noSlip;
    }
    cylinder
    {
        type            noSlip;
    }
    defaultFaces
    {
        type            empty;
    }
}


// ************************************************************************* //
