# Selection   : all
# Cells       : 440
# Volume      : 7.374263e+01
# Time        	maxMag(U)
3.4           	2.827363e+00
3.45          	2.825790e+00
3.5           	2.823301e+00
