/*--------------------------------*- C++ -*----------------------------------*\
  =========                 |
  \\      /  F ield         | OpenFOAM: The Open Source CFD Toolbox
   \\    /   O peration     | Website:  https://openfoam.org
    \\  /    A nd           | Version:  13
     \\/     M anipulation  |
\*---------------------------------------------------------------------------*/
FoamFile
{
    format      ascii;
    class       volScalarField;
    location    "24";
    object      p;
}
// * * * * * * * * * * * * * * * * * * * * * * * * * * * * * * * * * * * * * //

dimensions      [0 2 -2 0 0 0 0];

internalField   nonuniform List<scalar> 
440
(
-1.17999
-1.20784
-1.26635
-1.26225
-1.3136
-1.11488
-1.10616
-1.11467
-1.12993
-1.14155
-1.20608
-1.17175
-1.1409
-1.10674
-1.06548
-1.3193
-1.26991
-1.18816
-1.09011
-0.989428
-1.40006
-1.33327
-1.18707
-1.03419
-0.893575
-1.29491
-1.27542
-1.25546
-1.24467
-1.23588
-1.27619
-1.26176
-1.25128
-1.25347
-1.26283
-1.18306
-1.19494
-1.22456
-1.24722
-1.25635
-0.967699
-1.01586
-1.09746
-1.15372
-1.1639
-0.848418
-0.949589
-1.06597
-1.1232
-1.12848
-1.26017
-1.41484
-1.0823
-1.33555
0.0783841
-1.39423
-1.28843
-0.862211
-1.23405
0.0369533
-1.19621
-1.01591
-0.740802
-1.0517
-0.00559323
-0.874428
-0.732307
-0.736803
-0.844078
-0.0446179
-0.691239
-0.412827
-0.865253
-0.699387
-0.0739926
-0.487601
-0.125106
-0.977984
-0.578712
-0.0968812
-0.340503
-0.212762
-0.76594
-0.415769
-0.103193
-0.386024
0.0186614
-0.473375
-0.307919
-0.118219
-0.350265
0.120402
-0.299506
-0.260868
-0.120454
-0.301376
0.171829
-0.111506
-0.221743
-0.12868
-0.652742
-0.790395
-0.961811
-1.13501
-1.30643
-0.40822
-0.530677
-0.610915
-0.638938
-0.63722
-0.24189
-0.345255
-0.4133
-0.453913
-0.472405
-0.137742
-0.239138
-0.310613
-0.358322
-0.379521
-0.0906267
-0.192438
-0.264423
-0.31084
-0.324293
0.645918
0.509241
0.336085
0.136779
-0.0921243
0.243694
0.0915863
-0.0978251
-0.31435
-0.561327
-0.154403
-0.314617
-0.516703
-0.747299
-0.968156
-0.493596
-0.660357
-0.863693
-1.0836
-1.2538
-0.737209
-0.899745
-1.08653
-1.28105
-1.3906
1.86831
1.90062
1.93255
1.95176
1.95325
1.68115
1.70229
1.71943
1.72077
1.70116
1.45225
1.44517
1.417
1.36648
1.28996
1.18968
1.15668
1.0907
0.994358
0.867794
0.928952
0.836901
0.7129
0.563656
0.380118
1.60817
1.59602
1.59018
1.6403
1.74979
1.59811
1.58347
1.57219
1.6127
1.66471
1.58905
1.56791
1.55165
1.57276
1.55856
1.58115
1.54954
1.52831
1.52316
1.40082
1.57433
1.53126
1.50303
1.46723
1.22953
1.56886
1.49968
1.46875
1.37178
1.03988
1.56616
1.4633
1.44135
1.27708
1.04627
1.57255
1.44442
1.41661
1.21976
0.983242
1.56332
1.4227
1.40443
1.18117
0.932239
1.60332
1.41428
1.40321
1.16154
0.910457
0.615778
0.326635
-0.00638803
-0.284158
-0.489183
0.551232
0.344922
0.116321
-0.0841752
-0.261684
0.560112
0.397183
0.22187
0.0522008
-0.107503
0.597273
0.457159
0.303075
0.140606
-0.00857682
0.617325
0.485772
0.339555
0.180521
0.0379893
-1.71096
-1.5455
-1.35987
-1.20434
-1.11127
-1.75784
-1.68524
-1.53743
-1.4087
-1.32178
-1.65944
-1.60841
-1.51094
-1.41361
-1.33298
-1.48733
-1.44109
-1.38514
-1.32523
-1.26635
-1.32678
-1.30416
-1.26885
-1.23929
-1.22866
-1.22811
-1.22319
-1.18195
-1.20642
-1.16168
-1.1903
-1.18292
-1.1564
-1.16004
-1.12525
-1.19548
-1.18645
-1.16706
-1.14682
-1.13859
-1.22183
-1.20863
-1.18702
-1.16338
-1.15628
-1.25475
-1.23467
-1.20222
-1.16666
-1.13124
-1.08306
-0.796377
-0.960521
-0.857395
0.235153
-1.07121
-0.85588
-1.0922
-1.03807
0.214588
-0.974379
-0.992
-1.2482
-1.25295
0.187228
-0.89195
-1.22502
-1.3677
-1.38233
0.156686
-0.904512
-1.39679
-1.32795
-1.39425
0.119379
-0.490595
-0.912438
-0.925982
-0.730516
0.261799
-0.961866
-0.885152
-0.857371
-0.74236
0.248911
-1.05893
-1.27384
-1.24808
-1.18042
-0.911294
-1.07934
-1.27922
-1.27259
-1.20345
-1.16636
1.53744
1.50812
1.4599
1.39419
1.30814
1.71779
1.73597
1.73713
1.71976
1.68482
1.87321
1.90459
1.92615
1.93414
1.92768
1.95824
1.99776
2.03944
2.0736
2.08911
1.95914
1.99754
2.04006
2.07566
2.09222
-0.646757
-0.76354
-0.946326
-1.1648
-1.42803
-0.0298664
-0.176613
-0.372019
-0.608351
-0.915971
0.53175
0.379946
0.197463
-0.0187224
-0.295467
0.97972
0.861649
0.718074
0.543118
0.328235
1.33514
1.25251
1.14365
1.01216
0.856924
1.67239
1.63032
1.62726
1.64053
1.66697
1.65684
1.62676
1.62477
1.65464
1.7248
1.64341
1.6217
1.62293
1.66973
1.79811
1.63078
1.61522
1.61559
1.67055
1.80314
1.61901
1.60691
1.60439
1.66097
1.7947
1.72821
1.63665
1.61683
1.56687
1.55177
1.68289
1.62753
1.61132
1.58751
1.55535
1.2167
0.995712
0.602708
0.0235359
-0.610471
1.30158
1.02877
0.616963
0.0430737
-0.603199
)
;

boundaryField
{
    left
    {
        type            zeroGradient;
    }
    right
    {
        type            fixedValue;
        value           uniform 0;
    }
    down
    {
        type            zeroGradient;
    }
    up
    {
        type            zeroGradient;
    }
    cylinder
    {
        type            zeroGradient;
    }
    defaultFaces
    {
        type            empty;
    }
}


// ************************************************************************* //
