/*--------------------------------*- C++ -*----------------------------------*\
  =========                 |
  \\      /  F ield         | OpenFOAM: The Open Source CFD Toolbox
   \\    /   O peration     | Website:  https://openfoam.org
    \\  /    A nd           | Version:  13
     \\/     M anipulation  |
\*---------------------------------------------------------------------------*/
FoamFile
{
    format      ascii;
    class       surfaceScalarField;
    location    "24";
    object      phi;
}
// * * * * * * * * * * * * * * * * * * * * * * * * * * * * * * * * * * * * * //

dimensions      [0 3 -1 0 0 0 0];

internalField   nonuniform List<scalar> 
823
(
0.0122173
0.0255041
-0.0377214
0.032394
0.0220887
-0.0422654
0.0782136
-0.0274272
-0.0183925
0.159715
-0.0934506
0.0119494
-0.133444
0.0193998
0.273759
0.0180485
0.00745563
0.0766563
-0.0365191
0.170247
-0.121018
0.278526
-0.20173
-0.275245
0.420327
0.0217706
-0.0143149
0.10584
-0.120588
0.217227
-0.232406
0.325006
-0.309508
-0.357094
0.406855
0.0422894
-0.0566043
0.139029
-0.217328
0.227105
-0.320482
0.283843
-0.366246
-0.379541
0.30629
0.0562753
-0.11288
0.129466
-0.290518
0.172132
-0.363147
0.188118
-0.382232
0.195858
-0.387282
0.0264216
-0.0587452
0.0323235
0.0630258
-0.123626
0.0870223
0.0878295
-0.134676
0.109873
0.0970971
-0.11546
0.106192
-0.0891416
0.096316
0.0899227
0.0229299
-0.081675
0.0358518
-0.136548
0.0281369
-0.126961
0.00992791
-0.0972507
-0.0711154
-0.00809825
0.00622177
-0.0878968
-0.0124418
-0.117885
-0.0433174
-0.0960859
-0.0688874
-0.0716806
-0.0556487
-0.0843541
-0.053916
-0.0339808
-0.131119
-0.0406818
-0.195045
-0.0321596
-0.240344
-0.0263822
-0.0226516
-0.273341
-0.0717022
-0.154649
-0.205201
-0.219634
-0.222886
0.42426
-0.43894
0.110995
0.496849
1.65645
-1.72903
0.411535
0.909257
-0.823944
0.466639
-1.498
1.4429
-1.00909
1.00643
0.164228
-0.611266
0.336883
1.48379
0.478986
0.767154
0.521112
-1.54013
-0.997754
-0.0601996
-0.63542
0.170846
1.25275
0.582365
0.355635
0.586368
-1.54413
-0.970206
-0.211578
-0.697183
0.152714
0.888453
0.644782
-0.136432
0.633153
-1.5325
-0.937905
-0.126545
-0.793524
0.198207
0.563702
0.649887
-0.588112
0.639818
-1.52243
-0.906345
0.797605
-0.457279
-1.13385
0.924245
0.437061
1.30029
-0.964157
1.12655
-1.34869
-0.706329
1.16249
-0.281239
-1.33853
1.37289
0.22666
1.40384
-0.995104
1.06754
-1.0124
-0.452769
1.21625
-0.172053
-1.32544
1.48105
-0.0381345
1.26872
-0.782772
0.905928
-0.64961
-0.253497
1.21644
-0.0950616
-1.29343
1.34041
-0.162101
0.96862
-0.410983
0.561907
-0.242897
-0.0728911
0.791285
-0.886347
0.629184
0.218202
-0.024695
1.08277
0.144166
-1.03108
1.14995
0.239111
1.25837
0.298434
1.26905
0.40965
0.408954
1.00834
0.078643
-0.942814
1.06772
0.179728
1.16011
0.206043
1.26076
0.308999
0.331182
0.944512
0.0378099
-0.903679
1.00909
0.115147
1.08746
0.12768
1.20889
0.187562
0.214635
0.891551
0.00942638
-0.863168
0.963425
0.0432723
1.04425
0.0468549
1.15978
0.0720313
0.0809832
0.643205
-0.633779
0.686478
0.733333
0.805364
0.131334
0.297813
-0.248617
-0.18053
0.0873297
0.30481
-0.260805
0.0477026
0.3153
-0.275673
0.0152746
0.30691
-0.274482
0.198826
-0.183552
0.0944337
0.334748
-0.131369
0.059338
0.339905
0.0281525
0.346485
0.00411171
0.33095
0.202938
0.0516781
0.364482
-0.0814118
0.0231256
0.368458
-0.00050028
0.370111
-0.0100027
0.340453
0.192935
-0.0212158
0.380865
0.00483232
-0.0359489
0.383191
-0.0416059
0.375768
-0.0303159
0.329163
0.162619
-0.101964
0.0955477
-0.101005
-0.0883842
-0.0497398
0.204382
0.0951466
-0.257296
-0.0422328
0.150105
0.0993706
-0.0450933
0.0938379
0.10409
-0.0478228
0.0384216
0.104331
-0.0489144
0.0744041
-0.0359825
0.197233
0.139983
-0.24207
0.150192
0.146411
0.0978632
0.156419
0.0417528
0.160441
0.116157
0.151048
0.185591
-0.196655
0.107549
0.18991
0.0651641
0.198804
0.0247353
0.20087
0.140892
0.157301
0.220806
-0.192516
0.11671
0.2305
0.0716142
0.2439
0.0277704
0.244713
0.168663
0.106735
-0.134546
0.0764297
0.0446571
0.014889
0.404828
0.0683736
-0.0772221
0.421488
0.014757
-0.0314167
0.415944
0.151256
-0.145712
0.391742
0.194672
-0.17047
0.400154
-0.265708
0.402256
0.0620973
0.41616
0.000852751
0.40557
0.161846
0.376092
0.224149
0.534176
0.396618
0.0614594
0.411908
-0.0144379
0.384408
0.189346
0.362306
0.246252
0.699827
0.394098
0.0633408
0.400358
-0.0206976
0.369213
0.220491
0.337615
0.27785
0.844926
0.387929
0.0713911
0.390073
-0.022841
0.339425
0.271139
0.311775
0.3055
1.02216
0.62663
0.048781
0.662593
-0.0588039
0.679503
0.254229
0.735712
0.249291
0.774458
0.983409
0.644165
0.00863641
0.668637
-0.0832758
0.691959
0.230907
0.773295
0.167955
0.5282
1.01955
0.653678
-0.0410212
0.649556
-0.0791533
0.692299
0.188164
0.792963
0.0672912
0.323971
0.997192
0.634368
-0.0713692
0.606179
-0.0509642
0.717606
0.0767365
0.780095
0.00480238
0.152599
0.951467
0.532651
0.481687
0.558423
0.563226
0.715825
1.00084
-0.197958
0.998799
-0.129331
0.991456
-0.0740688
1.00385
-0.00755815
0.0683178
0.958365
-0.136769
0.942942
-0.113909
0.913227
-0.0443532
0.933472
-0.027803
0.0589757
0.937556
-0.0771335
0.90278
-0.0791323
0.881665
-0.0232386
0.885067
-0.0312045
0.0403637
0.903816
-0.0294822
0.858854
-0.0341707
0.847709
-0.0120933
0.835351
-0.0188465
0.0125472
0.686342
0.652172
0.640078
0.621232
0.0545978
0.172253
-0.226851
0.078165
0.368446
-0.392013
0.0767028
0.422424
-0.420962
0.066716
0.422997
-0.41301
0.390575
0.0526438
-0.376503
0.0846158
0.087637
0.159862
0.2932
0.192147
0.39014
0.195901
0.419242
0.406017
0.180459
0.072682
0.0149549
0.199209
0.166672
0.293264
0.296085
0.345873
0.366633
0.411636
0.340255
0.0349433
-0.0199884
0.154579
0.0470367
0.289747
0.160916
0.417881
0.238499
0.332636
0.496881
0.0059256
-0.025914
0.06815
-0.0151877
0.186709
0.0423576
0.332382
0.0928255
0.189219
0.4758
-0.0061577
-0.0197563
0.0123878
-0.0337332
0.0780749
-0.0233295
0.180983
-0.0100827
0.0636722
0.306529
-0.00626303
-0.0134932
-0.00412919
-0.035867
0.0191972
-0.0466559
0.0567288
-0.0476142
-0.0142778
0.134679
-0.00171719
-0.011776
0.00322879
-0.040813
0.0175522
-0.0609793
0.037407
-0.067469
-0.0598096
0.0829388
0.00591086
-0.0176869
0.0236457
-0.0585479
0.0473439
-0.0846774
0.0718244
-0.0919496
-0.0879087
0.0999235
0.0146366
0.043111
0.0683063
0.0825488
0.0845628
0.387254
1.07489
-1.15561
0.16484
0.865047
-0.642633
-0.0829696
0.602217
-0.354407
0.134891
-0.75068
0.532819
-0.72336
0.535524
0.377076
0.832492
0.0640877
1.17804
-0.0582186
0.724524
0.213288
-1.02219
-0.838489
0.413891
0.50154
0.0761516
1.51577
0.0237999
0.776875
0.256852
-1.25524
-0.932449
0.409133
0.19233
0.202013
1.72289
0.193901
0.784987
0.320621
-1.38196
-0.989209
0.387888
0.381748
0.342791
0.40373
-0.155214
0.7416
-0.586386
-0.303574
0.14836
-0.251725
-0.0518492
0.056619
-0.308344
-0.224416
0.805725
-1.21974
0.311453
-0.0948036
0.129671
0.0945567
-0.0121354
-0.0824213
0.154258
-0.0597013
0.255596
-0.101338
0.406169
-0.150574
-0.180216
0.218174
-0.177666
0.338932
0.577849
0.924156
0.146088
-0.151803
0.183545
-0.17783
0.111621
-0.158201
0.192668
0.0725547
-0.166799
0.205866
0.0299444
-0.16749
0.210101
-0.11817
0.148114
0.190801
-0.111633
-0.230971
0.145196
-0.112596
0.0927811
-0.114384
0.0385723
-0.113282
-0.0795972
0.186248
-0.0604074
-0.237474
0.134267
-0.0606148
0.0826018
-0.0627189
0.0333932
-0.0640731
-0.0462039
0.204217
-0.00904081
-0.255584
0.152031
-0.00842834
0.097497
-0.00818533
0.0412995
-0.00787553
-0.00490448
0.207207
-0.25848
0.153685
0.0976769
0.040887
0.0484913
-0.353118
-0.0718767
0.01906
-0.383578
-0.00612517
-0.395777
-0.0172971
-0.380841
-0.244148
0.136258
-0.318672
-0.170703
0.0911219
-0.338443
0.0452285
-0.349883
0.0098106
-0.345424
-0.234337
0.159518
-0.274397
-0.203794
0.11169
-0.290615
0.0656088
-0.303802
0.0237834
-0.303598
-0.210554
0.177767
-0.234756
-0.217407
0.13133
-0.244178
0.0816497
-0.254121
0.0331939
-0.255142
-0.17736
0.174053
-0.225265
0.122543
0.0742875
0.0292458
0.388443
0.10489
-0.0973541
0.39095
0.0808007
-0.0833074
0.358899
0.138559
-0.106509
0.311123
0.0313321
0.0164444
-0.266464
0.399757
0.396332
0.104538
0.405057
0.0720755
0.397271
0.146345
0.352606
0.0759978
-0.144829
0.401631
0.098886
0.414551
0.0591551
0.411743
0.149154
0.375072
0.112669
-0.00723088
0.40625
0.088616
0.419554
0.0458506
0.422205
0.146503
0.391792
0.143081
0.128978
0.407374
0.421807
0.422599
0.39521
0.415088
0.0949633
0.337314
0.0777738
0.258296
0.0790179
0.271321
-0.0130246
-0.215564
0.486885
0.50766
0.502127
0.474636
0.478056
0.662248
0.389568
0.097317
0.303497
0.0860703
0.203522
0.0999753
0.118444
0.0850785
0.0360224
0.5343
0.402963
0.299145
0.21352
)
;

boundaryField
{
    left
    {
        type            calculated;
        value           nonuniform List<scalar> 
17
(
-0.60402
-0.60402
-0.60402
-0.60402
-0.60402
-0.39598
-0.39598
-0.39598
-0.39598
-0.39598
-0.39598
-0.39598
-0.39598
-0.39598
-0.39598
-0.510051
-0.510051
)
;
    }
    right
    {
        type            calculated;
        value           nonuniform List<scalar> 
17
(
0.281035
0.440779
0.322727
0.328417
0.350811
0.377381
0.420954
0.469299
0.509773
0.55882
0.600853
0.608258
0.926537
0.813985
0.706656
0.381301
-0.097586
)
;
    }
    down
    {
        type            calculated;
        value           uniform 0;
    }
    up
    {
        type            calculated;
        value           uniform 0;
    }
    cylinder
    {
        type            calculated;
        value           uniform 0;
    }
    defaultFaces
    {
        type            empty;
    }
}


// ************************************************************************* //
