# Selection   : all
# Cells       : 1800
# Volume      : 7.372328e+01
# Time        	maxMag(U)
2.45          	3.137455e+00
2.475         	3.129407e+00
2.5           	3.121240e+00
