/*--------------------------------*- C++ -*----------------------------------*\
  =========                 |
  \\      /  F ield         | OpenFOAM: The Open Source CFD Toolbox
   \\    /   O peration     | Website:  https://openfoam.org
    \\  /    A nd           | Version:  13
     \\/     M anipulation  |
\*---------------------------------------------------------------------------*/
FoamFile
{
    format      ascii;
    class       surfaceScalarField;
    location    "0.21";
    object      phi;
}
// * * * * * * * * * * * * * * * * * * * * * * * * * * * * * * * * * * * * * //

dimensions      [0 3 -1 0 0 0 0];

internalField   nonuniform List<scalar> 
3485
(
0.00137126
-0.0112588
0.00988753
0.00504979
-0.0319088
0.0282303
0.0107615
-0.0513859
0.0456742
0.0183082
-0.0696805
0.0621337
0.0275395
-0.0868388
0.0776076
0.038341
-0.102905
0.0921031
0.0506244
-0.117909
0.105626
0.0643466
-0.131872
0.11815
0.0796053
-0.14486
0.129601
-0.15689
0.139499
0.0969963
0.00150011
-0.0127589
0.00544502
-0.0358537
0.0114746
-0.0574154
0.019321
-0.0775269
0.0287693
-0.0962871
0.0396422
-0.113778
0.0517957
-0.130062
0.065122
-0.145198
0.0795298
-0.159268
-0.172193
0.0948334
0.00147406
-0.014233
0.00532655
-0.0397062
0.0111736
-0.0632625
0.0187194
-0.0850727
0.0277233
-0.105291
0.0379859
-0.12404
0.0493416
-0.141418
0.0616508
-0.157507
0.0747817
-0.172399
-0.186035
0.0886232
0.00133881
-0.0155718
0.00485882
-0.0432262
0.0102104
-0.0686141
0.0171164
-0.0919786
0.0253529
-0.113528
0.0347391
-0.133426
0.0451291
-0.151808
0.0564029
-0.168781
0.0684541
-0.18445
-0.19879
0.0812094
0.00116692
-0.0167387
0.00425595
-0.0463153
0.00897307
-0.0733312
0.0150816
-0.0980872
0.0223916
-0.120838
0.0307524
-0.141787
0.0400464
-0.161102
0.0501809
-0.178916
0.0610786
-0.195347
-0.210403
0.0726916
0.000980051
-0.0177187
0.00358805
-0.0489233
0.00758681
-0.0773299
0.0127843
-0.103285
0.0190266
-0.12708
0.0261934
-0.148954
0.0341927
-0.169101
0.0429552
-0.187678
0.052426
-0.204818
-0.220551
0.0625742
0.000780785
-0.0184995
0.00286521
-0.0510077
0.0060694
-0.0805341
0.0102436
-0.107459
0.0152676
-0.132104
0.0210482
-0.154735
0.0275162
-0.175569
0.034623
-0.194785
0.0423346
-0.21253
-0.228854
0.0506372
0.000569787
-0.0190693
0.00209375
-0.0525316
0.00443845
-0.0828788
0.00749361
-0.110514
0.01117
-0.13578
0.0153986
-0.158963
0.0201299
-0.180301
0.0253324
-0.199988
0.0309901
-0.218187
-0.234971
0.0371075
0.000352606
-0.0194219
0.00129609
-0.0534751
0.00274567
-0.0843284
0.00462936
-0.112398
0.00688791
-0.138039
0.00947494
-0.16155
0.0123576
-0.183183
0.015517
-0.203147
0.0189479
-0.221618
-0.238689
0.0226652
0.000137902
-0.0195598
0.000502809
-0.05384
0.00105762
-0.0848832
0.00177053
-0.113111
0.00261503
-0.138883
0.00356999
-0.162505
0.00461991
-0.184233
0.00575525
-0.204282
0.00697257
-0.222836
0.00827693
-0.239993
0.00047232
-0.00183553
0.00136321
0.00204797
-0.00618645
0.0046108
0.00539735
-0.0114002
0.00805077
0.010083
-0.0162006
0.011515
0.0154731
-0.0201775
0.0147874
0.021326
-0.0235483
0.0176954
0.0277643
-0.0267248
0.0202865
0.0349376
-0.0299301
0.0227568
0.0428163
-0.0330954
0.0252167
-0.0360629
0.0512588
0.0276204
0.000428206
-0.00226373
0.00212731
-0.00788555
0.00547252
-0.0147454
0.00983446
-0.0205626
0.0148802
-0.0252232
0.0207494
-0.0294175
0.027616
-0.0335914
0.0354084
-0.0377225
0.0439048
-0.0415919
-0.0451031
0.052945
0.000693039
-0.00295677
0.00275358
-0.0099461
0.00582033
-0.0178121
0.00979815
-0.0245404
0.0148612
-0.0302862
0.0211823
-0.0357387
0.0286751
-0.0410841
0.0370504
-0.0460979
0.0460972
-0.0506386
-0.0547376
0.0557318
0.00087969
-0.00383646
0.00309013
-0.0121565
0.00611096
-0.020833
0.0102441
-0.0286735
0.0157646
-0.0358068
0.0226415
-0.0426155
0.0306244
-0.0490671
0.0394839
-0.0549574
0.0491333
-0.060288
-0.0650948
0.0594904
0.000930849
-0.00476731
0.0032179
-0.0144436
0.00654184
-0.0241569
0.0111517
-0.0332833
0.0171838
-0.0418389
0.0245057
-0.0499374
0.0329269
-0.0574883
0.0423563
-0.0643867
0.0527312
-0.0706629
-0.0762809
0.0639173
0.000947934
-0.00571525
0.00338149
-0.0168771
0.00710375
-0.0278792
0.0121921
-0.0383717
0.0186562
-0.048303
0.0263835
-0.0576647
0.0352785
-0.0663833
0.0452945
-0.0744028
0.056352
-0.0817204
-0.0882214
0.0682925
0.000981488
-0.00669674
0.00358705
-0.0194827
0.00764484
-0.031937
0.0131112
-0.043838
0.0199309
-0.0551227
0.0280176
-0.0657514
0.0373094
-0.0756751
0.0477595
-0.0848529
0.0592946
-0.0932555
-0.100697
0.0717701
0.00101817
-0.0077149
0.00376744
-0.022232
0.00806937
-0.0362389
0.0138163
-0.049585
0.0209142
-0.0622206
0.0292745
-0.0741117
0.0388274
-0.085228
0.049516
-0.0955415
0.0612816
-0.105021
-0.11344
0.0740245
0.0010542
-0.0087691
0.00393498
-0.0251128
0.00845708
-0.040761
0.0144755
-0.0556034
0.0218645
-0.0696096
0.0305138
-0.082761
0.0403282
-0.0950424
0.0512189
-0.106432
0.0631051
-0.116907
-0.126317
0.0759821
0.00111843
0.00423596
0.00914918
0.0156795
0.0236775
0.0330195
0.0436026
0.05532
0.0680139
0.0811959
0.113959
-0.413796
0.351096
0.167289
-0.469134
0.415804
0.208336
-0.415989
0.374942
0.240125
-0.31793
0.286141
0.263046
-0.20331
0.180389
0.276183
-0.102135
0.0889972
0.281829
-0.047048
0.0414022
0.283795
-0.0246688
0.0227027
0.283714
-0.014564
0.0146455
-0.00430063
0.00619709
0.115844
-0.476695
0.169335
-0.522625
0.210574
-0.457228
0.242101
-0.349457
0.264635
-0.225844
0.277114
-0.114613
0.282317
-0.0522508
0.284108
-0.0264595
0.283995
-0.0144512
-0.00248258
0.117863
-0.538826
0.170563
-0.575325
0.211718
-0.498383
0.242879
-0.380619
0.265091
-0.248056
0.277184
-0.126707
0.282265
-0.0573313
0.284117
-0.0283111
0.284168
-0.0145024
-0.000943067
0.120335
-0.599671
0.171186
-0.626176
0.211806
-0.539003
0.242501
-0.411314
0.264478
-0.270033
0.276469
-0.138698
0.281695
-0.0625573
0.283822
-0.030438
0.284226
-0.0149069
0.000120545
0.123232
-0.658985
0.171409
-0.674353
0.210895
-0.578489
0.240991
-0.441411
0.26282
-0.291862
0.274982
-0.150859
0.280606
-0.0681813
0.283219
-0.0330514
0.284165
-0.0158528
0.000514773
0.126042
-0.716735
0.171301
-0.719613
0.209066
-0.616253
0.238375
-0.470719
0.260113
-0.3136
0.272709
-0.163455
0.278993
-0.0744653
0.282306
-0.0363642
0.283976
-0.0175224
4.63395e-05
0.127924
-0.772889
0.170729
-0.762418
0.206412
-0.651935
0.234717
-0.499025
0.256368
-0.335251
0.269645
-0.176731
0.276862
-0.0816826
0.281084
-0.0405864
0.283654
-0.0200922
-0.00147256
0.127959
-0.826824
0.169249
-0.803708
0.202856
-0.685542
0.229998
-0.526167
0.251529
-0.356782
0.265726
-0.190929
0.274199
-0.0901552
0.279553
-0.0459412
0.283192
-0.023731
-0.00422979
0.125848
-0.87669
0.166477
-0.844336
0.19841
-0.717476
0.224367
-0.552123
0.245694
-0.378109
0.261018
-0.206252
0.271057
-0.100194
0.277733
-0.0526174
0.282589
-0.0285869
-0.00840692
0.122148
-0.917642
0.161618
-0.883806
0.192241
-0.748099
0.217214
-0.577096
0.23839
-0.399285
0.255173
-0.223036
0.267302
-0.112323
0.275578
-0.0608941
0.281818
-0.0348263
-0.0141913
0.583569
-0.9198
-0.581411
0.560298
-0.860535
0.522418
-0.710219
0.485381
-0.540059
0.457887
-0.371791
0.445142
-0.210291
0.442848
-0.110029
0.441674
-0.0597197
0.439932
-0.0330847
-0.0139322
0.682354
-0.870819
-0.731335
0.618916
-0.797097
0.553384
-0.644686
0.497755
-0.48443
0.459366
-0.333402
0.44462
-0.195545
0.439507
-0.104916
0.433298
-0.0535101
0.427144
-0.0269311
-0.0117255
0.753838
-0.774335
-0.850321
0.655486
-0.698745
0.565574
-0.554775
0.493459
-0.412314
0.443558
-0.2835
0.418874
-0.170862
0.404962
-0.091004
0.395826
-0.0443738
0.38984
-0.0209457
-0.00946669
0.779448
-0.641193
-0.91259
0.655035
-0.574331
0.549161
-0.448901
0.466534
-0.329687
0.408468
-0.225435
0.376632
-0.139025
0.361436
-0.0758087
0.353253
-0.0361904
0.348308
-0.0160006
-0.0073512
0.753458
-0.49224
-0.902411
0.618612
-0.439486
0.508268
-0.338557
0.423977
-0.245396
0.365251
-0.166708
0.330977
-0.104751
0.314102
-0.0589345
0.305875
-0.0279629
0.301557
-0.011683
-0.00542875
0.685348
-0.345791
-0.831797
0.553256
-0.307394
0.447655
-0.232957
0.368462
-0.166202
0.313704
-0.111951
0.280429
-0.0714759
0.263212
-0.0417174
0.255227
-0.0199775
0.251517
-0.00797285
-0.00374738
0.582702
-0.213872
-0.714622
0.463119
-0.18781
0.369933
-0.139771
0.30144
-0.09771
0.25465
-0.0651608
0.225458
-0.0422836
0.209418
-0.0256773
0.201955
-0.0125144
0.198786
-0.00480357
-0.00231152
0.448764
-0.105543
-0.557093
0.35124
-0.0902859
0.277325
-0.0658555
0.224385
-0.0447702
0.188765
-0.0295406
0.166061
-0.0195797
0.152822
-0.0124379
0.146499
-0.00619153
0.143966
-0.0022707
-0.00115631
0.286568
-0.03023
-0.361881
0.2209
-0.0246173
0.172567
-0.017523
0.139135
-0.011338
0.116959
-0.00736446
0.102441
-0.00506167
0.0934451
-0.00344208
0.0890296
-0.00177596
0.0873713
-0.000612471
-0.000361226
0.101297
-0.131527
0.07668
0.059157
0.047819
0.0404545
0.0353929
0.0319508
0.0301748
0.0295624
0.738834
0.0102235
-0.740781
0.733088
0.0284119
0.723447
0.0467486
0.71017
0.0639139
0.693572
0.0791722
0.674071
0.0921923
0.652258
0.103022
0.628686
0.112195
0.604227
0.119293
0.119812
0.845561
0.0133976
-0.848735
0.837331
0.0366418
0.827293
0.0567866
0.816592
0.0746146
0.80524
0.090524
0.792874
0.104559
0.779244
0.116653
0.764525
0.126913
0.749032
0.134786
0.137509
0.845009
0.0114302
-0.843042
0.84891
0.0327417
0.853049
0.0526471
0.856501
0.0711625
0.858859
0.0881665
0.859935
0.103482
0.859593
0.116995
0.857938
0.128568
0.855236
0.137488
0.142423
0.800228
0.0093101
-0.798108
0.805838
0.0271316
0.814442
0.0440441
0.82567
0.0599343
0.839049
0.0747867
0.853917
0.0886147
0.869506
0.101406
0.885154
0.112919
0.900048
0.122595
0.129881
0.737876
0.00704456
-0.735611
0.744166
0.0208422
0.754137
0.0340732
0.767521
0.0465504
0.784108
0.0581996
0.803699
0.0690234
0.826049
0.079056
0.850715
0.0882526
0.876677
0.0966329
0.104147
0.653927
0.00485901
-0.651741
0.66021
0.0145591
0.670386
0.0238973
0.684229
0.0327066
0.701535
0.0408937
0.722126
0.0484327
0.745828
0.0553535
0.772367
0.0617142
0.801279
0.0677211
0.0736289
0.549114
0.00291974
-0.547175
0.554815
0.00885798
0.564142
0.0145711
0.576909
0.0199391
0.592918
0.0248845
0.611972
0.0293792
0.633876
0.0334496
0.658415
0.037175
0.685395
0.040741
0.0444023
0.422792
0.00137777
-0.42125
0.427413
0.00423708
0.435008
0.00697586
0.445422
0.00952525
0.458469
0.0118373
0.473955
0.0138934
0.491694
0.0157107
0.511523
0.0173457
0.533342
0.0189224
0.020651
0.273827
0.000367317
-0.272816
0.276914
0.00114979
0.281998
0.00189181
0.288954
0.00256919
0.297628
0.00316394
0.307853
0.0036683
0.319476
0.00408686
0.332387
0.00443512
0.346551
0.00475846
0.00532093
0.100483
-0.100116
0.101633
0.103525
0.106094
0.109258
0.112926
0.117013
0.121448
0.126206
0.0780135
0.15942
-0.142382
-0.0950519
0.0630876
0.147395
-0.132469
0.0496606
0.134358
-0.120931
0.0376317
0.1203
-0.108271
0.0270443
0.10515
-0.0945629
0.0179881
0.0888835
-0.0798273
0.010578
0.0714567
-0.0640466
0.00496535
0.0528101
-0.0471974
0.00134846
0.032877
-0.0292601
0.011641
-0.0102925
0.0780013
0.174374
-0.0929548
0.0639129
0.161484
0.0508673
0.147404
0.0389553
0.132212
0.028286
0.115819
0.0190054
0.0981641
0.0112917
0.0791703
0.00536021
0.0587417
0.00147725
0.03676
0.0131182
0.0732242
0.187888
-0.0867382
0.0603998
0.174308
0.0483689
0.159435
0.0372593
0.143321
0.0272084
0.12587
0.0183813
0.106991
0.010977
0.0865747
0.00523513
0.0644835
0.00144944
0.0405457
0.0145676
0.0668043
0.200327
-0.079244
0.0550549
0.186058
0.0440626
0.170427
0.0339288
0.153455
0.0247696
0.13503
0.0167278
0.115033
0.00998141
0.0933211
0.00475099
0.069714
0.0013094
0.0439873
0.0158771
0.059337
0.211642
-0.0706516
0.0487314
0.196663
0.038877
0.180282
0.0298463
0.162486
0.0217264
0.143149
0.01463
0.122129
0.008702
0.099249
0.00412601
0.0742899
0.00113075
0.0469825
0.0170078
0.0506155
0.221514
-0.0604872
0.0414224
0.205856
0.0329343
0.18877
0.0252008
0.170219
0.0182852
0.150065
0.0122724
0.128142
0.00727467
0.104247
0.00343619
0.0781284
0.000937123
0.0494816
0.0179449
0.040469
0.229562
-0.0485173
0.0330203
0.213305
0.0261809
0.195609
0.0199796
0.176421
0.0144582
0.155586
0.00967749
0.132923
0.00572015
0.108204
0.00269348
0.0811551
0.000731714
0.0514434
0.0186766
0.0290614
0.235443
-0.0349425
0.0236558
0.218711
0.0187172
0.200548
0.0142563
0.180881
0.0102965
0.159546
0.00687732
0.136342
0.00405526
0.111026
0.001904
0.0833063
0.000515176
0.0528322
0.0191918
0.0169208
0.23893
-0.0204073
0.0137437
0.221888
0.0108556
0.203436
0.00825485
0.183482
0.00595111
0.16185
0.00396598
0.138327
0.00233172
0.11266
0.00109037
0.0845477
0.000293138
0.0536294
0.019485
0.00482795
-0.00589138
0.00387996
0.00303321
0.00228244
0.00162721
0.00107119
0.000621027
0.000285495
7.48627e-05
0.0432501
0.0408849
-0.0520632
-0.0320718
0.0349552
0.0378628
-0.0295679
0.0273617
0.0344998
-0.0269063
0.020685
0.0309284
-0.0242518
0.0149239
0.0273984
-0.0216373
0.00984524
0.0238681
-0.0187895
0.00534598
0.0197642
-0.0152649
0.00192001
0.0142162
-0.0107903
0.000372206
0.00724272
-0.00569491
0.00203625
-0.00166404
0.0437488
0.0500418
-0.0529057
0.0351126
0.0464989
0.027092
0.0425204
0.019963
0.0380574
0.0140302
0.0333313
0.00929498
0.0286033
0.00551501
0.0235442
0.00255835
0.0171729
0.000611142
0.00918994
0.00264739
0.0452665
0.0596387
-0.0548634
0.0363009
0.0554645
0.028021
0.0508003
0.0205469
0.0455315
0.0141986
0.0396796
0.00923419
0.0335677
0.00559894
0.0271794
0.0029275
0.0198443
0.000814164
0.0113033
0.00346156
0.0478675
0.0698914
-0.0581202
0.0383625
0.0649695
0.0297199
0.059443
0.0219819
0.0532696
0.0152773
0.0463842
0.00986398
0.0389809
0.00586596
0.0311775
0.00301534
0.022695
0.000891351
0.0134273
0.00435291
0.0513459
0.0808902
-0.0623447
0.0411677
0.0751477
0.0319725
0.0686381
0.0238256
0.0614164
0.0167558
0.0534541
0.0108929
0.0448438
0.00637468
0.0356957
0.00311228
0.0259574
0.000897218
0.0156423
0.00525013
0.0549651
0.0925563
-0.0666312
0.0441747
0.0859381
0.0344227
0.07839
0.0257863
0.0700529
0.0182909
0.0609494
0.0119961
0.0511387
0.00699868
0.0406931
0.00331567
0.0296404
0.000920844
0.0180372
0.00617097
0.0579162
0.104699
-0.070059
0.0466969
0.0971575
0.0365365
0.0885503
0.0274971
0.0790924
0.0196163
0.0688302
0.0129461
0.0578089
0.00756671
0.0460725
0.003549
0.0336581
0.00096717
0.020619
0.00713814
0.0598803
0.117078
-0.0722589
0.0484538
0.108584
0.0380667
0.0989374
0.0287655
0.0883935
0.0206025
0.0769932
0.0136469
0.0647645
0.0079896
0.0517297
0.00373538
0.0379123
0.00100935
0.023345
0.00814749
0.0616231
0.129574
-0.0741193
0.0500865
0.120121
0.0395034
0.10952
0.0299462
0.0979508
0.0215009
0.0854385
0.0142643
0.0720012
0.00835018
0.0576438
0.00389167
0.0423708
0.00104382
0.0261929
0.00919131
0.0664281
-0.0792361
0.0540793
0.0426683
0.0323484
0.023224
0.0153979
0.00899509
0.00416848
0.00110119
0.215248
0.0551831
-0.0724416
0.23407
0.0992507
-0.118072
0.253047
0.122268
-0.141246
0.261815
0.115503
-0.124271
0.261336
0.122117
-0.121639
0.244451
0.182175
-0.165289
0.213705
0.293484
-0.262738
0.172065
0.408054
-0.366414
0.117103
0.488634
-0.433672
0.456119
-0.39108
0.21417
0.0390029
0.232509
0.0809121
0.251039
0.103738
0.260538
0.106004
0.261035
0.121621
0.245112
0.198098
0.214775
0.323821
0.172762
0.450067
0.117541
0.543854
0.520755
0.213184
0.0238084
0.231376
0.0627205
0.249455
0.085659
0.25936
0.0960988
0.260237
0.120743
0.244803
0.213532
0.214758
0.353867
0.172518
0.492307
0.11808
0.598292
0.583972
0.212381
0.00941702
0.230659
0.0444423
0.248262
0.0680563
0.258262
0.0860988
0.258977
0.120028
0.24355
0.228959
0.21362
0.383798
0.171533
0.534394
0.119139
0.650685
0.644991
0.211858
-0.00445142
0.230357
0.0259435
0.247401
0.0510122
0.25717
0.0763303
0.2572
0.119997
0.241301
0.244858
0.211366
0.413733
0.170078
0.575681
0.120782
0.699982
0.703428
0.211673
-0.0181348
0.230454
0.00716286
0.246791
0.0346755
0.255953
0.0671679
0.254777
0.121173
0.237986
0.261649
0.208081
0.443638
0.168357
0.615406
0.122582
0.745756
0.759378
0.21184
-0.0319855
0.230915
-0.0119117
0.246337
0.0192533
0.254476
0.0590292
0.251596
0.124053
0.233609
0.279636
0.203934
0.473313
0.166374
0.652966
0.123736
0.788395
0.813055
0.212311
-0.0463069
0.23168
-0.0312809
0.245936
0.00499777
0.252536
0.0524287
0.24744
0.12915
0.228105
0.298971
0.198943
0.502475
0.163774
0.688135
0.123296
0.828873
0.864092
0.212909
-0.0612257
0.232658
-0.0510306
0.245491
-0.00783534
0.250123
0.0477969
0.24242
0.136853
0.221711
0.31968
0.193264
0.530922
0.160215
0.721183
0.120911
0.868177
0.910884
0.213595
-0.0768312
0.233547
-0.0709825
0.245004
-0.0192921
0.246838
0.0459625
0.235904
0.147787
0.213742
0.341843
0.18607
0.558594
0.154881
0.752372
0.117101
0.905957
0.948749
0.333485
-0.108306
0.371401
-0.108898
0.404288
-0.0521787
0.424595
0.0256547
0.44257
0.129813
0.469007
0.315405
0.506787
0.520813
0.549427
0.709732
0.581009
0.874375
0.943511
0.586248
0.335313
-0.141609
0.375459
-0.149044
0.409514
-0.0862333
0.428818
0.00635061
0.445472
0.113158
0.480024
0.280853
0.535454
0.465383
0.604582
0.640604
0.675057
0.803899
0.88589
0.732678
0.337009
-0.176608
0.37788
-0.189915
0.413516
-0.12187
0.43301
-0.0131439
0.445201
0.100968
0.482287
0.243768
0.550169
0.397502
0.640215
0.550558
0.74258
0.701533
0.782182
0.846289
0.339376
-0.213974
0.377648
-0.228186
0.401212
-0.145434
0.405858
-0.0177901
0.416996
0.0898296
0.46169
0.199074
0.539071
0.320121
0.643077
0.446552
0.768243
0.576368
0.645581
0.904843
0.344951
-0.256914
0.359764
-0.243
0.352947
-0.138617
0.352567
-0.0174103
0.371001
0.071396
0.420298
0.149777
0.501081
0.239338
0.610077
0.337556
0.744878
0.441567
0.495043
0.895416
0.341677
-0.296581
0.326931
-0.228254
0.299324
-0.111011
0.297516
-0.0156014
0.318051
0.0508609
0.365688
0.10214
0.442352
0.162675
0.547156
0.232751
0.67946
0.309263
0.347576
0.826926
0.314612
-0.309183
0.274694
-0.188336
0.241418
-0.0777336
0.23789
-0.0120736
0.257602
0.031149
0.299521
0.0602204
0.366311
0.0958851
0.459119
0.139943
0.579141
0.189241
0.21493
0.711788
0.273951
-0.281123
0.214501
-0.128886
0.179069
-0.0423017
0.174633
-0.00763807
0.190796
0.0149861
0.22337
0.0276466
0.275238
0.0440172
0.349086
0.0660948
0.447181
0.0911454
0.106084
0.556028
0.214638
-0.193751
0.141117
-0.0553651
0.111761
-0.0129454
0.107135
-0.00301205
0.118087
0.00403361
0.138797
0.00693756
0.171673
0.0111411
0.220131
0.0176363
0.286359
0.024918
0.0303996
0.362043
0.108259
0.052894
0.0399486
0.0369366
0.0409702
0.0479077
0.0590488
0.0766851
0.101603
0.132003
0.608468
-0.117271
0.632181
-0.116668
0.65504
-0.109597
0.676225
-0.100429
0.695194
-0.0896209
0.71135
-0.0766433
0.724257
-0.0614245
0.733594
-0.0442791
0.739085
-0.0258985
-0.00758734
0.750071
-0.134664
0.765033
-0.13163
0.779286
-0.12385
0.79255
-0.113693
0.804646
-0.101716
0.815805
-0.0878031
0.826379
-0.0719981
0.836383
-0.0542827
0.844843
-0.0343591
-0.0114789
0.850979
-0.139355
0.85348
-0.134131
0.855039
-0.125409
0.855447
-0.114101
0.854614
-0.100883
0.852715
-0.0859039
0.849978
-0.0692614
0.846804
-0.0511084
0.843993
-0.031548
-0.0105284
0.892881
-0.127393
0.878828
-0.120077
0.864097
-0.110679
0.849475
-0.0994786
0.835575
-0.086983
0.823103
-0.0734318
0.812687
-0.0588458
0.804788
-0.0432093
0.799766
-0.0265259
-0.00887089
0.870669
-0.102647
0.845802
-0.0952101
0.822111
-0.0869873
0.800593
-0.0779604
0.781716
-0.0681063
0.765751
-0.0574669
0.752913
-0.0460078
0.743419
-0.0337153
0.737536
-0.0206428
-0.00694595
0.797182
-0.0729025
0.769047
-0.0670744
0.743187
-0.0611278
0.720073
-0.0548457
0.69999
-0.0480237
0.683122
-0.0405986
0.669647
-0.0325334
0.659773
-0.0238414
0.65373
-0.0145997
-0.00495673
0.683044
-0.0441585
0.656527
-0.0405581
0.63241
-0.0370105
0.610878
-0.0333133
0.59214
-0.0292862
0.57639
-0.0248482
0.563823
-0.019967
0.554643
-0.0146613
0.549042
-0.00899871
-0.00308948
0.532504
-0.0206343
0.510893
-0.0189471
0.491256
-0.0173736
0.473685
-0.0157419
0.458333
-0.0139351
0.445383
-0.0118979
0.435026
-0.00961024
0.427451
-0.00708583
0.42282
-0.00436752
-0.00151988
0.346758
-0.00534958
0.332617
-0.00480624
0.319725
-0.00448176
0.308114
-0.0041305
0.297889
-0.00371079
0.2892
-0.00320835
0.282208
-0.00261789
0.277067
-0.00194567
0.273908
-0.00120812
-0.00042824
0.126653
0.121847
0.117365
0.113235
0.109524
0.106316
0.103698
0.101752
0.100544
0.000185019
0.0116064
-0.0117914
0.000623611
0.0304396
-0.0308782
0.00123692
0.046232
-0.0468453
0.00197696
0.0594558
-0.0601959
0.00277611
0.0700084
-0.0708075
0.00376887
0.0798747
-0.0808674
0.00396275
0.0772536
-0.0774474
0.00408407
0.0700296
-0.0701509
0.00394419
0.0610682
-0.0609283
0.0499463
0.00350649
-0.0495086
0.00053329
0.0110731
0.00180351
0.0291694
0.0035844
0.0444511
0.00574019
0.0573
0.00807136
0.0676772
0.0110377
0.0769083
0.0116738
0.0766174
0.0120786
0.0696249
0.0117713
0.0613754
0.0510685
0.0106491
0.000835332
0.0102378
0.00283128
0.0271735
0.00563805
0.0416444
0.0090399
0.0538982
0.0127371
0.06398
0.0172444
0.0724011
0.0187868
0.0750751
0.0195681
0.0688435
0.0193818
0.0615617
0.0524249
0.0180255
0.00105577
0.00918203
0.00359632
0.0246329
0.00719229
0.0380484
0.0115537
0.0495368
0.0163536
0.0591801
0.0217439
0.0670109
0.0250684
0.0717506
0.0263503
0.0675616
0.0265983
0.0613137
0.0535567
0.0254665
0.00115122
0.00803081
0.00397854
0.0218056
0.00804022
0.0339867
0.0129946
0.0445824
0.0185483
0.0536263
0.0245532
0.061006
0.0299473
0.0663564
0.0320849
0.0654241
0.0330057
0.0603929
0.0540817
0.0324807
0.00111124
0.00691957
0.00396515
0.0189517
0.00818394
0.0297679
0.0133876
0.0393787
0.0193142
0.0476997
0.025767
0.0545532
0.0324107
0.0597128
0.0363083
0.0615266
0.0381195
0.0585816
0.0536984
0.0385029
0.000926024
0.00599355
0.00357197
0.0163058
0.00770853
0.0256314
0.0128785
0.0342088
0.0187822
0.041796
0.0253325
0.0480028
0.0323153
0.05273
0.038272
0.0555699
0.0415862
0.0552675
0.0521749
0.0431097
0.000567871
0.00542568
0.00278559
0.0140881
0.00665438
0.0217626
0.0116162
0.029247
0.0171979
0.0362143
0.0234404
0.0417604
0.0302796
0.0458907
0.0371803
0.0486692
0.0425632
0.0498847
0.0489122
0.0458259
0.000104234
0.00532145
0.0017677
0.0124246
0.00517172
0.0183586
0.00980684
0.0246119
0.0149465
0.0310746
0.0206116
0.0360953
0.026897
0.0396053
0.0335845
0.0419816
0.040088
0.0433812
0.0437767
0.0452235
-0.000175652
0.0054971
0.00108478
0.0111642
0.00385057
0.0155928
0.00787645
0.020586
0.0124872
0.0264638
0.0175607
0.0310219
0.0231741
0.0339919
0.0292542
0.0359016
0.0356477
0.0369877
0.0373424
0.042082
-2.25691e-05
0.00551967
0.00113547
0.0100061
0.00327013
0.0134581
0.00640213
0.017454
0.0102835
0.0225824
0.0148329
0.0264725
0.0199641
0.0288606
0.025508
0.0303577
0.0312579
0.0312378
0.0316546
0.0369457
0.000378271
0.0051414
0.00153178
0.00885261
0.00318066
0.0118092
0.00549533
0.0151393
0.00873402
0.0193438
0.012944
0.0222625
0.0178182
0.0239864
0.0231069
0.0250689
0.0286216
0.0257231
0.0259926
0.0342836
0.0006321
0.0045093
0.00172157
0.00776313
0.0030508
0.01048
0.00489389
0.0132962
0.00793033
0.0163073
0.0120603
0.0181325
0.0168462
0.0192005
0.0220528
0.0198623
0.0275501
0.0202258
0.0203053
0.0332374
0.00069414
0.00381516
0.00167763
0.00677964
0.00288475
0.0092729
0.00481937
0.0113616
0.00814536
0.0129813
0.0124183
0.0138596
0.0172739
0.0143449
0.0225526
0.0145836
0.0281588
0.0146197
0.0144565
0.0340076
0.000683501
0.00313165
0.00160194
0.00586119
0.00309657
0.00777826
0.00573843
0.00871973
0.00956209
0.00915766
0.0141128
0.00930888
0.0191847
0.009273
0.0246782
0.00909007
0.0305253
0.00877258
0.00832651
0.0366552
0.000598163
0.00253348
0.00176073
0.00469862
0.00415622
0.00538277
0.00763688
0.00523907
0.0118979
0.00489663
0.0167509
0.00445586
0.0220982
0.00392568
0.0278813
0.00330697
0.0340478
0.00260609
0.00183611
0.0405382
0.000524178
0.0020093
0.00250649
0.00271629
0.00577368
0.00211558
0.00975886
0.00125389
0.0143316
0.000323923
0.0194509
-0.000663445
0.0250893
-0.00171277
0.031202
-0.00280574
0.0377251
-0.00391701
-0.00503701
0.0445982
0.000872457
0.00113684
0.00359043
-1.68984e-06
0.00711249
-0.0014065
0.0112565
-0.00289017
0.0160163
-0.00443586
0.0214045
-0.00605159
0.0273718
-0.00768014
0.0338204
-0.00925427
0.0406672
-0.0107639
-0.0122446
0.0478748
0.00147861
-0.000341779
0.00405378
-0.00257687
0.0074173
-0.00477002
0.0115873
-0.00706019
0.0165754
-0.00942395
0.0222851
-0.0117613
0.028536
-0.013931
0.0352108
-0.0159291
0.0422935
-0.0178465
-0.0197371
0.0497859
0.00102142
0.00305535
0.00633609
0.0107909
0.0161543
0.0220884
0.0284439
0.0352716
0.0426418
0.0505251
0.0520475
0.0828484
-0.0979502
0.0783041
-0.00900641
-0.0172502
0.10059
-0.0513129
0.0290265
0.113891
-0.0459496
0.0326486
0.121686
-0.0259339
0.0181392
0.126001
-0.0101373
0.00582216
0.129047
-0.00355887
0.00051316
0.13189
-0.00228
-0.000562455
0.134799
-0.00254436
-0.000365268
-0.00314837
0.000273314
0.0593528
0.0577791
0.092546
-0.0421997
0.119484
-0.078251
0.135123
-0.0615881
0.143679
-0.0344898
0.148166
-0.0146247
0.151267
-0.00665931
0.154137
-0.00515032
0.157035
-0.00544259
-0.00579858
0.0672965
0.02372
0.105659
-0.0805622
0.136503
-0.109095
0.155895
-0.0809801
0.165718
-0.0443126
0.170361
-0.0192681
0.173361
-0.0096592
0.176039
-0.0078288
0.17867
-0.00807303
-0.00800701
0.0759656
-0.018238
0.118108
-0.122704
0.151849
-0.142836
0.175168
-0.104299
0.187095
-0.0562394
0.192096
-0.0242697
0.194966
-0.0125285
0.197324
-0.0101867
0.199511
-0.0102605
-0.00961708
0.0846899
-0.0662728
0.129461
-0.167476
0.1653
-0.178675
0.192007
-0.131006
0.206962
-0.0711947
0.212845
-0.0301524
0.215682
-0.0153653
0.217669
-0.0121743
0.219313
-0.0119044
-0.010536
0.0927638
-0.118498
0.139447
-0.214159
0.176828
-0.216056
0.205997
-0.160175
0.224315
-0.089513
0.231932
-0.0377695
0.235045
-0.0184782
0.236733
-0.0138626
0.237829
-0.0129995
-0.0107452
0.0996183
-0.173518
0.147879
-0.262419
0.18644
-0.254617
0.217134
-0.190869
0.238321
-0.1107
0.248477
-0.0479248
0.25238
-0.0223817
0.253955
-0.0154371
0.254577
-0.0136218
-0.0102884
0.105001
-0.230645
0.154738
-0.312155
0.194211
-0.29409
0.225715
-0.222373
0.248644
-0.133629
0.261478
-0.0607589
0.267011
-0.0279149
0.268966
-0.0173922
0.269306
-0.0139619
-0.00929419
0.108959
-0.289818
0.16014
-0.363336
0.200308
-0.334258
0.232161
-0.254226
0.255623
-0.157091
0.269905
-0.0750413
0.276926
-0.0349352
0.279778
-0.0202449
0.280284
-0.0144675
-0.00794672
0.111802
0.164269
0.204953
0.236868
0.260167
0.274123
0.28059
0.283048
0.283226
0.0132021
0.0060755
-0.0192776
0.0110202
0.00218196
0.011573
-0.000552811
0.0129777
-0.0014047
0.0136752
-0.000697555
0.0138717
-0.000196434
0.0138445
2.71868e-05
0.0137793
6.51449e-05
0.013713
6.63895e-05
-9.8167e-07
0.0372519
0.0232068
-0.0543832
0.0316121
0.00782183
0.0342232
-0.00316402
0.0381998
-0.0053813
0.0402997
-0.00279745
0.0409042
-0.000800853
0.0408747
5.66879e-05
0.0407284
0.000211431
0.0406089
0.000185932
-1.22995e-05
0.0579981
0.0480523
-0.0828436
0.051121
0.0146989
0.056269
-0.00831198
0.0626967
-0.011809
0.0662257
-0.00632651
0.0672967
-0.00187176
0.067323
3.03482e-05
0.0671456
0.00038881
0.0670216
0.00030994
-4.63059e-05
0.0739651
0.0753013
-0.101214
0.0684366
0.0202274
0.0769811
-0.0168565
0.0860839
-0.0209118
0.0911824
-0.0114251
0.0928311
-0.00352042
0.0929958
-0.000134308
0.092856
0.000528565
0.0927803
0.000385644
-0.000126214
0.0815851
-0.104234
0.0845622
0.0967322
0.108469
0.115183
0.117485
0.117864
0.11783
0.117851
0.00273308
-0.000172886
-0.0025602
0.00326383
-0.000530747
0.00417584
-0.000912013
0.00548658
-0.00131074
0.00718257
-0.00169599
0.00922666
-0.00204409
0.0115829
-0.00235621
0.0141712
-0.00258837
0.016857
-0.00268579
-0.00242061
0.0077858
-0.000645555
-0.00731313
0.00923237
-0.00197732
0.0117112
-0.00339082
0.0152668
-0.00486633
0.01988
-0.00630923
0.0254769
-0.00764093
0.0319582
-0.00883758
0.0391496
-0.00977975
0.0467623
-0.0102985
-0.0100415
0.0124755
-0.00138346
-0.0117376
0.0147247
-0.00422654
0.0185568
-0.00722289
0.0240196
-0.0103291
0.0310728
-0.0133624
0.0395781
-0.0161462
0.0493189
-0.0185783
0.0600424
-0.0205033
0.0714089
-0.021665
-0.0214763
0.0168041
-0.00234721
-0.0158403
0.0197277
-0.00715018
0.02467
-0.0121651
0.0316451
-0.0173043
0.0405421
-0.0222594
0.0510966
-0.0267008
0.062927
-0.0304087
0.0756858
-0.0332621
0.0888576
-0.0348368
-0.0338329
0.0207889
-0.0196296
0.0242878
0.0301482
0.0383104
0.0485317
0.0603337
0.0730347
0.0855985
0.0959851
0.0315376
-0.0312612
0.0370824
-0.0373588
0.0256628
-0.0308552
0.0367301
0.0199906
-0.0300205
0.0356927
0.0147293
-0.0286245
0.0338857
0.0100924
-0.0264207
0.0310576
0.00622194
-0.0227486
0.0266191
0.0031265
-0.0176415
0.0207369
0.00102734
-0.0136173
0.0157164
-7.99187e-05
-0.0101511
0.0112583
-0.00562354
0.00554363
0.0296302
-0.0253767
-0.0355147
0.0238945
-0.0251195
0.0183856
-0.0245115
0.0132785
-0.0235174
0.00882173
-0.0219639
0.00539833
-0.0193252
0.00305051
-0.0152936
0.00141789
-0.0119847
0.000310641
-0.00904383
-0.0053129
0.0296653
-0.019366
-0.035676
0.0238399
-0.0192941
0.0183012
-0.0189728
0.0131641
-0.0183803
0.00862838
-0.0174282
0.00514167
-0.0158385
0.00306676
-0.0132187
0.00168568
-0.0106036
0.000604448
-0.0079626
-0.00470845
0.0315596
-0.0130882
-0.0378373
0.0255177
-0.0132522
0.0197937
-0.0132488
0.0144741
-0.0130606
0.00969787
-0.012652
0.00578631
-0.0119269
0.00329298
-0.0107254
0.00181975
-0.00913033
0.000756503
-0.00689934
-0.00395194
0.0349926
-0.00644212
-0.0416386
0.0286296
-0.00688918
0.0226207
-0.00723984
0.0170335
-0.00747342
0.0119603
-0.00757878
0.00758102
-0.00754762
0.00422515
-0.00736951
0.00204524
-0.0069504
0.000814934
-0.00566903
-0.003137
0.039022
0.000616125
-0.0460802
0.0322887
-0.000155887
0.0259512
-0.000902263
0.0200826
-0.00160483
0.014744
-0.00224025
0.00999741
-0.00280098
0.00592263
-0.00329471
0.00268341
-0.00371117
0.000721895
-0.00370751
-0.0024151
0.0425216
0.00803945
-0.0499449
0.0354373
0.00692846
0.0287447
0.00579035
0.0225388
0.00460104
0.0169165
0.00338208
0.0119179
0.00219767
0.00753193
0.00109124
0.00377257
4.81904e-05
0.00095636
-0.000891284
-0.00145873
0.0445292
0.0157206
-0.0522104
0.03722
0.0142377
0.0302834
0.012727
0.0237573
0.0111271
0.017779
0.00936041
0.0125239
0.00745276
0.00806842
0.00554675
0.00439985
0.00371677
0.00156424
0.00194433
0.000105519
0.0446183
0.0236869
-0.0525846
0.0371256
0.0217304
0.0301121
0.0197405
0.0235
0.0177392
0.0172668
0.0155936
0.0116028
0.0131168
0.00686529
0.0102842
0.00332219
0.00725987
0.00110952
0.00415701
0.00121505
0.0437301
-0.0521151