/*--------------------------------*- C++ -*----------------------------------*\
  =========                 |
  \\      /  F ield         | OpenFOAM: The Open Source CFD Toolbox
   \\    /   O peration     | Website:  https://openfoam.org
    \\  /    A nd           | Version:  13
     \\/     M anipulation  |
\*---------------------------------------------------------------------------*/
FoamFile
{
    format      ascii;
    class       volScalarField;
    location    "14";
    object      p;
}
// * * * * * * * * * * * * * * * * * * * * * * * * * * * * * * * * * * * * * //

dimensions      [0 2 -2 0 0 0 0];

internalField   nonuniform List<scalar> 
440
(
-1.10859
-1.08491
-1.07338
-1.05837
-1.11705
-1.17587
-1.15049
-1.12378
-1.0973
-1.07261
-1.309
-1.26732
-1.21383
-1.14502
-1.07338
-1.4484
-1.39251
-1.27702
-1.14298
-1.0081
-1.53159
-1.45084
-1.27126
-1.08676
-0.920894
-1.06347
-1.13572
-1.31353
-1.56442
-1.90104
-1.21575
-1.22417
-1.25197
-1.29403
-1.35282
-1.17208
-1.15196
-1.13251
-1.12661
-1.14262
-1.14573
-1.12711
-1.11453
-1.11904
-1.16075
-1.0965
-1.07297
-1.04928
-1.02513
-1.0322
-0.728849
0.0835312
-0.218375
0.0604923
-0.123528
-0.930879
0.00810907
0.082069
0.105961
-0.121793
-1.0863
-0.0579248
0.472649
0.147594
-0.125517
-1.30954
-0.138994
0.805694
0.178677
-0.122172
-1.241
-0.292415
0.714069
0.234256
-0.0955998
-0.901126
-0.306274
0.231997
0.279211
-0.0418064
-0.468869
0.0317875
0.0938972
0.230489
0.0332695
-0.306727
0.182811
0.488232
0.214561
0.045912
-0.150163
0.131462
0.418092
0.234109
0.0203857
-0.0734641
0.102583
0.518098
0.348287
0.0528946
-0.640537
-0.758727
-0.920431
-1.06894
-1.2421
-0.366785
-0.487204
-0.578184
-0.630479
-0.666189
-0.181091
-0.287649
-0.345517
-0.380643
-0.398678
-0.0683679
-0.160043
-0.213156
-0.23727
-0.238335
-0.0143812
-0.103786
-0.154106
-0.171623
-0.157065
0.797205
0.633184
0.422998
0.189451
-0.0637715
0.340724
0.16718
-0.0426022
-0.281311
-0.555224
-0.0935489
-0.272659
-0.496987
-0.745338
-1.00789
-0.479007
-0.661391
-0.890939
-1.13576
-1.34252
-0.740388
-0.930078
-1.14677
-1.37286
-1.51138
1.97649
2.00345
2.02547
2.03219
2.02146
1.76187
1.77821
1.78736
1.77809
1.74654
1.52901
1.51032
1.46664
1.39852
1.30172
1.25894
1.21985
1.14237
1.03183
0.889533
1.02743
0.910974
0.761815
0.592268
0.38521
1.77205
1.76393
1.73921
1.81232
1.87694
1.76038
1.75098
1.71535
1.78591
1.77253
1.74977
1.73535
1.68924
1.74674
1.64241
1.74036
1.71787
1.66154
1.6926
1.45447
1.73223
1.69893
1.63274
1.64136
1.25769
1.72564
1.67191
1.5969
1.52852
1.03774
1.7192
1.63841
1.58064
1.40538
1.17321
1.72606
1.61811
1.55904
1.36444
1.20617
1.72041
1.5878
1.54721
1.30721
1.22654
1.75661
1.5851
1.54053
1.27526
1.24213
0.756289
0.431247
0.0758737
-0.243452
-0.447429
0.641088
0.414679
0.17661
-0.0345609
-0.218496
0.634248
0.451171
0.270471
0.106925
-0.0574546
0.70328
0.521799
0.349374
0.194354
0.0484137
0.734837
0.553085
0.387039
0.23873
0.100143
-0.755072
-0.648068
-0.50969
-0.39763
-0.330921
-0.813599
-0.759818
-0.656366
-0.573972
-0.525369
-0.745191
-0.701718
-0.644964
-0.598528
-0.57001
-0.614295
-0.580273
-0.545048
-0.520026
-0.503663
-0.520907
-0.501296
-0.481845
-0.472998
-0.498438
-0.47482
-0.466694
-0.451427
-0.452585
-0.433803
-0.473088
-0.470333
-0.467019
-0.469241
-0.468122
-0.454589
-0.472949
-0.516049
-0.574417
-0.622468
-0.362347
-0.368877
-0.390225
-0.417213
-0.413705
-0.235764
-0.343141
-0.574208
-0.835985
-0.971048
-0.606212
0.688401
0.20495
-0.029908
-0.0432103
-0.537603
0.761004
0.127609
-0.0302401
-0.0679282
-0.394871
0.870219
0.0319633
-0.0332183
-0.0889964
-0.197943
0.746477
-0.0647763
-0.0130066
-0.104326
-0.447831
0.345669
-0.227195
0.0239387
-0.11482
-0.111357
0.45686
0.207275
-0.0242701
0.0222582
-0.475292
0.521374
0.258825
-0.00399104
-0.0104333
-0.291902
-0.515615
-0.522149
-0.524291
-0.306524
-0.308699
-0.509037
-0.550088
-0.509846
-0.532929
1.77995
1.76635
1.73803
1.69637
1.64095
1.93408
1.95724
1.96797
1.96467
1.94783
2.05922
2.09364
2.12202
2.13968
2.14394
2.11989
2.15857
2.19914
2.2321
2.24769
2.08977
2.12449
2.16249
2.19338
2.20646
0.0415083
-0.0445419
-0.178716
-0.34358
-0.516927
0.537307
0.425841
0.276144
0.0974765
-0.114004
0.980765
0.864145
0.725077
0.562629
0.369921
1.33131
1.24292
1.13513
1.00549
0.853575
1.61016
1.55139
1.47443
1.38219
1.27539
1.84183
1.80301
1.79759
1.82593
1.86803
1.82541
1.79823
1.79299
1.83486
1.9089
1.81101
1.79205
1.78666
1.8454
1.96172
1.79731
1.78452
1.77522
1.84432
1.95898
1.78427
1.77542
1.75892
1.83354
1.93444
1.90013
1.81283
1.79267
1.76453
1.75725
1.85347
1.80203
1.78558
1.78043
1.77209
1.51423
1.34347
1.03299
0.573344
0.0673378
1.57903
1.36683
1.0453
0.590579
0.0744706
)
;

boundaryField
{
    left
    {
        type            zeroGradient;
    }
    right
    {
        type            fixedValue;
        value           uniform 0;
    }
    down
    {
        type            zeroGradient;
    }
    up
    {
        type            zeroGradient;
    }
    cylinder
    {
        type            zeroGradient;
    }
    defaultFaces
    {
        type            empty;
    }
}


// ************************************************************************* //
