/*--------------------------------*- C++ -*----------------------------------*\
  =========                 |
  \\      /  F ield         | OpenFOAM: The Open Source CFD Toolbox
   \\    /   O peration     | Website:  https://openfoam.org
    \\  /    A nd           | Version:  13
     \\/     M anipulation  |
\*---------------------------------------------------------------------------*/
FoamFile
{
    format      ascii;
    class       surfaceScalarField;
    location    "14";
    object      phi;
}
// * * * * * * * * * * * * * * * * * * * * * * * * * * * * * * * * * * * * * //

dimensions      [0 3 -1 0 0 0 0];

internalField   nonuniform List<scalar> 
823
(
0.000126857
0.0155348
-0.0156617
0.0268925
0.00041445
-0.0271801
0.100301
-0.0566199
-0.0167888
0.209835
-0.127867
0.0183332
-0.185569
0.0348403
0.360564
0.00857517
0.00695964
0.0692825
-0.0602929
0.177419
-0.164757
0.301216
-0.251664
-0.324783
0.44043
0.02871
-0.0217504
0.126151
-0.157734
0.240759
-0.279364
0.341745
-0.352651
-0.388789
0.405752
0.0516751
-0.0734255
0.149749
-0.255808
0.225658
-0.355273
0.265937
-0.39293
-0.402988
0.280136
0.0613789
-0.134804
0.127265
-0.321694
0.161149
-0.389157
0.174084
-0.405865
0.183024
-0.411928
0.00780208
0.100114
-0.107916
-0.00154544
0.159035
-0.149687
-0.00727873
0.163121
-0.157388
-0.00366413
0.143215
-0.14683
0.112883
0.0113019
-0.127849
0.042503
0.0576113
0.0856204
0.115917
0.11823
0.130511
0.143314
0.118132
0.0967408
0.159456
0.0279597
0.0296516
0.0704936
0.0733835
0.108932
0.0920731
0.137661
0.0894023
0.0815131
0.152889
0.0135209
0.0161307
0.0447576
0.0421468
0.0841833
0.0526474
0.128318
0.0452672
0.0392051
0.170626
0.000468979
0.0154356
0.0512942
0.114895
0.18894
0.12619
-0.6462
0.531312
0.280838
-1.50149
1.34684
0.433608
0.952356
-1.10512
0.403485
0.621493
-0.591369
-0.332353
0.322016
0.173993
-0.660737
0.233835
-1.56133
0.484583
0.701608
0.449362
0.656713
-0.355921
0.0397724
-0.547621
0.163102
-1.68466
0.469512
0.395198
0.474958
0.651267
-0.420558
0.347139
-0.724133
0.374406
-1.71193
0.476632
0.292973
0.54139
0.586509
-0.505536
0.566379
-1.10157
0.567221
-1.71277
0.473358
0.386835
0.616318
0.443549
-0.598088
1.38753
-1.19499
-1.29411
1.05416
-1.3794
0.842853
0.598142
1.14373
0.142668
-0.629519
1.11878
-0.860122
-1.45365
0.455029
-0.715649
0.647023
0.406149
1.12266
-0.332968
-0.601052
1.14916
-0.630209
-1.37907
0.7023
-0.268787
0.937685
0.170764
1.12982
-0.525101
-0.450193
0.966807
-0.316463
-1.28055
0.794849
-0.0968292
0.99702
-0.0314064
0.79013
-0.318212
-0.174097
0.503612
-0.820074
0.406782
0.375376
0.0571644
1.13668
0.150847
-1.1045
1.22385
0.192966
1.31524
0.314353
1.38501
0.370662
0.451466
1.02754
0.0890779
-0.965768
1.10569
0.11481
1.20924
0.210809
1.3229
0.256998
0.320718
0.986898
0.0372172
-0.935037
1.03615
0.0655585
1.13062
0.116341
1.24135
0.146261
0.182998
0.932162
0.00518979
-0.900135
0.978783
0.0189373
1.05793
0.0371914
1.15798
0.0462144
0.0604238
0.657307
-0.652118
0.676245
0.713436
0.759651
0.145952
0.310691
-0.252552
-0.204092
0.0975482
0.315017
-0.266613
0.055285
0.325583
-0.283319
0.019548
0.317311
-0.281574
0.205431
-0.185883
0.102677
0.345864
-0.13785
0.0665757
0.351119
0.0341122
0.358046
0.00844193
0.342981
0.213873
0.0733035
0.383876
-0.111315
0.0400201
0.384402
0.0115886
0.386478
-0.00487819
0.359448
0.208995
-0.0054563
0.398592
-0.00925955
-0.0231295
0.402076
-0.0324826
0.395831
-0.025979
0.352945
0.183016
-0.0823459
0.06901
-0.0861355
-0.0794621
-0.0482115
0.196973
0.112775
-0.250607
-0.0591419
0.142889
0.117327
-0.0632429
0.088206
0.122169
-0.067486
0.0356579
0.121774
-0.0692264
0.0862644
-0.0506064
0.195978
0.155752
-0.238955
0.149688
0.163617
0.0974447
0.174412
0.0414975
0.177722
0.127762
0.136786
0.201467
-0.182501
0.0955162
0.204887
0.0567063
0.213222
0.0204354
0.213993
0.148197
0.157976
0.233253
-0.189762
0.118214
0.244649
0.0728953
0.258541
0.0286152
0.258273
0.176812
0.0791151
-0.0984144
0.0571505
0.0323723
0.00907081
0.408228
0.0565849
-0.0688336
0.421902
0.0588498
-0.0725238
0.408173
0.200182
-0.186453
0.39736
0.224352
-0.213539
0.516705
-0.369951
0.405882
0.0466829
0.414734
0.0499972
0.398718
0.216199
0.385498
0.237572
0.663248
0.398907
0.0437556
0.408093
0.0408113
0.377747
0.246544
0.376974
0.238345
0.857721
0.39433
0.0454054
0.392305
0.0428358
0.371527
0.267322
0.354887
0.254985
1.02285
0.384754
0.056631
0.381999
0.0455904
0.342042
0.30728
0.325855
0.271172
1.25029
0.616726
0.0439249
0.640634
0.0216827
0.703672
0.244242
0.800864
0.17398
1.01844
1.03271
0.623618
0.0243269
0.644158
0.00114315
0.757346
0.131055
0.776088
0.155238
0.794876
0.999649
0.631324
-0.00297719
0.67378
-0.0413125
0.754887
0.0499481
0.759517
0.150607
0.538582
1.01581
0.64391
-0.0428665
0.662926
-0.0603289
0.696999
0.0158751
0.772042
0.075564
0.248849
1.06178
0.561154
0.500825
0.5167
0.592264
0.841113
1.06221
-0.233586
1.04522
-0.120859
1.05526
-0.121359
1.04867
-0.0026715
0.0131837
0.945651
-0.179587
0.937345
-0.112553
0.922173
-0.106187
0.942113
-0.0226111
-0.0104713
0.957705
-0.121481
0.943871
-0.0987182
0.91662
-0.0789366
0.931436
-0.0374268
-0.0140725
0.996239
-0.0559451
0.948687
-0.0511661
0.910911
-0.0411609
0.900652
-0.0271675
-0.0135557
0.785168
0.734002
0.692841
0.665673
0.0470045
0.137571
-0.184576
0.0717444
0.307522
-0.332262
0.0726965
0.362572
-0.363524
0.0628553
0.366561
-0.35672
0.33584
0.0501397
-0.323124
0.0675573
0.0700137
0.138879
0.2362
0.173689
0.327762
0.178272
0.361978
0.355592
0.15852
0.0559367
0.014077
0.166614
0.125523
0.260501
0.233875
0.325856
0.296624
0.349206
0.332242
0.0261682
-0.0120911
0.120651
0.0310398
0.240443
0.114083
0.359448
0.177619
0.249488
0.459166
0.0053157
-0.0174068
0.0519239
-0.0155684
0.148938
0.0170683
0.270181
0.0563757
0.104497
0.415172
-0.00217727
-0.0152296
0.0104358
-0.0281814
0.0541105
-0.0266064
0.125535
-0.0150493
0.0177352
0.212297
0.00202446
-0.017254
0.00837305
-0.03453
0.0233001
-0.0415334
0.0489756
-0.0407249
-0.0283378
0.0950486
0.00405437
-0.0213084
0.00910907
-0.0395847
0.0103672
-0.0427916
0.00870432
-0.039062
-0.0356855
0.0160521
-0.0354512
0.0141428
-0.0945754
0.0195395
-0.168895
0.0315279
-0.248735
0.0407781
0.0375472
-0.321968
-0.0937735
-0.223921
-0.349781
-0.455833
-0.546135
0.320118
0.891112
-0.998932
0.409553
0.0849418
-0.174377
0.232471
0.573052
-0.395969
0.114041
0.135883
-0.0174542
-0.364481
0.346793
0.351883
0.634278
0.483721
-0.0468964
0.315975
0.740798
0.187
0.264858
-0.365192
0.276117
0.374213
0.510875
-0.281655
0.364241
0.887431
0.243792
0.385307
-0.353163
0.0543587
-0.00211311
0.579756
-0.807052
0.424663
1.04252
0.315346
0.494623
-0.333843
-0.0169359
0.522851
0.460251
0.363505
-0.0426501
0.635816
-0.593166
-0.0715551
0.028905
-0.108181
0.0366259
-0.00507108
-0.10311
-0.199216
0.677748
-1.04086
0.532276
0.172933
0.0523687
0.081669
-0.0134291
-0.0682398
0.133633
-0.0519637
0.240933
-0.107301
0.391405
-0.150472
-0.20176
0.187261
-0.15055
0.293817
0.518758
0.827453
0.136449
-0.129935
0.159827
-0.166341
0.103592
-0.134825
0.167682
0.0664209
-0.14133
0.178501
0.0268068
-0.140419
0.180033
-0.0973349
0.124142
0.175878
-0.0914813
-0.214332
0.132972
-0.0919194
0.0845659
-0.0929239
0.0347974
-0.0906501
-0.0625375
0.18544
-0.0428051
-0.234116
0.135232
-0.0417117
0.0837642
-0.0414561
0.0338907
-0.0407765
-0.0286468
0.199328
0.0084157
-0.250549
0.147439
0.0101773
0.093988
0.0119954
0.0395373
0.0136742
0.0108904
0.203824
-0.254551
0.150759
0.0952682
0.039716
0.0366692
-0.303697
-0.0560961
0.0131997
-0.33325
-0.00776947
-0.342555
-0.015679
-0.324352
-0.200254
0.115682
-0.274545
-0.144834
0.075039
-0.292608
0.0357094
-0.303225
0.00661436
-0.295257
-0.19364
0.133603
-0.236848
-0.1713
0.0937427
-0.252747
0.0544214
-0.263904
0.0189735
-0.259809
-0.174667
0.151602
-0.203555
-0.184895
0.110832
-0.211977
0.0671789
-0.220251
0.0261169
-0.218748
-0.14855
0.149167
-0.192896
0.104872
0.0631228
0.024408
0.389748
0.104414
-0.0981826
0.387111
0.108505
-0.105867
0.352867
0.163345
-0.129102
0.293721
0.0804082
-0.0212619
-0.175742
0.303122
0.397909
0.102485
0.402298
0.104116
0.392242
0.173401
0.342955
0.129695
-0.0471187
0.403333
0.0951317
0.41255
0.0948987
0.407781
0.17817
0.369862
0.167614
0.0886269
0.408114
0.0829975
0.418807
0.0842054
0.416182
0.180794
0.389778
0.194019
0.227855
0.410144
0.421825
0.416167
0.396647
0.413618
0.0964331
0.325182
0.0884363
0.2349
0.0902817
0.230222
0.0046779
-0.166714
0.396936
0.508302
0.49087
0.45205
0.435466
0.571875
0.318439
0.0784974
0.247862
0.0705769
0.164728
0.0831342
0.095458
0.0692697
0.0272182
0.457476
0.343158
0.254992
0.179428
)
;

boundaryField
{
    left
    {
        type            calculated;
        value           nonuniform List<scalar> 
17
(
-0.60402
-0.60402
-0.60402
-0.60402
-0.60402
-0.39598
-0.39598
-0.39598
-0.39598
-0.39598
-0.39598
-0.39598
-0.39598
-0.39598
-0.39598
-0.510051
-0.510051
)
;
    }
    right
    {
        type            calculated;
        value           nonuniform List<scalar> 
17
(
0.194145
0.199945
0.13173
0.187711
0.231763
0.296027
0.351677
0.413822
0.47293
0.539595
0.626369
0.708869
1.17516
1.09419
0.978959
0.514035
-0.116933
)
;
    }
    down
    {
        type            calculated;
        value           uniform 0;
    }
    up
    {
        type            calculated;
        value           uniform 0;
    }
    cylinder
    {
        type            calculated;
        value           uniform 0;
    }
    defaultFaces
    {
        type            empty;
    }
}


// ************************************************************************* //
