/*--------------------------------*- C++ -*----------------------------------*\
  =========                 |
  \\      /  F ield         | OpenFOAM: The Open Source CFD Toolbox
   \\    /   O peration     | Website:  https://openfoam.org
    \\  /    A nd           | Version:  13
     \\/     M anipulation  |
\*---------------------------------------------------------------------------*/
FoamFile
{
    format      ascii;
    class       volVectorField;
    location    "14";
    object      U;
}
// * * * * * * * * * * * * * * * * * * * * * * * * * * * * * * * * * * * * * //

dimensions      [0 1 -1 0 0 0 0];

internalField   nonuniform List<vector> 
440
(
(-0.0857038 0.0623327 -8.40581e-20)
(-0.0886229 0.0895404 7.36304e-20)
(0.126023 0.0651314 7.85187e-20)
(0.592206 0.0432884 1.79287e-19)
(0.814361 0.0418712 1.13449e-20)
(-0.0816607 0.0447418 4.04075e-20)
(0.139204 -0.0121022 -1.56129e-19)
(0.736991 -0.0759432 -1.26994e-19)
(1.33842 -0.122756 5.41369e-20)
(1.92449 -0.155785 -3.35366e-21)
(0.0109429 -0.00944859 5.25244e-20)
(0.681042 -0.0768124 9.31664e-19)
(1.52612 -0.0870814 -6.19206e-19)
(2.12999 -0.0704105 -1.87494e-18)
(2.5513 -0.0772937 8.16801e-19)
(0.266656 -0.0587123 -1.84669e-19)
(1.39902 -0.0142995 -6.84931e-19)
(2.16277 0.0351885 2.20641e-18)
(2.51905 0.0538694 2.44691e-18)
(2.54973 0.0586652 -6.70813e-19)
(0.67011 -0.00140033 -3.39382e-19)
(1.90239 0.173143 -7.43773e-19)
(2.41011 0.230254 2.29156e-18)
(2.52996 0.232283 2.39232e-18)
(2.62325 0.204708 7.99713e-19)
(-0.0238318 0.802832 6.36059e-19)
(-0.076498 1.12629 1.07236e-18)
(-0.108787 1.12086 -2.74984e-18)
(-0.0919445 1.00984 5.94728e-19)
(-0.0854177 0.848579 4.17363e-18)
(-0.0643069 0.524572 -4.69699e-20)
(-0.0243468 0.961845 -2.42734e-19)
(0.0291991 1.04165 -5.28486e-20)
(0.124658 0.941002 -7.69518e-20)
(0.141888 0.753446 1.87745e-19)
(-0.0706126 0.23257 8.27898e-20)
(-0.0782941 0.587359 -2.81596e-19)
(-0.0376552 0.726507 7.75092e-20)
(0.0552584 0.7111 -8.37416e-20)
(0.0873853 0.621069 4.3594e-21)
(-0.0574346 0.108064 -4.09633e-20)
(-0.104008 0.324906 6.3478e-20)
(-0.0799002 0.462546 3.56287e-20)
(0.00355091 0.516877 3.34023e-19)
(0.0551816 0.532734 -1.17016e-19)
(-0.0654121 0.0674917 -6.46415e-20)
(-0.134747 0.174042 -8.37535e-20)
(-0.107065 0.242464 -1.51603e-19)
(0.047707 0.255759 6.28534e-20)
(0.188309 0.295562 -1.42145e-19)
(0.743102 -0.493357 -7.94705e-19)
(-0.045138 -1.02985 1.26954e-18)
(1.29666 0.766623 -4.50642e-19)
(0.863445 0.423293 3.64174e-19)
(1.04606 -0.224683 -1.05433e-21)
(1.4467 -0.410504 1.51862e-18)
(-0.273523 -1.03343 -1.3935e-19)
(1.40094 0.558964 -7.90311e-20)
(0.944993 0.439888 -4.04608e-19)
(1.19541 -0.242007 -1.18427e-20)
(1.05838 -0.468371 7.66354e-19)
(-0.31111 -1.08694 8.88019e-19)
(1.2801 0.396044 3.00316e-20)
(0.931961 0.439137 -2.94479e-19)
(1.36386 -0.278028 8.88393e-21)
(1.4166 -0.352075 -2.31122e-19)
(1.25159 -1.13177 -4.62915e-19)
(1.10356 0.163155 4.2889e-19)
(1.10595 0.397706 2.53844e-19)
(1.58301 -0.320646 -9.52054e-20)
(1.75689 -0.608234 -2.56383e-19)
(2.80632 -1.12766 -1.03128e-18)
(0.927184 0.206313 0)
(1.35483 0.353861 -1.7463e-19)
(1.79124 -0.349325 -7.77543e-20)
(2.06839 -0.725879 -6.5449e-19)
(2.57771 -1.00636 1.75805e-19)
(0.960013 0.216488 -2.05817e-20)
(1.76909 0.170931 -4.00074e-20)
(1.9464 -0.401459 2.78056e-19)
(2.61443 -0.712719 5.38426e-20)
(1.17291 -0.633713 8.83087e-19)
(0.282264 0.494889 -4.80816e-21)
(1.87278 -0.0058549 -1.14998e-19)
(1.81178 -0.371028 0)
(2.3562 -0.407388 -5.45562e-19)
(1.52642 -0.247116 1.85177e-20)
(0.858067 0.0777591 4.28992e-19)
(2.15551 -0.395568 -3.15842e-21)
(1.6209 -0.381505 -1.69947e-20)
(2.029 -0.357321 4.39039e-20)
(1.20695 -0.112017 3.48714e-20)
(1.49426 0.101681 -7.26601e-21)
(1.72873 -0.276633 6.11838e-34)
(0.85138 -0.19965 -2.30451e-20)
(1.07642 -0.038093 1.0903e-19)
(0.578113 -0.00848201 -1.6788e-20)
(0.829413 -0.13079 -1.05715e-19)
(0.368224 -0.0915765 6.63743e-20)
(-0.193197 -0.00412874 -2.87336e-20)
(2.44792 0.222626 -9.81354e-19)
(2.70036 -0.021595 -1.27671e-18)
(2.50688 0.0206815 1.01304e-18)
(2.79594 -0.243651 4.17518e-20)
(2.24837 -0.0352384 -2.9506e-20)
(2.13771 0.163627 5.47752e-20)
(2.44124 -0.0854711 -4.25665e-20)
(2.28791 -0.00110568 -1.45054e-19)
(2.52448 -0.257603 -2.30317e-19)
(2.35968 -0.2315 -7.74123e-21)
(2.12687 0.0437002 7.15472e-20)
(2.25482 -0.0511902 1.11943e-19)
(2.214 -0.0856765 -1.65132e-19)
(2.29473 -0.164197 5.31433e-20)
(2.27019 -0.235392 4.01706e-20)
(2.08702 -0.00873944 1.12996e-19)
(2.06865 -0.062348 1.12468e-19)
(2.13584 -0.0757096 -1.73175e-20)
(2.09546 -0.134679 1.17526e-20)
(2.15576 -0.149209 2.1431e-20)
(1.50953 -0.0250089 1.60872e-19)
(1.41914 -0.021534 -1.26025e-20)
(1.48592 -0.0414135 2.53101e-20)
(1.36032 -0.0306672 -8.75648e-21)
(1.43811 -0.0647946 3.67275e-20)
(1.6134 0.842965 1.19723e-18)
(1.56255 0.945602 -3.95319e-19)
(1.56655 1.08481 -1.45153e-18)
(1.49835 1.13686 7.80886e-19)
(0.918543 0.818769 -1.78582e-19)
(1.90955 0.82724 -6.1518e-19)
(1.87356 0.900205 -3.20514e-18)
(1.87591 1.00438 -1.22938e-18)
(1.78973 1.01806 -4.34692e-19)
(1.09695 0.719496 -7.09224e-19)
(2.20838 0.676048 8.23251e-19)
(2.19384 0.751182 2.1116e-19)
(2.17396 0.846344 -2.41957e-18)
(2.04055 0.835262 -6.90386e-19)
(1.21628 0.563316 5.21138e-19)
(2.40508 0.562 2.46875e-18)
(2.37819 0.609131 1.81838e-18)
(2.3724 0.664229 -2.11557e-18)
(2.16933 0.626694 -1.62257e-18)
(1.20566 0.374601 -3.07123e-19)
(2.52348 0.38356 1.26267e-18)
(2.55643 0.411753 -9.01312e-19)
(2.47115 0.442008 6.37607e-19)
(2.14226 0.392875 5.26402e-19)
(1.03555 0.170993 -4.60376e-19)
(0.57262 0.512371 -6.09068e-19)
(0.479235 0.551265 -4.40621e-19)
(0.360478 0.589311 4.26583e-20)
(0.225338 0.591446 6.98527e-21)
(0.0557871 0.422933 9.45778e-20)
(0.693659 0.674004 1.28195e-19)
(0.63073 0.733855 -2.84254e-19)
(0.542444 0.801867 1.91979e-19)
(0.415861 0.86136 -8.96245e-20)
(0.182945 0.655284 1.26509e-19)
(0.783194 0.875739 8.85711e-20)
(0.710275 0.961911 5.10019e-19)
(0.658178 1.06106 1.3469e-19)
(0.576941 1.09612 -3.32345e-19)
(0.317864 0.805193 2.82366e-19)
(1.08198 0.934067 2.52317e-19)
(1.0318 1.01543 -7.732e-19)
(0.981147 1.11679 -2.05805e-18)
(0.900833 1.18872 8.21387e-19)
(0.531782 0.883679 -1.67454e-19)
(1.13159 0.996066 -1.02805e-19)
(1.17675 1.11944 -1.8202e-19)
(1.2049 1.23062 -3.98363e-19)
(1.15336 1.24493 -4.47994e-19)
(0.709932 0.886703 -7.0694e-21)
(1.02061 0.0467358 -1.03884e-19)
(0.996502 0.0473451 -3.54968e-20)
(1.02926 0.138424 -1.52521e-21)
(0.947383 0.151412 -2.76726e-19)
(0.906299 0.314512 3.18322e-19)
(1.01172 0.042812 6.58021e-20)
(1.01004 0.0466943 1.28289e-19)
(1.01331 0.148117 1.43234e-19)
(0.991351 0.17453 3.91431e-20)
(0.944238 0.396192 -2.41213e-20)
(1.02036 0.0409014 9.02013e-20)
(0.989141 0.0408682 -4.86474e-21)
(1.05953 0.167403 -6.26343e-21)
(0.945176 0.169299 1.57891e-19)
(1.1778 0.544203 -5.21612e-19)
(1.01749 0.0398723 -2.44784e-22)
(0.999544 0.0353419 -1.77716e-19)
(1.05229 0.183213 -7.16684e-20)
(1.05939 0.162726 -3.87115e-19)
(1.17184 0.597779 9.78372e-20)
(1.01737 0.0342762 -1.54115e-20)
(0.989575 0.0369115 4.845e-20)
(1.11075 0.17767 3.33178e-20)
(1.02611 0.196627 4.81032e-19)
(1.41757 0.734707 -5.00077e-19)
(0.984596 0.0388709 -1.27105e-20)
(1.04021 0.0126928 1.01514e-19)
(1.0882 0.205918 -7.65468e-20)
(1.29633 0.0995999 1.0158e-18)
(1.31921 0.784184 -3.74436e-19)
(0.938598 0.0136612 -1.29912e-21)
(1.09909 0.0122741 -9.57044e-20)
(1.06309 0.107116 5.63884e-21)
(1.44069 0.105383 -2.91865e-19)
(1.20653 0.557788 -7.38596e-20)
(0.967143 0.019211 -1.86523e-22)
(1.0905 -0.0104173 1.63184e-35)
(1.17429 0.0519183 -3.8177e-20)
(1.29429 0.100642 8.56503e-20)
(1.30887 0.407648 1.88731e-19)
(1.04547 -0.0241887 3.946e-21)
(1.04754 -0.0453603 -2.91122e-20)
(1.18959 0.0119114 1.98619e-20)
(1.07173 0.0792581 2.26986e-20)
(1.57841 0.257602 -2.83467e-19)
(0.972402 -0.0230646 -3.91295e-20)
(0.84338 -0.0261203 -1.57283e-21)
(0.85507 0.00704303 2.78187e-20)
(0.809977 0.0113939 -1.85746e-20)
(1.23539 0.0564169 -6.5466e-20)
(1.88874 0.610888 2.96167e-19)
(1.93117 0.667419 7.75459e-19)
(2.24166 0.499445 -1.12838e-18)
(2.25406 0.488449 2.62218e-20)
(2.52458 0.258061 4.96854e-19)
(1.7273 0.380065 8.75527e-20)
(1.72168 0.431298 1.03262e-18)
(2.01162 0.289201 1.18843e-19)
(1.94703 0.314948 -9.31087e-19)
(2.27013 0.101091 -2.93146e-19)
(1.71001 0.286413 -2.34622e-19)
(1.80213 0.258255 -1.54553e-19)
(1.96169 0.187203 2.17462e-19)
(1.98946 0.156943 -2.95665e-19)
(2.14938 0.0647827 2.68303e-19)
(1.74835 0.15153 4.16446e-19)
(1.87758 0.122195 -2.79233e-21)
(1.90541 0.078049 2.29498e-19)
(2.00391 0.0569089 1.90189e-19)
(2.00646 0.00665483 -1.80745e-19)
(1.38864 0.028467 -5.0873e-20)
(1.46951 0.0137115 2.60094e-19)
(1.45744 0.00499487 1.10898e-19)
(1.50952 -0.00738332 -2.16677e-19)
(1.45167 -0.0113791 5.27869e-22)
(1.07825 -0.0168438 5.56316e-20)
(2.06361 -0.0440967 -3.88965e-19)
(2.29748 -0.0329991 1.09304e-18)
(2.28561 0.00508661 4.88545e-19)
(2.12043 0.0316562 -3.36964e-19)
(0.673891 0.0919322 1.01884e-19)
(1.8442 0.0850806 -4.04131e-19)
(2.30447 0.0879183 -5.42578e-19)
(2.35699 0.0968885 6.66699e-19)
(2.11962 0.0842032 -4.23834e-19)
(0.213164 0.0752253 -2.02942e-20)
(1.23581 0.143465 4.24578e-19)
(1.963 0.165823 5.97039e-20)
(2.35001 0.156705 4.0582e-19)
(2.48976 0.1536 1.95048e-19)
(-0.0291964 -0.0173442 1.7859e-19)
(0.453383 0.0788066 1.79162e-19)
(1.21296 0.149035 -3.86164e-19)
(1.6968 0.185243 2.14492e-20)
(2.28227 0.212862 4.03799e-20)
(-0.0886253 -0.0718356 1.14417e-19)
(0.00635033 -0.0464109 -1.36275e-19)
(0.423791 0.0259127 -2.23715e-20)
(0.878999 0.0532605 -5.74473e-21)
(1.28837 0.117326 -4.35184e-20)
(-0.0715754 -0.0775316 -1.76601e-21)
(-0.115415 -0.12272 6.99678e-20)
(-0.0135723 -0.127053 4.85589e-20)
(0.167043 -0.0990875 -8.39134e-20)
(0.540457 -0.0394076 -1.0288e-21)
(-0.0489 -0.0841354 -9.24791e-21)
(-0.0945291 -0.174825 -1.79834e-20)
(-0.0901163 -0.219797 -1.74538e-20)
(-0.0440464 -0.219415 6.82237e-20)
(0.0984769 -0.147259 5.64749e-20)
(-0.0426462 -0.116253 -1.87569e-20)
(-0.0755002 -0.235541 -5.96312e-19)
(-0.0920765 -0.298219 5.47016e-19)
(-0.110221 -0.316553 1.47381e-18)
(-0.101286 -0.296583 -2.40212e-19)
(-0.0598411 -0.131909 1.26037e-20)
(-0.223273 -0.162667 1.47394e-19)
(-0.37662 -0.0582654 -3.3843e-19)
(-0.536477 0.0827554 -2.87724e-19)
(-0.653141 0.150635 -1.09674e-19)
(-0.0754722 0.382398 -8.23839e-20)
(-0.426497 0.562998 3.69289e-19)
(-0.764352 0.676541 -1.74852e-19)
(-1.01822 0.669914 2.36316e-19)
(-1.09071 0.563941 1.39505e-18)
(1.2381 0.635545 -1.30601e-20)
(1.25805 0.0762826 1.12024e-18)
(1.08868 0.323496 1.5315e-19)
(0.253944 0.0616529 9.69315e-20)
(0.332875 -0.23092 -2.02331e-20)
(1.05387 0.565493 1.12075e-19)
(1.26506 0.0377334 -7.09877e-19)
(1.2891 0.44796 6.88216e-19)
(0.477667 0.128677 8.4012e-21)
(0.474418 -0.237221 8.26887e-20)
(0.445829 0.303182 6.89722e-19)
(1.12619 -0.062908 -6.14762e-20)
(1.38078 0.576582 -9.96615e-20)
(0.630077 0.226899 8.40422e-20)
(0.585816 -0.241486 -1.10242e-20)
(-0.92117 0.254254 1.79577e-19)
(1.21141 -0.294248 -4.57684e-18)
(1.47648 0.690387 -4.1169e-19)
(0.78307 0.315806 1.36326e-21)
(0.74827 -0.226045 -4.04668e-20)
(-0.952622 -0.278602 2.72319e-19)
(0.808873 -0.88083 -8.87977e-19)
(1.52377 0.71155 2.24504e-19)
(0.842711 0.384445 -1.6199e-20)
(0.888975 -0.226701 -6.64623e-20)
(0.112384 0.168668 -9.64495e-20)
(-0.255972 -0.149368 0)
(-0.0509788 -0.0657214 3.30122e-20)
(-0.39507 -0.0559565 2.88508e-20)
(0.38045 -0.0556001 -1.94211e-21)
(1.60635 0.555643 0)
(1.17255 0.182987 0)
(0.830426 0.120194 -9.2857e-20)
(-0.173792 -0.0624432 -1.61803e-20)
(0.392069 -0.202544 8.7951e-20)
(0.677349 0.000819088 -1.15645e-19)
(0.691069 -0.00587637 1.25988e-19)
(0.951363 -0.00117512 -5.67497e-20)
(0.891079 0.00666581 2.7664e-19)
(1.34672 0.0809936 2.06128e-19)
(1.53625 0.0243972 1.08539e-19)
(1.65625 0.0636324 2.04987e-19)
(1.85873 0.035325 -3.68864e-19)
(2.36452 0.191301 -2.61703e-20)
(2.14715 0.0991272 1.35164e-19)
(0.860611 -0.442559 -3.48376e-20)
(0.844055 -0.526164 -1.38012e-19)
(0.831157 -0.617108 -9.04316e-20)
(0.758926 -0.67917 5.64112e-20)
(0.456698 -0.527184 1.14413e-19)
(0.763368 -0.344267 1.29743e-19)
(0.708554 -0.405168 2.78815e-19)
(0.636004 -0.471342 -2.30463e-20)
(0.524419 -0.526211 1.23479e-19)
(0.281316 -0.415903 5.03449e-20)
(0.626459 -0.201931 -1.64397e-19)
(0.53906 -0.23698 -4.55808e-20)
(0.436777 -0.280785 1.47795e-19)
(0.317404 -0.320229 -4.62036e-21)
(0.135737 -0.257075 -1.03898e-19)
(0.53604 0.0314319 -4.39339e-19)
(0.449071 0.0204538 -3.64513e-19)
(0.338287 0.00129078 2.83994e-19)
(0.211636 -0.0275547 1.83077e-19)
(0.0527184 -0.0444174 1.36398e-20)
(0.520502 0.238733 -1.77385e-19)
(0.434246 0.244744 -1.7592e-19)
(0.317464 0.250286 -8.11088e-20)
(0.180132 0.259169 1.30343e-20)
(0.0241108 0.193411 1.0992e-20)
(1.89659 -0.0399738 7.16108e-19)
(2.14679 -0.101557 2.45381e-19)
(2.21908 -0.179622 -6.50769e-19)
(2.06662 -0.205849 -1.31024e-18)
(1.22561 -0.171228 1.07776e-19)
(1.8709 -0.117406 1.19402e-18)
(1.963 -0.221806 1.5824e-18)
(1.9804 -0.335886 1.31385e-19)
(1.89525 -0.390616 2.29604e-19)
(1.19781 -0.330223 -1.50963e-19)
(1.60786 -0.26999 -3.09593e-18)
(1.67022 -0.380772 3.52727e-19)
(1.71229 -0.497052 9.6911e-19)
(1.64566 -0.563831 -3.61228e-19)
(1.05533 -0.464864 5.65661e-19)
(1.4055 -0.384679 7.34111e-19)
(1.4241 -0.477153 -1.93902e-18)
(1.41172 -0.587015 -2.2232e-18)
(1.34067 -0.66429 6.71345e-19)
(0.855868 -0.535301 4.57578e-19)
(1.14129 -0.43749 1.46615e-19)
(1.1005 -0.52522 2.17018e-19)
(1.08838 -0.637568 -3.31861e-19)
(1.02944 -0.713773 -4.0008e-19)
(0.645923 -0.558196 -3.70009e-21)
(1.07181 0.0557809 7.97862e-21)
(0.922459 0.0622846 -5.31335e-21)
(1.10927 0.0848557 -5.46102e-21)
(0.794265 0.0192951 -1.90311e-19)
(1.0454 -0.183134 -8.23958e-21)
(1.08154 0.0586157 -2.601e-21)
(0.919855 0.0604576 5.08985e-20)
(1.10921 0.103364 -5.31067e-20)
(0.88201 0.0668405 1.08184e-19)
(0.950063 -0.0677498 -2.17696e-20)
(1.07977 0.0551593 -6.43281e-20)
(0.923941 0.0575024 4.13209e-22)
(1.09719 0.106091 -2.41107e-20)
(0.88536 0.09204 2.49381e-20)
(0.930938 -0.0066475 -1.58287e-19)
(1.06008 0.0532104 7.8405e-20)
(0.953343 0.0535245 3.56269e-21)
(1.06167 0.11425 3.77384e-20)
(0.923373 0.116088 1.8159e-20)
(0.854405 0.104772 1.1459e-19)
(1.03433 0.0491906 1.9929e-20)
(0.986072 0.052504 -3.05014e-20)
(1.02939 0.121827 5.12061e-20)
(0.952553 0.141212 7.45289e-20)
(0.839248 0.207144 -1.27003e-19)
(0.891368 0.0341597 0)
(0.702962 0.0285127 1.05284e-20)
(0.588283 0.0233613 3.31422e-21)
(0.324023 -0.00483471 3.81154e-20)
(0.615619 -0.0489167 -1.09928e-19)
(1.03834 0.0756725 -6.67871e-20)
(0.933422 0.076596 -1.98713e-20)
(1.00747 0.0835003 -2.88219e-20)
(0.783916 0.00969776 -1.0057e-19)
(0.974327 -0.170243 -1.19078e-19)
(0.847982 -0.0619646 -2.67429e-20)
(0.928859 -0.029547 4.39758e-19)
(1.00882 0.0348972 2.70993e-19)
(0.890405 0.0478263 2.64817e-20)
(0.692967 0.0246803 0)
(1.20681 -0.294442 2.54348e-19)
(1.31331 -0.260563 1.26956e-18)
(1.47388 -0.147048 -1.421e-18)
(1.55928 -0.0214355 -4.38462e-19)
(1.46366 0.0224338 3.32016e-19)
)
;

boundaryField
{
    left
    {
        type            fixedValue;
        value           uniform (1 0 0);
    }
    right
    {
        type            zeroGradient;
    }
    down
    {
        type            noSlip;
    }
    up
    {
        type            noSlip;
    }
    cylinder
    {
        type            noSlip;
    }
    defaultFaces
    {
        type            empty;
    }
}


// ************************************************************************* //
