/*--------------------------------*- C++ -*----------------------------------*\
  =========                 |
  \\      /  F ield         | OpenFOAM: The Open Source CFD Toolbox
   \\    /   O peration     | Website:  https://openfoam.org
    \\  /    A nd           | Version:  13
     \\/     M anipulation  |
\*---------------------------------------------------------------------------*/
FoamFile
{
    format      ascii;
    class       volScalarField;
    location    "0.14";
    object      p;
}
// * * * * * * * * * * * * * * * * * * * * * * * * * * * * * * * * * * * * * //

dimensions      [0 2 -2 0 0 0 0];

internalField   nonuniform List<scalar> 
440
(
-1.19173
-0.904167
-0.74487
-0.59555
-0.482544
-1.50507
-1.15177
-0.961354
-0.776528
-0.64069
-1.75297
-1.3432
-1.1266
-0.910054
-0.750996
-1.9002
-1.44446
-1.21345
-0.969738
-0.799907
-1.91792
-1.42101
-1.19957
-0.930868
-0.764973
0.171442
0.203528
0.229612
0.241002
0.245747
0.0321397
0.0900924
0.130819
0.154052
0.167858
-0.207766
-0.10638
-0.0433393
-0.00151872
0.0261303
-0.514279
-0.359879
-0.26919
-0.202013
-0.15617
-0.852534
-0.635299
-0.512718
-0.410617
-0.337968
0.16258
0.105619
0.0677689
0.0383292
0.0123183
0.154115
0.108802
0.0697197
0.0393699
0.0126301
0.122935
0.110513
0.0716537
0.0405503
0.0130411
0.0609474
0.107865
0.0733776
0.0418432
0.0135408
-0.0286827
0.0965462
0.0740355
0.0431295
0.0141181
-0.0785691
0.0930404
0.077409
0.0451404
0.0149705
-0.112009
0.0709153
0.0707913
0.0438187
0.014984
-0.115071
0.0564917
0.0652894
0.0424759
0.0148939
-0.115596
0.0444047
0.05987
0.0407659
0.0145797
-0.107793
0.0424696
0.0592319
0.0409909
0.0147624
-0.489703
-0.538192
-0.526722
-0.467509
-0.389166
-0.284822
-0.348344
-0.370677
-0.353637
-0.331878
-0.152078
-0.214929
-0.245958
-0.244967
-0.239328
-0.0738217
-0.138564
-0.174014
-0.182964
-0.184164
-0.0392559
-0.107774
-0.148372
-0.164532
-0.166184
0.60499
0.493726
0.360851
0.214736
-0.0668782
0.254114
0.120534
-0.0411278
-0.213438
-0.580704
-0.103366
-0.254501
-0.449295
-0.630234
-1.08251
-0.401185
-0.564342
-0.812974
-0.981996
-1.50628
-0.632138
-0.782976
-1.08364
-1.24839
-1.79139
1.74677
1.78219
1.82692
1.86931
1.89063
1.60205
1.62606
1.65403
1.67511
1.67287
1.38775
1.39374
1.39526
1.38348
1.33569
1.12538
1.10819
1.07545
1.0231
0.910432
0.845028
0.793602
0.716682
0.619245
0.426284
1.97683
0.714933
1.61358
1.56359
1.72369
1.96677
0.695726
1.60117
1.53209
1.65592
1.95752
0.670535
1.59305
1.4876
1.5546
1.9484
0.641303
1.58858
1.42944
1.41526
1.93951
0.610675
1.58784
1.36778
1.25148
1.92842
0.577479
1.5556
1.27558
1.02206
1.92574
0.549233
1.50741
1.20907
0.929485
1.92646
0.52848
1.47154
1.16465
0.885715
1.93186
0.516377
1.44827
1.13929
0.866338
1.95961
0.51051
1.43499
1.12394
0.852823
0.622194
0.348398
0.050941
-0.196317
-0.375625
0.552871
0.375383
0.171593
-0.0160816
-0.170777
0.538248
0.398895
0.24013
0.0825324
-0.0522322
0.543336
0.419665
0.28405
0.145062
0.0221876
0.551008
0.4335
0.306362
0.175026
0.0565099
-3.0158
-2.39501
-2.14399
-1.89166
-1.76282
-2.95929
-2.40325
-2.13392
-1.89732
-1.75647
-2.56401
-2.07664
-1.82202
-1.60015
-1.45222
-1.99675
-1.59811
-1.37929
-1.18555
-1.05461
-1.41536
-1.11695
-0.945601
-0.795956
-0.690034
-0.902319
-0.698812
-0.579761
-0.487216
-0.423377
-0.474257
-0.345632
-0.267671
-0.214437
-0.179854
-0.138732
-0.0656998
-0.0174516
0.0112183
0.0286788
0.0881229
0.125885
0.155562
0.169513
0.176242
0.191509
0.217819
0.239525
0.247495
0.249686
-0.0822437
0.0595737
0.056641
0.0360792
0.0123745
0.032283
0.083363
0.0605381
0.0361714
0.0121623
0.101367
0.0919271
0.0618849
0.0363172
0.0120385
0.139229
0.0974259
0.06374
0.0367677
0.0120233
0.157078
0.101769
0.0657592
0.0374513
0.0121152
-0.260267
0.0165335
0.047286
0.0346783
0.0124681
-0.170758
0.0402931
0.053482
0.0358622
0.0125987
-1.68794
-1.69982
-1.48963
-1.19308
-0.941125
-1.71585
-1.69738
-1.3871
-0.993237
-0.681224
1.30037
1.26426
1.20553
1.12531
0.977095
1.51504
1.51632
1.50686
1.48139
1.41467
1.68494
1.70698
1.72957
1.74361
1.73197
1.78815
1.8228
1.86518
1.90442
1.92254
1.80997
1.84921
1.8991
1.9481
1.97534
-1.33397
-1.48553
-1.75412
-1.96121
-2.65638
-0.613649
-0.800228
-1.0477
-1.2919
-1.92403
0.0966387
-0.0882997
-0.309463
-0.555331
-1.05842
0.681774
0.525557
0.344745
0.137207
-0.233068
1.10387
0.98992
0.855506
0.702217
0.44859
2.0314
0.718298
1.73312
1.54311
1.58908
2.02103
0.725707
1.70402
1.5586
1.67114
2.01016
0.731079
1.67718
1.58111
1.73767
1.99872
0.732127
1.65224
1.58758
1.76434
1.9875
0.727076
1.63069
1.58207
1.75967
2.06988
0.7148
1.7326
1.48871
1.36375
2.04187
0.713792
1.73801
1.50393
1.41431
1.04348
0.738802
0.214766
-0.509864
-1.26764
1.12513
0.765507
0.211533
-0.509192
-1.27212
)
;

boundaryField
{
    left
    {
        type            zeroGradient;
    }
    right
    {
        type            fixedValue;
        value           uniform 0;
    }
    down
    {
        type            zeroGradient;
    }
    up
    {
        type            zeroGradient;
    }
    cylinder
    {
        type            zeroGradient;
    }
    defaultFaces
    {
        type            empty;
    }
}


// ************************************************************************* //
