/*--------------------------------*- C++ -*----------------------------------*\
  =========                 |
  \\      /  F ield         | OpenFOAM: The Open Source CFD Toolbox
   \\    /   O peration     | Website:  https://openfoam.org
    \\  /    A nd           | Version:  13
     \\/     M anipulation  |
\*---------------------------------------------------------------------------*/
FoamFile
{
    format      ascii;
    class       volScalarField;
    location    "0.015";
    object      p;
}
// * * * * * * * * * * * * * * * * * * * * * * * * * * * * * * * * * * * * * //

dimensions      [0 2 -2 0 0 0 0];

internalField   nonuniform List<scalar> 
440
(
80.9247
83.0719
82.5324
80.3165
79.608
103.26
105.23
104.326
101.832
101.285
128.906
130.359
129.325
127.537
127.947
157.44
158.326
157.611
156.763
157.668
187.341
187.67
187.465
187.345
187.973
13.1428
16.5762
22.2272
26.6066
27.8123
22.33
23.806
27.5973
31.3816
32.9702
32.7615
33.8749
35.8313
38.3428
40.1636
44.8757
46.2756
46.9571
48.3636
50.5684
60.9901
62.7004
62.5669
62.761
65.0742
24.5186
20.2165
15.6184
9.79434
3.36101
29.2893
23.2083
17.1023
10.4746
3.53931
35.0012
26.64
18.8464
11.2883
3.75647
41.9624
30.5303
20.8473
12.2239
4.00828
50.9256
34.8526
23.0774
13.2643
4.28899
63.0414
39.909
25.5044
14.3233
4.58224
70.0569
43.8294
27.2812
15.0591
4.76128
74.076
46.3403
28.4221
15.5275
4.8759
78.1666
48.5566
29.3297
15.8728
4.96134
82.511
51.2154
30.4353
16.3154
5.08263
189.935
162.21
135.005
110.085
88.658
191.761
166.413
141.831
119.287
100.729
192.375
167.595
144.326
123.871
107.639
193.248
169.833
147.929
128.779
113.569
194.144
172.396
151.786
133.251
118.164
330.762
329.699
327.169
326.402
328.448
307.863
306.839
303.993
302.873
304.74
280.024
279.873
277.741
276.504
277.845
249.291
249.586
248.43
247.542
248.305
218.346
218.333
217.953
217.619
217.822
386.694
387.899
392.286
397.971
401.463
380.991
382.533
386.265
390.028
391.5
373.058
374.787
377.194
379.08
380.171
361.729
363.778
365.03
365.601
366.947
346.219
348.27
348.226
347.931
349.563
412.505
403.545
398.503
394.239
390.051
411.536
402.434
396.814
391.091
385.024
410.927
401.311
394.925
387.511
378.963
410.681
400.187
392.845
383.479
371.545
410.795
399.061
390.593
379.015
362.062
411.415
398.039
388.145
373.779
349.517
413.113
397.786
386.399
369.693
342.307
415.961
398.133
385.38
367.097
338.231
421.562
398.993
384.762
364.875
334.201
431.402
399.119
384.114
362.266
329.926
321.91
299.747
273.915
245.919
217.717
310.203
291.298
268.204
243.08
217.408
303.631
287.141
266.351
242.727
217.731
297.94
282.441
263.005
240.828
217.241
293.402
277.982
259.135
238.264
216.356
164.554
165.689
165.311
163.418
158.588
88.5099
91.0894
91.1859
88.1424
80.8803
32.2758
35.914
36.8713
34.2854
30.406
1.93566
5.88829
6.81358
4.61043
2.36556
-7.03855
-3.64776
-2.78107
-4.13767
-4.92508
-7.68264
-5.62973
-4.69398
-3.58656
-1.52127
-4.9855
-3.76849
-2.0268
0.392571
2.56367
-1.04652
0.374937
3.65497
7.09885
8.8056
4.56732
7.10692
11.7922
15.4273
16.3827
8.40639
12.4468
18.7442
22.5967
23.2001
4.28006
11.3158
12.033
8.57516
3.12417
8.49779
12.5691
12.2739
8.52784
3.08314
12.647
13.9396
12.7268
8.62006
3.08429
16.4993
15.6204
13.4321
8.86297
3.13173
20.3597
17.6899
14.3953
9.25544
3.22447
7.04806
11.7798
11.5501
8.34391
3.07827
3.86835
10.9634
11.81
8.55592
3.15002
157.657
76.574
27.6224
6.00617
2.69429
156.685
76.4086
28.4165
5.52402
-0.284231
415.886
417.891
418.91
419.752
421.73
412.141
414.305
416.702
418.423
419.624
406.132
407.849
411.296
414.596
416.044
398.579
399.54
403.177
407.893
410.47
391.62
392.23
396.092
402.437
406.529
253.617
248.412
246.099
245.33
246.244
331.567
324.106
320.722
320.463
322.83
382.655
378.526
375.632
376.283
379.748
411.228
408.76
406.296
406.973
410.775
418.957
418.026
416.499
417.178
420.447
422.871
407.266
403.094
403.511
410.337
419.977
406.998
402.757
402.31
406.271
417.566
406.413
402.134
400.894
402.218
415.519
405.591
401.197
399.117
398.359
413.833
404.613
399.974
396.916
394.391
437.992
408.378
404.254
403.028
407.275
428.106
407.719
403.483
403.811
410.573
411.224
407.644
385.508
335.957
254.657
414.306
408.181
384.757
336.151
255.622
)
;

boundaryField
{
    left
    {
        type            zeroGradient;
    }
    right
    {
        type            fixedValue;
        value           uniform 0;
    }
    down
    {
        type            zeroGradient;
    }
    up
    {
        type            zeroGradient;
    }
    cylinder
    {
        type            zeroGradient;
    }
    defaultFaces
    {
        type            empty;
    }
}


// ************************************************************************* //
