/*--------------------------------*- C++ -*----------------------------------*\
  =========                 |
  \\      /  F ield         | OpenFOAM: The Open Source CFD Toolbox
   \\    /   O peration     | Website:  https://openfoam.org
    \\  /    A nd           | Version:  13
     \\/     M anipulation  |
\*---------------------------------------------------------------------------*/
FoamFile
{
    format      ascii;
    class       volScalarField;
    location    "0.015";
    object      strainRateViscosityModel:nu;
}
// * * * * * * * * * * * * * * * * * * * * * * * * * * * * * * * * * * * * * //

dimensions      [0 2 -1 0 0 0 0];

internalField   nonuniform List<scalar> 
440
(
9.87587
9.29877
7.02793
3.25357
1.84991
9.91286
9.47274
7.30718
2.82266
1.42203
9.93212
9.57256
7.50932
2.04269
0.878166
9.94206
9.6299
7.66987
1.3173
0.307022
9.9464
9.65603
7.76866
0.90254
0.0325972
4.70781
5.08665
5.84698
5.86811
5.14909
8.26529
6.50029
6.0719
5.78021
5.20741
9.33296
7.74795
6.33433
5.5321
5.2371
9.66909
8.54966
6.59784
5.04464
5.0247
9.80612
9.01342
6.83854
4.05317
4.11666
1.08243
0.0745031
0.0166544
0.0111019
0.0101032
1.52246
0.0945074
0.0188191
0.0113739
0.0101296
2.0446
0.124685
0.0215042
0.0116616
0.0101499
2.3007
0.148045
0.0231782
0.011883
0.0101597
2.86229
0.268465
0.0298312
0.0122652
0.0101612
2.56148
0.324038
0.0328262
0.0123601
0.0101431
1.15042
0.204516
0.0272238
0.0118608
0.0100915
0.777463
0.146908
0.0201086
0.0116716
0.0115277
2.11448
0.875375
0.500777
0.42313
0.41206
8.82845
7.96251
7.31691
6.92606
6.73942
0.705467
1.19774
1.85739
2.28272
2.41037
1.36213
1.86189
2.56782
3.1524
3.16496
3.0771
3.13738
3.15096
2.95607
2.12801
7.21295
6.86289
6.18805
5.27904
3.88309
9.5606
9.52944
9.46287
9.35235
9.20415
1.88372
3.26405
7.00239
9.29462
9.87815
1.39766
2.83341
7.29618
9.46939
9.91434
0.865892
2.05452
7.50245
9.5699
9.93305
0.298372
1.32121
7.66623
9.62804
9.94259
0.0312744
0.903065
7.76751
9.65533
9.94658
5.15846
5.88569
5.87467
5.1395
4.82095
5.20719
5.78793
6.08702
6.53424
8.31603
5.23049
5.53134
6.33574
7.76212
9.35136
5.00643
5.02999
6.5884
8.55212
9.67721
4.09316
4.01462
6.81131
9.01002
9.81005
0.287283
0.068925
0.0181755
0.0686855
1.07446
0.282637
0.0752262
0.019832
0.0861763
1.51916
0.276118
0.0825414
0.0228355
0.116563
2.05269
0.267846
0.0904723
0.0258514
0.143956
2.31501
0.261938
0.0958935
0.0345103
0.26566
2.84279
0.235248
0.118751
0.0343453
0.324691
2.53587
0.234702
0.145556
0.0272235
0.210171
1.13784
0.222611
0.150004
0.0156434
0.148766
0.772792
0.410433
0.557237
0.44457
0.856115
2.10482
4.29158
7.44566
7.32664
7.96863
8.83448
2.45279
2.28655
1.86829
1.20902
0.710464
3.15884
3.167
2.63806
1.90704
1.37988
2.06105
2.91479
3.17786
3.15568
3.08523
3.8279
5.23663
6.16917
6.84796
7.20765
9.20514
9.35326
9.46377
9.53009
9.56081
9.97538
9.81819
8.36811
4.98821
9.95157
9.9724
9.77583
7.85351
7.81565
9.78251
9.96061
9.70194
8.125
7.42154
9.16003
9.92867
9.52565
7.93314
7.00934
7.71165
9.85313
9.17697
7.27691
5.83297
5.21892
9.68146
8.56647
6.53862
5.38774
5.56075
9.27513
7.63503
6.01285
5.42421
5.47537
8.03984
6.34336
5.79776
5.60113
5.28839
4.08589
4.99225
5.70585
5.76795
5.14549
0.912005
4.39007
5.69718
5.85022
5.11353
1.73611
0.0108115
0.0260348
0.0338771
0.0314875
1.46621
0.0232097
0.0121355
0.0103817
0.0100185
1.25408
0.0283051
0.0127409
0.010492
0.0100314
0.939348
0.0424063
0.0137393
0.0106522
0.0100507
0.874139
0.0581511
0.0149865
0.0108574
0.0100755
7.66681
6.14491
6.12837
6.31989
6.44896
2.41124
0.639292
0.703082
0.815947
0.847662
9.93685
9.94779
9.90559
9.75243
9.31201
9.9719
9.91286
9.67017
8.85243
6.0872
5.56547
5.38467
6.51055
8.55894
9.68611
5.49698
5.44621
6.01274
7.63563
9.28747
5.31873
5.6328
5.81845
6.36002
8.06528
5.17474
5.79894
5.73801
5.03058
4.10653
5.13366
5.87582
5.73168
4.44466
0.942159
9.9511
5.10174
8.35388
9.81656
9.97549
9.78045
7.8259
7.83738
9.77297
9.97265
9.15584
7.42146
8.10881
9.69849
9.96098
7.70767
7.00177
7.90909
9.52032
9.92937
5.24426
5.82477
7.24178
9.16943
9.85482
0.305012
0.10889
0.0227232
0.0107054
1.72684
0.286262
0.055485
0.0192311
0.0253213
1.50311
0.285507
0.0575362
0.019158
0.0305326
1.29409
0.288553
0.0601024
0.0183043
0.0432607
0.961163
0.289337
0.063874
0.017757
0.055928
0.875717
4.84523
7.34183
6.26722
6.21022
7.69544
0.826804
1.0532
0.661717
0.627272
2.36618
9.31296
9.75233
9.90581
9.94797
9.93713
6.07234
8.84808
9.66796
9.91204
9.97166
)
;

boundaryField
{
    left
    {
        type            calculated;
        value           nonuniform List<scalar> 
17
(
2.14755
2.13277
2.1162
2.54484
6.21952
2.44107
2.42034
2.38044
2.31772
2.24259
2.33955
2.32904
2.37677
2.41867
2.44064
6.71114
3.19742
)
;
    }
    right
    {
        type            calculated;
        value           nonuniform List<scalar> 
17
(
6.44921
0.84324
0.030718
0.0100078
0.0100129
0.0100201
0.0100293
0.0100394
0.0100488
0.0100559
0.0100589
0.01006
0.0100527
0.0100332
0.0118767
0.418656
6.73936
)
;
    }
    down
    {
        type            calculated;
        value           nonuniform List<scalar> 
20
(
5.90068
8.40107
7.59737
7.57706
8.65626
9.59207
9.83476
9.92894
9.95323
9.93272
9.93244
9.95296
9.92863
9.83454
9.58999
8.63348
7.52076
7.47498
7.61298
7.70957
)
;
    }
    up
    {
        type            calculated;
        value           nonuniform List<scalar> 
20
(
9.391
8.90458
8.50183
8.23806
8.10731
9.73852
9.72442
9.69414
9.64352
9.57725
9.57856
9.6446
9.69511
9.72503
9.73872
5.7382
8.60639
8.51619
8.91018
9.39511
)
;
    }
    cylinder
    {
        type            calculated;
        value           nonuniform List<scalar> 
40
(
5.46614
8.75483
9.54524
9.77766
9.87025
9.91766
9.94245
9.95519
9.96172
9.96457
9.91968
9.94378
9.95605
9.96222
9.96474
5.59039
8.79775
9.56004
9.78433
9.87364
9.78915
9.50669
8.55772
4.61217
0.582709
9.98432
9.9828
9.9755
9.95509
9.90536
9.98419
9.98254
9.97513
9.95441
9.90377
9.78491
9.49564
8.53295
4.59171
0.559003
)
;
    }
    defaultFaces
    {
        type            empty;
    }
}


// ************************************************************************* //
