/*--------------------------------*- C++ -*----------------------------------*\
  =========                 |
  \\      /  F ield         | OpenFOAM: The Open Source CFD Toolbox
   \\    /   O peration     | Website:  https://openfoam.org
    \\  /    A nd           | Version:  13
     \\/     M anipulation  |
\*---------------------------------------------------------------------------*/
FoamFile
{
    format      ascii;
    class       volVectorField;
    location    "0.075";
    object      U;
}
// * * * * * * * * * * * * * * * * * * * * * * * * * * * * * * * * * * * * * //

dimensions      [0 1 -1 0 0 0 0];

internalField   nonuniform List<vector> 
440
(
(0.218478 -0.176834 -1.80782e-19)
(0.613742 -0.437481 1.06007e-18)
(0.985452 -0.642845 3.83564e-19)
(1.3291 -0.798922 1.32256e-18)
(1.63441 -0.921804 -2.6342e-19)
(0.305025 -0.177748 -5.42173e-19)
(0.819619 -0.429038 -1.01135e-18)
(1.28083 -0.619703 1.24704e-19)
(1.69304 -0.763125 -1.21885e-18)
(2.05501 -0.877342 -1.02866e-18)
(0.385019 -0.152454 -6.9723e-19)
(1.0051 -0.363173 1.57982e-18)
(1.54041 -0.518715 -1.91967e-18)
(2.00552 -0.633211 1.44169e-18)
(2.40679 -0.722369 1.40372e-18)
(0.446037 -0.102782 5.62957e-19)
(1.14651 -0.243175 -1.29722e-18)
(1.73801 -0.344971 -7.62328e-19)
(2.24358 -0.418466 1.95014e-18)
(2.67507 -0.474835 2.51574e-18)
(0.479429 -0.0361741 6.88088e-19)
(1.22401 -0.0848079 1.70655e-19)
(1.84639 -0.119469 2.53024e-18)
(2.37454 -0.144036 -1.06928e-18)
(2.8234 -0.16275 -4.88279e-19)
(-0.00220464 -0.0606989 2.04116e-19)
(0.0429078 -0.169163 -4.16917e-20)
(0.0971148 -0.259143 9.27783e-19)
(0.161272 -0.334639 -1.92157e-19)
(0.228596 -0.398199 -1.96427e-18)
(0.0148999 -0.0892402 -3.26771e-19)
(0.0883646 -0.242704 -8.32346e-19)
(0.171902 -0.376598 6.58154e-20)
(0.265067 -0.484939 4.2855e-20)
(0.360535 -0.569038 -5.76928e-21)
(0.0449822 -0.116801 9.60477e-20)
(0.167266 -0.311771 7.76877e-19)
(0.297902 -0.483909 1.38128e-19)
(0.43437 -0.623156 1.14729e-18)
(0.569164 -0.726359 -2.10356e-20)
(0.0877629 -0.142264 6.68855e-20)
(0.278265 -0.372527 -6.95191e-20)
(0.471856 -0.572416 2.8707e-19)
(0.664079 -0.733464 -1.80942e-18)
(0.846918 -0.849472 9.24222e-19)
(0.142672 -0.162237 -2.32519e-19)
(0.421192 -0.415073 -4.28079e-19)
(0.692998 -0.626223 -7.10681e-19)
(0.952221 -0.790525 8.82464e-19)
(1.18761 -0.903918 3.25268e-18)
(0.577444 -0.633142 -3.79882e-18)
(0.960795 -0.462136 4.32566e-19)
(1.16991 -0.202449 2.23443e-19)
(1.22984 -0.0865637 -6.31197e-19)
(1.25957 -0.0234061 -1.53702e-19)
(0.77132 -0.785092 4.88445e-18)
(1.02479 -0.556443 -2.08706e-19)
(1.21345 -0.237362 -2.67015e-19)
(1.25468 -0.0986956 1.33466e-19)
(1.27346 -0.026366 2.77768e-19)
(1.02732 -0.916881 1.41208e-18)
(1.14076 -0.639143 2.86864e-18)
(1.25641 -0.269255 1.70012e-19)
(1.28196 -0.108258 1.91647e-19)
(1.28858 -0.0285145 -1.28891e-19)
(1.32613 -1.02265 1.40392e-18)
(1.30705 -0.699953 -3.59038e-19)
(1.30837 -0.295268 -4.45852e-19)
(1.31028 -0.114327 -3.32764e-20)
(1.30434 -0.0297137 -2.35569e-20)
(1.62956 -1.07643 -1.02549e-19)
(1.49248 -0.741558 -8.16733e-19)
(1.36951 -0.318879 0)
(1.33715 -0.118208 1.77433e-19)
(1.31996 -0.0299303 7.15176e-20)
(2.15301 -1.12968 -1.73772e-18)
(1.75339 -0.729299 -5.71338e-19)
(1.48757 -0.308392 2.58371e-20)
(1.37933 -0.110773 -1.04362e-19)
(1.34008 -0.0275417 -1.82463e-19)
(2.61817 -0.895543 -1.60056e-18)
(1.88766 -0.54872 2.21302e-18)
(1.53346 -0.227522 2.98008e-20)
(1.39423 -0.0824669 1.92752e-19)
(1.33932 -0.0199817 0)
(2.47897 -0.524625 -6.95256e-18)
(1.62607 -0.298194 -1.5505e-19)
(1.28179 -0.120126 2.06255e-18)
(1.15746 -0.0457291 -2.93233e-19)
(1.10808 -0.0115343 1.77417e-20)
(1.75849 -0.22019 6.90111e-18)
(1.08667 -0.118863 1.5978e-18)
(0.811464 -0.048563 2.85755e-19)
(0.719717 -0.0182253 3.64835e-33)
(0.686644 -0.00440921 -2.41947e-19)
(0.680737 -0.00044252 1.6359e-18)
(0.393948 0.0225774 7.91262e-19)
(0.290727 0.0139495 -3.24637e-19)
(0.255678 0.00581387 1.38109e-19)
(0.24154 0.00233324 -4.97875e-20)
(3.58274 -0.168581 1.26542e-17)
(3.418 -0.503382 -1.04803e-17)
(3.13744 -0.787979 7.1164e-18)
(2.78121 -0.998257 2.33651e-18)
(2.33374 -1.10605 -4.23005e-19)
(3.77898 -0.103604 1.03926e-17)
(3.71216 -0.323623 -6.63594e-19)
(3.57266 -0.550497 -4.26628e-18)
(3.37303 -0.78385 2.68048e-18)
(3.09455 -1.01693 -6.60165e-19)
(3.11088 -0.0605773 3.66176e-18)
(3.0948 -0.181628 -2.52375e-18)
(3.05613 -0.309497 5.02634e-18)
(2.99608 -0.444577 -1.53701e-19)
(2.92237 -0.593285 -4.82456e-18)
(2.18737 -0.0276085 2.79328e-18)
(2.18031 -0.0833706 8.44483e-18)
(2.16104 -0.144052 -6.55006e-19)
(2.13045 -0.207378 -6.6271e-18)
(2.10936 -0.26955 1.95659e-18)
(0.878142 -0.00183412 5.21891e-18)
(0.87517 -0.00522653 -1.16709e-19)
(0.865995 -0.0095563 -4.18383e-20)
(0.849034 -0.0162532 -2.01245e-18)
(0.839488 -0.022942 -3.60694e-18)
(1.65291 0.941794 2.30195e-18)
(1.34839 0.818205 -8.97209e-20)
(1.00367 0.659597 -5.85725e-20)
(0.628167 0.449977 -1.91644e-19)
(0.225403 0.182436 -1.34211e-19)
(2.07015 0.893087 -1.22894e-18)
(1.71058 0.778241 -1.24424e-18)
(1.29837 0.632897 7.20812e-19)
(0.83413 0.438877 -4.84766e-19)
(0.312197 0.182124 -4.69214e-21)
(2.41832 0.735829 -5.84088e-19)
(2.01955 0.645362 5.26718e-19)
(1.55498 0.528765 2.42804e-18)
(1.01756 0.370202 8.07339e-19)
(0.39136 0.155289 5.26234e-19)
(2.68195 0.486474 2.45316e-20)
(2.25244 0.428131 -2.67313e-19)
(1.74754 0.352241 -6.49594e-19)
(1.15488 0.247622 2.05736e-18)
(0.450389 0.104152 -3.26986e-19)
(2.82568 0.173594 -1.17268e-18)
(2.37758 0.152461 -1.60882e-18)
(1.84972 0.125249 -7.29639e-19)
(1.22698 0.0878016 7.96656e-19)
(0.480987 0.0366893 -3.25755e-19)
(0.233448 0.43821 -2.38631e-18)
(0.164394 0.374387 -1.81241e-18)
(0.0984022 0.294687 2.51692e-19)
(0.0427185 0.194172 4.89965e-20)
(-0.00154515 0.0710247 6.94226e-20)
(0.36913 0.611139 -7.62013e-19)
(0.272747 0.525485 -5.90366e-19)
(0.17809 0.410558 3.16867e-20)
(0.0927175 0.265235 -3.4273e-20)
(0.0176683 0.0982366 2.84184e-20)
(0.582476 0.765326 2.1189e-18)
(0.447235 0.660063 -5.04268e-20)
(0.309062 0.514124 -7.0476e-20)
(0.175507 0.332097 -2.36626e-19)
(0.0491887 0.125017 1.6909e-19)
(0.863147 0.882542 -1.2357e-18)
(0.680493 0.764827 1.83946e-18)
(0.486586 0.598368 1.27711e-19)
(0.289446 0.390678 1.17472e-19)
(0.0931679 0.149897 -1.1994e-19)
(1.20406 0.929688 -4.48222e-19)
(0.969787 0.815457 -4.62299e-19)
(0.709326 0.647416 3.44987e-19)
(0.433993 0.430431 3.54449e-19)
(0.14885 0.16893 1.89618e-21)
(0.789651 0.14547 -9.1411e-19)
(1.34091 0.151155 9.00556e-20)
(1.1525 0.218142 4.08904e-20)
(0.982243 0.459327 -1.13451e-18)
(0.586189 0.65811 1.05648e-19)
(0.783317 0.0990017 3.00027e-19)
(1.34834 0.145108 5.71673e-19)
(1.18944 0.244304 1.16361e-19)
(1.03748 0.550531 3.67045e-20)
(0.775594 0.813277 8.30498e-19)
(0.777607 0.0535943 -2.90611e-19)
(1.36647 0.134411 -3.90769e-20)
(1.22634 0.267189 -1.4148e-19)
(1.1422 0.631844 -1.78176e-19)
(1.03056 0.945673 1.29682e-19)
(0.772642 0.00791265 -4.70765e-20)
(1.39317 0.119966 -8.94245e-19)
(1.27121 0.285375 -2.14837e-20)
(1.29915 0.691217 4.39737e-19)
(1.32909 1.04948 9.65839e-19)
(0.768999 -0.0349602 2.26865e-19)
(1.42822 0.102787 7.38819e-20)
(1.32346 0.304476 2.51611e-20)
(1.47635 0.732206 4.56176e-19)
(1.63118 1.10047 -2.99182e-18)
(0.773662 -0.100013 8.01806e-19)
(1.47661 0.0722357 4.3862e-19)
(1.42969 0.284658 -9.89142e-20)
(1.72365 0.712233 3.40819e-18)
(2.14376 1.14369 -5.58866e-18)
(0.789468 -0.202631 -5.42641e-20)
(1.51368 0.0205546 -2.61263e-19)
(1.49401 0.209945 3.31485e-20)
(1.854 0.537905 -2.61873e-18)
(2.58301 0.900063 1.60936e-18)
(0.764678 -0.381326 4.78268e-18)
(1.33142 -0.0494951 3.68951e-35)
(1.29616 0.112884 -2.04541e-18)
(1.61459 0.291732 2.86152e-18)
(2.46249 0.526705 5.06522e-18)
(0.627072 -0.281682 1.76752e-19)
(0.830796 -0.0602044 2.71564e-19)
(0.812597 0.0427125 3.1571e-19)
(1.08304 0.115375 6.57694e-19)
(1.75698 0.218802 -8.65386e-18)
(0.319675 -0.0419052 -4.20292e-18)
(0.324896 -0.00321614 1.67288e-19)
(0.294402 -0.00394452 9.67717e-19)
(0.396128 -0.0228007 -8.31802e-19)
(0.684615 0.000314139 -1.45878e-18)
(2.34643 1.12086 4.67241e-18)
(2.78576 1.01212 3.46828e-18)
(3.1401 0.802801 -5.71977e-18)
(3.41882 0.518936 -1.46764e-17)
(3.58287 0.185272 1.5848e-17)
(3.07403 1.0143 4.96746e-18)
(3.35007 0.791977 2.56187e-17)
(3.55327 0.558364 7.2469e-18)
(3.69701 0.330101 -3.08502e-17)
(3.77292 0.110076 -5.17094e-18)
(2.9065 0.589971 -7.28877e-18)
(2.98497 0.446635 -3.40339e-18)
(3.04976 0.311222 -6.35234e-18)
(3.09188 0.181317 -6.90777e-18)
(3.11018 0.0583126 6.53476e-18)
(2.10353 0.26561 5.41132e-18)
(2.12701 0.205755 -4.0993e-19)
(2.15922 0.143117 4.87693e-18)
(2.17971 0.0821839 6.30048e-18)
(2.18731 0.0260188 -5.89676e-18)
(0.841031 0.0222051 -5.70815e-19)
(0.850487 0.015718 3.51973e-18)
(0.867245 0.00915607 2.44579e-18)
(0.876155 0.00480039 -5.17396e-18)
(0.878533 0.00136559 -3.84909e-20)
(0.284905 0.0209425 5.55852e-19)
(0.662842 0.0408327 -7.49111e-19)
(0.980884 0.0444737 -8.06492e-19)
(0.952167 0.0277657 -1.51384e-18)
(0.704597 0.0166073 -6.6105e-19)
(0.248267 0.0559528 7.54523e-19)
(0.596974 0.108072 1.43084e-18)
(0.871918 0.126295 -7.06783e-19)
(0.947407 0.0980025 1.95808e-18)
(0.730825 0.053932 -2.68882e-18)
(0.187734 0.0748885 5.00875e-19)
(0.481084 0.147259 -1.37416e-18)
(0.713979 0.186376 -9.1214e-19)
(0.86398 0.176787 -1.81765e-18)
(0.747897 0.102306 -2.87166e-18)
(0.12476 0.0781164 -7.66447e-19)
(0.348214 0.161991 -1.36406e-18)
(0.539443 0.216801 4.36025e-18)
(0.683193 0.235 -3.65699e-19)
(0.71914 0.181473 2.20532e-18)
(0.0762668 0.073114 -6.2441e-19)
(0.233006 0.162175 1.52349e-18)
(0.375568 0.226474 5.43053e-19)
(0.485857 0.258687 -1.25271e-18)
(0.565044 0.259329 -1.81574e-19)
(0.0459114 0.0649654 4.34934e-20)
(0.152145 0.15108 -1.08529e-18)
(0.250532 0.211427 -6.87227e-19)
(0.327794 0.230358 -3.25487e-19)
(0.378057 0.220983 -4.29154e-20)
(0.0259477 0.056646 3.04476e-19)
(0.0971047 0.131884 2.83072e-19)
(0.162987 0.16996 -3.90929e-19)
(0.217144 0.174226 2.47969e-19)
(0.262159 0.162717 1.70044e-19)
(0.0120172 0.0458758 1.91366e-19)
(0.0608292 0.089954 2.57818e-18)
(0.10601 0.0874915 -1.66241e-18)
(0.149129 0.0716512 -3.16967e-18)
(0.191162 0.0505504 5.73979e-19)
(0.0111848 0.0281275 -3.58006e-19)
(0.0446855 0.00707616 -1.93736e-18)
(0.0808447 -0.0212434 3.42311e-18)
(0.123455 -0.0528868 1.5773e-18)
(0.167313 -0.0854605 -3.31946e-19)
(-0.0027901 -0.0299506 7.06373e-20)
(0.0331443 -0.0892063 -2.9921e-19)
(0.0733546 -0.139318 8.70238e-20)
(0.122011 -0.188168 9.93015e-20)
(0.172965 -0.233965 -2.20898e-19)
(0.390484 0.0611114 -4.01422e-20)
(0.652756 -0.0383459 -9.39969e-19)
(0.752447 -0.0285391 2.58474e-19)
(0.809945 -0.0135923 3.55455e-19)
(0.84008 -0.00414304 3.65158e-20)
(0.356482 -0.0625963 9.52797e-21)
(0.788822 -0.113157 1.03398e-18)
(0.942739 -0.0493054 9.98419e-19)
(1.02293 -0.0224048 1.10474e-19)
(1.06714 -0.00669191 -1.01282e-19)
(0.365199 -0.178586 -7.14099e-19)
(0.853623 -0.186411 2.21136e-18)
(1.05032 -0.0839369 -2.31606e-19)
(1.15808 -0.0391356 -5.45654e-19)
(1.21182 -0.0110793 1.78183e-19)
(0.396814 -0.321529 1.0316e-18)
(0.890308 -0.276327 -1.19463e-18)
(1.0912 -0.12511 -5.45041e-19)
(1.1901 -0.0567308 -5.63812e-20)
(1.23727 -0.0156582 -1.35336e-20)
(0.458767 -0.473611 4.38329e-19)
(0.923571 -0.368013 -3.52826e-19)
(1.12811 -0.164437 4.22487e-19)
(1.20844 -0.0721866 2.16217e-19)
(1.24744 -0.0197195 -1.0997e-20)
(0.183282 -0.0458315 9.26234e-19)
(0.150861 -0.00367486 0)
(0.174481 0.00355422 1.25894e-19)
(0.186471 0.0023746 8.47044e-20)
(0.191368 0.000872183 -1.24695e-19)
(0.417294 0.0684988 0)
(0.426389 -0.00292058 0)
(0.502175 -0.0118092 2.66919e-19)
(0.538645 -0.00540259 2.21503e-19)
(0.554554 -0.00169603 -8.25153e-21)
(0.164508 -0.000825309 -3.70431e-19)
(0.188397 -0.00174894 3.10983e-18)
(0.215252 -0.00483832 -6.84052e-19)
(0.231631 -0.0147005 -3.09386e-18)
(0.246945 -0.0165435 -7.67296e-19)
(0.436559 0.00451683 6.11924e-19)
(0.489347 0.0200093 4.10588e-18)
(0.541346 0.0473212 -6.68836e-18)
(0.572725 0.0813586 2.20515e-18)
(0.604361 0.16415 3.84639e-18)
(0.377963 -0.218859 -4.32813e-19)
(0.327306 -0.228661 -2.84373e-20)
(0.250938 -0.211431 -1.39672e-19)
(0.152813 -0.152271 3.22645e-19)
(0.0464308 -0.0655714 1.17324e-19)
(0.266306 -0.152981 5.11774e-19)
(0.219394 -0.165312 1.72694e-18)
(0.164571 -0.163844 4.7427e-19)
(0.0985769 -0.130838 2.43711e-19)
(0.0264069 -0.0572388 1.82063e-20)
(0.200205 -0.0322858 -4.36087e-19)
(0.155181 -0.0537705 -8.99149e-20)
(0.109542 -0.0715796 1.91044e-18)
(0.0636056 -0.0789071 4.26634e-19)
(0.0126471 -0.0445051 -3.25362e-19)
(0.176312 0.110915 -8.84013e-19)
(0.129313 0.0787804 -8.57477e-19)
(0.0837288 0.046654 1.42745e-18)
(0.0453993 0.0171829 1.8042e-18)
(0.0132683 -0.0122252 2.693e-19)
(0.177699 0.266885 3.14209e-20)
(0.123858 0.221566 -1.84675e-19)
(0.0724118 0.171221 2.16422e-19)
(0.0294337 0.115314 4.64995e-19)
(-0.00665837 0.0423432 3.72883e-20)
(0.704592 -0.0165633 1.53948e-18)
(0.952168 -0.0277473 -1.79846e-18)
(0.980696 -0.044607 2.2741e-18)
(0.662856 -0.0408987 3.75211e-19)
(0.284941 -0.0209518 5.40253e-19)
(0.730807 -0.0538331 1.79056e-18)
(0.947252 -0.0980228 7.92974e-18)
(0.871723 -0.126407 1.03211e-18)
(0.597033 -0.108119 1.35302e-18)
(0.24837 -0.0559762 -4.81448e-19)
(0.747774 -0.102097 -1.27135e-18)
(0.863403 -0.176655 -2.28497e-18)
(0.713909 -0.186445 2.91653e-18)
(0.481169 -0.147337 -1.00004e-19)
(0.187871 -0.0749318 3.33397e-19)
(0.718595 -0.181336 5.36193e-20)
(0.682607 -0.234986 -7.66828e-18)
(0.539465 -0.217077 -5.94191e-18)
(0.348363 -0.162279 1.07062e-18)
(0.124948 -0.0782191 5.0586e-19)
(0.563461 -0.258429 4.86504e-19)
(0.485175 -0.25844 5.19439e-19)
(0.375674 -0.227048 -8.62214e-19)
(0.233303 -0.162867 -8.63173e-19)
(0.0765941 -0.0733553 -5.0146e-21)
(0.70845 0.363632 1.08132e-18)
(0.987421 0.104259 -8.793e-20)
(0.761274 0.0356368 2.30977e-19)
(0.669174 0.0416738 -5.37082e-19)
(0.4059 -0.0575559 -7.432e-20)
(0.786207 0.373819 -1.52676e-19)
(1.24808 0.121321 -8.34292e-19)
(0.960258 0.0686583 4.89316e-19)
(0.815309 0.11579 1.30692e-18)
(0.379411 0.071086 1.93908e-20)
(0.805556 0.306038 -1.88529e-18)
(1.37565 0.131641 -6.76491e-20)
(1.06215 0.109648 1.00442e-19)
(0.884597 0.190032 1.00346e-18)
(0.391103 0.191939 -1.00474e-18)
(0.802778 0.24488 1.65484e-18)
(1.36015 0.144746 8.64388e-20)
(1.09331 0.151798 -1.46205e-19)
(0.918987 0.279036 1.74792e-19)
(0.420044 0.338424 -2.74786e-19)
(0.796525 0.193563 2.719e-19)
(1.34512 0.151389 -1.46939e-19)
(1.11952 0.187099 -8.11482e-20)
(0.949161 0.368616 2.45775e-19)
(0.474872 0.494373 1.39534e-18)
(0.272571 0.0477281 0)
(0.259489 -0.00608624 5.63341e-19)
(0.175266 -0.0162939 1.17936e-19)
(0.155328 0.00337564 -2.67657e-19)
(0.184866 0.0448271 -1.76892e-18)
(0.563559 0.258974 -1.00545e-17)
(0.669791 0.0668179 -2.01159e-18)
(0.503805 0.0171064 8.93645e-19)
(0.436464 0.00486496 -5.51056e-19)
(0.421149 -0.06659 -5.52099e-19)
(0.247159 0.0165523 1.41469e-20)
(0.231745 0.0147914 1.90439e-18)
(0.21534 0.00488676 5.2825e-19)
(0.18845 0.00175996 3.18606e-19)
(0.164524 0.000829365 0)
(0.604762 -0.163879 -2.64205e-19)
(0.573088 -0.0811621 2.52287e-18)
(0.541425 -0.0471232 -1.75463e-19)
(0.489403 -0.0199559 -2.87069e-19)
(0.436582 -0.00449399 7.66366e-19)
)
;

boundaryField
{
    left
    {
        type            fixedValue;
        value           uniform (1 0 0);
    }
    right
    {
        type            zeroGradient;
    }
    down
    {
        type            noSlip;
    }
    up
    {
        type            noSlip;
    }
    cylinder
    {
        type            noSlip;
    }
    defaultFaces
    {
        type            empty;
    }
}


// ************************************************************************* //
