/*--------------------------------*- C++ -*----------------------------------*\
  =========                 |
  \\      /  F ield         | OpenFOAM: The Open Source CFD Toolbox
   \\    /   O peration     | Website:  https://openfoam.org
    \\  /    A nd           | Version:  13
     \\/     M anipulation  |
\*---------------------------------------------------------------------------*/
FoamFile
{
    format      ascii;
    class       volScalarField;
    location    "0.3";
    object      p;
}
// * * * * * * * * * * * * * * * * * * * * * * * * * * * * * * * * * * * * * //

dimensions      [0 2 -2 0 0 0 0];

internalField   nonuniform List<scalar>
1800
(
-1.56032742513
-1.57260188516
-1.52506737413
-1.43728640586
-1.33783574079
-1.24288938084
-1.15813536491
-1.08364963378
-1.01822684203
-0.96563849582
-1.76001518674
-1.77310812857
-1.71738021823
-1.61749151155
-1.5056575153
-1.39929559065
-1.3045042521
-1.22170843848
-1.15048834014
-1.09282685987
-1.95175497629
-1.96495846663
-1.90007492929
-1.7877812815
-1.66355311509
-1.54567820421
-1.44038705177
-1.34799690206
-1.26760054298
-1.19992480511
-2.13022162552
-2.14285116945
-2.06825733689
-1.94405216241
-1.80854223482
-1.68057851477
-1.56636181927
-1.46600571201
-1.37843354593
-1.30407537703
-2.28942004183
-2.30072333227
-2.21589433615
-2.08041320378
-1.93455247013
-1.79746778442
-1.67510581258
-1.56738221216
-1.47306560835
-1.39193619289
-2.42412077838
-2.43342954966
-2.33828564005
-2.19269997695
-2.03797731449
-1.89332759681
-1.76434355151
-1.65069159141
-1.55094890314
-1.46449892711
-2.52907523946
-2.53575607455
-2.43049547297
-2.27626161634
-2.11423537434
-1.96359117365
-1.82942634498
-1.71114316387
-1.60715484454
-1.51646824592
-2.5999573274
-2.60351372519
-2.48878303886
-2.32766266762
-2.16005976208
-2.00518109526
-1.86744033574
-1.74596708877
-1.63900352193
-1.54523915315
-2.63328044562
-2.63331079369
-2.51024947172
-2.343960827
-2.17258532645
-2.01531597165
-1.87560280392
-1.75240608153
-1.64379531946
-1.54813174475
-2.6269290021
-2.62341693028
-2.49298164584
-2.32378664914
-2.15005478888
-1.99215347146
-1.85194958663
-1.72832218002
-1.61925978723
-1.52283759122
-0.139190993521
-0.129484355541
-0.1182309769
-0.104669470655
-0.0930909262395
-0.0857948158489
-0.0827899726766
-0.0833072665368
-0.0865619591868
-0.0919236229049
-0.186601567833
-0.178181750183
-0.166081130904
-0.150112094183
-0.135359200611
-0.124762413849
-0.118626908399
-0.11624814421
-0.116838475621
-0.119590067327
-0.260008937033
-0.253466111299
-0.24004163464
-0.220416206659
-0.200838479377
-0.18523119658
-0.174347662083
-0.167582504268
-0.164135246187
-0.162903446569
-0.358509440414
-0.354270855014
-0.338995118864
-0.314475570653
-0.288535058294
-0.266348109763
-0.249245650056
-0.236755774266
-0.2280489212
-0.221612799996
-0.480802218464
-0.479133463067
-0.461422610585
-0.430809611483
-0.397104000828
-0.366956536558
-0.342363354018
-0.323012171825
-0.308031172657
-0.295384830898
-0.625032063908
-0.62606036734
-0.605283575272
-0.567456161414
-0.524775502714
-0.485518759668
-0.452405239889
-0.425304529367
-0.403289611753
-0.383707188856
-0.788641193032
-0.792388590429
-0.767911440792
-0.721909225979
-0.669331589661
-0.62013563193
-0.577789477412
-0.542358471366
-0.512829770631
-0.485961203126
-0.968217871698
-0.974612681868
-0.945811239157
-0.890891862344
-0.827855080711
-0.768330886501
-0.716502299304
-0.672612970685
-0.635461000814
-0.601448453414
-1.15956838684
-1.16838548982
-1.1344524602
-1.06974145515
-0.995613686988
-0.925355192525
-0.863845712476
-0.811452814682
-0.766610990848
-0.72602128703
-1.35838102268
-1.36920115836
-1.32898874084
-1.25316780317
-1.16667605003
-1.08437586006
-1.01173427519
-0.949138345603
-0.894864439131
-0.84763255469
-0.1347984264
-0.212000841959
-0.280812449998
-0.331018114599
-0.369433947934
-0.400295142207
-0.426921025127
-0.451188139098
-0.474204115367
-0.496623371598
-0.14630909533
-0.220061364557
-0.284539740054
-0.333083389179
-0.370840084589
-0.401368298656
-0.427739927123
-0.451770541867
-0.474557100353
-0.496751473669
-0.164234006983
-0.232615572409
-0.29030576498
-0.336019753563
-0.372579407033
-0.402552574175
-0.428578598241
-0.452339296955
-0.474893208464
-0.496873509454
-0.189526811403
-0.249156154316
-0.298025508571
-0.339814725389
-0.374661867492
-0.403857775278
-0.429444036635
-0.452900255322
-0.475216096521
-0.496989995349
-0.223580334998
-0.268971765206
-0.307555401181
-0.344443881964
-0.377088425944
-0.405287683727
-0.430342528286
-0.453458780143
-0.475529223131
-0.49710168119
-0.268124114038
-0.291201560008
-0.318668269716
-0.349857634695
-0.379859120954
-0.406848338518
-0.431279218333
-0.454019919702
-0.475835611902
-0.497208754324
-0.325067443323
-0.315032916235
-0.330991909762
-0.355974744022
-0.382965211533
-0.408542666569
-0.432259021453
-0.454588355784
-0.476138026792
-0.497311142551
-0.396243072872
-0.34119421662
-0.344248580395
-0.362710080143
-0.386395863954
-0.41037396377
-0.433286281496
-0.455168745238
-0.47643967297
-0.49740871446
-0.482067555295
-0.371721876887
-0.358760601106
-0.370200945885
-0.390236620448
-0.412386146936
-0.434381818606
-0.455771188762
-0.476744133362
-0.497501580306
-0.575854489225
-0.406216422149
-0.374268190381
-0.378309092446
-0.394448949771
-0.414575922572
-0.435548309078
-0.456402064666
-0.477057021275
-0.49758552282
-0.635309690498
-0.442941343038
-0.392712549014
-0.389783467256
-0.401509388138
-0.418848703143
-0.438144592254
-0.457957945064
-0.47786952739
-0.497785086669
-0.658607096504
-0.480082964479
-0.418542637824
-0.406842218439
-0.412518221911
-0.425834014206
-0.44255358565
-0.460666829853
-0.479331729853
-0.498231321456
-0.664270627865
-0.501832157658
-0.437079735861
-0.420814129013
-0.42232971045
-0.432385979873
-0.446801655857
-0.463310352826
-0.480773276709
-0.498678241704
-0.666108240887
-0.519849660629
-0.454000293168
-0.433710011985
-0.431530145537
-0.438644688838
-0.450909316085
-0.465884581324
-0.48218772391
-0.499122514401
-0.663482140378
-0.532828595535
-0.468291083789
-0.445131214383
-0.439921522399
-0.44447671448
-0.454789912592
-0.468335952392
-0.483545523279
-0.499554489345
-0.65897180305
-0.542737542907
-0.480447444419
-0.455193493465
-0.447461255194
-0.449799398981
-0.458370127584
-0.470615468917
-0.48481973894
-0.499965829854
-0.654612353584
-0.550697659043
-0.490777571882
-0.463950906528
-0.454105636031
-0.454538262533
-0.461585164436
-0.472677721255
-0.485986046287
-0.500349615505
-0.651759845437
-0.557751818849
-0.499704499229
-0.47150494242
-0.459833850316
-0.458636532394
-0.464378965344
-0.474481669521
-0.487022536055
-0.50069775517
-0.649582699285
-0.564469998887
-0.50811419125
-0.478512639533
-0.465091592309
-0.462380339031
-0.46693477722
-0.476145429818
-0.488016516517
-0.501057290541
-0.658764808059
-0.571701120198
-0.514662920426
-0.483512876143
-0.468713086691
-0.464925769136
-0.468662652527
-0.477264062766
-0.488679724995
-0.501293950969
-1.36182332791
-1.38642475861
-1.38793648857
-1.36751312972
-1.32731016275
-1.26999540182
-1.19931940118
-1.11639543224
-1.02863497025
-0.932027278275
-1.18927769395
-1.21544611623
-1.22279160337
-1.21266848893
-1.1859799897
-1.14620489022
-1.09452367184
-1.03502206002
-0.971525056638
-0.903325476964
-1.0568047917
-1.08248532717
-1.09293231438
-1.08938225241
-1.07182102944
-1.04429623256
-1.00574085788
-0.961834692463
-0.912673732905
-0.859564867394
-0.954161551119
-0.980133119178
-0.992817049754
-0.993455024281
-0.98191245061
-0.961984147046
-0.932140920115
-0.898170526286
-0.858803492996
-0.816662030302
-0.876477156342
-0.902214985009
-0.916288491732
-0.919672455276
-0.912379373175
-0.897516491088
-0.874028634237
-0.847005204967
-0.814997847065
-0.780963227193
-0.817115008314
-0.842929144659
-0.858174448287
-0.863590377681
-0.859446823438
-0.848172181435
-0.82935766766
-0.80720885508
-0.780369828147
-0.751856045967
-0.773013433133
-0.799122770663
-0.8153620241
-0.822314903343
-0.820480890882
-0.811741779371
-0.796224503292
-0.777395663787
-0.754219125417
-0.72960800517
-0.741715159911
-0.768486349595
-0.78581232769
-0.794088523698
-0.793988962568
-0.787028747369
-0.773703969388
-0.756923290815
-0.736051642277
-0.714065772083
-0.725101433078
-0.751912883568
-0.770208659791
-0.779912246776
-0.781347452873
-0.77560026696
-0.763322662702
-0.746836883333
-0.726211428306
-0.702944037661
-0.713107764026
-0.743152376197
-0.764593763098
-0.777815870005
-0.783326064332
-0.78179400574
-0.774012461258
-0.761007175715
-0.743040515293
-0.72030608968
-0.0795786312445
-0.133065194325
-0.197632314406
-0.267524320935
-0.342931624863
-0.426778664276
-0.520659503282
-0.620667904256
-0.707179569702
-0.734952234704
-0.267220446413
-0.325866341906
-0.393614277444
-0.468606575595
-0.552376601656
-0.647348046719
-0.754234279899
-0.868205864153
-0.966566122628
-0.996370639471
-0.478423401393
-0.540725780859
-0.610907055479
-0.689878784571
-0.779718792357
-0.882553703566
-0.998872473693
-1.12359389746
-1.23159520735
-1.26197304106
-0.677559437904
-0.744865595451
-0.820787603475
-0.906791403915
-1.00472397284
-1.1165980255
-1.24287644731
-1.37844431068
-1.49600816877
-1.52584778309
-0.855555548827
-0.929715300983
-1.01334665017
-1.10795988285
-1.21533370041
-1.33749314384
-1.47473505429
-1.62175309305
-1.74946920404
-1.77728946052
-1.01563992567
-1.09669181107
-1.18790943004
-1.29090354129
-1.40751895846
-1.5397764841
-1.6875595878
-1.84494713168
-1.98294470538
-2.00575445308
-1.15959662617
-1.24626757313
-1.34389050865
-1.4541033785
-1.57878361963
-1.7198296138
-1.87703657231
-2.0433796685
-2.1880158972
-2.20393833692
-1.28496482463
-1.37593909147
-1.47865589575
-1.59467210348
-1.72592311759
-1.87413520914
-2.03781724316
-2.21195352249
-2.36027284434
-2.36415242104
-1.38789476936
-1.4822844411
-1.58898631307
-1.70930993933
-1.84507001056
-1.99875417686
-2.16933531515
-2.3463470566
-2.4856736038
-2.49137623213
-1.46673816506
-1.56344437223
-1.67266045744
-1.79624860664
-1.93440557524
-2.09111009329
-2.26791202034
-2.43708320374
-2.57310529919
-2.57995004603
1.02871228257
1.0429261821
1.05906658955
1.07553983354
1.09093978715
1.10438026723
1.11507276454
1.12245831227
1.12762583729
1.13283419119
0.97879930263
0.991105887119
1.00482778905
1.01844260154
1.0306823275
1.04063549372
1.0474846533
1.0508815581
1.05268619875
1.05605006342
0.909349791421
0.918966033565
0.929187197822
0.938674673535
0.946337759214
0.951244009895
0.952513226858
0.950128429753
0.947132486291
0.947751895467
0.821077412513
0.827258671074
0.832983602962
0.837175498255
0.838952216613
0.837385712757
0.831509028047
0.821650823714
0.812485505484
0.80944935126
0.71479164035
0.716951534684
0.717407330138
0.715317286413
0.710117137839
0.700809203356
0.686362734418
0.667482737354
0.650414334274
0.644139943899
0.59159363857
0.589469440538
0.584125752713
0.574970407664
0.561786422092
0.543601355176
0.519331842943
0.490082222981
0.463760053318
0.4539592711
0.453589929939
0.447378522323
0.436104637883
0.419362317586
0.397404841312
0.369354863463
0.334113288064
0.293291312788
0.256650344399
0.243080135337
0.307605567962
0.296728679809
0.278173917456
0.25231852564
0.22008586365
0.180721789453
0.133119996785
0.0794186270275
0.0314987432454
0.0141827242532
0.161155436935
0.145348816046
0.118423678163
0.081864201329
0.0376764718723
-0.0147389889189
-0.0764217586784
-0.144607997633
-0.204962959633
-0.2260784485
0.0307378014127
-0.00121064959884
-0.0447323110552
-0.0963784328554
-0.154590558674
-0.221017878419
-0.297271996905
-0.380225664183
-0.453040866248
-0.477587629548
0.854169413569
0.97448967826
0.955099921494
0.771284625858
0.78207451216
0.792290795673
0.801107332881
0.822310219429
0.863763354171
0.967753642854
0.84834010736
0.97026820049
0.950304822578
0.765449404766
0.775800596172
0.784628291064
0.791185400337
0.80907801898
0.844430211237
0.934627026653
0.842825600931
0.966360841295
0.945419741417
0.758608644027
0.768947406431
0.776150782723
0.779724120719
0.793330930065
0.819766180124
0.889876888778
0.837587970859
0.962837899826
0.940406902883
0.750793721627
0.761606020808
0.766915520756
0.766724043367
0.774894064778
0.789215867182
0.833946684217
0.832708901107
0.959690440065
0.935230654728
0.742050432423
0.753843004183
0.756893290834
0.752199572792
0.753556109893
0.75274937315
0.766678633616
0.828224397141
0.956935732745
0.9298523366
0.732457990376
0.745751452135
0.746105191016
0.736160118641
0.729203197133
0.71130234373
0.686620247763
0.824221126842
0.954583988094
0.924196280602
0.722088826891
0.737412133137
0.734529715975
0.718572371297
0.70193935648
0.666592553864
0.590723569751
0.820761380835
0.952612678923
0.918212151646
0.711072572667
0.728909025929
0.722151729609
0.69944277983
0.671774099015
0.617885049255
0.480955419854
0.817971047361
0.950979491035
0.911814907917
0.699548657306
0.720291154748
0.708964886755
0.678886309581
0.638644156519
0.563213796333
0.35412299436
0.816147871314
0.949720178351
0.905047166593
0.687708399308
0.711544826936
0.694982643966
0.657281267666
0.604035013228
0.504711577629
0.225783994552
0.814288054169
0.947419962268
0.900621559584
0.676831051405
0.699086825833
0.676665802963
0.62890626692
0.559609695751
0.439704706144
0.105080087572
0.814174594719
0.944301167495
0.899609130748
0.668675765023
0.684262367396
0.656895054309
0.599999750929
0.517978837771
0.381384985874
0.0678760472018
0.816136870638
0.941972099075
0.898649086356
0.66151746164
0.670647194746
0.638546048381
0.573831300108
0.482352490075
0.333231539075
0.0411546491833
0.820384794982
0.940681135033
0.89781057853
0.655376093039
0.658561115646
0.622048032042
0.550842590877
0.452404721137
0.294262099446
0.02519051594
0.828053222419
0.940587056874
0.897196048523
0.650266350778
0.648177753409
0.607720944814
0.531351206757
0.427728823145
0.264243994996
0.0163004046398
0.839988861872
0.941675703825
0.896842539336
0.646199567419
0.639621838938
0.595755666924
0.515390975411
0.407998690091
0.242331763954
0.011963095945
0.85696047128
0.943731303303
0.896646019789
0.643149562265
0.632949969086
0.586253723251
0.502986398024
0.39296272226
0.227271684725
0.0108355094527
0.87750671905
0.947224787771
0.896687933712
0.641095263186
0.628231250043
0.579249876742
0.494056868359
0.38238255331
0.217866630927
0.0124109992831
0.891502726151
0.94781518371
0.893776241446
0.640267182315
0.625670208048
0.574970076198
0.488791219766
0.376439591562
0.213651365982
0.018001789244
0.950554647861
0.958601326143
0.897304860083
0.638498591581
0.625728185688
0.573246975736
0.486786225695
0.374117578847
0.213126243216
0.0214705590419
-0.113946070713
-0.270560680849
-0.452794478711
-0.625055302113
-0.777547859768
-0.914877249876
-1.04028658847
-1.151151733
-1.2431821497
-1.31432155989
-0.179513658435
-0.297696344927
-0.433876713372
-0.569197062207
-0.6926274716
-0.804714830672
-0.908139792467
-1.00130792588
-1.08120456931
-1.14461814567
-0.206118159218
-0.299972392136
-0.403414088182
-0.513867022866
-0.619876753717
-0.717471750569
-0.807711958167
-0.889579699828
-0.960011080013
-1.016140838
-0.210523787415
-0.292392226437
-0.37820846238
-0.471453634762
-0.563718035791
-0.649425176683
-0.728632314331
-0.800870296368
-0.863786369032
-0.915241351905
-0.203520330949
-0.278470584967
-0.353589003237
-0.434536941147
-0.516659985509
-0.594281632976
-0.666338009831
-0.732427154552
-0.790741275667
-0.839252031789
-0.191949844432
-0.26234071463
-0.330898627378
-0.403795312148
-0.478900895246
-0.550898986632
-0.618008017255
-0.679757634816
-0.734675085312
-0.780910966559
-0.179684306804
-0.246827287309
-0.311048903632
-0.378673584424
-0.449048402848
-0.517203178833
-0.580968569956
-0.639792648173
-0.692429284886
-0.737262306967
-0.168124917234
-0.233102355363
-0.29445652672
-0.358867040308
-0.426414301202
-0.492251539273
-0.554015534125
-0.611093378506
-0.662313538595
-0.706193546767
-0.154460913543
-0.217830267529
-0.27795189296
-0.341620271557
-0.408696305181
-0.474308397457
-0.536084075092
-0.593363691685
-0.644990903899
-0.689377931579
-0.137153071515
-0.196046026838
-0.254694783388
-0.319000512748
-0.386624691166
-0.452847073672
-0.515769012097
-0.574539482114
-0.627857746657
-0.674368391039
-3.78001327865
-3.7604722158
-3.5784569182
-3.36650918451
-3.16357221648
-2.98851963732
-2.84182351468
-2.72083388139
-2.62353061364
-2.54933291983
-3.83019142985
-3.82105550091
-3.65413821
-3.44447404748
-3.24017564869
-3.06186610004
-2.91212696163
-2.78848017867
-2.68939849881
-2.61575927363
-3.76785870408
-3.76936601139
-3.61932943702
-3.41446402829
-3.20916022675
-3.02770303199
-2.87492244067
-2.74849584248
-2.64647663322
-2.56953582001
-3.60048149106
-3.61072394336
-3.47949210753
-3.28182440539
-3.07661817777
-2.89237087431
-2.73643722414
-2.60722032285
-2.50220936167
-2.42052548562
-3.34421271832
-3.36076480622
-3.24857207315
-3.06115285731
-2.85876896488
-2.67366775417
-2.51582949965
-2.38469047594
-2.27760444021
-2.19258451682
-3.02133695397
-3.04200237597
-2.94769261899
-2.77403158919
-2.57915741299
-2.39741633536
-2.24095674798
-2.11037786154
-2.00317183554
-1.91823332574
-2.6583326619
-2.68074243042
-2.60259806735
-2.44648660334
-2.26537854552
-2.093333542
-1.94366810957
-1.81815518757
-1.71417106387
-1.63298369785
-2.28194301171
-2.30373417475
-2.23971651854
-2.10400604203
-1.94247502268
-1.78658060295
-1.64952893657
-1.53383554225
-1.43741265717
-1.36291566995
-1.91593899293
-1.9352580641
-1.88336376992
-1.76932750064
-1.63136080119
-1.49681631673
-1.37777401998
-1.27695085813
-1.19271297698
-1.13130509651
-1.57664411403
-1.59252159608
-1.55058305121
-1.4571822734
-1.34320505777
-1.2313407208
-1.13168186668
-1.0463583372
-0.972672799757
-0.91705192401
-1.27329917793
-1.28539479663
-1.25152610691
-1.17671944397
-1.08556756997
-0.996506248797
-0.917893474643
-0.851732360548
-0.795897685193
-0.74774217508
-1.00919900374
-1.01731882127
-0.98984059301
-0.930674056814
-0.859155034199
-0.789896969926
-0.729326195295
-0.678775956628
-0.636958760988
-0.598547735757
-0.783297055582
-0.787547488757
-0.764944241491
-0.718304013459
-0.662686357185
-0.609501132796
-0.563467411042
-0.525296048521
-0.494170449443
-0.465219986308
-0.593530444876
-0.594234421581
-0.575439559538
-0.538976583472
-0.496520280459
-0.45684981528
-0.423295643046
-0.396082106049
-0.374466148765
-0.354750853718
-0.437932480064
-0.435490918163
-0.419667792919
-0.391418493299
-0.359759037341
-0.331285837639
-0.308199902373
-0.290347493038
-0.276949478738
-0.265402285965
-0.314665763814
-0.309498732475
-0.295872527358
-0.273969078572
-0.250777288924
-0.231143590928
-0.216376125632
-0.206056094797
-0.199388033666
-0.19459612473
-0.222172912942
-0.214755896359
-0.202635533816
-0.1853506553
-0.168425932783
-0.155377216292
-0.146849297403
-0.142237105705
-0.140749589065
-0.141179628292
-0.159221978725
-0.15013541634
-0.138929789864
-0.124699252784
-0.111974988411
-0.103371732019
-0.0990769717653
-0.0983724832065
-0.100471036638
-0.104528094929
-0.12484735344
-0.114780807299
-0.104002320764
-0.0913756741196
-0.0808952835543
-0.0746811662081
-0.072678243886
-0.0741037906939
-0.0781768465206
-0.0842569078483
-0.118457409159
-0.108186277016
-0.0973521507054
-0.0848962618123
-0.0747608019306
-0.0689514467305
-0.0673506864059
-0.0691615651653
-0.0736032393597
-0.080098377582
-0.464717421457
-0.35089906203
-0.343707855538
-0.353300706747
-0.370964072026
-0.393233052542
-0.417772235474
-0.44315315247
-0.468884930902
-0.494769880817
-0.367604632653
-0.320225177445
-0.330470750667
-0.347672967693
-0.369681836052
-0.393804386509
-0.418908229226
-0.444237679265
-0.469622565336
-0.495020209007
-0.291769745895
-0.295754836215
-0.319732492963
-0.343722472949
-0.368762610608
-0.394404861427
-0.419979533108
-0.445244745307
-0.470303994906
-0.495252579108
-0.235914111718
-0.275321787746
-0.309770497632
-0.339692728222
-0.367966485382
-0.395001033529
-0.420981173549
-0.446177057354
-0.470933014119
-0.49546831717
-0.195089290443
-0.257145363049
-0.300643893344
-0.336222095307
-0.367386343042
-0.395610221858
-0.421923485774
-0.447041328661
-0.471513758227
-0.495668755716
-0.166219418788
-0.240636608479
-0.292788479212
-0.333413422515
-0.367041772391
-0.396246650485
-0.422816555498
-0.447844619684
-0.472050032832
-0.495855431446
-0.146741943462
-0.226790560779
-0.286514810844
-0.331321848913
-0.366948774582
-0.396922170324
-0.423671514976
-0.448593486537
-0.472545844344
-0.49602953309
-0.134743031859
-0.216253834706
-0.282059815612
-0.329999333921
-0.36712705804
-0.397650591222
-0.424499018108
-0.449295394918
-0.47300519463
-0.496192200053
-0.129134580138
-0.210170462995
-0.279585406673
-0.329491363684
-0.367589344831
-0.398446912399
-0.425309765561
-0.449957216931
-0.473431963555
-0.4963447045
-0.129146053712
-0.208693583162
-0.279159366704
-0.329823167395
-0.368354622429
-0.399324251466
-0.426113867711
-0.450585868095
-0.473830323512
-0.496487924273
-0.678344542264
-0.478932334462
-0.404896549823
-0.382314797445
-0.383094303377
-0.39710049323
-0.418145539807
-0.442332219161
-0.467952525102
-0.49433508748
-0.633224159529
-0.455537546961
-0.395266495663
-0.378483347904
-0.381307949882
-0.396745560371
-0.418159678493
-0.442457367606
-0.468086197434
-0.494397272707
-0.601887105214
-0.436251225415
-0.385767374234
-0.373982759679
-0.37963157441
-0.396072919216
-0.418061790676
-0.442570104747
-0.468238989282
-0.494474276096
-0.567199575843
-0.412718903159
-0.373661390963
-0.368025984118
-0.37717907105
-0.395039089954
-0.417796832163
-0.442605494599
-0.468348432594
-0.494532772831
-0.525369609962
-0.38064756809
-0.35712968312
-0.359727850995
-0.373465175577
-0.393669383148
-0.417392196574
-0.442581504394
-0.468427892255
-0.494578231881
-2.4809040645
-2.54989096696
-2.52292002945
-2.40623343789
-2.21361081587
-1.98319528669
-1.71711231638
-1.47558264257
-1.24380283274
-1.04280909953
-2.47795163286
-2.54445751095
-2.51060562589
-2.38693657203
-2.18998776912
-1.95854048021
-1.69670305965
-1.45624395809
-1.22584404837
-1.01248237135
-2.48015542381
-2.54514255013
-2.50600585522
-2.37460661144
-2.17021437452
-1.92661262538
-1.65699626821
-1.40190893392
-1.17239260184
-0.979698694414
-2.49072897092
-2.55659895949
-2.51340212035
-2.37245984582
-2.15594299162
-1.89579846427
-1.61899362704
-1.35663796152
-1.13371375885
-0.949643433777
-2.5102698918
-2.57727348061
-2.52990485235
-2.37948352046
-2.15083368486
-1.87744662106
-1.59434363252
-1.32829777531
-1.10324164136
-0.908601143555
0.458229640822
0.437210106723
0.406454985249
0.368889073963
0.326414114111
0.277582941217
0.220277069646
0.156553049678
0.100316256179
0.079285544269
0.579451919753
0.575058486603
0.561634827887
0.540221884277
0.512886341117
0.479142308532
0.437714185097
0.390477535987
0.348794864608
0.333772430181
0.701760331862
0.701829743106
0.696219480826
0.685252771278
0.669791839992
0.649136062145
0.622042820948
0.589835411086
0.561431683591
0.551728722032
0.811024254607
0.815312446469
0.816535859041
0.814290213126
0.808630889779
0.798672400546
0.783326926736
0.763441706003
0.745945953316
0.740485027198
0.902937553773
0.910741241698
0.917164136963
0.921584289127
0.923539736335
0.922096781749
0.916217060255
0.906364291048
0.897704846991
0.895693334512
0.974622139698
0.985587344055
0.996497699925
1.00643879345
1.01456442665
1.01997068222
1.0216719646
1.01976972929
1.01768209448
1.01910985643
1.02591389799
1.03931873568
1.05367227115
1.06777169151
1.08053013629
1.09102858339
1.09838939103
1.10236742403
1.1049954335
1.10925427984
1.05704557615
1.07200251161
1.08863114118
1.10547480431
1.12127968631
1.1351312003
1.14620173883
1.1540324485
1.15975666879
1.16560086711
1.06808492887
1.08361926548
1.10124118088
1.1193652639
1.13659421917
1.15202777551
1.16488574036
1.17453560604
1.18172361602
1.18814634661
1.05855028665
1.07384124216
1.09128654593
1.10926708044
1.12634190256
1.1416301974
1.15434436882
1.16383983759
1.17082361277
1.1770749495
-2.37839542899
-2.45532308196
-2.55182671238
-2.66983335837
-2.81272613357
-2.98392155631
-3.186335773
-3.39276074665
-3.59186472695
-3.61941506278
-2.12290062668
-2.20072437337
-2.29592895387
-2.41040607841
-2.548114387
-2.71222478854
-2.90229981249
-3.11259007838
-3.33952869932
-3.35874171295
-1.80591414626
-1.88200232343
-1.97501381971
-2.08613494863
-2.2188174141
-2.37632467307
-2.56083822387
-2.77062693266
-2.97134947656
-3.01973388409
-1.44737124722
-1.52297321091
-1.61447789602
-1.72254269908
-1.85001071816
-2.00027915856
-2.17583598692
-2.37321926847
-2.55647310906
-2.61728580431
-1.0769743112
-1.15388723988
-1.24401998129
-1.34791080893
-1.4682653923
-1.60852427866
-1.77120696812
-1.95218047184
-2.11878426137
-2.18112712179
-0.729563707128
-0.804422575654
-0.889687875447
-0.985832125531
-1.09554539398
-1.22227482958
-1.36848453082
-1.53009138371
-1.67793971089
-1.73593767201
-0.420638384696
-0.487896447234
-0.563535056962
-0.647918681939
-0.743773583123
-0.854453770409
-0.982176455108
-1.12295573504
-1.25083806117
-1.30173744849
-0.139804909056
-0.197044708806
-0.261742259463
-0.33361816055
-0.415506480905
-0.510754812915
-0.621127286237
-0.742533807917
-0.851674477325
-0.894884213222
0.126413220125
0.0781132952282
0.0200291160621
-0.0441202720823
-0.116169972018
-0.199422974323
-0.295393279948
-0.399978189548
-0.492484668148
-0.528423012995
0.351995147537
0.310569373856
0.255855403543
0.19655155163
0.133285115235
0.0629149370247
-0.0167858599014
-0.102724154277
-0.177767149517
-0.20630958052
0.946286592442
1.02591733102
0.979235001732
0.769607420534
0.819296885338
0.82543158088
0.819860771195
0.818232010395
0.781441166834
0.627014615348
0.93225900244
1.02126077396
0.980856061717
0.773983267985
0.816609718821
0.825687522578
0.823121751029
0.82890552572
0.810803118142
0.714370923969
0.919756163119
1.01617077912
0.981192699927
0.77779449708
0.813870119954
0.825138821636
0.826459289454
0.838572942004
0.836685314346
0.801845534073
0.908675504676
1.01079743102
0.980344497253
0.780820042661
0.81106282568
0.823805706751
0.828241134811
0.845661188316
0.856510231607
0.869163296021
0.898746680233
1.0052684963
0.978478975558
0.782870136956
0.808124350605
0.821657052189
0.828652092702
0.850337856918
0.871898246803
0.921152160121
0.889779482399
0.999734103087
0.975760943584
0.783824057993
0.804932571416
0.818713252623
0.827684371704
0.852176608271
0.883946330168
0.957792312513
0.881585609054
0.994277063965
0.972393063006
0.783620270432
0.801386306083
0.814997000015
0.825331974189
0.851199968142
0.890599553428
0.982520774572
0.874032671984
0.988971823321
0.968511049184
0.782251974815
0.797402056179
0.810516299287
0.821537752581
0.847603459422
0.891586587757
0.99607829717
0.866972919495
0.983888970722
0.964256558672
0.779713594034
0.792871111068
0.805232011445
0.816262978494
0.841552949127
0.887339734408
0.998775465317
0.860375029268
0.979049849954
0.959766616887
0.776043146663
0.787781957829
0.799161552144
0.80945985923
0.833115456069
0.878043761616
0.989129648022
1.08192006174
1.04242738765
0.982748054525
0.766381582922
0.820890119951
0.818487092122
0.799599284424
0.77505896222
0.682750525679
0.496018310336
1.02218461195
1.03502590846
0.98178339496
0.768203772872
0.820150593966
0.819690032076
0.801206954749
0.778069594501
0.689037579503
0.498635111204
1.00331016061
1.03505393342
0.983768493243
0.767995954365
0.820456151224
0.821025480132
0.804249986075
0.783974545014
0.703354478769
0.503541825439
0.981200715748
1.0327829003
0.98205149684
0.767702350118
0.820673136441
0.822490874647
0.808416014254
0.792464856342
0.723118114681
0.520079082148
0.962268826064
1.02972241207
0.979440035156
0.767332915708
0.820737508902
0.823981773526
0.813305090712
0.803260958398
0.747465644709
0.540494508462
0.146371238922
0.00514265909345
-0.192508638361
-0.467529087039
-0.802317354793
-1.15678168182
-1.49580308661
-1.80556271756
-2.08711904653
-2.32083316689
0.138581348769
-0.000600070458863
-0.188156226466
-0.450160729487
-0.772437042355
-1.12342706751
-1.46964502509
-1.79098867965
-2.07972781827
-2.31751702313
0.16563353621
0.0165127157018
-0.176040632834
-0.431675014372
-0.742547888347
-1.09087125137
-1.44724643087
-1.78065855667
-2.07627725058
-2.31793787133
0.225148394888
0.0525463024282
-0.159362845691
-0.415374203105
-0.718079740411
-1.06420804094
-1.428701692
-1.7737711195
-2.07739112399
-2.32430028564
0.311059481646
0.109170764954
-0.13319677129
-0.399825002916
-0.70181477495
-1.0472146382
-1.41654809652
-1.77121163293
-2.08413980975
-2.33849410268
)
;

boundaryField
{
    left
    {
        type            zeroGradient;
    }
    right
    {
        type            fixedValue;
        value           uniform 0;
    }
    down
    {
        type            zeroGradient;
    }
    up
    {
        type            zeroGradient;
    }
    cylinder
    {
        type            zeroGradient;
    }
    defaultFaces
    {
        type            empty;
    }
}


// ************************************************************************* //
