/*--------------------------------*- C++ -*----------------------------------*\
  =========                 |
  \\      /  F ield         | OpenFOAM: The Open Source CFD Toolbox
   \\    /   O peration     | Website:  https://openfoam.org
    \\  /    A nd           | Version:  13
     \\/     M anipulation  |
\*---------------------------------------------------------------------------*/
FoamFile
{
    format      ascii;
    class       surfaceScalarField;
    location    "0.835";
    object      phi;
}
// * * * * * * * * * * * * * * * * * * * * * * * * * * * * * * * * * * * * * //

dimensions      [0 3 -1 0 0 0 0];

internalField   nonuniform List<scalar> 
3485
(
0.00137167
-0.011258
0.0098863
0.00505115
-0.0319067
0.0282272
0.0107642
-0.0513829
0.0456699
0.0183125
-0.0696769
0.0621286
0.0275453
-0.0868351
0.0776023
0.0383482
-0.102901
0.0920983
0.0506328
-0.117906
0.105622
0.0643559
-0.131871
0.118148
0.0796149
-0.144862
0.129603
-0.156896
0.139505
0.0970058
0.00150034
-0.0127583
0.00544582
-0.0358522
0.0114762
-0.0574132
0.0193235
-0.0775243
0.0287727
-0.0962843
0.0396465
-0.113775
0.0518006
-0.130061
0.0651271
-0.145198
0.0795344
-0.159269
-0.172198
0.0948364
0.00147418
-0.0142325
0.00532699
-0.039705
0.0111745
-0.0632607
0.0187208
-0.0850706
0.0277252
-0.105289
0.0379883
-0.124038
0.0493441
-0.141416
0.061653
-0.157506
0.0747831
-0.172399
-0.186037
0.0886227
0.00133887
-0.0155713
0.00485903
-0.0432252
0.0102108
-0.0686125
0.017117
-0.0919767
0.0253538
-0.113525
0.03474
-0.133424
0.0451299
-0.151806
0.0564032
-0.16878
0.0684533
-0.184449
-0.198791
0.0812068
0.00116693
-0.0167383
0.00425599
-0.0463142
0.00897313
-0.0733297
0.0150817
-0.0980853
0.0223916
-0.120835
0.0307522
-0.141785
0.0400458
-0.1611
0.0501798
-0.178914
0.0610764
-0.195346
-0.210402
0.0726878
0.000980024
-0.0177183
0.00358795
-0.0489222
0.00758659
-0.0773283
0.0127839
-0.103283
0.019026
-0.127078
0.0261924
-0.148951
0.0341912
-0.169099
0.042953
-0.187676
0.0524229
-0.204816
-0.220549
0.0625697
0.000780725
-0.018499
0.002865
-0.0510064
0.00606896
-0.0805323
0.0102428
-0.107456
0.0152665
-0.132101
0.0210466
-0.154732
0.0275141
-0.175566
0.0346202
-0.194782
0.0423309
-0.212526
-0.228851
0.0506324
0.000569701
-0.0190687
0.00209345
-0.0525302
0.00443786
-0.0828767
0.00749264
-0.110511
0.0111686
-0.135777
0.0153967
-0.15896
0.0201274
-0.180297
0.0253293
-0.199984
0.0309863
-0.218183
-0.234967
0.0371028
0.000352505
-0.0194212
0.00129575
-0.0534734
0.002745
-0.0843259
0.00462831
-0.112395
0.00688643
-0.138035
0.00947303
-0.161546
0.0123552
-0.183179
0.0155142
-0.203143
0.0189447
-0.221614
-0.238684
0.0226614
0.000137793
-0.019559
0.000502456
-0.0538381
0.00105695
-0.0848804
0.00176952
-0.113107
0.00261369
-0.138879
0.00356836
-0.162501
0.00461805
-0.184229
0.00575325
-0.204278
0.00697051
-0.222831
0.0082749
-0.239988
0.000487688
-0.00186878
0.0013811
0.00208701
-0.00625521
0.00465589
0.00542846
-0.0114254
0.00808398
0.0101169
-0.0162011
0.0115126
0.0155415
-0.0201941
0.0147695
0.0214387
-0.0235897
0.0176924
0.0279049
-0.0267706
0.0203044
0.0350886
-0.0299654
0.0227818
0.0429746
-0.0331262
0.0252403
-0.0361004
0.0514288
0.0276462
0.000426883
-0.00229567
0.0021106
-0.00793893
0.00543778
-0.0147526
0.00981437
-0.0205777
0.0148855
-0.0252652
0.0207611
-0.0294652
0.0276142
-0.0336237
0.035393
-0.0377442
0.0438857
-0.0416189
-0.045142
0.0529273
0.000682822
-0.00297849
0.00271667
-0.00997279
0.00577977
-0.0178157
0.00976131
-0.0245592
0.0148144
-0.0303183
0.021112
-0.0357628
0.0285849
-0.0410966
0.0369532
-0.0461125
0.0459978
-0.0506635
-0.054772
0.0556278
0.000868569
-0.00384706
0.00306138
-0.0121656
0.00607896
-0.0208333
0.0102001
-0.0286803
0.015698
-0.0358163
0.0225559
-0.0426208
0.0305315
-0.0490722
0.0393877
-0.0549688
0.0490297
-0.0603054
-0.0651178
0.0593755
0.000923311
-0.00477037
0.00320099
-0.0144433
0.00651912
-0.0241514
0.0111168
-0.033278
0.0171349
-0.0418344
0.024448
-0.0499339
0.0328641
-0.0574882
0.0422858
-0.0643905
0.0526504
-0.07067
-0.0762927
0.0638253
0.00094408
-0.00571445
0.00337302
-0.0168722
0.00709154
-0.02787
0.0121744
-0.0383609
0.0186327
-0.0482927
0.0263552
-0.0576563
0.0352445
-0.0663776
0.0452538
-0.0743998
0.0563045
-0.0817207
-0.0882269
0.0682388
0.000980088
-0.00669454
0.00358426
-0.0194764
0.00764144
-0.0319271
0.013107
-0.0438265
0.0199255
-0.0551111
0.0280103
-0.0657412
0.0372995
-0.0756668
0.047747
-0.0848472
0.0592798
-0.0932536
-0.1007
0.0717531
0.00101809
-0.00771263
0.00376791
-0.0222262
0.00807122
-0.0362304
0.0138198
-0.0495751
0.0209191
-0.0622105
0.0292804
-0.0741024
0.0388338
-0.0852202
0.0495228
-0.0955363
0.0612888
-0.10502
-0.113443
0.0740318
0.00105468
-0.00876731
0.00393683
-0.0251083
0.00846106
-0.0407547
0.014482
-0.055596
0.0218735
-0.069602
0.0305252
-0.082754
0.0403417
-0.0950367
0.0512342
-0.106429
0.0631219
-0.116907
-0.126321
0.0759999
0.00111899
0.00423789
0.00915308
0.0156857
0.023686
0.0330303
0.0436154
0.0553346
0.0680301
0.0812136
0.114332
-0.414602
0.351699
0.168139
-0.471896
0.418089
0.210283
-0.422036
0.379892
0.244162
-0.326802
0.292923
0.270965
-0.214462
0.187659
0.291551
-0.110002
0.0894165
0.304991
-0.0312701
0.0178296
0.310073
0.0116205
-0.0167027
0.310497
0.0251742
-0.0255982
0.0204392
-0.0191728
0.11591
-0.477585
0.169695
-0.525681
0.21181
-0.464151
0.245431
-0.360423
0.272381
-0.241412
0.293762
-0.131384
0.309942
-0.0474498
0.318947
0.00261545
0.322544
0.0215768
0.0200594
0.117718
-0.539675
0.170518
-0.578481
0.212224
-0.505857
0.245229
-0.393428
0.27204
-0.268224
0.293729
-0.153072
0.31146
-0.0651812
0.323871
-0.00979458
0.331783
0.0136648
0.01686
0.120098
-0.600397
0.170884
-0.629268
0.211704
-0.546676
0.243786
-0.42551
0.27019
-0.294627
0.291939
-0.174822
0.310462
-0.0837047
0.324637
-0.0239698
0.336784
0.00151837
0.0088989
0.122997
-0.659569
0.170996
-0.677267
0.210382
-0.586062
0.241294
-0.456422
0.267023
-0.320357
0.288689
-0.196487
0.307716
-0.102732
0.322743
-0.0389972
0.337668
-0.0134061
-0.003534
0.125855
-0.717185
0.170882
-0.722294
0.208339
-0.623519
0.237889
-0.485972
0.262694
-0.345162
0.284165
-0.217958
0.303518
-0.122085
0.319393
-0.054872
0.334578
-0.028591
-0.0158045
0.127795
-0.773227
0.170356
-0.764855
0.205623
-0.658786
0.233688
-0.514037
0.257344
-0.368818
0.27848
-0.239095
0.298039
-0.141644
0.314981
-0.0718137
0.328706
-0.0423164
-0.0246496
0.127878
-0.827073
0.168935
-0.805913
0.202096
-0.691946
0.228657
-0.540598
0.251021
-0.391181
0.271631
-0.259704
0.291529
-0.161542
0.308289
-0.0885729
0.319054
-0.0530816
-0.031108
0.1258
-0.876873
0.166212
-0.846325
0.197705
-0.723439
0.222884
-0.565777
0.243846
-0.412144
0.263621
-0.279479
0.283283
-0.181205
0.297759
-0.103049
0.305318
-0.0606408
-0.0374198
0.122117
-0.917777
0.161386
-0.885594
0.191579
-0.753633
0.21566
-0.589857
0.235311
-0.431795
0.254394
-0.298562
0.271104
-0.197914
0.282526
-0.114471
0.289876
-0.0679901
-0.0441173
0.583954
-0.920254
-0.581477
0.561182
-0.862822
0.523945
-0.716396
0.487858
-0.55377
0.460488
-0.404426
0.443935
-0.282009
0.432216
-0.186195
0.426227
-0.108482
0.422964
-0.0647268
-0.0426154
0.682868
-0.871661
-0.731461
0.619676
-0.79963
0.553854
-0.650574
0.496259
-0.496174
0.450626
-0.358794
0.418653
-0.250036
0.398829
-0.166371
0.389626
-0.0992792
0.384484
-0.0595844
-0.0395209
0.753985
-0.775218
-0.850428
0.655078
-0.700723
0.563345
-0.558841
0.48723
-0.420059
0.429228
-0.300791
0.388983
-0.209792
0.363721
-0.141109
0.350974
-0.0865325
0.344007
-0.0526174
-0.035135
0.778969
-0.641706
-0.91248
0.653697
-0.575451
0.546188
-0.451331
0.46088
-0.334752
0.397835
-0.237746
0.354033
-0.16599
0.325799
-0.112875
0.310481
-0.0712139
0.301932
-0.0440688
-0.0297376
0.752964
-0.492444
-0.902226
0.617532
-0.44002
0.506131
-0.33993
0.420014
-0.248635
0.357386
-0.175117
0.313793
-0.122397
0.285031
-0.0841128
0.268335
-0.0545181
0.258649
-0.034383
-0.0236286
0.685096
-0.34584
-0.8317
0.552687
-0.30761
0.446427
-0.23367
0.365952
-0.168161
0.308204
-0.117369
0.267985
-0.0821785
0.240937
-0.0570649
0.224357
-0.0379386
0.21428
-0.0243055
-0.0172152
0.582615
-0.213863
-0.714592
0.462884
-0.187879
0.369306
-0.140092
0.299925
-0.098779
0.250861
-0.0683055
0.216688
-0.048005
0.193317
-0.0336944
0.178342
-0.022963
0.168831
-0.0147949
-0.0110164
0.448757
-0.105525
-0.557096
0.351176
-0.0902972
0.277052
-0.0659684
0.22352
-0.0452473
0.186249
-0.0310338
0.160243
-0.0219993
0.142168
-0.015619
0.130147
-0.0109429
0.122263
-0.00691066
-0.00563415
0.286591
-0.0302209
-0.361894
0.220909
-0.0246156
0.172488
-0.0175469
0.13871
-0.0114695
0.115473
-0.00779659
0.0991078
-0.00563464
0.0875509
-0.00406201
0.0796041
-0.00299615
0.0744297
-0.00173625
-0.00173227
0.101315
-0.131536
0.0766998
0.0591529
0.0476834
0.0398868
0.0342522
0.0301902
0.027194
0.0254578
0.73882
0.0102223
-0.740768
0.733074
0.0284073
0.723436
0.0467415
0.710163
0.0639054
0.69357
0.0791625
0.674076
0.0921814
0.652273
0.10301
0.628713
0.112182
0.604269
0.11928
0.119798
0.845548
0.0133981
-0.848724
0.837321
0.0366345
0.827288
0.0567749
0.816593
0.0745996
0.805251
0.0905053
0.792897
0.104535
0.779283
0.116624
0.764588
0.126878
0.749123
0.134745
0.13746
0.844982
0.0114254
-0.843009
0.848882
0.0327348
0.853019
0.0526379
0.85647
0.0711483
0.858832
0.0881439
0.859919
0.103448
0.859594
0.116948
0.857966
0.128506
0.8553
0.137412
0.142331
0.800213
0.00930444
-0.798092
0.80582
0.027127
0.814418
0.0440405
0.825636
0.0599303
0.839
0.0747794
0.853849
0.0886
0.869418
0.101379
0.885051
0.112873
0.899936
0.122526
0.129787
0.737866
0.00703874
-0.7356
0.744154
0.0208384
0.754123
0.0340715
0.767503
0.0465502
0.784083
0.0581999
0.80366
0.0690224
0.825988
0.0790511
0.850621
0.0882396
0.876541
0.0966061
0.104102
0.653921
0.00485397
-0.651736
0.660203
0.0145561
0.670378
0.0238963
0.684221
0.0327074
0.701525
0.040896
0.722111
0.0484359
0.745806
0.0553567
0.772329
0.0617159
0.801216
0.0677187
0.0736189
0.549112
0.00291608
-0.547174
0.554812
0.0088559
0.564138
0.0145706
0.576905
0.01994
0.592915
0.0248867
0.611968
0.0293826
0.633871
0.033454
0.658406
0.0371801
0.685379
0.0407461
0.0444059
0.422793
0.00137572
-0.421252
0.427413
0.00423595
0.435008
0.00697561
0.445422
0.00952586
0.45847
0.0118388
0.473957
0.0138957
0.491697
0.0157138
0.511527
0.0173497
0.533346
0.0189271
0.0206561
0.273828
0.000366658
-0.272819
0.276915
0.00114944
0.281999
0.00189174
0.288955
0.00256941
0.29763
0.00316447
0.307856
0.00366915
0.319482
0.00408805
0.332395
0.00443667
0.346561
0.00476039
0.00532319
0.100484
-0.100117
0.101633
0.103525
0.106094
0.109259
0.112928
0.117016
0.121453
0.126213
0.0779298
0.159504
-0.142491
-0.0949426
0.0630263
0.14746
-0.132557
0.0496174
0.134406
-0.120997
0.0376027
0.120332
-0.108317
0.027026
0.105171
-0.094594
0.0179776
0.0888943
-0.0798459
0.0105727
0.0714605
-0.0640557
0.00496323
0.0528094
-0.0471999
0.001348
0.0328743
-0.0292591
0.011639
-0.010291
0.0779397
0.174434
-0.0928693
0.0638704
0.16153
0.0508392
0.147437
0.0389378
0.132234
0.0282759
0.115833
0.0190001
0.0981701
0.0112895
0.0791712
0.00535957
0.0587394
0.00147721
0.0367567
0.0131162
0.0731789
0.187928
-0.0866735
0.0603697
0.174339
0.0483502
0.159457
0.0372486
0.143335
0.0272031
0.125878
0.0183793
0.106994
0.0109766
0.0865738
0.00523535
0.0644806
0.00144963
0.0405424
0.0145658
0.0667707
0.200353
-0.0791955
0.0550329
0.186077
0.0440493
0.17044
0.0339217
0.153463
0.0247665
0.135033
0.016727
0.115033
0.00998166
0.0933191
0.00475147
0.0697108
0.00130965
0.0439842
0.0158755
0.0593123
0.211657
-0.070616
0.0487152
0.196674
0.0388673
0.180288
0.0298411
0.162489
0.0217243
0.14315
0.0146296
0.122128
0.00870233
0.0992463
0.00412645
0.0742867
0.00113097
0.0469797
0.0170064
0.050598
0.221521
-0.0604619
0.041411
0.205861
0.0329275
0.188772
0.0251972
0.170219
0.0182837
0.150064
0.0122721
0.12814
0.00727495
0.104243
0.00343653
0.0781251
0.000937283
0.0494789
0.0179437
0.0404571
0.229564
-0.0485001
0.0330126
0.213305
0.0261764
0.195608
0.0199773
0.176418
0.0144573
0.155583
0.00967743
0.13292
0.00572043
0.1082
0.00269376
0.0811518
0.000731839
0.0514408
0.0186755
0.0290541
0.235441
-0.0349316
0.0236512
0.218708
0.0187146
0.200544
0.0142551
0.180878
0.0102962
0.159542
0.00687751
0.136338
0.0040556
0.111022
0.00190427
0.0833031
0.000515282
0.0528298
0.0191908
0.0169174
0.238926
-0.0204019
0.0137418
0.221884
0.0108549
0.203431
0.0082548
0.183478
0.00595147
0.161846
0.00396649
0.138323
0.00233218
0.112657
0.00109066
0.0845446
0.000293241
0.0536272
0.0194841
0.00482784
-0.00589044
0.00388043
0.00303403
0.00228341
0.00162817
0.00107201
0.000621621
0.00028583
7.49718e-05
0.0436702
0.0414126
-0.0525691
-0.0325138
0.0352911
0.0383632
-0.0299841
0.0276187
0.034963
-0.0272906
0.0208803
0.0313471
-0.0246086
0.0150787
0.0277785
-0.0219769
0.00997236
0.0242196
-0.0191133
0.00544264
0.0200833
-0.0155536
0.00197624
0.0144707
-0.0110043
0.000386827
0.00739887
-0.00580945
0.00208895
-0.00170212
0.0437648
0.050586
-0.0529382
0.0351108
0.0470172
0.0270671
0.0430066
0.0199165
0.0384977
0.013976
0.033719
0.00925359
0.0289421
0.00550432
0.0238326
0.00257623
0.0173988
0.000621868
0.00935323
0.00271082
0.0449395
0.0601445
-0.0544979
0.0360142
0.0559424
0.0277733
0.0512476
0.0203332
0.0459378
0.0140197
0.0400324
0.00909798
0.0338638
0.00551447
0.0274161
0.00289199
0.0200212
0.000809534
0.0114357
0.00352035
0.0473627
0.0703318
-0.05755
0.0379263
0.0653788
0.029356
0.0598179
0.0216895
0.0536044
0.0150517
0.0466702
0.00970181
0.0392137
0.00576161
0.0313563
0.00295861
0.0228242
0.00087491
0.0135194
0.00439526
0.050828
0.0812582
-0.0617543
0.0407244
0.0754825
0.0316073
0.068935
0.0235392
0.0616724
0.016543
0.0536663
0.0107454
0.0450114
0.00628152
0.0358202
0.0030612
0.0260446
0.00088026
0.0157003
0.00527552
0.0545262
0.092855
-0.0661231
0.0438053
0.0862034
0.0341233
0.0786169
0.0255553
0.0702405
0.0181228
0.0610988
0.0118821
0.0512521
0.00692819
0.0407741
0.00327832
0.0296944
0.00090845
0.0180702
0.00618397
0.0575811
0.104936
-0.0696625
0.0464218
0.0973627
0.036319
0.0887198
0.0273327
0.0792267
0.0194989
0.0689325
0.0128681
0.0578829
0.00751966
0.0461225
0.00352506
0.033689
0.000959566
0.0206357
0.00714354
0.0596387
0.117263
-0.0719655
0.0482616
0.10874
0.0379195
0.0990618
0.0286577
0.0884886
0.0205276
0.0770626
0.0135985
0.0648121
0.00796141
0.0517596
0.00372171
0.0379287
0.00100528
0.0233521
0.00814882
0.061453
0.129717
-0.0739066
0.0499556
0.120237
0.0394067
0.109611
0.0298778
0.0980176
0.0214552
0.0854852
0.0142359
0.0720313
0.00833441
0.0576611
0.00388452
0.0423786
0.00104189
0.0261948
0.00919071
0.0663096
-0.0790839
0.05399
0.0426037
0.0323038
0.023195
0.0153805
0.00898589
0.00416457
0.00110025
0.213784
0.0620146
-0.0778087
0.236469
0.0902751
-0.11296
0.26101
0.123767
-0.148308
0.277039
0.112404
-0.128433
0.276206
0.10953
-0.108697
0.253201
0.178636
-0.155631
0.218957
0.293645
-0.2594
0.174875
0.41256
-0.368478
0.118432
0.494692
-0.438249
0.461722
-0.395859
0.213137
0.0468677
0.234723
0.068689
0.258359
0.10013
0.275014
0.0957501
0.275794
0.108749
0.253588
0.200842
0.219167
0.328065
0.174629
0.457098
0.118097
0.551224
0.526881
0.212896
0.0319612
0.23363
0.0479551
0.256408
0.0773522
0.273064
0.0790942
0.274171
0.107642
0.252393
0.222621
0.217926
0.362532
0.173322
0.501703
0.117882
0.606664
0.590265
0.212992
0.016959
0.233192
0.0277555
0.255224
0.0553202
0.271424
0.0628939
0.271656
0.10741
0.249752
0.244525
0.215395
0.396889
0.171344
0.545753
0.11838
0.659628
0.651095
0.2133
0.00164895
0.233259
0.0077966
0.254599
0.0339796
0.269723
0.0477705
0.268159
0.108974
0.245733
0.266951
0.21177
0.430851
0.169115
0.588408
0.119724
0.70902
0.709064
0.213671
-0.0140327
0.233611
-0.0121432
0.254214
0.0133766
0.267603
0.0343816
0.26357
0.113008
0.240444
0.290076
0.20731
0.463986
0.16691
0.628808
0.121451
0.754479
0.764392
0.213938
-0.0299814
0.234045
-0.0322496
0.253785
-0.00636335
0.264832
0.0233344
0.257866
0.119973
0.234095
0.313847
0.202293
0.495788
0.164713
0.666388
0.122668
0.796524
0.817397
0.213984
-0.0459757
0.234434
-0.0526992
0.253089
-0.0250183
0.261176
0.0152473
0.250972
0.130177
0.22681
0.33801
0.196769
0.525829
0.162095
0.701062
0.122351
0.836268
0.867782
0.213808
-0.0617943
0.234754
-0.0736449
0.251999
-0.0422628
0.256662
0.0105835
0.243148
0.143691
0.218953
0.362205
0.190853
0.553929
0.15863
0.733285
0.120103
0.874796
0.913979
0.21368
-0.0774842
0.234968
-0.0949334
0.250504
-0.0577982
0.250953
0.0101337
0.233863
0.160782
0.209891
0.386176
0.183615
0.580205
0.153446
0.763454
0.116428
0.911814
0.951323
0.331922
-0.107396
0.370542
-0.133553
0.406933
-0.0941895
0.424391
-0.00732443
0.438893
0.146279
0.467417
0.357652
0.506593
0.541029
0.54958
0.720468
0.581372
0.880021
0.946192
0.586503
0.33361
-0.138996
0.373136
-0.17308
0.408285
-0.129338
0.422133
-0.0211726
0.435503
0.132909
0.475928
0.317228
0.534283
0.482674
0.604467
0.650283
0.675402
0.809086
0.888608
0.732987
0.336333
-0.173319
0.375382
-0.212128
0.408664
-0.16262
0.417163
-0.0296725
0.427331
0.122742
0.473954
0.270604
0.546476
0.410153
0.638813
0.557946
0.742287
0.705612
0.784479
0.846416
0.340495
-0.211803
0.373373
-0.245006
0.384175
-0.173422
0.38053
-0.0260274
0.398966
0.104305
0.45289
0.21668
0.534122
0.328922
0.640515
0.451553
0.767082
0.579045
0.647067
0.904495
0.348509
-0.258302
0.356553
-0.253051
0.33745
-0.15432
0.334236
-0.0228134
0.358559
0.0799828
0.414019
0.161221
0.49724
0.2457
0.607875
0.340918
0.743736
0.443183
0.495865
0.894938
0.340776
-0.297067
0.321129
-0.233404
0.287848
-0.121038
0.283933
-0.0188982
0.308904
0.0550112
0.361082
0.109043
0.439743
0.167039
0.545754
0.234908
0.678764
0.310173
0.347984
0.826645
0.314272
-0.309329
0.271545
-0.190678
0.233591
-0.0830839
0.228607
-0.0139139
0.251034
0.0325839
0.296157
0.0639202
0.364607
0.0985886
0.458326
0.141189
0.578797
0.189701
0.215104
0.711678
0.273772
-0.281091
0.212871
-0.129777
0.174327
-0.0445396
0.168775
-0.00836191
0.186251
0.0151082
0.220961
0.0292092
0.274172
0.0453785
0.348684
0.0666769
0.44705
0.0913346
0.106139
0.556015
0.214646
-0.193726
0.140472
-0.0556024
0.109362
-0.0134303
0.104083
-0.00308224
0.115355
0.0038364
0.137272
0.00729195
0.171095
0.0115555
0.219971
0.0178011
0.28634
0.0249657
0.0304073
0.362071
0.108284
0.0526815
0.0392512
0.0361689
0.0400053
0.0472973
0.0588527
0.0766538
0.101619
0.132027
0.608658
-0.117097
0.632321
-0.116533
0.655139
-0.109491
0.67629
-0.100347
0.695234
-0.0895595
0.71137
-0.0765987
0.724263
-0.0613931
0.73359
-0.0442583
0.739075
-0.0258869
-0.00758338
0.750321
-0.134431
0.765223
-0.131436
0.779426
-0.123693
0.792649
-0.11357
0.804712
-0.101623
0.815848
-0.0877341
0.826403
-0.0719483
0.836392
-0.0542475
0.844841
-0.0343357
-0.0114668
0.851037
-0.139052
0.853479
-0.133878
0.854994
-0.125207
0.855371
-0.113947
0.854523
-0.100774
0.852622
-0.0858336
0.849896
-0.0692221
0.846739
-0.0510907
0.843946
-0.031543
-0.0105298
0.892551
-0.127108
0.878535
-0.119862
0.863855
-0.110528
0.849291
-0.0993832
0.835446
-0.0869295
0.823019
-0.0734069
0.812636
-0.0588383
0.804756
-0.0432111
0.799744
-0.0265313
-0.00887707
0.87031
-0.102481
0.845549
-0.0951006
0.821945
-0.0869232
0.800489
-0.077928
0.781654
-0.0680942
0.765714
-0.0574669
0.75289
-0.0460141
0.743403
-0.0337241
0.737523
-0.0206517
-0.0069536
0.796997
-0.0728334
0.768934
-0.0670367
0.743122
-0.0611116
0.720037
-0.0548429
0.699971
-0.0480286
0.683112
-0.0406074
0.669641
-0.0325437
0.659769
-0.0238515
0.653726
-0.0146085
-0.00496378
0.682984
-0.0441393
0.6565
-0.0405524
0.632401
-0.0370128
0.610878
-0.0333203
0.592145
-0.0292954
0.576395
-0.024858
0.563828
-0.0199763
0.554646
-0.0146696
0.549043
-0.00900556
-0.00309475
0.53251
-0.0206337
0.510908
-0.0189508
0.491275
-0.0173795
0.473704
-0.0157489
0.45835
-0.0139423
0.445397
-0.0119046
0.435037
-0.00961619
0.427458
-0.00709084
0.422824
-0.00437153
-0.00152289
0.346789
-0.00535165
0.332647
-0.00480905
0.319752
-0.00448485
0.308137
-0.00413357
0.297909
-0.00371364
0.289215
-0.00321085
0.282219
-0.00262001
0.277075
-0.00194739
0.273913
-0.00120946
-0.000429224
0.126675
0.121866
0.117381
0.113248
0.109534
0.106323
0.103703
0.101756
0.100546
0.000185057
0.0116092
-0.0117943
0.000623737
0.0304465
-0.0308852
0.00123716
0.0462418
-0.0468552
0.00197733
0.0594676
-0.0602077
0.00277662
0.0700216
-0.0708209
0.00376954
0.0798892
-0.0808821
0.00396348
0.0772674
-0.0774613
0.00408486
0.0700425
-0.0701639
0.00394498
0.0610798
-0.0609399
0.0499561
0.00350723
-0.0495184
0.000533397
0.0110758
0.00180387
0.029176
0.00358509
0.0444605
0.00574126
0.0573114
0.00807284
0.0676901
0.0110396
0.0769224
0.011676
0.076631
0.0120809
0.0696376
0.0117737
0.061387
0.0510785
0.0106513
0.0008355
0.0102403
0.00283184
0.0271797
0.00563913
0.0416532
0.00904158
0.053909
0.0127395
0.0639922
0.0172475
0.0724144
0.0187903
0.0750883
0.0195719
0.068856
0.0193857
0.0615732
0.052435
0.0180293
0.00105598
0.00918436
0.00359702
0.0246387
0.00719366
0.0380566
0.0115559
0.0495468
0.0163567
0.0591914
0.0217478
0.0670232
0.0250729
0.0717633
0.0263552
0.0675736
0.0266035
0.0613249
0.0535668
0.0254717
0.00115146
0.00803291
0.00397934
0.0218108
0.00804179
0.0339942
0.0129971
0.0445915
0.0185518
0.0536366
0.0245578
0.0610173
0.0299524
0.0663686
0.0320904
0.0654357
0.0330117
0.0604036
0.0540916
0.0324869
0.00111149
0.00692141
0.00396603
0.0189563
0.00818568
0.0297745
0.0133904
0.0393868
0.0193182
0.0477087
0.0257723
0.0545632
0.0324163
0.0597246
0.036313
0.061539
0.0381249
0.0585917
0.0537076
0.0385089
0.000926239
0.00599518
0.00357299
0.0163095
0.00771073
0.0256368
0.0128819
0.0342157
0.0187869
0.0418037
0.0253385
0.0480116
0.0323215
0.0527417
0.0382758
0.0555847
0.041588
0.0552795
0.0521835
0.0431122
0.000567821
0.00542736
0.0027866
0.0140907
0.00665748
0.0217659
0.0116214
0.0292518
0.0172044
0.0362207
0.0234475
0.0417685
0.0302863
0.0459029
0.0371845
0.0486864
0.042562
0.049902
0.0489244
0.045821
0.000103743
0.00532362
0.00176845
0.012426
0.00517553
0.0183588
0.00981466
0.0246127
0.0149567
0.0310787
0.020621
0.0361042
0.0269035
0.0396204
0.0335873
0.0420025
0.0400855
0.0434038
0.0437957
0.0452143
-0.000175814
0.00549943
0.00108646
0.0111638
0.00385542
0.0155899
0.00788588
0.0205822
0.0125001
0.0264645
0.0175706
0.0310337
0.0231767
0.0340143
0.0292492
0.03593
0.0356361
0.0370169
0.0373688
0.0420629
-2.16562e-05
0.00552109
0.00113912
0.010003
0.00327646
0.0134525
0.00641163
0.017447
0.0102929
0.0225832
0.0148345
0.0264921
0.0199547
0.0288941
0.0254873
0.0303974
0.0312253
0.0312789
0.0316945
0.0368997
0.000376663
0.00514443
0.00153022
0.00884943
0.00317852
0.0118042
0.00548883
0.0151367
0.00870798
0.0193641
0.0128938
0.0223063
0.017746
0.0240419
0.0230135
0.0251298
0.0285054
0.025787
0.0260574
0.0341424
0.000623232
0.0045212
0.00170513
0.00776753
0.00302493
0.0104844
0.00484442
0.0133172
0.00783618
0.0163723
0.0119264
0.018216
0.0166788
0.0192895
0.0218537
0.0199549
0.0273189
0.0203218
0.0204033
0.032973
0.000676478
0.00384472
0.00164193
0.00680208
0.00282184
0.00930453
0.00470593
0.0114332
0.00798283
0.0130954
0.0122159
0.013983
0.0170352
0.0144702
0.0222792
0.0147109
0.0278514
0.0147497
0.0145888
0.0336659
0.000664595
0.00318012
0.00155604
0.00591062
0.0030012
0.00785937
0.00559386
0.00884049
0.00939112
0.00929813
0.0139191
0.00945498
0.0189684
0.00942087
0.0244397
0.0092396
0.030265
0.00892434
0.00848096
0.0363728
0.000594809
0.00258531
0.00172303
0.00478238
0.0040781
0.00550429
0.00754432
0.00537426
0.0118059
0.00503655
0.0166625
0.00459832
0.0220129
0.0040705
0.0277978
0.00345467
0.0339659
0.00275629
0.00198854
0.0404583
0.000527978
0.00205732
0.0025002
0.00281015
0.00577673
0.00222775
0.00978257
0.00136842
0.014381
0.00043813
0.0195266
-0.000547263
0.0251894
-0.00159233
0.0313266
-0.00268252
0.0378771
-0.0037942
-0.0049152
0.0447808
0.000884306
0.00117301
0.00363563
5.88103e-05
0.00720229
-0.00133892
0.0113927
-0.00282204
0.0161942
-0.00436331
0.0216173
-0.00597044
0.0276204
-0.00759541
0.0341121
-0.00917423
0.0410092
-0.0106912
-0.0121768
0.0482708
0.00150695
-0.000333951
0.00413492
-0.00256917
0.00755781
-0.00476181
0.0117761
-0.00704036
0.016797
-0.00938417
0.0225407
-0.0117141
0.0288391
-0.0138939
0.0355712
-0.0159063
0.0427117
-0.0178318
-0.0197265
0.0502614
0.00104714
0.00313385
0.00645601
0.0109283
0.0163136
0.0222919
0.0287023
0.0355778
0.0429863
0.050906
0.0514242
0.0837126
-0.0982371
0.0773399
-0.00755434
-0.0183613
0.0999888
-0.0512346
0.0285857
0.113685
-0.0471552
0.0334593
0.121657
-0.02687
0.018898
0.125276
-0.00798199
0.00436281
0.126294
0.00347955
-0.00449727
0.126392
0.00748173
-0.00757973
0.126281
0.00777693
-0.00766638
0.00537239
-0.00598021
0.0586425
0.0592125
0.091725
-0.0406369
0.118929
-0.0784385
0.134965
-0.0631911
0.143701
-0.0356064
0.147354
-0.0116348
0.148096
0.00273761
0.147841
0.00773669
0.14739
0.00822782
0.0051085
0.0666754
0.0255101
0.105126
-0.079088
0.136169
-0.109481
0.155833
-0.082855
0.165843
-0.0456162
0.169566
-0.015358
0.169926
0.00237766
0.169156
0.00850641
0.168197
0.00918713
0.0053325
0.0755764
-0.0164004
0.117984
-0.121495
0.151924
-0.143421
0.175352
-0.106284
0.187414
-0.0576784
0.191474
-0.0194178
0.19149
0.00236145
0.190154
0.00984253
0.188606
0.0107353
0.00612561
0.0846495
-0.0646771
0.129828
-0.166674
0.165938
-0.179531
0.192681
-0.133026
0.207652
-0.0726497
0.21265
-0.024416
0.212523
0.00248901
0.210666
0.0116996
0.208524
0.0128768
0.00750949
0.0931197
-0.117339
0.140324
-0.213878
0.178121
-0.217328
0.207429
-0.162334
0.225696
-0.0909172
0.232555
-0.0312742
0.232704
0.00233955
0.230496
0.0139077
0.227847
0.0155259
0.00943997
0.100322
-0.17288
0.149194
-0.26275
0.188372
-0.256506
0.219517
-0.193479
0.240849
-0.11225
0.250544
-0.0409684
0.25167
0.00121341
0.249429
0.0161481
0.246456
0.018499
0.0118039
0.105907
-0.230517
0.156313
-0.313156
0.196635
-0.296828
0.229051
-0.225895
0.252788
-0.135986
0.265885
-0.0540659
0.268975
-0.00187626
0.267214
0.0179088
0.264217
0.021496
0.0144129
0.109857
-0.290113
0.161713
-0.365011
0.202936
-0.338051
0.236205
-0.259164
0.261562
-0.161344
0.277947
-0.0704504
0.284068
-0.00799757
0.283543
0.0184339
0.280965
0.0240738
0.0169943
0.112492
0.165569
0.20741
0.241169
0.267484
0.286451
0.296283
0.298014
0.296489
0.0132006
0.0060778
-0.0192784
0.0109892
0.00221133
0.0115087
-0.000519525
0.0129324
-0.0014237
0.0136472
-0.000714818
0.0137633
-0.000116024
0.0135371
0.000226144
0.0131723
0.000364779
0.0129106
0.000261729
0.000360511
0.0372489
0.023215
-0.0543862
0.0314947
0.00796556
0.0340072
-0.00303204
0.0380661
-0.0054827
0.0402388
-0.00288754
0.0406332
-0.00051038
0.0399884
0.000870989
0.0389871
0.001366
0.0380585
0.00119035
0.00121007
0.0579661
0.0480953
-0.0828464
0.050885
0.0150467
0.055898
-0.00804507
0.0624809
-0.0120656
0.0661488
-0.00655541
0.0669009
-0.0012625
0.0659051
0.00186685
0.0643223
0.00294873
0.0627285
0.00278417
0.00246693
0.0739063
0.0753998
-0.101211
0.0680837
0.0208693
0.0764549
-0.0164163
0.085795
-0.0214057
0.0911142
-0.0118747
0.0923654
-0.00251364
0.0911234
0.00310878
0.0890243
0.00504788
0.0868367
0.00497172
0.00407911
0.0813989
-0.104236
0.0839068
0.0960761
0.10813
0.115153
0.117002
0.115614
0.113082
0.110387
0.00273369
-0.000172927
-0.00256076
0.00326456
-0.000530876
0.0041768
-0.000912239
0.00548787
-0.00131107
0.0071843
-0.00169642
0.00922887
-0.00204458
0.0115855
-0.0023566
0.0141738
-0.00258834
0.016859
-0.00268515
-0.0024194
0.00778747
-0.000645703
-0.00731469
0.00923437
-0.00197778
0.0117138
-0.00339162
0.0152702
-0.00486748
0.0198845
-0.00631072
0.0254825
-0.0076426
0.0319648
-0.00883895
0.0391563
-0.0097798
0.0467677
-0.0102966
-0.0100379
0.0124781
-0.00138376
-0.0117401
0.0147278
-0.00422749
0.0185607
-0.00722452
0.0240247
-0.0103315
0.0310794
-0.0133654
0.0395863
-0.0161495
0.0493283
-0.018581
0.0600517
-0.0205032
0.0714159
-0.0216608
-0.0214684
0.0168075
-0.00234771
-0.0158436
0.0197318
-0.00715173
0.024675
-0.0121678
0.0316515
-0.017308
0.0405502
-0.022264
0.0511064
-0.0267057
0.0629377
-0.0304122
0.0756947
-0.0332603
0.0888615
-0.0348276
-0.0338177
0.0207931
-0.0196336
0.0242927
0.0301542
0.0383179
0.0485408
0.0603439
0.0730438
0.0856046
0.0959913
0.0314448
-0.0313064
0.0371111
-0.0372495
0.0255845
-0.0309034
0.0367637
0.0199261
-0.0300708
0.0357291
0.0146798
-0.0286747
0.0339211
0.01006
-0.0264661
0.0310859
0.00620485
-0.0227787
0.0266339
0.00311391
-0.0176476
0.0207386
0.00101748
-0.0136221
0.0157185
-8.67053e-05
-0.0101615
0.0112657
-0.00564223
0.00555553
0.0294613
-0.0254431
-0.0353246
0.0237455
-0.0251876
0.0182556
-0.0245809
0.0131697
-0.0235887
0.00874071
-0.0220372
0.00535063
-0.0193886
0.0030199
-0.0153169
0.00139664
-0.0119988
0.000298256
-0.00906314
-0.00534397
0.0294329
-0.0194549
-0.0354211
0.0236288
-0.0193835
0.0181115
-0.0190635
0.0129981
-0.0184753
0.0084915
-0.0175306
0.00504286
-0.01594
0.00300424
-0.0132783
0.00164466
-0.0106392
0.000582513
-0.00800099
-0.00476145
0.0313529
-0.0131918
-0.037616
0.0253244
-0.013355
0.0196139
-0.013353
0.0143078
-0.0131692
0.00954495
-0.0127677
0.00565003
-0.0120451
0.00319611
-0.0108243
0.00176059
-0.0092037
0.000726739
-0.00696713
-0.00403471
0.0349541
-0.00653656
-0.0416094
0.0285807
-0.00698156
0.0225612
-0.00733353
0.0169618
-0.00756984
0.0118732
-0.00767901
0.00747988
-0.00765174
0.00413404
-0.0074785
0.0019922
-0.00706185
0.000798205
-0.00577313
-0.0032365
0.0392744
0.000571441
-0.0463824
0.0324915
-0.000198664
0.0261062
-0.000948263
0.0201932
-0.00165682
0.0148131
-0.00229886
0.0100289
-0.00286752
0.00592434
-0.00337397
0.00267393
-0.00381143
0.000720607
-0.0038198
-0.00251589
0.0431127
0.00808931
-0.0506306
0.0359351
0.00697901
0.0291511
0.00583568
0.022861
0.00463335
0.0171669
0.00339517
0.0121087
0.00219069
0.0076674
0.00106736
0.00384895
7.03005e-06
0.000979616
-0.000950451
-0.00153626
0.0453918
0.0158945
-0.0531969
0.0379629
0.0144079
0.0309078
0.0128909
0.0242623
0.0112788
0.0181697
0.00948774
0.0128165
0.0075439
0.00828178
0.00560213
0.00454071
0.00374811
0.00163199
0.00195827
9.57365e-05
0.0455447
0.0239981
-0.0536484
0.037926
0.0220266
0.0307957
0.0200212
0.0240665
0.0180081
0.0177056
0.0158486
0.0119073
0.0133422
0.00704922
0.0104603
0.00341817
0.00737916
0.00114782
0.00422864
0.00124356
0.0444847
-0.0530003
0.0365272
0.0292578
0.0226572
0.0165289
0.0107578
0.00566446