/*--------------------------------*- C++ -*----------------------------------*\
  =========                 |
  \\      /  F ield         | OpenFOAM: The Open Source CFD Toolbox
   \\    /   O peration     | Website:  https://openfoam.org
    \\  /    A nd           | Version:  13
     \\/     M anipulation  |
\*---------------------------------------------------------------------------*/
FoamFile
{
    format      ascii;
    class       volScalarField;
    location    "5.355";
    object      p;
}
// * * * * * * * * * * * * * * * * * * * * * * * * * * * * * * * * * * * * * //

dimensions      [0 2 -2 0 0 0 0];

internalField   nonuniform List<scalar> 
440
(
-0.620889
-0.600681
-0.615371
-0.57295
-0.676906
-0.663709
-0.646797
-0.628654
-0.602886
-0.598585
-0.766004
-0.739295
-0.709753
-0.674987
-0.638411
-0.891151
-0.848654
-0.780194
-0.696542
-0.610865
-0.996817
-0.940008
-0.813603
-0.676945
-0.548306
-0.917682
-0.926031
-0.94609
-0.973719
-0.99487
-0.737165
-0.745134
-0.760875
-0.778442
-0.788039
-0.637338
-0.638305
-0.640998
-0.643096
-0.641842
-0.625595
-0.619241
-0.612858
-0.601448
-0.588449
-0.577728
-0.570622
-0.560143
-0.530087
-0.528592
-0.976905
-1.03662
-0.747108
-0.385371
-0.0064842
-0.81083
-1.04809
-0.886706
-0.418489
-0.0133897
-0.68125
-1.03247
-0.969227
-0.444899
-0.0248235
-0.586856
-0.975295
-0.955887
-0.451274
-0.0449704
-0.549929
-0.93957
-0.918623
-0.455037
-0.0739496
-0.352034
-0.897722
-0.855215
-0.447608
-0.111295
-0.304432
-0.710317
-0.67609
-0.412591
-0.145384
-0.280933
-0.500391
-0.498367
-0.375227
-0.166358
-0.198916
-0.335198
-0.416016
-0.361205
-0.156638
-0.149392
-0.202859
-0.293393
-0.365149
-0.167137
-0.325099
-0.449995
-0.602351
-0.745096
-0.803091
-0.0968518
-0.232242
-0.312567
-0.362726
-0.36406
0.0462479
-0.0717823
-0.14878
-0.210775
-0.250311
0.139033
0.0282037
-0.0612968
-0.125335
-0.168858
0.18519
0.0748826
-0.0167222
-0.0756867
-0.113753
0.933177
0.784668
0.594922
0.384956
0.153022
0.527724
0.368247
0.171051
-0.0473844
-0.288202
0.134019
-0.0272895
-0.230292
-0.456707
-0.659473
-0.195728
-0.358381
-0.553348
-0.762908
-0.912392
-0.411964
-0.567659
-0.743285
-0.922469
-1.01639
2.08605
2.11908
2.14913
2.16433
2.16104
1.89534
1.91907
1.93921
1.94207
1.9221
1.67764
1.66508
1.62993
1.57225
1.48711
1.4263
1.39254
1.32226
1.21933
1.08586
1.18087
1.07964
0.946191
0.790694
0.600127
1.80466
1.79766
1.78971
1.86053
1.95782
1.79473
1.78717
1.77114
1.83904
1.86864
1.78577
1.77363
1.7491
1.80739
1.76688
1.77803
1.75756
1.72528
1.75682
1.60149
1.77147
1.74098
1.69994
1.70436
1.42567
1.76632
1.71651
1.66718
1.59802
1.23224
1.76454
1.68571
1.65793
1.45367
1.28347
1.77182
1.67116
1.65279
1.38327
1.29908
1.76922
1.64467
1.64441
1.34077
1.31895
1.80553
1.64408
1.64167
1.31408
1.36494
0.895807
0.604796
0.281296
0.0119043
-0.173668
0.808836
0.607221
0.395114
0.210137
0.0426824
0.80657
0.641847
0.480439
0.327566
0.177927
0.876868
0.716066
0.559128
0.408866
0.270375
0.936199
0.766869
0.608076
0.456185
0.318843
-1.66025
-1.50471
-1.32853
-1.18482
-1.09988
-1.7359
-1.66476
-1.5305
-1.41966
-1.35256
-1.65755
-1.60724
-1.52538
-1.4565
-1.40968
-1.49943
-1.45549
-1.40939
-1.37153
-1.34402
-1.36036
-1.33473
-1.3082
-1.29255
-1.29995
-1.29207
-1.27797
-1.25468
-1.26536
-1.24706
-1.27023
-1.25707
-1.24249
-1.24486
-1.24573
-1.26912
-1.25969
-1.2531
-1.25715
-1.27375
-1.23769
-1.24019
-1.2556
-1.28526
-1.32294
-1.10288
-1.11032
-1.13345
-1.17115
-1.20978
-1.25565
-0.798668
-0.377133
-0.168037
-0.00870629
-1.26738
-0.755098
-0.366026
-0.166574
-0.00327889
-1.23879
-0.778751
-0.404006
-0.2073
-0.000776361
-1.25301
-0.89113
-0.489053
-0.287403
-0.000401347
-1.16525
-0.988431
-0.606739
-0.347723
-0.00224672
-0.823851
-0.916609
-0.492766
-0.190313
-0.0157565
-1.13097
-0.861366
-0.410254
-0.165129
-0.0116252
-1.04999
-1.31705
-1.37119
-1.32527
-1.11663
-1.07075
-1.32377
-1.38316
-1.32439
-1.29834
1.67525
1.64836
1.60356
1.54132
1.45808
1.8786
1.89716
1.89974
1.88441
1.85167
2.05256
2.08534
2.11047
2.12274
2.11982
2.15509
2.19577
2.23892
2.27395
2.28972
2.16554
2.20472
2.24828
2.28455
2.30127
-0.610045
-0.719679
-0.89238
-1.10048
-1.35079
0.0365897
-0.106577
-0.296555
-0.525035
-0.820012
0.616286
0.46818
0.291378
0.082038
-0.184511
1.08303
0.966611
0.825676
0.654724
0.445841
1.45685
1.37459
1.26803
1.14073
0.990372
1.86825
1.82808
1.821
1.82831
1.84037
1.85275
1.82429
1.8212
1.84818
1.90951
1.83942
1.81951
1.82067
1.86933
1.98925
1.82694
1.81368
1.81495
1.87676
2.00309
1.8153
1.80686
1.80442
1.87408
1.99836
1.9232
1.83512
1.80696
1.75143
1.70189
1.87887
1.825
1.80411
1.77325
1.71688
1.33321
1.09321
0.679775
0.0834829
-0.577816
1.42136
1.12914
0.698133
0.106118
-0.568936
)
;

boundaryField
{
    left
    {
        type            zeroGradient;
    }
    right
    {
        type            fixedValue;
        value           uniform 0;
    }
    down
    {
        type            zeroGradient;
    }
    up
    {
        type            zeroGradient;
    }
    cylinder
    {
        type            zeroGradient;
    }
    defaultFaces
    {
        type            empty;
    }
}


// ************************************************************************* //
