/*--------------------------------*- C++ -*----------------------------------*\
  =========                 |
  \\      /  F ield         | OpenFOAM: The Open Source CFD Toolbox
   \\    /   O peration     | Website:  https://openfoam.org
    \\  /    A nd           | Version:  13
     \\/     M anipulation  |
\*---------------------------------------------------------------------------*/
FoamFile
{
    format      ascii;
    class       volScalarField;
    location    "1.535";
    object      p;
}
// * * * * * * * * * * * * * * * * * * * * * * * * * * * * * * * * * * * * * //

dimensions      [0 2 -2 0 0 0 0];

internalField   nonuniform List<scalar> 
440
(
-1.37311
-1.35429
-1.35625
-1.33422
-1.26875
-1.50676
-1.48272
-1.45192
-1.38859
-1.29625
-1.68303
-1.64251
-1.55589
-1.43339
-1.29602
-1.82784
-1.7656
-1.61469
-1.4414
-1.2791
-1.8943
-1.79008
-1.58201
-1.37396
-1.18894
-0.515986
-0.521869
-0.52661
-0.511726
-0.472774
-0.707683
-0.71033
-0.715825
-0.700112
-0.641932
-0.954458
-0.956589
-0.963371
-0.973154
-0.876544
-1.15813
-1.15733
-1.17048
-1.20003
-1.10751
-1.2748
-1.26366
-1.2702
-1.28542
-1.20696
-0.140074
-0.00264652
0.075948
0.0456094
0.0140477
-0.248398
-0.0118055
0.0697204
0.0429569
0.0131934
-0.386584
-0.0279959
0.0612838
0.0397095
0.0122729
-0.518868
-0.0566997
0.0500236
0.0356405
0.0112217
-0.639331
-0.0956227
0.0356662
0.0306282
0.00991792
-0.652558
-0.12206
0.0163794
0.0219408
0.00765288
-0.538312
-0.14258
-0.0237833
0.00149497
0.00208356
-0.462918
-0.142488
-0.0287708
-0.00379637
0.000100803
-0.423209
-0.167859
-0.0525525
-0.0162123
-0.00362054
-0.393599
-0.176901
-0.0652681
-0.0229214
-0.0055166
-0.887912
-0.99468
-1.04699
-1.07477
-1.07236
-0.629881
-0.725797
-0.780447
-0.801532
-0.799396
-0.455149
-0.542623
-0.597782
-0.617081
-0.616081
-0.341573
-0.427911
-0.481373
-0.50112
-0.500057
-0.285082
-0.372512
-0.426948
-0.448641
-0.447176
0.391145
0.243968
0.064998
-0.137978
-0.370983
-0.000505623
-0.163692
-0.363478
-0.591741
-0.851698
-0.410535
-0.584693
-0.803647
-1.04314
-1.30197
-0.758467
-0.941331
-1.17501
-1.42426
-1.64415
-1.02644
-1.21579
-1.44165
-1.68026
-1.84491
1.70447
1.72557
1.74594
1.75574
1.75098
1.4997
1.50994
1.51485
1.50393
1.47424
1.24158
1.22791
1.19497
1.14077
1.06182
0.962978
0.921486
0.847769
0.745118
0.613119
0.678687
0.584973
0.458855
0.307421
0.124755
1.56213
1.43844
1.53495
1.5282
1.63737
1.54956
1.42363
1.5125
1.49217
1.54091
1.53758
1.4071
1.488
1.44539
1.41437
1.52636
1.38943
1.46144
1.38953
1.2361
1.51636
1.37088
1.43414
1.32649
1.04231
1.50524
1.34703
1.39673
1.22346
0.826416
1.49591
1.32122
1.36524
1.13238
0.82984
1.49567
1.30177
1.3422
1.0758
0.831932
1.49215
1.2836
1.32704
1.03265
0.841222
1.51946
1.27982
1.31885
1.00589
0.847963
0.401083
0.113797
-0.228724
-0.514141
-0.737716
0.361679
0.159834
-0.0792219
-0.300687
-0.488907
0.379145
0.199116
0.00960683
-0.172857
-0.326969
0.418434
0.247251
0.0769439
-0.0827154
-0.219915
0.440576
0.274741
0.114941
-0.0345993
-0.166051
-1.07168
-0.949
-0.80233
-0.687339
-0.620076
-1.08858
-1.03498
-0.927596
-0.836673
-0.782315
-0.971717
-0.925497
-0.859102
-0.80809
-0.773351
-0.795644
-0.742634
-0.716724
-0.714337
-0.735893
-0.69425
-0.651998
-0.638895
-0.675535
-0.744377
-0.76985
-0.761866
-0.744884
-0.854961
-0.856255
-0.776931
-0.79248
-0.818007
-0.919681
-0.852982
-0.591917
-0.606646
-0.641338
-0.67215
-0.632053
-0.453096
-0.461216
-0.472934
-0.469599
-0.444035
-0.431161
-0.440259
-0.448713
-0.440335
-0.41272
-0.531328
-0.0788064
0.0698878
0.0494268
0.0173393
-0.447636
-0.0386031
0.0800534
0.0564271
0.0178931
-0.285163
-0.0121506
0.0816463
0.0503804
0.0162738
-0.14665
-0.000425279
0.0825792
0.0499023
0.0157183
-0.0958928
0.00196677
0.0799014
0.0477076
0.014826
-0.405805
-0.236627
0.0201259
0.0432805
0.0181183
-0.518759
-0.139636
0.0816615
0.071221
0.0231324
-0.590496
-0.735231
-0.791693
-0.733863
-0.559269
-0.600796
-0.753233
-0.770119
-0.746623
-0.708965
1.5804
1.56208
1.53035
1.48582
1.42676
1.7139
1.73433
1.74354
1.73932
1.72229
1.82142
1.848
1.8673
1.87625
1.87443
1.86047
1.89386
1.93078
1.96232
1.97772
1.82351
1.85375
1.88802
1.91659
1.92925
-0.229547
-0.31954
-0.465512
-0.641466
-0.84824
0.289186
0.170646
0.0145377
-0.176634
-0.418732
0.763671
0.64219
0.495756
0.321324
0.103959
1.13009
1.03816
0.926831
0.789487
0.623609
1.41764
1.35672
1.27493
1.17506
1.05852
1.6294
1.48311
1.60208
1.57671
1.67509
1.61481
1.47828
1.59331
1.58346
1.69869
1.60144
1.47135
1.58446
1.58283
1.74355
1.58818
1.4625
1.57094
1.57404
1.72498
1.57506
1.45147
1.55446
1.55556
1.69675
1.67891
1.49234
1.60049
1.53112
1.5855
1.63993
1.48333
1.59653
1.54963
1.58694
1.30477
1.13577
0.817909
0.330835
-0.206777
1.38772
1.16789
0.831615
0.348379
-0.198379
)
;

boundaryField
{
    left
    {
        type            zeroGradient;
    }
    right
    {
        type            fixedValue;
        value           uniform 0;
    }
    down
    {
        type            zeroGradient;
    }
    up
    {
        type            zeroGradient;
    }
    cylinder
    {
        type            zeroGradient;
    }
    defaultFaces
    {
        type            empty;
    }
}


// ************************************************************************* //
