/*--------------------------------*- C++ -*----------------------------------*\
  =========                 |
  \\      /  F ield         | OpenFOAM: The Open Source CFD Toolbox
   \\    /   O peration     | Website:  https://openfoam.org
    \\  /    A nd           | Version:  13
     \\/     M anipulation  |
\*---------------------------------------------------------------------------*/
FoamFile
{
    format      ascii;
    class       volScalarField;
    location    "0.2775";
    object      p;
}
// * * * * * * * * * * * * * * * * * * * * * * * * * * * * * * * * * * * * * //

dimensions      [0 2 -2 0 0 0 0];

internalField   nonuniform List<scalar> 
1800
(
-0.999612
-0.975963
-0.917589
-0.830696
-0.73546
-0.644486
-0.562611
-0.490324
-0.426572
-0.374643
-1.18298
-1.15637
-1.08969
-0.991068
-0.883821
-0.781784
-0.690152
-0.60969
-0.540116
-0.483374
-1.3576
-1.32763
-1.252
-1.1414
-1.02222
-0.909212
-0.807654
-0.718193
-0.640148
-0.574338
-1.51828
-1.48455
-1.39963
-1.27746
-1.14733
-1.02463
-0.914549
-0.817517
-0.732682
-0.660497
-1.65935
-1.62149
-1.52703
-1.39376
-1.25357
-1.12211
-1.0043
-0.900328
-0.80916
-0.730647
-1.77571
-1.7335
-1.62959
-1.4862
-1.33734
-1.1986
-1.0745
-0.964915
-0.868643
-0.785124
-1.86222
-1.8156
-1.70257
-1.55029
-1.3943
-1.24978
-1.12074
-1.00677
-0.90649
-0.818963
-1.91463
-1.86379
-1.74237
-1.58278
-1.42142
-1.27282
-1.14035
-1.02336
-0.920262
-0.82982
-1.92945
-1.87473
-1.74602
-1.58091
-1.41609
-1.26514
-1.1308
-1.01218
-0.907522
-0.815275
-1.90456
-1.84637
-1.71178
-1.54314
-1.37679
-1.22519
-1.09047
-0.971512
-0.866437
-0.773432
0.332994
0.346297
0.360713
0.375368
0.387564
0.395888
0.400314
0.401449
0.39997
0.396465
0.290458
0.303874
0.319596
0.336585
0.351675
0.363022
0.370341
0.374153
0.375134
0.374024
0.222064
0.235682
0.25341
0.27398
0.293489
0.309441
0.321157
0.329035
0.333746
0.336289
0.129016
0.14295
0.163375
0.18873
0.214098
0.23611
0.253597
0.266788
0.276355
0.283666
0.0129553
0.0273563
0.0511634
0.0824488
0.114997
0.144367
0.168822
0.188389
0.203755
0.216751
-0.123927
-0.108857
-0.0810018
-0.0427215
-0.00183026
0.035995
0.0683955
0.0951833
0.117071
0.13643
-0.27878
-0.262789
-0.230258
-0.184061
-0.133903
-0.0868098
-0.0457741
-0.0111998
0.0176753
0.0437518
-0.448004
-0.430773
-0.392971
-0.338085
-0.27801
-0.221178
-0.171191
-0.128642
-0.0926444
-0.0599427
-0.627401
-0.60852
-0.564723
-0.500235
-0.429465
-0.362319
-0.302995
-0.252243
-0.208942
-0.169937
-0.812721
-0.791683
-0.740986
-0.66568
-0.582967
-0.504211
-0.434118
-0.373498
-0.321079
-0.275256
0.357741
0.276044
0.21737
0.172952
0.137666
0.108302
0.0821998
0.0578704
0.0344427
0.0114368
0.349924
0.272189
0.216354
0.172743
0.137574
0.108172
0.0820448
0.057728
0.0343407
0.0113901
0.335553
0.264858
0.213823
0.171936
0.137299
0.10802
0.0819266
0.057634
0.0342746
0.0113558
0.313832
0.254338
0.209838
0.170533
0.136829
0.107838
0.0818378
0.0575826
0.034241
0.0113331
0.283696
0.240987
0.204481
0.168542
0.136156
0.107616
0.0817712
0.0575681
0.0342364
0.0113215
0.244004
0.225164
0.197857
0.165978
0.13527
0.107348
0.0817199
0.0575848
0.0342575
0.0113208
0.19364
0.207122
0.190132
0.162877
0.134169
0.107023
0.0816766
0.0576269
0.0343009
0.0113308
0.131166
0.186428
0.181398
0.159267
0.132847
0.106634
0.0816342
0.0576885
0.0343632
0.0113515
0.0558944
0.161898
0.171369
0.155015
0.131229
0.106143
0.081575
0.0577601
0.0344402
0.0113783
-0.0264427
0.134097
0.160435
0.150262
0.129347
0.105551
0.0814945
0.0578369
0.0345287
0.0114238
-0.0730116
0.11038
0.148966
0.143562
0.125524
0.103435
0.0803144
0.0571747
0.0342125
0.0113843
-0.0885047
0.0820166
0.128904
0.130761
0.117633
0.0986274
0.0773722
0.0554008
0.0332688
0.0111034
-0.0863275
0.0657275
0.114983
0.120417
0.110555
0.0940366
0.0744696
0.0536241
0.0323115
0.0108118
-0.0804112
0.0522751
0.102051
0.110675
0.103769
0.089544
0.0715893
0.0518474
0.0313453
0.010512
-0.0711011
0.0429512
0.0910362
0.101912
0.0974608
0.0852623
0.0688009
0.0501113
0.0303923
0.0102114
-0.0611547
0.0360598
0.0815352
0.0940459
0.0916733
0.0812638
0.0661634
0.0484547
0.0294732
0.00991631
-0.0526425
0.0305522
0.0733247
0.0870565
0.0864565
0.0776151
0.0637318
0.0469141
0.0286071
0.00963203
-0.0468769
0.0254224
0.0660444
0.0808718
0.0818358
0.0743684
0.0615539
0.0455236
0.0278118
0.00936505
-0.043581
0.0201254
0.0590005
0.0749921
0.0774801
0.0713109
0.0594924
0.0441935
0.0270186
0.00907715
-0.0496148
0.0151961
0.0542658
0.0713648
0.0748752
0.0694971
0.0582724
0.0434085
0.0265522
0.00890913
-0.617011
-0.657938
-0.676153
-0.67273
-0.649651
-0.609253
-0.555121
-0.48846
-0.415471
-0.335385
-0.449372
-0.490818
-0.513852
-0.519632
-0.509064
-0.485009
-0.449128
-0.404711
-0.35504
-0.302997
-0.320735
-0.360831
-0.385932
-0.397126
-0.394438
-0.381199
-0.35719
-0.326779
-0.290565
-0.252452
-0.221234
-0.260729
-0.287174
-0.301649
-0.303998
-0.297413
-0.281132
-0.259619
-0.232551
-0.203932
-0.145761
-0.184406
-0.211579
-0.228114
-0.233939
-0.231725
-0.220929
-0.205537
-0.18514
-0.163282
-0.0881635
-0.126357
-0.154166
-0.172194
-0.180566
-0.18141
-0.174582
-0.163438
-0.147641
-0.130288
-0.0453899
-0.0834848
-0.111901
-0.131081
-0.141344
-0.144361
-0.140337
-0.132072
-0.119461
-0.10523
-0.0150526
-0.0535051
-0.0827502
-0.103033
-0.11479
-0.119383
-0.117262
-0.11081
-0.100193
-0.0880024
0.00156448
-0.0369304
-0.0670579
-0.0886907
-0.101962
-0.10782
-0.106812
-0.100801
-0.0905645
-0.0772118
0.012824
-0.0285865
-0.0614882
-0.0860941
-0.102723
-0.112006
-0.114587
-0.111383
-0.103267
-0.0900156
0.782298
0.731185
0.671522
0.607308
0.537531
0.459646
0.372322
0.278259
0.192828
0.14747
0.588928
0.532611
0.468885
0.3984
0.319532
0.230186
0.12967
0.0215627
-0.076212
-0.127644
0.374017
0.314084
0.247005
0.171588
0.0859178
-0.0119288
-0.122489
-0.241773
-0.349843
-0.406234
0.167703
0.102732
0.0297425
-0.0527888
-0.14662
-0.253616
-0.374299
-0.504435
-0.622336
-0.68274
-0.0212926
-0.0928465
-0.173262
-0.264097
-0.367079
-0.484094
-0.615537
-0.756757
-0.884629
-0.947605
-0.194003
-0.272155
-0.359861
-0.458772
-0.570687
-0.697513
-0.839369
-0.9906
-1.12809
-1.19079
-0.351121
-0.43475
-0.528682
-0.63461
-0.754362
-0.889789
-1.04099
-1.20203
-1.3426
-1.40539
-0.490323
-0.578192
-0.677102
-0.788694
-0.914855
-1.05731
-1.21596
-1.38309
-1.52362
-1.58742
-0.608046
-0.699232
-0.80196
-0.917743
-1.04851
-1.19621
-1.35983
-1.52908
-1.6696
-1.7328
-0.703238
-0.796252
-0.900876
-1.01899
-1.15265
-1.30321
-1.46921
-1.63914
-1.77784
-1.83895
1.95776
1.97409
1.9933
2.01353
2.03305
2.05099
2.06665
2.07954
2.09036
2.09898
1.90483
1.91922
1.936
1.95341
1.96981
1.98433
1.99624
2.00517
2.01241
2.01867
1.83196
1.8436
1.85683
1.87012
1.88198
1.89151
1.89793
1.90106
1.90307
1.90596
1.73981
1.74791
1.75659
1.76458
1.77059
1.77368
1.773
1.76862
1.76376
1.76246
1.62911
1.63309
1.63642
1.63813
1.63715
1.63252
1.62334
1.60988
1.59657
1.59051
1.50122
1.50077
1.49813
1.49267
1.48367
1.47013
1.45112
1.42719
1.40413
1.39253
1.35832
1.35337
1.34443
1.33119
1.31334
1.28991
1.25994
1.22436
1.19045
1.17264
1.20667
1.19659
1.17999
1.15745
1.12927
1.09452
1.05224
1.00373
0.958007
0.93355
1.05216
1.03666
1.01148
0.978364
0.938424
0.89085
0.834699
0.771783
0.713172
0.681709
0.907845
0.877883
0.837648
0.790519
0.737176
0.675966
0.605539
0.528011
0.456487
0.418066
1.87256
1.59078
1.832
1.68907
1.69497
1.70233
1.71244
1.73779
1.79071
1.89234
1.86606
1.58485
1.8266
1.68254
1.68772
1.69353
1.70114
1.72271
1.7684
1.85685
1.8602
1.57871
1.82163
1.67532
1.67992
1.68382
1.68811
1.70477
1.73983
1.80971
1.85493
1.57241
1.8171
1.66743
1.6716
1.67323
1.67339
1.68381
1.70483
1.75101
1.85023
1.56603
1.81302
1.65888
1.66282
1.66174
1.65699
1.65969
1.66379
1.68014
1.84609
1.55966
1.80936
1.64971
1.65361
1.64938
1.63893
1.63235
1.61753
1.59593
1.84251
1.55339
1.80609
1.63991
1.64405
1.63612
1.61918
1.6018
1.56656
1.49699
1.83947
1.54734
1.80315
1.62953
1.63418
1.62196
1.59774
1.56802
1.51118
1.38442
1.83697
1.54161
1.80047
1.61862
1.62406
1.60693
1.57471
1.53107
1.45041
1.25536
1.8351
1.53639
1.79796
1.60722
1.61376
1.59107
1.55049
1.49255
1.38665
1.12307
1.83332
1.53071
1.79344
1.59647
1.59992
1.57028
1.51826
1.44205
1.31088
0.989986
1.83394
1.52543
1.78758
1.58793
1.58439
1.54823
1.48562
1.39487
1.24478
0.93679
1.83624
1.52148
1.78245
1.58016
1.5701
1.52789
1.45624
1.35462
1.19099
0.899468
1.84066
1.51894
1.77814
1.57329
1.55732
1.50967
1.43049
1.32083
1.1479
0.874687
1.84782
1.51784
1.77473
1.56742
1.54626
1.49388
1.40867
1.29305
1.11475
0.858453
1.85815
1.51808
1.7722
1.56262
1.53707
1.4807
1.39084
1.27091
1.0904
0.848183
1.87201
1.5195
1.77039
1.55893
1.52984
1.47024
1.37698
1.25409
1.07346
0.842507
1.89245
1.52261
1.76948
1.5564
1.52466
1.46258
1.36704
1.24229
1.06271
0.8408
1.90887
1.52423
1.76627
1.55509
1.5217
1.45784
1.3611
1.23557
1.0576
0.84402
1.96468
1.53367
1.76887
1.5531
1.52092
1.45539
1.35812
1.23207
1.05557
0.8456
0.749703
0.585043
0.395519
0.214539
0.0504644
-0.0995798
-0.237794
-0.361867
-0.467922
-0.552805
0.677445
0.551051
0.406577
0.262297
0.127684
0.0030863
-0.11304
-0.219291
-0.312587
-0.389945
0.642148
0.539424
0.425857
0.306359
0.19049
0.0818453
-0.0198147
-0.113477
-0.196376
-0.266011
0.629134
0.539155
0.443578
0.341516
0.239959
0.143749
0.05354
-0.030066
-0.104981
-0.169144
0.628413
0.546151
0.461774
0.372145
0.281216
0.193756
0.111237
0.0342705
-0.0354568
-0.0959799
0.633602
0.556594
0.479394
0.398064
0.314539
0.233192
0.156022
0.08377
0.0178601
-0.0399144
0.641056
0.567809
0.495438
0.419607
0.341107
0.263964
0.190449
0.121401
0.0580603
0.00202486
0.649337
0.578635
0.509451
0.437017
0.361563
0.286989
0.215702
0.148597
0.0868389
0.0318979
0.660656
0.591925
0.524241
0.452745
0.377971
0.303876
0.232853
0.16584
0.103987
0.048792
0.675323
0.610297
0.543712
0.471689
0.396567
0.322193
0.250458
0.182373
0.119212
0.0623351
-3.03044
-2.94309
-2.75752
-2.54879
-2.35657
-2.19154
-2.05372
-1.9407
-1.85043
-1.78228
-3.10279
-3.02475
-2.85129
-2.64701
-2.45447
-2.28755
-2.14762
-2.03252
-1.94067
-1.87251
-3.06578
-2.99767
-2.83984
-2.64264
-2.45091
-2.28245
-2.14048
-2.02324
-1.92897
-1.8578
-2.9289
-2.87053
-2.7304
-2.54269
-2.35307
-2.18339
-2.03929
-1.91979
-1.8229
-1.7477
-2.70859
-2.65976
-2.53758
-2.36157
-2.17616
-2.00662
-1.86119
-1.74003
-1.64117
-1.56292
-2.42542
-2.38552
-2.2802
-2.11821
-1.94049
-1.77427
-1.63001
-1.50919
-1.4101
-1.33183
-2.10211
-2.06969
-1.97966
-1.83413
-1.66892
-1.51111
-1.3725
-1.25576
-1.15926
-1.0842
-1.76127
-1.73435
-1.65783
-1.53061
-1.38266
-1.23885
-1.111
-1.00253
-0.91229
-0.842919
-1.42389
-1.4006
-1.33599
-1.22792
-1.10073
-0.975739
-0.863707
-0.76818
-0.688362
-0.630174
-1.10581
-1.0849
-1.03061
-0.940908
-0.83517
-0.730635
-0.636217
-0.554751
-0.484326
-0.430751
-0.816716
-0.797809
-0.752399
-0.679493
-0.594408
-0.510774
-0.435936
-0.37249
-0.319092
-0.272947
-0.561075
-0.543819
-0.505915
-0.44738
-0.380199
-0.314824
-0.256835
-0.208053
-0.167731
-0.131026
-0.339413
-0.323295
-0.291611
-0.244808
-0.192204
-0.141678
-0.0972816
-0.0601277
-0.0297097
-0.00169188
-0.15064
-0.135374
-0.108843
-0.0716778
-0.0311013
0.00701887
0.0398411
0.0668071
0.0884377
0.108028
0.00643561
0.0210345
0.0433318
0.0726304
0.103349
0.131201
0.15432
0.172579
0.186572
0.198635
0.132937
0.147025
0.165984
0.189108
0.212074
0.231812
0.247209
0.258455
0.266195
0.272038
0.229792
0.243509
0.259992
0.278549
0.295762
0.309446
0.319052
0.32499
0.327929
0.328976
0.297699
0.311166
0.325992
0.34149
0.354831
0.364419
0.37009
0.372394
0.37201
0.369723
0.337201
0.350527
0.364478
0.378346
0.389604
0.396977
0.40051
0.400827
0.398611
0.394463
0.34879
0.362061
0.37588
0.389482
0.400383
0.407359
0.410499
0.410446
0.40788
0.403344
-0.00251412
0.128879
0.147932
0.144021
0.130091
0.110256
0.0874281
0.0631789
0.0381605
0.0127629
0.0928016
0.160088
0.161596
0.149932
0.131611
0.109931
0.0865081
0.0622545
0.0375206
0.0125454
0.169122
0.185251
0.172676
0.154211
0.13279
0.109615
0.0856824
0.0614277
0.0369485
0.0123496
0.227004
0.206474
0.182687
0.158401
0.133887
0.109349
0.0849589
0.0606974
0.0364412
0.0121745
0.270984
0.225258
0.19171
0.162101
0.13485
0.109125
0.0843317
0.0600591
0.0359956
0.0120188
0.304168
0.241652
0.199535
0.165282
0.13568
0.108939
0.0837945
0.0595077
0.0356085
0.0118816
0.328426
0.25528
0.20604
0.167936
0.136375
0.108783
0.0833403
0.0590382
0.0352769
0.0117616
0.34516
0.265766
0.21114
0.170047
0.136929
0.108651
0.0829615
0.0586452
0.0349978
0.011658
0.355339
0.272818
0.214756
0.171595
0.137334
0.108532
0.0826504
0.0583234
0.0347679
0.0115699
0.359487
0.276265
0.21684
0.172567
0.137582
0.108419
0.0823991
0.058067
0.0345839
0.0114965
-0.211937
0.0128452
0.0909267
0.117269
0.118654
0.106284
0.0867131
0.0636509
0.0388361
0.0130992
-0.178539
0.0326953
0.0993749
0.120618
0.119831
0.106624
0.0867384
0.0635667
0.0387354
0.0130512
-0.142849
0.051406
0.108377
0.124808
0.121664
0.10729
0.0868676
0.063497
0.0386197
0.0129901
-0.105288
0.0737762
0.119953
0.130429
0.124204
0.108325
0.0871837
0.0635218
0.0385568
0.0129498
-0.0620157
0.102971
0.135488
0.138079
0.127696
0.109705
0.087662
0.0636263
0.0385359
0.012926
-1.71582
-1.80394
-1.80259
-1.71946
-1.56844
-1.3842
-1.16772
-0.964297
-0.762755
-0.579259
-1.71514
-1.80308
-1.79703
-1.70741
-1.54982
-1.35897
-1.13668
-0.925776
-0.72308
-0.536774
-1.7182
-1.80584
-1.79539
-1.69847
-1.53267
-1.32978
-1.10043
-0.878603
-0.674193
-0.499724
-1.72861
-1.81679
-1.80282
-1.69817
-1.52258
-1.30512
-1.06782
-0.836543
-0.63443
-0.467527
-1.74692
-1.83657
-1.81957
-1.70758
-1.52213
-1.29225
-1.047
-0.809819
-0.603369
-0.422683
1.39348
1.37233
1.34262
1.3075
1.26791
1.22229
1.16891
1.10899
1.05303
1.02175
1.51973
1.51447
1.50145
1.48214
1.45767
1.4273
1.38992
1.34664
1.306
1.28411
1.64297
1.64311
1.63862
1.63007
1.61762
1.60042
1.57742
1.5493
1.52263
1.50896
1.75184
1.75675
1.75964
1.76017
1.75778
1.75152
1.74044
1.7249
1.70984
1.70287
1.84304
1.85198
1.86054
1.86802
1.87345
1.87587
1.87437
1.86906
1.86353
1.86197
1.91386
1.92623
1.93956
1.95274
1.9645
1.97389
1.9801
1.98298
1.98488
1.98783
1.96394
1.97897
1.99594
2.01342
2.02991
2.04452
2.05648
2.06545
2.07281
2.07927
1.9934
2.01016
2.02955
2.0499
2.06954
2.08761
2.10339
2.11638
2.12735
2.13614
2.00222
2.01976
2.04031
2.06205
2.08323
2.10299
2.12064
2.1356
2.14835
2.15826
1.99029
2.0077
2.02818
2.04986
2.07098
2.09068
2.10829
2.1232
2.13589
2.14574
-1.59033
-1.66054
-1.75029
-1.86123
-1.99627
-2.1584
-2.34887
-2.55963
-2.7536
-2.84834
-1.30898
-1.3816
-1.47183
-1.58134
-1.71347
-1.87135
-2.05647
-2.26775
-2.46624
-2.566
-0.959375
-1.03463
-1.12613
-1.23511
-1.36458
-1.51777
-1.69694
-1.89893
-2.09661
-2.20122
-0.570798
-0.649496
-0.742481
-0.850674
-0.976677
-1.12375
-1.29423
-1.4853
-1.67059
-1.77711
-0.179612
-0.260563
-0.353121
-0.458075
-0.577863
-0.715713
-0.874093
-1.05033
-1.21972
-1.32044
0.181847
0.103644
0.0162285
-0.0810814
-0.190613
-0.315499
-0.458122
-0.615954
-0.766629
-0.857125
0.501531
0.431679
0.354302
0.268793
0.172888
0.0636349
-0.0610733
-0.198742
-0.329332
-0.407543
0.788998
0.729587
0.663647
0.590906
0.509036
0.415229
0.307803
0.189402
0.0780964
0.0123762
1.05601
1.00536
0.947162
0.883511
0.812574
0.731685
0.639467
0.538574
0.445009
0.391102
1.28076
1.23717
1.1838
1.12723
1.06688
1.00001
0.924791
0.843056
0.767904
0.725488
1.98244
1.63366
1.89521
1.70598
1.73592
1.73961
1.73663
1.73613
1.69986
1.5714
1.96668
1.63079
1.88989
1.70877
1.73386
1.7399
1.73978
1.74736
1.73021
1.65949
1.95221
1.62761
1.88392
1.71058
1.73152
1.7394
1.74297
1.75756
1.75798
1.74449
1.939
1.62411
1.87748
1.71136
1.72883
1.73803
1.7446
1.76505
1.78057
1.80947
1.92688
1.62029
1.87076
1.71108
1.7257
1.73573
1.74475
1.76978
1.79846
1.85936
1.91577
1.61616
1.86392
1.70975
1.72206
1.73249
1.7434
1.77162
1.81167
1.89478
1.90555
1.61171
1.8571
1.7074
1.71787
1.72833
1.74051
1.77049
1.81954
1.91751
1.89618
1.60695
1.85042
1.7041
1.71307
1.72323
1.73601
1.76646
1.82137
1.92862
1.88758
1.60186
1.84396
1.6999
1.70765
1.71719
1.72987
1.75964
1.81715
1.92817
1.87972
1.59646
1.8378
1.69487
1.70162
1.71022
1.72202
1.75008
1.80694
1.9161
2.12549
1.65184
1.90206
1.70701
1.73772
1.73273
1.71542
1.69009
1.59477
1.42933
2.06808
1.64504
1.90073
1.70812
1.73716
1.73381
1.7171
1.69332
1.60138
1.43178
2.04567
1.64369
1.90246
1.70746
1.73733
1.73509
1.72016
1.69934
1.61549
1.43707
2.02141
1.64048
1.90117
1.70641
1.73731
1.73654
1.72448
1.70822
1.63595
1.45478
2.00013
1.6368
1.89902
1.70496
1.73709
1.73805
1.72961
1.71971
1.66208
1.48018
1.1003
0.960069
0.75829
0.48084
0.14059
-0.235446
-0.616525
-0.975039
-1.28991
-1.54147
1.09059
0.949225
0.754564
0.488544
0.161526
-0.206037
-0.587135
-0.952527
-1.2767
-1.53654
1.11274
0.961097
0.760727
0.499382
0.182413
-0.179554
-0.563769
-0.937181
-1.26974
-1.53631
1.1668
0.993269
0.775177
0.511963
0.200662
-0.158693
-0.547076
-0.928685
-1.26925
-1.5423
1.24836
1.04537
0.798863
0.525084
0.213183
-0.145551
-0.536676
-0.924973
-1.27386
-1.55491
)
;

boundaryField
{
    left
    {
        type            zeroGradient;
    }
    right
    {
        type            fixedValue;
        value           uniform 0;
    }
    down
    {
        type            zeroGradient;
    }
    up
    {
        type            zeroGradient;
    }
    cylinder
    {
        type            zeroGradient;
    }
    defaultFaces
    {
        type            empty;
    }
}


// ************************************************************************* //
