/*--------------------------------*- C++ -*----------------------------------*\
  =========                 |
  \\      /  F ield         | OpenFOAM: The Open Source CFD Toolbox
   \\    /   O peration     | Website:  https://openfoam.org
    \\  /    A nd           | Version:  13
     \\/     M anipulation  |
\*---------------------------------------------------------------------------*/
FoamFile
{
    format      ascii;
    class       volScalarField;
    location    "0.6";
    object      p;
}
// * * * * * * * * * * * * * * * * * * * * * * * * * * * * * * * * * * * * * //

dimensions      [0 2 -2 0 0 0 0];

internalField   nonuniform List<scalar>
1800
(
-1.56116919324
-1.57378420675
-1.52521658395
-1.43721923285
-1.33787790769
-1.24310218791
-1.15850589134
-1.08410954719
-1.01874493562
-0.966199573253
-1.76074665673
-1.77437887247
-1.71743506077
-1.61732398728
-1.50560368647
-1.39939939286
-1.3047583062
-1.22204020454
-1.15086520732
-1.09323762768
-1.95230681131
-1.96627645712
-1.90001047975
-1.78752024036
-1.66341501731
-1.54568807433
-1.44053926107
-1.34822230617
-1.26786744117
-1.20021744738
-2.13057882591
-2.14413100421
-2.06805207889
-1.94371772785
-1.8083402205
-1.68051585951
-1.56643510107
-1.46615161788
-1.37862167739
-1.30429101793
-2.28958873232
-2.30188843331
-2.21556128741
-2.08004034314
-1.93432679522
-1.7973681251
-1.67513375119
-1.56748039136
-1.47320801678
-1.39211233722
-2.42409532022
-2.4343953607
-2.3378269125
-2.19231632906
-2.03775212772
-1.89321591505
-1.76434970834
-1.65076687259
-1.55106765592
-1.4646497198
-2.52884694418
-2.53646130391
-2.42993272198
-2.27591291707
-2.1140415011
-1.96350220929
-1.82945184124
-1.71123306655
-1.60728394558
-1.51662515124
-2.59948041723
-2.60386388176
-2.48818274722
-2.3273462966
-2.15994053418
-2.00516677959
-1.86753992539
-1.74612980653
-1.63919701229
-1.54544433154
-2.63247939136
-2.6331951861
-2.50961469392
-2.34365124934
-2.17258843917
-2.01547642529
-1.87588336466
-1.752746758
-1.64415868257
-1.54847114552
-2.62568771773
-2.62260659571
-2.49203998408
-2.32344530337
-2.15039291632
-1.99272686559
-1.8526636959
-1.72912079709
-1.62007448173
-1.52355096715
-0.138785687684
-0.129280429927
-0.118065080421
-0.104550530035
-0.0930492018202
-0.0858089962772
-0.0828290715914
-0.08334856966
-0.0865960530929
-0.0919444357177
-0.186262956892
-0.178027656292
-0.165942231739
-0.15001195218
-0.135328028093
-0.124792504883
-0.118686092538
-0.11631270045
-0.116895658065
-0.119633499879
-0.259783621102
-0.253391111107
-0.239950492709
-0.220351219725
-0.200832103017
-0.185296937326
-0.174452415443
-0.167696699881
-0.164243694663
-0.163000110207
-0.358437618329
-0.354307810807
-0.338969496127
-0.314456895316
-0.288564654136
-0.266467971272
-0.249417678089
-0.236944892309
-0.228237083627
-0.221793123089
-0.480913884235
-0.479316169563
-0.461474953448
-0.430841065714
-0.397183398959
-0.36714659317
-0.342623354696
-0.323300938878
-0.308328439271
-0.295681602398
-0.625337714386
-0.626417130513
-0.605414738669
-0.567534377648
-0.524912782732
-0.48578668834
-0.452767310676
-0.425713580709
-0.403722082496
-0.384155507225
-0.789131813828
-0.792935841042
-0.768109508145
-0.722018861204
-0.669512074394
-0.620468252221
-0.57824414235
-0.542884475736
-0.513404307422
-0.486578597664
-0.96886731969
-0.975353078946
-0.946052901798
-0.891000722013
-0.828044031463
-0.768684408151
-0.716999427931
-0.673202100046
-0.636123748958
-0.602182076737
-1.16033908403
-1.16930837021
-1.13470920296
-1.06982521348
-0.995783150695
-0.925689983169
-0.864333467253
-0.812038668341
-0.76727607044
-0.726762761182
-1.35922503184
-1.37027160031
-1.32921599942
-1.25319619752
-1.16680383158
-1.08467298908
-1.01219027302
-0.949692418417
-0.895490532152
-0.848329702656
-0.134751992365
-0.211647909351
-0.280444057279
-0.330685804164
-0.369142488807
-0.400037839361
-0.42669115272
-0.450982042826
-0.474019220116
-0.496458417976
-0.146275610509
-0.219683955115
-0.284157912835
-0.332743786036
-0.370543650219
-0.401107416455
-0.427507813191
-0.451562993338
-0.474371354144
-0.496586270565
-0.164240282303
-0.232184014984
-0.289904012375
-0.335672347614
-0.372278045633
-0.402288353303
-0.428344235897
-0.452130223583
-0.474706671363
-0.49670801733
-0.189604590121
-0.248638354187
-0.297599483183
-0.339459052152
-0.374356640707
-0.403590166238
-0.429207607912
-0.452689753888
-0.47502871404
-0.496824117148
-0.223767802997
-0.268332307911
-0.307098914845
-0.344078383064
-0.376778469691
-0.405017700215
-0.430103927037
-0.453246894982
-0.475341048914
-0.496935478163
-0.268478337019
-0.290404905618
-0.318176028643
-0.349482371635
-0.379544494233
-0.406574985717
-0.431038615772
-0.453806729658
-0.475646620906
-0.497042156903
-0.32567724609
-0.314033258042
-0.330454559785
-0.355589142727
-0.382646245929
-0.408266307354
-0.432016493364
-0.454373922205
-0.475948314879
-0.497144176137
-0.397182937296
-0.339971876131
-0.343658055898
-0.362312290576
-0.386073384436
-0.41009532303
-0.43304199216
-0.454953041668
-0.476249155054
-0.497241286453
-0.483238823303
-0.370416582105
-0.358124117984
-0.369793304612
-0.389909794504
-0.412104736479
-0.434135757384
-0.455554443175
-0.476553007771
-0.497335108427
-0.576987133279
-0.405103717746
-0.373628222547
-0.377894816372
-0.394119155707
-0.414292193368
-0.435300766496
-0.456184072342
-0.476865248244
-0.497418543284
-0.636077195224
-0.44224106148
-0.392157018748
-0.389389028015
-0.401183096814
-0.41856584514
-0.437896113515
-0.457739594963
-0.477677481897
-0.497617814753
-0.659116533595
-0.479673206671
-0.41805132275
-0.406464802903
-0.412198438986
-0.425559045942
-0.442309817037
-0.46044992156
-0.479140019912
-0.498064068473
-0.664662281454
-0.501572136307
-0.436715605876
-0.420477801066
-0.422025273079
-0.432117586901
-0.446561103595
-0.463094811599
-0.480582107825
-0.498510926755
-0.666402892156
-0.519683896242
-0.453720400211
-0.433409779351
-0.43124399458
-0.438383528833
-0.450672135832
-0.465670534062
-0.481997095699
-0.498955281966
-0.663726721046
-0.532731306413
-0.468064114655
-0.44486342275
-0.439652439277
-0.444223717643
-0.454556013914
-0.468123423862
-0.483355471054
-0.499387308626
-0.659195648441
-0.54268299863
-0.480260348771
-0.454951864254
-0.447206721848
-0.449553498905
-0.458139388806
-0.470404451158
-0.484630149248
-0.499798685128
-0.654838796107
-0.550669339556
-0.490618557977
-0.463729208248
-0.453862854341
-0.454298549829
-0.461357425338
-0.472467897617
-0.485796857067
-0.500182510874
-0.652008789447
-0.557735664973
-0.499563674945
-0.471298326253
-0.459600275135
-0.458400990224
-0.464153389976
-0.474272804017
-0.486833560629
-0.50053057068
-0.649943114469
-0.564450841596
-0.507983301607
-0.478318040233
-0.464866094907
-0.462148973383
-0.46671165299
-0.475937787406
-0.487828093892
-0.500890141213
-0.658717750641
-0.571773724742
-0.514608346113
-0.483365426653
-0.468517718335
-0.464715276434
-0.468452785917
-0.477064360836
-0.488494934593
-0.501127793504
-1.36193240771
-1.38665181721
-1.38814903739
-1.36770607997
-1.32749905803
-1.27020136747
-1.19955667547
-1.11669099772
-1.02900479539
-0.932541925044
-1.1893232317
-1.21559175846
-1.22297388876
-1.21285583718
-1.18618169313
-1.14641278501
-1.09474127248
-1.03530549982
-0.971824446758
-0.903657034879
-1.05692729595
-1.08263788054
-1.09310604032
-1.08956331728
-1.07202456803
-1.04449912179
-1.00596004264
-0.962113048231
-0.912940799908
-0.859858135525
-0.954312539526
-0.980293349821
-0.992988197404
-0.993629600115
-0.982104536302
-0.962169419538
-0.932341253386
-0.898409342052
-0.859021134029
-0.816895016197
-0.876639359928
-0.902379838934
-0.916455012479
-0.919840335453
-0.912559268637
-0.897688709337
-0.874216098449
-0.847216842419
-0.815190408188
-0.78116633624
-0.817290274106
-0.843100203549
-0.858338464013
-0.863751473966
-0.859613334585
-0.848330228282
-0.829527880452
-0.807390642336
-0.780537195714
-0.752039065245
-0.77320385015
-0.799297432313
-0.8155211467
-0.822467001302
-0.820632343329
-0.811884563213
-0.796375136374
-0.777547641645
-0.75435979877
-0.729772016036
-0.741963481177
-0.7686813397
-0.785966660192
-0.794230386119
-0.794127053756
-0.787158060839
-0.773835432483
-0.757043288291
-0.736154095141
-0.714183514398
-0.725558487243
-0.752093595285
-0.770322099879
-0.780015136416
-0.781465963169
-0.775734201821
-0.763482934438
-0.747002018618
-0.726365239837
-0.703138337869
-0.712531738453
-0.742975595954
-0.764601813114
-0.77793287306
-0.783522137719
-0.782053650275
-0.774337618797
-0.761365715977
-0.743402614777
-0.720632527488
-0.0799523059834
-0.133409587151
-0.197950578969
-0.26782179956
-0.343182514733
-0.426988806894
-0.520880964308
-0.621003599175
-0.708177041106
-0.735840196571
-0.267617106009
-0.326256905792
-0.393976727738
-0.4689116615
-0.552620441908
-0.647541220675
-0.754428032267
-0.868541978632
-0.967787014058
-0.997361900688
-0.478656310301
-0.540954690001
-0.611089852643
-0.69000978383
-0.779806527441
-0.882602907355
-0.99893734342
-1.12385740689
-1.23303478544
-1.26300425692
-0.677601448731
-0.744884526531
-0.820758586873
-0.906718168198
-1.00460755037
-1.1164345095
-1.24272213603
-1.37850773107
-1.49759624862
-1.52676041107
-0.855563035906
-0.929684613598
-1.01326144854
-1.10781440899
-1.21511297947
-1.33718052923
-1.47439042809
-1.62157719428
-1.75112614619
-1.77788551171
-1.01577323269
-1.09678542719
-1.1879466186
-1.29085698989
-1.40733773595
-1.53940633461
-1.68710119042
-1.84449215579
-1.98448120842
-2.00563526487
-1.15994500388
-1.2466175686
-1.34422237108
-1.45438114495
-1.57891908441
-1.7196760527
-1.87641380028
-2.04292901143
-2.18972367429
-2.20198819463
-1.28560221691
-1.37667796065
-1.47947201165
-1.59553584865
-1.72680728086
-1.87492086845
-2.03842667832
-2.205365849
-2.36520591558
-2.36111128707
-1.38888044547
-1.48357321149
-1.59047285252
-1.71091783933
-1.84700634232
-2.00152882262
-2.17168150173
-2.34516596048
-2.47892320453
-2.48909259285
-1.46934645718
-1.56581305288
-1.67485493893
-1.79755736451
-1.93580608996
-2.09277225005
-2.2669869165
-2.4355353479
-2.57081826505
-2.57807406949
1.02848334266
1.04271421773
1.05887218072
1.07536263222
1.09076628138
1.10422181646
1.11492053374
1.12230678218
1.12745749606
1.13260203861
0.978569578109
0.99087682418
1.00461344855
1.01824676776
1.03048901499
1.04045530016
1.04730543658
1.05070840019
1.05248589435
1.05581106732
0.909113917587
0.918732146186
0.928960370268
0.938457242554
0.946129990488
0.951042366787
0.952310876834
0.949923338455
0.946904107353
0.947525515603
0.820828040244
0.827021766689
0.832746273359
0.836950543844
0.838739189905
0.837171633777
0.831282627883
0.821418684377
0.812262845422
0.809176577034
0.714564473538
0.716724457237
0.717178597001
0.71509469402
0.709889418417
0.700581475471
0.686127182641
0.667240960586
0.650148249487
0.643833349468
0.591404719927
0.589268522041
0.583922473585
0.574758646991
0.561572048728
0.543379811167
0.519102296311
0.489834139171
0.463435940259
0.453589629311
0.453416305769
0.447184483512
0.43588919849
0.4191411178
0.397184241365
0.369134467712
0.333876687187
0.293017050982
0.256249544507
0.242626434336
0.307376219531
0.296461974985
0.277915738716
0.252066300844
0.219841672816
0.180483119292
0.132868413667
0.079120060279
0.0309919816316
0.0136335327446
0.160878081668
0.145062319498
0.118150062597
0.0815907959755
0.0374083002557
-0.0149941387826
-0.0767071052543
-0.144960697637
-0.205632043025
-0.226759264391
0.030432412451
-0.00148972445685
-0.0449942611123
-0.0966315387886
-0.154828327094
-0.22124079566
-0.297521631049
-0.380574042251
-0.453867152257
-0.478382528448
0.855403595249
0.972584821432
0.954682228592
0.77162196967
0.781814512605
0.792137153567
0.801009674113
0.822200709295
0.863605079766
0.967437898941
0.849585443606
0.968361743575
0.949888916871
0.765796567335
0.775531895053
0.784465127814
0.791074385809
0.808949916795
0.844250750846
0.934359623884
0.844076509726
0.964456565773
0.944985612804
0.758971966413
0.768688682707
0.775985221607
0.779595079776
0.793186708435
0.819570780525
0.889651802418
0.83886669902
0.96091041294
0.939941869094
0.751181264048
0.761356145422
0.766744118603
0.766579417071
0.774736075751
0.789093905147
0.833656963315
0.833996754541
0.957745057394
0.934735979655
0.742470015136
0.753609152446
0.756721778481
0.752057044728
0.753390827102
0.752586122454
0.766421841637
0.829529738342
0.954964157568
0.92931779391
0.732915026279
0.745535462329
0.745935453415
0.736013324314
0.729028652615
0.711054974848
0.686455227672
0.825541751545
0.952584149804
0.923622384105
0.722585538435
0.737213123484
0.73437371376
0.718417414652
0.701744002584
0.666330514131
0.590608419799
0.82211086128
0.950576262103
0.917602163835
0.71160661093
0.728721192455
0.721991402744
0.699275004666
0.671566952876
0.617609759699
0.480866804526
0.819325706402
0.948900628214
0.911203652487
0.700116209286
0.720113984547
0.708804061774
0.678717356641
0.638431378549
0.562933871381
0.354090215898
0.817523270986
0.94761513188
0.904443402593
0.688304457482
0.711348941471
0.694818192437
0.657103322343
0.603801086132
0.504454747425
0.22576758789
0.815692404105
0.945297845997
0.900035053806
0.67744194171
0.698869960961
0.676489742685
0.628723876944
0.559402633341
0.439441547598
0.105008591286
0.815614848621
0.942195793107
0.89905954091
0.669289901395
0.684008312279
0.656703345505
0.599808283597
0.517770030905
0.381118619877
0.067650303793
0.817612649791
0.939880023352
0.898157231617
0.662098478979
0.670353262485
0.638334370875
0.573625979853
0.482133780605
0.332971727742
0.0409068862013
0.821896163926
0.938594523698
0.897373757919
0.655925560818
0.658225735213
0.621810698152
0.550638681335
0.452181467069
0.294013870866
0.0249277472894
0.829711891147
0.938498841864
0.896816953446
0.650767129238
0.647822854019
0.607469664937
0.531124657379
0.427502079483
0.263992237378
0.0160280755716
0.840194964349
0.939560148203
0.89650968472
0.646662322007
0.63924543603
0.595482996459
0.515166581051
0.407768756437
0.242080608502
0.0116937814487
0.858514032999
0.941728904
0.896346809937
0.643582318554
0.632552301854
0.585969496211
0.502751922519
0.392729043322
0.227019370359
0.010573655609
0.879065415754
0.945158808785
0.896426024413
0.641526177943
0.627823477181
0.578966683385
0.493812708953
0.382150179406
0.217627157306
0.0121559156736
0.893022388351
0.945839926664
0.893563618201
0.640693580401
0.625261835021
0.574681821095
0.488550180768
0.376203462008
0.213418161363
0.0177554309911
0.952064879224
0.956645634372
0.897175435735
0.638958423247
0.625302368957
0.572960961368
0.486542562503
0.373880799767
0.212888961628
0.0212265001748
-0.114263807579
-0.270820620754
-0.452879190023
-0.625063578061
-0.7776061142
-0.91508515682
-1.04064070065
-1.15160267679
-1.24346632021
-1.31335130624
-0.179685147403
-0.297769512871
-0.433954777376
-0.569290722979
-0.692769839531
-0.804949308897
-0.908425485988
-1.00153967048
-1.08129307177
-1.14449565328
-0.206184447304
-0.29999918342
-0.403495073216
-0.514012358269
-0.620067679256
-0.717710440586
-0.807963785594
-0.889795928967
-0.960174920363
-1.0162494045
-0.210606388706
-0.292452956023
-0.378324433521
-0.471614810152
-0.563891928586
-0.649627192454
-0.728858471707
-0.801079595922
-0.863970676465
-0.915396468818
-0.203624556096
-0.27854994423
-0.35371441408
-0.434711435072
-0.516844933615
-0.59447884713
-0.666543337709
-0.732621613666
-0.790917524639
-0.839417886328
-0.19208006231
-0.26244710008
-0.33103903858
-0.403980363695
-0.479090511109
-0.551087731086
-0.618202561574
-0.679943165397
-0.734849947251
-0.781085331667
-0.179833976515
-0.24694878526
-0.311200193548
-0.378869008336
-0.44924471085
-0.517389421977
-0.581153432035
-0.63996826457
-0.692599291239
-0.737440057389
-0.168289383203
-0.233238481086
-0.294618830183
-0.359067282945
-0.42660733448
-0.492421623206
-0.554178357476
-0.611250116545
-0.662473698424
-0.706386281754
-0.154641835104
-0.217988415899
-0.278105402711
-0.341780150401
-0.408821577206
-0.474396602061
-0.536155996202
-0.593425320069
-0.645052848566
-0.689505274482
-0.137228393175
-0.196050178478
-0.254669365422
-0.318984316774
-0.386604043201
-0.452823163273
-0.515752516975
-0.57452228217
-0.627802325022
-0.674178394279
-3.77934591446
-3.76074553812
-3.57825424609
-3.36633786461
-3.16336353195
-2.98827621765
-2.84158524505
-2.72061164817
-2.62334200019
-2.54918444873
-3.82921498405
-3.82115501359
-3.65305142069
-3.44325781125
-3.23888811564
-3.06057653403
-2.91090502726
-2.78731402299
-2.68827308861
-2.61467468201
-3.76636534452
-3.76901317772
-3.61722835175
-3.4121460847
-3.20684877897
-3.02550612661
-2.87289023427
-2.74658888214
-2.64463929489
-2.56773758705
-3.59848723755
-3.60989257312
-3.47653022317
-3.27861037568
-3.07361673409
-2.88968942887
-2.73411165491
-2.60514963068
-2.50030697505
-2.41873560168
-3.3418952053
-3.35973552765
-3.24524713626
-3.05758646109
-2.85562424298
-2.67105217047
-2.51373357147
-2.38295153663
-2.2761002249
-2.19124969967
-3.01912630996
-3.04124868286
-2.94465396058
-2.77082024114
-2.57651041313
-2.39540296311
-2.23951612495
-2.1092937796
-2.00229971792
-1.91747047951
-2.65674565634
-2.68063769235
-2.60040556997
-2.44418362624
-2.26365004278
-2.09221968914
-1.9430789794
-1.81782993361
-1.71396264874
-1.63278065641
-2.28125285576
-2.30433196207
-2.23854884909
-2.10272859465
-1.94170226824
-1.78629842753
-1.64963533669
-1.53407698135
-1.43765601643
-1.36308165099
-1.91609645753
-1.93628494643
-1.88301288847
-1.76883727332
-1.63123265544
-1.4970565556
-1.37827490926
-1.27748614252
-1.1931747827
-1.13166578064
-1.57740763408
-1.59362265775
-1.55067640449
-1.45712051029
-1.34339531872
-1.2318157313
-1.13234666811
-1.04702157612
-0.973251438327
-0.917535346973
-1.27419877834
-1.28642294658
-1.25181712379
-1.17685583268
-1.08588201777
-0.997058686695
-0.918610323603
-0.852468145778
-0.796588595937
-0.748381722042
-1.00996645913
-1.01818110877
-0.990180922331
-0.930885005634
-0.859497487141
-0.790453654889
-0.730045018345
-0.679551592409
-0.637751999358
-0.599360017178
-0.783876403354
-0.78819137035
-0.765253385844
-0.718529750816
-0.663018706885
-0.610033113545
-0.564152214855
-0.526058838974
-0.494983531839
-0.466088924551
-0.593903145975
-0.594672787765
-0.575683770605
-0.539183277761
-0.49681341197
-0.457313390372
-0.423886069884
-0.396741078388
-0.37516809228
-0.35549602854
-0.438099887909
-0.435751820581
-0.419832377077
-0.391579439358
-0.359986757056
-0.331649824271
-0.308657196559
-0.290852645153
-0.277479606123
-0.265953067653
-0.31464643232
-0.30961250329
-0.295952246997
-0.274070361504
-0.250939948735
-0.231407608615
-0.216705094582
-0.206415384763
-0.199758280563
-0.194971680244
-0.222001512305
-0.21475602289
-0.202639939656
-0.185388907614
-0.168531103404
-0.155557587688
-0.147073005686
-0.142476974577
-0.140990687114
-0.141417115471
-0.15894409134
-0.15005598577
-0.138877557269
-0.124684552025
-0.112029879894
-0.103484690001
-0.0992189609301
-0.0985215585337
-0.10061530762
-0.104662922404
-0.124497456815
-0.114668993746
-0.10391626793
-0.091323054096
-0.0809090444108
-0.0747437230369
-0.0727626709909
-0.0741899661123
-0.0782548724413
-0.0843229998631
-0.118035378867
-0.107947273597
-0.0971707898316
-0.0847808475607
-0.0747278168571
-0.0689734613887
-0.0673964293688
-0.0692099882453
-0.0736436215752
-0.0801261012449
-0.465674299044
-0.350435391331
-0.343389936099
-0.353059381017
-0.370690687656
-0.393017897052
-0.417571914909
-0.442963553279
-0.468708216289
-0.494607392883
-0.36889473909
-0.319284963833
-0.330072128747
-0.347403911381
-0.369411468232
-0.393582634906
-0.418703789978
-0.444046172271
-0.469445023849
-0.494857548621
-0.292986707221
-0.294705610443
-0.319323735708
-0.343430757158
-0.368493667543
-0.394177596488
-0.419771449745
-0.445051554597
-0.4701257893
-0.495089711084
-0.23677516057
-0.274472720205
-0.309379738543
-0.339394345195
-0.367696219448
-0.39476846146
-0.420769626072
-0.445982139111
-0.470753990159
-0.495305260505
-0.195622565674
-0.256530370122
-0.300274606795
-0.33591889053
-0.367115251561
-0.395372713476
-0.421708784228
-0.446844611938
-0.471333908536
-0.495505452603
-0.166531482662
-0.240197999646
-0.292430758322
-0.333106100068
-0.366768370157
-0.396005399866
-0.422599093225
-0.447646198676
-0.471869370499
-0.495691909814
-0.146907221114
-0.226495200468
-0.2861600365
-0.331009208637
-0.366671834376
-0.396676761856
-0.423451331728
-0.448393535787
-0.472364365897
-0.49586569266
-0.134798960606
-0.215792092293
-0.281700621255
-0.329683320261
-0.366846816975
-0.397402413276
-0.424276275427
-0.449093808947
-0.472822891061
-0.49602809497
-0.129129669367
-0.209779082078
-0.279227490057
-0.329169998884
-0.367305542162
-0.398195686208
-0.425084596444
-0.449754101348
-0.47324879747
-0.49618030007
-0.129107391222
-0.20833626469
-0.278799117504
-0.32949702724
-0.368066913482
-0.39907026838
-0.42588632605
-0.450381249649
-0.473646267668
-0.496323346479
-0.679113712251
-0.48163291784
-0.405245652919
-0.382363219678
-0.383085032456
-0.396964638032
-0.417968546261
-0.442149658496
-0.467779297313
-0.494173892246
-0.632674275434
-0.457600916868
-0.395645889885
-0.378507778554
-0.381486933559
-0.396605139229
-0.417981027802
-0.442276167292
-0.467912679637
-0.494235553074
-0.601044328886
-0.438027858831
-0.385952602106
-0.373919520362
-0.379425705139
-0.395908209128
-0.417878782127
-0.442387122004
-0.468064707076
-0.494312300071
-0.566582412441
-0.413989426941
-0.373699975603
-0.367903267563
-0.376953108848
-0.394852947557
-0.417608018892
-0.442420484627
-0.468173357129
-0.494370583747
-0.525335896957
-0.381127935707
-0.357008944936
-0.359540254826
-0.373182338421
-0.393466143182
-0.417197181843
-0.442394100444
-0.468251926152
-0.494415871351
-2.4803982964
-2.54860355373
-2.5210866111
-2.40468057391
-2.21251291246
-1.98228808975
-1.71609242629
-1.47409362194
-1.24195846369
-1.04105322775
-2.47792831265
-2.5433123518
-2.50886796093
-2.38536738618
-2.18882640893
-1.95744590853
-1.69589404664
-1.45596010685
-1.22495820841
-1.01113529899
-2.47995326976
-2.54402360939
-2.50431484725
-2.37305378166
-2.16906959608
-1.92564211719
-1.65612002522
-1.40092386396
-1.17185141352
-0.979608764796
-2.49049112704
-2.5554964466
-2.51177525722
-2.37090163845
-2.15468113727
-1.89480133844
-1.61831630671
-1.35636218226
-1.13365065822
-0.949553333496
-2.51003794099
-2.57616082799
-2.52824128637
-2.37783973375
-2.14954343933
-1.87664517582
-1.59402163742
-1.32826503388
-1.10339774584
-0.908922737809
0.458180965823
0.437167450714
0.406428587932
0.368859056821
0.326391502711
0.277572876882
0.220236354221
0.156454286596
0.0999700549191
0.0789046652343
0.579410160891
0.575026554475
0.561618737323
0.540194668268
0.512848954639
0.47910041483
0.437651127483
0.390362225645
0.34852857496
0.333451283212
0.701866726748
0.701894855533
0.696255694719
0.685271084248
0.669794767572
0.6491258366
0.622018488253
0.589774915808
0.561278109631
0.551528011702
0.811153957954
0.815413169842
0.816614251426
0.814344432641
0.80866555627
0.798694088746
0.783330119744
0.763411287926
0.745867398867
0.740364059567
0.903089675546
0.910863060564
0.917258649133
0.921656836488
0.923588688154
0.922131115507
0.916225263752
0.906340470904
0.897672582569
0.895629740985
0.974764495401
0.985698126535
0.996593566038
1.00650538961
1.01462166881
1.01999767571
1.02167849504
1.01976027635
1.0176454035
1.01909324354
1.02607002826
1.03943667209
1.05376562608
1.06783769631
1.08056900312
1.09105517786
1.09839662378
1.10236122875
1.10495537387
1.10919701719
1.05717823996
1.0720712141
1.08866198907
1.10548527006
1.12127867303
1.13512738608
1.14619428617
1.15400530468
1.1597017529
1.16548568153
1.0678896582
1.0834680745
1.10111544071
1.11926264015
1.13652184784
1.15198285258
1.16484324022
1.17447767461
1.181626801
1.18796712883
1.05836118532
1.07367919023
1.09115469449
1.10913825364
1.12620726202
1.141486338
1.1542001339
1.16371168481
1.17070303436
1.17686666458
-2.37868554628
-2.45565214869
-2.5521736567
-2.6702330822
-2.81320329708
-2.98452042451
-3.1866287799
-3.39353187266
-3.59238438373
-3.61883241585
-2.12313549317
-2.20104868223
-2.29632293189
-2.41089717268
-2.54875382508
-2.71315609172
-2.90356629367
-3.11122722356
-3.34130332377
-3.35915025538
-1.80605316849
-1.88215821032
-1.97516910549
-2.08625498449
-2.21884278281
-2.37610130126
-2.56013821882
-2.76999204383
-2.97468993851
-3.02171563978
-1.44746992187
-1.52302988153
-1.61447645961
-1.72247778934
-1.84986439231
-2.00000604059
-2.17554407909
-2.37326892071
-2.55873935529
-2.61911098024
-1.07702284841
-1.15388606753
-1.24395993993
-1.34781058188
-1.46814040942
-1.6083871141
-1.77114966269
-1.95241858795
-2.1206183269
-2.18265141582
-0.729513049829
-0.804341984507
-0.889566328008
-0.985692756051
-1.09542348569
-1.2221947681
-1.36851571253
-1.53037605068
-1.67945148391
-1.737221144
-0.420485523306
-0.487756253957
-0.563384932483
-0.647771367608
-0.743669136612
-0.854420242389
-0.982271462671
-1.1232760818
-1.2520658366
-1.30285315481
-0.139652215759
-0.196955537011
-0.261687906019
-0.333569440375
-0.415495251528
-0.510801730729
-0.621280767284
-0.742857862077
-0.852663478903
-0.895833894925
0.126444797415
0.0780843624702
0.0199486458265
-0.0442118798958
-0.116256720805
-0.199519084303
-0.295543357975
-0.400222248932
-0.493200813777
-0.529146198956
0.351866350806
0.310471292987
0.255755733463
0.196447428265
0.133211035989
0.0628653749115
-0.0168518973649
-0.102854538376
-0.178236336643
-0.206813387921
0.947452744095
1.02353920152
0.978293520437
0.770297851798
0.81944910064
0.825648575071
0.820075272752
0.818437178467
0.781653065123
0.627312486369
0.933419501299
1.01894682773
0.979936043569
0.774626065113
0.816709063765
0.825869753523
0.823292661953
0.829107155808
0.810981512885
0.714710915312
0.92092251154
1.01391757042
0.980332974727
0.778394698562
0.813910639371
0.825274621059
0.826616338557
0.838756530544
0.836849094682
0.802107453962
0.909846914923
1.00860768941
0.979560931593
0.781372751832
0.811038550901
0.823897621204
0.828364325791
0.845835388122
0.85666625062
0.8694338907
0.89992671791
1.00314637225
0.977774990111
0.783367975522
0.808040387133
0.821693744181
0.828729955069
0.850400796921
0.872016734996
0.921427526732
0.890969417885
0.997658345753
0.975136090185
0.784281669884
0.804801536513
0.818698030558
0.827725496451
0.852209787426
0.88410035348
0.958066602632
0.882778746122
0.992253836221
0.971829942611
0.784034623545
0.80121528993
0.814949473419
0.825336893637
0.851205113795
0.890640071759
0.982942600754
0.875236769117
0.986997421872
0.9680058888
0.78263531023
0.797193978139
0.810429857213
0.821510774971
0.847572571217
0.89156177319
0.996658914304
0.868186657755
0.981947133348
0.963793893746
0.780073153065
0.792636464565
0.805121589277
0.816206590743
0.841488485252
0.887231191723
0.998237809548
0.861593269221
0.9771309535
0.959332874104
0.776387798816
0.787528744398
0.799020802579
0.809380217203
0.83302606392
0.877908832638
0.988730342572
1.08304499867
1.0400662126
0.981638881033
0.767120945046
0.82115505893
0.818826251997
0.799878481975
0.775322220915
0.683071979107
0.496102787583
1.02331890508
1.03264242029
0.980722389131
0.768952328769
0.820425312772
0.820015745822
0.801476361337
0.778328575675
0.689343329724
0.498731667632
1.00445958513
1.03260535093
0.982708852535
0.768746246191
0.820705766863
0.82133594359
0.804513784409
0.784222748911
0.703625461085
0.503625406261
0.98236329245
1.03034379574
0.98102453362
0.768435769786
0.820903283089
0.822772523537
0.808661103818
0.792702137412
0.72335087678
0.520186187066
0.963426481177
1.02729901251
0.97846093522
0.768057846239
0.820934605304
0.824232354884
0.813539024918
0.803481598479
0.747674235943
0.540740285843
0.146670903559
0.00550671874379
-0.192264809411
-0.467599293157
-0.802646398818
-1.15716027541
-1.49589604816
-1.80547750675
-2.08724078721
-2.32106732016
0.138873842632
-0.000180076683142
-0.187806243899
-0.450142772538
-0.772657486887
-1.12369514655
-1.46974351845
-1.79091648186
-2.0798098362
-2.31775416361
0.165932618653
0.0168980285723
-0.175721299251
-0.431598411567
-0.742673977114
-1.09107818436
-1.44738386376
-1.78064808639
-2.07635987989
-2.31816677958
0.225396913659
0.0527948175489
-0.159112407966
-0.415262209362
-0.718123282025
-1.06434583604
-1.42884827525
-1.77383334784
-2.07750777543
-2.32452374131
0.31095812205
0.109292033694
-0.132984421372
-0.399671732386
-0.701799578878
-1.04730171491
-1.41667446933
-1.77131211239
-2.08429697752
-2.33871939159
)
;

boundaryField
{
    left
    {
        type            zeroGradient;
    }
    right
    {
        type            fixedValue;
        value           uniform 0;
    }
    down
    {
        type            zeroGradient;
    }
    up
    {
        type            zeroGradient;
    }
    cylinder
    {
        type            zeroGradient;
    }
    defaultFaces
    {
        type            empty;
    }
}


// ************************************************************************* //
