/*--------------------------------*- C++ -*----------------------------------*\
  =========                 |
  \\      /  F ield         | OpenFOAM: The Open Source CFD Toolbox
   \\    /   O peration     | Website:  https://openfoam.org
    \\  /    A nd           | Version:  13
     \\/     M anipulation  |
\*---------------------------------------------------------------------------*/
FoamFile
{
    format      ascii;
    class       volVectorField;
    location    "18";
    object      U;
}
// * * * * * * * * * * * * * * * * * * * * * * * * * * * * * * * * * * * * * //

dimensions      [0 1 -1 0 0 0 0];

internalField   nonuniform List<vector> 
440
(
(-0.208971 0.199792 5.3982e-20)
(-0.226839 0.264047 -3.06153e-19)
(-0.0343488 0.156597 -1.84281e-19)
(0.375582 0.12159 2.69239e-19)
(0.437156 0.129789 -8.75166e-21)
(-0.0606027 0.0487185 -2.93395e-21)
(0.071712 0.0775903 -4.1355e-21)
(0.510826 0.0363386 6.78225e-20)
(1.03882 0.00849477 -9.13371e-20)
(1.50923 -0.0126167 -7.673e-20)
(-0.0071461 0.00341914 3.27765e-20)
(0.452352 -0.0363516 6.05319e-19)
(1.17765 -0.0236904 -3.12903e-19)
(1.76098 0.00097315 -9.15678e-19)
(2.2968 0.019255 5.04039e-19)
(0.186005 -0.0430407 -1.61038e-19)
(1.1062 0.00139417 -5.08167e-19)
(1.87365 0.0785266 1.53907e-18)
(2.32589 0.129797 1.77285e-18)
(2.43289 0.154383 -4.60893e-19)
(0.520381 -0.00907154 -2.8309e-19)
(1.66491 0.178861 -6.00007e-19)
(2.22799 0.267015 1.84068e-18)
(2.37288 0.287123 1.96182e-18)
(2.43604 0.262083 6.65751e-19)
(0.0454107 -0.311148 -4.88967e-20)
(0.167286 -0.683665 -1.78977e-19)
(0.218777 -0.780898 2.20401e-19)
(0.213295 -0.710379 -2.324e-20)
(0.17241 -0.592541 -1.48958e-19)
(0.131762 -0.426435 7.91316e-20)
(0.278575 -0.776999 2.7912e-19)
(0.256016 -0.757552 -8.24546e-21)
(0.168221 -0.57492 -5.33132e-21)
(0.070724 -0.402441 2.79941e-21)
(0.253455 -0.51566 3.56964e-19)
(0.354493 -0.793019 2.12154e-19)
(0.252783 -0.718642 7.69739e-20)
(0.123101 -0.557504 -1.34252e-19)
(0.0389294 -0.423875 5.42749e-22)
(0.234977 -0.45376 2.00927e-19)
(0.0731147 -0.644076 -3.43406e-19)
(-0.173851 -0.577435 3.05697e-19)
(-0.324202 -0.520428 3.97366e-19)
(-0.388294 -0.457463 3.3451e-20)
(-0.128763 0.00184347 2.59128e-19)
(-0.355746 -0.186122 3.69487e-19)
(-0.435124 -0.333524 5.35763e-19)
(-0.420076 -0.369974 -2.12187e-19)
(-0.379638 -0.367133 7.19054e-20)
(-0.0298231 -0.238842 -1.45199e-18)
(1.49103 1.20397 -3.2116e-19)
(0.343073 0.654193 -4.19852e-19)
(1.24936 -0.954297 2.0284e-19)
(1.1999 -0.674832 -7.86488e-20)
(-0.190827 -0.289746 -3.28866e-19)
(0.715336 1.21125 2.40615e-19)
(0.56046 0.627018 -4.2605e-20)
(1.55362 -1.01199 -8.58987e-19)
(1.37397 -0.68358 1.68984e-19)
(0.0876325 -0.437569 -1.17516e-18)
(-0.363135 0.957376 -2.70308e-18)
(1.0079 0.399435 2.31353e-20)
(1.76553 -1.05137 -1.50011e-18)
(1.48331 -0.678966 3.77503e-20)
(-0.335912 -0.316875 6.04498e-19)
(-0.854592 0.801894 2.04884e-19)
(1.45033 0.104837 -1.7962e-19)
(2.00087 -1.03879 1.06458e-18)
(1.56417 -0.655469 2.24972e-19)
(0.230121 -0.581275 -3.91301e-19)
(-0.901168 0.552628 2.01037e-18)
(1.82287 -0.204344 0)
(2.19852 -1.0031 -7.60887e-19)
(1.63757 -0.610097 4.19452e-20)
(1.89653 -0.327695 -4.32769e-19)
(0.565325 0.211188 -2.63478e-19)
(2.20875 -0.535155 9.92674e-21)
(2.27092 -0.963822 -2.43766e-19)
(1.64373 -0.54179 -5.6073e-20)
(2.04952 -0.243308 4.44811e-20)
(1.76545 0.384712 2.1052e-19)
(2.63924 -0.572787 8.23782e-21)
(2.21442 -0.811695 5.61336e-19)
(1.4537 -0.394298 0)
(1.86869 -0.108451 4.02504e-20)
(2.23412 0.036504 -4.71919e-21)
(2.61668 -0.604507 7.19483e-19)
(1.87567 -0.56481 -1.74376e-19)
(1.16647 -0.25306 -1.12937e-20)
(1.90607 -0.0742388 -3.54741e-20)
(2.26518 -0.0273732 1.56581e-19)
(2.12434 -0.427649 3.61384e-20)
(1.30465 -0.346748 6.45487e-35)
(0.630174 -0.10592 4.73504e-20)
(1.35254 -0.0116586 6.86651e-20)
(1.45592 -0.140027 2.71759e-20)
(0.726519 -0.0963614 -1.54261e-19)
(0.0431895 -1.14808e-05 3.50036e-20)
(-0.232048 -0.00398052 7.9879e-21)
(2.35369 0.261157 -8.15606e-19)
(2.51547 0.0948451 -1.09694e-18)
(2.40799 0.0764487 8.36412e-19)
(2.5948 -0.0526648 4.39316e-20)
(1.95939 -0.00431664 -9.27563e-20)
(2.13229 0.128082 6.60665e-20)
(2.34775 0.124277 -4.03481e-20)
(2.2289 -0.0388526 -1.30447e-19)
(2.39977 -0.0459615 -2.57096e-19)
(2.25155 -0.238595 -3.27793e-21)
(2.09218 0.0462427 7.4918e-20)
(2.1112 0.106254 9.16727e-20)
(2.20935 -0.0525947 -1.12604e-19)
(2.14755 -0.00970038 3.56064e-20)
(2.28622 -0.136932 2.41733e-20)
(2.01261 0.00552001 1.15481e-19)
(1.96598 0.0525837 1.50337e-19)
(2.13431 -0.0399262 -1.83202e-20)
(2.03821 -0.0114873 -5.54219e-20)
(2.21226 -0.0779503 2.249e-20)
(1.43879 -0.01508 1.81221e-19)
(1.44895 -0.0017012 -1.14215e-20)
(1.48671 -0.0240752 1.90017e-20)
(1.45682 -0.0105719 -3.09626e-20)
(1.52104 -0.0347397 -6.18163e-21)
(1.55927 0.846904 1.02008e-18)
(1.51961 0.942992 -2.96723e-19)
(1.51346 1.06617 -1.2369e-18)
(1.44412 1.11044 6.95245e-19)
(0.892367 0.803338 -1.77085e-19)
(1.82205 0.796853 -5.42095e-19)
(1.80173 0.881189 -2.83355e-18)
(1.81033 0.989005 -1.10077e-18)
(1.72199 0.997365 -4.02747e-19)
(1.05169 0.69335 -6.38339e-19)
(2.10668 0.698435 7.20393e-19)
(2.09144 0.763417 1.90181e-19)
(2.07371 0.844196 -2.19954e-18)
(1.9382 0.826557 -6.0097e-19)
(1.13377 0.535418 4.43899e-19)
(2.2599 0.572888 2.21391e-18)
(2.26421 0.625104 1.61418e-18)
(2.25812 0.670664 -1.86272e-18)
(2.02989 0.622258 -1.3845e-18)
(1.08966 0.344775 -2.50154e-19)
(2.40937 0.431432 1.05626e-18)
(2.4074 0.450332 -7.69971e-19)
(2.30784 0.465421 5.42284e-19)
(1.95723 0.399082 4.2814e-19)
(0.88297 0.142965 -3.54936e-19)
(0.576168 0.392401 -7.1685e-19)
(0.487825 0.424021 -5.87024e-19)
(0.368831 0.455673 7.82109e-20)
(0.228788 0.462506 -2.75706e-20)
(0.0558291 0.335298 6.91459e-20)
(0.673114 0.569231 6.83558e-20)
(0.609526 0.626984 -3.25196e-19)
(0.520555 0.694382 1.74596e-19)
(0.392326 0.749494 -8.03399e-20)
(0.16723 0.574216 1.15007e-19)
(0.772162 0.761507 2.11364e-19)
(0.698785 0.838959 4.10329e-19)
(0.639249 0.936662 5.03793e-20)
(0.553403 0.991837 -2.73768e-19)
(0.302455 0.745019 2.21059e-19)
(1.03315 0.858001 2.14483e-19)
(0.985902 0.946369 -6.12772e-19)
(0.934294 1.04705 -1.78199e-18)
(0.850229 1.11463 7.30771e-19)
(0.502376 0.834407 -1.80583e-19)
(1.1562 0.890229 -1.36308e-19)
(1.1654 1.01074 -2.11572e-19)
(1.17876 1.13072 -3.23046e-19)
(1.1228 1.1715 -3.77443e-19)
(0.691631 0.853343 -6.23672e-21)
(1.01526 0.0542661 -8.95255e-20)
(0.981661 0.0170574 -3.43835e-20)
(1.04675 0.105788 -1.35824e-21)
(0.944772 0.123146 -2.7702e-19)
(0.884816 0.233333 3.03553e-19)
(1.00364 0.0536029 5.58219e-20)
(0.993187 0.0126751 1.23465e-19)
(1.03867 0.112281 1.07192e-19)
(0.972618 0.155468 3.2163e-20)
(0.921674 0.307793 1.94729e-20)
(1.00748 0.0534096 7.49978e-20)
(0.979079 0.00532284 -4.72459e-21)
(1.08773 0.127119 -5.71316e-21)
(0.918789 0.162874 1.62756e-19)
(1.11512 0.441919 -4.24937e-19)
(0.998769 0.054232 -4.29757e-22)
(1.00158 -0.00644949 -1.76861e-19)
(1.09018 0.145335 -6.0137e-20)
(0.981673 0.179017 -3.93058e-19)
(1.16405 0.481525 9.09286e-20)
(0.99248 0.0468334 -1.29281e-20)
(1.01336 -0.00620331 5.36567e-20)
(1.13294 0.153154 3.0166e-20)
(0.959971 0.200785 4.66977e-19)
(1.41055 0.606947 -4.16211e-19)
(0.94725 0.0488272 -6.00484e-21)
(1.09559 -0.0358905 1.11723e-19)
(1.1272 0.18272 -8.42847e-20)
(1.15973 0.153037 8.22791e-19)
(1.3303 0.619785 -3.97132e-19)
(0.88495 0.0178281 -1.67145e-21)
(1.20807 -0.0484828 -9.95487e-20)
(1.04817 0.134042 4.54559e-21)
(1.21906 0.150109 -2.7259e-19)
(1.41948 0.384473 2.75468e-20)
(0.958459 0.00376116 -4.39972e-21)
(1.16707 -0.0615147 1.27577e-35)
(1.02667 0.144411 -4.41087e-20)
(1.22649 0.0663395 8.39219e-20)
(1.47135 0.246118 1.56206e-19)
(1.10797 -0.0513226 4.22723e-21)
(0.962775 -0.0508967 -2.56405e-20)
(1.08873 0.0886734 1.72816e-20)
(1.24067 0.0171236 3.26819e-20)
(1.39745 0.141793 -2.19889e-19)
(1.00861 -0.0258321 -4.31542e-20)
(0.718317 -0.0168709 -4.73721e-21)
(0.917186 0.008821 1.92779e-20)
(0.888229 -0.0142629 -1.07036e-20)
(1.00572 0.0490895 -4.86664e-20)
(1.74744 0.653557 3.1466e-19)
(1.86548 0.644706 7.26376e-19)
(2.0935 0.548291 -1.02313e-18)
(2.17651 0.493281 1.6606e-20)
(2.357 0.327128 4.52692e-19)
(1.71503 0.485703 4.9084e-20)
(1.7953 0.419586 9.71771e-19)
(1.9578 0.416272 9.55442e-20)
(1.99159 0.294195 -8.80237e-19)
(2.18081 0.269196 -2.84833e-19)
(1.66079 0.381463 -2.03363e-19)
(1.76057 0.27382 -1.42262e-19)
(1.83629 0.317238 2.47708e-19)
(1.93797 0.161322 -2.91673e-19)
(2.00179 0.214352 2.65927e-19)
(1.59513 0.226979 3.01648e-19)
(1.67223 0.145007 -1.18535e-21)
(1.73568 0.178458 2.19661e-19)
(1.84999 0.0699982 1.9663e-19)
(1.86934 0.117779 -1.90951e-19)
(1.23 0.0536021 -3.42709e-20)
(1.25529 0.0311091 2.07655e-19)
(1.33941 0.0290205 1.05707e-19)
(1.36507 0.00348085 -2.2919e-19)
(1.41808 0.0101696 1.95546e-22)
(1.3549 -0.0393627 6.41429e-20)
(2.46547 -0.034866 -5.44749e-19)
(2.69196 -0.0263937 1.4781e-18)
(2.68462 0.0227538 6.77942e-19)
(2.47282 0.0427043 -4.51927e-19)
(0.859843 0.0968305 1.20648e-19)
(2.24269 0.105345 -5.5607e-19)
(2.70391 0.109267 -7.73391e-19)
(2.71391 0.125191 1.00888e-18)
(2.50647 0.118111 -6.96194e-19)
(0.243213 0.0870091 -3.8148e-20)
(1.57908 0.179098 6.07774e-19)
(2.39395 0.22175 1.00939e-19)
(2.77864 0.223591 8.7318e-19)
(2.82644 0.215729 4.94096e-19)
(-0.0668286 -0.0333741 2.50717e-19)
(0.616714 0.110845 2.62276e-19)
(1.56228 0.213158 -6.67575e-19)
(2.13652 0.276637 5.21454e-20)
(2.76154 0.311669 3.51235e-19)
(-0.135855 -0.109946 1.94963e-19)
(0.0118595 -0.0396245 -2.14836e-19)
(0.635504 0.0967277 -4.55144e-20)
(1.15888 0.161496 9.17484e-20)
(1.81453 0.310096 9.3716e-21)
(-0.100704 -0.107017 3.73188e-20)
(-0.161012 -0.131544 1.50266e-19)
(0.0443169 -0.116573 9.85318e-20)
(0.239179 -0.0881542 -8.09614e-20)
(0.914661 0.084765 1.29317e-20)
(-0.0590822 -0.0840933 -1.47431e-20)
(-0.14759 -0.192517 -1.05454e-19)
(-0.131301 -0.258485 -4.54975e-20)
(-0.0701418 -0.270289 -2.01549e-20)
(0.19271 -0.107378 5.23771e-21)
(-0.0342626 -0.0723777 4.22555e-21)
(-0.0896314 -0.235192 3.02542e-19)
(-0.0953365 -0.34477 -2.25669e-19)
(-0.0586287 -0.383958 -4.22698e-19)
(-0.00367076 -0.314258 7.87577e-20)
(-0.0220379 -0.11023 -2.66368e-20)
(-0.0276648 -0.359878 -1.61995e-19)
(0.00078339 -0.525765 4.01074e-19)
(0.0536992 -0.585981 1.72694e-19)
(0.0707799 -0.578146 -3.50437e-20)
(-0.00483382 -0.199103 1.60947e-20)
(0.0469611 -0.531416 -5.1122e-20)
(0.0988546 -0.691363 1.57827e-20)
(0.128553 -0.701202 4.17423e-21)
(0.125948 -0.634798 -1.28188e-19)
(1.54715 0.748808 -5.30918e-20)
(1.69402 0.418703 4.25265e-19)
(0.0975828 0.272239 8.2618e-20)
(-0.174284 -0.223605 3.15625e-19)
(0.766689 -0.2863 -4.53642e-21)
(1.36562 0.596958 3.69294e-20)
(1.44762 0.569379 4.3679e-19)
(-0.355586 0.445002 8.67532e-19)
(0.025559 -0.394555 1.75537e-20)
(0.780427 -0.422334 3.05653e-20)
(1.30128 0.461229 3.63559e-19)
(1.03979 0.822474 1.92849e-18)
(-0.548543 0.53142 -1.76396e-20)
(0.392775 -0.564165 -1.90308e-18)
(0.847503 -0.50592 -2.17682e-20)
(1.05925 0.175595 -5.94444e-20)
(0.937854 1.02661 -3.82792e-18)
(-0.26284 0.559601 -3.5353e-19)
(0.580462 -0.749185 1.27708e-20)
(0.957388 -0.5799 -5.95884e-20)
(0.394565 0.0769296 1.54114e-19)
(1.19681 1.22541 -5.24501e-19)
(0.140261 0.587336 -2.24686e-20)
(0.83903 -0.879445 -1.02562e-19)
(1.04805 -0.640977 -1.80086e-19)
(-0.0874601 0.15302 -6.50639e-20)
(-0.37584 -0.173946 0)
(-0.575216 -0.0981098 -1.65326e-20)
(-0.210823 -0.0950455 -7.27531e-21)
(0.378783 -0.0397273 4.19939e-21)
(1.85589 0.671186 0)
(1.29262 0.358515 0)
(0.173777 0.0359077 3.3291e-20)
(-0.0625479 -0.176711 -1.15587e-19)
(0.707817 -0.161952 1.24634e-20)
(0.799665 0.00510985 -1.36464e-19)
(0.84339 -0.00737313 1.83153e-19)
(1.10195 0.0313193 -4.58867e-20)
(0.95743 -0.000645249 3.93576e-19)
(1.48948 0.160776 2.67883e-19)
(1.79194 0.0376467 1.29418e-19)
(1.99781 0.0804452 3.24103e-19)
(2.14449 0.105166 -6.28166e-19)
(2.64651 0.244779 1.30076e-19)
(2.54101 0.256038 3.19743e-19)
(0.975191 -0.53228 4.20095e-20)
(0.965417 -0.630775 -2.08843e-19)
(0.964674 -0.73782 -1.99408e-19)
(0.898899 -0.81402 1.18096e-19)
(0.55166 -0.644219 1.42101e-19)
(0.873924 -0.444784 1.09011e-19)
(0.818339 -0.515296 1.42606e-19)
(0.741653 -0.590696 -1.11467e-19)
(0.624144 -0.65642 1.43641e-19)
(0.345304 -0.523133 3.20906e-20)
(0.680259 -0.310217 -1.26154e-19)
(0.587432 -0.35463 -5.59027e-20)
(0.487051 -0.411837 -2.48001e-21)
(0.37363 -0.462837 -5.21021e-20)
(0.175803 -0.366428 -1.32276e-19)
(0.574276 -0.0772095 -4.46198e-19)
(0.4909 -0.0985535 -3.60719e-19)
(0.383446 -0.132051 2.92777e-19)
(0.25568 -0.172468 1.57834e-19)
(0.0804776 -0.153067 1.37276e-20)
(0.538187 0.126888 -1.51587e-19)
(0.453089 0.126136 -1.66406e-19)
(0.336366 0.122651 -4.80926e-20)
(0.198053 0.122868 5.14159e-20)
(0.0346922 0.092123 1.49832e-20)
(2.24114 -0.0335427 9.52982e-19)
(2.47869 -0.108168 3.4884e-19)
(2.57531 -0.202982 -8.90762e-19)
(2.44674 -0.227566 -1.89747e-18)
(1.50633 -0.223198 1.35772e-19)
(2.17978 -0.132321 1.59879e-18)
(2.29389 -0.24964 2.0778e-18)
(2.31274 -0.379994 1.70668e-19)
(2.24488 -0.444634 2.92559e-19)
(1.46698 -0.415831 -1.94722e-19)
(1.89311 -0.307956 -4.11306e-18)
(1.94065 -0.431616 4.84204e-19)
(1.98515 -0.565916 1.28974e-18)
(1.93965 -0.65008 -5.24767e-19)
(1.27951 -0.573613 8.27689e-19)
(1.63588 -0.438394 1.00251e-18)
(1.65496 -0.543227 -2.61585e-18)
(1.64877 -0.670279 -3.05156e-18)
(1.58834 -0.770134 9.63552e-19)
(1.03626 -0.653535 6.15119e-19)
(1.33328 -0.507941 2.31641e-19)
(1.27881 -0.607684 2.76642e-19)
(1.26527 -0.738156 -4.67486e-19)
(1.21206 -0.834695 -5.6743e-19)
(0.774102 -0.676178 -5.4973e-21)
(1.06204 0.0557225 7.25325e-21)
(0.927438 0.0453596 -1.47834e-21)
(1.13809 0.0677591 1.13188e-21)
(0.819002 -0.00990786 -2.35498e-19)
(1.19994 -0.248338 -1.57075e-20)
(1.07185 0.0595334 -2.44544e-21)
(0.923408 0.0405271 3.79531e-20)
(1.1311 0.0853114 -1.84409e-20)
(0.897903 0.0304126 1.6558e-19)
(1.05013 -0.13182 -7.22862e-21)
(1.06993 0.0574406 -5.90011e-20)
(0.926464 0.0334689 3.19041e-22)
(1.11553 0.0863656 -9.99237e-21)
(0.889541 0.0505009 5.87276e-20)
(1.0076 -0.0750179 -2.33778e-19)
(1.0516 0.0566313 7.09658e-20)
(0.95271 0.0272044 2.93897e-21)
(1.07509 0.0913805 2.44151e-20)
(0.932313 0.0768553 4.58081e-22)
(0.884661 0.0376391 8.25208e-20)
(1.02782 0.0544664 1.76024e-20)
(0.978103 0.0236614 -2.72578e-20)
(1.04444 0.0959763 3.47222e-20)
(0.952749 0.104975 7.04581e-20)
(0.847644 0.129331 -3.93639e-20)
(0.887218 0.0335492 0)
(0.712609 0.0271016 8.73053e-21)
(0.631062 0.0215217 5.0354e-21)
(0.373918 -0.0103411 5.10355e-20)
(0.747975 -0.0632553 -1.57426e-19)
(1.03048 0.0745956 -6.32832e-20)
(0.93839 0.0645988 -6.52973e-21)
(1.05098 0.0707417 -5.19865e-20)
(0.834448 -0.00884685 -1.34033e-19)
(1.10873 -0.22467 -1.62862e-19)
(1.0534 -0.0674459 -3.62168e-20)
(1.14369 -0.0372142 5.70548e-19)
(1.25434 0.0379237 3.50635e-19)
(1.11893 0.0637071 2.57105e-20)
(0.870145 0.0347411 0)
(1.42018 -0.336486 3.65534e-19)
(1.54614 -0.296066 1.67962e-18)
(1.74537 -0.172 -1.87866e-18)
(1.84697 -0.0218626 -5.97439e-19)
(1.78028 0.0363747 4.35372e-19)
)
;

boundaryField
{
    left
    {
        type            fixedValue;
        value           uniform (1 0 0);
    }
    right
    {
        type            zeroGradient;
    }
    down
    {
        type            noSlip;
    }
    up
    {
        type            noSlip;
    }
    cylinder
    {
        type            noSlip;
    }
    defaultFaces
    {
        type            empty;
    }
}


// ************************************************************************* //
