/*--------------------------------*- C++ -*----------------------------------*\
  =========                 |
  \\      /  F ield         | OpenFOAM: The Open Source CFD Toolbox
   \\    /   O peration     | Website:  https://openfoam.org
    \\  /    A nd           | Version:  13
     \\/     M anipulation  |
\*---------------------------------------------------------------------------*/
FoamFile
{
    format      ascii;
    class       surfaceScalarField;
    location    "0.715";
    object      phi;
}
// * * * * * * * * * * * * * * * * * * * * * * * * * * * * * * * * * * * * * //

dimensions      [0 3 -1 0 0 0 0];

internalField   nonuniform List<scalar> 
823
(
0.0113779
-0.0505542
0.0391763
0.0387589
-0.133435
0.106054
0.0788326
-0.205877
0.165804
0.130172
-0.268869
0.21753
-0.323258
0.259414
0.194016
0.0107031
-0.0612573
0.0361433
-0.158876
0.0726484
-0.242382
0.117973
-0.314194
-0.3756
0.170314
0.00837704
-0.0696344
0.0282851
-0.178784
0.0567257
-0.270823
0.0918105
-0.349279
-0.41605
0.132261
0.00529927
-0.0749336
0.0179956
-0.19148
0.0362296
-0.289057
0.0588839
-0.371933
-0.442414
0.0852484
0.00196197
-0.0768956
0.00663003
-0.196148
0.0132897
-0.295717
0.0215219
-0.380165
0.0310622
-0.451955
0.00663699
-0.0107564
0.00411927
0.0221652
-0.0309183
0.01539
0.0453626
-0.0485115
0.0253141
0.0745056
-0.063952
0.034809
-0.0770428
0.108155
0.0433933
0.00574751
-0.016504
0.0214601
-0.046631
0.0466596
-0.073711
0.0796925
-0.0969848
-0.116103
0.118753
0.00639083
-0.0228949
0.0236471
-0.0638873
0.0512143
-0.101278
0.0878831
-0.133654
-0.160122
0.131903
0.00753577
-0.0304307
0.0270855
-0.0834371
0.0573117
-0.131504
0.0970137
-0.173355
-0.207899
0.144791
0.00874567
0.031363
0.0656625
0.109837
0.161352
0.322499
-0.957805
0.743462
0.474486
-0.822831
0.670844
0.574092
-0.354694
0.255088
0.61535
-0.0668729
0.0256145
0.00373807
-0.00828508
0.330307
-1.16936
0.47101
-0.963533
0.575921
-0.459605
0.637306
-0.128258
-0.0170429
0.336472
-1.37393
0.460937
-1.088
0.563319
-0.561986
0.63388
-0.198819
-0.0489032
0.33739
-1.56653
0.447983
-1.19859
0.54064
-0.654644
0.614173
-0.272352
-0.0876212
0.32771
-1.73289
0.428109
-1.29899
0.5087
-0.735235
0.574541
-0.338193
-0.121178
1.19774
-1.59033
-1.3403
1.0078
-1.10905
0.889173
-0.616604
0.835901
-0.284921
-0.0993943
1.3298
-1.13303
-1.7871
0.981978
-0.761233
0.773686
-0.408312
0.683133
-0.194368
-0.0703888
1.18944
-0.607651
-1.71482
0.816277
-0.388071
0.610473
-0.202508
0.515211
-0.0991057
-0.0375345
0.822366
-0.185288
-1.24473
0.545341
-0.111046
0.396362
-0.0535285
0.324182
-0.0269258
-0.0110882
0.306716
-0.492004
0.195671
0.142142
0.115216
1.56259
0.04625
-1.57778
1.52169
0.126156
1.46266
0.191287
1.39633
0.236642
0.25005
1.67586
0.0356513
-1.66526
1.69932
0.102695
1.73081
0.159796
1.76528
0.202171
0.228234
1.38797
0.0184774
-1.37079
1.43706
0.0536078
1.51387
0.0829773
1.61015
0.105893
0.12357
0.977699
0.00531449
-0.964536
1.01588
0.0154232
1.07582
0.0230446
1.15388
0.0278276
0.0327218
0.392987
-0.387673
0.40841
0.431455
0.459283
0.128771
0.327626
-0.264668
-0.191729
0.0781584
0.273214
-0.222602
0.0385243
0.209793
-0.170159
0.0113401
0.136443
-0.109259
0.0519531
-0.040613
0.115952
0.378906
-0.167231
0.0714977
0.317668
0.0356186
0.245672
0.0105612
0.161501
0.0625143
0.0888492
0.418274
-0.128218
0.0548109
0.351707
0.0272878
0.273195
0.00806498
0.180723
0.0705792
0.0552408
0.443533
-0.0804999
0.0337631
0.373184
0.016655
0.290303
0.00486429
0.192514
0.0754435
0.0174805
-0.0259022
0.0104998
0.00508592
0.00145207
0.0726393
0.0873399
-0.107273
-0.0527056
0.0428896
0.0737178
-0.0439681
0.0197357
0.0569467
-0.0337928
0.00513769
0.0368135
-0.0222155
0.0132969
-0.00815924
0.0760182
0.125919
-0.114597
0.0437174
0.106019
0.0196411
0.081023
0.00508955
0.0513651
0.0183866
0.0843875
0.16857
-0.127039
0.0490811
0.141325
0.0227294
0.107375
0.00617213
0.0679223
0.0245587
0.0940531
0.214686
-0.14017
0.0557676
0.17961
0.0265246
0.136618
0.00742774
0.0870191
0.0319865
0.107399
-0.157381
0.0644074
0.0308664
0.00862649
0.51328
0.17556
-0.29286
0.562667
0.161185
-0.210572
0.496933
0.313419
-0.247685
0.334962
0.803151
-0.64118
1.04148
-0.813789
0.513697
0.0578427
0.560474
0.114408
0.487627
0.386266
0.331368
0.95941
1.25825
0.513856
-0.0600339
0.547218
0.081046
0.467019
0.466466
0.328087
1.09834
1.4593
0.510225
-0.17428
0.525777
0.0654947
0.441941
0.550302
0.323861
1.21642
1.64299
0.498963
-0.277263
0.49458
0.0698779
0.412677
0.632204
0.31202
1.31708
1.79763
0.764221
-0.437464
0.844563
-0.0104638
0.956378
0.520389
1.16944
1.10402
1.6195
1.34756
0.707152
-0.540595
0.781866
-0.0851781
0.954585
0.34767
1.29771
0.76089
1.14346
1.77376
0.602255
-0.53883
0.633039
-0.115962
0.803531
0.177177
1.17251
0.391909
0.612036
1.70393
0.448457
-0.383266
0.405472
-0.0729772
0.536068
0.0465808
0.816005
0.111972
0.186913
1.24113
0.220754
0.147777
0.194358
0.30633
0.493243
1.40259
-0.246756
1.46574
-0.230384
1.523
-0.18547
1.56316
-0.120661
-0.040527
1.75266
-0.225654
1.71974
-0.197464
1.69062
-0.156349
1.67084
-0.10088
-0.0349535
1.60147
-0.123191
1.50876
-0.104754
1.43456
-0.0821485
1.38705
-0.0533721
-0.018695
1.15107
-0.033133
1.0743
-0.0279885
1.0153
-0.0231435
0.977571
-0.015645
-0.0056601
0.46011
0.432121
0.408978
0.393333
0.00250153
0.0430084
-0.04551
0.00732831
0.101056
-0.105883
0.0160959
0.148402
-0.15717
0.0165793
0.151916
-0.1524
0.114033
0.0148149
-0.112269
0.00682877
0.0361797
0.0201789
0.0877057
0.0409598
0.127621
0.0482574
0.144619
0.116387
0.0459038
0.00880981
0.0273699
0.0270782
0.0694373
0.0521533
0.102546
0.0730954
0.123677
0.114041
0.0754418
0.00780172
0.0195681
0.0255148
0.0517242
0.0497507
0.0783099
0.077434
0.0959933
0.0992478
0.0922267
0.00509907
0.0144691
0.0179737
0.0388495
0.0367677
0.0595159
0.0600108
0.0727501
0.0767484
0.0825102
0.0034238
0.0110453
0.0125804
0.0296929
0.0274437
0.0446526
0.0470583
0.0531355
0.0561551
0.0676516
0.00222251
0.00882274
0.00893039
0.022985
0.0222677
0.0313152
0.0410192
0.0343839
0.0347698
0.0624045
0.00167444
0.00714831
0.0101325
0.0145269
0.026193
0.0152546
0.0467514
0.0138255
0.0115172
0.0700039
0.00375028
0.00339802
0.017555
0.000722162
0.036897
-0.00408746
0.0599227
-0.00920039
-0.014397
0.0858368
0.00751716
0.0236293
0.0448559
0.0704644
0.0994606
0.153828
0.0197839
-0.105961
0.243408
-0.130357
0.0407773
0.264748
-0.0380251
0.0166848
0.269689
0.00393357
-0.00887495
-0.00135392
-0.00477998
0.214821
-0.132633
0.325329
-0.240865
0.351456
-0.064152
0.353872
0.00151772
-0.00387355
0.26017
-0.322799
0.391486
-0.372182
0.43369
-0.106356
0.434742
0.000465933
-0.00169353
0.293442
-0.530404
0.43887
-0.517609
0.502771
-0.170257
0.50865
-0.00541252
0.00380316
0.312518
0.465752
0.550583
0.570785
0.0706724
0.0386738
-0.109346
0.0786502
-0.00797783
0.0829728
-0.00432256
0.0803578
0.00261489
0.00118926
0.194108
-0.261395
0.226907
0.239269
0.233009
0.0207328
-0.00433168
-0.0164011
0.0342836
-0.0135508
0.0567629
-0.0224793
0.0856231
-0.0288602
-0.0237231
0.0539256
-0.0434425
0.0862787
0.139241
0.202608
0.047829
-0.0551496
0.0763548
-0.0690342
0.0275569
-0.0521697
0.0724418
0.0123374
-0.0443804
0.0595999
0.00331805
-0.0300417
0.039061
-0.011261
0.0145791
0.0453841
-0.0322684
-0.0682653
0.0249574
-0.031743
0.00982083
-0.0292439
0.00218944
-0.0224103
-0.00907155
0.0560567
-0.00668627
-0.0816389
0.0331209
-0.00880721
0.0142749
-0.0103979
0.00258763
-0.0107231
-0.0064839
0.0701127
0.0215613
-0.0983602
0.0448362
0.0164693
0.0233673
0.0110711
0.00692191
0.00572234
0.000438005
0.0744347
-0.105579
0.0469361
0.0242144
0.00772127
0.0165859
-0.114032
-0.0148232
0.0160951
-0.151909
0.00730699
-0.148381
0.00248926
-0.101065
-0.0430207
0.0482731
-0.116376
-0.0459285
0.0409337
-0.144569
0.0201649
-0.127613
0.00682157
-0.0877216
-0.0361992
0.0731269
-0.11397
-0.0755329
0.0521256
-0.123568
0.0270664
-0.102553
0.00880673
-0.0694619
-0.0273924
0.0773416
-0.0989721
-0.0923397
0.049623
-0.0958493
0.0254345
-0.078365
0.00777602
-0.0518034
-0.0196164
0.0599523
-0.0825696
0.0365447
0.0177797
0.00503734
0.34191
0.58337
-0.529301
0.280515
0.225107
-0.163712
0.247414
0.0549195
-0.0218192
0.165301
0.113569
-0.0314563
-0.000957103
0.097224
0.407757
0.571593
0.371343
0.261521
0.335602
0.0906606
0.233551
0.215621
0.164328
0.459786
0.507787
0.45136
0.269947
0.409222
0.132799
0.283767
0.341076
0.366456
0.495168
0.408598
0.514472
0.250643
0.461456
0.185814
0.31789
0.484643
0.585987
0.511718
0.551789
0.489918
0.333381
0.158667
0.351384
0.0847702
0.073897
0.0800026
0.00476764
0.0724298
0.00757278
-0.0369695
0.109399
0.332134
0.242319
0.225268
0.201384
0.261638
0.085673
0.0237263
0.0567948
0.0288782
0.0342946
0.0225001
0.0207363
0.0135583
0.00433517
0.202795
0.139333
0.0863007
0.0539305
)
;

boundaryField
{
    left
    {
        type            calculated;
        value           nonuniform List<scalar> 
17
(
-0.60402
-0.60402
-0.60402
-0.60402
-0.60402
-0.39598
-0.39598
-0.39598
-0.39598
-0.39598
-0.39598
-0.39598
-0.39598
-0.39598
-0.39598
-0.510051
-0.510051
)
;
    }
    right
    {
        type            calculated;
        value           nonuniform List<scalar> 
17
(
0.0791686
0.229418
0.275823
0.356392
0.432562
0.503153
0.566303
0.619897
0.658087
0.665741
0.652891
0.608098
0.814118
0.654127
0.482356
0.297736
0.104128
)
;
    }
    down
    {
        type            calculated;
        value           uniform 0;
    }
    up
    {
        type            calculated;
        value           uniform 0;
    }
    cylinder
    {
        type            calculated;
        value           uniform 0;
    }
    defaultFaces
    {
        type            empty;
    }
}


// ************************************************************************* //
