/*--------------------------------*- C++ -*----------------------------------*\
  =========                 |
  \\      /  F ield         | OpenFOAM: The Open Source CFD Toolbox
   \\    /   O peration     | Website:  https://openfoam.org
    \\  /    A nd           | Version:  13
     \\/     M anipulation  |
\*---------------------------------------------------------------------------*/
FoamFile
{
    format      ascii;
    class       volScalarField;
    location    "0.905";
    object      p;
}
// * * * * * * * * * * * * * * * * * * * * * * * * * * * * * * * * * * * * * //

dimensions      [0 2 -2 0 0 0 0];

internalField   nonuniform List<scalar> 
1800
(
5.75127
7.85837
10.0112
11.4396
12.2739
12.6844
12.8153
12.6575
11.4109
7.31825
9.60002
12.0757
14.5806
16.2646
17.3211
17.9838
18.4383
18.6772
17.9524
15.2742
15.9916
18.6164
21.2891
23.1523
24.4125
25.2941
25.9448
26.328
25.8566
24.0253
24.9863
27.5556
30.2041
32.1185
33.4837
34.4927
35.2551
35.707
35.3007
33.6158
36.0444
38.4053
40.8575
42.669
43.9934
44.9895
45.744
46.1933
45.843
44.2873
48.7209
50.7735
52.9171
54.5233
55.7143
56.6165
57.2987
57.7092
57.428
56.0685
62.6691
64.3419
66.0976
67.4295
68.4315
69.2011
69.7925
70.1694
69.9943
68.9055
77.5946
78.8362
80.1472
81.1565
81.9324
82.5463
83.0404
83.3952
83.3618
82.6253
93.2125
93.9922
94.8237
95.4786
96.0014
96.4388
96.8216
97.145
97.2552
96.9207
109.241
109.546
109.878
110.152
110.39
110.611
110.828
111.042
111.203
111.23
-0.602149
-0.855342
-0.632338
-0.217433
0.255611
0.723999
1.08369
1.29441
1.43956
1.58659
-0.468654
-0.985761
-1.09711
-0.892076
-0.468339
-0.0447849
0.247083
0.489301
0.769825
1.04374
0.537074
-0.432572
-1.26841
-1.43561
-1.10873
-0.804098
-0.592141
-0.287437
0.120084
0.506105
0.931607
-0.211734
-1.41355
-1.75313
-1.53297
-1.38108
-1.2582
-0.954082
-0.497373
0.0103549
0.499276
-0.470252
-1.41338
-1.70531
-1.64857
-1.66108
-1.62675
-1.36632
-0.875758
-0.181909
-0.206956
-0.724853
-1.12693
-1.25704
-1.27825
-1.34504
-1.33916
-1.13212
-0.608588
0.323306
-0.545055
-0.507798
-0.3321
-0.186525
-0.102435
-0.0829119
-0.0457865
0.122731
0.699378
1.92882
-0.0639986
0.522119
1.24274
1.74692
2.07618
2.28887
2.43753
2.6532
3.38285
5.04445
1.38143
2.48932
3.73762
4.65897
5.32883
5.82091
6.16051
6.4991
7.48526
9.77218
3.62197
5.26483
7.08296
8.45885
9.48152
10.2416
10.7638
11.2164
12.277
14.4397
2.30551
2.44475
2.33701
2.09092
1.58536
1.18249
0.867521
0.597255
0.35463
0.139575
1.95769
2.42244
2.23403
2.00905
1.50312
1.10378
0.816443
0.581073
0.36246
0.1514
1.48059
2.39341
2.13346
1.91821
1.42916
1.03843
0.770337
0.561282
0.36697
0.162485
0.855639
2.31063
2.03337
1.81283
1.3548
0.981437
0.731173
0.543338
0.363676
0.172665
0.160827
2.13407
1.92224
1.69063
1.27383
0.928059
0.697574
0.528096
0.352231
0.179104
-0.412746
1.8544
1.78295
1.55028
1.18277
0.874953
0.667873
0.514462
0.35702
0.179385
-0.563028
1.50528
1.60243
1.38957
1.07986
0.82005
0.640248
0.502232
0.360469
0.172869
0.164991
1.17541
1.37175
1.19971
0.961801
0.761559
0.61299
0.490621
0.35157
0.160564
2.42107
1.03866
1.07028
0.956094
0.820407
0.69713
0.585702
0.473688
0.33201
0.142142
6.65576
1.4073
0.712301
0.638428
0.648542
0.626712
0.556131
0.451165
0.307181
0.121115
9.98033
2.57637
0.687805
0.396113
0.473201
0.55107
0.517344
0.417222
0.272928
0.0932976
11.7651
2.57314
0.268547
0.0653782
0.363566
0.51932
0.482463
0.371678
0.226812
0.0572484
12.8647
2.78164
0.40174
0.163054
0.478739
0.580945
0.48439
0.340851
0.186024
0.0224999
14.1872
4.37062
1.28717
0.736571
0.797346
0.727131
0.527338
0.329149
0.154438
-0.0085329
16.364
7.11373
2.70556
1.59771
1.24612
0.941068
0.610789
0.339788
0.135685
-0.0329907
19.2533
9.87746
4.33657
2.56084
1.77408
1.20466
0.726574
0.372008
0.131624
-0.0485981
21.7569
11.9382
5.85345
3.51971
2.339
1.49866
0.864484
0.422488
0.142134
-0.0541047
23.0358
13.1211
7.0506
4.41951
2.91217
1.80926
1.01707
0.487824
0.166105
-0.0491139
22.9758
13.5002
7.91153
5.26683
3.50141
2.14412
1.19099
0.572361
0.207292
-0.0320775
22.4229
13.7253
8.68303
6.12801
4.12787
2.5231
1.40849
0.693975
0.286666
0.00302141
111.786
97.8407
84.0761
71.0709
59.1316
48.3515
38.7702
30.0937
20.0827
4.97811
112.766
99.4783
85.9777
72.9713
60.9283
50.0475
40.5144
32.2563
23.5913
11.4784
113.298
100.213
87.3329
75.0068
63.4682
52.8764
43.4467
35.258
27.4716
18.3377
114.51
102.77
90.8118
78.9813
67.6251
57.0302
47.3974
38.7972
31.0907
23.8277
115.087
104.077
93.1561
82.4653
72.1186
62.1944
52.7324
43.8223
36.0045
29.8259
115.437
104.71
94.2037
84.0421
74.3217
65.0925
56.3334
48.0921
41.0507
36.0339
115.668
105.11
94.7985
84.8665
75.424
66.5437
58.235
50.5676
44.2136
40.0942
115.769
105.248
94.9815
85.1103
75.7564
67.0107
58.9071
51.5138
45.3971
41.4374
115.719
105.033
94.6071
84.5882
75.1093
66.2769
58.1469
50.7776
44.5538
40.101
115.595
104.649
93.9612
83.6839
73.9587
64.9087
56.614
49.1194
42.6104
37.4156
234.12
229.756
228.187
227.745
227.654
227.905
228.639
230.02
232.172
234.31
225.558
222.538
221.489
221.449
221.674
222.159
223.09
224.697
227.168
229.644
216.045
213.87
213.096
213.221
213.652
214.355
215.48
217.249
219.863
222.461
205.739
203.711
203.007
203.203
203.746
204.575
205.799
207.607
210.176
212.696
194.416
192.506
191.851
192.039
192.571
193.382
194.559
196.253
198.608
200.898
182.049
180.325
179.731
179.873
180.325
181.037
182.072
183.55
185.579
187.544
168.704
167.241
166.747
166.85
167.206
167.778
168.618
169.811
171.438
173.009
154.57
153.453
153.099
153.176
153.432
153.844
154.451
155.313
156.484
157.612
139.961
139.247
139.04
139.09
139.235
139.469
139.82
140.322
141.003
141.66
125.437
125.093
124.952
124.905
124.893
124.915
124.981
125.101
125.278
125.454
246.557
246.795
247.048
247.266
247.565
248.065
248.619
248.955
248.96
248.445
246.628
246.959
247.363
247.669
247.87
248.205
248.63
248.546
247.727
246.706
246.636
247.032
247.477
247.789
247.872
248.003
248.285
247.925
246.536
245.281
246.512
247.014
247.444
247.676
247.608
247.494
247.528
247.105
245.812
244.655
246.02
246.674
247.062
247.168
246.989
246.711
246.533
246.173
245.364
244.576
244.812
245.655
245.99
245.953
245.721
245.436
245.239
245.067
244.827
244.541
242.467
243.563
243.9
243.783
243.572
243.406
243.371
243.502
243.809
244.049
238.583
240.068
240.536
240.469
240.384
240.435
240.672
241.166
241.979
242.718
233.11
235.163
235.871
235.938
236.063
236.409
236.996
237.901
239.205
240.417
227.756
229.62
230.364
230.531
230.837
231.454
232.396
233.747
235.594
237.302
246.936
246.718
246.678
246.49
246.422
246.309
245.935
245.678
245.575
245.721
246.894
246.717
246.673
246.493
246.421
246.321
245.943
245.658
245.38
245.739
246.866
246.713
246.664
246.488
246.414
246.323
245.941
245.601
245.141
245.82
246.847
246.706
246.651
246.475
246.399
246.317
245.927
245.507
244.921
246.004
246.836
246.697
246.635
246.456
246.379
246.302
245.898
245.396
244.786
246.241
246.829
246.686
246.616
246.432
246.354
246.274
245.859
245.303
244.761
246.35
246.828
246.671
246.596
246.404
246.323
246.234
245.823
245.253
244.808
246.018
246.831
246.652
246.574
246.374
246.287
246.189
245.806
245.258
244.83
244.782
246.841
246.63
246.55
246.341
246.25
246.157
245.839
245.335
244.653
242.006
246.858
246.605
246.521
246.305
246.215
246.152
245.943
245.462
243.974
237.291
246.896
246.578
246.479
246.247
246.15
246.08
245.874
245.136
242.443
233.742
247.011
246.557
246.44
246.194
246.093
246.115
246.068
245.334
242.178
231.8
247.252
246.562
246.401
246.114
246.016
246.076
246.056
245.234
241.883
230.534
247.702
246.618
246.371
246.028
245.88
245.811
245.608
244.529
240.476
229.313
248.54
246.684
246.395
245.937
245.67
245.306
244.74
243.224
238.006
227.457
250.378
246.751
246.504
245.868
245.377
244.645
243.656
241.568
235.373
224.912
254.257
247.062
246.659
245.811
245.022
243.931
242.56
239.958
233.311
222.584
262.562
248.199
246.934
245.77
244.648
243.241
241.558
238.669
232.073
221.328
280.122
250.933
247.585
245.806
244.294
242.589
240.65
237.738
231.631
221.358
306.093
254.979
249.091
246.02
244.003
241.967
239.765
236.921
231.359
221.885
236.416
221.066
210.444
201.13
190.97
179.665
167.27
153.898
139.853
125.723
230.028
217.734
208.582
199.861
189.923
178.685
166.339
153.088
139.364
125.89
223.494
214.13
205.951
197.423
187.709
176.868
165.116
152.616
139.598
126.421
218.378
210.871
202.879
194.029
184.187
173.422
161.931
149.988
137.925
126.092
212.981
206.587
198.595
189.501
179.832
169.695
159.145
148.278
137.222
126.13
207.384
202.088
194.829
186.358
177.36
167.905
157.985
147.663
137.043
126.256
203.59
199.15
192.56
184.663
176.13
167.044
157.424
147.349
136.939
126.329
202.309
198.05
191.704
184.092
175.779
166.842
157.323
147.32
136.962
126.393
203.635
198.92
192.47
184.885
176.553
167.537
157.9
147.754
137.239
126.507
206.309
200.874
194.137
186.426
177.93
168.698
158.816
148.412
137.636
126.644
112.19
112.36
112.445
112.296
111.789
111.428
111.243
111.528
111.521
111.271
89.6154
90.0787
90.2974
89.8638
88.4318
87.3454
86.7245
87.3862
87.4238
86.8373
68.7723
69.4001
69.6614
68.9947
67.0553
65.3435
64.3233
64.872
65.1765
64.6213
50.6546
51.2611
51.4508
50.6277
48.6485
46.4825
45.1524
45.1879
45.9263
45.6929
36.0093
36.4178
36.4682
35.5868
33.795
31.479
29.8352
29.2699
30.0776
30.2653
24.9571
25.0606
24.9386
24.0155
22.4379
20.4085
18.6176
17.676
17.9311
18.4311
17.0707
16.9203
16.7056
15.7146
14.3001
12.7968
11.3093
10.2443
9.90455
10.271
11.5836
11.4068
11.3584
10.359
9.03998
8.0381
7.14658
6.30378
5.71529
5.63143
7.90954
7.82135
8.11742
7.24953
6.08344
5.493
5.16434
4.77988
4.29595
3.91611
6.04054
5.83567
6.22121
5.48331
4.61394
4.33806
4.36234
4.35319
4.20069
3.80462
5.27308
5.03633
5.11885
4.42448
3.89234
3.83645
3.98657
4.12952
4.25071
4.30737
4.84554
4.73647
4.45924
3.79295
3.50733
3.595
3.79851
3.96627
4.08608
4.17232
4.46664
4.4219
3.99016
3.43974
3.32009
3.48334
3.70836
3.88723
4.00525
4.06558
4.01183
3.95686
3.5508
3.19969
3.21002
3.41364
3.62675
3.78416
3.88279
3.9241
3.4634
3.37012
3.09724
2.9779
3.09505
3.31209
3.50235
3.64006
3.72139
3.74512
2.81166
2.7177
2.65893
2.74983
2.94682
3.15137
3.31726
3.43676
3.50372
3.51715
2.08819
2.10533
2.24092
2.476
2.7119
2.91054
3.06588
3.17968
3.24607
3.26158
1.41567
1.53401
1.78574
2.07908
2.33534
2.54993
2.72603
2.86494
2.95265
2.9808
0.7389
0.873383
1.14847
1.47809
1.7886
2.06089
2.2989
2.48415
2.5891
2.62676
0.0663349
-0.0190142
0.216744
0.62933
1.05074
1.43392
1.75889
1.97428
2.07754
2.14086
3.66118
3.70474
3.57421
3.24772
2.59571
1.90413
1.3088
0.834017
0.449746
0.0841133
3.73369
3.67816
3.52348
3.23167
2.55625
1.84821
1.25743
0.797312
0.426126
0.0815843
3.75986
3.57168
3.4113
3.17734
2.5122
1.79562
1.20922
0.763326
0.404977
0.0811285
3.7204
3.39487
3.25804
3.07448
2.45482
1.74464
1.16422
0.732197
0.386516
0.0823383
3.61214
3.18627
3.08932
2.92051
2.3722
1.69073
1.12169
0.703897
0.370952
0.0853552
3.44837
2.9883
2.92843
2.73594
2.258
1.62995
1.08141
0.678795
0.358666
0.0903117
3.2548
2.82104
2.78464
2.55288
2.11511
1.55855
1.04266
0.657231
0.350058
0.0972189
3.04781
2.68444
2.65863
2.39563
1.95889
1.47375
1.00398
0.63918
0.34541
0.10595
2.82595
2.57398
2.54607
2.27136
1.8108
1.37676
0.963094
0.624103
0.34482
0.116232
2.58216
2.49235
2.44061
2.17395
1.68561
1.27576
0.917724
0.610794
0.348115
0.127632
5.42255
3.97602
3.27711
2.89689
2.41442
1.88974
1.38523
0.928485
0.540711
0.127987
4.61871
3.75551
3.31353
2.9584
2.4554
1.89878
1.3726
0.909552
0.517799
0.115546
3.94871
3.66363
3.37455
3.02817
2.49507
1.90692
1.36141
0.892694
0.500264
0.104827
3.62885
3.66423
3.46027
3.10882
2.53661
1.91484
1.35083
0.877188
0.485033
0.0961789
3.61415
3.70754
3.56233
3.2016
2.58287
1.92302
1.33953
0.861458
0.470268
0.089452
112.021
88.954
67.9029
50.1311
36.1161
25.7956
18.6254
13.7499
10.5678
8.75357
111.8
88.3916
67.1965
49.3966
35.3138
24.7913
17.3217
12.2163
9.0734
7.57315
111.614
87.9112
66.5582
48.6558
34.4025
23.6185
15.9013
10.6814
7.53662
6.07849
111.404
87.3374
65.7177
47.5909
33.0777
22.0243
14.1295
8.89658
5.81098
4.43525
111.149
86.6093
64.5883
46.1176
31.2774
19.9564
11.9606
6.92411
4.44103
3.62525
243.77
243.808
243.928
244.099
244.312
244.321
243.816
243.114
243.218
242.994
243.982
244.054
244.168
244.357
244.628
244.803
244.584
243.934
243.677
243.57
244.178
244.227
244.34
244.536
244.822
245.084
245.058
244.551
244.123
244.073
244.421
244.454
244.552
244.726
244.984
245.273
245.38
245.11
244.723
244.656
244.696
244.714
244.795
244.945
245.161
245.426
245.631
245.633
245.467
245.377
244.989
245.002
245.071
245.193
245.367
245.598
245.869
246.112
246.219
246.208
245.264
245.282
245.364
245.5
245.676
245.907
246.208
246.571
246.876
246.999
245.55
245.568
245.664
245.856
246.111
246.412
246.773
247.188
247.554
247.736
245.933
245.962
246.038
246.26
246.632
247.086
247.594
248.115
248.461
248.423
246.326
246.436
246.537
246.727
247.127
247.698
248.302
248.854
249.207
249.002
136.503
136.244
136.222
136.484
136.266
135.868
135.327
135.155
135.227
135.391
160.954
160.357
160.379
161.017
160.364
159.241
157.777
157.321
157.527
157.985
183.199
182.632
182.92
183.443
182.392
180.647
178.678
177.989
178.238
178.861
202.165
201.919
202.638
202.648
201.29
199.093
197.086
196.242
196.419
197.022
217.637
217.811
218.595
218.008
216.34
213.995
212.174
211.271
211.311
211.716
229.517
229.998
230.228
229.269
227.461
225.405
223.795
222.849
222.716
222.817
237.716
238.052
237.69
236.616
235.124
233.596
232.145
231.128
230.904
230.752
242.371
242.252
241.643
240.809
239.93
238.912
237.559
236.533
236.474
236.297
244.096
243.678
243.184
242.826
242.529
241.942
240.752
239.857
240.143
240.058
244.235
243.81
243.656
243.678
243.749
243.507
242.632
241.871
242.256
242.067
254.847
246.872
247.5
246.285
246.035
245.528
244.997
244.635
244.505
244.543
252.013
246.808
247.314
246.263
246.088
245.591
245.013
244.668
244.581
244.515
250.091
246.815
247.091
246.259
246.143
245.659
245.056
244.761
244.75
244.547
248.903
246.843
246.878
246.278
246.201
245.733
245.137
244.915
244.98
244.653
248.217
246.846
246.74
246.316
246.258
245.817
245.265
245.107
245.223
244.823
247.769
246.804
246.702
246.366
246.311
245.91
245.432
245.295
245.431
245.031
247.454
246.75
246.701
246.41
246.357
246.013
245.609
245.451
245.587
245.242
247.238
246.722
246.693
246.445
246.39
246.118
245.757
245.562
245.687
245.437
247.094
246.716
246.684
246.47
246.406
246.211
245.856
245.631
245.725
245.596
246.999
246.717
246.68
246.483
246.416
246.276
245.91
245.668
245.692
245.691
317.351
253.756
249.91
246.972
246.14
245.568
245.252
244.932
244.239
242.722
295.618
251.367
248.788
246.74
246.057
245.539
245.207
244.902
244.452
243.524
277.177
249.211
248.191
246.566
246.017
245.521
245.157
244.845
244.534
244.196
265.774
247.866
247.867
246.436
245.998
245.509
245.1
244.762
244.525
244.525
259.003
247.135
247.645
246.327
245.996
245.501
245.031
244.66
244.479
244.557
239.302
237.452
234.237
229.329
222.126
211.772
197.721
179.917
158.84
135.759
240.484
238.949
235.774
230.638
223.135
212.578
198.459
180.625
159.404
135.981
241.997
240.5
237.319
232.065
224.314
213.494
199.202
181.265
159.885
136.167
243.659
242.254
239.126
233.851
225.916
214.823
200.27
182.106
160.459
136.377
244.448
243.611
241.108
236.037
227.995
216.628
201.745
183.236
161.186
136.63
)
;

boundaryField
{
    left
    {
        type            zeroGradient;
    }
    right
    {
        type            fixedValue;
        value           uniform 0;
    }
    down
    {
        type            zeroGradient;
    }
    up
    {
        type            zeroGradient;
    }
    cylinder
    {
        type            zeroGradient;
    }
    defaultFaces
    {
        type            empty;
    }
}


// ************************************************************************* //
