/*--------------------------------*- C++ -*----------------------------------*\
  =========                 |
  \\      /  F ield         | OpenFOAM: The Open Source CFD Toolbox
   \\    /   O peration     | Website:  https://openfoam.org
    \\  /    A nd           | Version:  13
     \\/     M anipulation  |
\*---------------------------------------------------------------------------*/
FoamFile
{
    format      ascii;
    class       surfaceScalarField;
    location    "0.905";
    object      phi;
}
// * * * * * * * * * * * * * * * * * * * * * * * * * * * * * * * * * * * * * //

dimensions      [0 3 -1 0 0 0 0];

internalField   nonuniform List<scalar> 
3485
(
0.00137167
-0.011258
0.00988628
0.00505117
-0.0319067
0.0282272
0.0107642
-0.0513828
0.0456698
0.0183125
-0.0696769
0.0621286
0.0275453
-0.0868351
0.0776023
0.0383482
-0.102901
0.0920983
0.0506328
-0.117907
0.105622
0.0643558
-0.131871
0.118148
0.0796148
-0.144862
0.129603
-0.156896
0.139505
0.0970056
0.00150034
-0.0127583
0.00544583
-0.0358522
0.0114762
-0.0574132
0.0193235
-0.0775242
0.0287728
-0.0962843
0.0396465
-0.113775
0.0518006
-0.130061
0.065127
-0.145198
0.0795342
-0.159269
-0.172198
0.0948362
0.00147418
-0.0142325
0.00532699
-0.039705
0.0111745
-0.0632607
0.0187208
-0.0850705
0.0277252
-0.105289
0.0379883
-0.124038
0.0493441
-0.141416
0.061653
-0.157507
0.074783
-0.172399
-0.186037
0.0886225
0.00133887
-0.0155713
0.00485903
-0.0432252
0.0102109
-0.0686125
0.017117
-0.0919767
0.0253538
-0.113525
0.03474
-0.133424
0.0451299
-0.151806
0.0564032
-0.16878
0.0684533
-0.184449
-0.198791
0.0812067
0.00116693
-0.0167383
0.00425599
-0.0463142
0.00897313
-0.0733296
0.0150817
-0.0980853
0.0223916
-0.120835
0.0307522
-0.141785
0.0400458
-0.1611
0.0501797
-0.178914
0.0610763
-0.195346
-0.210402
0.0726877
0.000980024
-0.0177183
0.00358795
-0.0489221
0.00758659
-0.0773283
0.0127839
-0.103283
0.019026
-0.127077
0.0261924
-0.148951
0.0341912
-0.169099
0.042953
-0.187676
0.0524228
-0.204816
-0.220549
0.0625696
0.000780725
-0.018499
0.002865
-0.0510064
0.00606896
-0.0805322
0.0102428
-0.107456
0.0152665
-0.132101
0.0210466
-0.154732
0.0275141
-0.175566
0.0346202
-0.194782
0.0423308
-0.212526
-0.228851
0.0506323
0.000569701
-0.0190687
0.00209345
-0.0525302
0.00443785
-0.0828766
0.00749264
-0.110511
0.0111686
-0.135777
0.0153967
-0.15896
0.0201274
-0.180297
0.0253293
-0.199984
0.0309862
-0.218183
-0.234967
0.0371027
0.000352505
-0.0194212
0.00129575
-0.0534734
0.002745
-0.0843259
0.0046283
-0.112394
0.00688642
-0.138035
0.00947301
-0.161546
0.0123552
-0.183179
0.0155141
-0.203143
0.0189446
-0.221614
-0.238684
0.0226613
0.000137792
-0.019559
0.000502453
-0.0538381
0.00105695
-0.0848804
0.00176951
-0.113107
0.00261367
-0.138879
0.00356835
-0.162501
0.00461804
-0.184229
0.00575323
-0.204278
0.00697048
-0.222831
0.00827487
-0.239988
0.000487165
-0.00186852
0.00138135
0.00208561
-0.00625515
0.0046567
0.00542677
-0.0114271
0.00808595
0.0101151
-0.0162038
0.0115155
0.0155391
-0.0201969
0.0147729
0.0214357
-0.0235924
0.0176959
0.0279012
-0.0267733
0.0203077
0.0350844
-0.0299684
0.0227851
0.0429701
-0.0331295
0.0252438
-0.036104
0.051424
0.02765
0.000426804
-0.00229532
0.00211025
-0.00793859
0.00543705
-0.0147539
0.00981289
-0.0205797
0.0148831
-0.0252671
0.0207578
-0.0294671
0.0276104
-0.0336259
0.0353888
-0.0377468
0.0438811
-0.0416218
-0.0451451
0.0529222
0.000682842
-0.00297816
0.00271676
-0.00997252
0.00577937
-0.0178165
0.00976007
-0.0245603
0.0148124
-0.0303194
0.0211094
-0.0357641
0.0285818
-0.0410983
0.0369497
-0.0461146
0.0459937
-0.0506658
-0.0547744
0.0556231
0.000868642
-0.00384681
0.00306154
-0.0121654
0.00607869
-0.0208337
0.0101992
-0.0286809
0.0156967
-0.0358169
0.0225542
-0.0426217
0.0305293
-0.0490734
0.039385
-0.0549703
0.0490264
-0.0603072
-0.0651197
0.0593716
0.000923401
-0.00477021
0.00320112
-0.0144431
0.00651899
-0.0241515
0.0111164
-0.0332782
0.0171342
-0.0418347
0.0244469
-0.0499344
0.0328626
-0.0574891
0.0422838
-0.0643916
0.0526479
-0.0706713
-0.0762942
0.0638224
0.000944143
-0.00571435
0.0033731
-0.0168721
0.0070915
-0.0278699
0.0121742
-0.038361
0.0186324
-0.0482928
0.0263546
-0.0576566
0.0352436
-0.0663781
0.0452525
-0.0744005
0.0563029
-0.0817217
-0.0882281
0.0682369
0.000980124
-0.00669447
0.00358431
-0.0194763
0.00764146
-0.0319271
0.013107
-0.0438265
0.0199253
-0.0551112
0.02801
-0.0657413
0.037299
-0.0756671
0.0477462
-0.0848478
0.0592788
-0.0932543
-0.100701
0.0717519
0.00101811
-0.00771259
0.00376795
-0.0222261
0.00807126
-0.0362304
0.0138198
-0.049575
0.0209191
-0.0622105
0.0292803
-0.0741025
0.0388336
-0.0852204
0.0495225
-0.0955366
0.0612883
-0.10502
-0.113444
0.074031
0.00105469
-0.00876728
0.00393686
-0.0251083
0.0084611
-0.0407546
0.0144821
-0.055596
0.0218736
-0.069602
0.0305251
-0.0827541
0.0403416
-0.0950369
0.051234
-0.106429
0.0631215
-0.116908
-0.126322
0.0759994
0.001119
0.00423791
0.00915311
0.0156857
0.023686
0.0330303
0.0436154
0.0553345
0.0680298
0.0812133
0.114325
-0.414645
0.351744
0.168132
-0.471965
0.418158
0.210279
-0.422141
0.379994
0.244168
-0.326969
0.29308
0.270983
-0.214679
0.187864
0.291598
-0.110309
0.0896934
0.305168
-0.0320579
0.018488
0.310488
0.0105643
-0.015884
0.311148
0.0249898
-0.0256497
0.020514
-0.0194603
0.115902
-0.477625
0.169685
-0.525748
0.2118
-0.464257
0.245427
-0.360597
0.272388
-0.24164
0.293803
-0.131724
0.310129
-0.0483838
0.319408
0.00128559
0.323343
0.021055
0.0198224
0.117709
-0.53971
0.170506
-0.578545
0.212209
-0.50596
0.245217
-0.393604
0.272036
-0.268459
0.29376
-0.153448
0.311686
-0.0663093
0.324394
-0.0114233
0.332783
0.0126665
0.0161923
0.12009
-0.600428
0.170872
-0.629327
0.211687
-0.546776
0.243768
-0.425685
0.270172
-0.294863
0.291949
-0.175225
0.310723
-0.0850835
0.325312
-0.0260119
0.338058
-7.95596e-05
0.00772645
0.122989
-0.659595
0.170984
-0.677321
0.210364
-0.586156
0.241271
-0.456592
0.266998
-0.320589
0.288663
-0.19689
0.307994
-0.104414
0.32355
-0.0415678
0.339236
-0.015766
-0.00563551
0.125849
-0.717208
0.170871
-0.722343
0.208321
-0.623606
0.237864
-0.486136
0.262667
-0.345392
0.284104
-0.218328
0.303757
-0.124067
0.320215
-0.0580263
0.335852
-0.0314033
-0.018177
0.12779
-0.773246
0.170346
-0.764898
0.205605
-0.658865
0.233661
-0.514191
0.257321
-0.369053
0.278403
-0.23941
0.298221
-0.143885
0.315618
-0.075423
0.329551
-0.0453368
-0.0269357
0.127874
-0.827088
0.168926
-0.805951
0.202078
-0.692017
0.228627
-0.54074
0.251006
-0.391432
0.271557
-0.259961
0.291709
-0.164037
0.308378
-0.0920921
0.319005
-0.0559644
-0.0336452
0.125796
-0.876885
0.166204
-0.846358
0.19769
-0.723503
0.22285
-0.5659
0.243828
-0.41241
0.263633
-0.279766
0.283141
-0.183544
0.297236
-0.106187
0.30488
-0.0636084
-0.0401978
0.122115
-0.917787
0.161379
-0.885623
0.191565
-0.75369
0.215624
-0.589958
0.235286
-0.432072
0.254461
-0.298941
0.270796
-0.199879
0.281708
-0.117099
0.289197
-0.0710973
-0.047072
0.583956
-0.920265
-0.581478
0.561183
-0.862849
0.523942
-0.716449
0.487837
-0.553853
0.460458
-0.404692
0.443706
-0.282189
0.431329
-0.187502
0.425058
-0.110829
0.421736
-0.0677749
-0.0455919
0.68287
-0.871672
-0.731463
0.619673
-0.799652
0.553838
-0.650614
0.496209
-0.496224
0.450474
-0.358958
0.418454
-0.250169
0.398189
-0.167237
0.388519
-0.101159
0.383121
-0.0623764
-0.0423277
0.753983
-0.775226
-0.850429
0.655067
-0.700737
0.563317
-0.558864
0.487176
-0.420083
0.429103
-0.300885
0.388805
-0.20987
0.363239
-0.141672
0.350035
-0.0879546
0.342645
-0.0549863
-0.0376192
0.778963
-0.64171
-0.912479
0.653685
-0.575458
0.546165
-0.451344
0.460844
-0.334762
0.397755
-0.237796
0.353916
-0.166032
0.325476
-0.113231
0.309737
-0.0722152
0.300675
-0.0459246
-0.0317936
0.75296
-0.492446
-0.902225
0.617525
-0.440023
0.506118
-0.339937
0.419995
-0.248639
0.357339
-0.175141
0.313722
-0.122415
0.28482
-0.084329
0.26778
-0.0551749
0.257564
-0.0357088
-0.0252041
0.685094
-0.345841
-0.831699
0.552683
-0.307612
0.44642
-0.233674
0.365943
-0.168161
0.308179
-0.117377
0.267948
-0.0821834
0.240808
-0.0571891
0.223966
-0.0383333
0.213404
-0.0251469
-0.0183109
0.582614
-0.213864
-0.714592
0.462882
-0.18788
0.369302
-0.140094
0.29992
-0.0987788
0.25085
-0.0683072
0.216671
-0.048005
0.193242
-0.0337599
0.178082
-0.0231735
0.168178
-0.0152428
-0.0116809
0.448757
-0.105525
-0.557096
0.351175
-0.0902976
0.27705
-0.0659694
0.223518
-0.0452469
0.186244
-0.0310332
0.160238
-0.0219985
0.142125
-0.0156477
0.129987
-0.0110346
0.121827
-0.00708301
-0.00595492
0.28659
-0.030221
-0.361894
0.220909
-0.0246157
0.172486
-0.0175472
0.138709
-0.0114693
0.115472
-0.00779605
0.0991075
-0.00563439
0.0875297
-0.0040699
0.0795167
-0.00302167
0.074196
-0.0017623
-0.00182283
0.101315
-0.131536
0.0766997
0.0591525
0.0476832
0.0398872
0.0342528
0.0301829
0.0271612
0.0253989
0.73882
0.0102223
-0.740768
0.733074
0.0284072
0.723436
0.0467414
0.710163
0.0639052
0.69357
0.0791624
0.674077
0.0921811
0.652273
0.10301
0.628714
0.112182
0.60427
0.11928
0.119798
0.845548
0.0133981
-0.848724
0.837321
0.0366344
0.827288
0.0567748
0.816594
0.0745994
0.805251
0.090505
0.792897
0.104535
0.779284
0.116623
0.764588
0.126877
0.749124
0.134744
0.137459
0.844982
0.0114253
-0.843009
0.848881
0.0327347
0.853018
0.0526378
0.85647
0.0711481
0.858831
0.0881436
0.859918
0.103448
0.859594
0.116947
0.857966
0.128505
0.8553
0.137411
0.14233
0.800213
0.00930439
-0.798092
0.80582
0.027127
0.814418
0.0440405
0.825635
0.0599302
0.839
0.0747793
0.853848
0.0885998
0.869417
0.101378
0.88505
0.112872
0.899935
0.122525
0.129786
0.737865
0.00703869
-0.7356
0.744154
0.0208384
0.754123
0.0340714
0.767503
0.0465501
0.784083
0.0581998
0.80366
0.0690223
0.825987
0.0790509
0.85062
0.0882394
0.87654
0.0966057
0.104102
0.653921
0.00485393
-0.651736
0.660203
0.0145561
0.670378
0.0238963
0.684221
0.0327074
0.701525
0.0408959
0.722111
0.0484359
0.745805
0.0553567
0.772329
0.0617158
0.801216
0.0677186
0.0736186
0.549112
0.00291606
-0.547174
0.554812
0.00885588
0.564138
0.0145705
0.576905
0.01994
0.592915
0.0248867
0.611968
0.0293826
0.633871
0.033454
0.658406
0.0371801
0.685379
0.0407461
0.0444058
0.422793
0.0013757
-0.421252
0.427413
0.00423594
0.435008
0.00697561
0.445422
0.00952586
0.45847
0.0118388
0.473957
0.0138957
0.491697
0.0157138
0.511527
0.0173497
0.533346
0.0189271
0.0206561
0.273828
0.000366654
-0.272819
0.276915
0.00114943
0.281999
0.00189174
0.288955
0.00256941
0.29763
0.00316447
0.307856
0.00366915
0.319482
0.00408805
0.332395
0.00443667
0.346562
0.00476039
0.00532319
0.100484
-0.100117
0.101633
0.103525
0.106094
0.109259
0.112928
0.117016
0.121453
0.126213
0.077929
0.159505
-0.142492
-0.0949417
0.0630257
0.147461
-0.132557
0.049617
0.134406
-0.120998
0.0376024
0.120332
-0.108318
0.0270258
0.105171
-0.0945942
0.0179775
0.0888944
-0.079846
0.0105726
0.0714606
-0.0640558
0.00496321
0.0528094
-0.0472
0.00134799
0.0328743
-0.0292591
0.0116389
-0.0102909
0.0779392
0.174434
-0.0928686
0.06387
0.16153
0.050839
0.147437
0.0389376
0.132234
0.0282758
0.115833
0.0190001
0.0981701
0.0112895
0.0791712
0.00535956
0.0587393
0.00147721
0.0367566
0.0131162
0.0731786
0.187928
-0.086673
0.0603694
0.174339
0.04835
0.159457
0.0372485
0.143335
0.027203
0.125878
0.0183792
0.106994
0.0109766
0.0865738
0.00523535
0.0644806
0.00144963
0.0405424
0.0145658
0.0667704
0.200353
-0.0791951
0.0550328
0.186077
0.0440492
0.17044
0.0339216
0.153463
0.0247664
0.135033
0.016727
0.115033
0.00998166
0.0933191
0.00475147
0.0697108
0.00130965
0.0439842
0.0158754
0.0593121
0.211657
-0.0706157
0.0487151
0.196674
0.0388673
0.180288
0.0298411
0.162489
0.0217242
0.14315
0.0146295
0.122128
0.00870233
0.0992463
0.00412645
0.0742867
0.00113097
0.0469796
0.0170064
0.0505978
0.221521
-0.0604617
0.0414109
0.205861
0.0329274
0.188772
0.0251972
0.170219
0.0182837
0.150064
0.0122721
0.12814
0.00727496
0.104243
0.00343653
0.0781251
0.000937284
0.0494789
0.0179437
0.0404571
0.229564
-0.0485
0.0330126
0.213305
0.0261763
0.195608
0.0199772
0.176418
0.0144573
0.155583
0.00967743
0.13292
0.00572043
0.1082
0.00269376
0.0811518
0.00073184
0.0514408
0.0186755
0.029054
0.235441
-0.0349316
0.0236511
0.218708
0.0187146
0.200544
0.0142551
0.180878
0.0102962
0.159542
0.00687752
0.136338
0.0040556
0.111022
0.00190427
0.0833031
0.000515283
0.0528298
0.0191908
0.0169174
0.238926
-0.0204019
0.0137418
0.221884
0.0108549
0.203431
0.0082548
0.183478
0.00595148
0.161846
0.0039665
0.138323
0.00233218
0.112657
0.00109066
0.0845446
0.000293242
0.0536272
0.019484
0.00482785
-0.00589045
0.00388044
0.00303405
0.00228342
0.00162818
0.00107202
0.000621626
0.000285832
7.49726e-05
0.0436742
0.0414169
-0.0525738
-0.0325173
0.0352943
0.0383673
-0.0299874
0.0276211
0.0349668
-0.0272937
0.020882
0.0313505
-0.0246114
0.01508
0.0277815
-0.0219795
0.00997355
0.0242223
-0.0191159
0.00544368
0.0200859
-0.015556
0.00197687
0.0144728
-0.011006
0.000386987
0.00740009
-0.0058102
0.00208933
-0.00170234
0.0437653
0.0505905
-0.0529389
0.0351112
0.0470214
0.0270674
0.0430107
0.0199164
0.0385014
0.0139758
0.0337222
0.00925331
0.0289448
0.00550432
0.0238349
0.00257652
0.0174007
0.000622005
0.00935461
0.00271133
0.0449369
0.0601487
-0.0544951
0.036012
0.0559463
0.0277714
0.0512512
0.0203316
0.0459412
0.0140184
0.0400354
0.00909693
0.0338662
0.00551378
0.027418
0.00289173
0.0200227
0.000809521
0.0114368
0.00352085
0.0473585
0.0703355
-0.0575453
0.0379227
0.0653821
0.0293529
0.059821
0.0216871
0.0536071
0.0150499
0.0466726
0.00970051
0.0392157
0.00576074
0.0313578
0.00295813
0.0228253
0.000874774
0.0135202
0.00439563
0.0508237
0.0812612
-0.0617494
0.0407207
0.0754852
0.0316042
0.0689374
0.0235368
0.0616745
0.0165413
0.0536681
0.0107442
0.0450128
0.00628074
0.0358212
0.00306076
0.0260453
0.000880113
0.0157008
0.00527574
0.0545226
0.0928574
-0.0661188
0.0438022
0.0862056
0.0341208
0.0786188
0.0255533
0.070242
0.0181214
0.0611
0.0118812
0.051253
0.0069276
0.0407748
0.00327801
0.0296949
0.000908343
0.0180705
0.00618408
0.0575783
0.104938
-0.0696593
0.0464195
0.0973644
0.0363171
0.0887211
0.0273313
0.0792279
0.019498
0.0689334
0.0128674
0.0578836
0.00751927
0.0461229
0.00352486
0.0336893
0.000959502
0.0206358
0.00714359
0.0596367
0.117265
-0.071963
0.04826
0.108741
0.0379183
0.0990628
0.0286567
0.0884894
0.020527
0.0770631
0.0135981
0.0648125
0.00796117
0.0517598
0.0037216
0.0379289
0.00100525
0.0233522
0.00814884
0.0614516
0.129718
-0.0739048
0.0499545
0.120238
0.0394059
0.109611
0.0298772
0.0980181
0.0214548
0.0854856
0.0142357
0.0720316
0.00833428
0.0576612
0.00388446
0.0423787
0.00104187
0.0261948
0.00919071
0.0663085
-0.0790826
0.0539892
0.0426032
0.0323034
0.0231948
0.0153803
0.00898581
0.00416454
0.00110024
0.213738
0.062131
-0.0778794
0.23641
0.0904391
-0.113111
0.260944
0.123986
-0.148519
0.277112
0.112052
-0.12822
0.276279
0.109349
-0.108516
0.253265
0.178536
-0.155522
0.219001
0.293629
-0.259365
0.1749
0.41259
-0.36849
0.118444
0.494738
-0.438283
0.461766
-0.395896
0.213087
0.0470338
0.234671
0.0688554
0.258308
0.100348
0.275132
0.0952278
0.275909
0.108572
0.253659
0.200787
0.219206
0.328082
0.174646
0.45715
0.118103
0.551282
0.52693
0.212856
0.0321679
0.233592
0.0481194
0.25638
0.0775606
0.273202
0.0784053
0.274306
0.107467
0.25246
0.222632
0.217955
0.362587
0.17333
0.501776
0.117881
0.606731
0.590316
0.212976
0.0171814
0.233172
0.0279239
0.255222
0.0555099
0.271565
0.0620632
0.271793
0.107239
0.249807
0.244618
0.215411
0.396983
0.171343
0.545844
0.118374
0.6597
0.651145
0.213315
0.00185642
0.233256
0.00798264
0.254624
0.0341415
0.269861
0.0468267
0.268282
0.108818
0.245771
0.26713
0.211773
0.430981
0.169107
0.588509
0.119715
0.709092
0.70911
0.213702
-0.0138554
0.233617
-0.0119331
0.254258
0.0135012
0.267736
0.0333489
0.26367
0.112883
0.240463
0.290337
0.207301
0.464143
0.166897
0.628914
0.121441
0.754548
0.764432
0.213962
-0.0298275
0.23405
-0.0320213
0.253837
-0.00628578
0.264953
0.0222329
0.257937
0.1199
0.234094
0.31418
0.202277
0.49596
0.164698
0.666492
0.122659
0.796587
0.817432
0.213994
-0.0458319
0.234434
-0.0524609
0.253142
-0.0249943
0.261279
0.0140966
0.251009
0.13017
0.226792
0.338396
0.196749
0.526003
0.162081
0.701161
0.122343
0.836325
0.867812
0.213813
-0.0616547
0.234752
-0.0734005
0.252052
-0.0422941
0.256742
0.00940641
0.243148
0.143763
0.218924
0.36262
0.190832
0.554095
0.158617
0.733376
0.120096
0.874846
0.914004
0.213685
-0.0773504
0.234972
-0.0946874
0.250558
-0.0578801
0.251011
0.00895336
0.233829
0.160946
0.209855
0.386595
0.183596
0.580354
0.153434
0.763537
0.116423
0.911858
0.951344
0.331946
-0.107286
0.370578
-0.13332
0.406982
-0.0942839
0.424369
-0.00843352
0.438823
0.146491
0.467399
0.358019
0.506589
0.541165
0.549579
0.720547
0.581374
0.880063
0.946213
0.586505
0.333646
-0.138922
0.37321
-0.172883
0.408376
-0.12945
0.422015
-0.0220729
0.435357
0.133149
0.475881
0.317495
0.534266
0.482779
0.604463
0.65035
0.675403
0.809122
0.888628
0.732989
0.336368
-0.17328
0.375488
-0.212003
0.408804
-0.162766
0.416876
-0.0301442
0.427126
0.122899
0.473876
0.270744
0.54644
0.410215
0.638798
0.557992
0.742283
0.705637
0.784495
0.846416
0.340522
-0.211793
0.373448
-0.244928
0.384189
-0.173507
0.380322
-0.0262771
0.398859
0.104362
0.452834
0.216769
0.534087
0.328963
0.640496
0.451582
0.767073
0.57906
0.647076
0.904492
0.348518
-0.2583
0.3566
-0.253011
0.33746
-0.154367
0.334132
-0.0229489
0.358491
0.0800029
0.413984
0.161276
0.497217
0.24573
0.607861
0.340938
0.743729
0.443193
0.49587
0.894934
0.340773
-0.297063
0.321151
-0.233388
0.28785
-0.121066
0.283866
-0.018965
0.308856
0.055013
0.361058
0.109074
0.439728
0.16706
0.545745
0.234921
0.67876
0.310178
0.347987
0.826643
0.314273
-0.309326
0.271557
-0.190672
0.23359
-0.0830995
0.228567
-0.0139423
0.251
0.0325796
0.296139
0.063936
0.364597
0.0986017
0.458321
0.141196
0.578795
0.189704
0.215105
0.711677
0.273773
-0.281089
0.212877
-0.129775
0.174324
-0.044547
0.168752
-0.0083705
0.186228
0.0151037
0.220949
0.0292152
0.274165
0.0453853
0.348681
0.0666802
0.447049
0.0913359
0.106139
0.556015
0.214647
-0.193726
0.140474
-0.0556022
0.10936
-0.0134325
0.104072
-0.00308283
0.115341
0.00383423
0.137264
0.00729297
0.171091
0.0115576
0.21997
0.017802
0.286339
0.024966
0.0304074
0.362071
0.108284
0.0526822
0.0392496
0.0361668
0.040001
0.047294
0.0588516
0.0766535
0.10162
0.132027
0.608659
-0.117096
0.632322
-0.116532
0.65514
-0.10949
0.676291
-0.100346
0.695234
-0.089559
0.71137
-0.0765984
0.724263
-0.0613929
0.73359
-0.0442581
0.739075
-0.0258868
-0.00758337
0.750322
-0.134429
0.765225
-0.131434
0.779426
-0.123692
0.79265
-0.113569
0.804713
-0.101622
0.815848
-0.0877336
0.826403
-0.071948
0.836392
-0.0542473
0.844841
-0.0343355
-0.0114667
0.851037
-0.13905
0.853479
-0.133877
0.854993
-0.125206
0.85537
-0.113946
0.854522
-0.100773
0.852621
-0.0858331
0.849895
-0.0692218
0.846739
-0.0510905
0.843946
-0.0315429
-0.0105298
0.892549
-0.127107
0.878533
-0.119861
0.863853
-0.110527
0.849289
-0.0993826
0.835445
-0.0869292
0.823019
-0.0734067
0.812635
-0.0588383
0.804756
-0.0432111
0.799744
-0.0265314
-0.00887712
0.870308
-0.10248
0.845547
-0.0950999
0.821944
-0.0869228
0.800489
-0.0779278
0.781654
-0.0680941
0.765714
-0.0574669
0.75289
-0.0460142
0.743403
-0.0337241
0.737523
-0.0206517
-0.00695365
0.796996
-0.0728329
0.768933
-0.0670365
0.743122
-0.0611115
0.720037
-0.0548429
0.699971
-0.0480286
0.683112
-0.0406075
0.669641
-0.0325437
0.659769
-0.0238516
0.653726
-0.0146085
-0.00496383
0.682984
-0.0441392
0.656499
-0.0405523
0.632401
-0.0370128
0.610878
-0.0333203
0.592145
-0.0292955
0.576396
-0.0248581
0.563828
-0.0199764
0.554646
-0.0146697
0.549043
-0.00900561
-0.00309479
0.53251
-0.0206337
0.510908
-0.0189508
0.491275
-0.0173796
0.473704
-0.0157489
0.458351
-0.0139423
0.445397
-0.0119047
0.435037
-0.00961623
0.427458
-0.00709087
0.422824
-0.00437155
-0.00152291
0.346789
-0.00535166
0.332647
-0.00480907
0.319753
-0.00448487
0.308137
-0.00413359
0.297909
-0.00371366
0.289215
-0.00321087
0.282219
-0.00262002
0.277075
-0.0019474
0.273913
-0.00120947
-0.00042923
0.126675
0.121866
0.117381
0.113248
0.109534
0.106323
0.103703
0.101756
0.100546
0.000185057
0.0116093
-0.0117943
0.000623737
0.0304465
-0.0308852
0.00123716
0.0462418
-0.0468552
0.00197733
0.0594676
-0.0602078
0.00277662
0.0700217
-0.070821
0.00376954
0.0798893
-0.0808822
0.00396348
0.0772674
-0.0774614
0.00408486
0.0700426
-0.0701639
0.00394498
0.0610798
-0.0609399
0.0499562
0.00350723
-0.0495184
0.000533397
0.0110759
0.00180387
0.0291761
0.00358509
0.0444606
0.00574126
0.0573115
0.00807285
0.0676901
0.0110397
0.0769225
0.011676
0.0766311
0.0120809
0.0696377
0.0117737
0.061387
0.0510785
0.0106513
0.000835501
0.0102404
0.00283184
0.0271797
0.00563913
0.0416533
0.00904159
0.053909
0.0127395
0.0639922
0.0172475
0.0724145
0.0187903
0.0750884
0.0195719
0.0688561
0.0193857
0.0615732
0.052435
0.0180293
0.00105598
0.00918437
0.00359702
0.0246387
0.00719366
0.0380567
0.0115559
0.0495468
0.0163567
0.0591914
0.0217479
0.0670233
0.0250729
0.0717633
0.0263552
0.0675737
0.0266035
0.0613249
0.0535668
0.0254717
0.00115146
0.00803292
0.00397935
0.0218108
0.0080418
0.0339942
0.0129971
0.0445915
0.0185518
0.0536366
0.0245578
0.0610173
0.0299525
0.0663687
0.0320904
0.0654358
0.0330117
0.0604036
0.0540916
0.032487
0.0011115
0.00692142
0.00396603
0.0189563
0.00818569
0.0297746
0.0133904
0.0393868
0.0193183
0.0477088
0.0257723
0.0545633
0.0324163
0.0597247
0.0363131
0.061539
0.0381249
0.0585918
0.0537076
0.0385089
0.000926238
0.00599519
0.00357299
0.0163095
0.00771073
0.0256368
0.0128819
0.0342157
0.0187869
0.0418038
0.0253385
0.0480116
0.0323215
0.0527417
0.0382759
0.0555847
0.0415882
0.0552795
0.0521835
0.0431123
0.000567816
0.00542737
0.00278659
0.0140908
0.00665746
0.0217659
0.0116213
0.0292518
0.0172043
0.0362208
0.0234475
0.0417685
0.0302863
0.0459029
0.0371846
0.0486863
0.0425622
0.0499019
0.0489244
0.0458213
0.000103732
0.00532364
0.00176842
0.0124261
0.00517548
0.0183589
0.00981458
0.0246127
0.0149566
0.0310788
0.0206209
0.0361042
0.0269034
0.0396204
0.0335873
0.0420024
0.0400857
0.0434036
0.0437955
0.0452146
-0.000175842
0.00549949
0.0010864
0.0111638
0.00385533
0.01559
0.00788575
0.0205823
0.0125
0.0264646
0.0175705
0.0310337
0.0231767
0.0340142
0.0292493
0.0359298
0.0356363
0.0370166
0.0373685
0.0420632
-2.17163e-05
0.0055212
0.00113901
0.0100031
0.00327631
0.0134527
0.00641144
0.0174472
0.0102926
0.0225834
0.0148343
0.026492
0.0199547
0.0288938
0.0254875
0.030397
0.0312257
0.0312784
0.031694
0.0369002
0.00037659
0.00514461
0.00153009
0.00884961
0.00317835
0.0118044
0.00548866
0.0151369
0.00870796
0.0193641
0.012894
0.0223059
0.0177465
0.0240414
0.0230143
0.0251291
0.0285064
0.0257863
0.0260566
0.0341438
0.000623198
0.00452142
0.00170507
0.00776774
0.00302488
0.0104846
0.00484455
0.0133172
0.00783678
0.0163718
0.0119275
0.0182152
0.0166803
0.0192886
0.0218556
0.0199538
0.0273212
0.0203207
0.0204021
0.0329757
0.00067654
0.00384488
0.00164206
0.00680222
0.00282219
0.00930446
0.00470687
0.0114325
0.0079845
0.0130942
0.0122182
0.0139816
0.0170381
0.0144687
0.0222826
0.0147092
0.0278553
0.014748
0.014587
0.0336705
0.000664778
0.0031801
0.00155649
0.0059105
0.00300238
0.00785857
0.00559593
0.00883897
0.00939389
0.00929624
0.0139225
0.00945293
0.0189725
0.00941872
0.0244444
0.00923733
0.0302703
0.00892197
0.00847849
0.0363788
0.000594937
0.00258515
0.00172398
0.00478144
0.00408012
0.00550242
0.00754708
0.005372
0.0118092
0.0050341
0.0166664
0.00459573
0.0220174
0.00406777
0.0278029
0.00345179
0.0339716
0.00275327
0.00198539
0.0404647
0.000528345
0.0020568
0.00250162
0.00280815
0.00577878
0.00222525
0.00978503
0.00136574
0.0143838
0.000435306
0.0195298
-0.000550258
0.0251931
-0.00159552
0.0313308
-0.00268592
0.0378818
-0.00379777
-0.00491892
0.0447861
0.000885227
0.00117157
0.00363678
5.65844e-05
0.00720349
-0.00134147
0.011394
-0.00282479
0.0161956
-0.00436629
0.0216191
-0.00597372
0.0276225
-0.00759897
0.0341146
-0.00917798
0.0410119
-0.0106951
-0.0121808
0.0482738
0.00150689
-0.000335332
0.00413442
-0.00257095
0.00755705
-0.00476411
0.0117753
-0.00704308
0.0167964
-0.00938736
0.0225403
-0.0117177
0.0288389
-0.0138976
0.035571
-0.01591
0.0427115
-0.0178356
-0.0197305
0.0502611
0.00104601
0.00313175
0.00645358
0.010926
0.0163115
0.0222897
0.0286998
0.035575
0.0429832
0.0509027
0.05143
0.0837012
-0.098231
0.0773529
-0.00758171
-0.0183412
0.100009
-0.0512638
0.0286079
0.113714
-0.0471887
0.0334834
0.121699
-0.0269181
0.0189333
0.125332
-0.00804046
0.00440717
0.126369
0.00341905
-0.00445613
0.126483
0.00745204
-0.00756607
0.126332
0.00791945
-0.00776842
0.00559715
-0.0061471
0.0586509
0.059194
0.0917402
-0.0406711
0.118952
-0.0784754
0.135
-0.0632365
0.14375
-0.035669
0.147419
-0.0117089
0.148186
0.00265224
0.147953
0.00768439
0.147458
0.00841455
0.00539508
0.0666857
0.0254841
0.105143
-0.0791288
0.136194
-0.109526
0.155872
-0.0829144
0.165898
-0.045695
0.169638
-0.0154491
0.17003
0.00226082
0.169291
0.00842298
0.168287
0.00941895
0.00568186
0.0755878
-0.0164332
0.118001
-0.121542
0.15195
-0.143475
0.175394
-0.106358
0.187474
-0.0577754
0.191553
-0.0195278
0.191609
0.00220514
0.190314
0.0097171
0.188724
0.0110094
0.00653465
0.0846609
-0.0647153
0.129845
-0.166727
0.165964
-0.179594
0.192723
-0.133117
0.207714
-0.0727667
0.212734
-0.0245476
0.212655
0.00228362
0.210854
0.0115184
0.208678
0.0131852
0.00796983
0.0931298
-0.11738
0.140339
-0.213936
0.178145
-0.2174
0.207468
-0.16244
0.225757
-0.0910551
0.23264
-0.0314309
0.23285
0.00207356
0.230715
0.0136536
0.228046
0.0158541
0.00993649
0.10033
-0.172924
0.149206
-0.262813
0.188393
-0.256587
0.219552
-0.193599
0.240905
-0.112408
0.250628
-0.041154
0.251828
0.000872982
0.249682
0.0157996
0.246713
0.0188237
0.0123129
0.105911
-0.230562
0.156321
-0.313222
0.196651
-0.296917
0.22908
-0.226029
0.252835
-0.136162
0.265964
-0.0542825
0.269144
-0.00230756
0.267505
0.0174394
0.264545
0.0217831
0.0149002
0.109857
-0.290158
0.161715
-0.36508
0.202945
-0.338147
0.236227
-0.25931
0.2616
-0.161535
0.278016
-0.0706979
0.284244
-0.00853599
0.283873
0.0178101
0.281381
0.0242753
0.0174128
0.112489
0.165567
0.207414
0.241184
0.267512
0.286508
0.29646
0.298386
0.297011
0.0132008
0.00607764
-0.0192784
0.0109902
0.00221053
0.0115108
-0.000520634
0.0129356
-0.00142474
0.013652
-0.000716428
0.0137706
-0.000118614
0.0135457
0.000224898
0.0131783
0.000367413
0.0129148
0.000263464
0.000369196
0.0372496
0.0232144
-0.0543863
0.0314978
0.00796227
0.0340134
-0.00303627
0.0380754
-0.00548677
0.0402528
-0.00289381
0.0406536
-0.000519344
0.0400128
0.000865695
0.0390094
0.00137071
0.0380699
0.00120306
0.00124084
0.0579675
0.0480935
-0.0828467
0.0508905
0.0150393
0.0559083
-0.00805407
0.0624961
-0.0120747
0.0661714
-0.00656911
0.0669329
-0.00128087
0.0659445
0.00185411
0.0643626
0.00295261
0.0627476
0.00281808
0.00253193
0.0739086
0.0753961
-0.101211
0.0680913
0.0208566
0.0764687
-0.0164315
0.0858155
-0.0214215
0.0911445
-0.0118981
0.0924076
-0.00254396
0.0911774
0.00308435
0.0890838
0.00504621
0.086866
0.00503587
0.00418989
0.0814015
-0.104237
0.0839168
0.0960931
0.108155
0.11519
0.117053
0.115682
0.113162
0.110429
0.00273369
-0.000172927
-0.00256076
0.00326457
-0.000530876
0.00417681
-0.00091224
0.00548788
-0.00131107
0.0071843
-0.00169643
0.00922888
-0.00204458
0.0115855
-0.00235661
0.0141738
-0.00258834
0.016859
-0.00268516
-0.00241943
0.00778748
-0.000645703
-0.0073147
0.00923438
-0.00197778
0.0117138
-0.00339162
0.0152702
-0.00486748
0.0198845
-0.00631072
0.0254825
-0.00764261
0.0319649
-0.00883896
0.0391563
-0.00977982
0.0467678
-0.0102966
-0.010038
0.0124781
-0.00138377
-0.0117401
0.0147278
-0.00422749
0.0185607
-0.00722452
0.0240247
-0.0103315
0.0310794
-0.0133654
0.0395863
-0.0161495
0.0493283
-0.018581
0.0600517
-0.0205033
0.0714161
-0.021661
-0.0214686
0.0168075
-0.00234772
-0.0158436
0.0197318
-0.00715174
0.024675
-0.0121678
0.0316516
-0.017308
0.0405502
-0.022264
0.0511064
-0.0267057
0.0629378
-0.0304123
0.0756949
-0.0332604
0.0888618
-0.0348279
-0.0338181
0.0207931
-0.0196336
0.0242927
0.0301542
0.0383179
0.0485408
0.060344
0.073044
0.0856048
0.0959915
0.0314439
-0.0313068
0.0371114
-0.0372485
0.0255837
-0.0309038
0.036764
0.0199255
-0.0300712
0.0357294
0.0146793
-0.0286751
0.0339214
0.0100597
-0.0264665
0.0310861
0.00620466
-0.022779
0.0266341
0.00311377
-0.0176477
0.0207386
0.00101738
-0.0136221
0.0157185
-8.67683e-05
-0.0101616
0.0112658
-0.00564239
0.00555563
0.0294599
-0.0254436
-0.0353231
0.0237443
-0.0251882
0.0182546
-0.0245814
0.0131688
-0.0235893
0.00874005
-0.0220378
0.00535022
-0.0193892
0.00301964
-0.0153171
0.00139645
-0.0119989
0.000298153
-0.00906332
-0.00534424
0.0294313
-0.0194556
-0.0354193
0.0236273
-0.0193842
0.0181102
-0.0190643
0.0129969
-0.0184761
0.00849051
-0.0175314
0.00504213
-0.0159408
0.00300377
-0.0132787
0.00164435
-0.0106395
0.00058235
-0.00800131
-0.00476189
0.0313517
-0.0131926
-0.0376147
0.0253232
-0.0133557
0.0196128
-0.0133538
0.0143068
-0.01317
0.00954395
-0.0127685
0.00564911
-0.0120459
0.00319544
-0.0108251
0.00176018
-0.00920425
0.000726532
-0.00696766
-0.00403535
0.0349541
-0.00653723
-0.0416095
0.0285806
-0.00698222
0.022561
-0.00733419
0.0169615
-0.00757053
0.0118727
-0.00767972
0.00747925
-0.00765247
0.00413345
-0.00747926
0.00199185
-0.00706265
0.000798094
-0.0057739
-0.00323725
0.0392764
0.000571163
-0.0463847
0.0324931
-0.000198922
0.0261074
-0.000948544
0.0201941
-0.00165716
0.0148136
-0.00229926
0.0100291
-0.00286798
0.0059244
-0.00337451
0.00267389
-0.00381212
0.000720601
-0.0038206
-0.00251664
0.0431171
0.00808971
-0.0506356
0.0359387
0.00697943
0.0291541
0.0058361
0.0228633
0.00463368
0.0171687
0.00339533
0.0121101
0.00219065
0.00766836
0.00106718
0.0038495
6.74948e-06
0.000979776
-0.000950864
-0.00153686
0.0453981
0.0158958
-0.0532042
0.0379684
0.0144091
0.0309124
0.0128921
0.024266
0.01128
0.0181725
0.00948882
0.0128186
0.00754466
0.00828322
0.00560252
0.0045417
0.00374828
0.0016325
0.00195835
9.56452e-05
0.0455518
0.0240006
-0.0536566
0.0379321
0.0220289
0.0308009
0.0200233
0.0240709
0.0180101
0.0177091
0.0158506
0.0119097
0.0133441
0.00705048
0.0104617
0.00341877
0.00738
0.00114808
0.00422904
0.00124373
0.0444909
-0.0530077
0.0365324
0.029262
0.0226607
0.0165318
0.0107601
0.00566578
0.00203976
0.000458608
0.00394826