/*--------------------------------*- C++ -*----------------------------------*\
  =========                 |
  \\      /  F ield         | OpenFOAM: The Open Source CFD Toolbox
   \\    /   O peration     | Website:  https://openfoam.org
    \\  /    A nd           | Version:  13
     \\/     M anipulation  |
\*---------------------------------------------------------------------------*/
FoamFile
{
    format      ascii;
    class       volScalarField;
    location    "0.84";
    object      strainRateViscosityModel:nu;
}
// * * * * * * * * * * * * * * * * * * * * * * * * * * * * * * * * * * * * * //

dimensions      [0 2 -1 0 0 0 0];

internalField   nonuniform List<scalar> 
1800
(
9.40488
9.1976
9.01007
8.80096
8.57616
8.34416
8.11549
7.89818
7.6242
7.37922
9.58523
9.41878
9.2669
9.09733
8.91118
8.71144
8.50358
8.28868
8.0273
7.70207
9.70219
9.56269
9.42803
9.27096
9.08869
8.879
8.64092
8.36904
8.03058
7.6106
9.77539
9.65614
9.53324
9.38287
9.20049
8.98172
8.72281
8.41597
8.02878
7.55456
9.82168
9.7183
9.60558
9.46167
9.28071
9.05696
8.78549
8.45889
8.04775
7.55614
9.85185
9.76081
9.6573
9.52059
9.34355
9.11896
8.84034
8.50016
8.07152
7.5702
9.87179
9.78991
9.69398
9.56396
9.39147
9.16769
8.8842
8.53252
8.08735
7.57567
9.88475
9.80924
9.71888
9.59394
9.42494
9.20146
8.91309
8.55005
8.08853
7.56355
9.8926
9.82107
9.73416
9.6122
9.44466
9.21962
8.92483
8.54922
8.07121
7.52871
9.89646
9.82685
9.74153
9.62069
9.45309
9.22573
8.92512
8.53953
8.05038
7.49285
1.80159
1.40521
1.20903
1.31974
1.73037
2.25177
2.4967
2.44889
2.35896
2.33527
3.73081
1.7808
1.49099
1.98112
2.69589
2.97258
2.81697
2.67135
2.68756
2.74098
4.70313
2.56951
2.43521
3.17679
3.59677
3.34604
3.08119
3.11806
3.2582
3.33882
5.26947
3.88149
3.81488
4.21361
4.18064
3.82913
3.72091
3.85484
3.95741
4.00641
6.05594
5.27507
5.1177
5.12137
4.91493
4.65317
4.57792
4.61212
4.61243
4.65215
6.95988
6.45983
6.22676
6.03828
5.78828
5.54533
5.38912
5.29325
5.22208
5.27467
7.77173
7.3777
7.11678
6.86032
6.58744
6.32055
6.08723
5.90088
5.77013
5.82369
8.40013
8.05531
7.79202
7.5158
7.22653
6.93124
6.6422
6.38629
6.19222
6.22921
8.84934
8.54538
8.29101
8.01033
7.70573
7.37951
7.03565
6.70112
6.41572
6.4217
9.16164
8.90154
8.66633
8.39668
8.09573
7.76578
7.40647
7.03565
6.70851
6.75238
2.19324
1.72904
1.33167
0.937155
0.619895
0.350149
0.186517
0.14023
0.157211
0.242884
2.52748
1.84806
1.40661
0.932347
0.593606
0.334298
0.175787
0.104419
0.104665
0.186173
2.94803
1.97712
1.47891
0.929633
0.557733
0.306909
0.16373
0.0884529
0.0647349
0.129345
3.44045
2.14705
1.55019
0.932515
0.518232
0.271727
0.146583
0.0765546
0.0591017
0.0716208
3.98273
2.38513
1.62765
0.941546
0.4794
0.23238
0.125559
0.0625224
0.0666716
0.0303987
4.52831
2.69632
1.72398
0.957938
0.444329
0.191826
0.101204
0.0499486
0.055262
0.0534425
4.99682
3.05611
1.84596
0.980708
0.413123
0.152024
0.0753768
0.0395826
0.0338057
0.115462
5.31268
3.43914
2.01315
1.02351
0.392228
0.11587
0.0504753
0.0264906
0.0420315
0.177844
5.3432
3.72259
2.16283
1.05543
0.3691
0.0832488
0.0304722
0.0207553
0.0984175
0.241397
5.20195
3.98871
2.3984
1.1592
0.385547
0.0666338
0.0103886
0.0563492
0.144313
0.294404
4.9443
3.94226
2.45546
1.17322
0.360385
0.0529006
0.0305797
0.10766
0.203403
0.355209
5.33031
3.34753
2.1398
0.998818
0.359886
0.140328
0.118359
0.17581
0.275984
0.42162
4.90473
3.04599
2.24878
1.20656
0.592126
0.295537
0.205447
0.245107
0.338867
0.47234
4.54687
3.63251
2.68229
1.64162
0.893454
0.496682
0.340434
0.333218
0.405004
0.514475
5.11434
4.74792
3.343
2.16461
1.23837
0.730247
0.497637
0.435669
0.473363
0.548336
6.25447
5.66957
4.05709
2.67383
1.59851
0.981669
0.674295
0.552095
0.546404
0.577139
7.26268
6.3737
4.7136
3.15447
1.95713
1.24037
0.859294
0.676514
0.622492
0.602586
8.0001
6.91202
5.25976
3.58886
2.29989
1.50048
1.04973
0.806675
0.702081
0.627293
8.51876
7.33071
5.69727
3.96998
2.62031
1.75364
1.23626
0.933872
0.77899
0.649573
8.931
7.69118
6.04969
4.283
2.92515
2.02406
1.44702
1.08166
0.874179
0.681903
6.51282
6.43966
6.43043
6.44873
6.48733
6.52991
6.58195
6.71048
6.89515
6.82618
0.260656
1.05708
2.00765
2.92268
3.70358
4.31618
4.7329
4.98239
5.22142
5.72758
3.85081
3.54393
3.28471
3.11148
3.10654
3.25014
3.47233
3.71344
4.16493
4.84472
6.64416
6.62722
6.53712
6.3447
6.04332
5.65793
5.24972
4.89621
4.73963
4.54955
7.69184
7.67653
7.63211
7.54128
7.39613
7.18986
6.92709
6.61954
6.28605
5.65651
8.44951
8.43311
8.39435
8.32771
8.22957
8.09671
7.92836
7.71683
7.42793
6.90785
8.93967
8.92393
8.89028
8.83679
8.76166
8.6629
8.53815
8.37892
8.15467
7.80862
9.27298
9.25981
9.23246
9.18985
9.13052
9.05245
8.95269
8.82481
8.65281
8.4309
9.50446
9.49417
9.47307
9.44024
9.39426
9.33319
9.25424
9.15286
9.02288
8.87534
9.6899
9.68285
9.66852
9.64604
9.61405
9.5707
9.51361
9.43975
9.34638
9.2441
7.24802
7.52616
7.83692
8.08767
8.34481
8.59962
8.84139
9.06158
9.25458
9.46025
7.58309
7.94805
8.24096
8.48112
8.70935
8.92482
9.1223
9.299
9.45391
9.61805
7.49849
7.95737
8.32595
8.6205
8.87576
9.09774
9.28806
9.44952
9.58535
9.72225
7.44688
7.9576
8.37376
8.702
8.97659
9.20597
9.39471
9.54806
9.67131
9.78824
7.45632
7.98066
8.41861
8.7649
9.05054
9.28356
9.46977
9.61591
9.72868
9.83022
7.48241
8.01168
8.46402
8.82147
9.11234
9.34475
9.52606
9.66446
9.76796
9.85764
7.50364
8.03786
8.50277
8.86863
9.16197
9.39189
9.56763
9.6989
9.79479
9.8757
7.51114
8.05246
8.52871
8.90209
9.19746
9.42521
9.5964
9.72212
9.81243
9.88729
7.49836
8.05045
8.53742
8.91898
9.21768
9.44503
9.61371
9.73606
9.82289
9.89404
7.48288
8.04358
8.53592
8.92344
9.22525
9.4533
9.62123
9.74216
9.82746
9.89693
2.55927
2.51568
2.5334
2.74503
2.93101
2.55866
1.70192
1.18316
1.52408
4.20072
2.9659
2.87761
2.71773
2.71525
3.10496
3.43348
2.8251
1.90937
2.12724
5.13768
3.4529
3.40953
3.25171
3.06511
3.26501
3.82403
3.80466
3.16342
3.29124
5.45704
3.94373
3.933
3.9067
3.79757
3.8904
4.31791
4.58964
4.46886
4.66224
5.91424
4.49656
4.46911
4.54456
4.61633
4.78031
5.11395
5.43844
5.61944
5.89722
6.6319
5.10023
5.05772
5.19743
5.39595
5.65693
5.98044
6.3087
6.59558
6.90109
7.40679
5.65292
5.6167
5.81765
6.09032
6.40767
6.74088
7.06858
7.3782
7.67881
8.0866
6.06622
6.0517
6.31487
6.64221
6.99495
7.33981
7.66731
7.97422
8.25898
8.61108
6.26002
6.279
6.63087
7.02586
7.42012
7.78443
8.11674
8.4167
8.68284
8.98797
6.59989
6.56977
6.95595
7.37947
7.78134
8.14313
8.46654
8.75045
8.99301
9.25186
0.113225
0.154919
0.122839
0.0641429
0.0158288
0.39507
0.932205
1.48501
1.95177
2.43374
0.0798306
0.140435
0.118705
0.0665278
0.0155321
0.387701
0.936192
1.54772
2.03048
2.69952
0.0581023
0.132075
0.116926
0.0697756
0.0243788
0.387792
0.942075
1.59735
2.10072
3.0094
0.0449669
0.129673
0.11868
0.0770863
0.0424919
0.395333
0.947776
1.63412
2.20392
3.39574
0.0383828
0.132344
0.122588
0.086533
0.0655746
0.404589
0.950618
1.66945
2.38166
3.86584
0.0374665
0.139296
0.127029
0.0954859
0.0893413
0.412144
0.954572
1.72668
2.64816
4.36303
0.0424437
0.150719
0.130774
0.101783
0.109068
0.415591
0.964835
1.82227
2.98009
4.79383
0.0539384
0.167122
0.133471
0.105612
0.124333
0.423946
1.00546
1.98129
3.34689
5.07852
0.0737078
0.188242
0.135248
0.103102
0.127343
0.423757
1.04229
2.13255
3.62538
5.08169
0.104446
0.210902
0.137659
0.103928
0.14247
0.470499
1.1788
2.39079
3.87519
4.89032
0.161111
0.239544
0.143105
0.101005
0.130978
0.473565
1.24362
2.5038
3.88448
4.67273
0.264174
0.271125
0.133028
0.0757955
0.0694292
0.384653
1.11847
2.30231
3.42935
5.1919
0.429055
0.270415
0.0997386
0.0141201
0.0150354
0.346269
1.14982
2.35139
3.25618
4.93786
0.682319
0.254464
0.0228689
0.0813744
0.100787
0.539538
1.4327
2.62515
3.71568
4.69845
1.06569
0.0476414
0.264189
0.235489
0.314355
0.891477
1.93418
3.20694
4.70736
5.17773
1.51469
0.122536
0.538584
0.416346
0.595924
1.30835
2.47423
3.91738
5.59885
6.22341
2.19503
0.683366
0.856202
0.689149
0.941961
1.73842
2.9923
4.59359
6.30247
7.21636
3.7922
1.70631
1.27492
1.03687
1.31791
2.15025
3.46122
5.16515
6.85408
7.96876
6.86014
3.57567
1.96351
1.42154
1.67923
2.52384
3.87331
5.63116
7.29514
8.50724
9.04906
6.38369
2.8431
2.00186
2.11576
2.89648
4.22365
6.01906
7.6865
8.93809
6.62443
6.68748
6.51078
6.38902
6.34868
6.32251
6.30554
6.31733
6.36195
6.47625
5.528
5.00917
4.76544
4.52443
4.12632
3.54042
2.79854
1.93207
1.04465
0.28422
4.84962
4.23673
3.8273
3.61681
3.43005
3.3106
3.31549
3.45773
3.65544
3.87436
4.71253
4.88602
5.02851
5.338
5.70216
6.05239
6.33393
6.5214
6.61653
6.64158
5.688
6.28596
6.61236
6.91137
7.17237
7.38146
7.5318
7.62813
7.67669
7.69239
6.8659
7.38861
7.68443
7.90231
8.07658
8.21483
8.3178
8.38855
8.43054
8.44888
7.7651
8.12048
8.35196
8.5179
8.64796
8.75098
8.82956
8.88582
8.92164
8.93899
8.40453
8.63267
8.80887
8.94093
9.04401
9.12465
9.18596
9.23006
9.25854
9.27259
8.86615
9.01619
9.14761
9.2506
9.33082
9.39283
9.43944
9.47267
9.494
9.50442
9.24869
9.35045
9.44302
9.51631
9.57294
9.61588
9.64748
9.66957
9.68348
9.69012
9.50947
8.98534
8.23589
6.92826
5.59797
0.131167
3.36083
5.96039
7.21409
8.15187
9.46542
8.92156
8.16813
6.89059
5.54939
0.563769
2.62222
5.70602
6.91644
7.91397
9.36568
8.78282
8.02028
6.80962
5.36636
1.60348
1.41357
5.20663
6.30935
7.40331
9.18255
8.54513
7.7745
6.65513
5.18645
2.74004
0.723099
4.23839
5.42158
6.57149
8.86812
8.1736
7.40403
6.37696
5.02653
3.36803
0.970959
2.63163
4.31696
5.39382
8.35053
7.62973
6.87343
5.9173
4.76512
3.44005
1.71925
1.30194
3.0493
3.98815
7.53605
6.89661
6.15556
5.22758
4.29967
3.26955
2.14311
1.17254
1.65627
2.55744
6.32539
6.03759
5.28136
4.2319
3.53344
2.9126
2.11846
1.43524
1.0686
1.23538
4.63172
5.23227
4.47437
2.99959
2.43708
2.27445
1.85603
1.3849
1.12275
0.659174
2.67282
4.53959
4.02166
1.9667
1.39675
1.48833
1.40995
1.2118
1.06411
0.845271
1.27678
3.78905
3.66666
1.33717
0.816154
0.897653
0.971143
0.956362
0.971817
1.01991
0.613509
2.96996
3.08225
0.956446
0.575305
0.640026
0.759524
0.820113
0.844105
0.877076
0.355389
2.18977
2.28549
0.688155
0.492664
0.595438
0.726552
0.810921
0.848701
0.873452
0.265324
1.55082
1.48923
0.521622
0.534728
0.674379
0.787898
0.858928
0.882337
0.89257
0.239651
1.01884
0.845514
0.514503
0.669925
0.803535
0.90475
0.968255
0.983958
0.980842
0.242864
0.492882
0.500086
0.636734
0.817812
0.955314
1.05308
1.11075
1.12126
1.11308
0.176891
0.204034
0.508402
0.756455
0.975131
1.12092
1.21058
1.25757
1.27438
1.27502
0.045171
0.252048
0.649499
0.923014
1.13632
1.25365
1.32973
1.39963
1.45627
1.47811
0.0612412
0.492578
0.822431
1.09605
1.22968
1.33852
1.48921
1.64799
1.7352
1.75067
0.697433
0.865598
1.0405
1.18327
1.32306
1.59724
1.91038
2.08001
2.08156
2.04843
0.363069
0.0805481
0.223939
0.550887
0.794937
0.891747
0.887221
0.839169
0.788852
0.75374
0.462137
0.202445
0.319325
0.521617
0.724157
0.810896
0.808645
0.768402
0.725203
0.704815
0.525838
0.372434
0.440271
0.513877
0.653641
0.730759
0.731789
0.698468
0.661776
0.655475
0.639033
0.588132
0.59578
0.555791
0.587503
0.643556
0.649909
0.626106
0.597572
0.605793
0.806189
0.803786
0.742324
0.638434
0.54227
0.55632
0.566167
0.552849
0.533136
0.555794
1.00978
0.999723
0.875648
0.737933
0.531184
0.474723
0.481087
0.478631
0.468522
0.50545
1.22786
1.17128
0.99056
0.826074
0.553147
0.408895
0.397518
0.404223
0.404043
0.454664
1.45258
1.32542
1.08932
0.88867
0.589924
0.368507
0.319797
0.330644
0.340022
0.403246
1.68504
1.46884
1.17566
0.923884
0.61974
0.354416
0.254585
0.259682
0.276943
0.350992
1.92627
1.6037
1.25505
0.937252
0.630189
0.353914
0.209466
0.194503
0.215592
0.297547
2.00917
0.747567
0.717929
0.965865
1.19854
1.28525
1.2595
1.18063
1.10929
1.00992
1.39445
0.483023
0.579414
0.875163
1.11034
1.19891
1.17815
1.1063
1.03806
0.951471
0.7516
0.288032
0.481514
0.798162
1.03598
1.12673
1.11033
1.0441
0.979589
0.904248
0.253354
0.170389
0.405903
0.726405
0.960847
1.05032
1.03671
0.976171
0.915973
0.853471
0.435822
0.0327016
0.267469
0.613446
0.864779
0.965899
0.960884
0.907824
0.852577
0.803318
9.35465
9.29006
9.14101
8.87311
8.43757
7.77891
6.87137
5.75933
4.58201
3.53713
9.19249
9.09566
8.88112
8.51167
7.94153
7.13649
6.10967
4.95512
3.84479
2.78684
9.02389
8.90028
8.62663
8.16106
7.46178
6.51618
5.37146
4.16866
3.0813
1.94239
8.81633
8.66222
8.32152
7.74794
6.90619
5.81427
4.555
3.29482
2.22583
1.08995
8.58751
8.3794
7.92585
7.17747
6.11254
4.79211
3.35064
2.08512
0.993882
0.302007
1.06019
1.02439
1.01617
1.01969
0.915108
0.799603
1.29336
3.68345
3.85987
1.3229
0.949126
0.933679
0.926064
0.870621
0.718707
0.58842
0.910711
3.14206
3.11012
0.647335
0.985891
0.982356
0.965471
0.89268
0.747211
0.584205
0.698066
2.37288
2.34708
0.377385
1.05334
1.06524
1.06108
1.00124
0.889748
0.740423
0.655374
1.55792
1.63522
0.277231
1.18606
1.21022
1.21593
1.16821
1.07701
0.951813
0.789136
0.910435
0.920184
0.246126
1.35135
1.37129
1.37958
1.3545
1.28466
1.15139
0.929983
0.670216
0.358482
0.216803
1.55596
1.5519
1.51948
1.47711
1.42634
1.32012
1.07999
0.754502
0.272571
0.0664311
1.82419
1.81781
1.73522
1.58216
1.44208
1.34547
1.21076
0.902234
0.494624
0.0467852
2.10462
2.15194
2.15047
1.95659
1.61277
1.32309
1.18729
1.05733
0.857028
0.676087
2.31297
2.35976
2.48439
2.53682
2.23471
1.63303
1.18269
1.06671
1.30482
2.04312
8.15168
7.21373
5.96003
3.36033
0.131423
5.5965
6.92777
8.2357
8.98536
9.50956
7.91328
6.91533
5.70501
2.62161
0.563639
5.54554
6.88914
8.16755
8.92161
9.46573
7.40186
6.30746
5.20484
1.41547
1.59976
5.36187
6.80735
8.01941
8.78295
9.36627
6.56884
5.41868
4.23623
0.726272
2.73173
5.18172
6.65228
7.77353
8.54546
9.18358
5.38943
4.31248
2.63265
0.971029
3.35669
5.02057
6.3735
7.40309
8.17434
8.86988
3.97982
3.04147
1.31018
1.71322
3.42678
4.75624
5.9125
6.87255
7.63122
8.35351
2.54109
1.6535
1.18716
2.13287
3.2509
4.28301
5.21886
6.15467
6.89952
7.54138
1.21761
1.08763
1.4517
2.10724
2.88048
3.50308
4.21751
5.28211
6.04358
6.33607
0.671608
1.15287
1.40704
1.84232
2.23203
2.40024
2.98385
4.47944
5.24361
4.65553
0.884805
1.10237
1.24703
1.41261
1.46374
1.36895
1.94327
4.02659
4.56521
2.71654
2.09007
0.543316
1.06117
0.629
0.660735
0.758439
0.632598
0.300288
0.0619499
0.356479
1.6303
0.236775
0.870059
0.478713
0.566703
0.681276
0.593748
0.356872
0.265822
0.488455
1.33434
0.0583505
0.641942
0.34033
0.478089
0.602044
0.562597
0.459565
0.47321
0.591021
1.09818
0.0146912
0.393996
0.231711
0.393373
0.518543
0.562836
0.626089
0.732766
0.7583
0.848204
0.0891365
0.18968
0.15823
0.315653
0.442125
0.609181
0.805226
0.975024
0.977549
0.636032
0.153842
0.0532385
0.101231
0.243884
0.386409
0.694751
0.975322
1.19441
1.22495
0.46384
0.209106
0.0489885
0.0532174
0.180336
0.365187
0.788609
1.1193
1.38669
1.48122
0.331601
0.209991
0.107207
0.0108017
0.122221
0.373963
0.862661
1.23628
1.55851
1.73623
0.233252
0.195587
0.121936
0.0354719
0.0643718
0.391206
0.906439
1.33158
1.71238
1.97743
0.162573
0.174175
0.127345
0.0574132
0.0289971
0.399321
0.925771
1.41288
1.84549
2.20093
9.33657
6.77033
2.66494
1.6994
1.20178
1.12044
0.964594
0.781555
0.796341
2.03313
8.21092
4.63645
2.21502
1.41738
1.06913
1.03554
0.891016
0.650912
0.527913
1.39865
6.12015
3.06396
1.78531
1.21001
0.964158
0.971205
0.832058
0.561178
0.328761
0.741042
4.13319
1.87591
1.49744
1.00349
0.858072
0.904025
0.77574
0.487653
0.22865
0.22517
2.83561
1.06127
1.24631
0.802808
0.75493
0.82646
0.686036
0.356386
0.0444303
0.39814
3.5477
4.58915
5.76324
6.87355
7.78046
8.43871
8.87389
9.14148
9.29033
9.35474
2.78094
3.84106
4.95237
6.1079
7.13588
7.94154
8.51189
8.88135
9.09583
9.19255
1.92842
3.07191
4.16219
5.3667
6.51363
7.46063
8.16064
8.62654
8.9003
9.02392
1.05566
2.20314
3.28163
4.54677
5.81005
6.90397
7.74682
8.32105
8.66207
8.8163
0.30053
0.962731
2.06398
3.33751
4.78515
6.10895
7.17549
7.9249
8.37903
8.58742
)
;

boundaryField
{
    left
    {
        type            calculated;
        value           nonuniform List<scalar> 
35
(
0.297791
0.566598
0.987077
1.62622
2.52457
3.69556
5.06611
6.47607
8.1585
9.4418
0.213725
0.133842
0.0814315
0.049489
0.0327442
0.0274699
0.0328597
0.052301
0.0922118
0.159915
4.93339
4.06161
3.2348
2.51295
1.91711
1.42717
1.03085
0.724756
0.496418
0.330599
9.61573
8.97907
7.92205
6.84777
5.85939
)
;
    }
    right
    {
        type            calculated;
        value           nonuniform List<scalar> 
35
(
1.00946
0.951232
0.904354
0.854444
0.805452
0.757439
0.710175
0.662362
0.614104
0.56541
0.516171
0.46615
0.414975
0.362213
0.307257
0.249858
0.18905
0.12641
0.0631858
0.0232315
0.0488976
0.121239
0.195783
0.265864
0.322251
0.385537
0.451786
0.500716
0.539211
0.567905
0.590734
0.610377
0.630482
0.650068
0.679889
)
;
    }
    down
    {
        type            calculated;
        value           nonuniform List<scalar> 
40
(
9.45431
7.26634
2.89587
1.78859
1.24254
1.14883
0.990077
0.823095
0.897436
2.26035
3.83287
4.88245
6.03396
7.09288
7.94462
8.55502
8.95447
9.19926
9.33565
9.39488
9.39478
9.33537
9.19874
8.95361
8.55369
7.94267
7.08995
6.02877
4.8732
3.81891
2.23229
0.847663
0.761821
0.997822
1.23029
1.31491
1.28649
1.20463
1.13228
1.02884
)
;
    }
    up
    {
        type            calculated;
        value           nonuniform List<scalar> 
40
(
9.0341
7.80882
6.16756
4.39478
3.0334
2.11896
1.51959
1.13077
0.906159
0.693984
9.72927
9.72305
9.71045
9.69064
9.66234
9.62377
9.57263
9.50586
9.42076
9.32814
9.33506
9.42656
9.5104
9.57623
9.62665
9.66461
9.69238
9.71169
9.72379
9.72952
9.27074
7.09622
3.2391
2.15368
2.2351
3.01601
4.34582
6.14872
7.81368
9.04496
)
;
    }
    cylinder
    {
        type            calculated;
        value           nonuniform List<scalar> 
80
(
2.00291
4.57244
5.53924
5.77955
6.30498
7.09058
7.86181
8.47477
8.91245
9.2129
9.44581
9.61871
9.72981
9.79829
9.84096
9.86846
9.8865
9.89817
9.90522
9.90869
9.50039
9.6506
9.74902
9.81046
9.849
9.87389
9.89016
9.90054
9.90657
9.90913
5.32813
6.23425
6.21143
6.31591
6.8346
7.52668
8.17621
8.686
9.05066
9.3025
0.994279
0.471548
0.264196
0.183213
0.159554
0.165576
0.0828472
0.0422839
0.750232
2.43261
9.59446
9.55588
9.46745
9.30187
9.00979
8.51137
7.68627
6.36656
4.38721
2.23876
9.59436
9.55556
9.46683
9.30079
9.00793
8.5082
7.68053
6.3545
4.35816
2.19134
0.952829
0.442289
0.244354
0.170847
0.150281
0.165488
0.160855
0.0839163
0.0433601
0.737653
)
;
    }
    defaultFaces
    {
        type            empty;
    }
}


// ************************************************************************* //
