/*--------------------------------*- C++ -*----------------------------------*\
  =========                 |
  \\      /  F ield         | OpenFOAM: The Open Source CFD Toolbox
   \\    /   O peration     | Website:  https://openfoam.org
    \\  /    A nd           | Version:  13
     \\/     M anipulation  |
\*---------------------------------------------------------------------------*/
FoamFile
{
    format      ascii;
    class       volVectorField;
    location    "0.84";
    object      U;
}
// * * * * * * * * * * * * * * * * * * * * * * * * * * * * * * * * * * * * * //

dimensions      [0 1 -1 0 0 0 0];

internalField   nonuniform List<vector> 
1800
(
(0.0978004 -0.0883282 -4.48849e-20)
(0.286895 -0.24195 -3.41129e-20)
(0.473972 -0.379044 -4.8501e-19)
(0.657692 -0.500158 1.91467e-19)
(0.836612 -0.607173 7.43973e-20)
(1.00992 -0.70138 -3.90519e-20)
(1.17716 -0.783474 5.54993e-20)
(1.33794 -0.853688 1.97478e-19)
(1.4916 -0.912974 5.92297e-19)
(1.63354 -0.966915 8.10091e-19)
(0.11906 -0.0915023 -7.91099e-20)
(0.34429 -0.247709 -7.7061e-19)
(0.563282 -0.384749 3.78143e-21)
(0.775364 -0.504236 1.25739e-19)
(0.979506 -0.608923 -1.2625e-19)
(1.17522 -0.700697 7.65671e-20)
(1.36232 -0.780792 -2.80753e-19)
(1.54078 -0.850104 -5.02999e-20)
(1.71011 -0.910712 -6.93574e-19)
(1.86786 -0.967054 6.29818e-19)
(0.14165 -0.0923227 4.88225e-20)
(0.403679 -0.247731 2.09287e-19)
(0.653754 -0.382116 5.43305e-19)
(0.892178 -0.497904 -1.90255e-19)
(1.11866 -0.598385 -1.4299e-19)
(1.33321 -0.685813 7.56036e-20)
(1.53605 -0.761708 9.82372e-20)
(1.72743 -0.827301 1.94054e-19)
(1.90721 -0.884806 2.73653e-21)
(2.07422 -0.937875 1.50979e-19)
(0.163906 -0.0897206 -4.57189e-20)
(0.461698 -0.23947 -2.0439e-19)
(0.741427 -0.367618 -1.81257e-19)
(1.00451 -0.476976 -1.42292e-19)
(1.25162 -0.571022 1.81302e-19)
(1.48351 -0.652128 -5.70881e-20)
(1.70093 -0.721907 -4.31002e-21)
(1.90453 -0.781624 2.90844e-21)
(2.09455 -0.833368 -1.60483e-19)
(2.27026 -0.88036 -1.05924e-19)
(0.184657 -0.0833563 -1.14035e-19)
(0.515893 -0.221807 8.76387e-20)
(0.823291 -0.33943 1.79835e-19)
(1.10931 -0.439063 2.43298e-19)
(1.37561 -0.524071 -2.85011e-19)
(1.62371 -0.596778 -3.58069e-21)
(1.85494 -0.658768 4.24954e-19)
(2.07043 -0.711263 -1.85055e-19)
(2.27083 -0.756166 -1.23985e-19)
(2.45578 -0.7964 -5.35432e-20)
(0.203189 -0.0734999 1.73587e-19)
(0.56447 -0.1952 1.02983e-18)
(0.89679 -0.298074 1.43257e-19)
(1.20351 -0.384735 -5.03129e-19)
(1.48719 -0.458227 -1.75496e-19)
(1.75003 -0.520669 6.37667e-19)
(1.9939 -0.573525 -1.45366e-19)
(2.22036 -0.617901 -4.3156e-19)
(2.43047 -0.655446 -3.1667e-19)
(2.6242 -0.688745 2.61586e-19)
(0.218898 -0.0605912 1.16339e-19)
(0.605744 -0.160701 -7.47583e-19)
(0.959312 -0.24503 -1.08559e-18)
(1.2837 -0.315798 3.83778e-19)
(1.58223 -0.375564 4.4993e-19)
(1.85767 -0.426128 -9.02018e-22)
(2.11239 -0.46874 -6.39653e-19)
(2.34829 -0.504326 2.1931e-19)
(2.56683 -0.534214 -3.64515e-19)
(2.76827 -0.560571 -3.11222e-19)
(0.231235 -0.0451722 -3.42482e-19)
(0.638199 -0.119684 -6.92592e-19)
(1.00849 -0.182294 1.21219e-18)
(1.34677 -0.2347 5.98692e-19)
(1.65693 -0.278852 -2.69751e-19)
(1.94224 -0.316136 -2.11492e-19)
(2.20543 -0.347515 0)
(2.44874 -0.37369 1.16798e-19)
(2.67398 -0.395623 -2.95838e-19)
(2.88171 -0.414971 -7.74207e-20)
(0.239766 -0.0278753 -2.04463e-19)
(0.660651 -0.0737557 5.62376e-19)
(1.04249 -0.112198 1.71005e-19)
(1.39031 -0.144289 -5.12485e-19)
(1.7084 -0.171277 -7.84182e-19)
(2.00037 -0.194053 3.66184e-20)
(2.26924 -0.213246 1.67126e-19)
(2.51752 -0.229294 -5.46831e-19)
(2.74731 -0.242785 -2.89766e-19)
(2.95953 -0.254779 -5.6359e-19)
(0.244259 -0.0094024 4.51402e-19)
(0.672451 -0.024704 3.44144e-19)
(1.0603 -0.0373616 -9.38585e-20)
(1.41303 -0.0477885 -1.29778e-20)
(1.73514 -0.0564623 -3.87502e-19)
(2.03041 -0.0637233 -8.57332e-20)
(2.30205 -0.0698103 -2.90573e-19)
(2.55275 -0.0748906 6.46551e-19)
(2.7848 -0.0791715 1.71001e-19)
(2.99945 -0.0830124 2.22076e-21)
(-0.00234207 -0.0217753 -3.50921e-20)
(0.00858012 -0.0693588 -6.99809e-20)
(0.0248608 -0.12059 -7.33104e-21)
(0.0492967 -0.171352 -3.39609e-20)
(0.0776489 -0.21676 -1.27374e-20)
(0.106481 -0.254897 -3.90078e-19)
(0.135498 -0.288823 -1.9549e-20)
(0.166282 -0.322142 1.19949e-19)
(0.19911 -0.355672 1.09423e-20)
(0.233001 -0.388054 -3.57236e-20)
(0.000850945 -0.0246716 -9.77607e-20)
(0.0149344 -0.085059 -2.13393e-19)
(0.0393448 -0.160409 -5.32705e-20)
(0.0692686 -0.225374 -1.10295e-19)
(0.0994715 -0.275666 -9.62068e-20)
(0.130422 -0.318093 -2.79395e-19)
(0.164432 -0.359091 2.00274e-19)
(0.202094 -0.400512 1.6877e-19)
(0.241597 -0.440448 -2.56923e-19)
(0.281104 -0.476843 8.1408e-20)
(0.00549698 -0.0314782 -8.54147e-20)
(0.0287743 -0.107408 -8.68671e-19)
(0.0628659 -0.196158 -1.30072e-19)
(0.0974519 -0.269043 9.27184e-20)
(0.131799 -0.327287 6.76977e-20)
(0.169624 -0.38036 -4.48328e-19)
(0.212919 -0.432405 3.54342e-20)
(0.259114 -0.481919 3.67033e-19)
(0.305459 -0.526395 -3.86675e-19)
(0.351403 -0.5658 -2.58667e-19)
(0.0113685 -0.0409736 -1.77094e-21)
(0.0466245 -0.130873 1.90119e-19)
(0.0896493 -0.225361 1.60434e-21)
(0.133079 -0.307077 -1.07104e-20)
(0.177781 -0.377918 -3.00003e-20)
(0.227231 -0.443917 8.58793e-20)
(0.281087 -0.505703 7.27046e-20)
(0.335657 -0.560988 -1.36012e-19)
(0.389715 -0.60948 9.20971e-21)
(0.44388 -0.652056 -1.04425e-20)
(0.0185089 -0.0507641 0)
(0.0672394 -0.152427 5.50516e-21)
(0.121944 -0.25365 -5.111e-19)
(0.178697 -0.3455 5.17139e-20)
(0.237807 -0.428607 -9.65132e-21)
(0.300514 -0.505131 5.14704e-21)
(0.365308 -0.574433 -2.52323e-20)
(0.429803 -0.635503 -7.76177e-21)
(0.493939 -0.688918 0)
(0.558131 -0.734937 -2.05817e-20)
(0.0273252 -0.0596461 3.18732e-20)
(0.0918956 -0.172855 -1.54525e-19)
(0.161769 -0.28253 -4.61497e-20)
(0.234632 -0.383902 -5.82943e-20)
(0.309738 -0.476772 4.95838e-20)
(0.386739 -0.561562 5.92456e-21)
(0.464245 -0.637739 8.89551e-20)
(0.540939 -0.704992 -2.17557e-20)
(0.61691 -0.763503 -6.95996e-19)
(0.69216 -0.812716 -1.01005e-20)
(0.0379742 -0.0676025 6.77581e-22)
(0.121237 -0.192177 5.55445e-20)
(0.209164 -0.310619 -7.83784e-20)
(0.299929 -0.420182 -1.66858e-20)
(0.392139 -0.52068 -7.29125e-20)
(0.484781 -0.612144 -9.32825e-21)
(0.576705 -0.694349 1.01378e-20)
(0.666946 -0.767177 -2.11357e-19)
(0.755531 -0.830307 3.83373e-19)
(0.842324 -0.882371 9.71355e-19)
(0.0503607 -0.0745997 1.51098e-20)
(0.155129 -0.209609 -1.42229e-19)
(0.263462 -0.335965 -2.13683e-19)
(0.373671 -0.452113 8.89788e-20)
(0.484105 -0.55827 -6.43113e-20)
(0.593548 -0.654625 9.85832e-20)
(0.700949 -0.74129 1.96591e-19)
(0.805415 -0.81832 -1.08958e-19)
(0.907029 -0.88514 -3.05868e-19)
(1.0057 -0.939563 7.25226e-19)
(0.0642894 -0.0803589 -2.65099e-20)
(0.193285 -0.224025 -5.78113e-19)
(0.324297 -0.356559 5.24285e-19)
(0.455684 -0.477231 3.37468e-19)
(0.58574 -0.586748 -8.59099e-20)
(0.713227 -0.685665 3.08597e-19)
(0.837134 -0.774442 -1.59944e-19)
(0.95657 -0.853471 -7.72635e-19)
(1.07174 -0.922054 -4.03653e-19)
(1.18268 -0.977305 4.53593e-19)
(0.0795446 -0.0846654 -7.98174e-20)
(0.235845 -0.234416 -5.44368e-19)
(0.392392 -0.370524 -8.31108e-21)
(0.547542 -0.492795 6.88581e-20)
(0.699595 -0.602464 3.37737e-19)
(0.847394 -0.700436 -1.85378e-19)
(0.990016 -0.787447 -1.69435e-19)
(1.12654 -0.863835 1.88958e-19)
(1.25681 -0.928662 -3.51595e-19)
(1.38008 -0.980373 -5.84517e-19)
(0.402896 -0.532197 9.82283e-19)
(0.684817 -0.618775 -2.3962e-19)
(0.913736 -0.55821 -1.41834e-19)
(1.08776 -0.431873 2.67335e-19)
(1.24047 -0.280854 -2.29769e-19)
(1.36318 -0.140275 -2.99301e-19)
(1.46202 -0.0356044 -2.66585e-19)
(1.52144 0.0187964 -3.19182e-20)
(1.54382 0.0339832 -3.18738e-20)
(1.56205 0.0256688 3.01202e-20)
(0.468831 -0.620055 9.64131e-19)
(0.741432 -0.694205 7.0856e-20)
(0.966229 -0.618274 1.09797e-20)
(1.12484 -0.481161 -2.14453e-19)
(1.26579 -0.321298 -7.10805e-19)
(1.38153 -0.173129 0)
(1.48186 -0.0608528 -2.48732e-19)
(1.55898 0.00406634 5.1956e-20)
(1.59848 0.0270872 4.56754e-21)
(1.63125 0.0215596 2.30041e-20)
(0.556171 -0.705695 -9.98199e-19)
(0.810719 -0.767168 -7.11208e-20)
(1.02545 -0.676183 1.56209e-19)
(1.16612 -0.528266 -5.40413e-20)
(1.29127 -0.360521 -3.65525e-20)
(1.39752 -0.205874 6.40804e-20)
(1.49363 -0.0880327 0)
(1.57956 -0.0158045 0)
(1.6374 0.0145164 -3.00434e-21)
(1.69224 0.0147021 0)
(0.665668 -0.787421 -2.25084e-19)
(0.895539 -0.835716 4.05162e-19)
(1.09186 -0.730873 2.68318e-20)
(1.21234 -0.572195 0)
(1.31785 -0.397622 6.0417e-19)
(1.41221 -0.237457 -1.40444e-19)
(1.50098 -0.115656 0)
(1.58874 -0.0375898 1.36974e-19)
(1.65115 -0.00454941 0)
(1.74164 0.00359824 -4.11662e-20)
(0.795723 -0.864083 -1.4882e-19)
(0.997576 -0.897865 4.55947e-19)
(1.16609 -0.781191 -1.46498e-20)
(1.26368 -0.61212 0)
(1.34627 -0.431771 1.79693e-19)
(1.4261 -0.267106 2.65146e-19)
(1.50576 -0.142537 4.71034e-20)
(1.59191 -0.0596198 6.5506e-21)
(1.64875 -0.0254422 -2.09049e-20)
(1.76904 -0.0143051 3.56909e-20)
(0.942244 -0.934929 -1.33328e-18)
(1.11644 -0.952268 -9.43808e-19)
(1.24875 -0.825873 4.75272e-21)
(1.31989 -0.647324 5.7651e-19)
(1.37689 -0.462185 -3.07004e-19)
(1.43932 -0.29424 1.45947e-19)
(1.50888 -0.167826 2.28284e-19)
(1.58935 -0.0810997 -1.87279e-19)
(1.6457 -0.0458743 -1.93962e-21)
(1.75222 -0.0343273 -5.42787e-21)
(1.10011 -0.999584 -2.61052e-19)
(1.24998 -0.998738 2.87094e-19)
(1.34009 -0.863808 3.90712e-21)
(1.38066 -0.677127 -1.76503e-20)
(1.4098 -0.48811 -5.93593e-19)
(1.45186 -0.318302 5.37793e-20)
(1.51035 -0.190952 -9.43226e-20)
(1.58224 -0.101146 -2.62017e-20)
(1.64279 -0.0646995 5.86668e-21)
(1.70493 -0.0464357 -2.36842e-20)
(1.26434 -1.05694 -1.20038e-18)
(1.39472 -1.03788 2.10286e-19)
(1.43908 -0.894405 0)
(1.44501 -0.701104 3.44936e-20)
(1.44431 -0.509053 5.22775e-19)
(1.46337 -0.338837 -1.78763e-21)
(1.509 -0.211881 -3.19888e-19)
(1.5744 -0.118304 7.31861e-20)
(1.6174 -0.0796438 -1.76356e-21)
(1.64395 -0.0523855 -5.43378e-20)
(1.43202 -1.10358 3.39091e-18)
(1.54804 -1.07061 2.45719e-19)
(1.54554 -0.918373 4.65013e-19)
(1.5132 -0.719674 -3.18e-20)
(1.48052 -0.525182 -3.44662e-20)
(1.47362 -0.355894 -4.28851e-19)
(1.50338 -0.229686 9.7231e-20)
(1.55675 -0.134834 3.0972e-21)
(1.56208 -0.0844305 -2.42861e-20)
(1.57373 -0.0546733 6.48942e-20)
(1.59926 -1.12825 -2.99801e-18)
(1.70186 -1.09579 1.27191e-18)
(1.65389 -0.938357 -2.33488e-19)
(1.58135 -0.736328 -7.89571e-19)
(1.51537 -0.540051 -6.54497e-19)
(1.47994 -0.37327 -2.51338e-19)
(1.4926 -0.247785 -7.22038e-20)
(1.50202 -0.143625 0)
(1.49679 -0.0855724 -7.4514e-20)
(1.49762 -0.0554606 1.53482e-19)
(1.88821 -1.17029 -6.71034e-18)
(1.92741 -1.10532 -1.69144e-18)
(1.80481 -0.932538 -5.80348e-20)
(1.67304 -0.728096 1.11695e-19)
(1.56186 -0.535156 1.58303e-19)
(1.48764 -0.374181 -9.95789e-20)
(1.44128 -0.247614 -4.03436e-20)
(1.41712 -0.1427 7.58195e-20)
(1.40433 -0.084224 -6.41884e-20)
(1.39519 -0.0550075 -7.02308e-20)
(2.28935 -1.13493 4.95942e-19)
(2.17884 -1.05684 -2.91964e-19)
(1.94263 -0.865544 4.89163e-19)
(1.73543 -0.665108 -8.33757e-20)
(1.56126 -0.48157 -9.48117e-21)
(1.42504 -0.334521 -7.48218e-20)
(1.33823 -0.222417 9.27053e-20)
(1.29941 -0.131239 -3.31426e-20)
(1.27989 -0.0785809 2.18211e-19)
(1.26252 -0.0520012 9.93184e-20)
(2.61059 -1.04365 2.27078e-18)
(2.35189 -0.948852 3.25717e-19)
(2.00805 -0.75961 -1.17596e-19)
(1.7321 -0.573146 1.67223e-36)
(1.50443 -0.411291 -2.56122e-20)
(1.33781 -0.287429 1.49808e-33)
(1.2314 -0.193326 -2.12134e-20)
(1.17518 -0.117306 -1.72274e-33)
(1.14863 -0.0709469 6.99578e-21)
(1.12429 -0.0472593 -1.17305e-20)
(2.787 -0.894003 3.88566e-33)
(2.36934 -0.795683 2.96659e-18)
(1.97339 -0.63058 1.81682e-18)
(1.65312 -0.469537 0)
(1.4059 -0.335243 8.29773e-19)
(1.22875 -0.234116 4.25261e-19)
(1.112 -0.15854 1.71412e-19)
(1.04461 -0.0991313 -3.04156e-33)
(1.0116 -0.0610459 -5.47796e-20)
(0.981736 -0.0410275 6.43792e-21)
(2.76361 -0.705915 3.84247e-18)
(2.24583 -0.629916 -1.46799e-19)
(1.8464 -0.491073 0)
(1.51533 -0.361765 0)
(1.27091 -0.255866 0)
(1.09664 -0.178715 0)
(0.979635 -0.122279 -1.28696e-20)
(0.907583 -0.0785712 -4.31809e-33)
(0.87003 -0.0493585 7.93626e-21)
(0.836192 -0.0336748 4.7926e-34)
(2.55115 -0.517047 3.26549e-18)
(2.02002 -0.462929 0)
(1.63849 -0.353666 0)
(1.32665 -0.25676 0)
(1.10075 -0.179772 0)
(0.941297 -0.125702 0)
(0.832769 -0.0868914 3.31139e-20)
(0.762821 -0.0572673 -9.56567e-20)
(0.723938 -0.0366391 8.83437e-21)
(0.688402 -0.025635 2.67028e-20)
(2.19011 -0.342715 0)
(1.70261 -0.303518 1.09802e-18)
(1.36124 -0.227616 1.09015e-18)
(1.09126 -0.161992 0)
(0.898291 -0.112362 6.66092e-19)
(0.76376 -0.078791 4.02744e-19)
(0.671192 -0.0550849 2.50386e-19)
(0.609329 -0.037211 8.60512e-20)
(0.572962 -0.0240724 -3.82262e-20)
(0.538745 -0.0175353 -2.22483e-21)
(1.70285 -0.191138 -6.73874e-19)
(1.30017 -0.165596 -2.74174e-19)
(1.02503 -0.12176 1.75653e-19)
(0.815053 -0.0844347 -2.1121e-34)
(0.667655 -0.0580865 -7.71225e-20)
(0.566041 -0.0410826 3.70254e-33)
(0.495367 -0.0291568 4.87494e-20)
(0.446649 -0.0202595 9.89771e-20)
(0.416665 -0.0130773 1.01535e-20)
(0.387352 -0.0101493 -1.22262e-21)
(1.10088 -0.0758222 3.40805e-18)
(0.823154 -0.0626793 -1.86589e-19)
(0.64057 -0.0442949 -5.88988e-19)
(0.506132 -0.028986 0)
(0.413803 -0.0195672 -6.40142e-19)
(0.350594 -0.0141416 -4.32306e-19)
(0.306026 -0.0103743 -2.04619e-19)
(0.274453 -0.00763313 -1.45e-19)
(0.254314 -0.0049139 1.83685e-19)
(0.233936 -0.00424191 -3.40991e-20)
(0.397351 -0.00331884 0)
(0.287865 0.00159442 0)
(0.220888 0.00409441 0)
(0.173547 0.00624833 0)
(0.142371 0.00585924 0)
(0.121177 0.00471969 0)
(0.105822 0.00370086 5.59049e-20)
(0.0945085 0.00262366 -2.17661e-34)
(0.0869697 0.00232022 1.2665e-20)
(0.0789741 0.00102853 1.12876e-20)
(3.3671 -0.0863124 5.39217e-19)
(3.32642 -0.265088 -8.41878e-20)
(3.24735 -0.430659 8.52082e-19)
(3.13238 -0.582161 -6.04755e-19)
(2.98634 -0.71813 6.66393e-19)
(2.81524 -0.836389 2.75235e-19)
(2.62661 -0.934068 -1.92747e-18)
(2.42951 -1.00786 -7.74768e-20)
(2.22468 -1.0537 0)
(1.98487 -1.06658 4.26034e-19)
(3.86191 -0.0750608 7.07366e-18)
(3.79859 -0.234216 1.95629e-18)
(3.70428 -0.387315 -4.86732e-18)
(3.58426 -0.531997 -4.49141e-19)
(3.44239 -0.665902 3.55894e-18)
(3.28186 -0.787331 1.92353e-18)
(3.10651 -0.895082 -5.1688e-18)
(2.92205 -0.987721 -1.95222e-18)
(2.7276 -1.06341 2.20319e-18)
(2.49238 -1.12055 8.52201e-19)
(3.83307 -0.0533022 -1.2626e-19)
(3.82024 -0.171569 4.40354e-18)
(3.78546 -0.299765 -1.08815e-18)
(3.72433 -0.430924 -3.44615e-18)
(3.63617 -0.558737 -6.79982e-18)
(3.52371 -0.67881 1.02786e-17)
(3.39117 -0.788803 4.18057e-18)
(3.2435 -0.887999 -3.91183e-18)
(3.08161 -0.978736 -2.90278e-18)
(2.88723 -1.06303 -3.42509e-18)
(3.62866 -0.0472871 -4.83934e-18)
(3.61961 -0.144933 -4.35338e-18)
(3.59963 -0.243743 5.47205e-18)
(3.56735 -0.343098 1.91183e-18)
(3.5224 -0.442383 -8.97107e-18)
(3.46416 -0.540815 4.92131e-19)
(3.39182 -0.637054 3.88629e-18)
(3.3051 -0.730441 -1.0539e-18)
(3.20497 -0.823077 1.27677e-18)
(3.08304 -0.914788 2.81778e-19)
(3.34405 -0.0365794 -9.15979e-19)
(3.339 -0.111657 3.00406e-18)
(3.3271 -0.188677 1.61955e-18)
(3.30744 -0.267173 -1.89422e-18)
(3.27986 -0.346072 -2.00133e-18)
(3.24465 -0.42414 -2.43393e-18)
(3.20203 -0.500339 3.7965e-19)
(3.15175 -0.5745 1.39031e-19)
(3.09547 -0.647767 -2.13963e-18)
(3.03285 -0.721315 -2.03428e-18)
(2.96257 -0.0265554 -1.82246e-18)
(2.95981 -0.0798897 -5.87279e-20)
(2.9533 -0.1346 -1.6375e-18)
(2.9424 -0.190904 3.12136e-19)
(2.92675 -0.248551 5.36775e-18)
(2.90629 -0.306931 -3.66747e-19)
(2.88091 -0.365117 4.43379e-20)
(2.85022 -0.422061 -2.60855e-18)
(2.81643 -0.476886 -3.49558e-18)
(2.78599 -0.529869 3.7285e-19)
(2.48713 -0.0175114 -2.89323e-20)
(2.48578 -0.0519353 -8.143e-19)
(2.48259 -0.0872487 -2.6148e-18)
(2.47707 -0.123772 -3.43096e-18)
(2.4688 -0.161534 2.49651e-18)
(2.45744 -0.200268 1.50223e-18)
(2.44261 -0.239354 -1.38505e-18)
(2.4237 -0.277792 1.62448e-18)
(2.40274 -0.314484 -4.29704e-19)
(2.38953 -0.349543 -9.6376e-19)
(1.91464 -0.00968878 7.72441e-19)
(1.91408 -0.0282979 -8.31779e-19)
(1.91278 -0.0474399 -3.27677e-20)
(1.91031 -0.0673593 -3.47246e-20)
(1.90624 -0.0881303 -7.27407e-20)
(1.90013 -0.109615 -2.33191e-18)
(1.89151 -0.131405 -6.78669e-19)
(1.87978 -0.152783 2.62609e-18)
(1.86664 -0.172975 -6.03506e-19)
(1.86191 -0.192208 -1.35114e-18)
(1.23989 -0.00373781 -1.64278e-18)
(1.23967 -0.0106958 -8.48892e-19)
(1.23923 -0.0179013 2.33914e-18)
(1.23823 -0.0254786 -8.89757e-19)
(1.23625 -0.0334753 -6.7411e-19)
(1.2329 -0.0418316 1.352e-18)
(1.22775 -0.05035 -1.29588e-18)
(1.22038 -0.0586655 1.28698e-18)
(1.21202 -0.0663426 -1.21032e-18)
(1.21007 -0.0735085 -4.24828e-18)
(0.454916 -0.000257994 6.63065e-19)
(0.454827 -0.000700543 7.03037e-19)
(0.454692 -0.00115912 7.48165e-19)
(0.454325 -0.00164005 1.35394e-18)
(0.453496 -0.00214017 -6.71972e-19)
(0.451984 -0.00263717 -1.2996e-18)
(0.449568 -0.00309909 6.14707e-19)
(0.445993 -0.00359291 2.48374e-20)
(0.441737 -0.00439221 -4.96534e-20)
(0.44035 -0.00504563 1.1057e-19)
(1.65357 0.997293 -2.85831e-19)
(1.51228 0.941874 1.79922e-20)
(1.3588 0.880756 -2.28758e-19)
(1.19768 0.808445 1.76304e-19)
(1.02957 0.723983 -1.91847e-19)
(0.854825 0.627079 -1.01081e-19)
(0.673759 0.516942 2.31972e-19)
(0.487035 0.392146 -3.04878e-19)
(0.29589 0.250642 3.09879e-19)
(0.101429 0.0916432 2.38694e-19)
(1.88639 0.992204 0)
(1.72968 0.934749 6.394e-19)
(1.56084 0.872775 3.32636e-19)
(1.38229 0.801857 1.62657e-19)
(1.19453 0.71988 4.31124e-19)
(0.997534 0.625899 -8.68406e-20)
(0.79136 0.518602 -7.85283e-20)
(0.576345 0.395989 8.87407e-20)
(0.353317 0.255174 -1.04514e-18)
(0.122698 0.0943546 -1.66594e-20)
(2.09104 0.959046 1.56801e-19)
(1.92524 0.905074 0)
(1.74614 0.846466 -1.00731e-19)
(1.55494 0.779552 -3.83315e-19)
(1.3517 0.702083 5.3703e-20)
(1.13609 0.61279 3.97071e-19)
(0.907783 0.510088 -6.06842e-19)
(0.666588 0.391637 -2.00884e-19)
(0.412594 0.254043 7.83576e-19)
(0.14525 0.0947346 -1.75923e-19)
(2.28485 0.898359 1.8794e-19)
(2.11045 0.850564 1.19727e-20)
(1.9213 0.797863 2.45259e-20)
(1.71811 0.737001 3.60811e-20)
(1.50058 0.665856 -2.92945e-20)
(1.26792 0.583132 2.73235e-19)
(1.01926 0.487167 -2.06869e-19)
(0.753673 0.37553 -8.55539e-19)
(0.470269 0.244677 0)
(0.167387 0.091696 0)
(2.46796 0.811821 -1.07084e-18)
(2.28436 0.770838 -6.09244e-19)
(2.08493 0.725062 -1.20686e-19)
(1.87003 0.671523 -6.65694e-20)
(1.6389 0.608295 0)
(1.39031 0.534136 2.40741e-19)
(1.12275 0.447433 2.67766e-19)
(0.834553 0.345834 2.86229e-19)
(0.523838 0.225952 -4.23726e-19)
(0.187907 0.0848977 -8.12312e-20)
(2.634 0.702094 7.66441e-19)
(2.44156 0.668064 -1.39169e-19)
(2.23244 0.629679 -2.21593e-19)
(2.00664 0.584306 0)
(1.76301 0.530278 0)
(1.49988 0.466487 0)
(1.21522 0.391463 -3.89786e-20)
(0.906683 0.303089 3.70272e-19)
(0.571497 0.198348 3.79146e-19)
(0.206082 0.074624 -3.08559e-19)
(2.7758 0.572356 -1.19358e-18)
(2.5755 0.54526 -1.4814e-18)
(2.35786 0.514529 -3.0336e-22)
(2.1226 0.477946 -1.8765e-19)
(1.86818 0.434181 -9.28777e-20)
(1.59258 0.382318 -1.7883e-19)
(1.29332 0.321124 4.59079e-19)
(0.967488 0.248836 2.14862e-19)
(0.611582 0.162966 5.40013e-19)
(0.221314 0.0613401 2.02848e-19)
(2.88707 0.425749 -1.15708e-18)
(2.68027 0.405633 8.4704e-20)
(2.45576 0.38282 1.64527e-19)
(2.21297 0.355611 1.68143e-20)
(1.95004 0.323051 -3.14394e-19)
(1.66465 0.284468 -1.74202e-19)
(1.35397 0.238937 -6.21197e-19)
(1.01463 0.18514 1.18529e-19)
(0.642603 0.121236 5.14734e-20)
(0.233065 0.0456126 -6.2692e-21)
(2.96279 0.265187 1.01366e-19)
(2.7512 0.252354 3.97e-19)
(2.52189 0.237904 -3.3029e-19)
(2.27394 0.22074 3.63006e-19)
(2.00523 0.200297 3.72542e-19)
(1.71322 0.176176 4.91888e-19)
(1.39481 0.147809 -6.3573e-19)
(1.04633 0.114389 -3.2441e-19)
(0.66341 0.0748095 -4.58505e-20)
(0.240916 0.0280951 -3.26989e-19)
(3.00052 0.0935771 5.8181e-19)
(2.78612 0.0887855 -1.8616e-19)
(2.55425 0.0834438 4.79557e-19)
(2.30366 0.07715 -3.10659e-19)
(2.03208 0.0697277 2.66476e-19)
(1.73679 0.0610617 6.054e-19)
(1.41457 0.0509783 3.78879e-19)
(1.06161 0.0392345 3.09337e-19)
(0.673395 0.0255065 2.65857e-19)
(0.244653 0.00950721 5.43606e-19)
(0.23965 0.452272 -4.69293e-19)
(0.204041 0.418544 -1.87886e-19)
(0.168464 0.381448 1.39232e-19)
(0.134923 0.343768 -4.19142e-19)
(0.105182 0.307631 -1.19366e-19)
(0.0782841 0.270377 6.92881e-19)
(0.0519097 0.223973 3.35783e-19)
(0.0259863 0.159101 -1.55137e-19)
(0.00706574 0.0797488 1.14901e-19)
(-0.00112163 0.0224613 -6.07697e-20)
(0.288668 0.544569 4.11509e-19)
(0.248763 0.507768 4.58537e-19)
(0.208214 0.46571 -1.15674e-20)
(0.16788 0.418666 -1.32857e-19)
(0.13115 0.370522 -3.1374e-19)
(0.100615 0.322906 8.2852e-20)
(0.0734894 0.269571 2.25371e-19)
(0.045911 0.197096 1.65612e-19)
(0.0183554 0.10198 -5.91382e-19)
(0.0027957 0.0289013 -1.23676e-19)
(0.35965 0.63338 -6.01003e-19)
(0.313788 0.593223 -4.81554e-19)
(0.267995 0.547376 2.57826e-19)
(0.221356 0.494054 1.38419e-19)
(0.17581 0.434272 -6.19899e-21)
(0.136271 0.372037 -1.40237e-19)
(0.10212 0.305744 -2.9643e-20)
(0.0684421 0.224999 -5.54945e-19)
(0.0336822 0.126096 -2.69347e-19)
(0.00764501 0.0378251 -3.90549e-20)
(0.454195 0.718107 5.03404e-19)
(0.400041 0.6739 1.64742e-19)
(0.346352 0.622875 -1.49474e-19)
(0.29222 0.563816 6.3211e-20)
(0.237743 0.495699 -6.03289e-22)
(0.186583 0.420998 1.28095e-21)
(0.140103 0.340754 -1.32502e-19)
(0.0954618 0.250321 3.78153e-19)
(0.051442 0.147783 -4.19165e-19)
(0.0135866 0.0477296 -6.50345e-20)
(0.571987 0.798052 -2.82175e-19)
(0.507843 0.749944 -8.88796e-20)
(0.443565 0.693082 -1.43627e-20)
(0.378959 0.627345 -7.04835e-20)
(0.313714 0.552068 5.86547e-20)
(0.24966 0.468148 5.29206e-20)
(0.188379 0.376776 -2.8002e-20)
(0.129326 0.276694 -2.82003e-19)
(0.0725312 0.167667 2.18287e-19)
(0.0209227 0.0568508 8.72447e-20)
(0.709407 0.871104 6.43235e-19)
(0.63436 0.819707 3.20636e-19)
(0.558125 0.757526 2.02774e-19)
(0.480852 0.685445 4.8226e-20)
(0.402411 0.603593 1.55291e-19)
(0.323871 0.512411 7.86755e-20)
(0.246468 0.412552 1.43558e-19)
(0.170867 0.303933 5.79483e-20)
(0.0980561 0.186813 -1.58572e-20)
(0.0299998 0.0650356 -1.32799e-20)
(0.862021 0.93499 -1.19782e-19)
(0.775543 0.880779 -8.24405e-19)
(0.686704 0.814138 -7.56834e-20)
(0.595726 0.73688 -5.278e-20)
(0.502564 0.649665 -1.98798e-20)
(0.408127 0.552738 1.51649e-19)
(0.31348 0.446328 -4.38064e-20)
(0.219711 0.330423 6.49492e-20)
(0.128295 0.205085 -1.44616e-19)
(0.0409054 0.0724958 -1.27151e-21)
(1.02673 0.986125 -8.84554e-19)
(0.928475 0.929714 5.94315e-20)
(0.826662 0.859765 -2.34153e-19)
(0.721468 0.778928 -7.23254e-20)
(0.612772 0.688035 -2.38155e-20)
(0.50146 0.587085 -7.51961e-20)
(0.388528 0.475903 5.62523e-20)
(0.275164 0.3542 6.02941e-20)
(0.162983 0.22156 -9.82091e-21)
(0.0535445 0.0791212 -1.03765e-19)
(1.20391 1.018 1.23817e-19)
(1.09351 0.960997 5.22953e-19)
(0.978261 0.889761 1.55086e-21)
(0.858229 0.807583 -2.94757e-20)
(0.733149 0.715319 1.50772e-19)
(0.603894 0.612561 -3.47176e-19)
(0.471405 0.498757 -2.44336e-19)
(0.336831 0.373211 3.5609e-19)
(0.201772 0.235008 1.44169e-19)
(0.0677021 0.0845325 -3.62026e-20)
(1.4006 1.01552 7.39596e-19)
(1.27807 0.962384 3.23639e-19)
(1.14784 0.895394 5.59466e-20)
(1.01088 0.816424 -1.94812e-19)
(0.867275 0.726536 -1.64239e-20)
(0.717903 0.625345 4.65512e-19)
(0.563585 0.512008 -2.68184e-19)
(0.405341 0.385477 -1.84468e-19)
(0.244705 0.24432 3.35779e-19)
(0.0831136 0.0884405 -6.03417e-21)
(0.977494 0.0989513 8.58637e-21)
(1.14109 0.142568 -2.06128e-21)
(1.21366 0.19077 -2.41625e-20)
(1.32659 0.170034 0)
(1.37962 0.155192 -4.791e-22)
(1.28029 0.233897 -5.82327e-20)
(1.13033 0.385518 -5.43899e-20)
(0.949906 0.543633 -9.88969e-21)
(0.711952 0.648607 -3.07863e-19)
(0.416682 0.595805 4.21026e-19)
(0.983171 0.0802406 1.99538e-19)
(1.13271 0.114875 -3.21149e-20)
(1.21053 0.160299 1.88553e-21)
(1.31731 0.150543 1.08039e-20)
(1.38379 0.157424 3.24795e-21)
(1.30017 0.268673 -1.44383e-21)
(1.16022 0.435831 8.83688e-21)
(0.994395 0.606813 0)
(0.761735 0.727724 8.0595e-19)
(0.479466 0.687035 -5.70282e-19)
(0.988613 0.0618185 -1.14444e-19)
(1.12909 0.088191 6.44833e-21)
(1.21048 0.130677 7.83855e-20)
(1.31413 0.129705 1.92336e-20)
(1.38735 0.158697 -2.33155e-20)
(1.32002 0.30148 -3.47563e-20)
(1.19315 0.484678 -1.51635e-20)
(1.04435 0.668417 4.48179e-20)
(0.823208 0.804254 -1.28121e-21)
(0.564478 0.774835 -3.62119e-19)
(0.993548 0.0430715 -8.10312e-20)
(1.12988 0.062117 1.53473e-20)
(1.21388 0.101717 7.55635e-20)
(1.31737 0.108756 3.15897e-20)
(1.39316 0.15959 -2.39875e-20)
(1.34003 0.332242 -2.81301e-20)
(1.22954 0.531325 8.15541e-20)
(1.10033 0.727295 2.69806e-20)
(0.899903 0.875929 -5.50294e-19)
(0.673672 0.85724 -1.7756e-19)
(0.997571 0.0235521 3.6177e-20)
(1.13423 0.0362051 -4.5407e-20)
(1.22023 0.0732959 -6.7599e-20)
(1.32564 0.0884556 2.30721e-20)
(1.40032 0.161044 0)
(1.35993 0.36132 0)
(1.26948 0.575091 8.14136e-20)
(1.16351 0.782047 -2.83123e-20)
(0.994613 0.940256 -1.18426e-19)
(0.80508 0.932606 -5.73863e-20)
(1.00015 0.00308311 3.25898e-21)
(1.1411 0.010033 5.81306e-20)
(1.22858 0.0453153 -2.07428e-19)
(1.33699 0.0693387 -7.76328e-20)
(1.40765 0.163893 -4.74886e-21)
(1.37965 0.388838 1.30744e-19)
(1.31322 0.615098 1.56725e-19)
(1.23545 0.830948 -1.80594e-20)
(1.10774 0.995437 -4.44861e-20)
(0.953744 1.00029 3.20314e-21)
(1.00045 -0.0183967 2.52916e-21)
(1.14955 -0.0167717 3.05637e-20)
(1.23797 0.0177939 -6.56025e-20)
(1.34987 0.0518853 -1.57584e-19)
(1.41427 0.16839 1.16667e-20)
(1.39949 0.414446 7.29904e-21)
(1.36138 0.650216 -5.99279e-20)
(1.31726 0.872346 -1.06295e-19)
(1.23724 1.04119 -3.11486e-20)
(1.11387 1.06046 -9.79475e-19)
(0.997748 -0.0405574 1.50681e-20)
(1.15903 -0.0445086 -1.46636e-19)
(1.24776 -0.00908736 1.33027e-19)
(1.36302 0.0368194 1.03658e-19)
(1.41909 0.17499 4.98976e-21)
(1.41945 0.43766 -1.36964e-19)
(1.41383 0.679408 1.21522e-21)
(1.40826 0.905313 -1.36128e-19)
(1.37929 1.07841 1.10988e-20)
(1.27988 1.11253 2.88307e-18)
(0.992179 -0.0628161 -8.90604e-20)
(1.16952 -0.0733023 8.18005e-20)
(1.25768 -0.0351387 1.91777e-19)
(1.37578 0.0242516 -1.1594e-19)
(1.42267 0.183454 -2.31764e-19)
(1.44111 0.458167 9.26031e-21)
(1.47186 0.702541 1.71203e-19)
(1.50841 0.930564 -5.79295e-19)
(1.53083 1.10836 -2.68536e-20)
(1.44837 1.15349 -6.47514e-18)
(0.984719 -0.0856932 4.09245e-21)
(1.18133 -0.103143 1.43827e-19)
(1.26766 -0.0601622 6.20229e-20)
(1.38705 0.0166712 -2.8031e-19)
(1.42288 0.197845 -2.49275e-19)
(1.46205 0.479536 -7.48819e-20)
(1.53109 0.723411 8.43022e-20)
(1.61153 0.951449 -2.01688e-19)
(1.68374 1.13069 -1.08578e-18)
(1.61566 1.17244 -7.95114e-18)
(0.97455 -0.11679 -1.44944e-20)
(1.19584 -0.142759 -3.33598e-20)
(1.27698 -0.0938722 -7.79324e-20)
(1.39759 0.00257833 1.46654e-19)
(1.42376 0.197139 2.05387e-19)
(1.49163 0.474949 -6.24774e-20)
(1.61185 0.712751 -1.42032e-19)
(1.75374 0.940567 -1.1989e-18)
(1.9028 1.13267 -1.59873e-18)
(1.89938 1.20877 3.28574e-18)
(0.96211 -0.155522 -4.04061e-19)
(1.21464 -0.192224 1.92726e-20)
(1.28111 -0.139826 -5.90281e-20)
(1.39776 -0.018796 3.44003e-19)
(1.40084 0.175078 3.47196e-19)
(1.49281 0.429726 9.20846e-21)
(1.66789 0.648291 -6.43724e-20)
(1.88059 0.866109 -2.79857e-19)
(2.13955 1.0715 2.80968e-19)
(2.28455 1.1609 -3.23551e-19)
(0.949413 -0.196093 -2.79103e-20)
(1.24004 -0.24211 -5.50395e-20)
(1.28044 -0.184479 3.09426e-20)
(1.39282 -0.0367864 2.69763e-20)
(1.3734 0.164173 1.7156e-33)
(1.46886 0.372133 2.56148e-21)
(1.67996 0.561629 -2.02983e-33)
(1.94881 0.75975 1.85064e-19)
(2.30183 0.956485 -9.30825e-19)
(2.58734 1.05851 -6.2925e-19)
(0.937006 -0.242909 1.41033e-18)
(1.27158 -0.282174 -7.76168e-34)
(1.2495 -0.229479 -4.06547e-20)
(1.26913 -0.0374637 -2.28613e-19)
(1.26069 0.14522 -4.44753e-19)
(1.38858 0.30303 -8.80181e-19)
(1.61863 0.460269 -5.05646e-33)
(1.92895 0.631214 -1.73735e-18)
(2.32564 0.802158 -3.17769e-18)
(2.75369 0.902626 1.67507e-18)
(0.927297 -0.300535 0)
(1.31682 -0.327154 -1.6195e-33)
(1.11267 -0.207267 0)
(1.10636 -0.0300775 0)
(1.11814 0.115228 0)
(1.25815 0.23317 0)
(1.48928 0.355564 -8.05048e-33)
(1.81482 0.491643 0)
(2.21335 0.634324 -3.39691e-19)
(2.73494 0.71204 1.25742e-18)
(0.916499 -0.360822 1.16138e-19)
(1.25153 -0.326158 -4.6823e-19)
(0.960093 -0.174295 -5.51365e-20)
(0.93331 -0.0260851 0)
(0.95556 0.0827672 0)
(1.08982 0.165653 6.03228e-20)
(1.30613 0.253983 1.17555e-18)
(1.61585 0.35473 -1.95055e-19)
(1.99665 0.466221 -4.95302e-19)
(2.53243 0.520491 4.67315e-18)
(0.883474 -0.405314 -1.52014e-17)
(1.09207 -0.27996 1.0868e-18)
(0.792701 -0.130611 -7.27741e-20)
(0.746592 -0.0211655 -7.32823e-20)
(0.772451 0.0525621 -5.13167e-19)
(0.889362 0.104625 -7.73019e-19)
(1.07618 0.161324 -1.04772e-18)
(1.34598 0.229039 -1.3819e-18)
(1.68759 0.306125 -1.60499e-18)
(2.17992 0.344449 3.61227e-18)
(0.809008 -0.394516 -4.13695e-19)
(0.886454 -0.207587 -1.21652e-18)
(0.605583 -0.0829049 -1.25614e-19)
(0.549417 -0.0153286 -8.4254e-20)
(0.571577 0.0276145 -9.9123e-34)
(0.661465 0.0545889 9.36208e-20)
(0.805362 0.0846106 -1.48478e-32)
(1.01618 0.12295 -1.93435e-19)
(1.29246 0.167311 2.98964e-19)
(1.69929 0.192072 7.05782e-19)
(0.664256 -0.288842 3.42549e-17)
(0.618254 -0.108101 -3.14e-18)
(0.393395 -0.0351311 -2.40633e-19)
(0.339242 -0.00736819 -1.58998e-19)
(0.353589 0.00924761 3.94284e-19)
(0.410382 0.0183703 7.84441e-19)
(0.501145 0.0292002 7.95428e-19)
(0.636714 0.0448881 4.59882e-19)
(0.82075 0.0634572 -1.90458e-19)
(1.10156 0.0762256 3.56947e-18)
(0.336838 -0.0768231 5.58833e-19)
(0.26185 -0.00230482 -6.76607e-33)
(0.144386 0.0190784 -3.04849e-19)
(0.120364 0.00337679 0)
(0.123567 -0.00235434 0)
(0.14182 -0.00541892 9.63281e-20)
(0.172354 -0.00624816 9.36286e-35)
(0.220291 -0.00417755 -1.2357e-19)
(0.288129 -0.00161945 -2.82629e-19)
(0.399011 0.00331822 1.00161e-18)
(2.00206 1.09645 -1.78989e-18)
(2.23907 1.07848 -2.30494e-18)
(2.44208 1.02912 0)
(2.63708 0.952516 -7.58003e-19)
(2.82359 0.852518 -1.78262e-18)
(2.99276 0.732397 -2.24949e-18)
(3.13709 0.595046 -4.75838e-19)
(3.25054 0.442701 1.26927e-18)
(3.32824 0.276966 -3.54789e-18)
(3.36764 0.0986983 1.35668e-18)
(2.49868 1.14202 2.67751e-19)
(2.73057 1.08195 1.3974e-18)
(2.92388 1.00422 1.43924e-19)
(3.10674 0.90982 6.75726e-19)
(3.2806 0.800674 -1.10399e-18)
(3.43997 0.678335 -5.00052e-18)
(3.58096 0.54402 2.46808e-18)
(3.70048 0.399326 1.27035e-17)
(3.79428 0.246327 1.04071e-19)