/*--------------------------------*- C++ -*----------------------------------*\
  =========                 |
  \\      /  F ield         | OpenFOAM: The Open Source CFD Toolbox
   \\    /   O peration     | Website:  https://openfoam.org
    \\  /    A nd           | Version:  13
     \\/     M anipulation  |
\*---------------------------------------------------------------------------*/
FoamFile
{
    format      ascii;
    class       surfaceScalarField;
    location    "0.49";
    object      phi;
}
// * * * * * * * * * * * * * * * * * * * * * * * * * * * * * * * * * * * * * //

dimensions      [0 3 -1 0 0 0 0];

internalField   nonuniform List<scalar> 
823
(
0.0113774
-0.0505552
0.0391778
0.0387582
-0.133437
0.106056
0.0788329
-0.205878
0.165803
0.130176
-0.268867
0.217524
-0.323253
0.259403
0.194026
0.0107028
-0.061258
0.0361427
-0.158877
0.0726483
-0.242383
0.117975
-0.314193
-0.375598
0.17032
0.00837698
-0.069635
0.0282852
-0.178785
0.0567264
-0.270824
0.0918126
-0.34928
-0.416051
0.132265
0.00529935
-0.0749343
0.017996
-0.191481
0.0362305
-0.289059
0.0588858
-0.371935
-0.442417
0.0852516
0.00196203
-0.0768963
0.00663024
-0.19615
0.0132901
-0.295719
0.0215227
-0.380168
0.0310633
-0.451957
0.00668444
-0.0107249
0.00404038
0.0222432
-0.0308535
0.0152948
0.0454595
-0.0484224
0.025206
0.0746147
-0.0638481
0.034693
-0.0769263
0.108272
0.043269
0.00577111
-0.016496
0.0215234
-0.0466058
0.0467649
-0.0736638
0.0798363
-0.0969195
-0.116024
0.118934
0.00639897
-0.022895
0.0236754
-0.0638823
0.0512726
-0.101261
0.0879752
-0.133622
-0.160079
0.13203
0.00753737
-0.0304324
0.0270929
-0.0834378
0.0573314
-0.1315
0.0970513
-0.173342
-0.207877
0.14485
0.00874545
0.0313636
0.0656669
0.109849
0.161375
0.322429
-0.956056
0.7419
0.473385
-0.81936
0.668404
0.569442
-0.350062
0.254005
0.608124
-0.0742783
0.035596
-0.00456559
-0.000450332
0.330722
-1.16784
0.470963
-0.959601
0.570869
-0.449968
0.617207
-0.120617
-0.0150549
0.337019
-1.37283
0.462049
-1.08463
0.559794
-0.547712
0.611081
-0.171904
-0.0318818
0.33778
-1.56576
0.449581
-1.19643
0.539706
-0.637838
0.599314
-0.231513
-0.0594122
0.327879
-1.73227
0.429224
-1.29778
0.509602
-0.718216
0.577349
-0.29926
-0.0959475
1.19758
-1.5896
-1.34025
1.00804
-1.10824
0.898611
-0.608784
0.859343
-0.259991
-0.0775853
1.33024
-1.13269
-1.78714
0.983247
-0.761249
0.779064
-0.4046
0.698941
-0.179868
-0.055489
1.18972
-0.607542
-1.71487
0.816652
-0.388182
0.613153
-0.201102
0.526575
-0.0932903
-0.0302154
0.822457
-0.185265
-1.24473
0.545353
-0.111078
0.397381
-0.0531294
0.329921
-0.0258304
-0.0091523
0.306736
-0.492001
0.195658
0.142528
0.116698
1.5626
0.0462519
-1.57779
1.52169
0.126163
1.46265
0.1913
1.39631
0.236662
0.250085
1.67588
0.0356528
-1.66528
1.69934
0.102697
1.73084
0.159802
1.76532
0.202185
0.228262
1.38797
0.0184777
-1.3708
1.43706
0.0536062
1.51389
0.082975
1.61018
0.105892
0.123575
0.9777
0.00531456
-0.964537
1.01588
0.0154224
1.07582
0.0230433
1.15388
0.0278264
0.032722
0.392987
-0.387672
0.408409
0.431452
0.459279
0.128781
0.327615
-0.264646
-0.191749
0.0781611
0.27321
-0.22259
0.0385242
0.209794
-0.170157
0.0113396
0.136447
-0.109262
0.0519556
-0.0406159
0.115953
0.378902
-0.16724
0.0714953
0.317667
0.0356161
0.245673
0.01056
0.161503
0.0625156
0.0888503
0.418274
-0.128223
0.0548101
0.351707
0.0272867
0.273196
0.00806445
0.180725
0.0705801
0.0552424
0.443535
-0.0805034
0.0337635
0.373186
0.016655
0.290305
0.00486419
0.192516
0.0754443
0.0174813
-0.0259037
0.0105001
0.00508602
0.00145207
0.0724641
0.0871964
-0.107025
-0.0526353
0.0427773
0.073591
-0.0439041
0.0196783
0.0568393
-0.0337403
0.00512097
0.0367356
-0.0221783
0.0132613
-0.00814034
0.07606
0.125776
-0.11464
0.0437531
0.105898
0.0196641
0.0809282
0.00509777
0.0513019
0.0183591
0.0845273
0.168474
-0.127226
0.0491741
0.141251
0.0227783
0.107324
0.00618767
0.0678926
0.0245469
0.0941641
0.214637
-0.140327
0.0558366
0.179578
0.0265593
0.136601
0.00743869
0.0870132
0.0319856
0.107447
-0.157456
0.0644345
0.0308792
0.00863037
0.511338
0.171088
-0.286447
0.556579
0.16794
-0.213181
0.493636
0.312404
-0.249462
0.333681
0.804074
-0.644118
1.03981
-0.813157
0.509898
0.0571696
0.552635
0.125204
0.484189
0.38085
0.330784
0.957479
1.25596
0.508755
-0.0556055
0.539825
0.0941336
0.464658
0.456016
0.328391
1.09375
1.45712
0.505117
-0.164743
0.521318
0.0779334
0.441595
0.535739
0.324539
1.2108
1.64134
0.496541
-0.265305
0.494539
0.0799358
0.41374
0.616538
0.312667
1.31187
1.79655
0.768463
-0.429747
0.851632
-0.00323422
0.957368
0.510802
1.16946
1.09978
1.61853
1.34748
0.71352
-0.539247
0.791883
-0.0815973
0.957855
0.344831
1.29849
0.759144
1.14316
1.77385
0.603451
-0.538677
0.636094
-0.11424
0.804655
0.176269
1.17283
0.390973
0.611978
1.70401
0.448663
-0.38332
0.407001
-0.0725777
0.536753
0.0465164
0.816053
0.111673
0.186911
1.24112
0.2207
0.148122
0.194639
0.306312
0.493223
1.40255
-0.246811
1.46572
-0.230417
1.52299
-0.18549
1.56316
-0.120672
-0.0405314
1.75273
-0.225688
1.71979
-0.197478
1.69065
-0.156352
1.67086
-0.100878
-0.0349509
1.60151
-0.123189
1.50878
-0.104746
1.43457
-0.0821405
1.38706
-0.0533665
-0.0186922
1.15106
-0.0331272
1.0743
-0.0279828
1.01529
-0.0231395
0.97757
-0.0156425
-0.00565898
0.460096
0.432113
0.408974
0.393331
0.00250138
0.0430057
-0.045507
0.00732789
0.10105
-0.105877
0.0160951
0.148394
-0.157162
0.0165784
0.151909
-0.152392
0.114027
0.014814
-0.112263
0.00682834
0.0361773
0.0201777
0.0877006
0.0409578
0.127614
0.048255
0.144612
0.116381
0.0459013
0.00880918
0.0273681
0.0270764
0.0694333
0.0521505
0.10254
0.0730917
0.123671
0.114035
0.0754376
0.00780118
0.019567
0.0255133
0.0517212
0.0497481
0.0783055
0.0774299
0.0959888
0.0992434
0.0922211
0.00509898
0.014468
0.0179734
0.0388468
0.0367664
0.0595125
0.060007
0.0727482
0.0767465
0.0825039
0.0034246
0.0110434
0.0125824
0.029689
0.0274431
0.0446518
0.0470518
0.0531395
0.0561601
0.0676382
0.00222676
0.00881663
0.00893396
0.0229818
0.022261
0.0313247
0.0410004
0.0344001
0.0347858
0.0623747
0.00166569
0.00715095
0.0100881
0.0145593
0.0261123
0.0153004
0.046637
0.0138753
0.0115674
0.0698553
0.00369027
0.00346068
0.0174473
0.000802294
0.0367486
-0.00400089
0.059733
-0.00910917
-0.0143023
0.0856027
0.007501
0.023598
0.0448031
0.0703869
0.0993535
0.153707
0.0199641
-0.106033
0.2431
-0.129919
0.0405251
0.264545
-0.038099
0.0166542
0.271118
0.00016504
-0.00673803
-0.00410062
-0.00327461
0.214555
-0.132216
0.324848
-0.240211
0.35113
-0.0643813
0.355504
-0.00420936
-0.0079781
0.259691
-0.322052
0.390707
-0.371228
0.433025
-0.106699
0.436151
-0.00733461
-0.00717248
0.292805
-0.529255
0.43769
-0.516113
0.501359
-0.170368
0.508951
-0.0149264
-0.00292217
0.311999
0.46429
0.547926
0.568596
0.0706473
0.0386929
-0.10934
0.0785831
-0.0079358
0.0828796
-0.0042965
0.0808361
0.0020435
0.000829918
0.194037
-0.261378
0.226626
0.238984
0.234289
0.0207315
-0.0043314
-0.0164001
0.0342815
-0.01355
0.0567597
-0.0224782
0.0856185
-0.0288588
-0.0237216
0.0539225
-0.0434399
0.0862738
0.139233
0.202596
0.0478553
-0.055118
0.0763343
-0.0690717
0.0275701
-0.0521375
0.0724226
0.0123391
-0.0443585
0.0595896
0.00331747
-0.0300368
0.0390585
-0.0112611
0.0145785
0.0454838
-0.0322103
-0.0683916
0.0250304
-0.031684
0.00985962
-0.0291878
0.00219822
-0.0223754
-0.00906282
0.0561242
-0.00662163
-0.081713
0.0331845
-0.00874416
0.0143278
-0.010331
0.00260884
-0.0106565
-0.00645396
0.0699914
0.0215808
-0.0981938
0.0447595
0.0164878
0.0233321
0.0110964
0.00691758
0.00575807
0.000463603
0.0741571
-0.105211
0.0467409
0.024097
0.00767678
0.0165852
-0.114025
-0.0148224
0.0160946
-0.151902
0.00730669
-0.148374
0.00248915
-0.101059
-0.0430179
0.0482716
-0.116371
-0.0459263
0.0409322
-0.144562
0.0201639
-0.127606
0.00682122
-0.0877163
-0.0361967
0.0731268
-0.113965
-0.0755324
0.0521237
-0.123559
0.027065
-0.102547
0.00880619
-0.0694574
-0.0273905
0.0773426
-0.0989606
-0.092347
0.049621
-0.0958375
0.0254325
-0.0783584
0.00777522
-0.0518001
-0.0196153
0.059962
-0.0825883
0.0365471
0.0177783
0.0050367
0.3421
0.583117
-0.529237
0.281106
0.224223
-0.163229
0.248395
0.0533958
-0.0206843
0.165576
0.115672
-0.0328528
-0.000452557
0.0969566
0.40837
0.570727
0.372379
0.260214
0.336587
0.0891874
0.2338
0.218459
0.164956
0.460914
0.505792
0.452555
0.268573
0.409863
0.13188
0.283774
0.344548
0.367017
0.498384
0.403388
0.516586
0.25037
0.46118
0.187286
0.317336
0.488393
0.58616
0.512921
0.55011
0.487934
0.332208
0.158669
0.351382
0.0848503
0.0738185
0.0805034
0.00434692
0.0724963
0.00800704
-0.0369054
0.109402
0.332197
0.242786
0.226449
0.201603
0.261655
0.0856704
0.0237313
0.0567913
0.028879
0.0342924
0.0224989
0.020735
0.0135574
0.00433488
0.202798
0.13933
0.0862964
0.0539274
)
;

boundaryField
{
    left
    {
        type            calculated;
        value           nonuniform List<scalar> 
17
(
-0.60402
-0.60402
-0.60402
-0.60402
-0.60402
-0.39598
-0.39598
-0.39598
-0.39598
-0.39598
-0.39598
-0.39598
-0.39598
-0.39598
-0.39598
-0.510051
-0.510051
)
;
    }
    right
    {
        type            calculated;
        value           nonuniform List<scalar> 
17
(
0.0800062
0.231844
0.278493
0.359382
0.435345
0.504701
0.565224
0.61314
0.627696
0.627908
0.626845
0.613885
0.840981
0.676844
0.501302
0.308858
0.107545
)
;
    }
    down
    {
        type            calculated;
        value           uniform 0;
    }
    up
    {
        type            calculated;
        value           uniform 0;
    }
    cylinder
    {
        type            calculated;
        value           uniform 0;
    }
    defaultFaces
    {
        type            empty;
    }
}


// ************************************************************************* //
