/*--------------------------------*- C++ -*----------------------------------*\
  =========                 |
  \\      /  F ield         | OpenFOAM: The Open Source CFD Toolbox
   \\    /   O peration     | Website:  https://openfoam.org
    \\  /    A nd           | Version:  13
     \\/     M anipulation  |
\*---------------------------------------------------------------------------*/
FoamFile
{
    format      ascii;
    class       volVectorField;
    location    "0.49";
    object      U;
}
// * * * * * * * * * * * * * * * * * * * * * * * * * * * * * * * * * * * * * //

dimensions      [0 1 -1 0 0 0 0];

internalField   nonuniform List<vector> 
440
(
(0.218264 -0.176698 -1.81094e-19)
(0.613082 -0.436664 1.0789e-18)
(0.98429 -0.640907 4.23428e-19)
(1.32753 -0.795379 1.24227e-18)
(1.63255 -0.916723 -2.60007e-19)
(0.304895 -0.177685 -5.44518e-19)
(0.819136 -0.428703 -1.01959e-18)
(1.27997 -0.618903 1.14506e-19)
(1.6919 -0.761636 -1.21519e-18)
(2.05373 -0.875101 -1.02099e-18)
(0.384881 -0.152407 -6.98083e-19)
(1.00468 -0.363016 1.58979e-18)
(1.53976 -0.518387 -1.93469e-18)
(2.00471 -0.632633 1.37921e-18)
(2.40594 -0.721472 1.43e-18)
(0.445869 -0.102746 5.62397e-19)
(1.1461 -0.243084 -1.29952e-18)
(1.73744 -0.344812 -7.50805e-19)
(2.24294 -0.418221 1.96661e-18)
(2.67446 -0.474462 2.50016e-18)
(0.479258 -0.0361584 6.86913e-19)
(1.22364 -0.0847546 1.6914e-19)
(1.8459 -0.119363 2.53134e-18)
(2.37403 -0.143864 -1.06202e-18)
(2.82296 -0.162494 -4.83735e-19)
(-0.00086604 -0.0516124 2.78267e-19)
(0.0502115 -0.144206 -3.85511e-19)
(0.10614 -0.222223 1.10711e-18)
(0.17168 -0.292069 -1.762e-19)
(0.239846 -0.353663 -1.59539e-18)
(0.0137099 -0.0842925 -2.61836e-19)
(0.0893551 -0.227761 -4.21273e-19)
(0.174195 -0.350042 1.11215e-19)
(0.268509 -0.449911 5.99564e-20)
(0.364804 -0.529976 -3.65144e-20)
(0.0433332 -0.114261 7.0389e-20)
(0.165468 -0.303141 5.23334e-19)
(0.296181 -0.467309 9.47569e-20)
(0.432891 -0.598709 1.46244e-18)
(0.567958 -0.697216 -2.5006e-20)
(0.0866185 -0.141001 6.68929e-20)
(0.276372 -0.367819 -3.44338e-20)
(0.469493 -0.562977 2.17487e-19)
(0.661406 -0.718444 -2.03896e-18)
(0.844114 -0.830334 9.57895e-19)
(0.142127 -0.161727 -2.35968e-19)
(0.420084 -0.412854 -4.42841e-19)
(0.691399 -0.621465 -7.71008e-19)
(0.950138 -0.782378 9.54164e-19)
(1.18519 -0.892778 3.45667e-18)
(0.592904 -0.59134 -4.08145e-18)
(0.961964 -0.515951 1.05476e-18)
(1.29129 -0.211036 3.70596e-19)
(1.47733 -0.0413077 -6.13865e-19)
(1.5484 -0.004547 -8.94229e-20)
(0.785752 -0.742783 4.84473e-18)
(1.04414 -0.622098 -3.17571e-19)
(1.31849 -0.281848 -1.4084e-19)
(1.51226 -0.0791206 3.97251e-19)
(1.58512 -0.0199079 1.58389e-19)
(1.03663 -0.877514 1.53696e-18)
(1.17895 -0.708048 4.05794e-18)
(1.34477 -0.349875 6.68659e-20)
(1.52069 -0.114658 4.32758e-19)
(1.58562 -0.032907 -5.0283e-20)
(1.33058 -0.98832 1.22489e-18)
(1.35938 -0.769972 -4.18852e-19)
(1.39052 -0.408028 -7.77827e-19)
(1.50951 -0.144222 -2.98318e-19)
(1.58287 -0.0444115 1.8643e-20)
(1.62984 -1.04724 2.19662e-21)
(1.55514 -0.810475 -1.69494e-18)
(1.44981 -0.456451 0)
(1.48322 -0.186862 2.63494e-19)
(1.55006 -0.0577761 3.70147e-20)
(2.15622 -1.11508 -1.57834e-18)
(1.83372 -0.800754 -4.95231e-19)
(1.56006 -0.451513 -1.04092e-20)
(1.42965 -0.190243 5.24028e-20)
(1.39205 -0.057877 -1.86782e-19)
(2.63277 -0.889641 -1.61238e-18)
(1.9006 -0.591017 2.97354e-18)
(1.43495 -0.316309 5.80218e-21)
(1.17348 -0.141341 2.03489e-19)
(1.12064 -0.0436916 0)
(2.47871 -0.522739 -6.92792e-18)
(1.60589 -0.338841 -1.49362e-19)
(1.14933 -0.177222 1.99937e-18)
(0.901022 -0.0850921 -3.12773e-19)
(0.830481 -0.0277253 -5.17592e-20)
(1.76239 -0.219971 6.83608e-18)
(1.08891 -0.135736 1.25108e-18)
(0.751693 -0.0673747 2.24254e-19)
(0.575302 -0.034341 2.87104e-33)
(0.512383 -0.0125392 -8.20077e-20)
(0.683157 0.000158249 1.55257e-18)
(0.395317 0.0235291 7.13493e-19)
(0.267555 0.0240215 -5.17918e-19)
(0.206656 0.0140775 2.16753e-19)
(0.1794 0.0048076 -6.51055e-20)
(3.58189 -0.168157 1.25615e-17)
(3.41718 -0.50293 -1.04434e-17)
(3.13668 -0.786981 7.10863e-18)
(2.7806 -0.996066 2.3206e-18)
(2.33311 -1.10175 -4.14405e-19)
(3.78455 -0.103585 1.03948e-17)
(3.7175 -0.324457 -6.63912e-19)
(3.57777 -0.551817 -4.27004e-18)
(3.37833 -0.785748 2.69009e-18)
(3.10036 -1.01975 -6.62792e-19)
(3.11484 -0.0605664 3.65444e-18)
(3.09867 -0.181684 -2.51876e-18)
(3.05963 -0.309665 5.01272e-18)
(2.99894 -0.44485 -1.52906e-19)
(2.92439 -0.593602 -4.79055e-18)
(2.19087 -0.0276238 2.78876e-18)
(2.18384 -0.0833722 8.4303e-18)
(2.16463 -0.14401 -6.53259e-19)
(2.13408 -0.207285 -6.60842e-18)
(2.11307 -0.269439 1.94593e-18)
(0.879439 -0.00184247 5.21223e-18)
(0.876489 -0.00523934 -1.16438e-19)
(0.867369 -0.00956865 -4.25806e-20)
(0.850506 -0.0162554 -2.00935e-18)
(0.841154 -0.022908 -3.60532e-18)
(1.65311 0.940037 2.27449e-18)
(1.34829 0.816692 -7.83642e-20)
(1.00338 0.658651 -3.49263e-20)
(0.627875 0.449487 -1.96301e-19)
(0.225233 0.182301 -1.34149e-19)
(2.07049 0.892502 -1.21831e-18)
(1.71067 0.777734 -1.20221e-18)
(1.29832 0.632592 7.32121e-19)
(0.834046 0.438729 -4.84154e-19)
(0.312145 0.182091 -4.09404e-21)
(2.4186 0.73585 -5.89443e-19)
(2.01967 0.645357 5.25251e-19)
(1.555 0.528765 2.4367e-18)
(1.01754 0.370201 8.08327e-19)
(0.39134 0.155287 5.26085e-19)
(2.68203 0.486719 1.52208e-20)
(2.2524 0.428295 -2.71679e-19)
(1.74744 0.352327 -6.46756e-19)
(1.15477 0.247648 2.05643e-18)
(0.450327 0.104146 -3.26836e-19)
(2.82548 0.173872 -1.1706e-18)
(2.37729 0.152648 -1.6065e-18)
(1.84941 0.125348 -7.28701e-19)
(1.22672 0.0878352 7.96286e-19)
(0.480859 0.0366871 -3.25833e-19)
(0.240796 0.416813 -2.14417e-18)
(0.170689 0.353304 -1.81869e-18)
(0.103268 0.276896 3.15762e-19)
(0.0456777 0.183533 -4.60746e-20)
(-0.00164965 0.0675122 3.40951e-20)
(0.371073 0.594312 -8.0252e-19)
(0.274145 0.509943 -6.68963e-19)
(0.1788 0.399311 1.10598e-20)
(0.0925813 0.259448 -2.51704e-20)
(0.0168374 0.0964803 2.58026e-20)
(0.581711 0.753543 2.18264e-18)
(0.446234 0.649694 -1.53397e-19)
(0.307951 0.507185 -1.44624e-19)
(0.174394 0.328538 -2.15182e-19)
(0.0483869 0.123953 1.67634e-19)
(0.862063 0.874894 -1.29613e-18)
(0.679178 0.758347 1.97843e-18)
(0.48529 0.594126 3.06897e-19)
(0.288339 0.3884 1.01844e-19)
(0.0925327 0.149181 -1.1832e-19)
(1.20367 0.925147 -4.41532e-19)
(0.96911 0.811789 -4.58159e-19)
(0.7086 0.645079 3.60579e-19)
(0.433334 0.429177 3.59586e-19)
(0.148465 0.168541 1.89699e-21)
(0.933112 0.164108 -4.07893e-19)
(1.48901 0.135697 5.28537e-20)
(1.32029 0.196365 1.99314e-20)
(1.01123 0.50051 -4.96891e-19)
(0.598304 0.645206 4.51144e-20)
(0.93652 0.0869697 1.59199e-19)
(1.49552 0.112334 2.87128e-19)
(1.3465 0.244164 2.48743e-19)
(1.05955 0.615262 -6.54678e-20)
(0.784597 0.802786 7.60935e-19)
(0.938497 0.0110756 5.32069e-20)
(1.50977 0.0892651 -2.0332e-20)
(1.34816 0.292109 -5.69235e-20)
(1.16585 0.71164 -4.4143e-19)
(1.03733 0.93696 1.21419e-19)
(0.93941 -0.0623009 -1.98064e-20)
(1.51803 0.0695312 -6.76162e-19)
(1.35646 0.340163 9.24368e-20)
(1.32758 0.778055 1.21281e-18)
(1.33493 1.04148 9.44298e-19)
(0.937869 -0.134325 -2.78292e-20)
(1.5091 0.0590944 1.94264e-19)
(1.38096 0.388071 -6.53883e-20)
(1.51118 0.819675 -3.90197e-19)
(1.63595 1.09168 -2.73808e-18)
(0.926929 -0.22915 2.27263e-19)
(1.4774 0.0254225 4.75198e-19)
(1.46297 0.387189 -2.94762e-20)
(1.76796 0.799088 3.06757e-18)
(2.15293 1.14313 -5.52104e-18)
(0.88239 -0.343537 -2.51382e-20)
(1.3432 -0.0276558 -6.46314e-19)
(1.4093 0.279093 7.31817e-21)
(1.84426 0.594147 -3.06442e-18)
(2.59461 0.900556 1.66894e-18)
(0.785653 -0.411994 5.50429e-18)
(1.08481 -0.0886614 6.80994e-35)
(1.13715 0.149185 -2.14185e-18)
(1.57709 0.339382 2.64521e-18)
(2.45682 0.529559 5.03206e-18)
(0.634013 -0.29164 1.50268e-19)
(0.715191 -0.0715368 5.27554e-19)
(0.733634 0.0519566 2.49512e-19)
(1.07565 0.134922 6.23299e-19)
(1.75836 0.220492 -8.64321e-18)
(0.322459 -0.0431835 -4.30636e-18)
(0.294083 0.00551356 2.82575e-19)
(0.265563 -0.0132143 1.10927e-18)
(0.393537 -0.0240224 -7.7097e-19)
(0.68616 -0.00044388 -1.46586e-18)
(2.34858 1.12113 4.68965e-18)
(2.78727 1.01253 3.47213e-18)
(3.14087 0.803369 -5.69106e-18)
(3.41899 0.519595 -1.46156e-17)
(3.5824 0.185877 1.57633e-17)
(3.07894 1.01883 5.00868e-18)
(3.35412 0.795218 2.5637e-17)
(3.557 0.560666 7.24286e-18)
(3.70114 0.331822 -3.083e-17)
(3.77796 0.111137 -5.17342e-18)
(2.90577 0.591988 -7.22904e-18)
(2.986 0.448098 -3.38056e-18)
(3.05219 0.312117 -6.29803e-18)
(3.09525 0.181731 -6.88931e-18)
(3.11401 0.0584324 6.52278e-18)
(2.10626 0.265917 5.41492e-18)
(2.13011 0.205764 -4.04665e-19)
(2.16253 0.143052 4.87106e-18)
(2.18312 0.0821409 6.28915e-18)
(2.19077 0.0260003 -5.88782e-18)
(0.842522 0.0220616 -5.74575e-19)
(0.851923 0.0156572 3.52082e-18)
(0.868628 0.0091333 2.44309e-18)
(0.87749 0.00479345 -5.16932e-18)
(0.879837 0.00136186 -3.84281e-20)
(0.281969 0.0207593 5.5211e-19)
(0.656749 0.0404715 -7.43569e-19)
(0.97324 0.0440722 -8.18504e-19)
(0.944411 0.027435 -1.51801e-18)
(0.697925 0.0163879 -6.63728e-19)
(0.245608 0.0554669 7.45717e-19)
(0.591336 0.107088 1.44151e-18)
(0.864771 0.125157 -6.97338e-19)
(0.940038 0.0970105 1.96079e-18)
(0.724249 0.0532476 -2.70088e-18)
(0.185643 0.0742738 4.96225e-19)
(0.476443 0.145912 -1.39893e-18)
(0.707844 0.184782 -9.13909e-19)
(0.857393 0.175433 -1.81022e-18)
(0.741631 0.101243 -2.86225e-18)
(0.123318 0.0774827 -7.72673e-19)
(0.344798 0.160371 -1.37663e-18)
(0.534586 0.2149 4.39906e-18)
(0.677786 0.233337 -3.6669e-19)
(0.713113 0.180047 2.25501e-18)
(0.0752785 0.0723728 -6.22982e-19)
(0.230731 0.160113 1.56424e-18)
(0.372305 0.224543 6.12328e-19)
(0.482854 0.257796 -1.29586e-18)
(0.561363 0.25849 -1.7489e-19)
(0.0451458 0.0637754 8.43204e-20)
(0.149952 0.148757 -1.22234e-18)
(0.247746 0.212147 -9.4581e-19)
(0.325459 0.234118 -8.67534e-20)
(0.371245 0.22387 -5.00223e-20)
(0.0264571 0.0556883 3.12085e-19)
(0.0950695 0.134278 5.95337e-19)
(0.160891 0.184846 -2.07972e-19)
(0.213776 0.195516 2.59391e-19)
(0.253622 0.185474 1.71318e-19)
(0.0133257 0.0488509 2.49929e-19)
(0.0585932 0.111508 1.3058e-18)
(0.103682 0.121399 -1.23624e-18)
(0.142638 0.10764 -2.78593e-18)
(0.178799 0.0862304 4.08383e-19)
(0.00614327 0.0393954 -2.37267e-19)
(0.0424599 0.049261 -1.80729e-18)
(0.0797315 0.0222914 3.21747e-18)
(0.119738 -0.00944859 1.31562e-18)
(0.161189 -0.0431999 -2.6971e-19)
(0.0100167 0.00246921 2.10046e-19)
(0.0421111 -0.0494757 -4.52309e-19)
(0.0821724 -0.0956494 8.98304e-20)
(0.130833 -0.143604 1.05378e-19)
(0.181501 -0.189799 3.71052e-21)
(0.33863 0.0720407 -7.51849e-20)
(0.613176 -0.0420714 -1.22336e-18)
(0.702297 -0.0133149 2.5392e-19)
(0.715295 0.00531755 3.96248e-19)
(0.703493 0.00286493 1.32167e-20)
(0.30272 -0.0340815 -1.00197e-19)
(0.749496 -0.114583 1.46071e-18)
(0.885882 -0.0230064 9.17999e-19)
(0.914221 0.00794826 7.5919e-20)
(0.907745 0.0049022 -3.58188e-20)
(0.319295 -0.149301 -8.07056e-19)
(0.8338 -0.197705 3.13625e-18)
(1.04694 -0.0423317 -1.81501e-19)
(1.10056 0.00910861 -3.64523e-19)
(1.09955 0.00677901 7.3714e-20)
(0.375464 -0.287877 1.10517e-18)
(0.882812 -0.297006 -2.70389e-18)
(1.16869 -0.0830649 -5.30824e-19)
(1.26524 0.00480819 -3.23611e-20)
(1.27466 0.0072302 7.46399e-24)
(0.462656 -0.436173 5.03591e-19)
(0.918168 -0.40415 -5.53084e-19)
(1.24625 -0.142572 4.75891e-19)
(1.39637 -0.0102444 1.1933e-19)
(1.42743 0.00502541 -2.09237e-20)
(0.18296 -0.0449824 9.54817e-19)
(0.144904 -0.00526355 0)
(0.162341 0.0010199 1.16518e-19)
(0.162044 -0.000274857 -3.13407e-21)
(0.156965 -0.00063221 -7.36327e-20)
(0.399677 0.070023 0)
(0.408319 -0.000434285 0)
(0.46583 -0.00410106 5.18655e-20)
(0.467748 0.00295799 -2.173e-20)
(0.454743 0.00120008 4.14035e-20)
(0.162686 -0.000821268 -3.68456e-19)
(0.186403 -0.00179212 3.10761e-18)
(0.213212 -0.00502106 -6.86298e-19)
(0.229811 -0.0149897 -3.11694e-18)
(0.245705 -0.0170125 -7.97001e-19)
(0.432029 0.00444126 6.09915e-19)
(0.484558 0.0196956 4.11552e-18)
(0.536453 0.0466969 -6.73002e-18)
(0.567624 0.0806157 2.20941e-18)
(0.598313 0.162218 3.79752e-18)
(0.370698 -0.220555 -3.32755e-19)
(0.324322 -0.231547 -9.2758e-20)
(0.248373 -0.212629 -3.2955e-19)
(0.150763 -0.150734 3.87833e-19)
(0.0458644 -0.064579 1.14092e-19)
(0.257541 -0.169466 4.21879e-19)
(0.215078 -0.181566 1.41341e-18)
(0.162385 -0.176942 2.60102e-19)
(0.0967207 -0.135031 2.36275e-19)
(0.0268916 -0.0571852 -1.85446e-20)
(0.193183 -0.0546321 -3.10647e-19)
(0.151608 -0.0771944 -1.04927e-19)
(0.108765 -0.0947483 1.63319e-18)
(0.0623202 -0.0970147 2.86584e-19)
(0.0132207 -0.047958 -3.13068e-19)
(0.178521 0.0869502 -6.35544e-19)
(0.13253 0.0531158 -7.05875e-19)
(0.087669 0.0194403 1.3084e-18)
(0.0494192 -0.0106113 1.6e-18)
(0.0112289 -0.0297754 1.98931e-19)
(0.18842 0.244044 1.23561e-19)
(0.134085 0.197765 -1.2027e-19)
(0.0817513 0.147991 2.48233e-19)
(0.0381129 0.0969243 6.21076e-19)
(-0.0023034 0.0355898 9.20463e-20)
(0.697922 -0.0163431 1.53151e-18)
(0.944417 -0.0274119 -1.80082e-18)
(0.973048 -0.0441979 2.26998e-18)
(0.656761 -0.0405339 3.6459e-19)
(0.282003 -0.020768 5.36665e-19)
(0.72424 -0.0531398 1.77251e-18)
(0.939897 -0.0970247 7.94678e-18)
(0.864568 -0.125261 1.03366e-18)
(0.591388 -0.107127 1.34947e-18)
(0.245704 -0.0554881 -4.78495e-19)
(0.741551 -0.100994 -1.22159e-18)
(0.856788 -0.175266 -2.29631e-18)
(0.707764 -0.184842 2.92441e-18)
(0.47651 -0.145981 -1.08295e-19)
(0.185765 -0.0743094 3.39529e-19)
(0.712593 -0.179863 1.80728e-20)
(0.677076 -0.233279 -7.68539e-18)
(0.53462 -0.215229 -5.99904e-18)
(0.344933 -0.160707 1.0916e-18)
(0.1235 -0.077587 5.0804e-19)
(0.55893 -0.256936 4.687e-19)
(0.481818 -0.25719 5.33357e-19)
(0.372373 -0.225258 -8.99194e-19)
(0.230986 -0.160988 -8.88166e-19)
(0.0756269 -0.0726318 -5.14395e-21)
(0.727331 0.373073 1.17518e-18)
(0.881824 0.127395 -1.91603e-19)
(0.678263 0.0191724 2.53033e-19)
(0.646016 0.0367208 -7.58817e-19)
(0.36268 -0.0617278 -1.00859e-19)
(0.826949 0.397936 -1.70136e-19)
(1.09133 0.157132 -5.61476e-19)
(0.869762 0.0376527 8.34258e-19)
(0.805643 0.100175 1.68119e-18)
(0.340647 0.0542994 1.03818e-19)
(0.891278 0.372458 -2.234e-18)
(1.27265 0.171127 -3.72804e-20)
(1.04006 0.0619991 2.4817e-19)
(0.908941 0.179761 1.68468e-18)
(0.364771 0.176856 -1.42915e-18)
(0.92105 0.316337 1.46952e-18)
(1.42155 0.173103 1.6663e-20)
(1.17531 0.10029 -2.08899e-19)
(0.963583 0.278356 -7.11838e-19)
(0.415155 0.323369 -5.81737e-19)
(0.929137 0.24208 1.69955e-19)
(1.48907 0.156586 3.44507e-20)
(1.26575 0.146709 -6.91315e-20)
(0.990817 0.386022 -7.51897e-20)
(0.48499 0.480501 1.35788e-18)
(0.275609 0.0483703 0)
(0.244382 -0.0111917 6.48371e-19)
(0.157863 -0.0159067 1.27394e-19)
(0.150709 0.00551487 -1.11167e-19)
(0.184397 0.0440778 -1.80754e-18)
(0.573208 0.266313 -1.01973e-17)
(0.609897 0.0751152 -2.55821e-18)
(0.446007 0.0129084 4.99326e-19)
(0.424813 0.000678722 -6.60564e-19)
(0.4077 -0.0683042 -6.62033e-19)
(0.245844 0.0169745 -9.93651e-22)
(0.229907 0.0150778 1.92872e-18)
(0.21329 0.0050643 5.24429e-19)
(0.186452 0.00180198 3.23038e-19)
(0.162701 0.000825125 0)
(0.599224 -0.162105 -1.13459e-19)
(0.568192 -0.0803156 2.54762e-18)
(0.536563 -0.0464723 -1.37358e-19)
(0.484618 -0.0196425 -2.70421e-19)
(0.432053 -0.004419 7.60473e-19)
)
;

boundaryField
{
    left
    {
        type            fixedValue;
        value           uniform (1 0 0);
    }
    right
    {
        type            zeroGradient;
    }
    down
    {
        type            noSlip;
    }
    up
    {
        type            noSlip;
    }
    cylinder
    {
        type            noSlip;
    }
    defaultFaces
    {
        type            empty;
    }
}


// ************************************************************************* //
