/*--------------------------------*- C++ -*----------------------------------*\
  =========                 |
  \\      /  F ield         | OpenFOAM: The Open Source CFD Toolbox
   \\    /   O peration     | Website:  https://openfoam.org
    \\  /    A nd           | Version:  13
     \\/     M anipulation  |
\*---------------------------------------------------------------------------*/
FoamFile
{
    format      ascii;
    class       surfaceScalarField;
    location    "60.4";
    object      phi;
}
// * * * * * * * * * * * * * * * * * * * * * * * * * * * * * * * * * * * * * //

dimensions      [0 3 -1 0 0 0 0];

internalField   nonuniform List<scalar> 
823
(
0.0166392
0.0114502
-0.0280894
0.0481143
0.00306113
-0.0345363
0.105679
-0.0454677
-0.0120967
0.189621
-0.112473
0.0285309
-0.160649
0.0553751
0.294895
0.0119134
-0.000463234
0.0674415
-0.052467
0.162805
-0.140831
0.271646
-0.221313
-0.295259
0.406256
0.0207781
-0.0212413
0.1055
-0.137189
0.215859
-0.25119
0.320713
-0.326167
-0.36934
0.394794
0.0439067
-0.065148
0.13976
-0.233043
0.223359
-0.33479
0.274349
-0.377157
-0.387347
0.292356
0.0571437
-0.122292
0.127604
-0.303503
0.166687
-0.373872
0.180565
-0.391035
0.188986
-0.395768
0.00719063
-0.0307853
0.0235947
0.0123954
-0.0753734
0.0701686
0.00184321
-0.0806785
0.0912307
-0.0224246
-0.0664732
0.0907409
-0.053245
-0.0519555
0.0827759
-0.00153588
-0.0292494
-0.0179218
-0.0589875
-0.0472079
-0.0513924
-0.0771464
-0.0365346
-0.0321679
-0.0982236
-0.0148989
-0.0143505
-0.0503149
-0.0235716
-0.0873417
-0.0143655
-0.112397
-0.0114793
-0.0212873
-0.123278
-0.0345759
0.0202254
-0.0826466
0.024499
-0.115689
0.0186765
-0.128836
0.0016682
-0.0204702
-0.129653
-0.00786396
-0.0179012
-0.0113213
0.0188778
0.0537828
0.18846
-0.617737
0.377322
0.383322
1.09611
-1.29097
0.356471
1.36742
-1.34057
0.455601
-1.12165
1.02252
-1.03401
1.01627
0.281437
-0.997398
0.595654
0.781891
0.485814
1.47726
0.535033
-1.17087
-1.04131
0.214083
-1.33476
0.465169
0.530805
0.483892
1.45854
0.598507
-1.28549
-1.05033
0.038911
-1.50332
0.190605
0.379111
0.495234
1.15391
0.63866
-1.42891
-1.05513
-0.0400146
-1.40953
0.0517332
0.287364
0.616691
0.58895
0.670475
-1.4827
-1.04577
0.736057
-0.968269
-1.17731
0.578248
0.445172
1.26128
-0.0940826
1.19097
-1.41239
-0.872811
0.964812
-0.590854
-1.34223
1.05468
0.355308
1.44092
-0.480322
1.19961
-1.17108
-0.620706
1.06049
-0.320884
-1.33046
1.28513
0.130661
1.37364
-0.568824
0.999945
-0.797392
-0.363665
1.10126
-0.147651
-1.2745
1.27645
-0.0445207
1.08519
-0.377566
0.621136
-0.33334
-0.109779
0.718072
-0.865722
0.673551
0.295985
-0.0373554
1.09624
0.144046
-1.0513
1.16303
0.225565
1.26622
0.291599
1.27701
0.395471
0.394589
1.02049
0.0858121
-0.962258
1.08648
0.159572
1.16766
0.210424
1.2747
0.28843
0.327063
0.955553
0.044942
-0.914683
1.01554
0.0995887
1.09516
0.130802
1.21104
0.172553
0.207643
0.890145
0.0120667
-0.85727
0.953741
0.0359933
1.03718
0.0473586
1.14556
0.0641752
0.0787068
0.639488
-0.627422
0.675482
0.72284
0.787016
0.132828
0.301963
-0.250542
-0.184249
0.0879036
0.308052
-0.263127
0.048025
0.318771
-0.278892
0.0154885
0.311041
-0.278505
0.202448
-0.18696
0.0999576
0.339114
-0.137109
0.0637819
0.344227
0.0313923
0.351161
0.00609626
0.336337
0.208545
0.0589689
0.370394
-0.0902485
0.029066
0.37413
0.00382429
0.376402
-0.0082903
0.348452
0.200254
-0.0148184
0.387002
-0.00178995
-0.0309386
0.39025
-0.0382669
0.383731
-0.0289413
0.339126
0.171313
-0.0937182
0.0849522
-0.0945028
-0.0846444
-0.0490213
0.202277
0.0993092
-0.254975
-0.0466118
0.148298
0.103729
-0.0497497
0.092469
0.108655
-0.0528262
0.0377576
0.108995
-0.0542831
0.078036
-0.0402784
0.194957
0.143836
-0.239484
0.14834
0.150346
0.0965235
0.160472
0.0410742
0.164444
0.11911
0.151475
0.189435
-0.197073
0.107894
0.193927
0.0654536
0.202913
0.0249404
0.204957
0.144051
0.15556
0.223649
-0.189773
0.115695
0.233791
0.071058
0.24755
0.027541
0.248474
0.171592
0.106078
-0.132971
0.0767416
0.0453989
0.0153683
0.405753
0.0684764
-0.0782497
0.419585
0.0336477
-0.0474795
0.415466
0.149929
-0.14581
0.390916
0.216561
-0.19201
0.428041
-0.2921
0.402897
0.0615595
0.413887
0.0226573
0.405461
0.158354
0.375703
0.246319
0.56426
0.396316
0.0612228
0.409385
0.00958875
0.385203
0.182536
0.363468
0.268055
0.730654
0.392747
0.0644554
0.398006
0.00432984
0.371704
0.208838
0.33586
0.303899
0.876741
0.385453
0.0749816
0.388342
0.0014414
0.340416
0.256764
0.311013
0.333302
1.05478
0.621191
0.0578113
0.663065
-0.0404327
0.688395
0.231434
0.739139
0.282558
0.794825
0.999097
0.635899
0.0259327
0.680154
-0.0846877
0.708422
0.203165
0.758123
0.232857
0.514153
1.0388
0.650888
-0.0209345
0.665092
-0.0988923
0.696346
0.171911
0.794865
0.134338
0.289125
1.01989
0.64472
-0.0616341
0.611745
-0.0659172
0.705807
0.0778494
0.805248
0.0348972
0.130743
0.96363
0.542386
0.476469
0.554319
0.589216
0.719959
1.02248
-0.207636
1.01744
-0.132067
1.01376
-0.0865665
1.01956
-0.00759451
0.0532191
0.978445
-0.147286
0.963956
-0.117577
0.933663
-0.0562738
0.951018
-0.0249493
0.0419792
0.956974
-0.0843665
0.922699
-0.0833028
0.896875
-0.0304499
0.900885
-0.0289594
0.0281814
0.911358
-0.0320942
0.863965
-0.03591
0.847787
-0.0142716
0.836783
-0.0179553
0.0076943
0.687864
0.651954
0.637683
0.619727
0.0540468
0.158632
-0.212678
0.0788094
0.349563
-0.374326
0.0780379
0.40545
-0.404679
0.0677052
0.407977
-0.397644
0.376398
0.0538747
-0.362567
0.081436
0.0771955
0.158436
0.272564
0.192745
0.371141
0.196416
0.404306
0.394905
0.177909
0.0675965
0.00959901
0.193866
0.146294
0.292588
0.272418
0.353731
0.343164
0.396322
0.352313
0.0312603
-0.0216613
0.144777
0.0327776
0.279424
0.137771
0.41171
0.210878
0.302962
0.50507
0.00474322
-0.0264045
0.060658
-0.0231372
0.174399
0.0240305
0.315519
0.0697573
0.149686
0.468795
-0.00591893
-0.0204855
0.00828201
-0.0373381
0.0650754
-0.0327629
0.15708
-0.0222474
0.0345377
0.272228
-0.00811512
-0.0123704
-0.0117925
-0.0336608
0.00308192
-0.0476373
0.0334758
-0.0526413
-0.0319293
0.0999428
-0.00223247
-0.010138
0.00136334
-0.0372566
0.013358
-0.059632
0.0314299
-0.0707133
-0.0704265
0.0699272
0.00606444
-0.0162024
0.0237111
-0.0549032
0.0462749
-0.0821958
0.0681568
-0.0925952
-0.0928718
0.090602
0.00739227
0.0226577
0.0316925
0.0298383
0.0197425
0.412697
0.923368
-1.06384
0.327816
0.65664
-0.571759
0.0170849
0.750783
-0.440052
0.0719539
-0.358054
0.303185
-0.732941
0.541787
0.449643
0.573668
0.308985
0.797298
0.0360911
1.02368
0.141537
-0.4635
-0.85826
0.476599
0.166996
0.222355
1.05154
0.026148
1.21988
0.207337
-0.64469
-0.943108
0.430134
-0.172536
0.212394
1.26928
0.0908806
1.3414
0.289701
-0.84351
-0.991257
0.224528
0.20284
0.203669
0.382683
-0.0870714
0.708963
-0.621892
-0.22894
0.141868
-0.229705
0.000764828
-0.0119661
-0.217739
-0.228949
0.829903
-1.18478
0.400013
-0.0392749
0.0461718
0.091498
-0.0132074
-0.0782905
0.150851
-0.0593526
0.259837
-0.108987
0.419627
-0.15979
-0.202265
0.211083
-0.170416
0.329639
0.572966
0.918246
0.143015
-0.145239
0.176368
-0.174144
0.109385
-0.151162
0.184791
0.0710913
-0.159012
0.197306
0.0292682
-0.158881
0.200704
-0.110884
0.140153
0.186411
-0.105727
-0.225923
0.141588
-0.106339
0.0902151
-0.107639
0.0373099
-0.105976
-0.0735745
0.184188
-0.0552041
-0.234711
0.132812
-0.0549628
0.0816291
-0.0564562
0.0329202
-0.0572666
-0.0406543
0.201612
-0.00423364
-0.252583
0.149891
-0.00324137
0.0959697
-0.00253491
0.0405135
-0.00181043
-0.000140777
0.204865
-0.25571
0.151874
0.0965128
0.0404192
0.0440786
-0.339758
-0.0668875
0.0164531
-0.370018
-0.0073863
-0.380839
-0.0175049
-0.364207
-0.230183
0.131296
-0.306916
-0.164139
0.086831
-0.325553
0.0422581
-0.336267
0.0086245
-0.330574
-0.221559
0.152093
-0.264096
-0.194913
0.106485
-0.279945
0.0624547
-0.292236
0.0223808
-0.2905
-0.199178
0.172006
-0.226322
-0.20978
0.126864
-0.234803
0.0783496
-0.243721
0.0315238
-0.243674
-0.167654
0.166899
-0.216852
0.116887
0.0704716
0.0275015
0.388043
0.107122
-0.0991853
0.388635
0.08843
-0.0890219
0.356486
0.14234
-0.110192
0.306091
0.0473516
0.00304402
-0.244584
0.376531
0.396249
0.106852
0.402934
0.0817456
0.395873
0.149401
0.349038
0.0941859
-0.121469
0.401721
0.101111
0.412725
0.0707414
0.410574
0.151552
0.372571
0.132189
0.0163908
0.406656
0.0904342
0.417926
0.0594716
0.421508
0.14797
0.389935
0.163762
0.153743
0.408164
0.420156
0.422316
0.394067
0.414135
0.0959156
0.33379
0.0803449
0.252435
0.0813555
0.259305
-0.00686988
-0.202782
0.462087
0.506781
0.498104
0.469268
0.465442
0.639191
0.369559
0.0925283
0.287625
0.0819339
0.192285
0.0953396
0.111556
0.0807293
0.0332652
0.514867
0.387021
0.287448
0.204038
)
;

boundaryField
{
    left
    {
        type            calculated;
        value           nonuniform List<scalar> 
17
(
-0.60402
-0.60402
-0.60402
-0.60402
-0.60402
-0.39598
-0.39598
-0.39598
-0.39598
-0.39598
-0.39598
-0.39598
-0.39598
-0.39598
-0.39598
-0.510051
-0.510051
)
;
    }
    right
    {
        type            calculated;
        value           nonuniform List<scalar> 
17
(
0.216983
0.359009
0.263108
0.266856
0.292185
0.337851
0.407697
0.473337
0.542339
0.607526
0.643455
0.66112
1.01801
0.947504
0.742903
0.36725
-0.147134
)
;
    }
    down
    {
        type            calculated;
        value           uniform 0;
    }
    up
    {
        type            calculated;
        value           uniform 0;
    }
    cylinder
    {
        type            calculated;
        value           uniform 0;
    }
    defaultFaces
    {
        type            empty;
    }
}


// ************************************************************************* //
