/*--------------------------------*- C++ -*----------------------------------*\
  =========                 |
  \\      /  F ield         | OpenFOAM: The Open Source CFD Toolbox
   \\    /   O peration     | Website:  https://openfoam.org
    \\  /    A nd           | Version:  13
     \\/     M anipulation  |
\*---------------------------------------------------------------------------*/
FoamFile
{
    format      ascii;
    class       volScalarField;
    location    "6";
    object      p;
}
// * * * * * * * * * * * * * * * * * * * * * * * * * * * * * * * * * * * * * //

dimensions      [0 2 -2 0 0 0 0];

internalField   nonuniform List<scalar> 
440
(
-0.596641
-0.578712
-0.602995
-0.570431
-0.692464
-0.62111
-0.604179
-0.588479
-0.570727
-0.572558
-0.714634
-0.686187
-0.655437
-0.621546
-0.585335
-0.833181
-0.787186
-0.715706
-0.630171
-0.543256
-0.928548
-0.86835
-0.73716
-0.599221
-0.472108
-0.805377
-0.808574
-0.82259
-0.847416
-0.873699
-0.664218
-0.668547
-0.680055
-0.696739
-0.710759
-0.567553
-0.569831
-0.574911
-0.582812
-0.585162
-0.553587
-0.555286
-0.559068
-0.559131
-0.554488
-0.540097
-0.541068
-0.54426
-0.529283
-0.547207
-0.976299
-0.84655
-0.740441
-0.58554
-0.0541636
-0.792869
-0.745245
-0.770987
-0.683299
-0.0510353
-0.589658
-0.614941
-0.785518
-0.720951
-0.0578848
-0.445436
-0.486068
-0.789387
-0.715698
-0.0730318
-0.427946
-0.373833
-0.776466
-0.681588
-0.0915298
-0.263401
-0.266187
-0.715028
-0.596144
-0.113666
-0.13942
-0.230374
-0.473359
-0.430407
-0.138524
-0.157557
-0.0839787
-0.244593
-0.286171
-0.143935
-0.0844648
0.0338497
-0.131361
-0.230658
-0.136281
-0.0258451
0.121385
0.0396429
-0.183691
-0.146305
-0.252741
-0.377499
-0.553841
-0.725007
-0.83055
-0.0198966
-0.1492
-0.234121
-0.276647
-0.27973
0.137545
0.0215409
-0.053616
-0.109878
-0.147006
0.231328
0.12017
0.0349725
-0.0265867
-0.0657037
0.273236
0.162541
0.0762027
0.0179088
-0.0121296
1.04932
0.90688
0.725268
0.52066
0.291202
0.643168
0.488517
0.297621
0.0817474
-0.161711
0.245196
0.0882197
-0.110251
-0.336693
-0.547887
-0.0960171
-0.255786
-0.449708
-0.660008
-0.817505
-0.321539
-0.476166
-0.653143
-0.836602
-0.935367
2.21909
2.25141
2.28132
2.29728
2.29556
2.03091
2.05358
2.07225
2.07422
2.05477
1.8059
1.79675
1.76598
1.71297
1.63353
1.55333
1.52015
1.45249
1.35371
1.22498
1.30551
1.20899
1.08098
0.929393
0.743633
1.95664
1.94781
1.93281
1.99723
2.095
1.94675
1.93568
1.91438
1.97431
2.00755
1.93777
1.92048
1.89285
1.93972
1.90066
1.93005
1.90249
1.86923
1.89218
1.73942
1.92356
1.88368
1.84418
1.83965
1.56702
1.91859
1.85497
1.81138
1.73674
1.3672
1.91725
1.8226
1.80028
1.61358
1.42038
1.92331
1.80602
1.79366
1.53821
1.40478
1.9188
1.78039
1.78787
1.48656
1.37474
1.95556
1.77382
1.78482
1.4605
1.38111
1.01461
0.721936
0.388652
0.107168
-0.0869374
0.926763
0.717094
0.49253
0.298341
0.125752
0.91895
0.749211
0.580539
0.424549
0.269747
0.966087
0.811981
0.65694
0.505965
0.361945
1.01146
0.857123
0.703381
0.55009
0.406352
-1.41766
-1.26539
-1.09256
-0.951345
-0.868471
-1.47426
-1.40758
-1.27735
-1.17051
-1.10677
-1.3826
-1.33319
-1.25674
-1.19359
-1.15378
-1.21517
-1.17221
-1.12759
-1.09308
-1.07159
-1.07536
-1.05136
-1.02292
-1.00543
-1.02406
-0.999205
-0.985323
-0.956009
-0.953181
-0.937956
-0.992934
-0.976631
-0.95537
-0.946392
-0.951669
-1.01589
-1.00298
-0.990289
-0.986965
-0.999797
-1.01568
-1.01053
-1.01309
-1.02885
-1.05375
-0.943883
-0.944267
-0.955277
-0.981346
-1.01344
-1.03403
-0.788581
-0.366281
-0.250777
-0.00235691
-1.04176
-0.749263
-0.36712
-0.254284
-0.0129613
-1.01522
-0.765264
-0.422334
-0.286907
-0.0408184
-1.04783
-0.833022
-0.537224
-0.343259
-0.0614434
-1.05436
-0.874316
-0.65926
-0.451925
-0.0627031
-0.550562
-0.897913
-0.48439
-0.279226
-0.00475353
-0.913547
-0.866557
-0.400483
-0.236464
0.000579584
-0.820676
-1.07959
-1.12085
-1.08496
-0.859436
-0.841125
-1.08089
-1.13343
-1.071
-1.06093
1.8488
1.82126
1.77513
1.71129
1.62695
2.04148
2.05994
2.06166
2.0449
2.01044
2.20533
2.23765
2.26145
2.27223
2.26818
2.30011
2.34031
2.38268
2.41697
2.43232
2.30277
2.34158
2.38481
2.42124
2.43826
-0.387202
-0.496776
-0.669863
-0.878483
-1.12872
0.247703
0.104091
-0.0874594
-0.318167
-0.616586
0.817438
0.666892
0.487631
0.276157
0.0063094
1.27437
1.15799
1.01594
0.842675
0.630421
1.63747
1.55464
1.44703
1.31827
1.16582
2.02055
1.97858
1.96749
1.97664
1.99552
2.00505
1.97518
1.96659
1.99434
2.06005
1.99156
1.9707
1.9653
2.01284
2.13545
1.97898
1.96508
1.95862
2.01783
2.14559
1.96731
1.95801
1.94749
2.01286
2.13762
2.07516
1.98558
1.9553
1.90139
1.86914
2.03117
1.9759
1.95073
1.92239
1.87846
1.51638
1.28712
0.884603
0.296385
-0.355117
1.60351
1.32149
0.901545
0.317599
-0.346036
)
;

boundaryField
{
    left
    {
        type            zeroGradient;
    }
    right
    {
        type            fixedValue;
        value           uniform 0;
    }
    down
    {
        type            zeroGradient;
    }
    up
    {
        type            zeroGradient;
    }
    cylinder
    {
        type            zeroGradient;
    }
    defaultFaces
    {
        type            empty;
    }
}


// ************************************************************************* //
