/*--------------------------------*- C++ -*----------------------------------*\
  =========                 |
  \\      /  F ield         | OpenFOAM: The Open Source CFD Toolbox
   \\    /   O peration     | Website:  https://openfoam.org
    \\  /    A nd           | Version:  13
     \\/     M anipulation  |
\*---------------------------------------------------------------------------*/
FoamFile
{
    format      ascii;
    class       volVectorField;
    location    "6";
    object      U;
}
// * * * * * * * * * * * * * * * * * * * * * * * * * * * * * * * * * * * * * //

dimensions      [0 1 -1 0 0 0 0];

internalField   nonuniform List<vector> 
440
(
(-0.088524 0.0670128 -6.31561e-20)
(-0.114994 0.125392 -3.84174e-20)
(-0.0396671 0.114017 2.47461e-20)
(0.336983 0.167785 4.01209e-19)
(0.156138 0.363726 2.24639e-21)
(-0.0794054 0.042815 2.12821e-20)
(0.0145949 0.029902 -9.88758e-20)
(0.402786 -0.00646404 -7.27329e-20)
(0.935058 -0.0229706 3.0391e-20)
(1.25755 0.0118765 -1.00955e-20)
(-0.0342827 0.0140802 4.42966e-20)
(0.378866 -0.0194262 5.94247e-19)
(1.08538 0.00332288 -3.11236e-19)
(1.64585 0.0455411 -9.46706e-19)
(2.21972 0.0752682 3.18066e-19)
(0.150394 -0.0356573 -1.63366e-19)
(1.03479 0.0115843 -4.61214e-19)
(1.81052 0.0967449 1.42067e-18)
(2.30407 0.151946 1.55899e-18)
(2.43958 0.185862 -4.26784e-19)
(0.478616 -0.00867515 -2.72102e-19)
(1.61528 0.188345 -5.54787e-19)
(2.2052 0.288258 1.66936e-18)
(2.3619 0.319524 1.8114e-18)
(2.43118 0.297142 6.14065e-19)
(0.025334 -0.347002 -1.32826e-19)
(-0.0234769 -0.526589 7.61367e-20)
(-0.0988614 -0.530276 -1.68029e-19)
(-0.171326 -0.49294 5.07574e-20)
(-0.223105 -0.441692 4.66489e-19)
(0.0400368 -0.234178 -1.373e-20)
(-0.0302168 -0.343528 -2.90044e-20)
(-0.126097 -0.341004 -6.08822e-20)
(-0.215698 -0.314724 -4.76197e-20)
(-0.281184 -0.280577 7.58669e-20)
(0.0168273 -0.0895658 1.30212e-19)
(-0.05736 -0.126819 4.23031e-20)
(-0.137417 -0.134013 6.77586e-20)
(-0.206829 -0.139415 -8.32636e-20)
(-0.2553 -0.135066 2.29855e-21)
(-0.00471033 -0.0111379 9.82453e-21)
(-0.0679837 -0.00772345 -1.77692e-20)
(-0.134436 -0.0052524 2.31192e-20)
(-0.196947 -0.0177861 -5.01633e-20)
(-0.251964 -0.0148207 3.16711e-20)
(-0.0607878 0.052668 1.41315e-20)
(-0.155679 0.0969364 1.1346e-20)
(-0.237738 0.138824 -2.81079e-20)
(-0.232689 0.181928 -9.80305e-21)
(-0.254057 0.243959 -2.12572e-19)
(-0.337681 -0.131099 1.04529e-18)
(0.171684 0.763028 -5.43717e-19)
(-0.452846 0.651852 1.6148e-19)
(0.859375 -0.375148 -9.45542e-19)
(1.17408 -0.513489 4.18971e-20)
(-0.477204 -0.121985 -1.26084e-18)
(-0.339875 0.745698 1.40795e-19)
(-0.0792566 0.486609 1.23831e-20)
(1.27824 -0.569722 6.52587e-19)
(1.43165 -0.562854 -4.53931e-20)
(-0.380883 -0.144294 -8.52057e-19)
(-0.548387 0.599058 -1.3442e-18)
(0.475643 0.202923 9.51044e-21)
(1.67078 -0.726064 1.10517e-19)
(1.65796 -0.591537 3.38226e-20)
(-0.341707 -0.0940276 2.00859e-19)
(-0.238366 0.47451 1.33607e-19)
(1.01934 -0.0501081 -1.43183e-20)
(1.98775 -0.826666 1.38687e-19)
(1.80577 -0.598802 1.09655e-19)
(-0.0190799 -0.224921 -1.52592e-19)
(0.327557 0.21471 7.39673e-19)
(1.52836 -0.264295 0)
(2.24135 -0.868927 -3.15704e-19)
(1.8844 -0.580116 1.81221e-20)
(1.47409 -0.0936127 -2.96898e-19)
(1.38988 0.0389029 -1.37628e-19)
(2.12347 -0.422459 5.47745e-21)
(2.46094 -0.853323 -1.91244e-19)
(1.91249 -0.533622 -5.57705e-20)
(2.06161 -0.0899128 1.45199e-20)
(2.18831 0.0011685 3.16331e-19)
(2.59663 -0.520283 4.84038e-21)
(2.47452 -0.775471 5.51375e-19)
(1.70003 -0.424091 0)
(2.10053 -0.0195682 -9.35428e-20)
(2.36554 -0.130445 -2.02741e-21)
(2.47749 -0.508453 4.58253e-19)
(1.97662 -0.522843 -1.74274e-19)
(1.22344 -0.248105 2.962e-21)
(2.13194 -0.0635559 5.20762e-20)
(2.31542 -0.171046 1.70518e-19)
(2.04882 -0.419631 1.87234e-20)
(1.39332 -0.355936 1.51414e-34)
(0.643287 -0.1225 4.99443e-20)
(1.53367 -0.0199401 8.34573e-20)
(1.46754 -0.11896 5.08865e-20)
(0.655685 -0.0716863 -1.29459e-19)
(0.0616094 0.0379811 2.73031e-20)
(-0.189098 0.0210972 8.85997e-21)
(2.35915 0.306011 -7.52768e-19)
(2.55161 0.110088 -9.55474e-19)
(2.4173 0.161361 5.44382e-19)
(2.5919 -0.00618486 1.00118e-19)
(1.90264 0.174488 -2.78814e-20)
(2.12786 0.20661 7.52852e-20)
(2.36404 0.108187 -3.69914e-20)
(2.25438 0.0581971 -1.26843e-19)
(2.42934 -0.0257575 -2.18191e-19)
(2.29758 -0.123432 -4.53537e-21)
(2.05706 0.0950878 8.02328e-20)
(2.13056 0.101133 7.36129e-20)
(2.18542 -0.00879864 -7.68724e-20)
(2.19156 0.0134833 2.90288e-20)
(2.28054 -0.0943292 -1.85099e-20)
(2.01435 0.0386396 1.16082e-19)
(2.03559 0.0554356 1.78506e-19)
(2.1464 -0.0145362 -1.98133e-20)
(2.12671 0.000327229 -9.64365e-20)
(2.23883 -0.0563674 3.18665e-20)
(1.54076 -0.0154705 1.92288e-19)
(1.55356 -0.00624402 -1.13114e-20)
(1.59379 -0.0248929 1.71968e-20)
(1.57611 -0.0129623 -4.31669e-20)
(1.62794 -0.0342348 -3.01583e-20)
(1.56181 0.853218 1.05782e-18)
(1.51945 0.950145 -3.26853e-19)
(1.51698 1.07671 -1.28021e-18)
(1.44722 1.1188 7.04462e-19)
(0.888551 0.799176 -1.71078e-19)
(1.82942 0.814302 -5.5068e-19)
(1.80549 0.893117 -2.88912e-18)
(1.8124 0.998331 -1.11455e-18)
(1.71759 1.00049 -3.9525e-19)
(1.0407 0.684479 -6.29177e-19)
(2.12386 0.704733 7.10606e-19)
(2.09956 0.767519 1.88534e-19)
(2.07551 0.848113 -2.18149e-18)
(1.93353 0.827838 -5.90175e-19)
(1.12039 0.527964 4.26412e-19)
(2.26936 0.59563 2.15056e-18)
(2.26832 0.644376 1.56066e-18)
(2.25548 0.683428 -1.7976e-18)
(2.01404 0.628367 -1.32713e-18)
(1.06904 0.339748 -2.34193e-19)
(2.42308 0.445562 1.01647e-18)
(2.40859 0.462926 -7.33627e-19)
(2.29598 0.477852 5.23701e-19)
(1.93371 0.405868 3.97459e-19)
(0.851831 0.138251 -3.23023e-19)
(0.57763 0.426481 -7.1206e-19)
(0.485007 0.461465 -5.6184e-19)
(0.364333 0.495955 6.89425e-20)
(0.225746 0.497034 -1.78274e-20)
(0.0546174 0.352254 7.251e-20)
(0.690637 0.590763 6.19744e-20)
(0.626569 0.647134 -3.3359e-19)
(0.534367 0.711817 1.76586e-19)
(0.402921 0.769076 -8.12435e-20)
(0.172445 0.58954 1.16189e-19)
(0.771334 0.801359 1.80916e-19)
(0.70092 0.884163 4.25016e-19)
(0.645379 0.981598 6.9224e-20)
(0.55971 1.02586 -2.8418e-19)
(0.305856 0.762006 2.32506e-19)
(1.04933 0.875034 2.15057e-19)
(0.999318 0.961634 -6.45075e-19)
(0.947019 1.06365 -1.8368e-18)
(0.863378 1.13325 7.47224e-19)
(0.508775 0.844547 -1.72238e-19)
(1.14161 0.927013 -1.22201e-19)
(1.16419 1.04786 -1.98014e-19)
(1.18299 1.16393 -3.38188e-19)
(1.12715 1.19362 -3.90583e-19)
(0.692416 0.858608 -6.3553e-21)
(0.995298 0.0527726 -8.93946e-20)
(1.00593 0.00679316 -3.27973e-20)
(1.03917 0.132062 -1.56118e-21)
(0.936361 0.109966 -2.22469e-19)
(0.903838 0.250673 3.06408e-19)
(0.980646 0.0503725 5.58868e-20)
(1.02796 0.000367745 1.21948e-19)
(1.02392 0.147498 1.15234e-19)
(0.967153 0.131786 2.54342e-20)
(0.933918 0.328167 1.63239e-20)
(0.986847 0.0486657 7.5305e-20)
(1.01666 -0.00797082 -4.74625e-21)
(1.0631 0.166413 -4.23009e-21)
(0.919031 0.135522 1.48209e-19)
(1.13062 0.465743 -4.41611e-19)
(0.983376 0.0472695 -3.68894e-22)
(1.03755 -0.0192653 -1.79139e-19)
(1.05003 0.196459 -6.1841e-20)
(0.997962 0.132974 -3.71769e-19)
(1.17849 0.514252 8.57934e-20)
(0.986713 0.0382961 -1.25138e-20)
(1.03966 -0.0144937 5.10563e-20)
(1.08163 0.197451 2.94309e-20)
(0.996668 0.154683 4.74037e-19)
(1.39542 0.64701 -4.41106e-19)
(0.963592 0.0367821 -5.32559e-21)
(1.10386 -0.0371133 1.01516e-19)
(1.03561 0.232458 -6.59558e-20)
(1.24438 0.0792995 9.4116e-19)
(1.33779 0.680761 -3.75379e-19)
(0.937971 0.00312847 -1.52202e-21)
(1.17275 -0.0226733 -8.70578e-20)
(0.939751 0.162322 5.05797e-21)
(1.36477 0.0528465 -3.53136e-19)
(1.33597 0.470409 -1.45396e-20)
(0.978094 -0.0151099 1.12502e-22)
(1.12207 -0.00617247 1.36573e-35)
(1.00993 0.127831 -9.96701e-21)
(1.34502 -0.0170505 1.10817e-19)
(1.37243 0.32001 1.61189e-19)
(1.05902 -0.0555805 4.119e-21)
(0.953331 -0.00689761 -2.83368e-20)
(1.20129 0.0369834 2.07989e-20)
(1.1927 -0.0339458 2.92438e-20)
(1.3385 0.224023 -2.31093e-19)
(0.964608 -0.0229945 -4.00826e-20)
(0.76008 -0.0202849 -3.82157e-21)
(0.985303 -0.00399014 2.48633e-20)
(0.742232 -0.0160348 -1.51506e-20)
(0.981131 0.0869969 -5.03602e-20)
(1.78523 0.649315 2.94602e-19)
(1.88581 0.665398 7.12187e-19)
(2.12907 0.552354 -1.00945e-18)
(2.19048 0.52121 1.03755e-20)
(2.3942 0.336029 4.39941e-19)
(1.74615 0.460521 7.05844e-20)
(1.77885 0.454386 9.65953e-19)
(1.98044 0.402393 1.06361e-19)
(1.97339 0.352509 -8.60749e-19)
(2.19666 0.252559 -2.72606e-19)
(1.66125 0.356023 -2.19405e-19)
(1.727 0.298038 -1.43986e-19)
(1.84313 0.296428 2.08358e-19)
(1.89884 0.203328 -2.77888e-19)
(2.00762 0.197616 2.58555e-19)
(1.58615 0.237218 3.46587e-19)
(1.67059 0.179442 7.51934e-24)
(1.75942 0.180304 2.15048e-19)
(1.85123 0.105731 1.87568e-19)
(1.91251 0.11548 -1.90005e-19)
(1.26147 0.0641579 -4.46598e-20)
(1.33503 0.0390444 2.31945e-19)
(1.41512 0.029418 1.02285e-19)
(1.46142 0.00469321 -2.24958e-19)
(1.50642 0.00495147 9.92069e-23)
(1.31026 -0.0359183 6.624e-20)
(2.40128 -0.0421131 -5.11714e-19)
(2.62944 -0.0361158 1.37033e-18)
(2.60785 0.0105855 6.10713e-19)
(2.45011 0.0372279 -4.19019e-19)
(0.821529 0.0967144 1.18951e-19)
(2.17142 0.0946628 -5.05927e-19)
(2.64035 0.0960096 -6.90258e-19)
(2.68287 0.109039 8.61316e-19)
(2.4195 0.0981967 -5.69579e-19)
(0.236823 0.0837719 -3.39789e-20)
(1.49239 0.163604 5.32338e-19)
(2.29927 0.190454 8.07487e-20)
(2.68921 0.184642 5.57937e-19)
(2.84635 0.179267 2.52846e-19)
(-0.0561698 -0.0295644 2.3243e-19)
(0.552429 0.0919764 2.33952e-19)
(1.45622 0.177009 -5.12311e-19)
(1.99733 0.215609 2.88169e-20)
(2.61522 0.244566 6.62814e-20)
(-0.121122 -0.0961922 1.70476e-19)
(-0.00307593 -0.0512227 -1.92426e-19)
(0.532184 0.0514339 -2.50753e-20)
(1.047 0.0913285 4.89051e-20)
(1.55971 0.179948 -3.62211e-20)
(-0.089117 -0.0906226 -2.32791e-21)
(-0.146344 -0.133917 1.31238e-19)
(-0.00581684 -0.131523 1.21141e-19)
(0.214894 -0.10601 -7.58611e-20)
(0.677449 -0.0132531 7.15272e-21)
(-0.0515782 -0.0786978 -1.09559e-20)
(-0.10815 -0.207644 -1.13409e-19)
(-0.0898464 -0.286234 -6.08788e-20)
(-0.018437 -0.311314 1.93551e-20)
(0.1343 -0.242794 1.8344e-20)
(-0.0477913 -0.14538 -4.13032e-21)
(-0.0638853 -0.376765 2.33751e-19)
(-0.0344244 -0.489207 -6.60015e-20)
(0.0254021 -0.510262 1.00205e-19)
(0.0707777 -0.474614 -9.7232e-20)
(-0.0441575 -0.284026 -7.82999e-21)
(-0.0380747 -0.581769 1.00894e-20)
(-0.0144034 -0.670836 -2.00287e-19)
(0.0188407 -0.648781 -3.74524e-19)
(0.0507812 -0.580416 6.24967e-20)
(-0.0126382 -0.377745 -1.47508e-21)
(-0.0267087 -0.632762 1.7763e-20)
(-0.0527725 -0.653482 -1.04483e-20)
(-0.0778527 -0.596832 -2.96674e-20)
(-0.0931632 -0.518045 9.06232e-20)
(1.66578 0.542172 -7.31388e-20)
(1.45161 0.354921 5.95162e-19)
(0.880917 0.158876 -7.06555e-20)
(0.170672 0.0225698 1.05366e-20)
(0.509 -0.0940363 -7.79862e-21)
(1.43939 0.414394 -5.57425e-21)
(1.2877 0.450618 4.12327e-20)
(0.669547 0.306263 7.6053e-20)
(-0.139083 0.049795 -7.746e-21)
(0.447585 -0.167087 7.27822e-20)
(1.0187 0.199478 1.11597e-21)
(1.10075 0.526081 4.24726e-19)
(0.356212 0.462435 5.49498e-20)
(-0.2239 0.0566386 -4.29392e-19)
(0.511075 -0.271145 -1.52847e-20)
(0.490137 0.0513103 8.17744e-20)
(0.855308 0.612689 -1.00981e-18)
(-0.041048 0.601101 -3.04374e-19)
(0.0203034 -0.00441423 3.75181e-21)
(0.668904 -0.369046 -3.81034e-20)
(-0.00232593 -0.0201513 -4.80331e-20)
(0.565943 0.705901 7.13136e-20)
(-0.402564 0.673945 2.49081e-19)
(0.441369 -0.161478 -3.55237e-20)
(0.909985 -0.447711 5.0912e-22)
(0.492956 0.172599 -4.14642e-20)
(-0.269798 -0.0899702 0)
(-0.193487 -0.111547 -4.24505e-20)
(-0.0617003 -0.0573819 6.0837e-20)
(0.227729 -0.0230687 1.34164e-20)
(2.09391 0.526225 0)
(1.49215 0.336916 0)
(0.916408 0.0408092 3.66104e-19)
(0.456268 -0.0553395 3.38487e-20)
(0.645773 -0.0700516 -3.00554e-21)
(0.797488 0.00219307 -1.43072e-19)
(0.867752 -0.00331814 2.60833e-19)
(1.04858 -0.00348966 -2.46069e-20)
(1.11729 0.0109669 3.2297e-19)
(1.49112 0.0844743 2.16839e-19)
(1.78671 0.0267675 1.36247e-19)
(1.96095 0.0816325 3.33435e-19)
(2.11298 0.0576334 -2.63917e-19)
(2.72711 0.201715 -3.63923e-21)
(2.41336 0.14896 1.06518e-19)
(0.965549 -0.522005 2.19109e-20)
(0.958335 -0.619298 -2.02554e-19)
(0.954456 -0.72364 -1.77779e-19)
(0.884909 -0.798282 1.07312e-19)
(0.543273 -0.633586 1.42883e-19)
(0.858914 -0.429837 1.1294e-19)
(0.801738 -0.499038 1.63003e-19)
(0.725495 -0.574661 -1.0149e-19)
(0.611769 -0.642062 1.48245e-19)
(0.33988 -0.514951 3.88634e-20)
(0.679342 -0.29131 -1.29704e-19)
(0.589485 -0.335954 -5.84786e-20)
(0.489617 -0.39282 2.6989e-20)
(0.372925 -0.443423 -4.36132e-20)
(0.173466 -0.354716 -1.37009e-19)
(0.573723 -0.0576051 -4.52781e-19)
(0.488524 -0.0773638 -3.66116e-19)
(0.378549 -0.107248 2.96113e-19)
(0.249695 -0.143995 1.59231e-19)
(0.0763301 -0.134113 1.37454e-20)
(0.543515 0.147546 -1.50796e-19)
(0.457792 0.146585 -1.66828e-19)
(0.339078 0.142806 -4.89668e-20)
(0.197477 0.145472 5.0658e-20)
(0.0335323 0.110124 1.50396e-20)
(2.17106 -0.0384388 9.09223e-19)
(2.44155 -0.109025 3.1526e-19)
(2.52592 -0.201459 -8.30379e-19)
(2.39108 -0.226744 -1.78389e-18)
(1.46587 -0.215236 1.35281e-19)
(2.15043 -0.130134 1.54514e-18)
(2.23921 -0.247381 2.02936e-18)
(2.25981 -0.377076 1.68444e-19)
(2.19354 -0.439473 2.91076e-19)
(1.42961 -0.404037 -1.92672e-19)
(1.83211 -0.303439 -4.00728e-18)
(1.89676 -0.426347 4.5482e-19)
(1.95018 -0.558636 1.25339e-18)
(1.90274 -0.640543 -4.98822e-19)
(1.2526 -0.560171 7.92012e-19)
(1.60776 -0.432818 9.67968e-19)
(1.62678 -0.536493 -2.54811e-18)
(1.61564 -0.6617 -2.96081e-18)
(1.55432 -0.758632 9.30054e-19)
(1.01442 -0.640343 6.03666e-19)
(1.29625 -0.498948 2.23764e-19)
(1.2459 -0.598156 2.77726e-19)
(1.24062 -0.728631 -4.53582e-19)
(1.19261 -0.824322 -5.49756e-19)
(0.763301 -0.666529 -5.27746e-21)
(1.02542 0.0494961 7.32203e-21)
(0.961987 0.0440382 -1.92878e-21)
(1.12733 0.0843759 4.19536e-21)
(0.83275 -0.00965173 -2.47087e-19)
(1.16817 -0.233983 -1.74486e-20)
(1.04532 0.0547015 -2.46219e-21)
(0.936986 0.0353541 3.64887e-20)
(1.12492 0.102668 -1.13949e-20)
(0.911379 0.0314705 1.94047e-19)
(1.03889 -0.120259 -3.69049e-21)
(1.05211 0.0541051 -5.95484e-20)
(0.932175 0.0266416 1.5562e-22)
(1.10259 0.103617 -9.71553e-21)
(0.90696 0.050999 8.65197e-20)
(0.997691 -0.0580375 -2.41937e-19)
(1.03829 0.054977 7.11813e-20)
(0.958373 0.019262 2.8389e-21)
(1.06188 0.108793 2.46077e-20)
(0.939519 0.0743456 -2.99494e-20)
(0.887879 0.0516985 7.91997e-20)
(1.0126 0.0528606 1.76118e-20)
(0.992363 0.016144 -2.54991e-20)
(1.03258 0.116043 3.67084e-20)
(0.952711 0.0966841 5.30174e-20)
(0.855852 0.147662 -4.15166e-20)
(0.874286 0.0333004 0)
(0.74824 0.0292439 9.43972e-21)
(0.599735 0.0207971 5.77646e-21)
(0.378174 -0.012437 5.03383e-20)
(0.729255 -0.0578084 -1.63243e-19)
(0.990986 0.0683225 -6.22123e-20)
(0.993898 0.0672217 -9.05849e-21)
(1.0236 0.0828517 -5.663e-20)
(0.837864 -0.0122804 -1.38311e-19)
(1.07169 -0.215826 -1.7e-19)
(1.02339 -0.0654989 -3.71878e-20)
(1.1154 -0.0349937 5.75039e-19)
(1.22184 0.0388407 3.47158e-19)
(1.09305 0.0612586 3.03041e-20)
(0.846311 0.0334048 0)
(1.38198 -0.331824 3.7622e-19)
(1.50454 -0.292562 1.66684e-18)
(1.69955 -0.167997 -1.84026e-18)
(1.81314 -0.0231343 -5.74234e-19)
(1.72207 0.0343739 4.23715e-19)
)
;

boundaryField
{
    left
    {
        type            fixedValue;
        value           uniform (1 0 0);
    }
    right
    {
        type            zeroGradient;
    }
    down
    {
        type            noSlip;
    }
    up
    {
        type            noSlip;
    }
    cylinder
    {
        type            noSlip;
    }
    defaultFaces
    {
        type            empty;
    }
}


// ************************************************************************* //
