/*--------------------------------*- C++ -*----------------------------------*\
  =========                 |
  \\      /  F ield         | OpenFOAM: The Open Source CFD Toolbox
   \\    /   O peration     | Website:  https://openfoam.org
    \\  /    A nd           | Version:  13
     \\/     M anipulation  |
\*---------------------------------------------------------------------------*/
FoamFile
{
    format      ascii;
    class       volScalarField;
    location    "57.1";
    object      p;
}
// * * * * * * * * * * * * * * * * * * * * * * * * * * * * * * * * * * * * * //

dimensions      [0 2 -2 0 0 0 0];

internalField   nonuniform List<scalar> 
440
(
-0.9295
-0.913247
-0.904746
-0.867734
-0.914832
-1.00487
-0.985551
-0.961363
-0.931502
-0.905502
-1.12551
-1.09062
-1.04649
-0.989505
-0.926302
-1.26612
-1.21612
-1.11979
-1.00475
-0.888544
-1.35994
-1.29056
-1.13227
-0.968125
-0.818423
-1.04078
-1.07471
-1.13584
-1.18811
-1.22161
-1.06327
-1.07076
-1.08988
-1.11249
-1.12766
-1.0382
-1.02869
-1.02532
-1.03299
-1.04359
-0.974524
-0.956698
-0.931748
-0.907305
-0.89418
-0.893587
-0.879676
-0.852868
-0.806804
-0.798817
-1.33506
-0.612427
0.0761612
0.0874976
0.0135816
-1.23728
-0.939812
-0.0166898
-0.0324492
0.0113785
-1.26953
-1.19741
-0.0925214
-0.0368765
0.0115368
-1.08201
-1.2433
-0.147535
0.000705576
0.0155703
-0.869682
-1.17205
-0.175684
0.0098937
0.0191357
-0.595793
-0.948788
-0.155909
-0.00615373
0.0192567
-0.359499
-0.573863
-0.109286
-0.101005
-0.0147336
-0.273036
-0.347121
-0.101271
0.0827059
0.00219368
-0.19211
-0.216569
-0.113722
0.0196247
-0.00875807
-0.0682243
-0.222985
-0.132467
0.0628053
0.00400277
-0.566095
-0.674168
-0.8039
-0.945655
-1.045
-0.320195
-0.428848
-0.49972
-0.538246
-0.543576
-0.153616
-0.245268
-0.303303
-0.333009
-0.353649
-0.046293
-0.129294
-0.186975
-0.216406
-0.231874
0.00575633
-0.0756225
-0.126856
-0.145533
-0.135981
0.731815
0.578605
0.383691
0.168726
-0.06126
0.316198
0.156274
-0.0383364
-0.259003
-0.507079
-0.0856409
-0.248736
-0.454571
-0.684411
-0.918662
-0.433913
-0.600965
-0.809631
-1.03436
-1.21594
-0.671713
-0.840797
-1.03533
-1.23876
-1.35729
1.77671
1.80671
1.83304
1.84516
1.84019
1.58883
1.60902
1.62287
1.61919
1.59433
1.37986
1.3675
1.33161
1.27278
1.18852
1.14279
1.10853
1.0381
0.937648
0.810092
0.935719
0.830457
0.693497
0.537215
0.350519
1.56056
1.55415
1.52756
1.60068
1.66188
1.55135
1.54396
1.50934
1.58376
1.57366
1.5433
1.53085
1.48849
1.55566
1.4566
1.53648
1.515
1.46669
1.5112
1.28985
1.5308
1.49977
1.44452
1.46681
1.10974
1.52725
1.4744
1.41702
1.36719
0.902654
1.52656
1.445
1.41678
1.24143
1.035
1.53235
1.43019
1.41397
1.17329
1.08599
1.53339
1.40493
1.40604
1.11102
1.11039
1.56728
1.40264
1.40381
1.07045
1.15503
0.701091
0.396252
0.0615261
-0.230751
-0.414557
0.592035
0.380845
0.15843
-0.0337038
-0.197711
0.572636
0.404695
0.242507
0.0970247
-0.0423095
0.631792
0.474283
0.325561
0.189062
0.0617598
0.681462
0.518774
0.369758
0.234575
0.110946
-1.67904
-1.53465
-1.36318
-1.22119
-1.13511
-1.78343
-1.70708
-1.56542
-1.44241
-1.35838
-1.73794
-1.68328
-1.58548
-1.48896
-1.40805
-1.61752
-1.57317
-1.51143
-1.44057
-1.36526
-1.49162
-1.47194
-1.43763
-1.38908
-1.32623
-1.44877
-1.44384
-1.42128
-1.40923
-1.31396
-1.39413
-1.38697
-1.36841
-1.36612
-1.30776
-1.40457
-1.40214
-1.39893
-1.39944
-1.38213
-1.49506
-1.53637
-1.59542
-1.64709
-1.68798
-1.17923
-1.27135
-1.38108
-1.47887
-1.55571
-1.02554
-0.1442
0.26662
0.297444
-0.00171835
-1.06724
-0.140403
0.330215
0.309003
-0.00402023
-1.21621
-0.189067
0.291753
0.277187
-0.00112838
-1.64257
-0.24263
0.16557
0.205952
0.00494728
-1.66877
-0.368899
0.107279
0.152557
0.0102358
-0.605157
-0.324683
0.157536
0.271555
0.0078184
-0.861592
-0.219597
0.226501
0.301591
0.0110176
-1.08398
-1.30751
-1.32346
-1.2499
-1.0133
-1.10411
-1.31657
-1.34756
-1.2746
-1.19977
1.40973
1.38816
1.34976
1.29561
1.22395
1.60385
1.62308
1.62856
1.61835
1.59242
1.76627
1.79865
1.82509
1.84017
1.84108
1.86187
1.90028
1.94089
1.9738
1.98881
1.85989
1.89572
1.93533
1.9679
1.98253
-0.690204
-0.794003
-0.954868
-1.14906
-1.36926
-0.102827
-0.232334
-0.405825
-0.614633
-0.871669
0.430145
0.294637
0.13267
-0.0574822
-0.290039
0.856938
0.752284
0.625253
0.472113
0.288872
1.19868
1.12599
1.03246
0.920869
0.790222
1.62029
1.57985
1.56009
1.56458
1.56222
1.60534
1.57754
1.5602
1.58049
1.62873
1.59276
1.57408
1.55904
1.60288
1.70222
1.58113
1.56929
1.55286
1.61179
1.71596
1.57035
1.56306
1.54188
1.61135
1.70674
1.67622
1.58569
1.547
1.48655
1.42386
1.63055
1.57628
1.54201
1.50452
1.44468
1.0873
0.866008
0.48661
-0.0607902
-0.657648
1.1645
0.897154
0.503679
-0.0403764
-0.650719
)
;

boundaryField
{
    left
    {
        type            zeroGradient;
    }
    right
    {
        type            fixedValue;
        value           uniform 0;
    }
    down
    {
        type            zeroGradient;
    }
    up
    {
        type            zeroGradient;
    }
    cylinder
    {
        type            zeroGradient;
    }
    defaultFaces
    {
        type            empty;
    }
}


// ************************************************************************* //
