/*--------------------------------*- C++ -*----------------------------------*\
  =========                 |
  \\      /  F ield         | OpenFOAM: The Open Source CFD Toolbox
   \\    /   O peration     | Website:  https://openfoam.org
    \\  /    A nd           | Version:  13
     \\/     M anipulation  |
\*---------------------------------------------------------------------------*/
FoamFile
{
    format      ascii;
    class       volVectorField;
    location    "31.4";
    object      U;
}
// * * * * * * * * * * * * * * * * * * * * * * * * * * * * * * * * * * * * * //

dimensions      [0 1 -1 0 0 0 0];

internalField   nonuniform List<vector> 
440
(
(-0.0870548 0.0733903 -6.85722e-20)
(-0.0548283 0.0891881 1.97541e-20)
(0.191494 0.0440564 2.5874e-20)
(0.64473 -0.000382283 1.30013e-19)
(0.959606 -0.0514096 6.90793e-21)
(-0.067025 0.0389674 5.1309e-20)
(0.190776 -0.0327923 -1.36646e-19)
(0.800038 -0.11126 -1.27177e-19)
(1.40514 -0.168913 4.42219e-20)
(1.97548 -0.218175 -1.39857e-20)
(0.029463 -0.0161428 5.43389e-20)
(0.718464 -0.0925411 9.62147e-19)
(1.55931 -0.108332 -7.13054e-19)
(2.14813 -0.0978768 -2.2445e-18)
(2.55258 -0.103015 1.02772e-18)
(0.287837 -0.0636695 -1.83579e-19)
(1.42505 -0.0240097 -7.30759e-19)
(2.18372 0.0213662 2.37298e-18)
(2.5325 0.0395085 2.69965e-18)
(2.55293 0.0404986 -7.41899e-19)
(0.685913 -0.00261237 -3.48742e-19)
(1.92362 0.171198 -7.77935e-19)
(2.42895 0.229033 2.41815e-18)
(2.54284 0.230885 2.50927e-18)
(2.62972 0.206459 8.43317e-19)
(-0.0581009 0.366336 3.41987e-19)
(-0.213126 0.459882 3.92401e-19)
(-0.37686 0.471676 -1.26881e-18)
(-0.534199 0.454112 2.15568e-19)
(-0.600373 0.359392 1.11258e-18)
(-0.0775119 0.455205 -1.40442e-19)
(-0.092226 0.678811 -7.92968e-19)
(-0.0831979 0.72545 4.71939e-20)
(-0.0433782 0.713667 5.89942e-20)
(-0.0209372 0.639628 -1.53782e-19)
(-0.0790043 0.266563 -8.85954e-20)
(-0.0690594 0.483113 4.2738e-20)
(-0.0156451 0.540156 3.47947e-20)
(0.0878584 0.5287 -6.23073e-19)
(0.128422 0.473584 1.32192e-20)
(-0.0688167 0.129194 -5.42822e-20)
(-0.0931981 0.262755 8.54014e-20)
(-0.0554818 0.296294 -5.3089e-20)
(0.0412934 0.265838 -6.27218e-20)
(0.15094 0.175738 3.77826e-21)
(-0.0810129 0.0934024 4.2627e-21)
(-0.116529 0.163678 -5.43978e-21)
(-0.0501163 0.167792 3.82268e-21)
(0.126691 0.120301 -4.5702e-20)
(0.345301 0.07642 -1.51009e-19)
(-0.283012 -0.601605 -2.04651e-18)
(1.41509 -0.809057 1.48343e-18)
(1.18008 1.12502 8.90745e-19)
(0.709578 0.364646 3.59248e-19)
(1.11752 -0.487556 -2.82445e-20)
(1.2619 -0.908981 1.68397e-18)
(1.35665 -0.922424 -6.64782e-20)
(0.761202 1.23644 3.78192e-20)
(0.835361 0.308334 2.62747e-19)
(1.29864 -0.527196 -5.80508e-20)
(2.05906 -1.08699 7.63571e-20)
(0.541678 -0.837356 -1.00823e-18)
(0.397425 1.2595 4.98239e-20)
(1.04558 0.158171 3.42901e-19)
(1.46954 -0.573274 3.77872e-20)
(1.71949 -1.0674 -9.09587e-20)
(-0.608996 -0.718542 3.81243e-20)
(0.711135 1.12084 1.55702e-18)
(1.36876 0.0403494 6.0674e-19)
(1.66246 -0.59264 -3.15814e-19)
(1.86706 -0.926408 -2.23754e-19)
(-0.29734 -0.733438 9.86882e-19)
(0.438683 0.867772 0)
(1.77682 -0.0555058 -3.30702e-19)
(1.85169 -0.597626 -1.39996e-19)
(2.46933 -0.799136 -5.86384e-19)
(1.70211 -0.596245 1.44375e-19)
(0.371332 0.391782 2.78158e-20)
(2.21762 -0.34488 1.41227e-19)
(1.96244 -0.613764 2.78216e-19)
(2.31934 -0.819036 8.01285e-20)
(1.1778 -0.148804 1.59968e-20)
(0.765224 0.581913 1.47438e-20)
(2.35551 -0.491582 1.48883e-19)
(1.82475 -0.526294 0)
(2.25979 -0.408817 -6.16144e-19)
(1.1155 -0.0207144 2.08366e-20)
(1.60851 0.129281 5.76225e-19)
(2.37729 -0.623756 -2.51437e-19)
(1.4332 -0.444037 1.28536e-20)
(1.90669 -0.31458 -3.71875e-21)
(1.21839 0.0322039 6.0382e-20)
(1.92727 -0.0251204 1.41391e-20)
(1.78766 -0.409449 1.27108e-33)
(0.700568 -0.211301 -6.53599e-21)
(0.999702 -0.0253846 8.13993e-20)
(0.841543 -0.0164121 1.80662e-20)
(1.03166 -0.128933 -3.55801e-20)
(0.297577 -0.0769138 9.70254e-20)
(-0.289262 0.000243607 -3.07642e-20)
(2.43962 0.226682 -1.07811e-18)
(2.72009 -0.0343176 -1.3972e-18)
(2.43717 -0.00754183 1.20274e-18)
(2.81555 -0.284386 -4.96192e-22)
(2.14813 -0.130297 -5.58058e-20)
(2.15427 0.167634 4.02544e-20)
(2.47789 -0.0530047 -4.54022e-20)
(2.28058 -0.0180514 -1.52199e-19)
(2.50744 -0.256271 -2.52473e-19)
(2.35467 -0.269076 -6.61252e-21)
(2.10058 0.0539254 6.67884e-20)
(2.22721 -0.0222241 1.28295e-19)
(2.19218 -0.0797884 -1.89322e-19)
(2.25702 -0.149344 5.93754e-20)
(2.23858 -0.238801 6.91812e-20)
(2.02009 0.0103538 1.10108e-19)
(1.98383 -0.0331703 9.24174e-20)
(2.08552 -0.060867 -1.6032e-20)
(2.02313 -0.110427 4.02196e-20)
(2.11452 -0.138557 1.30616e-20)
(1.45308 -0.0202666 1.50597e-19)
(1.36212 -0.0165731 -1.23272e-20)
(1.45487 -0.0375116 2.54234e-20)
(1.31795 -0.0264805 -9.7537e-22)
(1.42782 -0.0594946 5.19603e-20)
(1.62816 0.847967 1.19345e-18)
(1.56962 0.948054 -3.79646e-19)
(1.5672 1.085 -1.43325e-18)
(1.50128 1.13829 7.84368e-19)
(0.926248 0.828758 -1.84976e-19)
(1.92006 0.809687 -6.18432e-19)
(1.88045 0.886465 -3.19595e-18)
(1.88305 0.996099 -1.23137e-18)
(1.80177 1.01731 -4.4424e-19)
(1.11169 0.730023 -7.25694e-19)
(2.23075 0.678486 8.27675e-19)
(2.21035 0.751743 2.16144e-19)
(2.1871 0.84713 -2.40973e-18)
(2.05925 0.83905 -7.00304e-19)
(1.23605 0.574155 5.41684e-19)
(2.41558 0.563622 2.51897e-18)
(2.39121 0.61065 1.84909e-18)
(2.38883 0.668414 -2.15855e-18)
(2.19116 0.632783 -1.65328e-18)
(1.22633 0.38313 -3.20922e-19)
(2.54034 0.382664 1.29759e-18)
(2.57289 0.411839 -9.32451e-19)
(2.49141 0.443148 6.54939e-19)
(2.16735 0.396037 5.52161e-19)
(1.05352 0.173773 -4.85658e-19)
(0.574873 0.484445 -6.25974e-19)
(0.485183 0.520421 -4.74039e-19)
(0.367203 0.55656 5.2651e-20)
(0.229541 0.566048 -2.97473e-21)
(0.0574985 0.413112 9.24896e-20)
(0.679795 0.660664 1.31579e-19)
(0.616782 0.722774 -2.83239e-19)
(0.530595 0.793238 1.92404e-19)
(0.406041 0.848096 -8.98028e-20)
(0.178316 0.644417 1.26763e-19)
(0.785331 0.843931 1.27366e-19)
(0.710182 0.925419 4.93374e-19)
(0.655371 1.02591 1.15737e-19)
(0.574554 1.07196 -3.23387e-19)
(0.316844 0.794671 2.72656e-19)
(1.07671 0.924671 2.46457e-19)
(1.03012 1.0086 -7.3895e-19)
(0.977252 1.10643 -2.02015e-18)
(0.893677 1.17449 8.15168e-19)
(0.528241 0.878364 -1.74143e-19)
(1.13607 0.957865 -1.13013e-19)
(1.17564 1.0852 -1.93269e-19)
(1.20742 1.20539 -3.8446e-19)
(1.15953 1.23402 -4.37508e-19)
(0.716149 0.891356 -6.99806e-21)
(1.02498 0.0488008 -1.05179e-19)
(0.985612 0.0511629 -3.76642e-20)
(1.032 0.120366 -1.46424e-21)
(0.94927 0.157143 -3.14926e-19)
(0.892219 0.300194 3.24242e-19)
(1.01693 0.04521 6.68268e-20)
(0.995025 0.0520632 1.32731e-19)
(1.02231 0.125824 1.40954e-19)
(0.988062 0.185839 4.45974e-20)
(0.938289 0.378814 -2.1438e-20)
(1.02513 0.0436372 9.10344e-20)
(0.972457 0.0471961 -4.94321e-21)
(1.07336 0.143098 -7.08747e-21)
(0.941649 0.184131 1.59657e-19)
(1.16086 0.524907 -5.19041e-19)
(1.02108 0.0436381 -3.84635e-22)
(0.981281 0.0410487 -1.82992e-19)
(1.07921 0.153891 -7.29631e-20)
(1.03874 0.19253 -4.09559e-19)
(1.16113 0.567481 1.00711e-19)
(1.01744 0.0391004 -1.60857e-20)
(0.976794 0.0398312 4.97694e-20)
(1.14102 0.153601 3.4509e-20)
(0.995705 0.221451 4.79206e-19)
(1.44066 0.702925 -4.93042e-19)
(0.980986 0.0441584 -1.32423e-20)
(1.02744 0.014947 1.01206e-19)
(1.14366 0.179242 -9.02787e-20)
(1.23069 0.143787 8.90657e-19)
(1.29387 0.729949 -3.87733e-19)
(0.919564 0.0230036 -1.4206e-21)
(1.10531 -0.00112921 -1.00198e-19)
(1.14406 0.0940836 4.98962e-21)
(1.34609 0.176107 -2.5737e-19)
(1.2047 0.46092 -3.72398e-20)
(0.950654 0.0291005 -2.39815e-21)
(1.12527 -0.0438489 1.53669e-35)
(1.17842 0.0687319 -6.01217e-20)
(1.2291 0.162061 7.80315e-20)
(1.43069 0.299407 1.82047e-19)
(1.06039 -0.0237284 4.04517e-21)
(1.06388 -0.0676492 -2.5176e-20)
(1.10621 0.041765 1.753e-20)
(1.14953 0.101535 2.93772e-20)
(1.60695 0.163512 -2.76854e-19)
(0.990943 -0.0244171 -4.0012e-20)
(0.822091 -0.0245216 -2.02238e-21)
(0.813274 0.0143794 2.6964e-20)
(0.917985 0.00680718 -1.11647e-20)
(1.17923 0.0336985 -6.35136e-20)
(1.90777 0.635673 3.19743e-19)
(1.9552 0.657081 8.15998e-19)
(2.27058 0.518193 -1.17949e-18)
(2.27718 0.488113 3.81244e-20)
(2.55069 0.267336 5.09549e-19)
(1.78787 0.383669 8.21866e-20)
(1.76503 0.414066 1.05118e-18)
(2.07282 0.313626 1.15335e-19)
(1.98482 0.319933 -9.65163e-19)
(2.32263 0.139425 -3.11046e-19)
(1.7295 0.266095 -2.36395e-19)
(1.80768 0.24335 -1.55648e-19)
(1.94415 0.198852 2.13783e-19)
(1.97024 0.165327 -3.00789e-19)
(2.12132 0.0914849 2.70214e-19)
(1.68977 0.139083 3.63794e-19)
(1.80366 0.12033 -4.80303e-21)
(1.80527 0.0970581 2.20056e-19)
(1.9198 0.073937 1.83715e-19)
(1.90713 0.0355539 -1.77087e-19)
(1.30189 0.0318446 -4.22888e-20)
(1.35797 0.0214031 2.31769e-19)
(1.34859 0.0142885 1.01891e-19)
(1.41291 -0.000111526 -2.1311e-19)
(1.37253 -0.00460855 4.9991e-22)
(1.10379 -0.0216719 5.06402e-20)
(2.11514 -0.0487775 -3.92352e-19)
(2.35265 -0.0371543 1.1133e-18)
(2.34229 0.00370968 5.00407e-19)
(2.18802 0.0316663 -3.37839e-19)
(0.673019 0.0888302 8.85966e-20)
(1.89028 0.0771013 -4.06886e-19)
(2.36429 0.0802108 -5.42764e-19)
(2.42304 0.0913334 6.65473e-19)
(2.17116 0.0808559 -4.17025e-19)
(0.189007 0.0681469 -2.77128e-20)
(1.25321 0.134655 4.22729e-19)
(2.01539 0.15734 6.22287e-20)
(2.41784 0.150867 3.95511e-19)
(2.58679 0.150179 1.95444e-19)
(-0.0536678 -0.0316138 1.85258e-19)
(0.426991 0.0619818 1.82773e-19)
(1.2274 0.134975 -3.89563e-19)
(1.73362 0.17265 2.14239e-20)
(2.34584 0.204818 3.712e-20)
(-0.105657 -0.0856936 1.22469e-19)
(-0.027997 -0.063339 -1.39165e-19)
(0.408565 0.0138242 -2.10697e-20)
(0.873331 0.042876 6.35183e-21)
(1.31675 0.115602 -4.09991e-20)
(-0.0805989 -0.083545 1.06839e-20)
(-0.146198 -0.127651 7.37247e-20)
(-0.0522244 -0.135821 6.46848e-20)
(0.12965 -0.116426 -7.79513e-20)
(0.514266 -0.0528436 2.48807e-21)
(-0.0425449 -0.0579185 -5.1972e-21)
(-0.116899 -0.137837 -2.25378e-20)
(-0.141679 -0.2037 -9.95795e-21)
(-0.113836 -0.237785 3.24613e-21)
(0.019768 -0.191935 5.04755e-21)
(-0.0197403 -0.032769 2.47351e-21)
(-0.0784185 -0.127738 5.66603e-20)
(-0.123381 -0.229557 -3.19755e-20)
(-0.153236 -0.300226 -7.98569e-20)
(-0.143508 -0.311354 3.80109e-20)
(-0.0111476 -0.00351217 -7.11539e-21)
(-0.0768992 -0.103134 -4.88792e-20)
(-0.142304 -0.197712 1.54529e-19)
(-0.212718 -0.241579 1.70755e-19)
(-0.26839 -0.244414 -5.93559e-20)
(-0.0180065 0.104797 7.90485e-21)
(-0.146489 0.0650942 -1.54271e-20)
(-0.289012 0.0523045 -3.95662e-21)
(-0.443073 0.0862883 9.2783e-20)
(-0.577405 0.0850211 2.58165e-19)
(1.43311 0.578612 -1.92534e-20)
(1.50325 0.273483 1.07808e-18)
(1.02475 0.33937 1.05913e-19)
(-0.127468 -0.00588867 1.42259e-19)
(0.422306 -0.28836 -3.47638e-20)
(1.08348 0.412836 7.07302e-20)
(1.5518 0.274683 -5.87505e-19)
(1.33681 0.508123 5.96894e-19)
(0.180557 0.0685432 1.14227e-20)
(0.47232 -0.340898 1.72023e-19)
(0.319917 0.160054 2.41702e-19)
(1.4872 0.180584 -5.1847e-19)
(1.44947 0.692143 -6.04053e-20)
(0.364008 0.192163 6.68571e-20)
(0.606026 -0.379456 -2.20944e-20)
(-0.529939 -0.0583267 1.77821e-19)
(1.46018 -0.0426926 -1.01607e-18)
(1.44601 0.835485 -5.41164e-19)
(0.509282 0.273899 -1.03037e-21)
(0.773474 -0.41459 -1.15536e-19)
(-1.03069 -0.217438 2.13282e-19)
(1.44089 -0.423337 -4.38199e-19)
(1.38701 0.993211 7.23057e-19)
(0.63579 0.354958 -1.21696e-20)
(0.950141 -0.438953 -1.96367e-19)
(0.203898 0.186147 -6.26198e-20)
(-0.260972 -0.146382 0)
(-0.230953 -0.0918131 1.55474e-20)
(-0.345266 -0.0559673 3.1039e-20)
(0.288133 -0.0364951 4.59708e-21)
(1.79486 0.527915 0)
(1.28759 0.288352 0)
(0.693927 0.0980004 2.7732e-20)
(-0.331709 -0.0802153 -4.08937e-20)
(0.489125 -0.17376 1.03895e-19)
(0.694367 0.00102385 -1.12807e-19)
(0.719081 -0.00625704 1.142e-19)
(0.973243 -0.00184632 -4.53885e-20)
(0.941222 0.0053865 3.07199e-19)
(1.39396 0.0797058 2.17034e-19)
(1.58143 0.0239541 1.05865e-19)
(1.71591 0.0647599 1.91271e-19)
(1.91336 0.0344352 -2.94614e-19)
(2.47405 0.181616 -1.59397e-20)
(2.20321 0.104905 1.38436e-19)
(0.87357 -0.452412 -2.26902e-20)
(0.858136 -0.537257 -1.39788e-19)
(0.847344 -0.629432 -1.03385e-19)
(0.774354 -0.691863 6.33546e-20)
(0.464352 -0.535591 1.13162e-19)
(0.778241 -0.357405 1.28916e-19)
(0.722674 -0.418629 2.68967e-19)
(0.647696 -0.484135 -2.98241e-20)
(0.533032 -0.537664 1.18617e-19)
(0.284865 -0.421777 4.4521e-20)
(0.628463 -0.216938 -1.66429e-19)
(0.538408 -0.251968 -4.30208e-20)
(0.436172 -0.29662 1.33567e-19)
(0.319314 -0.33669 -8.77958e-21)
(0.137936 -0.266466 -9.98121e-20)
(0.537448 0.0160344 -4.39712e-19)
(0.451695 0.00371723 -3.65236e-19)
(0.34253 -0.0181062 2.8482e-19)
(0.216387 -0.0487416 1.86581e-19)
(0.055795 -0.0574223 1.39598e-20)
(0.516645 0.223044 -1.8266e-19)
(0.430638 0.229405 -1.79039e-19)
(0.315479 0.235094 -8.25715e-20)
(0.180872 0.241622 1.33896e-20)
(0.0250729 0.180039 1.12509e-20)
(1.94158 -0.0408738 7.28618e-19)
(2.19935 -0.104392 2.57779e-19)
(2.27025 -0.184748 -6.75409e-19)
(2.11492 -0.211392 -1.35849e-18)
(1.25448 -0.178335 1.05036e-19)
(1.92518 -0.119189 1.22508e-18)
(2.01226 -0.225047 1.61146e-18)
(2.02478 -0.341133 1.32198e-19)
(1.93977 -0.397778 2.28212e-19)
(1.22756 -0.340086 -1.50193e-19)
(1.64843 -0.275541 -3.19128e-18)
(1.70742 -0.387214 3.76048e-19)
(1.74869 -0.504903 9.91361e-19)
(1.6816 -0.573771 -3.78746e-19)
(1.07896 -0.476436 5.88972e-19)
(1.44392 -0.391006 7.56486e-19)
(1.45937 -0.483437 -1.98193e-18)
(1.44271 -0.594228 -2.2956e-18)
(1.3698 -0.674435 6.9918e-19)
(0.873865 -0.546277 4.64275e-19)
(1.16863 -0.446104 1.55816e-19)
(1.12063 -0.533926 2.14507e-19)
(1.10674 -0.648009 -3.41943e-19)
(1.04762 -0.725794 -4.12088e-19)
(0.656264 -0.567897 -3.85436e-21)
(1.0733 0.0570854 7.9013e-21)
(0.914771 0.0600399 -6.34028e-21)
(1.11742 0.079349 -8.03166e-21)
(0.788902 0.0175403 -1.78155e-19)
(1.07633 -0.196003 -6.1868e-21)
(1.08261 0.0603355 -2.62855e-21)
(0.914127 0.0589922 5.66243e-20)
(1.11352 0.0966748 -5.61698e-20)
(0.878467 0.0638066 8.84896e-20)
(0.962841 -0.0792039 -2.61607e-20)
(1.08072 0.057254 -6.4655e-20)
(0.918709 0.0566737 5.63227e-22)
(1.10144 0.0973631 -2.29981e-20)
(0.878049 0.0897856 -1.23792e-21)
(0.94333 -0.0203298 -1.44291e-19)
(1.06129 0.0553691 7.93646e-20)
(0.948638 0.0537296 3.66242e-21)
(1.0631 0.103586 3.67269e-20)
(0.921681 0.115033 4.47915e-20)
(0.854316 0.0936979 1.22621e-19)
(1.03707 0.0513384 2.01269e-20)
(0.978567 0.0541997 -3.20406e-20)
(1.03158 0.107677 4.96452e-20)
(0.951325 0.143587 8.78028e-20)
(0.834483 0.192975 -1.36529e-19)
(0.891626 0.033983 0)
(0.700414 0.0283215 1.0575e-20)
(0.599003 0.0234881 2.58583e-21)
(0.328855 -0.00554054 3.98881e-20)
(0.634307 -0.0511317 -1.02789e-19)
(1.0401 0.0762052 -6.65229e-20)
(0.925321 0.074464 -2.17802e-20)
(1.01902 0.0796524 -2.44747e-20)
(0.789847 0.00935975 -9.1577e-20)
(0.989827 -0.179793 -1.09706e-19)
(0.87832 -0.0613823 -2.48298e-20)
(0.958807 -0.0300031 4.31834e-19)
(1.04195 0.0361503 2.72186e-19)
(0.9195 0.0505516 2.35532e-20)
(0.713241 0.0260921 0)
(1.24411 -0.300531 2.42227e-19)
(1.35198 -0.26566 1.27391e-18)
(1.51754 -0.15086 -1.45401e-18)
(1.60469 -0.021695 -4.51127e-19)
(1.50557 0.0241472 3.33578e-19)
)
;

boundaryField
{
    left
    {
        type            fixedValue;
        value           uniform (1 0 0);
    }
    right
    {
        type            zeroGradient;
    }
    down
    {
        type            noSlip;
    }
    up
    {
        type            noSlip;
    }
    cylinder
    {
        type            noSlip;
    }
    defaultFaces
    {
        type            empty;
    }
}


// ************************************************************************* //
