/*--------------------------------*- C++ -*----------------------------------*\
  =========                 |
  \\      /  F ield         | OpenFOAM: The Open Source CFD Toolbox
   \\    /   O peration     | Website:  https://openfoam.org
    \\  /    A nd           | Version:  13
     \\/     M anipulation  |
\*---------------------------------------------------------------------------*/
FoamFile
{
    format      ascii;
    class       volVectorField;
    location    "4.75";
    object      U;
}
// * * * * * * * * * * * * * * * * * * * * * * * * * * * * * * * * * * * * * //

dimensions      [0 1 -1 0 0 0 0];

internalField   nonuniform List<vector> 
1800
(
(-0.0229925 0.0193721 5.46207e-21)
(-0.0576919 0.0395871 2.12139e-21)
(-0.077174 0.0506124 -8.65061e-21)
(-0.0786599 0.0575636 1.46898e-20)
(-0.0582207 0.0650334 3.66988e-20)
(-0.0123304 0.0758981 9.72263e-21)
(0.0619733 0.0924444 6.34981e-21)
(0.163753 0.115509 1.02907e-19)
(0.302689 0.166887 1.81007e-19)
(0.371561 0.205904 1.77258e-19)
(-0.0310593 0.023151 4.13202e-21)
(-0.0633594 0.0438268 -2.36198e-20)
(-0.0636805 0.0498664 2.26943e-22)
(-0.02986 0.0466516 -2.41298e-20)
(0.0415367 0.0390522 6.25586e-21)
(0.153343 0.0302433 6.97956e-20)
(0.30651 0.0225231 -3.47144e-20)
(0.495785 0.0139378 1.62255e-21)
(0.731914 0.0334943 -2.38543e-19)
(0.855339 0.049197 1.94225e-19)
(-0.0345831 0.0226314 3.27184e-21)
(-0.0535372 0.0388408 1.21516e-20)
(-0.0210672 0.0398508 1.13419e-20)
(0.0638118 0.0308685 -1.29351e-20)
(0.202697 0.0173072 -9.30193e-20)
(0.393535 0.00310772 2.00648e-20)
(0.628712 -0.0086459 3.41555e-20)
(0.894168 -0.017928 -6.69352e-21)
(1.18372 -0.0148046 4.38891e-22)
(1.4112 -0.022886 6.33604e-21)
(-0.0317047 0.0177967 -5.94824e-21)
(-0.0214895 0.0234601 -1.95593e-20)
(0.0635885 0.0165466 -2.14771e-20)
(0.222051 0.00262819 1.43379e-20)
(0.448699 -0.0123612 2.20938e-20)
(0.72929 -0.0239817 5.47227e-21)
(1.04094 -0.0298805 -2.11751e-21)
(1.35761 -0.0293351 5.13902e-20)
(1.65749 -0.0242333 3.39115e-20)
(1.90572 -0.0207069 -1.58061e-20)
(-0.0205042 0.0104252 4.26001e-20)
(0.0399184 0.00393395 4.28563e-20)
(0.201133 -0.00901266 -2.60702e-20)
(0.453155 -0.0221863 -3.15921e-20)
(0.774022 -0.0297922 -1.04913e-19)
(1.12862 -0.0293254 1.4792e-21)
(1.47799 -0.0216283 1.26889e-19)
(1.7902 -0.00939288 5.55165e-20)
(2.04425 0.00348591 -7.99222e-22)
(2.23956 0.0095682 -5.68102e-20)
(0.00325568 0.00105548 -4.36954e-20)
(0.13961 -0.0156095 7.931e-21)
(0.39906 -0.0282893 1.63597e-19)
(0.752005 -0.031329 -5.33362e-20)
(1.14888 -0.0227881 -1.11243e-19)
(1.53388 -0.0055204 2.25829e-19)
(1.86385 0.0151885 -2.34843e-19)
(2.11681 0.0343403 -3.37037e-19)
(2.29189 0.0481963 2.82254e-19)
(2.39986 0.055619 5.52497e-21)
(0.0431851 -0.00844318 5.87725e-20)
(0.281348 -0.0285565 -1.31625e-19)
(0.650371 -0.0307072 -4.08864e-19)
(1.08836 -0.0139782 1.88994e-19)
(1.51767 0.0147715 4.12772e-19)
(1.87817 0.0462002 -1.62339e-21)
(2.14337 0.073074 -9.17325e-19)
(2.3161 0.0917941 6.71407e-21)
(2.41549 0.102856 1.15988e-18)
(2.46544 0.104566 3.22843e-19)
(0.100894 -0.0148223 4.88071e-20)
(0.460369 -0.026655 2.87876e-19)
(0.931965 -0.00695184 3.32335e-19)
(1.41756 0.0344466 -9.50665e-20)
(1.82979 0.0799676 -3.87776e-19)
(2.12888 0.117632 -1.50819e-19)
(2.31815 0.143042 0)
(2.42308 0.157019 5.00116e-19)
(2.47301 0.162288 -1.21548e-20)
(2.49083 0.160798 -4.91097e-19)
(0.174698 -0.0141463 4.86851e-20)
(0.66225 -0.00252695 3.12369e-19)
(1.21096 0.0477034 5.54214e-19)
(1.701 0.111911 -5.71273e-19)
(2.06327 0.166496 -5.06925e-19)
(2.2921 0.203132 2.11097e-19)
(2.41664 0.223045 -1.02502e-18)
(2.4733 0.230783 -7.89292e-19)
(2.49109 0.231058 9.76999e-19)
(2.48733 0.225096 8.53851e-19)
(0.259585 -0.00280459 -3.8476e-20)
(0.866565 0.0477411 2.43068e-19)
(1.45804 0.131856 1.49734e-19)
(1.92042 0.212542 -1.19922e-18)
(2.22115 0.268644 4.15879e-20)
(2.38657 0.299356 2.50024e-18)
(2.46151 0.311289 -1.47225e-18)
(2.48528 0.311724 -8.68128e-19)
(2.48345 0.305741 3.11837e-19)
(2.46854 0.295191 -7.1229e-19)
(0.00250114 -0.159716 -2.20109e-19)
(-0.0242826 -0.305497 -9.72722e-21)
(-0.0715561 -0.362313 1.52076e-21)
(-0.126547 -0.383683 2.50904e-20)
(-0.180475 -0.394925 4.84801e-21)
(-0.230405 -0.403046 2.19274e-19)
(-0.275334 -0.407582 2.29183e-21)
(-0.314949 -0.406829 -2.39666e-19)
(-0.350973 -0.399927 -1.80371e-20)
(-0.388329 -0.387116 4.98422e-20)
(0.0070564 -0.111064 -2.76932e-20)
(-0.0246916 -0.201686 -6.86871e-20)
(-0.0794777 -0.233326 8.12785e-20)
(-0.142898 -0.2474 3.84434e-20)
(-0.205674 -0.260426 1.23874e-19)
(-0.264992 -0.274625 1.92141e-19)
(-0.319953 -0.287354 -1.89598e-19)
(-0.370284 -0.296083 -1.63115e-19)
(-0.417325 -0.299553 3.10616e-19)
(-0.464214 -0.297177 -7.61763e-20)
(0.00573065 -0.0579315 2.35725e-20)
(-0.0260558 -0.0930709 -9.88213e-20)
(-0.0778542 -0.0978993 -3.39301e-20)
(-0.137792 -0.100339 -1.10476e-19)
(-0.198172 -0.109964 -2.96211e-20)
(-0.25653 -0.125743 2.8067e-19)
(-0.311829 -0.143474 1.52003e-20)
(-0.363513 -0.159731 -2.40719e-19)
(-0.411732 -0.172479 2.29114e-19)
(-0.457407 -0.179857 1.22554e-19)
(0.00145012 -0.0176438 3.47774e-20)
(-0.0255966 -0.00850708 7.54092e-21)
(-0.0665039 0.0136742 -1.14126e-20)
(-0.113709 0.0295478 5.44777e-20)
(-0.161852 0.0320477 -6.60601e-20)
(-0.20897 0.0227235 -7.22632e-20)
(-0.254434 0.00637486 -2.12161e-20)
(-0.297618 -0.0125564 -1.24616e-21)
(-0.336918 -0.0308396 -2.23237e-20)
(-0.369785 -0.0452821 2.75939e-21)
(-0.00168428 0.00118858 0)
(-0.0219643 0.034085 -1.6443e-20)
(-0.0495375 0.0772719 3.01138e-20)
(-0.0800784 0.114691 3.39222e-21)
(-0.110821 0.137609 4.69487e-20)
(-0.140629 0.144418 7.09086e-22)
(-0.169063 0.138114 -1.10745e-20)
(-0.195937 0.123182 5.09772e-20)
(-0.219754 0.104192 0)
(-0.232917 0.0859094 6.19528e-22)
(-0.00114012 0.00280456 -9.59086e-21)
(-0.0147227 0.038265 1.32685e-20)
(-0.0322863 0.0887284 2.94441e-20)
(-0.0503574 0.139887 -4.3306e-20)
(-0.066823 0.181509 3.59425e-20)
(-0.0807694 0.20847 -2.75146e-20)
(-0.0917965 0.219994 5.0417e-20)
(-0.099163 0.218121 -2.05417e-20)
(-0.104192 0.20481 -1.71325e-19)
(-0.098651 0.186041 -1.17043e-21)
(0.00158713 -0.00219502 1.61363e-21)
(-0.00770927 0.022995 3.42459e-20)
(-0.0214876 0.0665552 -3.30494e-20)
(-0.0353909 0.116734 -6.07086e-21)
(-0.0467258 0.163943 -9.06493e-21)
(-0.0541338 0.201587 -5.28725e-20)
(-0.0570816 0.226115 -4.74385e-20)
(-0.0553204 0.236199 -1.04064e-19)
(-0.0484527 0.231107 1.01077e-19)
(-0.030195 0.213769 1.8887e-19)
(0.00285256 -0.00482879 1.07375e-20)
(-0.00689537 0.00926704 -1.60862e-20)
(-0.0232141 0.0398296 -3.76878e-20)
(-0.0407759 0.0788079 1.37314e-20)
(-0.0559379 0.11925 5.83829e-21)
(-0.0667719 0.155307 1.14933e-19)
(-0.0722089 0.182635 1.4805e-19)
(-0.0712007 0.197998 -9.7772e-20)
(-0.0621475 0.197827 -7.79933e-20)
(-0.0393734 0.178079 1.29414e-19)
(-0.000449854 -0.00141949 1.26175e-20)
(-0.0170499 0.00746254 1.31822e-21)
(-0.0399599 0.0259526 2.40708e-20)
(-0.063722 0.0506297 4.06478e-20)
(-0.08435 0.0782918 -3.91706e-20)
(-0.0994911 0.105309 9.89167e-20)
(-0.107465 0.12792 -5.04559e-21)
(-0.106162 0.142017 -1.96494e-19)
(-0.0924885 0.141173 -5.75454e-20)
(-0.0560521 0.119907 8.61988e-20)
(-0.0114044 0.0090732 1.15007e-21)
(-0.0406375 0.021854 6.3463e-21)
(-0.069461 0.0341662 -4.3734e-23)
(-0.0935808 0.0482249 1.3126e-20)
(-0.109204 0.0655452 3.46698e-20)
(-0.113696 0.0862377 -4.12729e-20)
(-0.104775 0.109389 -3.56119e-20)
(-0.0805046 0.132497 1.43143e-20)
(-0.0371869 0.148049 -2.74798e-20)
(0.0382396 0.148344 -1.18734e-20)
(-0.579324 -0.29768 -1.05653e-18)
(-0.452277 0.463055 2.19813e-18)
(-0.128712 1.17043 -5.83454e-20)
(-0.499036 0.958435 4.87994e-19)
(0.0422656 0.284883 -4.2974e-19)
(0.312852 -0.320577 -3.30984e-19)
(0.705607 -0.661464 -2.24934e-19)
(0.882273 -0.656564 3.01147e-20)
(1.04725 -0.656191 3.839e-20)
(1.14593 -0.450149 -1.01291e-21)
(-0.689994 -0.259358 -1.08939e-18)
(-0.705417 0.40151 -7.85981e-19)
(-0.337487 1.1731 -1.75031e-20)
(-0.602126 0.90546 -4.78382e-19)
(0.176676 0.153684 -1.95248e-18)
(0.479783 -0.417584 0)
(0.872716 -0.73762 -1.89267e-19)
(1.02033 -0.708671 -1.04134e-20)
(1.17011 -0.684433 -2.93407e-21)
(1.22075 -0.463524 -2.09322e-20)
(-0.680163 -0.198108 7.14477e-19)
(-0.883746 0.339608 6.45803e-19)
(-0.45379 1.13331 -2.46516e-19)
(-0.470316 0.824665 -7.6271e-21)
(0.35219 0.0103344 3.40078e-20)
(0.683433 -0.51551 -7.73068e-20)
(1.05368 -0.80535 0)
(1.16312 -0.753712 0)
(1.29113 -0.704141 -3.43349e-20)
(1.29249 -0.470235 0)
(-0.53829 -0.118215 1.77798e-19)
(-0.911553 0.282769 -1.15467e-18)
(-0.483922 1.02498 2.54839e-20)
(-0.193841 0.718128 0)
(0.571797 -0.117768 1.00511e-18)
(0.913677 -0.608214 -1.85326e-19)
(1.24342 -0.861939 0)
(1.30687 -0.789164 1.46322e-19)
(1.40738 -0.714632 0)
(1.35923 -0.470106 3.19108e-20)
(-0.298852 -0.037614 -1.19004e-20)
(-0.74251 0.247841 -8.74503e-19)
(-0.425407 0.873251 -3.22093e-20)
(0.124067 0.581959 0)
(0.82422 -0.224908 2.07357e-19)
(1.15486 -0.690908 3.04475e-19)
(1.43422 -0.906599 -9.75105e-20)
(1.44736 -0.813538 -1.68285e-20)
(1.51623 -0.715523 -1.63856e-20)
(1.41933 -0.463146 -4.57121e-21)
(-0.0426475 0.0230478 1.03325e-18)
(-0.405077 0.233524 1.09478e-18)
(-0.246692 0.72516 2.25538e-20)
(0.430989 0.438473 6.50339e-20)
(1.08964 -0.315809 -1.63167e-19)
(1.39486 -0.760215 8.42962e-20)
(1.61859 -0.93917 2.12456e-19)
(1.58048 -0.826585 -1.81138e-19)
(1.6154 -0.706827 2.06957e-21)
(1.47138 -0.449552 -7.00058e-20)
(0.141532 0.041815 2.31202e-19)
(-0.00340317 0.222023 -2.87607e-19)
(0.0538407 0.603967 7.46742e-20)
(0.724677 0.310872 4.70235e-21)
(1.3541 -0.390344 3.44797e-20)
(1.6244 -0.813634 -8.46781e-20)
(1.79015 -0.959253 -4.06156e-20)
(1.70279 -0.828919 5.78648e-20)
(1.70307 -0.688915 3.2869e-20)
(1.51433 -0.429697 5.03884e-21)
(0.192329 0.00598328 -1.89705e-19)
(0.349613 0.182669 -2.29673e-19)
(0.404827 0.508949 0)
(1.00367 0.210739 -8.44405e-20)
(1.60688 -0.447023 -1.51935e-19)
(1.83597 -0.849339 -2.78445e-20)
(1.94376 -0.966283 1.65893e-21)
(1.81152 -0.821474 5.31537e-20)
(1.77784 -0.662575 -1.88709e-21)
(1.54741 -0.404181 -3.39384e-20)
(0.220871 -0.0720723 -1.12387e-21)
(0.580187 0.102953 3.4129e-19)
(0.712288 0.42494 -2.29078e-19)
(1.25854 0.12456 6.27564e-20)
(1.84121 -0.488174 1.7445e-20)
(2.02457 -0.867399 1.42711e-19)
(2.07624 -0.960285 2.59272e-21)
(1.90481 -0.805023 -6.89339e-21)
(1.83861 -0.629011 2.48018e-20)
(1.57012 -0.373825 6.19363e-20)
(0.444525 -0.156839 3.49966e-21)
(0.732565 -0.0256172 1.74777e-19)
(0.899345 0.326398 6.70021e-20)
(1.48546 0.0799399 4.36413e-19)
(2.05387 -0.513179 3.41975e-19)
(2.18699 -0.871284 1.62092e-19)
(2.18614 -0.943743 6.02058e-20)
(1.98148 -0.780682 0)
(1.88436 -0.589616 -6.71418e-20)
(1.58244 -0.33977 6.42244e-20)
(1.19859 -0.167356 -2.00684e-19)
(1.18035 -0.101445 -1.03365e-19)
(1.25755 0.178966 4.21055e-19)
(1.83085 -0.0593729 -8.93247e-20)
(2.32307 -0.572223 -1.46447e-19)
(2.37133 -0.87136 8.36018e-20)
(2.30182 -0.913281 -4.32412e-20)
(2.05748 -0.740338 1.65189e-20)
(1.921 -0.53146 -1.89018e-20)
(1.58582 -0.293827 -4.03151e-20)
(2.06536 -0.175472 4.687e-20)
(1.93129 -0.0596696 5.62118e-20)
(1.91899 0.0887068 -9.60015e-20)
(2.40169 -0.223873 1.41938e-19)
(2.66094 -0.642761 -1.03675e-18)
(2.52205 -0.865801 -6.60482e-19)
(2.35224 -0.849327 -2.27577e-19)
(2.0646 -0.648933 -1.66848e-20)
(1.90075 -0.423742 1.46938e-19)
(1.54899 -0.218869 1.8042e-20)
(2.36637 -0.157497 -6.04543e-20)
(2.2291 -0.0639307 -1.34617e-21)
(2.36458 -0.00643121 -3.31241e-20)
(2.66218 -0.295829 -1.35269e-35)
(2.66848 -0.617503 -4.28597e-21)
(2.47784 -0.790868 1.73503e-33)
(2.32228 -0.76171 3.60751e-20)
(2.04202 -0.565289 1.75262e-33)
(1.86633 -0.336687 -8.13635e-21)
(1.50196 -0.156206 2.1262e-20)
(2.40733 -0.132357 -1.64464e-34)
(2.33229 -0.0822277 1.74338e-20)
(2.50609 -0.0840169 1.21266e-19)
(2.61334 -0.308301 0)
(2.61 -0.583939 4.39763e-19)
(2.48056 -0.75011 2.61847e-19)
(2.2888 -0.693417 4.3073e-20)
(1.96207 -0.475802 2.86988e-33)
(1.74673 -0.232254 -1.06772e-19)
(1.38995 -0.0831629 -2.52373e-20)
(2.38545 -0.118097 -9.46465e-21)
(2.37443 -0.116731 7.4229e-22)
(2.46752 -0.12765 0)
(2.53012 -0.312696 0)
(2.56528 -0.566062 0)
(2.37745 -0.684334 0)
(2.08934 -0.576319 2.87435e-21)
(1.72937 -0.353283 2.44221e-33)
(1.51297 -0.126014 -9.02476e-21)
(1.22004 -0.0211648 -3.47804e-33)
(2.3669 -0.117775 4.2295e-20)
(2.37306 -0.135069 0)
(2.39994 -0.148821 0)
(2.4683 -0.317958 0)
(2.45255 -0.525977 0)
(2.15098 -0.580691 0)
(1.77928 -0.448651 -6.85202e-22)
(1.41352 -0.24348 4.0587e-20)
(1.21146 -0.0407724 -9.48123e-21)
(1.00669 0.0246038 -2.49096e-20)
(2.34869 -0.121411 0)
(2.32871 -0.141846 4.5098e-20)
(2.31986 -0.161655 6.9668e-20)
(2.36064 -0.310396 0)
(2.18681 -0.448737 1.5412e-19)
(1.71963 -0.431478 9.59184e-20)
(1.27528 -0.291246 3.82579e-20)
(0.955354 -0.128829 6.4572e-21)
(0.821053 0.0241857 -6.44174e-21)
(0.748244 0.0499046 -2.63039e-20)
(2.25192 -0.118307 -2.44585e-21)
(2.1659 -0.130266 9.02414e-22)
(2.13258 -0.154771 -7.60962e-22)
(2.03307 -0.259217 -3.84748e-35)
(1.62238 -0.30039 -5.76487e-21)
(1.06937 -0.237865 4.90114e-34)
(0.679168 -0.144446 4.09185e-21)
(0.469887 -0.0546868 -2.24004e-20)
(0.425115 0.040255 -8.71838e-21)
(0.473242 0.0459935 2.97331e-20)
(1.83248 -0.0932661 2.00292e-20)
(1.68689 -0.104573 -2.01101e-20)
(1.56912 -0.119507 -5.78039e-21)
(1.25824 -0.117952 0)
(0.788879 -0.0930016 -1.21317e-20)
(0.413863 -0.0817959 -1.66368e-20)
(0.189257 -0.0632062 -2.11715e-20)
(0.073595 -0.0285142 -3.26328e-20)
(0.0791233 0.0221783 3.57969e-20)
(0.181134 0.0251288 -3.50453e-20)
(0.766301 -0.0228657 0)
(0.610536 -0.0199808 0)
(0.448449 5.81073e-05 0)
(0.30411 0.0121707 0)
(0.187457 0.00176397 0)
(0.0720402 -0.0114178 0)
(-0.0496209 -0.0131936 3.23415e-21)
(-0.137139 -0.00916731 2.37325e-35)
(-0.146026 0.00100962 -8.68369e-21)
(-0.0796396 0.003111 -2.75107e-20)
(2.41413 0.27074 6.93023e-19)
(2.45617 0.211683 4.12278e-20)
(2.46772 0.155929 -6.22816e-20)
(2.49271 0.111889 -2.1042e-19)
(2.47862 0.0649343 -2.95697e-20)
(2.45398 0.0418449 -4.62989e-20)
(2.37756 -0.0055305 -1.75277e-19)
(2.12639 0.00717919 1.64359e-20)
(1.92841 -0.0469223 0)
(1.1985 0.0513147 7.28434e-20)
(2.3411 0.22952 2.33315e-19)
(2.35983 0.191947 -2.48249e-19)
(2.42107 0.136072 -6.47704e-20)
(2.40495 0.111134 -1.0833e-19)
(2.49174 0.0558075 1.00653e-19)
(2.40849 0.0435515 1.6709e-19)
(2.53769 -0.0158709 -2.23784e-19)
(2.32016 -0.0210382 -3.81529e-21)
(2.44969 -0.0764485 -1.44333e-20)
(2.01626 -0.0682358 7.91759e-20)
(2.30043 0.195175 -1.01248e-19)
(2.27514 0.163338 2.38783e-19)
(2.38393 0.118127 1.35106e-19)
(2.31695 0.093268 -2.40649e-19)
(2.45452 0.0503512 -5.17732e-20)
(2.3418 0.0296122 3.4843e-19)
(2.50216 -0.0093657 6.44928e-20)
(2.35787 -0.0302918 -7.04171e-20)
(2.4936 -0.0610809 -4.02326e-20)
(2.3366 -0.083559 -4.16494e-20)
(2.25661 0.162112 -2.84455e-19)
(2.23333 0.128231 -6.41407e-20)
(2.33055 0.0991767 4.97168e-20)
(2.28298 0.0687324 -3.35344e-21)
(2.38366 0.0425762 -2.23877e-19)
(2.32528 0.015355 -7.04494e-20)
(2.41404 -0.00708549 1.88328e-19)
(2.36913 -0.0309959 -1.25515e-20)
(2.42369 -0.0503744 3.66281e-20)
(2.40484 -0.0709853 1.56996e-20)
(2.20808 0.127199 3.04043e-20)
(2.21482 0.0957664 1.32603e-19)
(2.27319 0.0754847 -8.7387e-21)
(2.27103 0.0472282 1.45286e-19)
(2.31896 0.0282232 -5.72465e-20)
(2.31777 0.00453527 -2.02262e-19)
(2.34861 -0.0135081 3.0893e-20)
(2.35751 -0.0319486 -6.69367e-20)
(2.36965 -0.050004 -1.17173e-21)
(2.38856 -0.0637643 -8.27817e-21)
(2.16539 0.0904042 -1.56288e-19)
(2.19278 0.0661719 -6.30273e-20)
(2.22748 0.048372 -1.68142e-20)
(2.25038 0.0274724 9.63982e-20)
(2.27505 0.00965504 2.58403e-19)
(2.29632 -0.00701769 -5.77382e-20)
(2.31071 -0.0252734 5.24958e-21)
(2.33146 -0.037768 -7.0332e-20)
(2.33806 -0.0566008 -9.6952e-20)
(2.35739 -0.0655118 -2.93027e-20)
(2.11686 0.0543743 -4.799e-20)
(2.15011 0.0371272 -1.13622e-19)
(2.1787 0.021417 -1.45793e-19)
(2.20807 0.00690986 -2.5159e-19)
(2.23058 -0.00926875 7.86534e-20)
(2.25633 -0.0210636 6.42761e-20)
(2.27312 -0.0380984 -8.03561e-21)
(2.2954 -0.0477026 7.28012e-20)
(2.30706 -0.0654215 -7.22227e-20)
(2.32686 -0.0732301 -4.18558e-20)
(2.00691 0.020781 5.98163e-20)
(2.0412 0.00862546 2.04746e-20)
(2.06328 -0.00252571 1.56725e-20)
(2.0976 -0.0130966 -3.33015e-20)
(2.1152 -0.0244997 -3.17412e-20)
(2.15027 -0.0339366 -5.36641e-20)
(2.16295 -0.0462129 -4.43858e-20)
(2.19963 -0.0551465 9.33479e-20)
(2.20636 -0.0685844 -3.84825e-20)
(2.24643 -0.0774986 1.12141e-20)
(1.69372 -0.00790672 -7.05374e-20)
(1.71745 -0.014417 -1.58553e-20)
(1.72561 -0.0198044 1.23414e-19)
(1.75489 -0.025691 -1.99006e-20)
(1.75848 -0.0308027 -3.46889e-20)
(1.79596 -0.0368768 7.05101e-20)
(1.79285 -0.0423745 -5.28894e-20)
(1.84081 -0.0494442 4.00336e-20)
(1.82772 -0.0561558 -1.59735e-20)
(1.88905 -0.0650048 -6.72094e-20)
(0.860565 -0.00940154 5.05792e-20)
(0.856468 -0.00857764 4.38277e-20)
(0.850203 -0.00810382 4.37871e-20)
(0.85053 -0.00747501 7.26606e-20)
(0.845146 -0.0075774 -3.66897e-20)
(0.85132 -0.00741101 -4.97271e-20)
(0.843794 -0.00823817 2.1863e-20)
(0.858277 -0.00907881 -2.10697e-21)
(0.840528 -0.0101001 3.05242e-21)
(0.872294 -0.0149158 -4.65687e-21)
(1.5177 0.924339 -7.64478e-20)
(1.50269 0.970225 2.57038e-20)
(1.50609 1.02341 -5.81806e-19)
(1.51432 1.08363 2.25026e-19)
(1.52037 1.14687 1.09822e-18)
(1.51553 1.20498 -1.40762e-19)
(1.4781 1.23569 -9.86534e-19)
(1.35942 1.18817 -1.08699e-20)
(1.07429 0.970616 -4.83835e-19)
(0.501844 0.464266 1.19597e-19)
(1.67659 0.897917 0)
(1.66644 0.942385 6.77479e-19)
(1.66651 0.991895 1.50613e-18)
(1.67434 1.04954 -9.27823e-19)
(1.68342 1.11108 -2.17585e-18)
(1.68147 1.16679 -1.45685e-19)
(1.64158 1.19307 -1.86171e-19)
(1.50763 1.13985 6.75793e-19)
(1.18524 0.921493 9.91026e-19)
(0.547857 0.433111 3.98922e-19)
(1.82209 0.863475 6.46684e-20)
(1.8208 0.907197 0)
(1.82266 0.953486 -6.43044e-20)
(1.83141 1.00636 9.4462e-19)
(1.84241 1.06267 5.2806e-20)
(1.84126 1.11236 -2.13044e-18)
(1.79605 1.1314 1.34119e-18)
(1.6437 1.07159 7.93208e-19)
(1.28232 0.854922 -8.46503e-19)
(0.584301 0.392828 -2.56939e-19)
(1.95134 0.819358 -1.66252e-19)
(1.95909 0.861001 -1.24568e-19)
(1.96602 0.903621 2.59572e-19)
(1.97756 0.95101 -3.22574e-19)
(1.99019 1.00067 -1.49763e-18)
(1.98789 1.04256 -1.16027e-18)
(1.93442 1.05243 1.21683e-18)
(1.75989 0.984442 7.89891e-19)
(1.35733 0.771731 0)
(0.606762 0.343986 0)
(2.06402 0.761669 -8.522e-19)
(2.07993 0.800411 -1.55213e-18)
(2.09319 0.839196 -6.00264e-19)
(2.10846 0.881138 -3.18598e-20)
(2.12218 0.9237 0)
(2.11672 0.955899 1.27207e-19)
(2.05051 0.955245 1.46015e-19)
(1.84808 0.880925 1.80552e-19)
(1.40353 0.674513 -2.58135e-19)
(0.61186 0.287698 -6.45086e-20)
(2.16404 0.694371 1.00985e-18)
(2.18567 0.728807 -3.95603e-20)
(2.20402 0.762885 -1.18892e-18)
(2.22216 0.798641 0)
(2.23518 0.832997 0)
(2.22228 0.855304 0)
(2.13703 0.843856 1.34467e-18)
(1.90166 0.76244 -1.46933e-18)
(1.41578 0.564918 -9.23902e-19)
(0.596939 0.226806 1.27483e-20)
(2.25049 0.617356 -1.30929e-18)
(2.27638 0.646974 -2.74776e-18)
(2.29803 0.676238 -4.75536e-21)
(2.31694 0.705706 5.53862e-19)
(2.32579 0.731627 -3.43136e-20)
(2.29994 0.743389 1.16055e-18)
(2.18908 0.720677 -6.34882e-19)
(1.91513 0.63287 -1.66226e-18)
(1.38908 0.448069 9.10849e-20)
(0.561056 0.165428 7.0392e-20)
(2.32596 0.53658 -1.01468e-18)
(2.35253 0.5612 1.49672e-20)
(2.3745 0.584862 3.81184e-19)
(2.39089 0.607194 -3.6696e-19)
(2.39082 0.623816 5.67699e-19)
(2.34519 0.624221 1.49864e-18)
(2.20051 0.590219 -1.28998e-19)
(1.88205 0.497966 -8.54965e-19)
(1.31975 0.330657 1.92348e-19)
(0.505156 0.108079 3.53791e-20)
(2.38671 0.453219 3.64916e-19)
(2.41267 0.47337 7.54812e-20)
(2.4323 0.491323 -3.76434e-19)
(2.44203 0.506194 -8.72321e-19)
(2.4266 0.513146 6.13813e-20)
(2.35231 0.50213 4.50779e-20)
(2.16439 0.45794 -1.03677e-18)
(1.79682 0.364476 4.41611e-19)
(1.20682 0.219982 1.26954e-19)
(0.432409 0.0590044 -4.54493e-20)
(2.43457 0.372655 6.73519e-19)
(2.45662 0.387839 -9.97765e-19)
(2.47001 0.399606 1.51264e-19)
(2.46711 0.406693 1.94798e-18)
(2.42762 0.403873 9.3723e-19)
(2.31391 0.382095 -1.9941e-18)
(2.07331 0.330002 -1.81117e-18)
(1.65552 0.239913 7.49548e-19)
(1.05304 0.123471 -3.57912e-20)
(0.348163 0.0214823 -9.50299e-20)
(0.553326 0.339049 -2.12106e-19)
(0.512136 0.351929 -1.8419e-19)
(0.465618 0.365629 9.23589e-20)
(0.414425 0.38027 -2.94869e-19)
(0.358278 0.395721 -3.21229e-20)
(0.296346 0.410765 2.51193e-19)
(0.227663 0.420344 5.2774e-20)
(0.152735 0.409786 -1.51607e-20)
(0.0788497 0.34702 1.1533e-20)
(0.0154138 0.178039 1.68339e-20)
(0.588398 0.447738 1.64761e-19)
(0.548492 0.46749 2.13503e-19)
(0.50412 0.48868 4.28284e-20)
(0.455527 0.511446 -7.04031e-20)
(0.402122 0.535554 -2.6211e-19)
(0.342822 0.559241 -4.1838e-21)
(0.276017 0.575464 1.00307e-19)
(0.20051 0.563844 2.87076e-20)
(0.120093 0.479445 -1.02956e-19)
(0.0371531 0.246818 -3.53486e-20)
(0.642174 0.549034 -1.59403e-19)
(0.603789 0.57478 -1.46609e-19)
(0.562075 0.60244 1.23071e-19)
(0.516795 0.632457 9.54621e-20)
(0.467078 0.664712 -7.45746e-20)
(0.411567 0.696986 -5.23149e-20)
(0.34767 0.720176 -1.03883e-19)
(0.271489 0.708109 -5.3048e-20)
(0.181229 0.603292 -6.0391e-20)
(0.0691534 0.310527 1.78048e-21)
(0.71391 0.646055 7.16236e-20)
(0.67761 0.678308 -3.17718e-20)
(0.639517 0.712395 -9.69114e-20)
(0.598401 0.748967 -1.71485e-20)
(0.552931 0.788 -7.35919e-20)
(0.501546 0.826899 4.70045e-21)
(0.440655 0.854715 -2.4414e-19)
(0.363059 0.840114 3.38506e-20)
(0.259631 0.714766 -2.97514e-19)
(0.109872 0.36679 4.96019e-20)
(0.79956 0.727276 -1.0576e-20)
(0.765886 0.764568 4.79418e-21)
(0.732461 0.8042 -4.72818e-20)
(0.697201 0.847218 -2.37308e-19)
(0.658036 0.893396 1.09942e-19)
(0.612618 0.939387 1.2397e-20)
(0.55574 0.972313 6.58428e-20)
(0.476055 0.955972 -1.42751e-19)
(0.355413 0.812178 3.63775e-19)
(0.158851 0.414993 2.66967e-19)
(0.90176 0.806915 -5.43815e-20)
(0.870052 0.848759 -1.44375e-19)
(0.840206 0.891796 5.14926e-20)
(0.809511 0.938412 9.60911e-20)
(0.775854 0.988941 3.28588e-19)
(0.736432 1.03939 2.34956e-19)
(0.68398 1.07464 5.94095e-19)
(0.602022 1.05402 2.49484e-19)
(0.462073 0.891777 1.52824e-19)
(0.213102 0.452657 2.02939e-19)
(1.01057 0.861024 -1.01496e-19)
(0.984788 0.907616 5.15249e-19)
(0.962698 0.955192 3.45897e-19)
(0.939729 1.00621 -4.46135e-19)
(0.913101 1.0611 -2.2679e-19)
(0.879788 1.11569 6.29797e-19)
(0.830882 1.15329 -1.03299e-19)
(0.744516 1.12928 -4.22235e-19)
(0.580857 0.95161 6.17267e-21)
(0.27214 0.479212 2.42432e-19)
(1.12709 0.916056 2.6012e-19)
(1.10188 0.96303 5.65531e-20)
(1.08454 1.01086 -7.16675e-19)
(1.06945 1.06355 1.46789e-19)
(1.05209 1.12078 5.40401e-19)
(1.02745 1.17696 -3.08238e-19)
(0.983673 1.21359 -9.2808e-20)
(0.892868 1.18326 -1.7539e-19)
(0.703705 0.990523 1.76556e-20)
(0.332238 0.493597 -2.9288e-19)
(1.25212 0.936597 1.88321e-20)
(1.23728 0.987543 -5.17502e-19)
(1.22746 1.03655 -4.37045e-21)
(1.21813 1.09035 4.45898e-19)
(1.20667 1.14981 -4.61969e-19)
(1.18794 1.2083 9.09672e-19)
(1.14697 1.24501 6.14593e-19)
(1.04885 1.20986 -9.11349e-19)
(0.83023 1.00602 -6.7884e-20)
(0.392191 0.495418 -3.1591e-19)
(1.35288 0.949677 -3.06643e-19)
(1.34903 1.00106 -2.94351e-19)
(1.35572 1.0515 2.82805e-19)
(1.3607 1.1059 7.31995e-19)
(1.36041 1.16466 2.66655e-19)
(1.34992 1.22136 -7.54724e-19)
(1.31202 1.25431 9.17877e-20)
(1.2052 1.21229 2.0469e-19)
(0.954785 0.999506 -2.73542e-19)
(0.449362 0.485493 -2.22478e-19)
(0.996867 0.00893198 5.64412e-22)
(1.0134 0.0350278 -1.64819e-20)
(1.01822 0.0443821 -1.16858e-20)
(1.03116 0.063778 0)
(1.02868 0.079902 1.30761e-20)
(1.02587 0.103157 1.95475e-20)
(1.00385 0.126445 2.53762e-20)
(0.960913 0.15274 6.02396e-20)
(0.883646 0.207974 -9.74039e-20)
(0.733146 0.274402 -1.08117e-19)
(0.998396 0.00664125 3.32405e-20)
(1.01111 0.0334447 -5.29558e-20)
(1.01702 0.0413666 2.06225e-22)
(1.02877 0.0632292 -1.50034e-20)
(1.02739 0.079695 6.80802e-21)
(1.02599 0.107631 -1.02519e-20)
(1.00395 0.135638 -5.95423e-20)
(0.96669 0.171177 0)
(0.88914 0.244192 2.02886e-19)
(0.760418 0.345009 -2.75453e-19)
(0.999271 0.00449891 -2.38383e-20)
(1.01001 0.0324003 1.45596e-20)
(1.01598 0.0380716 3.08929e-20)
(1.02822 0.0632922 8.18741e-21)
(1.0264 0.0789534 -1.68922e-20)
(1.02881 0.112863 1.43913e-21)
(1.00483 0.14404 -4.35975e-20)
(0.977736 0.190178 -7.90103e-21)
(0.898329 0.279257 5.2085e-22)
(0.803168 0.412989 6.56803e-19)
(0.999616 0.00241665 -2.65417e-20)
(1.00983 0.0317863 1.94074e-21)
(1.01518 0.034481 2.55056e-20)
(1.0292 0.0639097 1.73266e-20)
(1.02597 0.0776328 -8.57166e-21)
(1.03395 0.118923 -1.25785e-20)
(1.00673 0.151312 6.49782e-20)
(0.993691 0.210103 -2.86131e-21)
(0.910941 0.312035 -2.31295e-19)
(0.860627 0.476701 7.25849e-20)
(0.999639 0.000303433 1.83255e-20)
(1.01027 0.0314549 -2.62454e-20)
(1.01483 0.030618 -2.07087e-20)
(1.03129 0.0649647 1.035e-20)
(1.02649 0.0757681 0)
(1.04082 0.125717 0)
(1.01048 0.157378 5.67949e-20)
(1.01305 0.230773 1.64596e-21)
(0.928963 0.342254 -1.09464e-19)
(0.929313 0.534888 9.14157e-20)
(0.999564 -0.00185373 5.13847e-21)
(1.01102 0.031261 2.07101e-20)
(1.01514 0.0265352 -5.75148e-20)
(1.03406 0.0663019 -2.03767e-20)
(1.02838 0.073421 -4.00075e-22)
(1.04898 0.13314 5.59139e-20)
(1.01641 0.162043 8.88975e-20)
(1.03609 0.252605 2.22835e-22)
(0.949753 0.367723 1.77983e-19)
(1.014 0.592613 -2.05042e-19)
(0.999581 -0.00406073 -1.97399e-20)
(1.01179 0.0310499 1.07462e-20)
(1.01634 0.0222974 -1.61342e-20)
(1.03713 0.0677183 -4.36398e-20)
(1.03212 0.0707183 1.35955e-21)
(1.05771 0.140888 -1.56435e-21)
(1.0259 0.165556 -3.71935e-21)
(1.05991 0.274785 -1.93847e-19)
(0.980942 0.389694 1.34679e-19)
(1.0954 0.635288 -4.92755e-19)
(0.999789 -0.00631133 -3.33314e-21)
(1.01246 0.0306739 -3.03373e-20)
(1.01851 0.0179685 3.28688e-20)
(1.0403 0.0689898 2.34907e-20)
(1.03793 0.067798 7.39666e-22)
(1.06674 0.148565 -6.64354e-20)
(1.03891 0.168078 -5.10497e-20)
(1.08636 0.297321 3.50428e-19)
(1.01308 0.408306 1.14666e-20)
(1.20433 0.694431 7.81006e-19)
(1.00018 -0.00857784 1.33903e-20)
(1.01312 0.0300195 1.35194e-20)
(1.02147 0.0135895 3.92408e-20)
(1.04369 0.0699641 -2.59657e-20)
(1.04567 0.0647067 -6.82093e-20)
(1.07579 0.156225 8.27468e-22)
(1.0563 0.168353 -7.2064e-20)
(1.11256 0.318215 4.62405e-19)
(1.06585 0.411337 -7.44473e-21)
(1.27167 0.712686 -1.07754e-18)
(1.0007 -0.0108168 3.02042e-22)
(1.01399 0.028949 2.06867e-20)
(1.02476 0.00967638 1.2893e-20)
(1.04791 0.0703213 -5.22329e-20)
(1.05394 0.0634196 -6.78567e-20)
(1.08468 0.163253 -5.79086e-20)
(1.07411 0.175429 -1.33248e-19)
(1.1343 0.341556 -4.26553e-19)
(1.11785 0.440549 -2.33233e-19)
(1.40151 0.784514 -1.14729e-18)
(1.00158 -0.0145306 -9.22569e-22)
(1.01501 0.0274652 -4.3613e-21)
(1.02927 0.00237291 -1.52052e-20)
(1.055 0.069731 2.86395e-20)
(1.0647 0.0546592 5.25199e-20)
(1.10318 0.168363 -3.77353e-20)
(1.09624 0.161548 1.34718e-19)
(1.17864 0.353292 -3.96287e-19)
(1.17838 0.384536 -1.79136e-19)
(1.41551 0.774303 6.03388e-19)
(1.0037 -0.0200195 8.86589e-22)
(1.01415 0.0250524 6.93419e-21)
(1.03771 -0.00914974 -1.07925e-20)
(1.06179 0.0659476 5.30343e-20)
(1.08348 0.0388927 9.07015e-20)
(1.11904 0.166718 1.13609e-19)
(1.13664 0.138611 3.1139e-20)
(1.20783 0.341506 2.0059e-19)
(1.27472 0.338304 3.14478e-19)
(1.43522 0.676871 1.84335e-20)
(1.00629 -0.0254127 -1.13867e-21)
(1.01074 0.020712 -3.552e-21)
(1.05196 -0.0204834 3.93402e-21)
(1.06557 0.0592025 4.0274e-21)
(1.11043 0.023584 2.78524e-34)
(1.12595 0.159846 -6.34558e-21)
(1.18576 0.11512 -4.43086e-34)
(1.2257 0.319214 1.64721e-20)
(1.35088 0.288082 -5.01104e-20)
(1.47338 0.589103 -5.1535e-20)
(1.00617 -0.0305563 1.4347e-20)
(1.00906 0.0126494 -3.99758e-35)
(1.06884 -0.0307195 -4.51194e-21)
(1.07112 0.0479108 -2.27997e-20)
(1.13688 0.0104536 -4.57114e-20)
(1.13348 0.14827 -3.90237e-20)
(1.22585 0.0921857 -5.91543e-34)
(1.24839 0.292141 -8.01361e-20)
(1.39513 0.239217 -1.42087e-19)
(1.51284 0.500766 8.79431e-20)
(0.999794 -0.0352633 0)
(1.01638 -0.00071966 -1.82394e-35)
(1.08329 -0.0399307 0)
(1.08627 0.0313985 0)
(1.15487 -7.51838e-06 0)
(1.15299 0.129895 0)
(1.24958 0.0713358 -4.38007e-34)
(1.28111 0.257403 0)
(1.41777 0.19705 -1.80619e-20)
(1.54339 0.41192 5.20839e-20)
(0.986223 -0.0408608 2.10872e-21)
(1.03678 -0.0165054 -9.90342e-22)
(1.09276 -0.0485499 -5.71677e-21)
(1.11301 0.0147046 0)
(1.16396 -0.00646651 0)
(1.18387 0.106637 5.82597e-21)
(1.26471 0.0538821 4.31741e-20)
(1.31466 0.216753 -1.20744e-20)
(1.43664 0.160719 -2.64964e-20)
(1.56556 0.328534 1.95862e-19)
(0.969059 -0.0517088 -8.22432e-20)
(1.0703 -0.041667 3.07994e-21)
(1.09369 -0.0611933 -6.37252e-21)
(1.14483 -0.00832648 -1.46868e-20)
(1.15642 -0.0150347 -2.81894e-20)
(1.21086 0.0768839 -1.31095e-20)
(1.26073 0.0384771 -3.6871e-20)
(1.33327 0.171725 -3.33544e-20)
(1.44179 0.126909 -5.46719e-20)
(1.58138 0.250759 7.11895e-20)
(0.955989 -0.0564262 -5.00638e-21)
(1.10136 -0.055259 -1.72274e-20)
(1.06974 -0.0610109 -6.96633e-21)
(1.14533 -0.0206496 -4.8077e-21)
(1.09233 -0.0152043 -4.81865e-35)
(1.19172 0.0490877 6.28955e-21)
(1.18237 0.0276134 -8.23989e-34)
(1.30371 0.124632 -1.16508e-20)
(1.38134 0.0927497 1.65023e-20)
(1.56515 0.175787 2.37527e-20)
(0.951293 -0.0957889 1.97923e-19)
(1.0572 -0.0886875 -4.46992e-21)
(0.950171 -0.0741388 -7.39136e-21)
(0.989237 -0.0359429 1.21944e-20)
(0.875636 -0.0157702 1.59618e-20)
(0.997975 0.0229838 1.58811e-20)
(0.933436 0.0203792 1.59912e-20)
(1.1166 0.0740988 -6.29523e-21)
(1.15919 0.0580369 -1.65915e-20)
(1.40233 0.100181 1.27885e-19)
(0.824295 -0.0470605 7.77415e-21)
(0.723715 -0.0335334 -9.15821e-35)
(0.528756 -0.0181181 -8.47811e-21)
(0.472056 -0.00380839 0)
(0.391521 -0.000112082 0)
(0.462065 0.00812019 6.28425e-21)
(0.437046 0.0048747 -4.62847e-36)
(0.573419 0.0163867 -1.12085e-20)
(0.625035 0.00953941 -2.41315e-20)
(0.805342 0.0176087 5.14724e-20)
(1.61361 0.812142 -1.80305e-19)
(1.71237 0.796318 -2.70421e-19)
(1.82435 0.767385 0)
(1.93021 0.727933 1.38348e-19)
(2.02636 0.675272 5.95198e-19)
(2.11487 0.615945 -1.14492e-19)
(2.19143 0.548418 1.53666e-18)
(2.26495 0.478879 -7.19468e-20)
(2.32196 0.406109 -3.42689e-19)
(2.37976 0.337305 2.94173e-19)
(1.63926 0.667493 8.85888e-20)
(1.71305 0.654175 1.07945e-19)
(1.80638 0.626584 -1.11292e-20)
(1.88996 0.591102 1.9652e-19)
(1.97811 0.543909 -1.63117e-19)
(2.04679 0.497273 -3.84066e-19)
(2.12207 0.441332 -1.07737e-19)