/*--------------------------------*- C++ -*----------------------------------*\
  =========                 |
  \\      /  F ield         | OpenFOAM: The Open Source CFD Toolbox
   \\    /   O peration     | Website:  https://openfoam.org
    \\  /    A nd           | Version:  13
     \\/     M anipulation  |
\*---------------------------------------------------------------------------*/
FoamFile
{
    format      ascii;
    class       volVectorField;
    location    "2.5";
    object      U;
}
// * * * * * * * * * * * * * * * * * * * * * * * * * * * * * * * * * * * * * //

dimensions      [0 1 -1 0 0 0 0];

internalField   nonuniform List<vector>
1800
(
(-0.00502666141449 -0.011830725609 -4.89496890799e-17)
(0.543365116319 -0.463741692538 9.4717160246e-18)
(1.05591379123 -0.86228006781 -5.49496949118e-18)
(1.33342400809 -1.04685936545 1.71921374323e-18)
(1.44592939833 -1.08575657553 6.54180366137e-18)
(1.48033731842 -1.05728686411 1.42648576034e-18)
(1.48390121411 -1.00529372256 -4.45017247895e-18)
(1.47620023999 -0.948431682187 1.07410784131e-18)
(1.46516655748 -0.889778387764 1.44289599638e-19)
(1.43194029278 -0.841641677126 6.45079242745e-20)
(0.0164533834443 -0.0290089136961 9.04772177782e-19)
(0.648950323295 -0.468529848451 -1.31836863847e-19)
(1.21695606188 -0.846151514002 -2.39220891847e-19)
(1.51308707017 -1.01549792156 -5.325361973e-19)
(1.62456784534 -1.0467491732 -5.34736479549e-19)
(1.65136340542 -1.01540029442 9.78407033273e-19)
(1.6466503297 -0.962418179265 -1.27020680417e-18)
(1.63220861004 -0.904620176952 6.83256416198e-19)
(1.61573998113 -0.846669266497 7.3088861162e-19)
(1.59185828755 -0.803293094851 -3.49657655682e-19)
(0.0452809701567 -0.0458042880141 -2.5544378511e-20)
(0.761028951815 -0.461451593096 -4.44770226119e-20)
(1.37836689049 -0.809189326971 2.95674471035e-19)
(1.6878346702 -0.95974556664 -2.57071441268e-19)
(1.7950508716 -0.983613359558 -1.524005479e-18)
(1.81229297711 -0.951711927597 3.42244927723e-19)
(1.79753902429 -0.901487994459 5.9699615606e-19)
(1.77368514669 -0.848268035942 -7.79991383378e-20)
(1.74852269153 -0.796469028676 -4.99055975702e-21)
(1.71583842656 -0.755854314034 -3.4346978538e-20)
(0.0815797513297 -0.0604999917664 1.19239469926e-20)
(0.877473650317 -0.440513374503 -8.99119163499e-20)
(1.53657575204 -0.750225080325 -2.84379317456e-19)
(1.85404312803 -0.878838125351 7.1082795316e-20)
(1.95480368759 -0.895076686682 3.94341544272e-19)
(1.9623611706 -0.863175291217 3.68158412606e-20)
(1.93846856866 -0.815949529563 -2.42248233825e-20)
(1.90669489817 -0.766437240495 5.46851705604e-19)
(1.87447540766 -0.71842196668 4.51942174089e-19)
(1.83842253528 -0.682245414942 -1.49226864045e-19)
(0.125080027701 -0.0715820577911 8.9031192075e-20)
(0.995623647897 -0.405058806721 1.5460289894e-19)
(1.68721954858 -0.670555127349 -8.38794639031e-20)
(2.00664967201 -0.775739072439 -9.83378236724e-20)
(2.09844833451 -0.785525695782 -1.19213660828e-18)
(2.0959231895 -0.755705937671 1.06375475681e-20)
(2.0633723849 -0.713813126082 9.30222884343e-19)
(2.02439366736 -0.670585091349 3.23311354556e-19)
(1.98602099611 -0.629380410593 2.31938778646e-20)
(1.9460658019 -0.598041865251 -1.99737627626e-19)
(0.174735048407 -0.0772421046158 -8.11143602877e-20)
(1.1118665988 -0.354008177723 1.73780738933e-19)
(1.82580640934 -0.570679211319 1.1181047149e-18)
(2.1412877771 -0.65181914436 -8.20764200418e-19)
(2.2222922789 -0.656372404959 -8.6625128676e-19)
(2.20995057941 -0.629998965046 1.43837148364e-18)
(2.16969943048 -0.594499284247 -1.03881303868e-18)
(2.12453369015 -0.558264310686 -1.14385767549e-18)
(2.0809836365 -0.524037756577 8.30488539271e-19)
(2.03788938051 -0.498408098914 -3.22191138045e-20)
(0.229038741005 -0.076019811921 -2.38976297626e-20)
(1.22244961364 -0.287489892212 -4.99255712281e-19)
(1.94812105662 -0.452810710418 -2.97703398615e-18)
(2.25412500836 -0.510609260224 1.36378796133e-18)
(2.32305988972 -0.51186296024 2.18877639604e-18)
(2.30158172301 -0.490648445424 -6.33128011705e-21)
(2.25490398271 -0.462931931299 -2.81098238286e-18)
(2.20491944862 -0.43486269887 -2.78530383616e-21)
(2.15745655282 -0.408605858465 2.52122353357e-18)
(2.11194012239 -0.389219591942 6.64079189692e-19)
(0.285775598565 -0.066671958531 5.93144957181e-20)
(1.32315184731 -0.206076896701 4.35085841853e-19)
(2.05003805559 -0.319344224315 2.2924677658e-18)
(2.34174918116 -0.355402045175 -8.27808392154e-20)
(2.39810382662 -0.355511143004 -1.4096693258e-18)
(2.36861455869 -0.340834341427 -4.34688719786e-19)
(2.31693898239 -0.321829125384 0)
(2.26345814644 -0.302608806087 9.88148345686e-19)
(2.21325511098 -0.284792425063 1.05195583689e-20)
(2.1661252433 -0.272192324441 -8.02521120587e-19)
(0.342246276004 -0.0485557637501 8.99631661059e-21)
(1.41002050945 -0.11140562836 8.73350923217e-19)
(2.12815520018 -0.173651384094 2.06408113991e-18)
(2.40176115872 -0.190347397007 -1.99132886719e-18)
(2.44588929187 -0.191670025912 -1.4300339541e-18)
(2.40983669353 -0.184633105272 4.46008905104e-19)
(2.35473148791 -0.175022239391 -1.87887946192e-18)
(2.29915022566 -0.165111168565 -1.2763230712e-18)
(2.24745578198 -0.156004403612 1.51911028832e-18)
(2.19958692888 -0.150359620557 1.29290945146e-18)
(0.395478361734 -0.0217559161487 4.46870865964e-20)
(1.47959008722 -0.00586583289017 6.03110017159e-19)
(2.17949577012 -0.0193395408289 3.88986814728e-19)
(2.43277302739 -0.0197340823511 -2.89835185919e-18)
(2.46565452057 -0.0245775975988 4.08772002058e-20)
(2.42465354026 -0.0257091063833 4.25995253206e-18)
(2.36761178211 -0.0258528751586 -2.25693925913e-18)
(2.31126891011 -0.0254665838414 -1.26797526008e-18)
(2.25924680466 -0.0250903015593 4.13086952894e-19)
(2.21155158724 -0.0263608557858 -9.38103940537e-19)
(-0.00573304982072 0.00287736155246 1.09054166173e-19)
(-0.00411454048188 -0.0904420022776 6.58730978663e-20)
(0.0427365496777 -0.179191665854 -1.6270566552e-21)
(0.104410405262 -0.226654548875 -8.81371619028e-21)
(0.170701171494 -0.243172342101 -2.01092525967e-21)
(0.235529572865 -0.243862245527 -4.27797351254e-20)
(0.295985422439 -0.237967183241 1.59045615381e-20)
(0.351381093274 -0.229875256995 -2.81206078919e-20)
(0.401616934434 -0.221429862362 3.17904734116e-21)
(0.44929609168 -0.214575199614 -8.37224253442e-21)
(-0.00788410829787 0.0160241639895 3.52459115727e-20)
(0.00951127486895 -0.135901383282 8.01022455359e-20)
(0.0717104387163 -0.28597540442 -1.02764255978e-19)
(0.141333989979 -0.366026633872 -4.55846734325e-20)
(0.210040869107 -0.392409937474 -7.59564469808e-20)
(0.274585393764 -0.391245715871 -8.09427419662e-20)
(0.333659653733 -0.378713474139 2.95758232473e-20)
(0.387317780557 -0.362508264118 -2.07738227199e-20)
(0.435661448006 -0.345912921846 2.89979135921e-21)
(0.48236779126 -0.333332634421 -8.41755702649e-21)
(-0.0119939778419 0.0272380900452 -4.11585695312e-20)
(0.0310724892137 -0.181230700805 1.72878070213e-19)
(0.118639838197 -0.389366547821 7.11509806155e-20)
(0.201521619031 -0.499819869561 2.71681623112e-19)
(0.274296633427 -0.53505420253 4.95624144901e-20)
(0.338404459892 -0.53173160239 -2.81327433577e-19)
(0.395214098666 -0.512622311738 -3.05545282622e-20)
(0.446013237046 -0.48853261742 8.9102312425e-20)
(0.491249037138 -0.464146811664 -3.59321780211e-20)
(0.536464101458 -0.446011389951 -4.68122476249e-21)
(-0.0174327305843 0.0357721633711 -1.13095221291e-19)
(0.0610702475498 -0.226096936886 -2.65170617284e-20)
(0.183358260156 -0.487499045085 3.2062131821e-20)
(0.284315316271 -0.625187056352 -1.34529838192e-19)
(0.362544790473 -0.667839886562 6.91844310548e-20)
(0.4259294171 -0.661964582612 1.89274409707e-19)
(0.479550833972 -0.636401873784 5.29410325395e-20)
(0.526386402624 -0.604778149091 -1.16145155791e-20)
(0.567378298457 -0.573116639396 2.13539017296e-20)
(0.610576079034 -0.549635904049 -2.5421616086e-21)
(-0.0233526206799 0.0409062750517 0)
(0.100112917883 -0.270125312672 8.8488156376e-20)
(0.265538756684 -0.578516274918 2.57788082937e-19)
(0.388675886905 -0.739327795087 -2.75543519537e-19)
(0.473376096443 -0.78759226756 -5.76872454929e-19)
(0.535605880598 -0.778723958694 1.96179197619e-19)
(0.585106594012 -0.746929624654 -2.7380946598e-20)
(0.626934942907 -0.708272782201 -1.0006583163e-19)
(0.662677750789 -0.670015986364 0)
(0.703342403672 -0.641417797087 -8.85276783297e-21)
(-0.0286842176304 0.0420182778097 5.47664789365e-20)
(0.148858527152 -0.312811834839 8.50851532066e-20)
(0.364610313954 -0.660532060677 4.1987799677e-20)
(0.513090691749 -0.839538502941 2.41692088192e-19)
(0.604804377864 -0.891316662416 -1.91393766296e-19)
(0.665287926703 -0.879040241226 -2.92168803597e-19)
(0.709757072782 -0.841387508701 5.10622055528e-19)
(0.745654441646 -0.796381544291 5.48465077627e-20)
(0.775357153483 -0.752357122682 -3.02714126446e-19)
(0.812944966343 -0.718823194807 -7.08093946085e-21)
(-0.0321707898049 0.0386949287447 -3.39299314822e-21)
(0.207906558522 -0.353399665457 7.35757131967e-21)
(0.479640217004 -0.731608658161 1.32464602997e-19)
(0.655474004705 -0.923287112784 2.61376826843e-20)
(0.75418079617 -0.976372912707 3.22317114796e-19)
(0.812158263483 -0.960415592117 -4.02939883914e-19)
(0.850746023185 -0.917520081419 -4.07305258942e-19)
(0.879958517579 -0.867117121641 -3.43101075372e-19)
(0.903123890375 -0.8182871472 2.52326005982e-19)
(0.936854025236 -0.779823939103 2.74324353523e-19)
(-0.0324945568951 0.0308937020287 -1.28198801879e-19)
(0.277536940171 -0.390747334041 6.12943640734e-20)
(0.609043833583 -0.789744047234 2.98209219408e-19)
(0.812910373417 -0.988311881629 -1.77402682584e-19)
(0.917981491786 -1.04065324152 3.35817693843e-19)
(0.97256222885 -1.02113425009 7.93240510443e-19)
(1.0045435464 -0.974104434728 5.46881093659e-19)
(1.02653128826 -0.919824519825 -4.30583875738e-19)
(1.04300336801 -0.867455752658 -2.05094547856e-19)
(1.07106954166 -0.823894011273 2.96582198218e-19)
(-0.0285780531546 0.0191454306663 -1.792063464e-19)
(0.3572430645 -0.423128254442 -2.80817377548e-19)
(0.750098695373 -0.832655752058 6.74255720128e-19)
(0.981085860381 -1.03235263125 7.62563747181e-19)
(1.09104215832 -1.08215111199 -7.50459189758e-19)
(1.14095738886 -1.0596101674 8.24666638717e-19)
(1.16544369868 -1.01013692541 1.38036775341e-19)
(1.17957454144 -0.954272744625 -9.94023982691e-19)
(1.18926861159 -0.900016290554 -2.45535603932e-19)
(1.20705685917 -0.851552527394 3.36042353868e-19)
(-0.0197007451054 0.00452308792776 8.95639449233e-20)
(0.445987691296 -0.448217169468 -3.055674742e-19)
(0.899614614197 -0.857622520834 -4.47486469618e-19)
(1.15526552816 -1.05262777498 7.71843707722e-19)
(1.26755979293 -1.09800007238 6.07533601483e-19)
(1.31048636269 -1.07270176857 -7.45272450881e-19)
(1.32526259993 -1.02204996464 -6.15015625182e-19)
(1.32937400967 -0.96614667694 3.66470659583e-19)
(1.33026542636 -0.910467501905 -3.84704660847e-19)
(1.32852388519 -0.859125319368 -2.2866272862e-19)
(0.620893009758 -0.174245708623 3.88376464569e-20)
(0.799716274285 -0.133040618091 -7.72556863804e-20)
(0.88805080921 -0.103924508297 5.67399683235e-21)
(0.939049451672 -0.0812342280635 1.33277016191e-20)
(0.969016566381 -0.0629317002134 -6.29502100531e-21)
(0.986734542598 -0.0479627759543 -3.17342783074e-21)
(0.997606386923 -0.0356837695681 -4.85028499258e-21)
(1.00444020957 -0.02546785799 -3.15623241712e-21)
(1.0085652237 -0.0173526565106 7.93021859627e-21)
(1.01134753939 -0.00714928560576 2.95782644102e-21)
(0.638667116595 -0.247947753597 1.0582167481e-19)
(0.811571753061 -0.172739380879 1.69301004136e-20)
(0.896520907493 -0.125479632818 4.62436595771e-21)
(0.945475695903 -0.0931984537446 -7.76536126516e-21)
(0.974079870443 -0.0698742814826 -1.73374453146e-20)
(0.990803246751 -0.0521103609052 0)
(1.00090709148 -0.038208852032 -5.07908472388e-21)
(1.00715467361 -0.0270081184345 3.90292069448e-21)
(1.01087605491 -0.0182882029929 4.78745680108e-22)
(1.01332306487 -0.00751318750077 -3.61314690026e-21)
(0.666930490155 -0.319150938633 -6.06522327132e-20)
(0.828569649267 -0.211532228208 -4.19012823743e-20)
(0.907783066103 -0.14673113141 1.88657512103e-20)
(0.953365241474 -0.10502838343 -9.25349040671e-21)
(0.979926737538 -0.0767049371238 -3.92924551612e-21)
(0.995323869581 -0.056153418841 6.23672250659e-21)
(1.00448265691 -0.0406380140638 0)
(1.01003927896 -0.0284667380983 0)
(1.01331073313 -0.0191581653679 -2.19324322189e-21)
(1.01538188671 -0.00784685325659 0)
(0.705766969338 -0.386469004327 -3.31987674999e-20)
(0.850480227047 -0.248834510391 7.91860418601e-20)
(0.921758646712 -0.167407598707 8.67795339916e-21)
(0.962700920684 -0.116596924953 0)
(0.986552965868 -0.0833514573514 2.33814864686e-20)
(1.00028998371 -0.060048651181 -3.62858486251e-21)
(1.00831883663 -0.0429444215566 0)
(1.01309551951 -0.0298266577324 4.45011505086e-21)
(1.01585541142 -0.0199519385593 0)
(1.01752271273 -0.00814595026219 6.24977384339e-22)
(0.755259839525 -0.448549225954 -3.03620707174e-20)
(0.877035280056 -0.284113361194 1.05821723004e-19)
(0.938339904013 -0.187248614796 -4.68807577397e-21)
(0.973454196006 -0.127780237985 0)
(0.993948693638 -0.0897453362405 5.22128823461e-21)
(1.00569111538 -0.0637540793832 7.14994650819e-21)
(1.01241465735 -0.0451014867706 5.98928244546e-21)
(1.01628838868 -0.0310709002956 1.09330781635e-21)
(1.0184802002 -0.0206583677728 -2.24327709445e-21)
(1.01971653042 -0.00840612376907 2.69889616876e-21)
(0.815230046084 -0.50401745939 -6.83614125439e-19)
(0.907904473007 -0.316899345329 -1.88476533931e-19)
(0.957371561056 -0.206047064546 1.88204857584e-21)
(0.985576680376 -0.138466663345 3.39660272414e-20)
(1.00209967153 -0.0958255097837 -8.1304270131e-21)
(1.01150904623 -0.0672307982801 5.11060374673e-21)
(1.01674585705 -0.0470835921627 5.26287455625e-21)
(1.01963768304 -0.0321822003084 -9.50697403642e-21)
(1.02120082202 -0.0212669081714 -2.10819788301e-22)
(1.02196454981 -0.00862307597658 1.28611256956e-22)
(0.884776140397 -0.551305240917 -1.98515301151e-20)
(0.94233757343 -0.346308270429 7.24209949827e-20)
(0.978531142099 -0.223572942664 3.68833710865e-21)
(0.99897545244 -0.148554209136 -9.51142358836e-22)
(1.01096848446 -0.101539474179 -2.48592123679e-20)
(1.01771883183 -0.0704456258162 5.36931756112e-21)
(1.02128765764 -0.0488675747438 -3.5796699136e-21)
(1.02309582259 -0.0331444556794 -4.29479905782e-21)
(1.02397727128 -0.0217668359687 1.11307424711e-21)
(1.02426280773 -0.00879263413619 -1.87046189197e-21)
(0.962581535065 -0.589618847314 3.0046694408e-19)
(0.97863671156 -0.371851292401 8.27473296591e-20)
(1.0007428409 -0.239471324085 0)
(1.01324713049 -0.157840679327 -4.2669122351e-22)
(1.0204029214 -0.106791328778 1.97928744203e-20)
(1.02427178955 -0.0733521957825 1.13971295878e-21)
(1.02601387164 -0.0504291495689 -1.56856744467e-20)
(1.02664097725 -0.0339433278134 4.37701014317e-21)
(1.02679567805 -0.0221494010369 -4.16481683617e-23)
(1.02657478627 -0.00891221490726 -3.12184730394e-22)
(1.05103459308 -0.621974829053 -4.36800097419e-19)
(1.01677999172 -0.396894613492 -2.18306145583e-19)
(1.02268324889 -0.255448125653 5.19370355151e-20)
(1.02745983884 -0.166995397573 -1.92957074872e-22)
(1.02992185216 -0.111797208759 -2.31367522304e-21)
(1.03091254884 -0.07600189126 -1.50977417047e-20)
(1.03082703471 -0.0517701593445 3.97059283087e-21)
(1.03023839849 -0.034569912076 5.2987933829e-22)
(1.0296316244 -0.0224064220223 -3.22390172331e-21)
(1.02888594892 -0.00898084719407 -2.78365006071e-21)
(1.15606920853 -0.645516786742 3.04404705032e-19)
(1.06731682231 -0.418027597763 -2.19652099827e-19)
(1.04842557495 -0.272089081072 -3.98398903944e-20)
(1.04263123391 -0.177200461302 -4.18760729972e-20)
(1.0396572269 -0.117403797041 -2.37032471853e-20)
(1.03759125147 -0.0788671878495 -1.1601800528e-20)
(1.03564347395 -0.0531172664698 -5.59620918184e-21)
(1.03384866803 -0.0351163366889 0)
(1.03245266785 -0.0225709044339 -3.99287842234e-22)
(1.03119879606 -0.0089924762323 2.07990973078e-21)
(1.31099171105 -0.631929388357 5.09098352214e-19)
(1.16724478332 -0.418507650249 1.63954287246e-19)
(1.10442068188 -0.273904404934 -1.122811339e-19)
(1.07471481684 -0.178907534871 7.27725763663e-21)
(1.05853812982 -0.11835643378 9.08638777347e-21)
(1.04923569872 -0.0791510321589 -5.27543263955e-21)
(1.04322161339 -0.0530002708294 3.07066113483e-22)
(1.03902400638 -0.0348328856485 4.54232307118e-21)
(1.03626044448 -0.0222652981938 -3.16411477926e-21)
(1.03417098569 -0.00885334157339 8.89979336104e-23)
(1.36354693937 -0.518777754299 -1.32335919225e-20)
(1.20217339869 -0.357285653855 1.55562635e-19)
(1.13354510428 -0.242764558975 1.17333590477e-19)
(1.09761381154 -0.16379485989 -1.40363151414e-20)
(1.07489438563 -0.110407998101 5.50928325614e-20)
(1.06054494366 -0.0745167337845 3.5830469462e-20)
(1.05109098651 -0.0500918705712 2.45396752694e-20)
(1.04465010012 -0.0329687671586 -2.42197674244e-21)
(1.04049404591 -0.0210878011729 8.59501195238e-21)
(1.03752193157 -0.00837785831437 3.85526939556e-21)
(1.42142922356 -0.445004719161 -1.41193735539e-19)
(1.25317229572 -0.31830291858 -1.07664842335e-20)
(1.16890467001 -0.220239763524 5.72490233161e-21)
(1.1216387784 -0.150564009145 4.23267144783e-37)
(1.09113142423 -0.10225237691 8.17931651881e-22)
(1.07155629454 -0.0692438411023 -9.83499299605e-35)
(1.05868094069 -0.0465879200776 -2.93465836867e-21)
(1.05003078564 -0.0306510298277 -2.13862970448e-34)
(1.04454108664 -0.0195950879859 8.55032368549e-22)
(1.04065649795 -0.00778143465682 -2.54579781744e-21)
(1.45725021881 -0.366364076152 -2.00898872783e-34)
(1.28976933091 -0.271458818344 -4.09765681281e-20)
(1.19733040681 -0.192240433203 -4.12977271677e-20)
(1.14216963838 -0.133660793237 0)
(1.10554645383 -0.0916855725008 -2.32804546579e-20)
(1.08151266197 -0.0623968713245 -1.60022998046e-20)
(1.06561333699 -0.0420643229783 -9.30427364522e-21)
(1.05496470566 -0.0276858595548 -2.6343405948e-34)
(1.04824159256 -0.017702909853 -2.86577260468e-21)
(1.04351532558 -0.00703176368592 2.41672069452e-21)
(1.4800139215 -0.294983358967 -8.76968772834e-20)
(1.31781169762 -0.225559938476 4.53866772296e-21)
(1.22054870195 -0.162803971686 0)
(1.15949658044 -0.114724535272 0)
(1.1179816639 -0.0793752392819 0)
(1.09023341563 -0.0542735096587 0)
(1.07172729058 -0.0366678507134 -5.76944537255e-22)
(1.05933190819 -0.0241518662989 -2.94556498356e-34)
(1.051514977 -0.0154525274807 7.54779300989e-22)
(1.04604399242 -0.00614169624301 2.89147875044e-34)
(1.49400021381 -0.229233039864 -3.72728555263e-20)
(1.33865324617 -0.180024420569 0)
(1.23886826795 -0.132122101323 0)
(1.1735959418 -0.0941781193536 0)
(1.12831218458 -0.065655657189 0)
(1.09759993944 -0.0450892091294 0)
(1.07692994912 -0.0305300500971 9.6925919475e-22)
(1.06306082826 -0.0201272463736 5.74649984825e-21)
(1.05432024195 -0.0128884323182 7.0964524219e-22)
(1.04819519717 -0.00512675750622 3.22341121144e-21)
(1.50209592789 -0.168558555631 0)
(1.3534714099 -0.135339112859 -1.30719839431e-20)
(1.25265771765 -0.100700301918 -1.67684904736e-20)
(1.1844799115 -0.072464154059 0)
(1.1364474421 -0.0508452400554 -1.07748009251e-20)
(1.10345437415 -0.0350544740141 -7.69709214459e-21)
(1.08109382886 -0.0237855043296 -4.38936721929e-21)
(1.06605673659 -0.0156962089199 -3.36784675344e-21)
(1.05657123497 -0.0100603433046 4.50668536285e-21)
(1.04990938528 -0.00400564359297 1.40507137262e-21)
(1.50536064047 -0.111821879264 9.13395747449e-21)
(1.36216059481 -0.0914646899412 7.07572679453e-21)
(1.26127688485 -0.0686878550066 -4.01017100773e-21)
(1.19144619732 -0.0497764342959 2.92066434458e-36)
(1.14163689232 -0.0351002166212 5.97263815155e-22)
(1.1071001008 -0.0242747057219 -6.13541863246e-35)
(1.08360474364 -0.0165001945366 7.38097831469e-22)
(1.06773024049 -0.0108978082195 3.16295272852e-21)
(1.0577194237 -0.00698557530174 5.86568154944e-22)
(1.05064818556 -0.00277728772047 -1.96759932406e-21)
(1.48432625 -0.0557285649605 -4.50724157672e-20)
(1.34507697693 -0.0506099478991 1.2172267306e-20)
(1.24677156497 -0.0391734641461 1.30600185791e-20)
(1.17801700537 -0.0287573520629 0)
(1.12865233164 -0.0204119865197 7.74975371651e-21)
(1.09422195193 -0.0141653107646 5.48922296379e-21)
(1.07070025231 -0.00964675764351 4.38035964351e-21)
(1.05480684689 -0.00637841686167 2.42847838645e-21)
(1.0447610126 -0.00409023164851 -2.29028468152e-21)
(1.03768428299 -0.00162299986751 2.40911477079e-21)
(1.11111992322 -0.00314975969019 0)
(1.02271037657 -0.00701591983 0)
(0.953993309812 -0.00624403271149 0)
(0.904047540192 -0.00476383892391 0)
(0.867590020603 -0.00342621461536 0)
(0.841964347235 -0.0023998974472 0)
(0.824340068151 -0.00164506204637 5.74028402441e-22)
(0.812379884234 -0.0010972712141 -3.61018597986e-36)
(0.80478421634 -0.000690535725071 5.80370015227e-22)
(0.799428711741 -0.00026245194773 1.80544239962e-21)
(2.1271889294 -0.0262339813668 8.62864938697e-19)
(2.11766295579 -0.132674945906 5.99194975783e-20)
(2.09035284236 -0.236936349715 -1.30070238381e-19)
(2.04537628908 -0.336786617656 -3.37524422433e-19)
(1.98486310729 -0.430125881365 -1.19891368972e-19)
(1.90728407141 -0.516721371277 -1.76192357892e-19)
(1.82405228002 -0.587278021334 -4.09697248726e-19)
(1.71143508585 -0.664090653696 1.33185445351e-19)
(1.63424548053 -0.683578238819 0)
(1.46799658685 -0.772310114209 3.37282118328e-20)
(2.04090591428 -0.0191766176835 2.13358962772e-19)
(2.0331129228 -0.0988547738663 -3.34202737982e-19)
(2.01217483113 -0.177559083716 9.10869904261e-22)
(1.9767981686 -0.254330304485 -1.32683427224e-19)
(1.93238664188 -0.326002533452 1.33920541247e-20)
(1.86940995881 -0.39823915031 1.14765023184e-19)
(1.81258700137 -0.448493551074 3.49455132489e-20)
(1.71808704847 -0.528822863994 9.85799328056e-20)
(1.66667161018 -0.529137295239 -1.20125520014e-19)
(1.5494544542 -0.624283982863 2.17991783098e-20)
(1.96705810565 -0.0142624975965 -1.14129474763e-19)
(1.96119131495 -0.0775477660582 2.0385544768e-19)
(1.94511108846 -0.139676204899 1.89517499247e-19)
(1.91678293666 -0.200623769067 -2.19480451369e-19)
(1.88243199035 -0.256571310397 1.08548177391e-19)
(1.83147558749 -0.316072926678 1.0278056192e-19)
(1.7875429096 -0.353230265571 -7.06695068056e-20)
(1.71383967246 -0.424684514178 8.35666698962e-20)
(1.66768287225 -0.422371780981 8.40938233859e-20)
(1.58219478514 -0.506479496003 1.07970212336e-19)
(1.91031543048 -0.0131748178491 -1.84896776245e-19)
(1.90562612876 -0.0616826319215 5.42648677376e-20)
(1.89226770649 -0.109446459215 -1.15479324408e-19)
(1.8687357422 -0.156956967225 -6.80424222629e-20)
(1.84000912041 -0.20048713438 4.16223798892e-20)
(1.79841764415 -0.248332312475 -1.03876266307e-19)
(1.76039942845 -0.277604696055 7.34238092711e-20)
(1.70304942143 -0.336280185478 3.05609943613e-20)
(1.66001619308 -0.335977573304 -1.77170483809e-20)
(1.59586164336 -0.404423924917 8.24685381563e-21)
(1.86602244139 -0.011238949048 5.58963887985e-20)
(1.86216403057 -0.0482136118505 4.22239870927e-20)
(1.85067299652 -0.0845930458585 -6.52770206155e-20)
(1.83073620233 -0.120949771938 2.29710403981e-19)
(1.80557047896 -0.154321996379 1.79223761005e-20)
(1.77100052383 -0.191333292882 -1.3024448664e-19)
(1.73669392746 -0.214535815154 1.95858953672e-20)
(1.69084728691 -0.259817087999 -8.53631653145e-20)
(1.65116898756 -0.261722418649 1.17339452708e-19)
(1.60032969715 -0.314441931815 8.53260542096e-20)
(1.83247742723 -0.0105742886287 -9.9894373483e-20)
(1.82929145507 -0.0376573601954 -5.75650759231e-20)
(1.81908825031 -0.0643133591524 3.82807593289e-20)
(1.80164907859 -0.0910628350601 7.86049168379e-20)
(1.77885621839 -0.115825709881 3.0067164319e-20)
(1.74910235334 -0.143304970853 -3.90705017005e-20)
(1.71734933683 -0.16134199581 3.02338944752e-21)
(1.6789006784 -0.194858063275 5.8168338832e-20)
(1.64203588897 -0.198222929954 1.09264063493e-19)
(1.59915542406 -0.237409870186 -5.2933164273e-20)
(1.80799236197 -0.0103443540194 -4.28054370875e-20)
(1.80540364907 -0.0288679888105 -7.74392854508e-20)
(1.79617947918 -0.0470725949142 -4.55439644224e-20)
(1.78050274409 -0.06542528971 -9.46311271395e-20)
(1.75933995813 -0.0826241329974 -2.5095269383e-20)
(1.73270408099 -0.101803240501 -7.54246295809e-21)
(1.70269958697 -0.115003130427 4.82301425823e-20)
(1.66871788582 -0.138678335923 -1.91635045239e-20)
(1.63403924075 -0.142416375774 -3.04982948061e-20)
(1.59566693796 -0.17051630464 1.1968265729e-20)
(1.78735239743 -0.0100538462523 3.3436132716e-20)
(1.78584820663 -0.0208791163585 3.59461267392e-20)
(1.77799827617 -0.0314278227744 1.25394692796e-20)
(1.76420934162 -0.0420574893088 -2.17181595912e-20)
(1.74481047461 -0.0521512878674 -1.73978266518e-20)
(1.72071587293 -0.0637881571854 3.85412033588e-20)
(1.69227825876 -0.0720616724171 -5.38712110523e-22)
(1.66106247595 -0.0875050687668 -5.07836254969e-20)
(1.62790934549 -0.0903951898201 1.21849169366e-20)
(1.59190845464 -0.110311699927 4.98249768264e-20)
(1.7146711183 -0.0141915198447 -2.12088201036e-20)
(1.71472109022 -0.0167161175807 6.36659865195e-21)
(1.7110112751 -0.0188963862812 3.57627119617e-20)
(1.70317386078 -0.0211155862338 3.94325528697e-21)
(1.69074128266 -0.0231052362519 -7.93134613362e-22)
(1.67466654556 -0.0264842676404 -1.088623759e-20)
(1.65357975045 -0.0280576231731 2.24074171695e-20)
(1.63084599123 -0.0353349325779 -3.1251539369e-20)
(1.60219534495 -0.0350875238107 3.55692940465e-20)
(1.5755988406 -0.0471182818988 1.19090120432e-19)
(1.12429379284 -0.00837330382918 2.90978674009e-20)
(1.11634806471 -0.00554283010128 1.80021652624e-20)
(1.11147643785 -0.00272748181508 1.42148461769e-20)
(1.11001464378 -4.40881057825e-05 1.46690547578e-20)
(1.11106279162 0.00245552929858 -7.19604104501e-22)
(1.11532343011 0.00449434703067 6.54536594788e-21)
(1.11865023498 0.0065970758263 -9.86172538735e-21)
(1.12789251238 0.00640326352231 3.16380316651e-21)
(1.12568168662 0.00944743733364 -4.99437249792e-21)
(1.14267695878 0.00475950608605 5.57854096281e-21)
(1.38314909747 0.750877716086 -5.56820524169e-20)
(1.36704320221 0.802365220333 2.34572822087e-20)
(1.37180341591 0.858504248802 -4.84684185542e-19)
(1.38234924578 0.921142662073 2.07526843871e-19)
(1.39267444605 0.98824426597 9.11326537929e-19)
(1.39884277668 1.05675514943 -1.32205003015e-19)
(1.38371245003 1.11358506687 -8.80195816476e-19)
(1.28718814715 1.10223028232 -2.03532842834e-20)
(0.984179719187 0.886699543652 -4.17566459235e-19)
(0.398287553391 0.35872809559 1.70084160076e-19)
(1.54868985965 0.72474454865 0)
(1.54066119818 0.774242734232 5.59413496406e-19)
(1.5411999297 0.826644534471 1.26717708216e-18)
(1.5487189066 0.887209232389 -7.70613657454e-19)
(1.56052427346 0.953807713262 -1.84396691143e-18)
(1.57093343552 1.02268510564 -1.38557514723e-19)
(1.55864295377 1.080002006 -1.78813033997e-19)
(1.45325100919 1.06906160729 6.60391582794e-19)
(1.10960054929 0.856746619942 8.51662499804e-19)
(0.443690585953 0.339895720543 3.54005637939e-19)
(1.68798301317 0.703093236663 6.30119016695e-20)
(1.69271273524 0.749046463978 0)
(1.69857277106 0.797250611491 -6.48636231609e-20)
(1.7097218293 0.852495817477 7.7922739294e-19)
(1.72575069011 0.9138686272 5.20684175224e-20)
(1.74080533417 0.978285098821 -1.91802316624e-18)
(1.73064415748 1.03179772582 1.25053985904e-18)
(1.61502842939 1.01874658538 7.95147336191e-19)
(1.22935556357 0.811925587082 -7.65555758801e-19)
(0.484555179396 0.31434162123 -2.76681605921e-19)
(1.80074113247 0.667814231623 -1.27900835495e-19)
(1.81695218728 0.709335491056 -1.00455569928e-19)
(1.83312279316 0.753148529707 2.27627913024e-19)
(1.85320387453 0.802896470916 -2.86520610773e-19)
(1.87716034079 0.858367422497 -1.37554468048e-18)
(1.89903054754 0.916972114814 -1.08077577912e-18)
(1.89176042745 0.964855676924 1.20629850289e-18)
(1.76521468874 0.948446275067 8.18624501732e-19)
(1.33669111057 0.749883368927 0)
(0.516288451067 0.280474421791 0)
(1.8967915492 0.610088709179 -7.82274516646e-19)
(1.92246575459 0.647407893684 -1.39672872708e-18)
(1.9490517382 0.687070763651 -5.53116406835e-19)
(1.97911564352 0.731663915397 -3.28823308539e-20)
(2.01221281089 0.781237365035 0)
(2.04174828067 0.833487168855 1.38543186993e-19)
(2.03723190178 0.874858889747 1.64992256756e-19)
(1.89851206233 0.854993423496 2.13712431943e-19)
(1.42634638023 0.669216743639 -3.2378261024e-19)
(0.535577499592 0.238726889886 -8.03430218805e-20)
(1.98325560669 0.531406839504 9.53255305008e-19)
(2.01604222208 0.564593775904 -4.05068710371e-20)
(2.05106778825 0.599941213738 -1.14236382278e-18)
(2.0897502708 0.639195080023 0)
(2.13110223018 0.682478627786 0)
(2.167402389 0.727725857017 0)
(2.16414810568 0.761874727999 1.53661672592e-18)
(2.01108117771 0.739078688108 -1.88059367115e-18)
(1.49513749298 0.571990414228 -1.06479194942e-18)
(0.540833055899 0.191711494102 -9.47268127929e-20)
(2.06022203528 0.436990283586 -1.28145048541e-18)
(2.0981767103 0.465415639958 -2.70967498856e-18)
(2.13952232082 0.495546505889 -4.78681733625e-21)
(2.18494275413 0.528631524771 5.67907150183e-19)
(2.23288773963 0.564829926523 -3.97163278862e-20)
(2.2741612946 0.602251571142 1.30895629304e-18)
(2.26982329999 0.628919680776 -7.77304799261e-19)
(2.10052318777 0.603762166943 -2.40065918282e-18)
(1.54048430223 0.462536006422 1.79054960233e-19)
(0.532127650714 0.143583687285 1.22835713978e-19)
(2.1243085553 0.3312377549 -1.03476011066e-18)
(2.16612971692 0.353809354659 1.51223988211e-20)
(2.21218496482 0.377524767453 4.09964636943e-19)
(2.26263980624 0.403423361903 -4.06323917063e-19)
(2.31540428333 0.431666106843 6.48362707499e-19)
(2.35974546614 0.460669045743 1.85106225638e-18)
(2.35211143928 0.47895373591 -2.14436947283e-19)
(2.16320434853 0.454611067056 -1.41297823898e-18)
(1.56039538003 0.347483933882 2.72481478489e-19)
(0.511821799451 0.0972088198208 1.03162176401e-20)
(2.17208132435 0.217124203166 4.00484625859e-19)
(2.21683926048 0.232960531861 7.61852513917e-20)
(2.26630388812 0.249251776535 -4.343250723e-19)
(2.32027022235 0.26699597222 -1.05336267783e-18)
(2.37618673887 0.286309612737 8.68576879612e-20)
(2.4215881367 0.306104562748 8.67936721192e-20)
(2.40824524621 0.318387203589 -1.72549444288e-18)
(2.19634644558 0.29820858095 7.96717657761e-19)
(1.55632487697 0.228183457499 1.89578022026e-19)
(0.481814121307 0.0530310358161 -1.22729299206e-19)
(2.20170230653 0.0970617774991 7.87317811081e-19)
(2.24841841406 0.105270698405 -1.22647057998e-18)