/*--------------------------------*- C++ -*----------------------------------*\
  =========                 |
  \\      /  F ield         | OpenFOAM: The Open Source CFD Toolbox
   \\    /   O peration     | Website:  https://openfoam.org
    \\  /    A nd           | Version:  13
     \\/     M anipulation  |
\*---------------------------------------------------------------------------*/
FoamFile
{
    format      ascii;
    class       volScalarField;
    location    "63.2";
    object      p;
}
// * * * * * * * * * * * * * * * * * * * * * * * * * * * * * * * * * * * * * //

dimensions      [0 2 -2 0 0 0 0];

internalField   nonuniform List<scalar> 
440
(
-0.851099
-0.835837
-0.829422
-0.792011
-0.841954
-0.925808
-0.907096
-0.883815
-0.854745
-0.830276
-1.04466
-1.01073
-0.968287
-0.913604
-0.852494
-1.18487
-1.13557
-1.0421
-0.930288
-0.817051
-1.27945
-1.21149
-1.05671
-0.896193
-0.749617
-1.00811
-1.03972
-1.10354
-1.16417
-1.20688
-1.00676
-1.01103
-1.02774
-1.04802
-1.06601
-0.960482
-0.950851
-0.947135
-0.951711
-0.956862
-0.889289
-0.870971
-0.843928
-0.813541
-0.787476
-0.805776
-0.792764
-0.766394
-0.717451
-0.70152
-1.33548
-0.63559
-0.0225141
0.101269
0.0128851
-1.21148
-0.970864
-0.0952581
0.007844
0.00802734
-1.22695
-1.23581
-0.147167
0.0536607
0.00693752
-0.974332
-1.288
-0.188342
0.0710512
0.00791096
-0.75566
-1.23885
-0.218678
0.0363532
0.0112089
-0.500259
-1.03887
-0.205945
-0.0122888
0.0145785
-0.288582
-0.653118
-0.148457
-0.126203
-0.0222488
-0.211921
-0.393535
-0.133477
0.0556848
-0.00265894
-0.145666
-0.245962
-0.143388
-0.00919604
-0.016269
-0.0238119
-0.232054
-0.167528
0.0333672
-0.00393666
-0.501498
-0.60846
-0.735236
-0.875162
-0.963939
-0.259154
-0.364769
-0.434577
-0.470546
-0.470869
-0.0942822
-0.183184
-0.242741
-0.27192
-0.292323
0.0113592
-0.0710462
-0.130758
-0.161422
-0.179381
0.0618936
-0.0200879
-0.0733984
-0.0942387
-0.0879976
0.782183
0.630098
0.436957
0.224183
-0.00306373
0.372184
0.213826
0.0213832
-0.196838
-0.441211
-0.027257
-0.188157
-0.390821
-0.617346
-0.847715
-0.369929
-0.534819
-0.740639
-0.962345
-1.14065
-0.60495
-0.77091
-0.962105
-1.16229
-1.27834
1.82527
1.85551
1.88239
1.89522
1.89099
1.63883
1.65928
1.67358
1.67054
1.64639
1.42992
1.41792
1.38271
1.32479
1.24166
1.19333
1.15957
1.09009
0.9909
0.864957
0.983789
0.879787
0.744693
0.590742
0.406542
1.60701
1.6009
1.57393
1.64841
1.70949
1.59799
1.59086
1.55598
1.63237
1.62265
1.59011
1.57795
1.53533
1.60521
1.50704
1.58348
1.5616
1.51381
1.56176
1.34083
1.57805
1.54704
1.492
1.5185
1.16212
1.57465
1.52128
1.46477
1.41892
0.954523
1.57446
1.49216
1.46527
1.29687
1.0851
1.58016
1.47768
1.46381
1.22781
1.13523
1.58137
1.45229
1.45679
1.16471
1.15641
1.61547
1.44979
1.45498
1.12318
1.19885
0.754275
0.45329
0.119602
-0.168081
-0.353279
0.6467
0.440686
0.218038
0.0273977
-0.136753
0.629229
0.463395
0.301507
0.156072
0.0179208
0.683744
0.527882
0.380943
0.245409
0.119829
0.733546
0.573148
0.42601
0.291455
0.168283
-1.70881
-1.55912
-1.38302
-1.23685
-1.14799
-1.81633
-1.73722
-1.59037
-1.46164
-1.3728
-1.77194
-1.71605
-1.61275
-1.50944
-1.42134
-1.65116
-1.606
-1.54112
-1.46439
-1.3816
-1.52322
-1.50316
-1.46668
-1.41331
-1.34171
-1.47134
-1.46708
-1.44409
-1.43327
-1.33242
-1.41961
-1.41442
-1.39817
-1.39979
-1.3341
-1.40825
-1.39989
-1.38862
-1.38313
-1.35868
-1.50073
-1.53236
-1.57706
-1.61738
-1.64831
-1.30505
-1.38629
-1.48606
-1.58158
-1.66061
-0.99391
-0.261424
0.249804
0.29227
-0.000336588
-1.05526
-0.266606
0.304136
0.308887
-0.00132952
-1.21081
-0.364528
0.221111
0.280269
0.00187052
-1.6705
-0.454938
0.0313728
0.216446
0.00761578
-1.71228
-0.486943
-0.0190122
0.171989
0.0121255
-0.587795
-0.449996
0.144125
0.263665
0.00846895
-0.838981
-0.332322
0.207484
0.294706
0.0114881
-1.0953
-1.31641
-1.33126
-1.24931
-1.0127
-1.11581
-1.32748
-1.35564
-1.27879
-1.19532
1.44408
1.42145
1.38175
1.32602
1.25225
1.64165
1.66054
1.6654
1.65426
1.62712
1.80739
1.83957
1.86564
1.88018
1.88046
1.90561
1.94423
1.98493
2.01783
2.03275
1.90675
1.94252
1.98221
2.01492
2.02968
-0.695144
-0.801508
-0.966357
-1.16483
-1.39207
-0.0978305
-0.22993
-0.406795
-0.619909
-0.883845
0.445364
0.307271
0.142091
-0.0520005
-0.290543
0.880606
0.773798
0.644234
0.487892
0.300224
1.22946
1.15498
1.0591
0.944699
0.810555
1.66606
1.6257
1.60493
1.60624
1.60197
1.65121
1.62356
1.60532
1.62396
1.67039
1.63875
1.62028
1.60453
1.64765
1.74609
1.62726
1.61567
1.59866
1.65748
1.76095
1.61664
1.60964
1.588
1.65801
1.75327
1.72177
1.63125
1.59152
1.52968
1.46182
1.67622
1.62195
1.5866
1.54993
1.48259
1.11604
0.88966
0.502831
-0.0546207
-0.661576
1.19487
0.921667
0.520249
-0.0339685
-0.654724
)
;

boundaryField
{
    left
    {
        type            zeroGradient;
    }
    right
    {
        type            fixedValue;
        value           uniform 0;
    }
    down
    {
        type            zeroGradient;
    }
    up
    {
        type            zeroGradient;
    }
    cylinder
    {
        type            zeroGradient;
    }
    defaultFaces
    {
        type            empty;
    }
}


// ************************************************************************* //
