/*--------------------------------*- C++ -*----------------------------------*\
  =========                 |
  \\      /  F ield         | OpenFOAM: The Open Source CFD Toolbox
   \\    /   O peration     | Website:  https://openfoam.org
    \\  /    A nd           | Version:  13
     \\/     M anipulation  |
\*---------------------------------------------------------------------------*/
FoamFile
{
    format      ascii;
    class       volScalarField;
    location    "69";
    object      p;
}
// * * * * * * * * * * * * * * * * * * * * * * * * * * * * * * * * * * * * * //

dimensions      [0 2 -2 0 0 0 0];

internalField   nonuniform List<scalar> 
440
(
-0.940216
-0.923522
-0.914451
-0.877664
-0.92455
-1.01658
-0.997051
-0.972557
-0.942551
-0.916241
-1.13865
-1.10342
-1.05872
-1.00107
-0.937343
-1.27991
-1.22965
-1.13234
-1.01628
-0.899221
-1.37386
-1.30396
-1.14439
-0.978986
-0.828263
-1.02516
-1.05799
-1.11896
-1.17211
-1.20431
-1.05981
-1.06734
-1.08721
-1.11635
-1.13011
-1.04356
-1.03375
-1.03035
-1.03951
-1.05183
-0.985049
-0.967122
-0.943066
-0.921333
-0.914277
-0.907612
-0.89339
-0.866807
-0.822339
-0.818702
-1.31534
-0.606946
0.123142
0.0815937
0.0144424
-1.21884
-0.921406
0.0214975
-0.0345007
0.0153446
-1.2571
-1.17151
-0.060713
-0.0620095
0.0174932
-1.10487
-1.21363
-0.116999
-0.0263764
0.0235383
-0.902032
-1.13636
-0.142911
0.00319334
0.0267677
-0.620058
-0.90487
-0.124344
0.00496627
0.0237202
-0.37293
-0.537061
-0.0909996
-0.0808259
-0.00869388
-0.281954
-0.322786
-0.0856426
0.0973395
0.0068859
-0.196265
-0.196962
-0.0983119
0.0367974
-0.00298545
-0.0729684
-0.209109
-0.114253
0.0783465
0.00917039
-0.574664
-0.683155
-0.813939
-0.956952
-1.06064
-0.327633
-0.437746
-0.508863
-0.548928
-0.556067
-0.160483
-0.25349
-0.311014
-0.341314
-0.362119
-0.0525417
-0.136134
-0.193409
-0.222737
-0.237671
2.6095e-05
-0.0815718
-0.132556
-0.150957
-0.140849
0.728728
0.574892
0.379099
0.163107
-0.0682005
0.310932
0.150161
-0.045545
-0.267399
-0.517131
-0.0919245
-0.255985
-0.46313
-0.694341
-0.930099
-0.442482
-0.610435
-0.820162
-1.04599
-1.22878
-0.680815
-0.851141
-1.047
-1.25169
-1.37113
1.77718
1.80701
1.83304
1.84477
1.83941
1.58832
1.60829
1.62186
1.6178
1.59252
1.37888
1.3662
1.32987
1.27048
1.18554
1.14117
1.10656
1.03557
0.934419
0.805986
0.934245
0.828312
0.690446
0.533104
0.345209
1.56197
1.5555
1.52894
1.60159
1.66305
1.55265
1.54523
1.51055
1.58429
1.57422
1.54449
1.53204
1.48955
1.55576
1.45655
1.53758
1.51628
1.4676
1.51077
1.2894
1.53176
1.50087
1.44521
1.46598
1.1086
1.52814
1.47555
1.41753
1.36624
0.901823
1.52717
1.44604
1.41679
1.23892
1.03456
1.53303
1.43113
1.4132
1.17184
1.08576
1.53386
1.40586
1.4049
1.10967
1.11154
1.56775
1.4036
1.40245
1.06949
1.15673
0.697093
0.390893
0.0556445
-0.238538
-0.421496
0.58795
0.374903
0.152467
-0.0406263
-0.204439
0.56824
0.399325
0.236935
0.0910516
-0.0489579
0.629548
0.471038
0.321315
0.184017
0.0557633
0.67917
0.515195
0.365119
0.229306
0.105202
-1.64041
-1.49865
-1.32953
-1.18968
-1.10505
-1.74339
-1.66842
-1.52943
-1.40939
-1.32786
-1.69753
-1.64343
-1.54845
-1.45543
-1.37825
-1.57783
-1.53364
-1.47341
-1.40559
-1.33423
-1.45348
-1.43383
-1.40056
-1.35455
-1.29671
-1.4186
-1.41248
-1.38932
-1.37588
-1.28279
-1.36136
-1.35354
-1.33635
-1.33158
-1.27595
-1.39309
-1.39274
-1.39229
-1.39372
-1.37805
-1.47818
-1.52683
-1.60228
-1.65791
-1.71285
-1.10336
-1.20388
-1.31746
-1.41541
-1.4896
-1.018
-0.0756007
0.264888
0.288947
-0.00720597
-1.04062
-0.0679148
0.336848
0.298855
-0.00978547
-1.16877
-0.0930466
0.324688
0.269292
-0.0061403
-1.54725
-0.144953
0.230455
0.198455
0.00133243
-1.59131
-0.32988
0.168524
0.138226
0.00815757
-0.591409
-0.254121
0.148346
0.263194
0.00388364
-0.85542
-0.150856
0.228426
0.293594
0.00613914
-1.05472
-1.27987
-1.29619
-1.22758
-0.990862
-1.07466
-1.2879
-1.32042
-1.24996
-1.18086
1.41717
1.39612
1.35837
1.30504
1.23444
1.60963
1.62905
1.63486
1.62512
1.59982
1.77044
1.80293
1.82956
1.84491
1.84612
1.86456
1.90298
1.94362
1.97656
1.99163
1.86147
1.8972
1.93667
1.96909
1.98363
-0.663834
-0.766359
-0.925228
-1.11728
-1.33398
-0.0812494
-0.209475
-0.381284
-0.587939
-0.841553
0.446802
0.312575
0.152198
-0.0360044
-0.265604
0.869506
0.765902
0.640128
0.488587
0.307552
1.20783
1.13603
1.04365
0.933451
0.804522
1.62208
1.58167
1.56231
1.56722
1.56718
1.60707
1.57926
1.5623
1.58317
1.63266
1.59442
1.57571
1.56093
1.60503
1.70507
1.58272
1.57081
1.55457
1.61358
1.71825
1.57185
1.56449
1.54341
1.61273
1.70839
1.67813
1.5877
1.54962
1.4903
1.42964
1.6324
1.57821
1.54456
1.50858
1.45055
1.09748
0.878591
0.502749
-0.0397982
-0.63177
1.17387
0.909322
0.519659
-0.0194916
-0.624804
)
;

boundaryField
{
    left
    {
        type            zeroGradient;
    }
    right
    {
        type            fixedValue;
        value           uniform 0;
    }
    down
    {
        type            zeroGradient;
    }
    up
    {
        type            zeroGradient;
    }
    cylinder
    {
        type            zeroGradient;
    }
    defaultFaces
    {
        type            empty;
    }
}


// ************************************************************************* //
