/*--------------------------------*- C++ -*----------------------------------*\
  =========                 |
  \\      /  F ield         | OpenFOAM: The Open Source CFD Toolbox
   \\    /   O peration     | Website:  https://openfoam.org
    \\  /    A nd           | Version:  13
     \\/     M anipulation  |
\*---------------------------------------------------------------------------*/
FoamFile
{
    format      ascii;
    class       volVectorField;
    location    "69";
    object      U;
}
// * * * * * * * * * * * * * * * * * * * * * * * * * * * * * * * * * * * * * //

dimensions      [0 1 -1 0 0 0 0];

internalField   nonuniform List<vector> 
440
(
(-0.0898351 0.0621036 -6.8175e-20)
(-0.110959 0.0732616 4.06251e-20)
(0.0602341 0.0398829 1.35639e-19)
(0.502638 0.0260847 1.73957e-20)
(0.576681 0.117127 2.22274e-20)
(-0.0994983 0.0570726 4.58725e-20)
(0.073527 0.0123291 -1.31599e-19)
(0.620895 -0.046474 -1.30114e-19)
(1.1957 -0.0810375 7.52572e-20)
(1.74813 -0.112206 1.90559e-20)
(-0.0179248 0.00448153 5.52891e-20)
(0.573627 -0.0521885 7.96712e-19)
(1.39218 -0.0547211 -5.08045e-19)
(1.99562 -0.0402584 -1.63386e-18)
(2.46775 -0.0333184 6.90742e-19)
(0.214707 -0.0485376 -1.78208e-19)
(1.27798 -0.00143528 -5.83304e-19)
(2.04805 0.0551682 1.91207e-18)
(2.43796 0.0837449 2.10217e-18)
(2.47561 0.0898511 -5.94688e-19)
(0.597903 -0.00358128 -3.06484e-19)
(1.79687 0.177345 -6.60835e-19)
(2.32188 0.243554 2.02385e-18)
(2.44575 0.248225 2.16876e-18)
(2.53774 0.223093 7.29157e-19)
(-0.0498515 0.351603 3.30616e-20)
(-0.25305 0.50536 3.80031e-19)
(-0.421803 0.437186 -6.03732e-19)
(-0.533107 0.425263 8.16445e-20)
(-0.594189 0.459218 5.28425e-19)
(-0.056181 0.37228 -3.30619e-20)
(-0.105113 0.772706 -1.65761e-19)
(-0.154017 0.836059 -2.83191e-20)
(-0.194723 0.764127 -2.28555e-20)
(-0.206477 0.673755 3.61195e-20)
(-0.046805 0.165068 8.81664e-20)
(-0.0616787 0.554442 -8.74069e-20)
(-0.0485109 0.774724 8.08122e-20)
(-0.0217615 0.84338 -1.89061e-19)
(0.037467 0.82078 6.7868e-21)
(-0.0100316 0.0195038 -2.8579e-20)
(-0.0538893 0.220023 8.25425e-20)
(-0.0537171 0.427642 1.94089e-20)
(-0.0130761 0.552216 -2.79435e-19)
(0.0348562 0.641169 5.44603e-20)
(-0.0348086 0.0191744 -4.95841e-20)
(-0.120877 0.0878719 -7.58638e-20)
(-0.145501 0.177652 -2.18396e-19)
(-0.0363132 0.24191 1.59036e-19)
(0.0371319 0.359834 4.10162e-20)
(-0.888062 0.683781 1.73383e-18)
(1.69536 -0.76766 2.10556e-18)
(1.33101 -0.938228 2.12844e-19)
(1.46128 0.253111 -7.58226e-19)
(1.22139 0.182537 7.1618e-21)
(-0.305953 0.422684 -1.58245e-19)
(1.35594 -1.09503 -4.05199e-19)
(1.19137 -1.02376 1.36853e-19)
(1.48426 0.233214 6.36684e-19)
(1.26696 0.198819 -8.20747e-21)
(0.0831157 0.292784 -1.80231e-19)
(1.58952 -1.17547 1.56065e-18)
(0.962338 -1.05613 -1.15287e-19)
(1.38653 0.249775 -4.37367e-20)
(1.25849 0.230155 9.53479e-22)
(0.495749 0.279947 5.41031e-19)
(2.20114 -1.11557 -1.41997e-19)
(1.21618 -1.06574 1.44639e-20)
(1.2119 0.172215 2.05098e-19)
(1.23062 0.225139 -2.898e-20)
(1.14026 -0.0761564 -2.19114e-19)
(2.53793 -1.11293 6.61809e-19)
(1.4799 -0.928379 0)
(0.804266 0.207875 -1.00586e-19)
(1.2165 0.203014 4.71827e-22)
(1.91404 -0.211762 -4.40162e-19)
(2.75404 -0.931431 -6.67809e-20)
(1.6854 -0.78444 -2.18147e-20)
(0.785356 0.165001 7.6658e-20)
(1.3646 0.0921372 -7.27213e-20)
(2.23178 -0.352658 1.79776e-20)
(2.54974 -0.952652 1.04197e-18)
(0.865111 -0.346653 -1.10399e-20)
(0.747798 0.31556 1.64312e-19)
(1.45579 0.00336419 0)
(2.19184 -0.349142 -2.96008e-19)
(2.2023 -0.431766 4.57288e-21)
(0.773488 -0.131589 -1.98595e-20)
(1.18654 0.0305651 -1.02622e-19)
(1.52393 -0.154313 7.53209e-21)
(2.21372 -0.307185 8.22144e-20)
(1.56922 -0.354046 1.17256e-19)
(0.78817 0.030614 -1.65468e-20)
(1.36726 -0.040516 -1.2802e-34)
(1.10889 -0.12214 -2.17121e-21)
(1.2177 -0.0991011 1.74311e-19)
(0.45087 0.0580427 -7.06155e-21)
(0.547253 -0.0348281 -6.25639e-21)
(0.454306 -0.103187 2.41536e-20)
(0.0721964 -0.024032 -1.07353e-20)
(2.37709 0.222591 -9.07238e-19)
(2.6066 0.0172603 -1.11751e-18)
(2.42404 0.0271223 8.60495e-19)
(2.71999 -0.153414 4.25052e-20)
(2.12822 -0.029717 -2.07763e-20)
(2.07923 0.156651 4.37456e-20)
(2.39449 -0.00248556 -3.84028e-20)
(2.2226 -0.0260937 -1.23201e-19)
(2.42694 -0.159111 -2.17351e-19)
(2.3295 -0.247992 -4.3756e-21)
(2.08319 0.0809591 6.3135e-20)
(2.18041 -0.00212039 1.03718e-19)
(2.198 -0.0572129 -1.37259e-19)
(2.21155 -0.121749 4.35599e-20)
(2.25835 -0.195578 2.46196e-20)
(2.06992 0.0163067 1.05844e-19)
(2.10133 -0.0380356 1.11273e-19)
(2.14858 -0.0649193 -1.73876e-20)
(2.15884 -0.11593 -1.56884e-20)
(2.18094 -0.150103 2.77258e-20)
(1.57057 -0.0264933 1.47347e-19)
(1.51021 -0.0274336 -1.21815e-20)
(1.55334 -0.0438689 2.60906e-20)
(1.45988 -0.042734 -1.18801e-20)
(1.49882 -0.0662142 3.03754e-20)
(1.54798 0.81258 1.12261e-18)
(1.51044 0.915943 -3.7253e-19)
(1.51639 1.05049 -1.34458e-18)
(1.44339 1.09754 7.17316e-19)
(0.87831 0.781169 -1.63699e-19)
(1.8533 0.794259 -5.67765e-19)
(1.81749 0.868436 -2.98111e-18)
(1.81918 0.972414 -1.14638e-18)
(1.72765 0.984909 -3.99204e-19)
(1.04954 0.68605 -6.46789e-19)
(2.13974 0.660208 7.43858e-19)
(2.12932 0.734381 1.9396e-19)
(2.1074 0.824396 -2.25004e-18)
(1.96818 0.812584 -6.31458e-19)
(1.16009 0.537337 4.6939e-19)
(2.32931 0.550009 2.23622e-18)
(2.30696 0.598271 1.66856e-18)
(2.30119 0.651774 -1.93766e-18)
(2.08917 0.613062 -1.47318e-18)
(1.14296 0.355747 -2.70569e-19)
(2.45368 0.393738 1.13003e-18)
(2.48223 0.419384 -8.05114e-19)
(2.3882 0.443982 5.80946e-19)
(2.05085 0.391226 4.61683e-19)
(0.964196 0.158898 -3.93186e-19)
(0.576063 0.475166 -6.59868e-19)
(0.483232 0.511758 -5.03246e-19)
(0.364014 0.547782 5.63938e-20)
(0.226205 0.545808 -6.98511e-21)
(0.0553818 0.382207 7.73599e-20)
(0.677471 0.630539 7.30612e-20)
(0.611804 0.684253 -2.9765e-19)
(0.521855 0.748159 1.72646e-19)
(0.397281 0.805939 -8.06909e-20)
(0.172974 0.610691 1.14868e-19)
(0.769021 0.847863 1.29247e-19)
(0.698848 0.930555 4.3586e-19)
(0.643194 1.02163 1.07279e-19)
(0.556563 1.04899 -2.95126e-19)
(0.303197 0.762603 2.47837e-19)
(1.03708 0.891702 2.17764e-19)
(0.987263 0.971542 -7.0219e-19)
(0.941587 1.07286 -1.8828e-18)
(0.86271 1.14028 7.46665e-19)
(0.506157 0.83858 -1.55613e-19)
(1.11706 0.967104 -8.99174e-20)
(1.15005 1.08075 -1.64505e-19)
(1.16868 1.18434 -3.70263e-19)
(1.11122 1.19624 -4.11005e-19)
(0.678354 0.843789 -6.41692e-21)
(1.01332 0.0374013 -8.34393e-20)
(1.00805 0.0345752 -2.75182e-20)
(1.03985 0.141902 -1.45511e-21)
(0.940693 0.135312 -1.63747e-19)
(0.907968 0.291273 2.93471e-19)
(1.00244 0.0332715 5.16021e-20)
(1.02764 0.0309084 1.05753e-19)
(1.01664 0.155065 1.1363e-19)
(0.985087 0.157812 2.28565e-20)
(0.935078 0.377052 -3.46903e-21)
(1.01301 0.0311931 6.7955e-20)
(1.00821 0.0230438 -4.27673e-21)
(1.05985 0.175964 -3.30392e-21)
(0.929958 0.155872 1.24569e-19)
(1.14337 0.519727 -4.70379e-19)
(1.01313 0.0291236 -2.68297e-22)
(1.02164 0.0156061 -1.51891e-19)
(1.03683 0.201001 -5.63393e-20)
(1.03388 0.145663 -3.29801e-19)
(1.16576 0.583518 7.79333e-20)
(1.02045 0.0211003 -1.04449e-20)
(1.0039 0.0226983 4.24013e-20)
(1.08074 0.196885 2.55421e-20)
(1.02084 0.172019 4.22187e-19)
(1.37504 0.707877 -4.69449e-19)
(0.999192 0.0237062 -3.60313e-21)
(1.04486 0.00267277 9.20418e-20)
(1.04387 0.225441 -4.65954e-20)
(1.27733 0.086905 9.54334e-19)
(1.29213 0.783197 -3.20836e-19)
(0.957044 -0.00418507 -1.30472e-21)
(1.10888 0.0172474 -7.90212e-20)
(0.9543 0.138964 5.01184e-21)
(1.41482 0.0658661 -3.45789e-19)
(1.31041 0.568754 -8.13679e-20)
(0.980699 -0.00993417 6.96764e-21)
(1.06331 0.0320181 1.30169e-35)
(1.09136 0.0747073 -9.4829e-21)
(1.37454 0.0093056 1.12764e-19)
(1.37688 0.396339 1.64026e-19)
(1.02911 -0.0383876 3.80908e-21)
(0.986504 -0.00141409 -2.42502e-20)
(1.29032 -0.0148447 2.09658e-20)
(1.09421 0.00706811 2.07658e-20)
(1.45587 0.302915 -2.46035e-19)
(0.9428 -0.0210622 -3.67955e-20)
(0.839219 -0.0263434 -1.31217e-21)
(0.956047 -0.00727814 2.58044e-20)
(0.667975 0.0085774 -2.33557e-20)
(1.15417 0.0854731 -5.58818e-20)
(1.7947 0.58175 2.71486e-19)
(1.88765 0.633932 7.17021e-19)
(2.15642 0.482345 -1.02676e-18)
(2.20899 0.468584 1.30054e-20)
(2.43018 0.271276 4.27605e-19)
(1.79299 0.381093 9.26379e-20)
(1.77277 0.437313 9.6719e-19)
(2.04422 0.32002 1.09548e-19)
(1.94015 0.325021 -8.47046e-19)
(2.26381 0.162425 -2.70762e-19)
(1.70572 0.295149 -2.22168e-19)
(1.76704 0.30065 -1.40955e-19)
(1.91552 0.227554 2.21797e-19)
(1.93307 0.208249 -2.64056e-19)
(2.08509 0.113536 2.42532e-19)
(1.67608 0.190816 3.77833e-19)
(1.78775 0.173107 9.92295e-22)
(1.85768 0.115075 2.02702e-19)
(1.9461 0.0965724 1.60648e-19)
(2.00159 0.0359608 -1.62186e-19)
(1.36388 0.0432717 -5.03317e-20)
(1.46714 0.0242721 2.36591e-19)
(1.48436 0.00954376 9.51791e-20)
(1.55024 -0.00551295 -1.94571e-19)
(1.52212 -0.013089 5.82245e-22)
(1.20559 -0.01781 7.65028e-20)
(2.22006 -0.0250908 -4.96472e-19)
(2.44161 -0.0156235 1.35024e-18)
(2.42015 0.0243791 6.16541e-19)
(2.22279 0.0429046 -4.29195e-19)
(0.800833 0.107456 1.67045e-19)
(2.00833 0.121766 -5.41132e-19)
(2.43467 0.129095 -7.65341e-19)
(2.45099 0.134833 1.01496e-18)
(2.22444 0.120562 -7.295e-19)
(0.311028 0.109624 2.21509e-21)
(1.43883 0.206397 6.53174e-19)
(2.144 0.243897 9.24164e-20)
(2.47813 0.24399 9.67598e-19)
(2.51979 0.224682 5.1871e-19)
(0.025031 0.0185073 2.13306e-19)
(0.64216 0.163875 2.4389e-19)
(1.42868 0.256953 -7.51165e-19)
(1.91179 0.30332 7.18004e-20)
(2.40935 0.329168 6.15429e-19)
(-0.0459759 -0.0345015 1.28483e-19)
(0.146129 0.054044 -1.7735e-19)
(0.651383 0.179411 -1.64051e-19)
(1.12169 0.256644 2.00052e-19)
(1.62082 0.374747 1.11972e-19)
(-0.0565273 -0.0669342 3.00966e-20)
(-0.0555691 -0.0598119 9.02152e-20)
(0.120103 0.0083469 1.3e-19)
(0.354732 0.124248 -4.86815e-19)
(0.810551 0.247561 5.77763e-21)
(-0.0151701 -0.0195433 -1.79385e-20)
(-0.00516481 -0.00682798 -7.95306e-20)
(0.0561374 0.0604856 -4.10498e-20)
(0.142045 0.18009 1.69007e-20)
(0.344032 0.350775 4.07761e-20)
(-0.0206668 -0.107265 3.82166e-20)
(0.0377993 -0.175574 9.38998e-20)
(0.109478 -0.0960455 8.59046e-20)
(0.156643 0.023141 -3.47409e-19)
(0.217506 0.176629 8.18971e-20)
(-0.0562466 -0.327707 1.08737e-19)
(-0.044247 -0.325059 6.06773e-19)
(0.0095852 -0.0679678 -1.26099e-18)
(0.0472185 0.167128 -1.06401e-18)
(0.0967095 0.33179 1.20934e-19)
(-0.0887734 -0.0975385 -8.71672e-20)
(-0.3371 -0.00591329 2.5215e-19)
(-0.462526 0.135702 -6.4205e-20)
(-0.502664 0.24443 -7.86567e-20)
(-0.497424 0.351514 1.54646e-19)
(1.13591 0.732534 -7.40347e-20)
(0.0602424 -0.0188372 5.43872e-19)
(1.24554 -0.00860854 -1.04798e-19)
(0.725746 0.10554 7.08745e-21)
(0.543083 -0.0456647 -1.47604e-21)
(0.957558 0.917688 1.96123e-19)
(-0.664036 -0.117422 3.92523e-19)
(1.30982 -0.111744 -2.74904e-19)
(1.03214 0.183578 1.67103e-20)
(0.746109 -0.00802269 -1.27385e-20)
(0.797851 0.867376 -8.31596e-19)
(-1.30707 -0.238969 2.04757e-19)
(1.31035 -0.419087 4.42645e-20)
(1.31362 0.241474 -4.44342e-19)
(0.958357 0.0437961 1.1071e-20)
(0.544221 1.11495 8.59078e-19)
(-0.634738 -0.369399 -2.2665e-18)
(0.959775 -0.831342 -2.01146e-19)
(1.43072 0.277538 -1.01332e-20)
(1.11589 0.105508 2.25538e-20)
(-0.297789 1.06131 -1.82858e-19)
(1.12104 -0.533559 -1.70962e-19)
(0.911751 -0.967343 1.19106e-19)
(1.48056 0.227704 2.3723e-20)
(1.21911 0.141406 4.35178e-20)
(-0.0938942 0.128396 -1.25023e-19)
(-0.355088 -0.154734 0)
(0.143584 -0.0937088 -3.5495e-20)
(-0.0290614 -0.0445826 4.325e-20)
(0.3076 -0.0236311 -1.25611e-20)
(1.58793 0.605281 0)
(0.651257 0.096144 0)
(1.1114 0.00180418 3.5179e-19)
(0.397916 -0.0105537 5.7702e-20)
(0.470139 -0.0709467 1.91955e-20)
(0.715325 0.00303983 -1.28122e-19)
(0.738775 -0.00149305 2.65393e-19)
(0.923968 0.0153031 -4.78232e-20)
(0.843721 0.0200019 3.64049e-19)
(1.22743 0.133888 2.31464e-19)
(1.61349 0.0336745 1.2248e-19)
(1.73415 0.0789103 3.98078e-19)
(1.87938 0.111853 -7.07677e-19)
(2.30297 0.235072 2.40889e-19)
(2.15292 0.294415 4.77381e-19)
(0.90956 -0.48184 -1.40349e-20)
(0.897456 -0.572669 -1.78938e-19)
(0.887637 -0.670755 -1.29003e-19)
(0.818437 -0.739971 7.87056e-20)
(0.501983 -0.58427 1.3504e-19)
(0.803653 -0.383032 1.15682e-19)
(0.749129 -0.449251 2.05145e-19)
(0.678351 -0.522858 -6.67054e-20)
(0.569669 -0.587406 1.4714e-19)
(0.314843 -0.472618 5.21886e-20)
(0.655711 -0.242868 -1.30481e-19)
(0.571172 -0.284179 -5.78184e-20)
(0.470965 -0.334757 7.89615e-20)
(0.350191 -0.379729 -2.51889e-20)
(0.157371 -0.308556 -1.31866e-19)
(0.553771 -0.0106804 -4.30953e-19)
(0.467532 -0.0263698 -3.50994e-19)
(0.356312 -0.0495379 2.83829e-19)
(0.228554 -0.0805614 1.59573e-19)
(0.064286 -0.0883629 1.33618e-20)
(0.527083 0.195762 -1.46419e-19)
(0.440638 0.196045 -1.58256e-19)
(0.32297 0.19504 -5.28049e-20)
(0.184709 0.199411 3.70101e-20)
(0.0279438 0.146067 1.26691e-20)
(2.00728 -0.0344403 8.49755e-19)
(2.25404 -0.099142 2.909e-19)
(2.34293 -0.182792 -7.58179e-19)
(2.21021 -0.208811 -1.58197e-18)
(1.34574 -0.188177 1.34322e-19)
(1.9711 -0.121878 1.38311e-18)
(2.07577 -0.232012 1.8375e-18)
(2.10339 -0.352158 1.55265e-19)
(2.02926 -0.410544 2.74214e-19)
(1.30832 -0.363439 -1.8188e-19)
(1.69659 -0.283477 -3.55491e-18)
(1.76298 -0.40078 3.87366e-19)
(1.81357 -0.525805 1.12693e-18)
(1.7602 -0.599787 -4.23599e-19)
(1.14925 -0.509443 6.74087e-19)
(1.48106 -0.407099 8.5507e-19)
(1.50596 -0.507258 -2.27471e-18)
(1.50182 -0.625795 -2.59307e-18)
(1.43936 -0.711681 7.92675e-19)
(0.933622 -0.587298 5.42328e-19)
(1.20346 -0.465878 1.84373e-19)
(1.1672 -0.56087 2.6141e-19)
(1.16161 -0.682408 -3.96873e-19)
(1.10911 -0.768586 -4.78635e-19)
(0.706974 -0.613771 -4.46601e-21)
(1.07121 0.0509445 7.1039e-21)
(0.940208 0.059245 6.18414e-23)
(1.11095 0.0831857 7.80813e-21)
(0.821645 0.00535988 -2.53437e-19)
(1.0779 -0.199283 -1.86547e-20)
(1.08027 0.0520504 -2.34676e-21)
(0.935949 0.0564798 2.73758e-20)
(1.11308 0.101664 -6.43981e-21)
(0.900323 0.0539762 2.00503e-19)
(0.986145 -0.0852152 5.07681e-22)
(1.07728 0.0468469 -5.56559e-20)
(0.939096 0.0522749 -7.93682e-23)
(1.09908 0.105583 -1.00962e-20)
(0.90349 0.0748598 1.19131e-19)
(0.950829 -0.023146 -2.39629e-19)
(1.0568 0.0439754 6.62403e-20)
(0.964321 0.0465125 2.85998e-21)
(1.06784 0.114407 2.39301e-20)
(0.932002 0.10004 -5.69614e-20)
(0.867203 0.0835996 7.06384e-20)
(1.02896 0.0394278 1.63693e-20)
(0.9968 0.0434853 -2.3299e-20)
(1.03668 0.12286 3.64486e-20)
(0.955824 0.12493 3.43e-20)
(0.844993 0.187786 -6.20811e-20)
(0.891385 0.0338705 0)
(0.713807 0.0282379 9.24879e-21)
(0.594451 0.022012 6.68295e-21)
(0.343842 -0.00585251 4.38169e-20)
(0.66133 -0.052069 -1.58774e-19)
(1.03825 0.0729655 -6.37441e-20)
(0.949234 0.074579 -4.88747e-21)
(1.01464 0.0827345 -6.14997e-20)
(0.805118 -0.00128151 -1.51272e-19)
(1.02006 -0.185604 -1.70363e-19)
(0.913861 -0.066704 -3.73105e-20)
(1.00281 -0.0335055 5.43626e-19)
(1.09464 0.0352191 3.19976e-19)
(0.972546 0.0520495 3.1369e-20)
(0.756174 0.0279021 0)
(1.26689 -0.309948 3.58822e-19)
(1.38219 -0.273896 1.52919e-18)
(1.55658 -0.154835 -1.64769e-18)
(1.65481 -0.0209245 -5.11847e-19)
(1.56525 0.0284938 3.9667e-19)
)
;

boundaryField
{
    left
    {
        type            fixedValue;
        value           uniform (1 0 0);
    }
    right
    {
        type            zeroGradient;
    }
    down
    {
        type            noSlip;
    }
    up
    {
        type            noSlip;
    }
    cylinder
    {
        type            noSlip;
    }
    defaultFaces
    {
        type            empty;
    }
}


// ************************************************************************* //
