/*--------------------------------*- C++ -*----------------------------------*\
  =========                 |
  \\      /  F ield         | OpenFOAM: The Open Source CFD Toolbox
   \\    /   O peration     | Website:  https://openfoam.org
    \\  /    A nd           | Version:  13
     \\/     M anipulation  |
\*---------------------------------------------------------------------------*/
FoamFile
{
    format      ascii;
    class       volScalarField;
    location    "0.35";
    object      p;
}
// * * * * * * * * * * * * * * * * * * * * * * * * * * * * * * * * * * * * * //

dimensions      [0 2 -2 0 0 0 0];

internalField   nonuniform List<scalar> 
440
(
-1.1922
-1.05951
-0.885266
-0.709091
-0.576351
-1.51441
-1.34575
-1.13286
-0.9261
-0.774248
-1.77132
-1.56178
-1.31419
-1.08196
-0.902517
-1.93248
-1.68148
-1.41044
-1.16233
-0.97077
-1.96441
-1.67679
-1.39473
-1.13925
-0.943533
0.140242
0.188305
0.223084
0.246946
0.261362
0.0066813
0.0603053
0.10767
0.14595
0.173288
-0.219512
-0.155998
-0.0882487
-0.0272869
0.0197916
-0.515063
-0.436415
-0.341841
-0.252312
-0.182245
-0.8483
-0.746645
-0.616165
-0.48768
-0.388773
0.230722
0.135394
0.0785236
0.0422929
0.0133341
0.218439
0.130656
0.0782173
0.0424231
0.0133618
0.183358
0.121819
0.0768238
0.0423198
0.0133923
0.110192
0.110012
0.0746233
0.0420197
0.013429
-0.00135814
0.0941428
0.0714636
0.0414147
0.0134322
-0.077237
0.0798899
0.0686969
0.0402214
0.0133839
-0.116328
0.0469107
0.0566145
0.0358527
0.0124147
-0.119752
0.0311329
0.0491684
0.0326016
0.0116119
-0.12563
0.0161847
0.0413001
0.0291932
0.0106521
-0.12889
0.00908118
0.037295
0.0275685
0.0102313
-0.64243
-0.680646
-0.654219
-0.585019
-0.478714
-0.434938
-0.47835
-0.482033
-0.44614
-0.393392
-0.288821
-0.333133
-0.347393
-0.325699
-0.293066
-0.204432
-0.250913
-0.269971
-0.257381
-0.234566
-0.162393
-0.215128
-0.241176
-0.238846
-0.222388
0.465821
0.345897
0.195976
0.0202625
-0.211073
0.100071
-0.0375689
-0.209705
-0.413994
-0.697818
-0.280292
-0.434582
-0.635938
-0.859057
-1.18658
-0.596165
-0.762849
-1.00402
-1.25279
-1.5873
-0.818357
-1.00389
-1.2596
-1.53706
-1.85106
1.54707
1.57811
1.61508
1.64665
1.65984
1.40154
1.42134
1.4419
1.45207
1.44394
1.19078
1.1938
1.18818
1.16464
1.11562
0.935779
0.919634
0.881326
0.817069
0.715861
0.693668
0.628812
0.536673
0.418602
0.252665
1.56588
1.06013
1.50904
1.31659
1.48526
1.55588
1.04685
1.49396
1.28302
1.41746
1.54624
1.03145
1.4782
1.23836
1.31685
1.53686
1.01475
1.46154
1.18485
1.16804
1.52851
0.997853
1.44419
1.12563
1.00091
1.51855
0.977017
1.41205
1.04465
0.797188
1.51408
0.956869
1.37966
0.979561
0.746367
1.51488
0.941838
1.35511
0.934704
0.707783
1.51357
0.93268
1.33874
0.907773
0.694305
1.53718
0.929684
1.33029
0.893283
0.68557
0.444178
0.169648
-0.134178
-0.375407
-0.538481
0.365207
0.188634
-0.0112987
-0.192674
-0.337426
0.35361
0.21821
0.0703052
-0.0793808
-0.202433
0.364384
0.242488
0.118795
-0.00926927
-0.121399
0.377361
0.262269
0.147973
0.0289407
-0.0789563
-2.91023
-2.53609
-2.24817
-2.02061
-1.8917
-2.90956
-2.6222
-2.33316
-2.0872
-1.92395
-2.56783
-2.34365
-2.05282
-1.7911
-1.59752
-2.02339
-1.8437
-1.581
-1.32113
-1.14305
-1.41235
-1.27155
-1.0677
-0.846541
-0.69375
-0.859238
-0.754318
-0.616889
-0.471069
-0.355244
-0.423457
-0.346515
-0.260609
-0.176443
-0.108892
-0.10967
-0.0498786
0.00490074
0.0530783
0.0900057
0.0867895
0.137323
0.174914
0.202509
0.220777
0.168976
0.215873
0.247122
0.266978
0.277908
0.0327564
0.0786274
0.0606261
0.0390083
0.0134465
0.148527
0.103808
0.0676865
0.0399027
0.013365
0.205332
0.115247
0.0712078
0.0405967
0.0133131
0.226937
0.127228
0.0749196
0.0413431
0.013306
0.232151
0.13433
0.0774305
0.0419219
0.0133137
-0.223723
0.00112575
0.0397397
0.0346153
0.0131071
-0.0147183
0.070993
0.0588767
0.0380749
0.0135201
-1.82067
-1.8436
-1.59342
-1.20243
-0.876031
-1.84416
-1.84863
-1.51853
-1.06351
-0.65397
1.1572
1.11631
1.05347
0.967742
0.846184
1.34338
1.34927
1.34128
1.31388
1.26056
1.50812
1.52856
1.54678
1.55373
1.54264
1.60013
1.63189
1.66854
1.69975
1.71274
1.61456
1.64979
1.69247
1.73148
1.75176
-1.40635
-1.54726
-1.78112
-2.05473
-2.52956
-0.68005
-0.850076
-1.0799
-1.36222
-1.83385
0.00391408
-0.169346
-0.376258
-0.631008
-1.02043
0.564268
0.423728
0.254768
0.0482521
-0.240316
0.9799
0.875684
0.741115
0.580156
0.375717
1.61758
1.09005
1.57052
1.31043
1.37163
1.60695
1.08777
1.56041
1.32397
1.43768
1.59675
1.08423
1.55011
1.33932
1.51491
1.5864
1.07876
1.5376
1.34351
1.53037
1.57608
1.0708
1.52366
1.33679
1.52239
1.65687
1.09619
1.56957
1.26058
1.21503
1.62726
1.09179
1.56766
1.27771
1.2232
0.842922
0.570447
0.0922127
-0.603927
-1.35458
0.958087
0.619577
0.10555
-0.590715
-1.35336
)
;

boundaryField
{
    left
    {
        type            zeroGradient;
    }
    right
    {
        type            fixedValue;
        value           uniform 0;
    }
    down
    {
        type            zeroGradient;
    }
    up
    {
        type            zeroGradient;
    }
    cylinder
    {
        type            zeroGradient;
    }
    defaultFaces
    {
        type            empty;
    }
}


// ************************************************************************* //
