/*--------------------------------*- C++ -*----------------------------------*\
  =========                 |
  \\      /  F ield         | OpenFOAM: The Open Source CFD Toolbox
   \\    /   O peration     | Website:  https://openfoam.org
    \\  /    A nd           | Version:  13
     \\/     M anipulation  |
\*---------------------------------------------------------------------------*/
FoamFile
{
    format      ascii;
    class       surfaceScalarField;
    location    "0.08";
    object      phi;
}
// * * * * * * * * * * * * * * * * * * * * * * * * * * * * * * * * * * * * * //

dimensions      [0 3 -1 0 0 0 0];

internalField   nonuniform List<scalar> 
3485
(
0.00531256
-0.0707458
0.0654332
0.0145568
-0.132466
0.123221
0.0244012
-0.144933
0.135088
0.0340607
-0.143593
0.133934
0.0434313
-0.139743
0.130372
0.0525175
-0.135785
0.126699
0.0613248
-0.132098
0.123291
0.0698384
-0.128697
0.120183
0.0779833
-0.125494
0.117349
-0.122158
0.11442
0.0857218
0.00508005
-0.0758258
0.0137246
-0.14111
0.0228508
-0.154059
0.0317885
-0.152531
0.0404685
-0.148423
0.0489108
-0.144227
0.0571409
-0.140328
0.0651852
-0.136741
0.0730918
-0.133401
-0.130176
0.0811099
0.00482032
-0.0806461
0.0128062
-0.149096
0.0211496
-0.162402
0.0293022
-0.160684
0.037227
-0.156348
0.0449513
-0.151952
0.0525019
-0.147879
0.0599028
-0.144142
0.0671801
-0.140678
-0.137387
0.0743912
0.00452031
-0.0851664
0.0117723
-0.156348
0.019251
-0.169881
0.0265365
-0.167969
0.0336222
-0.163433
0.0405406
-0.15887
0.0473181
-0.154656
0.0539764
-0.1508
0.0605388
-0.14724
-0.143939
0.0670907
0.00417042
-0.0893369
0.0106058
-0.162783
0.0171328
-0.176408
0.0234673
-0.174304
0.0296286
-0.169595
0.0356524
-0.164894
0.0415634
-0.160567
0.0473806
-0.156618
0.0531276
-0.152987
-0.149674
0.0588626
0.00376171
-0.0930986
0.0092921
-0.168314
0.0147796
-0.181895
0.0200814
-0.179606
0.0252351
-0.174748
0.0302795
-0.169938
0.0352366
-0.165524
0.0401232
-0.161504
0.0449602
-0.157824
-0.1545
0.049786
0.00328852
-0.0963871
0.00782545
-0.172851
0.012196
-0.186266
0.0163942
-0.183804
0.0204671
-0.178821
0.024457
-0.173928
0.0283835
-0.169451
0.0322608
-0.165382
0.0361065
-0.16167
-0.158334
0.0399407
0.00274742
-0.0991345
0.00621179
-0.176315
0.00940797
-0.189462
0.0124408
-0.186837
0.0153698
-0.18175
0.0182412
-0.176799
0.0210717
-0.172281
0.0238719
-0.168182
0.0266551
-0.164453
-0.161105
0.0294255
0.00214984
-0.101284
0.00448535
-0.178651
0.00645643
-0.191433
0.00827579
-0.188656
0.0100106
-0.183485
0.0117126
-0.178501
0.0133948
-0.173964
0.0150642
-0.169851
0.0167295
-0.166118
-0.162757
0.018382
0.00152227
-0.102807
0.00268565
-0.179814
0.00336807
-0.192116
0.00396403
-0.189252
0.0044663
-0.183987
0.00496307
-0.178998
0.00546218
-0.174463
0.00596214
-0.170351
0.00646301
-0.166619
0.0069534
-0.163248
0.00623803
-0.011644
0.00540594
0.0184391
-0.0221987
0.00999764
0.0319688
-0.0244974
0.0109677
0.0454222
-0.0243508
0.0108974
0.05851
-0.0237124
0.0106245
0.0712039
-0.0230322
0.0103383
0.0835234
-0.0223911
0.0100716
0.0954935
-0.0217968
0.0098267
0.107135
-0.0212424
0.00960064
-0.0208238
0.118563
0.00939616
0.00621551
-0.0178595
0.0183353
-0.0343184
0.0317613
-0.0379234
0.0451094
-0.037699
0.0580981
-0.0367011
0.0707015
-0.0356356
0.0829401
-0.0346296
0.0948394
-0.0336961
0.106422
-0.032825
-0.0322011
0.117799
0.00618867
-0.0240482
0.0181978
-0.0463276
0.0314804
-0.051206
0.0446817
-0.0509003
0.0575309
-0.0495503
0.0700054
-0.0481102
0.082127
-0.0467512
0.0939219
-0.045491
0.105415
-0.0443183
-0.0434992
0.116713
0.00615559
-0.0302038
0.0180168
-0.0581888
0.0311067
-0.0642959
0.0441099
-0.0639034
0.0567693
-0.0622097
0.0690667
-0.0604076
0.0810253
-0.0587098
0.0926722
-0.0571379
0.104036
-0.0556821
-0.0546781
0.115215
0.00611239
-0.0363161
0.0177797
-0.069856
0.030618
-0.0771342
0.0433616
-0.076647
0.0557705
-0.0746187
0.0678313
-0.0724684
0.0795687
-0.0704471
0.0910108
-0.06858
0.10219
-0.0668616
-0.0656806
0.113193
0.00605316
-0.0423693
0.0174723
-0.0812751
0.0299914
-0.0896534
0.0424051
-0.0890607
0.0544931
-0.0867067
0.066247
-0.0842223
0.0776924
-0.0818925
0.0888577
-0.0797453
0.0997794
-0.0777832
-0.0764251
0.110524
0.00597045
-0.0483397
0.0170802
-0.0923849
0.0292071
-0.10178
0.0412153
-0.101069
0.0529064
-0.0983978
0.0642765
-0.0955924
0.0753511
-0.0929671
0.0861571
-0.0905514
0.0967314
-0.0883575
-0.0868021
0.107108
0.00585709
-0.0541968
0.0165931
-0.103121
0.028254
-0.113441
0.0397817
-0.112597
0.051001
-0.109617
0.0619125
-0.106504
0.0725408
-0.103595
0.0829108
-0.100921
0.0930529
-0.0984996
-0.0966865
0.102937
0.00570948
-0.0599063
0.0160089
-0.11342
0.0271349
-0.124567
0.0381137
-0.123575
0.0487957
-0.120299
0.0591876
-0.116896
0.0693157
-0.113723
0.0792035
-0.110809
0.0888663
-0.108162
-0.10593
0.0981099
0.00552688
0.0153279
0.0258491
0.0362077
0.0462808
0.0560836
0.065651
0.0750252
0.0842119
0.0927015
0.161936
-0.119615
0.0762424
0.184194
-0.0868179
0.0645596
0.195073
-0.0645535
0.0536746
0.200162
-0.0486772
0.0435885
0.202209
-0.0365199
0.0344729
0.202562
-0.0268078
0.0264547
0.201922
-0.018867
0.0195066
0.200666
-0.0122242
0.01348
0.199
-0.00652117
0.0081872
-0.000856477
0.00285611
0.16081
-0.162626
0.183152
-0.10916
0.19429
-0.075691
0.19963
-0.0540173
0.201883
-0.0387726
0.202404
-0.0273296
0.20191
-0.0183726
0.200787
-0.0111012
0.199248
-0.00498267
0.00101602
0.158897
-0.204809
0.1812
-0.131464
0.192647
-0.0871379
0.198343
-0.059713
0.200921
-0.0413506
0.201737
-0.0281458
0.201517
-0.0181525
0.200658
-0.0102423
0.19938
-0.00370448
0.00262712
0.156148
-0.245742
0.178322
-0.153638
0.190143
-0.0989587
0.196303
-0.0658728
0.199327
-0.0443746
0.200563
-0.0293816
0.200745
-0.0183344
0.200279
-0.00977711
0.199393
-0.00281812
0.00384341
0.152475
-0.285025
0.174504
-0.175667
0.18678
-0.111235
0.193516
-0.0726094
0.197108
-0.0479662
0.198887
-0.0311611
0.199597
-0.0190439
0.199653
-0.00983311
0.199288
-0.002453
0.00453313
0.147667
-0.322168
0.16972
-0.19772
0.182561
-0.124075
0.189992
-0.0800408
0.194274
-0.0522476
0.196719
-0.0336064
0.198079
-0.0204039
0.198781
-0.0105346
0.199063
-0.0027356
0.00456703
0.141313
-0.356373
0.163923
-0.22033
0.177491
-0.137643
0.185746
-0.0882951
0.19084
-0.0573417
0.194071
-0.0368376
0.1962
-0.0225336
0.197668
-0.0120019
0.198721
-0.00378863
0.00381927
0.134492
-0.387927
0.157114
-0.242952
0.171571
-0.152101
0.180792
-0.0975157
0.186822
-0.0633722
0.190956
-0.0409717
0.193971
-0.0255483
0.19632
-0.0143509
0.198261
-0.0057302
0.00216827
0.126815
-0.416632
0.149165
-0.265303
0.164737
-0.167672
0.175116
-0.107895
0.182228
-0.0704838
0.187387
-0.0461315
0.191401
-0.0295621
0.194743
-0.0176932
0.197687
-0.00867363
-0.000502585
0.117398
-0.441329
0.14058
-0.288484
0.157243
-0.184336
0.168829
-0.11948
0.177114
-0.0787686
0.183398
-0.0524156
0.188511
-0.034675
0.192949
-0.0221312
0.197
-0.0127246
-0.00430462
0.352039
-0.391801
-0.401567
0.32739
-0.263834
0.317436
-0.174382
0.313125
-0.115169
0.310869
-0.0765122
0.309439
-0.0509854
0.308438
-0.0336747
0.307745
-0.0214384
0.307317
-0.012296
-0.00414773
0.366438
-0.336939
-0.4213
0.339128
-0.236524
0.32568
-0.160934
0.318626
-0.108115
0.314524
-0.07241
0.311919
-0.0483801
0.310188
-0.0319444
0.309056
-0.0203064
0.308388
-0.0116276
-0.00391492
0.379425
-0.283354
-0.43301
0.349676
-0.206776
0.333196
-0.144454
0.323731
-0.0986505
0.317964
-0.0666435
0.314271
-0.044687
0.311852
-0.0295254
0.310301
-0.0187554
0.309402
-0.0107282
-0.00360769
0.38894
-0.232814
-0.43948
0.358225
-0.176061
0.339671
-0.125899
0.328293
-0.0872719
0.321103
-0.0594542
0.316441
-0.0400242
0.313392
-0.0264773
0.311453
-0.0168164
0.310338
-0.00961312
-0.00323017
0.395901
-0.186023
-0.442692
0.365052
-0.145212
0.345107
-0.105954
0.332246
-0.0744112
0.323877
-0.0510847
0.318377
-0.0345247
0.314773
-0.0228734
0.312487
-0.01453
0.311177
-0.00830349
-0.00278867
0.400885
-0.142972
-0.443936
0.370367
-0.114694
0.349528
-0.0851156
0.335553
-0.0604364
0.326237
-0.0417686
0.320042
-0.0283293
0.315966
-0.0187975
0.313381
-0.011945
0.311902
-0.00682511
-0.00229125
0.404341
-0.103202
-0.444111
0.374358
-0.0847113
0.352976
-0.0637338
0.338194
-0.0456543
0.32815
-0.0317244
0.321402
-0.0215816
0.316945
-0.0143397
0.314115
-0.00911578
0.312498
-0.0052077
-0.00174743
0.406597
-0.0659927
-0.443806
0.377173
-0.0552876
0.355488
-0.0420482
0.340155
-0.0303211
0.329586
-0.021156
0.32243
-0.0144253
0.317685
-0.00959519
0.314671
-0.00610155
0.312948
-0.0034841
-0.00116786
0.407286
-0.0302595
-0.443019
0.37839
-0.0263923
0.356619
-0.0202765
0.340992
-0.0146943
0.330118
-0.0102822
0.322715
-0.00702271
0.317795
-0.0046751
0.314667
-0.00297382
0.312879
-0.00169579
-0.000566323
0.380638
-0.410897
0.354246
0.333969
0.319275
0.308993
0.30197
0.297295
0.294321
0.292625
0.433058
0.00687396
-0.432979
0.432491
0.0189495
0.43125
0.0306662
0.429291
0.0418995
0.426555
0.0525216
0.422989
0.0624287
0.418405
0.0716747
0.413205
0.0795917
0.404628
0.0896871
0.088782
0.415616
0.00661191
-0.415354
0.416162
0.0184034
0.416926
0.0299021
0.417854
0.040972
0.418875
0.0515003
0.419934
0.06137
0.420893
0.0707156
0.421902
0.078582
0.422636
0.0889533
0.0901183
0.40157
0.00608473
-0.401043
0.402851
0.0171225
0.404844
0.027909
0.407505
0.0383108
0.410778
0.0482271
0.414599
0.0575488
0.418909
0.0664062
0.423465
0.0740255
0.428943
0.0834757
0.0860509
0.390497
0.00540275
-0.389815
0.392263
0.0153567
0.395083
0.0250887
0.398918
0.0344762
0.403718
0.0434268
0.409418
0.051849
0.415994
0.05983
0.423177
0.0668423
0.431694
0.0749592
0.0782645
0.381816
0.00461373
-0.381027
0.38392
0.0132529
0.387312
0.0216968
0.391954
0.0298344
0.3978
0.0375807
0.404788
0.0448614
0.412897
0.0517206
0.42191
0.0578297
0.43235
0.0645192
0.0679226
0.375134
0.00374927
-0.374269
0.377474
0.0109128
0.381262
0.0179085
0.386459
0.0246374
0.393017
0.031023
0.400874
0.0370039
0.410001
0.0425938
0.420232
0.0475992
0.431899
0.0528513
0.0558862
0.370164
0.00282915
-0.369244
0.372672
0.00840438
0.376739
0.013842
0.382319
0.0190573
0.389359
0.0239831
0.397794
0.0285684
0.407579
0.0328084
0.418587
0.0365916
0.431014
0.0404241
0.0427896
0.36668
0.00186056
-0.365712
0.369318
0.00576718
0.373588
0.00957169
0.379439
0.0132059
0.386807
0.0166156
0.395616
0.0197594
0.405801
0.0226236
0.417256
0.025136
0.430081
0.0275997
0.0290642
0.363287
0.000792237
-0.362219
0.36611
0.0029439
0.370643
0.00503847
0.376817
0.00703214
0.384543
0.00888981
0.393719
0.0105837
0.404244
0.0120987
0.415991
0.0133883
0.428968
0.0146235
0.015013
0.321286
-0.320494
0.32423
0.329268
0.3363
0.34519
0.355774
0.367873
0.381261
0.395884
0.0801157
0.121758
-0.111787
-0.0900867
0.0708644
0.124089
-0.114837
0.0617669
0.1271
-0.118002
0.0526333
0.130474
-0.12134
0.0433745
0.134158
-0.124899
0.0339293
0.138161
-0.128716
0.0242599
0.142407
-0.132737
0.0144519
0.14565
-0.135842
0.00527675
0.138787
-0.129612
0.084042
-0.0787653
0.0751202
0.129974
-0.0833359
0.0666485
0.13256
0.0580575
0.135691
0.0493801
0.139151
0.040595
0.142943
0.0316627
0.147093
0.0225538
0.151515
0.0133584
0.154846
0.00482377
0.147322
0.0888658
0.0677718
0.137184
-0.0749816
0.0602702
0.140062
0.0525984
0.143362
0.0447832
0.146967
0.0368174
0.150908
0.0286805
0.15523
0.0203619
0.159834
0.0119712
0.163236
0.00424617
0.155047
0.093112
0.0598323
0.143571
-0.0662198
0.0532264
0.146668
0.0464672
0.150122
0.03956
0.153874
0.0324949
0.157973
0.0252571
0.162468
0.0178456
0.167246
0.0103837
0.170698
0.00358922
0.161842
0.0967012
0.0516365
0.149198
-0.0572633
0.0458695
0.152435
0.0399924
0.155999
0.033994
0.159872
0.0278586
0.164109
0.0215709
0.168756
0.0151341
0.173682
0.0086802
0.177152
0.00289402
0.167628
0.0995952
0.043018
0.154006
-0.0478258
0.0381271
0.157325
0.0331653
0.160961
0.0281141
0.164924
0.0229552
0.169268
0.0176729
0.174038
0.0122715
0.179084
0.00688925
0.182534
0.00217644
0.172341
0.101772
0.0338696
0.157897
-0.0377607
0.0299348
0.16126
0.025956
0.164939
0.0219142
0.168965
0.0177944
0.173387
0.0135843
0.178248
0.00928066
0.183387
0.00501723
0.186798
0.00143683
0.175921
0.103208
0.0242133
0.160777
-0.0270927
0.0213162
0.164157
0.0183901
0.167865
0.0154187
0.171937
0.0123901
0.176416
0.00931142
0.181327
0.00618921
0.186509
0.00306215
0.189925
0.000607946
0.178375
0.103816
0.0141614
0.162567
-0.0159523
0.0123661
0.165953
0.0105499
0.169682
0.00870182
0.173785
0.00680654
0.178311
0.00484611
0.183287
0.00299934
0.188356
0.00113817
0.191786
-0.000126916
0.17964
0.10369
0.00391676
-0.00459701
0.00325023
0.00258081
0.00190275
0.00121604
0.000516121
-0.000379537
-0.000709267
-0.000882899
0.109972
0.020869
-0.121207
-0.0096347
0.0983723
0.0214356
-0.00983558
0.0864521
0.0219735
-0.0100534
0.0741954
0.0225461
-0.0102894
0.0615762
0.0231668
-0.0105476
0.048565
0.0238434
-0.0108322
0.0351362
0.0245712
-0.0111424
0.0213634
0.025181
-0.0114082
0.0081433
0.0242286
-0.0110086
0.0151694
-0.00702608
0.109067
0.0320571
-0.120255
0.0975303
0.0329724
0.0856849
0.0338189
0.0735143
0.0347167
0.0609922
0.0356889
0.0480885
0.0367471
0.0347771
0.0378826
0.0211313
0.0388268
0.00804326
0.0373167
0.0232126
0.107778
0.043173
-0.118894
0.0963378
0.0444125
0.084604
0.0455526
0.0725594
0.0467614
0.060177
0.0480712
0.0474262
0.0494979
0.0342804
0.0510284
0.0208138
0.0522934
0.00791311
0.0502174
0.0311258
0.10601
0.0541762
-0.117013
0.0947133
0.0557089
0.0831405
0.0571254
0.0712733
0.0586286
0.0590843
0.0602603
0.046542
0.0620402
0.03362
0.0639504
0.0203939
0.0655195
0.0077451
0.0628662
0.0388709
0.103655
0.0650066
-0.114485
0.0925666
0.0667969
0.08122
0.068472
0.0695959
0.0702528
0.0576661
0.0721901
0.0453986
0.0743077
0.0327667
0.0765823
0.0198481
0.078438
0.00751664
0.0751977
0.0463875
0.100614
0.0755865
-0.111194
0.0898151
0.0775958
0.0787759
0.0795112
0.0674754
0.0815533
0.055884
0.0837815
0.0439687
0.0862229
0.0317033
0.0888477
0.0191684
0.0909729
0.00722979
0.0871363
0.0536173
0.0968126
0.0858349
-0.107061
0.0864036
0.0880049
0.0757731
0.0901417
0.0648923
0.0924341
0.053729
0.0949447
0.0422504
0.0977016
0.0304318
0.100666
0.0183591
0.103046
0.00688931
0.098606
0.0605066
0.0921377
0.0956097
-0.101912
0.0822627
0.0978799
0.0721733
0.100231
0.0618297
0.102778
0.0511991
0.105575
0.0402504
0.10865
0.0289631
0.111954
0.0174307
0.114578
0.00650151
0.109535
0.0670081
0.0868857
0.104583
-0.0958587
0.0777678
0.106998
0.0683276
0.109671
0.058579
0.112526
0.0485187
0.115636
0.0381308
0.119038
0.0274064
0.122678
0.0164496
0.125535
0.00609649
0.119888
0.0731046
0.0796764
-0.0868811
0.0718369
0.0635061
0.0546919
0.0454288
0.0357512
0.0256921
0.0153847
0.00566071
0.200426
0.0154916
-0.017928
0.202745
0.0199426
-0.0222615
0.202635
0.0246417
-0.0245318
0.203208
0.0272269
-0.0278001
0.20284
0.0330128
-0.0326448
0.200832
0.0410832
-0.0390744
0.195894
0.0519383
-0.0470006
0.185515
0.0666211
-0.0562421
0.163581
0.0884709
-0.0665376
0.120385
-0.0780103
0.200291
0.0131907
0.202486
0.0177468
0.202316
0.0248126
0.2028
0.0267423
0.202306
0.0335074
0.200123
0.0432656
0.194958
0.0571039
0.184312
0.0772666
0.162298
0.110485
0.162428
0.20003
0.0111503
0.201933
0.0158443
0.201605
0.0251403
0.201881
0.0264659
0.201132
0.0342568
0.198651
0.0457462
0.193146
0.0626095
0.182158
0.088254
0.160144
0.132499
0.203678
0.199641
0.00949926
0.201088
0.0143974
0.200515
0.0257127
0.200463
0.0265186
0.199329
0.0353904
0.196424
0.0486513
0.190459
0.0685744
0.179036
0.0996768
0.157028
0.154508
0.243693
0.199115
0.00837409
0.199957
0.0135557
0.199063
0.0266061
0.198557
0.0270249
0.19691
0.0370379
0.193453
0.0521083
0.186901
0.0751261
0.174925
0.111652
0.152719
0.176714
0.281927
0.198442
0.00792215
0.198546
0.0134516
0.19727
0.0278823
0.196179
0.0281152
0.193888
0.0393289
0.189751
0.0562456
0.182476
0.0824012
0.169793
0.124335
0.146828
0.19968
0.317561
0.197608
0.00830406
0.196864
0.0141959
0.195158
0.0295875
0.193344
0.0299291
0.190283
0.0423904
0.185336
0.0611922
0.177192
0.0905451
0.163641
0.137887
0.140621
0.2227
0.351121
0.196598
0.00969566
0.194922
0.0158723
0.192757
0.031752
0.190067
0.0326198
0.186114
0.0463431
0.18023
0.067076
0.171073
0.099702
0.156547
0.152413
0.134274
0.244973
0.383482
0.195398
0.0122879
0.192738
0.0185318
0.190096
0.0343943
0.186357
0.0363586
0.181407
0.0512928
0.17448
0.0740033
0.164276
0.109906
0.148992
0.167696
0.127944
0.266022
0.415567
0.194082
0.0161955
0.190319
0.0222947
0.187233
0.0374807
0.182257
0.0413343
0.176242
0.0573075
0.168171
0.0820745
0.156688
0.121389
0.139929
0.184455
0.117206
0.288745
0.445892
0.30272
0.0154857
0.303719
0.0212959
0.306883
0.0343169
0.30804
0.0401773
0.309727
0.0556205
0.31199
0.0798113
0.315908
0.117472
0.324585
0.175777
0.348591
0.264739
0.392122
0.402361
0.303392
0.0141038
0.304784
0.019904
0.308082
0.0310192
0.310263
0.0379959
0.313187
0.0526963
0.317434
0.075565
0.324474
0.110432
0.337673
0.162578
0.36575
0.236661
0.337735
0.420138
0.303953
0.0121613
0.305871
0.0179852
0.309312
0.0275791
0.312365
0.0349427
0.316443
0.0486185
0.322419
0.0695884
0.331957
0.100894
0.348334
0.146201
0.3785
0.206495
0.284599
0.431636
0.304472
0.00969937
0.306881
0.015576
0.310526
0.0239341
0.314318
0.0311506
0.319433
0.0435042
0.326898
0.0621231
0.338432
0.0893607
0.357043
0.127589
0.387959
0.175579
0.234311
0.438246
0.304976
0.00673395
0.307815
0.0127364
0.311674
0.0200753
0.316082
0.0267428
0.322089
0.0374966
0.330794
0.053419
0.343875
0.076279
0.363978
0.107487
0.394836
0.144721
0.187556
0.441591
0.305486
0.00325816
0.308678
0.00954489
0.312714
0.0160389
0.317617
0.0218401
0.324362
0.0307512
0.334061
0.04372
0.348307
0.062033
0.369355
0.086439
0.39975
0.114327
0.144382
0.442924
0.306028
-0.00075976
0.309476
0.00609674
0.313613
0.0119025
0.318889
0.016564
0.326214
0.0234264
0.336677
0.0332565
0.351766
0.0469437
0.373378
0.0648271
0.403162
0.0845427
0.104397
0.443147
0.306644
-0.00539326
0.310222
0.00251839
0.314337
0.00778761
0.319866
0.0110348
0.327613
0.015679
0.338628
0.0222419
0.354296
0.0312762
0.376216
0.0429064
0.405404
0.055355
0.066946
0.442855
0.307012
-0.0103953
0.310562
-0.00103138
0.314515
0.00383482
0.320182
0.0053677
0.328201
0.00765971
0.33957
0.0108726
0.355596
0.0152506
0.377661
0.0208417
0.406361
0.0266546
0.0315789
0.441728
0.291615
0.290584
0.294418
0.299786
0.307446
0.318318
0.333569
0.354411
0.381065
0.412644
0.4107
-0.0984253
0.41339
-0.0860259
0.41663
-0.0782217
0.42034
-0.0699305
0.423867
-0.0607896
0.426907
-0.0508667
0.429359
-0.0402125
0.431204
-0.0289373
0.432435
-0.0171833
-0.00514081
0.419613
-0.0979008
0.419417
-0.0858295
0.418939
-0.0777441
0.418312
-0.0693028
0.417547
-0.0600255
0.416755
-0.0500741
0.416062
-0.0395192
0.415556
-0.0284315
0.415297
-0.0169241
-0.00519817
0.425784
-0.0920484
0.421163
-0.0812088
0.41671
-0.0732909
0.412648
-0.0652411
0.409111
-0.0564883
0.406152
-0.0471152
0.403824
-0.0371909
0.402176
-0.026784
0.401253
-0.0160006
-0.00498794
0.428867
-0.0826695
0.421118
-0.0734589
0.414066
-0.0662397
0.407759
-0.0589334
0.402306
-0.0510357
0.397773
-0.042582
0.394215
-0.0336333
0.391683
-0.0242514
0.390211
-0.0145285
-0.00459257
0.429962
-0.07104
0.420048
-0.0635451
0.411164
-0.0573558
0.403292
-0.0510609
0.396519
-0.0442631
0.39091
-0.0369735
0.386518
-0.0292411
0.383387
-0.0211202
0.381551
-0.0126923
-0.00406905
0.429893
-0.0580089
0.418554
-0.0522066
0.408435
-0.0472363
0.399506
-0.042132
0.391838
-0.0365951
0.385492
-0.0306283
0.380523
-0.0242716
0.376975
-0.017572
0.374884
-0.010601
-0.00345487
0.429271
-0.0441325
0.417036
-0.0399714
0.406119
-0.03632
0.396498
-0.0325108
0.388234
-0.0283306
0.38139
-0.0237845
0.376024
-0.0189061
0.372188
-0.0137355
0.36992
-0.00833278
-0.002779
0.428478
-0.029756
0.415733
-0.027226
0.404356
-0.024943
0.394311
-0.0224661
0.385663
-0.0196827
0.378487
-0.0166083
0.372851
-0.01327
0.368815
-0.00969974
0.366426
-0.00594365
-0.00206461
0.426907
-0.0149352
0.413927
-0.0142458
0.402284
-0.0132994
0.391937
-0.0121195
0.38298
-0.0107252
0.375514
-0.00914265
0.369634
-0.00739049
0.365423
-0.00548796
0.362941
-0.00346155
-0.00134273
0.397709
0.383463
0.370164
0.358044
0.347319
0.338176
0.330786
0.325298
0.321836
0.00401857
0.123036
-0.127055
0.0068275
0.216624
-0.219433
0.00827099
0.232581
-0.234024
0.0094031
0.230106
-0.231239
0.0105198
0.225079
-0.226196
0.0117424
0.220488
-0.22171
0.0130986
0.216652
-0.218009
0.0145907
0.213527
-0.215019
0.0161828
0.210998
-0.21259
0.208635
0.0176052
-0.210057
0.0057686
0.117267
0.0117588
0.210634
0.0167307
0.227609
0.0213834
0.225454
0.0260815
0.220381
0.0309773
0.215592
0.0361395
0.21149
0.0416142
0.208052
0.0474203
0.205191
0.202744
0.0533107
0.00701484
0.110253
0.0157236
0.201925
0.0238068
0.219526
0.0316219
0.217639
0.0395031
0.2125
0.0476264
0.207469
0.0560948
0.203022
0.0649929
0.199154
0.0743988
0.195785
0.192853
0.0842901
0.00769455
0.102558
0.0184809
0.191139
0.0290788
0.208928
0.0394718
0.207246
0.0499047
0.202067
0.0605508
0.196823
0.0715288
0.192044
0.0829403
0.187742
0.094885
0.183841
0.180216
0.107522
0.00790354
0.0946545
0.0200535
0.178989
0.0324731
0.196508
0.0447304
0.194988
0.056954
0.189843
0.069288
0.184489
0.0818433
0.179488
0.0947134
0.174872
0.107982
0.170572
0.166339
0.121859
0.00779897
0.0868555
0.0206846
0.166103
0.0342363
0.182957
0.0476546
0.18157
0.0609391
0.176559
0.0741883
0.171239
0.0874899
0.166187
0.100915
0.161447
0.11452
0.156968
0.152373
0.128486
0.00753503
0.0793205
0.0206951
0.152943
0.0348114
0.16884
0.0488102
0.167571
0.062576
0.162793
0.0761603
0.157655
0.0896248
0.152723
0.103019
0.148052
0.116371
0.143616
0.138921
0.129823
0.0072315
0.072089
0.0203783
0.139797
0.0346653
0.154553
0.0488389
0.153398
0.0626977
0.148934
0.0762551
0.144097
0.0895519
0.139426
0.102623
0.134981
0.115501
0.130738
0.126195
0.128227
0.00695845
0.0651305
0.0199491
0.126806
0.0341767
0.140326
0.0482857
0.139289
0.0620198
0.1352
0.0753659
0.130751
0.0883511
0.126441
0.101009
0.122323
0.113362
0.118385
0.113819
0.125738
0.00674675
0.0583838
0.0195442
0.114009
0.0336143
0.126256
0.0475534
0.12535
0.0610694
0.121684
0.0741201
0.117701
0.0866973
0.113863
0.098778
0.110243
0.110274
0.106889
0.103148
0.120945
0.00660581
0.051778
0.0192435
0.101371
0.0331693
0.11233
0.0469713
0.111547
0.0603554
0.1083
0.073289
0.104767
0.0857936
0.101359
0.0979067
0.0981296
0.10969
0.0951056
0.0925924
0.120246
0.00651175
0.0452662
0.0190319
0.0888507
0.0328431
0.0985185
0.0465337
0.097857
0.0598061
0.0950276
0.072623
0.0919502
0.0849946
0.0889872
0.0969353
0.0861888
0.108472
0.0835684
0.0817104
0.119354
0.00644737
0.0388188
0.0188935
0.0764046
0.0326349
0.0847771
0.0462607
0.0842312
0.0594739
0.0818143
0.0722375
0.0791866
0.0845626
0.0766621
0.0964664
0.0742851
0.107975
0.0720598
0.0705882
0.119097
0.00639993
0.0324189
0.0188056
0.0639989
0.0325171
0.0710656
0.0461213
0.070627
0.059323
0.0686126
0.0720877
0.0664219
0.0844299
0.0643199
0.0963712
0.0623437
0.107941
0.0604897
0.0593042
0.119225
0.00636227
0.0260566
0.0187457
0.0516154
0.0324489
0.0573624
0.0460537
0.0570222
0.059265
0.0554013
0.0720502
0.0536368
0.0844263
0.0519437
0.0964179
0.0503521
0.108054
0.0488533
0.0479157
0.119443
0.00633227
0.0197244
0.0187004
0.0392473
0.0324017
0.0436611
0.0460123
0.0434117
0.0592358
0.0421778
0.0720405
0.0408321
0.0844443
0.0395399
0.0964722
0.0383242
0.108151
0.0371749
0.0364726
0.119594
0.00630891
0.0134155
0.0186612
0.026895
0.0323569
0.0299653
0.0459678
0.0298008
0.0591963
0.0289493
0.0720105
0.0280179
0.0844285
0.0271219
0.096475
0.0262777
0.108174
0.0254763
0.0250056
0.119641
0.00629034
0.00712511
0.0186216
0.0145637
0.0323019
0.016285
0.0459016
0.0162011
0.0591226
0.0157283
0.0719332
0.0152073
0.0843515
0.0147036
0.096402
0.0142272
0.108106
0.0137722
0.0135306
0.119581
0.00627393
0.000851182
0.0185756
0.00226212
0.0322261
0.0026345
0.0457988
0.00262835
0.0589966
0.00253058
0.0717881
0.00241579
0.0841915
0.00230015
0.0962314
0.00218732
0.107928
0.0020756
0.00206256
0.119396
0.00625713
0.0185169
0.0321191
0.0456449
0.0588
0.0715541
0.0839259
0.0959399
0.107616
0.119075
0.1359
0.241254
-0.256908
0.149451
0.108533
-0.122084
0.159143
0.0371791
-0.0468712
0.166345
0.00560557
-0.0128074
0.172231
-0.00695904
0.00107291
0.177427
-0.0107942
0.00559862
0.182173
-0.0108635
0.00611715
0.186583
-0.00938762
0.00497754
0.190692
-0.00736241
0.00325403
-0.00495462
0.00117417
0.141557
0.219052
0.156356
0.0937334
0.166011
0.0275239
0.172669
-0.00105208
0.177723
-0.0120138
0.18194
-0.0150103
0.185631
-0.0145549
0.188944
-0.012701
0.191943
-0.0103607
-0.00762976
0.145533
0.192615
0.162315
0.0769516
0.172103
0.0177363
0.178329
-0.00727796
0.182695
-0.0163798
0.186048
-0.0183638
0.188792
-0.0172987
0.191116
-0.0150253
0.193112
-0.0123562
-0.00930436
0.149468
0.162373
0.167732
0.0586876
0.177598
0.00787054
0.183425
-0.0131052
0.187155
-0.0201098
0.189741
-0.0209496
0.191643
-0.0192014
0.19309
-0.0164722
0.194195
-0.0134613
-0.0100889
0.153811
0.128005
0.172481
0.0400177
0.182401
-0.00204976
0.187893
-0.0185976
0.191077
-0.0232936
0.192998
-0.0228705
0.194171
-0.0203747
0.194857
-0.0171575
0.195188
-0.0137924
-0.0100988
0.156983
0.0906153
0.176452
0.0205487
0.18648
-0.0120777
0.191707
-0.0238243
0.194438
-0.026024
0.195802
-0.0242351
0.196363
-0.0209352
0.196406
-0.0172013
0.196084
-0.0134705
-0.00945407
0.159303
0.0509531
0.179648
0.000203087
0.189807
-0.0222368
0.194839
-0.0288562
0.197216
-0.0284003
0.198137
-0.0251568
0.198206
-0.0210036
0.197732
-0.0167275
0.196882
-0.0126202
-0.00827873
0.160961
0.00957285
0.182047
-0.0208821
0.192353
-0.0325431
0.197267
-0.0337706
0.199394
-0.0305272
0.19999
-0.0257531
0.19969
-0.0207036
0.198826
-0.0158629
0.197575
-0.0113691
-0.00670018
0.161975
-0.0330059
0.18362
-0.0425274
0.194092
-0.0430146
0.198972
-0.0386513
0.200959
-0.0325139
0.201351
-0.0261447
0.200809
-0.0201619
0.199683
-0.0147368
0.198161
-0.00984751
-0.00484857
0.162311
0.184343
0.195003
0.199941
0.2019
0.20221
0.201554
0.200297
0.198637
0.20437
0.0401009
-0.244471
0.182107
0.0222634
0.172531
0.00957632
0.169463
0.00306736
0.169253
0.000210708
0.170065
-0.000812748
0.171074
-0.00100865
0.171927
-0.000852706
0.17249
-0.000563142
-0.000202475
0.237182
0.099649
-0.29673
0.20976
0.0496852
0.198641
0.0206956
0.195178
0.00653055
0.194981
0.000407576
0.195938
-0.00177011
0.19711
-0.00218009
0.198097
-0.00183958
0.198752
-0.00121833
-0.000440808
0.235561
0.156709
-0.292622
0.209102
0.0761444
0.198776
0.0310214
0.195792
0.00951466
0.195843
0.0003566
0.19692
-0.00284682
0.198148
-0.00340768
0.19916
-0.00285246
0.199828
-0.00188557
-0.000682909
0.230223
0.209935
-0.283449
0.206142
0.100226
0.197347
0.039816
0.195189
0.0116727
0.195637
-9.06981e-05
0.196898
-0.00410854
0.198204
-0.00471356
0.199248
-0.00389606
0.199925
-0.00256333
-0.000927271
0.22442
-0.271394
0.202562
0.195507
0.194372
0.195355
0.196845
0.198248
0.19933
0.200021
0.0250098
-0.00131428
-0.0236955
0.0304521
-0.0054423
0.0409993
-0.0105471
0.0578336
-0.0168343
0.0814516
-0.023618
0.110853
-0.0294013
0.144078
-0.0332249
0.178497
-0.0344196
0.213842
-0.0353447
-0.0306292
0.0653279
-0.00468865
-0.0619536
0.0771125
-0.0172269
0.0972006
-0.0306352
0.124279
-0.0439132
0.155396
-0.0547349
0.18716
-0.0611648
0.217361
-0.0634259
0.245087
-0.0621459
0.271886
-0.0621431
-0.0554739
0.0899492
-0.00905244
-0.0855854
0.103089
-0.0303667
0.123325
-0.0508714
0.147657
-0.0682448
0.173005
-0.0800835
0.197729
-0.0858888
0.221642
-0.0873385
0.245161
-0.0856647
0.269424
-0.0864061
-0.0786716
0.101741
-0.0134651
-0.0973287
0.113798
-0.0424236
0.131401
-0.0684743
0.151933
-0.0887766
0.173519
-0.10167
0.195428
-0.107798
0.21741
-0.10932
0.239803
-0.108058
0.262213
-0.108816
-0.0999077
0.106437
-0.102297
0.117324
0.13314
0.151886
0.172074
0.192762
0.213266
0.233435
0.250356
0.10333
-0.0904568
0.0993144
-0.112187
0.0936762
-0.0932301
0.102884
0.0832985
-0.0962175
0.106595
0.0721641
-0.0993127
0.110447
0.0603224
-0.102595
0.114436
0.0478359
-0.106101
0.118588
0.0347574
-0.109787
0.122866
0.0212181
-0.112814
0.126353
0.00813821
-0.108379
0.121459
-0.0667633
0.0749015
0.106499
-0.0799984
-0.116957
0.0957815
-0.0825125
0.0845532
-0.0849892
0.0728376
-0.0875971
0.0606416
-0.0903988
0.0479564
-0.093416
0.0347757
-0.0966067
0.0211932
-0.0992315
0.00811341
-0.0952993
-0.0586499
0.107803
-0.0690489
-0.118752
0.0966213
-0.0713311
0.0850935
-0.0734614
0.0731829
-0.0756865
0.0608569
-0.0780728
0.0480844
-0.0806435
0.0348436
-0.0833659
0.0212183
-0.0856062
0.00811214
-0.0821931
-0.0505377
0.109055
-0.0579339
-0.12017
0.0976483
-0.0599244
0.0859075
-0.0617206
0.0738087
-0.0635877
0.0613213
-0.0655854
0.0484134
-0.0677355
0.0350598
-0.0700124
0.0213397
-0.071886
0.00815575
-0.0690092
-0.042382
0.109957
-0.0467364
-0.121155
0.0984234
-0.0483907
0.0865528
-0.04985
0.0743303
-0.0513652
0.0617291
-0.0529842
0.0487179
-0.0547243
0.0352709
-0.0565654
0.0214647
-0.0580798
0.00820261
-0.0557471
-0.0341794
0.11058
-0.0354794
-0.121837
0.0989682
-0.0367789
0.0870193
-0.0379011
0.074719
-0.0390649
0.0620418
-0.0403069
0.0489574
-0.0416399
0.0354401
-0.0430482
0.0215653
-0.044205
0.00823683
-0.0424186
-0.0259426
0.110933
-0.0241955
-0.122217
0.0992802
-0.025126
0.0872898
-0.0259107
0.0749473
-0.0267224
0.0622277
-0.0275873
0.0491011
-0.0285133
0.0355419
-0.029489
0.0216243
-0.0302874
0.00825131
-0.0290456
-0.0176912
0.111042
-0.0129062
-0.122331
0.0993741
-0.0134585
0.0873698
-0.0139065
0.0750139
-0.0143665
0.0622809
-0.0148543
0.0491417
-0.015374
0.0355708
-0.0159181
0.0216421
-0.0163588
0.00825914
-0.0156626
-0.00943211
0.110915
-0.00163587
-0.122185
0.0992554
-0.00179897
0.0872609
-0.00191197
0.0749162
-0.00202183
0.0621964
-0.00213447
0.0490722
-0.00224986
0.0355187
-0.00236461
0.0216098
-0.00244987
0.0082477
-0.00230058
-0.0011844
0.11056
-0.12183
0.0989254
0.08696
0.0746488
0.0619667
0.0488847
0.0353777
0.0215196
0.00821048
0.0167281
-0.207064
-0.0197209
0.0138975
-0.209759
0.0111978
-0.212319
0.00856944
-0.21538
0.00596752
-0.219109
0.00335097
-0.223579
0.000707876
-0.228595
-0.00108212
-0.232234
-0.00198278
-0.218533
-0.129037
0.0483962
-0.199751
-0.0557095
0.0412981
-0.202661
0.0345817
-0.205602
0.0281697
-0.208968
0.0219757
-0.212915
0.0159411
-0.217545
0.0101287
-0.222783
0.00444629
-0.226552
0.000261268
-0.214348
-0.128776
0.0752977
-0.188679
-0.0863698
0.064689
-0.192052
0.0546725
-0.195586
0.0451331
-0.199429
0.0359488
-0.20373
0.0270144