/*--------------------------------*- C++ -*----------------------------------*\
  =========                 |
  \\      /  F ield         | OpenFOAM: The Open Source CFD Toolbox
   \\    /   O peration     | Website:  https://openfoam.org
    \\  /    A nd           | Version:  13
     \\/     M anipulation  |
\*---------------------------------------------------------------------------*/
FoamFile
{
    format      ascii;
    class       volScalarField;
    location    "0.415";
    object      p;
}
// * * * * * * * * * * * * * * * * * * * * * * * * * * * * * * * * * * * * * //

dimensions      [0 2 -2 0 0 0 0];

internalField   nonuniform List<scalar> 
440
(
7.86443
10.621
12.9841
13.1677
10.1948
20.7591
24.1426
27.1383
27.8395
25.9531
41.2975
44.3289
47.0321
47.825
46.6647
67.4314
69.5293
71.4427
72.0994
71.4122
96.7087
97.5257
98.3227
98.7228
98.6892
-0.383828
-0.483785
-0.0135376
0.543909
0.883677
-1.65347
-2.3138
-2.04776
-1.34981
-0.712475
-2.01603
-2.8935
-2.80728
-2.0458
-0.92554
-0.663968
-0.794599
-0.383933
0.586271
2.45479
3.113
4.42505
5.85649
7.29151
9.54481
2.139
2.32343
1.41606
0.737816
0.245972
1.09786
2.11642
1.29437
0.679334
0.232375
-0.0568275
1.69348
1.15389
0.628358
0.221716
-0.357206
1.09074
0.940041
0.5832
0.216107
1.55992
0.509546
0.651053
0.535032
0.214545
4.43715
0.285303
0.365985
0.490292
0.213694
6.76845
0.732307
0.451423
0.49379
0.16817
10.0291
2.47835
1.1079
0.612045
0.124091
13.9229
4.79812
2.17338
0.87136
0.118929
16.6609
7.16735
3.49749
1.32201
0.197681
100.733
75.8846
53.3693
33.1954
12.3939
102.429
78.9865
57.5809
39.1006
23.5273
104.33
82.7467
62.519
45.2778
32.931
105.213
85.0667
66.5492
51.2309
40.7054
105.132
84.7892
66.3749
51.2984
40.9453
219.916
216.442
216.153
218.271
221.005
202.734
200.271
200.532
203.274
206.566
180.587
178.815
179.179
181.602
184.48
154.788
153.445
153.65
155.244
157.141
126.907
126.193
126.132
126.592
127.185
235.575
236.001
236.633
237.051
236.792
236.183
236.816
237.369
237.343
236.388
235.008
235.984
236.403
236.132
235.142
230.126
231.73
232.3
232.442
232.35
221.629
223.498
224.516
225.73
227.086
235.825
234.747
234.928
234.102
234.271
235.797
234.733
234.878
234.07
234.826
235.787
234.697
234.83
234.202
235.373
235.79
234.64
234.834
234.466
234.968
235.795
234.564
234.91
234.668
232.27
235.804
234.438
234.967
234.45
228.761
235.973
234.314
234.857
233.981
226.402
236.85
234.076
234.213
232.283
223.379
240.867
234.064
233.024
229.802
219.693
249.831
234.784
231.813
227.251
216.937
217.802
196.276
175.071
151.778
126.492
207.413
191.417
172.371
150.467
126.697
198.926
186.245
168.661
148.133
126.379
191.783
180.825
165.142
146.306
125.965
191.564
180.806
165.397
146.705
126.195
96.4362
95.5593
95.1115
94.3447
94.1881
57.3604
55.4134
53.708
51.7865
51.0207
29.5345
27.1911
24.4286
22.1299
20.8056
15.0853
12.6688
10.2038
8.18393
7.21363
9.25691
7.36952
5.98299
5.00778
4.42072
6.02792
4.92587
4.34591
4.25702
4.34533
4.12258
3.66214
3.58875
3.74358
3.89696
2.82286
2.80608
3.03702
3.33877
3.49669
1.72706
2.02919
2.47694
2.82619
2.97078
0.68356
1.07953
1.64873
2.04802
2.22108
3.66713
3.23567
2.12337
1.02586
0.30812
3.72002
3.06555
2.03148
0.971808
0.296731
3.52441
2.8078
1.90353
0.919863
0.285881
3.20863
2.56962
1.74394
0.86569
0.275512
2.7918
2.42284
1.56852
0.804534
0.263649
4.53468
3.22091
2.03453
1.05687
0.332238
3.79863
3.31366
2.12596
1.05772
0.319497
94.9438
54.1909
27.5577
14.5366
9.51735
93.7226
51.1816
23.0347
9.52168
5.31243
232.159
232.241
232.192
231.678
230.602
232.751
232.924
233.154
233.194
232.821
233.31
233.481
233.867
234.264
234.434
233.896
234.046
234.447
235.044
235.458
234.624
234.858
235.358
235.962
236.215
142.014
141.822
140.994
140.483
139.572
185.243
184.434
182.455
180.688
178.711
215.537
214.166
211.817
209.003
206.629
229.168
228.161
226.111
223.615
221.17
232.015
231.4
230.43
229.049
227.151
238.85
234.482
234.596
233.523
232.916
237.157
234.521
234.685
233.695
232.938
236.408
234.607
234.787
233.918
233.265
236.052
234.685
234.886
234.105
233.63
235.891
234.734
234.939
234.164
233.932
252.281
235.815
234.954
233.46
232.003
243.19
234.728
234.533
233.401
232.718
226.956
221.882
208.776
182.065
141.263
231.152
226.91
213.331
185.088
142.486
)
;

boundaryField
{
    left
    {
        type            zeroGradient;
    }
    right
    {
        type            fixedValue;
        value           uniform 0;
    }
    down
    {
        type            zeroGradient;
    }
    up
    {
        type            zeroGradient;
    }
    cylinder
    {
        type            zeroGradient;
    }
    defaultFaces
    {
        type            empty;
    }
}


// ************************************************************************* //
