/*--------------------------------*- C++ -*----------------------------------*\
  =========                 |
  \\      /  F ield         | OpenFOAM: The Open Source CFD Toolbox
   \\    /   O peration     | Website:  https://openfoam.org
    \\  /    A nd           | Version:  13
     \\/     M anipulation  |
\*---------------------------------------------------------------------------*/
FoamFile
{
    format      ascii;
    class       volScalarField;
    location    "0.415";
    object      strainRateViscosityModel:nu;
}
// * * * * * * * * * * * * * * * * * * * * * * * * * * * * * * * * * * * * * //

dimensions      [0 2 -1 0 0 0 0];

internalField   nonuniform List<scalar> 
440
(
9.41959
8.96967
8.54437
8.04232
7.58632
9.68997
9.35816
8.98172
8.47999
7.8756
9.80075
9.53084
9.15876
8.58508
7.84828
9.84963
9.61818
9.25862
8.64757
7.86609
9.86917
9.65608
9.30593
8.68096
7.90881
1.29566
1.78834
2.04831
2.29887
2.36275
3.37635
3.30293
3.32068
3.43097
3.50185
5.89034
5.27214
4.93122
4.73361
4.76391
7.76968
6.99349
6.42112
5.90703
5.83019
8.82081
8.15125
7.55197
6.91864
6.87257
1.85013
0.837752
0.378751
0.0929899
0.0296589
2.623
0.918861
0.32883
0.0538637
0.0108649
3.51987
1.16917
0.283767
0.0355727
0.0103821
4.09587
1.45905
0.272078
0.0269832
0.0103182
4.6064
1.7765
0.332389
0.0159017
0.0149867
4.2328
1.75454
0.269747
0.0264534
0.163094
3.70791
1.81213
0.571132
0.321645
0.460888
4.91681
3.20712
1.21529
0.582496
0.613774
7.0097
4.29129
1.90205
0.931084
0.784757
8.27288
5.07952
2.49451
1.3493
0.976233
2.84864
3.68321
4.62074
5.50708
6.15091
3.68372
3.69624
3.77142
3.85108
3.36689
8.22669
8.08672
7.79942
7.38529
6.34562
9.05295
8.99242
8.85911
8.62159
8.16028
9.60671
9.56995
9.48701
9.33804
9.11878
7.50381
8.01251
8.5593
9.01085
9.46431
7.79409
8.45152
8.987
9.37784
9.70867
7.77896
8.55897
9.15937
9.54076
9.80945
7.81625
8.62754
9.25738
9.62276
9.85359
7.89135
8.67368
9.30536
9.65744
9.87034
2.51009
2.45138
2.25196
2.0983
2.02384
3.47435
3.42539
3.46288
3.67858
4.22105
4.64278
4.66412
5.04998
5.59503
6.44115
5.69081
5.83107
6.49944
7.18773
8.03945
6.75636
6.84383
7.58107
8.24293
8.93554
0.177029
0.0496761
0.243766
0.821673
2.00338
0.139217
0.0657614
0.196762
0.856488
2.6563
0.11613
0.0784119
0.163068
1.07926
3.452
0.107234
0.0820838
0.173067
1.40201
3.9564
0.121717
0.097467
0.274707
1.75217
4.37611
0.187439
0.134392
0.270481
1.87961
4.11028
0.320042
0.153944
0.234094
1.77359
3.85534
0.642102
0.313911
0.787108
3.0285
4.90359
2.26461
0.853402
1.5199
4.16053
6.96082
5.05183
2.56617
2.43994
5.04184
8.27894
5.95081
5.26913
4.40431
3.51154
2.78037
3.51983
3.98869
3.96923
3.8754
3.76343
6.3202
7.35232
7.7793
8.06799
8.21871
8.12154
8.60015
8.84959
8.9887
9.05208
9.11686
9.33776
9.48738
9.5705
9.60696
9.31065
7.91645
1.39849
3.62969
7.73637
9.08156
7.44032
3.20562
1.64042
6.78854
8.39822
6.5771
4.20803
1.00338
4.14714
6.81492
5.09405
3.45475
1.70043
1.03845
4.50302
3.14478
2.03847
1.37768
0.459981
2.59644
1.61859
1.00237
0.796668
0.926357
1.45438
0.778634
0.57902
0.61211
0.685087
0.799655
0.403457
0.586693
0.755265
0.828767
0.305082
0.500562
0.878314
1.04287
1.10448
0.15797
0.930419
1.27451
1.50962
1.56361
0.190841
0.359952
0.697852
0.77178
0.754246
0.395439
0.494477
0.563731
0.622838
0.625749
0.609936
0.636893
0.445013
0.466553
0.482569
0.957069
0.780074
0.39284
0.313091
0.343748
1.32213
0.828267
0.391486
0.175348
0.169016
1.10551
0.858706
1.11677
1.11819
1.05101
0.283641
0.471885
0.856803
0.922635
0.88579
9.19091
8.8383
7.75824
5.72951
3.55912
8.58692
7.7224
5.85095
3.49089
0.865722
0.966329
0.860998
1.0286
1.62016
2.65765
0.817267
0.771844
0.707857
0.825668
1.52309
1.0598
1.01103
0.848138
0.5539
0.735727
1.37303
1.33567
1.13829
0.78958
0.22304
1.83254
1.786
1.53576
1.2211
0.591338
7.7359
3.62659
1.39981
7.91469
9.31079
6.78468
1.6401
3.20241
7.43721
9.08219
4.1332
1.01087
4.19398
6.57244
8.39976
1.03583
1.70635
3.43304
5.08474
6.82135
0.477096
1.37725
2.01453
3.12655
4.52582
1.30231
0.568587
0.555784
0.457569
0.177902
0.664907
0.318008
0.46689
0.523237
0.490455
0.38135
0.197463
0.371009
0.620241
0.804821
0.277103
0.0654041
0.329027
0.758533
1.21194
0.22713
0.0329863
0.291716
0.821314
1.56388
5.47859
2.47074
1.05104
0.975446
1.14281
2.88211
1.10361
0.735151
0.563749
0.24996
3.56846
5.73535
7.75943
8.83883
9.19106
0.841687
3.47081
5.8442
7.72103
8.58677
)
;

boundaryField
{
    left
    {
        type            calculated;
        value           nonuniform List<scalar> 
17
(
0.427151
1.08897
2.17005
3.90988
6.57953
0.288039
0.181164
0.138026
0.140564
0.200305
2.95569
2.05149
1.30961
0.789712
0.479267
6.97798
4.57874
)
;
    }
    right
    {
        type            calculated;
        value           nonuniform List<scalar> 
17
(
1.05136
0.88706
0.755657
0.627297
0.483075
0.341001
0.162212
0.0259312
0.0104375
0.0101802
0.0102414
0.0196716
0.20501
0.518462
0.653346
0.801706
0.96778
)
;
    }
    down
    {
        type            calculated;
        value           nonuniform List<scalar> 
20
(
5.9927
3.00648
1.16014
1.05822
1.85278
4.27015
6.38326
8.1309
9.01549
9.30904
9.30887
9.01485
8.12943
6.37912
4.26346
1.83122
0.933467
1.18357
1.17603
1.10031
)
;
    }
    up
    {
        type            calculated;
        value           nonuniform List<scalar> 
20
(
8.54859
5.40704
2.72295
1.49279
1.04025
9.69562
9.66614
9.59856
9.47419
9.29336
9.29629
9.4764
9.60015
9.66725
9.69603
5.70017
3.16884
2.67964
5.39723
8.56517
)
;
    }
    cylinder
    {
        type            calculated;
        value           nonuniform List<scalar> 
40
(
1.35688
3.57988
6.1169
7.96066
8.95727
9.50518
9.74578
9.84079
9.88145
9.89746
9.54759
9.76287
9.84856
9.88496
9.89849
2.25937
4.49661
6.68754
8.23255
9.07011
3.04361
1.84752
1.08383
0.433323
0.600489
9.51888
9.33165
8.74189
7.26903
4.98548
9.51871
9.33091
8.73985
7.26083
4.95681
2.96497
1.73084
1.07071
0.667507
0.10521
)
;
    }
    defaultFaces
    {
        type            empty;
    }
}


// ************************************************************************* //
