/*--------------------------------*- C++ -*----------------------------------*\
  =========                 |
  \\      /  F ield         | OpenFOAM: The Open Source CFD Toolbox
   \\    /   O peration     | Website:  https://openfoam.org
    \\  /    A nd           | Version:  13
     \\/     M anipulation  |
\*---------------------------------------------------------------------------*/
FoamFile
{
    format      ascii;
    class       volVectorField;
    location    "0.415";
    object      U;
}
// * * * * * * * * * * * * * * * * * * * * * * * * * * * * * * * * * * * * * //

dimensions      [0 1 -1 0 0 0 0];

internalField   nonuniform List<vector> 
440
(
(0.218266 -0.1767 -1.81082e-19)
(0.613084 -0.436666 1.079e-18)
(0.984289 -0.640904 4.23567e-19)
(1.32752 -0.795366 1.24184e-18)
(1.63254 -0.916693 -2.6002e-19)
(0.304898 -0.177687 -5.44545e-19)
(0.81914 -0.428706 -1.01963e-18)
(1.27997 -0.618904 1.14488e-19)
(1.6919 -0.761632 -1.21523e-18)
(2.05373 -0.87509 -1.02099e-18)
(0.384884 -0.152408 -6.98097e-19)
(1.00469 -0.363018 1.58984e-18)
(1.53977 -0.518388 -1.93477e-18)
(2.00472 -0.632632 1.37893e-18)
(2.40595 -0.721468 1.43021e-18)
(0.445872 -0.102747 5.62405e-19)
(1.1461 -0.243086 -1.29955e-18)
(1.73745 -0.344814 -7.50797e-19)
(2.24295 -0.418221 1.96669e-18)
(2.67447 -0.47446 2.50013e-18)
(0.479262 -0.0361587 6.86924e-19)
(1.22365 -0.084755 1.69143e-19)
(1.84592 -0.119364 2.53137e-18)
(2.37404 -0.143865 -1.06204e-18)
(2.82298 -0.162494 -4.8374e-19)
(-0.000855071 -0.0515092 2.80812e-19)
(0.0502587 -0.143981 -3.84157e-19)
(0.106173 -0.221938 1.10368e-18)
(0.171703 -0.291762 -1.75758e-19)
(0.239857 -0.35334 -1.59196e-18)
(0.013703 -0.0842388 -2.61647e-19)
(0.0893857 -0.227617 -4.20314e-19)
(0.174244 -0.349813 1.11726e-19)
(0.268578 -0.449627 6.02567e-20)
(0.364891 -0.529653 -3.71565e-20)
(0.0433254 -0.114245 6.99508e-20)
(0.165475 -0.303081 5.20972e-19)
(0.296201 -0.467191 9.44271e-20)
(0.432924 -0.598533 1.46416e-18)
(0.568002 -0.696996 -2.50226e-20)
(0.086617 -0.141001 6.68399e-20)
(0.276373 -0.367806 -3.39969e-20)
(0.469493 -0.562935 2.17047e-19)
(0.661406 -0.718366 -2.04107e-18)
(0.844111 -0.830224 9.58378e-19)
(0.142129 -0.16173 -2.36071e-19)
(0.420085 -0.412854 -4.43028e-19)
(0.691396 -0.621454 -7.71482e-19)
(0.950129 -0.782348 9.54772e-19)
(1.18518 -0.892727 3.459e-18)
(0.592864 -0.590948 -4.11083e-18)
(0.960889 -0.515216 1.09623e-18)
(1.28775 -0.210491 3.6639e-19)
(1.46368 -0.0472172 -6.27656e-19)
(1.52938 -0.00881333 -9.39616e-20)
(0.785941 -0.74229 4.85659e-18)
(1.04402 -0.620865 -3.24496e-19)
(1.31687 -0.279383 -1.40089e-19)
(1.49182 -0.0809085 4.10702e-19)
(1.54621 -0.0208963 1.64577e-19)
(1.03676 -0.877077 1.53452e-18)
(1.17917 -0.706536 4.07327e-18)
(1.3455 -0.344722 6.59094e-20)
(1.50011 -0.110731 4.52251e-19)
(1.54771 -0.0310075 -5.20787e-20)
(1.33061 -0.988027 1.22908e-18)
(1.35925 -0.768679 -4.18293e-19)
(1.39225 -0.400388 -7.81932e-19)
(1.49465 -0.135927 -3.0292e-19)
(1.54906 -0.0399717 1.78627e-20)
(1.62984 -1.04705 2.82324e-22)
(1.55457 -0.809686 -1.68322e-18)
(1.4507 -0.448129 0)
(1.47622 -0.173667 2.55672e-19)
(1.53759 -0.0512989 3.06513e-20)
(2.15618 -1.11486 -1.57752e-18)
(1.83287 -0.800605 -4.96396e-19)
(1.5611 -0.446652 -1.06781e-20)
(1.44376 -0.179332 4.14044e-20)
(1.41511 -0.05016 -1.45388e-19)
(2.63298 -0.889473 -1.61268e-18)
(1.90121 -0.591005 2.96869e-18)
(1.4384 -0.312909 5.32737e-21)
(1.18865 -0.134824 2.08336e-19)
(1.13953 -0.0398256 0)
(2.47886 -0.522635 -6.92904e-18)
(1.60624 -0.338724 -1.49491e-19)
(1.14988 -0.175428 2.01172e-18)
(0.909136 -0.0813541 -3.05992e-19)
(0.84711 -0.0245785 -6.07925e-20)
(1.76241 -0.219953 6.83671e-18)
(1.08901 -0.135758 1.25793e-18)
(0.75157 -0.0669124 2.24254e-19)
(0.579305 -0.0332794 2.84572e-33)
(0.522638 -0.0113345 -8.78821e-20)
(0.683153 0.000152759 1.55313e-18)
(0.395343 0.0235061 7.14541e-19)
(0.267483 0.0239472 -5.17529e-19)
(0.207777 0.01348 2.09932e-19)
(0.182636 0.00443379 -5.94617e-20)
(3.5819 -0.168157 1.25614e-17)
(3.41719 -0.502924 -1.04432e-17)
(3.13668 -0.786967 7.10857e-18)
(2.78058 -0.996038 2.32036e-18)
(2.33308 -1.10169 -4.1454e-19)
(3.78458 -0.103586 1.0395e-17)
(3.71753 -0.324457 -6.63927e-19)
(3.5778 -0.551816 -4.27018e-18)
(3.37837 -0.785741 2.69035e-18)
(3.10042 -1.01973 -6.62793e-19)
(3.11485 -0.0605656 3.65442e-18)
(3.09868 -0.181688 -2.51871e-18)
(3.05964 -0.309669 5.01267e-18)
(2.99896 -0.444846 -1.52856e-19)
(2.92444 -0.593586 -4.79051e-18)
(2.19087 -0.0276238 2.78874e-18)
(2.18385 -0.0833765 8.43017e-18)
(2.16463 -0.144018 -6.53256e-19)
(2.13407 -0.207296 -6.60809e-18)
(2.11306 -0.269448 1.94591e-18)
(0.879439 -0.00184251 5.21221e-18)
(0.876488 -0.00523981 -1.16435e-19)
(0.867366 -0.00956967 -4.25854e-20)
(0.850499 -0.0162573 -2.00926e-18)
(0.841145 -0.0229112 -3.60504e-18)
(1.65307 0.939958 2.27275e-18)
(1.34827 0.816657 -7.77853e-20)
(1.00338 0.658645 -3.44455e-20)
(0.627884 0.449496 -1.96346e-19)
(0.225241 0.182309 -1.3423e-19)
(2.07047 0.892474 -1.21801e-18)
(1.71066 0.777728 -1.20086e-18)
(1.29832 0.632597 7.32406e-19)
(0.834053 0.438738 -4.84239e-19)
(0.312151 0.182095 -4.11963e-21)
(2.41859 0.73584 -5.89778e-19)
(2.01967 0.645356 5.25254e-19)
(1.55501 0.528769 2.4369e-18)
(1.01755 0.370205 8.08361e-19)
(0.391344 0.155289 5.26114e-19)
(2.68203 0.486715 1.49016e-20)
(2.2524 0.428295 -2.71773e-19)
(1.74745 0.352329 -6.46755e-19)
(1.15478 0.24765 2.05648e-18)
(0.450331 0.104147 -3.26843e-19)
(2.82549 0.17387 -1.17067e-18)
(2.3773 0.152648 -1.60652e-18)
(1.84942 0.125349 -7.28714e-19)
(1.22673 0.0878357 7.96298e-19)
(0.480863 0.0366874 -3.25836e-19)
(0.24044 0.416298 -2.13787e-18)
(0.170428 0.352825 -1.81376e-18)
(0.103097 0.276477 3.14354e-19)
(0.0455908 0.183223 -4.45028e-20)
(-0.00168439 0.0673723 3.39022e-20)
(0.371008 0.593623 -8.03908e-19)
(0.274092 0.509338 -6.65176e-19)
(0.178756 0.398824 9.16767e-21)
(0.0925435 0.259126 -2.44399e-20)
(0.0167929 0.0963502 2.51737e-20)
(0.581741 0.752926 2.1802e-18)
(0.44625 0.649199 -1.55134e-19)
(0.307947 0.506832 -1.44463e-19)
(0.174372 0.328329 -2.14877e-19)
(0.0483494 0.123879 1.67952e-19)
(0.862069 0.874506 -1.29744e-18)
(0.679188 0.758066 1.98188e-18)
(0.485294 0.593955 3.11566e-19)
(0.288333 0.388315 1.01328e-19)
(0.0925172 0.149159 -1.1824e-19)
(1.20365 0.924967 -4.41865e-19)
(0.969103 0.811675 -4.58435e-19)
(0.708605 0.645027 3.61245e-19)
(0.433343 0.429164 3.59963e-19)
(0.148468 0.168546 1.89779e-21)
(0.926977 0.161738 -3.87582e-19)
(1.48235 0.137825 5.27172e-20)
(1.30962 0.197214 2.05661e-20)
(1.00847 0.501375 -4.79967e-19)
(0.597454 0.644641 3.10127e-20)
(0.92823 0.0859303 1.56843e-19)
(1.48668 0.116121 2.79196e-19)
(1.33459 0.243152 2.24691e-19)
(1.05841 0.615096 -7.41264e-20)
(0.784431 0.801823 7.63887e-19)
(0.928254 0.0120994 4.66294e-20)
(1.50045 0.0940665 -1.99789e-20)
(1.33817 0.289233 -5.66832e-20)
(1.16639 0.709902 -4.58129e-19)
(1.03741 0.935814 1.34951e-19)
(0.928548 -0.0588927 -2.04942e-20)
(1.5112 0.0746666 -6.48786e-19)
(1.35091 0.335099 1.00292e-19)
(1.32853 0.775441 1.22555e-18)
(1.33491 1.0405 9.42532e-19)
(0.927957 -0.128958 -2.66548e-20)
(1.50945 0.0630467 1.8141e-19)
(1.37866 0.381467 -6.7227e-20)
(1.512 0.817118 -3.98732e-19)
(1.63581 1.09103 -2.74339e-18)
(0.920226 -0.223794 2.21601e-19)
(1.4884 0.0295687 4.48008e-19)
(1.46345 0.38199 -2.31088e-20)
(1.76859 0.797256 3.03489e-18)
(2.15266 1.14269 -5.52173e-18)
(0.879984 -0.341614 -2.52182e-20)
(1.35974 -0.0261868 -6.29521e-19)
(1.4155 0.275867 7.6922e-21)
(1.84605 0.592969 -3.0587e-18)
(2.59488 0.900379 1.66803e-18)
(0.784872 -0.411943 5.482e-18)
(1.09074 -0.0871738 6.85707e-35)
(1.13916 0.148115 -2.15149e-18)
(1.57785 0.338557 2.65613e-18)
(2.45704 0.529425 5.03226e-18)
(0.633584 -0.291503 1.49945e-19)
(0.717429 -0.0711594 5.26657e-19)
(0.734802 0.051883 2.51076e-19)
(1.0759 0.134689 6.23826e-19)
(1.75837 0.220473 -8.642e-18)
(0.322308 -0.0432175 -4.30525e-18)
(0.29453 0.00535416 2.81549e-19)
(0.265961 -0.0130971 1.10679e-18)
(0.393613 -0.0240118 -7.71653e-19)
(0.686137 -0.000427043 -1.4655e-18)
(2.3485 1.12099 4.68828e-18)
(2.78723 1.01246 3.47088e-18)
(3.14085 0.803336 -5.68984e-18)
(3.41899 0.519579 -1.46149e-17)
(3.58241 0.18587 1.5763e-17)
(3.07904 1.0188 5.00839e-18)
(3.3542 0.795206 2.56399e-17)
(3.55708 0.560662 7.24326e-18)
(3.70119 0.33182 -3.08314e-17)
(3.77799 0.111135 -5.17352e-18)
(2.90585 0.591962 -7.22984e-18)
(2.98604 0.448092 -3.38076e-18)
(3.05221 0.312123 -6.29896e-18)
(3.09526 0.181741 -6.88932e-18)
(3.11402 0.0584392 6.52273e-18)
(2.10625 0.265936 5.41387e-18)
(2.1301 0.205785 -4.04733e-19)
(2.16252 0.143068 4.87083e-18)
(2.18312 0.0821509 6.28902e-18)
(2.19077 0.0260048 -5.88774e-18)
(0.842501 0.022068 -5.74459e-19)
(0.851907 0.0156609 3.52049e-18)
(0.868619 0.0091353 2.44296e-18)
(0.877486 0.00479447 -5.1692e-18)
(0.879836 0.00136227 -3.84272e-20)
(0.281953 0.0207583 5.52078e-19)
(0.656717 0.0404695 -7.43523e-19)
(0.973198 0.0440702 -8.18527e-19)
(0.944372 0.0274337 -1.51799e-18)
(0.697892 0.016387 -6.63718e-19)
(0.245595 0.0554642 7.45655e-19)
(0.591306 0.107083 1.44151e-18)
(0.864733 0.125151 -6.97261e-19)
(0.940001 0.097006 1.96072e-18)
(0.724216 0.0532445 -2.70085e-18)
(0.185632 0.0742703 4.96182e-19)
(0.476419 0.145905 -1.399e-18)
(0.707812 0.184773 -9.13877e-19)
(0.857358 0.175425 -1.81023e-18)
(0.741601 0.101236 -2.86213e-18)
(0.123311 0.0774794 -7.72669e-19)
(0.34478 0.160365 -1.37661e-18)
(0.534561 0.21489 4.39881e-18)
(0.677753 0.233325 -3.66663e-19)
(0.713086 0.180037 2.25468e-18)
(0.0752744 0.0723703 -6.22996e-19)
(0.230719 0.160107 1.56415e-18)
(0.372286 0.224531 6.1207e-19)
(0.482825 0.257773 -1.29564e-18)
(0.561322 0.25846 -1.74953e-19)
(0.0451426 0.0637743 8.42789e-20)
(0.149945 0.14875 -1.22209e-18)
(0.247732 0.212127 -9.45227e-19)
(0.32543 0.234079 -8.75275e-20)
(0.371206 0.223818 -5.00746e-20)
(0.0264485 0.0556806 3.12015e-19)
(0.0950699 0.134246 5.95525e-19)
(0.160891 0.184777 -2.07855e-19)
(0.213773 0.195421 2.5923e-19)
(0.253617 0.18536 1.71271e-19)
(0.0133087 0.0488279 2.49737e-19)
(0.058576 0.111456 1.30022e-18)
(0.103648 0.121338 -1.23485e-18)
(0.142585 0.107584 -2.78383e-18)
(0.178726 0.0861727 4.08403e-19)
(0.00611198 0.0393896 -2.36806e-19)
(0.0423558 0.0493195 -1.80475e-18)
(0.0795954 0.0223628 3.21488e-18)
(0.119552 -0.00935847 1.31642e-18)
(0.160951 -0.0431006 -2.69753e-19)
(0.0100219 0.00277073 2.09831e-19)
(0.0420494 -0.0492276 -4.51835e-19)
(0.082066 -0.0954108 8.96805e-20)
(0.13068 -0.143368 1.05616e-19)
(0.181297 -0.189561 4.86834e-21)
(0.338569 0.0718855 -7.58553e-20)
(0.613612 -0.0420657 -1.22306e-18)
(0.702093 -0.0134671 2.54008e-19)
(0.716898 0.00406042 3.90894e-19)
(0.708919 0.00214727 1.42187e-20)
(0.302709 -0.0342629 -1.00278e-19)
(0.749727 -0.114593 1.45503e-18)
(0.885472 -0.0233459 9.17761e-19)
(0.915998 0.00583983 7.63015e-20)
(0.914009 0.00369218 -3.78308e-20)
(0.319037 -0.149349 -8.02846e-19)
(0.83338 -0.197655 3.11884e-18)
(1.046 -0.0429381 -1.81898e-19)
(1.10195 0.00589045 -3.62807e-19)
(1.10608 0.00491991 7.67886e-20)
(0.37493 -0.287758 1.10269e-18)
(0.881649 -0.296778 -2.68742e-18)
(1.16649 -0.0839708 -5.26626e-19)
(1.265 0.000641115 -3.28574e-20)
(1.27878 0.00499192 -4.49017e-21)
(0.462214 -0.435925 5.05717e-19)
(0.916637 -0.403697 -5.57891e-19)
(1.24262 -0.143202 4.69393e-19)
(1.3921 -0.0162688 1.22313e-19)
(1.43029 0.0013813 -3.31634e-20)
(0.182959 -0.0449731 9.54719e-19)
(0.144999 -0.00525189 0)
(0.162336 0.0010781 1.16816e-19)
(0.162456 -0.000135857 9.53912e-22)
(0.158238 -0.000507484 -7.51805e-20)
(0.399732 0.0700108 0)
(0.408635 -0.000462301 0)
(0.465755 -0.0041628 5.51129e-20)
(0.468903 0.00246362 -1.06586e-20)
(0.458469 0.000929716 3.69826e-20)
(0.162677 -0.00082123 -3.68436e-19)
(0.186393 -0.00179217 3.10749e-18)
(0.213201 -0.00502139 -6.86322e-19)
(0.2298 -0.0149902 -3.11682e-18)
(0.245695 -0.0170115 -7.9699e-19)
(0.432008 0.00444103 6.09886e-19)
(0.484535 0.0196945 4.11544e-18)
(0.536429 0.0466932 -6.73017e-18)
(0.567606 0.0806073 2.20932e-18)
(0.598304 0.162209 3.79696e-18)
(0.370658 -0.220433 -3.3296e-19)
(0.324275 -0.231436 -9.23709e-20)
(0.24835 -0.212565 -3.27427e-19)
(0.150757 -0.150721 3.87144e-19)
(0.0458592 -0.0645811 1.14139e-19)
(0.257579 -0.16916 4.2115e-19)
(0.215087 -0.18128 1.41284e-18)
(0.162383 -0.176711 2.61488e-19)
(0.0967255 -0.134934 2.35987e-19)
(0.0268707 -0.0571704 -1.84264e-20)
(0.193158 -0.0543095 -3.0993e-19)
(0.151582 -0.0768712 -1.04318e-19)
(0.108734 -0.0944196 1.63235e-18)
(0.0623137 -0.0967362 2.87141e-19)
(0.013187 -0.0478809 -3.1207e-19)
(0.1782 0.0870675 -6.34891e-19)
(0.132285 0.0532577 -7.05799e-19)
(0.0874906 0.0196287 1.30633e-18)
(0.0493041 -0.0103715 1.59765e-18)
(0.0112168 -0.0296263 1.98759e-19)
(0.187883 0.243834 1.23473e-19)
(0.133679 0.19758 -1.20214e-19)
(0.0814686 0.147846 2.48123e-19)
(0.0379383 0.0968247 6.18745e-19)
(-0.00235819 0.0355391 9.12927e-20)
(0.697889 -0.0163421 1.53143e-18)
(0.944378 -0.0274104 -1.80078e-18)
(0.973006 -0.0441956 2.26988e-18)
(0.656729 -0.0405319 3.64535e-19)
(0.281987 -0.020767 5.36634e-19)
(0.724208 -0.053136 1.77235e-18)
(0.93986 -0.0970196 7.94665e-18)
(0.864529 -0.125254 1.03362e-18)
(0.591358 -0.107122 1.34941e-18)
(0.24569 -0.0554853 -4.78466e-19)
(0.741524 -0.100985 -1.22175e-18)
(0.856751 -0.175255 -2.29602e-18)
(0.70773 -0.184832 2.92428e-18)
(0.476485 -0.145973 -1.08328e-19)
(0.185754 -0.0743058 3.39543e-19)
(0.712574 -0.179848 1.89207e-20)
(0.677035 -0.233259 -7.6843e-18)
(0.534593 -0.215216 -5.99805e-18)
(0.344914 -0.1607 1.09152e-18)
(0.123492 -0.077584 5.08035e-19)
(0.558869 -0.256869 4.69591e-19)
(0.481773 -0.257135 5.33178e-19)
(0.372348 -0.225233 -8.98697e-19)
(0.230972 -0.160982 -8.87952e-19)
(0.0756227 -0.0726303 -5.14322e-21)
(0.726921 0.372959 1.17426e-18)
(0.883886 0.126792 -1.92044e-19)
(0.680068 0.0189363 2.55378e-19)
(0.647087 0.0374248 -7.63073e-19)
(0.362751 -0.0614998 -1.00991e-19)
(0.826291 0.397679 -1.69542e-19)
(1.09534 0.156008 -5.50514e-19)
(0.871516 0.037537 8.32344e-19)
(0.806341 0.101349 1.68349e-18)
(0.34083 0.0546324 1.04436e-19)
(0.890082 0.371975 -2.20825e-18)
(1.27859 0.169785 -3.70838e-20)
(1.04091 0.0623052 2.43729e-19)
(0.908773 0.181258 1.66145e-18)
(0.364602 0.177126 -1.41229e-18)
(0.917804 0.314358 1.4363e-18)
(1.4332 0.171119 1.78758e-20)
(1.17304 0.101446 -1.9992e-19)
(0.96223 0.279835 -6.57602e-19)
(0.414343 0.323394 -5.71761e-19)
(0.92445 0.239193 1.61857e-19)
(1.48821 0.15566 2.64714e-20)
(1.25843 0.148007 -5.70226e-20)
(0.988199 0.387278 -5.66553e-20)
(0.483769 0.480249 1.35506e-18)
(0.275529 0.0483722 0)
(0.244542 -0.0110971 6.46283e-19)
(0.158267 -0.0158775 1.27716e-19)
(0.151009 0.00547204 -1.14001e-19)
(0.184411 0.0440462 -1.80748e-18)
(0.572965 0.26626 -1.01961e-17)
(0.610694 0.0749745 -2.54959e-18)
(0.447332 0.0126582 4.99683e-19)
(0.42573 0.000945633 -6.64715e-19)
(0.407835 -0.068261 -6.6215e-19)
(0.245837 0.0169708 -1.07229e-21)
(0.229897 0.0150776 1.92864e-18)
(0.213279 0.00506431 5.24302e-19)
(0.186442 0.00180196 3.23065e-19)
(0.162692 0.000825079 0)
(0.599242 -0.162085 -1.11718e-19)
(0.568186 -0.0802981 2.54831e-18)
(0.536541 -0.0464667 -1.36858e-19)
(0.484595 -0.0196413 -2.70289e-19)
(0.432032 -0.00441879 7.60422e-19)
)
;

boundaryField
{
    left
    {
        type            fixedValue;
        value           uniform (1 0 0);
    }
    right
    {
        type            zeroGradient;
    }
    down
    {
        type            noSlip;
    }
    up
    {
        type            noSlip;
    }
    cylinder
    {
        type            noSlip;
    }
    defaultFaces
    {
        type            empty;
    }
}


// ************************************************************************* //
