/*--------------------------------*- C++ -*----------------------------------*\
  =========                 |
  \\      /  F ield         | OpenFOAM: The Open Source CFD Toolbox
   \\    /   O peration     | Website:  https://openfoam.org
    \\  /    A nd           | Version:  13
     \\/     M anipulation  |
\*---------------------------------------------------------------------------*/
FoamFile
{
    format      ascii;
    class       volScalarField;
    location    "0.1";
    object      strainRateViscosityModel:nu;
}
// * * * * * * * * * * * * * * * * * * * * * * * * * * * * * * * * * * * * * //

dimensions      [0 2 -1 0 0 0 0];

internalField   nonuniform List<scalar> 
440
(
9.41972
8.97081
8.54415
8.03547
7.56717
9.68997
9.35872
8.98246
8.47894
7.86949
9.80077
9.53111
9.15927
8.58513
7.84657
9.84967
9.61835
9.25897
8.64787
7.86612
9.86922
9.6562
9.30616
8.68121
7.90925
1.44262
1.76968
1.98015
2.21097
2.28453
3.54994
3.32855
3.26394
3.32124
3.39215
5.96922
5.31343
4.91673
4.65732
4.67105
7.79278
7.01505
6.42217
5.867
5.76887
8.8245
8.15658
7.55081
6.89658
6.83439
1.84296
0.657775
0.160754
0.0227924
0.0105473
2.60813
0.798049
0.170839
0.0259375
0.0107265
3.49544
1.12955
0.184564
0.0288994
0.0108762
4.0664
1.50649
0.229943
0.0301861
0.0109383
4.55817
1.87226
0.360136
0.0361318
0.0109891
4.28546
1.98904
0.389297
0.0312898
0.0101136
3.77694
1.55746
0.19776
0.0590252
0.0820025
4.89367
2.92775
1.10141
0.820797
0.827358
7.0144
4.19924
2.06022
1.51136
1.40614
8.26722
5.05043
2.78561
2.02155
1.75211
2.8413
3.67284
4.60599
5.48591
6.11852
3.68993
3.70361
3.77996
3.86402
3.38412
8.22619
8.08622
7.79861
7.38308
6.33916
9.05261
8.99223
8.85941
8.62289
8.16323
9.60633
9.56952
9.48645
9.33715
9.11729
7.49254
8.00736
8.55746
9.01052
9.46436
7.7898
8.44971
8.98632
9.37763
9.7086
7.7773
8.55826
9.15909
9.54065
9.8094
7.81588
8.62742
9.25736
9.62275
9.85359
7.89154
8.67378
9.30548
9.65751
9.87037
2.40255
2.33747
2.15956
2.0562
2.08041
3.40017
3.35213
3.42109
3.67594
4.24174
4.60778
4.63613
5.04794
5.60791
6.45061
5.67333
5.82053
6.5031
7.19555
8.04454
6.74219
6.83519
7.58019
8.24446
8.93696
0.0692596
0.0376337
0.133085
0.582854
1.93891
0.0569392
0.0558422
0.145582
0.698994
2.64613
0.0492023
0.082817
0.158906
1.02086
3.47372
0.0420537
0.121826
0.196656
1.4219
3.98998
0.0446387
0.169682
0.319894
1.81402
4.39538
0.074656
0.250069
0.35971
2.01309
4.19867
0.251964
0.205413
0.100039
1.52677
3.88652
0.410388
0.574051
0.737428
2.73238
4.84216
2.08042
1.52371
1.87562
4.09913
6.96205
5.00087
3.09658
2.81802
5.06215
8.27624
5.94958
5.2728
4.40723
3.51231
2.77717
3.52848
3.98688
3.96372
3.87158
3.76507
6.3009
7.34485
7.77696
8.06756
8.21844
8.12478
8.60208
8.85047
8.98884
9.05185
9.11566
9.33691
9.48679
9.57005
9.60657
9.31399
7.92218
1.40139
3.63559
7.74277
9.08602
7.44737
3.21052
1.64459
6.79541
8.40541
6.58515
4.21262
1.00857
4.15138
6.82797
5.10106
3.45725
1.7163
1.03776
4.52511
3.14371
2.0392
1.39743
0.4681
2.63896
1.6359
1.05515
0.888962
0.999391
1.4646
0.811757
0.693916
0.765783
0.832782
0.681673
0.478999
0.736228
0.905529
0.97776
0.207689
0.599213
0.925692
1.11597
1.17795
0.293036
0.938685
1.24796
1.49224
1.55615
0.192663
0.386325
0.73454
0.898337
0.96873
0.518194
0.467517
0.467846
0.585428
0.643721
0.729046
0.543746
0.21773
0.165506
0.145106
1.03448
0.612989
0.135671
0.0313705
0.0137703
1.3399
0.628898
0.139212
0.0208425
0.0104154
1.14878
0.951666
1.28999
1.48021
1.56608
0.251488
0.556043
0.969988
1.17439
1.26363
9.19513
8.8439
7.76682
5.74347
3.5716
8.59282
7.73025
5.85961
3.49812
0.850013
1.02262
0.937218
1.0835
1.64406
2.69152
0.938682
0.895854
0.809762
0.863012
1.50603
1.14948
1.10035
0.933397
0.614635
0.640836
1.3754
1.32938
1.12384
0.775223
0.169473
1.75309
1.69802
1.45632
1.17159
0.689485
7.7423
3.63259
1.40262
7.92042
9.31414
6.79167
1.64454
3.207
7.44425
9.08667
4.13878
1.0154
4.19898
6.5807
8.40713
1.03636
1.71905
3.43771
5.09263
6.8345
0.480704
1.39599
2.02167
3.13046
4.54695
1.11673
0.911478
0.686759
0.44205
0.180099
0.432092
0.47302
0.453526
0.484513
0.594863
0.235378
0.0404771
0.240395
0.526638
0.85709
0.139489
0.0252165
0.138568
0.566798
1.18204
0.0902513
0.029732
0.119598
0.567786
1.47908
5.432
2.78951
1.30298
1.04286
1.17961
2.75141
1.42396
0.946292
0.607641
0.235263
3.57981
5.74846
7.76805
8.84442
9.19527
0.833271
3.47997
5.85342
7.72888
8.59267
)
;

boundaryField
{
    left
    {
        type            calculated;
        value           nonuniform List<scalar> 
17
(
0.428523
0.825931
1.8724
3.81447
6.56748
0.447843
0.403776
0.380046
0.364668
0.369427
2.83467
1.77881
1.06144
0.692886
0.526097
6.96362
4.53026
)
;
    }
    right
    {
        type            calculated;
        value           nonuniform List<scalar> 
17
(
1.56755
1.26084
0.961392
0.63339
0.13724
0.012628
0.0101461
0.0101809
0.0102337
0.0102747
0.0102871
0.0102983
0.0100116
0.0939847
0.857029
1.42272
1.74735
)
;
    }
    down
    {
        type            calculated;
        value           nonuniform List<scalar> 
20
(
5.95363
3.2748
1.40665
1.13428
1.86754
4.27412
6.3936
8.1384
9.02047
9.3128
9.31263
9.01982
8.13676
6.38936
4.2658
1.84245
1.03072
1.36233
1.55317
1.63503
)
;
    }
    up
    {
        type            calculated;
        value           nonuniform List<scalar> 
20
(
8.54141
5.37328
3.01063
2.17161
1.85786
9.69534
9.66582
9.59809
9.47336
9.29181
9.29482
9.4755
9.5996
9.66687
9.69573
5.6595
3.63625
3.0691
5.416
8.56059
)
;
    }
    cylinder
    {
        type            calculated;
        value           nonuniform List<scalar> 
40
(
1.56694
3.75988
6.18855
7.97992
8.95971
9.505
9.7457
9.84079
9.88148
9.89749
9.54765
9.76281
9.84852
9.88496
9.89851
2.31363
4.50737
6.69266
8.23659
9.07136
3.08773
1.85168
0.994367
0.251592
0.756275
9.5214
9.33519
8.74823
7.28164
5.00903
9.52123
9.33443
8.74601
7.27328
4.98135
3.01872
1.77267
0.993202
0.475372
0.216601
)
;
    }
    defaultFaces
    {
        type            empty;
    }
}


// ************************************************************************* //
