/*--------------------------------*- C++ -*----------------------------------*\
  =========                 |
  \\      /  F ield         | OpenFOAM: The Open Source CFD Toolbox
   \\    /   O peration     | Website:  https://openfoam.org
    \\  /    A nd           | Version:  13
     \\/     M anipulation  |
\*---------------------------------------------------------------------------*/
FoamFile
{
    format      ascii;
    class       surfaceScalarField;
    location    "0.025";
    object      phi;
}
// * * * * * * * * * * * * * * * * * * * * * * * * * * * * * * * * * * * * * //

dimensions      [0 3 -1 0 0 0 0];

internalField   nonuniform List<scalar> 
3485
(
0.00123871
-0.0127407
0.011502
0.0045619
-0.0356569
0.0323338
0.00971074
-0.0567364
0.0515876
0.0164872
-0.0759438
0.0691673
0.0247374
-0.0933409
0.0850907
0.0343458
-0.109025
0.0994166
0.045229
-0.123091
0.112208
0.0573642
-0.135609
0.123474
0.0708818
-0.14667
0.133152
-0.156358
0.140879
0.0863604
0.00130237
-0.0140431
0.00473835
-0.0390929
0.00999615
-0.0619942
0.0168381
-0.0827857
0.0250723
-0.101575
0.0345461
-0.118499
0.0451504
-0.133695
0.056832
-0.147291
0.0695802
-0.159418
-0.170095
0.0833167
0.00125005
-0.0152932
0.00453121
-0.0423741
0.00952521
-0.0669882
0.015986
-0.0892465
0.023718
-0.109307
0.032571
-0.127352
0.042439
-0.143563
0.0532601
-0.158112
0.064993
-0.171151
-0.182705
0.0776039
0.00112373
-0.0164169
0.0040867
-0.0453371
0.00860722
-0.0715087
0.0144669
-0.0951062
0.0214995
-0.11634
0.0295823
-0.135435
0.0386363
-0.152617
0.048614
-0.16809
0.0594888
-0.182026
-0.194463
0.0712463
0.000972374
-0.0173893
0.00355043
-0.0479151
0.00750268
-0.075461
0.0126569
-0.10026
0.0188813
-0.122564
0.0260889
-0.142642
0.0342208
-0.160749
0.0432516
-0.177121
0.0531628
-0.191937
-0.205257
0.0639568
0.000805597
-0.0181949
0.00295063
-0.0500601
0.00626056
-0.0787709
0.0106018
-0.104602
0.0158874
-0.12785
0.0220496
-0.148804
0.0290617
-0.167761
0.0369021
-0.184961
0.0455747
-0.200609
-0.21476
0.0550775
0.000624308
-0.0188192
0.00229908
-0.0517349
0.00489329
-0.0813651
0.00832376
-0.108032
0.012521
-0.132047
0.0174592
-0.153743
0.0231098
-0.173412
0.029484
-0.191335
0.0365752
-0.207701
-0.222593
0.0444082
0.000439017
-0.0192582
0.00162165
-0.0529175
0.00346748
-0.083211
0.00591414
-0.110479
0.00893037
-0.135063
0.0124882
-0.1573
0.0165913
-0.177515
0.0212363
-0.19598
0.0264468
-0.212911
-0.22838
0.032234
0.000261095
-0.0195193
0.000967442
-0.0536239
0.00207319
-0.0843167
0.00353909
-0.111945
0.00534706
-0.136871
0.0074796
-0.159433
0.00994012
-0.179976
0.0127262
-0.198766
0.0158506
-0.216036
-0.231865
0.0193358
9.98631e-05
-0.0196191
0.000371183
-0.0538952
0.000781339
-0.0847269
0.0013268
-0.11249
0.0019764
-0.137521
0.00274546
-0.160202
0.00360417
-0.180834
0.00457624
-0.199738
0.00563218
-0.217092
0.00680466
-0.233038
0.00088965
-0.00325498
0.00236533
0.00362334
-0.00929265
0.00655895
0.00848215
-0.0143047
0.00944586
0.0150559
-0.0180966
0.0115228
0.022928
-0.0211547
0.0132826
0.0318231
-0.0238296
0.0149345
0.0415454
-0.0262863
0.016564
0.0519287
-0.0286139
0.0182305
0.0628241
-0.030893
0.0199976
-0.0331962
0.0740912
0.0219291
0.000774176
-0.00402916
0.00304628
-0.0115647
0.00717376
-0.0184321
0.0132139
-0.0241368
0.020831
-0.0287718
0.0296556
-0.0326542
0.0394143
-0.0360451
0.0499058
-0.0391054
0.0609634
-0.0419505
-0.0446636
0.0724308
0.000759813
-0.00478897
0.00294408
-0.013749
0.00669378
-0.0221818
0.0122133
-0.0296563
0.0194392
-0.0359977
0.028075
-0.04129
0.0378029
-0.045773
0.0483696
-0.049672
0.0595764
-0.0531573
-0.0563288
0.0712416
0.000794792
-0.00558376
0.00306032
-0.0160145
0.00678924
-0.0259108
0.0120762
-0.0349432
0.0189806
-0.0429021
0.0273856
-0.049695
0.0370338
-0.0554211
0.0476493
-0.0602876
0.058997
-0.064505
-0.068195
0.0708632
0.000859189
-0.00644295
0.00327321
-0.0184286
0.00715282
-0.0297904
0.0124754
-0.0402658
0.0192641
-0.0496908
0.0275022
-0.0579331
0.0370517
-0.0649707
0.0476816
-0.0709174
0.059146
-0.0759694
-0.0802525
0.0712035
0.000929443
-0.00737239
0.00350225
-0.0210014
0.00757521
-0.0338634
0.0130522
-0.0457428
0.0198866
-0.0565252
0.0280615
-0.066108
0.0375218
-0.074431
0.0481215
-0.0815171
0.0596478
-0.0874957
-0.0924513
0.0718466
0.000986646
-0.00835904
0.00368963
-0.0237044
0.00792853
-0.0381023
0.0135627
-0.051377
0.0204919
-0.0634543
0.0286621
-0.0742782
0.0380376
-0.0838064
0.0485444
-0.0920239
0.0600331
-0.0989844
-0.104689
0.0722707
0.00102125
-0.00938029
0.00381031
-0.0264934
0.00816484
-0.0424568
0.0139168
-0.057129
0.0209309
-0.0704685
0.0291147
-0.0824621
0.038415
-0.0931067
0.048784
-0.102393
0.0601296
-0.11033
-0.116837
0.0722781
0.00104238
-0.0104227
0.00389693
-0.029348
0.00835426
-0.0469141
0.0142288
-0.0630035
0.0213627
-0.0776024
0.0296339
-0.0907332
0.0389555
-0.102428
0.0492555
-0.112693
0.0604496
-0.121524
-0.128852
0.0724641
0.00107934
0.00406514
0.00873859
0.0149024
0.0223907
0.0310742
0.0408537
0.051635
0.0632633
0.0752907
0.144091
-0.356887
0.286888
0.187985
-0.349643
0.305748
0.21161
-0.255714
0.23209
0.224389
-0.180343
0.167564
0.231201
-0.127243
0.120431
0.234547
-0.0885124
0.0851671
0.23571
-0.0595995
0.0584359
0.235419
-0.0375506
0.0378419
0.234089
-0.0200441
0.0213741
-0.00471079
0.00688033
0.142705
-0.427162
0.187823
-0.39476
0.212521
-0.280413
0.225517
-0.193339
0.232291
-0.134017
0.235545
-0.0917663
0.23664
-0.0606939
0.236331
-0.037242
0.235046
-0.0187588
-0.00265
0.140636
-0.496556
0.186455
-0.440579
0.212364
-0.306322
0.225758
-0.206733
0.232655
-0.140914
0.235968
-0.0950792
0.237143
-0.0618694
0.23697
-0.0370692
0.235886
-0.0176742
-0.000856671
0.138208
-0.563901
0.183974
-0.486345
0.211145
-0.333493
0.225122
-0.220711
0.232295
-0.148086
0.235812
-0.0985961
0.237214
-0.0632721
0.237327
-0.0371822
0.236597
-0.0169435
0.000506977
0.135614
-0.628311
0.180523
-0.531254
0.208878
-0.361849
0.223626
-0.235458
0.231219
-0.155679
0.235078
-0.102455
0.236849
-0.065043
0.237394
-0.0377274
0.237171
-0.0167203
0.00128545
0.13282
-0.689285
0.176289
-0.574723
0.205586
-0.391146
0.221278
-0.25115
0.229438
-0.163839
0.233772
-0.106789
0.236046
-0.067317
0.237164
-0.038846
0.237597
-0.0171535
0.00132227
0.129545
-0.746559
0.171512
-0.61669
0.20138
-0.421014
0.218102
-0.267872
0.226968
-0.172705
0.231901
-0.111722
0.234806
-0.0702225
0.236634
-0.0406734
0.237867
-0.0183874
0.000463885
0.125288
-0.799569
0.16614
-0.657542
0.196206
-0.45108
0.214019
-0.285686
0.223798
-0.182484
0.229473
-0.117397
0.233135
-0.0738843
0.2358
-0.0433386
0.237973
-0.0205603
-0.00143998
0.119929
-0.847034
0.160288
-0.697901
0.190555
-0.481346
0.209405
-0.304536
0.220044
-0.193122
0.22652
-0.123873
0.231043
-0.0784072
0.234666
-0.0469616
0.237906
-0.0238003
-0.00454083
0.113884
-0.885627
0.152956
-0.736973
0.183495
-0.511885
0.203781
-0.324823
0.215575
-0.204916
0.223009
-0.131308
0.228516
-0.0839143
0.233223
-0.0516685
0.237667
-0.0282441
-0.00896963
0.522183
-0.85154
-0.55627
0.47622
-0.691011
0.437453
-0.473118
0.411054
-0.298423
0.394769
-0.188631
0.384692
-0.121232
0.378263
-0.0774854
0.374249
-0.0476537
0.372039
-0.0260341
-0.00827336
0.590758
-0.769708
-0.672589
0.515932
-0.616185
0.460209
-0.417395
0.425101
-0.263315
0.404003
-0.167534
0.390862
-0.108091
0.382496
-0.0691191
0.377321
-0.0424789
0.374499
-0.0232126
-0.00740275
0.641637
-0.654467
-0.756878
0.54692
-0.521469
0.479543
-0.350018
0.43771
-0.221482
0.412304
-0.142128
0.396387
-0.0921729
0.386281
-0.059014
0.380061
-0.0362587
0.37669
-0.019841
-0.00638446
0.671404
-0.523044
-0.802827
0.565993
-0.416058
0.492697
-0.276722
0.447358
-0.176142
0.419119
-0.113889
0.401056
-0.0741105
0.389509
-0.0474662
0.382395
-0.0291447
0.378552
-0.015998
-0.00525666
0.670994
-0.393074
-0.800965
0.568009
-0.313073
0.497687
-0.2064
0.452932
-0.131387
0.423574
-0.0845306
0.404144
-0.0546806
0.39155
-0.0348725
0.38375
-0.0213449
0.379511
-0.0117586
-0.00403926
0.62231
-0.274036
-0.741347
0.52776
-0.218523
0.465124
-0.143764
0.425278
-0.091541
0.399252
-0.0585049
0.381986
-0.0374147
0.370738
-0.0236248
0.363731
-0.0143376
0.359751
-0.00777925
-0.00278325
0.529948
-0.169035
-0.63495
0.44426
-0.132834
0.387607
-0.0871105
0.351594
-0.055528
0.328616
-0.0355271
0.313849
-0.0226483
0.304477
-0.0142524
0.298757
-0.00861718
0.295572
-0.0045952
-0.001706
0.409326
-0.0837756
-0.494585
0.340013
-0.0635214
0.294696
-0.0417939
0.265755
-0.0265868
0.247261
-0.0170332
0.235409
-0.0107963
0.227911
-0.0067543
0.223358
-0.00406437
0.220886
-0.00212329
-0.000818141
0.262755
-0.0243115
-0.322219
0.216337
-0.0171034
0.185981
-0.0114374
0.166657
-0.00726322
0.154336
-0.00471275
0.146528
-0.00298761
0.14164
-0.00186617
0.138697
-0.00112218
0.137145
-0.000571069
-0.00023425
0.0940195
-0.118331
0.0769162
0.0654788
0.0582156
0.0535028
0.0505152
0.048649
0.0475268
0.0469558
0.71542
0.0088644
-0.71748
0.708983
0.0257727
0.698142
0.0430749
0.683643
0.0589073
0.666059
0.0726617
0.645867
0.0841488
0.623692
0.0934214
0.600362
0.100934
0.577122
0.106557
0.107212
0.791527
0.0119214
-0.794584
0.782882
0.0344179
0.772259
0.0536985
0.76072
0.0704456
0.748387
0.0849954
0.73507
0.0974655
0.720595
0.107896
0.705196
0.116332
0.689528
0.122225
0.124151
0.759608
0.0102669
-0.757953
0.763237
0.0307882
0.767131
0.0498051
0.770228
0.0673484
0.771933
0.0832903
0.77198
0.0974188
0.770325
0.109551
0.767189
0.119468
0.762911
0.126504
0.130184
0.713518
0.00835003
-0.711601
0.718806
0.0255005
0.726837
0.0417736
0.73709
0.0570953
0.748913
0.0714671
0.761471
0.0848615
0.773878
0.0971433
0.785419
0.107927
0.795404
0.116519
0.122761
0.649301
0.00630566
-0.647257
0.655297
0.019505
0.66489
0.0321796
0.677812
0.0441743
0.693824
0.0554548
0.712626
0.066059
0.733744
0.0760259
0.756397
0.0852738
0.779248
0.0936678
0.101044
0.570224
0.00435871
-0.568277
0.576109
0.0136203
0.585735
0.0225539
0.598901
0.0310077
0.615452
0.0389038
0.635275
0.0462368
0.658238
0.0530623
0.684044
0.0594684
0.712042
0.065669
0.0717392
0.476135
0.00263332
-0.474409
0.481446
0.00830881
0.490215
0.0137852
0.502272
0.0189505
0.517446
0.0237298
0.535585
0.0280979
0.556557
0.03209
0.580222
0.0358032
0.606451
0.039441
0.04324
0.365998
0.00125383
-0.364618
0.370308
0.00399833
0.377456
0.00663787
0.387298
0.0091079
0.399668
0.0113599
0.414393
0.0133725
0.431322
0.0151614
0.450344
0.0167815
0.471439
0.0183458
0.0200937
0.237656
0.000340073
-0.236743
0.240555
0.00109986
0.245368
0.00182483
0.251983
0.00249238
0.260259
0.00308408
0.270041
0.00359026
0.28119
0.00401324
0.293608
0.00436328
0.307289
0.0046645
0.00516364
0.088035
-0.0876949
0.0891348
0.0909597
0.093452
0.0965361
0.100126
0.10414
0.108503
0.113167
0.0705139
0.157316
-0.141936
-0.0858939
0.057084
0.147689
-0.134259
0.0450235
0.136669
-0.124609
0.0342019
0.124169
-0.113347
0.0246424
0.110095
-0.100536
0.0164295
0.0943714
-0.0861585
0.00967995
0.0768903
-0.0701407
0.00454875
0.0575383
-0.0524071
0.00123544
0.0362322
-0.0329189
0.0129818
-0.0117463
0.0691422
0.170939
-0.0827654
0.0564925
0.160339
0.0448948
0.148267
0.0343607
0.134703
0.0249442
0.119512
0.0167557
0.10256
0.00994898
0.083697
0.00471666
0.0627706
0.00129655
0.0396523
0.0142783
0.0644283
0.183428
-0.0769165
0.0528078
0.171959
0.0420877
0.158987
0.0323083
0.144482
0.0235309
0.128289
0.0158618
0.110229
0.00945168
0.0901072
0.0044961
0.0677262
0.00124024
0.0429082
0.0155185
0.0587857
0.19505
-0.0704081
0.0480378
0.182707
0.0381773
0.168847
0.0292298
0.15343
0.0212416
0.136277
0.0142911
0.117179
0.0085005
0.0958978
0.00403456
0.0721921
0.00110876
0.045834
0.0166273
0.052355
0.20571
-0.0630144
0.0425737
0.192488
0.0336675
0.177754
0.0256529
0.161444
0.0185544
0.143376
0.0124288
0.123305
0.00736145
0.100965
0.00348011
0.0760735
0.000951858
0.0483623
0.0175792
0.0447019
0.215091
-0.0540832
0.0361519
0.201038
0.0284337
0.185472
0.0215429
0.168335
0.0154985
0.14942
0.0103255
0.128478
0.00608643
0.105204
0.00286298
0.0792969
0.0007797
0.0504455
0.0183589
0.0356545
0.222827
-0.0433902
0.0286692
0.208024
0.02241
0.191731
0.0168807
0.173864
0.0120686
0.154232
0.00799657
0.13255
0.00468485
0.108516
0.00219299
0.0817888
0.000592872
0.0520457
0.0189517
0.0254547
0.228545
-0.0311727
0.0203342
0.213144
0.0157985
0.196267
0.0118215
0.177842
0.0084013
0.157652
0.00552789
0.135423
0.00321926
0.110825
0.00149484
0.0835132
0.000401159
0.0531393
0.0193529
0.0147024
0.231966
-0.0181233
0.0116747
0.216172
0.00901254
0.198929
0.00669822
0.180156
0.00472648
0.159624
0.00308574
0.137064
0.00178175
0.112129
0.000818323
0.0844766
0.00021655
0.0537411
0.0195694
0.00425789
-0.00532992
0.00333814
0.00252846
0.00185006
0.00127222
0.000815587
0.000454025
0.000203792
4.96945e-05
0.0635249
0.0339965
-0.0748914
-0.02263
0.0525257
0.0316648
-0.0206656
0.0420342
0.029359
-0.0188675
0.0322007
0.0270052
-0.0171718
0.0231953
0.024519
-0.0155136
0.0152208
0.021805
-0.0138305
0.00856526
0.018686
-0.0120304
0.00366044
0.0147892
-0.00988435
0.000907805
0.00960661
-0.00685398
0.00336904
-0.00246124
0.0616241
0.0455578
-0.0731853
0.0504675
0.0428213
0.0398724
0.0399542
0.0300074
0.0368702
0.0210786
0.0334477
0.0133687
0.0295149
0.00725986
0.0247948
0.00309232
0.0189567
0.000790913
0.011908
0.00415996
0.0602117
0.0573095
-0.0719634
0.0489124
0.0541207
0.0382485
0.0506181
0.0284216
0.0466971
0.0196912
0.0421782
0.0123835
0.0368226
0.00680055
0.0303778
0.00300167
0.0227556
0.000778111
0.0141316
0.00493807
0.0596037
0.0692522
-0.0715464
0.0481726
0.0655517
0.0374685
0.0613222
0.0277308
0.0564348
0.0192413
0.0506677
0.0122623
0.0438016
0.00691051
0.0357296
0.00312483
0.0265413
0.000814842
0.0164416
0.00575291
0.0597033
0.0813723
-0.0718234
0.0481677
0.0770873
0.0374611
0.0720288
0.0278339
0.066062
0.0195218
0.0589798
0.0126642
0.0506592
0.00727704
0.0411167
0.0033392
0.0304791
0.000879753
0.018901
0.00663266
0.0601197
0.0936158
-0.0723632
0.0485389
0.0886681
0.0378785
0.0826892
0.028356
0.0755845
0.0201201
0.0672157
0.013226
0.0575533
0.00769058
0.0466521
0.00356387
0.0346058
0.000948784
0.0215161
0.00758145
0.0603754
0.105875
-0.0726344
0.0488541
0.100189
0.0383083
0.093235
0.0288913
0.0850015
0.0206782
0.0754288
0.0137042
0.0645273
0.00802393
0.0523324
0.00374121
0.0388885
0.001003
0.0242543
0.00858445
0.0602949
0.118016
-0.0724357
0.0489451
0.111539
0.0385658
0.103614
0.0292513
0.094316
0.0210488
0.0836313
0.0140108
0.0715654
0.00823074
0.0581124
0.003847
0.0432723
0.00103316
0.0270681
0.0096176
0.060396
0.129986
-0.0723664
0.0492343
0.122701
0.0389598
0.113889
0.0296571
0.103619
0.0213968
0.0918916
0.0142648
0.0786974
0.00838416
0.063993
0.00391553
0.0477409
0.00104894
0.0299347
0.0106665
0.0629893
-0.0749398
0.0514313
0.0407115
0.0309831
0.0223389
0.0148778
0.00873013
0.00406396
0.00107977
0.210175
0.0563015
-0.0684868
0.221145
0.0875308
-0.0985007
0.227691
0.0890805
-0.0956267
0.230374
0.0942061
-0.0968891
0.229218
0.11057
-0.109414
0.223619
0.140642
-0.135043
0.211574
0.187728
-0.175683
0.188629
0.25897
-0.236026
0.145193
0.353414
-0.309977
0.364521
-0.29422
0.209103
0.0451882
0.220242
0.0763922
0.227063
0.0822585
0.230175
0.0910944
0.229454
0.111291
0.22417
0.145927
0.212139
0.19976
0.188283
0.282826
0.143687
0.398009
0.435023
0.208258
0.0349204
0.21944
0.0652097
0.226368
0.0753308
0.22968
0.0877822
0.229157
0.111813
0.223958
0.151126
0.211713
0.212005
0.18676
0.307779
0.141499
0.44327
0.504558
0.207586
0.0253241
0.218736
0.0540601
0.225607
0.0684599
0.228902
0.0844872
0.228347
0.112368
0.223005
0.156468
0.210309
0.224701
0.18415
0.333938
0.138946
0.488474
0.571959
0.207053
0.0162606
0.218126
0.042987
0.224777
0.0618097
0.227841
0.0814224
0.227031
0.113178
0.221331
0.162167
0.207935
0.238097
0.18058
0.361293
0.136217
0.532837
0.636352
0.206643
0.00760741
0.21761
0.0320204
0.223868
0.0555515
0.226491
0.0787993
0.225206
0.114463
0.218934
0.16844
0.204594
0.252437
0.176227
0.38966
0.133269
0.575795
0.697258
0.206348
-0.00075077
0.217177
0.0211909
0.222862
0.0498668
0.224833
0.0768284
0.222866
0.11643
0.215817
0.17549
0.200376
0.267877
0.171329
0.418707
0.129816
0.617308
0.754439
0.20617
-0.00893075
0.216811
0.0105501
0.221735
0.0449425
0.222842
0.0757209
0.219968
0.119304
0.211862
0.183596
0.195196
0.284543
0.165833
0.448069
0.12535
0.657791
0.807353
0.206103
-0.0170438
0.21648
0.000172991
0.220456
0.040966
0.220503
0.0756746
0.216586
0.123221
0.207433
0.192749
0.189579
0.302397
0.159878
0.47777
0.119741
0.697929
0.854728
0.206617
-0.0256712
0.215945
-0.00915477
0.218993
0.0379183
0.217766
0.0769011
0.212577
0.12841
0.201998
0.203328
0.182496
0.321898
0.152383
0.507884
0.113399
0.736913
0.893187
0.326795
-0.0504556
0.345721
-0.0280809
0.36296
0.0206793
0.376142
0.0637192
0.389591
0.114961
0.407346
0.185573
0.434267
0.294977
0.473704
0.468447
0.521185
0.689432
0.85632
0.558053
0.331416
-0.0798617
0.351194
-0.0478589
0.368898
0.00297567
0.383391
0.0492257
0.399361
0.0989905
0.421519
0.163415
0.45659
0.259906
0.512211
0.412827
0.587651
0.613991
0.772117
0.671854
0.337213
-0.115064
0.357944
-0.0685899
0.375268
-0.014348
0.390413
0.0340807
0.408353
0.0810499
0.434279
0.13749
0.475607
0.218577
0.542242
0.346193
0.63685
0.519383
0.65555
0.753418
0.344456
-0.15751
0.365596
-0.0897303
0.381922
-0.0306737
0.397
0.0190026
0.416095
0.0619546
0.444344
0.109241
0.488917
0.174004
0.561103
0.274006
0.666038
0.414448
0.523461
0.798127
0.351594
-0.207094
0.373475
-0.111611
0.388636
-0.0458354
0.40287
0.00476864
0.422137
0.0426878
0.451053
0.0803258
0.495153
0.129903
0.564513
0.204646
0.666946
0.312016
0.392979
0.797427
0.356551
-0.261635
0.376352
-0.131412
0.382988
-0.0524711
0.388851
-0.00109425
0.402292
0.0292467
0.42654
0.0560772
0.465504
0.0909398
0.527049
0.143101
0.62085
0.218215
0.27383
0.739999
0.337853
-0.297478
0.336528
-0.130087
0.320763
-0.0367058
0.320736
-0.00106765
0.331487
0.018496
0.353114
0.0344495
0.38861
0.0554438
0.444645
0.0870664
0.529977
0.132883
0.168865
0.634943
0.282425
-0.277893
0.255597
-0.103259
0.239942
-0.0210513
0.239955
-0.00108089
0.24936
0.00909181
0.267144
0.0166651
0.295929
0.0266586
0.341039
0.0419569
0.410252
0.0636697
0.0836909
0.495426
0.217373
-0.193255
0.163391
-0.0492772
0.149604
-0.0072639
0.149326
-0.000803476
0.155775
0.00264353
0.167773
0.00466732
0.187108
0.00732312
0.217514
0.011551
0.263993
0.0171906
0.0242894
0.323395
0.108755
0.0594779
0.052214
0.0514105
0.054054
0.0587213
0.0660445
0.0775954
0.094786
0.119075
0.578645
-0.106486
0.601432
-0.105552
0.624335
-0.0998197
0.646161
-0.0922347
0.666094
-0.0829468
0.683511
-0.0715001
0.697943
-0.0578225
0.708841
-0.0420706
0.715411
-0.0246935
-0.00739859
0.688432
-0.123064
0.703645
-0.120765
0.718658
-0.114833
0.732851
-0.106428
0.745979
-0.0960746
0.758203
-0.0837245
0.769729
-0.0693478
0.780524
-0.0528654
0.789858
-0.0340278
-0.0121252
0.75927
-0.128916
0.763457
-0.124952
0.766641
-0.118017
0.768515
-0.108301
0.768855
-0.0964146
0.767695
-0.082565
0.765275
-0.0669274
0.762125
-0.0497156
0.759163
-0.0310661
-0.0109152
0.791067
-0.121856
0.781637
-0.115523
0.770731
-0.107111
0.758976
-0.0965462
0.747042
-0.0844812
0.735779
-0.0713011
0.726009
-0.0571573
0.718378
-0.0420846
0.713382
-0.0260706
-0.00913395
0.776372
-0.100801
0.754241
-0.0933919
0.732191
-0.0850612
0.711544
-0.0758988
0.693105
-0.0660422
0.677379
-0.0555758
0.664684
-0.0444617
0.655249
-0.0326497
0.649325
-0.020147
-0.00706546
0.711042
-0.0718446
0.683397
-0.0657462
0.657861
-0.0595259
0.635104
-0.0531416
0.615441
-0.0463787
0.599006
-0.0391411
0.585906
-0.031362
0.576286
-0.0230297
0.57034
-0.0142005
-0.00500298
0.606548
-0.0434497
0.580432
-0.039631
0.55687
-0.0359636
0.53598
-0.0322514
0.517891
-0.0282901
0.502726
-0.0239761
0.490628
-0.0192641
0.481765
-0.0141666
0.47631
-0.00874558
-0.00310208
0.472242
-0.0202658
0.451125
-0.0185136
0.432092
-0.0169309
0.415146
-0.0153052
0.400381
-0.0135252
0.387939
-0.0115343
0.377986
-0.00931103
0.370689
-0.00687014
0.366198
-0.00425395
-0.00152254
0.308363
-0.00523415
0.294588
-0.00473874
0.282089
-0.00443139
0.270861
-0.00407754
0.26099
-0.00365458
0.252609
-0.00315246
0.245865
-0.00256729
0.240901
-0.00190665
0.237835
-0.00118721
-0.000430493
0.113841
0.109103
0.104671
0.100594
0.096939
0.0937865
0.0912193
0.0893126
0.0881254
0.000308353
0.0230043
-0.0233126
0.00104727
0.0605738
-0.0613127
0.00207558
0.0912089
-0.0922372
0.00327669
0.115086
-0.116287
0.00453134
0.13257
-0.133825
0.00617394
0.14624
-0.147882
0.00711112
0.148823
-0.14976
0.00771182
0.140467
-0.141068
0.00784455
0.128514
-0.128647
0.110637
0.00738661
-0.11018
0.000881988
0.0221223
0.00301028
0.0584455
0.00598228
0.0882369
0.00947035
0.111598
0.0131459
0.128895
0.0175687
0.141817
0.020541
0.145851
0.0223956
0.138612
0.0230766
0.127833
0.111624
0.0220899
0.0013622
0.0207601
0.00466467
0.055143
0.0093016
0.0836
0.0147587
0.106141
0.0205761
0.123077
0.0269822
0.135411
0.0320453
0.140788
0.0352444
0.135413
0.0368954
0.126182
0.112262
0.0362573
0.00170484
0.0190552
0.00587011
0.0509777
0.0117534
0.0777167
0.0187142
0.0991805
0.0262055
0.115586
0.0340966
0.12752
0.0409684
0.133916
0.0455511
0.13083
0.048452
0.123281
0.111764
0.04895
0.00190682
0.0171484
0.00660644
0.0462781
0.0132905
0.0710326
0.0212506
0.0912203
0.0298885
0.106948
0.0388468
0.118561
0.047109
0.125654
0.0529782
0.124961
0.0571569
0.119102
0.109833
0.0590881
0.00198927
0.0151591
0.00693634
0.041331
0.014026
0.0639429
0.0225311
0.0827153
0.0318354
0.0976438
0.0414757
0.108921
0.0507128
0.116417
0.0577495
0.117925
0.0629921
0.11386
0.106567
0.0662581
0.00197982
0.0131793
0.00694932
0.0363615
0.0141304
0.0567618
0.0228223
0.0740233
0.0324168
0.0880493
0.042426
0.098912
0.0522993
0.106543
0.0604737
0.10975
0.0666131
0.10772
0.102222
0.0709581
0.00188688
0.0112924
0.00667865
0.0315698
0.0136812
0.0497592
0.0222605
0.065444
0.0318512
0.0784587
0.0419856
0.0887775
0.0522277
0.0963011
0.0615114
0.100467
0.068733
0.100498
0.0968774
0.0740777
0.00170122
0.00959123
0.0061019
0.0271691
0.0126325
0.0432287
0.0207595
0.057317
0.0299946
0.0692235
0.039925
0.0788472
0.0501912
0.086035
0.060203
0.0904547
0.0688521
0.0918494
0.0901731
0.0755564
0.00145414
0.00813708
0.00531589
0.0233073
0.0111498
0.0373947
0.0185241
0.0499428
0.0270382
0.0607093
0.0363501
0.0695353
0.0461612
0.0762238
0.0561487
0.0804673
0.0658736
0.0821244
0.0812255
0.0748213
0.00125535
0.00688173
0.00465129
0.0199114
0.00986825
0.0321778
0.0165794
0.0432316
0.0244851
0.0528036
0.0333433
0.0606772
0.0429264
0.0666407
0.0529096
0.0704841
0.062859
0.072175
0.0718551
0.0722294
0.00107725
0.00580448
0.00406011
0.0169285
0.00873405
0.0275038
0.0148706
0.0370951
0.0222648
0.0454093
0.0307406
0.0522014
0.0400893
0.057292
0.0499761
0.0605973
0.0599849
0.0621661
0.0620321
0.069808
0.00091529
0.00488919
0.00352543
0.0143184
0.0077177
0.0233115
0.0133682
0.0314446
0.0203668
0.0384107
0.0285724
0.0439958
0.037743
0.0481214
0.0475378
0.0508025
0.0576103
0.0520936
0.051975
0.0676673
0.000789364
0.00409983
0.00310767
0.0120001
0.00695108
0.0194681
0.0123078
0.0260878
0.0191231
0.0315954
0.0272148
0.0359041
0.0362835
0.0390527
0.0459991
0.041087
0.056069
0.0420237
0.0417973
0.0662467
0.000714774
0.00338505
0.00287575
0.00983909
0.00661494
0.0157289
0.0119898
0.020713
0.0188795
0.0247057
0.0270009
0.0277827
0.0360389
0.0300147
0.0457162
0.0314098
0.0557993
0.0319406
0.0315269
0.0660697
0.00072727
0.00265778
0.00298962
0.00757674
0.00702345
0.0116951
0.012757
0.0149794
0.0199017
0.017561
0.0281399
0.0195445
0.0372146
0.0209399
0.0469148
0.0217096
0.057053
0.0218025
0.0211387
0.0674412
0.000945305
0.00171248
0.00375701
0.00476504
0.00844176
0.00701035
0.0146593
0.00876184
0.022081
0.0101394
0.0304688
0.0111567
0.0396381
0.0117707
0.0494219
0.0119258
0.0596603
0.0115641
0.0106104
0.0701885
0.00150091
0.000211569
0.00514036
0.00112559
0.0104237
0.00172701
0.0169965
0.00218906
0.0246344
0.00250147
0.0331713
0.00261974
0.0424588
0.00248324
0.0523512
0.00203342
0.0627053
0.00120989
-5.46708e-05
0.0733705
0.00154668
-0.00133512
0.0056463
-0.00297403
0.0112702
-0.00389691
0.0180894
-0.00463012
0.0259207
-0.00532985
0.0346229
-0.00608245
0.0440594
-0.00695322
0.0540967
-0.00800394
0.0645999
-0.00929324
-0.0108816
0.0754268
0.00103021
0.00461514
0.0101641
0.0170568
0.0250095
0.0338616
0.0434724
0.053699
0.0644034
0.0754509
0.0888449
0.212076
-0.228691
0.114989
0.0461776
-0.0723213
0.13433
-0.026379
0.00703764
0.146041
-0.0369174
0.0252064
0.156128
-0.0339062
0.0238188
0.164878
-0.0271066
0.0183572
0.172319
-0.0203401
0.0128986
0.178591
-0.0146368
0.00836478
0.183874
-0.00997398
0.00469092
-0.00595164
0.00175005
0.0983193
0.183564
0.130886
0.0136104
0.154983
-0.0504756
0.169956
-0.0518903
0.18123
-0.04518
0.190408
-0.0362852
0.197967
-0.0278993
0.204162
-0.0208323
0.209214
-0.0150255
-0.00963349
0.10623
0.145002
0.142091
-0.0222503
0.166562
-0.0749467
0.183749
-0.0690773
0.196499
-0.05793
0.206083
-0.0458698
0.213332
-0.035148
0.21875
-0.0262502
0.222635
-0.0189107
-0.0121253
0.113773
0.0974754
0.152427
-0.060904
0.175788
-0.0983085
0.191956
-0.0852453
0.203635
-0.0696088
0.212096
-0.0543303
0.218161
-0.0412132
0.22237
-0.0304592
0.225041
-0.0215822
-0.0134831
0.121258
0.0422873
0.16122
-0.100866
0.183957
-0.121046
0.199158
-0.100446
0.209634
-0.080085
0.216871
-0.0615669
0.22176
-0.0461025
0.224863
-0.0335617
0.226517
-0.0232369
-0.0138994
0.128544
-0.0188153
0.168906
-0.141228
0.191108
-0.143248
0.205528
-0.114866
0.214977
-0.0895344
0.221153
-0.0677425
0.22502
-0.0499698
0.227165
-0.0357072
0.227945
-0.0240163
-0.0135136
0.134999
-0.083626
0.175314
-0.181544
0.197267
-0.165201
0.21104
-0.128638
0.219636
-0.0981299
0.224919
-0.0730255
0.227925
-0.0529757
0.229268
-0.0370506
0.229319
-0.0240677
-0.0124695
0.14
-0.150255
0.180489
-0.222033
0.202425
-0.187136
0.215689
-0.141903
0.223596
-0.106037
0.228153
-0.0775823
0.230459
-0.0552819
0.231157
-0.037749
0.230631
-0.0235418
-0.0109147
0.143129
-0.217958
0.184367
-0.263271
0.206556
-0.209325
0.219469
-0.154816
0.226848
-0.113417
0.230842
-0.0815761
0.232609
-0.0570489
0.23282
-0.0379602
0.231871
-0.0225922
-0.00900024
0.144381
0.186858
0.209623
0.222371
0.229386
0.232977
0.234363
0.234245
0.233027
0.0195602
0.0137657
-0.0333258
0.0153003
0.00425983
0.0148083
0.000492018
0.0162508
-0.00144247
0.0175872
-0.00133639
0.0185279
-0.000940768
0.0191611
-0.000633134
0.0195653
-0.00040424
0.0197762
-0.000210877
-9.01966e-05
0.0590317
0.0525762
-0.0978423
0.0459582
0.0173334
0.0458192
0.000631058
0.0493593
-0.00498258
0.0527045
-0.0046816
0.0551847
-0.00342103
0.0568914
-0.00233985
0.0579884
-0.00150117
0.0585835
-0.000806003
-0.000319815
0.0945298
0.109249
-0.151203
0.0755182
0.0363449
0.0764769
-0.000327608
0.0818081
-0.0103138
0.0868405
-0.00971401
0.0906822
-0.00726269
0.0933614
-0.00501904
0.0950907
-0.00323052
0.0960494
-0.00176472
-0.000677423
0.124443
0.171753
-0.186947
0.103775
0.0570133
0.106179
-0.0027319
0.112997
-0.0171314
0.119419
-0.0161359
0.124431
-0.0122749
0.127974
-0.00856246
0.130279
-0.00553527
0.131583
-0.00306884
-0.00115818
0.144897
-0.201836
0.129589
0.133895
0.14197
0.149653
0.155735
0.160071
0.162901
0.164523
0.00659044
-0.000378403
-0.00621204
0.00773551
-0.00114506
0.00965928
-0.00192378
0.0123239
-0.00266462
0.0155925
-0.00326855
0.0192297
-0.00363726
0.0229446
-0.00371484
0.0264549
-0.00351032
0.0297274
-0.00327248
-0.00359848
0.0188246
-0.00140183
-0.0178011
0.021927
-0.00424745
0.0271214
-0.00711822
0.0342859
-0.00982916
0.0431032
-0.0120859
0.053106
-0.01364
0.0638235
-0.0144323
0.0749175
-0.0146043
0.0863122
-0.0146672
-0.0151286
0.0299637
-0.00298791
-0.0283776
0.0347251
-0.00900883
0.0426053
-0.0149984
0.0533656
-0.0205894
0.0665145
-0.0252348
0.0814473
-0.0285729
0.0976568
-0.0306418
0.114888
-0.0318359
0.132994
-0.0327727
-0.0333374
0.0397453
-0.00500776
-0.0377254
0.0457867
-0.0150503
0.0556898
-0.0249015
0.0690207
-0.0339204
0.0851052
-0.0413192
0.103202
-0.0466696
0.122761
-0.0502013
0.143569
-0.0526439
0.165409
-0.0546127
-0.0548748
0.0479727
-0.0455939
0.0550124
0.0663681
0.0813978
0.0991667
0.118755
0.139512
0.160946
0.181889
0.0627555
-0.0717472
0.0811038
-0.0721122
0.0528235
-0.0721128
0.0820447
0.0428551
-0.0704864
0.0804549
0.0332846
-0.0667107
0.0762812
0.0244411
-0.0608006
0.0696441
0.0165511
-0.05296
0.0608499
0.00985351
-0.0434006
0.0500982
0.00464569
-0.0323368
0.0375447
0.00125415
-0.0200337
0.0234253
-0.00693638
0.00819054
0.0599613
-0.0619252
-0.0697833
0.0499572
-0.0621087
0.0400725
-0.0606017
0.0307232
-0.0573615
0.0222494
-0.0523267
0.0148607
-0.0455713
0.00873028
-0.0372701
0.00406008
-0.0276666
0.00107783
-0.0170515
-0.00585855
0.057731
-0.0518525
-0.0678037
0.0476432
-0.0520209
0.0378298
-0.0507883
0.0286365
-0.0481681
0.0204089
-0.0440991
0.0133941
-0.0385565
0.00773353
-0.0316095
0.00353437
-0.0234675
0.000918413
-0.0144355
-0.00494014
0.0563805
-0.041636
-0.066597
0.0462712
-0.0419117
0.0365126
-0.0410297
0.0273953
-0.0390508
0.0192517
-0.0359555
0.0123884
-0.0316933
0.00699516
-0.0262163
0.00312791
-0.0196002
0.000795252
-0.0121029
-0.00414489
0.0563297
-0.0313022
-0.0666634
0.046182
-0.0317639
0.0364364
-0.0312841
0.0273243
-0.0299387
0.0191227
-0.0277539
0.0121509
-0.0247215
0.00670315
-0.0207685
0.00291252
-0.0158096
0.00072404
-0.00991438
-0.00342085
0.0577943
-0.0208299
-0.0682666
0.0475702
-0.0215398
0.0377803
-0.0214942
0.028611
-0.0207695
0.0202726
-0.0194156
0.0130223
-0.0174711
0.00718268
-0.0149289
0.00305879
-0.0116857
0.000743126
-0.00759872
-0.00267772
0.0605508
-0.0102071
-0.0711736
0.050215
-0.011204
0.04033
-0.0116092
0.0310555
-0.0114949
0.0225586
-0.0109187
0.015024
-0.00993657
0.00868925
-0.00859414
0.00388697
-0.00688343
0.000979935
-0.00469169
-0.00169779
0.0636484
0.000554645
-0.0744101
0.0531944
-0.000749978
0.0431984
-0.0016132
0.0338035
-0.00210006
0.0251558
-0.002271
0.0174051
-0.00218586
0.0107188
-0.00190777
0.0053196
-0.00148428
0.00156178
-0.000933867
-0.000136015
0.0654823
0.0114807
-0.0764084
0.0548766
0.00985576
0.0447324
0.00853098
0.0351848
0.00744749
0.0263674
0.00654649
0.0184176
0.00576391
0.0114791
0.00503072
0.0057456
0.0042492
0.00157339
0.00323834
0.00143737
0.0651788
-0.076328
0.0543689
0.0440324
0.0343081
0.025341
0.0172744
0.0102747
0.00463951
0.00102387
0.00782501
-0.110626
-0.00737859
0.00767835
-0.1285
0.00706219
-0.140451