# Selection   : all
# Cells       : 440
# Volume      : 7.374263e+01
# Time        	max(p)
3             	1.837410e+00
3.05          	1.835235e+00
3.1           	1.833710e+00
