/*--------------------------------*- C++ -*----------------------------------*\
  =========                 |
  \\      /  F ield         | OpenFOAM: The Open Source CFD Toolbox
   \\    /   O peration     | Website:  https://openfoam.org
    \\  /    A nd           | Version:  13
     \\/     M anipulation  |
\*---------------------------------------------------------------------------*/
FoamFile
{
    format      ascii;
    class       surfaceScalarField;
    location    "6.6";
    object      phi;
}
// * * * * * * * * * * * * * * * * * * * * * * * * * * * * * * * * * * * * * //

dimensions      [0 3 -1 0 0 0 0];

internalField   nonuniform List<scalar> 
823
(
0.00456817
0.0131791
-0.0177472
0.0248479
0.00892281
-0.0292026
0.0797568
-0.0265443
-0.0283646
0.172915
-0.0865946
-0.00656318
-0.0947516
-0.0278922
0.295558
0.0050483
0.00813075
0.0474398
-0.0334687
0.134383
-0.113488
0.238561
-0.190772
-0.25572
0.39953
0.0202009
-0.0120702
0.101751
-0.115019
0.215222
-0.226959
0.330084
-0.305635
-0.358341
0.432705
0.0417231
-0.0537933
0.140628
-0.213924
0.233279
-0.31961
0.296335
-0.36869
-0.383321
0.321314
0.0580974
-0.111891
0.136077
-0.291903
0.183501
-0.367034
0.202247
-0.387436
0.213187
-0.394261
-0.0114986
-0.0367609
0.0482595
-0.0363077
-0.0616287
0.0864378
-0.0652612
-0.0646344
0.093588
-0.0931064
-0.0623634
0.0902086
-0.060081
-0.117059
0.0840337
-0.0195136
-0.0172473
-0.0524719
-0.0286705
-0.0874041
-0.0297022
-0.120646
-0.0291212
-0.030182
-0.150545
-0.0202473
0.00299997
-0.0525298
0.00361206
-0.0872998
0.00506781
-0.121765
0.00534433
0.00345911
-0.155406
-0.0127558
0.0157558
-0.0360334
0.0268896
-0.0648012
0.0338357
-0.0936928
0.0342359
0.0353785
-0.125612
-0.00199143
-0.00430435
0.00116672
0.0288395
0.0363258
0.056083
-0.564028
0.390886
0.143128
0.494969
-0.582015
0.0959465
1.35072
-1.30354
0.352509
-0.0772056
-0.179357
-0.817072
0.69978
-0.0262051
-0.688368
0.0110986
0.457666
0.123845
1.23797
0.490264
-0.443624
-0.903784
-0.12551
-0.718265
-0.0597275
0.391883
0.215611
0.962634
0.599273
-0.827286
-0.970509
-0.132006
-0.711871
-0.0118448
0.271722
0.380497
0.570292
0.685015
-1.1318
-1.02055
0.0234493
-0.698995
0.141136
0.154036
0.538828
0.1726
0.743434
-1.33641
-1.05821
0.881534
-0.483174
-1.09735
0.856133
0.179436
1.29509
-0.266356
1.34566
-1.38698
-0.934459
1.21373
-0.316548
-1.38036
1.29994
0.0932255
1.54508
-0.511497
1.33873
-1.18064
-0.70064
1.23121
-0.185195
-1.36257
1.37972
-0.0552781
1.43701
-0.568788
1.06089
-0.804515
-0.411361
1.22822
-0.102486
-1.31093
1.30828
-0.135335
1.14333
-0.403837
0.684792
-0.345978
-0.120704
0.837048
-0.939534
0.701713
0.297876
-0.0481014
1.09964
0.175497
-1.06195
1.18111
0.239839
1.27457
0.339243
1.25089
0.423216
0.449093
1.02542
0.11035
-0.960274
1.09506
0.170198
1.19328
0.241027
1.29613
0.320366
0.364864
0.95519
0.0596035
-0.904444
1.01384
0.111545
1.10711
0.147759
1.23002
0.197455
0.232318
0.895004
0.0194912
-0.854892
0.961766
0.0447839
1.05226
0.0572603
1.17177
0.0779472
0.0931574
0.666385
-0.646894
0.711169
0.768429
0.846377
0.138074
0.300844
-0.246913
-0.192005
0.0914935
0.306514
-0.259933
0.0503611
0.316966
-0.275834
0.0166945
0.308381
-0.274715
0.199333
-0.182639
0.0969315
0.337835
-0.133923
0.0612568
0.342188
0.0297139
0.348509
0.00510472
0.332991
0.204438
0.0598544
0.37158
-0.0935994
0.0283466
0.373696
0.00241626
0.37444
-0.00895843
0.344365
0.19548
-0.0251053
0.386255
0.0104303
-0.0388575
0.387448
-0.0436762
0.379258
-0.0316478
0.332337
0.163832
-0.104611
0.0966058
-0.104599
-0.092375
-0.0519413
0.200143
0.0996293
-0.253446
-0.046326
0.14592
0.103804
-0.0495812
0.0905602
0.108248
-0.0528882
0.0368047
0.108005
-0.0542495
0.0766759
-0.0398712
0.198606
0.144308
-0.243285
0.151304
0.151106
0.098479
0.161074
0.0419874
0.164497
0.118663
0.144575
0.189159
-0.189427
0.10262
0.193061
0.0618853
0.201809
0.023109
0.203273
0.141772
0.158201
0.222942
-0.191983
0.117749
0.233514
0.072413
0.247144
0.0282114
0.247475
0.169984
0.0950048
-0.118976
0.0685851
0.0398954
0.0126552
0.404769
0.0740587
-0.0828479
0.424534
0.00155045
-0.0213151
0.410586
0.187417
-0.17347
0.392114
0.187495
-0.169022
0.430071
-0.291404
0.402798
0.0672401
0.41986
-0.0155118
0.400285
0.206992
0.379556
0.208224
0.566343
0.397766
0.0654533
0.414798
-0.0325435
0.378665
0.243125
0.364154
0.222735
0.74107
0.395936
0.0654971
0.401261
-0.0378687
0.363694
0.280692
0.340707
0.245722
0.889794
0.390322
0.0711551
0.389033
-0.0365804
0.334689
0.335037
0.318623
0.261787
1.08944
0.631846
0.0433299
0.650546
-0.0552808
0.677837
0.307746
0.758522
0.181102
0.850119
0.997844
0.649692
-0.00234123
0.640955
-0.0465439
0.699929
0.248772
0.775975
0.105056
0.598467
1.02763
0.651003
-0.0493233
0.634886
-0.030427
0.709704
0.173953
0.801887
0.012873
0.378368
1.02199
0.625114
-0.0704166
0.624344
-0.0296574
0.740241
0.0580559
0.782361
-0.0292469
0.188943
0.971786
0.533604
0.503946
0.562002
0.532755
0.721699
1.02575
-0.219912
1.0188
-0.126972
1.02077
-0.0955691
1.02092
0.0102784
0.0555816
0.972491
-0.164776
0.954688
-0.109169
0.92748
-0.0683615
0.943917
-0.00615822
0.0392241
0.950706
-0.0934964
0.917766
-0.076229
0.886123
-0.0367184
0.894966
-0.0150014
0.0297464
0.908822
-0.0305329
0.862733
-0.03014
0.839881
-0.0138662
0.835903
-0.0110226
0.010757
0.691166
0.661026
0.64716
0.636137
0.0554423
0.159465
-0.214907
0.0818118
0.350985
-0.377355
0.0821521
0.407463
-0.407804
0.0713276
0.410814
-0.39999
0.378714
0.0585496
-0.365936
0.0822576
0.0772074
0.162358
0.270885
0.199403
0.370419
0.2039
0.406318
0.401422
0.181192
0.0671579
0.0100496
0.196482
0.141561
0.300485
0.266415
0.372618
0.334185
0.394146
0.379894
0.0299822
-0.0199326
0.141995
0.0295478
0.27976
0.12865
0.414522
0.199423
0.278893
0.529774
0.0034044
-0.023337
0.0553012
-0.0223491
0.16642
0.0175308
0.304278
0.0615653
0.116551
0.466621
-0.00850877
-0.0148282
0.000685359
-0.0315432
0.0507379
-0.0325218
0.135283
-0.0229798
0.00838903
0.243445
-0.000758348
-0.0140699
0.00915881
-0.0414604
0.0346212
-0.0579841
0.0740487
-0.0624073
-0.0562301
0.138668
0.013186
-0.0272558
0.0396958
-0.0679702
0.0696689
-0.0879572
0.0990839
-0.0918224
-0.0877377
0.130592
0.0166507
-0.0439066
0.0387578
-0.0900773
0.0561167
-0.105316
0.0687646
-0.10447
-0.0966132
0.0776401
0.00435293
0.000713479
-0.0110146
-0.0252763
-0.0378559
0.464464
0.589181
-0.8102
0.431481
0.580718
-0.547735
0.248863
0.385767
-0.20315
0.11799
0.191255
-0.0603817
-0.144618
0.104054
0.47825
0.249598
0.413188
0.64578
0.167813
0.631143
0.0568383
0.302229
-0.232836
0.404779
-0.0245896
0.35594
0.694619
0.0827784
0.904305
0.0349971
0.35001
-0.379548
0.266138
-0.213087
0.290013
0.670744
0.0502512
1.14407
0.0850086
0.315253
-0.548593
0.139943
0.228671
0.0692012
0.205097
0.0933308
0.598713
-0.692044
-0.127397
0.220728
-0.0784313
-0.0489661
0.0113064
-0.0897377
-0.0745745
0.965533
-1.17702
0.638526
0.38641
0.236291
0.096167
-0.0161164
-0.0800506
0.155516
-0.059349
0.27925
-0.123734
0.463756
-0.184506
-0.228287
0.215416
-0.172983
0.337259
0.593418
0.938686
0.146491
-0.147387
0.178262
-0.177366
0.112509
-0.153405
0.187387
0.0731343
-0.161222
0.200597
0.0300555
-0.161441
0.20452
-0.113529
0.143584
0.186865
-0.106884
-0.227368
0.141209
-0.107749
0.0897266
-0.10974
0.0370844
-0.108799
-0.0764444
0.188082
-0.0563437
-0.238622
0.136625
-0.0562913
0.0846956
-0.0578111
0.034448
-0.058551
-0.0419964
0.203245
-0.00465641
-0.254932
0.150945
-0.00399222
0.0967164
-0.00358198
0.0409798
-0.00281444
-0.00101662
0.207995
-0.258978
0.154422
0.0979518
0.0408878
0.0423798
-0.34225
-0.066065
0.0158619
-0.373472
-0.00814108
-0.383801
-0.0179923
-0.367503
-0.2329
0.132053
-0.308539
-0.165765
0.0856449
-0.327063
0.0411056
-0.339261
0.00794824
-0.334346
-0.224951
0.150398
-0.265456
-0.193481
0.106255
-0.28292
0.0626904
-0.295697
0.0224933
-0.294149
-0.202458
0.173355
-0.228247
-0.210564
0.127385
-0.236951
0.0780787
-0.246391
0.0311957
-0.247266
-0.171262
0.165782
-0.215767
0.116218
0.0704244
0.0276781
0.386185
0.103589
-0.0937946
0.393194
0.0738747
-0.0808837
0.359534
0.158485
-0.124825
0.309005
0.0416166
0.00891278
-0.243524
0.375163
0.393096
0.106472
0.404454
0.0625169
0.397216
0.165724
0.352522
0.08631
-0.11837
0.399324
0.103128
0.412404
0.0494372
0.409972
0.168156
0.375602
0.120679
0.0186097
0.405135
0.0939721
0.418042
0.0365303
0.417668
0.16853
0.391918
0.146429
0.155596
0.407104
0.422319
0.417379
0.394786
0.418091
0.0919597
0.338424
0.0796673
0.250763
0.0876608
0.262658
-0.0118952
-0.20237
0.465029
0.508216
0.507
0.469835
0.466853
0.639646
0.372684
0.0923451
0.290822
0.0818622
0.195147
0.0956744
0.113539
0.0816079
0.0334887
0.516224
0.387522
0.289716
0.205559
)
;

boundaryField
{
    left
    {
        type            calculated;
        value           nonuniform List<scalar> 
17
(
-0.60402
-0.60402
-0.60402
-0.60402
-0.60402
-0.39598
-0.39598
-0.39598
-0.39598
-0.39598
-0.39598
-0.39598
-0.39598
-0.39598
-0.39598
-0.510051
-0.510051
)
;
    }
    right
    {
        type            calculated;
        value           nonuniform List<scalar> 
17
(
0.0858809
0.26577
0.158555
0.145056
0.181709
0.254053
0.356284
0.469801
0.576976
0.665998
0.735056
0.781094
1.22191
1.10491
0.771611
0.394135
-0.168806
)
;
    }
    down
    {
        type            calculated;
        value           uniform 0;
    }
    up
    {
        type            calculated;
        value           uniform 0;
    }
    cylinder
    {
        type            calculated;
        value           uniform 0;
    }
    defaultFaces
    {
        type            empty;
    }
}


// ************************************************************************* //
