/*--------------------------------*- C++ -*----------------------------------*\
  =========                 |
  \\      /  F ield         | OpenFOAM: The Open Source CFD Toolbox
   \\    /   O peration     | Website:  https://openfoam.org
    \\  /    A nd           | Version:  13
     \\/     M anipulation  |
\*---------------------------------------------------------------------------*/
FoamFile
{
    format      ascii;
    class       surfaceScalarField;
    location    "53";
    object      phi;
}
// * * * * * * * * * * * * * * * * * * * * * * * * * * * * * * * * * * * * * //

dimensions      [0 3 -1 0 0 0 0];

internalField   nonuniform List<scalar> 
823
(
-0.00269289
0.0238604
-0.0211675
0.00308498
0.0195178
-0.0252956
0.039411
-0.0289113
-0.00741469
0.116514
-0.0859913
0.00888795
-0.11146
-0.0129639
0.240938
0.0122708
0.0115895
0.0628788
-0.0310902
0.149305
-0.115338
0.257825
-0.194511
-0.2632
0.409565
0.0221165
-0.010527
0.105414
-0.114388
0.21574
-0.225664
0.324165
-0.302936
-0.350454
0.411419
0.0417766
-0.0523036
0.137033
-0.209644
0.223755
-0.312386
0.279535
-0.358716
-0.373595
0.302676
0.0554729
-0.107777
0.128273
-0.282444
0.171516
-0.355629
0.188676
-0.375876
0.196311
-0.381231
0.00516186
-0.0426078
0.0374459
0.0178113
-0.0862047
0.0735552
0.029295
-0.0951514
0.0836677
0.0359206
-0.0812416
0.0746159
-0.0511153
0.0349362
0.0520997
0.0230871
-0.0656949
0.0537047
-0.116822
0.0766809
-0.118128
0.0901182
-0.0946789
-0.0549913
0.0939943
0.0321491
-0.097844
0.0589419
-0.143615
0.0746275
-0.133813
0.0846149
-0.104666
-0.0635046
0.0931282
-0.0217209
-0.0761232
-0.0695805
-0.0957553
-0.114784
-0.0886097
-0.15036
-0.0690899
-0.0323631
-0.181502
-0.0972906
-0.218342
-0.314366
-0.374568
-0.419895
-0.162172
1.18617
-0.989067
0.014566
1.21568
-1.39242
0.415311
-1.09405
0.693301
0.470944
-1.47396
1.41833
-0.683842
0.640805
0.112434
1.16773
0.268539
1.05957
0.491765
-1.31727
0.50174
-1.48394
-0.700288
0.337839
0.923023
0.4321
0.965311
0.56501
-1.45018
0.535478
-1.45441
-0.675285
0.221219
0.520303
0.483208
0.703322
0.59219
-1.55916
0.558046
-1.42026
-0.633185
0.119523
-0.0191155
0.612744
0.210101
0.608898
-1.55532
0.543756
-1.35512
-0.596013
0.919073
0.121779
-1.05997
1.39023
-0.261059
1.28872
-1.45381
0.960016
-1.02642
-0.415763
1.32331
0.152106
-1.35364
1.5362
-0.473955
1.23123
-1.14883
0.834303
-0.62949
-0.244842
1.42392
0.0514881
-1.3233
1.42689
-0.47693
1.03945
-0.761395
0.776291
-0.366326
-0.140761
1.37359
-0.0348455
-1.28726
1.23084
-0.334179
0.802288
-0.332843
0.567896
-0.131934
-0.0530876
0.853349
-0.888194
0.51917
0.186327
0.0543933
1.06793
0.144913
-1.01653
1.13704
0.233567
1.24362
0.304838
1.25138
0.401806
0.432351
0.988634
0.0762775
-0.919999
1.04525
0.176952
1.1513
0.198792
1.24104
0.312057
0.31976
0.943409
0.0329899
-0.900121
1.00223
0.118135
1.08613
0.114883
1.2008
0.197395
0.197259
0.898542
0.00801262
-0.873565
0.972268
0.0444103
1.04484
0.0423057
1.16574
0.0764988
0.0757413
0.649238
-0.641226
0.693649
0.735954
0.812453
0.123607
0.293966
-0.245794
-0.171778
0.0813601
0.300714
-0.258468
0.0435966
0.311202
-0.273438
0.0132424
0.30186
-0.271506
0.193667
-0.180425
0.0898753
0.330723
-0.126633
0.0554692
0.335121
0.0255506
0.341121
0.00293059
0.32448
0.196598
0.0489417
0.359089
-0.0773075
0.0213359
0.362726
-0.00129485
0.363751
-0.00993759
0.333123
0.18666
-0.0243847
0.375167
0.00830664
-0.0381354
0.376477
-0.0426572
0.368273
-0.0302642
0.32073
0.156396
-0.100151
0.0940877
-0.0995504
-0.0869058
-0.0486198
0.205272
0.0934749
-0.258712
-0.0400345
0.150589
0.0974523
-0.0427702
0.0940912
0.101921
-0.0454224
0.0385127
0.101795
-0.0462169
0.0719663
-0.0334537
0.197601
0.138687
-0.242813
0.150176
0.144877
0.0976846
0.154412
0.0416431
0.157837
0.113609
0.150728
0.184717
-0.196757
0.107051
0.188553
0.0646875
0.196776
0.0244875
0.198037
0.138097
0.159304
0.220332
-0.19492
0.117985
0.229872
0.0723314
0.242429
0.0280507
0.242318
0.166148
0.103071
-0.128533
0.074475
0.0434659
0.0142775
0.404051
0.0623284
-0.0704001
0.425974
-0.00714093
-0.0147816
0.414892
0.171201
-0.160119
0.394411
0.167206
-0.146725
0.390175
-0.254476
0.40239
0.0559176
0.420956
-0.025707
0.403187
0.18897
0.380651
0.189742
0.528013
0.397828
0.0540692
0.415969
-0.0438478
0.380466
0.224473
0.365067
0.205141
0.696323
0.397153
0.0528955
0.402242
-0.0489362
0.365467
0.261248
0.34402
0.226588
0.845423
0.391956
0.0569194
0.390061
-0.047041
0.335645
0.315663
0.312498
0.249735
1.02939
0.634115
0.0268248
0.65041
-0.0633357
0.668988
0.297085
0.756063
0.16266
0.807838
0.977613
0.65216
-0.0213151
0.637712
-0.0488871
0.689678
0.245118
0.787842
0.064497
0.616621
0.979059
0.651173
-0.0684676
0.627561
-0.0252752
0.697943
0.174736
0.772221
-0.00978045
0.425573
0.963269
0.615809
-0.0802561
0.613616
-0.0230821
0.73397
0.0543812
0.750095
-0.0259047
0.205472
0.970195
0.523764
0.500682
0.555063
0.529159
0.734631
0.991531
-0.185695
0.988093
-0.123196
0.977612
-0.0668259
0.991867
-0.00594883
0.0694222
0.925974
-0.13261
0.909308
-0.10653
0.886421
-0.0439389
0.907743
-0.0272704
0.0571664
0.915273
-0.0846143
0.886829
-0.0780858
0.874701
-0.0318111
0.878863
-0.0314322
0.0359081
0.919503
-0.0339219
0.87554
-0.0341229
0.86052
-0.0167909
0.847454
-0.0183665
0.00979693
0.700709
0.666586
0.649795
0.631429
0.0532398
0.184496
-0.237736
0.0755164
0.381868
-0.404144
0.0735594
0.433238
-0.431281
0.0640013
0.431588
-0.42203
0.397487
0.0507829
-0.384269
0.0845928
0.0999034
0.155938
0.310522
0.186304
0.402872
0.190931
0.426962
0.410133
0.178284
0.0758276
0.0240758
0.197822
0.188528
0.283305
0.317389
0.326152
0.384115
0.418398
0.317887
0.0387723
-0.0146965
0.16167
0.0656301
0.293792
0.185266
0.410287
0.267621
0.356037
0.472648
0.00912235
-0.0238189
0.0805263
-0.00577381
0.202635
0.0631579
0.345924
0.124332
0.235432
0.46653
0.000374747
-0.0241936
0.0308785
-0.0362776
0.107939
-0.0139025
0.220072
0.0121989
0.112871
0.342632
0.00490081
-0.0290944
0.0219535
-0.0533303
0.0582307
-0.0501797
0.103936
-0.0335063
0.0290146
0.187792
0.00764381
-0.0367383
0.0204198
-0.0661063
0.0390129
-0.0687728
0.0602154
-0.0547088
-0.0222834
0.111513
0.00231082
-0.0390491
0.00750548
-0.0713009
0.017145
-0.0784123
0.0311112
-0.068675
-0.046906
0.0557338
-0.00160313
0.000651171
0.0059066
0.0118475
0.0170412
0.332279
1.13241
-1.12206
0.0413045
0.951064
-0.66009
-0.00135132
0.0731494
-0.0304936
0.282911
-0.837486
0.553224
-0.275961
0.174838
0.344868
0.975338
0.0298363
1.2661
-0.015607
0.118593
0.274894
-1.12799
-0.410296
0.385162
0.701689
0.118541
1.53272
0.12659
0.110544
0.300722
-1.30212
-0.530395
0.0313179
0.726105
0.0302625
1.53377
0.331906
-0.191099
0.394773
-1.36499
-0.593238
-0.24592
-0.104563
0.397639
0.450984
-0.164062
0.693296
-0.529235
-0.300376
0.136314
-0.160879
-0.139497
0.14436
-0.305239
-0.0953473
0.794273
-1.22304
0.270498
0.100507
0.348492
0.0959998
-0.0112853
-0.0847145
0.153773
-0.0577728
0.241957
-0.0881845
0.384618
-0.142661
-0.144617
0.220923
-0.181426
0.341435
0.571138
0.901125
0.14948
-0.156657
0.18846
-0.181282
0.114466
-0.163489
0.198504
0.0746049
-0.17255
0.212411
0.0309311
-0.173807
0.217481
-0.123875
0.154806
0.193954
-0.115571
-0.23504
0.147397
-0.116932
0.0941829
-0.119337
0.039217
-0.118841
-0.0846577
0.190032
-0.0639028
-0.2417
0.137558
-0.0644579
0.0850814
-0.0668602
0.0346482
-0.0684082
-0.0500095
0.206379
-0.0116602
-0.258621
0.153463
-0.0115425
0.0983847
-0.0117815
0.0417594
-0.011783
-0.00825005
0.21122
-0.262915
0.156907
0.0997036
0.0417037
0.0526076
-0.360844
-0.0760321
0.0220783
-0.391501
-0.00415897
-0.405044
-0.0165081
-0.391795
-0.254244
0.138109
-0.325277
-0.173676
0.0929454
-0.346338
0.0468789
-0.358978
0.0106864
-0.355602
-0.243558
0.16402
-0.280552
-0.208744
0.115119
-0.297437
0.067648
-0.311506
0.0247177
-0.312672
-0.21884
0.179808
-0.239937
-0.220423
0.132714
-0.250343
0.0827667
-0.261559
0.0337707
-0.263676
-0.185069
0.177446
-0.228924
0.125607
0.0764588
0.0302636
0.390218
0.0992008
-0.0934391
0.39423
0.0764655
-0.0804778
0.36157
0.140783
-0.108123
0.315161
0.0195833
0.0268251
-0.275173
0.409052
0.397518
0.0976628
0.408525
0.0654582
0.398485
0.150823
0.356736
0.0613317
-0.153477
0.402413
0.0912296
0.417724
0.050147
0.412306
0.156242
0.378531
0.0951058
-0.0166458
0.406185
0.0810239
0.422751
0.0335809
0.422233
0.156761
0.394766
0.122573
0.119499
0.406603
0.425403
0.422045
0.397893
0.416636
0.0934154
0.339885
0.0767507
0.260697
0.0791878
0.27935
-0.018653
-0.221116
0.500466
0.510027
0.5063
0.477366
0.485538
0.673473
0.400916
0.0995499
0.31291
0.0880069
0.210299
0.102611
0.122881
0.087418
0.0381665
0.544099
0.411683
0.30555
0.219291
)
;

boundaryField
{
    left
    {
        type            calculated;
        value           nonuniform List<scalar> 
17
(
-0.60402
-0.60402
-0.60402
-0.60402
-0.60402
-0.39598
-0.39598
-0.39598
-0.39598
-0.39598
-0.39598
-0.39598
-0.39598
-0.39598
-0.39598
-0.510051
-0.510051
)
;
    }
    right
    {
        type            calculated;
        value           nonuniform List<scalar> 
17
(
0.239708
0.427983
0.384033
0.40923
0.420821
0.457616
0.49855
0.513982
0.518186
0.510476
0.515946
0.506584
0.779766
0.663382
0.67221
0.480223
0.00130576
)
;
    }
    down
    {
        type            calculated;
        value           uniform 0;
    }
    up
    {
        type            calculated;
        value           uniform 0;
    }
    cylinder
    {
        type            calculated;
        value           uniform 0;
    }
    defaultFaces
    {
        type            empty;
    }
}


// ************************************************************************* //
