/*--------------------------------*- C++ -*----------------------------------*\
  =========                 |
  \\      /  F ield         | OpenFOAM: The Open Source CFD Toolbox
   \\    /   O peration     | Website:  https://openfoam.org
    \\  /    A nd           | Version:  13
     \\/     M anipulation  |
\*---------------------------------------------------------------------------*/
FoamFile
{
    format      ascii;
    class       volVectorField;
    location    "53";
    object      U;
}
// * * * * * * * * * * * * * * * * * * * * * * * * * * * * * * * * * * * * * //

dimensions      [0 1 -1 0 0 0 0];

internalField   nonuniform List<vector> 
440
(
(-0.203641 0.163595 -6.8244e-20)
(-0.225261 0.191228 -2.64472e-19)
(-0.0733932 0.0720965 5.98721e-20)
(0.287528 0.0727966 -6.95876e-20)
(0.241725 0.146305 1.56376e-20)
(-0.0740727 0.0487645 2.14871e-20)
(0.0531947 0.0532298 4.08432e-21)
(0.51064 -0.00382239 9.21886e-21)
(1.02461 -0.0232276 1.15541e-20)
(1.48736 -0.0289448 -1.54868e-20)
(-0.0351386 0.016126 5.40344e-20)
(0.425846 -0.022275 5.86826e-19)
(1.15374 -0.00888887 -2.96514e-19)
(1.7404 0.0163479 -9.77788e-19)
(2.24526 0.0397295 4.31989e-19)
(0.170901 -0.0391201 -1.60681e-19)
(1.09202 0.00567067 -4.6489e-19)
(1.85966 0.0768422 1.46582e-18)
(2.30035 0.124136 1.6268e-18)
(2.41778 0.138623 -4.41145e-19)
(0.502695 -0.00754723 -2.74116e-19)
(1.6323 0.177296 -5.6658e-19)
(2.18656 0.264017 1.71916e-18)
(2.33528 0.282115 1.87514e-18)
(2.39501 0.261455 6.41518e-19)
(0.0186187 -0.228182 -1.08946e-19)
(0.0715963 -0.464353 -3.03887e-19)
(0.109437 -0.523995 5.44762e-19)
(0.124467 -0.458774 -7.47283e-20)
(0.0987868 -0.307185 -6.35929e-19)
(0.0976532 -0.302212 1.24781e-19)
(0.265651 -0.579786 4.48017e-19)
(0.327966 -0.600406 3.23328e-20)
(0.338394 -0.469989 3.12199e-20)
(0.262518 -0.250334 -6.02642e-20)
(0.262844 -0.492536 2.93468e-19)
(0.478633 -0.77977 4.31473e-19)
(0.503099 -0.754764 -1.63756e-20)
(0.465289 -0.586497 -9.6532e-19)
(0.330667 -0.340284 2.78432e-22)
(0.375586 -0.607637 4.0347e-19)
(0.367111 -0.860133 -6.55966e-19)
(0.205373 -0.835139 9.31432e-19)
(0.0224248 -0.72648 1.81903e-18)
(-0.146602 -0.512158 -5.82522e-20)
(-0.0389447 -0.144795 8.8339e-20)
(-0.318604 -0.397471 2.48624e-19)
(-0.506228 -0.577823 4.10461e-19)
(-0.625514 -0.621096 3.74407e-20)
(-0.769744 -0.519537 9.6486e-19)
(0.19898 0.734004 1.6595e-18)
(-1.14716 0.882606 5.91373e-19)
(1.21649 -0.67375 1.13188e-18)
(0.970674 -1.02271 -7.46903e-20)
(1.29748 -0.465184 -7.21958e-20)
(0.395702 0.928159 -7.90927e-19)
(-0.289504 0.805207 1.80268e-19)
(1.58179 -0.846552 2.45686e-19)
(1.16841 -1.05009 3.78031e-19)
(1.30815 -0.4979 8.54452e-20)
(0.817204 0.615212 -8.44815e-19)
(0.257303 0.678563 -2.50629e-18)
(1.89547 -0.944738 -1.32536e-19)
(1.42843 -1.00414 1.89493e-19)
(1.28872 -0.479818 4.77798e-21)
(-0.0566142 0.613986 1.90373e-19)
(0.475218 0.634987 4.12534e-19)
(2.08388 -1.0021 4.32887e-19)
(1.61491 -0.95931 -1.48287e-19)
(1.30258 -0.444487 7.05448e-20)
(-0.850175 0.0378591 -3.74986e-19)
(1.26419 0.275519 1.98244e-18)
(2.37956 -1.00715 0)
(1.65944 -0.899234 -5.89697e-20)
(1.27894 -0.394798 9.57804e-21)
(0.937504 -0.0787811 -2.14862e-19)
(1.93824 -0.12611 -4.2526e-19)
(2.62712 -0.907348 -1.38602e-20)
(1.8114 -0.739471 7.64354e-20)
(1.29065 -0.336617 -2.75285e-20)
(1.81098 0.183505 -7.42427e-21)
(2.46364 -0.205655 7.69854e-19)
(2.59409 -0.868209 -8.71891e-21)
(1.6108 -0.52245 2.78978e-21)
(1.09807 -0.176671 0)
(2.00953 0.0381864 -2.49255e-19)
(2.61202 -0.356857 -1.22052e-20)
(2.1006 -0.558635 5.58656e-19)
(1.4265 -0.282263 9.11554e-22)
(1.11278 -0.131225 -4.31742e-20)
(2.06003 0.0198495 5.52715e-20)
(2.40888 -0.270225 1.43972e-19)
(1.65923 -0.419265 -2.8755e-21)
(1.05978 -0.158762 -4.23005e-34)
(0.795042 -0.0456837 3.37291e-20)
(1.58275 -0.0586048 6.03817e-20)
(1.20835 -0.114758 9.57383e-20)
(0.464574 0.0213882 -8.20765e-20)
(0.176967 -0.0157512 -1.55873e-20)
(0.00218082 -0.0226612 1.07793e-20)
(2.32689 0.254431 -7.95583e-19)
(2.46903 0.0862592 -9.70837e-19)
(2.41917 0.0809072 6.89866e-19)
(2.49663 -0.0313155 5.2405e-20)
(2.05048 0.0337505 -5.77869e-20)
(2.14255 0.116259 6.85135e-20)
(2.22453 0.121197 -3.70702e-20)
(2.27795 -0.0612948 -1.20254e-19)
(2.28131 -0.0156943 -2.18504e-19)
(2.31611 -0.263644 -4.4446e-21)
(2.09658 0.0277953 7.31825e-20)
(2.10315 0.102799 8.6323e-20)
(2.20012 -0.0938703 -9.88013e-20)
(2.15001 0.000291232 3.47788e-20)
(2.25336 -0.189463 1.60163e-20)
(2.00079 -0.0044417 1.0901e-19)
(2.03669 0.0530211 1.45447e-19)
(2.10394 -0.0673523 -1.75848e-20)
(2.09135 -0.00317771 -5.78989e-20)
(2.17174 -0.115347 2.41392e-20)
(1.43835 -0.0126521 1.73959e-19)
(1.4872 -0.013593 -1.13469e-20)
(1.46042 -0.0208318 1.72383e-20)
(1.50062 -0.0241741 -3.407e-20)
(1.46787 -0.0281105 -2.146e-20)
(1.53228 0.854425 1.00611e-18)
(1.49522 0.947354 -3.03819e-19)
(1.49465 1.0685 -1.21468e-18)
(1.42418 1.10589 6.76037e-19)
(0.87552 0.789184 -1.69065e-19)
(1.79905 0.794269 -5.28786e-19)
(1.77466 0.87423 -2.81183e-18)
(1.78217 0.980811 -1.0911e-18)
(1.69149 0.985112 -3.8418e-19)
(1.0251 0.673874 -6.13235e-19)
(2.08119 0.695391 7.0912e-19)
(2.06468 0.756524 1.81748e-19)
(2.04534 0.833406 -2.15231e-18)
(1.90414 0.813225 -5.81815e-19)
(1.1036 0.518668 4.17155e-19)
(2.22833 0.568589 2.17547e-18)
(2.22905 0.617706 1.57317e-18)
(2.21903 0.661821 -1.79359e-18)
(1.98901 0.611162 -1.33557e-18)
(1.05862 0.333558 -2.33154e-19)
(2.38359 0.418637 1.01853e-18)
(2.37717 0.439802 -7.30676e-19)
(2.27584 0.453715 5.27455e-19)
(1.92071 0.389345 4.01076e-19)
(0.859672 0.138276 -3.30488e-19)
(0.579254 0.387599 -7.21947e-19)
(0.489694 0.41944 -5.94394e-19)
(0.369976 0.452109 7.93843e-20)
(0.229342 0.458166 -2.87561e-20)
(0.0556051 0.328039 6.44938e-20)
(0.671257 0.565663 5.13714e-20)
(0.606022 0.621406 -3.22158e-19)
(0.515796 0.686531 1.67297e-19)
(0.387807 0.739915 -7.73007e-20)
(0.164852 0.564183 1.11009e-19)
(0.772165 0.762575 2.05732e-19)
(0.696992 0.839449 3.95891e-19)
(0.635584 0.93438 5.30748e-20)
(0.547891 0.983815 -2.66769e-19)
(0.29796 0.733464 2.15543e-19)
(1.03877 0.856076 1.99963e-19)
(0.988226 0.94161 -5.8562e-19)
(0.933329 1.03915 -1.73382e-18)
(0.845641 1.10376 7.104e-19)
(0.496938 0.823068 -1.74981e-19)
(1.14123 0.897384 -1.2884e-19)
(1.15746 1.01589 -2.0278e-19)
(1.17129 1.13163 -3.12758e-19)
(1.11366 1.16742 -3.64878e-19)
(0.683925 0.844701 -6.03382e-21)
(1.00712 0.0491483 -8.03907e-20)
(0.994846 0.00511984 -3.01527e-20)
(1.05202 0.117827 -1.4111e-21)
(0.943387 0.109556 -1.92363e-19)
(0.893305 0.228425 2.85587e-19)
(0.993428 0.0483638 4.93915e-20)
(1.0129 -0.00287471 1.12721e-19)
(1.03939 0.129937 9.69167e-20)
(0.967162 0.136026 2.08511e-20)
(0.926374 0.309109 2.34603e-20)
(0.99856 0.0474571 6.50402e-20)
(1.00304 -0.0123931 -4.37773e-21)
(1.07984 0.147712 -3.71335e-21)
(0.913634 0.142484 1.44655e-19)
(1.12516 0.444887 -4.0791e-19)
(0.993043 0.0466323 -3.60365e-22)
(1.02827 -0.024266 -1.67597e-19)
(1.06778 0.174116 -5.53483e-20)
(0.989155 0.146485 -3.46299e-19)
(1.16939 0.485073 8.50862e-20)
(0.994127 0.036924 -1.01114e-20)
(1.0361 -0.0208389 5.02451e-20)
(1.10148 0.178862 2.7144e-20)
(0.972619 0.171144 4.30029e-19)
(1.3715 0.620847 -4.00278e-19)
(0.960941 0.0343253 -1.68023e-21)
(1.11498 -0.0462605 9.88954e-20)
(1.05893 0.217543 -6.83697e-20)
(1.19312 0.113152 8.49579e-19)
(1.34964 0.627163 -3.75903e-19)
(0.911264 -0.000638323 -1.52709e-21)
(1.21434 -0.0355926 -8.02042e-20)
(0.93476 0.159608 4.52947e-21)
(1.31959 0.0792961 -3.02978e-19)
(1.36283 0.426185 1.26023e-20)
(0.980445 -0.024088 -1.44613e-21)
(1.13764 -0.0218694 1.20864e-35)
(0.983487 0.147019 -1.49436e-20)
(1.28543 0.00624714 8.97177e-20)
(1.34539 0.325411 1.4365e-19)
(1.10275 -0.0673863 3.95305e-21)
(0.894335 -0.0120272 -2.83701e-20)
(1.18707 0.0720669 1.78703e-20)
(1.19006 -0.0193517 2.88301e-20)
(1.36547 0.198051 -2.0846e-19)
(0.986413 -0.0239331 -4.24293e-20)
(0.702131 -0.0159254 -5.15577e-21)
(1.00504 -0.00291688 1.87208e-20)
(0.782281 -0.0148234 -1.43723e-20)
(1.03039 0.0660583 -4.67251e-20)
(1.74264 0.665229 2.94068e-19)
(1.85378 0.642584 7.11064e-19)
(2.07235 0.554239 -9.92689e-19)
(2.15145 0.483563 3.77205e-20)
(2.32747 0.323392 4.21714e-19)
(1.65925 0.493736 3.53542e-20)
(1.73333 0.422683 9.15941e-19)
(1.87959 0.420395 9.02314e-20)
(1.96167 0.286904 -8.44253e-19)
(2.08129 0.267237 -2.67037e-19)
(1.6205 0.355933 -1.92196e-19)
(1.7184 0.268396 -1.39719e-19)
(1.82427 0.292033 2.0888e-19)
(1.93112 0.153196 -2.76467e-19)
(1.9952 0.198587 2.51277e-19)
(1.63847 0.205363 3.1562e-19)
(1.70086 0.147828 -2.76357e-21)
(1.80874 0.162344 2.12093e-19)
(1.86409 0.0725589 1.82668e-19)
(1.94523 0.107623 -1.79116e-19)
(1.24516 0.0539374 -3.82342e-20)
(1.29777 0.0362905 2.14883e-19)
(1.37202 0.0272258 9.95235e-20)
(1.38988 0.00727698 -2.11016e-19)
(1.4497 0.00205617 3.42615e-22)
(1.4136 -0.0364113 7.88275e-20)
(2.52464 -0.0151792 -6.18078e-19)
(2.74553 -0.0102548 1.64741e-18)
(2.71818 0.0420628 7.64628e-19)
(2.46389 0.0485712 -5.16876e-19)
(0.946549 0.107837 1.73438e-19)
(2.31508 0.136832 -6.59877e-19)
(2.73713 0.147346 -9.36221e-19)
(2.73809 0.156007 1.27198e-18)
(2.55282 0.155339 -9.35437e-19)
(0.322921 0.111847 -2.35486e-20)
(1.70623 0.229621 7.82e-19)
(2.47856 0.28263 1.27053e-19)
(2.7853 0.297977 1.32693e-18)
(2.74698 0.266997 7.42509e-19)
(-0.0226212 -0.00387732 2.70519e-19)
(0.78463 0.178842 3.03738e-19)
(1.72757 0.305896 -8.98328e-19)
(2.30266 0.376693 8.46942e-20)
(2.7913 0.416335 7.5335e-19)
(-0.117152 -0.0940278 2.10806e-19)
(0.117013 0.0134159 -2.46723e-19)
(0.808689 0.190078 -1.01788e-19)
(1.38555 0.3104 1.75821e-19)
(2.09428 0.493899 9.56751e-20)
(-0.0986886 -0.115752 2.56826e-20)
(-0.109025 -0.129043 1.57375e-19)
(0.200299 -0.0623808 5.08189e-20)
(0.439074 0.0265508 -5.48539e-20)
(1.2934 0.297567 5.34417e-21)
(-0.0815962 -0.143416 -2.33611e-20)
(-0.136279 -0.267647 -1.10031e-19)
(-0.0387621 -0.280068 8.93287e-21)
(0.0590004 -0.19924 -6.81561e-21)
(0.525528 0.133708 2.19949e-20)
(-0.0723136 -0.199078 -2.6015e-20)
(-0.110733 -0.371517 5.4681e-20)
(-0.0754234 -0.388233 5.33286e-20)
(-0.00608105 -0.310655 3.68242e-19)
(0.147166 -0.093898 -4.43251e-20)
(-0.0533335 -0.236343 -6.41263e-21)
(-0.0892804 -0.4245 2.97079e-20)
(-0.077325 -0.457763 -2.53235e-19)
(-0.0330498 -0.395539 -3.17002e-19)
(0.0180097 -0.26321 9.41512e-20)
(-0.0218558 -0.234243 1.21486e-20)
(-0.0388629 -0.442259 -3.09629e-20)
(-0.0310466 -0.499853 1.2788e-20)
(-0.00956889 -0.447184 -5.20425e-20)
(-0.000658308 -0.315199 -2.37591e-19)
(1.64006 0.743118 -8.06655e-20)
(1.01353 0.481187 -3.78088e-19)
(-0.512406 0.0443172 -1.02271e-19)
(0.397188 -0.420085 5.83707e-19)
(0.969233 -0.126445 4.37447e-21)
(1.49781 0.738699 6.34352e-20)
(0.94305 0.7204 1.6668e-18)
(-0.49518 0.0327365 -1.0115e-19)
(0.257988 -0.694041 1.73218e-20)
(1.03257 -0.21562 -1.02551e-20)
(1.50614 0.548641 6.40146e-20)
(0.81457 0.98231 2.14697e-18)
(0.109911 0.130261 1.3098e-19)
(0.372762 -0.826781 -3.26955e-19)
(1.06161 -0.306482 8.68487e-21)
(0.879803 0.45568 -6.28841e-19)
(-0.450057 1.08589 -2.91008e-18)
(0.78808 0.0516166 -3.88141e-19)
(0.730864 -0.891171 1.47961e-20)
(1.15465 -0.383339 -6.06231e-20)
(0.330946 0.599227 -3.42595e-19)
(-1.48336 1.01138 -3.69595e-19)
(1.06537 -0.340412 1.01975e-18)
(0.887959 -0.97215 -8.57865e-20)
(1.25834 -0.433691 -1.84687e-19)
(-0.251186 0.109022 -4.9282e-20)
(-0.458624 -0.186641 0)
(-0.662475 -0.13392 -8.49055e-20)
(0.06977 -0.107274 2.85136e-20)
(0.469487 -0.0281701 -2.02683e-20)
(1.82415 0.678225 0)
(1.17703 0.36712 0)
(-0.0637738 -0.0190371 3.47364e-19)
(0.489338 -0.250143 -1.8621e-19)
(0.838658 -0.0888638 4.92217e-21)
(0.784129 0.00714924 -1.38853e-19)
(0.873122 -0.000516897 3.47007e-19)
(0.996896 0.0456843 -3.14005e-20)
(0.901836 0.0114969 3.99542e-19)
(1.29394 0.214452 2.43717e-19)
(1.77044 0.0447678 1.3447e-19)
(2.01536 0.0909901 5.15834e-19)
(2.0943 0.181246 -8.55263e-19)
(2.49394 0.271577 3.14562e-19)
(2.49159 0.423927 5.46742e-19)
(0.9945 -0.545338 4.65882e-20)
(0.985215 -0.646345 -2.29438e-19)
(0.985224 -0.75643 -2.1234e-19)
(0.921129 -0.83592 1.25639e-19)
(0.56963 -0.666929 1.53493e-19)
(0.889607 -0.456823 1.03372e-19)
(0.834234 -0.529524 1.13251e-19)
(0.757777 -0.607452 -1.30193e-19)
(0.640689 -0.676555 1.57909e-19)
(0.358168 -0.544601 3.53007e-20)
(0.693576 -0.320493 -1.09067e-19)
(0.601751 -0.36712 -6.30561e-20)
(0.501271 -0.42668 -3.4382e-20)
(0.386248 -0.48013 -6.18321e-20)
(0.183872 -0.383876 -1.46947e-19)
(0.582481 -0.0888245 -4.39283e-19)
(0.498023 -0.111744 -3.50926e-19)
(0.389009 -0.146077 2.88639e-19)
(0.260215 -0.186584 1.40035e-19)
(0.0837266 -0.166751 1.30113e-20)
(0.547166 0.119638 -1.35659e-19)
(0.461808 0.117324 -1.57535e-19)
(0.343652 0.111161 -3.51197e-20)
(0.202711 0.108307 6.18933e-20)
(0.0366493 0.0788626 1.5383e-20)
(2.29344 -0.0236028 1.0286e-18)
(2.51192 -0.102002 3.79685e-19)
(2.60828 -0.197604 -9.56685e-19)
(2.49715 -0.224041 -2.05812e-18)
(1.55687 -0.227879 1.52447e-19)
(2.18883 -0.135039 1.69907e-18)
(2.31965 -0.253122 2.2065e-18)
(2.35631 -0.385958 1.83043e-19)
(2.29284 -0.449835 3.1711e-19)
(1.50986 -0.428673 -2.12498e-19)
(1.92889 -0.31052 -4.29121e-18)
(1.97777 -0.436543 4.8991e-19)
(2.01746 -0.573469 1.36547e-18)
(1.97827 -0.661631 -5.53324e-19)
(1.31494 -0.590211 8.7976e-19)
(1.65062 -0.446355 1.0594e-18)
(1.67202 -0.555138 -2.78066e-18)
(1.67702 -0.687404 -3.21569e-18)
(1.62415 -0.789676 1.01576e-18)
(1.0668 -0.675108 6.58282e-19)
(1.35356 -0.517351 2.43035e-19)
(1.30651 -0.62069 3.01392e-19)
(1.29464 -0.753419 -4.95146e-19)
(1.24243 -0.853722 -6.02875e-19)
(0.798935 -0.69848 -5.83353e-21)
(1.05888 0.0525653 6.88297e-21)
(0.942701 0.0437062 1.45178e-21)
(1.13637 0.0701204 9.22023e-21)
(0.83801 -0.0148704 -2.69557e-19)
(1.20554 -0.249801 -2.19498e-20)
(1.06851 0.0553467 -2.31028e-21)
(0.936415 0.0376468 2.45618e-20)
(1.13227 0.088127 6.86208e-21)
(0.910406 0.0244245 2.28459e-19)
(1.06527 -0.13486 6.30231e-21)
(1.06589 0.0522945 -5.48807e-20)
(0.938869 0.0289133 3.22953e-23)
(1.1154 0.0915271 -3.41066e-21)
(0.90234 0.0415516 1.17588e-19)
(1.01654 -0.0768695 -2.82042e-19)
(1.04727 0.051104 6.49325e-20)
(0.962433 0.02083 2.58324e-21)
(1.07772 0.0977755 1.79685e-20)
(0.939283 0.0673289 -5.0934e-20)
(0.895021 0.0336628 5.58017e-20)
(1.02175 0.0488695 1.59712e-20)
(0.988719 0.0149412 -2.34581e-20)
(1.04806 0.105446 2.86253e-20)
(0.955644 0.091563 4.2638e-20)
(0.856794 0.128141 -5.03237e-21)
(0.886348 0.0334816 0)
(0.720616 0.0271222 8.05972e-21)
(0.629709 0.0207833 7.09594e-21)
(0.381824 -0.0113608 5.75711e-20)
(0.763414 -0.0633214 -1.86744e-19)
(1.0279 0.0728796 -6.18838e-20)
(0.952449 0.0639786 1.28468e-21)
(1.05041 0.0726242 -6.93968e-20)
(0.842764 -0.0133438 -1.59885e-19)
(1.12409 -0.22857 -1.94811e-19)
(1.07302 -0.0680224 -4.27531e-20)
(1.16562 -0.037918 6.27066e-19)
(1.28049 0.0377846 3.75146e-19)
(1.14151 0.0648553 2.92683e-20)
(0.894529 0.0355785 0)
(1.43213 -0.340569 4.23442e-19)
(1.56279 -0.299692 1.80927e-18)
(1.76798 -0.173714 -1.97788e-18)
(1.8651 -0.0207493 -6.35045e-19)
(1.8242 0.0411652 4.71624e-19)
)
;

boundaryField
{
    left
    {
        type            fixedValue;
        value           uniform (1 0 0);
    }
    right
    {
        type            zeroGradient;
    }
    down
    {
        type            noSlip;
    }
    up
    {
        type            noSlip;
    }
    cylinder
    {
        type            noSlip;
    }
    defaultFaces
    {
        type            empty;
    }
}


// ************************************************************************* //
