/*--------------------------------*- C++ -*----------------------------------*\
  =========                 |
  \\      /  F ield         | OpenFOAM: The Open Source CFD Toolbox
   \\    /   O peration     | Website:  https://openfoam.org
    \\  /    A nd           | Version:  13
     \\/     M anipulation  |
\*---------------------------------------------------------------------------*/
FoamFile
{
    format      ascii;
    class       volScalarField;
    location    "30.1";
    object      p;
}
// * * * * * * * * * * * * * * * * * * * * * * * * * * * * * * * * * * * * * //

dimensions      [0 2 -2 0 0 0 0];

internalField   nonuniform List<scalar> 
440
(
-1.13498
-1.15962
-1.2167
-1.22107
-1.27596
-1.06489
-1.05316
-1.05816
-1.07176
-1.08344
-1.14863
-1.11292
-1.07988
-1.04388
-1.00099
-1.25788
-1.20696
-1.1232
-1.02285
-0.920024
-1.3341
-1.26619
-1.1184
-0.964145
-0.822367
-1.14929
-1.12661
-1.09817
-1.07344
-1.04746
-1.13556
-1.11889
-1.10214
-1.09341
-1.08851
-1.06601
-1.07735
-1.10344
-1.12129
-1.12827
-0.886079
-0.934361
-1.0133
-1.0704
-1.08833
-0.866627
-0.9537
-1.06047
-1.1239
-1.14709
-0.975733
-1.18615
-1.18197
-1.37735
0.0702176
-1.16083
-1.04713
-0.976933
-1.33846
0.0344904
-1.10703
-0.782553
-0.814073
-1.22626
-0.00423837
-0.86222
-0.481026
-0.714379
-1.02501
-0.0427654
-0.700196
-0.148032
-0.698988
-0.844105
-0.076372
-0.456236
0.119345
-0.796366
-0.675353
-0.109452
-0.227825
-0.0510958
-0.626319
-0.452994
-0.116419
-0.293837
0.186504
-0.351585
-0.290824
-0.120848
-0.253925
0.309689
-0.161336
-0.232765
-0.126675
-0.212601
0.349731
0.0393372
-0.150652
-0.130094
-0.580338
-0.716358
-0.894842
-1.07232
-1.25293
-0.332756
-0.4535
-0.533519
-0.558995
-0.553324
-0.163598
-0.266477
-0.33305
-0.372813
-0.389011
-0.0591582
-0.16114
-0.231129
-0.277705
-0.295814
-0.012351
-0.114729
-0.184881
-0.230258
-0.240629
0.733222
0.596735
0.423537
0.224053
-0.00517219
0.327607
0.176249
-0.0126578
-0.229337
-0.476892
-0.0728392
-0.233046
-0.435285
-0.666139
-0.888755
-0.415354
-0.582616
-0.786624
-1.00725
-1.17906
-0.661927
-0.825419
-1.01339
-1.20933
-1.32007
1.95299
1.98523
2.01707
2.03625
2.03779
1.76598
1.78706
1.80414
1.80544
1.78595
1.53738
1.53084
1.50331
1.45343
1.37763
1.27503
1.24237
1.17679
1.08086
0.954646
1.01609
0.924379
0.800712
0.651694
0.468581
1.69349
1.68092
1.67626
1.72425
1.8346
1.68339
1.66823
1.65832
1.6957
1.74932
1.67428
1.6526
1.63784
1.65492
1.64241
1.66635
1.6341
1.61455
1.60464
1.48497
1.65948
1.61578
1.58938
1.54807
1.31395
1.65392
1.58383
1.55547
1.45204
1.12591
1.65132
1.54645
1.52762
1.35832
1.13271
1.65817
1.52677
1.50176
1.30145
1.06809
1.64898
1.50582
1.48843
1.264
1.01136
1.68874
1.49778
1.48669
1.24499
0.986127
0.700151
0.407031
0.0729562
-0.208285
-0.412535
0.632079
0.42232
0.193157
-0.00862667
-0.184483
0.638806
0.473889
0.298139
0.128648
-0.0297483
0.675655
0.535127
0.380428
0.218346
0.0690927
0.696045
0.565117
0.418467
0.258767
0.115217
-1.58758
-1.42677
-1.2456
-1.09438
-1.00452
-1.62854
-1.55956
-1.41811
-1.2971
-1.21776
-1.52657
-1.47671
-1.38731
-1.30119
-1.23326
-1.35203
-1.30699
-1.25562
-1.20461
-1.15819
-1.19534
-1.17345
-1.13999
-1.11623
-1.1186
-1.10058
-1.09485
-1.05522
-1.07584
-1.03616
-1.06802
-1.05948
-1.03475
-1.03205
-1.00497
-1.07731
-1.06717
-1.04744
-1.02411
-1.01502
-1.10535
-1.09248
-1.07313
-1.05386
-1.05233
-1.12808
-1.10902
-1.08005
-1.0518
-1.02647
-1.01997
-0.703712
-0.715849
-0.738641
0.177086
-0.992687
-0.701538
-0.83849
-0.837742
0.163367
-0.871068
-0.778141
-1.02423
-1.05715
0.147582
-0.816529
-0.986947
-1.20445
-1.2617
0.127364
-0.775216
-1.17739
-1.2905
-1.37252
0.101878
-0.421063
-0.830911
-0.715471
-0.705285
0.200031
-0.898924
-0.796408
-0.646963
-0.712033
0.190356
-0.954019
-1.18024
-1.15977
-1.10399
-0.837777
-0.974398
-1.18106
-1.18323
-1.11569
-1.09098
1.6295
1.60041
1.55254
1.48721
1.40167
1.8081
1.82628
1.8273
1.80969
1.77453
1.9614
1.99269
2.01419
2.02219
2.01581
2.04481
2.08427
2.12587
2.15997
2.17548
2.04449
2.08283
2.12529
2.16085
2.17742
-0.541559
-0.65641
-0.836507
-1.05224
-1.31171
0.0740196
-0.0718529
-0.266226
-0.501121
-0.80674
0.63204
0.480527
0.298871
0.0839165
-0.191358
1.07714
0.959638
0.8166
0.642104
0.427923
1.43015
1.34757
1.23877
1.10757
0.952801
1.758
1.71587
1.71373
1.72752
1.75626
1.74241
1.7122
1.71106
1.74128
1.8129
1.72892
1.707
1.70913
1.75564
1.88529
1.71623
1.70037
1.7017
1.75592
1.88928
1.70439
1.69192
1.69044
1.74568
1.88012
1.81391
1.72234
1.70356
1.65469
1.64272
1.76854
1.71317
1.69791
1.67515
1.6457
1.3122
1.09361
0.70324
0.12686
-0.506291
1.39689
1.12626
0.71734
0.14635
-0.498581
)
;

boundaryField
{
    left
    {
        type            zeroGradient;
    }
    right
    {
        type            fixedValue;
        value           uniform 0;
    }
    down
    {
        type            zeroGradient;
    }
    up
    {
        type            zeroGradient;
    }
    cylinder
    {
        type            zeroGradient;
    }
    defaultFaces
    {
        type            empty;
    }
}


// ************************************************************************* //
