/*--------------------------------*- C++ -*----------------------------------*\
  =========                 |
  \\      /  F ield         | OpenFOAM: The Open Source CFD Toolbox
   \\    /   O peration     | Website:  https://openfoam.org
    \\  /    A nd           | Version:  13
     \\/     M anipulation  |
\*---------------------------------------------------------------------------*/
FoamFile
{
    format      ascii;
    class       volScalarField;
    location    "7.135";
    object      p;
}
// * * * * * * * * * * * * * * * * * * * * * * * * * * * * * * * * * * * * * //

dimensions      [0 2 -2 0 0 0 0];

internalField   nonuniform List<scalar> 
440
(
-0.83941
-0.823851
-0.833078
-0.819358
-0.90537
-0.871292
-0.852059
-0.833213
-0.814866
-0.807035
-0.966372
-0.932489
-0.891566
-0.84376
-0.792403
-1.08153
-1.02935
-0.93992
-0.833681
-0.726551
-1.15617
-1.08656
-0.934899
-0.779268
-0.637838
-0.448773
-0.450795
-0.455193
-0.46126
-0.467143
-0.50333
-0.510898
-0.523844
-0.539117
-0.550945
-0.608388
-0.62067
-0.642822
-0.672811
-0.697461
-0.758035
-0.774089
-0.806437
-0.857008
-0.924076
-0.826049
-0.829507
-0.84302
-0.859279
-0.905319
-0.494495
-0.314492
-0.586393
-0.229317
-0.309506
-0.525954
-0.234076
-0.754949
-0.187751
-0.304155
-0.551385
0.00790279
-0.752303
-0.216506
-0.246378
-0.594658
0.362235
-0.500591
-0.370313
-0.186831
-0.666003
0.594538
-0.175414
-0.499158
-0.149518
-0.478822
0.739995
0.120518
-0.565114
-0.131257
-0.194827
0.490159
0.247211
-0.343796
-0.119244
-0.145567
0.499993
0.467575
-0.0614046
-0.100979
-0.0421971
0.533522
0.547453
0.0553578
-0.0985551
0.00232101
0.557963
0.656259
0.222479
-0.0904827
-0.397602
-0.519605
-0.703167
-0.873115
-1.01679
-0.143887
-0.26903
-0.358277
-0.409852
-0.419884
0.0314088
-0.0799555
-0.144612
-0.191866
-0.214037
0.134437
0.0300013
-0.0391523
-0.0829336
-0.0993173
0.178041
0.0742458
0.00517654
-0.0365689
-0.0432717
1.03652
0.888525
0.698983
0.485662
0.250039
0.599997
0.440453
0.246212
0.0245422
-0.229503
0.176202
0.0133705
-0.193123
-0.424322
-0.660512
-0.200383
-0.368559
-0.573976
-0.796182
-0.976487
-0.460162
-0.626137
-0.817328
-1.01797
-1.13381
2.22349
2.25372
2.28135
2.29518
2.29175
2.0204
2.04039
2.05469
2.05189
2.02786
1.78602
1.77536
1.74209
1.6859
1.60302
1.52162
1.4886
1.42063
1.32141
1.19191
1.28214
1.17962
1.04646
0.891391
0.701887
1.99189
1.98029
1.96962
2.0285
2.11087
1.98082
1.96637
1.94833
1.99971
2.01246
1.97075
1.9492
1.92477
1.95857
1.88988
1.96194
1.92941
1.89882
1.90678
1.71224
1.95438
1.90915
1.87154
1.84937
1.52803
1.94832
1.87608
1.83632
1.74545
1.32167
1.94571
1.84078
1.81541
1.6431
1.39509
1.95165
1.82114
1.79935
1.58323
1.3866
1.9439
1.79801
1.79247
1.5331
1.3476
1.98208
1.78852
1.79024
1.5055
1.33028
0.994698
0.675676
0.319599
-0.0012327
-0.206955
0.889278
0.661361
0.416996
0.195466
0.0101417
0.870461
0.686586
0.499187
0.326575
0.162143
0.89834
0.730747
0.563812
0.40738
0.258367
0.919473
0.758375
0.599558
0.44774
0.302798
-0.845609
-0.717438
-0.562047
-0.436177
-0.362053
-0.877164
-0.820815
-0.707009
-0.615671
-0.564107
-0.77714
-0.73091
-0.66947
-0.622308
-0.596986
-0.613511
-0.576152
-0.539233
-0.51255
-0.498465
-0.490337
-0.470678
-0.446659
-0.429103
-0.452451
-0.415531
-0.405187
-0.380055
-0.364047
-0.346753
-0.415417
-0.404324
-0.382653
-0.363622
-0.363915
-0.449439
-0.438549
-0.424509
-0.413231
-0.410374
-0.465009
-0.457854
-0.453154
-0.454368
-0.457586
-0.454063
-0.450577
-0.449227
-0.451798
-0.455441
-0.444855
-0.453096
-0.127854
-0.0452942
-0.00744639
-0.412349
-0.419133
-0.119347
-0.0609855
-0.0219093
-0.410474
-0.437093
-0.153771
-0.106929
-0.0731513
-0.470669
-0.442486
-0.247483
-0.169392
-0.159779
-0.480144
-0.389791
-0.395331
-0.218919
-0.252828
-0.022594
-0.534238
-0.248905
-0.0826707
-0.00513815
-0.352787
-0.545734
-0.17594
-0.0403147
0.00218323
-0.320035
-0.551626
-0.577266
-0.53395
-0.313964
-0.33815
-0.546924
-0.589358
-0.514197
-0.516125
1.99136
1.97047
1.93244
1.87834
1.80688
2.15242
2.17363
2.17915
2.16773
2.14055
2.28482
2.31831
2.3436
2.35676
2.3561
2.35206
2.39164
2.43281
2.46639
2.48197
2.32978
2.36699
2.40819
2.44252
2.45821
0.0528518
-0.0455196
-0.201378
-0.390391
-0.60633
0.610325
0.48041
0.306396
0.097139
-0.165066
1.10656
0.970486
0.808507
0.617639
0.379521
1.50097
1.39769
1.27076
1.1157
0.928505
1.81337
1.74145
1.6469
1.53343
1.40024
2.0608
2.0198
2.01961
2.04444
2.0866
2.0445
2.01488
2.01529
2.05312
2.13179
2.03006
2.00871
2.01095
2.06464
2.18974
2.01646
2.00134
2.00121
2.06269
2.18782
2.00372
1.99224
1.98708
2.05077
2.16639
2.11698
2.02919
2.01238
1.97866
1.98164
2.07216
2.01873
2.00534
1.99329
1.98735
1.70569
1.51738
1.17142
0.655207
0.0816075
1.78176
1.54439
1.18381
0.673156
0.0900089
)
;

boundaryField
{
    left
    {
        type            zeroGradient;
    }
    right
    {
        type            fixedValue;
        value           uniform 0;
    }
    down
    {
        type            zeroGradient;
    }
    up
    {
        type            zeroGradient;
    }
    cylinder
    {
        type            zeroGradient;
    }
    defaultFaces
    {
        type            empty;
    }
}


// ************************************************************************* //
