/*--------------------------------*- C++ -*----------------------------------*\
  =========                 |
  \\      /  F ield         | OpenFOAM: The Open Source CFD Toolbox
   \\    /   O peration     | Website:  https://openfoam.org
    \\  /    A nd           | Version:  13
     \\/     M anipulation  |
\*---------------------------------------------------------------------------*/
FoamFile
{
    format      ascii;
    class       volScalarField;
    location    "1";
    object      p;
}
// * * * * * * * * * * * * * * * * * * * * * * * * * * * * * * * * * * * * * //

dimensions      [0 2 -2 0 0 0 0];

internalField   nonuniform List<scalar> 
440
(
7.82931
10.5857
12.9481
13.1295
10.1529
20.7189
24.1022
27.0976
27.798
25.9097
41.2553
44.2866
46.9897
47.7823
46.6212
67.3881
69.4859
71.3993
72.0559
71.3684
96.6644
97.4813
98.2783
98.6784
98.6448
-0.448271
-0.548614
-0.0774113
0.483988
0.827308
-1.66777
-2.33599
-2.07843
-1.38421
-0.746814
-2.01153
-2.8952
-2.82104
-2.06969
-0.953666
-0.673061
-0.806476
-0.40378
0.557242
2.4203
3.0879
4.39912
5.82756
7.25755
9.50596
2.0898
2.2683
1.33664
0.682593
0.241675
1.06415
2.0828
1.22078
0.623766
0.239974
-0.0887434
1.67161
1.09315
0.578078
0.231655
-0.400988
1.06538
0.882773
0.546707
0.215993
1.50454
0.473709
0.599052
0.486414
0.186261
4.3738
0.24529
0.35008
0.411286
0.137482
6.72058
0.710888
0.453354
0.406718
0.0730973
9.9852
2.44834
1.09576
0.54101
0.0398488
13.8732
4.74614
2.13728
0.825649
0.052675
16.6089
7.10714
3.45662
1.3172
0.16168
100.689
75.8402
53.3244
33.1491
12.346
102.384
78.9429
57.5378
39.0579
23.484
104.285
82.7024
62.4756
45.2356
32.889
105.168
85.0213
66.503
51.1837
40.6573
105.087
84.7439
66.3289
51.2513
40.8968
219.868
216.386
216.09
218.205
220.937
202.689
200.221
200.48
203.22
206.512
180.541
178.767
179.131
181.553
184.432
154.742
153.399
153.604
155.197
157.094
126.861
126.147
126.087
126.547
127.139
235.601
236.033
236.677
237.107
236.855
236.159
236.798
237.359
237.34
236.389
234.934
235.91
236.326
236.053
235.067
230.045
231.643
232.204
232.338
232.246
221.565
223.426
224.435
225.641
226.995
235.711
234.736
234.895
234.153
234.284
235.674
234.719
234.843
234.106
234.8
235.662
234.676
234.777
234.212
235.306
235.663
234.609
234.765
234.461
234.891
235.67
234.52
234.831
234.658
232.207
235.688
234.371
234.877
234.432
228.726
235.889
234.23
234.766
233.931
226.354
236.801
234.001
234.143
232.251
223.333
240.852
233.977
232.966
229.796
219.663
249.824
234.706
231.744
227.252
216.913
217.762
196.236
175.027
151.733
126.447
207.365
191.369
172.324
150.421
126.652
198.877
186.197
168.615
148.088
126.334
191.745
180.785
165.1
146.262
125.92
191.528
180.766
165.355
146.661
126.151
96.3967
95.5199
95.0722
94.3052
94.1486
57.3144
55.3675
53.6621
51.7403
50.9743
29.4834
27.1401
24.3773
22.0782
20.7535
15.0312
12.6146
10.1491
8.12882
7.15823
9.20138
7.3136
5.92689
4.95171
4.36447
5.9705
4.86859
4.28932
4.20108
4.28948
4.06072
3.60176
3.53044
3.68674
3.84061
2.75033
2.73785
2.9727
3.27695
3.43558
1.65084
1.95567
2.40825
2.75937
2.90424
0.607315
1.00318
1.57612
1.97892
2.15367
3.61051
3.17672
2.0628
0.948282
0.267692
3.66388
3.00453
1.97067
0.892923
0.257856
3.46374
2.74135
1.84161
0.842941
0.251452
3.14321
2.49702
1.67852
0.793529
0.248206
2.72902
2.35174
1.49553
0.740077
0.245265
4.47776
3.15873
1.97531
0.993138
0.30369
3.7417
3.25475
2.06461
0.984815
0.281769
94.9042
54.1445
27.5064
14.4825
9.46201
93.683
51.135
22.9827
9.46661
5.25622
232.147
232.229
232.178
231.661
230.583
232.734
232.908
233.137
233.175
232.799
233.298
233.47
233.858
234.255
234.426
233.901
234.053
234.457
235.062
235.482
234.651
234.888
235.394
236.011
236.273
141.982
141.79
140.961
140.451
139.54
185.217
184.408
182.429
180.662
178.685
215.517
214.147
211.797
208.983
206.608
229.154
228.147
226.096
223.598
221.153
232.003
231.388
230.416
229.033
227.134
238.825
234.45
234.525
233.518
232.9
237.12
234.493
234.614
233.685
232.917
236.351
234.583
234.718
233.909
233.247
235.976
234.666
234.822
234.114
233.63
235.793
234.719
234.889
234.203
233.95
252.268
235.79
234.881
233.455
231.983
243.173
234.696
234.463
233.399
232.704
226.939
221.866
208.757
182.04
141.231
231.137
226.894
213.311
185.063
142.454
)
;

boundaryField
{
    left
    {
        type            zeroGradient;
    }
    right
    {
        type            fixedValue;
        value           uniform 0;
    }
    down
    {
        type            zeroGradient;
    }
    up
    {
        type            zeroGradient;
    }
    cylinder
    {
        type            zeroGradient;
    }
    defaultFaces
    {
        type            empty;
    }
}


// ************************************************************************* //
