/*--------------------------------*- C++ -*----------------------------------*\
  =========                 |
  \\      /  F ield         | OpenFOAM: The Open Source CFD Toolbox
   \\    /   O peration     | Website:  https://openfoam.org
    \\  /    A nd           | Version:  13
     \\/     M anipulation  |
\*---------------------------------------------------------------------------*/
FoamFile
{
    format      ascii;
    class       surfaceScalarField;
    location    "1";
    object      phi;
}
// * * * * * * * * * * * * * * * * * * * * * * * * * * * * * * * * * * * * * //

dimensions      [0 3 -1 0 0 0 0];

internalField   nonuniform List<scalar> 
823
(
0.0113783
-0.0505537
0.0391754
0.03876
-0.133435
0.106053
0.0788337
-0.205877
0.165804
0.130172
-0.268871
0.217532
-0.323261
0.259419
0.194014
0.0107034
-0.0612571
0.036144
-0.158875
0.0726492
-0.242383
0.117973
-0.314194
-0.375601
0.170313
0.00837713
-0.0696343
0.0282853
-0.178784
0.0567257
-0.270823
0.0918102
-0.349279
-0.41605
0.132259
0.00529925
-0.0749335
0.0179955
-0.19148
0.0362293
-0.289057
0.0588833
-0.371933
-0.442414
0.0852472
0.00196194
-0.0768955
0.00662993
-0.196148
0.0132895
-0.295716
0.0215216
-0.380165
0.0310616
-0.451954
0.00661006
-0.0107695
0.00415941
0.022117
-0.0309469
0.0154399
0.0452979
-0.0485527
0.0253718
0.0744276
-0.0640014
0.0348717
-0.0770993
0.108065
0.0434615
0.00573668
-0.0165063
0.0214301
-0.0466403
0.0466082
-0.0737308
0.0796209
-0.097014
-0.116139
0.118661
0.00638787
-0.0228942
0.0236359
-0.0638884
0.0511897
-0.101285
0.0878429
-0.133667
-0.160142
0.131846
0.00753527
-0.0304294
0.0270828
-0.0834359
0.0573036
-0.131505
0.0969972
-0.173361
-0.20791
0.144765
0.00874594
0.0313632
0.0656614
0.109833
0.161342
0.322389
-0.958702
0.744378
0.47458
-0.824395
0.672204
0.575469
-0.3586
0.257711
0.62002
-0.0715767
0.0270255
0.00155747
-0.0076619
0.330058
-1.1701
0.47071
-0.965047
0.576751
-0.464641
0.644609
-0.139434
-0.0247698
0.336222
-1.37447
0.460438
-1.08926
0.56242
-0.566622
0.645057
-0.222072
-0.0700099
0.337205
-1.56691
0.447414
-1.19947
0.540425
-0.659634
0.615454
-0.297101
-0.109397
0.327595
-1.73317
0.427819
-1.2997
0.508726
-0.740541
0.571399
-0.359773
-0.13958
1.19773
-1.59058
-1.34032
1.00764
-1.1096
0.884664
-0.617567
0.82344
-0.298549
-0.116081
1.32963
-1.13313
-1.78709
0.981476
-0.761444
0.772627
-0.408718
0.675453
-0.201375
-0.0808619
1.18934
-0.607674
-1.7148
0.816037
-0.388137
0.609897
-0.202578
0.510243
-0.101721
-0.0425358
0.822341
-0.185288
-1.24473
0.545273
-0.111068
0.396279
-0.0535837
0.321917
-0.0273594
-0.0123227
0.306716
-0.492004
0.195648
0.142064
0.114705
1.56259
0.0462488
-1.57778
1.52169
0.126153
1.46267
0.191282
1.39634
0.236634
0.250038
1.67586
0.0356504
-1.66526
1.69931
0.102694
1.7308
0.159794
1.76527
0.202165
0.228224
1.38797
0.0184771
-1.37079
1.43705
0.053608
1.51387
0.0829775
1.61014
0.105892
0.123567
0.977699
0.00531439
-0.964536
1.01588
0.0154233
1.07582
0.0230448
1.15388
0.0278276
0.0327213
0.392987
-0.387673
0.408411
0.431455
0.459283
0.128769
0.327629
-0.264674
-0.191724
0.0781586
0.273215
-0.222604
0.038525
0.209792
-0.170158
0.0113404
0.136442
-0.109257
0.051952
-0.0406116
0.115953
0.378907
-0.167231
0.0714994
0.317669
0.03562
0.245671
0.0105618
0.1615
0.0625138
0.0888496
0.418274
-0.128217
0.0548116
0.351707
0.0272884
0.273194
0.00806524
0.180723
0.070579
0.0552406
0.443533
-0.0804991
0.0337632
0.373184
0.0166552
0.290302
0.00486436
0.192514
0.0754434
0.0174805
-0.025902
0.0104998
0.00508594
0.00145208
0.0727091
0.087386
-0.107371
-0.052724
0.0429354
0.0737586
-0.0439848
0.01976
0.0569813
-0.0338059
0.0051452
0.0368389
-0.0222242
0.0133087
-0.00816348
0.0760111
0.125967
-0.114592
0.0437101
0.10606
0.0196359
0.0810555
0.00508765
0.0513871
0.0183963
0.0843378
0.168601
-0.126972
0.0490479
0.14135
0.0227117
0.107392
0.00616651
0.0679324
0.0245629
0.0940121
0.214701
-0.140112
0.0557418
0.17962
0.0265114
0.136622
0.00742354
0.0870202
0.0319864
0.107383
-0.157356
0.0643983
0.0308621
0.00862517
0.513546
0.177935
-0.295501
0.564328
0.157855
-0.208637
0.498074
0.314173
-0.247919
0.335435
0.802677
-0.640037
1.04199
-0.813923
0.515221
0.0586932
0.56355
0.109526
0.488979
0.388744
0.331631
0.960025
1.25903
0.51613
-0.0614576
0.550545
0.0751121
0.468047
0.471241
0.327993
1.10008
1.46005
0.512733
-0.178211
0.527995
0.0598509
0.442125
0.557111
0.323601
1.2186
1.64353
0.499926
-0.282157
0.49432
0.0654561
0.412266
0.639165
0.311779
1.31909
1.79796
0.761512
-0.439649
0.840236
-0.0132679
0.955921
0.52348
1.16944
1.10557
1.61981
1.34759
0.704821
-0.54045
0.77811
-0.0865569
0.953427
0.348164
1.29746
0.761537
1.14354
1.77373
0.60227
-0.5387
0.632307
-0.116594
0.803155
0.177317
1.17242
0.392271
0.612046
1.70391
0.448528
-0.383207
0.405048
-0.073114
0.535811
0.0465531
0.815994
0.112088
0.186909
1.24113
0.220813
0.147699
0.194252
0.306341
0.493249
1.40261
-0.246739
1.46575
-0.230374
1.523
-0.185465
1.56316
-0.120658
-0.0405262
1.75264
-0.225645
1.71972
-0.19746
1.69061
-0.156349
1.67083
-0.100881
-0.0349546
1.60146
-0.123193
1.50876
-0.104757
1.43456
-0.0821511
1.38705
-0.053374
-0.018696
1.15107
-0.033135
1.07431
-0.0279904
1.0153
-0.0231449
0.977572
-0.0156458
-0.00566049
0.460114
0.432124
0.408979
0.393333
0.00250158
0.043009
-0.0455106
0.00732843
0.101057
-0.105884
0.0160962
0.148403
-0.157171
0.0165795
0.151918
-0.152401
0.114035
0.0148151
-0.11227
0.00682889
0.0361802
0.0201792
0.0877068
0.0409604
0.127622
0.0482581
0.14462
0.116388
0.0459045
0.00880998
0.0273702
0.0270786
0.0694381
0.0521542
0.102547
0.0730971
0.123677
0.114042
0.0754435
0.00780178
0.0195684
0.025515
0.0517249
0.0497512
0.0783106
0.0774358
0.0959927
0.0992468
0.092231
0.00509884
0.0144696
0.0179731
0.0388506
0.0367677
0.0595159
0.0600138
0.0727466
0.0767434
0.0825171
0.00342309
0.0110465
0.0125788
0.0296949
0.0274452
0.0446494
0.0470664
0.0531255
0.0561426
0.0676672
0.00222144
0.00882503
0.00893467
0.0229817
0.0222859
0.0312982
0.0410514
0.03436
0.0347443
0.0624497
0.00168287
0.00714218
0.0101686
0.0144959
0.0262541
0.0152127
0.0468338
0.0137802
0.0114697
0.0701083
0.00378334
0.00335884
0.0176092
0.000670041
0.0369667
-0.0041448
0.0600081
-0.00926121
-0.0144615
0.0859392
0.00751817
0.0236281
0.0448551
0.0704655
0.0994655
0.153991
0.0194727
-0.105796
0.243741
-0.130719
0.0409683
0.265273
-0.0385354
0.0170035
0.269973
0.00463665
-0.00933635
-0.000715127
-0.00519639
0.215068
-0.133146
0.325768
-0.241419
0.352161
-0.0649279
0.354398
0.00239985
-0.00309081
0.260449
-0.323487
0.39199
-0.37296
0.4346
-0.107537
0.435711
0.00128834
-0.000963042
0.293683
-0.53123
0.439383
-0.518661
0.503879
-0.172032
0.510307
-0.00514008
0.00416238
0.312613
0.466157
0.551835
0.573721
0.0707149
0.0386335
-0.109348
0.0787333
-0.00801839
0.0831549
-0.00442158
0.0803961
0.00275887
0.00130387
0.194244
-0.261407
0.227194
0.239776
0.233199
0.0207331
-0.00433173
-0.0164014
0.034284
-0.0135509
0.0567635
-0.0224795
0.0856243
-0.0288608
-0.0237241
0.0539263
-0.043443
0.0862799
0.139244
0.202614
0.0478214
-0.0551595
0.0763613
-0.0690233
0.0275533
-0.0521797
0.0724478
0.0123373
-0.044387
0.059603
0.00331841
-0.0300429
0.0390617
-0.0112608
0.0145792
0.0453513
-0.0322872
-0.0682237
0.0249337
-0.0317622
0.00980864
-0.029262
0.00218692
-0.0224211
-0.00907384
0.0560276
-0.00670921
-0.0816056
0.0330951
-0.00882974
0.0142548
-0.0104217
0.00258015
-0.0107465
-0.00649368
0.0701431
0.0215506
-0.0984029
0.0448542
0.0164591
0.0233738
0.0110587
0.00692084
0.00570654
0.000427145
0.0745269
-0.1057
0.0470012
0.024254
0.00773637
0.0165861
-0.114033
-0.0148234
0.0160951
-0.15191
0.00730704
-0.148383
0.00248927
-0.101066
-0.0430213
0.0482733
-0.116377
-0.0459289
0.0409339
-0.144571
0.020165
-0.127614
0.00682164
-0.0877228
-0.0361997
0.0731265
-0.113971
-0.0755326
0.0521258
-0.12357
0.0270667
-0.102555
0.00880683
-0.0694629
-0.0273929
0.0773409
-0.0989754
-0.0923367
0.0496233
-0.0958527
0.025435
-0.0783668
0.0077762
-0.0518042
-0.0196167
0.0599487
-0.0825627
0.0365437
0.01778
0.00503751
0.341912
0.583347
-0.52928
0.280606
0.224927
-0.163621
0.247099
0.0560995
-0.0225919
0.16521
0.112768
-0.0308798
-0.00111152
0.0972987
0.407667
0.57166
0.371391
0.261202
0.335307
0.0921836
0.233459
0.214616
0.164124
0.459528
0.508112
0.45134
0.26939
0.409023
0.134501
0.283731
0.339908
0.366249
0.494267
0.409824
0.51406
0.249597
0.461474
0.187087
0.318029
0.483353
0.585875
0.510303
0.551263
0.490431
0.333747
0.15867
0.351381
0.0848159
0.0738543
0.0797925
0.0050235
0.0724135
0.00737898
-0.0369835
0.109397
0.332152
0.242386
0.224818
0.201317
0.261632
0.0856732
0.0237238
0.0567955
0.0288777
0.0342951
0.0225004
0.0207366
0.0135585
0.00433524
0.202793
0.139334
0.0863016
0.0539312
)
;

boundaryField
{
    left
    {
        type            calculated;
        value           nonuniform List<scalar> 
17
(
-0.60402
-0.60402
-0.60402
-0.60402
-0.60402
-0.39598
-0.39598
-0.39598
-0.39598
-0.39598
-0.39598
-0.39598
-0.39598
-0.39598
-0.39598
-0.510051
-0.510051
)
;
    }
    right
    {
        type            calculated;
        value           nonuniform List<scalar> 
17
(
0.0790922
0.229306
0.275884
0.356773
0.433583
0.505182
0.570221
0.626125
0.670936
0.690297
0.654841
0.601582
0.799941
0.640234
0.471917
0.291704
0.102382
)
;
    }
    down
    {
        type            calculated;
        value           uniform 0;
    }
    up
    {
        type            calculated;
        value           uniform 0;
    }
    cylinder
    {
        type            calculated;
        value           uniform 0;
    }
    defaultFaces
    {
        type            empty;
    }
}


// ************************************************************************* //
