/*--------------------------------*- C++ -*----------------------------------*\
  =========                 |
  \\      /  F ield         | OpenFOAM: The Open Source CFD Toolbox
   \\    /   O peration     | Website:  https://openfoam.org
    \\  /    A nd           | Version:  13
     \\/     M anipulation  |
\*---------------------------------------------------------------------------*/
FoamFile
{
    format      ascii;
    class       volVectorField;
    location    "1";
    object      U;
}
// * * * * * * * * * * * * * * * * * * * * * * * * * * * * * * * * * * * * * //

dimensions      [0 1 -1 0 0 0 0];

internalField   nonuniform List<vector> 
440
(
(0.218254 -0.176689 -1.8115e-19)
(0.613074 -0.436649 1.07861e-18)
(0.984294 -0.640902 4.23039e-19)
(1.32755 -0.795402 1.24342e-18)
(1.6326 -0.916788 -2.5996e-19)
(0.30489 -0.177681 -5.4445e-19)
(0.81913 -0.428695 -1.01955e-18)
(1.27997 -0.618897 1.14524e-19)
(1.69191 -0.76164 -1.21508e-18)
(2.05375 -0.875127 -1.02099e-18)
(0.384877 -0.152406 -6.98055e-19)
(1.00468 -0.363013 1.58978e-18)
(1.53975 -0.518384 -1.93457e-18)
(2.00471 -0.632634 1.37979e-18)
(2.40594 -0.721483 1.42951e-18)
(0.445865 -0.102745 5.62385e-19)
(1.14609 -0.243083 -1.29949e-18)
(1.73743 -0.344812 -7.50797e-19)
(2.24293 -0.418222 1.96645e-18)
(2.67445 -0.474467 2.50024e-18)
(0.479253 -0.0361581 6.86899e-19)
(1.22363 -0.0847542 1.69138e-19)
(1.84589 -0.119363 2.53128e-18)
(2.37401 -0.143865 -1.062e-18)
(2.82294 -0.162496 -4.83733e-19)
(-0.000948479 -0.051907 2.72525e-19)
(0.0499374 -0.144932 -3.83375e-19)
(0.105837 -0.223199 1.11092e-18)
(0.171337 -0.293175 -1.77146e-19)
(0.239472 -0.354874 -1.60474e-18)
(0.0137145 -0.0844207 -2.63803e-19)
(0.0892396 -0.228144 -4.31391e-19)
(0.174005 -0.350705 1.09981e-19)
(0.268242 -0.450786 5.94506e-20)
(0.364471 -0.531008 -3.55565e-20)
(0.0433471 -0.114283 7.02972e-20)
(0.165443 -0.303268 5.32541e-19)
(0.296123 -0.467609 9.50734e-20)
(0.4328 -0.599199 1.45461e-18)
(0.567843 -0.697861 -2.49366e-20)
(0.0866147 -0.140986 6.69826e-20)
(0.276364 -0.367829 -3.56364e-20)
(0.469487 -0.563064 2.18545e-19)
(0.661408 -0.718648 -2.03223e-18)
(0.844131 -0.830648 9.56366e-19)
(0.142116 -0.161711 -2.35619e-19)
(0.420074 -0.412837 -4.42268e-19)
(0.691402 -0.621477 -7.69638e-19)
(0.950162 -0.782449 9.52477e-19)
(1.18524 -0.892918 3.45082e-18)
(0.592395 -0.593062 -4.02184e-18)
(0.962564 -0.518739 9.76386e-19)
(1.29653 -0.215373 3.63643e-19)
(1.50205 -0.03509 -5.72443e-19)
(1.58112 0.000760269 -5.04407e-20)
(0.785065 -0.744513 4.83092e-18)
(1.04281 -0.625681 -3.07544e-19)
(1.31942 -0.28922 -1.44141e-19)
(1.5429 -0.0839909 3.85803e-19)
(1.69416 -0.0171883 1.18214e-19)
(1.0363 -0.878901 1.54863e-18)
(1.17729 -0.711711 4.05924e-18)
(1.34095 -0.361202 6.8799e-20)
(1.54576 -0.136912 3.59742e-19)
(1.74301 -0.0503876 -5.1073e-20)
(1.33059 -0.989251 1.21613e-18)
(1.35859 -0.77273 -4.22764e-19)
(1.38522 -0.423119 -7.70377e-19)
(1.5345 -0.183309 -2.96162e-19)
(1.65351 -0.0786906 1.3531e-19)
(1.62997 -1.04785 5.87829e-21)
(1.55521 -0.812088 -1.72501e-18)
(1.44889 -0.471271 0)
(1.49925 -0.235578 3.43804e-19)
(1.51908 -0.0897319 9.69947e-20)
(2.15645 -1.11561 -1.57976e-18)
(1.83394 -0.801122 -4.89914e-19)
(1.55994 -0.457503 -9.38783e-21)
(1.37333 -0.220226 8.06948e-20)
(1.32436 -0.0853088 -2.87918e-19)
(2.6325 -0.889991 -1.61182e-18)
(1.89885 -0.591269 2.98205e-18)
(1.43156 -0.320519 6.75589e-21)
(1.14822 -0.158694 2.21979e-19)
(1.06032 -0.0632325 0)
(2.47847 -0.522955 -6.92599e-18)
(1.60479 -0.339092 -1.48911e-19)
(1.14902 -0.179355 1.96225e-18)
(0.888094 -0.0933469 -3.40452e-19)
(0.782116 -0.0391868 -2.54939e-20)
(1.76238 -0.220012 6.83491e-18)
(1.08844 -0.135722 1.24254e-18)
(0.752195 -0.0678706 2.23585e-19)
(0.571052 -0.0368591 2.97003e-33)
(0.484224 -0.0169788 -7.14882e-20)
(0.683169 0.000177275 1.5518e-18)
(0.395169 0.0235675 7.12279e-19)
(0.26772 0.0240798 -5.17123e-19)
(0.205541 0.0154096 2.30329e-19)
(0.171013 0.00635534 -8.43472e-20)
(3.58188 -0.168162 1.2562e-17)
(3.41717 -0.502948 -1.04437e-17)
(3.13669 -0.787016 7.1086e-18)
(2.78064 -0.996135 2.32115e-18)
(2.33319 -1.10188 -4.14161e-19)
(3.78451 -0.10359 1.03945e-17)
(3.71744 -0.324465 -6.63887e-19)
(3.57769 -0.551831 -4.26981e-18)
(3.37825 -0.785777 2.68949e-18)
(3.10028 -1.01981 -6.6278e-19)
(3.11483 -0.0605701 3.65447e-18)
(3.09865 -0.181683 -2.51886e-18)
(3.0596 -0.30967 5.01276e-18)
(2.99888 -0.444871 -1.52978e-19)
(2.92429 -0.593652 -4.79031e-18)
(2.19087 -0.0276241 2.7888e-18)
(2.18384 -0.0833663 8.43055e-18)
(2.16463 -0.143999 -6.53263e-19)
(2.13408 -0.207273 -6.60889e-18)
(2.11306 -0.269436 1.94585e-18)
(0.879441 -0.0018424 5.21229e-18)
(0.876492 -0.00523855 -1.16442e-19)
(0.867374 -0.00956707 -4.25724e-20)
(0.850513 -0.016253 -2.00946e-18)
(0.841162 -0.0229044 -3.60555e-18)
(1.65318 0.940157 2.27768e-18)
(1.34832 0.816736 -7.94719e-20)
(1.00337 0.658645 -3.58395e-20)
(0.627851 0.44946 -1.96224e-19)
(0.225213 0.182282 -1.33982e-19)
(2.07053 0.892538 -1.21884e-18)
(1.71069 0.777735 -1.20461e-18)
(1.29832 0.632574 7.31619e-19)
(0.83403 0.438709 -4.83982e-19)
(0.312131 0.18208 -4.03646e-21)
(2.41861 0.735862 -5.88877e-19)
(2.01967 0.645355 5.25242e-19)
(1.55499 0.528757 2.43639e-18)
(1.01753 0.370192 8.08282e-19)
(0.391333 0.155283 5.26032e-19)
(2.68202 0.486724 1.57275e-20)
(2.25238 0.428294 -2.71543e-19)
(1.74743 0.352324 -6.46735e-19)
(1.15476 0.247644 2.05638e-18)
(0.450322 0.104144 -3.26824e-19)
(2.82546 0.173874 -1.1705e-18)
(2.37727 0.152648 -1.60647e-18)
(1.84939 0.125347 -7.28683e-19)
(1.22671 0.0878342 7.96265e-19)
(0.480854 0.0366867 -3.25824e-19)
(0.241556 0.417684 -2.155e-18)
(0.171252 0.354119 -1.82724e-18)
(0.103641 0.277612 3.18393e-19)
(0.0458745 0.18407 -4.91502e-20)
(-0.00158344 0.067757 3.42361e-20)
(0.37125 0.595563 -7.99978e-19)
(0.274287 0.511049 -6.76757e-19)
(0.178914 0.400211 1.46883e-20)
(0.0926703 0.260054 -2.65401e-20)
(0.016924 0.0967286 2.69882e-20)
(0.581633 0.754703 2.18875e-18)
(0.446188 0.650628 -1.50444e-19)
(0.307947 0.507856 -1.45548e-19)
(0.174431 0.328941 -2.15622e-19)
(0.0484588 0.124098 1.6693e-19)
(0.862016 0.875613 -1.29406e-18)
(0.679129 0.758865 1.97238e-18)
(0.485259 0.59444 2.98461e-19)
(0.288335 0.388554 1.02782e-19)
(0.0925589 0.149219 -1.18494e-19)
(1.2037 0.925453 -4.4077e-19)
(0.969103 0.811976 -4.57539e-19)
(0.708574 0.645156 3.59241e-19)
(0.433306 0.429186 3.58801e-19)
(0.148453 0.168527 1.89519e-21)
(0.949057 0.170171 -4.8849e-19)
(1.49459 0.13031 4.87051e-20)
(1.34227 0.196618 1.87071e-20)
(1.01644 0.498417 -4.86979e-19)
(0.600122 0.646115 6.6846e-20)
(0.957066 0.0906378 1.82211e-19)
(1.51296 0.102684 3.13964e-19)
(1.37276 0.246955 2.77437e-19)
(1.06209 0.614929 -4.90658e-20)
(0.785055 0.804472 7.5353e-19)
(0.963608 0.0101805 6.24002e-20)
(1.53176 0.0777314 -2.16241e-20)
(1.37222 0.299021 -5.74929e-20)
(1.1646 0.714701 -4.03035e-19)
(1.03717 0.939097 9.10905e-20)
(0.96657 -0.0689833 -1.85765e-20)
(1.53535 0.0560807 -7.63463e-19)
(1.37033 0.352779 6.97658e-20)
(1.32533 0.783299 1.1778e-18)
(1.33494 1.04333 9.47627e-19)
(0.963741 -0.145329 -1.50142e-20)
(1.50217 0.0491042 2.26106e-19)
(1.38747 0.404281 -5.8999e-20)
(1.50938 0.824805 -3.68714e-19)
(1.63623 1.09283 -2.72572e-18)
(0.945253 -0.238982 2.59287e-19)
(1.43854 0.0176213 5.0942e-19)
(1.4621 0.397419 -4.08311e-20)
(1.76659 0.802569 3.12879e-18)
(2.15345 1.14384 -5.51883e-18)
(0.889506 -0.345219 -2.51538e-20)
(1.30729 -0.0302351 -6.4603e-19)
(1.39837 0.284543 6.88454e-21)
(1.84077 0.596412 -3.0723e-18)
(2.59417 0.900834 1.67035e-18)
(0.78822 -0.411427 5.54666e-18)
(1.07663 -0.0922293 6.98303e-35)
(1.13423 0.150673 -2.11435e-18)
(1.57568 0.340905 2.62508e-18)
(2.45647 0.529769 5.03201e-18)
(0.635204 -0.291793 1.51353e-19)
(0.71199 -0.0720199 5.26985e-19)
(0.731623 0.0519248 2.46731e-19)
(1.07514 0.135353 6.22431e-19)
(1.75837 0.220514 -8.64581e-18)
(0.322824 -0.0431028 -4.30821e-18)
(0.293565 0.00574137 2.85688e-19)
(0.264915 -0.013384 1.11251e-18)
(0.393393 -0.0240314 -7.69866e-19)
(0.686216 -0.000477806 -1.46657e-18)
(2.34872 1.12134 4.69199e-18)
(2.78734 1.01263 3.4743e-18)
(3.1409 0.80342 -5.69315e-18)
(3.41899 0.51962 -1.46168e-17)
(3.58239 0.185886 1.5764e-17)
(3.07876 1.01887 5.0093e-18)
(3.35397 0.795236 2.5632e-17)
(3.55689 0.560671 7.24213e-18)
(3.70106 0.331823 -3.08274e-17)
(3.77791 0.111136 -5.17324e-18)
(2.90564 0.592026 -7.22763e-18)
(2.98594 0.448105 -3.38022e-18)
(3.05216 0.312104 -6.29648e-18)
(3.09523 0.181713 -6.88932e-18)
(3.114 0.0584198 6.52288e-18)
(2.10629 0.265881 5.41663e-18)
(2.13014 0.205726 -4.04553e-19)
(2.16255 0.143023 4.87145e-18)
(2.18313 0.0821238 6.2894e-18)
(2.19077 0.0259927 -5.88797e-18)
(0.842561 0.0220512 -5.74763e-19)
(0.851951 0.015651 3.52136e-18)
(0.868645 0.00912996 2.4433e-18)
(0.877498 0.00479176 -5.16951e-18)
(0.879841 0.00136121 -3.84297e-20)
(0.281991 0.0207608 5.52156e-19)
(0.656795 0.0404741 -7.43634e-19)
(0.973299 0.0440746 -8.18472e-19)
(0.944468 0.0274365 -1.51804e-18)
(0.697973 0.016389 -6.6375e-19)
(0.245628 0.0554707 7.45802e-19)
(0.591378 0.107095 1.44152e-18)
(0.864825 0.125164 -6.97421e-19)
(0.940094 0.0970161 1.96083e-18)
(0.724297 0.0532512 -2.70094e-18)
(0.185658 0.0742786 4.96275e-19)
(0.476476 0.145922 -1.39886e-18)
(0.707889 0.184792 -9.13944e-19)
(0.857443 0.175441 -1.81043e-18)
(0.741679 0.101248 -2.86255e-18)
(0.123328 0.0774875 -7.72698e-19)
(0.344822 0.160383 -1.37667e-18)
(0.534621 0.214914 4.39908e-18)
(0.677822 0.233347 -3.66691e-19)
(0.713159 0.180054 2.2546e-18)
(0.0752854 0.0723779 -6.2309e-19)
(0.230745 0.16013 1.56426e-18)
(0.372327 0.224559 6.11858e-19)
(0.482871 0.257793 -1.29558e-18)
(0.561368 0.258474 -1.75017e-19)
(0.0451565 0.0637862 8.37796e-20)
(0.149964 0.148789 -1.22149e-18)
(0.247764 0.212164 -9.43899e-19)
(0.325457 0.234087 -8.88554e-20)
(0.371249 0.223823 -5.00728e-20)
(0.0264685 0.0557199 3.12323e-19)
(0.0950865 0.134327 5.90893e-19)
(0.1609 0.184784 -2.11281e-19)
(0.213771 0.19535 2.6046e-19)
(0.253645 0.185264 1.72013e-19)
(0.0133322 0.0488556 2.49496e-19)
(0.0586825 0.111318 1.33397e-18)
(0.103812 0.120949 -1.24407e-18)
(0.14285 0.107088 -2.79061e-18)
(0.179117 0.0856139 4.08269e-19)
(0.00624095 0.0392728 -2.38648e-19)
(0.0427501 0.048508 -1.81009e-18)
(0.0800248 0.0214628 3.2195e-18)
(0.120148 -0.0103603 1.31364e-18)
(0.1617 -0.0441755 -2.69186e-19)
(0.00986914 0.00122802 2.09301e-19)
(0.0421003 -0.0505786 -4.5147e-19)
(0.0822079 -0.0967481 9.00729e-20)
(0.13091 -0.144724 1.04753e-19)
(0.181628 -0.190973 -4.27684e-22)
(0.338794 0.0718035 -7.5481e-20)
(0.61417 -0.0424448 -1.23116e-18)
(0.705069 -0.0135646 2.54644e-19)
(0.716205 0.00748298 4.02265e-19)
(0.696963 0.00446504 1.19945e-20)
(0.303202 -0.0345787 -1.00256e-19)
(0.750897 -0.115215 1.48218e-18)
(0.889509 -0.0232577 9.19909e-19)
(0.915792 0.0115555 7.5186e-20)
(0.90121 0.00752559 -3.86957e-20)
(0.320284 -0.150229 -8.16087e-19)
(0.835826 -0.198731 3.17533e-18)
(1.05159 -0.0426314 -1.81808e-19)
(1.1036 0.01431 -3.34088e-19)
(1.09514 0.0105345 6.77611e-20)
(0.37654 -0.289148 1.10341e-18)
(0.885332 -0.2986 -2.71154e-18)
(1.17466 -0.0836563 -5.37101e-19)
(1.27145 0.0113687 -3.13215e-20)
(1.27588 0.0119884 1.33561e-20)
(0.463033 -0.437686 4.9668e-19)
(0.920384 -0.406324 -5.39995e-19)
(1.25315 -0.144413 4.82054e-19)
(1.40859 -0.00303145 1.14552e-19)
(1.44004 0.00964977 2.66471e-20)
(0.182988 -0.0449714 9.55248e-19)
(0.145092 -0.00518099 0)
(0.162907 0.000955491 1.16676e-19)
(0.162142 -0.000563853 -9.31097e-21)
(0.155205 -0.000904369 -7.042e-20)
(0.399805 0.0699694 0)
(0.409012 -0.000534057 0)
(0.467623 -0.00420081 5.19555e-20)
(0.468198 0.00377956 -3.77435e-20)
(0.449822 0.00183988 4.93574e-20)
(0.162698 -0.000821318 -3.68485e-19)
(0.186417 -0.00179194 3.1078e-18)
(0.213228 -0.00502007 -6.86358e-19)
(0.229826 -0.0149881 -3.11716e-18)
(0.245721 -0.0170085 -7.97119e-19)
(0.432061 0.0044416 6.09955e-19)
(0.484593 0.0196971 4.11572e-18)
(0.536491 0.0466992 -6.7303e-18)
(0.567669 0.0806153 2.20939e-18)
(0.598372 0.162221 3.79724e-18)
(0.370774 -0.220759 -3.32758e-19)
(0.324407 -0.231732 -9.33553e-20)
(0.248415 -0.212733 -3.33354e-19)
(0.150774 -0.150751 3.89108e-19)
(0.0458721 -0.0645741 1.13991e-19)
(0.257465 -0.170003 4.23372e-19)
(0.215057 -0.182067 1.41449e-18)
(0.162384 -0.177343 2.57286e-19)
(0.0967081 -0.135192 2.36553e-19)
(0.0269248 -0.0572057 -1.89409e-20)
(0.193172 -0.0552553 -3.12571e-19)
(0.151613 -0.0778125 -1.05983e-19)
(0.108794 -0.0953689 1.63409e-18)
(0.0623151 -0.0975317 2.85068e-19)
(0.0132771 -0.0480935 -3.14619e-19)
(0.179033 0.0866465 -6.37819e-19)
(0.132918 0.0527726 -7.06392e-19)
(0.0879546 0.0190142 1.31203e-18)
(0.0496026 -0.0111324 1.60306e-18)
(0.0112323 -0.0300858 1.98968e-19)
(0.189416 0.244326 1.24678e-19)
(0.134842 0.198002 -1.19845e-19)
(0.0822829 0.148154 2.49081e-19)
(0.0384518 0.0970149 6.26179e-19)
(-0.00218946 0.0356276 9.36445e-20)
(0.697969 -0.0163445 1.53164e-18)
(0.944473 -0.0274144 -1.80087e-18)
(0.973109 -0.0442015 2.27012e-18)
(0.656807 -0.0405368 3.64669e-19)
(0.282025 -0.0207695 5.3671e-19)
(0.724286 -0.053146 1.77275e-18)
(0.93995 -0.0970326 7.9469e-18)
(0.864625 -0.12527 1.03371e-18)
(0.591431 -0.107135 1.34957e-18)
(0.245724 -0.0554921 -4.78536e-19)
(0.741586 -0.101011 -1.22117e-18)
(0.856842 -0.175284 -2.29683e-18)
(0.707814 -0.184858 2.9246e-18)
(0.476546 -0.145992 -1.08248e-19)
(0.185782 -0.0743148 3.39508e-19)
(0.712616 -0.179888 1.6563e-20)
(0.677142 -0.233315 -7.68721e-18)
(0.534662 -0.215251 -6.0007e-18)
(0.344961 -0.160717 1.09175e-18)
(0.123511 -0.0775914 5.08046e-19)
(0.559032 -0.257057 4.67029e-19)
(0.481892 -0.257288 5.33704e-19)
(0.372412 -0.225301 -9.00042e-19)
(0.231007 -0.160998 -8.88519e-19)
(0.0756334 -0.072634 -5.14512e-21)
(0.728126 0.373154 1.1764e-18)
(0.879712 0.127838 -1.89106e-19)
(0.676462 0.0207527 2.50295e-19)
(0.643387 0.0350769 -7.45875e-19)
(0.362651 -0.0620984 -1.00641e-19)
(0.82831 0.398163 -1.71063e-19)
(1.08606 0.158047 -5.89201e-19)
(0.868263 0.0396374 8.40885e-19)
(0.80354 0.097726 1.67052e-18)
(0.340343 0.0537127 1.029e-19)
(0.893674 0.372783 -2.28135e-18)
(1.26406 0.172228 -3.8097e-20)
(1.04007 0.0640809 2.52956e-19)
(0.908222 0.176713 1.72372e-18)
(0.365003 0.176296 -1.45687e-18)
(0.927302 0.318798 1.53479e-18)
(1.39899 0.174049 1.60569e-20)
(1.17976 0.100974 -2.21251e-19)
(0.964965 0.275243 -8.22252e-19)
(0.416537 0.3232 -6.01366e-19)
(0.940867 0.247671 1.89295e-19)
(1.47233 0.157578 4.04966e-20)
(1.2791 0.146722 -9.76639e-20)
(0.994822 0.383326 -1.235e-19)
(0.487285 0.480841 1.37189e-18)
(0.275731 0.0483757 0)
(0.244306 -0.0113098 6.51108e-19)
(0.157427 -0.0159156 1.26949e-19)
(0.15002 0.0055265 -1.10867e-19)
(0.18439 0.0441335 -1.80815e-18)
(0.573621 0.266369 -1.01989e-17)
(0.609234 0.0751455 -2.56627e-18)
(0.444565 0.0137906 5.03089e-19)
(0.422644 2.04215e-05 -6.47746e-19)
(0.40754 -0.0683439 -6.62268e-19)
(0.245848 0.0169751 -7.76406e-22)
(0.229919 0.0150777 1.92878e-18)
(0.213306 0.00506439 5.24647e-19)
(0.186467 0.00180206 3.22987e-19)
(0.162714 0.000825198 0)
(0.599182 -0.162147 -1.17267e-19)
(0.568194 -0.080347 2.5463e-18)
(0.536592 -0.046482 -1.38229e-19)
(0.484652 -0.0196443 -2.70643e-19)
(0.432085 -0.00441929 7.60549e-19)
)
;

boundaryField
{
    left
    {
        type            fixedValue;
        value           uniform (1 0 0);
    }
    right
    {
        type            zeroGradient;
    }
    down
    {
        type            noSlip;
    }
    up
    {
        type            noSlip;
    }
    cylinder
    {
        type            noSlip;
    }
    defaultFaces
    {
        type            empty;
    }
}


// ************************************************************************* //
