/*--------------------------------*- C++ -*----------------------------------*\
  =========                 |
  \\      /  F ield         | OpenFOAM: The Open Source CFD Toolbox
   \\    /   O peration     | Website:  https://openfoam.org
    \\  /    A nd           | Version:  13
     \\/     M anipulation  |
\*---------------------------------------------------------------------------*/
FoamFile
{
    format      ascii;
    class       volVectorField;
    location    "0.385";
    object      U;
}
// * * * * * * * * * * * * * * * * * * * * * * * * * * * * * * * * * * * * * //

dimensions      [0 1 -1 0 0 0 0];

internalField   nonuniform List<vector> 
1800
(
(0.417526 -0.375086 1.18122e-19)
(1.01512 -0.869713 5.22264e-20)
(1.27215 -1.03151 -6.79059e-19)
(1.36182 -1.04664 5.35325e-19)
(1.39363 -1.01152 1.13102e-18)
(1.40326 -0.961654 4.63361e-19)
(1.40279 -0.90842 -2.36387e-19)
(1.39735 -0.856338 -6.19804e-19)
(1.39133 -0.804109 -3.21807e-19)
(1.36761 -0.75633 -2.59807e-19)
(0.486865 -0.372804 -4.82182e-22)
(1.16275 -0.852837 -9.17947e-19)
(1.44239 -1.00526 6.74335e-21)
(1.5313 -1.01664 -4.09595e-19)
(1.55566 -0.979719 8.9777e-20)
(1.55651 -0.929154 1.08772e-18)
(1.54756 -0.875803 -7.93625e-19)
(1.5348 -0.82338 4.00366e-19)
(1.52164 -0.771399 6.64831e-19)
(1.50008 -0.730289 -3.38341e-19)
(0.558093 -0.361715 6.20115e-20)
(1.30966 -0.815665 2.63905e-19)
(1.60925 -0.955021 5.49957e-19)
(1.69589 -0.962708 -3.15638e-19)
(1.71198 -0.925323 -1.35755e-18)
(1.7036 -0.875963 2.96531e-19)
(1.6859 -0.824779 5.18821e-19)
(1.6652 -0.775087 -5.14701e-20)
(1.64471 -0.726778 -4.39706e-21)
(1.61752 -0.68718 -2.28684e-20)
(0.629873 -0.341329 -6.94213e-20)
(1.45244 -0.758046 -2.8954e-19)
(1.76859 -0.881055 -3.72048e-19)
(1.85153 -0.885229 5.00569e-20)
(1.8589 -0.848499 3.65823e-19)
(1.84145 -0.801643 2.74079e-20)
(1.81548 -0.753775 -2.12324e-20)
(1.7875 -0.707601 4.80963e-19)
(1.76039 -0.662969 4.04177e-19)
(1.72928 -0.627278 -1.42915e-19)
(0.700651 -0.311391 1.52513e-19)
(1.58744 -0.680597 3.51177e-19)
(1.91606 -0.784746 -6.19484e-20)
(1.99381 -0.786062 -6.77762e-20)
(1.99215 -0.751449 -1.08703e-18)
(1.96583 -0.708768 8.97237e-21)
(1.93205 -0.665843 8.37918e-19)
(1.89731 -0.624753 2.70912e-19)
(1.86413 -0.585453 1.15295e-20)
(1.82919 -0.554083 -1.85589e-19)
(0.768619 -0.271791 -6.09871e-20)
(1.71091 -0.584277 8.5462e-19)
(2.04755 -0.667785 1.34464e-18)
(2.11896 -0.667111 -8.51252e-19)
(2.1084 -0.635981 -7.91506e-19)
(2.07392 -0.598877 1.30519e-18)
(2.03325 -0.562069 -9.18079e-19)
(1.99266 -0.527033 -1.04273e-18)
(1.95438 -0.493757 7.33582e-19)
(1.91629 -0.467423 -1.56449e-20)
(0.831826 -0.222795 3.57175e-19)
(1.8192 -0.470908 -1.35312e-18)
(2.15926 -0.532923 -3.66987e-18)
(2.22346 -0.531442 1.36986e-18)
(2.20444 -0.505238 2.01051e-18)
(2.16275 -0.475173 -5.64316e-21)
(2.11625 -0.445718 -2.51835e-18)
(2.07086 -0.417825 1.3364e-20)
(2.02847 -0.391521 2.26359e-18)
(1.98781 -0.370883 5.90741e-19)
(0.88817 -0.16497 -1.62281e-19)
(1.90883 -0.342778 7.8284e-19)
(2.2479 -0.383236 2.83366e-18)
(2.30442 -0.382191 -3.0485e-20)
(2.27775 -0.362172 -1.29928e-18)
(2.23011 -0.340351 -4.01352e-19)
(2.17905 -0.319148 0)
(2.13002 -0.29914 8.87759e-19)
(2.08457 -0.280379 -1.08359e-20)
(2.04205 -0.265983 -7.3506e-19)
(0.935625 -0.0993335 -1.77205e-20)
(1.97683 -0.202914 1.92991e-18)
(2.31091 -0.222537 2.42891e-18)
(2.35961 -0.223193 -1.99442e-18)
(2.32647 -0.210495 -1.36275e-18)
(2.27438 -0.197931 4.00732e-19)
(2.22018 -0.185669 -1.65876e-18)
(2.16876 -0.174111 -1.17898e-18)
(2.12139 -0.163335 1.34922e-18)
(2.07772 -0.155562 1.14416e-18)
(0.972276 -0.027243 2.80787e-19)
(2.02084 -0.0548413 1.23501e-18)
(2.34645 -0.0550146 4.44121e-19)
(2.38746 -0.0584051 -2.84397e-18)
(2.34942 -0.0539192 7.41128e-21)
(2.29447 -0.0512533 3.81687e-18)
(2.23858 -0.0483493 -2.04121e-18)
(2.18606 -0.0455571 -1.08783e-18)
(2.13789 -0.0429828 3.8297e-19)
(2.09389 -0.0420109 -8.46879e-19)
(0.00630421 -0.0693042 1.2153e-19)
(0.0539243 -0.166504 1.4178e-19)
(0.118879 -0.204311 -2.05015e-21)
(0.186141 -0.213745 -4.9964e-21)
(0.250021 -0.213053 -1.53514e-21)
(0.309126 -0.208574 -3.31457e-20)
(0.363362 -0.202463 6.60715e-21)
(0.412856 -0.195722 -1.54308e-20)
(0.458132 -0.188893 1.41245e-21)
(0.499338 -0.183328 -3.56434e-21)
(0.0173283 -0.114635 8.28659e-20)
(0.0810987 -0.280961 1.33952e-19)
(0.152248 -0.344053 -1.23075e-19)
(0.220681 -0.357264 -4.26816e-20)
(0.284043 -0.35287 -5.25174e-20)
(0.342007 -0.342121 -6.21604e-20)
(0.394851 -0.32878 2.51171e-20)
(0.442892 -0.314571 -1.01644e-20)
(0.486666 -0.300413 -6.30417e-22)
(0.526962 -0.289641 -5.42917e-21)
(0.0356055 -0.158685 1.27534e-20)
(0.126531 -0.391154 3.09689e-19)
(0.208101 -0.478137 8.1983e-20)
(0.278492 -0.494728 2.60131e-19)
(0.340968 -0.486601 4.09517e-20)
(0.397006 -0.469707 -2.24279e-19)
(0.447505 -0.449353 -1.93714e-20)
(0.493093 -0.427942 7.08327e-20)
(0.534334 -0.406797 -3.24805e-20)
(0.573147 -0.391008 -5.91087e-21)
(0.0610483 -0.200738 -9.78673e-20)
(0.189634 -0.494879 -7.10858e-20)
(0.285554 -0.6037 2.54701e-20)
(0.358554 -0.6231 -1.0459e-19)
(0.419713 -0.611203 4.38799e-20)
(0.473013 -0.588361 1.50106e-19)
(0.52021 -0.56132 4.32334e-20)
(0.562363 -0.533105 -1.17972e-20)
(0.600092 -0.505464 1.61251e-20)
(0.636846 -0.484909 -2.015e-21)
(0.0935273 -0.240082 0)
(0.269556 -0.589984 7.51829e-20)
(0.383337 -0.717952 4.49172e-19)
(0.459421 -0.739434 -2.70891e-19)
(0.518748 -0.723743 -4.79102e-19)
(0.568469 -0.695232 1.58472e-19)
(0.611419 -0.661953 -2.26666e-20)
(0.649189 -0.627472 -7.70255e-20)
(0.682507 -0.593984 0)
(0.716607 -0.568969 -6.95814e-21)
(0.132861 -0.275996 -1.35347e-20)
(0.365167 -0.674381 3.05927e-19)
(0.499772 -0.818226 1.38415e-19)
(0.579184 -0.84093 1.86606e-19)
(0.636061 -0.821451 -1.49292e-19)
(0.681335 -0.787651 -2.36293e-19)
(0.719108 -0.748722 4.06302e-19)
(0.751597 -0.708669 4.2107e-20)
(0.779698 -0.670134 -2.40339e-19)
(0.81048 -0.640993 -5.53127e-21)
(0.17879 -0.30772 3.35394e-20)
(0.475022 -0.746069 3.85345e-19)
(0.632746 -0.902027 4.18983e-20)
(0.715454 -0.925001 1.70698e-20)
(0.769152 -0.901795 2.61878e-19)
(0.809077 -0.863208 -3.27386e-19)
(0.840775 -0.819368 -3.23102e-19)
(0.86714 -0.774599 -2.73805e-19)
(0.889311 -0.731946 1.99015e-19)
(0.915916 -0.698981 2.18935e-19)
(0.230923 -0.334423 -1.10962e-19)
(0.597305 -0.803143 -1.57728e-19)
(0.779664 -0.967091 1.64815e-19)
(0.865338 -0.989356 -1.37848e-19)
(0.915021 -0.96257 2.76348e-19)
(0.948699 -0.919822 6.54286e-19)
(0.973493 -0.871942 4.51456e-19)
(0.992981 -0.823442 -3.42011e-19)
(1.00862 -0.777651 -1.63519e-19)
(1.02984 -0.740984 2.36295e-19)
(0.288655 -0.355175 -3.05084e-19)
(0.729792 -0.843811 -1.00123e-18)
(0.937471 -1.01143 9.90445e-19)
(1.02549 -1.03207 7.87482e-19)
(1.07025 -1.00201 -6.48272e-19)
(1.09685 -0.955877 7.03005e-19)
(1.11407 -0.904962 1.0069e-19)
(1.12611 -0.853878 -8.29233e-19)
(1.13494 -0.805858 -2.00515e-19)
(1.14877 -0.7651 2.64331e-19)
(0.351162 -0.36901 -3.60595e-20)
(0.869934 -0.866445 -8.62124e-19)
(1.10277 -1.03336 -4.58396e-19)
(1.1922 -1.05161 7.16163e-19)
(1.23103 -1.01875 5.59248e-19)
(1.24967 -0.970258 -6.31324e-19)
(1.25866 -0.917581 -5.18166e-19)
(1.26268 -0.865455 3.06525e-19)
(1.26473 -0.81573 -3.103e-19)
(1.26626 -0.770074 -1.99344e-19)
(0.642301 -0.148717 -8.37451e-21)
(0.815417 -0.114922 2.19851e-20)
(0.88968 -0.0898905 1.56785e-20)
(0.936047 -0.0704781 -1.26798e-21)
(0.962537 -0.0546402 9.30486e-22)
(0.978338 -0.0415397 4.39395e-21)
(0.988058 -0.0306315 2.28494e-21)
(0.994081 -0.0214 -3.50913e-21)
(0.997594 -0.0136311 2.84839e-21)
(0.999636 -0.00512905 3.39627e-21)
(0.659542 -0.213764 5.20088e-20)
(0.825166 -0.150598 -1.42864e-20)
(0.897014 -0.108938 3.64195e-21)
(0.94156 -0.081198 6.77729e-21)
(0.966949 -0.0609114 1.52248e-20)
(0.981929 -0.0452922 0)
(0.991018 -0.0329068 2.20953e-21)
(0.99657 -0.0227653 3.09265e-21)
(0.99977 -0.0144101 5.67057e-22)
(1.00159 -0.00540518 -3.13917e-21)
(0.687649 -0.276725 -3.43609e-20)
(0.839278 -0.185554 -8.3428e-21)
(0.906878 -0.127821 5.31233e-22)
(0.948337 -0.091831 -8.66909e-21)
(0.97206 -0.0671065 -4.28855e-21)
(0.985931 -0.0489713 6.66983e-21)
(0.994235 -0.0351132 0)
(0.999224 -0.0240727 0)
(1.00207 -0.0151469 9.32316e-22)
(1.00363 -0.00566488 0)
(0.726385 -0.336399 -2.17703e-20)
(0.857686 -0.219268 1.49887e-20)
(0.919193 -0.14633 8.04888e-21)
(0.95638 -0.102272 0)
(0.977864 -0.0731634 -7.06697e-21)
(0.990338 -0.0525392 3.00445e-21)
(0.997691 -0.0372273 0)
(1.00204 -0.0253082 -4.71372e-21)
(1.00448 -0.0158323 0)
(1.00576 -0.0059042 -4.84408e-22)
(0.775403 -0.391696 -2.77318e-20)
(0.880327 -0.251249 3.89946e-20)
(0.933841 -0.164245 -4.81903e-21)
(0.965682 -0.11242 0)
(0.984352 -0.0790236 -5.30387e-21)
(0.995138 -0.0559587 -6.99286e-21)
(1.00138 -0.0392258 7.02313e-21)
(1.005 -0.0264569 1.50161e-21)
(1.00697 -0.0164566 -5.99677e-22)
(1.00796 -0.0061196 3.30326e-21)
(0.834116 -0.441625 -4.921e-19)
(0.907143 -0.28109 -8.58602e-20)
(0.950679 -0.181347 2.20326e-21)
(0.976221 -0.12218 2.11511e-21)
(0.991512 -0.0846317 9.45109e-21)
(1.00031 -0.0591945 -2.06032e-21)
(1.00529 -0.0410848 -1.14546e-20)
(1.00807 -0.0275024 5.76064e-21)
(1.00955 -0.0170113 -2.99815e-22)
(1.01022 -0.00630846 2.60892e-21)
(0.901526 -0.485124 8.99015e-21)
(0.938004 -0.308622 3.85456e-20)
(0.969525 -0.197506 5.1532e-21)
(0.987941 -0.131481 9.86569e-24)
(0.999318 -0.0899434 -2.1135e-21)
(1.00585 -0.0622152 5.83512e-21)
(1.0094 -0.0427813 2.87051e-21)
(1.01126 -0.028429 -5.53957e-21)
(1.01219 -0.0174873 -1.02536e-21)
(1.01252 -0.00646662 -2.37676e-21)
(0.976037 -0.521232 1.90147e-19)
(0.972298 -0.333177 5.23913e-20)
(0.99005 -0.212463 0)
(1.0007 -0.140211 -4.2223e-21)
(1.00772 -0.0949088 1.25056e-21)
(1.01171 -0.0649923 2.19035e-21)
(1.01368 -0.0442971 4.495e-21)
(1.01454 -0.0292238 -1.18065e-21)
(1.01487 -0.0178749 6.58703e-23)
(1.01485 -0.00658925 7.49967e-22)
(1.05484 -0.550408 -2.87481e-19)
(1.0084 -0.354503 -1.52598e-19)
(1.01104 -0.225983 2.56017e-20)
(1.01386 -0.148144 2.36589e-21)
(1.0164 -0.0993991 -2.02728e-21)
(1.01776 -0.0674667 3.1815e-21)
(1.01808 -0.0456103 -2.9106e-21)
(1.01788 -0.0298797 6.98143e-22)
(1.01758 -0.0181703 -4.23539e-21)
(1.01718 -0.00667804 -5.27193e-21)
(1.13616 -0.576651 1.99213e-19)
(1.04381 -0.379659 -1.50224e-19)
(1.02976 -0.243387 -2.10161e-20)
(1.02543 -0.15829 -1.02641e-20)
(1.02421 -0.104892 -2.19098e-21)
(1.02339 -0.070291 -8.70282e-22)
(1.02232 -0.046982 -2.28969e-21)
(1.02116 -0.0304888 0)
(1.02026 -0.0184048 2.67806e-21)
(1.01953 -0.00673137 6.62739e-22)
(1.27246 -0.558424 2.81006e-19)
(1.13038 -0.37389 9.18292e-20)
(1.07897 -0.243486 -5.53501e-20)
(1.05376 -0.159584 1.78712e-21)
(1.04108 -0.105854 2.70747e-21)
(1.03392 -0.070726 2.20856e-21)
(1.02923 -0.0470427 6.47133e-21)
(1.02597 -0.0303661 1.81913e-21)
(1.02389 -0.018242 -2.55693e-21)
(1.02253 -0.00665035 1.20802e-21)
(1.31995 -0.470757 3.06786e-21)
(1.16761 -0.326125 8.45553e-20)
(1.10886 -0.220878 7.25886e-20)
(1.07552 -0.148485 -8.29725e-21)
(1.05614 -0.0998579 2.99132e-20)
(1.04427 -0.0671431 1.8057e-20)
(1.03647 -0.0447534 1.34068e-20)
(1.03123 -0.0288944 -1.09886e-21)
(1.02799 -0.0173511 4.72468e-21)
(1.02597 -0.00631582 4.32569e-21)
(1.36841 -0.402984 -9.35905e-20)
(1.21151 -0.289482 -7.27997e-21)
(1.1406 -0.201199 1.96085e-21)
(1.09744 -0.137203 -6.78305e-37)
(1.07097 -0.0929597 2.99021e-21)
(1.05436 -0.0627127 -5.07617e-35)
(1.04348 -0.0418313 -4.97337e-21)
(1.03628 -0.0269934 -3.09029e-34)
(1.0319 -0.0161941 1.28507e-21)
(1.02922 -0.00588728 -3.73563e-21)
(1.39955 -0.333712 -1.59333e-34)
(1.24454 -0.247762 -1.58942e-20)
(1.1665 -0.176675 -2.31634e-20)
(1.11636 -0.122545 0)
(1.08422 -0.0838275 -1.34004e-20)
(1.06353 -0.0568229 -8.78603e-21)
(1.04991 -0.0379721 -3.22559e-21)
(1.04094 -0.0245107 -4.56232e-34)
(1.03549 -0.0146997 -5.95774e-22)
(1.0322 -0.00533975 3.67164e-21)
(1.41924 -0.27037 -4.66688e-20)
(1.26998 -0.206726 2.46973e-21)
(1.18766 -0.150521 0)
(1.1324 -0.105907 0)
(1.09574 -0.0730607 0)
(1.07161 -0.0497498 0)
(1.05563 -0.0333151 -1.16866e-21)
(1.0451 -0.0215171 -5.13936e-34)
(1.03871 -0.0129032 1.23392e-21)
(1.03486 -0.00468506 4.50879e-34)
(1.43135 -0.21185 -7.26106e-21)
(1.28905 -0.166139 0)
(1.20439 -0.123104 0)
(1.14554 -0.087699 0)
(1.10537 -0.0609613 0)
(1.07849 -0.0416873 0)
(1.06053 -0.027975 2.1646e-21)
(1.04867 -0.0180807 3.23663e-21)
(1.04148 -0.0108424 1.2091e-21)
(1.03715 -0.00393506 4.13464e-21)
(1.43838 -0.157804 0)
(1.30281 -0.12641 -4.05099e-21)
(1.21709 -0.0950014 -9.29217e-21)
(1.1558 -0.068377 0)
(1.11304 -0.0478384 -6.72793e-21)
(1.08403 -0.0328362 -4.72991e-21)
(1.06451 -0.022077 -1.05876e-21)
(1.05158 -0.0142797 -1.98916e-21)
(1.04373 -0.00856235 3.43441e-21)
(1.03901 -0.00310568 3.0918e-21)
(1.44177 -0.107248 2.72101e-21)
(1.31165 -0.0871862 2.57736e-21)
(1.22567 -0.0661553 -7.82843e-22)
(1.16287 -0.0479741 4.62698e-36)
(1.11841 -0.0337261 -1.26235e-21)
(1.08788 -0.0232163 -3.85948e-35)
(1.06724 -0.0156323 2.01825e-21)
(1.05353 -0.0101164 6.51459e-21)
(1.0452 -0.00605871 1.07731e-21)
(1.04018 -0.00219107 -3.42029e-21)
(1.43437 -0.0600415 -1.09088e-20)
(1.3083 -0.0511306 5.50308e-21)
(1.22317 -0.0394823 7.17372e-21)
(1.16032 -0.0289061 0)
(1.11539 -0.0204201 4.63065e-21)
(1.08435 -0.0140914 3.26458e-21)
(1.06327 -0.0094982 4.14792e-21)
(1.04926 -0.0061476 1.40761e-21)
(1.04075 -0.00367198 -5.02242e-22)
(1.03564 -0.00132104 3.65782e-21)
(1.25167 -0.00956988 0)
(1.15076 -0.00987562 0)
(1.07933 -0.00802035 0)
(1.02514 -0.00596349 0)
(0.985994 -0.00423906 0)
(0.958795 -0.00293656 0)
(0.940271 -0.00198273 1.917e-21)
(0.92795 -0.00128516 -9.1881e-36)
(0.920474 -0.000755419 1.13196e-21)
(0.916079 -0.00026279 3.32722e-21)
(2.01743 -0.0376007 7.92774e-19)
(2.00427 -0.134907 5.31368e-20)
(1.97461 -0.229503 -1.04205e-19)
(1.92898 -0.319635 -3.16291e-19)
(1.86931 -0.403152 -9.46262e-20)
(1.79549 -0.479421 -1.50171e-19)
(1.71368 -0.544188 -3.95981e-19)
(1.61565 -0.602629 1.13649e-19)
(1.52768 -0.63389 0)
(1.39343 -0.69859 5.19027e-20)
(1.93622 -0.0275976 2.33036e-19)
(1.9261 -0.100864 -2.94609e-19)
(1.90408 -0.172614 -3.55929e-20)
(1.86958 -0.242052 -1.27402e-19)
(1.82578 -0.306483 5.39588e-20)
(1.76915 -0.368427 1.36247e-19)
(1.71022 -0.419095 -5.97642e-20)
(1.63281 -0.473359 5.71195e-20)
(1.57224 -0.493458 -7.75943e-20)
(1.46999 -0.565267 2.90849e-20)
(1.86884 -0.0212128 -1.03857e-19)
(1.86088 -0.0793051 2.23445e-19)
(1.84348 -0.136104 1.5983e-19)
(1.81568 -0.191601 -2.28807e-19)
(1.78099 -0.242827 3.03986e-20)
(1.73544 -0.29393 2.0614e-19)
(1.68868 -0.334607 -1.1116e-20)
(1.6272 -0.382072 2.20542e-20)
(1.57731 -0.399198 3.43844e-20)
(1.50215 -0.463007 4.61782e-20)
(1.81629 -0.0173022 -2.41055e-19)
(1.80975 -0.0622728 -1.84265e-20)
(1.79537 -0.106304 -2.0698e-20)
(1.77237 -0.149736 -3.15715e-20)
(1.74363 -0.189795 -8.824e-20)
(1.70643 -0.230671 -8.23924e-20)
(1.66742 -0.262982 1.1708e-19)
(1.61853 -0.301972 1.19276e-20)
(1.57551 -0.317088 4.00666e-21)
(1.51841 -0.369044 1.00289e-20)
(1.77519 -0.0137553 3.37521e-20)
(1.76967 -0.048263 9.33339e-20)
(1.75733 -0.0820606 -2.83774e-20)
(1.7378 -0.115557 1.65604e-19)
(1.71309 -0.146539 -1.96227e-20)
(1.68182 -0.178428 -1.49999e-19)
(1.64802 -0.203887 2.24022e-20)
(1.60796 -0.234664 -6.98255e-20)
(1.56975 -0.247985 5.93992e-20)
(1.52457 -0.28805 3.90484e-20)
(1.74369 -0.0111961 -1.26758e-19)
(1.73891 -0.0369167 -5.36496e-20)
(1.72801 -0.0621407 1.87778e-21)
(1.7109 -0.0872271 7.7383e-20)
(1.68892 -0.110595 1.355e-19)
(1.66171 -0.134719 -4.15163e-20)
(1.63151 -0.154365 3.4414e-21)
(1.59732 -0.177854 9.94923e-22)
(1.56262 -0.189158 1.55633e-20)
(1.52509 -0.219032 -3.32093e-20)
(1.72031 -0.00917501 -3.95783e-20)
(1.71612 -0.0273666 -8.82543e-20)
(1.70622 -0.0452236 -9.75968e-20)
(1.6908 -0.0630397 -1.61777e-19)
(1.67071 -0.0797971 3.12924e-20)
(1.64622 -0.097155 2.59839e-20)
(1.61847 -0.111628 1.36783e-20)
(1.58804 -0.128769 1.80402e-20)
(1.55581 -0.137797 -3.43875e-20)
(1.52301 -0.159308 -8.07366e-21)
(1.70238 -0.007395 4.76699e-20)
(1.69877 -0.0188265 1.80285e-20)
(1.68982 -0.0300601 1.16828e-20)
(1.6758 -0.0413296 -2.2523e-20)
(1.65724 -0.0520501 -1.93299e-20)
(1.63472 -0.0633173 -1.67861e-20)
(1.60878 -0.0729197 -1.68797e-20)
(1.58079 -0.0845348 1.5845e-20)
(1.5502 -0.0909984 -6.95737e-21)
(1.52025 -0.10607 1.64665e-20)
(1.66857 -0.00711852 -5.40077e-20)
(1.66568 -0.011977 -1.06658e-20)
(1.65838 -0.0167048 8.63436e-20)
(1.6468 -0.0215409 -1.40239e-20)
(1.6312 -0.0261931 -1.79937e-20)
(1.61218 -0.0314767 2.7547e-20)
(1.58952 -0.0359596 -1.42848e-20)
(1.56552 -0.0422337 5.03343e-21)
(1.53694 -0.0454493 6.53872e-22)
(1.51164 -0.0551415 1.29817e-20)
(1.35717 -0.00323244 4.32885e-20)
(1.35272 -0.00244233 3.47936e-20)
(1.34812 -0.00168977 3.2755e-20)
(1.34338 -0.00108361 4.96616e-20)
(1.33813 -0.000645272 -2.01884e-20)
(1.33268 -0.000549113 -2.78266e-20)
(1.32528 -0.000526072 8.0829e-21)
(1.3193 -0.00130342 1.75978e-21)
(1.30611 -0.000951871 -2.95218e-21)
(1.30292 -0.00512248 2.99391e-21)
(1.35292 0.715176 -4.72437e-20)
(1.34964 0.759681 2.7234e-20)
(1.35439 0.811809 -3.46743e-19)
(1.36136 0.870128 2.33957e-19)
(1.36929 0.932544 6.76962e-19)
(1.37638 0.998587 -1.48033e-19)
(1.37735 1.06516 -7.71615e-19)
(1.34655 1.11109 -5.87893e-20)
(1.18406 1.03294 -5.25062e-19)
(0.618143 0.574607 7.31451e-20)
(1.49081 0.699041 0)
(1.49346 0.740778 4.73715e-19)
(1.49986 0.789879 1.04512e-18)
(1.51028 0.845587 -6.1452e-19)
(1.52351 0.906093 -1.5098e-18)
(1.53729 0.970733 -1.4033e-19)
(1.54534 1.0361 -1.7994e-19)
(1.51776 1.08122 6.71793e-19)
(1.33933 1.00335 1.17298e-18)
(0.699925 0.556207 5.04728e-19)
(1.60834 0.669838 6.25524e-20)
(1.62014 0.710067 0)
(1.63401 0.756186 -6.69587e-20)
(1.65123 0.807872 6.50587e-19)
(1.6713 0.864329 5.28725e-20)
(1.69256 0.925124 -1.70099e-18)
(1.70804 0.986869 1.11569e-18)
(1.68363 1.02932 7.93415e-19)
(1.48892 0.952285 -1.08315e-18)
(0.777444 0.52526 -3.03377e-19)
(1.71305 0.621864 -1.01159e-19)
(1.73365 0.660328 -8.30226e-20)
(1.75597 0.703266 2.05582e-19)
(1.78096 0.750704 -2.57864e-19)
(1.80868 0.802535 -1.26243e-18)
(1.83786 0.858505 -9.76929e-19)
(1.86081 0.915359 1.13413e-18)
(1.8392 0.954101 8.10097e-19)
(1.6278 0.878965 0)
(0.847237 0.481405 0)
(1.80884 0.557976 -7.53206e-19)
(1.83647 0.593361 -1.25862e-18)
(1.86612 0.632185 -5.08643e-19)
(1.8984 0.674687 -3.57893e-20)
(1.93355 0.721095 0)
(1.97033 0.771186 1.48975e-19)
(2.00009 0.821899 1.76604e-19)
(1.9803 0.856 2.26931e-19)
(1.75163 0.784145 -3.48577e-19)
(0.906591 0.425594 -9.01965e-20)
(1.89446 0.480338 8.83131e-19)
(1.92746 0.511288 -4.83544e-20)
(1.96309 0.544959 -1.04647e-18)
(2.00174 0.581666 0)
(2.04359 0.621706 0)
(2.0871 0.664818 0)
(2.12256 0.708088 1.47313e-18)
(2.10311 0.736933 -1.92067e-18)
(1.85677 0.670078 -1.62453e-18)
(0.953482 0.359723 1.30755e-19)
(1.96751 0.390577 -1.20072e-18)
(2.00458 0.416154 -2.49949e-18)
(2.04497 0.443801 -4.32359e-21)
(2.0889 0.473881 4.99201e-19)
(2.13636 0.506658 -4.4133e-20)
(2.18536 0.541634 1.19869e-18)
(2.22491 0.576552 -7.21091e-19)
(2.20456 0.599571 -2.46832e-18)
(1.94034 0.539778 1.69959e-19)
(0.986354 0.286073 1.37175e-19)
(2.02571 0.290914 -9.85157e-19)
(2.06584 0.310421 2.0031e-20)
(2.10984 0.331277 3.81071e-19)
(2.15783 0.353952 -3.65564e-19)
(2.20958 0.378665 5.62188e-19)
(2.26252 0.404846 1.69655e-18)
(2.30454 0.429645 -2.44295e-19)
(2.28173 0.447076 -1.4977e-18)
(1.99972 0.39858 4.63551e-19)
(1.00403 0.208132 1.06527e-19)
(2.06701 0.183873 3.63665e-19)
(2.10933 0.196816 9.70595e-20)
(2.15589 0.210253 -4.14529e-19)
(2.20671 0.224874 -9.17813e-19)
(2.26136 0.240948 1.09016e-19)
(2.31675 0.257636 1.19365e-19)
(2.35931 0.27183 -1.73448e-18)
(2.33178 0.283367 8.79042e-19)
(2.03298 0.249747 3.53982e-19)
(1.00724 0.128924 -2.60823e-19)
(2.09008 0.0720077 7.3685e-19)
(2.13369 0.077843 -1.10834e-18)
(2.18161 0.0834804 1.98249e-19)
(2.23396 0.0895702 2.32575e-18)
(2.29004 0.0962298 1.2537e-18)
(2.34618 0.103514 -2.902e-18)
(2.38729 0.10803 -3.34274e-18)
(2.35347 0.114866 2.03358e-18)
(2.03969 0.0973328 -1.21641e-20)
(0.99651 0.049602 -3.39427e-20)
(0.525803 0.181164 -2.09754e-19)
(0.491352 0.187492 -1.87199e-19)
(0.448554 0.194396 1.14172e-19)
(0.401305 0.20181 -3.78458e-19)
(0.349887 0.209813 -5.43198e-20)
(0.293072 0.21846 3.30693e-19)
(0.2298 0.22727 1.03055e-19)
(0.159175 0.23256 -7.51247e-20)
(0.0853655 0.216037 -1.70533e-20)
(0.0150232 0.124227 3.12873e-20)
(0.551139 0.278793 1.70515e-19)
(0.51762 0.291791 2.48772e-19)
(0.476189 0.306066 3.59966e-20)
(0.430439 0.321369 -1.09961e-19)
(0.380648 0.33786 -3.64812e-19)
(0.325636 0.355681 2.78869e-20)
(0.264267 0.374019 2.46874e-19)
(0.19498 0.386446 -1.1448e-20)
(0.118881 0.360943 -2.99111e-20)
(0.0340639 0.206487 -8.92235e-21)
(0.593348 0.372325 -1.90825e-19)
(0.561484 0.391735 -2.08959e-19)
(0.522407 0.413005 1.78087e-19)
(0.4792 0.435807 1.67425e-19)
(0.432149 0.460379 -6.38897e-20)
(0.380149 0.486941 -1.55992e-19)
(0.321935 0.514343 -8.69666e-20)
(0.25482 0.533512 5.68687e-20)
(0.174685 0.49927 -2.66234e-20)
(0.0654796 0.28474 7.13046e-21)
(0.651372 0.459656 1.09862e-19)
(0.621853 0.485102 3.56519e-21)
(0.586067 0.512822 -1.46241e-19)
(0.546403 0.54255 1.11951e-19)
(0.503159 0.574611 -1.03006e-19)
(0.455336 0.60928 4.88905e-20)
(0.401477 0.645079 -8.90667e-20)
(0.337346 0.670415 -7.895e-20)
(0.251433 0.627832 -2.07573e-19)
(0.108475 0.357208 5.33727e-20)
(0.723723 0.538811 -3.77331e-20)
(0.697203 0.569778 -1.63603e-20)
(0.665596 0.603234 -4.43009e-20)
(0.630443 0.639161 -1.38026e-19)
(0.592047 0.677959 5.78989e-20)
(0.549526 0.71993 -1.235e-19)
(0.501162 0.763276 1.98032e-19)
(0.440729 0.794068 3.64846e-20)
(0.347552 0.743622 2.79586e-19)
(0.162178 0.422142 2.22901e-19)
(0.808394 0.608102 1.57239e-20)
(0.785449 0.643895 -4.20736e-20)
(0.758806 0.682122 1.97829e-19)
(0.72902 0.72328 9.13008e-20)
(0.69642 0.767852 1.65435e-19)
(0.660255 0.816118 5.69479e-20)
(0.61846 0.86595 3.35985e-19)
(0.56238 0.901306 1.78161e-19)
(0.46068 0.843552 1.80282e-19)
(0.225172 0.477646 1.96199e-19)
(0.903318 0.665275 -9.76138e-20)
(0.884775 0.705162 2.34778e-19)
(0.864129 0.747185 1.19311e-19)
(0.84074 0.79256 -9.18905e-20)
(0.814894 0.841849 -5.44169e-20)
(0.785987 0.895304 4.12794e-19)
(0.751579 0.950505 -9.97546e-20)
(0.700236 0.989572 -2.64147e-19)
(0.588655 0.9253 -5.21378e-20)
(0.295996 0.52235 2.28126e-19)
(1.00358 0.709841 1.49977e-19)
(0.989394 0.752384 5.62573e-20)
(0.975328 0.796797 -5.13399e-19)
(0.959377 0.845285 1.85106e-20)
(0.941612 0.898266 2.61908e-19)
(0.921393 0.955745 -2.33413e-19)
(0.895681 1.01496 -3.8471e-20)
(0.849844 1.05651 -1.23104e-19)
(0.727529 0.986345 1.51059e-20)
(0.372376 0.55476 -2.79872e-19)
(1.11319 0.736442 2.58072e-20)
(1.10575 0.781355 -3.46322e-19)
(1.09932 0.826923 -2.41242e-21)
(1.09073 0.877194 2.52405e-19)
(1.08053 0.932705 -2.35489e-19)
(1.06854 0.993228 5.08577e-19)
(1.05121 1.05564 3.94475e-19)
(1.01038 1.09932 -7.06013e-19)
(0.875651 1.02497 -5.91819e-20)
(0.45293 0.574386 -3.22845e-19)
(1.20049 0.745037 -1.70186e-19)
(1.20453 0.792585 -1.75048e-19)
(1.21246 0.839833 2.2372e-19)
(1.21687 0.891559 4.09776e-19)
(1.21858 0.948513 1.86529e-19)
(1.21786 1.0105 -4.20885e-19)
(1.21084 1.07431 -2.07028e-21)
(1.1759 1.11865 1.53129e-19)
(1.02826 1.04098 -2.77838e-19)
(0.535242 0.580989 -2.40677e-19)
(0.701325 0.0236975 1.97345e-20)
(1.20583 0.0349119 -2.3683e-20)
(0.906563 0.0399528 -2.5996e-21)
(1.01319 0.0435878 0)
(0.983117 0.0511673 2.3029e-20)
(0.965749 0.0614502 2.72581e-20)
(0.941262 0.0751133 3.40803e-20)
(0.894052 0.0927105 6.79118e-20)
(0.829169 0.117046 -9.60929e-20)
(0.660023 0.148204 -1.07912e-19)
(0.701051 0.0215955 4.18487e-20)
(1.20618 0.0354121 -8.13705e-20)
(0.907336 0.0426487 -1.78764e-21)
(1.01501 0.0454073 -1.22181e-20)
(0.985735 0.0549358 1.10754e-20)
(0.969427 0.0675386 -1.42091e-20)
(0.946084 0.0855456 -8.49223e-20)
(0.901153 0.110239 0)
(0.837728 0.152119 2.05919e-19)
(0.679492 0.208772 -2.56776e-19)
(0.700583 0.0195601 -6.52071e-20)
(1.20668 0.0357789 2.23178e-20)
(0.908015 0.0451098 2.99762e-20)
(1.0172 0.0470449 1.76435e-20)
(0.988714 0.0585306 -2.64032e-20)
(0.973782 0.0734726 -3.51776e-22)
(0.951988 0.095795 -5.97061e-20)
(0.910874 0.127641 -4.82123e-21)
(0.849861 0.186422 2.33598e-22)
(0.711057 0.267547 6.42629e-19)
(0.699915 0.0176869 -7.99664e-21)
(1.20723 0.0360049 5.24107e-21)
(0.908609 0.0472718 2.78132e-20)
(1.01976 0.0484887 1.54022e-20)
(0.992059 0.0619209 -1.33439e-20)
(0.97881 0.0791984 -1.63209e-20)
(0.959027 0.105756 8.8869e-20)
(0.92308 0.144761 -1.44222e-21)
(0.865742 0.219427 -2.50142e-19)
(0.754175 0.323536 6.86735e-20)
(0.69903 0.0160439 8.42744e-21)
(1.2078 0.0360682 -4.63999e-20)
(0.909141 0.0490686 -2.19955e-20)
(1.02271 0.049734 6.3141e-21)
(0.995771 0.065077 0)
(0.984505 0.0846646 0)
(0.967251 0.115334 7.54434e-20)
(0.937586 0.161438 2.70009e-22)
(0.885645 0.250493 -1.21525e-19)
(0.808076 0.375959 9.43342e-20)
(0.697908 0.0147112 -2.05034e-21)
(1.2083 0.0359342 3.91982e-20)
(0.909638 0.0504351 -4.08078e-20)
(1.02606 0.0507853 -3.52776e-20)
(0.999842 0.0679696 -6.6983e-22)
(0.990854 0.0898245 6.49581e-20)
(0.976702 0.124459 1.17639e-19)
(0.954163 0.177525 -7.56704e-22)
(0.90997 0.279367 2.07554e-19)
(0.871682 0.424258 -2.04993e-19)
(0.696524 0.0137873 -2.97857e-20)
(1.20862 0.0355539 1.99947e-20)
(0.910141 0.0513045 -1.96819e-21)
(1.02983 0.0516593 -5.6945e-20)
(1.00425 0.0705697 1.82984e-21)
(0.997848 0.094639 -1.0787e-21)
(0.987397 0.13307 -7.18107e-21)
(0.972686 0.192897 -2.04249e-19)
(0.939011 0.30547 1.5992e-19)
(0.943362 0.467115 -4.76114e-19)
(0.69484 0.0133731 1.28798e-20)
(1.20867 0.0348529 -5.81212e-20)
(0.910702 0.0516167 1.38992e-20)
(1.03404 0.0523877 4.54705e-20)
(1.00898 0.072851 8.548e-22)
(1.00549 0.0990939 -7.51005e-20)
(0.999362 0.141197 -6.46299e-20)
(0.993012 0.207807 3.70634e-19)
(0.973263 0.329274 1.21334e-20)
(1.02183 0.508272 7.58456e-19)
(0.692811 0.0135986 -1.9658e-21)
(1.20838 0.0336899 2.47823e-20)
(0.911402 0.0513109 -6.02557e-21)
(1.03867 0.0530295 -4.71782e-20)
(1.01395 0.0747474 -8.37859e-20)
(1.0137 0.102961 1.71268e-21)
(1.01251 0.148041 -8.91721e-20)
(1.01507 0.219558 4.85527e-19)
(1.01412 0.343811 -7.56618e-21)
(1.10234 0.534706 -1.04016e-18)
(0.690442 0.0148808 8.41932e-21)
(1.20826 0.032147 3.51506e-20)
(0.912231 0.0503809 1.6808e-20)
(1.04356 0.053754 -1.03646e-19)
(1.0186 0.0767412 -7.75438e-20)
(1.02096 0.107674 -6.22078e-20)
(1.02308 0.15748 -1.58516e-19)
(1.03096 0.23752 -4.51489e-19)
(1.04587 0.371367 -2.69219e-19)
(1.17602 0.584521 -1.13408e-18)
(0.69148 0.0154731 -2.35339e-20)
(1.20994 0.0299515 -7.07928e-21)
(0.914371 0.0477696 -1.35574e-20)
(1.04966 0.0534258 3.18924e-22)
(1.02743 0.076249 5.42428e-20)
(1.03555 0.107919 -4.30642e-20)
(1.04716 0.157835 1.42527e-19)
(1.07088 0.235886 -4.52969e-19)
(1.1146 0.356276 -1.913e-19)
(1.24147 0.559903 6.43303e-19)
(0.692108 0.0137173 2.08099e-20)
(1.21368 0.0274081 1.34175e-20)
(0.918459 0.0432112 7.23459e-21)
(1.05501 0.0508939 4.06702e-20)
(1.03728 0.0723726 8.34743e-20)
(1.05031 0.102659 1.2655e-19)
(1.06982 0.149129 3.07163e-20)
(1.10582 0.219366 2.48334e-19)
(1.16264 0.321453 3.16434e-19)
(1.30431 0.479623 -1.54119e-20)
(0.692465 0.0114392 -2.35019e-20)
(1.21742 0.0243141 -4.62603e-21)
(0.92274 0.0385841 -1.38866e-20)
(1.06044 0.0472574 1.98728e-20)
(1.04672 0.067189 2.28474e-34)
(1.06422 0.0953253 -8.95385e-21)
(1.09047 0.137371 -5.80864e-34)
(1.13632 0.198949 2.06493e-20)
(1.20104 0.282297 -5.78178e-20)
(1.35369 0.408545 -4.97349e-20)
(0.692835 0.0083224 3.89553e-20)
(1.221 0.0205966 -4.9432e-35)
(0.926917 0.0335909 1.35861e-20)
(1.06566 0.0426006 -1.69283e-20)
(1.05539 0.060672 -3.29605e-20)
(1.07676 0.0860489 -4.23368e-20)
(1.10859 0.12302 -7.28663e-34)
(1.16177 0.175798 -1.08939e-19)
(1.23176 0.242342 -1.48433e-19)
(1.38705 0.341044 9.22804e-20)
(0.693269 0.0043333 0)
(1.22452 0.0163197 -1.14321e-36)
(0.930908 0.0282807 0)
(1.07052 0.0370726 0)
(1.06309 0.0529876 0)
(1.08771 0.0751072 0)
(1.12407 0.106562 -4.41016e-34)
(1.18239 0.150509 0)
(1.25603 0.202235 -2.25349e-20)
(1.40749 0.27751 5.59695e-20)
(0.69383 -0.000389574 2.52443e-20)
(1.22816 0.0115693 -4.50153e-21)
(0.93468 0.0227533 1.28187e-20)
(1.07485 0.0308485 0)
(1.06972 0.0443403 0)
(1.09695 0.0628348 7.68538e-21)
(1.13684 0.0885477 3.11384e-20)
(1.1986 0.123806 -1.55081e-20)
(1.27471 0.162809 -3.35692e-20)
(1.41923 0.21827 2.08515e-19)
(0.69455 -0.00655966 -4.71145e-20)
(1.23201 0.00629123 5.74701e-21)
(0.938198 0.0170765 1.23827e-20)
(1.07855 0.0240979 -5.39416e-21)
(1.07514 0.0349322 -1.13328e-20)
(1.10437 0.0495379 -9.02381e-21)
(1.14691 0.0694154 -2.34392e-20)
(1.21088 0.096241 -4.4918e-20)
(1.28852 0.124411 -6.20164e-20)
(1.42552 0.163227 9.2328e-20)
(0.695536 -0.0118456 -3.49288e-20)
(1.23636 0.00101837 -1.59355e-20)
(0.941314 0.011833 1.16275e-20)
(1.08132 0.0169485 -1.45628e-20)
(1.07912 0.024847 7.64854e-35)
(1.10977 0.035324 8.33184e-21)
(1.1542 0.0492677 -1.07133e-33)
(1.21951 0.0678451 -1.58134e-20)
(1.29793 0.0865704 2.11779e-20)
(1.42866 0.110942 2.80342e-20)
(0.695351 -0.0246754 1.78242e-19)
(1.23526 -0.00498793 -9.18662e-21)
(0.938967 0.00590553 1.15338e-20)
(1.07814 0.0103989 2.8678e-21)
(1.07675 0.0151143 3.90072e-21)
(1.10834 0.0217041 1.51614e-20)
(1.15397 0.0301491 8.85479e-21)
(1.22011 0.0413373 -5.18976e-21)
(1.29863 0.052066 -2.26543e-20)
(1.42583 0.065212 1.45115e-19)
(0.652593 -0.0184627 2.93177e-20)
(1.11182 -0.00790366 -7.12385e-35)
(0.825881 0.00277026 1.097e-20)
(0.959051 0.00166162 0)
(0.954784 0.0033368 0)
(0.984039 0.00477588 8.58699e-21)
(1.02601 0.00658979 -1.02097e-35)
(1.08598 0.00912639 -1.57979e-20)
(1.15767 0.0112695 -3.11698e-20)
(1.26684 0.0135981 6.19437e-20)
(1.41551 0.622474 -1.9126e-19)
(1.50735 0.61885 -2.82553e-19)
(1.60063 0.592654 0)
(1.68692 0.545965 9.09107e-20)
(1.76803 0.486117 4.49723e-19)
(1.84209 0.41598 -1.47882e-19)
(1.90596 0.336468 1.35387e-18)
(1.95705 0.249243 -5.09384e-20)
(1.99357 0.156339 -3.57532e-19)
(2.01389 0.0603688 3.09538e-19)
(1.45569 0.512785 7.73676e-20)
(1.53029 0.499909 1.1575e-19)
(1.61069 0.466607 -2.39292e-21)
(1.68275 0.422706 1.53434e-19)
(1.74735 0.372854 -1.41854e-19)
(1.80465 0.31714 -3.73101e-19)
(1.85315 0.255518 -7.31471e-20)
(1.89148 0.188861 5.29415e-19)
(1.91854 0.118553 -1.86299e-20)
(1.93356 0.0458879 -4.41275e-19)