# Selection   : all
# Cells       : 440
# Volume      : 7.374263e+01
# Time        	min(p)
6.115         	-1.512220e+00
6.16          	-1.487766e+00
6.21          	-1.461001e+00
