# Selection   : all
# Cells       : 440
# Volume      : 7.374263e+01
# Time        	minMag(U)
7.315         	6.796004e-03
7.36          	7.382792e-03
7.41          	7.942904e-03
