/*--------------------------------*- C++ -*----------------------------------*\
  =========                 |
  \\      /  F ield         | OpenFOAM: The Open Source CFD Toolbox
   \\    /   O peration     | Website:  https://openfoam.org
    \\  /    A nd           | Version:  13
     \\/     M anipulation  |
\*---------------------------------------------------------------------------*/
FoamFile
{
    format      ascii;
    class       volScalarField;
    location    "0.095";
    object      strainRateViscosityModel:nu;
}
// * * * * * * * * * * * * * * * * * * * * * * * * * * * * * * * * * * * * * //

dimensions      [0 2 -1 0 0 0 0];

internalField   nonuniform List<scalar> 
1800
(
9.4056
9.19818
9.0095
8.79798
8.56949
8.3325
8.09721
7.87153
7.58733
7.33278
9.58462
9.41783
9.26512
9.09405
8.90569
8.70294
8.49119
8.27113
8.00328
7.66989
9.70127
9.56135
9.42604
9.26791
9.0841
8.87233
8.63148
8.35591
8.0125
7.58587
9.7745
9.65477
9.53127
9.38003
9.19647
8.97616
8.71532
8.40598
8.01542
7.53668
9.82089
9.71701
9.60371
9.45901
9.27706
9.05216
8.7794
8.45129
8.03818
7.54389
9.85116
9.75963
9.65555
9.5181
9.3402
9.11471
8.83526
8.49433
8.06483
7.56233
9.87117
9.78882
9.69234
9.56161
9.38833
9.1638
8.87979
8.52791
8.08274
7.571
9.88418
9.80822
9.71731
9.59168
9.42192
9.19777
8.90907
8.54618
8.08532
7.56108
9.89206
9.82008
9.73263
9.60998
9.44169
9.21602
8.92099
8.54578
8.06888
7.52768
9.89594
9.82588
9.74001
9.61848
9.45012
9.22214
8.92137
8.53634
8.04863
7.49283
1.99499
1.42935
1.36912
1.65037
2.00808
2.24485
2.33351
2.36699
2.39217
2.40408
3.15045
2.1259
2.0205
2.34319
2.59459
2.64602
2.66294
2.72572
2.7851
2.81229
4.04604
3.15671
3.02905
3.1975
3.2227
3.13685
3.14253
3.22938
3.28976
3.32246
4.99231
4.36313
4.17931
4.13035
3.99228
3.84344
3.80908
3.84779
3.87245
3.91451
6.01199
5.55103
5.31764
5.12557
4.90231
4.69956
4.57949
4.52714
4.50144
4.55694
6.9859
6.59642
6.33684
6.07916
5.81257
5.56162
5.35801
5.21612
5.13163
5.19223
7.80263
7.44216
7.17399
6.89328
6.60532
6.32092
6.05719
5.8417
5.69288
5.74569
8.42043
8.08535
7.81983
7.53383
7.23356
6.92394
6.61458
6.33647
6.12232
6.15527
8.85981
8.55866
8.30298
8.01714
7.70474
7.3676
7.00887
6.6562
6.35188
6.35276
9.16581
8.90633
8.66983
8.39662
8.08982
7.75158
7.38068
6.995
6.65126
6.69124
2.22411
1.70187
1.24062
0.684707
0.241836
0.0639744
0.0240715
0.0144148
0.0117731
0.0102596
2.54329
1.83835
1.35702
0.741211
0.262861
0.0688437
0.024969
0.014765
0.0120084
0.0103102
2.93767
1.98535
1.47491
0.809065
0.288247
0.0748412
0.0260283
0.0151193
0.0122243
0.0103564
3.41305
2.16831
1.59151
0.886426
0.318997
0.0819076
0.0272498
0.0154648
0.0124091
0.0103945
3.94414
2.41026
1.71024
0.969667
0.355497
0.0899746
0.0286266
0.0157922
0.0125506
0.0104217
4.47365
2.718
1.84136
1.05667
0.397581
0.0992128
0.0301621
0.0160986
0.0126418
0.0104359
4.92625
3.07281
1.99095
1.14286
0.441232
0.109075
0.0317538
0.0163789
0.0126795
0.010436
5.2325
3.45369
2.18207
1.24242
0.490774
0.121794
0.0336114
0.0166625
0.0126686
0.0104223
5.26002
3.73887
2.34693
1.31284
0.522683
0.131303
0.0348191
0.0168137
0.0126017
0.010395
5.11121
4.00704
2.60881
1.46736
0.599143
0.159446
0.0397356
0.0174219
0.0125711
0.0103669
4.88421
4.01095
2.71393
1.50336
0.59282
0.158627
0.0406663
0.0174253
0.0123598
0.0103147
5.34975
3.54962
2.45876
1.24555
0.415633
0.0986239
0.0294214
0.0148422
0.0112667
0.0100684
4.98917
3.21729
2.29297
1.00791
0.240323
0.0372444
0.0177557
0.0172587
0.0180408
0.0231263
4.57589
3.52995
2.38803
1.10777
0.349828
0.221675
0.265408
0.293194
0.3015
0.325154
5.06866
4.60847
3.06272
1.7567
0.913919
0.745798
0.759565
0.766079
0.760073
0.764384
6.22733
5.59363
3.89534
2.41097
1.40028
1.09033
1.04309
1.0268
1.01146
1.01362
7.25118
6.33874
4.63341
3.02298
1.92138
1.49776
1.36936
1.31508
1.28451
1.27465
7.99092
6.89043
5.21973
3.55057
2.39457
1.86322
1.64308
1.54311
1.49453
1.47268
8.5092
7.31064
5.67533
3.99425
2.81135
2.19137
1.88167
1.73293
1.66478
1.6306
8.92235
7.67004
6.04189
4.37008
3.20821
2.51885
2.11351
1.90649
1.81344
1.76335
6.51398
6.43901
6.42618
6.43988
6.47276
6.50863
6.55274
6.67222
6.84793
6.76803
0.253213
1.04305
1.99122
2.90473
3.68551
4.29827
4.71494
4.96338
5.20394
5.70514
3.87035
3.56649
3.30612
3.13088
3.12527
3.27139
3.49925
3.74789
4.20652
4.88492
6.6424
6.62508
6.53497
6.34227
6.03989
5.6529
5.24377
4.89221
4.7409
4.56198
7.68869
7.67338
7.62899
7.53801
7.39222
7.18445
6.91883
6.60691
6.26747
5.62967
8.44364
8.4272
8.38843
8.32183
8.22374
8.09087
7.92225
7.70982
7.41883
6.89434
8.9336
8.91774
8.88393
8.83023
8.7549
8.65597
8.53113
8.37179
8.14716
7.80033
9.26795
9.25466
9.2271
9.1842
9.12452
9.04605
8.94588
8.81761
8.64514
8.42275
9.50095
9.49056
9.46929
9.4362
9.38987
9.32836
9.24888
9.14689
9.01613
8.86775
9.68802
9.68091
9.66648
9.64384
9.61162
9.56796
9.51044
9.436
9.34183
9.23861
7.22214
7.50246
7.81579
8.06977
8.33054
8.58898
8.83414
9.05712
9.25206
9.45911
7.56307
7.93028
8.22503
8.46762
8.69835
8.91639
9.11623
9.29491
9.45128
9.61658
7.48254
7.94325
8.31327
8.60966
8.86689
9.09087
9.28302
9.446
9.583
9.72086
7.43564
7.94709
8.36391
8.69331
8.96931
9.20024
9.39046
9.54506
9.66928
9.78704
7.44907
7.97323
8.41114
8.75794
9.04451
9.27871
9.46614
9.61334
9.72695
9.82922
7.47825
8.00662
8.45835
8.81582
9.10725
9.34057
9.5229
9.66224
9.76648
9.8568
7.50164
8.03447
8.49834
8.86387
9.15754
9.38821
9.56485
9.69694
9.7935
9.87498
7.51061
8.05018
8.52507
8.8979
9.19347
9.42186
9.59387
9.72036
9.81129
9.88666
7.49866
8.04882
8.53422
8.91512
9.21394
9.44189
9.61136
9.73443
9.82184
9.89347
7.48333
8.04209
8.53285
8.9197
9.22163
9.45028
9.61897
9.74061
9.82646
9.8964
2.58746
2.57584
2.543
2.51844
2.49653
2.34413
1.95462
1.57896
1.73119
3.06548
2.95918
2.93766
2.87086
2.78784
2.80299
2.87823
2.72934
2.41575
2.5876
3.953
3.40627
3.3824
3.33331
3.24843
3.27009
3.45079
3.55608
3.49763
3.71685
4.72649
3.92976
3.89364
3.8934
3.89203
3.98413
4.2182
4.4631
4.62879
4.9047
5.5977
4.51964
4.47013
4.52985
4.63819
4.83194
5.1148
5.42074
5.70032
6.00582
6.52105
5.12076
5.06967
5.19695
5.39937
5.67262
5.99054
6.31898
6.63623
6.94623
7.37863
5.65405
5.61446
5.81114
6.08391
6.406
6.74249
7.07559
7.39604
7.69732
8.08458
6.05152
6.03426
6.29743
6.62674
6.98376
7.33362
7.66695
7.97964
8.26592
8.61387
6.23657
6.25259
6.60616
7.00497
7.40414
7.77389
8.11153
8.41588
8.6842
8.98969
6.57314
6.54036
6.92913
7.35708
7.76414
8.13103
8.45915
8.74675
8.99162
9.25184
0.0746565
0.0834839
0.0153419
0.0110445
0.0165859
0.116531
0.535631
1.20667
1.77649
2.36907
0.0526657
0.0900189
0.016616
0.013147
0.0208697
0.134135
0.591468
1.32435
1.90598
2.65664
0.038609
0.098581
0.0189532
0.0172775
0.0286
0.161341
0.666223
1.44688
2.04101
3.00668
0.0296859
0.108875
0.0224645
0.0238026
0.0403873
0.199264
0.756614
1.56894
2.20629
3.43229
0.0242878
0.120949
0.027237
0.0328001
0.0564335
0.247663
0.856856
1.69195
2.42725
3.91466
0.0215025
0.135072
0.0333091
0.0440936
0.0766142
0.305289
0.962749
1.82597
2.71441
4.39961
0.020812
0.151536
0.040748
0.0571926
0.0995586
0.366713
1.06782
1.97787
3.05152
4.81309
0.0219527
0.170677
0.0497536
0.0717339
0.126169
0.434792
1.18608
2.17328
3.41784
5.08481
0.0254987
0.191887
0.0604109
0.0859323
0.148852
0.483916
1.27114
2.34126
3.6939
5.08173
0.0358762
0.210902
0.0733986
0.101198
0.185927
0.578241
1.44827
2.61653
3.94708
4.88175
0.0668794
0.238842
0.0920581
0.119165
0.204749
0.59949
1.50438
2.74484
3.98289
4.68127
0.14398
0.283098
0.105408
0.118082
0.156861
0.436474
1.25869
2.53038
3.60312
5.25319
0.288457
0.333504
0.118891
0.110412
0.0928478
0.271223
1.00554
2.3602
3.35365
5.02257
0.537206
0.352736
0.0538791
0.0377235
0.0578174
0.175518
0.89311
2.29465
3.55133
4.68408
0.904622
0.255538
0.0932026
0.380505
0.588128
0.738238
1.50745
2.87048
4.516
5.08563
1.42673
0.0810091
0.672581
0.865114
1.01864
1.28551
2.21511
3.72159
5.49548
6.17554
2.11433
0.60762
1.0204
1.23007
1.45866
1.85407
2.88359
4.50186
6.25883
7.20147
3.74345
1.63166
1.51158
1.64707
1.88839
2.38851
3.47476
5.13593
6.83561
7.96168
6.84925
3.52627
2.19093
2.01744
2.26074
2.85059
3.97482
5.6372
7.28403
8.50047
9.04776
6.38981
3.10848
2.53874
2.66876
3.30271
4.41618
6.05648
7.67764
8.93162
6.6011
6.66836
6.49534
6.37809
6.34138
6.31813
6.30361
6.31741
6.36333
6.47756
5.55668
5.0429
4.79352
4.54811
4.14504
3.55376
2.8064
1.93513
1.04398
0.281463
4.90693
4.28026
3.8565
3.63037
3.43023
3.30207
3.30512
3.45239
3.65916
3.88658
4.68878
4.84687
4.98656
5.30099
5.67526
6.03608
6.32563
6.51772
6.61477
6.64019
5.63068
6.24671
6.58587
6.89492
7.16268
7.37553
7.52767
7.62476
7.67357
7.68928
6.84265
7.37463
7.67509
7.89537
8.07065
8.2092
8.3122
8.38292
8.42485
8.4431
7.75631
8.11326
8.34543
8.51154
8.64163
8.74471
8.82337
8.87973
8.91561
8.93297
8.39782
8.62613
8.80257
8.93484
9.03816
9.11907
9.18061
9.2249
9.25351
9.2676
8.85993
9.01041
9.14234
9.24576
9.32637
9.38871
9.43558
9.46901
9.49046
9.50093
9.244
9.34642
9.4396
9.51336
9.57035
9.61356
9.64535
9.66757
9.68157
9.68824
9.5393
9.03828
8.30833
7.02358
5.71882
0.156648
3.37226
6.04549
7.28739
8.2256
9.49844
8.97792
8.24242
6.98631
5.65644
0.62672
2.62122
5.79812
6.99452
7.9934
9.40589
8.84637
8.09902
6.90533
5.46947
1.70339
1.41646
5.30375
6.39928
7.49388
9.23626
8.62043
7.86087
6.75208
5.29386
2.84802
0.744021
4.33046
5.52919
6.67783
8.94593
8.2647
7.50073
6.4803
5.13762
3.47849
1.00749
2.71472
4.44383
5.52109
8.47053
7.73334
6.97985
6.03785
4.87966
3.55208
1.78238
1.35774
3.18556
4.13633
7.73426
6.9808
6.25905
5.3957
4.422
3.35099
2.23761
1.22299
1.77129
2.7088
6.69755
5.99811
5.32711
4.54047
3.72893
2.92231
2.17852
1.52916
1.13657
1.34599
5.42929
4.87574
4.26496
3.53003
2.8611
2.28103
1.83431
1.47836
1.19642
0.691163
4.09859
3.79714
3.25585
2.53896
1.99068
1.61643
1.38499
1.27821
1.13379
0.864875
2.88024
2.89971
2.44268
1.73505
1.29735
1.09741
1.02554
1.03053
1.03721
1.06606
1.91545
2.19656
1.82485
1.16562
0.859158
0.820238
0.87348
0.922781
0.92416
0.942335
1.27321
1.63336
1.31913
0.783948
0.649744
0.743456
0.861692
0.940463
0.957551
0.970064
0.902477
1.16467
0.885353
0.58433
0.650046
0.81133
0.934652
1.00678
1.01745
1.01816
0.674817
0.741015
0.561617
0.586835
0.777931
0.943028
1.05615
1.12087
1.13063
1.12244
0.489089
0.371178
0.466558
0.708758
0.924301
1.0837
1.1876
1.24828
1.26176
1.25365
0.216495
0.248172
0.569855
0.829947
1.05325
1.20608
1.31092
1.37825
1.40523
1.40466
0.0629723
0.369905
0.685594
0.956346
1.16012
1.31591
1.44184
1.53488
1.57948
1.58617
0.188578
0.564236
0.833328
1.09121
1.29376
1.49534
1.66738
1.77633
1.81518
1.81666
0.817379
0.95592
1.05746
1.27302
1.55025
1.82909
2.00495
2.07529
2.08946
2.0867
0.37006
0.0386042
0.302393
0.60185
0.789341
0.888486
0.961952
1.01715
1.05101
1.06774
0.500533
0.262723
0.350151
0.539823
0.68768
0.766687
0.827808
0.874665
0.903088
0.913921
0.596144
0.443135
0.429643
0.47827
0.573108
0.63184
0.679945
0.717081
0.739219
0.742653
0.743448
0.679183
0.563824
0.452232
0.448834
0.481967
0.516419
0.543378
0.559186
0.557918
0.928538
0.870737
0.684336
0.47313
0.331666
0.317807
0.340417
0.361886
0.374027
0.365933
1.12738
1.03002
0.785238
0.513175
0.254412
0.156589
0.128989
0.118581
0.114193
0.0940116
1.32396
1.16193
0.868051
0.545665
0.216855
0.0780708
0.0365728
0.0223698
0.0173206
0.0127243
1.52044
1.28891
0.947743
0.573264
0.20673
0.0590771
0.0231368
0.0137873
0.0112391
0.0101452
1.72921
1.4227
1.03392
0.602984
0.211981
0.0579279
0.0227331
0.0137675
0.0113007
0.0101596
1.95988
1.56287
1.13156
0.639264
0.224683
0.060284
0.02333
0.0140819
0.0115337
0.0102082
2.04256
0.698175
0.715046
0.993295
1.25887
1.42365
1.5277
1.59287
1.62885
1.65586
1.45798
0.449445
0.601472
0.915252
1.16689
1.3229
1.42562
1.49243
1.53063
1.55652
0.810226
0.262851
0.529914
0.846518
1.08304
1.2285
1.32794
1.39484
1.43393
1.45859
0.30685
0.175129
0.474497
0.780004
0.99489
1.1242
1.21624
1.28067
1.31917
1.34176
0.461758
0.0389352
0.361154
0.67379
0.881926
1.00128
1.08787
1.15093
1.18948
1.21087
9.41341
9.35286
9.21278
8.95963
8.54423
7.90786
7.01692
5.90436
4.70554
3.63111
9.26238
9.17136
8.96874
8.61731
8.06971
7.28762
6.2778
5.1258
3.99978
2.91337
9.10075
8.98366
8.72316
8.27657
7.59932
6.67325
5.53943
4.33168
3.22481
2.05171
8.89561
8.74841
8.4212
7.86607
7.04393
5.96659
4.71307
3.44278
2.35182
1.19142
8.66378
8.46247
8.02175
7.29009
6.24279
4.93758
3.50393
2.21361
1.07437
0.315849
1.08601
1.0633
1.06112
1.04914
1.09404
1.26325
1.71329
2.50237
2.97947
2.85398
0.983257
0.975028
0.983179
0.93581
0.860935
0.856572
1.1567
1.91211
2.30447
1.87352
1.03983
1.04089
1.03706
0.966728
0.84002
0.70622
0.803325
1.41236
1.7461
1.22428
1.12183
1.13557
1.13864
1.07762
0.956788
0.781031
0.668797
0.961752
1.23934
0.849191
1.25708
1.27823
1.28119
1.22868
1.12513
0.961284
0.753309
0.650522
0.737039
0.619657
1.41222
1.42962
1.42514
1.37637
1.28453
1.13181
0.900059
0.611854
0.36738
0.402454
1.58615
1.59318
1.56819
1.50125
1.39993
1.25275
1.02533
0.728941
0.335565
0.127951
1.79455
1.79956
1.76164
1.65841
1.50839
1.33293
1.12802
0.837499
0.496522
0.0641
2.03724
2.05288
2.03984
1.94563
1.74736
1.48202
1.23192
0.988366
0.794595
0.586392
2.29209
2.3022
2.3063
2.27631
2.13194
1.81554
1.43993
1.18743
1.22667
1.60073
8.22541
7.28703
6.04512
3.37174
0.156919
5.71731
7.02309
8.30814
9.0383
9.5394
7.9927
6.99339
5.79703
2.6207
0.626476
5.65256
6.98486
8.24186
8.97798
9.49874
7.49236
6.39727
5.3017
1.41851
1.69941
5.46493
6.90307
8.09818
8.84651
9.40646
6.67497
5.52597
4.32784
0.747318
2.83958
5.28904
6.74925
7.85995
8.62078
9.23724
5.51639
4.43904
2.71544
1.00748
3.46751
5.13173
6.47698
7.49995
8.26552
8.94761
4.12854
3.17872
1.36493
1.77543
3.53984
4.87155
6.03378
6.97952
7.73517
8.47324
2.696
1.77013
1.23168
2.22525
3.33518
4.4094
5.38954
6.25979
6.98501
7.73841
1.33502
1.14897
1.53369
2.1652
2.9004
3.70833
4.52965
5.33103
6.0085
6.70308
0.699338
1.21076
1.48494
1.82363
2.25477
2.82982
3.51267
4.27817
4.9005
5.4334
0.887284
1.15213
1.29473
1.38612
1.59385
1.95121
2.51604
3.28797
3.84631
4.09197
2.03413
0.51224
1.06609
0.895199
0.892093
0.811916
0.639543
0.345606
0.0446849
0.36293
1.56441
0.224668
0.819824
0.696241
0.759542
0.704808
0.573222
0.37528
0.295212
0.517554
1.26915
0.0179261
0.566348
0.495843
0.608528
0.578554
0.501699
0.438696
0.500291
0.639602
0.982214
0.0785414
0.214999
0.31174
0.450457
0.44121
0.454944
0.568762
0.757249
0.822669
0.727346
0.136659
0.0160479
0.0508436
0.258334
0.300797
0.451404
0.694849
0.960146
1.03955
0.516929
0.132036
0.0325181
0.016336
0.0739334
0.197811
0.467461
0.797055
1.12314
1.2626
0.358039
0.109299
0.0239678
0.0162998
0.0267158
0.139262
0.471471
0.872259
1.25341
1.47652
0.242835
0.0899751
0.0185198
0.0122708
0.018596
0.113683
0.471299
0.939025
1.37649
1.68517
0.162758
0.0809066
0.0159483
0.0105737
0.0157521
0.105678
0.478348
1.01261
1.5061
1.89868
0.109202
0.0798326
0.015077
0.0103575
0.015024
0.107243
0.498717
1.10135
1.64209
2.12257
9.33595
6.76008
2.79388
2.0129
1.50135
1.29129
1.02515
0.771694
0.736744
2.06362
8.20965
4.61308
2.32373
1.74065
1.38108
1.19818
0.948463
0.654383
0.47583
1.45993
6.11292
3.02854
1.88891
1.53424
1.27096
1.11478
0.881686
0.580808
0.284153
0.796975
4.10976
1.83054
1.57366
1.31849
1.15304
1.02517
0.815921
0.522777
0.198495
0.284957
2.79317
1.02068
1.29465
1.09795
1.01712
0.910254
0.711997
0.40666
0.0538873
0.43377
3.64004
4.7123
5.90883
7.01983
7.90978
8.54547
8.96039
9.21322
9.3531
9.41349
2.90686
3.99628
5.12372
6.27664
7.28725
8.06977
8.61751
8.96894
9.1715
9.26243
2.03681
3.21542
4.32577
5.53518
6.67079
7.59815
8.27612
8.72305
8.98367
9.10077
1.16628
2.33332
3.43142
4.7054
5.96218
7.04153
7.86488
8.42071
8.74825
8.89558
0.318134
1.05487
2.19771
3.49295
4.9308
6.23894
7.28799
8.02077
8.46209
8.6637
)
;

boundaryField
{
    left
    {
        type            calculated;
        value           nonuniform List<scalar> 
35
(
0.298224
0.482873
0.875167
1.54163
2.49167
3.69537
5.05595
6.47248
8.15806
9.44153
0.296082
0.247992
0.21799
0.199217
0.188102
0.182874
0.182651
0.18711
0.198399
0.22588
4.92768
4.04123
3.21445
2.49296
1.87695
1.37318
0.983471
0.697537
0.501133
0.374422
9.61556
8.97951
7.92388
6.85052
5.86042
)
;
    }
    right
    {
        type            calculated;
        value           nonuniform List<scalar> 
35
(
1.65607
1.55638
1.4579
1.34022
1.20814
1.0633
0.907598
0.734349
0.548112
0.355976
0.0887332
0.0120814
0.0100577
0.0100582
0.010075
0.0100928
0.0101103
0.0101263
0.0101397
0.0101494
0.0101549
0.0101555
0.0101514
0.0101425
0.0101339
0.0101143
0.0100135
0.025599
0.338122
0.779043
1.0251
1.28213
1.47654
1.63185
1.76241
)
;
    }
    down
    {
        type            calculated;
        value           nonuniform List<scalar> 
40
(
9.45373
7.25607
3.0097
2.09291
1.53744
1.32239
1.05186
0.808532
0.836044
2.27885
3.91106
4.99257
6.16916
7.23067
8.0666
8.65548
9.03583
9.26683
9.39491
9.45041
9.45033
9.39465
9.26634
9.03498
8.65405
8.06425
7.22692
6.16322
4.98342
3.89852
2.25334
0.794442
0.750334
1.02098
1.29086
1.45607
1.5591
1.623
1.65779
1.68483
)
;
    }
    up
    {
        type            calculated;
        value           nonuniform List<scalar> 
40
(
9.02604
7.78704
6.15886
4.48782
3.32716
2.61368
2.17594
1.95062
1.85119
1.79766
9.72773
9.72147
9.70879
9.68885
9.66035
9.62152
9.57001
9.50272
9.41687
9.32334
9.33088
9.42305
9.50749
9.57376
9.6245
9.6627
9.69063
9.71005
9.72223
9.72798
9.26975
7.09834
3.46025
2.65883
2.77273
3.43339
4.55066
6.18687
7.80364
9.03871
)
;
    }
    cylinder
    {
        type            calculated;
        value           nonuniform List<scalar> 
80
(
2.30712
3.61361
4.39427
5.19811
6.13371
7.07457
7.88087
8.49184
8.92195
9.21676
9.44644
9.61811
9.72896
9.79749
9.84025
9.86785
9.88596
9.89768
9.90476
9.90824
9.49948
9.64932
9.7478
9.80941
9.84813
9.87316
9.88954
9.90001
9.90608
9.90868
3.6961
4.50915
5.08101
5.80176
6.64858
7.47546
8.16847
8.68778
9.05242
9.30272
2.76155
1.70368
1.05234
0.719441
0.555459
0.434961
0.219644
0.053982
0.634631
1.85539
9.61969
9.58404
9.5023
9.34973
9.08232
8.63203
7.91352
6.87179
5.55674
4.12006
9.61959
9.58373
9.50171
9.3487
9.08057
8.62925
7.90965
6.86846
5.56127
4.14897
2.82519
1.78742
1.1364
0.79788
0.621565
0.50868
0.309577
0.161416
0.139556
0.8554
)
;
    }
    defaultFaces
    {
        type            empty;
    }
}


// ************************************************************************* //
