/*--------------------------------*- C++ -*----------------------------------*\
  =========                 |
  \\      /  F ield         | OpenFOAM: The Open Source CFD Toolbox
   \\    /   O peration     | Website:  https://openfoam.org
    \\  /    A nd           | Version:  13
     \\/     M anipulation  |
\*---------------------------------------------------------------------------*/
FoamFile
{
    format      ascii;
    class       volScalarField;
    location    "0.195";
    object      p;
}
// * * * * * * * * * * * * * * * * * * * * * * * * * * * * * * * * * * * * * //

dimensions      [0 2 -2 0 0 0 0];

internalField   nonuniform List<scalar> 
1800
(
6.07639
8.18297
10.3348
11.762
12.5948
13.0033
13.1315
12.9705
11.7201
7.62578
9.92621
12.4014
14.9055
16.5884
17.6437
18.3048
18.7574
18.994
18.2664
15.5864
16.3182
18.9426
21.6147
23.4772
24.7365
25.6172
26.2667
26.6485
26.1754
24.343
25.3132
27.8824
30.5304
32.4444
33.8092
34.8176
35.5793
36.0303
35.6229
33.9375
36.3719
38.7326
41.1846
42.9959
44.32
45.3157
46.0698
46.5185
46.1675
44.6116
49.049
51.1015
53.245
54.8512
56.042
56.944
57.6259
58.0361
57.7544
56.3947
62.9979
64.6707
66.4264
67.7583
68.7603
69.5297
70.1209
70.4976
70.3222
69.2332
77.9245
79.1661
80.4773
81.4866
82.2624
82.8761
83.3701
83.7247
83.691
82.9543
93.5438
94.3236
95.1552
95.8101
96.3328
96.7701
97.1527
97.4759
97.5859
97.2511
109.574
109.879
110.211
110.485
110.723
110.944
111.161
111.374
111.535
111.562
-0.250811
-0.500325
-0.278891
0.126193
0.594702
1.055
1.39604
1.59396
1.74122
1.89265
-0.0797159
-0.616484
-0.753474
-0.558519
-0.137412
0.263981
0.529647
0.765671
1.05133
1.32597
0.911636
-0.0882009
-0.960455
-1.12337
-0.791318
-0.510213
-0.318601
-0.0178975
0.387232
0.76848
1.26071
0.095184
-1.12592
-1.45301
-1.23021
-1.09578
-0.985367
-0.685328
-0.23405
0.269376
0.7986
-0.18144
-1.13047
-1.41635
-1.36066
-1.37942
-1.34736
-1.08867
-0.602626
0.0879944
0.0830696
-0.437501
-0.841725
-0.970686
-0.990316
-1.05481
-1.04739
-0.843125
-0.324515
0.604132
-0.250244
-0.212622
-0.0376416
0.108468
0.194854
0.216965
0.254109
0.419357
0.992191
2.21932
0.241289
0.82814
1.54839
2.0525
2.38252
2.59572
2.74327
2.95645
3.68372
5.34377
1.69663
2.80471
4.0524
4.97309
5.6424
6.13354
6.47134
6.8075
7.79147
10.0768
3.94389
5.58647
7.40374
8.77858
9.79995
10.5582
11.0777
11.5271
12.5844
14.7447
2.61017
2.75576
2.67685
2.45475
1.96658
1.53337
1.16906
0.840458
0.510157
0.172683
2.2336
2.70261
2.54195
2.34099
1.86789
1.46195
1.12438
0.812716
0.494577
0.167426
1.73644
2.6534
2.4157
2.21957
1.77009
1.39278
1.08254
0.787305
0.480608
0.162857
1.10688
2.56638
2.30353
2.09368
1.67319
1.32609
1.04337
0.76428
0.468272
0.158945
0.420405
2.39946
2.19629
1.96599
1.57755
1.26195
1.00674
0.743717
0.457605
0.155685
-0.138985
2.13736
2.07465
1.83642
1.48355
1.20064
0.97269
0.725723
0.448659
0.15309
-0.274923
1.80817
1.92077
1.70103
1.39071
1.14261
0.941543
0.710441
0.441498
0.151189
0.46417
1.49675
1.72036
1.54698
1.29426
1.08744
0.913803
0.69807
0.436199
0.15005
2.72659
1.37445
1.44841
1.34354
1.18054
1.03247
0.889826
0.688878
0.432872
0.149751
6.96532
1.75643
1.12014
1.06455
1.03283
0.973053
0.869224
0.682774
0.43148
0.150377
10.3169
2.98232
1.17205
0.894241
0.888839
0.904553
0.843093
0.672026
0.427172
0.151077
12.1354
2.99525
0.711581
0.456792
0.659095
0.8325
0.828627
0.669439
0.426659
0.152368
13.2257
3.13535
0.701221
0.385666
0.658253
0.8663
0.842886
0.667028
0.420925
0.146454
14.5003
4.63725
1.48652
0.890359
0.959355
1.0002
0.869852
0.658329
0.410241
0.135024
16.6578
7.36992
2.93124
1.81509
1.47418
1.21039
0.91586
0.651574
0.39616
0.12183
19.5673
10.188
4.65017
2.88237
2.08416
1.47331
0.983035
0.649586
0.381243
0.109255
22.0932
12.2932
6.23218
3.91745
2.71067
1.76823
1.07537
0.66038
0.371176
0.0999799
23.3783
13.4911
7.45613
4.85483
3.31478
2.07221
1.1875
0.68599
0.369122
0.0954233
23.3172
13.8706
8.32244
5.71244
3.90778
2.38851
1.32367
0.731955
0.379469
0.0969311
22.7634
14.0939
9.0904
6.56552
4.5173
2.73541
1.49921
0.812315
0.413412
0.107038
112.118
98.1707
84.4051
71.3994
59.4596
48.6788
39.096
30.4167
20.402
5.29669
113.098
99.8087
86.3071
73.3006
61.2583
50.379
40.8481
32.5927
23.9294
11.8152
113.63
100.543
87.6611
75.3339
63.7952
53.2043
43.777
35.5928
27.8115
18.679
114.841
103.099
91.1394
79.3062
67.9468
57.3489
47.7141
39.1135
31.4073
24.1444
115.418
104.407
93.486
82.7945
72.4464
62.5197
53.0533
44.1372
36.3126
30.1283
115.767
105.04
94.5334
84.3719
74.6518
65.423
56.664
48.422
41.3783
36.3572
115.998
105.439
95.1278
85.1958
75.7534
66.8736
58.5659
50.8999
44.5476
40.4297
116.098
105.577
95.3107
85.4393
76.0854
67.34
59.2369
51.8447
45.7297
41.7728
116.048
105.362
94.9362
84.9171
75.4381
66.6059
58.4764
51.1079
44.8854
40.4347
115.924
104.978
94.2902
84.0127
74.2874
65.2375
56.9433
49.4495
42.942
37.749
234.496
230.148
228.593
228.16
228.074
228.329
229.065
230.447
232.6
234.74
225.922
222.916
221.876
221.843
222.072
222.56
223.492
225.101
227.573
230.05
216.402
214.237
213.469
213.598
214.032
214.738
215.864
217.635
220.249
222.848
206.09
204.07
203.37
203.568
204.114
204.944
206.17
207.979
210.548
213.067
194.763
192.858
192.206
192.396
192.929
193.742
194.919
196.614
198.969
201.259
182.393
180.672
180.079
180.222
180.676
181.388
182.424
183.902
185.932
187.897
169.044
167.584
167.091
167.194
167.551
168.124
168.964
170.157
171.785
173.356
154.908
153.793
153.439
153.517
153.773
154.185
154.793
155.655
156.826
157.954
140.297
139.584
139.377
139.427
139.573
139.807
140.158
140.66
141.342
141.998
125.77
125.427
125.287
125.24
125.228
125.25
125.317
125.436
125.614
125.789
246.716
246.944
247.187
247.4
247.688
248.162
248.689
249.017
249.03
248.535
246.874
247.193
247.58
247.874
248.06
248.37
248.773
248.701
247.917
246.912
246.967
247.354
247.786
248.09
248.168
248.287
248.557
248.203
246.827
245.565
246.904
247.402
247.826
248.058
248.001
247.897
247.939
247.518
246.21
245.03
246.44
247.096
247.49
247.607
247.449
247.194
247.036
246.682
245.858
245.045
245.234
246.084
246.437
246.423
246.216
245.955
245.778
245.615
245.369
245.068
242.88
243.988
244.347
244.257
244.071
243.926
243.906
244.046
244.353
244.587
238.988
240.486
240.977
240.933
240.868
240.934
241.182
241.683
242.498
243.237
233.51
235.576
236.303
236.387
236.526
236.881
237.475
238.384
239.691
240.904
228.147
230.025
230.785
230.965
231.28
231.902
232.846
234.2
236.048
237.758
247.435
247.179
247.154
246.902
246.704
246.444
246.093
245.852
245.773
245.907
247.397
247.174
247.145
246.9
246.705
246.461
246.134
245.891
245.657
246.006
247.37
247.169
247.137
246.895
246.703
246.479
246.177
245.903
245.498
246.167
247.352
247.163
247.13
246.887
246.699
246.495
246.213
245.874
245.337
246.406
247.341
247.157
247.123
246.876
246.694
246.508
246.233
245.81
245.229
246.662
247.337
247.151
247.116
246.863
246.687
246.513
246.231
245.733
245.2
246.76
247.341
247.145
247.109
246.848
246.678
246.509
246.211
245.668
245.222
246.405
247.353
247.138
247.101
246.832
246.668
246.497
246.189
245.635
245.211
245.146
247.372
247.132
247.092
246.816
246.656
246.492
246.202
245.666
245.003
242.357
247.397
247.126
247.08
246.799
246.647
246.51
246.283
245.75
244.299
237.632
247.438
247.122
247.062
246.778
246.615
246.453
246.141
245.328
242.689
234.022
247.547
247.121
247.054
246.765
246.601
246.536
246.396
245.555
242.413
232.049
247.788
247.141
247.057
246.735
246.545
246.548
246.517
245.592
242.204
230.822
248.269
247.221
247.07
246.694
246.411
246.299
246.129
244.994
240.902
229.677
249.161
247.345
247.111
246.595
246.19
245.767
245.19
243.656
238.433
227.843
250.958
247.437
247.196
246.492
245.912
245.082
243.996
241.889
235.714
225.253
254.816
247.689
247.305
246.402
245.588
244.367
242.825
240.189
233.574
222.876
263.11
248.789
247.521
246.322
245.246
243.692
241.792
238.857
232.3
221.602
280.678
251.502
248.11
246.32
244.917
243.063
240.883
237.916
231.849
221.629
306.658
255.544
249.571
246.494
244.647
242.467
240.015
237.108
231.581
222.158
236.759
221.4
210.774
201.46
191.3
179.997
167.603
154.232
140.187
126.056
230.339
218.035
208.888
200.175
190.245
179.012
166.67
153.421
139.697
126.223
223.809
214.443
206.273
197.755
188.046
177.208
165.456
152.955
139.935
126.755
218.741
211.234
203.243
194.393
184.546
173.774
162.275
150.326
138.259
126.423
213.36
206.957
198.951
189.846
180.169
170.027
159.474
148.607
137.552
126.46
207.715
202.411
195.148
186.677
177.681
168.228
158.311
147.991
137.372
126.585
203.889
199.454
192.87
184.978
176.45
167.367
157.749
147.677
137.267
126.658
202.603
198.353
192.014
184.407
176.098
167.165
157.649
147.648
137.29
126.722
203.93
199.223
192.779
185.2
176.872
167.86
158.225
148.081
137.567
126.837
206.603
201.176
194.446
186.74
178.249
169.021
159.142
148.74
137.965
126.973
112.472
112.642
112.726
112.577
112.071
111.71
111.525
111.81
111.802
111.554
89.9045
90.3676
90.586
90.1524
88.7208
87.6346
87.0138
87.6753
87.713
87.1267
69.0683
69.6956
69.9566
69.2898
67.3509
65.6395
64.6195
65.1681
65.4726
64.9177
50.9569
51.5628
51.752
50.9288
48.9501
46.7846
45.4549
45.4904
46.2288
45.9957
36.3175
36.7253
36.775
35.8934
34.1018
31.7864
30.1432
29.5781
30.3856
30.5736
25.2707
25.3734
25.2507
24.327
22.7491
20.7202
18.9304
17.9891
18.2437
18.7438
17.3896
17.2379
17.0221
16.0306
14.6153
13.1121
11.6265
10.5622
10.2216
10.5871
11.9074
11.7282
11.6773
10.6775
9.35825
8.35678
7.46835
6.62761
6.03782
5.95177
8.23465
8.14426
8.4362
7.56739
6.4021
5.81349
5.48903
5.1083
4.62381
4.24076
6.35838
6.15381
6.53601
5.79763
4.93022
4.65871
4.68819
4.68261
4.53035
4.13142
5.57978
5.34337
5.42579
4.73315
4.20553
4.15679
4.3136
4.45968
4.58077
4.63512
5.14335
5.03253
4.75453
4.09181
3.81396
3.91023
4.12039
4.2904
4.40957
4.49404
4.76161
4.71339
4.27728
3.73061
3.61955
3.79123
4.02135
4.20162
4.31906
4.37819
4.30607
4.24592
3.836
3.49021
3.50701
3.71583
3.93102
4.08901
4.18743
4.2282
3.75594
3.6575
3.38891
3.27689
3.39787
3.61483
3.80439
3.9418
4.0231
4.047
3.10668
3.01329
2.96236
3.05958
3.25783
3.46089
3.62538
3.74428
3.81182
3.82646
2.39879
2.41933
2.55686
2.79097
3.02641
3.22536
3.38162
3.49755
3.56687
3.5847
1.74907
1.86488
2.10901
2.39649
2.65199
2.86906
3.05036
3.19485
3.28587
3.31551
1.08765
1.21258
1.47628
1.79959
2.10999
2.38769
2.63293
2.82104
2.92445
2.9619
0.413047
0.322874
0.557188
0.962852
1.38145
1.76914
2.09404
2.30195
2.4007
2.46572
3.97386
4.02859
3.90711
3.57002
2.89977
2.2033
1.60088
1.08493
0.622526
0.212264
4.04271
3.99215
3.85704
3.55304
2.85538
2.1445
1.55476
1.05745
0.610409
0.212159
4.06355
3.87988
3.74399
3.49903
2.80704
2.08795
1.51105
1.03219
0.599761
0.210961
4.01999
3.70682
3.59101
3.39781
2.74672
2.03219
1.46944
1.0088
0.590204
0.208243
3.91352
3.5106
3.42802
3.24843
2.66405
1.97364
1.42912
0.986752
0.581305
0.204271
3.75992
3.33015
3.28009
3.07501
2.55511
1.90965
1.38967
0.965857
0.572887
0.199483
3.58174
3.17943
3.15301
2.91114
2.42629
1.83879
1.35075
0.946316
0.565221
0.194783
3.38779
3.05151
3.03996
2.77514
2.29462
1.76144
1.30942
0.925718
0.556752
0.190216
3.16846
2.93603
2.92853
2.66303
2.1747
1.68238
1.26339
0.899434
0.543472
0.184623
2.91216
2.83409
2.80826
2.56033
2.06743
1.6066
1.21607
0.870132
0.527108
0.178642
5.73899
4.29267
3.60083
3.22666
2.73288
2.18108
1.62328
1.10416
0.627655
0.207144
4.93541
4.07423
3.63929
3.28725
2.77345
2.19575
1.62549
1.10267
0.627068
0.207416
4.26529
3.98512
3.70177
3.35551
2.81144
2.20772
1.62687
1.10205
0.627334
0.208375
3.94525
3.98798
3.78829
3.43405
2.85023
2.21784
1.62745
1.10189
0.628334
0.209788
3.92979
4.03455
3.89229
3.52478
2.89264
2.2262
1.62599
1.10108
0.629534
0.211755
112.303
89.2426
68.1981
50.4325
36.4232
26.1077
18.9414
14.0681
10.8868
9.07214
112.082
88.6805
67.4921
49.6983
35.621
25.1035
17.6377
12.5351
9.39316
7.89242
111.896
88.2004
66.8541
48.9579
34.71
23.9308
16.2175
11.0006
7.85695
6.39804
111.686
87.6268
66.0139
47.8934
33.3855
22.3368
14.4458
9.21573
6.13088
4.75468
111.431
86.8988
64.8848
46.4205
31.5856
20.269
12.2762
7.24239
4.76181
3.94736
244.005
244.04
244.157
244.328
244.544
244.557
244.058
243.36
243.459
243.233
244.221
244.291
244.402
244.59
244.862
245.04
244.827
244.182
243.919
243.807
244.422
244.469
244.579
244.774
245.058
245.32
245.296
244.792
244.358
244.301
244.664
244.696
244.792
244.962
245.215
245.498
245.602
245.335
244.948
244.873
244.927
244.944
245.024
245.168
245.376
245.631
245.829
245.833
245.671
245.576
245.194
245.206
245.274
245.393
245.561
245.785
246.047
246.282
246.384
246.371
245.435
245.454
245.534
245.669
245.846
246.075
246.367
246.712
246.998
247.114
245.691
245.712
245.808
245.996
246.248
246.546
246.898
247.29
247.631
247.799
246.045
246.08
246.163
246.382
246.74
247.177
247.664
248.156
248.477
248.44
246.435
246.544
246.65
246.842
247.227
247.771
248.345
248.869
249.2
249
136.778
136.519
136.496
136.759
136.541
136.143
135.602
135.43
135.501
135.666
161.221
160.625
160.646
161.284
160.631
159.509
158.045
157.589
157.794
158.252
183.459
182.893
183.18
183.703
182.653
180.908
178.939
178.251
178.499
179.121
202.419
202.173
202.892
202.902
201.544
199.348
197.341
196.497
196.674
197.276
217.885
218.06
218.844
218.256
216.588
214.244
212.424
211.521
211.559
211.963
229.761
230.243
230.472
229.512
227.705
225.649
224.04
223.093
222.959
223.059
237.958
238.293
237.928
236.854
235.363
233.836
232.386
231.369
231.142
230.988
242.61
242.487
241.875
241.041
240.165
239.149
237.797
236.772
236.708
236.526
244.33
243.908
243.413
243.056
242.76
242.177
240.992
240.097
240.375
240.287
244.469
244.04
243.885
243.906
243.98
243.742
242.873
242.114
242.493
242.301
255.225
247.315
247.961
246.727
246.425
245.894
245.3
244.899
244.759
244.788
252.4
247.257
247.779
246.724
246.474
245.95
245.32
244.939
244.844
244.763
250.493
247.269
247.566
246.736
246.525
246.01
245.367
245.042
245.015
244.798
249.345
247.291
247.363
246.766
246.575
246.075
245.453
245.199
245.234
244.902
248.663
247.279
247.245
246.807
246.618
246.149
245.583
245.379
245.452
245.06
248.209
247.228
247.208
246.844
246.653
246.23
245.738
245.538
245.626
245.241
247.901
247.194
247.194
246.869
246.669
246.312
245.877
245.651
245.744
245.416
247.7
247.184
247.183
246.885
246.677
246.375
245.972
245.72
245.813
245.574
247.571
247.184
247.173
246.895
246.689
246.409
246.024
245.765
245.843
245.713
247.489
247.183
247.163
246.9
246.699
246.428
246.059
245.807
245.832
245.822
317.733
254.179
250.329
247.333
246.554
245.978
245.574
245.21
244.501
242.968
296.002
251.792
249.22
247.115
246.468
245.941
245.524
245.175
244.71
243.768
277.559
249.636
248.635
246.957
246.423
245.914
245.47
245.113
244.789
244.441
266.152
248.294
248.32
246.843
246.4
245.893
245.407
245.028
244.778
244.769
259.379
247.57
248.102
246.751
246.391
245.875
245.334
244.922
244.729
244.801
239.543
237.692
234.477
229.571
222.372
212.022
197.977
180.178
159.108
136.034
240.724
239.188
236.014
230.88
223.381
212.828
198.714
180.886
159.671
136.255
242.237
240.739
237.558
232.307
224.559
213.743
199.457
181.525
160.152
136.441
243.9
242.494
239.365
234.093
226.161
215.072
200.524
182.367
160.726
136.651
244.686
243.85
241.349
236.28
228.24
216.877
201.998
183.496
161.453
136.904
)
;

boundaryField
{
    left
    {
        type            zeroGradient;
    }
    right
    {
        type            fixedValue;
        value           uniform 0;
    }
    down
    {
        type            zeroGradient;
    }
    up
    {
        type            zeroGradient;
    }
    cylinder
    {
        type            zeroGradient;
    }
    defaultFaces
    {
        type            empty;
    }
}


// ************************************************************************* //
