/*--------------------------------*- C++ -*----------------------------------*\
  =========                 |
  \\      /  F ield         | OpenFOAM: The Open Source CFD Toolbox
   \\    /   O peration     | Website:  https://openfoam.org
    \\  /    A nd           | Version:  13
     \\/     M anipulation  |
\*---------------------------------------------------------------------------*/
FoamFile
{
    format      ascii;
    class       volScalarField;
    location    "2.85";
    object      p;
}
// * * * * * * * * * * * * * * * * * * * * * * * * * * * * * * * * * * * * * //

dimensions      [0 2 -2 0 0 0 0];

internalField   nonuniform List<scalar> 
1800
(
-1.39003
-1.38809
-1.38261
-1.37263
-1.35919
-1.34566
-1.33561
-1.33411
-1.34195
-1.39452
-1.41645
-1.41347
-1.40818
-1.39986
-1.38932
-1.37797
-1.36823
-1.36333
-1.36344
-1.39174
-1.45969
-1.45393
-1.44727
-1.43914
-1.4298
-1.41974
-1.40968
-1.40057
-1.39448
-1.39597
-1.51505
-1.50611
-1.49697
-1.48728
-1.47651
-1.46396
-1.44914
-1.43235
-1.41439
-1.39698
-1.58473
-1.57276
-1.56083
-1.54821
-1.53297
-1.51333
-1.48857
-1.45922
-1.42678
-1.39356
-1.66953
-1.65481
-1.63931
-1.62118
-1.59685
-1.56461
-1.52504
-1.48025
-1.43266
-1.38473
-1.76608
-1.74907
-1.72827
-1.70051
-1.66178
-1.61218
-1.55494
-1.49402
-1.43258
-1.37326
-1.86672
-1.84754
-1.81866
-1.77634
-1.71842
-1.64849
-1.57266
-1.49593
-1.42141
-1.35089
-1.96006
-1.93821
-1.89798
-1.83696
-1.75699
-1.66626
-1.57293
-1.48212
-1.39635
-1.31672
-2.03268
-2.00701
-1.95287
-1.87069
-1.76849
-1.65857
-1.54989
-1.4469
-1.35126
-1.26324
-1.15354
-1.15831
-1.16486
-1.17621
-1.19428
-1.21841
-1.24706
-1.27868
-1.31276
-1.34968
-1.28777
-1.2905
-1.29511
-1.30679
-1.32689
-1.35446
-1.38775
-1.42487
-1.46451
-1.50658
-1.40732
-1.40737
-1.40962
-1.42125
-1.44268
-1.47253
-1.50898
-1.54995
-1.59331
-1.63803
-1.48906
-1.48507
-1.48538
-1.49604
-1.51718
-1.54738
-1.58466
-1.62693
-1.67172
-1.71575
-1.52379
-1.51579
-1.5131
-1.52072
-1.53885
-1.5663
-1.60127
-1.64183
-1.68572
-1.72919
-1.51718
-1.5066
-1.50043
-1.50242
-1.5132
-1.5325
-1.55932
-1.5922
-1.6294
-1.6669
-1.48595
-1.47536
-1.46665
-1.46192
-1.46219
-1.46851
-1.48139
-1.50051
-1.52524
-1.55291
-1.44751
-1.43924
-1.43006
-1.42036
-1.41111
-1.40434
-1.40208
-1.40568
-1.41607
-1.43407
-1.41252
-1.40734
-1.39924
-1.38718
-1.37208
-1.35656
-1.34387
-1.3371
-1.33912
-1.35264
-1.38847
-1.3859
-1.37919
-1.3671
-1.3507
-1.33309
-1.31801
-1.31043
-1.31313
-1.32922
-1.52267
-1.1111
-0.40117
-0.0749175
0.0364933
0.0753338
0.0673418
0.0495593
0.0293758
0.0104943
-1.69134
-1.2827
-0.500559
-0.114291
0.0240064
0.070628
0.0649538
0.0481152
0.0284521
0.010098
-1.83753
-1.45291
-0.605383
-0.160972
0.0056996
0.0620163
0.0605477
0.0456264
0.0270438
0.00953915
-1.93443
-1.59665
-0.709003
-0.212153
-0.0174635
0.0497615
0.0541071
0.0420496
0.0251382
0.00881382
-1.96396
-1.70452
-0.806924
-0.265819
-0.0442223
0.0344324
0.0457468
0.0373908
0.0227335
0.00792345
-1.92511
-1.7721
-0.894515
-0.321
-0.0736379
0.0167436
0.0357452
0.0317385
0.0198507
0.00687763
-1.8236
-1.80168
-0.969877
-0.377107
-0.105394
-0.00278643
0.0244356
0.025253
0.0165432
0.00569882
-1.68806
-1.79859
-1.03257
-0.432748
-0.13931
-0.0239409
0.0120202
0.0180805
0.0128779
0.00442265
-1.55809
-1.77151
-1.08231
-0.486393
-0.174746
-0.0465351
-0.00146499
0.0102558
0.00887729
0.00307987
-1.44141
-1.72753
-1.12162
-0.537545
-0.210717
-0.0701086
-0.0158947
0.00178851
0.00452188
0.00167452
-1.32295
-1.62351
-1.09163
-0.555302
-0.239099
-0.0954482
-0.0336627
-0.00936177
-0.00138171
-0.000198955
-1.21263
-1.39091
-0.990788
-0.547263
-0.265184
-0.124556
-0.0554014
-0.0232562
-0.00859095
-0.00248855
-1.12064
-1.19697
-0.908765
-0.54601
-0.291917
-0.15177
-0.0757054
-0.0362123
-0.0152856
-0.00453636
-1.03732
-1.04735
-0.838018
-0.546841
-0.321259
-0.182205
-0.0986647
-0.0506636
-0.0226047
-0.00673065
-0.953821
-0.935659
-0.784972
-0.55711
-0.355984
-0.212514
-0.118584
-0.0624571
-0.0285276
-0.00835819
-0.874442
-0.85224
-0.745742
-0.57164
-0.392322
-0.244928
-0.139985
-0.0747775
-0.0343358
-0.00978688
-0.802502
-0.787256
-0.719144
-0.592667
-0.429499
-0.274154
-0.157173
-0.0838563
-0.0383228
-0.0105482
-0.741078
-0.741588
-0.703797
-0.611276
-0.457517
-0.295874
-0.169643
-0.0903212
-0.0410308
-0.0108921
-0.700916
-0.719946
-0.697396
-0.618158
-0.468734
-0.30504
-0.17594
-0.0936511
-0.0423517
-0.010922
-0.678712
-0.720065
-0.702016
-0.619208
-0.467034
-0.305793
-0.178364
-0.0955196
-0.0434625
-0.0113098
-1.11114
-1.17558
-1.22335
-1.26292
-1.29231
-1.32611
-1.35734
-1.40206
-1.42373
-1.45778
-0.937459
-1.00909
-1.06539
-1.11595
-1.15597
-1.19446
-1.22427
-1.2519
-1.27205
-1.29787
-0.799789
-0.871753
-0.932104
-0.984882
-1.02786
-1.06424
-1.09305
-1.11782
-1.13918
-1.1624
-0.687018
-0.757168
-0.818451
-0.870639
-0.914377
-0.950566
-0.980559
-1.00711
-1.03079
-1.05523
-0.594879
-0.662761
-0.7228
-0.774026
-0.817537
-0.854195
-0.885072
-0.912486
-0.936346
-0.959336
-0.520051
-0.585718
-0.643716
-0.693684
-0.736195
-0.77227
-0.802549
-0.828691
-0.850945
-0.870914
-0.460552
-0.524136
-0.580054
-0.628236
-0.66904
-0.703248
-0.731639
-0.75523
-0.775052
-0.791927
-0.415842
-0.477688
-0.531795
-0.577898
-0.616605
-0.64817
-0.673978
-0.694311
-0.711126
-0.724216
-0.389128
-0.44979
-0.502631
-0.547376
-0.584707
-0.614278
-0.63793
-0.655144
-0.669016
-0.677765
-0.377205
-0.43821
-0.49142
-0.536522
-0.573755
-0.603323
-0.62627
-0.642355
-0.654033
-0.658256
0.366965
0.292128
0.206464
0.114774
0.0157259
-0.093167
-0.211769
-0.333381
-0.435523
-0.485204
0.156816
0.0760636
-0.0139397
-0.112391
-0.221229
-0.342155
-0.473991
-0.608286
-0.719942
-0.772883
-0.073382
-0.15706
-0.249708
-0.352495
-0.467629
-0.596402
-0.736983
-0.879622
-0.997756
-1.05184
-0.295384
-0.382656
-0.479599
-0.587745
-0.708996
-0.844305
-0.991571
-1.13989
-1.26148
-1.31425
-0.495448
-0.58762
-0.690236
-0.804541
-0.932236
-1.07406
-1.22657
-1.37964
-1.49768
-1.5502
-0.674861
-0.771925
-0.879663
-0.999046
-1.1315
-1.27867
-1.43402
-1.58425
-1.6992
-1.75011
-0.832781
-0.933644
-1.04497
-1.16765
-1.30279
-1.45022
-1.60447
-1.74996
-1.85854
-1.9059
-0.973192
-1.07464
-1.18599
-1.30833
-1.44239
-1.58695
-1.7355
-1.87173
-1.96987
-2.01223
-1.0929
-1.19185
-1.30031
-1.41917
-1.54851
-1.68601
-1.82385
-1.94572
-2.03035
-2.0669
-1.19013
-1.2844
-1.38746
-1.49974
-1.62048
-1.74624
-1.86828
-1.97153
-2.04097
-2.07168
1.74656
1.76071
1.77528
1.7891
1.80129
1.81117
1.81804
1.82195
1.82513
1.82903
1.67206
1.68292
1.6934
1.70243
1.70929
1.71329
1.71371
1.71093
1.70827
1.70871
1.57656
1.58314
1.58834
1.59123
1.59131
1.58788
1.58026
1.56911
1.55908
1.55532
1.4618
1.46359
1.46247
1.4579
1.44966
1.43705
1.41944
1.39793
1.37878
1.37012
1.32754
1.32348
1.31512
1.30222
1.28481
1.26213
1.23356
1.20065
1.17132
1.15724
1.1777
1.16773
1.1512
1.12858
1.10036
1.06587
1.02461
0.978713
0.938051
0.917856
1.01228
0.995805
0.971058
0.93879
0.899657
0.852913
0.79819
0.738381
0.685622
0.659087
0.840621
0.816634
0.781458
0.737176
0.685135
0.624652
0.555454
0.481119
0.416066
0.383151
0.667597
0.635961
0.58989
0.532769
0.466604
0.390803
0.305394
0.215044
0.136941
0.0977513
0.508585
0.458676
0.394568
0.321284
0.239828
0.148574
0.0473186
-0.0584089
-0.148716
-0.193529
1.49087
1.47388
1.46482
1.46159
1.4602
1.46652
1.48723
1.52454
1.58663
1.68356
1.48412
1.46821
1.45963
1.45535
1.45343
1.45697
1.47491
1.50616
1.55764
1.63661
1.47795
1.46255
1.45429
1.44869
1.44607
1.44629
1.46121
1.48466
1.52307
1.57786
1.47232
1.45695
1.44882
1.44162
1.43811
1.43445
1.4462
1.45986
1.48344
1.50661
1.4672
1.45145
1.44323
1.43418
1.42956
1.42148
1.4299
1.43151
1.43943
1.42172
1.46257
1.44609
1.43751
1.42641
1.42039
1.40742
1.41221
1.39956
1.39127
1.32238
1.45845
1.4409
1.43165
1.41834
1.41058
1.39236
1.39301
1.36399
1.3391
1.20697
1.45484
1.43589
1.42568
1.41002
1.40009
1.37637
1.3721
1.32504
1.28266
1.07695
1.45178
1.43108
1.41958
1.40148
1.38896
1.35964
1.34929
1.2829
1.22012
0.930469
1.4493
1.42647
1.4134
1.3927
1.37738
1.34235
1.32562
1.23935
1.15426
0.779162
1.44687
1.42123
1.40544
1.38174
1.36137
1.31967
1.29237
1.18592
1.07875
0.636218
1.44573
1.41606
1.39653
1.36967
1.34271
1.29591
1.25553
1.1404
1.00569
0.616851
1.44653
1.41192
1.38776
1.35833
1.32391
1.2743
1.22058
1.10443
0.946996
0.610307
1.44982
1.40882
1.37912
1.34778
1.30537
1.2552
1.18824
1.07633
0.899421
0.609645
1.45619
1.40675
1.37055
1.33802
1.2867
1.23897
1.15866
1.05513
0.862358
0.611979
1.46634
1.40572
1.36217
1.32916
1.26881
1.22571
1.13258
1.03946
0.835082
0.613655
1.47989
1.40394
1.35235
1.31855
1.25071
1.21449
1.11052
1.02733
0.816478
0.615466
1.50494
1.40673
1.34624
1.30989
1.23477
1.20542
1.09297
1.01869
0.804742
0.618392
1.51713
1.39905
1.33345
1.29743
1.22156
1.19929
1.08143
1.0144
0.799646
0.623295
1.59343
1.41205
1.33721
1.29365
1.21607
1.19682
1.0758
1.01396
0.797411
0.628647
0.354287
0.183233
-0.0205035
-0.217425
-0.393926
-0.552258
-0.693577
-0.821803
-0.934174
-1.03203
0.30821
0.173503
0.0195216
-0.136299
-0.281043
-0.414986
-0.537567
-0.653837
-0.759144
-0.856168
0.298181
0.184109
0.0605814
-0.0671414
-0.191375
-0.310341
-0.422737
-0.529783
-0.628104
-0.719383
0.317305
0.211189
0.100358
-0.0106181
-0.120069
-0.226601
-0.329725
-0.428312
-0.521545
-0.608064
0.340936
0.240946
0.138526
0.0381765
-0.0604879
-0.157625
-0.253535
-0.346421
-0.435591
-0.518485
0.364461
0.270194
0.174377
0.0811224
-0.0103876
-0.10131
-0.192093
-0.281057
-0.36677
-0.446609
0.38662
0.297531
0.20694
0.118414
0.0311856
-0.0560065
-0.143374
-0.229371
-0.312166
-0.389625
0.406673
0.322047
0.235598
0.150004
0.0647647
-0.0208197
-0.106495
-0.190649
-0.271352
-0.346727
0.424202
0.343154
0.259827
0.175418
0.0899834
0.00388723
-0.0818664
-0.165648
-0.245824
-0.320723
0.437587
0.35838
0.276021
0.190675
0.103573
0.0161671
-0.0701673
-0.154077
-0.234108
-0.308893
-1.28895
-1.25551
-1.18427
-1.09374
-1.00107
-0.91615
-0.842917
-0.782582
-0.735539
-0.702254
-1.34966
-1.32001
-1.26066
-1.18374
-1.1026
-1.02674
-0.960599
-0.90586
-0.863518
-0.834723
-1.35234
-1.32587
-1.27926
-1.2186
-1.15223
-1.08817
-1.03102
-0.982888
-0.945225
-0.919379
-1.30891
-1.28502
-1.24995
-1.20572
-1.15582
-1.10575
-1.05972
-1.02004
-0.98845
-0.966322
-1.23719
-1.21578
-1.18973
-1.15925
-1.12462
-1.08855
-1.05401
-1.02292
-0.996859
-0.97646
-1.15591
-1.13744
-1.11778
-1.09682
-1.07375
-1.04937
-1.02526
-1.00267
-0.98309
-0.967563
-1.07986
-1.06498
-1.04999
-1.03485
-1.01906
-1.00281
-0.986771
-0.971755
-0.958449
-0.94703
-1.01701
-1.00618
-0.995063
-0.9836
-0.97178
-0.959817
-0.948284
-0.937269
-0.928907
-0.923052
-0.969115
-0.962223
-0.954631
-0.946058
-0.936685
-0.927013
-0.917848
-0.91041
-0.904338
-0.909787
-0.933318
-0.929631
-0.925034
-0.918686
-0.910951
-0.902668
-0.895011
-0.89037
-0.886912
-0.90181
-0.908056
-0.906535
-0.903238
-0.897704
-0.890619
-0.882758
-0.875643
-0.871189
-0.868593
-0.859715
-0.896866
-0.895559
-0.892447
-0.887096
-0.880094
-0.872481
-0.865481
-0.86036
-0.85692
-0.846954
-0.89844
-0.896723
-0.894214
-0.890792
-0.886697
-0.882515
-0.87898
-0.876671
-0.875643
-0.874806
-0.90169
-0.900593
-0.899987
-0.900143
-0.901267
-0.903679
-0.907678
-0.913334
-0.920228
-0.927838
-0.899228
-0.900039
-0.901695
-0.904869
-0.909835
-0.91672
-0.925432
-0.935731
-0.947498
-0.955289
-0.892322
-0.895523
-0.899833
-0.905612
-0.913639
-0.924055
-0.936519
-0.950275
-0.964837
-0.982751
-0.886469
-0.891942
-0.89837
-0.906043
-0.91612
-0.928479
-0.942709
-0.958066
-0.975374
-0.999206
-0.899302
-0.906033
-0.913647
-0.922469
-0.933994
-0.948471
-0.964789
-0.982291
-1.00245
-1.02894
-0.946159
-0.953173
-0.961287
-0.971288
-0.984882
-1.00188
-1.02118
-1.04201
-1.06547
-1.09365
-1.03287
-1.03914
-1.04685
-1.05764
-1.0734
-1.09375
-1.11734
-1.14307
-1.17126
-1.20291
-0.921895
-1.01908
-0.637387
-0.397807
-0.216147
-0.058393
0.0158745
0.031487
0.0240374
0.00949863
-1.00302
-1.04659
-0.56366
-0.298662
-0.155478
-0.0367267
0.0207485
0.0320477
0.02389
0.00940955
-1.0937
-1.0461
-0.475618
-0.203511
-0.102066
-0.0166044
0.0268789
0.0338855
0.0244299
0.00954442
-1.17015
-1.02048
-0.391438
-0.124226
-0.057837
0.00267934
0.0343819
0.0366917
0.0254121
0.00980726
-1.22143
-0.982758
-0.325009
-0.066797
-0.0240427
0.0211809
0.0425685
0.0399565
0.0265915
0.0101193
-1.23594
-0.939178
-0.279841
-0.0330331
0.00180637
0.0387801
0.0506374
0.0432215
0.0277666
0.0104187
-1.22308
-0.889353
-0.255148
-0.0179813
0.0216372
0.0539262
0.0575757
0.0460529
0.0287687
0.010657
-1.21839
-0.865557
-0.248477
-0.0144594
0.0353085
0.0653744
0.0628465
0.0482018
0.0294897
0.0108028
-1.26357
-0.877791
-0.268678
-0.0232722
0.0423184
0.0727504
0.0662582
0.0495454
0.0298613
0.0108345
-1.36886
-0.967805
-0.319284
-0.0451169
0.0426518
0.0760548
0.067764
0.0500166
0.0298358
0.0107361
-0.768194
-0.757224
-0.659771
-0.548198
-0.304982
-0.0896385
0.0108337
0.0337118
0.0265936
0.0106576
-0.762111
-0.748593
-0.657671
-0.55349
-0.309883
-0.0912326
0.0109741
0.0338074
0.0264991
0.0105678
-0.773974
-0.779491
-0.665952
-0.553303
-0.313775
-0.0922849
0.010825
0.033332
0.0260415
0.0103656
-0.806166
-0.849756
-0.674243
-0.537782
-0.304975
-0.0886154
0.0110848
0.0324828
0.0253233
0.0100635
-0.858509
-0.952523
-0.670666
-0.475836
-0.268231
-0.0774115
0.0123185
0.0317037
0.0246366
0.00977554
-0.669325
-0.795896
-0.882229
-0.93723
-0.952027
-0.95528
-0.941408
-0.912781
-0.883785
-0.844947
-0.670031
-0.79857
-0.883523
-0.937368
-0.946936
-0.951233
-0.934527
-0.902888
-0.879535
-0.837375
-0.672212
-0.802155
-0.88619
-0.938604
-0.9451
-0.950296
-0.929067
-0.903167
-0.882296
-0.850327
-0.677449
-0.80912
-0.89328
-0.943612
-0.950634
-0.952333
-0.930434
-0.911526
-0.893713
-0.887102
-0.686484
-0.820295
-0.905076
-0.95324
-0.962065
-0.957216
-0.938243
-0.919862
-0.904831
-0.921357
1.42422
1.41645
1.40253
1.38519
1.3652
1.34166
1.31395
1.28384
1.25867
1.24736
1.51867
1.52173
1.5189
1.51204
1.50217
1.48882
1.47153
1.45166
1.43505
1.42811
1.6092
1.61714
1.62082
1.62147
1.6198
1.61539
1.60765
1.59737
1.58878
1.586
1.68811
1.70013
1.70966
1.71711
1.72271
1.72595
1.72616
1.72372
1.72166
1.72258
1.754
1.76914
1.78279
1.79502
1.80579
1.81458
1.82071
1.82428
1.82738
1.83129
1.80251
1.81965
1.83643
1.85246
1.8674
1.88065
1.89153
1.89984
1.90691
1.91323
1.83277
1.85113
1.86985
1.88825
1.90571
1.92163
1.93531
1.94642
1.95591
1.96373
1.84287
1.86154
1.88105
1.90048
1.91902
1.93605
1.95084
1.96303
1.97343
1.98181
1.83211
1.85022
1.86932
1.88834
1.90638
1.92277
1.93682
1.94819
1.95786
1.96579
1.80006
1.81669
1.83417
1.85132
1.86724
1.88125
1.89265
1.90126
1.90853
1.91495
-0.52339
-0.562652
-0.614357
-0.678998
-0.757183
-0.848141
-0.948706
-1.04907
-1.12957
-1.16656
-0.304815
-0.349785
-0.405968
-0.474057
-0.555049
-0.648944
-0.754282
-0.861044
-0.947863
-0.987089
-0.0590392
-0.10922
-0.169475
-0.240204
-0.322574
-0.417102
-0.5222
-0.629534
-0.72153
-0.761481
0.194888
0.141179
0.078629
0.00712915
-0.0744436
-0.166767
-0.268579
-0.373331
-0.462276
-0.503508
0.438669
0.384249
0.322372
0.253091
0.175345
0.0882493
-0.0073756
-0.105684
-0.188386
-0.227986
0.659107
0.607756
0.550291
0.486763
0.416103
0.337284
0.250854
0.16202
0.0875863
0.0515059
0.853387
0.808565
0.758738
0.703817
0.642671
0.574208
0.498824
0.421166
0.356284
0.324832
1.02838
0.991363
0.950237
0.904826
0.85388
0.796284
0.732367
0.666257
0.611207
0.58476
1.19212
1.16191
1.12771
1.09024
1.04833
1.00081
0.947875
0.893021
0.847601
0.826146
1.33547
1.3117
1.28305
1.25254
1.21952
1.18258
1.14141
1.09853
1.06312
1.04674
1.60846
1.51525
1.49682
1.48973
1.48868
1.50509
1.52486
1.55519
1.56304
1.52653
1.59074
1.51396
1.49653
1.4907
1.48951
1.50594
1.52796
1.56251
1.58577
1.58571
1.57474
1.51166
1.49522
1.49058
1.48943
1.50564
1.52986
1.56959
1.60808
1.64307
1.56033
1.50852
1.4931
1.4895
1.48846
1.50426
1.53023
1.57382
1.62512
1.68786
1.54732
1.5047
1.49033
1.48758
1.48669
1.50189
1.52895
1.57526
1.6369
1.72182
1.53555
1.50034
1.48702
1.48487
1.48412
1.49853
1.52598
1.57388
1.64313
1.74435
1.52487
1.49555
1.48324
1.48144
1.48078
1.49417
1.52138
1.56964
1.64357
1.75544
1.51516
1.49042
1.47907
1.47733
1.47668
1.48879
1.51518
1.56253
1.6381
1.75505
1.50631
1.48505
1.47458
1.47262
1.47186
1.4824
1.50741
1.55263
1.62682
1.74293
1.49824
1.47952
1.46981
1.46736
1.46635
1.47499
1.49809
1.53999
1.60968
1.71904
1.77622
1.51941
1.48905
1.47707
1.47922
1.49294
1.50164
1.51347
1.46982
1.42981
1.70177
1.51335
1.48996
1.47971
1.48057
1.49391
1.50235
1.51478
1.47232
1.42709
1.67876
1.51805
1.49363
1.48263
1.48228
1.4958
1.505
1.51899
1.48252
1.42877
1.65188
1.51743
1.49541
1.48538
1.48438
1.49861
1.51029
1.52758
1.50115
1.44091
1.62847
1.51625
1.49639
1.48779
1.48665
1.50199
1.51692
1.5397
1.52744
1.46288
1.22307
1.12998
1.00406
0.841546
0.6446
0.419512
0.176611
-0.0688648
-0.300108
-0.502222
1.21798
1.12793
1.00707
0.849221
0.657069
0.435315
0.19293
-0.0550807
-0.291238
-0.498901
1.22879
1.13493
1.01209
0.855898
0.667201
0.447804
0.205268
-0.0453153
-0.285653
-0.497814
1.26012
1.15322
1.02045
0.862296
0.675327
0.45711
0.213785
-0.0393954
-0.283473
-0.499741
1.31224
1.1848
1.03418
0.86853
0.680167
0.462349
0.218812
-0.0363008
-0.284116
-0.505023
)
;

boundaryField
{
    left
    {
        type            zeroGradient;
    }
    right
    {
        type            fixedValue;
        value           uniform 0;
    }
    down
    {
        type            zeroGradient;
    }
    up
    {
        type            zeroGradient;
    }
    cylinder
    {
        type            zeroGradient;
    }
    defaultFaces
    {
        type            empty;
    }
}


// ************************************************************************* //
