/*--------------------------------*- C++ -*----------------------------------*\
  =========                 |
  \\      /  F ield         | OpenFOAM: The Open Source CFD Toolbox
   \\    /   O peration     | Website:  https://openfoam.org
    \\  /    A nd           | Version:  13
     \\/     M anipulation  |
\*---------------------------------------------------------------------------*/
FoamFile
{
    format      ascii;
    class       volVectorField;
    location    "2.85";
    object      U;
}
// * * * * * * * * * * * * * * * * * * * * * * * * * * * * * * * * * * * * * //

dimensions      [0 1 -1 0 0 0 0];

internalField   nonuniform List<vector> 
1800
(
(-0.0308086 0.0241084 9.91349e-21)
(-0.0749441 0.0450345 4.50594e-21)
(-0.0918052 0.0560602 -5.55112e-20)
(-0.0754982 0.0611802 6.61799e-20)
(-0.0188064 0.0627686 1.75168e-19)
(0.082901 0.0611476 7.39292e-20)
(0.2313 0.056922 -2.6616e-20)
(0.421 0.0479378 5.4312e-20)
(0.67352 0.0564304 1.6329e-19)
(0.798274 0.0908458 2.01055e-19)
(-0.0450733 0.033411 9.21678e-21)
(-0.0811089 0.054646 -4.70693e-20)
(-0.0635658 0.0540338 4.36045e-22)
(0.00884568 0.0400832 -6.32323e-20)
(0.139604 0.0184473 2.52345e-20)
(0.328459 -0.00766451 1.46077e-19)
(0.569058 -0.0352403 -5.4921e-20)
(0.846451 -0.0654934 1.41668e-20)
(1.16339 -0.0829935 -1.65807e-19)
(1.36897 -0.100236 1.54029e-19)
(-0.0489504 0.0324224 4.85522e-21)
(-0.059651 0.0473589 1.81171e-20)
(0.0114562 0.0375209 3.85362e-21)
(0.160869 0.0122415 -1.39595e-20)
(0.384273 -0.0205783 -1.51227e-19)
(0.668566 -0.0550474 3.00663e-20)
(0.990983 -0.0869866 5.77142e-20)
(1.32516 -0.113227 -2.31406e-20)
(1.64075 -0.132671 -1.50501e-22)
(1.92506 -0.162369 -9.11912e-22)
(-0.0410281 0.0238431 -8.33793e-21)
(-0.00514998 0.0240758 -2.63267e-20)
(0.14132 0.00312826 -2.71441e-20)
(0.386835 -0.0292206 2.73198e-20)
(0.710551 -0.0638227 2.57199e-20)
(1.07758 -0.0943141 1.06355e-20)
(1.44707 -0.117446 -3.57591e-21)
(1.78237 -0.132971 1.01192e-19)
(2.06494 -0.143567 9.96403e-20)
(2.26913 -0.150071 -4.78072e-20)
(-0.0205965 0.0116319 6.39052e-20)
(0.087444 -0.00526068 5.912e-20)
(0.332022 -0.0341897 -4.19584e-20)
(0.683431 -0.0647814 -5.16383e-20)
(1.09255 -0.0891422 -1.47534e-19)
(1.50056 -0.104272 2.34205e-21)
(1.85869 -0.111227 2.08188e-19)
(2.14046 -0.113266 9.67526e-20)
(2.33676 -0.111865 1.11227e-21)
(2.46905 -0.118906 -9.66799e-20)
(0.0154486 -0.00215288 -6.23367e-20)
(0.22293 -0.0323509 -1.35517e-20)
(0.581029 -0.0603938 2.15448e-19)
(1.02781 -0.0777623 -6.86764e-20)
(1.48196 -0.0829623 -1.64123e-19)
(1.87529 -0.0796808 3.49951e-19)
(2.17326 -0.0729905 -3.61744e-19)
(2.37259 -0.0667078 -5.10117e-19)
(2.49288 -0.0632091 4.21793e-19)
(2.55257 -0.0631632 2.24855e-21)
(0.069588 -0.0145272 6.73172e-20)
(0.399502 -0.0480342 -1.50993e-19)
(0.869682 -0.0627229 -5.37101e-19)
(1.37791 -0.0575004 2.70642e-19)
(1.82586 -0.0417023 6.09141e-19)
(2.16188 -0.024443 -2.37834e-21)
(2.38155 -0.0108586 -1.31755e-18)
(2.50798 -0.00263678 8.05401e-21)
(2.56992 0.00177831 1.58084e-18)
(2.59484 -0.00144742 4.34955e-19)
(0.14147 -0.021692 6.3622e-20)
(0.606004 -0.0437291 3.52264e-19)
(1.16735 -0.0330361 4.66171e-19)
(1.69274 -0.00232608 -1.14104e-19)
(2.09594 0.0295249 -5.51076e-19)
(2.35973 0.0533764 -2.11121e-19)
(2.50899 0.0676249 0)
(2.58041 0.0740963 6.58068e-19)
(2.60621 0.0750031 -1.20434e-20)
(2.60543 0.0708823 -6.25869e-19)
(0.227413 -0.0195281 5.49799e-20)
(0.823674 -0.0129846 3.90799e-19)
(1.4427 0.030851 7.42658e-19)
(1.94831 0.0837439 -7.94112e-19)
(2.28952 0.124402 -6.98791e-19)
(2.4847 0.148683 2.76641e-19)
(2.578 0.159657 -1.31248e-18)
(2.61137 0.161872 -9.91447e-19)
(2.61324 0.159174 1.21789e-18)
(2.59907 0.151328 1.06067e-18)
(0.320955 -0.00476242 -3.2704e-20)
(1.03167 0.046243 3.12044e-19)
(1.67412 0.125186 1.92192e-19)
(2.13796 0.193953 -1.56888e-18)
(2.41518 0.236802 4.54744e-20)
(2.55248 0.25672 3.13011e-18)
(2.60458 0.261349 -1.81395e-18)
(2.61273 0.257503 -1.06153e-18)
(2.60056 0.249214 3.75895e-19)
(2.57747 0.237215 -8.6046e-19)
(-0.0150231 0.264822 2.5482e-19)
(-0.066712 0.522575 -1.28021e-19)
(-0.133126 0.617782 1.15894e-21)
(-0.204487 0.632081 -3.37995e-20)
(-0.273053 0.613763 2.79211e-21)
(-0.337261 0.584107 2.17802e-19)
(-0.396768 0.54994 1.81373e-19)
(-0.451041 0.512687 -3.54013e-19)
(-0.500477 0.472497 2.1461e-20)
(-0.547543 0.429704 -6.59257e-20)
(-0.0350381 0.298403 -8.18965e-21)
(-0.089565 0.613732 1.71783e-20)
(-0.145632 0.743604 1.40301e-20)
(-0.20161 0.773086 4.55665e-20)
(-0.254377 0.758219 -1.69687e-19)
(-0.303007 0.726266 2.1835e-19)
(-0.347061 0.687018 -3.27541e-19)
(-0.385692 0.642919 -4.31521e-19)
(-0.418393 0.594297 3.2019e-19)
(-0.446912 0.541457 -1.01675e-19)
(-0.0533456 0.293827 -7.18966e-20)
(-0.11068 0.645735 4.77405e-20)
(-0.153837 0.81553 5.23676e-21)
(-0.189564 0.870904 -2.31116e-19)
(-0.22135 0.867403 -7.62174e-20)
(-0.249362 0.837512 8.20529e-19)
(-0.273135 0.795306 -3.06296e-19)
(-0.291779 0.745362 -4.23269e-19)
(-0.303928 0.68881 4.99758e-19)
(-0.309451 0.62611 2.77948e-19)
(-0.0628331 0.252306 -5.96388e-20)
(-0.121744 0.608369 -4.25564e-21)
(-0.152641 0.816927 1.50566e-20)
(-0.168277 0.909879 -6.2777e-20)
(-0.177375 0.930333 2.44913e-19)
(-0.182576 0.911707 -2.80059e-19)
(-0.184186 0.872683 -2.49706e-19)
(-0.181706 0.821255 2.98771e-19)
(-0.174084 0.759939 1.52514e-20)
(-0.156603 0.689871 8.88607e-21)
(-0.059523 0.186038 0)
(-0.117729 0.505884 7.23927e-21)
(-0.140578 0.736912 -5.36252e-20)
(-0.140699 0.871858 1.11978e-19)
(-0.129455 0.929954 3.39676e-19)
(-0.112291 0.936605 -2.74201e-19)
(-0.0912792 0.911652 1.11003e-19)
(-0.0668236 0.866896 2.25394e-20)
(-0.0387058 0.807634 0)
(0.00098871 0.736265 1.95803e-20)
(-0.0450932 0.114613 -2.61996e-20)
(-0.0980568 0.363913 6.92668e-20)
(-0.118227 0.585591 3.11642e-20)
(-0.111957 0.747409 -4.96271e-20)
(-0.0887118 0.844573 5.41581e-20)
(-0.0550623 0.887602 1.94336e-19)
(-0.0150377 0.890529 -5.08839e-19)
(0.0293433 0.865172 -3.35239e-20)
(0.0757121 0.818794 6.10113e-19)
(0.133694 0.755845 1.12989e-20)
(-0.0262617 0.0562848 9.91103e-21)
(-0.0695999 0.222899 1.30495e-19)
(-0.0905911 0.403247 -6.87496e-20)
(-0.0872273 0.560297 -1.14609e-20)
(-0.0635412 0.676114 -6.83611e-20)
(-0.0244781 0.748205 8.48564e-20)
(0.0254 0.78177 1.8183e-19)
(0.0828565 0.784461 2.30101e-19)
(0.143134 0.762564 -2.34442e-19)
(0.212312 0.720497 -3.16191e-19)
(-0.0106295 0.0196225 2.53904e-20)
(-0.0442885 0.114946 -6.80451e-20)
(-0.067589 0.238947 -1.02608e-19)
(-0.072121 0.362394 3.86745e-20)
(-0.056217 0.466437 -1.77077e-20)
(-0.0217745 0.542876 6.48341e-20)
(0.027601 0.590823 4.30136e-20)
(0.0881883 0.613489 1.04461e-19)
(0.155055 0.615346 8.1473e-20)
(0.229426 0.590985 -1.92185e-19)
(-0.0045519 0.00493643 1.57789e-20)
(-0.035922 0.0524907 -1.03378e-19)
(-0.0637869 0.12394 1.53778e-19)
(-0.0771105 0.201466 1.66046e-19)
(-0.0705519 0.272523 -1.13399e-19)
(-0.0431963 0.330055 2.22479e-19)
(0.00340602 0.371836 -4.21838e-20)
(0.0669092 0.399168 -9.67567e-20)
(0.145086 0.412706 4.4188e-20)
(0.248194 0.393035 -1.46662e-19)
(-0.0130683 0.0099354 -9.16893e-21)
(-0.0519854 0.0350288 -4.95285e-20)
(-0.0828852 0.0680239 -1.63377e-20)
(-0.0958145 0.103355 7.63207e-20)
(-0.0834575 0.136815 1.51899e-19)
(-0.0420461 0.165366 -1.50669e-19)
(0.030333 0.188011 -1.04515e-19)
(0.133 0.204969 1.59519e-20)
(0.268455 0.216362 5.52437e-20)
(0.431244 0.213325 1.00003e-19)
(-0.776522 0.203637 9.52667e-19)
(-0.662442 -0.272049 -1.88395e-18)
(-0.128564 -0.4516 -3.46641e-19)
(0.265934 -0.440792 1.03586e-19)
(0.581868 -0.390542 -2.07845e-20)
(0.76864 -0.29577 -1.21368e-20)
(0.896241 -0.225197 -8.12376e-21)
(0.98301 -0.157253 -2.52291e-21)
(1.0256 -0.123625 1.13603e-20)
(1.06979 -0.0809113 2.68748e-21)
(-0.593123 0.252569 9.79495e-19)
(-0.390723 -0.36197 7.80066e-19)
(0.0310514 -0.585855 -4.58932e-20)
(0.393757 -0.544634 -1.71592e-19)
(0.669256 -0.458876 -1.8842e-19)
(0.825573 -0.339459 0)
(0.931781 -0.253223 -1.87574e-20)
(1.00323 -0.174378 5.11415e-21)
(1.03899 -0.134795 3.78278e-22)
(1.07626 -0.0868881 -5.39153e-21)
(-0.359102 0.27723 -3.5852e-19)
(-0.0812485 -0.43847 -4.02465e-19)
(0.258049 -0.691237 2.57305e-19)
(0.554767 -0.634428 6.9217e-20)
(0.778733 -0.517003 1.62857e-20)
(0.897754 -0.375529 -6.22892e-21)
(0.976668 -0.275915 0)
(1.02851 -0.188285 0)
(1.0551 -0.143942 -1.00692e-20)
(1.08367 -0.0918276 0)
(-0.106706 0.2831 -9.18336e-20)
(0.242271 -0.497229 8.16996e-19)
(0.518909 -0.774181 -1.33484e-19)
(0.731307 -0.70627 0)
(0.896855 -0.563763 2.28758e-19)
(0.977692 -0.403344 -4.14881e-20)
(1.02791 -0.292457 0)
(1.05799 -0.198236 3.6762e-20)
(1.07369 -0.150536 0)
(1.09195 -0.0954812 4.87925e-21)
(0.142591 0.275749 9.30711e-20)
(0.568612 -0.539405 3.73794e-19)
(0.791627 -0.834814 9.00756e-20)
(0.915063 -0.758356 0)
(1.01445 -0.598438 9.64031e-20)
(1.05723 -0.423333 1.00056e-19)
(1.08076 -0.303061 -4.19027e-22)
(1.08965 -0.204044 -2.48309e-22)
(1.09402 -0.154264 -9.28811e-21)
(1.10091 -0.0976548 1.89911e-21)
(0.361524 0.264324 9.59907e-19)
(0.881024 -0.570809 -3.12141e-19)
(1.06235 -0.873873 -4.70251e-20)
(1.10022 -0.791178 3.14238e-19)
(1.12884 -0.620333 -1.72089e-19)
(1.13182 -0.435858 5.30737e-20)
(1.13092 -0.308443 1.00364e-19)
(1.12092 -0.20605 -8.51637e-20)
(1.11491 -0.155115 4.46121e-23)
(1.11016 -0.0982613 -1.13211e-20)
(0.530368 0.242809 7.05517e-20)
(1.17192 -0.596192 -2.76748e-20)
(1.31652 -0.894664 -1.30494e-19)
(1.27789 -0.807773 -1.06614e-20)
(1.23886 -0.630129 -1.6965e-19)
(1.20069 -0.441162 -8.05651e-21)
(1.17623 -0.309251 -4.24748e-20)
(1.14967 -0.204834 6.03713e-23)
(1.13495 -0.153342 1.14773e-20)
(1.11919 -0.0973394 -9.21419e-22)
(0.667499 0.194514 -5.60897e-19)
(1.43855 -0.617055 -5.47215e-20)
(1.54732 -0.898382 0)
(1.44103 -0.810292 9.11722e-20)
(1.34277 -0.629563 1.4608e-19)
(1.26486 -0.439871 -9.92262e-21)
(1.21671 -0.306013 -1.42494e-19)
(1.17487 -0.200971 3.64191e-20)
(1.153 -0.149344 -5.85459e-22)
(1.12743 -0.0950342 -6.10261e-21)
(0.839974 0.0929135 6.52004e-19)
(1.68492 -0.632215 2.00027e-19)
(1.75021 -0.886044 1.02384e-19)
(1.58613 -0.799865 -5.94275e-20)
(1.4389 -0.620231 7.34655e-21)
(1.32544 -0.432875 -1.46212e-19)
(1.25373 -0.2993 4.91331e-20)
(1.19676 -0.195028 -1.31163e-22)
(1.16846 -0.143625 -5.35253e-22)
(1.13441 -0.0915736 7.87627e-21)
(1.08732 -0.0317012 -4.20271e-19)
(1.91014 -0.63727 2.43366e-19)
(1.92183 -0.860151 1.42489e-19)
(1.71202 -0.778911 -2.42997e-19)
(1.5262 -0.603191 -1.62019e-19)
(1.38272 -0.420575 -8.16178e-20)
(1.28866 -0.289354 -2.6871e-20)
(1.21643 -0.187397 0)
(1.18149 -0.136711 -1.67855e-20)
(1.13996 -0.0872254 1.20147e-20)
(1.77647 -0.185367 -7.44863e-19)
(2.22876 -0.639291 -6.07264e-19)
(2.12654 -0.812495 -5.69308e-20)
(1.86125 -0.73696 4.21321e-20)
(1.62966 -0.568561 4.10001e-20)
(1.45127 -0.394518 -6.12314e-20)
(1.33052 -0.268948 -4.22315e-20)
(1.23936 -0.173211 2.35967e-20)
(1.19537 -0.125431 -9.03003e-21)
(1.1455 -0.0806834 -6.02828e-21)
(2.35651 -0.280011 8.26189e-20)
(2.47143 -0.650071 -1.12945e-18)
(2.20003 -0.75316 -4.84208e-19)
(1.87605 -0.640562 4.20582e-21)
(1.64251 -0.469399 1.39859e-19)
(1.47177 -0.316201 1.49136e-19)
(1.35244 -0.214298 1.06613e-19)
(1.25468 -0.139165 -1.21524e-20)
(1.20622 -0.103385 3.63148e-20)
(1.14931 -0.0692238 4.96884e-21)
(2.48527 -0.308864 -4.47054e-21)
(2.41547 -0.5531 -1.00498e-20)
(2.18179 -0.627114 4.60209e-20)
(1.93877 -0.546933 1.7731e-35)
(1.7285 -0.408448 -2.78717e-20)
(1.54251 -0.273236 -4.52161e-34)
(1.40129 -0.179626 1.09624e-20)
(1.28345 -0.113353 2.15972e-34)
(1.22349 -0.083639 -7.65532e-22)
(1.15542 -0.0577397 1.35719e-21)
(2.44888 -0.296535 -2.2063e-34)
(2.37337 -0.486437 3.45962e-19)
(2.19205 -0.565718 1.63899e-19)
(1.95467 -0.480808 0)
(1.72634 -0.328551 -8.48236e-20)
(1.5294 -0.198426 -8.0423e-20)
(1.39015 -0.121726 -6.28907e-20)
(1.27727 -0.0746879 7.81261e-34)
(1.22234 -0.0570274 -1.85937e-20)
(1.15431 -0.0432245 -2.01017e-21)
(2.40212 -0.287039 -2.05907e-21)
(2.33035 -0.432649 3.92825e-21)
(2.17226 -0.483902 0)
(1.95748 -0.393717 0)
(1.73855 -0.251268 0)
(1.53634 -0.138406 0)
(1.39049 -0.0780035 3.62651e-21)
(1.27376 -0.0451508 9.14146e-34)
(1.21872 -0.0352615 -1.30744e-21)
(1.15033 -0.0301874 -2.99038e-34)
(2.35694 -0.272629 6.57654e-20)
(2.29247 -0.382832 0)
(2.13465 -0.417986 0)
(1.90097 -0.321136 0)
(1.67016 -0.17683 0)
(1.47313 -0.0723783 0)
(1.34119 -0.0271747 -7.91708e-21)
(1.23885 -0.0114685 2.83319e-20)
(1.19421 -0.0118852 -1.57067e-21)
(1.13394 -0.016622 -1.02278e-22)
(2.30427 -0.254471 0)
(2.21245 -0.335383 9.6419e-20)
(1.99788 -0.339308 3.65504e-20)
(1.72676 -0.230633 0)
(1.49559 -0.0969806 -5.68093e-20)
(1.32528 -0.0138226 -4.43926e-20)
(1.22816 0.0117618 -3.46976e-20)
(1.15757 0.0127449 -1.35443e-20)
(1.13281 0.00526792 9.89607e-21)
(1.08924 -0.00568488 -4.28428e-21)
(2.15049 -0.22129 -1.28762e-21)
(1.96357 -0.261852 1.73468e-21)
(1.64915 -0.232806 -6.06342e-21)
(1.34437 -0.131315 -8.41351e-36)
(1.14789 -0.02867 1.46756e-20)
(1.04551 0.0259519 -2.46201e-34)
(1.01182 0.0341564 -9.56431e-21)
(0.991333 0.0251532 -1.79529e-20)
(0.994427 0.0139292 -1.7762e-21)
(0.975163 0.00105949 3.46397e-21)
(1.64718 -0.158146 1.63383e-20)
(1.33694 -0.151069 -1.87547e-20)
(0.96855 -0.0981628 -1.55218e-21)
(0.713062 -0.0319228 0)
(0.618567 0.0153846 8.29306e-21)
(0.619888 0.0352269 8.64316e-21)
(0.658599 0.0319996 -2.2363e-21)
(0.6883 0.0214473 4.52975e-21)
(0.715493 0.0123113 -6.2372e-21)
(0.719528 0.00302696 -3.15575e-21)
(0.552071 -0.0237277 0)
(0.328441 -0.00626251 0)
(0.159323 0.000389935 0)
(0.0796366 0.00233933 0)
(0.0815755 0.00521586 0)
(0.129538 0.00691439 0)
(0.184972 0.00557333 -9.77327e-21)
(0.225697 0.00345141 2.94142e-35)
(0.253 0.00192029 -2.03293e-21)
(0.265078 0.000469589 -3.64119e-21)
(2.5126 0.211505 8.32524e-19)
(2.54883 0.139519 5.10788e-20)
(2.56683 0.0642737 -8.39564e-20)
(2.58051 0.00834109 -2.69829e-19)
(2.59056 -0.0612624 -5.0361e-20)
(2.55479 -0.0899629 -7.73013e-20)
(2.56654 -0.162221 -2.52325e-19)
(2.36579 -0.138371 1.26968e-20)
(2.34542 -0.211574 0)
(1.70839 -0.077934 8.0036e-21)
(2.4393 0.169092 2.65639e-19)
(2.4288 0.129045 -3.06207e-19)
(2.51677 0.0466348 -6.49691e-20)
(2.4634 0.0215467 -1.32149e-19)
(2.58215 -0.0648634 1.09757e-19)
(2.46892 -0.0730954 1.90777e-19)
(2.6298 -0.163037 -2.5018e-19)
(2.43557 -0.163341 -1.13506e-20)
(2.59716 -0.239714 -1.83874e-20)
(2.30545 -0.242171 8.70407e-20)
(2.3831 0.136828 -1.20571e-19)
(2.34814 0.107474 2.73489e-19)
(2.45633 0.0348421 1.68648e-19)
(2.38689 0.0127869 -2.83649e-19)
(2.51013 -0.058432 -4.6678e-20)
(2.415 -0.0795216 4.04593e-19)
(2.53981 -0.141891 7.51633e-20)
(2.44338 -0.173124 -8.501e-20)
(2.53469 -0.214543 -5.07443e-20)
(2.4623 -0.262156 -5.87738e-20)
(2.32115 0.107937 -3.07953e-19)
(2.31115 0.0756243 -4.73568e-20)
(2.38423 0.0239947 2.44563e-20)
(2.358 -0.00780123 -1.56369e-20)
(2.42417 -0.0543499 -2.36113e-19)
(2.39475 -0.0901792 -9.3155e-20)
(2.44318 -0.126764 2.32783e-19)
(2.42755 -0.170216 -1.27086e-20)
(2.4501 -0.194795 4.73551e-20)
(2.45531 -0.245002 2.11047e-20)
(2.26827 0.0783496 4.53076e-20)
(2.2871 0.0443933 1.33645e-19)
(2.32585 0.00853606 -2.69234e-20)
(2.33649 -0.0267608 2.04394e-19)
(2.36311 -0.0586174 -5.56842e-20)
(2.37174 -0.0963829 -2.51564e-19)
(2.38439 -0.122894 3.99753e-20)
(2.39632 -0.162978 -9.66974e-20)
(2.39749 -0.185259 1.3214e-20)
(2.41329 -0.226576 -4.47437e-21)
(2.22855 0.0464453 -1.70005e-19)
(2.25873 0.0158302 -7.71748e-20)
(2.28337 -0.0111829 -4.03954e-22)
(2.30673 -0.0429749 1.20586e-19)
(2.32108 -0.0679396 2.71941e-19)
(2.33971 -0.100959 -7.44408e-20)
(2.34484 -0.123875 6.85762e-21)
(2.36061 -0.157751 -7.03003e-20)
(2.35867 -0.179343 -1.01528e-19)
(2.37297 -0.213759 -4.85334e-20)
(2.18254 0.0151643 -5.93742e-20)
(2.21287 -0.00966702 -1.31101e-19)
(2.23314 -0.0308062 -1.46666e-19)
(2.2577 -0.0565989 -2.75146e-19)
(2.26976 -0.0769913 6.47663e-20)
(2.29 -0.104113 6.43144e-20)
(2.2945 -0.124029 1.01807e-20)
(2.31229 -0.152581 8.06651e-20)
(2.30955 -0.172085 -1.00871e-19)
(2.32744 -0.201973 -5.22723e-20)
(2.07295 -0.0119146 6.27468e-20)
(2.09897 -0.0299223 3.98219e-20)
(2.11066 -0.0448715 2.08361e-20)
(2.13451 -0.063868 -4.30845e-20)
(2.13856 -0.0786071 -4.12232e-20)
(2.1626 -0.0993175 -3.26219e-20)
(2.15866 -0.114276 -5.04809e-20)
(2.18563 -0.137236 8.94216e-20)
(2.17245 -0.152472 -4.419e-20)
(2.20591 -0.177729 3.19524e-20)
(1.74818 -0.0304213 -6.12914e-20)
(1.75682 -0.0400279 -5.80942e-21)
(1.75197 -0.0478509 1.16239e-19)
(1.76193 -0.0579221 -1.0694e-20)
(1.75017 -0.0656034 -3.31106e-20)
(1.76506 -0.077245 6.91395e-20)
(1.74408 -0.0853677 -4.94793e-20)
(1.76787 -0.0995014 3.46477e-20)
(1.73349 -0.108456 -4.4942e-21)
(1.77209 -0.125621 -5.03434e-20)
(0.871729 -0.013852 5.03278e-20)
(0.854212 -0.0135121 4.09923e-20)
(0.835057 -0.0132808 4.02165e-20)
(0.818701 -0.0133014 6.48137e-20)
(0.798779 -0.0137904 -3.29743e-20)
(0.784683 -0.0146546 -3.94914e-20)
(0.761485 -0.0161462 1.73448e-20)
(0.751613 -0.0183228 -2.85633e-21)
(0.716924 -0.0197833 4.30794e-21)
(0.722554 -0.0276754 -6.19583e-21)
(1.5796 0.962732 -8.70552e-20)
(1.56302 1.00903 2.7472e-20)
(1.56654 1.06315 -6.52244e-19)
(1.57528 1.12478 2.40941e-19)
(1.58197 1.18985 1.22064e-18)
(1.57799 1.25043 -1.50626e-19)
(1.54142 1.28422 -1.08475e-18)
(1.42172 1.23894 -3.33142e-21)
(1.12868 1.01742 -5.35824e-19)
(0.530643 0.490726 1.21043e-19)
(1.74557 0.932145 0)
(1.73398 0.976928 7.55631e-19)
(1.73379 1.02712 1.67257e-18)
(1.7421 1.08613 -1.02938e-18)
(1.75212 1.14968 -2.4028e-18)
(1.7516 1.20828 -1.58083e-19)
(1.71332 1.23845 -2.0258e-19)
(1.57901 1.18853 7.39734e-19)
(1.24812 0.96722 1.11059e-18)
(0.581359 0.459332 4.39935e-19)
(1.89961 0.890352 7.01338e-20)
(1.897 0.934949 0)
(1.89803 0.982231 -6.95376e-20)
(1.90689 1.03677 1.04969e-18)
(1.91897 1.09561 5.74857e-20)
(1.91987 1.14897 -2.34913e-18)
(1.87731 1.17275 1.4851e-18)
(1.72539 1.11743 8.80336e-19)
(1.35507 0.899319 -9.53111e-19)
(0.623138 0.41861 -2.82447e-19)
(2.03434 0.841251 -1.91472e-19)
(2.04203 0.883727 -1.40648e-19)
(2.04869 0.927228 2.88361e-19)
(2.06064 0.976137 -3.57378e-19)
(2.07485 1.02833 -1.65403e-18)
(2.07555 1.07412 -1.28259e-18)
(2.02579 1.08975 1.35061e-18)
(1.8534 1.02729 8.93026e-19)
(1.44119 0.813959 0)
(0.651324 0.3689 0)
(2.15356 0.774615 -9.51438e-19)
(2.1697 0.814844 -1.73862e-18)
(2.18306 0.854991 -6.68705e-19)
(2.19916 0.898785 -3.49904e-20)
(2.21515 0.944498 0)
(2.21386 0.982131 1.41349e-19)
(2.1537 0.987188 1.63383e-19)
(1.95504 0.919028 2.03882e-19)
(1.49904 0.71414 -2.92737e-19)
(0.662224 0.310955 -7.33274e-20)
(2.25788 0.700079 1.13699e-18)
(2.28105 0.735761 -4.31919e-20)
(2.30046 0.771138 -1.33093e-18)
(2.32032 0.808797 0)
(2.33699 0.846092 0)
(2.33032 0.873965 0)
(2.25357 0.869882 1.52922e-18)
(2.02272 0.795989 -1.6899e-18)
(1.52389 0.600836 -1.07257e-18)
(0.65295 0.247529 1.47829e-20)
(2.34884 0.612147 -1.48235e-18)
(2.37688 0.64359 -3.1102e-18)
(2.40069 0.674436 -5.39188e-21)
(2.42267 0.706169 6.2807e-19)
(2.43699 0.735708 -3.90371e-20)
(2.41984 0.753612 1.32637e-18)
(2.32011 0.739494 -7.31733e-19)
(2.05208 0.660698 -1.94859e-18)
(1.51071 0.478932 1.1278e-19)
(0.622226 0.18271 8.63141e-20)
(2.42757 0.520932 -1.15901e-18)
(2.4576 0.546608 1.64836e-20)
(2.48303 0.571844 4.37033e-19)
(2.50421 0.596752 -4.21666e-19)
(2.51207 0.6177 6.54058e-19)
(2.47854 0.625142 1.74344e-18)
(2.34821 0.60087 -1.58929e-19)
(2.03689 0.5188 -1.02626e-18)
(1.45524 0.355115 2.34461e-19)
(0.570308 0.121012 4.2749e-20)
(2.4918 0.424129 4.24436e-19)
(2.52208 0.445538 8.5063e-20)
(2.54659 0.465324 -4.37131e-19)
(2.56341 0.483258 -1.01988e-18)
(2.55939 0.495391 7.38268e-20)
(2.50162 0.492548 5.87481e-20)
(2.33175 0.459349 -1.27175e-18)
(1.97145 0.37707 5.38196e-19)
(1.35557 0.2367 1.55672e-19)
(0.499487 0.0669057 -6.85398e-20)
(2.54211 0.330307 7.9156e-19)
(2.56977 0.346592 -1.17829e-18)
(2.59026 0.360189 1.77427e-19)
(2.59793 0.370682 2.32754e-18)
(2.5747 0.373864 1.13509e-18)
(2.4829 0.361431 -2.44618e-18)
(2.26385 0.321516 -2.26983e-18)
(1.85118 0.243232 9.65292e-19)
(1.21262 0.131373 -3.5047e-20)
(0.414217 0.024202 -8.97979e-20)
(0.540262 0.408553 -1.54732e-19)
(0.499864 0.422548 -1.59429e-19)
(0.454449 0.437464 6.77034e-20)
(0.40463 0.453457 -2.22439e-19)
(0.350076 0.470385 -1.65566e-20)
(0.289947 0.486784 2.07895e-19)
(0.223277 0.496628 2.98736e-20)
(0.150524 0.48265 8.92312e-21)
(0.078704 0.40739 2.28332e-20)
(0.0162246 0.208158 1.22535e-20)
(0.585926 0.514706 1.25903e-19)
(0.546486 0.535291 1.59544e-19)
(0.502871 0.557379 4.8498e-20)
(0.455265 0.581133 -4.48537e-20)
(0.403014 0.6063 -2.07649e-19)
(0.345 0.630882 -1.96305e-20)
(0.279538 0.646935 4.35272e-20)
(0.205175 0.631716 4.39784e-20)
(0.125099 0.535416 -1.31094e-19)
(0.0401827 0.274677 -4.54259e-20)
(0.649186 0.613359 -9.91025e-20)
(0.61101 0.639688 -8.48763e-20)
(0.569757 0.668002 9.05535e-20)
(0.525154 0.698779 5.99767e-20)
(0.476262 0.73188 -8.16689e-20)
(0.421642 0.764847 -1.28317e-20)
(0.358522 0.787747 -1.12941e-19)
(0.282556 0.772233 -8.99455e-20)
(0.191023 0.656274 -7.29717e-20)
(0.0742642 0.337062 4.65788e-23)
(0.729641 0.708308 2.38597e-20)
(0.6933 0.740991 -6.0426e-20)
(0.655334 0.775515 -7.60162e-20)
(0.614498 0.812589 -7.17228e-20)
(0.569437 0.85222 -6.58349e-20)
(0.518523 0.891637 -9.31009e-21)
(0.457933 0.919138 -2.98325e-19)
(0.37984 0.901375 6.72465e-20)
(0.27381 0.765712 -3.34297e-19)
(0.117009 0.39268 4.96912e-20)
(0.822936 0.786995 1.32017e-20)
(0.789152 0.824647 1.7551e-20)
(0.75578 0.864692 -5.10537e-20)
(0.720696 0.908183 -2.82373e-19)
(0.681746 0.954891 1.30572e-19)
(0.636496 1.00136 4.89719e-20)
(0.579496 1.03413 3.59606e-20)
(0.498672 1.01515 -1.94552e-19)
(0.374266 0.861958 4.02187e-19)
(0.168289 0.440765 2.91862e-19)
(0.932526 0.864679 -1.05242e-19)
(0.900309 0.906743 -1.99456e-19)
(0.870135 0.950029 1.03221e-20)
(0.83933 0.997033 1.02947e-19)
(0.805719 1.04811 3.84325e-19)
(0.76635 1.09914 2.85158e-19)
(0.713613 1.13448 6.76814e-19)
(0.630153 1.11172 2.77189e-19)
(0.485571 0.940863 1.49138e-19)
(0.224972 0.478512 2.10843e-19)
(1.04788 0.916108 -1.11332e-19)
(1.02186 0.963 6.47653e-19)
(0.999594 1.01084 4.23015e-19)
(0.976459 1.06217 -5.4622e-19)
(0.949685 1.11756 -2.7247e-19)
(0.916221 1.17287 7.03493e-19)
(0.866861 1.211 -1.09494e-19)
(0.77871 1.18567 -4.76774e-19)
(0.609576 1.00037 2.90021e-20)
(0.286786 0.505339 2.63754e-19)
(1.17015 0.968624 3.19648e-19)
(1.14409 1.01585 6.07793e-20)
(1.1265 1.06403 -8.02965e-19)
(1.11149 1.11724 1.7713e-19)
(1.09428 1.17515 6.16611e-19)
(1.06971 1.23223 -3.3782e-19)
(1.02564 1.2697 -1.06617e-19)
(0.933039 1.23865 -1.95588e-19)
(0.737772 1.03902 1.98036e-20)
(0.349832 0.519941 -3.06506e-19)
(1.30194 0.985888 1.88032e-20)
(1.28658 1.0369 -5.88493e-19)
(1.27633 1.08597 -4.96559e-21)
(1.26681 1.14019 5.01824e-19)
(1.25538 1.20054 -5.21009e-19)
(1.23678 1.26044 1.01796e-18)
(1.19569 1.29875 6.83084e-19)
(1.09584 1.26389 -1.0068e-18)
(0.87044 1.05414 -7.98706e-20)
(0.413146 0.521926 -3.39483e-19)
(1.40515 0.994974 -3.55737e-19)
(1.40168 1.04704 -3.34338e-19)
(1.40919 1.09796 3.10489e-19)
(1.4148 1.15294 8.21649e-19)
(1.41502 1.21266 2.9399e-19)
(1.40509 1.27094 -8.4302e-19)
(1.36754 1.30597 1.09464e-19)
(1.25931 1.265 2.28486e-19)
(1.00157 1.04713 -3.0785e-19)
(0.47397 0.512041 -2.40833e-19)
(0.993113 0.0137832 7.12411e-22)
(1.01204 0.0417865 -1.85165e-20)
(1.02305 0.0515675 -1.47552e-20)
(1.02163 0.0773641 0)
(1.02533 0.0953402 1.80956e-20)
(1.02078 0.128344 2.60531e-20)
(0.997613 0.17085 3.52386e-20)
(0.95321 0.206205 7.80124e-20)
(0.867677 0.270794 -1.18216e-19)
(0.716414 0.338761 -1.80008e-19)
(0.993691 0.0118687 3.83853e-20)
(1.01019 0.039572 -5.99372e-20)
(1.02254 0.0500312 1.95335e-22)
(1.01976 0.0765114 -1.85875e-20)
(1.0257 0.0958127 9.05638e-21)
(1.02216 0.132789 -1.33001e-20)
(1.00195 0.18044 -8.20196e-20)
(0.964963 0.225784 0)
(0.882415 0.308161 2.45766e-19)
(0.755156 0.408376 -2.61846e-19)
(0.993947 0.0101829 -2.79442e-20)
(1.00913 0.0375471 1.66054e-20)
(1.02212 0.0483723 3.9189e-20)
(1.01971 0.0760209 9.78346e-21)
(1.02641 0.095788 -2.18805e-20)
(1.02633 0.137735 1.12454e-21)
(1.00682 0.189058 -5.69466e-20)
(0.981243 0.245204 -5.91625e-21)
(0.899896 0.343817 5.99138e-23)
(0.80799 0.475127 7.32062e-19)
(0.993927 0.00864124 -3.12143e-20)
(1.00872 0.0357051 2.35412e-21)
(1.02193 0.0464483 3.20274e-20)
(1.02122 0.075933 2.08295e-20)
(1.02763 0.095121 -1.0979e-20)
(1.03296 0.143365 -1.55665e-20)
(1.01242 0.196426 8.25271e-20)
(1.00188 0.265029 -1.72914e-21)
(0.91982 0.376579 -2.71091e-19)
(0.87469 0.537642 9.20594e-20)
(0.993692 0.00718326 2.17196e-20)
(1.00878 0.0340024 -3.10097e-20)
(1.02218 0.0441734 -2.56176e-20)
(1.02389 0.0762463 1.23803e-20)
(1.02972 0.0937394 0)
(1.04148 0.149681 0)
(1.01951 0.202435 6.95058e-20)
(1.02543 0.285281 3.78532e-22)
(0.944675 0.406253 -1.23614e-19)
(0.951205 0.594068 9.31937e-20)
(0.993304 0.00576473 6.11394e-21)
(1.00914 0.0323494 2.50302e-20)
(1.02314 0.0415191 -6.95652e-20)
(1.02733 0.0768775 -2.39828e-20)
(1.03304 0.0916571 -5.95826e-22)
(1.05143 0.156638 6.57478e-20)
(1.02828 0.206872 1.06944e-19)
(1.05245 0.306529 -7.38521e-22)
(0.971101 0.430629 2.0528e-19)
(1.04444 0.650503 -2.19887e-19)
(0.992802 0.00436206 -2.36447e-20)
(1.00966 0.0306147 1.32777e-20)
(1.02506 0.0385193 -1.89762e-20)
(1.03112 0.0776416 -5.12567e-20)
(1.03804 0.0890048 1.8793e-21)
(1.06205 0.164005 -1.59434e-21)
(1.04013 0.209983 -5.95113e-21)
(1.07973 0.327968 -2.25267e-19)
(1.00813 0.450725 1.507e-19)
(1.13147 0.690699 -5.45144e-19)
(0.992201 0.00296749 -3.99296e-21)
(1.01031 0.0286473 -3.84735e-20)
(1.02805 0.0352511 3.83733e-20)
(1.03502 0.0783271 2.73372e-20)
(1.045 0.0859672 9.75198e-22)
(1.07304 0.171379 -7.62449e-20)
(1.05487 0.212176 -5.93722e-20)
(1.10957 0.349738 4.01753e-19)
(1.04433 0.467696 1.52276e-20)
(1.24971 0.748336 8.54532e-19)
(0.991494 0.00158342 1.62851e-20)
(1.01113 0.026306 1.75963e-20)
(1.03209 0.0318221 4.47361e-20)
(1.03899 0.0788053 -3.01506e-20)
(1.05396 0.0826276 -7.92819e-20)
(1.08397 0.178839 1.16845e-21)
(1.07375 0.211577 -8.16488e-20)
(1.13912 0.369423 5.19892e-19)
(1.10114 0.467208 -9.25352e-21)
(1.31957 0.764436 -1.18644e-18)
(0.990692 0.000285788 3.87943e-22)
(1.01218 0.0235067 2.76033e-20)
(1.037 0.0285562 1.48002e-20)
(1.04328 0.0786557 -6.05895e-20)
(1.06375 0.081165 -7.7404e-20)
(1.09425 0.18631 -6.43441e-20)
(1.09364 0.218787 -1.49638e-19)
(1.16497 0.391822 -4.6708e-19)
(1.15957 0.494238 -2.52727e-19)
(1.45885 0.83324 -1.2438e-18)
(0.98977 -0.0019214 -1.21036e-21)
(1.01309 0.0192026 -6.11426e-21)
(1.04436 0.0220101 -1.67015e-20)
(1.04933 0.0773015 3.36173e-20)
(1.07642 0.0712466 5.82609e-20)
(1.11426 0.190227 -4.21964e-20)
(1.11504 0.201885 1.43062e-19)
(1.21104 0.400551 -4.31814e-19)
(1.223 0.432103 -1.92779e-19)
(1.47422 0.823301 6.55248e-19)
(0.989449 -0.00533119 1.8297e-21)
(1.01393 0.012438 1.23377e-20)
(1.05562 0.0114586 -1.12827e-20)
(1.05368 0.0734033 6.19839e-20)
(1.09779 0.0530949 9.91957e-20)
(1.13142 0.187025 1.24207e-19)
(1.15236 0.174822 3.24895e-20)
(1.23926 0.384329 2.04159e-19)
(1.32339 0.379817 3.1187e-19)
(1.49472 0.721632 2.73482e-20)
(0.988618 -0.00891545 -1.58464e-21)
(1.01705 0.00348836 -4.04899e-21)
(1.06772 0.00126739 3.788e-21)
(1.05776 0.0665632 4.51411e-21)
(1.12581 0.0347985 3.01624e-34)
(1.14035 0.179996 -7.30478e-21)
(1.19582 0.147759 -5.27084e-34)
(1.2572 0.35593 1.93418e-20)
(1.39582 0.323524 -5.79248e-20)
(1.53477 0.629964 -5.79375e-20)
(0.986295 -0.0134757 1.43513e-20)
(1.02481 -0.00777886 -4.57637e-35)
(1.07667 -0.0085812 -4.31564e-21)
(1.06951 0.0549789 -2.68955e-20)
(1.15105 0.0187871 -4.92541e-20)
(1.15037 0.169439 -4.13233e-20)
(1.23049 0.121297 -6.68319e-34)
(1.27998 0.323103 -7.87148e-20)
(1.43253 0.267592 -1.45052e-19)
(1.5796 0.535548 9.7468e-20)
(0.982342 -0.019697 0)
(1.03788 -0.0206741 3.91194e-35)
(1.08155 -0.0189261 0)
(1.09433 0.0376514 0)
(1.16712 0.00599338 0)
(1.16989 0.152837 0)
(1.25217 0.0977184 -4.60687e-34)
(1.30954 0.282526 0)
(1.45222 0.2178 -2.06196e-20)
(1.61304 0.438421 5.77382e-20)
(0.976987 -0.0277075 2.84753e-21)
(1.05557 -0.0336792 3.71434e-21)
(1.08568 -0.0299729 -5.41309e-21)
(1.1287 0.0185792 0)
(1.17494 -0.000796557 0)
(1.19598 0.131586 6.33896e-21)
(1.26871 0.0784903 4.19485e-20)
(1.33905 0.235657 -1.38423e-20)
(1.47014 0.174153 -3.01031e-20)
(1.62642 0.348275 2.23072e-19)
(0.97124 -0.0423615 -7.95992e-20)
(1.07796 -0.0529307 9.0957e-22)
(1.09157 -0.0480226 -6.03725e-21)
(1.16052 -0.00698107 -1.67924e-20)
(1.16712 -0.00728806 -2.96626e-20)
(1.21409 0.102761 -1.11538e-20)
(1.27472 0.0604846 -3.45145e-20)
(1.35752 0.185288 -3.17742e-20)
(1.47786 0.135739 -5.55552e-20)
(1.62888 0.265258 6.6222e-20)
(0.966917 -0.0495758 -6.07312e-21)
(1.09837 -0.0607533 -1.83176e-20)
(1.08105 -0.054409 -6.6717e-21)
(1.15194 -0.0204359 -5.18662e-21)
(1.10379 -0.00471955 -4.97704e-35)
(1.19371 0.0724343 6.59804e-21)
(1.22207 0.0447488 -8.84775e-34)
(1.34213 0.134116 -1.34111e-20)
(1.43727 0.0992904 1.8626e-20)
(1.62067 0.184562 2.64785e-20)
(0.961515 -0.0909809 1.96189e-19)
(1.05658 -0.0904411 -4.81465e-21)
(0.967988 -0.0735772 -7.18391e-21)
(0.987143 -0.0330077 1.41473e-20)
(0.890779 -0.0052651 1.6295e-20)
(1.02237 0.0374549 1.40165e-20)
(1.00457 0.0290498 1.496e-20)
(1.18688 0.0797803 -8.98871e-21)
(1.24704 0.0620753 -2.12626e-20)
(1.49433 0.103511 1.45427e-19)
(0.829172 -0.0460805 8.51149e-21)
(0.732045 -0.0341006 -9.44255e-35)
(0.535305 -0.0176876 -8.36124e-21)
(0.475529 -0.00234617 0)
(0.412555 0.000818704 0)
(0.497255 0.00937745 6.51962e-21)
(0.496289 0.00544889 -5.71174e-36)
(0.636766 0.0176312 -1.29392e-20)
(0.698838 0.00996854 -2.72111e-20)
(0.886037 0.0177562 5.72368e-20)
(1.68321 0.846257 -1.97567e-19)
(1.78438 0.827323 -2.90476e-19)
(1.9027 0.790913 0)
(2.01113 0.747114 1.60835e-19)
(2.11381 0.684446 6.82954e-19)
(2.20341 0.619092 -1.20882e-19)
(2.28549 0.539199 1.75879e-18)
(2.35857 0.46173 -8.61831e-20)
(2.41957 0.374907 -3.86904e-19)
(2.47523 0.294896 3.4249e-19)
(1.70758 0.69472 1.02122e-19)
(1.78321 0.678659 1.15738e-19)
(1.8827 0.642675 -1.46155e-20)
(1.9671 0.604058 2.2476e-19)
(2.06423 0.545454 -1.83858e-19)
(2.12887 0.495879 -4.27764e-19)
(2.21557 0.42581 -1.29913e-19)
(2.25997 0.374027 5.84747e-19)
(2.34023 0.297865 -2.27434e-20)
(2.36129 0.248864 -5.01867e-19)
(1.74126 0.578007 9.9278e-20)
(1.80983 0.555859 1.87016e-19)