/*--------------------------------*- C++ -*----------------------------------*\
  =========                 |
  \\      /  F ield         | OpenFOAM: The Open Source CFD Toolbox
   \\    /   O peration     | Website:  https://openfoam.org
    \\  /    A nd           | Version:  13
     \\/     M anipulation  |
\*---------------------------------------------------------------------------*/
FoamFile
{
    format      ascii;
    class       surfaceScalarField;
    location    "3.55";
    object      phi;
}
// * * * * * * * * * * * * * * * * * * * * * * * * * * * * * * * * * * * * * //

dimensions      [0 3 -1 0 0 0 0];

internalField   nonuniform List<scalar> 
3485
(
-0.0018794
0.00398631
-0.00210691
-0.00454723
0.00775991
-0.00509208
-0.00584662
0.0085208
-0.0072214
-0.00410055
0.0066612
-0.00840727
0.00208112
0.00219015
-0.00837183
0.0138272
-0.00493001
-0.00681608
0.0320793
-0.014713
-0.00353915
0.0574366
-0.0268067
0.00144949
0.0904325
-0.0404027
0.00740677
-0.0467806
0.0110001
0.126213
-0.000775767
0.00476208
-0.000999034
0.00798318
0.00119069
0.00633107
0.00749568
0.000356219
0.0192984
-0.00961257
0.037586
-0.0232176
0.0626219
-0.0397488
0.0940506
-0.0582354
0.131225
-0.0775767
-0.0919493
0.176393
0.000331429
0.00443065
0.00292351
0.0053911
0.00947486
-0.000220282
0.0216523
-0.0118212
0.0405065
-0.0284668
0.0661901
-0.0489012
0.0977915
-0.0713502
0.133465
-0.0939091
0.171003
-0.115115
-0.132657
0.211711
0.00108147
0.00334918
0.0062365
0.000236063
0.0173323
-0.0113161
0.0355194
-0.0300083
0.0609179
-0.0538653
0.0921605
-0.0801438
0.126781
-0.10597
0.161926
-0.129054
0.194865
-0.148053
-0.162489
0.224696
0.00199934
0.00134984
0.0100686
-0.00783321
0.0258233
-0.0270708
0.0494854
-0.0536704
0.0793291
-0.083709
0.112157
-0.112972
0.144437
-0.138251
0.173309
-0.157926
0.197067
-0.171812
-0.180977
0.215555
0.00318825
-0.00183841
0.0144391
-0.0190841
0.0344676
-0.0470992
0.0615854
-0.0807883
0.0920276
-0.114151
0.121607
-0.142552
0.147215
-0.163859
0.167411
-0.178121
0.182284
-0.186685
-0.191258
0.192565
0.00452283
-0.00636124
0.0187491
-0.0333104
0.0415494
-0.0698995
0.0689744
-0.108213
0.0961332
-0.14131
0.119428
-0.165846
0.137366
-0.181797
0.150206
-0.190961
0.159055
-0.195533
-0.197451
0.165247
0.00580858
-0.0121698
0.0221176
-0.0496194
0.0453998
-0.0931817
0.0701302
-0.132944
0.0918216
-0.163001
0.10845
-0.182475
0.120075
-0.193422
0.127787
-0.198672
0.132851
-0.200598
-0.200715
0.136116
0.00680916
-0.018979
0.0238368
-0.066647
0.045382
-0.114727
0.0657027
-0.153264
0.0816533
-0.178952
0.092685
-0.193506
0.0996886
-0.200426
0.103935
-0.202919
0.106463
-0.203126
-0.20217
0.107917
0.00735186
-0.0263308
0.0236554
-0.0829506
0.0419954
-0.133067
0.0574645
-0.168734
0.0683195
-0.189807
0.0749414
-0.200128
0.0785161
-0.204001
0.0801981
-0.204601
0.0807781
-0.203706
0.0806143
-0.202006
-0.00425961
0.015394
-0.0111344
-0.0137416
0.0338258
-0.0243438
-0.0261403
0.0430823
-0.0306836
-0.0400101
0.0468741
-0.0330043
-0.0545849
0.0480813
-0.0335064
-0.0695179
0.0482731
-0.0333402
-0.0846463
0.0480389
-0.0329105
-0.0998572
0.0475173
-0.0323064
-0.115048
0.0467426
-0.0315516
0.0461001
-0.13021
-0.0309381
-0.00162835
0.0170223
-0.00681572
0.0390132
-0.0149292
0.0511958
-0.0248876
0.0568324
-0.0357608
0.0589545
-0.0469666
0.0594789
-0.0582068
0.0592792
-0.069317
0.0586274
-0.0801602
0.0575858
0.0564841
-0.0905442
0.00134226
0.0156801
0.00174912
0.0386063
-0.000318743
0.0532637
-0.00462839
0.0611421
-0.0102858
0.0646119
-0.0164861
0.0656793
-0.0227289
0.0655219
-0.0287613
0.0646599
-0.0344275
0.063252
0.061503
-0.0394463
0.00360385
0.0120762
0.00927341
0.0329368
0.0138308
0.0487063
0.0161975
0.0587754
0.0166469
0.0641625
0.015965
0.0663612
0.0148773
0.0666096
0.0138588
0.0656783
0.0131703
0.0639405
0.061594
0.0130793
0.0045286
0.00754764
0.0136693
0.023796
0.0238591
0.0385165
0.0329451
0.0496894
0.0401991
0.0569085
0.0458394
0.0607209
0.0504816
0.0619675
0.0547613
0.0613986
0.0591609
0.0595409
0.05645
0.0643048
0.00408201
0.00346562
0.0138087
0.0140693
0.0265972
0.0257279
0.0402021
0.0360845
0.053201
0.0439096
0.0650159
0.0489059
0.0756661
0.0513173
0.0854682
0.0515965
0.0947732
0.0502359
0.0470615
0.104162
0.00279016
0.000675462
0.0104785
0.00638105
0.0219435
0.0142629
0.0357281
0.0222999
0.0505147
0.0291231
0.065391
0.0340296
0.0798773
0.0368311
0.093817
0.0376567
0.107244
0.0368091
0.0337404
0.120565
0.00121379
-0.000538327
0.00542062
0.00217422
0.0127084
0.00697509
0.0226483
0.0123599
0.0345283
0.0172431
0.0476262
0.0209316
0.0613628
0.0230945
0.0753673
0.0236523
0.0895849
0.0225915
0.0190169
0.104308
-0.000586
4.76725e-05
-0.000422135
0.00201036
0.00152389
0.00502907
0.00563019
0.00825364
0.0118729
0.0110005
0.0200351
0.0127694
0.0298749
0.0132547
0.041194
0.0123332
0.0539611
0.0098244
0.00498276
0.0679952
-0.00205923
-0.00514096
-0.00733329
-0.00748693
-0.00485826
0.00109502
0.0108105
0.0245932
0.0418244
0.0578073
-0.209852
0.320215
-0.240573
-0.175082
0.163563
-0.198333
-0.054336
-0.0988403
-0.0219052
0.0459384
-0.300678
0.200403
0.110611
-0.410423
0.34575
0.151757
-0.372617
0.331471
0.177507
-0.310806
0.285055
0.193155
-0.226697
0.211049
0.204202
-0.179401
0.168354
-0.111269
0.105473
-0.149229
0.3789
-0.120119
0.134453
-0.0177358
-0.201223
0.0738122
-0.392226
0.132752
-0.469363
0.169325
-0.40919
0.190594
-0.332074
0.202375
-0.238478
0.210022
-0.187048
-0.115253
-0.0774752
0.416928
-0.0524678
0.109445
0.0280996
-0.281791
0.106412
-0.470538
0.156595
-0.519545
0.187163
-0.439758
0.203753
-0.348664
0.211922
-0.246647
0.216265
-0.191391
-0.117407
-0.00724473
0.437252
0.0154516
0.0867489
0.0751523
-0.341491
0.14025
-0.535636
0.180833
-0.560128
0.204469
-0.463394
0.216105
-0.360301
0.220985
-0.251526
0.222433
-0.192839
-0.117914
0.0596993
0.441858
0.0741011
0.0723471
0.120139
-0.38753
0.1721
-0.587596
0.203718
-0.591746
0.22063
-0.480307
0.227278
-0.366948
0.229063
-0.253312
0.228093
-0.191869
-0.117084
0.114922
0.431098
0.125316
0.0619523
0.16038
-0.422594
0.200219
-0.627434
0.223834
-0.615362
0.234967
-0.491439
0.237098
-0.36908
0.23597
-0.252184
0.232976
-0.188875
-0.115251
0.155831
0.395832
0.167211
0.0505728
0.194617
-0.45
0.22366
-0.656477
0.240457
-0.632159
0.24698
-0.497962
0.245455
-0.367556
0.241721
-0.24845
0.23699
-0.184144
-0.112717
0.176758
0.323383
0.199309
0.0280214
0.222004
-0.472695
0.241722
-0.676194
0.253129
-0.643566
0.25636
-0.501193
0.25225
-0.363446
0.246399
-0.242599
0.240171
-0.177915
-0.109722
0.177228
0.21415
0.223243
-0.0179942
0.242595
-0.492047
0.254357
-0.687956
0.261714
-0.650923
0.262963
-0.502442
0.257384
-0.357867
0.250071
-0.235285
0.242608
-0.170453
-0.10647
0.170539
0.101418
0.240673
-0.0881281
0.255803
-0.507178
0.262338
-0.69449
0.266861
-0.655446
0.267075
-0.502657
0.260889
-0.351681
0.252779
-0.227175
0.244402
-0.162076
-0.103148
0.479144
0.0400517
-0.417777
0.619248
-0.228232
0.660216
-0.548145
0.630214
-0.664488
0.573943
-0.599176
0.516095
-0.444809
0.463531
-0.299116
0.422161
-0.185805
0.389044
-0.128958
-0.0844828
0.705437
-0.0116001
-0.653785
0.756115
-0.27891
0.726924
-0.518955
0.653941
-0.591504
0.581192
-0.526427
0.519011
-0.382628
0.46584
-0.245946
0.424558
-0.144523
0.390919
-0.0953191
-0.0647135
0.779301
-0.0595086
-0.731393
0.770178
-0.269787
0.711746
-0.460522
0.649151
-0.528909
0.591395
-0.468671
0.53284
-0.324073
0.476341
-0.189447
0.430788
-0.0989702
0.393843
-0.0583741
-0.0431255
0.774879
-0.092216
-0.742172
0.756373
-0.251281
0.714222
-0.418372
0.661533
-0.47622
0.597188
-0.404326
0.528824
-0.25571
0.467225
-0.127848
0.421283
-0.0530281
0.386702
-0.023793
-0.023133
0.756173
-0.114058
-0.734331
0.743283
-0.23839
0.705668
-0.380756
0.649344
-0.419896
0.580138
-0.33512
0.511401
-0.186972
0.452476
-0.0689232
0.409298
-0.0098506
0.377679
0.00782663
-0.0049447
0.738612
-0.128783
-0.723887
0.728675
-0.228453
0.688344
-0.340425
0.620384
-0.351937
0.538873
-0.253609
0.467239
-0.115338
0.414535
-0.0162193
0.380007
0.0246777
0.35711
0.0307233
0.00837618
0.718589
-0.134594
-0.712778
0.700017
-0.209881
0.637051
-0.277459
0.543225
-0.258111
0.450735
-0.161118
0.385685
-0.0502876
0.348706
0.0207599
0.330466
0.0429177
0.321498
0.0396905
0.0143676
0.665803
-0.118679
-0.681719
0.615021
-0.159098
0.513538
-0.175977
0.395437
-0.14001
0.306517
-0.0721991
0.263088
-0.00685846
0.252626
0.0312217
0.256204
0.0393397
0.263318
0.0325771
0.0125484
0.504404
-0.0658407
-0.557243
0.410714
-0.0654076
0.288341
-0.0536036
0.184518
-0.0361872
0.129552
-0.0172324
0.119475
0.00321836
0.134651
0.016046
0.155325
0.0186652
0.173002
0.0149003
0.00583608
0.169767
-0.235607
0.104359
0.0507555
0.0145683
-0.00266405
0.000554315
0.0166003
0.0352656
0.0501658
0.553607
0.0693478
-0.54234
0.565869
0.0956552
0.580953
0.121031
0.597114
0.149087
0.613354
0.176325
0.627742
0.201167
0.623973
0.228465
0.5992
0.236484
0.51712
0.258473
0.225556
0.533879
0.0581014
-0.522632
0.548263
0.0812708
0.564244
0.10505
0.586059
0.127272
0.606729
0.155655
0.634291
0.173605
0.654392
0.208364
0.67326
0.217616
0.676113
0.25562
0.247884
0.519926
0.0481597
-0.509984
0.534482
0.0667148
0.549979
0.089553
0.571098
0.106153
0.592989
0.133764
0.61961
0.146985
0.648724
0.179249
0.677617
0.188724
0.711402
0.221835
0.227893
0.510358
0.0385131
-0.500712
0.523931
0.0531421
0.539781
0.0737033
0.558848
0.0870858
0.581921
0.110692
0.606449
0.122457
0.637982
0.147716
0.668391
0.158314
0.70753
0.182696
0.193251
0.502333
0.0287627
-0.492583
0.51481
0.0406658
0.531037
0.0574761
0.549077
0.0690457
0.572463
0.0873054
0.596599
0.0983209
0.627546
0.116768
0.658493
0.127368
0.696479
0.14471
0.155399
0.49398
0.0191602
-0.484377
0.50591
0.0287354
0.522033
0.0413538
0.540014
0.0510644
0.563057
0.064262
0.587577
0.0738011
0.617587
0.0867586
0.648966
0.0959888
0.685591
0.108085
0.117103
0.482756
0.0100409
-0.473637
0.49447
0.0170216
0.510169
0.025655
0.528382
0.0328516
0.550997
0.0416465
0.576041
0.0487576
0.6056
0.057199
0.637573
0.064016
0.673996
0.0716621
0.0783204
0.458076
0.00219117
-0.450226
0.468783
0.00631422
0.483222
0.0112157
0.500688
0.0153865
0.522115
0.0202189
0.546647
0.0242257
0.575231
0.0286149
0.606942
0.0323053
0.642752
0.0358519
0.0393536
0.386354
-0.0019322
-0.38223
0.393112
-0.000444238
0.403098
0.00123027
0.415834
0.0026496
0.431878
0.00417519
0.450742
0.0053622
0.472834
0.00652298
0.497813
0.00732632
0.525726
0.00793812
0.00783735
0.19301
-0.194942
0.192565
0.193796
0.196445
0.20062
0.205983
0.212506
0.219832
0.22777
0.0719971
0.148847
-0.137118
-0.0837271
0.0612338
0.15102
-0.140256
0.0513143
0.153635
-0.143716
0.041704
0.157137
-0.147527
0.0321512
0.160866
-0.151313
0.0227471
0.163693
-0.154289
0.0139181
0.162898
-0.154069
0.00648375
0.15249
-0.145056
0.00155455
0.121966
-0.117037
0.0573002
-0.0557457
0.06799
0.159328
-0.0784705
0.0576658
0.161344
0.0476875
0.163614
0.0380627
0.166762
0.0286931
0.170235
0.0196888
0.172697
0.011508
0.171079
0.00495418
0.159044
0.000956692
0.125963
0.0582569
0.0605593
0.168622
-0.0698533
0.0509914
0.170912
0.0415564
0.173049
0.0324402
0.175878
0.0236806
0.178995
0.0154451
0.180933
0.00821249
0.178312
0.00283963
0.164417
0.000100931
0.128702
0.0583579
0.0492465
0.176567
-0.0571918
0.0409467
0.179212
0.0325858
0.18141
0.0244217
0.184042
0.0166288
0.186788
0.00950336
0.188058
0.00362083
0.184194
-0.000188218
0.168226
-0.00100688
0.129521
0.057351
0.0358982
0.183448
-0.0427789
0.0288154
0.186294
0.0216338
0.188591
0.0145998
0.191076
0.00799334
0.193394
0.00222403
0.193827
-0.00189567
0.188314
-0.00341234
0.169743
-0.00225477
0.128363
0.0550962
0.0205705
0.189197
-0.0263199
0.0147287
0.192136
0.00883622
0.194484
0.00311956
0.196793
-0.00205564
0.198569
-0.00605041
0.197822
-0.00804618
0.19031
-0.00722003
0.168917
-0.00359492
0.124738
0.0515013
0.0040503
0.194095
-0.0089482
-0.000708214
0.196895
-0.0053729
0.199148
-0.00971143
0.201131
-0.0132733
0.202131
-0.0153351
0.199884
-0.0148955
0.18987
-0.0111847
0.165206
-0.00488269
0.118436
0.0466186
-0.0144443
0.197889
0.0106504
-0.0179998
0.20045
-0.0213182
0.202467
-0.0241219
0.203935
-0.0258301
0.20384
-0.0255238
0.199578
-0.0221353
0.186482
-0.0151429
0.158213
-0.0060251
0.109318
0.0405935
-0.0346375
0.200562
0.031965
-0.036961
0.202774
-0.0388596
0.204365
-0.0399378
0.205013
-0.0394435
0.203345
-0.036296
0.19643
-0.0294441
0.17963
-0.018814
0.147583
-0.00689375
0.097398
0.0336998
-0.0569145
0.0554704
-0.0578463
-0.0580816
-0.0570689
-0.053852
-0.0472289
-0.0363328
-0.0218163
-0.00736892
0.109171
0.0392426
-0.121336
-0.0270772
0.0967282
0.040309
-0.0278663
0.0839969
0.041464
-0.0287326
0.0709512
0.0426968
-0.0296511
0.0575737
0.0439883
-0.0306108
0.0438891
0.0451977
-0.0315131
0.030082
0.0457733
-0.0319662
0.0167925
0.0441568
-0.0308674
0.00565584
0.0370067
-0.02587
0.0187521
-0.0130963
0.108049
0.051386
-0.120193
0.0957068
0.0526516
0.083088
0.0540828
0.0701621
0.0556227
0.0569038
0.0572466
0.0433358
0.0587657
0.0296513
0.0594578
0.0165041
0.057304
0.00552912
0.0479817
0.0242813
0.106504
0.0633891
-0.118507
0.0942388
0.0649169
0.0817231
0.0665985
0.0689303
0.0684155
0.0558368
0.07034
0.0424601
0.0721424
0.0289897
0.0729282
0.0160827
0.0702109
0.00535764
0.0587068
0.0296389
0.104334
0.0754059
-0.11635
0.0922042
0.0770463
0.0798172
0.0789854
0.0671514
0.0810814
0.0542046
0.0832868
0.0410284
0.0853186
0.0278432
0.0861134
0.0153185
0.0827357
0.00503538
0.0689899
0.0346743
0.101623
0.0871726
-0.11339
0.0897135
0.0889559
0.0776352
0.0910636
0.0653152
0.0934014
0.0527026
0.0958994
0.0398291
0.0981921
0.0269369
0.0990056
0.0147359
0.0949366
0.00480573
0.0789201
0.03948
0.097725
0.0989997
-0.109552
0.085911
0.10077
0.0739454
0.103029
0.0618403
0.105507
0.0495836
0.108156
0.0372005
0.110575
0.024916
0.11129
0.0134294
0.106423
0.00426301
0.0880865
0.043743
0.0936414
0.110159
-0.1048
0.0824844
0.111927
0.071129
0.114385
0.0594806
0.117155
0.047554
0.120083
0.0354685
0.122661
0.0235415
0.123217
0.0125253
0.117439
0.00390052
0.0967113
0.0476435
0.0861847
0.121155
-0.0971816
0.0754297
0.122682
0.0647306
0.125084
0.0539539
0.127932
0.0429841
0.131052
0.0318567
0.133788
0.0208894
0.134184
0.0108706
0.127458
0.00323966
0.104342
0.0508832
0.0813579
0.130371
-0.0905733
0.0717159
0.132324
0.061485
0.135315
0.0509003
0.138516
0.040132
0.141821
0.0293408
0.144579
0.0188923
0.144633
0.00957996
0.13677
0.00273657
0.111186
0.0536198
0.0702444
-0.0769912
0.062312
0.0539107
0.0449003
0.0354082
0.0256988
0.0162625
0.0079769
0.00212591
0.201631
0.0043656
-0.00800642
0.205572
0.026019
-0.0299606
0.20944
0.0334879
-0.0373561
0.211947
0.0514003
-0.0539067
0.213692
0.0636067
-0.065352
0.212755
0.0805821
-0.0796446
0.208213
0.110538
-0.105996
0.196786
0.142773
-0.131346
0.171485
0.197125
-0.171824
0.258498
-0.20835
0.201277
0.00107826
0.204781
0.0225149
0.208573
0.029696
0.210438
0.0495359
0.212241
0.0618028
0.210481
0.0823425
0.20605
0.114969
0.194094
0.154728
0.16904
0.22218
0.307345
0.200888
-0.0018201
0.203823
0.0195798
0.207491
0.0260284
0.208554
0.0484731
0.210401
0.0599553
0.207617
0.0851265
0.203308
0.119278
0.190304
0.167733
0.165963
0.246521
0.354801
0.200443
-0.00427332
0.202705
0.0173178
0.206158
0.0225753
0.206338
0.0482929
0.208158
0.0581355
0.2042
0.0890842
0.200043
0.123436
0.185485
0.182291
0.162311
0.269695
0.400762
0.199919
-0.00620275
0.201436
0.0158006
0.204568
0.0194435
0.203834
0.0490272
0.205484
0.0564852
0.200267
0.094301
0.196182
0.127522
0.179838
0.198635
0.157999
0.291534
0.445371
0.199297
-0.0075099
0.20003
0.0150679
0.202721
0.0167517
0.201062
0.0506868
0.202369
0.0551784
0.195822
0.100847
0.191715
0.131629
0.173136
0.217214
0.15332
0.31135
0.489138
0.198562
-0.00808191
0.198501
0.0151288
0.20062
0.0146324
0.198044
0.0532633
0.198783
0.0544387
0.190953
0.108678
0.186416
0.136166
0.165979
0.237651
0.147584
0.329745
0.531923
0.197709
-0.00780158
0.196866
0.0159719
0.198274
0.0132247
0.19479
0.0567477
0.194737
0.0544912
0.185641
0.117774
0.180411
0.141395
0.157479
0.260584
0.141666
0.345557
0.576407
0.196749
-0.00656079
0.195137
0.0175844
0.195701
0.0126604
0.191308
0.0611409
0.190188
0.0556108
0.18003
0.127932
0.173688
0.147738
0.150252
0.28402
0.134817
0.360992
0.620651
0.195729
-0.00429975
0.193277
0.0200362
0.192982
0.0129552
0.187507
0.0666157
0.185069
0.0580492
0.17342
0.139581
0.164996
0.156162
0.139759
0.309256
0.128423
0.372328
0.672082
0.30474
-0.00702939
0.307893
0.016883
0.317455
0.00339335
0.31909
0.0649806
0.331107
0.0460317
0.331799
0.13889
0.351613
0.136347
0.357094
0.303775
0.409695
0.319728
0.602196
0.479581
0.304844
-0.00986369
0.309444
0.0122836
0.319886
-0.0070485
0.322964
0.0619024
0.336476
0.0325197
0.340841
0.134525
0.361628
0.11556
0.376978
0.288426
0.425264
0.271442
0.535184
0.492275
0.305
-0.0128538
0.311944
0.00534005
0.321892
-0.0169967
0.327795
0.0559991
0.341421
0.0188943
0.350326
0.12562
0.369956
0.0959295
0.391844
0.266538
0.435063
0.228223
0.462625
0.507622
0.30568
-0.0165233
0.315248
-0.00422782
0.323575
-0.025324
0.333923
0.0456509
0.345608
0.00720896
0.358826
0.112402
0.375794
0.0789611
0.403002
0.23933
0.444612
0.186613
0.387871
0.519367
0.307289
-0.0218021
0.319116
-0.0160547
0.326209
-0.032417
0.340988
0.0308714
0.350978
-0.0027803
0.367898
0.0954824
0.382257
0.0646013
0.414924
0.206664
0.449955
0.151582
0.3151
0.522725
0.309765
-0.0295568
0.323488
-0.0297777
0.330191
-0.0391201
0.348605
0.0124573
0.356585
-0.01076
0.375559
0.076508
0.388051
0.0521096
0.423854
0.17086
0.454443
0.120993
0.244979
0.524564
0.313084
-0.0406305
0.327864
-0.0445579
0.334855
-0.0461114
0.354215
-0.00690256
0.358172
-0.0147164
0.378499
0.0561812
0.389699
0.0409097
0.429136
0.131422
0.458196
0.0919339
0.178556
0.524619
0.316128
-0.0547479
0.328282
-0.0567125
0.33239
-0.0502195
0.345409
-0.0199209
0.343408
-0.012716
0.364074
0.0355154
0.375747
0.0292366
0.420207
0.0869626
0.450667
0.061473
0.113693
0.51553
0.308948
-0.0616854
0.303795
-0.0515598
0.29201
-0.0384342
0.287809
-0.0157205
0.280764
-0.00567079
0.300437
0.0158425
0.315632
0.0140409
0.36415
0.0384455
0.397911
0.027712
0.0477355
0.463868
0.240325
0.188765
0.150331
0.13461
0.12894
0.144782
0.158823
0.197269
0.224981
0.272716
0.492956
-0.0971023
0.497426
-0.0829402
0.501004
-0.0734309
0.504076
-0.0602641
0.50873
-0.0474327
0.513252
-0.030842
0.51924
-0.0149362
0.525444
0.00444638
0.533679
0.0237303
0.0468086
0.493289
-0.0981165
0.493863
-0.0835144
0.493984
-0.0735519
0.493955
-0.0602351
0.495506
-0.0489838
0.497415
-0.032751
0.501639
-0.0191597
0.506666
-0.000580347
0.51395
0.0164463
0.0381259
0.501021
-0.0915149
0.497382
-0.0798763
0.493921
-0.0700902
0.491367
-0.0576811
0.489807
-0.0474242
0.490219
-0.0331632
0.491982
-0.0209223
0.495749
-0.00434694
0.501252
0.0109428
0.0293937
0.508134
-0.0802816
0.499865
-0.0716075
0.493255
-0.0634806
0.489014
-0.0534403
0.485509
-0.0439191
0.484705
-0.0323586
0.484772
-0.0209896
0.488042
-0.00761677
0.492516
0.00646868
0.0211979
0.510688
-0.0682442
0.500817
-0.0617363
0.492525
-0.0551887
0.486645
-0.0475607
0.482012
-0.0392864
0.4799
-0.0302461
0.479177
-0.020267
0.481372
-0.00981144
0.485447
0.0023936
0.0140619
0.511812
-0.0554916
0.500741
-0.0506653
0.491239
-0.0456866
0.483797
-0.0401191
0.478138
-0.0336276
0.474734
-0.0268415
0.473353
-0.0188859
0.474464
-0.0109231
0.478104
-0.0012466
0.00778902
0.510624
-0.0414966
0.498121
-0.0381618
0.487261
-0.0348272
0.478362
-0.0312202
0.471575
-0.0268396
0.466987
-0.0222536
0.464769
-0.0166682
0.464962
-0.011116
0.467999
-0.00428357
0.00215058
0.49959
-0.0255567
0.485371
-0.0239423
0.473014
-0.0224703
0.462655
-0.0208618
0.454525
-0.0187095
0.448561
-0.0162893
0.445075
-0.0131828
0.443943
-0.00998384
0.445723
-0.00606367
-0.00235195
0.447544
-0.00923249
0.432992
-0.00939066
0.420071
-0.00954873
0.408735
-0.00952636
0.399172
-0.00914648
0.391376
-0.00849285
0.385691
-0.00749771
0.382083
-0.00637601
0.380997
-0.0049779
-0.00358512
0.263484
0.254093
0.244544
0.235018
0.225871
0.217379
0.209881
0.203505
0.198527
0.00695775
0.0431333
-0.0500911
0.0165031
0.111873
-0.121418
0.0229607
0.157731
-0.164189
0.0253415
0.182536
-0.184917
0.0246165
0.193149
-0.192424
0.0220351
0.195782
-0.193201
0.0185289
0.194059
-0.190553
0.01473
0.189018
-0.185219
0.0112162
0.179449
-0.175935
0.162013
0.00855942
-0.159357
0.00832194
0.0348114
0.0220525
0.0981421
0.0337007
0.146083
0.040865
0.175372
0.0440289
0.189985
0.0445004
0.195311
0.0433929
0.195166
0.0413592
0.191051
0.0386073
0.182201
0.165734
0.0348867
0.00887408
0.0259373
0.0261237
0.0808924
0.0432314
0.128975
0.0560007
0.162603
0.0639186
0.182068
0.0680675
0.191162
0.06967
0.193564
0.0694344
0.191287
0.0673784
0.184257
0.170507
0.0626051
0.00849437
0.0174429
0.0277718
0.061615
0.0498811
0.106866
0.0688912
0.143592
0.0826427
0.168316
0.0915022
0.182302
0.0966562
0.18841
0.0990142
0.188929
0.0985965
0.184674
0.174643
0.0944606
0.00729778
0.0101451
0.0264346
0.0424782
0.0518349
0.0814655
0.0769597
0.118468
0.0976581
0.147618
0.112719
0.167241
0.122736
0.178392
0.128701
0.182964
0.131085
0.18229
0.177089
0.128639
0.00560013
0.00454501
0.0223852
0.0256932
0.0479946
0.055856
0.0772438
0.0892185
0.104911
0.11995
0.127739
0.144414
0.144669
0.161462
0.15606
0.171573
0.162523
0.175828
0.175482
0.16413
0.00381547
0.000729542
0.016831
0.0126776
0.0392991
0.0333879
0.0686945
0.0598232
0.100697
0.0879479
0.131099
0.114011
0.157007
0.135555
0.177095
0.151484
0.191307
0.161616
0.167866
0.198923
0.00227729
-0.00154775
0.011223
0.00373194
0.0284093
0.0162015
0.0536903
0.0345422
0.0849278
0.0567104
0.118782
0.0801567
0.151862
0.102475
0.181295
0.122051
0.2056
0.137311
0.148512
0.224954
0.00113756
-0.00268531
0.00657499
-0.00170548
0.0181284
0.00464811
0.0368956
0.015775
0.0627223
0.0308837
0.0941198
0.0487592
0.128725
0.0678697
0.163991
0.0867849
0.196585
0.104718
0.115776
0.22932
0.000369773
-0.00305509
0.00313028
-0.00446599
0.00988494
-0.00210655
0.0220073
0.00365268
0.0403452
0.0125458
0.0649349
0.0241695
0.094918
0.0378866
0.128901
0.0528017
0.164794
0.0688252
0.0815415
0.199028
-0.000148557
-0.00290653
0.000773913
-0.00538846
0.00400945
-0.00534209
0.0107328
-0.0030707
0.0219702
0.00130841
0.0384405
0.0076992
0.0603647
0.0159624
0.087341
0.0258255
0.118958
0.0372081
0.0520838
0.148416
-0.000319182
-0.00258735
-0.000233066
-0.00547458
0.00104912
-0.00662428
0.00425124
-0.00627282
0.010093
-0.00453338
0.0191953
-0.00140305
0.0320403
0.0031174
0.0487571
0.00910865
0.0690627
0.0169024
0.0281017
0.0930448
0.000112374
-0.00269972
0.000708578
-0.00607079
0.00199678
-0.00791248
0.00419971
-0.00847575
0.00760007
-0.00793374
0.0125611
-0.00636413
0.0194438
-0.00376529
0.0286331
-8.05861e-05
0.0403818
0.00515366
0.0119999
0.0564836
0.000825282
-0.003525
0.00251884
-0.00776434
0.00477885
-0.0101725
0.00757783
-0.0112747
0.0110369
-0.0113928
0.0153709
-0.0106982
0.0208746
-0.00926901
0.0279121
-0.00711807
0.0372715
-0.00420571
-0.000487047
0.0497585
0.00103258
-0.00455759
0.00270508
-0.00943684
0.0045937
-0.0120611
0.00673872
-0.0134198
0.00936377
-0.0140178
0.0127533
-0.0140877
0.017217
-0.0137327
0.023083
-0.012984
0.030684
-0.0118067
-0.010419
0.0406159
0.000253078
-0.00481067
3.92126e-06
-0.00918769
-0.000786005
-0.0112712
-0.00177049
-0.0124353
-0.00259621
-0.0131921
-0.00298305
-0.0137009
-0.00272494
-0.0139908
-0.0016525
-0.0140565
0.000412186
-0.0138714
-0.0133399
0.00333303
-0.00139377
-0.00341689
-0.00501787
-0.00556359
-0.00991856
-0.00637049
-0.0152951
-0.00705871
-0.0206178
-0.00786946
-0.0255745
-0.00874418
-0.0299785
-0.00958681
-0.0337223
-0.0103126
-0.0367384
-0.0108553
-0.0114261
-0.0386522
-0.00363055
0.000213661
-0.0113194
0.00212529
-0.0209805
0.0032906
-0.031425
0.00338576
-0.0421025
0.00280804
-0.0527886
0.00194192
-0.0633772
0.00100182
-0.0738018
0.00011195
-0.0838605
-0.000796623
-0.00171733
-0.0935692
-0.00528594
0.0054996
-0.0160323
0.0128717
-0.0292265
0.0164848
-0.0434334
0.0175926
-0.058111
0.0174857
-0.0730871
0.0169179
-0.0882718
0.0161866
-0.103538
0.0153786
-0.118848
0.0145133
0.0136291
-0.134195
-0.00563479
-0.0171069
-0.0313057
-0.0467174
-0.0627381
-0.0791604
-0.0958843
-0.112812
-0.12985
-0.147159
0.202255
0.105435
-0.159274
0.208347
0.451559
-0.457651
0.184973
0.499729
-0.476356
0.186379
0.200354
-0.201759
0.200511
-0.0734874
0.0593552
0.204602
-0.1436
0.139509
0.201638
-0.108791
0.111755
0.199694
-0.062929
0.0648725
0.201401
-0.0374922
0.0357854
-0.024117
0.0189579
0.160542
0.0379374
0.198099
0.414002
0.193873
0.503955
0.20623
0.187997
0.212223
-0.0794808
0.206136
-0.137513
0.199898
-0.102553
0.198405
-0.061436
0.201622
-0.0407088
-0.0297196
0.129165
-0.0347442
0.174852
0.368315
0.187363
0.491444
0.20384
0.171521
0.199393
-0.0750341
0.188346
-0.126466
0.185424
-0.0996313
0.189225
-0.0652367
0.197122
-0.0486057
-0.0371378
0.10193
-0.0869157
0.135769
0.334475
0.158741
0.468473
0.174415
0.155846
0.164566
-0.0651844
0.158509
-0.120409
0.165816
-0.106938
0.178082
-0.0775023
0.191776
-0.0622998
-0.0466878
0.0585569
-0.104857
0.0797778
0.313255
0.107642
0.440609
0.121386
0.142102
0.120538
-0.0643364
0.130496
-0.130367
0.150575
-0.127017
0.170415
-0.0973422
0.188396
-0.0802806
-0.0576097
-0.00788192
-0.0936417
0.00859181
0.296781
0.0376454
0.411556
0.0610507
0.118696
0.0868902
-0.0901759
0.11513
-0.158607
0.144227
-0.156115
0.168041
-0.121155
0.187741
-0.0999806
-0.0688123
-0.0952562
-0.0370378
-0.0841273
0.285652
-0.0317274
0.359156
0.0196608
0.0673083
0.0728229
-0.143338
0.112049
-0.197833
0.14499
-0.189056
0.169653
-0.145818
0.189136
-0.119463
-0.079514
-0.179411
0.0488037
-0.161577
0.267818
-0.072353
0.269932
0.00582911
-0.0108738
0.0719431
-0.209452
0.115862
-0.241752
0.149547
-0.222741
0.173418
-0.169689
0.191704
-0.137749
-0.0893357
-0.231843
0.146452
-0.200298
0.236273
-0.0816558
0.15129
0.00982322
-0.102353
0.0785023
-0.278131
0.123897
-0.287147
0.156451
-0.255295
0.178533
-0.191771
0.195041
-0.154256
-0.0980681
-0.24128
-0.203341
-0.073956
0.0240943
0.0917133
0.136037
0.165797
0.185076
0.199173
0.0473179
0.034877
-0.082195
0.00476093
0.042557
-0.0260776
0.0308385
-0.039591
0.0135134
-0.0309948
-0.00859619
-0.00509868
-0.0258961
0.0182946
-0.0233933
0.0317027
-0.0134081
0.0379982
-0.00629553
-0.00237953
0.195004
0.10834
-0.268468
0.0803262
0.157235
-0.00483904
0.116004
-0.0302873
0.0389617
-0.00846233
-0.0304212
0.0327459
-0.0671044
0.0689028
-0.0595502
0.0905751
-0.0350804
0.10187
-0.0175901
-0.00717847
0.339574
0.169188
-0.400422
0.197068
0.299741
0.0720757
0.240997
0.0292708
0.0817666
0.0511654
-0.0523158
0.0887289
-0.104668
0.119512
-0.0903335
0.138652
-0.0542203
0.149689
-0.0286274
-0.012596
0.417589
0.187504
-0.435905
0.302885
0.414445
0.169686
0.374196
0.112197
0.139256
0.124196
-0.0643151
0.14922
-0.129692
0.166479
-0.107593
0.176457
-0.064198
0.182805
-0.0349754
-0.0167284
0.400451
-0.372221
0.357245
0.255085
0.192582
0.187622
0.197439
0.201601
0.202275
0.203086
0.0111516
-0.000147189
-0.0110044
0.0127831
-0.00163145
0.0157808
-0.00299768
0.0202185
-0.00443773
0.0266325
-0.006414
0.033831
-0.00719849
0.0441092
-0.0102783
0.0546633
-0.010554
0.0686323
-0.013969
-0.0135626
0.0306197
-0.000855204
-0.0299117
0.0352718
-0.00628354
0.043753
-0.0114789
0.0570241
-0.0177087
0.0756595
-0.0250495
0.098833
-0.030372
0.131749
-0.0431941
0.167782
-0.0465875
0.215183
-0.0613697
-0.0668473
0.0472895
-0.00240967
-0.045735
0.0546987
-0.0136927
0.0680773
-0.0248576
0.0890086
-0.03864
0.117438
-0.0534786
0.155307
-0.0682415
0.204102
-0.091989
0.259411
-0.101896
0.330152
-0.132111
-0.137117
0.0610752
-0.00496219
-0.0585227
0.0707568
-0.0233743
0.0881559
-0.0422566
0.114453
-0.064937
0.149914
-0.0889395
0.1972
-0.115528
0.250947
-0.145736
0.316149
-0.167099
0.384977
-0.200938
-0.188045
0.0721271
-0.0685299
0.0836395
0.103988
0.133512
0.173211
0.221814
0.275001
0.332856
0.361238
0.0834839
-0.0772857
0.0851048
-0.091303
0.0747941
-0.0784299
0.0871197
0.0657071
-0.0802454
0.0893325
0.0559855
-0.0821911
0.0919127
0.0455604
-0.0841567
0.0945818
0.0345621
-0.0858483
0.0968466
0.023361
-0.0861671
0.0973682
0.0127264
-0.0821874
0.092822
0.00412323
-0.0679627
0.0765659
-0.0338971
0.0380203
0.0923992
-0.0676541
-0.102031
0.0823648
-0.0683955
0.0716683
-0.0695489
0.0603785
-0.0709013
0.0486532
-0.0724313
0.0366708
-0.073866
0.0247254
-0.0742217
0.0134912
-0.0709531
0.00439714
-0.0588686
-0.0294999
0.0944276
-0.0567273
-0.105354
0.0833925
-0.0573603
0.0721526
-0.058309
0.0607087
-0.0594574
0.0490273
-0.06075
0.0371043
-0.061943
0.0251282
-0.0622455
0.0137547
-0.0595797
0.00447981
-0.0495937
-0.0250201
0.0999488
-0.0454508
-0.111225
0.0885209
-0.0459324
0.0768615
-0.0466496
0.0648904
-0.0474864
0.0525556
-0.0484151
0.0398892
-0.0492766
0.0271296
-0.0494859
0.0149685
-0.0474186
0.00495732
-0.0395826
-0.0200628
0.102717
-0.0336839
-0.114484
0.0908187
-0.0340343
0.078677
-0.0345079
0.0662641
-0.0350735
0.0535677
-0.0357187
0.0406279
-0.0363368
0.0276511
-0.0365091
0.0152809
-0.0350484
0.0050654
-0.0293671
-0.0149974
0.105775
-0.0217474
-0.117712
0.0936276
-0.0218867
0.0812323
-0.0221125
0.0685555
-0.0223968
0.0555712
-0.0227344
0.0422979
-0.0230634
0.028923
-0.0231342
0.0160915
-0.022217
0.00539784
-0.0186734
-0.00959955
0.107649
-0.00961313
-0.119784
0.0953173
-0.00955459
0.0827279
-0.00952307
0.0698512
-0.00952004
0.0566616
-0.00954487
0.0431759
-0.00957765
0.0295741
-0.00953242
0.0164935
-0.00913634
0.00554971
-0.00772967
-0.00404983
0.109011
0.00259759
-0.121221
0.0965649
0.00289097
0.0838477
0.00319422
0.0708304
0.00349723
0.0574901
0.00379539
0.0438448
0.00406764
0.0300726
0.00423985
0.0168076
0.00412857
0.00567619
0.00340179
0.00162635
0.10967
0.0148397
-0.121912
0.0971785
0.0153827
0.0844067
0.0159661
0.0713273
0.0165766
0.0579173
0.0172055
0.0441931
0.0177917
0.030331
0.018102
0.0169653
0.0174942
0.00573481
0.0146323
0.00736116
0.109662
-0.121899
0.0971779
0.0844114
0.0713368
0.0579315
0.0442102
0.030346
0.0169728
0.00573513
0.0138846
-0.157197
-0.0160441
0.0093916
-0.171442
0.00389621
-0.179723
-0.00174131
-0.184915
-0.00687001
-0.188072
-0.0107276
-0.188567
-0.0122708
-0.183374
-0.0103901
-0.166069
-0.00505962
-0.126748
-0.0551507
0.0369685
-0.154012
-0.0401538
0.0308335
-0.165307
0.0235026
-0.172392
0.0158983
-0.177311
0.00854895
-0.180723
0.00203465
-0.182052
-0.00268901
-0.17865
-0.0044849