/*--------------------------------*- C++ -*----------------------------------*\
  =========                 |
  \\      /  F ield         | OpenFOAM: The Open Source CFD Toolbox
   \\    /   O peration     | Website:  https://openfoam.org
    \\  /    A nd           | Version:  13
     \\/     M anipulation  |
\*---------------------------------------------------------------------------*/
FoamFile
{
    format      ascii;
    class       volVectorField;
    location    "3.55";
    object      U;
}
// * * * * * * * * * * * * * * * * * * * * * * * * * * * * * * * * * * * * * //

dimensions      [0 1 -1 0 0 0 0];

internalField   nonuniform List<vector> 
1800
(
(-0.0316763 0.0249723 1.2838e-20)
(-0.0767945 0.0424062 5.70819e-21)
(-0.100315 0.0470118 -2.12224e-20)
(-0.0988574 0.0466298 3.96764e-20)
(-0.0665958 0.0457745 1.35478e-19)
(0.00144832 0.0462689 7.05611e-20)
(0.10812 0.0492514 -3.71891e-20)
(0.250179 0.0540187 -3.99667e-20)
(0.439665 0.089818 8.76593e-20)
(0.527669 0.128863 1.04949e-19)
(-0.0462842 0.0346864 1.00374e-20)
(-0.0884094 0.0594744 -2.3688e-20)
(-0.0845805 0.0613702 2.5254e-22)
(-0.0351096 0.0503243 -5.02873e-20)
(0.0630758 0.0329756 2.1064e-20)
(0.211596 0.0129246 1.32797e-19)
(0.408561 -0.00720414 -8.22001e-20)
(0.644202 -0.0293063 4.9179e-20)
(0.926965 -0.0284266 -1.15929e-19)
(1.09165 -0.0296438 1.30061e-19)
(-0.0503138 0.033508 3.61959e-21)
(-0.073895 0.0552753 1.34142e-20)
(-0.0270208 0.0531846 -8.98544e-22)
(0.0874108 0.0363871 -9.75189e-21)
(0.267966 0.0125709 -1.19004e-19)
(0.507707 -0.0129139 2.56723e-20)
(0.791793 -0.0360578 5.48631e-20)
(1.0994 -0.0547353 -2.1197e-20)
(1.41194 -0.0644563 -1.259e-22)
(1.67788 -0.0833076 -2.56148e-21)
(-0.0447126 0.0255747 -7.17484e-21)
(-0.0310672 0.0341192 -2.2744e-20)
(0.0795207 0.0232207 -2.30524e-20)
(0.279865 0.00138037 2.25549e-20)
(0.557508 -0.0233374 1.98883e-20)
(0.888268 -0.0450265 8.81302e-21)
(1.23926 -0.0605526 -2.76793e-21)
(1.57742 -0.0689799 7.7001e-20)
(1.87872 -0.0727489 6.85549e-20)
(2.11731 -0.0755168 -2.84622e-20)
(-0.0291284 0.0149374 5.64446e-20)
(0.045478 0.00773153 5.25067e-20)
(0.244087 -0.0105703 -3.64942e-20)
(0.546987 -0.0312261 -4.49938e-20)
(0.918905 -0.0468155 -1.14107e-19)
(1.31132 -0.0542166 1.8854e-21)
(1.67736 -0.0541722 1.50532e-19)
(1.98457 -0.0496848 7.67043e-20)
(2.21658 -0.0434358 2.67069e-21)
(2.38239 -0.0444649 -7.30879e-20)
(0.000358834 0.00276244 -5.66318e-20)
(0.16338 -0.0172212 -1.14471e-20)
(0.470519 -0.0356009 1.88927e-19)
(0.875824 -0.0447091 -4.8802e-20)
(1.31192 -0.0423564 -1.27234e-19)
(1.71282 -0.0317391 2.59652e-19)
(2.03605 -0.018133 -2.82734e-19)
(2.26735 -0.00596688 -3.99035e-19)
(2.41618 0.00203523 3.41298e-19)
(2.49901 0.00490409 7.94152e-22)
(0.0472757 -0.00890474 6.41204e-20)
(0.324373 -0.033226 -1.35728e-19)
(0.746124 -0.0400378 -4.50092e-19)
(1.22814 -0.0278113 2.14238e-19)
(1.67764 -0.00457637 4.82284e-19)
(2.03447 0.0201804 -1.91571e-21)
(2.28159 0.0402078 -1.07362e-18)
(2.43274 0.0530774 3.70409e-21)
(2.51367 0.0601107 1.33269e-18)
(2.55173 0.0586908 3.70376e-19)
(0.112586 -0.0164787 6.35985e-20)
(0.520587 -0.0316192 3.35426e-19)
(1.04266 -0.0148683 3.67297e-19)
(1.55793 0.0226764 -1.16231e-19)
(1.97417 0.0623247 -4.52599e-19)
(2.26074 0.0933116 -1.73343e-19)
(2.43237 0.11288 0)
(2.52154 0.122695 5.67216e-19)
(2.56003 0.125456 -8.32697e-21)
(2.56889 0.122497 -5.4584e-19)
(0.193563 -0.0158355 5.73054e-20)
(0.734771 -0.00532268 3.40151e-19)
(1.32617 0.0434294 6.35778e-19)
(1.83264 0.103533 -6.60874e-19)
(2.19038 0.151942 -5.79923e-19)
(2.40553 0.182534 2.4071e-19)
(2.51583 0.197806 -1.16053e-18)
(2.56145 0.202533 -8.75183e-19)
(2.57176 0.201094 1.08867e-18)
(2.56355 0.19391 9.50369e-19)
(0.284317 -0.00341717 -4.78581e-20)
(0.945392 0.0487827 2.68143e-19)
(1.57028 0.132224 1.71162e-19)
(2.04039 0.208423 -1.37234e-18)
(2.33357 0.25855 4.99802e-20)
(2.48689 0.283996 2.80596e-18)
(2.55128 0.292194 -1.63397e-18)
(2.56785 0.290385 -9.69375e-19)
(2.56162 0.283198 3.4088e-19)
(2.5434 0.271955 -7.82915e-19)
(-0.0123821 0.169607 8.04033e-20)
(-0.0634971 0.367709 -8.91612e-20)
(-0.130494 0.461873 1.30404e-21)
(-0.20382 0.496065 -1.17906e-20)
(-0.275905 0.503414 3.39396e-21)
(-0.34487 0.500915 2.09659e-19)
(-0.409915 0.494493 1.13945e-19)
(-0.470711 0.485408 -3.16842e-19)
(-0.529683 0.473904 7.32261e-21)
(-0.59204 0.460596 -2.50352e-20)
(-0.0256363 0.207586 -1.27349e-20)
(-0.0745971 0.461481 -1.02255e-20)
(-0.129233 0.589871 3.63169e-20)
(-0.186503 0.640595 4.27113e-20)
(-0.242428 0.653534 -6.97006e-20)
(-0.295444 0.651238 2.10629e-19)
(-0.344581 0.642713 -2.86265e-19)
(-0.389034 0.630323 -3.58778e-19)
(-0.430105 0.614429 3.55869e-19)
(-0.472833 0.59554 -1.11216e-19)
(-0.0378226 0.208019 -3.31108e-20)
(-0.0839546 0.493535 9.02931e-21)
(-0.122764 0.658873 -8.28984e-21)
(-0.158328 0.73623 -1.94793e-19)
(-0.192154 0.762749 -6.28475e-20)
(-0.223832 0.764929 6.70508e-19)
(-0.252335 0.75613 -2.05546e-19)
(-0.276565 0.741196 -4.00039e-19)
(-0.296207 0.721354 4.79111e-19)
(-0.314343 0.697035 2.86257e-19)
(-0.0426873 0.173872 -1.86851e-20)
(-0.0858859 0.456076 -5.32903e-21)
(-0.110393 0.6523 3.26977e-21)
(-0.125212 0.765169 -1.01896e-20)
(-0.136408 0.816897 1.2293e-19)
(-0.145699 0.832121 -2.28677e-19)
(-0.152908 0.828108 -1.87386e-19)
(-0.157211 0.813774 2.21684e-19)
(-0.157399 0.792411 1.01385e-22)
(-0.151216 0.7647 9.5879e-21)
(-0.0371724 0.119307 0)
(-0.075862 0.359914 -7.65432e-21)
(-0.0909736 0.565624 7.94314e-21)
(-0.0905395 0.712689 7.1278e-20)
(-0.0822901 0.801108 2.57241e-19)
(-0.0701365 0.843819 -1.88015e-19)
(-0.0555269 0.855776 7.24662e-20)
(-0.0385222 0.848583 5.02802e-20)
(-0.0185412 0.829151 0)
(0.0103129 0.800239 1.94091e-20)
(-0.0235552 0.063118 -2.75868e-20)
(-0.054204 0.235222 6.6341e-20)
(-0.0651927 0.417561 4.62596e-20)
(-0.0588525 0.576117 -6.18675e-20)
(-0.0402779 0.694536 6.00852e-20)
(-0.0135307 0.771291 1.09618e-19)
(0.0186047 0.812433 -3.22806e-19)
(0.0547002 0.826187 -3.8203e-20)
(0.0928577 0.819446 4.15442e-19)
(0.142279 0.795192 9.92303e-21)
(-0.00803064 0.0205304 8.03293e-21)
(-0.0285751 0.121175 1.10976e-19)
(-0.0394463 0.255091 -6.32915e-20)
(-0.0364881 0.392458 -1.0719e-20)
(-0.0197767 0.512663 -4.1755e-20)
(0.00893785 0.605757 4.94423e-21)
(0.0473102 0.669653 7.40277e-20)
(0.0933505 0.706877 7.74606e-20)
(0.144088 0.721793 -1.13244e-19)
(0.20493 0.710367 -1.6987e-19)
(0.00303117 -0.00273877 2.1189e-20)
(-0.0106393 0.0434948 -4.92764e-20)
(-0.0251418 0.124686 -7.91669e-20)
(-0.0315803 0.22042 2.83361e-20)
(-0.0256798 0.314326 2.50327e-21)
(-0.00633081 0.395513 1.60338e-19)
(0.0256733 0.458535 1.79496e-19)
(0.0686685 0.502151 -3.6449e-20)
(0.122161 0.528494 -7.69434e-21)
(0.181997 0.51922 -6.30662e-20)
(0.00445772 -0.0078326 1.81062e-20)
(-0.0130136 0.00749725 -4.93767e-20)
(-0.0364144 0.0464453 9.93257e-20)
(-0.0554301 0.0980203 1.29974e-19)
(-0.0632229 0.153236 -1.14364e-19)
(-0.0568236 0.204604 2.62268e-19)
(-0.0353109 0.247392 -2.89831e-20)
(0.00134741 0.279321 -4.17818e-19)
(0.0552696 0.298486 -6.05801e-20)
(0.122779 0.283388 -1.66692e-20)
(-0.00997247 0.00544621 -1.82181e-21)
(-0.0440069 0.0136721 -1.52029e-20)
(-0.0775268 0.0267158 -1.25325e-20)
(-0.102322 0.0445581 6.1556e-20)
(-0.111344 0.0658376 1.28151e-19)
(-0.100184 0.0880368 -1.71793e-19)
(-0.065919 0.109717 -1.84205e-19)
(-0.00743639 0.129903 1.22238e-19)
(0.077088 0.147371 -1.10527e-19)
(0.179383 0.15046 -6.11188e-20)
(-0.911015 0.388344 3.30391e-19)
(-1.06458 0.244034 -1.61212e-18)
(-0.504232 -0.0610724 -5.58513e-19)
(0.0153772 -0.352425 3.54728e-19)
(0.425887 -0.528304 -9.73595e-20)
(0.653568 -0.491478 -6.33656e-20)
(0.815236 -0.416506 -2.39101e-20)
(0.924214 -0.306663 6.31796e-22)
(0.983759 -0.244111 1.57279e-20)
(1.06063 -0.152719 3.60347e-21)
(-0.710966 0.486082 5.30848e-19)
(-0.775239 0.202471 6.08642e-19)
(-0.292263 -0.220271 -4.40739e-20)
(0.195232 -0.488596 -4.19368e-19)
(0.570888 -0.616196 -5.36652e-19)
(0.770805 -0.547342 0)
(0.905485 -0.451049 -4.03531e-20)
(0.985011 -0.327969 4.43176e-21)
(1.02667 -0.25965 2.29727e-22)
(1.08087 -0.162419 -8.88435e-21)
(-0.457008 0.552425 3.8894e-20)
(-0.429012 0.167474 -3.63238e-19)
(-0.00240777 -0.344472 4.24133e-19)
(0.422274 -0.605494 1.14036e-19)
(0.739623 -0.691746 4.24676e-20)
(0.897755 -0.594688 -3.46206e-20)
(0.999484 -0.478327 0)
(1.04922 -0.343207 0)
(1.0733 -0.269676 -1.94893e-20)
(1.10315 -0.168904 0)
(-0.191261 0.588112 -4.01248e-20)
(-0.0736421 0.131627 5.1395e-19)
(0.311606 -0.437674 -1.16585e-19)
(0.67311 -0.701662 0)
(0.922733 -0.751715 4.20387e-19)
(1.03038 -0.630906 -7.73969e-20)
(1.09304 -0.497534 0)
(1.1122 -0.352596 7.15017e-20)
(1.12003 -0.274388 0)
(1.126 -0.17208 1.06338e-20)
(0.0466898 0.600693 2.2776e-19)
(0.259228 0.102118 2.15502e-19)
(0.629206 -0.507596 7.42149e-20)
(0.928325 -0.777543 0)
(1.10788 -0.79634 1.70745e-19)
(1.16355 -0.655078 1.74055e-19)
(1.1844 -0.507905 -1.83239e-20)
(1.17155 -0.356189 -2.58185e-21)
(1.16399 -0.274244 -1.64168e-20)
(1.14783 -0.172119 2.09425e-21)
(0.250975 0.594262 1.69062e-18)
(0.554716 0.0838586 3.42192e-20)
(0.934725 -0.558293 -3.63598e-20)
(1.17835 -0.833739 4.16586e-19)
(1.2867 -0.827017 -2.9025e-19)
(1.29134 -0.668144 8.30831e-20)
(1.27191 -0.509488 1.80366e-19)
(1.22657 -0.353937 -1.51279e-19)
(1.20365 -0.269656 3.10562e-22)
(1.16743 -0.169316 -2.41564e-20)
(0.405909 0.562293 3.35778e-20)
(0.809105 0.0685393 -1.1458e-19)
(1.2223 -0.592549 -9.3757e-20)
(1.41579 -0.870378 -1.18718e-20)
(1.45505 -0.844681 -2.1212e-19)
(1.40988 -0.671662 -3.56879e-20)
(1.35379 -0.503231 -7.19919e-20)
(1.27728 -0.345997 7.78269e-21)
(1.23867 -0.260898 2.08064e-20)
(1.18416 -0.163964 -6.6034e-22)
(0.462914 0.488215 -6.88586e-19)
(1.02449 0.0497504 -2.25672e-19)
(1.48859 -0.61354 0)
(1.63332 -0.887468 1.11246e-19)
(1.60882 -0.849894 1.68071e-19)
(1.51696 -0.667035 -2.27472e-20)
(1.42852 -0.490568 -2.32729e-19)
(1.32376 -0.332945 6.39842e-20)
(1.26942 -0.248238 -1.07031e-21)
(1.19791 -0.156315 -1.19031e-20)
(0.411346 0.355621 7.54025e-19)
(1.22968 0.00818728 6.38513e-19)
(1.73489 -0.623988 -8.0012e-20)
(1.82648 -0.885835 -6.75287e-20)
(1.74473 -0.84283 2.04728e-20)
(1.61136 -0.655217 -2.10612e-19)
(1.4949 -0.472963 8.45023e-20)
(1.36588 -0.315779 -1.16965e-21)
(1.29645 -0.232164 2.24749e-21)
(1.20892 -0.146616 1.71057e-20)
(0.372473 0.174453 -4.53931e-19)
(1.46182 -0.0631463 5.99625e-19)
(1.96156 -0.62987 2.03548e-19)
(1.99254 -0.870997 -1.00863e-19)
(1.86143 -0.825428 -1.45338e-19)
(1.69298 -0.637217 -1.03845e-19)
(1.5524 -0.451667 -3.79338e-20)
(1.40328 -0.295684 0)
(1.32005 -0.213423 -3.25147e-20)
(1.21762 -0.135165 2.24284e-20)
(1.09606 0.058574 -4.41583e-19)
(1.9173 -0.216055 -5.23172e-19)
(2.25614 -0.655682 3.36537e-19)
(2.18897 -0.842159 1.44556e-20)
(1.9957 -0.790226 1.90246e-20)
(1.78364 -0.604674 -8.79509e-20)
(1.61327 -0.417403 -8.17161e-20)
(1.44274 -0.264953 4.15667e-20)
(1.34452 -0.185544 -1.51956e-20)
(1.22637 -0.118731 -1.21117e-20)
(2.0028 0.0282081 -1.54987e-20)
(2.51295 -0.3258 -1.12559e-18)
(2.57619 -0.681177 -1.00075e-18)
(2.30828 -0.796243 8.01393e-20)
(2.03355 -0.702607 -4.18088e-20)
(1.79829 -0.508792 1.52961e-19)
(1.62264 -0.332174 1.62884e-19)
(1.45052 -0.200838 -2.22782e-20)
(1.35373 -0.137345 6.84163e-20)
(1.22892 -0.0924252 7.65584e-21)
(2.38498 -0.0531383 7.71466e-20)
(2.64599 -0.352735 2.13394e-20)
(2.51659 -0.606517 2.75665e-20)
(2.25802 -0.684477 1.90481e-35)
(2.0547 -0.610925 -3.89737e-20)
(1.84925 -0.441278 -5.20747e-34)
(1.66731 -0.277547 2.46533e-20)
(1.47735 -0.157042 7.02125e-34)
(1.36919 -0.0986564 -2.40525e-21)
(1.23257 -0.0683414 4.25286e-21)
(2.46501 -0.0969856 4.35077e-35)
(2.56822 -0.323597 4.52653e-19)
(2.4812 -0.544444 3.80233e-19)
(2.30151 -0.631705 0)
(2.09388 -0.553347 -1.86912e-20)
(1.8525 -0.366295 -1.04609e-19)
(1.64266 -0.197309 -1.1572e-19)
(1.44418 -0.092401 1.89747e-33)
(1.3403 -0.0489591 -3.88138e-20)
(1.21421 -0.0401012 -5.53316e-21)
(2.43895 -0.128449 5.35812e-20)
(2.49731 -0.307187 -5.20166e-21)
(2.44667 -0.501401 0)
(2.26976 -0.559633 0)
(2.04263 -0.460352 0)
(1.79664 -0.275843 0)
(1.59146 -0.122476 6.91754e-21)
(1.40069 -0.0386537 2.20648e-33)
(1.30456 -0.00936327 -3.51025e-21)
(1.1903 -0.0170582 -7.84893e-34)
(2.40343 -0.152047 7.0528e-20)
(2.43876 -0.292894 0)
(2.39525 -0.450865 0)
(2.19489 -0.488083 0)
(1.92211 -0.375791 0)
(1.65181 -0.192848 0)
(1.45293 -0.0516584 -1.41673e-20)
(1.29056 0.0130794 5.74301e-20)
(1.22097 0.0282762 -4.05109e-21)
(1.1383 0.00441447 -2.81129e-21)
(2.35963 -0.166593 0)
(2.36915 -0.276772 1.49508e-19)
(2.26799 -0.393643 1.39192e-19)
(1.96792 -0.392291 0)
(1.63144 -0.263909 -2.61159e-20)
(1.36409 -0.100301 -5.42137e-20)
(1.20654 0.00970952 -5.71831e-20)
(1.10344 0.0481797 -2.58539e-20)
(1.07965 0.0488604 1.91808e-20)
(1.04464 0.0167591 -9.43477e-21)
(2.23273 -0.164074 -6.06165e-21)
(2.16001 -0.24038 -5.02202e-21)
(1.91026 -0.293884 1.30365e-21)
(1.48932 -0.253966 -1.99538e-35)
(1.12651 -0.140653 6.90636e-21)
(0.914998 -0.0255332 -2.05653e-34)
(0.844581 0.0425985 -1.56817e-20)
(0.829805 0.0587139 -3.88604e-20)
(0.862026 0.0501869 -4.37499e-21)
(0.877851 0.019185 8.27814e-21)
(1.76992 -0.132937 3.73956e-20)
(1.5559 -0.159378 -3.61488e-20)
(1.16414 -0.141207 -2.37766e-20)
(0.737804 -0.0908397 0)
(0.47785 -0.0364395 -5.66234e-21)
(0.388334 0.00920114 -2.96137e-21)
(0.416248 0.0370414 -1.76137e-20)
(0.477355 0.0409278 3.85282e-21)
(0.547631 0.0320086 -1.17623e-20)
(0.595001 0.0124803 -7.25118e-21)
(0.659584 -0.0265807 0)
(0.449328 -0.00951098 0)
(0.242827 0.000536014 0)
(0.0913644 -0.00310481 0)
(0.0022462 -0.00458039 0)
(-0.0192399 5.58765e-05 0)
(0.0241325 0.00507544 -1.53011e-20)
(0.0874608 0.0062303 5.76275e-35)
(0.144963 0.00456422 -4.79775e-21)
(0.185374 0.00164401 -8.66198e-21)
(2.48502 0.246575 7.57055e-19)
(2.52365 0.181347 4.58312e-20)
(2.53999 0.1158 -7.31497e-20)
(2.55758 0.0672237 -2.32204e-19)
(2.55809 0.00920722 -4.10137e-20)
(2.52657 -0.0165078 -6.2107e-20)
(2.49606 -0.0716776 -1.93122e-19)
(2.27667 -0.0637479 2.20851e-20)
(2.13579 -0.10397 0)
(1.48193 -0.0443843 4.37505e-20)
(2.41098 0.206568 2.44733e-19)
(2.4187 0.162346 -2.74213e-19)
(2.48877 0.100923 -6.05907e-20)
(2.46258 0.0663487 -1.15633e-19)
(2.55201 0.0109138 9.46678e-20)
(2.47462 -0.0190329 1.62629e-19)
(2.58761 -0.0627977 -1.91208e-19)
(2.42664 -0.104765 1.23282e-20)
(2.5098 -0.114604 -4.41935e-20)
(2.21411 -0.177888 5.56885e-20)
(2.36432 0.174621 -1.09926e-19)
(2.34022 0.133018 2.5054e-19)
(2.44032 0.0895166 1.48212e-19)
(2.38674 0.0467192 -2.50339e-19)
(2.49712 0.0164267 -4.28922e-20)
(2.41993 -0.0358474 3.37844e-19)
(2.52906 -0.045073 5.4648e-20)
(2.44573 -0.11515 -5.35019e-20)
(2.52 -0.09587 -2.55751e-20)
(2.44135 -0.180601 -2.4479e-20)
(2.31619 0.142302 -2.93215e-19)
(2.30256 0.0982429 -5.6288e-20)
(2.38325 0.0735183 3.7507e-20)
(2.35467 0.0236442 -7.90861e-21)
(2.42782 0.0121361 -2.21074e-19)
(2.39672 -0.0462952 -7.43417e-20)
(2.45237 -0.0422246 1.89317e-19)
(2.43482 -0.107844 -1.17887e-20)
(2.46457 -0.0907645 3.49603e-20)
(2.46559 -0.157125 1.27812e-20)
(2.26695 0.108414 3.70367e-20)
(2.27884 0.0677908 1.32737e-19)
(2.32773 0.051389 -1.56209e-20)
(2.33294 0.0063537 1.63206e-19)
(2.36934 -0.00158043 -5.6791e-20)
(2.37516 -0.0501528 -2.11705e-19)
(2.39654 -0.0503406 3.22232e-20)
(2.4089 -0.0995269 -6.69292e-20)
(2.41711 -0.095238 -1.01477e-20)
(2.43665 -0.141893 -2.02739e-20)
(2.22171 0.0730306 -1.62546e-19)
(2.24852 0.0408484 -6.85453e-20)
(2.28014 0.0257177 -1.14536e-20)
(2.30202 -0.00831313 1.04394e-19)
(2.32374 -0.0194067 2.65761e-19)
(2.34334 -0.0542491 -6.2154e-20)
(2.35562 -0.0623515 5.60889e-21)
(2.3748 -0.0966411 -7.74592e-20)
(2.37975 -0.103183 -1.14728e-19)
(2.39963 -0.136019 -2.49973e-20)
(2.16905 0.0387249 -5.26319e-20)
(2.20048 0.0149067 -1.20938e-19)
(2.22613 0.000613917 -1.47851e-19)
(2.25367 -0.0237665 -2.62786e-19)
(2.27218 -0.0365729 7.71801e-20)
(2.29712 -0.0614972 6.68782e-20)
(2.30859 -0.0735363 -6.58785e-21)
(2.33253 -0.0989826 8.08768e-20)
(2.33712 -0.110542 -8.00826e-20)
(2.3625 -0.136501 -4.97916e-20)
(2.058 0.00714472 6.14975e-20)
(2.08919 -0.00947622 2.75681e-20)
(2.10718 -0.0206177 1.75219e-20)
(2.13823 -0.0376525 -3.69492e-20)
(2.14976 -0.0482919 -3.51476e-20)
(2.18257 -0.0664115 -5.1043e-20)
(2.18692 -0.0772383 -4.85387e-20)
(2.22379 -0.0971301 1.03511e-19)
(2.21959 -0.108443 -4.49465e-20)
(2.26358 -0.130605 1.02559e-20)
(1.74095 -0.0185053 -6.80196e-20)
(1.7579 -0.0272216 -1.25417e-20)
(1.7612 -0.0334798 1.23054e-19)
(1.78166 -0.0423668 -1.7385e-20)
(1.77902 -0.0483845 -3.51962e-20)
(1.80624 -0.0584215 7.32312e-20)
(1.79524 -0.0650189 -5.57149e-20)
(1.83245 -0.0771365 4.35882e-20)
(1.80925 -0.0852226 -1.83085e-20)
(1.86079 -0.100138 -8.70672e-20)
(0.879248 -0.0120157 5.11609e-20)
(0.868197 -0.0114976 4.34608e-20)
(0.855649 -0.0110714 4.33164e-20)
(0.847223 -0.0109451 7.16948e-20)
(0.834751 -0.011209 -3.66366e-20)
(0.830106 -0.0118325 -4.89549e-20)
(0.814584 -0.0129954 2.22034e-20)
(0.815974 -0.0150385 -2.50781e-21)
(0.788601 -0.0162322 3.73862e-21)
(0.806373 -0.0236392 -5.58156e-21)
(1.56292 0.958853 -8.48361e-20)
(1.54693 1.00473 2.63103e-20)
(1.55058 1.05835 -6.35859e-19)
(1.55924 1.11926 2.3119e-19)
(1.56567 1.18337 1.19259e-18)
(1.56119 1.24254 -1.44573e-19)
(1.52377 1.27423 -1.05551e-18)
(1.40319 1.2263 1.80332e-22)
(1.11085 1.00332 -5.1721e-19)
(0.519853 0.480916 1.16393e-19)
(1.72661 0.929238 0)
(1.71537 0.973518 7.3373e-19)
(1.71529 1.02319 1.62539e-18)
(1.72346 1.08147 -1.00328e-18)
(1.73307 1.14396 -2.34215e-18)
(1.73174 1.20094 -1.52036e-19)
(1.69211 1.22857 -1.94894e-19)
(1.55636 1.17542 7.11751e-19)
(1.22612 0.952336 1.07012e-18)
(0.568017 0.448969 4.19655e-19)
(1.8775 0.889715 6.71562e-20)
(1.87503 0.933608 0)
(1.87626 0.980214 -6.63058e-20)
(1.88508 1.03385 1.02255e-18)
(1.89667 1.09136 5.497e-20)
(1.89642 1.14269 -2.27869e-18)
(1.85192 1.16352 1.4401e-18)
(1.69798 1.10445 8.47026e-19)
(1.32828 0.884085 -9.13672e-19)
(0.606902 0.407916 -2.67239e-19)
(2.01079 0.841677 -1.86498e-19)
(2.01788 0.883479 -1.36922e-19)
(2.02421 0.926339 2.78888e-19)
(2.03575 0.974404 -3.45868e-19)
(2.04911 1.02528 -1.59772e-18)
(2.04811 1.06897 -1.24177e-18)
(1.99568 1.08124 1.2994e-18)
(1.82017 1.01422 8.60717e-19)
(1.40855 0.79827 0)
(0.631722 0.357963 0)
(2.12735 0.778568 -9.11907e-19)
(2.14285 0.817787 -1.67567e-18)
(2.15567 0.856996 -6.43372e-19)
(2.17105 0.899688 -3.29412e-20)
(2.18576 0.943661 0)
(2.18209 0.97831 1.32065e-19)
(2.11794 0.98013 1.52059e-19)
(1.91514 0.907384 1.89472e-19)
(1.46014 0.698906 -2.70548e-19)
(0.639218 0.300375 -6.7623e-20)
(2.23026 0.706076 1.08838e-18)
(2.25205 0.740972 -4.02794e-20)
(2.27032 0.775516 -1.27555e-18)
(2.2889 0.812117 0)
(2.30346 0.847914 0)
(2.29328 0.872757 0)
(2.21116 0.864478 1.4498e-18)
(1.97546 0.785568 -1.59202e-18)
(1.47797 0.58671 -1.00148e-18)
(0.626421 0.237783 1.77519e-20)
(2.31925 0.62283 -1.4091e-18)
(2.3457 0.65315 -2.95647e-18)
(2.36777 0.682977 -5.12814e-21)
(2.38771 0.713394 5.99233e-19)
(2.39892 0.741015 -3.57527e-20)
(2.37692 0.75563 1.25626e-18)
(2.27026 0.736698 -6.94613e-19)
(1.99621 0.652181 -1.81419e-18)
(1.45692 0.466546 9.45557e-20)
(0.592103 0.174262 7.44777e-20)
(2.39663 0.535526 -1.09201e-18)
(2.42431 0.560673 1.50119e-20)
(2.44736 0.585012 4.10933e-19)
(2.46561 0.608525 -3.97603e-19)
(2.46906 0.627232 6.19473e-19)
(2.42879 0.630981 1.6339e-18)
(2.28959 0.601346 -1.35332e-19)
(1.97105 0.512968 -9.43349e-19)
(1.39292 0.345221 2.11515e-19)
(0.53686 0.114429 3.87174e-20)
(2.45934 0.444994 3.96966e-19)
(2.48681 0.465673 7.694e-20)
(2.50814 0.484422 -4.05424e-19)
(2.52083 0.500741 -9.55168e-19)
(2.51058 0.510223 6.28707e-20)
(2.44362 0.503125 4.48481e-20)
(2.26253 0.463905 -1.14622e-18)
(1.89413 0.374765 4.94314e-19)
(1.28436 0.230179 1.40931e-19)
(0.463482 0.062747 -4.86215e-20)
(2.50844 0.357071 7.30669e-19)
(2.53261 0.37288 -1.08887e-18)
(2.54888 0.385571 1.59241e-19)
(2.55068 0.394387 2.14485e-18)
(2.51866 0.394586 1.03346e-18)
(2.41459 0.377349 -2.22969e-18)
(2.18179 0.330782 -2.04218e-18)
(1.76099 0.245246 8.46425e-19)
(1.13297 0.129052 -4.02966e-20)
(0.376982 0.0227953 -1.0582e-19)
(0.547914 0.393005 -1.75241e-19)
(0.507017 0.406494 -1.66319e-19)
(0.460962 0.420834 7.63763e-20)
(0.410391 0.436175 -2.4672e-19)
(0.354995 0.452376 -2.21995e-20)
(0.293928 0.468018 2.19691e-19)
(0.226209 0.477258 3.73626e-20)
(0.152296 0.463397 4.20159e-22)
(0.0793212 0.390451 1.84525e-20)
(0.0160538 0.19882 1.37633e-20)
(0.590424 0.500627 1.38324e-19)
(0.550614 0.520858 1.76977e-19)
(0.506504 0.542536 4.55599e-20)
(0.458305 0.565812 -5.31118e-20)
(0.405376 0.590428 -2.22482e-19)
(0.346599 0.614426 -1.43223e-20)
(0.28029 0.630026 6.00283e-20)
(0.20505 0.614977 3.8729e-20)
(0.124275 0.520721 -1.20599e-19)
(0.0393687 0.266552 -4.1643e-20)
(0.650809 0.600461 -1.1821e-19)
(0.612362 0.626511 -1.04438e-19)
(0.570735 0.654495 9.97254e-20)
(0.525677 0.684888 7.01286e-20)
(0.476263 0.717556 -7.82296e-20)
(0.421057 0.750082 -2.37105e-20)
(0.35731 0.772674 -1.08761e-19)
(0.280763 0.757382 -7.91855e-20)
(0.188969 0.643217 -6.8674e-20)
(0.0729128 0.32975 5.29533e-22)
(0.728757 0.696668 3.85704e-20)
(0.692225 0.729186 -5.06337e-20)
(0.653996 0.763491 -8.07303e-20)
(0.61283 0.800277 -5.58573e-20)
(0.567377 0.839551 -6.66572e-20)
(0.516018 0.878562 -5.92398e-21)
(0.454966 0.905715 -2.81846e-19)
(0.376518 0.887995 5.93496e-20)
(0.270598 0.753727 -3.21566e-19)
(0.115117 0.385768 4.90502e-20)
(0.819736 0.776148 6.3287e-21)
(0.785864 0.813654 1.38405e-20)
(0.75235 0.853506 -4.91977e-20)
(0.717063 0.896749 -2.67112e-19)
(0.677853 0.943152 1.23971e-19)
(0.632299 0.989272 4.13855e-20)
(0.574992 1.0217 4.0143e-20)
(0.493995 1.00266 -1.83066e-19)
(0.369941 0.85055 3.89138e-19)
(0.165804 0.433954 2.82803e-19)
(0.927126 0.85499 -9.07782e-20)
(0.894863 0.896951 -1.83277e-19)
(0.864627 0.940079 1.75881e-20)
(0.833724 0.986853 9.95748e-20)
(0.799962 1.03761 3.68209e-19)
(0.760388 1.0882 2.73064e-19)
(0.707435 1.12301 6.5389e-19)
(0.623914 1.09985 2.68705e-19)
(0.479894 0.929632 1.46882e-19)
(0.22173 0.471539 2.06212e-19)
(1.0405 0.907119 -1.06788e-19)
(1.01448 0.95387 6.09901e-19)
(0.992159 1.00151 4.02796e-19)
(0.968937 1.05259 -5.22959e-19)
(0.942054 1.10766 -2.62368e-19)
(0.908457 1.16252 6.81699e-19)
(0.858946 1.2 -1.06385e-19)
(0.770785 1.17397 -4.63172e-19)
(0.602344 0.988908 2.66436e-20)
(0.282608 0.497972 2.55896e-19)
(1.16076 0.96078 3.0264e-19)
(1.13486 1.00786 5.85632e-20)
(1.11734 1.05581 -7.74496e-19)
(1.10229 1.10867 1.71508e-19)
(1.08494 1.16611 5.98447e-19)
(1.06017 1.22252 -3.28038e-19)
(1.01586 1.25904 -1.04031e-19)
(0.923166 1.22687 -1.90415e-19)
(0.728649 1.02708 1.92141e-20)
(0.34448 0.512044 -2.98279e-19)
(1.29025 0.978919 1.80835e-20)
(1.27497 1.02972 -5.671e-19)
(1.26477 1.07856 -4.81429e-21)
(1.2553 1.13244 4.87729e-19)
(1.24382 1.19229 -5.07942e-19)
(1.22505 1.25136 9.93589e-19)
(1.18364 1.2884 6.66623e-19)
(1.08357 1.25193 -9.80408e-19)
(0.858945 1.04155 -7.76336e-20)
(0.406313 0.513402 -3.28599e-19)
(1.39218 0.989317 -3.43719e-19)
(1.38873 1.041 -3.24072e-19)
(1.39605 1.09148 3.00411e-19)
(1.40143 1.14594 8.00755e-19)
(1.4014 1.20499 2.8597e-19)
(1.39111 1.26223 -8.25007e-19)
(1.35298 1.29564 1.09338e-19)
(1.24423 1.25259 2.23028e-19)
(0.987229 1.03373 -2.98559e-19)
(0.465348 0.50285 -2.32208e-19)
(0.997086 0.0100339 5.7935e-22)
(1.01045 0.0402495 -1.70588e-20)
(1.02265 0.0507114 -1.28773e-20)
(1.02823 0.0744899 0)
(1.02428 0.091119 1.48096e-20)
(1.0222 0.112641 2.15991e-20)
(0.99978 0.151833 2.86418e-20)
(0.959709 0.191863 6.64945e-20)
(0.878786 0.257278 -1.04828e-19)
(0.726289 0.325411 -1.42693e-19)
(0.998169 0.00814449 3.5078e-20)
(1.00797 0.0379254 -5.50099e-20)
(1.02212 0.0483052 2.08605e-22)
(1.02608 0.0742666 -1.61412e-20)
(1.0242 0.0914863 7.55869e-21)
(1.02274 0.117196 -1.1256e-20)
(1.00166 0.160669 -6.67925e-20)
(0.968449 0.210369 0)
(0.889873 0.294129 2.18655e-19)
(0.761448 0.395712 -2.60654e-19)
(0.998802 0.00648103 -2.51744e-20)
(1.00662 0.0359424 1.51736e-20)
(1.02149 0.0456434 3.3772e-20)
(1.02569 0.0745803 8.66931e-21)
(1.02442 0.0912753 -1.85018e-20)
(1.02611 0.122437 1.19296e-21)
(1.00453 0.168709 -4.76131e-20)
(0.982181 0.229086 -6.75386e-21)
(0.904182 0.329321 2.75711e-22)
(0.811123 0.463161 6.85787e-19)
(0.999073 0.00493144 -2.81114e-20)
(1.00617 0.0343007 2.10563e-21)
(1.0209 0.0426513 2.7655e-20)
(1.02685 0.075426 1.84666e-20)
(1.02511 0.0903583 -9.35984e-21)
(1.03199 0.128422 -1.35994e-20)
(1.00852 0.175611 7.00381e-20)
(1.00073 0.248567 -2.2266e-21)
(0.921246 0.361698 -2.45275e-19)
(0.875108 0.526309 8.34047e-20)
(0.99912 0.00340623 1.94058e-20)
(1.00629 0.0329473 -2.78831e-20)
(1.02062 0.0393124 -2.22624e-20)
(1.0292 0.0766904 1.10158e-20)
(1.02665 0.0887294 0)
(1.03976 0.135062 0)
(1.01443 0.181279 6.01979e-20)
(1.02245 0.268717 9.55424e-22)
(0.943687 0.391206 -1.1367e-19)
(0.949014 0.583368 9.0382e-20)
(0.999087 0.00185914 5.43832e-21)
(1.00666 0.0317814 2.22751e-20)
(1.02096 0.0356433 -6.12347e-20)
(1.03238 0.0782026 -2.14659e-20)
(1.0294 0.0864428 -5.04028e-22)
(1.04901 0.142267 5.90873e-20)
(1.0224 0.185497 9.3717e-20)
(1.04791 0.290097 -2.86897e-22)
(0.967873 0.415587 1.87706e-19)
(1.04001 0.640615 -2.10852e-19)
(0.999086 0.000281701 -2.08064e-20)
(1.007 0.0306664 1.16871e-20)
(1.02223 0.031683 -1.69966e-20)
(1.03602 0.0797607 -4.58903e-20)
(1.03384 0.0836287 1.62336e-21)
(1.059 0.149748 -1.53954e-21)
(1.03384 0.188533 -4.72297e-21)
(1.07381 0.311921 -2.06649e-19)
(1.00296 0.435861 1.39546e-19)
(1.12476 0.68158 -5.204e-19)
(0.999171 -0.00131517 -3.51616e-21)
(1.00719 0.029442 -3.35095e-20)
(1.02465 0.0274795 3.4429e-20)
(1.03987 0.0811604 2.45434e-20)
(1.04021 0.0804603 8.55247e-22)
(1.06949 0.157061 -6.94308e-20)
(1.04858 0.190759 -5.33851e-20)
(1.10231 0.334242 3.71626e-19)
(1.03769 0.453342 1.3673e-20)
(1.24054 0.740246 8.19433e-19)
(0.99934 -0.00289877 1.40645e-20)
(1.00723 0.0279528 1.51819e-20)
(1.02822 0.0231078 4.07317e-20)
(1.04395 0.0822783 -2.70619e-20)
(1.04848 0.0769935 -7.18562e-20)
(1.08011 0.164372 9.62756e-22)
(1.06757 0.190373 -7.42597e-20)
(1.13065 0.354705 4.85233e-19)
(1.09272 0.453157 -8.50731e-21)
(1.30865 0.757288 -1.13693e-18)
(0.999584 -0.00440416 3.23137e-22)
(1.00728 0.0260433 2.35978e-20)
(1.03266 0.0189938 1.34045e-20)
(1.04868 0.0827813 -5.43864e-20)
(1.05734 0.0750989 -7.08231e-20)
(1.09041 0.171225 -5.95917e-20)
(1.08711 0.19817 -1.37708e-19)
(1.15487 0.378323 -4.40787e-19)
(1.14985 0.481396 -2.38557e-19)
(1.44494 0.827604 -1.196e-18)
(1.00015 -0.00693816 -1.00912e-21)
(1.00688 0.0232181 -5.11976e-21)
(1.03917 0.0108871 -1.565e-20)
(1.05622 0.0823871 2.99273e-20)
(1.0682 0.0655901 5.39251e-20)
(1.11081 0.175195 -3.89238e-20)
(1.10925 0.182062 1.3617e-19)
(1.19989 0.388177 -4.07068e-19)
(1.21107 0.419602 -1.8393e-19)
(1.45946 0.818506 6.25474e-19)
(1.00136 -0.0106556 7.23058e-22)
(1.00537 0.0187358 9.34486e-21)
(1.05043 -0.00228942 -1.09688e-20)
(1.06271 0.0795648 5.50359e-20)
(1.08628 0.0489007 9.3061e-20)
(1.12969 0.171916 1.15671e-19)
(1.14914 0.156063 3.13329e-20)
(1.22734 0.37363 1.95588e-19)
(1.30915 0.367867 3.0676e-19)
(1.47652 0.718781 2.66456e-20)
(1.00159 -0.014201 -1.31641e-21)
(1.00534 0.0118573 -3.7803e-21)
(1.06559 -0.0154034 3.81387e-21)
(1.06535 0.0745785 4.12432e-21)
(1.11224 0.031715 2.85696e-34)
(1.1412 0.163034 -6.66507e-21)
(1.19688 0.131041 -4.79624e-34)
(1.24237 0.348 1.77017e-20)
(1.38301 0.312241 -5.40157e-20)
(1.51573 0.627082 -5.50479e-20)
(0.998721 -0.0181745 1.46952e-20)
(1.01156 0.00157483 -4.28257e-35)
(1.07911 -0.0269981 -4.33411e-21)
(1.07013 0.0649719 -2.30424e-20)
(1.13946 0.0158381 -4.73267e-20)
(1.1539 0.149742 -3.93722e-20)
(1.23437 0.107992 -6.20067e-34)
(1.26349 0.318098 -7.5347e-20)
(1.42211 0.257072 -1.41283e-19)
(1.5553 0.534644 9.24493e-20)
(0.991764 -0.0234022 0)
(1.02742 -0.0121693 1.07755e-35)
(1.08623 -0.0363446 0)
(1.08574 0.0488678 0)
(1.16183 0.0017977 0)
(1.17551 0.130706 0)
(1.25531 0.0881607 -4.42593e-34)
(1.29571 0.280476 0)
(1.43849 0.209825 -1.91027e-20)
(1.5819 0.440468 5.4713e-20)
(0.981446 -0.0307556 2.44308e-21)
(1.05165 -0.0270822 1.29771e-21)
(1.08827 -0.0436411 -5.37172e-21)
(1.11425 0.029349 0)
(1.178 -0.0085581 0)
(1.20259 0.108503 5.92304e-21)
(1.26783 0.0722366 4.2446e-20)
(1.32874 0.237219 -1.27452e-20)
(1.45256 0.170058 -2.78577e-20)
(1.60099 0.349561 2.10817e-19)
(0.970392 -0.0449167 -8.11308e-20)
(1.08108 -0.0489503 2.21222e-21)
(1.08756 -0.0556278 -5.94856e-21)
(1.14876 0.000756245 -1.42083e-20)
(1.17663 -0.0189683 -2.90643e-20)
(1.21906 0.08178 -1.37538e-20)
(1.26438 0.0570512 -3.58534e-20)
(1.34814 0.189297 -2.88898e-20)
(1.46182 0.133324 -5.32701e-20)
(1.61762 0.26349 6.58347e-20)
(0.96239 -0.0522097 -5.4836e-21)
(1.10448 -0.058521 -1.77588e-20)
(1.0697 -0.0564974 -6.52623e-21)
(1.1525 -0.0169818 -4.92481e-21)
(1.11181 -0.0180085 -4.47744e-35)
(1.18904 0.057075 6.28556e-21)
(1.19497 0.0436765 -8.08242e-34)
(1.32826 0.137518 -1.22331e-20)
(1.41904 0.0961228 1.73626e-20)
(1.60993 0.182125 2.50049e-20)
(0.95676 -0.0932361 1.96873e-19)
(1.05877 -0.0888016 -4.97982e-21)
(0.957146 -0.0734117 -7.02211e-21)
(0.997303 -0.0350405 1.31615e-20)
(0.886382 -0.0147589 1.64113e-20)
(0.999157 0.0307944 1.48411e-20)
(0.963029 0.0292064 1.50413e-20)
(1.16156 0.0800433 -8.89457e-21)
(1.21462 0.0590979 -1.89793e-20)
(1.46166 0.10342 1.35427e-19)
(0.826244 -0.0465343 8.08006e-21)
(0.729134 -0.0336217 -9.28878e-35)
(0.53315 -0.0184764 -8.14513e-21)
(0.477025 -0.00294798 0)
(0.399011 0.000396211 0)
(0.473441 0.00915247 6.20563e-21)
(0.465357 0.0054644 -4.75574e-36)
(0.611755 0.0173578 -1.17862e-20)
(0.667481 0.00968078 -2.55152e-20)
(0.85258 0.0184874 5.3954e-20)
(1.66463 0.843994 -1.88253e-19)
(1.76494 0.825883 -2.78089e-19)
(1.88119 0.791683 0)
(1.98927 0.748817 1.55431e-19)
(2.08907 0.690219 6.57136e-19)
(2.17894 0.626149 -1.13062e-19)
(2.25814 0.551948 1.67402e-18)
(2.33227 0.476618 -8.27713e-20)
(2.39133 0.396713 -3.61071e-19)
(2.4485 0.321449 3.16856e-19)
(1.69047 0.693272 9.65808e-20)
(1.76375 0.678952 1.10492e-19)
(1.86213 0.645135 -1.40589e-20)
(1.94497 0.607789 2.15089e-19)
(2.03937 0.553588 -1.75323e-19)
(2.10532 0.503947 -4.05767e-19)
(2.18744 0.441077 -1.2319e-19)
(2.23772 0.388077 5.52594e-19)
(2.31143 0.322613 -2.11204e-20)