# Forces      
# CofR        : (0.000000e+00 0.000000e+00 0.000000e+00)
# Time        forces(pressure viscous)	moments(pressure viscous)
2.75          	((4.527744e+00 -1.080311e+00 4.340767e-19) (1.346369e+00 -3.964350e-02 5.371876e-18)) ((8.080987e-21 -1.630230e-19 1.540935e-06) (4.879481e-18 -4.081203e-18 -2.329844e-02))
