/*--------------------------------*- C++ -*----------------------------------*\
  =========                 |
  \\      /  F ield         | OpenFOAM: The Open Source CFD Toolbox
   \\    /   O peration     | Website:  https://openfoam.org
    \\  /    A nd           | Version:  13
     \\/     M anipulation  |
\*---------------------------------------------------------------------------*/
FoamFile
{
    format      ascii;
    class       volVectorField;
    location    "0.3";
    object      U;
}
// * * * * * * * * * * * * * * * * * * * * * * * * * * * * * * * * * * * * * //

dimensions      [0 1 -1 0 0 0 0];

internalField   nonuniform List<vector>
1800
(
(0.567104368402 -0.510371202586 3.14174647432e-16)
(1.29400108902 -1.11319905228 1.098696523e-17)
(1.50291166907 -1.22982089875 1.81533078404e-17)
(1.48080391926 -1.14998938097 1.6172083199e-18)
(1.4196468862 -1.03618833023 -3.02529838022e-17)
(1.37556030554 -0.940263196744 -1.11717532677e-17)
(1.35067738197 -0.866911534194 1.63962563847e-17)
(1.3367817705 -0.809479661453 9.19492153955e-18)
(1.32848740806 -0.759887341463 -3.29236657842e-18)
(1.30703436087 -0.71578641967 -2.43159988458e-18)
(0.651715420376 -0.4998120698 5.5684368007e-19)
(1.46221871196 -1.07869726382 7.39620904298e-18)
(1.68178996782 -1.18734370462 5.13853120795e-19)
(1.64659708963 -1.11110375401 -2.17497538748e-18)
(1.57109929757 -1.00313360782 3.86224031191e-18)
(1.51584308167 -0.911519840248 2.36158253509e-19)
(1.48217369915 -0.840195118942 -3.23421910679e-19)
(1.46086329189 -0.78255203477 2.76208330876e-19)
(1.44522174019 -0.731660509962 1.1859748645e-18)
(1.42340177819 -0.691434974172 -3.26587943228e-19)
(0.735560722379 -0.477327132408 2.77247271357e-19)
(1.62377138959 -1.01889424741 -3.90054086974e-19)
(1.85192854681 -1.11752535506 9.71963634394e-19)
(1.8049903252 -1.04723887493 -8.58224139462e-19)
(1.71744757718 -0.948019452376 -1.38632781423e-18)
(1.65304603977 -0.863352804191 2.31132290738e-19)
(1.61222626661 -0.796637397806 4.53420008683e-19)
(1.58488135255 -0.742050850648 -3.93171457829e-20)
(1.56403953612 -0.693940975619 -3.93146591575e-21)
(1.53926886977 -0.654591808066 -1.90287192917e-20)
(0.816832304705 -0.443045887698 -9.52499806484e-20)
(1.77460877549 -0.935125977005 -3.90968370175e-19)
(2.00888648194 -1.02214594059 -4.70265134e-19)
(1.95167868187 -0.959829818894 4.38996773966e-20)
(1.85408580552 -0.871549848412 3.75692999368e-19)
(1.78179442104 -0.795626209939 2.47604155823e-20)
(1.73412543291 -0.73507010714 -1.95181723806e-20)
(1.70027293828 -0.684959644899 4.37062757131e-19)
(1.67301594875 -0.640635813617 3.66378644568e-19)
(1.64362675884 -0.60510404732 -1.31107036318e-19)
(0.893628198698 -0.397311039465 1.71984847273e-19)
(1.91092001351 -0.829202796573 4.51602580918e-19)
(2.14888912407 -0.903382004054 -5.67459602516e-20)
(2.08344031377 -0.850669238835 -5.97515976028e-20)
(1.97857296234 -0.774916735381 -1.10152572323e-18)
(1.90051191799 -0.708974374961 8.44713310933e-21)
(1.8474752674 -0.655517873448 7.79147693215e-19)
(1.80831702143 -0.610589453604 2.45236119878e-19)
(1.77594495715 -0.57059490783 8.62169412813e-21)
(1.74357086696 -0.538696830392 -1.70676373345e-19)
(0.964039338505 -0.340864639005 -5.37114974346e-20)
(2.02938152155 -0.703928476844 1.174201875e-18)
(2.26855322369 -0.764715151994 1.62021562154e-18)
(2.19687040888 -0.723053641021 -9.50858081834e-19)
(2.08705895599 -0.661120815489 -7.97809366483e-19)
(2.00477159885 -0.60643787101 1.25385550388e-18)
(1.94727520645 -0.561437415005 -8.54908873992e-19)
(1.90337410286 -0.523206812462 -9.69459404438e-19)
(1.86629412103 -0.489154966802 6.73227991588e-19)
(1.83072134192 -0.462067115936 -1.10329607261e-20)
(1.02604454923 -0.274618116662 4.6735179759e-19)
(2.1268126413 -0.562104873549 -1.75120009354e-18)
(2.364893642 -0.609201144342 -4.41143725379e-18)
(2.28918166266 -0.5794429838 1.49307900959e-18)
(2.17687328385 -0.53183683398 2.01634797865e-18)
(2.09211167365 -0.488988114472 -5.39566139859e-21)
(2.03130196716 -0.453049126237 -2.36164755302e-18)
(1.98352484678 -0.422140260963 1.6306934928e-20)
(1.94255895508 -0.394526505701 2.09859171711e-18)
(1.90439108304 -0.372782874301 5.44820511364e-19)
(1.07787035371 -0.19997165286 -2.28676068604e-19)
(2.20093586453 -0.407354107231 9.47583491643e-19)
(2.43583915438 -0.4410002483 3.36228357433e-18)
(2.35816383311 -0.423736924082 -1.9073974638e-20)
(2.24550927344 -0.390648850163 -1.2958915633e-18)
(2.15985719538 -0.360169988583 -3.86972002891e-19)
(2.09692137629 -0.334003891386 0)
(2.04628788472 -0.311252036715 8.30484578914e-19)
(2.00235933766 -0.290907149651 -1.57503409649e-20)
(1.962118567 -0.275149793872 -6.86826729335e-19)
(1.11783146184 -0.118495097843 -2.82372556607e-20)
(2.24967457341 -0.243321030005 2.39105940622e-18)
(2.47966631533 -0.264198102418 2.81022034943e-18)
(2.40195839224 -0.259494902534 -2.11760190903e-18)
(2.29088320032 -0.240577481629 -1.36137663066e-18)
(2.20580089216 -0.222643490969 3.83575684384e-19)
(2.14190491447 -0.206618933681 -1.55669964468e-18)
(2.08940865329 -0.192537224861 -1.11578789595e-18)
(2.0434615454 -0.179955356497 1.25673534443e-18)
(2.00179732964 -0.170674229397 1.06012692365e-18)
(1.14454195631 -0.031964606793 3.50566939264e-19)
(2.27192871638 -0.0742754195727 1.49948024247e-18)
(2.49578031172 -0.0835754058884 5.05085446974e-19)
(2.41943011033 -0.0907469807411 -2.97733293118e-18)
(2.31177042539 -0.0853547068384 5.28750229176e-22)
(2.22869493812 -0.079978205665 3.64799729022e-18)
(2.16500469508 -0.0742616873208 -1.93246765115e-18)
(2.11169494579 -0.0691888275171 -1.0081562767e-18)
(2.06465861572 -0.0647204349696 3.62891740562e-19)
(2.02227096123 -0.062237864499 -7.90742410974e-19)
(0.00986824982254 -0.0972058429124 1.47483028053e-19)
(0.0783989477377 -0.218383825795 1.8682359094e-19)
(0.163254565433 -0.246877312915 -2.15112114802e-21)
(0.242874575715 -0.233381797781 -4.15224747362e-21)
(0.312186972512 -0.211982708988 -5.30924134355e-22)
(0.371463413457 -0.19424669813 1.43312761451e-20)
(0.42282899736 -0.181480519995 1.74592617496e-20)
(0.468209046128 -0.172246345483 -5.01346850294e-20)
(0.508836442186 -0.165029441273 8.26361611159e-22)
(0.545020456659 -0.159813402497 -2.29351096511e-21)
(0.0255906048861 -0.164024966321 1.15447086872e-19)
(0.1145574442 -0.375338664995 1.70749227446e-19)
(0.203982763967 -0.424627229525 -1.34543686104e-19)
(0.280353617121 -0.399049752716 -3.64203215126e-20)
(0.345263457273 -0.358830382032 -4.63859020584e-20)
(0.401042416175 -0.324837752456 -1.45724034185e-20)
(0.449892640264 -0.299638435874 -2.0234043662e-20)
(0.493460674119 -0.280800048537 -4.69962523244e-20)
(0.532653079922 -0.265655682953 3.24594653119e-20)
(0.567991862892 -0.255138716629 -1.27677406775e-20)
(0.0518481593346 -0.228476050708 3.79561964915e-20)
(0.175449026473 -0.525447132256 3.99974315778e-19)
(0.272851719534 -0.594027934703 9.26541202584e-20)
(0.344082112684 -0.556877320272 2.4963205828e-19)
(0.401772366659 -0.498883229937 2.88999046659e-20)
(0.451741958549 -0.44961192238 -9.40734425096e-20)
(0.496378534748 -0.412752777282 -4.19456132126e-20)
(0.536856436815 -0.384906897998 1.42023496952e-20)
(0.573562143259 -0.362354289548 1.51126809772e-20)
(0.607453051343 -0.346833890794 1.65123913719e-20)
(0.0883430217603 -0.289343950258 -1.00888233991e-19)
(0.259830399267 -0.665357218355 -9.73258233119e-20)
(0.368134957602 -0.751069574069 2.51219826184e-20)
(0.432339450632 -0.703097347763 -1.0006428171e-19)
(0.480139964679 -0.628840760521 5.31744422857e-20)
(0.52214165695 -0.565679170588 1.00558773793e-19)
(0.560989748911 -0.518248855372 1.07109349826e-20)
(0.597191896184 -0.482220093995 1.80764585728e-20)
(0.630439658916 -0.452983004655 1.51894697614e-20)
(0.662270418574 -0.432864016841 -1.04166253318e-21)
(0.134639202677 -0.345394222922 0)
(0.365938620054 -0.791761604474 7.71971840987e-20)
(0.487434971038 -0.891857100222 6.03789892454e-19)
(0.542778969884 -0.834081474948 -2.9633607394e-19)
(0.578271908933 -0.745547777216 -4.34830567991e-19)
(0.610380964244 -0.670287285059 1.10325754718e-19)
(0.642043352446 -0.61366102335 -5.0262464782e-21)
(0.67289496592 -0.570490020857 -7.16454359661e-20)
(0.701803705245 -0.535479572306 0)
(0.730928114902 -0.511263858622 -4.74766800166e-21)
(0.190123090317 -0.395352012836 -3.9331023194e-20)
(0.491438660272 -0.901468285575 4.30981683954e-19)
(0.627667431528 -1.01274962478 2.12495329685e-19)
(0.672444926925 -0.946478356674 1.75428819723e-19)
(0.693600386897 -0.846090435331 -1.40461584014e-19)
(0.714237331676 -0.760878421758 -1.86066192484e-19)
(0.737555364195 -0.696666340099 2.86799445871e-19)
(0.762133174604 -0.647544177173 3.9927141947e-20)
(0.785911461511 -0.607806037801 -1.31364167616e-19)
(0.811675662437 -0.580070547086 -4.13042944897e-21)
(0.253945148411 -0.437901647347 4.86539910196e-20)
(0.633407875224 -0.991504379011 5.85010011753e-19)
(0.785142115147 -1.11050751597 -8.93541220436e-21)
(0.817888991388 -1.03733513625 1.30672948272e-20)
(0.823198259118 -0.927865963499 2.50445089164e-19)
(0.831240518602 -0.835080981897 -2.7534802389e-19)
(0.845378996439 -0.76499380454 -2.5421059263e-19)
(0.86298226132 -0.711114619238 -1.89890733682e-19)
(0.880984347041 -0.667683246449 1.34506211392e-19)
(0.902896807489 -0.636936745825 1.37039602186e-19)
(0.325006761644 -0.471748931052 -1.12196610684e-19)
(0.788489773072 -1.0593057526 -2.66553788206e-19)
(0.955857588891 -1.18251568441 1.01300151066e-19)
(0.975535486677 -1.10431997849 -1.30201346335e-19)
(0.964158309978 -0.988812270956 2.68232287429e-19)
(0.959051523061 -0.890977329538 5.71715659834e-19)
(0.963604709658 -0.816735079179 3.50761462939e-19)
(0.973861438644 -0.759206740041 -2.6661169303e-19)
(0.98575976167 -0.7129025893 -1.1907502378e-19)
(1.00368444185 -0.679182402057 1.72797612759e-19)
(0.401995249659 -0.495743641825 -3.61489204249e-19)
(0.953056153829 -1.10295460034 -1.39590708601e-18)
(1.13565567585 -1.22700752913 1.32788350468e-18)
(1.14175797674 -1.14599329531 9.29648498797e-19)
(1.11363177102 -1.02781719261 -6.47895895663e-19)
(1.09552340525 -0.927826196743 6.28808871957e-19)
(1.09069591936 -0.851561867826 9.19806818671e-20)
(1.09380264924 -0.792019858904 -6.47798089205e-19)
(1.09996418374 -0.743858656044 -1.54769243513e-19)
(1.11315792027 -0.706459330726 2.113336697e-19)
(0.483311495918 -0.508886503207 -7.68651611658e-20)
(1.12299927681 -1.12120806677 -1.16891699269e-18)
(1.31964654903 -1.24302989763 -5.25332726387e-19)
(1.31177339933 -1.16154731023 7.84649364744e-19)
(1.26703609837 -1.04415378691 5.78185034546e-19)
(1.2361318014 -0.945101032356 -5.75358122025e-19)
(1.22198347065 -0.869497033063 -4.41381865702e-19)
(1.21783290399 -0.81051249784 2.51938016529e-19)
(1.21855644506 -0.761877112997 -2.52878497043e-19)
(1.22190493676 -0.720004868972 -1.58406264353e-19)
(0.656269634499 -0.130340104729 -2.82103340044e-20)
(0.822802222614 -0.102886138332 4.65518790213e-20)
(0.891935949921 -0.0804643258616 1.81971842595e-20)
(0.934367221038 -0.0630210052799 -4.09632513029e-21)
(0.958848874858 -0.048781759745 2.42315515302e-21)
(0.973316733595 -0.036882231655 6.09881935167e-21)
(0.982089910729 -0.0268296576249 3.94506494267e-21)
(0.987388325064 -0.0182599272915 -3.73151380047e-21)
(0.990424418685 -0.010487658514 1.59120561503e-21)
(0.992033816438 -0.00327590529378 3.64211308492e-21)
(0.673319334578 -0.188264188389 4.68434130096e-20)
(0.831059638672 -0.135451588618 -2.91047090899e-20)
(0.898505522229 -0.097727462279 3.62212015182e-21)
(0.939332911558 -0.0725466827473 1.04996026462e-20)
(0.962829758048 -0.0542760383883 2.39406545187e-20)
(0.97659334031 -0.0401385406587 0)
(0.984831031289 -0.0287808888335 4.27073380298e-21)
(0.989736967809 -0.0194063561845 2.96639261025e-21)
(0.992510437322 -0.0110856016134 6.1486184882e-22)
(0.993950768827 -0.00345277826714 -3.02231912552e-21)
(0.701524011499 -0.244796175697 -1.55980668388e-20)
(0.843130361364 -0.167301845421 3.00879116849e-21)
(0.907364049792 -0.114794847949 -4.69115392118e-21)
(0.945454705951 -0.0820180697958 -8.78484235316e-21)
(0.967432246425 -0.05972630959 -4.47064031979e-21)
(0.980231306048 -0.043346463272 6.92085980469e-21)
(0.98779925218 -0.0306844050013 0)
(0.992237652343 -0.0205131685737 0)
(0.994693317772 -0.01165902451 2.0610031993e-21)
(0.995956019677 -0.00362372249083 0)
(0.740319938519 -0.2990780463 -2.34568456861e-20)
(0.85913688517 -0.197870396658 -1.52499292825e-20)
(0.918408304626 -0.131459524469 8.6508324835e-21)
(0.952719543788 -0.0913444570399 0)
(0.972652013253 -0.0650843125365 -1.7583139239e-20)
(0.984223721476 -0.0464773920473 5.40157313139e-21)
(0.990977467088 -0.03252240517 0)
(0.994869890025 -0.0215694072126 -8.1512859041e-21)
(0.996994229956 -0.0122021831252 0)
(0.998042428312 -0.00378693988902 -1.00378630616e-21)
(0.788992055849 -0.350383389392 -1.31999242944e-20)
(0.879288721209 -0.226650788711 1.1695056338e-20)
(0.931504015965 -0.147525137135 -5.4574156712e-21)
(0.961103646713 -0.100441237036 0)
(0.978483348069 -0.0703052817912 -9.28401222076e-21)
(0.988563740174 -0.049503786784 -1.25319874363e-20)
(0.994360770361 -0.0342765441139 7.51340076833e-21)
(0.997633699217 -0.0225633496291 1.68881447058e-21)
(0.999369982124 -0.0127085082513 7.8222127109e-23)
(1.0001967957 -0.00394022900353 3.61287011797e-21)
(0.846677111669 -0.398064954139 -4.78397301478e-19)
(0.903936948338 -0.253426959149 -4.09173297066e-20)
(0.946543870113 -0.16282851693 2.6616308029e-21)
(0.970581911497 -0.109223083398 -1.03762134099e-20)
(0.984917083262 -0.0753464466421 1.64954933353e-20)
(0.993234778397 -0.0523984097714 -5.02350538613e-21)
(0.997935064742 -0.035928688405 -1.85415998309e-20)
(1.00050626753 -0.0234827283953 1.22904692203e-20)
(1.001814214 -0.0131710397147 -3.43051378162e-22)
(1.0024015864 -0.0040808920047 3.90337581764e-21)
(0.912054934587 -0.441090830913 -1.26457554702e-20)
(0.933557841469 -0.278467435731 2.53842740254e-20)
(0.963613927425 -0.177381310504 6.74465159822e-21)
(0.981160139034 -0.11765673572 4.12653711105e-22)
(0.99194723578 -0.0801803454004 7.30700478184e-21)
(0.99824047432 -0.0551392990788 6.03757062649e-21)
(1.0016936142 -0.0374614669215 5.7204680276e-21)
(1.00347938394 -0.0243154817147 -6.13365459864e-21)
(1.00432153243 -0.0135821509022 -2.03626373945e-21)
(1.00465325599 -0.00420576342523 -2.63482971884e-21)
(0.981849188816 -0.477338773538 1.84804678206e-19)
(0.967393225767 -0.301041339949 4.05056487445e-20)
(0.982804597618 -0.190892441763 0)
(0.992914022701 -0.125649137096 -6.04753411524e-21)
(0.999610543842 -0.0847765204251 -6.85795860433e-21)
(1.00357345847 -0.0577112363688 2.6533628206e-21)
(1.00562020759 -0.0388638132528 1.3850468465e-20)
(1.0065416237 -0.0250524640566 -3.80376460104e-21)
(1.00687516649 -0.0139358012848 1.1904172062e-22)
(1.00691936258 -0.00431226841055 1.34427588703e-21)
(1.05053985635 -0.505721613924 -2.570626498e-19)
(1.00032392623 -0.320826687702 -1.2559492082e-19)
(1.00192668227 -0.202927318637 1.22677783216e-20)
(1.00503379291 -0.132798879511 3.68898404754e-21)
(1.00763573448 -0.0888899529486 -1.86586143982e-21)
(1.00915153148 -0.059991058817 1.210457498e-20)
(1.00966872787 -0.0400785525232 -6.32695300105e-21)
(1.00966473298 -0.0256685438461 7.78020097302e-22)
(1.00944848956 -0.0142216720596 -4.73465852355e-21)
(1.00920283606 -0.00440108975944 -6.664870625e-21)
(1.11909850782 -0.52881294991 1.63440343919e-19)
(1.02665242514 -0.342936954618 -1.20035433185e-19)
(1.01566335887 -0.217577975944 -9.40569951699e-21)
(1.01425573453 -0.140940787249 8.29952085493e-21)
(1.01431449691 -0.0931591241448 9.94270373794e-21)
(1.01413863329 -0.0621168572552 5.21766381542e-21)
(1.01352649519 -0.0410785799301 -3.32822066647e-22)
(1.01271268906 -0.026107766981 0)
(1.01199300746 -0.0143976080817 4.41295896146e-21)
(1.01147993554 -0.004446601708 -3.08272854668e-22)
(1.24247546836 -0.512749331249 2.24224217898e-19)
(1.10142753231 -0.335149524335 6.65494600347e-20)
(1.05609591007 -0.216433276023 -1.89469469098e-20)
(1.03740463158 -0.141493108995 -1.69608298662e-21)
(1.02838516548 -0.093718258292 -1.19194015951e-21)
(1.02315651202 -0.0623562085387 6.53414892131e-21)
(1.01957427637 -0.0410703231561 9.90133734268e-21)
(1.01703787699 -0.0259884538302 1.48544694603e-22)
(1.0153683407 -0.0142863184334 -2.11019214506e-21)
(1.01437254636 -0.00439537889544 1.9321526282e-21)
(1.2922539799 -0.4445973466 8.43254686726e-22)
(1.14556974472 -0.304360030025 7.30637017235e-20)
(1.089896799 -0.203640454033 5.51481862833e-20)
(1.05996651277 -0.135518684971 -5.3213452054e-21)
(1.0430705877 -0.0903348054751 1.60049395729e-20)
(1.03291674375 -0.0601631599484 7.96245371493e-21)
(1.02631878861 -0.0395610091527 6.8634421653e-21)
(1.02195369198 -0.0249724770165 -3.21380700842e-22)
(1.01926320811 -0.0137035216313 2.30830675437e-21)
(1.01771799309 -0.00421051384718 4.45590235036e-21)
(1.3357071654 -0.379695278998 -7.82599284954e-20)
(1.18460518712 -0.268348377278 -6.77533715764e-21)
(1.11847544281 -0.184755325906 4.50786993789e-22)
(1.07990129454 -0.125330750201 -1.23041038651e-36)
(1.05664550567 -0.0843728228511 4.04756957823e-21)
(1.04218374397 -0.0564256591546 -2.49597482223e-35)
(1.03277435368 -0.0371301503103 -5.97164715546e-21)
(1.02668151662 -0.023419150661 -3.55627679369e-34)
(1.02298088293 -0.0128410641339 1.5045027128e-21)
(1.02089502776 -0.00394238338549 -4.38197000158e-21)
(1.36476420506 -0.317018864064 -1.35637474775e-34)
(1.21669466867 -0.232895504065 -1.38780780023e-20)
(1.14329431055 -0.164451527956 -2.02543765098e-20)
(1.09772536435 -0.113177837198 0)
(1.0690123109 -0.0767667470848 -8.74675294455e-21)
(1.05070571673 -0.0515187733825 -4.96453581127e-21)
(1.03874811444 -0.0339327749775 1.43716036361e-22)
(1.03105981498 -0.0213957334451 -5.54090980424e-34)
(1.02641585093 -0.0117290281274 7.8279533544e-22)
(1.02383092709 -0.00360145039817 4.36244196907e-21)
(1.38304797905 -0.257746491932 -3.46462622275e-20)
(1.24132540718 -0.195816856122 2.26999465137e-21)
(1.16364859613 -0.141501878321 0)
(1.11296994994 -0.0987807395767 0)
(1.07988205322 -0.0675376194045 0)
(1.05830699999 -0.0455064820443 0)
(1.04412590503 -0.0300179123662 -1.4575465168e-21)
(1.03499867237 -0.018931916724 -6.24570888611e-34)
(1.02950861123 -0.0103821983679 1.48085727431e-21)
(1.02646567204 -0.00319096528999 5.40577757173e-34)
(1.39418648334 -0.202947294067 -1.39717132096e-22)
(1.25980240234 -0.159008086743 0)
(1.17990950594 -0.1171694996 0)
(1.12562442673 -0.0828012841863 0)
(1.08908298711 -0.0570159043024 0)
(1.0648362958 -0.0385622841551 0)
(1.04877936917 -0.0254796944847 2.74478983093e-21)
(1.03841083901 -0.0160793597384 1.76456709037e-21)
(1.03219202266 -0.00882661382559 1.46729199814e-21)
(1.02875920069 -0.00271833403746 4.56216186048e-21)
(1.40062739013 -0.15236025628 0)
(1.27321828019 -0.122702725808 -4.40951747433e-21)
(1.19247882626 -0.0919211756436 -8.70880404276e-21)
(1.13572679532 -0.0656276995824 0)
(1.09656719231 -0.0454646692269 -5.21037777414e-21)
(1.07021741421 -0.0308523137423 -3.33409637935e-21)
(1.05262428235 -0.0204195036238 6.51187068003e-22)
(1.04125223345 -0.0128971079477 -1.20087235787e-21)
(1.03442616171 -0.00709280880275 2.71802836561e-21)
(1.03065705153 -0.00219219108363 4.08709544409e-21)
(1.40465377637 -0.105082747545 8.77609442385e-22)
(1.28333784263 -0.0868898411318 2.14323517078e-21)
(1.20244409902 -0.0661211091018 -2.96376508788e-23)
(1.14395197187 -0.0476340909841 5.45362104687e-36)
(1.10284401733 -0.0331679496728 -1.98398973634e-21)
(1.07484058054 -0.0225733389481 -2.93002501199e-35)
(1.05605807921 -0.0149652972373 2.63087770131e-21)
(1.04387866007 -0.00946365854459 8.20052774715e-21)
(1.03656706537 -0.00522430707004 1.33160393365e-21)
(1.03251955834 -0.00162702807669 -4.24570323988e-21)
(1.41313281781 -0.0651584379821 -5.05413660555e-22)
(1.29708766437 -0.0544863783053 4.59452644926e-21)
(1.21581835808 -0.0416089168671 5.8749501531e-21)
(1.15558955873 -0.0300956986792 0)
(1.11263284204 -0.0210215038892 3.52783632362e-21)
(1.08313258695 -0.0143393145717 2.35043508524e-21)
(1.06325047561 -0.009522691232 4.07373307944e-21)
(1.05033312418 -0.00603242931568 9.21143413252e-22)
(1.04256422548 -0.00335413843739 4.09088129837e-22)
(1.03821361443 -0.00106198903829 4.37418149794e-21)
(1.37107009808 -0.0144845723334 0)
(1.2563510068 -0.0126006690798 0)
(1.17456988465 -0.00961669893603 0)
(1.1141540576 -0.00694098843066 0)
(1.07099614349 -0.00485900666786 0)
(1.04120420524 -0.00332451902069 0)
(1.02108003741 -0.00221533632866 2.55177205705e-21)
(1.0079338717 -0.00140933740553 -1.19756542937e-35)
(0.999997347354 -0.000792697254665 1.41656196999e-21)
(0.99539155881 -0.00025726805838 4.18829001093e-21)
(1.95046451017 -0.0551269902805 7.40127897155e-19)
(1.93335964776 -0.147829873057 4.89166276029e-20)
(1.89995618941 -0.237307454172 -9.22110756966e-20)
(1.85170345556 -0.321297072559 -2.93894081524e-19)
(1.78892018021 -0.399199749271 -8.27255154634e-20)
(1.71676775889 -0.466015336493 -1.3385242005e-19)
(1.62984574992 -0.527993544625 -3.6063787021e-19)
(1.54216785243 -0.573943342595 9.91284140457e-20)
(1.44916689596 -0.602875302048 0)
(1.32333688954 -0.664470605654 4.58868494288e-20)
(1.87065567454 -0.0409158151038 2.32267651601e-19)
(1.85729773082 -0.111161711545 -2.69951480186e-19)
(1.83161340338 -0.179816227002 -4.54343416995e-20)
(1.79661297933 -0.244317818781 -1.18747353587e-19)
(1.74853774796 -0.307222895718 6.19945657156e-20)
(1.69675199906 -0.357875253133 1.31000635622e-19)
(1.6310911457 -0.412681334523 -7.76527055249e-20)
(1.56335986504 -0.45123236372 4.09512361192e-20)
(1.50262925516 -0.471031930444 -5.87603829745e-20)
(1.40228125566 -0.535273823508 2.5241257524e-20)
(1.80659879208 -0.0317153752443 -9.76190787423e-20)
(1.79615341908 -0.0870668847679 2.23120546412e-19)
(1.77541846526 -0.141349300447 1.44634372206e-19)
(1.74795798186 -0.191974096379 -2.22537654845e-19)
(1.70918726643 -0.243360747734 3.34506085229e-21)
(1.66832024033 -0.283053275679 2.26126654398e-19)
(1.61695465231 -0.330517491748 8.722140099e-21)
(1.56173757312 -0.363218714058 1.13295145064e-21)
(1.51289362915 -0.381265882023 1.75744522074e-20)
(1.43913624086 -0.438821243284 2.59663238126e-20)
(1.75621617771 -0.0239620669782 -2.54150475661e-19)
(1.74747586111 -0.0669924113811 -4.29231711418e-20)
(1.73027478073 -0.109616609087 1.26204042228e-20)
(1.7075668521 -0.14929396062 -1.78260927287e-20)
(1.67582191638 -0.190454611359 -1.28964950845e-19)
(1.64184816558 -0.221871643153 -7.09697520032e-20)
(1.60050367751 -0.260896819328 1.24806466463e-19)
(1.55528676263 -0.287668158571 4.72135647577e-21)
(1.51412376083 -0.304244787416 1.07189500015e-20)
(1.45943324866 -0.350623164127 9.60533474834e-21)
(1.71667375922 -0.0179139845197 2.51418485642e-20)
(1.70918630934 -0.0510550931282 1.0871139048e-19)
(1.69458872836 -0.0840046432088 -1.44710062016e-20)
(1.67501189124 -0.114731766311 1.36858852706e-19)
(1.64838286817 -0.146856363081 -3.21959234803e-20)
(1.61911487802 -0.171669198713 -1.49854569502e-19)
(1.58458334024 -0.202525350796 2.21335315866e-20)
(1.54703086794 -0.223920870632 -5.95585083504e-20)
(1.51087877718 -0.238718067452 3.38574955899e-20)
(1.46860791355 -0.274688748739 1.92044216369e-20)
(1.68626683127 -0.0126195853668 -1.33188596593e-19)
(1.67955120102 -0.0375791814705 -5.0757016222e-20)
(1.66680024495 -0.062487099186 -1.12455657966e-20)
(1.64930358293 -0.0858635820097 7.42070288292e-20)
(1.62621492942 -0.110304786529 1.68585395896e-19)
(1.60024977744 -0.129676313903 -4.05837279025e-20)
(1.57018702881 -0.153381974484 3.41614187684e-21)
(1.53807723482 -0.170241244872 -2.11396936622e-20)
(1.5053775974 -0.182941207696 -2.20301753178e-20)
(1.4713342444 -0.209933656461 -2.27611192046e-20)
(1.66390701699 -0.00810131358113 -3.74044455055e-20)
(1.6576681371 -0.0260448261393 -8.97365349662e-20)
(1.64608400804 -0.0440544220627 -1.13612906579e-19)
(1.62996433689 -0.0611218975218 -1.81007311065e-19)
(1.60916624537 -0.0789458269136 5.09252138279e-20)
(1.58539373089 -0.0934832735737 3.72901048334e-20)
(1.55819337549 -0.110966802137 -3.60843767267e-22)
(1.52978899536 -0.123828117244 3.19167166486e-20)
(1.4994119469 -0.13414394529 -3.39462307418e-20)
(1.47071876184 -0.153829813584 -1.57401060602e-20)
(1.65172039756 -0.0044295031245 5.16528341759e-20)
(1.64553991187 -0.0161938310235 1.10703702546e-20)
(1.63436076805 -0.0279747997972 1.10186543524e-20)
(1.61870305938 -0.0393258343534 -2.20776640484e-20)
(1.59885100682 -0.0513136682323 -1.94036592084e-20)
(1.575994546 -0.0613218789306 -3.66398602142e-20)
(1.54994598357 -0.0733244758474 -2.26236203915e-20)
(1.52347893679 -0.0822135086964 4.18913862594e-20)
(1.49417021591 -0.0900501335603 -1.49313838038e-20)
(1.46831078896 -0.103456325332 1.46154452963e-21)
(1.65952137674 0.000108858472582 -6.36679537516e-20)
(1.65506965924 -0.00571553257353 -1.67649020922e-20)
(1.64525772684 -0.0117797065664 1.02205959183e-19)
(1.63025398641 -0.0178666519666 -2.14314610299e-20)
(1.6107066797 -0.0247437158846 -2.2857848586e-20)
(1.58744152416 -0.0307524485463 3.75414179787e-20)
(1.56081088831 -0.0384682998614 -2.54139876181e-20)
(1.53275826606 -0.0447368944733 1.7860249975e-20)
(1.50253161106 -0.0500879656681 -1.58640438011e-20)
(1.47362677914 -0.0608524710763 -3.4222371235e-20)
(1.49560123776 0.000892862472549 4.84741937472e-20)
(1.49574547365 0.000981496094661 4.08442938051e-20)
(1.49425306483 0.000892467324353 3.95811935227e-20)
(1.49102078734 0.000636651763531 6.261309184e-20)
(1.4858906597 2.20863655362e-05 -2.60108310434e-20)
(1.47833772306 -0.000745479725178 -4.21207641134e-20)
(1.46847027754 -0.00232502067602 1.45424117047e-20)
(1.45635636969 -0.00379204639556 2.61798586245e-21)
(1.43958020616 -0.00482295725294 -4.15295632341e-21)
(1.42906890058 -0.0106138627749 4.01903568418e-21)
(1.34390425702 0.696973407061 -4.64615400613e-20)
(1.34482657919 0.744946247072 2.69651943993e-20)
(1.35117910342 0.796381177413 -3.37225504377e-19)
(1.35655236114 0.852202213544 2.33441451509e-19)
(1.3627192397 0.912360052755 6.32499478278e-19)
(1.37217784057 0.979025219608 -1.48158301398e-19)
(1.38587993913 1.05638426723 -7.58266513619e-19)
(1.38462873088 1.13233049444 -5.05021258697e-20)
(1.25688238129 1.09246714708 -5.76184612516e-19)
(0.674386489426 0.628296589957 3.51111379752e-20)
(1.46634286218 0.686204763222 0)
(1.47635451971 0.728836837091 4.70266109733e-19)
(1.48758713942 0.776990759162 1.01959297037e-18)
(1.49911385927 0.830187839637 -5.85550833176e-19)
(1.51240587315 0.888018606622 -1.43358981586e-18)
(1.52990368128 0.952808682076 -1.39482255036e-19)
(1.55335236884 1.02880445587 -1.7959735719e-19)
(1.56110428599 1.10397393237 6.85301260583e-19)
(1.42392657923 1.06367610873 1.32350784302e-18)
(0.765274731628 0.609633343158 5.47100259382e-19)
(1.56933534812 0.662833037278 6.32127561584e-20)
(1.58672771474 0.700554158596 0)
(1.60630134468 0.74449980635 -6.7473189397e-20)
(1.62775004909 0.793470720732 6.14312009678e-19)
(1.65122773981 0.84722942171 5.2638197846e-20)
(1.67918785093 0.908077846256 -1.64688805333e-18)
(1.7140792484 0.980241341616 1.10657455012e-18)
(1.73154657494 1.05199025287 8.23808655836e-19)
(1.58476158964 1.01081944975 -1.21775183187e-18)
(0.851403729008 0.576625497371 -3.08531568727e-19)
(1.66288841843 0.612223567134 -9.2155622917e-20)
(1.68627567272 0.646953534095 -7.6595275318e-20)
(1.71381088458 0.687709018544 1.96469822088e-19)
(1.74460530018 0.732995359499 -2.4707040205e-19)
(1.77816152552 0.782697929113 -1.22125732264e-18)
(1.81713989335 0.839066142144 -9.50927200841e-19)
(1.86426725588 0.906444615185 1.1352017222e-18)
(1.89191094109 0.973819625832 8.68256248703e-19)
(1.73536738253 0.933019311852 0)
(0.930094435799 0.529507157934 0)
(1.75325510542 0.539152240395 -7.30755288689e-19)
(1.78167330884 0.571852315781 -1.19087988861e-18)
(1.81518928736 0.609555646203 -4.86219846176e-19)
(1.85285105436 0.650835917091 -3.59072529838e-20)
(1.89446431319 0.695828448531 0)
(1.94314847277 0.74684536431 1.48745481704e-19)
(2.00186539363 0.808424467513 1.76125535521e-19)
(2.03927473345 0.870935866634 2.2819636619e-19)
(1.87287257193 0.832183079209 -3.53369464144e-19)
(1.00002383011 0.469956054725 -9.2162722741e-20)
(1.8377501551 0.453315805616 8.39035370153e-19)
(1.8702815759 0.482984414832 -4.99449236892e-20)
(1.90812646257 0.516297781595 -9.95655334329e-19)
(1.95069137834 0.552227256874 0)
(1.99842424118 0.591210919857 0)
(2.05520995507 0.63556747332 0)
(2.12441065841 0.68998879072 1.48657907508e-18)
(2.17075624984 0.746895328067 -2.03657579508e-18)
(1.99542928789 0.711258736857 -1.84380375694e-18)
(1.05920445132 0.39908122342 1.93174529759e-19)
(1.91027898401 0.35982747426 -1.14028696157e-18)
(1.94626759912 0.384738291907 -2.36586098043e-18)
(1.98754914205 0.412012043026 -4.0812380536e-21)
(2.03387752144 0.441134892454 4.69854161823e-19)
(2.08647016236 0.472751596891 -4.45716911326e-20)
(2.15020812679 0.509239917043 1.16643110956e-18)
(2.22886764996 0.55493599687 -7.1886059376e-19)
(2.28398631463 0.603623627121 -2.67877338251e-18)
(2.09984953294 0.574108138514 1.59106126781e-19)
(1.1051131066 0.321029291703 1.40852754503e-19)
(1.96657666063 0.260218597317 -9.38030119894e-19)
(2.00538884892 0.279075987399 2.11683209901e-20)
(2.04938985071 0.299146431228 3.63145528364e-19)
(2.09870742159 0.32047999702 -3.4612599033e-19)
(2.15536107818 0.343657456804 5.30846578487e-19)
(2.22508044801 0.370999030245 1.64657567001e-18)
(2.31268083034 0.407224432518 -2.52080413542e-19)
(2.37621720493 0.44464377729 -1.6152793311e-18)
(2.18103715542 0.421413022793 5.31259369715e-19)
(1.13726205196 0.236578940478 1.3279652668e-19)
(2.00461659727 0.155632493408 3.39289988362e-19)
(2.04543585143 0.167573428858 1.00677635911e-19)
(2.09143223643 0.179704930727 -3.98479649104e-19)
(2.14299534062 0.192508485253 -8.61147062835e-19)
(2.20299779849 0.206934354369 1.12759275034e-19)
(2.278219165 0.22367016927 1.24373190928e-19)
(2.37354853069 0.245864007311 -1.75856842841e-18)
(2.44409268759 0.274663944997 9.6822503748e-19)
(2.23694432995 0.261524188598 4.22813998811e-19)
(1.1544462375 0.147874333052 -2.94135183953e-19)
(2.02332601752 0.04768434049 6.91761067723e-19)
(2.06538528078 0.0522942377621 -1.03738605375e-18)
(2.11243444532 0.0560778108686 1.97788076615e-19)