# Selection   : all
# Cells       : 440
# Volume      : 7.374263e+01
# Time        	min(p)
9.115         	-1.693860e+00
9.16          	-1.661856e+00
9.21          	-1.619954e+00
