# Selection   : all
# Cells       : 440
# Volume      : 7.374263e+01
# Time        	maxMag(U)
3             	2.809905e+00
3.05          	2.815052e+00
3.1           	2.819307e+00
