/*--------------------------------*- C++ -*----------------------------------*\
  =========                 |
  \\      /  F ield         | OpenFOAM: The Open Source CFD Toolbox
   \\    /   O peration     | Website:  https://openfoam.org
    \\  /    A nd           | Version:  13
     \\/     M anipulation  |
\*---------------------------------------------------------------------------*/
FoamFile
{
    format      ascii;
    class       volVectorField;
    location    "0.0825";
    object      U;
}
// * * * * * * * * * * * * * * * * * * * * * * * * * * * * * * * * * * * * * //

dimensions      [0 1 -1 0 0 0 0];

internalField   nonuniform List<vector> 
1800
(
(0.6273 -0.552776 1.07946e-19)
(1.20868 -1.03753 4.60873e-20)
(1.36503 -1.10508 -7.95527e-19)
(1.38847 -1.06076 5.56334e-19)
(1.3855 -0.996285 1.09717e-18)
(1.37841 -0.933401 4.3635e-19)
(1.37098 -0.8757 -2.19177e-19)
(1.36368 -0.823238 -5.92335e-19)
(1.35725 -0.773888 -2.99948e-19)
(1.33649 -0.728236 -2.37504e-19)
(0.719933 -0.540641 -4.31137e-20)
(1.37181 -1.01147 -1.26313e-18)
(1.53684 -1.07324 7.61513e-21)
(1.55246 -1.02899 -3.95022e-19)
(1.53953 -0.965616 7.70497e-20)
(1.52306 -0.903818 1.03834e-18)
(1.50714 -0.846919 -7.66024e-19)
(1.4923 -0.794671 3.80952e-19)
(1.47854 -0.745462 6.34014e-19)
(1.45669 -0.704725 -3.18464e-19)
(0.81173 -0.515601 1.03762e-19)
(1.53113 -0.961746 3.58603e-19)
(1.7034 -1.0161 6.44279e-19)
(1.71112 -0.973167 -3.30838e-19)
(1.68857 -0.912544 -1.32089e-18)
(1.66317 -0.853495 2.85718e-19)
(1.63921 -0.799126 4.94941e-19)
(1.61715 -0.749216 -3.94492e-20)
(1.59687 -0.702574 -4.18098e-21)
(1.57062 -0.66345 -1.76589e-20)
(0.900715 -0.477811 -1.1345e-19)
(1.68286 -0.889061 -3.88232e-19)
(1.86056 -0.934721 -4.11287e-19)
(1.86037 -0.894482 4.00545e-20)
(1.82871 -0.838222 3.63658e-19)
(1.79491 -0.783479 2.32925e-20)
(1.76342 -0.733097 -2.02767e-20)
(1.7346 -0.686828 4.58212e-19)
(1.7081 -0.643699 3.86615e-19)
(1.67796 -0.608176 -1.41137e-19)
(0.9848 -0.427668 1.86601e-19)
(1.82316 -0.794634 4.46388e-19)
(2.00421 -0.830674 -5.07655e-20)
(1.99634 -0.794593 -5.26768e-20)
(1.95627 -0.744226 -1.06517e-18)
(1.91482 -0.695242 8.36862e-21)
(1.87647 -0.650192 8.11455e-19)
(1.8415 -0.608816 2.49884e-19)
(1.80941 -0.570414 5.94869e-21)
(1.77584 -0.539063 -1.80398e-19)
(1.06183 -0.365878 -4.95987e-20)
(1.94831 -0.680277 1.1851e-18)
(2.13048 -0.706196 1.43257e-18)
(2.1154 -0.67578 -8.77974e-19)
(2.06787 -0.632682 -7.73427e-19)
(2.0197 -0.590775 1.27096e-18)
(1.97535 -0.552263 -8.76145e-19)
(1.935 -0.516893 -1.00996e-18)
(1.89808 -0.484198 6.94607e-19)
(1.86151 -0.45776 -7.7149e-21)
(1.12964 -0.293502 5.58752e-19)
(2.05481 -0.548383 -1.75719e-18)
(2.23584 -0.564122 -3.93545e-18)
(2.21436 -0.540846 1.38626e-18)
(2.16051 -0.506137 1.96284e-18)
(2.10674 -0.472443 -5.41428e-21)
(2.05742 -0.441501 -2.41567e-18)
(2.01261 -0.413083 2.16635e-20)
(1.97173 -0.38692 2.15974e-18)
(1.9327 -0.36602 5.58623e-19)
(1.1862 -0.212008 -2.81103e-19)
(2.13954 -0.401909 9.33671e-19)
(2.31732 -0.40787 3.03652e-18)
(2.29058 -0.393114 -1.88276e-21)
(2.23172 -0.36755 -1.26603e-18)
(2.17362 -0.343024 -3.91796e-19)
(2.12048 -0.320495 0)
(2.07227 -0.299797 8.48565e-19)
(2.0284 -0.280826 -2.15859e-20)
(1.9875 -0.266008 -7.05665e-19)
(1.22973 -0.123178 -3.30725e-20)
(2.1998 -0.244241 2.41265e-18)
(2.37267 -0.241386 2.54353e-18)
(2.34205 -0.236304 -2.0076e-18)
(2.27952 -0.220167 -1.3489e-18)
(2.21847 -0.205591 3.83784e-19)
(2.1628 -0.192111 -1.56814e-18)
(2.11234 -0.179703 -1.1426e-18)
(2.06651 -0.168393 1.27427e-18)
(2.02442 -0.160052 1.07446e-18)
(1.25885 -0.0289387 4.08085e-19)
(2.23354 -0.079296 1.5221e-18)
(2.40075 -0.0691812 4.57718e-19)
(2.36724 -0.0742004 -2.82573e-18)
(2.30252 -0.0673701 -1.028e-20)
(2.24005 -0.0634666 3.64026e-18)
(2.1832 -0.0594471 -1.95406e-18)
(2.13168 -0.0556787 -1.00629e-18)
(2.08493 -0.0522982 3.7066e-19)
(2.04236 -0.0506173 -8.03201e-19)
(0.0129171 -0.104279 1.32631e-19)
(0.0814509 -0.197648 1.80642e-19)
(0.153492 -0.216435 -2.33885e-21)
(0.223696 -0.212695 -3.5908e-21)
(0.288025 -0.204508 -1.34791e-21)
(0.345974 -0.19614 -2.73558e-20)
(0.398241 -0.188343 3.61572e-21)
(0.445459 -0.181175 -1.21763e-20)
(0.488335 -0.174544 6.82058e-22)
(0.525083 -0.169315 -1.57014e-21)
(0.0305176 -0.178494 1.07995e-19)
(0.114242 -0.340762 1.64639e-19)
(0.189018 -0.371153 -1.38481e-19)
(0.258011 -0.361347 -4.33972e-20)
(0.320461 -0.34376 -4.47915e-20)
(0.376573 -0.326074 -5.43235e-20)
(0.427166 -0.309629 2.19508e-20)
(0.472883 -0.294512 -7.46285e-21)
(0.514364 -0.280537 -1.13925e-21)
(0.550205 -0.270152 -5.12685e-21)
(0.0599743 -0.249822 3.82046e-20)
(0.169567 -0.477917 3.89515e-19)
(0.249111 -0.519172 9.11418e-20)
(0.31612 -0.503483 2.68322e-19)
(0.375426 -0.476885 3.88728e-20)
(0.428446 -0.450299 -2.04296e-19)
(0.476206 -0.425611 -1.66261e-20)
(0.519364 -0.402926 6.41066e-20)
(0.558451 -0.382003 -3.07289e-20)
(0.592775 -0.366707 -4.39839e-21)
(0.10082 -0.316816 -9.67656e-20)
(0.246349 -0.60614 -9.61176e-20)
(0.332528 -0.657153 2.38557e-20)
(0.396744 -0.635853 -9.67046e-20)
(0.451659 -0.600816 3.50098e-20)
(0.500368 -0.565936 1.3849e-19)
(0.544172 -0.533585 3.94775e-20)
(0.583748 -0.50388 -1.09121e-20)
(0.619495 -0.476574 1.46659e-20)
(0.651689 -0.456702 -1.77512e-21)
(0.15242 -0.378067 0)
(0.343097 -0.722535 7.29713e-20)
(0.43752 -0.781853 5.57137e-19)
(0.498115 -0.755318 -2.83294e-19)
(0.54743 -0.712601 -4.6047e-19)
(0.590664 -0.670217 1.48066e-19)
(0.629444 -0.630958 -2.06795e-20)
(0.664469 -0.594946 -7.07082e-20)
(0.69599 -0.561988 0)
(0.725424 -0.537952 -6.18328e-21)
(0.213959 -0.432195 -4.9375e-20)
(0.457898 -0.824339 4.29037e-19)
(0.561832 -0.89021 1.8779e-19)
(0.617972 -0.858923 1.7101e-19)
(0.660553 -0.809464 -1.37758e-19)
(0.697231 -0.760542 -2.21513e-19)
(0.729999 -0.715292 3.72701e-19)
(0.759566 -0.673832 3.86388e-20)
(0.786043 -0.636097 -2.1248e-19)
(0.812037 -0.608354 -4.91053e-21)
(0.28441 -0.477854 5.45746e-20)
(0.588407 -0.908992 5.87806e-19)
(0.702723 -0.979437 3.59517e-21)
(0.753601 -0.943989 1.37338e-20)
(0.788426 -0.888883 2.47574e-19)
(0.817589 -0.834535 -3.0757e-19)
(0.843462 -0.784338 -2.96543e-19)
(0.866755 -0.738398 -2.48057e-19)
(0.887444 -0.696855 1.76693e-19)
(0.909239 -0.665845 1.88946e-19)
(0.362518 -0.513774 -1.07437e-19)
(0.731883 -0.974239 -2.71124e-19)
(0.857038 -1.04714 1.12e-19)
(0.901912 -1.00821 -1.25709e-19)
(0.928115 -0.948671 2.6211e-19)
(0.948962 -0.890108 6.17546e-19)
(0.967206 -0.836078 4.19767e-19)
(0.983543 -0.78667 -3.10243e-19)
(0.997815 -0.742282 -1.45839e-19)
(1.01455 -0.708274 2.072e-19)
(0.446815 -0.538817 -3.84604e-19)
(0.885293 -1.01824 -1.3883e-18)
(1.02135 -1.09143 1.15869e-18)
(1.05959 -1.0498 8.29008e-19)
(1.07651 -0.987151 -6.28993e-19)
(1.08847 -0.925673 6.72118e-19)
(1.09859 -0.86899 8.79737e-20)
(1.10752 -0.817188 -7.64698e-19)
(1.11502 -0.770818 -1.80696e-19)
(1.12547 -0.733497 2.32562e-19)
(0.535664 -0.552046 -1.03844e-19)
(1.04537 -1.03964 -1.15845e-18)
(1.19197 -1.11103 -4.73438e-19)
(1.22305 -1.06758 7.13978e-19)
(1.23022 -1.00328 5.60135e-19)
(1.23291 -0.940346 -6.00025e-19)
(1.23463 -0.882419 -4.86e-19)
(1.23596 -0.829629 2.83832e-19)
(1.23695 -0.781904 -2.79058e-19)
(1.23792 -0.739945 -1.83205e-19)
(0.646874 -0.137674 -3.29342e-20)
(0.818764 -0.106752 6.27491e-20)
(0.891567 -0.0837291 1.99413e-20)
(0.935267 -0.0656877 -8.17549e-21)
(0.960549 -0.0509028 4.4148e-21)
(0.975506 -0.0385765 7.87602e-21)
(0.984584 -0.0282243 5.71738e-21)
(0.990115 -0.0194151 -3.52796e-21)
(0.993318 -0.0117728 3.88884e-24)
(0.995179 -0.00410912 3.46793e-21)
(0.664034 -0.199647 3.78938e-20)
(0.827659 -0.139991 -3.41409e-20)
(0.898308 -0.101504 3.13209e-21)
(0.940407 -0.0755479 1.39291e-20)
(0.964676 -0.0565995 3.15745e-20)
(0.978891 -0.0419598 0)
(0.987399 -0.030259 6.01834e-21)
(0.992506 -0.0206197 2.4945e-21)
(0.995421 -0.0124301 5.89618e-22)
(0.997077 -0.00432449 -2.65705e-21)
(0.692395 -0.259858 -1.77685e-20)
(0.840695 -0.172543 7.46113e-21)
(0.90737 -0.119101 -8.8308e-21)
(0.946735 -0.0853512 -7.98483e-21)
(0.969446 -0.0622455 -4.24407e-21)
(0.98265 -0.0452867 6.51091e-21)
(0.990445 -0.0322378 0)
(0.995048 -0.0217771 0)
(0.997634 -0.0130545 2.76645e-21)
(0.999062 -0.00452823 0)
(0.731561 -0.317243 -2.13061e-20)
(0.857917 -0.203915 -2.3753e-20)
(0.918671 -0.136323 7.64396e-21)
(0.95424 -0.0950062 0)
(0.974857 -0.0677903 -2.45223e-20)
(0.986775 -0.0485265 6.81354e-21)
(0.993711 -0.0341415 0)
(0.997732 -0.0228754 -1.0024e-20)
(0.999946 -0.0136392 0)
(1.00113 -0.00471802 -1.21175e-21)
(0.780964 -0.370801 -1.81659e-20)
(0.879409 -0.2337 2.93111e-21)
(0.93211 -0.152991 -4.83967e-21)
(0.962906 -0.104428 0)
(0.980901 -0.0731868 -1.13745e-20)
(0.991261 -0.0516498 -1.53896e-20)
(0.997189 -0.0359508 7.20491e-21)
(1.00054 -0.023902 1.66537e-21)
(1.00234 -0.014177 5.18082e-22)
(1.00325 -0.00489122 3.48579e-21)
(0.839785 -0.419482 -4.56344e-19)
(0.905281 -0.261715 -2.64244e-20)
(0.947599 -0.168972 2.35946e-21)
(0.972706 -0.113541 -1.73914e-20)
(0.987569 -0.078392 1.98099e-20)
(0.996095 -0.0546282 -6.54117e-21)
(1.00087 -0.0376462 -2.156e-20)
(1.00347 -0.024844 1.54022e-20)
(1.00481 -0.0146599 -3.39691e-22)
(1.00544 -0.00504485 4.23532e-21)
(0.906845 -0.462021 5.85371e-22)
(0.935577 -0.288125 1.91418e-20)
(0.965111 -0.184234 5.93797e-21)
(0.983617 -0.122299 6.05051e-22)
(0.994849 -0.0833717 1.25159e-20)
(1.00127 -0.0574364 5.70326e-21)
(1.00473 -0.0392092 6.97664e-21)
(1.0065 -0.0256885 -5.98234e-21)
(1.00734 -0.01508 -2.4404e-21)
(1.00766 -0.00517563 -2.55935e-21)
(0.980302 -0.497327 1.6912e-19)
(0.969801 -0.312336 3.19736e-20)
(0.984612 -0.198607 0)
(0.995606 -0.130634 -6.34596e-21)
(1.00272 -0.0880901 -1.09414e-20)
(1.00676 -0.0600524 2.72341e-21)
(1.00876 -0.0406242 1.80277e-20)
(1.00962 -0.0264241 -4.95151e-21)
(1.00991 -0.0154301 1.37724e-22)
(1.0099 -0.0052805 1.51601e-21)
(1.05614 -0.524815 -2.43728e-19)
(1.0058 -0.333197 -1.02641e-19)
(1.00503 -0.211683 5.7849e-21)
(1.00822 -0.138286 3.89683e-21)
(1.01099 -0.0923981 -1.65247e-21)
(1.01248 -0.0623994 1.57984e-20)
(1.01292 -0.0418541 -7.60419e-21)
(1.0128 -0.027033 7.61495e-22)
(1.0125 -0.0157017 -4.6293e-21)
(1.01215 -0.00536077 -6.79711e-21)
(1.12984 -0.546482 1.5651e-19)
(1.03749 -0.355054 -9.43196e-20)
(1.02205 -0.226152 -2.38169e-21)
(1.01896 -0.146468 1.53762e-20)
(1.01835 -0.0967143 1.46306e-20)
(1.01782 -0.0645509 7.5998e-21)
(1.01693 -0.0428597 5.53882e-22)
(1.01593 -0.0274613 0)
(1.01508 -0.0158581 4.85974e-21)
(1.0144 -0.00539369 -6.73524e-22)
(1.25897 -0.527528 1.97494e-19)
(1.11408 -0.348621 3.75846e-20)
(1.06475 -0.225688 -4.12933e-21)
(1.04357 -0.147333 -2.84623e-21)
(1.03319 -0.0973857 -2.65403e-21)
(1.0272 -0.0648091 7.94084e-21)
(1.02319 -0.0428309 1.07365e-20)
(1.02035 -0.0273081 -5.50773e-22)
(1.01849 -0.0157016 -1.79738e-21)
(1.01725 -0.00531813 2.07582e-21)
(1.3089 -0.454811 5.48894e-21)
(1.15628 -0.312417 5.24597e-20)
(1.09688 -0.20967 4.0416e-20)
(1.06572 -0.139745 -3.63941e-21)
(1.04798 -0.0932335 9.22387e-21)
(1.03715 -0.0622132 3.23136e-21)
(1.03007 -0.0410883 3.68745e-21)
(1.02535 -0.0261484 2.07974e-23)
(1.0224 -0.0150062 1.2033e-21)
(1.02054 -0.00507066 4.23747e-21)
(1.35331 -0.388272 -7.74734e-20)
(1.19793 -0.276801 -6.69278e-21)
(1.12709 -0.190869 -1.0732e-22)
(1.08656 -0.129327 -1.3588e-36)
(1.06205 -0.0870099 4.25568e-21)
(1.04668 -0.058248 -1.20189e-35)
(1.03668 -0.0384807 -6.03266e-21)
(1.03015 -0.0244639 -3.52881e-34)
(1.02613 -0.0140212 1.49775e-21)
(1.02366 -0.00473043 -4.34522e-21)
(1.38206 -0.322835 -1.44836e-34)
(1.23041 -0.238923 -9.19957e-21)
(1.15245 -0.168894 -1.4757e-20)
(1.10486 -0.116245 0)
(1.07475 -0.0788804 -5.93517e-21)
(1.05542 -0.0530079 -3.01718e-21)
(1.04279 -0.0350537 1.50453e-21)
(1.03458 -0.0222762 -5.60092e-34)
(1.02958 -0.012757 1.23413e-21)
(1.02653 -0.00429974 4.34178e-21)
(1.40017 -0.26183 -3.17207e-20)
(1.25535 -0.200438 2.09224e-21)
(1.17327 -0.144783 0)
(1.12047 -0.10105 0)
(1.08587 -0.0691264 0)
(1.06319 -0.0466385 0)
(1.04825 -0.0308851 -1.49351e-21)
(1.03855 -0.0196278 -6.31758e-34)
(1.03267 -0.0112354 1.4868e-21)
(1.0291 -0.00378452 5.39365e-34)
(1.41113 -0.205581 4.72638e-21)
(1.27399 -0.16211 0)
(1.18987 -0.119273 0)
(1.13336 -0.0842485 0)
(1.09525 -0.0580491 0)
(1.06982 -0.0393126 0)
(1.05296 -0.0260739 2.8292e-21)
(1.04199 -0.016575 1.1662e-21)
(1.03534 -0.00948587 1.47834e-21)
(1.03131 -0.00319382 4.47627e-21)
(1.4174 -0.153771 0)
(1.28743 -0.124332 -2.33328e-21)
(1.20258 -0.0928795 -7.21244e-21)
(1.14354 -0.0662543 0)
(1.10279 -0.0459281 -4.25074e-21)
(1.07523 -0.0312069 -2.63656e-21)
(1.05682 -0.0207284 1.22903e-21)
(1.04481 -0.013182 -8.906e-22)
(1.03753 -0.00754303 2.40161e-21)
(1.03313 -0.00253868 4.14853e-21)
(1.42064 -0.105551 2.78014e-22)
(1.29655 -0.0872176 1.50255e-21)
(1.2117 -0.065957 4.29922e-22)
(1.15102 -0.047412 5.61411e-36)
(1.10843 -0.0330215 -2.24387e-21)
(1.07929 -0.022496 -2.44198e-35)
(1.05973 -0.0149602 2.73597e-21)
(1.04694 -0.00951663 8.38669e-21)
(1.03919 -0.00544316 1.34863e-21)
(1.0345 -0.00182953 -4.2673e-21)
(1.41961 -0.0615533 2.58238e-21)
(1.3 -0.0525267 2.91418e-21)
(1.21569 -0.0402141 4.75143e-21)
(1.15426 -0.0291112 0)
(1.11062 -0.0203596 2.79476e-21)
(1.08056 -0.0139017 1.81402e-21)
(1.0603 -0.00925472 3.81515e-21)
(1.04703 -0.00588929 6.80483e-22)
(1.03899 -0.00336841 6.8159e-22)
(1.03412 -0.00113217 4.36691e-21)
(1.32076 -0.0118939 0)
(1.21386 -0.0111039 0)
(1.13621 -0.00868498 0)
(1.07878 -0.00633049 0)
(1.03769 -0.00444429 0)
(1.00926 -0.00304233 0)
(0.990048 -0.00202832 2.67252e-21)
(0.977458 -0.00129212 -1.23977e-35)
(0.969823 -0.000733313 1.44069e-21)
(0.96521 -0.000242337 4.22194e-21)
(1.96925 -0.0448638 7.54356e-19)
(1.95431 -0.13898 4.953e-20)
(1.92324 -0.230168 -9.09474e-20)
(1.87693 -0.316611 -3.04089e-19)
(1.81675 -0.396601 -8.20956e-20)
(1.74423 -0.468481 -1.36883e-19)
(1.66176 -0.530877 -3.85427e-19)
(1.56909 -0.583646 1.03179e-19)
(1.47831 -0.617414 0)
(1.35734 -0.67523 5.52886e-20)
(1.8889 -0.0334506 2.43968e-19)
(1.87752 -0.10477 -2.72105e-19)
(1.85434 -0.174419 -5.45783e-20)
(1.81993 -0.241085 -1.2287e-19)
(1.77527 -0.30357 7.28018e-20)
(1.72114 -0.360784 1.42604e-19)
(1.66031 -0.411391 -1.01099e-19)
(1.58952 -0.457458 3.54821e-20)
(1.52606 -0.482929 -5.33861e-20)
(1.43207 -0.543732 2.91915e-20)
(1.82396 -0.0258424 -9.91267e-20)
(1.81501 -0.081988 2.3518e-19)
(1.79661 -0.136877 1.45075e-19)
(1.76926 -0.189709 -2.34054e-19)
(1.7338 -0.239683 -9.89061e-21)
(1.69079 -0.286121 2.5734e-19)
(1.64268 -0.327806 1.92031e-20)
(1.58652 -0.367276 -9.84016e-21)
(1.53517 -0.38991 7.8738e-21)
(1.46568 -0.442955 1.53172e-20)
(1.77293 -0.0202079 -2.73141e-19)
(1.76557 -0.0638413 -5.76941e-20)
(1.75041 -0.106652 2.9951e-20)
(1.72787 -0.148081 -1.23777e-20)
(1.69871 -0.187553 -1.55874e-19)
(1.66346 -0.224624 -7.10093e-20)
(1.62397 -0.258284 1.38913e-19)
(1.57875 -0.290701 2.08478e-21)
(1.53561 -0.310432 1.55416e-20)
(1.4831 -0.353305 1.08651e-20)
(1.73297 -0.0156086 2.1827e-20)
(1.72673 -0.0491662 1.21367e-19)
(1.71382 -0.0821571 -8.74755e-21)
(1.69465 -0.114203 1.32324e-19)
(1.66985 -0.144901 -3.92833e-20)
(1.64005 -0.173948 -1.60366e-19)
(1.60652 -0.200574 2.38462e-20)
(1.56908 -0.226372 -6.11386e-20)
(1.5317 -0.243091 2.7074e-20)
(1.49053 -0.276389 1.42941e-20)
(1.70224 -0.0119044 -1.42116e-19)
(1.69679 -0.0370823 -5.175e-20)
(1.68544 -0.0618886 -1.76059e-20)
(1.6686 -0.0860774 7.7014e-20)
(1.64682 -0.109376 1.91123e-19)
(1.62078 -0.131572 -4.29075e-20)
(1.59135 -0.152115 3.66451e-21)
(1.55922 -0.172073 -3.00221e-20)
(1.52588 -0.185748 -3.64193e-20)
(1.49219 -0.210827 -2.25559e-20)
(1.6794 -0.00882445 -3.7938e-20)
(1.6745 -0.0268442 -9.43597e-20)
(1.66424 -0.0446395 -1.25727e-19)
(1.64898 -0.0620693 -1.97628e-19)
(1.62926 -0.0789656 6.086e-20)
(1.60575 -0.0951892 4.35091e-20)
(1.57908 -0.110372 -4.34925e-21)
(1.55046 -0.125195 3.84532e-20)
(1.51989 -0.135854 -3.68372e-20)
(1.49101 -0.154116 -1.90716e-20)
(1.66337 -0.0062101 5.54518e-20)
(1.65887 -0.0178712 7.61511e-21)
(1.64937 -0.0294203 1.11129e-20)
(1.63521 -0.0408036 -2.28046e-20)
(1.61686 -0.051939 -2.02802e-20)
(1.59499 -0.0627517 -4.53093e-20)
(1.57007 -0.0730251 -2.5637e-20)
(1.5436 -0.0831858 5.22837e-20)
(1.51474 -0.0908483 -1.80142e-20)
(1.48874 -0.103512 -5.5067e-22)
(1.64727 -0.00399228 -7.24275e-20)
(1.64347 -0.00980626 -2.0433e-20)
(1.63504 -0.0156094 1.13182e-19)
(1.62226 -0.0214277 -2.40183e-20)
(1.60549 -0.027265 -2.65332e-20)
(1.58533 -0.0331143 4.59172e-20)
(1.56206 -0.038852 -3.21461e-20)
(1.5373 -0.0448126 2.37478e-20)
(1.50949 -0.0493528 -1.85935e-20)
(1.48548 -0.0578656 -4.30073e-20)
(1.45148 -0.00116368 5.15289e-20)
(1.44868 -0.00122544 4.41639e-20)
(1.44442 -0.00135211 4.29748e-20)
(1.43868 -0.00160113 6.85458e-20)
(1.4313 -0.00202173 -3.0028e-20)
(1.4223 -0.00263284 -4.61406e-20)
(1.41121 -0.00344464 1.71795e-20)
(1.39944 -0.00451189 1.54073e-21)
(1.3829 -0.00515598 -2.61922e-21)
(1.37419 -0.00901275 2.49434e-21)
(1.3381 0.707686 -4.65148e-20)
(1.34005 0.75119 2.79263e-20)
(1.3467 0.801081 -3.23373e-19)
(1.35355 0.856434 2.40466e-19)
(1.36099 0.915939 6.11126e-19)
(1.36879 0.980174 -1.52716e-19)
(1.37548 1.04934 -7.3436e-19)
(1.36857 1.11392 -6.89092e-20)
(1.26923 1.09337 -5.88329e-19)
(0.73449 0.689296 1.4578e-20)
(1.46164 0.687395 0)
(1.47071 0.72918 4.66044e-19)
(1.48148 0.77755 1.01064e-18)
(1.49388 0.831033 -5.79228e-19)
(1.50801 0.888907 -1.41908e-18)
(1.52359 0.951823 -1.41501e-19)
(1.53904 1.01984 -1.8087e-19)
(1.53988 1.0834 6.80611e-19)
(1.43534 1.06191 1.35778e-18)
(0.83393 0.669802 5.80431e-19)
(1.57332 0.6547 6.51673e-20)
(1.58969 0.694918 0)
(1.60742 0.740493 -6.96928e-20)
(1.62707 0.790428 6.07215e-19)
(1.64886 0.844774 5.39683e-20)
(1.67281 0.90428 -1.62863e-18)
(1.6973 0.968977 1.06738e-18)
(1.70586 1.02957 8.00668e-19)
(1.59582 1.00669 -1.25183e-18)
(0.929262 0.635209 -3.14927e-19)
(1.67585 0.604504 -8.3513e-20)
(1.69883 0.642448 -7.32195e-20)
(1.72362 0.684681 1.9625e-19)
(1.75064 0.730645 -2.46213e-19)
(1.78025 0.780755 -1.22129e-18)
(1.81266 0.83577 -9.35225e-19)
(1.84612 0.895784 1.10541e-18)
(1.86207 0.952072 8.09399e-19)
(1.74613 0.927792 0)
(1.0174 0.585674 0)
(1.77019 0.538625 -7.39249e-19)
(1.7987 0.573289 -1.18359e-18)
(1.82959 0.611387 -4.8745e-19)
(1.86322 0.652634 -3.77459e-20)
(1.90002 0.697595 0)
(1.94029 0.746994 1.55866e-19)
(1.98207 0.801031 1.84176e-19)
(2.00461 0.851886 2.3501e-19)
(1.88222 0.826427 -3.63208e-19)
(1.09568 0.522224 -9.50947e-20)
(1.85436 0.459849 8.43264e-19)
(1.88734 0.490135 -5.28979e-20)
(1.92331 0.523099 -1.00001e-18)
(1.96258 0.55865 0)
(2.00564 0.597388 0)
(2.05283 0.639965 0)
(2.10192 0.686724 1.44252e-18)
(2.12993 0.731184 -1.94272e-18)
(2.00045 0.704879 -1.88482e-18)
(1.16192 0.446522 2.29884e-19)
(1.92562 0.370434 -1.15564e-18)
(1.96216 0.395383 -2.39331e-18)
(2.00224 0.422256 -4.10195e-21)
(2.04616 0.45115 4.67206e-19)
(2.09442 0.482621 -4.68204e-20)
(2.14739 0.517201 1.15124e-18)
(2.20257 0.555446 -6.86932e-19)
(2.23487 0.592846 -2.49436e-18)
(2.09758 0.566125 1.61802e-19)
(1.2143 0.360584 1.46517e-19)
(1.98158 0.272469 -9.57886e-19)
(2.02085 0.291324 2.27383e-20)
(2.06411 0.311318 3.68718e-19)
(2.11163 0.332762 -3.47631e-19)
(2.16393 0.356103 5.23411e-19)
(2.22135 0.381655 1.63309e-18)
(2.28133 0.409986 -2.64815e-19)
(2.31667 0.440287 -1.48943e-18)
(2.1711 0.413869 5.50881e-19)
(1.25074 0.266557 1.62377e-19)
(2.02039 0.16812 3.44368e-19)
(2.06158 0.180333 1.08719e-19)
(2.10707 0.192847 -4.08512e-19)
(2.15714 0.206247 -8.5793e-19)
(2.21229 0.220952 1.21945e-19)
(2.27286 0.236626 1.3786e-19)
(2.33548 0.253416 -1.73163e-18)
(2.37319 0.276511 8.75648e-19)
(2.2188 0.252998 4.32432e-19)
(1.27018 0.168276 -3.38544e-19)
(2.04089 0.0596644 7.13103e-19)
(2.08318 0.0648043 -1.05512e-18)
(2.12985 0.0694346 2.09445e-19)
(2.18126 0.0743284 2.20442e-18)
(2.23796 0.0798426 1.21114e-18)
(2.30022 0.0869241 -2.74325e-18)
(2.36454 0.0900041 -3.29221e-18)
(2.40149 0.104399 2.11261e-18)
(2.23974 0.0881387 -1.57629e-20)
(1.27267 0.068795 -1.09297e-19)
(0.533898 0.170631 -2.35635e-19)
(0.503095 0.176441 -2.14512e-19)
(0.461914 0.182824 1.40699e-19)
(0.414552 0.189778 -4.79022e-19)
(0.362999 0.197337 -7.26484e-20)
(0.306321 0.20561 4.17747e-19)
(0.243333 0.2146 1.39895e-19)
(0.173279 0.222745 -1.12945e-19)
(0.09887 0.216638 -3.22e-20)
(0.0186543 0.137218 4.38182e-20)
(0.558113 0.268492 1.91199e-19)
(0.528211 0.280664 2.91969e-19)
(0.488355 0.294145 3.68888e-20)
(0.442485 0.308874 -1.43079e-19)
(0.392568 0.32485 -4.57994e-19)
(0.337718 0.342301 4.47576e-20)
(0.27676 0.361263 3.38376e-19)
(0.208608 0.378934 -3.01068e-20)
(0.133469 0.37129 -2.36155e-21)
(0.0401566 0.23493 1.0417e-21)
(0.599046 0.362259 -2.19402e-19)
(0.570748 0.38052 -2.53461e-19)
(0.533185 0.400718 2.18146e-19)
(0.489861 0.422818 2.16518e-19)
(0.442712 0.44679 -6.50022e-20)
(0.390934 0.472973 -2.13018e-19)
(0.333366 0.501429 -8.85871e-20)
(0.268364 0.528168 1.08337e-19)
(0.191816 0.519023 -1.54664e-20)
(0.0762261 0.328197 1.00258e-20)
(0.655551 0.449759 1.31416e-19)
(0.629538 0.473727 1.87365e-20)
(0.595203 0.500096 -1.74748e-19)
(0.555448 0.528989 1.73687e-19)
(0.512163 0.560358 -1.21407e-19)
(0.464662 0.594634 6.87251e-20)
(0.411799 0.631899 -3.80786e-20)
(0.351154 0.667039 -1.26918e-19)
(0.272656 0.656446 -1.9146e-19)
(0.126129 0.414995 5.86557e-20)
(0.726083 0.528896 -4.79546e-20)
(0.703014 0.558089 -2.4121e-20)
(0.672801 0.589928 -4.46949e-20)
(0.637591 0.624875 -1.06877e-19)
(0.599218 0.662876 4.20681e-20)
(0.557137 0.704426 -1.75823e-19)
(0.510215 0.749622 2.53433e-19)
(0.455055 0.79231 9.81425e-20)
(0.374375 0.78025 2.72735e-19)
(0.188902 0.493182 2.28907e-19)
(0.808748 0.597649 3.41802e-20)
(0.78925 0.631496 -1.56179e-20)
(0.76399 0.667965 2.43345e-19)
(0.734244 0.708083 9.22727e-20)
(0.701771 0.7518 1.21896e-19)
(0.666184 0.799654 6.35254e-21)
(0.626351 0.851736 2.71566e-19)
(0.577722 0.900955 1.65043e-19)
(0.494717 0.887362 1.8661e-19)
(0.263067 0.560673 1.96118e-19)
(0.901406 0.654248 -9.72454e-20)
(0.886066 0.692069 1.85441e-19)
(0.866529 0.73219 7.0552e-20)
(0.84311 0.77645 -4.88262e-21)
(0.817453 0.824828 -1.17215e-20)
(0.789335 0.87787 3.68156e-19)
(0.757616 0.935648 -1.01954e-19)
(0.716427 0.990237 -2.33962e-19)
(0.630926 0.975015 -4.17471e-20)
(0.346793 0.615682 2.49452e-19)
(1.00107 0.69692 1.39576e-19)
(0.990381 0.737698 5.68152e-20)
(0.977342 0.780356 -4.85768e-19)
(0.961172 0.827703 -7.64733e-21)
(0.943291 0.879688 2.06366e-19)
(0.92361 0.936784 -2.21878e-19)
(0.90096 0.999021 -2.60019e-20)
(0.868005 1.05776 -1.15212e-19)
(0.779795 1.04085 1.66605e-20)
(0.437969 0.656766 -2.66561e-19)
(1.10646 0.723788 2.68176e-20)
(1.10146 0.76693 -3.36396e-19)
(1.09576 0.810955 -2.17067e-21)
(1.08743 0.860174 2.22282e-19)
(1.07778 0.914595 -1.95482e-19)
(1.06698 0.974555 4.33088e-19)
(1.05388 1.03998 3.52187e-19)
(1.02953 1.10165 -6.82823e-19)
(0.938155 1.08316 -7.50839e-20)
(0.534464 0.682998 -3.43716e-19)
(1.20081 0.731626 -1.56553e-19)
(1.20598 0.776924 -1.63148e-19)
(1.21185 0.821899 2.19366e-19)
(1.2143 0.872356 3.61746e-19)
(1.215 0.928367 1.75323e-19)
(1.21463 0.99011 -3.59438e-19)
(1.21214 1.05746 -2.38948e-20)
(1.19699 1.12081 1.47169e-19)
(1.10218 1.10087 -3.24488e-19)
(0.63392 0.693834 -2.63159e-19)
(0.627582 0.0242803 4.3041e-20)
(1.22112 0.0313038 -2.99131e-20)
(0.926225 0.0357049 2.09744e-20)
(0.988449 0.0398403 0)
(0.979386 0.0472188 2.62819e-20)
(0.963368 0.0572853 2.96669e-20)
(0.938534 0.0703286 3.74824e-20)
(0.894092 0.0869363 7.60088e-20)
(0.828159 0.10926 -1.0865e-19)
(0.654845 0.139422 -1.20434e-19)
(0.627408 0.0229153 4.51779e-20)
(1.22168 0.0316643 -1.10351e-19)
(0.927123 0.0385193 -4.96958e-21)
(0.990281 0.0418904 -1.36508e-20)
(0.982 0.0505758 1.19391e-20)
(0.966896 0.0628924 -1.57605e-20)
(0.943157 0.0799511 -9.41961e-20)
(0.900591 0.103997 0)
(0.836498 0.142049 2.41472e-19)
(0.673435 0.20006 -2.64816e-19)
(0.627076 0.0214773 -1.08557e-19)
(1.22236 0.0318941 2.17793e-20)
(0.927881 0.0411177 1.99164e-20)
(0.992359 0.0437671 1.77726e-20)
(0.984978 0.0537949 -2.81235e-20)
(0.971047 0.0683899 -5.6908e-22)
(0.948889 0.0894779 -6.7068e-20)
(0.909461 0.120911 -6.64627e-21)
(0.848674 0.174174 2.83924e-22)
(0.704134 0.258956 6.6598e-19)
(0.626581 0.0201055 2.51209e-20)
(1.22312 0.0319992 2.11304e-20)
(0.928507 0.0434402 3.0641e-20)
(0.994704 0.0454444 1.5052e-20)
(0.988332 0.0568532 -1.52872e-20)
(0.975831 0.0737373 -1.8522e-20)
(0.955752 0.0988336 1.00332e-19)
(0.92061 0.137525 -2.11631e-21)
(0.864854 0.205233 -2.97129e-19)
(0.746322 0.315015 6.92833e-20)
(0.625908 0.0189087 -1.23323e-20)
(1.2239 0.0319739 -5.93651e-20)
(0.929014 0.0454227 -2.77949e-20)
(0.997341 0.0469047 5.64005e-21)
(0.992071 0.0597319 0)
(0.981252 0.078899 0)
(0.963763 0.107956 8.55242e-20)
(0.933939 0.153717 6.82966e-22)
(0.885256 0.235019 -1.44476e-19)
(0.79913 0.367095 9.86487e-20)
(0.625033 0.0179905 -1.37599e-20)
(1.22462 0.0317982 6.29111e-20)
(0.92942 0.0469953 -3.29672e-20)
(1.0003 0.0481421 -3.41615e-20)
(0.9962 0.0624167 -1.68604e-21)
(0.987313 0.0838446 7.40352e-20)
(0.97294 0.116797 1.33166e-19)
(0.949394 0.1694 -6.67175e-22)
(0.910081 0.263725 2.41302e-19)
(0.86142 0.413902 -2.084e-19)
(0.623924 0.0174615 -2.99619e-20)
(1.22517 0.0314355 2.22521e-20)
(0.929753 0.0480825 1.47901e-20)
(1.00362 0.0491667 -5.38205e-20)
(1.00072 0.064896 4.35365e-21)
(0.994015 0.0885495 -1.18769e-21)
(0.9833 0.125324 -7.71455e-21)
(0.96703 0.184485 -2.30875e-19)
(0.939312 0.290923 1.84439e-19)
(0.931856 0.454635 -4.71872e-19)
(0.622539 0.0174323 3.57605e-20)
(1.22544 0.0308249 -1.00589e-19)
(0.930055 0.048604 -3.35549e-21)
(1.00734 0.0500072 4.56482e-20)
(1.00561 0.0671541 1.93822e-21)
(1.00136 0.0929827 -8.54585e-20)
(0.994864 0.13349 -7.27449e-20)
(0.986782 0.198902 4.14873e-19)
(0.973147 0.315491 9.95158e-21)
(1.00868 0.490184 7.5639e-19)
(0.620824 0.0180472 -3.21864e-20)
(1.22532 0.0298945 4.90851e-20)
(0.930388 0.0484715 -7.07764e-20)
(1.01148 0.0506905 -4.87077e-20)
(1.01083 0.069118 -1.00324e-19)
(1.0093 0.0969589 1.94655e-21)
(1.00755 0.140778 -1.00411e-19)
(1.00846 0.2112 5.38495e-19)
(1.01227 0.333059 -6.50859e-21)
(1.09009 0.515297 -1.03912e-18)
(0.618768 0.0193736 1.86022e-20)
(1.2251 0.0287772 8.07474e-20)
(0.930811 0.0476121 2.76595e-20)
(1.0159 0.0511532 -1.12037e-19)
(1.01584 0.0707732 -9.13089e-20)
(1.01644 0.100846 -7.1453e-20)
(1.0181 0.148749 -1.8035e-19)
(1.02497 0.226263 -5.11229e-19)
(1.04303 0.356985 -2.92158e-19)
(1.15823 0.552268 -1.20382e-18)
(0.62097 0.0198607 -5.20993e-20)
(1.22641 0.0273433 -1.69043e-20)
(0.933015 0.0450727 -1.67057e-20)
(1.02116 0.0508537 -1.75525e-21)
(1.02426 0.0705269 5.79724e-20)
(1.0301 0.101056 -4.91866e-20)
(1.04072 0.149034 1.63532e-19)
(1.06331 0.224529 -5.09846e-19)
(1.107 0.344519 -2.06908e-19)
(1.24942 0.524942 6.68143e-19)
(0.621356 0.0183078 4.67907e-20)
(1.22967 0.0257954 2.09366e-20)
(0.93726 0.0408709 3.3228e-20)
(1.0261 0.0488175 4.27465e-20)
(1.03349 0.06771 8.71658e-20)
(1.04454 0.0971608 1.40591e-19)
(1.06314 0.142548 3.40645e-20)
(1.0976 0.211691 2.70992e-19)
(1.15499 0.313583 3.5199e-19)
(1.31004 0.460657 -2.79433e-20)
(0.621561 0.0161979 -5.17097e-20)
(1.23277 0.0236968 -1.80012e-20)
(0.941514 0.0366461 -4.442e-20)
(1.03118 0.0455435 2.18005e-20)
(1.04234 0.0633159 2.37525e-34)
(1.05813 0.0907342 -1.0257e-20)
(1.0836 0.1321 -6.29121e-34)
(1.12736 0.193012 2.22993e-20)
(1.19477 0.276932 -5.64489e-20)
(1.35317 0.391576 -4.61852e-20)
(0.621811 0.01344 6.82226e-20)
(1.23562 0.0209557 -1.7539e-34)
(0.945511 0.0322039 4.41876e-20)
(1.03611 0.0412643 -1.85517e-20)
(1.0505 0.0575612 -3.44685e-20)
(1.07044 0.0823167 -4.55636e-20)
(1.10161 0.118899 -7.8653e-34)
(1.15226 0.171087 -1.16154e-19)
(1.22633 0.23867 -1.51726e-19)
(1.38131 0.325961 8.87108e-20)
(0.622132 0.0100375 0)
(1.2383 0.0176439 2.15695e-35)
(0.949188 0.0274986 0)
(1.0407 0.036139 0)
(1.05779 0.050604 0)
(1.08123 0.0722005 0)
(1.117 0.103498 -4.71972e-34)
(1.17257 0.14687 0)
(1.25073 0.200051 -2.23576e-20)
(1.39851 0.264748 5.45969e-20)
(0.622548 0.00600456 5.43556e-20)
(1.24089 0.0138471 -3.12095e-21)
(0.952501 0.0225493 4.34596e-20)
(1.04479 0.0303196 0)
(1.06408 0.0426293 0)
(1.09035 0.0606911 8.71377e-21)
(1.12971 0.0864083 3.27417e-20)
(1.18869 0.121141 -1.64836e-20)
(1.26908 0.161768 -3.3622e-20)
(1.40848 0.208129 2.00785e-19)
(0.623095 0.00123022 -1.6991e-20)
(1.2435 0.00966648 5.54574e-21)
(0.955419 0.017431 4.3013e-20)
(1.04824 0.0239579 -6.07393e-21)
(1.06923 0.0338328 -1.17487e-20)
(1.09771 0.0480843 -8.84582e-21)
(1.13974 0.0680686 -2.4351e-20)
(1.201 0.0944763 -4.65711e-20)
(1.2824 0.124161 -6.15773e-20)
(1.41388 0.155871 1.03594e-19)
(0.623824 -0.00367749 -7.32335e-20)
(1.24626 0.00513134 -3.9825e-20)
(0.957904 0.0122585 4.14474e-20)
(1.05093 0.0172128 -1.53151e-20)
(1.07315 0.0244156 1.23546e-34)
(1.10323 0.0346623 9.38671e-21)
(1.14715 0.0488457 -1.14133e-33)
(1.20983 0.0672562 -1.66981e-20)
(1.2915 0.087253 2.15721e-20)
(1.4165 0.10712 2.81616e-20)
(0.624211 -0.0119173 2.05457e-19)
(1.2477 0.00131163 -1.13462e-20)
(0.958759 0.00699997 4.19716e-20)
(1.05156 0.0106475 2.99169e-21)
(1.07455 0.0150725 4.7657e-21)
(1.10567 0.021379 1.69852e-20)
(1.15078 0.0300125 9.84613e-21)
(1.21428 0.0410561 -5.13732e-21)
(1.29582 0.0526947 -2.32787e-20)
(1.41615 0.0631641 1.41571e-19)
(0.597149 -0.0108872 5.8234e-20)
(1.17326 -0.00388951 -1.37223e-34)
(0.892285 0.0027528 4.13595e-20)
(0.982851 0.00212468 0)
(1.00439 0.00331608 0)
(1.03413 0.0047323 9.64744e-21)
(1.07711 0.00663621 -1.0473e-35)
(1.13714 0.00908401 -1.66348e-20)
(1.21364 0.0115443 -3.19943e-20)
(1.32262 0.0132537 6.27961e-20)
(1.38968 0.618324 -1.91666e-19)
(1.47189 0.613718 -2.95451e-19)
(1.56427 0.583379 0)
(1.65173 0.534226 8.00897e-20)
(1.73285 0.472198 4.08815e-19)
(1.80576 0.400385 -1.68811e-19)
(1.86767 0.320606 1.27429e-18)
(1.91633 0.234463 -3.51512e-20)
(1.95018 0.143649 -3.71337e-19)
(1.96793 0.0500725 3.05632e-19)
(1.43636 0.507263 6.51172e-20)
(1.50304 0.493829 1.20254e-19)
(1.58078 0.459047 1.24772e-21)
(1.65194 0.414114 1.47878e-19)
(1.71467 0.362934 -1.4252e-19)
(1.76937 0.306195 -3.88325e-19)
(1.81505 0.244443 -5.37983e-20)
(1.85061 0.17849 5.60584e-19)
(1.87512 0.109373 -1.72706e-20)
(1.88807 0.0382465 -4.5349e-19)
(1.46617 0.408216 1.11049e-19)
(1.51706 0.395945 1.95276e-19)