# Selection   : all
# Cells       : 1800
# Volume      : 7.372328e+01
# Time        	maxMag(U)
0.65          	3.135767e+00
0.675         	3.127669e+00
0.7           	3.119594e+00
