/*--------------------------------*- C++ -*----------------------------------*\
  =========                 |
  \\      /  F ield         | OpenFOAM: The Open Source CFD Toolbox
   \\    /   O peration     | Website:  https://openfoam.org
    \\  /    A nd           | Version:  13
     \\/     M anipulation  |
\*---------------------------------------------------------------------------*/
FoamFile
{
    format      ascii;
    class       volScalarField;
    location    "0.4";
    object      p;
}
// * * * * * * * * * * * * * * * * * * * * * * * * * * * * * * * * * * * * * //

dimensions      [0 2 -2 0 0 0 0];

internalField   nonuniform List<scalar>
1800
(
-2.01824441838
-1.91553723353
-1.77240921692
-1.64590851546
-1.54929952054
-1.47498251072
-1.41430588708
-1.36211402318
-1.31577621785
-1.27641951426
-2.17000891685
-2.05722379792
-1.89761836263
-1.75613246584
-1.64711106927
-1.56196651882
-1.49161799572
-1.43082494664
-1.37771186729
-1.33362421435
-2.31021070874
-2.18763767644
-2.0125606207
-1.8573008761
-1.73688536843
-1.64168421589
-1.56232588969
-1.49352059979
-1.43338038034
-1.38234928984
-2.43390027315
-2.30216680809
-2.11309032099
-1.94557766926
-1.81497984224
-1.71061700332
-1.62298706217
-1.54678653772
-1.48008204701
-1.42302215882
-2.53602189754
-2.39599837826
-2.19481356652
-2.01700218383
-1.87774706713
-1.76539602409
-1.67048587435
-1.58777060901
-1.51530678944
-1.45289341121
-2.61128575366
-2.46413607042
-2.25292840421
-2.06688547047
-1.92051402493
-1.80129675122
-1.69998698057
-1.6114621332
-1.53378531525
-1.4663752015
-2.65520006296
-2.5023751428
-2.28348537944
-2.09163534264
-1.93990016686
-1.81521077791
-1.70868585599
-1.61541399082
-1.5334417487
-1.4619250787
-2.66377277072
-2.50680355682
-2.28267724424
-2.0876939443
-1.93236702324
-1.80363363331
-1.6931644257
-1.59628745604
-1.51103495414
-1.43634292555
-2.6340844425
-2.4744725299
-2.24826882596
-2.05271453471
-1.8955109772
-1.76420088024
-1.65115074195
-1.55192149363
-1.46449273193
-1.3876726054
-2.56430439254
-2.40414079871
-2.17940799678
-1.98476397726
-1.82745378585
-1.69527464455
-1.58117829505
-1.48087299516
-1.39236891389
-1.31452779504
-0.828738597615
-0.796270587806
-0.773846880277
-0.762129200132
-0.758776901676
-0.76011007062
-0.763783394831
-0.768723104301
-0.774412116569
-0.780306883322
-0.862356729499
-0.827324298458
-0.800723209329
-0.784799042238
-0.778026569259
-0.776700783478
-0.77818137361
-0.781227224952
-0.785251166737
-0.789605967377
-0.922819483092
-0.883891070074
-0.850863291352
-0.828535674799
-0.816567438697
-0.81122623062
-0.809416299396
-0.809630974339
-0.811174593365
-0.813219633581
-1.00829299773
-0.964262881851
-0.922690331252
-0.891962783496
-0.873209158121
-0.862636692304
-0.856566781965
-0.853140703774
-0.851512509051
-0.850621607732
-1.11626105409
-1.06606092544
-1.01400128957
-0.973099440583
-0.946188023011
-0.92932933622
-0.918173815417
-0.91043287415
-0.905091427365
-0.90081660413
-1.24347183596
-1.18617080281
-1.12188538509
-1.06926712038
-1.0330192257
-1.00895260911
-0.991977989854
-0.979346270925
-0.969862043172
-0.961885186721
-1.38597839342
-1.3207743135
-1.24272370472
-1.17703305674
-1.13036570941
-1.098158331
-1.0745778195
-1.05640884398
-1.04230101225
-1.03021408431
-1.5393636394
-1.46557519255
-1.37244149618
-1.29249596261
-1.23435495652
-1.19295829855
-1.16176191108
-1.13714054221
-1.11762306938
-1.10060357895
-1.69894422154
-1.61598317709
-1.50676921527
-1.41174484091
-1.341359146
-1.2898934369
-1.2501553938
-1.21819772529
-1.19231678552
-1.16935639449
-1.85994334077
-1.76729386453
-1.64126210315
-1.53061959608
-1.44738817319
-1.38501067999
-1.33567695868
-1.29512441703
-1.26120722245
-1.2315082199
-0.833576688494
-0.912264157223
-0.955086311436
-0.993805281579
-1.02790996789
-1.05886939078
-1.08837510826
-1.11722644709
-1.14587969242
-1.17446177206
-0.832184117424
-0.905805530217
-0.950316934385
-0.990183398126
-1.0252731235
-1.05703669948
-1.08714290694
-1.11644668686
-1.14545102057
-1.17432866993
-0.837557450997
-0.899769523874
-0.945767084762
-0.986488250549
-1.0224155033
-1.05496650609
-1.08570459777
-1.11551146624
-1.14492662284
-1.17416358644
-0.850354017826
-0.894405027743
-0.941408176183
-0.982728946789
-1.01935938438
-1.05267545358
-1.08407001307
-1.11442672588
-1.14430991197
-1.17396714864
-0.871326703158
-0.890254179386
-0.937219448985
-0.978919702422
-1.01613187186
-1.05018107949
-1.08225113244
-1.1132002958
-1.14360456381
-1.173740321
-0.900908319885
-0.8883465411
-0.933284954538
-0.975092906474
-1.01276852446
-1.04750633311
-1.08026242818
-1.11184090175
-1.14281500676
-1.17348389461
-0.938193813406
-0.89025472576
-0.929930292413
-0.971330171184
-1.00931344131
-1.04467800713
-1.07812086344
-1.11035878161
-1.14194658185
-1.17319911752
-0.980334210027
-0.897804884488
-0.927677664456
-0.967737588068
-1.00580997714
-1.04172432349
-1.07584360124
-1.10876482708
-1.14100488087
-1.17288778185
-1.02639968873
-0.911722272192
-0.927366722067
-0.964519375597
-1.002297968
-1.03865715189
-1.0734364772
-1.10706348139
-1.13999263826
-1.17254857304
-1.07393720177
-0.928810539713
-0.928654306889
-0.961553448663
-0.998705154287
-1.03544019212
-1.07088624089
-1.10525079232
-1.1389068365
-1.17218009182
-1.0847602202
-0.935191110533
-0.927056221723
-0.958105495706
-0.995307405587
-1.03266459046
-1.06880479839
-1.10381981071
-1.13804146011
-1.17183321227
-1.0852576528
-0.948017777923
-0.934878426289
-0.961597850574
-0.996418801192
-1.03278240336
-1.06858192039
-1.10355619779
-1.13784299337
-1.17174169782
-1.07154863361
-0.955854703344
-0.942864178755
-0.965772634509
-0.998118074187
-1.0332975235
-1.06861412162
-1.10344974255
-1.13773257595
-1.17168152689
-1.05306376804
-0.95982010829
-0.949145357313
-0.969734359331
-1.00008647402
-1.03410574742
-1.06886718993
-1.1034874794
-1.13770379581
-1.171648652
-1.0330538539
-0.962183855172
-0.954524588115
-0.973621964755
-1.00227628333
-1.03515773124
-1.06931175535
-1.10365504432
-1.13774986428
-1.17164162821
-1.01469506474
-0.963557173793
-0.959122683336
-0.977310858653
-1.00455924438
-1.03637463313
-1.06990606451
-1.10393153746
-1.13786132309
-1.1716578303
-1.00015095204
-0.964752753024
-0.963239229289
-0.98079344481
-1.0068535929
-1.03769283396
-1.07061220492
-1.10429663292
-1.13802838183
-1.17169446719
-0.990740830711
-0.9664561174
-0.967120449759
-0.984111816662
-1.00913290889
-1.03908157253
-1.07140963056
-1.10473976752
-1.1382474045
-1.17175195388
-0.988772705066
-0.970368059958
-0.971528074254
-0.987604404459
-1.0115625276
-1.040634926
-1.07236110521
-1.1053048604
-1.13854985031
-1.17184896645
-0.986679076801
-0.970274275245
-0.97240938839
-0.988510414875
-1.01224692424
-1.04106453763
-1.07260630941
-1.10543658933
-1.13860062638
-1.17185184384
-1.18312513708
-1.25400223761
-1.30507879505
-1.3368122566
-1.3506125022
-1.34894066355
-1.33281515574
-1.30696640328
-1.27105263596
-1.23496638621
-1.03806500878
-1.10870000604
-1.16313374706
-1.20189303027
-1.22633685425
-1.23817131097
-1.23768604496
-1.231661577
-1.21495035274
-1.20152234062
-0.927040680799
-0.995237656269
-1.05039557769
-1.09242101866
-1.12280617404
-1.14229490755
-1.15154050884
-1.15636610736
-1.15011751053
-1.1472978578
-0.841386642561
-0.907712346012
-0.962874834739
-1.00659993703
-1.04032266969
-1.06420539072
-1.07944787103
-1.09009046991
-1.09181250484
-1.09629282419
-0.775529763495
-0.840307103903
-0.89524329549
-0.940032891568
-0.975872861113
-1.0027294912
-1.02213714719
-1.03653218199
-1.04375192342
-1.05245673856
-0.72555871807
-0.789134008645
-0.843822326811
-0.889326294051
-0.926535272354
-0.955386498146
-0.97751187741
-0.99424827288
-1.00507155124
-1.01655433008
-0.688334401224
-0.751152434399
-0.805822105378
-0.852023811787
-0.890325822015
-0.920674206275
-0.944650004256
-0.962976689086
-0.976174690873
-0.989530242012
-0.662061153177
-0.724613188828
-0.779543724424
-0.826569451984
-0.86600709059
-0.897733351293
-0.923173178759
-0.942594711442
-0.957205598987
-0.971466527448
-0.643906200138
-0.707490100485
-0.763712515494
-0.812126759655
-0.853140788907
-0.886711825574
-0.914016855781
-0.935050827864
-0.950770397039
-0.96533759501
-0.633674776864
-0.700786722549
-0.760681240716
-0.81307367827
-0.857946285716
-0.895069892198
-0.925344258768
-0.948100577725
-0.965127080492
-0.976737562953
0.391535917164
0.348521442227
0.302354003566
0.254174678699
0.201115444989
0.140490516799
0.0691363633911
-0.0159008986227
-0.109960228584
-0.195498203125
0.189804083949
0.139812513068
0.0878524296071
0.0316440006156
-0.0316105523177
-0.10381663204
-0.188263667074
-0.288351540475
-0.398516827669
-0.499153542907
-0.0231648891019
-0.0763891156286
-0.13328639159
-0.196972410686
-0.269406813752
-0.352328459509
-0.449421164086
-0.564444518948
-0.690292498075
-0.805699955579
-0.228133121434
-0.285979715404
-0.349342200039
-0.420962693699
-0.502517985488
-0.596036867838
-0.705696081467
-0.835711105839
-0.976846941871
-1.10680422393
-0.426028952777
-0.489085031386
-0.558797018059
-0.637724668946
-0.727568865323
-0.830692227578
-0.951823347695
-1.09603094128
-1.2509969593
-1.39544026881
-0.616560827148
-0.684148233626
-0.759327983248
-0.844487180468
-0.941344706081
-1.05257106931
-1.18357137517
-1.34105725948
-1.50681398954
-1.66718899674
-0.795146341497
-0.866533826404
-0.946331028816
-1.03672279463
-1.13941879295
-1.25737449489
-1.39650891577
-1.56575444956
-1.74406115288
-1.91362155313
-0.957172840236
-1.03154414131
-1.11510252722
-1.20984249456
-1.31740202517
-1.44092293658
-1.58716855804
-1.75975832497
-1.96549335992
-2.12695316056
-1.09903317105
-1.17535914512
-1.26158406927
-1.35939536121
-1.47046328644
-1.59737478442
-1.74598807532
-1.93233506819
-2.15783822124
-2.30666632209
-1.21680791816
-1.29472604031
-1.38333501225
-1.48354577385
-1.59602522899
-1.72681894014
-1.88338325778
-2.0747966557
-2.29779278085
-2.45456636726
1.6634566561
1.68330614756
1.70890894205
1.73755227281
1.76637192469
1.79442983398
1.82127564254
1.8461471511
1.86845643984
1.88535016619
1.60920915615
1.62736106571
1.65081659694
1.677026955
1.70321884648
1.72834784397
1.75195713711
1.77311200434
1.79135836061
1.80481072701
1.53395030456
1.54955578244
1.56973448914
1.59220309596
1.61429246757
1.63494713704
1.65353861856
1.66898761046
1.68102314187
1.68933358972
1.43851446991
1.45079197938
1.46660062355
1.48408668652
1.5007212147
1.51538940498
1.52728043133
1.53507337385
1.53895535089
1.5409974361
1.32444560084
1.33255735528
1.34289717808
1.35414806841
1.36403516828
1.37128178262
1.37486641924
1.37323782697
1.36720030881
1.36144490973
1.19335782758
1.19639767235
1.20022720048
1.20418880904
1.20618813864
1.20483909247
1.19878301234
1.18629440066
1.16867808009
1.15279430915
1.04668764859
1.04419233617
1.04080486267
1.03651503193
1.02957352051
1.01839121621
1.00134647463
0.97651325294
0.945775724344
0.918087179475
0.884021199847
0.876112898973
0.865764821555
0.85319291353
0.83695216297
0.815354449479
0.786461230848
0.748212203579
0.70312742634
0.662278828711
0.713252320646
0.700130126586
0.681499640087
0.658867440112
0.631722602293
0.598333180243
0.556396002064
0.503619573777
0.443133085965
0.388042515219
0.54026379971
0.519293308035
0.490744238354
0.45728668339
0.418565889529
0.372445747057
0.316279954172
0.247667549028
0.170660184417
0.100550003597
1.94332398718
0.965320060898
1.76585251625
1.47511416088
1.40815411893
1.39436004866
1.39928525841
1.42254935112
1.49193689146
1.5974120457
1.93513184887
0.95590685697
1.75905997568
1.46643268551
1.39842595976
1.38313040757
1.38543716511
1.40488183135
1.46593637985
1.55977462484
1.92811479002
0.945480929146
1.75386136189
1.45702843332
1.38743848868
1.37036152483
1.36933497441
1.38378682387
1.43248561879
1.50931948545
1.92209594775
0.93417692267
1.75027325625
1.44686874429
1.37525055707
1.35612905895
1.35105965824
1.35925253108
1.39190989761
1.44546113142
1.91696068177
0.922148448265
1.7482700209
1.43584147103
1.36190333448
1.34051071734
1.33070289691
1.33115206147
1.3434792405
1.3691063148
1.91259625039
0.909649267191
1.74780312179
1.42382375602
1.34749827053
1.32364725818
1.30833458213
1.29919470059
1.2855989516
1.28255714382
1.90889173882
0.896957616195
1.7487458182
1.41063111591
1.33213343353
1.30565807996
1.28403112071
1.26321067476
1.22082050305
1.18419018818
1.90573132707
0.884403476746
1.75095853207
1.39605098647
1.31598026686
1.28668984066
1.25778845133
1.22352237438
1.15175817583
1.07130970025
1.90309567596
0.872375438342
1.75419481667
1.37989656198
1.29933775317
1.26686679767
1.22968223828
1.18038861631
1.0788624458
0.943733259095
1.90065344666
0.861306678006
1.75813504915
1.36199175297
1.28249138031
1.2463714838
1.20020233694
1.1351065508
1.00599311804
0.809003505395
1.89851400023
0.850227169184
1.75446210209
1.34860371603
1.26356953455
1.2199089209
1.16037966733
1.07431934139
0.910890219571
0.651187147594
1.90011781369
0.841003459324
1.74293202274
1.34187286857
1.24587852503
1.19267188888
1.12023026112
1.01600035059
0.82899059089
0.548816069764
1.9030775791
0.834585727439
1.73257655806
1.33507180846
1.23021933901
1.16796571776
1.08438539149
0.965522245826
0.76393263828
0.4838049198
1.90794238664
0.830767220873
1.72378289756
1.32864773729
1.21655178789
1.14617379541
1.05326823643
0.922781836175
0.71364389694
0.437846551612
1.91606553082
0.829321571124
1.71677473041
1.322968848
1.204933752
1.12758822778
1.027078454
0.887785533173
0.675703201784
0.404694385935
1.9262890246
0.830099304626
1.71161865548
1.31834712737
1.19544491495
1.11235275453
1.00590944482
0.860241582066
0.647964399887
0.381662928964
1.93787375555
0.833041907089
1.7082525581
1.31495989081
1.1881215695
1.10059343291
0.989688664289
0.839708453686
0.628715037076
0.366747371677
1.95741840187
0.837433263539
1.70597059276
1.31282329216
1.18300563529
1.09233405858
0.97833426693
0.825696445244
0.616634358822
0.35861627707
1.98203139513
0.847361136167
1.70706578961
1.31204143379
1.18016459058
1.08769942711
0.971949743089
0.8181924721
0.611627881671
0.358019261615
2.02659822862
0.852357241742
1.70800614847
1.31054939149
1.17800647555
1.08476976939
0.967842619149
0.813346153755
0.60788982249
0.35630760563
0.369520754772
0.19314192075
-0.00224421521779
-0.18941465046
-0.367962748278
-0.540127215103
-0.701889029044
-0.84956459016
-0.980844751073
-1.09373926781
0.281798123493
0.144940656982
-0.0108986125132
-0.166259088652
-0.316416355093
-0.463191910957
-0.603169512325
-0.732026784918
-0.847833310065
-0.95054019844
0.233931014222
0.121150571793
-0.011495027663
-0.14793989131
-0.279504517393
-0.407432014322
-0.530379977852
-0.645358481343
-0.750869204741
-0.845413787206
0.201083088222
0.102991116402
-0.0112355780239
-0.13091974059
-0.247440388372
-0.361538147299
-0.472678898046
-0.5780058772
-0.675509939125
-0.763731982716
0.180733275017
0.092837268694
-0.00803337842912
-0.115914600218
-0.222282278663
-0.326650408361
-0.428812983654
-0.526403993389
-0.617511609667
-0.700939189242
0.169214320834
0.0881245479777
-0.00356297876917
-0.102894882123
-0.201797837455
-0.299019656512
-0.394610486256
-0.486652026666
-0.5732756683
-0.653288207699
0.164122186832
0.0875970658369
0.00205167918626
-0.0913597174852
-0.185042512118
-0.277309774808
-0.368353153015
-0.456553479912
-0.540067196965
-0.617672164723
0.163685499719
0.0902783977825
0.00876397584135
-0.0807734593343
-0.170996433454
-0.260023044206
-0.348154216541
-0.433981436004
-0.515707319876
-0.592044783973
0.169525443987
0.0978369048757
0.0185279967569
-0.0687718546184
-0.156940285326
-0.244157960292
-0.330810572096
-0.415620645877
-0.496870688954
-0.573312870222
0.178404230798
0.111253656628
0.0342809237835
-0.0513875322377
-0.138653756674
-0.225958269955
-0.313233882745
-0.399126836431
-0.482034810643
-0.56062861102
-3.94099765151
-3.72761313335
-3.44410129588
-3.20196376015
-3.01391333065
-2.86678402967
-2.75078326255
-2.65993651579
-2.59042159254
-2.53939673249
-4.01389285414
-3.8034769355
-3.5118017775
-3.26399477399
-3.07289753301
-2.92483103252
-2.80907238278
-2.71890434665
-2.65001676781
-2.60042883965
-3.9619274168
-3.75722812344
-3.46303845641
-3.211842411
-3.02062881806
-2.87401322293
-2.75961450218
-2.67014911491
-2.60102794756
-2.54971645209
-3.80423576056
-3.60737848363
-3.31745303303
-3.06882251462
-2.88205443049
-2.74055241517
-2.63001822364
-2.5425068302
-2.47351086791
-2.4202526862
-3.57037860188
-3.38349742586
-3.1050510126
-2.86594552959
-2.68922011356
-2.55732096262
-2.45423729446
-2.37110863364
-2.30363648396
-2.25045558346
-3.29358888445
-3.11916056275
-2.85950962881
-2.6366153989
-2.47498022233
-2.35681703249
-2.264825522
-2.18934500712
-2.12600118307
-2.07494372996
-3.00367204177
-2.84394170513
-2.60921362277
-2.40770595306
-2.26431954515
-2.1621511177
-2.08351892685
-2.01834218766
-1.96240041899
-1.9163873139
-2.72097045783
-2.57778815453
-2.37169937392
-2.19455049212
-2.07027158098
-1.9839841001
-1.91886313644
-1.86499785184
-1.81838557597
-1.77986318722
-2.45460706413
-2.32881962641
-2.15246805732
-2.0004705158
-1.89453757398
-1.82252311316
-1.76933288855
-1.72579234189
-1.68807988178
-1.65757895902
-2.20615893359
-2.09737795836
-1.94966009609
-1.82216841306
-1.73343950373
-1.67399398466
-1.63091463034
-1.5960141682
-1.56526641398
-1.53906501089
-1.97472869498
-1.88188614885
-1.76048935248
-1.65621969084
-1.58411399301
-1.53703589807
-1.50460827514
-1.48049809797
-1.46184413846
-1.44511174544
-1.75949592925
-1.68046882854
-1.58219121899
-1.49869847312
-1.44146047582
-1.40490086072
-1.38057312549
-1.36326247805
-1.35072336136
-1.33926694803
-1.56078702616
-1.49367956268
-1.41505292089
-1.34961803876
-1.3055137507
-1.27810280429
-1.26052500709
-1.24858096509
-1.24041595354
-1.23319482575
-1.38082335897
-1.32375118178
-1.26158725868
-1.21154399889
-1.17884017253
-1.15936715049
-1.14757119703
-1.14016802734
-1.13563301765
-1.13175006218
-1.22226800689
-1.173465213
-1.12480034944
-1.08753571474
-1.06443843245
-1.05167410931
-1.04476270278
-1.04117686547
-1.03972151777
-1.0386178128
-1.08771259668
-1.04552301023
-1.00760343341
-0.980651992561
-0.965459126947
-0.958298907286
-0.955550343971
-0.955274366881
-0.956541051485
-0.957953561568
-0.979299535592
-0.942144201237
-0.91234518493
-0.893319181495
-0.884297438199
-0.881593630632
-0.882232716839
-0.884710403688
-0.888292245423
-0.891921435044
-0.898551510286
-0.864880807799
-0.840645499982
-0.82714092366
-0.822459659647
-0.822928991285
-0.826027648013
-0.830538063698
-0.835861702049
-0.841213865194
-0.846371636902
-0.814654228142
-0.79346382714
-0.783044546932
-0.780773023663
-0.783014764542
-0.787493213011
-0.793151829318
-0.799472207634
-0.805844939735
-0.82319810398
-0.791849313038
-0.771266345692
-0.761385084331
-0.759557990026
-0.762094645334
-0.766777334869
-0.772595542325
-0.779052948571
-0.785625139793
-1.27064136962
-1.07368383478
-1.02977455503
-1.03020000724
-1.04341658912
-1.06405304302
-1.08879492472
-1.11592980293
-1.14458664941
-1.17398216999
-1.18837023686
-1.03333743028
-1.01472953122
-1.02444231902
-1.04208898968
-1.06441544382
-1.0896738849
-1.11679687699
-1.14517604203
-1.17417830567
-1.11353656941
-1.00203784018
-1.00398016146
-1.02092786003
-1.04110360574
-1.06466923459
-1.09037251258
-1.11750719171
-1.14566466922
-1.17434213067
-1.0480345777
-0.978994672815
-0.995689514832
-1.01739285342
-1.04005232266
-1.06474439665
-1.09087621157
-1.11805668056
-1.14605155486
-1.17447298955
-0.990800478579
-0.962888263426
-0.988767195066
-1.01406141684
-1.03889662237
-1.0646211776
-1.0911742263
-1.11844137475
-1.14633578138
-1.17457075393
-0.943239422209
-0.951151357492
-0.982514443478
-1.01079474003
-1.03759007412
-1.06427488124
-1.09125931244
-1.1186590644
-1.14651674636
-1.17463539667
-0.905509010966
-0.941759977502
-0.976570508361
-1.00751740655
-1.03609978856
-1.06369556035
-1.09112616079
-1.11870834872
-1.14659441025
-1.17466691217
-0.876682712128
-0.933737360962
-0.970846761536
-1.00419438546
-1.03440247211
-1.06286906263
-1.09077126475
-1.11858874554
-1.14656870811
-1.17466523902
-0.855530572067
-0.92619717198
-0.965350370514
-1.00080839681
-1.03247666648
-1.06179053499
-1.09019357449
-1.11830082554
-1.14644032397
-1.17463035357
-0.841359558975
-0.919061588825
-0.960096572717
-0.99734704711
-1.03031344425
-1.06045702855
-1.08939384643
-1.11784581736
-1.14621024793
-1.17456241622
-1.44215538208
-1.17566459647
-1.08034833715
-1.05360380322
-1.05409604977
-1.06803849535
-1.08989488524
-1.11594666637
-1.14435024641
-1.17382905745
-1.40135389599
-1.1682619134
-1.07704303257
-1.05186242393
-1.05270791624
-1.06763594142
-1.08979840185
-1.11594875552
-1.14436761684
-1.17383787688
-1.38301600506
-1.14994313744
-1.06691309471
-1.04717759104
-1.05067489088
-1.06690934449
-1.08959339688
-1.11593897625
-1.14440849433
-1.17386463307
-1.35713273037
-1.12848922706
-1.05530153232
-1.04163771105
-1.04848726898
-1.0658765412
-1.08918816562
-1.11580631921
-1.14437696745
-1.17386426755
-1.32149785013
-1.10398702275
-1.04273134492
-1.03544926817
-1.04537189758
-1.06454189635
-1.08860726135
-1.11556806222
-1.14428639706
-1.17384352464
-2.46902382463
-2.53615666134
-2.51189080689
-2.41572813744
-2.27887054757
-2.12174748805
-1.98305574031
-1.86315798468
-1.75954267897
-1.67762315606
-2.47443989639
-2.54279433675
-2.5149003618
-2.41146621821
-2.26511979949
-2.09551528885
-1.93796324021
-1.7960513098
-1.66267983749
-1.57817650755
-2.48196721936
-2.5492048747
-2.51454032939
-2.4013342423
-2.24302992768
-2.06394877786
-1.89966382433
-1.76479425472
-1.65295921748
-1.58606523538
-2.49388825042
-2.55886883297
-2.51571880238
-2.39229121812
-2.22559093588
-2.04733322743
-1.88752241439
-1.76032154054
-1.65157224151
-1.5716513555
-2.51107178324
-2.57420749878
-2.52353571909
-2.39169010356
-2.21982146645
-2.04340354699
-1.88667861858
-1.75600566675
-1.64004168216
-1.53834093761
1.02711543873
1.00762091528
0.980797913075
0.950226280796
0.915664662528
0.87488454882
0.82575119287
0.76640724006
0.700957616474
0.644306629415
1.18050094506
1.17132041756
1.15698861393
1.1399135143
1.11974435325
1.09480003006
1.0632298682
1.02316255805
0.977521916168
0.938244180233
1.31741410748
1.31466034729
1.31067313522
1.30599005238
1.29898290816
1.28795600443
1.27144418472
1.2477290913
1.21902855484
1.1947736814
1.4372316842
1.4407261951
1.44470168847
1.44913667584
1.45207260163
1.45199293779
1.44770544326
1.43763728322
1.42335299287
1.41164300398
1.53428782904
1.54317332498
1.5543201786
1.56687107594
1.57852555423
1.58792490572
1.59413484973
1.59575408178
1.5935907013
1.59174626928
1.60990875537
1.62334428758
1.64036137164
1.65943173524
1.67803910903
1.69498660503
1.70954713381
1.72060295011
1.72837213615
1.73356388087
1.66423032136
1.6810120784
1.70244266486
1.72646202163
1.75035843584
1.77305858048
1.79398462434
1.81221043119
1.82757786189
1.83885614014
1.69684097517
1.71589302304
1.74034975752
1.76774342354
1.79527050598
1.82191510467
1.84722356203
1.87038946505
1.89102481249
1.90667349912
1.70739410248
1.72775263637
1.75393888019
1.78323683345
1.8127743501
1.84160695242
1.86933489885
1.89523021546
1.91872138003
1.93685720216
1.69625106419
1.71688314995
1.74337636533
1.77304195289
1.80304032021
1.83238296037
1.86065095344
1.88713436121
1.91127844101
1.92968252213
-2.35215185381
-2.40736065405
-2.4791666445
-2.5717443996
-2.68860054668
-2.83421119433
-3.01610300703
-3.25014473782
-3.52605099001
-3.73915563416
-2.04601988525
-2.10575790771
-2.1816352559
-2.27723230925
-2.39521073316
-2.53931407851
-2.71847734487
-2.94340638452
-3.20435481788
-3.42041941123
-1.6407145996
-1.70865899986
-1.79172564521
-1.89259830686
-2.01362282515
-2.15853444129
-2.33420627226
-2.54831114067
-2.77459221595
-3.00929475416
-1.17770537978
-1.25786272816
-1.34974201322
-1.45600913406
-1.57915781387
-1.72230674295
-1.89121892347
-2.09072150044
-2.30481470297
-2.51999256398
-0.715909073235
-0.803907978362
-0.900206564125
-1.00755411481
-1.12856208806
-1.26602429588
-1.4248970202
-1.609507154
-1.80837026906
-1.99998578222
-0.294802329775
-0.381857964304
-0.475282973066
-0.57761287172
-0.691271135166
-0.818604604305
-0.963914350201
-1.13104270403
-1.31032228854
-1.47782682165
0.0719748526818
-0.00767042713864
-0.0923482315884
-0.184456451774
-0.286180698936
-0.399339780023
-0.527545913451
-0.6742257709
-0.83111716654
-0.974558315713
0.386868109731
0.31692595093
0.243905562932
0.165289774524
0.0786124632231
-0.0175669482342
-0.126193594858
-0.250413140652
-0.383506870664
-0.503279625586
0.662935029538
0.60172765778
0.539035698397
0.473988056654
0.403155640156
0.324633526535
0.235896355802
0.134046408733
0.0244607628379
-0.072821697059
0.893725436819
0.843918618293
0.791311819574
0.739282848814
0.684437208438
0.623585631717
0.554088508194
0.473401538554
0.386122435755
0.309883712898
2.0878789705
1.01114910265
1.90530113198
1.49338484532
1.43220619319
1.4273793087
1.42444899321
1.41715897868
1.36415513329
1.26044452233
2.06855090687
1.00820339452
1.88823539065
1.5008656071
1.434593847
1.4288045484
1.4287613947
1.43036748877
1.39701075628
1.36022636949
2.05024834724
1.00555875418
1.87101010589
1.50552232685
1.43653595901
1.42967731556
1.43272409506
1.44252174904
1.43081800811
1.44544987231
2.03300597078
1.00287573192
1.85406237512
1.50758650275
1.43766838392
1.42975233691
1.43509702184
1.45192630123
1.46127987556
1.51330348798
2.01682287663
0.999903544132
1.83778741282
1.50740012218
1.43765020272
1.42883071428
1.43581314111
1.45789215302
1.48776774912
1.56358397037
2.00172009866
0.996412332216
1.82247100769
1.5052517982
1.43631523583
1.42675699247
1.43481070024
1.46040679734
1.50757596601
1.60048910853
1.98769919512
0.99218157004
1.80832995907
1.50150755509
1.43355406347
1.42334222059
1.43196454897
1.45948041593
1.51908913436
1.62558174715
1.97482989314
0.987046558959
1.79550707715
1.4963970117
1.42932236739
1.41846317604
1.42709204531
1.45526874997
1.5235870416
1.63740096894
1.96311163612
0.980895141731
1.78411725038
1.49019245357
1.42365980495
1.41202867121
1.42008348009
1.44771414952
1.52074019417
1.63578885131
1.95263803701
0.973653907555
1.77421125858
1.48305073215
1.41658329678
1.40399643474
1.41083308867
1.43681660997
1.51022248094
1.62270255578
2.24306257043
1.046262352
1.92941273757
1.50238361915
1.43219806356
1.42117950444
1.40297661385
1.36880611289
1.25569839251
1.05821205442
2.19516397612
1.03986341509
1.92537041589
1.50199524296
1.432304454
1.42154354507
1.40451174518
1.37172801497
1.26099023269
1.06067198056
2.16413507157
1.03085033688
1.924289544
1.4998270651
1.43200216107
1.42242858355
1.40723627853
1.37736388071
1.27201496071
1.06772847327
2.13563948625
1.02316525753
1.92102473308
1.4960568137
1.43163064005
1.42368992523
1.41136796051
1.38627161969
1.29163420139
1.09492889191
2.10932313133
1.0159814586
1.91657055456
1.49107460778
1.4311580455
1.42522588153
1.41681018916
1.39829785703
1.31947984327
1.14793136854
0.788982542584
0.657220638603
0.430209434665
0.107317600788
-0.2928238736
-0.761928683992
-1.25320801339
-1.69479378072
-2.04539653913
-2.3044620768
0.765066330127
0.622504130262
0.398145002174
0.0889320524422
-0.288324085292
-0.732229096484
-1.21185712421
-1.65957610188
-2.02692599827
-2.300446683
0.776205290906
0.618651063277
0.387245831432
0.0843070219204
-0.279390338103
-0.706993366378
-1.1784536909
-1.63486841497
-2.01761115051
-2.30258097023
0.813817150529
0.634911745207
0.392217113489
0.0915633403908
-0.267455581222
-0.688457168223
-1.15640928079
-1.62050665714
-2.01605389158
-2.31055053222
0.883627888232
0.672188956348
0.408691942612
0.102842136144
-0.25698959059
-0.676108040368
-1.14224578003
-1.61117026
-2.01761608021
-2.32246148979
)
;

boundaryField
{
    left
    {
        type            zeroGradient;
    }
    right
    {
        type            fixedValue;
        value           uniform 0;
    }
    down
    {
        type            zeroGradient;
    }
    up
    {
        type            zeroGradient;
    }
    cylinder
    {
        type            zeroGradient;
    }
    defaultFaces
    {
        type            empty;
    }
}


// ************************************************************************* //
