/*--------------------------------*- C++ -*----------------------------------*\
  =========                 |
  \\      /  F ield         | OpenFOAM: The Open Source CFD Toolbox
   \\    /   O peration     | Website:  https://openfoam.org
    \\  /    A nd           | Version:  13
     \\/     M anipulation  |
\*---------------------------------------------------------------------------*/
FoamFile
{
    format      ascii;
    class       volVectorField;
    location    "0.815";
    object      U;
}
// * * * * * * * * * * * * * * * * * * * * * * * * * * * * * * * * * * * * * //

dimensions      [0 1 -1 0 0 0 0];

internalField   nonuniform List<vector> 
440
(
(0.218256 -0.176691 -1.81138e-19)
(0.613075 -0.436652 1.07865e-18)
(0.984293 -0.640905 4.23097e-19)
(1.32755 -0.7954 1.24325e-18)
(1.63259 -0.91678 -2.59971e-19)
(0.30489 -0.177682 -5.44459e-19)
(0.81913 -0.428697 -1.01955e-18)
(1.27997 -0.618898 1.14525e-19)
(1.6919 -0.76164 -1.2151e-18)
(2.05375 -0.875124 -1.02099e-18)
(0.384877 -0.152406 -6.98057e-19)
(1.00468 -0.363013 1.58977e-18)
(1.53975 -0.518384 -1.93457e-18)
(2.00471 -0.632634 1.37973e-18)
(2.40594 -0.721482 1.42957e-18)
(0.445865 -0.102745 5.62386e-19)
(1.14609 -0.243083 -1.29949e-18)
(1.73743 -0.344811 -7.50802e-19)
(2.24293 -0.418222 1.96646e-18)
(2.67445 -0.474466 2.50023e-18)
(0.479253 -0.0361581 6.86899e-19)
(1.22363 -0.0847541 1.69137e-19)
(1.84589 -0.119363 2.53129e-18)
(2.37401 -0.143865 -1.062e-18)
(2.82294 -0.162495 -4.83732e-19)
(-0.000930868 -0.0518633 2.73225e-19)
(0.0499927 -0.144816 -3.84262e-19)
(0.105904 -0.223038 1.1109e-18)
(0.171417 -0.292987 -1.77028e-19)
(0.239563 -0.354664 -1.60328e-18)
(0.0137154 -0.0844041 -2.63371e-19)
(0.0892596 -0.22809 -4.29168e-19)
(0.174038 -0.350605 1.10139e-19)
(0.268288 -0.450649 5.94894e-20)
(0.364528 -0.530842 -3.56113e-20)
(0.0433459 -0.114282 7.04448e-20)
(0.165447 -0.303253 5.30952e-19)
(0.296131 -0.467567 9.5088e-20)
(0.432813 -0.599127 1.45601e-18)
(0.567859 -0.697761 -2.4948e-20)
(0.0866161 -0.140989 6.6978e-20)
(0.276366 -0.36783 -3.54703e-20)
(0.469489 -0.563053 2.1842e-19)
(0.661409 -0.718618 -2.03324e-18)
(0.844127 -0.830599 9.56587e-19)
(0.142118 -0.161714 -2.35679e-19)
(0.420077 -0.412842 -4.4236e-19)
(0.691403 -0.621477 -7.69843e-19)
(0.950159 -0.78244 9.5271e-19)
(1.18523 -0.892897 3.45152e-18)
(0.592532 -0.592741 -4.02808e-18)
(0.962778 -0.518269 9.82685e-19)
(1.29628 -0.213989 3.67868e-19)
(1.49929 -0.0335149 -5.81246e-19)
(1.57095 0.00232009 -5.92471e-20)
(0.785177 -0.744218 4.83102e-18)
(1.04321 -0.625166 -3.07289e-19)
(1.31964 -0.287634 -1.43715e-19)
(1.54143 -0.0798015 3.85592e-19)
(1.67775 -0.0155712 1.2628e-19)
(1.03634 -0.878675 1.54664e-18)
(1.17768 -0.711241 4.04823e-18)
(1.34114 -0.359546 6.89621e-20)
(1.54867 -0.130148 3.69168e-19)
(1.71171 -0.0437411 -4.9932e-20)
(1.33058 -0.989096 1.2169e-18)
(1.35887 -0.77238 -4.21933e-19)
(1.38539 -0.421369 -7.6902e-19)
(1.53213 -0.174339 -2.89342e-19)
(1.65528 -0.0681343 9.89839e-20)
(1.62993 -1.04774 5.38041e-21)
(1.55543 -0.811828 -1.72143e-18)
(1.4483 -0.469796 0)
(1.49667 -0.225842 3.23613e-19)
(1.52705 -0.0824875 8.38256e-20)
(2.15638 -1.11554 -1.57984e-18)
(1.83419 -0.800972 -4.90652e-19)
(1.55931 -0.457322 -9.51992e-21)
(1.38479 -0.215467 7.73815e-20)
(1.3375 -0.0791922 -2.71159e-19)
(2.63251 -0.88996 -1.61186e-18)
(1.89921 -0.591136 2.97989e-18)
(1.43166 -0.320316 6.66766e-21)
(1.1509 -0.155416 2.16739e-19)
(1.0726 -0.058131 0)
(2.47849 -0.522936 -6.92652e-18)
(1.605 -0.339012 -1.48987e-19)
(1.14903 -0.179265 1.96948e-18)
(0.889228 -0.092187 -3.35147e-19)
(0.791369 -0.0366467 -2.99193e-20)
(1.76237 -0.220012 6.83503e-18)
(1.08853 -0.135704 1.2432e-18)
(0.752154 -0.0678658 2.23835e-19)
(0.571018 -0.0364799 2.94846e-33)
(0.489498 -0.015988 -7.2853e-20)
(0.683163 0.000172707 1.5519e-18)
(0.395197 0.0235644 7.12349e-19)
(0.267716 0.0240816 -5.17283e-19)
(0.205504 0.015202 2.28476e-19)
(0.17251 0.0059971 -8.02617e-20)
(3.58188 -0.168161 1.25619e-17)
(3.41717 -0.502945 -1.04437e-17)
(3.13669 -0.787011 7.10861e-18)
(2.78063 -0.996125 2.32108e-18)
(2.33318 -1.10187 -4.1418e-19)
(3.78452 -0.103589 1.03946e-17)
(3.71745 -0.324464 -6.6389e-19)
(3.5777 -0.551828 -4.26984e-18)
(3.37826 -0.785772 2.68959e-18)
(3.10029 -1.01981 -6.62787e-19)
(3.11483 -0.0605693 3.65447e-18)
(3.09865 -0.181683 -2.51885e-18)
(3.0596 -0.309668 5.01277e-18)
(2.99889 -0.444868 -1.52974e-19)
(2.92431 -0.593646 -4.79041e-18)
(2.19087 -0.0276239 2.78879e-18)
(2.18384 -0.0833667 8.43052e-18)
(2.16463 -0.144 -6.53262e-19)
(2.13408 -0.207274 -6.60886e-18)
(2.11306 -0.269436 1.94587e-18)
(0.879441 -0.00184239 5.21228e-18)
(0.876491 -0.00523861 -1.16441e-19)
(0.867374 -0.00956719 -4.25746e-20)
(0.850513 -0.0162531 -2.00946e-18)
(0.841162 -0.0229045 -3.60557e-18)
(1.65317 0.940147 2.2773e-18)
(1.34832 0.816734 -7.93349e-20)
(1.00338 0.658648 -3.57343e-20)
(0.627855 0.449465 -1.9623e-19)
(0.225216 0.182285 -1.34005e-19)
(2.07052 0.892536 -1.21879e-18)
(1.71069 0.777736 -1.20435e-18)
(1.29832 0.632578 7.3167e-19)
(0.834032 0.438712 -4.84006e-19)
(0.312133 0.182082 -4.0457e-21)
(2.4186 0.735861 -5.88932e-19)
(2.01967 0.645356 5.25244e-19)
(1.555 0.528758 2.43641e-18)
(1.01753 0.370193 8.08283e-19)
(0.391334 0.155284 5.26039e-19)
(2.68202 0.486724 1.56903e-20)
(2.25238 0.428294 -2.71548e-19)
(1.74743 0.352324 -6.46745e-19)
(1.15476 0.247645 2.05638e-18)
(0.450322 0.104144 -3.26826e-19)
(2.82546 0.173874 -1.17051e-18)
(2.37727 0.152648 -1.60648e-18)
(1.8494 0.125348 -7.28683e-19)
(1.22671 0.0878343 7.96268e-19)
(0.480854 0.0366867 -3.25826e-19)
(0.241453 0.41759 -2.15381e-18)
(0.171175 0.35403 -1.82631e-18)
(0.10359 0.277534 3.18084e-19)
(0.0458466 0.184011 -4.87711e-20)
(-0.00159151 0.0677296 3.42458e-20)
(0.371221 0.595416 -8.00275e-19)
(0.274265 0.510919 -6.75725e-19)
(0.178896 0.400104 1.42395e-20)
(0.0926571 0.259981 -2.63751e-20)
(0.0169131 0.096698 2.68449e-20)
(0.581646 0.754561 2.18777e-18)
(0.446196 0.650514 -1.50755e-19)
(0.307949 0.507773 -1.45344e-19)
(0.174427 0.328891 -2.15589e-19)
(0.0484499 0.12408 1.67031e-19)
(0.862027 0.875527 -1.29424e-18)
(0.679139 0.758803 1.97302e-18)
(0.485267 0.594403 2.99395e-19)
(0.288338 0.388537 1.02681e-19)
(0.0925563 0.149214 -1.18469e-19)
(1.2037 0.925421 -4.40886e-19)
(0.969106 0.811957 -4.57631e-19)
(0.70858 0.64515 3.59412e-19)
(0.433311 0.429187 3.58905e-19)
(0.148456 0.16853 1.89543e-21)
(0.945923 0.169212 -4.72851e-19)
(1.49587 0.131164 5.01448e-20)
(1.33929 0.196209 1.8851e-20)
(1.01584 0.498686 -4.95817e-19)
(0.599874 0.646019 6.49083e-20)
(0.953252 0.0899362 1.76287e-19)
(1.51117 0.104238 3.10009e-19)
(1.36891 0.246426 2.77674e-19)
(1.06174 0.615016 -5.07916e-20)
(0.784978 0.804279 7.54766e-19)
(0.95929 0.0101716 6.04418e-20)
(1.5285 0.0794946 -2.14387e-20)
(1.36843 0.297949 -5.73836e-20)
(1.16479 0.714319 -4.08511e-19)
(1.03719 0.938836 9.55415e-20)
(0.961892 -0.0681075 -1.87541e-20)
(1.53234 0.0583278 -7.49699e-19)
(1.36801 0.350738 7.40257e-20)
(1.32568 0.782568 1.18381e-18)
(1.33494 1.0431 9.4719e-19)
(0.95893 -0.143739 -1.84643e-20)
(1.50429 0.0507046 2.21426e-19)
(1.38624 0.401667 -6.05324e-20)
(1.50964 0.824086 -3.72546e-19)
(1.63619 1.0927 -2.72765e-18)
(0.941662 -0.237696 2.52956e-19)
(1.44678 0.0186864 5.0469e-19)
(1.46214 0.396083 -3.89335e-20)
(1.7668 0.8021 3.12058e-18)
(2.15338 1.14377 -5.51923e-18)
(0.888125 -0.345347 -2.51304e-20)
(1.31245 -0.0298354 -6.45913e-19)
(1.39961 0.283994 6.92969e-21)
(1.84123 0.596102 -3.07134e-18)
(2.59421 0.900808 1.67019e-18)
(0.787694 -0.41159 5.54036e-18)
(1.07725 -0.0917494 6.94626e-35)
(1.13448 0.150585 -2.11893e-18)
(1.57587 0.340705 2.62744e-18)
(2.4565 0.529749 5.03197e-18)
(0.634986 -0.291789 1.51147e-19)
(0.71226 -0.0719754 5.26947e-19)
(0.73185 0.0519584 2.47077e-19)
(1.07522 0.135293 6.2256e-19)
(1.75836 0.220513 -8.64544e-18)
(0.322762 -0.0431145 -4.30799e-18)
(0.293585 0.00572085 2.852e-19)
(0.264985 -0.0133684 1.11229e-18)
(0.393414 -0.0240331 -7.69982e-19)
(0.686207 -0.000472892 -1.46647e-18)
(2.3487 1.12132 4.69173e-18)
(2.78733 1.01262 3.47405e-18)
(3.14089 0.803415 -5.69293e-18)
(3.41899 0.519617 -1.46166e-17)
(3.58239 0.185885 1.5764e-17)
(3.07878 1.01887 5.0092e-18)
(3.35398 0.795234 2.56326e-17)
(3.5569 0.56067 7.24221e-18)
(3.70106 0.331823 -3.08277e-17)
(3.77791 0.111137 -5.17327e-18)
(2.90566 0.592023 -7.22779e-18)
(2.98594 0.448105 -3.38026e-18)
(3.05216 0.312106 -6.29665e-18)
(3.09523 0.181715 -6.88932e-18)
(3.114 0.0584214 6.52287e-18)
(2.10628 0.265886 5.41646e-18)
(2.13014 0.20573 -4.04566e-19)
(2.16255 0.143027 4.87141e-18)
(2.18313 0.0821257 6.28937e-18)
(2.19077 0.0259937 -5.88796e-18)
(0.842557 0.0220523 -5.74743e-19)
(0.851948 0.0156517 3.5213e-18)
(0.868643 0.00913033 2.44328e-18)
(0.877497 0.00479196 -5.16949e-18)
(0.87984 0.00136129 -3.84295e-20)
(0.28199 0.0207607 5.52153e-19)
(0.656792 0.040474 -7.43629e-19)
(0.973296 0.0440745 -8.18473e-19)
(0.944464 0.0274365 -1.51804e-18)
(0.697969 0.016389 -6.63747e-19)
(0.245627 0.0554705 7.45797e-19)
(0.591375 0.107095 1.44152e-18)
(0.864821 0.125164 -6.97421e-19)
(0.94009 0.0970159 1.96084e-18)
(0.724294 0.0532512 -2.70093e-18)
(0.185657 0.0742783 4.96273e-19)
(0.476474 0.145921 -1.39886e-18)
(0.707886 0.184792 -9.13944e-19)
(0.85744 0.175441 -1.81037e-18)
(0.741675 0.101248 -2.8625e-18)
(0.123327 0.0774872 -7.72692e-19)
(0.34482 0.160382 -1.37667e-18)
(0.534619 0.214913 4.39914e-18)
(0.677822 0.233348 -3.66698e-19)
(0.713154 0.180055 2.2548e-18)
(0.0752847 0.0723773 -6.23059e-19)
(0.230744 0.160127 1.56429e-18)
(0.372327 0.224558 6.12053e-19)
(0.482874 0.2578 -1.29571e-18)
(0.561378 0.258486 -1.74966e-19)
(0.0451548 0.0637838 8.3924e-20)
(0.149962 0.148783 -1.22178e-18)
(0.247764 0.212166 -9.44543e-19)
(0.325465 0.234107 -8.81153e-20)
(0.371258 0.22385 -5.00469e-20)
(0.0264682 0.0557144 3.12285e-19)
(0.0950823 0.134324 5.91936e-19)
(0.160898 0.18482 -2.10505e-19)
(0.213773 0.195419 2.60255e-19)
(0.25364 0.185349 1.71863e-19)
(0.0133354 0.0488613 2.49662e-19)
(0.0586654 0.111381 1.32859e-18)
(0.10379 0.121078 -1.24253e-18)
(0.142812 0.107242 -2.79008e-18)
(0.179059 0.0857848 4.08279e-19)
(0.00622534 0.0393054 -2.38439e-19)
(0.0427074 0.0486797 -1.81014e-18)
(0.0799904 0.0216498 3.21976e-18)
(0.120099 -0.0101576 1.31386e-18)
(0.16164 -0.0439591 -2.69301e-19)
(0.00990541 0.00145177 2.09553e-19)
(0.0421212 -0.0503743 -4.51816e-19)
(0.0822301 -0.0965419 9.0054e-20)
(0.130935 -0.144511 1.04846e-19)
(0.181655 -0.190748 3.40017e-22)
(0.338766 0.0719091 -7.52358e-20)
(0.613818 -0.0423553 -1.22888e-18)
(0.704359 -0.0133903 2.54395e-19)
(0.715351 0.00737464 4.04383e-19)
(0.69627 0.00436775 1.18061e-20)
(0.303082 -0.0343993 -1.00172e-19)
(0.750529 -0.115044 1.47793e-18)
(0.888625 -0.0229809 9.19899e-19)
(0.914641 0.0114233 7.5425e-20)
(0.899862 0.00741254 -3.61268e-20)
(0.320106 -0.149979 -8.15219e-19)
(0.835496 -0.198477 3.17027e-18)
(1.0506 -0.0421957 -1.81577e-19)
(1.10209 0.0142362 -3.47429e-19)
(1.09272 0.0104689 6.84391e-20)
(0.376419 -0.28886 1.10481e-18)
(0.885086 -0.298257 -2.7158e-18)
(1.17372 -0.0829654 -5.37113e-19)
(1.26952 0.011507 -3.15163e-20)
(1.27185 0.0120826 8.5915e-21)
(0.463064 -0.437377 4.97839e-19)
(0.920319 -0.405912 -5.42056e-19)
(1.25245 -0.143375 4.83281e-19)
(1.40618 -0.00235439 1.15221e-19)
(1.43349 0.0101896 1.61021e-20)
(0.182979 -0.0449775 9.55132e-19)
(0.145017 -0.0052091 0)
(0.162745 0.000955255 1.16449e-19)
(0.161966 -0.000551301 -9.10895e-21)
(0.155165 -0.000883433 -7.09896e-20)
(0.399754 0.0699902 0)
(0.408755 -0.000503962 0)
(0.467143 -0.00412855 5.05643e-20)
(0.467656 0.00372267 -3.8038e-20)
(0.449562 0.00178788 4.95926e-20)
(0.162697 -0.000821315 -3.68483e-19)
(0.186416 -0.00179197 3.10778e-18)
(0.213227 -0.00502023 -6.86336e-19)
(0.229825 -0.0149884 -3.11713e-18)
(0.24572 -0.0170101 -7.97093e-19)
(0.432059 0.00444157 6.09953e-19)
(0.48459 0.019697 4.11569e-18)
(0.536488 0.0466996 -6.73019e-18)
(0.567663 0.0806177 2.20942e-18)
(0.598359 0.162223 3.79746e-18)
(0.370765 -0.220738 -3.32726e-19)
(0.324398 -0.231713 -9.3296e-20)
(0.248411 -0.212722 -3.32918e-19)
(0.150773 -0.15075 3.88958e-19)
(0.0458715 -0.0645749 1.14005e-19)
(0.257474 -0.169944 4.23189e-19)
(0.21506 -0.182011 1.41438e-18)
(0.162385 -0.1773 2.57651e-19)
(0.0967102 -0.135176 2.36553e-19)
(0.0269216 -0.0572042 -1.88722e-20)
(0.19318 -0.0551796 -3.12274e-19)
(0.151617 -0.077738 -1.0587e-19)
(0.108794 -0.0952949 1.63407e-18)
(0.0623178 -0.097471 2.85305e-19)
(0.0132712 -0.0480786 -3.14475e-19)
(0.178982 0.0866917 -6.37413e-19)
(0.13288 0.0528219 -7.06286e-19)
(0.0879264 0.0190731 1.31163e-18)
(0.0495845 -0.0110622 1.60286e-18)
(0.0112342 -0.0300454 1.98998e-19)
(0.189299 0.244305 1.24437e-19)
(0.134753 0.197986 -1.19957e-19)
(0.0822194 0.148147 2.48903e-19)
(0.03841 0.0970152 6.25485e-19)
(-0.00220432 0.0356297 9.34328e-20)
(0.697966 -0.0163444 1.53163e-18)
(0.944469 -0.0274141 -1.80087e-18)
(0.973105 -0.0442012 2.27011e-18)
(0.656804 -0.0405366 3.64664e-19)
(0.282023 -0.0207694 5.36707e-19)
(0.724283 -0.0531455 1.77273e-18)
(0.939947 -0.097032 7.9469e-18)
(0.864621 -0.12527 1.03371e-18)
(0.591428 -0.107135 1.34956e-18)
(0.245723 -0.0554918 -4.78533e-19)
(0.741585 -0.101009 -1.22124e-18)
(0.856838 -0.175283 -2.29677e-18)
(0.70781 -0.184856 2.92459e-18)
(0.476544 -0.145991 -1.08251e-19)
(0.18578 -0.0743144 3.39509e-19)
(0.712615 -0.179885 1.6732e-20)
(0.677136 -0.233311 -7.68702e-18)
(0.534659 -0.215249 -6.00053e-18)
(0.344959 -0.160716 1.09173e-18)
(0.12351 -0.0775911 5.08046e-19)
(0.559022 -0.257043 4.67226e-19)
(0.481885 -0.257277 5.33661e-19)
(0.372409 -0.225297 -8.99951e-19)
(0.231005 -0.160997 -8.88483e-19)
(0.0756328 -0.0726338 -5.145e-21)
(0.728009 0.373162 1.17628e-18)
(0.879704 0.127905 -1.89755e-19)
(0.676372 0.0203886 2.50217e-19)
(0.643784 0.0353094 -7.47919e-19)
(0.362642 -0.0620613 -1.00656e-19)
(0.828091 0.398182 -1.70964e-19)
(1.08629 0.15816 -5.84399e-19)
(0.868084 0.0391185 8.39199e-19)
(0.803901 0.0980308 1.67215e-18)
(0.340373 0.0537762 1.02952e-19)
(0.893279 0.372832 -2.27484e-18)
(1.26473 0.17237 -3.79284e-20)
(1.03973 0.063408 2.52844e-19)
(0.908453 0.177078 1.71944e-18)
(0.364982 0.176366 -1.45423e-18)
(0.926412 0.318737 1.52553e-18)
(1.40117 0.174402 1.59054e-20)
(1.17907 0.10036 -2.20989e-19)
(0.964963 0.275623 -8.08087e-19)
(0.416386 0.323232 -5.98976e-19)
(0.938769 0.247055 1.86379e-19)
(1.47721 0.157979 4.15536e-20)
(1.27751 0.146253 -9.46442e-20)
(0.994491 0.383653 -1.15773e-19)
(0.487009 0.480813 1.36921e-18)
(0.275718 0.0483731 0)
(0.244281 -0.0113038 6.51012e-19)
(0.157417 -0.0159242 1.26954e-19)
(0.150119 0.00553743 -1.10051e-19)
(0.184388 0.0441272 -1.80798e-18)
(0.57357 0.266368 -1.01988e-17)
(0.609182 0.0751807 -2.56698e-18)
(0.44454 0.0136218 5.02119e-19)
(0.422963 0.000119705 -6.50019e-19)
(0.40755 -0.0683455 -6.62153e-19)
(0.245849 0.0169758 -8.1041e-22)
(0.229919 0.0150777 1.92878e-18)
(0.213305 0.00506435 5.24624e-19)
(0.186466 0.00180204 3.22993e-19)
(0.162713 0.000825191 0)
(0.599188 -0.162142 -1.16762e-19)
(0.568196 -0.0803435 2.54645e-18)
(0.536591 -0.046481 -1.38136e-19)
(0.484649 -0.0196442 -2.70621e-19)
(0.432082 -0.00441928 7.60544e-19)
)
;

boundaryField
{
    left
    {
        type            fixedValue;
        value           uniform (1 0 0);
    }
    right
    {
        type            zeroGradient;
    }
    down
    {
        type            noSlip;
    }
    up
    {
        type            noSlip;
    }
    cylinder
    {
        type            noSlip;
    }
    defaultFaces
    {
        type            empty;
    }
}


// ************************************************************************* //
