# Selection   : all
# Cells       : 440
# Volume      : 7.374263e+01
# Time        	min(p)
5.515         	-1.706370e+00
5.56          	-1.701502e+00
5.61          	-1.679024e+00
