/*--------------------------------*- C++ -*----------------------------------*\
  =========                 |
  \\      /  F ield         | OpenFOAM: The Open Source CFD Toolbox
   \\    /   O peration     | Website:  https://openfoam.org
    \\  /    A nd           | Version:  13
     \\/     M anipulation  |
\*---------------------------------------------------------------------------*/
FoamFile
{
    format      ascii;
    class       volScalarField;
    location    "0.12";
    object      p;
}
// * * * * * * * * * * * * * * * * * * * * * * * * * * * * * * * * * * * * * //

dimensions      [0 2 -2 0 0 0 0];

internalField   nonuniform List<scalar> 
440
(
8.6758
11.4283
13.773
13.9171
10.9102
21.5264
24.908
27.897
28.5822
26.6761
42.038
45.0688
47.7698
48.5571
47.388
68.1608
70.2584
72.1711
72.8257
72.1345
97.4353
98.2518
99.0481
99.4472
99.412
0.426641
0.256705
0.651042
1.18358
1.53351
-0.606604
-1.38593
-1.26125
-0.65815
-0.0474822
-0.968705
-1.90301
-1.93983
-1.29527
-0.224791
0.295173
0.155074
0.504265
1.39005
3.20877
3.99992
5.30996
6.71309
8.09402
10.3038
2.84947
3.21379
2.15806
1.26353
0.427643
1.75517
3.00433
2.05438
1.2064
0.413064
0.569
2.59971
1.94267
1.16364
0.402896
0.287528
2.05047
1.78333
1.1316
0.397508
2.26708
1.53035
1.5643
1.10168
0.396738
5.28137
1.35537
1.29232
1.05294
0.396118
7.52883
1.53643
1.24754
1.06204
0.395299
10.7432
3.22255
1.8979
1.20812
0.389044
14.6972
5.72768
2.99896
1.4371
0.381583
17.4866
8.21895
4.24124
1.76441
0.438916
101.453
76.6003
54.0816
33.9074
13.1273
103.151
79.7036
58.2925
39.8088
24.242
105.048
83.4637
63.2326
45.9847
33.6313
105.929
85.7838
67.2673
51.9517
41.4317
105.847
85.5037
67.0898
52.0188
41.6822
220.654
217.189
216.898
219.016
221.75
203.453
200.995
201.257
203.999
207.291
181.308
179.539
179.904
182.327
185.206
155.512
154.17
154.376
155.97
157.868
127.631
126.918
126.858
127.319
127.912
236.183
236.59
237.161
237.483
237.144
236.905
237.505
237.982
237.871
236.864
235.819
236.769
237.138
236.826
235.817
230.933
232.525
233.08
233.216
233.123
222.401
224.266
225.283
226.499
227.858
237.391
235.63
235.685
234.63
234.876
237.343
235.614
235.679
234.628
235.554
237.342
235.581
235.667
234.777
236.2
237.386
235.528
235.687
235.02
235.812
237.465
235.461
235.753
235.182
233.062
237.592
235.391
235.803
234.928
229.39
237.832
235.326
235.721
234.647
227.104
238.553
235.14
235.058
232.973
224.109
242.222
235.106
233.856
230.314
220.317
251.063
235.762
232.779
227.669
217.493
218.491
196.978
175.785
152.499
127.213
208.138
192.146
173.1
151.195
127.424
199.682
186.992
169.394
148.856
127.097
192.464
181.518
165.846
147.017
126.68
192.225
181.495
166.103
147.419
126.912
97.1491
96.2723
95.8244
95.0575
94.901
58.0739
56.1262
54.4199
52.4982
51.7321
30.2507
27.9052
25.1415
22.8443
21.5188
15.8042
13.3854
10.9258
8.91328
7.94105
9.93867
8.0565
6.69597
5.7439
5.15374
6.62212
5.53864
5.01237
4.96798
5.07512
4.60324
4.18299
4.17336
4.38303
4.56863
3.25733
3.31405
3.60522
3.94474
4.12435
2.34863
2.64652
3.10738
3.46342
3.6235
1.45633
1.75432
2.27714
2.68369
2.88054
4.46368
3.94035
2.81633
1.57851
0.514059
4.4927
3.78121
2.72487
1.53234
0.503338
4.25765
3.55578
2.59396
1.48164
0.48964
3.94279
3.38185
2.4376
1.40965
0.468222
3.53287
3.29515
2.28619
1.33403
0.44663
5.32305
3.88626
2.68144
1.53357
0.502495
4.62324
4.01059
2.81102
1.59186
0.51846
95.6568
54.9053
28.2766
15.2593
10.2447
94.4356
51.8941
23.7455
10.2326
6.03254
232.87
232.965
232.95
232.482
231.427
233.512
233.706
233.974
234.062
233.729
234.06
234.241
234.641
235.07
235.274
234.559
234.721
235.124
235.711
236.117
235.223
235.469
235.953
236.488
236.665
142.728
142.536
141.708
141.197
140.286
185.958
185.148
183.17
181.403
179.425
216.25
214.879
212.531
209.717
207.342
229.874
228.864
226.82
224.33
221.885
232.719
232.101
231.147
229.79
227.901
240.065
235.419
235.416
234.283
233.561
238.55
235.477
235.486
234.455
233.642
237.931
235.56
235.565
234.645
233.94
237.648
235.611
235.623
234.742
234.225
237.489
235.63
235.662
234.712
234.481
253.319
236.697
235.845
234.288
232.656
244.264
235.652
235.382
234.177
233.349
227.662
222.592
209.487
182.778
141.977
231.863
227.627
214.046
185.803
143.2
)
;

boundaryField
{
    left
    {
        type            zeroGradient;
    }
    right
    {
        type            fixedValue;
        value           uniform 0;
    }
    down
    {
        type            zeroGradient;
    }
    up
    {
        type            zeroGradient;
    }
    cylinder
    {
        type            zeroGradient;
    }
    defaultFaces
    {
        type            empty;
    }
}


// ************************************************************************* //
