/*--------------------------------*- C++ -*----------------------------------*\
  =========                 |
  \\      /  F ield         | OpenFOAM: The Open Source CFD Toolbox
   \\    /   O peration     | Website:  https://openfoam.org
    \\  /    A nd           | Version:  13
     \\/     M anipulation  |
\*---------------------------------------------------------------------------*/
FoamFile
{
    format      ascii;
    class       volScalarField;
    location    "17.5";
    object      p;
}
// * * * * * * * * * * * * * * * * * * * * * * * * * * * * * * * * * * * * * //

dimensions      [0 2 -2 0 0 0 0];

internalField   nonuniform List<scalar> 
440
(
-0.688859
-0.691369
-0.770293
-0.709936
-0.788361
-0.653162
-0.654826
-0.667933
-0.674653
-0.677618
-0.748792
-0.71943
-0.695508
-0.667333
-0.632565
-0.864153
-0.819263
-0.747929
-0.662504
-0.573604
-0.954953
-0.893883
-0.760142
-0.619489
-0.4895
-1.28417
-1.26277
-1.23865
-1.22655
-1.23641
-1.19996
-1.16254
-1.11472
-1.07355
-1.04635
-1.12276
-1.11935
-1.12755
-1.14107
-1.15306
-0.952424
-1.00753
-1.10623
-1.19492
-1.21703
-0.231967
-0.400664
-0.594779
-0.67763
-0.661381
-1.09508
-1.70513
-0.69431
-0.611212
0.0476021
-0.564436
-1.59087
-1.08408
-0.529649
0.0227032
-0.369503
-1.45285
-1.30352
-0.472536
-5.88427e-05
-0.202014
-1.26044
-1.44095
-0.448652
-0.0201349
-0.137016
-0.920133
-1.47873
-0.44081
-0.0358454
0.257597
-0.543548
-1.39152
-0.408087
-0.054281
-0.124604
-0.384989
-1.00141
-0.355478
-0.0818541
0.00411768
-0.119817
-0.601143
-0.304969
-0.111154
-0.0467642
-0.0419706
-0.413993
-0.279653
-0.110815
0.0352045
0.0868973
-0.214308
-0.270206
-0.127312
-0.262971
-0.399491
-0.556414
-0.725032
-0.821585
-0.0276136
-0.156965
-0.231665
-0.271887
-0.28336
0.12556
0.0214139
-0.0466632
-0.083194
-0.0991896
0.22345
0.125965
0.0513337
0.00227724
-0.0304353
0.268371
0.172153
0.0944274
0.0484165
0.0259748
0.971964
0.839074
0.670727
0.47841
0.257892
0.588202
0.439333
0.253947
0.0440439
-0.194032
0.205642
0.0513811
-0.143338
-0.365558
-0.573513
-0.119673
-0.279331
-0.472749
-0.681981
-0.839507
-0.343733
-0.498058
-0.674891
-0.858446
-0.958882
2.15283
2.18591
2.21886
2.23927
2.2419
1.97637
1.99852
2.01724
2.02054
2.00326
1.75729
1.75057
1.7234
1.67482
1.60147
1.50459
1.47332
1.4095
1.31595
1.1939
1.24569
1.15755
1.03845
0.89476
0.718524
1.88305
1.8743
1.86578
1.91858
2.02996
1.87393
1.86325
1.85011
1.89593
1.95218
1.86578
1.8486
1.83176
1.86022
1.85634
1.85887
1.83138
1.81077
1.81355
1.70647
1.85306
1.81355
1.78762
1.76209
1.54359
1.84909
1.78297
1.75585
1.67073
1.36442
1.84839
1.74929
1.73361
1.56841
1.37042
1.85944
1.73398
1.71592
1.50879
1.31671
1.85015
1.71231
1.70833
1.46866
1.27695
1.8908
1.70344
1.70875
1.44742
1.26478
0.941712
0.668861
0.34836
0.0857078
-0.110449
0.885329
0.689938
0.468103
0.280166
0.105529
0.898604
0.740741
0.570823
0.407998
0.253426
0.941798
0.799461
0.648023
0.491596
0.349935
0.96645
0.829752
0.686084
0.532635
0.397816
-1.78764
-1.60653
-1.40987
-1.24544
-1.14706
-1.85147
-1.7713
-1.61383
-1.47588
-1.3829
-1.75965
-1.70558
-1.59818
-1.49178
-1.40362
-1.58806
-1.53749
-1.4757
-1.40994
-1.34619
-1.41993
-1.39172
-1.35406
-1.32159
-1.30815
-1.33184
-1.32132
-1.27763
-1.3053
-1.27012
-1.31255
-1.30072
-1.27359
-1.28889
-1.26435
-1.3182
-1.30282
-1.28
-1.26129
-1.2518
-1.34936
-1.33814
-1.32585
-1.31954
-1.33634
-1.34107
-1.33223
-1.32564
-1.33259
-1.36211
-1.16406
-0.848546
-0.580997
-0.244913
0.114163
-1.19047
-0.913194
-0.654639
-0.383195
0.129958
-1.11761
-1.08218
-0.801139
-0.571183
0.133851
-1.15327
-1.38099
-0.793959
-0.669328
0.114264
-1.28803
-1.65339
-0.64259
-0.67375
0.0784117
-0.577146
-0.954532
-0.656493
-0.185645
0.0967565
-1.01081
-0.914232
-0.586373
-0.173668
0.100862
-1.09161
-1.32308
-1.31912
-1.24758
-0.986269
-1.1132
-1.33515
-1.34011
-1.27468
-1.23141
1.73576
1.70247
1.64933
1.57761
1.48368
1.9376
1.95377
1.95201
1.93057
1.89026
2.11201
2.14244
2.1629
2.16943
2.16094
2.21473
2.25395
2.29539
2.32897
2.34363
2.22991
2.26882
2.31231
2.34906
2.36635
-0.638947
-0.762811
-0.956855
-1.18789
-1.47314
0.0270074
-0.128814
-0.335625
-0.585539
-0.916389
0.634983
0.474049
0.280547
0.0511844
-0.246196
1.12316
0.99668
0.843321
0.656698
0.425484
1.51124
1.42188
1.30494
1.16398
0.996481
1.94341
1.9025
1.8916
1.89333
1.8989
1.92845
1.90013
1.89136
1.91243
1.97046
1.91571
1.89633
1.89177
1.93284
2.05316
1.90388
1.89113
1.88673
1.93869
2.06826
1.89298
1.8841
1.87781
1.93417
2.06727
1.99821
1.90695
1.87749
1.81259
1.76891
1.95336
1.89855
1.8732
1.83599
1.77577
1.38374
1.13639
0.707406
0.0829296
-0.600345
1.4757
1.17432
0.724571
0.104522
-0.592691
)
;

boundaryField
{
    left
    {
        type            zeroGradient;
    }
    right
    {
        type            fixedValue;
        value           uniform 0;
    }
    down
    {
        type            zeroGradient;
    }
    up
    {
        type            zeroGradient;
    }
    cylinder
    {
        type            zeroGradient;
    }
    defaultFaces
    {
        type            empty;
    }
}


// ************************************************************************* //
