/*--------------------------------*- C++ -*----------------------------------*\
  =========                 |
  \\      /  F ield         | OpenFOAM: The Open Source CFD Toolbox
   \\    /   O peration     | Website:  https://openfoam.org
    \\  /    A nd           | Version:  13
     \\/     M anipulation  |
\*---------------------------------------------------------------------------*/
FoamFile
{
    format      ascii;
    class       volVectorField;
    location    "0.6";
    object      U;
}
// * * * * * * * * * * * * * * * * * * * * * * * * * * * * * * * * * * * * * //

dimensions      [0 1 -1 0 0 0 0];

internalField   nonuniform List<vector>
1800
(
(0.00997479336717 -0.0234615307727 5.32958975731e-17)
(0.537666925349 -0.458366825883 5.04885622253e-18)
(1.03766281886 -0.845239914552 -1.98368186592e-18)
(1.31918484566 -1.03274588602 -1.01914142597e-17)
(1.43985573335 -1.07847005036 -4.6775139538e-18)
(1.47986296475 -1.05503209157 1.00991275027e-17)
(1.48606740665 -1.00547870263 -2.30292561619e-18)
(1.47935685207 -0.949383253279 -2.01298745171e-18)
(1.46862283922 -0.890801371473 3.23996768106e-19)
(1.43562482522 -0.842381413156 1.61075045553e-18)
(0.0333165750947 -0.0401547246448 -1.84331267523e-18)
(0.643100932265 -0.464108836393 -3.41028158883e-19)
(1.1977349256 -0.830579314722 2.8453941464e-19)
(1.49837192215 -1.00252696973 -4.75071111675e-19)
(1.61863207803 -1.03992881821 2.08646582716e-19)
(1.65128484894 -1.01314264266 1.20148755886e-18)
(1.64925011301 -0.962447918267 -1.02163263705e-18)
(1.63579610334 -0.905529705445 4.15480214292e-19)
(1.61958566847 -0.84789957114 8.41509608138e-19)
(1.59568084137 -0.804449512517 -4.21214421571e-19)
(0.0639334016602 -0.0562039290814 -2.79048139311e-20)
(0.755357688618 -0.458105021005 1.8495241266e-19)
(1.35867945461 -0.795367168997 3.45026860243e-19)
(1.67297073169 -0.948064353043 -2.83296216932e-19)
(1.7892872683 -0.977212417659 -1.51449789469e-18)
(1.81242267333 -0.949206047568 3.39021325918e-19)
(1.80022269579 -0.900934822849 5.98319307832e-19)
(1.77717312066 -0.848457117487 -7.69301865143e-20)
(1.75207080403 -0.796907360678 -5.02123839494e-21)
(1.71920054904 -0.756335839716 -3.39723589862e-20)
(0.101904650054 -0.0699012164211 7.63861957643e-21)
(0.872352231636 -0.438288163362 -9.39411400875e-20)
(1.51692629899 -0.738348219549 -2.77765431415e-19)
(1.83942141506 -0.86858871377 7.01755353299e-20)
(1.94937397708 -0.889162211214 3.92070697077e-19)
(1.96278131928 -0.860475988905 3.64555531725e-20)
(1.9413634546 -0.814867264558 -2.4306076238e-20)
(1.91036360695 -0.765969293485 5.49288182811e-19)
(1.87829524773 -0.718159541514 4.54435018919e-19)
(1.84215407972 -0.68197442002 -1.50693739924e-19)
(0.14691394305 -0.0797538073416 9.23982294254e-20)
(0.991373485314 -0.403938522103 1.58360761555e-19)
(1.66809822892 -0.660732748343 -8.26499717295e-20)
(1.99250399895 -0.767031963905 -9.68049303342e-20)
(2.09331876523 -0.780201290377 -1.18488767942e-18)
(2.09637076027 -0.752945377079 1.06016519727e-20)
(2.06609442219 -0.712394304381 9.34088523101e-19)
(2.02776621409 -0.669734071526 3.2333997477e-19)
(1.98949055627 -0.628793335412 2.26226818778e-20)
(1.94937862453 -0.597536191492 -2.01047594503e-19)
(0.197863560225 -0.0839648974677 -8.0115099087e-20)
(1.10876302374 -0.353846673335 1.89887577015e-19)
(1.80758815197 -0.562844288197 1.09724936549e-18)
(2.12787459598 -0.644604446838 -8.10087251855e-19)
(2.21752505668 -0.651588110988 -8.61255901258e-19)
(2.21036938843 -0.627129065229 1.43895135984e-18)
(2.17217197703 -0.592662854877 -1.04056475251e-18)
(2.12759576486 -0.556882061345 -1.14882652287e-18)
(2.08410403666 -0.522873603962 8.32503354558e-19)
(2.0408981981 -0.497336794299 -3.14850532821e-20)
(0.253203786865 -0.0811208620943 -5.14785059413e-21)
(1.22070126434 -0.288116553088 -5.18047089991e-19)
(1.93114270135 -0.446878743741 -2.92704208533e-18)
(2.24163114182 -0.504890063182 1.34721248278e-18)
(2.3186424788 -0.507710835405 2.17754626126e-18)
(2.30190112348 -0.487843116765 -6.32384973943e-21)
(2.25703190955 -0.460919337242 -2.81571294667e-18)
(2.20754068891 -0.433236257887 -1.75247934002e-21)
(2.16015465451 -0.407201854184 2.52738967751e-18)
(2.11454497591 -0.387935297836 6.65262578166e-19)
(0.310676022031 -0.0700214668023 4.8740173451e-20)
(1.32288491349 -0.20725377976 4.40211887832e-19)
(2.03452809614 -0.31511462918 2.25907294161e-18)
(2.3302996408 -0.351072995762 -7.96101781224e-20)
(2.39405457586 -0.351970502293 -1.40340818928e-18)
(2.36876947608 -0.338137348188 -4.34915047698e-19)
(2.31866516364 -0.319700012387 0)
(2.26559143739 -0.30078847804 9.89797121169e-19)
(2.21544292894 -0.28317393876 9.35661796408e-21)
(2.16827486812 -0.270701553705 -8.04638959256e-19)
(0.367586607141 -0.0500861378963 7.85362290537e-21)
(1.41123304319 -0.112875401848 8.95729493773e-19)
(2.11424741599 -0.170884624604 2.03435527951e-18)
(2.3914588861 -0.187311760559 -1.97342384281e-18)
(2.44224601033 -0.188746330164 -1.42744457748e-18)
(2.40985660047 -0.182145271057 4.4541697898e-19)
(2.35607400122 -0.172912944106 -1.87808247378e-18)
(2.30086487166 -0.163232939024 -1.27935209965e-18)
(2.24924307388 -0.154300647302 1.51994269765e-18)
(2.20135912855 -0.148774032552 1.29363310054e-18)
(0.420964157661 -0.0214296597083 5.55940942854e-20)
(1.48215556286 -0.007317232215 6.17468822902e-19)
(2.16731867855 -0.0177363703362 3.83437039423e-19)
(2.42356688329 -0.017848610648 -2.87482205546e-18)
(2.46242181712 -0.0222495937435 3.83820364449e-20)
(2.42458522009 -0.0234734425993 4.25196328788e-18)
(2.36859440971 -0.0238745658554 -2.25749103742e-18)
(2.31260610103 -0.0236505122824 -1.26530261377e-18)
(2.26073662853 -0.0233954975368 4.13920094918e-19)
(2.21310266349 -0.0247074688494 -9.38867749877e-19)
(-0.005123586398 0.000768236504601 1.07175818073e-19)
(-0.00280131058964 -0.088455717323 6.6107486338e-20)
(0.0423585391316 -0.174807225477 -1.66009051023e-21)
(0.102617591025 -0.223207631285 -8.68114875829e-21)
(0.168093908156 -0.241607472008 -2.13118196657e-21)
(0.232650172139 -0.24373088864 -4.91468862446e-20)
(0.293186314406 -0.238605024369 1.36393237445e-20)
(0.348801687583 -0.230824195163 -2.20677915639e-20)
(0.399324217165 -0.222465153404 3.13474036468e-21)
(0.44699477066 -0.21560924676 -8.1997809052e-21)
(-0.00680359450693 0.0119648659151 3.49132793478e-20)
(0.0105224340271 -0.132866695172 7.9998298671e-20)
(0.0705771908442 -0.278481216702 -1.03612031865e-19)
(0.139005809006 -0.359954437115 -4.65998096459e-20)
(0.207266104363 -0.389543472569 -7.54571094045e-20)
(0.271793122206 -0.390869868604 -8.69268326705e-20)
(0.331074376361 -0.379688041998 3.61031281825e-20)
(0.385001170808 -0.364042803584 -1.4497221124e-20)
(0.433636115115 -0.347619407867 -2.38931503401e-21)
(0.48032456059 -0.335053568672 -7.18968762425e-21)
(-0.0101111589077 0.0213506191367 -4.03318526672e-20)
(0.0316079693507 -0.177222342178 1.73337364597e-19)
(0.116255785968 -0.378989347583 7.10626442368e-20)
(0.198269299324 -0.491324514145 2.74241877267e-19)
(0.271191139758 -0.53099367653 5.09819430051e-20)
(0.335692188168 -0.531135348364 -2.97909289136e-19)
(0.392918772336 -0.513904175255 -2.64916410096e-20)
(0.444066837541 -0.490592291658 9.66904103511e-20)
(0.489610970292 -0.466442886734 -4.30515019237e-20)
(0.534788429819 -0.448332245111 -7.95996792115e-21)
(-0.0144521616392 0.0282335921199 -1.12342197508e-19)
(0.0609661873787 -0.221214124582 -2.69892657677e-20)
(0.17929735571 -0.474559222618 3.17989018026e-20)
(0.279813627534 -0.614548898989 -1.33711676121e-19)
(0.358983406043 -0.662733948725 6.62031556073e-20)
(0.423317113472 -0.661178956141 1.94778102927e-19)
(0.477634326352 -0.637944909224 5.73227967634e-20)
(0.524923185568 -0.607276553758 -1.61063470634e-20)
(0.56624246732 -0.575897662383 2.12251906252e-20)
(0.609385630547 -0.552446039115 -2.65099068642e-21)
(-0.0190234888887 0.0319437061968 0)
(0.0992224490054 -0.2645006034 8.77137160071e-20)
(0.259468451118 -0.563414613077 2.52858737502e-19)
(0.382683755529 -0.72690739251 -2.73306957374e-19)
(0.469288043226 -0.781624258023 -5.79597358418e-19)
(0.533140778584 -0.777779331501 2.0161709524e-19)
(0.583665648509 -0.748672022603 -2.97572022622e-20)
(0.626068388874 -0.711101586615 -9.97081936573e-20)
(0.662155651735 -0.673147776143 0)
(0.702749069875 -0.644574864957 -9.05469576019e-21)
(-0.0228072754702 0.0318947049474 5.21589888504e-20)
(0.147071252998 -0.306614692496 8.81797996815e-20)
(0.356308003745 -0.643747955842 3.93041493151e-20)
(0.505468941942 -0.82575075292 2.40448166764e-19)
(0.600177609941 -0.884694901547 -1.90537580263e-19)
(0.663031407064 -0.87796509467 -2.97002484462e-19)
(0.708879901535 -0.843252306619 5.22792186806e-19)
(0.745472530519 -0.79941825038 5.45289955862e-20)
(0.775534634627 -0.755694125058 -3.14260631663e-19)
(0.813032709442 -0.722166042102 -7.18279729945e-21)
(-0.0245952168557 0.027694763184 -1.8580154176e-21)
(0.205168942896 -0.346846189492 1.36754887912e-20)
(0.469022462257 -0.713680733256 1.33322398242e-19)
(0.646200463761 -0.908591444258 2.6147993089e-20)
(0.749053042852 -0.969314925817 3.21141489097e-19)
(0.810172854415 -0.959238646918 -4.06995981944e-19)
(0.850482791085 -0.919439110243 -4.128864049e-19)
(0.880494333241 -0.870260043405 -3.51102985062e-19)
(0.904015516373 -0.821724645563 2.57972701225e-19)
(0.937589563226 -0.783243360351 2.81261006367e-19)
(-0.0231161558531 0.0193089977835 -1.27329801442e-19)
(0.273852488558 -0.38408718007 5.71172099724e-20)
(0.596140901855 -0.771238517945 2.98180903402e-19)
(0.802036522737 -0.973168834014 -1.7622817576e-19)
(0.912389355174 -1.03335352086 3.34088684919e-19)
(0.970842303861 -1.01984744002 7.98525910083e-19)
(1.00483854898 -0.975977026621 5.56347021082e-19)
(1.02766601746 -0.922964698137 -4.3605687166e-19)
(1.04444108659 -0.870911071598 -2.08493386301e-19)
(1.07215510753 -0.827356851336 3.0077098595e-19)
(-0.0173430854186 0.00727167563566 -1.8519665461e-19)
(0.352679737729 -0.416627649264 -2.92083299718e-19)
(0.735038545903 -0.814109578568 6.53067399367e-19)
(0.968715098066 -1.01715137389 7.47171287332e-19)
(1.08499918954 -1.0747058775 -7.46125857019e-19)
(1.13939010431 -1.05804415261 8.29805651146e-19)
(1.16607540876 -1.01163454328 1.36908522307e-19)
(1.18101142054 -0.956971069078 -1.00960645162e-18)
(1.19080841307 -0.903020798427 -2.48761167316e-19)
(1.2080383799 -0.854643105577 3.38113520343e-19)
(-0.00658683391707 -0.00735347626369 8.3329250045e-20)
(0.440718844784 -0.442132965775 -3.14204413033e-19)
(0.882732182875 -0.839579324709 -4.39961792374e-19)
(1.1417308498 -1.0377588036 7.6019860426e-19)
(1.26131608795 -1.09049817107 6.04162026505e-19)
(1.30927735512 -1.070692636 -7.47689948494e-19)
(1.32640407365 -1.02277933438 -6.20814541471e-19)
(1.33128465869 -0.967809813702 3.70602983489e-19)
(1.33214195815 -0.912289629812 -3.87629116549e-19)
(1.33004266854 -0.86096579328 -2.32007956928e-19)
(0.619724897136 -0.175014037132 3.74727210234e-20)
(0.799299479012 -0.133369045393 -7.35541064236e-20)
(0.888028136512 -0.104222392755 6.08312444928e-21)
(0.93914923964 -0.0814876825088 1.24872301501e-20)
(0.969192729738 -0.0631369649863 -5.88601341982e-21)
(0.986958659534 -0.0481293464428 -2.79375328528e-21)
(0.997860460607 -0.0358237865605 -4.47671736259e-21)
(1.0047160281 -0.0255854153951 -3.12945689045e-21)
(1.0088576754 -0.0174956793555 7.6113381839e-21)
(1.01167322294 -0.00724783128072 2.93665082631e-21)
(0.637512161865 -0.249226519714 1.03819178822e-19)
(0.811225590403 -0.173102125548 1.57215036085e-20)
(0.89650694757 -0.125817616761 4.53294913598e-21)
(0.94558888214 -0.0934824559052 -7.01867827003e-21)
(0.974268551408 -0.0700984890343 -1.56865663577e-20)
(0.991037013884 -0.0522890189089 0)
(1.00116741408 -0.0383569172948 -4.70478391987e-21)
(1.00743450503 -0.027131480198 3.8179475519e-21)
(1.01117082477 -0.018437597284 4.76055871142e-22)
(1.01364792527 -0.00761620848549 -3.54856542839e-21)
(0.665803437693 -0.320893373298 -6.07302713095e-20)
(0.828334830278 -0.211931728832 -4.0730415496e-20)
(0.907776298637 -0.147112024365 1.7937729862e-20)
(0.953493491433 -0.10534353493 -9.1210858422e-21)
(0.980130085067 -0.0769476913981 -3.89933870842e-21)
(0.995569288693 -0.056343516106 6.17894326738e-21)
(1.00474605589 -0.0407932527818 0)
(1.0103244199 -0.0285948617717 0)
(1.01361141194 -0.0193130013947 -2.03783401475e-21)
(1.01569095952 -0.00795365571252 0)
(0.704704895434 -0.388600576205 -3.27874673019e-20)
(0.850391093538 -0.249285592434 7.6844781137e-20)
(0.921764753922 -0.167839523736 8.50910547755e-21)
(0.962847969875 -0.116943603274 0)
(0.986773525509 -0.0836121571718 2.18471549304e-20)
(1.0005476368 -0.0602489757111 -3.31148518491e-21)
(1.00859716688 -0.0431058309104 0)
(1.01338175983 -0.0299587286451 4.02532102733e-21)
(1.01614492825 -0.0201110365532 0)
(1.01783771565 -0.00825577718327 5.7543381136e-22)
(0.754314030577 -0.450957043142 -3.11205872759e-20)
(0.877108945066 -0.284650624376 1.03268457034e-19)
(0.938364728615 -0.187740975286 -4.59322072582e-21)
(0.973622186439 -0.128159166113 0)
(0.994190164459 -0.0900233897819 4.73608882302e-21)
(1.00596110769 -0.0639636714613 6.49480894741e-21)
(1.01269253143 -0.0452679984319 5.95580730401e-21)
(1.01659584246 -0.0312057244995 1.09549746484e-21)
(1.01879431768 -0.0208207415431 -2.15006449557e-21)
(1.02003185749 -0.00851817272263 2.68757737328e-21)
(0.814450302483 -0.506529943303 -6.79809458967e-19)
(0.908124835087 -0.317562612475 -1.84071368317e-19)
(0.957425327877 -0.206616598167 1.84108342951e-21)
(0.985771346727 -0.1388820541 3.23592035286e-20)
(1.00236014488 -0.0961203992783 -7.34432813165e-21)
(1.01179073284 -0.0674486396418 4.76676118726e-21)
(1.01703075032 -0.0472540016033 4.54521385385e-21)
(1.01993215684 -0.032318999409 -8.79563943786e-21)
(1.02150499028 -0.0214311269401 -2.11584907371e-22)
(1.02227016815 -0.00873650313482 2.19291225996e-22)
(0.884224595508 -0.553700673628 -1.78091773614e-20)
(0.942627791135 -0.347141840318 7.06471142491e-20)
(0.978610348391 -0.224230488094 3.59577566759e-21)
(0.999193848593 -0.149008260014 -9.05520112191e-22)
(1.01124956621 -0.101850019005 -2.37001781464e-20)
(1.01803037634 -0.0706699196892 5.32415981091e-21)
(1.02159001702 -0.0490404659854 -3.28777923419e-21)
(1.0233943915 -0.033282026986 -4.28898672751e-21)
(1.02428116802 -0.0219316590858 1.01780593823e-21)
(1.02455210088 -0.00890661092525 -1.86590606544e-21)
(0.962551941998 -0.591827758269 2.97174831803e-19)
(0.978967434314 -0.372939020379 8.08387137698e-20)
(1.0008332204 -0.240253954093 0)
(1.01348911989 -0.158339054374 -5.40007082242e-22)
(1.02070837344 -0.107115703751 1.88718225186e-20)
(1.02457673084 -0.0735804768915 1.16652105833e-21)
(1.02632744333 -0.0506027336966 -1.47313498279e-20)
(1.02694911341 -0.0340800957019 4.11424507898e-21)
(1.02710078937 -0.0223135044519 -3.71058067516e-23)
(1.02685803728 -0.00902585841389 -2.69984962209e-22)
(1.05197931361 -0.623970511052 -4.32843940495e-19)
(1.01757476922 -0.398141098036 -2.13920194379e-19)
(1.02296340022 -0.256375738885 5.05629955932e-20)
(1.0277460112 -0.167558525636 -1.15954354375e-22)
(1.03024932776 -0.112145012102 -2.27664907173e-21)
(1.03122219666 -0.0762377658053 -1.42405636924e-20)
(1.03114342667 -0.0519450432714 3.66663270467e-21)
(1.03055005119 -0.0347052966731 5.29712566061e-22)
(1.02993742513 -0.0225685851556 -3.22197677984e-21)
(1.02917789746 -0.00909327840121 -2.84069638012e-21)
(1.15745346067 -0.647230128493 3.01725390743e-19)
(1.06873242026 -0.419317087857 -2.15005113779e-19)
(1.04913999892 -0.272978385667 -3.85790285852e-20)
(1.04311849039 -0.177752578402 -4.02784502134e-20)
(1.04006467078 -0.117747535767 -2.26239615418e-20)
(1.03795240881 -0.0790999139281 -1.10583547577e-20)
(1.03599154466 -0.0532896003577 -5.404655975e-21)
(1.03416289101 -0.0352490534066 0)
(1.03276081708 -0.0227298634113 -2.81416812945e-22)
(1.0314852873 -0.00910310104595 1.99780553167e-21)
(1.31304124094 -0.633090267412 5.01155476549e-19)
(1.16870222156 -0.419954487109 1.58749578373e-19)
(1.10536244169 -0.274871765835 -1.0934228685e-19)
(1.0753500445 -0.17950241417 7.0160487744e-21)
(1.05902473731 -0.11871578836 8.76153546955e-21)
(1.04964441729 -0.0793874631302 -4.93862295358e-21)
(1.04357866214 -0.0531708485767 5.33972258554e-22)
(1.03935159589 -0.0349615583523 4.3885658597e-21)
(1.03656073753 -0.0224189185252 -3.10423392122e-21)
(1.0344503213 -0.00896086211359 1.2993969471e-22)
(1.36560629912 -0.519660013024 -1.22458131694e-20)
(1.20339743913 -0.358117394288 1.51877232016e-19)
(1.13425618491 -0.243380512597 1.1460551641e-19)
(1.09817456777 -0.164214214127 -1.37020475807e-20)
(1.0753790949 -0.110687132389 5.37007552285e-20)
(1.06097306214 -0.0747118990462 3.48333603461e-20)
(1.05146798881 -0.0502383791602 2.38699276771e-20)
(1.04497973806 -0.033082628422 -2.34749208381e-21)
(1.04080613722 -0.0212286375063 8.35900180831e-21)
(1.03778392242 -0.0084780151592 3.82634716049e-21)
(1.42348326297 -0.445722488068 -1.40532392385e-19)
(1.2547021466 -0.319219512071 -1.07300326327e-20)
(1.16982615583 -0.220908729662 5.58869456281e-21)
(1.12231359989 -0.15097493959 3.88401287387e-37)
(1.09167858034 -0.102509790211 8.83156060726e-22)
(1.07200611034 -0.0694163849143 -9.56290454523e-35)
(1.05905820859 -0.0467159266658 -2.9740960218e-21)
(1.05035968281 -0.0307507327514 -2.14819825936e-34)
(1.04483270056 -0.0197221643714 8.60291072892e-22)
(1.04090874695 -0.00787297452796 -2.55779272352e-21)
(1.4591875592 -0.36679635656 -2.01996803888e-34)
(1.29131684281 -0.27208378368 -4.00687475028e-20)
(1.19829949821 -0.192705126735 -4.0236648402e-20)
(1.14289837968 -0.133965761946 0)
(1.10611850749 -0.0918866791652 -2.27109241863e-20)
(1.08198808852 -0.0625341865388 -1.55944233589e-20)
(1.06599248432 -0.0421678518664 -9.0006598345e-21)
(1.05529804778 -0.0277680710069 -2.67209242654e-34)
(1.04854510222 -0.0178127408263 -2.75928288611e-21)
(1.04376183676 -0.00711260306487 2.43231745083e-21)
(1.48187633211 -0.295262742523 -8.67597566458e-20)
(1.31937765397 -0.226035335871 4.49259673476e-21)
(1.22157525627 -0.163139239741 0)
(1.16025692358 -0.114944106834 0)
(1.11859216321 -0.0795207417579 0)
(1.09072409264 -0.0543732772638 0)
(1.0721338665 -0.0367444856555 -5.91145394102e-22)
(1.05967393497 -0.0242143718577 -2.98894774268e-34)
(1.05182021165 -0.0155426102144 7.62771432812e-22)
(1.04627510781 -0.00621008930689 2.91392438141e-34)
(1.49579742698 -0.229392464733 -3.61199961183e-20)
(1.3402176503 -0.180331374098 0)
(1.23992385965 -0.13232342419 0)
(1.17438270554 -0.094306088976 0)
(1.12894559496 -0.0657412875407 0)
(1.09808478992 -0.0451484104221 0)
(1.07734277483 -0.0305777654108 9.99682406867e-22)
(1.06340715916 -0.0201685374119 5.61441428479e-21)
(1.05461805281 -0.0129565330499 7.18746841789e-22)
(1.04842058373 -0.00518111549825 3.22285390953e-21)
(1.50384922769 -0.168623198917 0)
(1.35502898375 -0.135484148617 -1.26806897481e-20)
(1.25372003827 -0.100773887255 -1.64697800173e-20)
(1.18529423232 -0.0725015515117 0)
(1.13707912628 -0.0508694074226 -1.05766001636e-20)
(1.10394138153 -0.03507163077 -7.54820984368e-21)
(1.08150118614 -0.0238030565345 -4.2510482642e-21)
(1.06639562679 -0.0157152860829 -3.2984313512e-21)
(1.0568607999 -0.0101049872115 4.43977199305e-21)
(1.05011876671 -0.00404467900519 1.44069803606e-21)
(1.50700317363 -0.111841759508 8.96745978988e-21)
(1.36356490161 -0.0914742857838 6.92607072602e-21)
(1.26223288629 -0.06863691654 -3.90324685099e-21)
(1.1921366549 -0.0497202876129 2.97228815284e-36)
(1.14217228407 -0.0350580665686 5.32576930737e-22)
(1.10751815044 -0.0242457370958 -6.03106533184e-35)
(1.08392654982 -0.0164843530351 7.72743173313e-22)
(1.06799902827 -0.0108923008892 3.2408552651e-21)
(1.05793902988 -0.00700412324231 5.96458751618e-22)
(1.0508050988 -0.0027992171278 -1.99305996074e-21)
(1.48468611101 -0.055198567146 -4.42319789981e-20)
(1.34508555189 -0.0503371840229 1.1782430142e-20)
(1.24643872173 -0.0389776745461 1.2758982174e-20)
(1.17756148441 -0.0286150029251 0)
(1.12814819631 -0.0203131384918 7.5686995603e-21)
(1.09368417783 -0.0140977830273 5.35709871517e-21)
(1.07012816293 -0.00960301666606 4.32448035227e-21)
(1.05421192979 -0.0063522998593 2.36819806934e-21)
(1.0441522773 -0.00408569786239 -2.21231051735e-21)
(1.03700495107 -0.00162911745111 2.42555990621e-21)
(1.10542049097 -0.00281401236424 0)
(1.01805707994 -0.00683119230577 0)
(0.949878575787 -0.00612955398855 0)
(0.900347883948 -0.00468853281558 0)
(0.86415028839 -0.00337449155335 0)
(0.838699106128 -0.00236416427808 0)
(0.821205190234 -0.00162091570008 6.12483444959e-22)
(0.80932599128 -0.0010816082281 -3.76436123157e-36)
(0.801775703264 -0.000682012286616 5.92442830272e-22)
(0.796427619187 -0.000259993357366 1.83425924518e-21)
(2.12839294953 -0.0247538648919 8.64984438797e-19)
(2.11923571776 -0.131343826672 5.9959489441e-20)
(2.0922767437 -0.235750064109 -1.29544841144e-19)
(2.04759292313 -0.335842218118 -3.38822860593e-19)
(1.9874889933 -0.429382639357 -1.1945004302e-19)
(1.90990683933 -0.5166467798 -1.76294109132e-19)
(1.82739904946 -0.587127772122 -4.13286937164e-19)
(1.71411752909 -0.664789555873 1.33528512454e-19)
(1.63714666784 -0.68527459661 0)
(1.47221317049 -0.772987006965 3.54125675532e-20)
(2.0422104641 -0.0181874236593 2.15967804478e-19)
(2.03469035958 -0.0979169601157 -3.34055445291e-19)
(2.01411631878 -0.176696864954 -1.0753818498e-21)
(1.97885797905 -0.253682850797 -1.33257269222e-19)
(1.9349749552 -0.32519971608 1.56230532081e-20)
(1.87168958246 -0.398368314237 1.16836983887e-19)
(1.8156350391 -0.447846619165 3.00361650564e-20)
(1.72084773887 -0.529024542608 9.71553383817e-20)
(1.66884361512 -0.530672716295 -1.1866943565e-19)
(1.55292686808 -0.624802276049 2.24850009599e-20)
(1.96832224444 -0.013468584561 -1.14132229422e-19)
(1.96265580377 -0.0767981277088 2.06050438232e-19)
(1.9469120791 -0.138963180436 1.89169007448e-19)
(1.91860831434 -0.200150474472 -2.21435918826e-19)
(1.88477501845 -0.255824194076 1.05392368619e-19)
(1.8335224719 -0.316311957392 1.09093593308e-19)
(1.79007852403 -0.352471488328 -6.82071552332e-20)
(1.7164213618 -0.424700282567 8.10079450371e-20)
(1.66978450194 -0.423557519655 8.18417441752e-20)
(1.58514826398 -0.506494908842 1.0539073955e-19)
(1.91153437018 -0.01266481125 -1.88649017834e-19)
(1.9070419555 -0.0612118419346 5.08578442475e-20)
(1.8939801906 -0.108968051951 -1.11367939604e-19)
(1.87047757592 -0.156669415243 -6.66658273452e-20)
(1.84215825626 -0.199899411878 3.55939735805e-20)
(1.8004058532 -0.248571798762 -1.03573454228e-19)
(1.7626828695 -0.27692630459 7.62284878458e-20)
(1.7054643433 -0.336266559127 2.98931831839e-20)
(1.66208927108 -0.33681379957 -1.66485961159e-20)
(1.59840374311 -0.404322354843 8.47235365641e-21)
(1.8672194826 -0.0109238534708 5.50312836396e-20)
(1.86354435611 -0.0479252509809 4.49391135137e-20)
(1.85228936262 -0.0842877224721 -6.38366831108e-20)
(1.83241083109 -0.120791558776 2.28066370542e-19)
(1.80755361754 -0.153918403018 1.62884660687e-20)
(1.77291360482 -0.191548247108 -1.32152338582e-19)
(1.73878580253 -0.214034410757 1.98924688694e-20)
(1.69306564075 -0.259851734509 -8.53993957679e-20)
(1.65320764045 -0.262310543812 1.15443482484e-19)
(1.60263202644 -0.314316021078 8.39006125889e-20)
(1.83365012325 -0.0104784802823 -1.01650509651e-19)
(1.83063558143 -0.0375720883502 -5.76453010176e-20)
(1.82064863404 -0.0641999903066 3.67521704853e-20)
(1.8033082724 -0.0910398994145 7.90090484324e-20)
(1.78073132294 -0.115613811998 3.50475503279e-20)
(1.75099497713 -0.143504496615 -3.94603551061e-20)
(1.71936915341 -0.161011124783 3.06755937418e-21)
(1.68099332146 -0.194910605527 5.59989388622e-20)
(1.64405503711 -0.198592572637 1.05684838376e-19)
(1.60130944307 -0.237271347392 -5.26348716292e-20)
(1.80911148545 -0.010448567598 -4.28106963255e-20)
(1.80671040527 -0.0289738232041 -7.82813059459e-20)
(1.7976857225 -0.0471418786145 -4.8164180428e-20)
(1.78213584836 -0.0655343162597 -9.81288290045e-20)
(1.76116132249 -0.082588549239 -2.27557544202e-20)
(1.73459388849 -0.102015931287 -6.11037223507e-21)
(1.70471559082 -0.114837050768 4.71333328237e-20)
(1.67075292263 -0.138753968297 -1.76439893921e-20)
(1.6360639958 -0.142650239876 -3.09968367831e-20)
(1.59776184709 -0.170383986444 1.11720879926e-20)
(1.78790362373 -0.0103187279673 3.43370966543e-20)
(1.78664337201 -0.0211047191153 3.52128295871e-20)
(1.77905856677 -0.0316277142124 1.2541098308e-20)
(1.76548747309 -0.042266967835 -2.1834748481e-20)
(1.74635158358 -0.0522423406275 -1.7546710925e-20)
(1.72241705047 -0.0640078402534 3.64067476622e-20)
(1.69420400218 -0.0720123674675 -1.21497520735e-21)
(1.66301314434 -0.0876211625771 -4.82760538201e-20)
(1.62997415368 -0.0905534766459 1.14621377308e-20)
(1.59405845882 -0.110256022919 4.90651566874e-20)
(1.71203349419 -0.014646202625 -2.34335646439e-20)
(1.71217942276 -0.017254452767 5.30033121221e-21)
(1.70860633506 -0.0194633300361 3.82445830602e-20)
(1.70106841187 -0.021688962928 3.23804551433e-21)
(1.68903528375 -0.0235639329223 -1.59471326774e-21)
(1.67342245713 -0.0269549976648 -9.10296110222e-21)
(1.65285427659 -0.0282470392721 2.08978039583e-20)
(1.63061916638 -0.0354715456103 -2.98543546075e-20)
(1.60237192332 -0.035156277341 3.46161995099e-20)
(1.57657584866 -0.0467608702878 1.16394835079e-19)
(1.12082563991 -0.00854691120212 2.94606685989e-20)
(1.11241654051 -0.00582423453991 1.86664990907e-20)
(1.10715532936 -0.0030653764246 1.4980072967e-20)
(1.10525492903 -0.000420675286822 1.60802772962e-20)
(1.10585796917 0.00207211707527 -1.59408039687e-21)
(1.10975282156 0.00410215113864 5.41406938352e-21)
(1.11272443805 0.0062985180891 -9.20526798522e-21)
(1.12180190369 0.00615789535979 2.99661320164e-21)
(1.11948648563 0.00921784373527 -4.76112541346e-21)
(1.13648160558 0.0048616667716 5.35686719587e-21)
(1.38167663692 0.75230212938 -5.56948323315e-20)
(1.36592164625 0.802901688218 2.36315809319e-20)
(1.37074435646 0.85863730166 -4.80829866357e-19)
(1.38151160125 0.921126201371 2.08827296585e-19)
(1.39204016834 0.988076002753 9.05060733361e-19)
(1.39797194787 1.05615575061 -1.33069364101e-19)
(1.38196577742 1.11184283166 -8.75221336903e-19)
(1.28563776922 1.09974665368 -2.36058013637e-20)
(0.989212736695 0.889376528258 -4.21793595752e-19)
(0.410492719606 0.370973799635 1.64708556292e-19)
(1.54693793429 0.72448819449 0)
(1.53889531002 0.77368253116 5.57930693513e-19)
(1.5394860383 0.826101671722 1.26324181398e-18)
(1.54723828864 0.886713834299 -7.67932988824e-19)
(1.55924027563 0.953269617695 -1.83808810363e-18)
(1.56940994953 1.02179388699 -1.38857434508e-19)
(1.55615517192 1.07795545479 -1.79011492723e-19)
(1.45096091276 1.06627604027 6.60063895294e-19)
(1.11493612789 0.859006734646 8.6464903599e-19)
(0.457703348927 0.351993786784 3.62298739192e-19)
(1.68741851135 0.700988782079 6.33098707743e-20)
(1.69210815354 0.74734799054 0)
(1.69783746422 0.795890376461 -6.52227784231e-20)
(1.70881297704 0.85130371847 7.76753512647e-19)
(1.72461872443 0.912715890287 5.22753209384e-20)
(1.7390719864 0.976860527565 -1.91293827573e-18)
(1.72763630531 1.02932138461 1.24375617195e-18)
(1.61209997009 1.0156720332 7.92647612806e-19)
(1.2351438623 0.813730047612 -7.78833274879e-19)
(0.500506182695 0.326105514007 -2.78220311609e-19)
(1.80163630316 0.665742432587 -1.2613584967e-19)
(1.81789234874 0.70783859818 -9.96831925425e-20)
(1.83371846973 0.751931706018 2.27310248944e-19)
(1.85324797504 0.801758650461 -2.86011485119e-19)
(1.87657212104 0.857222968725 -1.37398016846e-18)
(1.89743796072 0.915555945699 -1.07705339298e-18)
(1.88842341524 0.962412148986 1.20161541647e-18)
(1.76175110059 0.945460615443 8.12333845096e-19)
(1.34295943289 0.751380516827 0)
(0.534251351826 0.291719988426 0)
(1.89831411689 0.609331539951 -7.83112584652e-19)
(1.92404140968 0.646960702109 -1.39353244521e-18)
(1.95027184148 0.686658671421 -5.52653422183e-19)
(1.97968491923 0.731178640805 -3.32073271689e-20)
(2.01200267626 0.780667163631 0)
(2.04025405933 0.832605561581 1.39782261781e-19)
(2.03352327541 0.872911045372 1.66369962465e-19)
(1.89443721092 0.852420395069 2.14964077516e-19)
(1.43297236069 0.670453680332 -3.25929916252e-19)
(0.555420743094 0.249163742956 -8.09931737782e-20)
(1.98460474361 0.531873586856 9.52827623756e-19)
(2.01747713355 0.565103518581 -4.10671933265e-20)
(2.05221189448 0.600329439553 -1.14161523678e-18)
(2.09036689027 0.639443607833 0)
(2.13097622127 0.682609524488 0)
(2.16580317214 0.727530446019 0)
(2.15995747283 0.760537381386 1.53001847706e-18)
(2.00610354616 0.736991934917 -1.87341002218e-18)
(1.50167501319 0.572818687891 -1.08605706954e-18)
(0.562457206975 0.201129259848 -8.46266936634e-20)
(2.06123657157 0.438117918773 -1.28253166598e-18)
(2.09926053305 0.466484654574 -2.71076459522e-18)
(2.14040984204 0.496488278564 -4.78348236089e-21)
(2.1854374961 0.52946368591 5.66579802509e-19)
(2.23267501005 0.565568942078 -4.01215924512e-20)
(2.27231417716 0.602583828041 1.30695104913e-18)
(2.26480461754 0.628360818469 -7.76159591398e-19)
(2.09478140477 0.602514647654 -2.37331212112e-18)
(1.54640141634 0.462166888713 1.80912337524e-19)
(0.55540578004 0.151078599825 1.2376680557e-19)
(2.12515175217 0.332655223997 -1.03668720985e-18)
(2.16701793327 0.3551686764 1.54160709003e-20)
(2.21292358302 0.378818789389 4.10412876903e-19)
(2.26304845706 0.404675161874 -4.06065305906e-19)
(2.31511377015 0.432886258054 6.46577124562e-19)
(2.35756172405 0.46163631856 1.84716541834e-18)
(2.3465511423 0.477723143089 -2.16305982065e-19)
(2.15573426644 0.454486551374 -1.4077284834e-18)
(1.56601530132 0.348056455692 2.80596235627e-19)
(0.535900659314 0.102554500925 1.4476845993e-20)
(2.17282603415 0.218657939443 4.00375492435e-19)
(2.21765148713 0.234467028673 7.76849217322e-20)
(2.267049206 0.250768483875 -4.35657798175e-19)
(2.3207701535 0.268592614789 -1.04842665552e-18)
(2.3758677802 0.287875194213 8.84560298066e-20)
(2.41904918677 0.307111540799 8.88644273559e-20)
(2.40150407813 0.318948837222 -1.73348179317e-18)
(2.18691661025 0.298261058239 7.91674095665e-19)
(1.56162815788 0.227287732944 1.94273095044e-19)
(0.506651882792 0.0572924030605 -1.30772772672e-19)
(2.20278354281 0.0986439737885 7.89084952034e-19)
(2.24950161493 0.10658303705 -1.23184880219e-18)