/*--------------------------------*- C++ -*----------------------------------*\
  =========                 |
  \\      /  F ield         | OpenFOAM: The Open Source CFD Toolbox
   \\    /   O peration     | Website:  https://openfoam.org
    \\  /    A nd           | Version:  13
     \\/     M anipulation  |
\*---------------------------------------------------------------------------*/
FoamFile
{
    format      ascii;
    class       surfaceScalarField;
    location    "3.78";
    object      phi;
}
// * * * * * * * * * * * * * * * * * * * * * * * * * * * * * * * * * * * * * //

dimensions      [0 3 -1 0 0 0 0];

internalField   nonuniform List<scalar> 
823
(
-0.00330586
0.0129115
-0.00960565
0.0149297
0.00984185
-0.0280774
0.0789068
-0.0250732
-0.0389039
0.183533
-0.0896086
-0.0150174
-0.0882397
-0.0571814
0.328954
0.000861636
0.0120499
0.0430324
-0.0323289
0.136414
-0.118455
0.245787
-0.198981
-0.265399
0.422946
0.0220266
-0.00997672
0.110512
-0.120814
0.230526
-0.238469
0.350546
-0.319001
-0.371508
0.456655
0.0460091
-0.0559858
0.15013
-0.224935
0.242864
-0.331203
0.302594
-0.378731
-0.392025
0.32311
0.0618934
-0.117879
0.138596
-0.301637
0.182079
-0.374686
0.197458
-0.394109
0.207451
-0.402018
-0.0268235
0.0544623
-0.0276387
-0.0713977
0.0914241
-0.04685
-0.118184
0.0976664
-0.0508802
-0.162324
0.0964826
-0.0523426
0.0942891
-0.202373
-0.0542398
-0.00352474
0.057987
-0.0228186
0.110718
-0.0504147
0.125263
-0.0785509
0.124619
0.117691
-0.101953
0.019323
0.038664
0.0379627
0.0920783
0.0464408
0.116784
0.0484894
0.12257
0.118341
0.0478394
0.0225221
0.0161419
0.0615292
0.0530711
0.0994622
0.0788513
0.136218
0.0858143
0.0993173
0.155242
0.00653622
0.0315299
0.0714774
0.142274
0.18441
-0.156335
0.50084
-0.546879
0.0938238
-0.325893
0.0757344
0.229912
-0.699486
0.563398
0.32923
-0.647909
0.54859
-0.347574
0.30291
0.0155135
0.383374
0.249099
-0.559479
0.349779
-0.800166
0.398685
-0.696815
-0.363691
0.186628
0.244586
0.379048
-0.751899
0.459091
-0.880209
0.473707
-0.711431
-0.356421
0.319792
0.0800353
0.457829
-0.889936
0.518998
-0.941377
0.522734
-0.715167
-0.342778
0.396823
-0.132377
0.509005
-1.00212
0.552994
-0.985366
0.544894
-0.707067
-0.330406
1.29923
-0.288086
-1.14352
1.26931
-0.972196
1.11989
-0.835948
0.927343
-0.514522
-0.228124
1.48817
-0.318115
-1.45815
1.30299
-0.787009
1.05087
-0.583829
0.829513
-0.293166
-0.131887
1.39417
-0.292654
-1.41963
1.21234
-0.605179
1.02801
-0.399494
0.853944
-0.119102
-0.0325916
1.27276
-0.215023
-1.35039
1.00227
-0.334688
0.76644
-0.163666
0.645576
0.00176202
0.0193096
0.721196
-0.936219
0.386508
0.222842
0.224604
1.12047
0.173409
-1.08643
1.21268
0.230896
1.31665
0.35269
1.30367
0.435926
0.4891
1.04042
0.112823
-0.979834
1.12144
0.149876
1.22789
0.24624
1.34643
0.317391
0.37738
0.992103
0.061106
-0.940386
1.04931
0.0926683
1.14607
0.149482
1.27263
0.190827
0.230378
0.937919
0.0193458
-0.896159
0.996132
0.0344561
1.08846
0.0571487
1.20832
0.0709675
0.0883119
0.685335
-0.665989
0.719791
0.77694
0.847907
0.142614
0.299825
-0.244162
-0.198278
0.0954983
0.303931
-0.256815
0.0540267
0.313482
-0.272011
0.0191556
0.303883
-0.269011
0.194649
-0.175493
0.100975
0.335729
-0.136878
0.0652737
0.339632
0.033618
0.345138
0.00822504
0.329276
0.202874
0.0756233
0.373761
-0.113655
0.0407342
0.374521
0.0111372
0.374735
-0.00511567
0.345528
0.197758
-0.0121724
0.390024
-0.00409064
-0.0287648
0.391113
-0.0364773
0.382447
-0.0283524
0.337404
0.169406
-0.0920583
0.0800638
-0.095054
-0.0872928
-0.0515267
0.198343
0.108687
-0.250541
-0.0564904
0.145248
0.112592
-0.0594972
0.0906073
0.117135
-0.0624944
0.0369643
0.117042
-0.0633992
0.082105
-0.0451407
0.184832
0.150911
-0.227056
0.139973
0.157451
0.0900191
0.16709
0.0378952
0.169166
0.12
0.136159
0.19542
-0.180668
0.0951842
0.198426
0.0563756
0.205898
0.0203496
0.205192
0.14035
0.147109
0.224905
-0.176594
0.110449
0.235085
0.0681549
0.248193
0.0265609
0.246786
0.166911
0.0763559
-0.0956122
0.0546262
0.0308081
0.00858258
0.409445
0.0346694
-0.0481348
0.423632
0.0425596
-0.0567466
0.41685
0.179765
-0.172983
0.39575
0.24068
-0.21958
0.519867
-0.374657
0.40814
0.0225094
0.416639
0.0340606
0.404747
0.191656
0.382605
0.262822
0.675416
0.401559
0.0169298
0.411611
0.024009
0.381511
0.221756
0.373359
0.270974
0.868108
0.397069
0.0158401
0.395889
0.0251892
0.370581
0.247065
0.34364
0.297915
1.03515
0.387938
0.0238814
0.383262
0.029866
0.336748
0.293578
0.318074
0.316589
1.25761
0.618188
0.00971341
0.644684
0.00337072
0.683977
0.254285
0.765619
0.234947
1.03498
0.988249
0.628068
-0.0143346
0.64347
-0.0120305
0.71657
0.181184
0.737167
0.21435
0.769904
1.00225
0.63115
-0.0414638
0.646153
-0.027034
0.720825
0.106513
0.776042
0.159133
0.490177
1.05577
0.621286
-0.058729
0.636331
-0.0420797
0.710938
0.0319065
0.804617
0.0654532
0.22709
1.0677
0.545291
0.503212
0.535118
0.600571
0.827661
1.0291
-0.239132
1.02048
-0.128256
1.03602
-0.129192
1.03117
0.000755134
0.0248114
0.968709
-0.205594
0.961644
-0.121192
0.945008
-0.112555
0.957274
-0.0115119
0.00225184
0.986422
-0.136247
0.961789
-0.0965584
0.927664
-0.0784306
0.937233
-0.0210805
-0.000901414
0.989666
-0.0582076
0.939048
-0.045941
0.897629
-0.0370117
0.892443
-0.0158942
-0.00461764
0.769453
0.723512
0.686501
0.670606
0.0477485
0.147246
-0.194995
0.0723415
0.319518
-0.344111
0.0733464
0.373151
-0.374156
0.063776
0.376244
-0.366674
0.344689
0.052252
-0.333165
0.0696564
0.0775899
0.140887
0.248288
0.175725
0.338314
0.180946
0.371022
0.364938
0.160698
0.0588162
0.0187737
0.170617
0.136486
0.263632
0.2453
0.328668
0.305986
0.356193
0.337413
0.0287263
-0.00995258
0.126497
0.0387152
0.24806
0.123737
0.365879
0.188167
0.254708
0.467364
0.00705957
-0.0170122
0.0566586
-0.0108838
0.153964
0.0264312
0.271062
0.0710693
0.119121
0.406649
-0.000515733
-0.0164964
0.0141722
-0.0255717
0.058485
-0.0178816
0.128135
0.00141974
0.0354909
0.211765
0.00306539
-0.0195618
0.0104712
-0.0329775
0.0253238
-0.0327342
0.0510407
-0.0242972
-0.0083718
0.0949034
0.00133488
-0.0208967
-8.79593e-05
-0.0315547
-0.00159383
-0.0312284
0.000269595
-0.0261606
-0.0179761
0.00987392
-0.0192165
-0.00168024
-0.0514178
0.000646678
-0.0852005
0.00255438
-0.116762
0.00540111
0.00977351
-0.144512
-0.029319
-0.0755222
-0.123848
-0.17079
-0.215256
0.321779
0.58797
-0.697983
0.357393
0.243599
-0.279214
0.351605
-0.0364418
0.0422304
0.366849
-0.0809871
0.0657428
-0.0363616
0.0110573
0.23123
0.451643
0.184697
0.290132
0.203057
-0.0548017
0.284483
-0.162413
-0.097393
-0.00588017
0.467397
-0.00346405
0.287716
0.135957
-0.194223
0.260386
-0.286842
-0.169955
-0.198219
0.521105
-0.0556862
0.145183
0.134894
-0.384803
0.267512
-0.41946
-0.240252
-0.24103
-0.0201125
0.158482
0.287612
0.17613
0.432817
-0.608946
0.0512986
0.124831
0.116852
-0.0655534
0.194075
-0.0772231
-0.0343856
0.778038
-1.0432
0.623655
0.600332
0.588852
0.0864592
-0.0148915
-0.0715677
0.137975
-0.0515162
0.246147
-0.108171
0.413915
-0.167768
-0.195031
0.193568
-0.156208
0.302749
0.531991
0.831587
0.13725
-0.13092
0.161609
-0.167938
0.103991
-0.136253
0.169512
0.0665899
-0.143488
0.180889
0.0268834
-0.14364
0.183347
-0.100933
0.127817
0.177049
-0.0923324
-0.215637
0.134104
-0.0933087
0.0856799
-0.0950634
0.0355614
-0.0935217
-0.0653716
0.185369
-0.0442936
-0.233408
0.135888
-0.0438276
0.084789
-0.0439641
0.0345447
-0.0432774
-0.030827
0.198276
0.00618164
-0.248752
0.146791
0.00765724
0.0933354
0.00949189
0.039058
0.011
0.00823106
0.194151
-0.24446
0.142311
0.0893088
0.0369096
0.0396804
-0.31318
-0.0596657
0.0158164
-0.34281
-0.00623145
-0.352108
-0.0153769
-0.334966
-0.210372
0.121593
-0.282823
-0.151949
0.079224
-0.300441
0.0383659
-0.31125
0.00773343
-0.304333
-0.202638
0.140714
-0.243568
-0.179969
0.0994535
-0.25918
0.0582895
-0.270086
0.0207773
-0.266821
-0.181861
0.160465
-0.208429
-0.195604
0.117223
-0.215939
0.0712728
-0.224136
0.0280645
-0.223613
-0.153796
0.15592
-0.20274
0.109493
0.066246
0.02598
0.393483
0.0776964
-0.0751998
0.394581
0.120501
-0.121599
0.350931
0.158892
-0.115242
0.293917
0.0434294
0.0135847
-0.170079
0.296058
0.397719
0.0759571
0.411289
0.106932
0.395346
0.174834
0.339186
0.0995894
-0.0465302
0.400965
0.0709717
0.419186
0.0887112
0.415312
0.178708
0.364948
0.149954
0.0850093
0.405544
0.0614077
0.422905
0.0713504
0.426039
0.175574
0.387253
0.188739
0.22351
0.409253
0.423856
0.426448
0.395607
0.425564
0.0844868
0.325953
0.0996112
0.25124
0.0747129
0.267935
-0.0166944
-0.158021
0.425955
0.519338
0.49735
0.456821
0.453711
0.591748
0.339779
0.0861769
0.263014
0.0767649
0.174483
0.0885307
0.100987
0.0734959
0.0294194
0.475185
0.356346
0.264907
0.186454
)
;

boundaryField
{
    left
    {
        type            calculated;
        value           nonuniform List<scalar> 
17
(
-0.60402
-0.60402
-0.60402
-0.60402
-0.60402
-0.39598
-0.39598
-0.39598
-0.39598
-0.39598
-0.39598
-0.39598
-0.39598
-0.39598
-0.39598
-0.510051
-0.510051
)
;
    }
    right
    {
        type            calculated;
        value           nonuniform List<scalar> 
17
(
0.228461
0.565523
0.392153
0.345515
0.332948
0.337809
0.350271
0.373894
0.414802
0.466438
0.509091
0.532522
0.825061
0.733276
0.754648
0.593675
0.243914
)
;
    }
    down
    {
        type            calculated;
        value           uniform 0;
    }
    up
    {
        type            calculated;
        value           uniform 0;
    }
    cylinder
    {
        type            calculated;
        value           uniform 0;
    }
    defaultFaces
    {
        type            empty;
    }
}


// ************************************************************************* //
