/*--------------------------------*- C++ -*----------------------------------*\
  =========                 |
  \\      /  F ield         | OpenFOAM: The Open Source CFD Toolbox
   \\    /   O peration     | Website:  https://openfoam.org
    \\  /    A nd           | Version:  13
     \\/     M anipulation  |
\*---------------------------------------------------------------------------*/
FoamFile
{
    format      ascii;
    class       surfaceScalarField;
    location    "5.82";
    object      phi;
}
// * * * * * * * * * * * * * * * * * * * * * * * * * * * * * * * * * * * * * //

dimensions      [0 3 -1 0 0 0 0];

internalField   nonuniform List<scalar> 
823
(
0.000415226
0.0159327
-0.0163479
0.0144887
0.0150348
-0.0291083
0.0643375
-0.0170049
-0.0328438
0.154468
-0.0722016
-0.0179289
-0.0727067
-0.0479706
0.275145
0.00369291
0.0122397
0.041759
-0.0230313
0.123397
-0.098643
0.226225
-0.175029
-0.236464
0.389983
0.0190817
-0.006842
0.0968647
-0.100814
0.208539
-0.210317
0.324219
-0.29071
-0.346206
0.433961
0.0390801
-0.0459221
0.136979
-0.198713
0.23336
-0.306698
0.302834
-0.360184
-0.379047
0.335675
0.0564886
-0.102411
0.138169
-0.280393
0.191435
-0.359964
0.214722
-0.383472
0.225919
-0.390243
-0.0117075
-0.0526295
0.064337
-0.0374168
-0.0719773
0.0976866
-0.0670472
-0.065947
0.0955774
-0.0964509
-0.0545443
0.0839481
-0.0422168
-0.124826
0.0705922
-0.0243698
-0.0282598
-0.0631244
-0.0332227
-0.101862
-0.027209
-0.137373
-0.0190336
-0.00911407
-0.170476
-0.0222203
-0.0060395
-0.0541777
-0.00126529
-0.0864269
0.00504016
-0.115014
0.00955345
0.016209
-0.140337
-0.0102326
0.00419304
-0.0266415
0.0151437
-0.0473792
0.0257778
-0.0691103
0.0312846
0.0399275
-0.0928288
-0.0121548
-0.0261194
-0.0331854
-0.0198297
-0.0278728
-0.123674
0.0815416
-0.0826937
-0.0836499
1.15516
-1.19519
0.167574
0.456847
-0.708071
0.391399
-0.818052
0.594227
-0.732469
0.66961
-0.1945
0.105566
-0.0376415
0.998305
0.327153
0.0920518
0.506893
-0.997792
-0.769275
-0.121868
0.0870972
0.105424
0.771013
0.493248
-0.295773
0.642461
-1.147
-0.775331
-0.006956
0.00122439
0.280055
0.484002
0.595517
-0.611235
0.721384
-1.27287
-0.779889
0.097779
-0.124427
0.41941
0.162371
0.631498
-0.823323
0.722814
-1.36419
-0.792732
0.913378
-0.000757058
-1.03705
1.16842
-0.0926739
1.3309
-0.985799
1.23232
-1.26561
-0.659733
1.3432
0.0188604
-1.36282
1.50924
-0.258721
1.4711
-0.94765
1.17824
-0.972755
-0.446998
1.40469
-0.0482056
-1.33763
1.49615
-0.350174
1.29259
-0.744091
0.935501
-0.61567
-0.248209
1.3833
-0.0820998
-1.3494
1.32907
-0.295948
0.993591
-0.40861
0.594243
-0.216321
-0.0559228
0.902761
-0.984861
0.606814
0.198204
-0.0181176
1.09343
0.179049
-1.04656
1.17361
0.2555
1.26164
0.345929
1.22144
0.430176
0.459542
1.00137
0.111905
-0.93423
1.06773
0.189145
1.17299
0.240671
1.26951
0.33365
0.366238
0.922967
0.0593112
-0.870373
0.98626
0.125852
1.08079
0.14614
1.20472
0.209721
0.233331
0.910597
0.0168893
-0.868175
0.987531
0.048918
1.07925
0.0544166
1.20651
0.0824615
0.0904412
0.708624
-0.691735
0.757542
0.811958
0.89442
0.130875
0.299948
-0.248801
-0.182023
0.0861942
0.306532
-0.261851
0.0464842
0.317113
-0.277403
0.0145493
0.307766
-0.275831
0.197471
-0.182922
0.0934016
0.336958
-0.130411
0.0580477
0.341886
0.0270277
0.348133
0.00338156
0.331412
0.200853
0.0519739
0.368869
-0.0838849
0.0219912
0.371869
-0.00207911
0.372203
-0.0110271
0.34036
0.189826
-0.0329163
0.383663
0.0181224
-0.0457118
0.384664
-0.049151
0.375643
-0.0342068
0.325416
0.155619
-0.115101
0.10852
-0.113909
-0.0982304
-0.053208
0.202972
0.0986948
-0.257354
-0.0443131
0.147666
0.102703
-0.0473968
0.0915114
0.106649
-0.0504948
0.0372787
0.105737
-0.0515044
0.0744999
-0.0372212
0.206191
0.14373
-0.251226
0.157815
0.151079
0.103239
0.161225
0.0442792
0.164697
0.118779
0.143182
0.188514
-0.187966
0.101962
0.1923
0.0615059
0.20168
0.0228241
0.203379
0.141603
0.159781
0.224046
-0.195313
0.118254
0.233826
0.072661
0.247273
0.0282302
0.24781
0.169833
0.0992639
-0.124019
0.0712394
0.0411097
0.0130885
0.405254
0.061594
-0.070868
0.426916
-0.00298802
-0.0186746
0.409059
0.198701
-0.180844
0.396326
0.159543
-0.146809
0.418402
-0.27943
0.404099
0.0534747
0.421863
-0.020752
0.397968
0.222595
0.384205
0.173306
0.551381
0.39907
0.0503842
0.415988
-0.0376699
0.37479
0.263793
0.367438
0.180658
0.730853
0.397255
0.0491089
0.399552
-0.0399675
0.359827
0.303519
0.351753
0.188732
0.887293
0.390872
0.0542168
0.384715
-0.0338103
0.335705
0.352529
0.331528
0.192909
1.0948
0.630819
0.0274183
0.636867
-0.0398583
0.673361
0.316035
0.778311
0.0879582
0.884873
0.988241
0.646293
-0.014854
0.618203
-0.0117683
0.707428
0.226809
0.81186
-0.0164738
0.655227
1.04151
0.642383
-0.0532169
0.628142
0.00247328
0.740005
0.114946
0.803635
-0.080104
0.4705
0.988363
0.618541
-0.0677374
0.641896
-0.0208819
0.746527
0.0103147
0.71364
-0.0472169
0.265429
0.91871
0.536283
0.515401
0.525716
0.478499
0.743928
1.01586
-0.209639
1.00971
-0.12426
1.00679
-0.0809713
1.01072
0.0142008
0.0726753
0.979621
-0.147755
0.948094
-0.0927332
0.912065
-0.044942
0.923431
0.00283477
0.0618763
0.909846
-0.0692382
0.872544
-0.055431
0.845001
-0.0173987
0.854286
-0.00645055
0.0457896
0.870033
-0.0205609
0.839043
-0.0244408
0.83188
-0.010236
0.836502
-0.0110727
0.0141169
0.723367
0.698926
0.68869
0.677618
0.055184
0.169165
-0.224349
0.0806573
0.362493
-0.387966
0.0806549
0.417218
-0.417216
0.0704262
0.419029
-0.4088
0.386533
0.0578651
-0.373972
0.0835026
0.0856622
0.161798
0.284197
0.197492
0.381524
0.202265
0.414257
0.406554
0.182243
0.070141
0.0155212
0.198485
0.155853
0.299244
0.280765
0.365727
0.347774
0.402129
0.370151
0.0324915
-0.0169703
0.147842
0.040503
0.28561
0.142997
0.418795
0.214588
0.296847
0.524078
0.00486422
-0.0218345
0.062206
-0.0168387
0.176951
0.0282522
0.316787
0.0747521
0.141214
0.472421
-0.00404105
-0.0177935
0.0133204
-0.0342001
0.0714271
-0.0298545
0.162115
-0.0159357
0.0295585
0.27377
0.00271453
-0.020508
0.016562
-0.0480476
0.0444305
-0.057723
0.082252
-0.0537572
-0.0342866
0.146097
0.0153249
-0.0358328
0.0417108
-0.0744335
0.0687382
-0.0847504
0.0934828
-0.0785018
-0.0648977
0.124094
0.0211333
-0.0569661
0.046
-0.0993003
0.0653267
-0.104077
0.0803136
-0.0934887
-0.0776951
0.093111
0.00737086
0.00575721
-0.00274251
-0.0122832
-0.019386
0.403632
0.761537
-0.891399
0.324611
0.602598
-0.523577
0.165479
0.304019
-0.144887
0.139783
-0.0288944
0.0545902
-0.230341
0.140858
0.381932
0.525702
0.256722
0.727808
0.0533268
0.507414
0.0718708
-0.0474384
-0.354894
0.348238
0.301558
0.166455
0.909591
-0.023526
0.697395
0.0782615
-0.149226
-0.48796
0.239251
0.155417
0.0514196
1.09742
-0.0355644
0.784379
0.161197
-0.345987
-0.592329
0.0533377
-0.044427
0.0318813
0.280121
0.0520029
0.620565
-0.672568
-0.124232
0.176235
-0.0462215
-0.0780102
0.0607891
-0.107011
-0.0753507
0.923497
-1.19433
0.576155
0.353258
0.300837
0.0983445
-0.0155305
-0.082814
0.158462
-0.0601172
0.276718
-0.118256
0.456235
-0.179517
-0.216333
0.219661
-0.177327
0.341788
0.593683
0.938243
0.148051
-0.151417
0.182261
-0.178895
0.113775
-0.157927
0.192203
0.0738807
-0.166317
0.206212
0.0302799
-0.167299
0.2109
-0.119059
0.149339
0.189667
-0.110679
-0.230405
0.143711
-0.111972
0.0917751
-0.114382
0.0382242
-0.113748
-0.0808349
0.190423
-0.0596401
-0.241462
0.138431
-0.0599792
0.085928
-0.0618789
0.0350542
-0.0628741
-0.0457807
0.206218
-0.00740681
-0.258451
0.153265
-0.00702656
0.0982432
-0.00685695
0.0416574
-0.00628834
-0.00412329
0.210912
-0.262632
0.156489
0.0991372
0.0413444
0.0455138
-0.350102
-0.0693835
0.0181199
-0.381406
-0.00656414
-0.392532
-0.0173534
-0.377177
-0.241702
0.135269
-0.31552
-0.169852
0.0885212
-0.334658
0.0430877
-0.347098
0.00886343
-0.342953
-0.232839
0.155071
-0.271446
-0.199145
0.109311
-0.288899
0.0644478
-0.302235
0.023311
-0.301816
-0.209528
0.174652
-0.232713
-0.213384
0.128021
-0.242268
0.0786548
-0.252869
0.031596
-0.254757
-0.177932
0.169172
-0.219625
0.119108
0.0724506
0.0285929
0.389006
0.0916724
-0.0846985
0.39647
0.0791602
-0.086625
0.360112
0.165529
-0.12917
0.310391
0.0229207
0.0267999
-0.253625
0.385121
0.394245
0.0934067
0.407494
0.0659119
0.399744
0.173278
0.354287
0.068378
-0.129743
0.399267
0.0901196
0.414256
0.0509223
0.412878
0.174657
0.378216
0.10304
0.00701142
0.404399
0.0817003
0.419413
0.0359085
0.419732
0.174337
0.39525
0.127523
0.14381
0.406812
0.424046
0.417539
0.398252
0.421861
0.0881896
0.338227
0.0836344
0.25147
0.0867567
0.273435
-0.0219652
-0.207726
0.481162
0.513542
0.510552
0.468138
0.472973
0.650368
0.38593
0.095232
0.30152
0.0844094
0.202557
0.0989638
0.118115
0.0844417
0.0353008
0.525975
0.397
0.296819
0.21141
)
;

boundaryField
{
    left
    {
        type            calculated;
        value           nonuniform List<scalar> 
17
(
-0.60402
-0.60402
-0.60402
-0.60402
-0.60402
-0.39598
-0.39598
-0.39598
-0.39598
-0.39598
-0.39598
-0.39598
-0.39598
-0.39598
-0.39598
-0.510051
-0.510051
)
;
    }
    right
    {
        type            calculated;
        value           nonuniform List<scalar> 
17
(
0.13614
0.366344
0.229266
0.196424
0.211327
0.265566
0.357403
0.454259
0.543699
0.648517
0.725943
0.735657
1.09932
0.965503
0.736712
0.401956
-0.0740404
)
;
    }
    down
    {
        type            calculated;
        value           uniform 0;
    }
    up
    {
        type            calculated;
        value           uniform 0;
    }
    cylinder
    {
        type            calculated;
        value           uniform 0;
    }
    defaultFaces
    {
        type            empty;
    }
}


// ************************************************************************* //
