/*--------------------------------*- C++ -*----------------------------------*\
  =========                 |
  \\      /  F ield         | OpenFOAM: The Open Source CFD Toolbox
   \\    /   O peration     | Website:  https://openfoam.org
    \\  /    A nd           | Version:  13
     \\/     M anipulation  |
\*---------------------------------------------------------------------------*/
FoamFile
{
    format      ascii;
    class       volScalarField;
    location    "0.65";
    object      p;
}
// * * * * * * * * * * * * * * * * * * * * * * * * * * * * * * * * * * * * * //

dimensions      [0 2 -2 0 0 0 0];

internalField   nonuniform List<scalar> 
440
(
7.82852
10.5849
12.9475
13.1296
10.1542
20.7198
24.1031
27.0986
27.7992
25.9115
41.2568
44.2881
46.9911
47.7838
46.623
67.3898
69.4876
71.401
72.0576
71.3702
96.6662
97.4832
98.2802
98.6802
98.6467
-0.446958
-0.546382
-0.074394
0.486363
0.828727
-1.68239
-2.34704
-2.08542
-1.38893
-0.751073
-2.02914
-2.91039
-2.8316
-2.07622
-0.958459
-0.68412
-0.8166
-0.411245
0.552946
2.41784
3.08321
4.39467
5.82402
7.25565
9.50551
2.08896
2.27098
1.34425
0.68423
0.235114
1.05982
2.08139
1.22347
0.625741
0.223826
-0.0925309
1.66996
1.09027
0.580147
0.215593
-0.401428
1.06664
0.880772
0.541592
0.208271
1.5069
0.478616
0.596032
0.491018
0.198529
4.37828
0.250472
0.334457
0.429156
0.168466
6.72167
0.711264
0.434309
0.422868
0.103773
9.98541
2.45037
1.08304
0.550646
0.0692879
13.8749
4.75268
2.13334
0.824454
0.0737033
16.6111
7.11507
3.45511
1.30454
0.170419
100.691
75.8421
53.3266
33.1518
12.349
102.386
78.9446
57.5395
39.0595
23.4856
104.287
82.7043
62.4772
45.2368
32.89
105.17
85.0235
66.5054
51.1863
40.6599
105.089
84.746
66.3312
51.2538
40.8994
219.871
216.39
216.096
218.212
220.945
202.691
200.224
200.483
203.224
206.516
180.543
178.77
179.133
181.556
184.434
154.744
153.401
153.606
155.2
157.096
126.863
126.149
126.089
126.549
127.142
235.585
236.016
236.656
237.084
236.83
236.156
236.793
237.351
237.33
236.378
234.945
235.92
236.336
236.064
235.077
230.057
231.657
232.22
232.356
232.264
221.572
223.435
224.446
225.655
227.01
235.727
234.725
234.898
234.127
234.271
235.695
234.709
234.843
234.083
234.798
235.684
234.669
234.782
234.196
235.315
235.685
234.605
234.775
234.45
234.903
235.689
234.52
234.846
234.649
232.215
235.701
234.378
234.896
234.425
228.726
235.892
234.238
234.784
233.932
226.357
236.794
234.008
234.153
232.247
223.336
240.836
233.988
232.973
229.786
219.662
249.806
234.714
231.752
227.241
216.91
217.763
196.236
175.029
151.735
126.449
207.368
191.372
172.327
150.423
126.654
198.88
186.199
168.617
148.09
126.336
191.746
180.786
165.101
146.264
125.922
191.528
180.766
165.356
146.663
126.153
96.3964
95.5196
95.0719
94.305
94.1484
57.3153
55.3684
53.663
51.7413
50.9754
29.4852
27.1419
24.3791
22.0801
20.7556
15.0333
12.6168
10.1513
8.13102
7.16051
9.20404
7.31632
5.92934
4.95381
4.36668
5.9744
4.87225
4.2922
4.20327
4.29148
4.06718
3.60739
3.53481
3.69016
3.84367
2.76042
2.74595
2.9791
3.28229
3.44064
1.6593
1.96361
2.41479
2.76545
2.91024
0.613146
1.0101
1.58273
1.98464
2.15878
3.61308
3.18111
2.06921
0.965305
0.278545
3.66686
3.01005
1.97696
0.909206
0.267219
3.46842
2.7489
1.84804
0.857499
0.258111
3.14863
2.50588
1.68557
0.804154
0.250458
2.73247
2.35906
1.50367
0.746378
0.243527
4.48087
3.16491
1.98286
1.00806
0.312367
3.74394
3.25897
2.07173
1.00146
0.292567
94.904
54.1454
27.508
14.4846
9.46453
93.6827
51.136
22.9848
9.46917
5.25884
232.142
232.223
232.173
231.656
230.579
232.73
232.903
233.133
233.171
232.796
233.293
233.465
233.852
234.25
234.42
233.892
234.043
234.447
235.05
235.469
234.636
234.872
235.377
235.991
236.25
141.98
141.788
140.96
140.449
139.538
185.214
184.405
182.426
180.66
178.682
215.513
214.143
211.793
208.979
206.605
229.149
228.142
226.092
223.594
221.148
231.997
231.383
230.411
229.028
227.129
238.817
234.443
234.538
233.509
232.896
237.115
234.484
234.626
233.678
232.914
236.35
234.573
234.73
233.901
233.244
235.981
234.655
234.833
234.102
233.622
235.804
234.708
234.899
234.182
233.937
252.258
235.782
234.893
233.445
231.98
243.164
234.689
234.475
233.388
232.699
226.935
221.861
208.753
182.037
141.229
231.132
226.889
213.307
185.06
142.453
)
;

boundaryField
{
    left
    {
        type            zeroGradient;
    }
    right
    {
        type            fixedValue;
        value           uniform 0;
    }
    down
    {
        type            zeroGradient;
    }
    up
    {
        type            zeroGradient;
    }
    cylinder
    {
        type            zeroGradient;
    }
    defaultFaces
    {
        type            empty;
    }
}


// ************************************************************************* //
