/*--------------------------------*- C++ -*----------------------------------*\
  =========                 |
  \\      /  F ield         | OpenFOAM: The Open Source CFD Toolbox
   \\    /   O peration     | Website:  https://openfoam.org
    \\  /    A nd           | Version:  13
     \\/     M anipulation  |
\*---------------------------------------------------------------------------*/
FoamFile
{
    format      ascii;
    class       surfaceScalarField;
    location    "0.65";
    object      phi;
}
// * * * * * * * * * * * * * * * * * * * * * * * * * * * * * * * * * * * * * //

dimensions      [0 3 -1 0 0 0 0];

internalField   nonuniform List<scalar> 
823
(
0.0113777
-0.0505544
0.0391767
0.0387586
-0.133436
0.106055
0.0788324
-0.205877
0.165804
0.130172
-0.268869
0.217529
-0.323257
0.259412
0.194018
0.010703
-0.0612574
0.0361431
-0.158876
0.0726482
-0.242383
0.117973
-0.314194
-0.375599
0.170315
0.00837701
-0.0696345
0.0282851
-0.178784
0.0567257
-0.270823
0.0918108
-0.349279
-0.41605
0.132261
0.00529928
-0.0749337
0.0179957
-0.19148
0.0362298
-0.289057
0.0588843
-0.371933
-0.442415
0.085249
0.00196198
-0.0768957
0.00663008
-0.196148
0.0132898
-0.295717
0.0215221
-0.380165
0.0310625
-0.451955
0.00664826
-0.01075
0.00410176
0.0221845
-0.0309048
0.0153685
0.0453876
-0.0484926
0.0252895
0.0745349
-0.0639296
0.0347823
-0.0770175
0.108188
0.0433645
0.00575261
-0.0165026
0.021474
-0.0466262
0.0466828
-0.0737015
0.0797244
-0.0969712
-0.116086
0.118793
0.00639243
-0.0228951
0.0236528
-0.0638866
0.0512262
-0.101275
0.0879021
-0.133647
-0.160113
0.131929
0.00753605
-0.0304311
0.0270869
-0.0834374
0.0573156
-0.131504
0.0970213
-0.173353
-0.207895
0.144803
0.00874558
0.031363
0.0656632
0.109839
0.161357
0.322514
-0.957412
0.743086
0.474333
-0.822082
0.670263
0.573256
-0.353479
0.254557
0.613892
-0.0675066
0.0268702
0.00234857
-0.00707931
0.33041
-1.16903
0.471062
-0.962735
0.575161
-0.457578
0.633435
-0.12578
-0.0161529
0.33659
-1.37369
0.461192
-1.08734
0.562993
-0.559379
0.628682
-0.19147
-0.0435176
0.337474
-1.56636
0.448309
-1.19817
0.540662
-0.651733
0.611747
-0.262555
-0.0801062
0.327751
-1.73276
0.428308
-1.29873
0.508835
-0.732259
0.576007
-0.329727
-0.115096
1.19773
-1.5902
-1.34029
1.00788
-1.10888
0.891203
-0.615582
0.840826
-0.27935
-0.0937765
1.32988
-1.13297
-1.78711
0.982203
-0.761205
0.774456
-0.407835
0.68645
-0.191345
-0.0667779
1.18949
-0.607632
-1.71483
0.816362
-0.388076
0.610871
-0.202344
0.51745
-0.0979233
-0.0357875
0.822383
-0.185285
-1.24473
0.545354
-0.111047
0.396485
-0.0534749
0.325272
-0.0267107
-0.0106476
0.30672
-0.492004
0.195673
0.142198
0.115487
1.56259
0.0462505
-1.57778
1.52169
0.126157
1.46266
0.19129
1.39633
0.236646
0.250056
1.67586
0.0356516
-1.66526
1.69933
0.102696
1.73082
0.159798
1.76529
0.202174
0.22824
1.38797
0.0184775
-1.37079
1.43706
0.0536077
1.51388
0.0829771
1.61016
0.105893
0.123571
0.977699
0.00531451
-0.964536
1.01588
0.0154231
1.07582
0.0230445
1.15388
0.0278275
0.032722
0.392987
-0.387673
0.40841
0.431455
0.459282
0.128772
0.327624
-0.264664
-0.191732
0.0781586
0.273214
-0.2226
0.0385242
0.209793
-0.170159
0.01134
0.136444
-0.10926
0.0519536
-0.0406136
0.115952
0.378905
-0.167232
0.071497
0.317668
0.0356181
0.245672
0.010561
0.161501
0.0625145
0.0888492
0.418274
-0.128218
0.0548106
0.351707
0.0272875
0.273195
0.00806487
0.180724
0.0705794
0.055241
0.443533
-0.0805003
0.0337631
0.373185
0.016655
0.290303
0.00486427
0.192514
0.0754436
0.0174806
-0.0259024
0.0104998
0.00508592
0.00145207
0.0726055
0.0873154
-0.107226
-0.0526948
0.0428676
0.0736962
-0.0439583
0.0197243
0.0569283
-0.0337849
0.00513425
0.0368001
-0.0222101
0.0132908
-0.00815653
0.0760238
0.125894
-0.114602
0.0437225
0.105997
0.0196445
0.0810063
0.00509083
0.0513538
0.0183816
0.0844126
0.168553
-0.127072
0.0490979
0.141312
0.0227383
0.107366
0.006175
0.0679171
0.0245566
0.0940733
0.214678
-0.140198
0.0557803
0.179605
0.026531
0.136615
0.00742981
0.0870183
0.0319864
0.107407
-0.157394
0.0644121
0.0308687
0.00862719
0.512993
0.174572
-0.291585
0.561628
0.162575
-0.21121
0.496337
0.313169
-0.247879
0.334725
0.803365
-0.641752
1.0412
-0.813702
0.512969
0.0575826
0.558974
0.11657
0.486976
0.385167
0.33125
0.959091
1.25785
0.512841
-0.0592784
0.545732
0.0836784
0.46655
0.46435
0.328138
1.0975
1.45891
0.509173
-0.172472
0.524856
0.0679955
0.441865
0.547342
0.323986
1.21538
1.6427
0.498507
-0.274999
0.494628
0.071874
0.412875
0.629095
0.312137
1.31612
1.79744
0.765211
-0.43619
0.846196
-0.00911159
0.956578
0.518714
1.16944
1.10326
1.61934
1.34755
0.708321
-0.54049
0.783719
-0.0845094
0.955168
0.347265
1.29785
0.760576
1.14341
1.77377
0.602373
-0.538843
0.63351
-0.115647
0.803726
0.177049
1.17256
0.391737
0.612027
1.70395
0.448462
-0.383285
0.405721
-0.0729058
0.536192
0.0465786
0.816012
0.111917
0.186913
1.24113
0.220736
0.14783
0.194409
0.306326
0.493239
1.40258
-0.246765
1.46574
-0.230389
1.52299
-0.185473
1.56316
-0.120663
-0.0405276
1.75267
-0.22566
1.71975
-0.197466
1.69062
-0.15635
1.67084
-0.10088
-0.034953
1.60148
-0.123191
1.50876
-0.104753
1.43456
-0.0821471
1.38705
-0.0533711
-0.0186945
1.15107
-0.033132
1.0743
-0.0279875
1.0153
-0.0231428
0.977571
-0.0156446
-0.00565991
0.460107
0.43212
0.408977
0.393332
0.00250151
0.043008
-0.0455095
0.00732824
0.101055
-0.105882
0.0160958
0.148401
-0.157168
0.0165792
0.151915
-0.152399
0.114032
0.0148147
-0.112268
0.0068287
0.0361793
0.0201787
0.087705
0.0409595
0.12762
0.048257
0.144618
0.116386
0.0459035
0.00880971
0.0273696
0.0270779
0.0694368
0.0521529
0.102545
0.0730947
0.123676
0.11404
0.075441
0.00780166
0.019568
0.0255147
0.0517238
0.0497504
0.0783093
0.0774333
0.095993
0.0992476
0.0922253
0.00509912
0.0144688
0.0179739
0.038849
0.0367676
0.0595155
0.0600099
0.0727507
0.0767493
0.0825082
0.00342406
0.0110448
0.0125811
0.029692
0.0274434
0.0446531
0.0470561
0.053138
0.0561583
0.0676471
0.00222326
0.00882152
0.00892999
0.0229853
0.0222633
0.0313198
0.0410105
0.0343908
0.034777
0.0623918
0.00167165
0.00714986
0.0101197
0.0145372
0.0261708
0.0152687
0.0467208
0.0138407
0.011533
0.0699648
0.0037364
0.00341344
0.0175311
0.000742366
0.0368652
-0.00406541
0.059883
-0.00917705
-0.0143724
0.0857883
0.00751515
0.023626
0.0448501
0.0704553
0.0994474
0.15378
0.0198703
-0.106003
0.2433
-0.130223
0.0407026
0.264628
-0.0379677
0.0166397
0.269835
0.00330948
-0.00851615
-0.00187671
-0.0044855
0.214738
-0.132476
0.32518
-0.240665
0.351294
-0.0640815
0.354017
0.00058641
-0.00464171
0.260055
-0.322566
0.39129
-0.3719
0.433442
-0.106233
0.434804
-0.000775479
-0.00267478
0.293318
-0.530096
0.438624
-0.517206
0.502402
-0.170011
0.508495
-0.00686867
0.00263038
0.312437
0.465494
0.55004
0.570042
0.0706611
0.038684
-0.109345
0.0786231
-0.00796194
0.082931
-0.00430792
0.0804125
0.00251847
0.00111718
0.194071
-0.261391
0.226811
0.239143
0.233145
0.0207326
-0.00433164
-0.016401
0.0342833
-0.0135507
0.0567624
-0.0224792
0.0856224
-0.02886
-0.0237227
0.0539252
-0.0434421
0.086278
0.13924
0.202605
0.0478334
-0.055144
0.0763512
-0.0690405
0.0275591
-0.0521641
0.0724385
0.0123375
-0.0443767
0.0595982
0.00331791
-0.030041
0.0390607
-0.0112611
0.014579
0.045402
-0.0322581
-0.0682879
0.0249703
-0.0317325
0.00982762
-0.029234
0.00219092
-0.0224043
-0.00907015
0.0560708
-0.00667411
-0.0816547
0.0331337
-0.00879535
0.0142851
-0.0103854
0.00259156
-0.0107107
-0.00647859
0.0700941
0.0215662
-0.0983345
0.0448248
0.016474
0.0233625
0.0110769
0.00692185
0.00572993
0.000443264
0.0743858
-0.105514
0.0469014
0.0241934
0.00771327
0.0165858
-0.114031
-0.0148231
0.016095
-0.151908
0.00730695
-0.14838
0.00248924
-0.101064
-0.0430203
0.0482729
-0.116375
-0.0459282
0.0409335
-0.144568
0.0201647
-0.127612
0.00682152
-0.0877208
-0.0361988
0.073127
-0.113969
-0.0755329
0.0521253
-0.123567
0.0270662
-0.102552
0.00880665
-0.0694612
-0.0273921
0.0773419
-0.0989702
-0.0923412
0.0496227
-0.0958474
0.0254342
-0.078364
0.00777589
-0.0518029
-0.0196162
0.0599541
-0.0825732
0.0365453
0.0177795
0.00503725
0.341929
0.583349
-0.529299
0.280562
0.225043
-0.163675
0.247589
0.0545072
-0.0215346
0.165351
0.113969
-0.0317305
-0.00086766
0.0971782
0.407842
0.571487
0.371451
0.261433
0.335775
0.0901839
0.233599
0.216145
0.164443
0.459958
0.507508
0.451501
0.26989
0.409338
0.132347
0.283778
0.341705
0.366566
0.495721
0.407766
0.514821
0.25079
0.461431
0.185737
0.317804
0.485332
0.586036
0.512161
0.551741
0.489599
0.33318
0.158667
0.351384
0.0847701
0.0738966
0.0801012
0.00466884
0.0724407
0.00766053
-0.0369594
0.1094
0.332137
0.242358
0.225492
0.201423
0.261642
0.0856727
0.0237274
0.0567943
0.0288785
0.0342943
0.0225
0.0207361
0.0135582
0.00433513
0.202796
0.139333
0.0863001
0.0539301
)
;

boundaryField
{
    left
    {
        type            calculated;
        value           nonuniform List<scalar> 
17
(
-0.60402
-0.60402
-0.60402
-0.60402
-0.60402
-0.39598
-0.39598
-0.39598
-0.39598
-0.39598
-0.39598
-0.39598
-0.39598
-0.39598
-0.39598
-0.510051
-0.510051
)
;
    }
    right
    {
        type            calculated;
        value           nonuniform List<scalar> 
17
(
0.0792953
0.229777
0.276197
0.356782
0.432837
0.50319
0.565593
0.618623
0.651936
0.656047
0.648336
0.610997
0.819507
0.659452
0.486459
0.300132
0.10484
)
;
    }
    down
    {
        type            calculated;
        value           uniform 0;
    }
    up
    {
        type            calculated;
        value           uniform 0;
    }
    cylinder
    {
        type            calculated;
        value           uniform 0;
    }
    defaultFaces
    {
        type            empty;
    }
}


// ************************************************************************* //
