/*--------------------------------*- C++ -*----------------------------------*\
  =========                 |
  \\      /  F ield         | OpenFOAM: The Open Source CFD Toolbox
   \\    /   O peration     | Website:  https://openfoam.org
    \\  /    A nd           | Version:  13
     \\/     M anipulation  |
\*---------------------------------------------------------------------------*/
FoamFile
{
    format      ascii;
    class       volScalarField;
    location    "0.65";
    object      strainRateViscosityModel:nu;
}
// * * * * * * * * * * * * * * * * * * * * * * * * * * * * * * * * * * * * * //

dimensions      [0 2 -1 0 0 0 0];

internalField   nonuniform List<scalar> 
440
(
9.41956
8.96972
8.54448
8.04236
7.58622
9.68996
9.35816
8.98176
8.48002
7.87556
9.80074
9.53084
9.15876
8.58508
7.84825
9.84962
9.61817
9.25861
8.64755
7.86606
9.86917
9.65607
9.30591
8.68094
7.90878
1.30522
1.79089
2.0505
2.30077
2.3648
3.38431
3.30271
3.31769
3.42637
3.4971
5.89223
5.27161
4.92848
4.7289
4.75871
7.76967
6.99347
6.42045
5.90516
5.82772
8.82071
8.15135
7.55206
6.91826
6.87173
1.85215
0.846037
0.415508
0.149917
0.125746
2.61786
0.911015
0.363699
0.112121
0.0278708
3.51381
1.1514
0.303672
0.0702389
0.01234
4.09244
1.43891
0.277851
0.043264
0.0231249
4.60471
1.75621
0.325411
0.01198
0.110092
4.22994
1.74211
0.294116
0.0561672
0.274692
3.71083
1.82343
0.621316
0.316389
0.422254
4.91914
3.20876
1.23646
0.55639
0.554038
7.00945
4.28926
1.91513
0.901837
0.683615
8.27283
5.07719
2.496
1.30847
0.862543
2.8483
3.68268
4.61987
5.50583
6.14919
3.68373
3.69656
3.7721
3.85204
3.36779
8.22652
8.08656
7.79931
7.38539
6.34629
9.05291
8.99237
8.85904
8.6215
8.16017
9.60671
9.56995
9.48702
9.33805
9.1188
7.5033
8.01244
8.55942
9.01088
9.4642
7.794
8.45163
8.98712
9.37787
9.70864
7.77898
8.55904
9.15942
9.54077
9.80944
7.81627
8.62755
9.25739
9.62275
9.85359
7.89134
8.67366
9.30535
9.65743
9.87034
2.52898
2.47008
2.2703
2.11615
2.04486
3.47893
3.43082
3.47097
3.6904
4.24198
4.63706
4.65999
5.04965
5.59858
6.44983
5.68483
5.82663
6.49773
7.18786
8.04087
6.75367
6.842
7.58047
8.24276
8.93541
0.204227
0.0580481
0.275814
0.861783
2.02283
0.172876
0.073821
0.221212
0.882307
2.65953
0.151898
0.0789499
0.168178
1.08059
3.44252
0.140763
0.067246
0.159127
1.38947
3.94453
0.147077
0.0747415
0.254494
1.73832
4.36639
0.200364
0.11277
0.269729
1.87084
4.10221
0.331618
0.131207
0.268474
1.80698
3.86068
0.661683
0.256844
0.776643
3.0362
4.90751
2.27333
0.819521
1.51046
4.16215
6.96072
5.05619
2.54108
2.42292
5.03851
8.27909
5.94752
5.26647
4.40258
3.51054
2.77988
3.522
3.99079
3.97073
3.87622
3.76361
6.32093
7.35232
7.77906
8.06773
8.2185
8.12127
8.59996
8.84946
8.98863
9.05203
9.11693
9.3378
9.4874
9.57051
9.60696
9.31085
7.91682
1.39864
3.63016
7.73677
9.08183
7.44076
3.20594
1.64074
6.78901
8.39866
6.57767
4.20846
1.00354
4.1477
6.81561
5.09472
3.45528
1.70056
1.03875
4.50377
3.14533
2.03883
1.37786
0.459906
2.59712
1.61869
1.00242
0.79674
0.926353
1.45598
0.779
0.579429
0.612518
0.685287
0.801531
0.405537
0.589789
0.758528
0.831833
0.305921
0.506741
0.8845
1.04993
1.11137
0.16181
0.934927
1.28073
1.51683
1.57121
0.190337
0.361864
0.706926
0.773711
0.731317
0.395406
0.499729
0.575844
0.632056
0.617445
0.613492
0.645979
0.461683
0.487108
0.499641
0.965191
0.794099
0.414001
0.346234
0.375198
1.3304
0.844543
0.418989
0.225813
0.25721
1.10551
0.857225
1.12023
1.10651
1.0031
0.283984
0.47114
0.862738
0.917507
0.848382
9.19115
8.83863
7.75877
5.73015
3.5596
8.58726
7.72287
5.85156
3.49151
0.866144
0.964856
0.858708
1.0271
1.62019
2.65819
0.813872
0.768002
0.70445
0.824738
1.52617
1.05972
1.01099
0.847807
0.553261
0.743241
1.38282
1.34576
1.14792
0.796757
0.227686
1.85254
1.8059
1.55408
1.23669
0.5975
7.7363
3.62709
1.39993
7.91506
9.311
6.78519
1.64051
3.20262
7.43767
9.08247
4.13417
1.01087
4.19434
6.57306
8.40023
1.03666
1.70556
3.43362
5.08555
6.82209
0.47624
1.37643
2.01477
3.12751
4.52662
1.31081
0.545068
0.550832
0.454232
0.176216
0.676218
0.294806
0.467534
0.520319
0.486535
0.396893
0.160971
0.379792
0.621268
0.804544
0.287642
0.0724162
0.339499
0.771483
1.22221
0.243236
0.0428634
0.317026
0.852758
1.58488
5.48094
2.46094
1.03646
0.96323
1.14182
2.88715
1.08902
0.724987
0.556899
0.251782
3.56829
5.73577
7.75995
8.83916
9.1913
0.843326
3.47198
5.84492
7.7215
8.58711
)
;

boundaryField
{
    left
    {
        type            calculated;
        value           nonuniform List<scalar> 
17
(
0.452368
1.11725
2.18351
3.91031
6.58027
0.30176
0.186673
0.136831
0.141862
0.210961
2.95883
2.0605
1.33475
0.814163
0.495802
6.97869
4.57962
)
;
    }
    right
    {
        type            calculated;
        value           nonuniform List<scalar> 
17
(
1.0034
0.849855
0.733419
0.620232
0.501882
0.374556
0.250861
0.114532
0.0224358
0.011636
0.0283294
0.145419
0.337176
0.478573
0.590246
0.697949
0.854262
)
;
    }
    down
    {
        type            calculated;
        value           nonuniform List<scalar> 
20
(
5.99486
2.99973
1.14593
1.0458
1.85293
4.27034
6.38383
8.1314
9.01578
9.30925
9.30908
9.01514
8.12992
6.37976
4.26405
1.83157
0.931898
1.18667
1.16349
1.05065
)
;
    }
    up
    {
        type            calculated;
        value           nonuniform List<scalar> 
20
(
8.54861
5.40512
2.72548
1.45723
0.92742
9.69562
9.66615
9.59857
9.47421
9.29339
9.29638
9.47646
9.60017
9.66726
9.69603
5.7042
3.15053
2.66286
5.39424
8.56547
)
;
    }
    cylinder
    {
        type            calculated;
        value           nonuniform List<scalar> 
40
(
1.37037
3.58904
6.11864
7.96048
8.95712
9.50514
9.74577
9.84079
9.88145
9.89745
9.54746
9.76284
9.84855
9.88496
9.89848
2.28286
4.51931
6.69664
8.2339
9.06991
3.04374
1.85013
1.09279
0.444212
0.605204
9.51904
9.33187
8.74229
7.26971
4.98615
9.51887
9.33113
8.74024
7.26148
4.95755
2.96566
1.73282
1.07372
0.668457
0.103987
)
;
    }
    defaultFaces
    {
        type            empty;
    }
}


// ************************************************************************* //
