/*--------------------------------*- C++ -*----------------------------------*\
  =========                 |
  \\      /  F ield         | OpenFOAM: The Open Source CFD Toolbox
   \\    /   O peration     | Website:  https://openfoam.org
    \\  /    A nd           | Version:  13
     \\/     M anipulation  |
\*---------------------------------------------------------------------------*/
FoamFile
{
    format      ascii;
    class       volVectorField;
    location    "0.65";
    object      U;
}
// * * * * * * * * * * * * * * * * * * * * * * * * * * * * * * * * * * * * * //

dimensions      [0 1 -1 0 0 0 0];

internalField   nonuniform List<vector> 
440
(
(0.218259 -0.176694 -1.8112e-19)
(0.613078 -0.436657 1.07874e-18)
(0.984292 -0.640907 4.23213e-19)
(1.32754 -0.795395 1.24291e-18)
(1.63257 -0.916762 -2.59987e-19)
(0.304892 -0.177683 -5.44479e-19)
(0.819132 -0.428699 -1.01956e-18)
(1.27997 -0.6189 1.14522e-19)
(1.6919 -0.761639 -1.21513e-18)
(2.05374 -0.875117 -1.02099e-18)
(0.384878 -0.152406 -6.98064e-19)
(1.00468 -0.363014 1.58976e-18)
(1.53975 -0.518385 -1.93461e-18)
(2.00471 -0.632633 1.37957e-18)
(2.40594 -0.721478 1.42971e-18)
(0.445866 -0.102745 5.62389e-19)
(1.14609 -0.243083 -1.2995e-18)
(1.73743 -0.344811 -7.50808e-19)
(2.24293 -0.418221 1.9665e-18)
(2.67445 -0.474464 2.50021e-18)
(0.479254 -0.0361582 6.86903e-19)
(1.22363 -0.0847542 1.69138e-19)
(1.84589 -0.119363 2.5313e-18)
(2.37402 -0.143864 -1.06201e-18)
(2.82295 -0.162495 -4.83734e-19)
(-0.000902891 -0.0517746 2.74869e-19)
(0.0500843 -0.144592 -3.85246e-19)
(0.106009 -0.222734 1.11009e-18)
(0.171538 -0.29264 -1.76758e-19)
(0.239698 -0.354281 -1.60047e-18)
(0.013715 -0.0843673 -2.62696e-19)
(0.0892964 -0.227977 -4.25688e-19)
(0.174098 -0.350405 1.10496e-19)
(0.268373 -0.450382 5.96202e-20)
(0.364634 -0.530525 -3.58457e-20)
(0.0433423 -0.114277 7.05584e-20)
(0.165455 -0.303218 5.2804e-19)
(0.296149 -0.46748 9.50345e-20)
(0.432841 -0.598981 1.45854e-18)
(0.567893 -0.697567 -2.49703e-20)
(0.0866179 -0.140995 6.69557e-20)
(0.276369 -0.367829 -3.51141e-20)
(0.469491 -0.56303 2.1812e-19)
(0.661408 -0.718559 -2.0353e-18)
(0.844122 -0.830506 9.57057e-19)
(0.142122 -0.16172 -2.35789e-19)
(0.42008 -0.412848 -4.42536e-19)
(0.691402 -0.621475 -7.70255e-19)
(0.950152 -0.78242 9.5321e-19)
(1.18522 -0.892856 3.4532e-18)
(0.592727 -0.592181 -4.0446e-18)
(0.962758 -0.517373 1.00376e-18)
(1.29504 -0.212453 3.71495e-19)
(1.49229 -0.0348101 -5.9483e-19)
(1.56221 0.00105571 -7.22071e-20)
(0.785394 -0.743675 4.83392e-18)
(1.04373 -0.624071 -3.09538e-19)
(1.31961 -0.285329 -1.42623e-19)
(1.53407 -0.0775887 3.85647e-19)
(1.64629 -0.0168667 1.44007e-19)
(1.03643 -0.878247 1.54282e-18)
(1.17826 -0.710171 4.0433e-18)
(1.34234 -0.356316 6.8453e-20)
(1.54412 -0.12278 3.94278e-19)
(1.65662 -0.0379985 -4.92587e-20)
(1.33057 -0.988808 1.21927e-18)
(1.35919 -0.7716 -4.20507e-19)
(1.38695 -0.417298 -7.70365e-19)
(1.52644 -0.161315 -2.88481e-19)
(1.63712 -0.0558106 4.90974e-20)
(1.62988 -1.04756 4.37654e-21)
(1.55553 -0.811367 -1.71252e-18)
(1.44838 -0.465984 0)
(1.4916 -0.210012 2.91069e-19)
(1.54279 -0.0714057 6.07719e-20)
(2.1563 -1.11539 -1.5795e-18)
(1.83429 -0.800844 -4.92353e-19)
(1.55907 -0.456059 -9.85434e-21)
(1.40306 -0.206751 6.92043e-20)
(1.35661 -0.0710645 -2.45856e-19)
(2.63257 -0.889865 -1.612e-18)
(1.89975 -0.59103 2.97742e-18)
(1.43229 -0.319403 6.41532e-21)
(1.15738 -0.14999 2.07923e-19)
(1.09199 -0.0512701 0)
(2.47855 -0.522878 -6.92707e-18)
(1.60534 -0.338932 -1.49127e-19)
(1.14905 -0.178821 1.98108e-18)
(0.892431 -0.0898818 -3.26281e-19)
(0.806036 -0.0330416 -3.73874e-20)
(1.76237 -0.220001 6.83534e-18)
(1.08868 -0.135701 1.2451e-18)
(0.75201 -0.0677714 2.24099e-19)
(0.571828 -0.0357353 2.91697e-33)
(0.498048 -0.014576 -7.55682e-20)
(0.683159 0.000166539 1.55209e-18)
(0.395246 0.0235547 7.12606e-19)
(0.267674 0.0240725 -5.17616e-19)
(0.205703 0.0148246 2.24826e-19)
(0.175 0.00548777 -7.42212e-20)
(3.58188 -0.168159 1.25618e-17)
(3.41717 -0.50294 -1.04436e-17)
(3.13668 -0.787001 7.10863e-18)
(2.78062 -0.996106 2.32092e-18)
(2.33315 -1.10183 -4.14243e-19)
(3.78453 -0.103587 1.03947e-17)
(3.71746 -0.324461 -6.63896e-19)
(3.57772 -0.551823 -4.2699e-18)
(3.37828 -0.785763 2.68977e-18)
(3.10031 -1.01979 -6.62792e-19)
(3.11483 -0.0605681 3.65446e-18)
(3.09866 -0.181683 -2.51882e-18)
(3.05961 -0.309666 5.01277e-18)
(2.9989 -0.444861 -1.52958e-19)
(2.92433 -0.59363 -4.79051e-18)
(2.19087 -0.0276237 2.78878e-18)
(2.18384 -0.083368 8.43045e-18)
(2.16463 -0.144002 -6.53262e-19)
(2.13408 -0.207277 -6.60876e-18)
(2.11306 -0.269436 1.94591e-18)
(0.87944 -0.0018424 5.21227e-18)
(0.876491 -0.0052388 -1.1644e-19)
(0.867373 -0.00956757 -4.25772e-20)
(0.850512 -0.0162537 -2.00944e-18)
(0.841161 -0.0229052 -3.60554e-18)
(1.65316 0.940118 2.27647e-18)
(1.34831 0.816725 -7.90397e-20)
(1.00338 0.658651 -3.54878e-20)
(0.627862 0.449473 -1.96252e-19)
(0.225222 0.18229 -1.3405e-19)
(2.07051 0.892528 -1.21865e-18)
(1.71068 0.777737 -1.20373e-18)
(1.29832 0.632583 7.31804e-19)
(0.834037 0.438718 -4.84051e-19)
(0.312137 0.182085 -4.06072e-21)
(2.4186 0.735859 -5.89078e-19)
(2.01967 0.645357 5.25246e-19)
(1.555 0.528761 2.43649e-18)
(1.01753 0.370196 8.08295e-19)
(0.391336 0.155285 5.26052e-19)
(2.68202 0.486723 1.55552e-20)
(2.25239 0.428295 -2.71585e-19)
(1.74743 0.352325 -6.46747e-19)
(1.15476 0.247646 2.05639e-18)
(0.450324 0.104145 -3.26828e-19)
(2.82547 0.173874 -1.17054e-18)
(2.37728 0.152648 -1.60648e-18)
(1.8494 0.125348 -7.28688e-19)
(1.22671 0.0878346 7.96273e-19)
(0.480855 0.0366868 -3.25828e-19)
(0.24124 0.417374 -2.15103e-18)
(0.171017 0.353828 -1.82409e-18)
(0.103484 0.277356 3.17372e-19)
(0.0457902 0.183876 -4.79215e-20)
(-0.00160912 0.0676672 3.42387e-20)
(0.371168 0.595093 -8.00936e-19)
(0.274222 0.510632 -6.7355e-19)
(0.178862 0.399868 1.3267e-20)
(0.0926315 0.259821 -2.6012e-20)
(0.0168899 0.096632 2.65291e-20)
(0.581669 0.754256 2.18594e-18)
(0.44621 0.650268 -1.51489e-19)
(0.307951 0.507596 -1.45006e-19)
(0.174418 0.328784 -2.15493e-19)
(0.0484307 0.124041 1.67232e-19)
(0.862044 0.875338 -1.29474e-18)
(0.679156 0.758667 1.97454e-18)
(0.485277 0.594321 3.01555e-19)
(0.28834 0.388496 1.0244e-19)
(0.0925496 0.149205 -1.18417e-19)
(1.20369 0.925344 -4.411e-19)
(0.96911 0.81191 -4.57805e-19)
(0.708588 0.645132 3.59774e-19)
(0.43332 0.429186 3.59121e-19)
(0.148459 0.168534 1.89594e-21)
(0.941157 0.16742 -4.46954e-19)
(1.49516 0.132687 5.16136e-20)
(1.33323 0.19595 1.91775e-20)
(1.01444 0.499285 -5.02955e-19)
(0.599365 0.645801 5.96251e-20)
(0.947259 0.0887884 1.68043e-19)
(1.50639 0.107054 3.02516e-19)
(1.36152 0.245603 2.7205e-19)
(1.06102 0.615165 -5.52089e-20)
(0.784838 0.803851 7.56942e-19)
(0.952035 0.0103139 5.78639e-20)
(1.52212 0.0828168 -2.10638e-20)
(1.36149 0.29596 -5.71771e-20)
(1.16513 0.71352 -4.19525e-19)
(1.03723 0.938276 1.04162e-19)
(0.953971 -0.0663106 -1.90875e-20)
(1.52721 0.0623056 -7.24027e-19)
(1.36396 0.347058 8.10385e-20)
(1.32632 0.781134 1.19446e-18)
(1.33494 1.04261 9.46296e-19)
(0.951237 -0.140709 -2.31748e-20)
(1.50679 0.0536097 2.12341e-19)
(1.38426 0.396949 -6.26687e-20)
(1.51014 0.822683 -3.78985e-19)
(1.63612 1.0924 -2.73116e-18)
(0.93611 -0.235069 2.42785e-19)
(1.45905 0.0208657 4.9512e-19)
(1.46237 0.393312 -3.54352e-20)
(1.76717 0.801164 3.10404e-18)
(2.15324 1.14359 -5.51989e-18)
(0.88595 -0.345108 -2.51009e-20)
(1.32253 -0.0290821 -6.45801e-19)
(1.40242 0.282607 7.04329e-21)
(1.84216 0.595491 -3.06934e-18)
(2.59432 0.90074 1.66983e-18)
(0.78689 -0.411809 5.52901e-18)
(1.07913 -0.0907729 6.88781e-35)
(1.13518 0.15024 -2.12701e-18)
(1.57624 0.3403 2.6327e-18)
(2.45659 0.529697 5.03195e-18)
(0.634628 -0.291759 1.50806e-19)
(0.713019 -0.0718571 5.27014e-19)
(0.732366 0.0519834 2.47835e-19)
(1.07536 0.135177 6.22797e-19)
(1.75836 0.220509 -8.64473e-18)
(0.322656 -0.0431377 -4.3075e-18)
(0.293693 0.00566701 2.84299e-19)
(0.26515 -0.013328 1.1116e-18)
(0.393454 -0.0240322 -7.7026e-19)
(0.686191 -0.000463569 -1.46628e-18)
(2.34867 1.12126 4.69113e-18)
(2.78731 1.01259 3.4735e-18)
(3.14089 0.803403 -5.69239e-18)
(3.41899 0.519611 -1.46163e-17)
(3.58239 0.185884 1.57638e-17)
(3.07882 1.01885 5.00902e-18)
(3.35402 0.79523 2.56339e-17)
(3.55693 0.560669 7.2424e-18)
(3.70108 0.331823 -3.08284e-17)
(3.77792 0.111138 -5.17331e-18)
(2.90569 0.592013 -7.22816e-18)
(2.98596 0.448103 -3.38035e-18)
(3.05217 0.312109 -6.29704e-18)
(3.09524 0.18172 -6.88931e-18)
(3.114 0.0584247 6.52284e-18)
(2.10627 0.265895 5.41603e-18)
(2.13013 0.20574 -4.04594e-19)
(2.16254 0.143034 4.87131e-18)
(2.18312 0.0821301 6.28931e-18)
(2.19077 0.0259956 -5.88791e-18)
(0.842546 0.0220549 -5.74696e-19)
(0.85194 0.0156533 3.52116e-18)
(0.868638 0.00913118 2.44322e-18)
(0.877495 0.00479238 -5.16944e-18)
(0.879839 0.00136146 -3.84291e-20)
(0.281984 0.0207603 5.52142e-19)
(0.656781 0.0404734 -7.43613e-19)
(0.973282 0.044074 -8.1848e-19)
(0.944451 0.0274362 -1.51803e-18)
(0.697958 0.0163887 -6.6374e-19)
(0.245622 0.0554696 7.45777e-19)
(0.591365 0.107093 1.44152e-18)
(0.864809 0.125162 -6.97404e-19)
(0.940077 0.0970147 1.96084e-18)
(0.724282 0.0532505 -2.70091e-18)
(0.185654 0.0742773 4.96262e-19)
(0.476467 0.145919 -1.39887e-18)
(0.707876 0.18479 -9.13937e-19)
(0.857428 0.17544 -1.81029e-18)
(0.741663 0.101248 -2.86241e-18)
(0.123325 0.0774861 -7.72683e-19)
(0.344815 0.160379 -1.37666e-18)
(0.534611 0.21491 4.39918e-18)
(0.677815 0.233347 -3.66703e-19)
(0.713143 0.180054 2.25501e-18)
(0.075283 0.0723759 -6.23017e-19)
(0.230741 0.160123 1.56429e-18)
(0.372322 0.224555 6.1227e-19)
(0.482874 0.257806 -1.29585e-18)
(0.561383 0.258497 -1.7491e-19)
(0.0451515 0.0637802 8.41286e-20)
(0.149959 0.148773 -1.22213e-18)
(0.24776 0.212163 -9.45336e-19)
(0.325471 0.234125 -8.72163e-20)
(0.371265 0.223876 -5.00182e-20)
(0.0264655 0.0557042 3.1221e-19)
(0.0950761 0.134312 5.93521e-19)
(0.160895 0.184855 -2.09321e-19)
(0.213776 0.195496 2.59889e-19)
(0.253633 0.185446 1.71616e-19)
(0.013336 0.0488636 2.49852e-19)
(0.0586359 0.111459 1.31933e-18)
(0.103748 0.121252 -1.23993e-18)
(0.142745 0.107452 -2.78874e-18)
(0.178957 0.0860191 4.08314e-19)
(0.00619522 0.0393511 -2.38019e-19)
(0.04262 0.0489432 -1.80958e-18)
(0.0799076 0.0219384 3.21948e-18)
(0.119983 -0.00984198 1.31443e-18)
(0.161496 -0.0436216 -2.69482e-19)
(0.0099587 0.0018503 2.09866e-19)
(0.0421362 -0.0500172 -4.52204e-19)
(0.0822362 -0.0961848 8.99913e-20)
(0.130934 -0.144146 1.05035e-19)
(0.181645 -0.190363 1.66503e-21)
(0.338722 0.0720238 -7.50162e-20)
(0.613368 -0.0422105 -1.22588e-18)
(0.703375 -0.0132816 2.54175e-19)
(0.71469 0.00681449 4.03838e-19)
(0.697727 0.00389477 1.20909e-20)
(0.302911 -0.0341852 -1.00135e-19)
(0.749973 -0.114799 1.47087e-18)
(0.887367 -0.0228421 9.1957e-19)
(0.9137 0.0104394 7.56161e-20)
(0.90121 0.00663635 -3.47458e-20)
(0.319792 -0.149631 -8.1269e-19)
(0.834835 -0.198096 3.15887e-18)
(1.04906 -0.0419889 -1.8142e-19)
(1.10066 0.0128591 -3.57946e-19)
(1.09324 0.0093779 7.00669e-20)
(0.376122 -0.288417 1.10594e-18)
(0.88438 -0.2977 -2.71593e-18)
(1.17192 -0.0825941 -5.3566e-19)
(1.26721 0.00983589 -3.18135e-20)
(1.27086 0.0106228 3.19697e-21)
(0.463006 -0.436868 5e-19)
(0.919792 -0.405184 -5.4604e-19)
(1.25056 -0.142574 4.82246e-19)
(1.40241 -0.00388644 1.16518e-19)
(1.42838 0.00889607 2.77315e-21)
(0.18297 -0.0449831 9.5499e-19)
(0.144929 -0.00524086 0)
(0.162539 0.000965988 1.16354e-19)
(0.161849 -0.00047017 -7.39809e-21)
(0.155584 -0.000805059 -7.18513e-20)
(0.399701 0.0700117 0)
(0.408437 -0.000459304 0)
(0.466498 -0.00408737 4.97337e-20)
(0.467261 0.00351828 -3.40766e-20)
(0.450718 0.00159526 4.73196e-20)
(0.162694 -0.000821303 -3.68476e-19)
(0.186413 -0.00179202 3.10773e-18)
(0.213223 -0.00502052 -6.86309e-19)
(0.229822 -0.0149889 -3.11707e-18)
(0.245716 -0.0170116 -7.97049e-19)
(0.432051 0.0044415 6.09942e-19)
(0.484582 0.0196967 4.11563e-18)
(0.536479 0.0466995 -6.73005e-18)
(0.56765 0.0806195 2.20944e-18)
(0.59834 0.162224 3.79767e-18)
(0.370744 -0.220685 -3.32704e-19)
(0.324375 -0.231665 -9.3141e-20)
(0.2484 -0.212696 -3.31893e-19)
(0.15077 -0.150746 3.88612e-19)
(0.0458698 -0.0645764 1.14034e-19)
(0.257495 -0.169801 4.22793e-19)
(0.215067 -0.181879 1.41415e-18)
(0.162386 -0.177194 2.58462e-19)
(0.0967142 -0.135135 2.36512e-19)
(0.0269134 -0.0571997 -1.8741e-20)
(0.19319 -0.0550066 -3.11707e-19)
(0.151621 -0.0775674 -1.05597e-19)
(0.10879 -0.0951251 1.63395e-18)
(0.0623213 -0.0973314 2.85788e-19)
(0.0132568 -0.0480432 -3.14104e-19)
(0.178856 0.0867873 -6.36702e-19)
(0.132784 0.052927 -7.06115e-19)
(0.0878553 0.0191995 1.31071e-18)
(0.0495389 -0.010911 1.60223e-18)
(0.0112359 -0.0299577 1.99031e-19)
(0.189035 0.244248 1.24035e-19)
(0.134551 0.19794 -1.20131e-19)
(0.0820768 0.14812 2.48605e-19)
(0.0383176 0.0970054 6.2402e-19)
(-0.00223665 0.0356275 9.29748e-20)
(0.697955 -0.0163441 1.5316e-18)
(0.944456 -0.0274135 -1.80085e-18)
(0.97309 -0.0442003 2.27008e-18)
(0.656793 -0.0405359 3.64645e-19)
(0.282018 -0.020769 5.36696e-19)
(0.724272 -0.053144 1.77267e-18)
(0.939935 -0.0970301 7.94687e-18)
(0.864607 -0.125267 1.03369e-18)
(0.591418 -0.107133 1.34954e-18)
(0.245718 -0.0554909 -4.78523e-19)
(0.741577 -0.101005 -1.22135e-18)
(0.856826 -0.175278 -2.29663e-18)
(0.707798 -0.184852 2.92453e-18)
(0.476535 -0.145988 -1.08263e-19)
(0.185776 -0.0743131 3.39514e-19)
(0.712611 -0.179879 1.71373e-20)
(0.67712 -0.233302 -7.68655e-18)
(0.534649 -0.215244 -6.0001e-18)
(0.344952 -0.160714 1.0917e-18)
(0.123507 -0.0775901 5.08045e-19)
(0.558996 -0.257011 4.67682e-19)
(0.481867 -0.257252 5.33566e-19)
(0.372399 -0.225286 -8.9973e-19)
(0.231 -0.160995 -8.88393e-19)
(0.0756313 -0.0726334 -5.14471e-21)
(0.727792 0.373153 1.176e-18)
(0.880093 0.127857 -1.90591e-19)
(0.676691 0.0198524 2.50729e-19)
(0.644556 0.0357765 -7.51811e-19)
(0.362643 -0.0619642 -1.00711e-19)
(0.82771 0.39815 -1.70734e-19)
(1.08745 0.158041 -5.76219e-19)
(0.868304 0.0384067 8.37003e-19)
(0.804552 0.0987023 1.67553e-18)
(0.340455 0.0539344 1.03168e-19)
(0.89261 0.372801 -2.26223e-18)
(1.26679 0.172213 -3.7665e-20)
(1.03956 0.0625811 2.51932e-19)
(0.908757 0.177907 1.70948e-18)
(0.364934 0.176528 -1.44731e-18)
(0.924721 0.31822 1.50786e-18)
(1.40708 0.174459 1.59031e-20)
(1.17786 0.0998768 -2.18298e-19)
(0.964717 0.27648 -7.77828e-19)
(0.416035 0.323297 -5.93663e-19)
(0.935292 0.245548 1.80842e-19)
(1.48377 0.157812 4.08877e-20)
(1.27401 0.146004 -8.66025e-20)
(0.993524 0.384398 -1.01457e-19)
(0.486398 0.480744 1.36457e-18)
(0.275688 0.0483707 0)
(0.244279 -0.0112781 6.50413e-19)
(0.157501 -0.0159261 1.27047e-19)
(0.150317 0.00554116 -1.09626e-19)
(0.184388 0.0441125 -1.80777e-18)
(0.573463 0.266358 -1.01985e-17)
(0.609274 0.0751958 -2.56572e-18)
(0.444819 0.0133447 5.00705e-19)
(0.423592 0.000309993 -6.53916e-19)
(0.407586 -0.0683384 -6.62042e-19)
(0.245848 0.0169761 -8.74686e-22)
(0.229916 0.0150778 1.92878e-18)
(0.213301 0.0050643 5.24567e-19)
(0.186463 0.00180201 3.23007e-19)
(0.16271 0.00082517 0)
(0.599201 -0.162131 -1.15686e-19)
(0.568197 -0.0803352 2.54681e-18)
(0.536584 -0.0464786 -1.37905e-19)
(0.484642 -0.0196438 -2.70564e-19)
(0.432075 -0.00441921 7.60524e-19)
)
;

boundaryField
{
    left
    {
        type            fixedValue;
        value           uniform (1 0 0);
    }
    right
    {
        type            zeroGradient;
    }
    down
    {
        type            noSlip;
    }
    up
    {
        type            noSlip;
    }
    cylinder
    {
        type            noSlip;
    }
    defaultFaces
    {
        type            empty;
    }
}


// ************************************************************************* //
