/*--------------------------------*- C++ -*----------------------------------*\
  =========                 |
  \\      /  F ield         | OpenFOAM: The Open Source CFD Toolbox
   \\    /   O peration     | Website:  https://openfoam.org
    \\  /    A nd           | Version:  13
     \\/     M anipulation  |
\*---------------------------------------------------------------------------*/
FoamFile
{
    format      ascii;
    class       surfaceScalarField;
    location    "3";
    object      phi;
}
// * * * * * * * * * * * * * * * * * * * * * * * * * * * * * * * * * * * * * //

dimensions      [0 3 -1 0 0 0 0];

internalField   nonuniform List<scalar> 
823
(
-0.000437113
0.0162109
-0.0157738
0.0246911
0.0137817
-0.0389099
0.0946954
-0.0254928
-0.0445114
0.204643
-0.0864972
-0.0234508
-0.124451
-0.022921
0.352015
0.0026884
0.0135225
0.0514324
-0.0349623
0.152724
-0.126785
0.277251
-0.211024
-0.285699
0.438498
0.0231221
-0.0095996
0.114121
-0.125961
0.23429
-0.246954
0.350915
-0.327649
-0.375385
0.440601
0.0465428
-0.0561424
0.150096
-0.229514
0.240571
-0.337429
0.296945
-0.384023
-0.397501
0.31906
0.0621288
-0.118271
0.139647
-0.307032
0.184886
-0.382668
0.20363
-0.402767
0.215791
-0.409662
-0.0217634
0.0684588
-0.0466954
-0.0594361
0.104794
-0.0671209
-0.101035
0.107417
-0.0658189
-0.142286
0.101833
-0.0605812
0.0928361
-0.180914
-0.0542077
-0.00112326
0.069582
-0.0162357
0.119906
-0.0369552
0.128137
-0.0564262
0.121304
0.107869
-0.0714588
0.019726
0.049856
0.03703
0.102602
0.047814
0.117353
0.0578704
0.111247
0.0968349
0.0689041
0.0247463
0.0251097
0.0617317
0.0656167
0.0958546
0.08323
0.126434
0.0806676
0.0730209
0.150248
0.00933587
0.0360427
0.0747612
0.131978
0.182078
-0.109295
0.0558046
-0.127424
0.120571
-0.679805
0.44994
0.266626
-0.604328
0.458273
0.356345
-0.418877
0.329158
-0.191033
0.157453
0.0513769
-0.067031
0.21069
-0.839119
0.312063
-0.705701
0.376795
-0.483609
-0.216695
0.24676
-0.244887
0.34532
-0.937679
0.388814
-0.749195
0.41155
-0.506346
-0.228004
0.371395
-0.466034
0.439822
-1.00611
0.46124
-0.770612
0.45247
-0.497576
-0.22487
0.404099
-0.688055
0.473229
-1.07524
0.496221
-0.793605
0.481346
-0.4827
-0.217162
1.25761
-0.741257
-1.20441
1.13431
-0.951931
0.96599
-0.625288
0.821119
-0.337829
-0.144692
1.32268
-0.606673
-1.45726
1.06842
-0.697679
0.856289
-0.413152
0.738394
-0.219934
-0.0989788
1.29594
-0.486026
-1.41658
1.10271
-0.504448
0.915589
-0.226035
0.773685
-0.0780303
-0.0343487
1.17011
-0.302534
-1.3536
0.920876
-0.255218
0.758256
-0.0634153
0.666715
0.0135116
0.00626903
0.638032
-0.940566
0.382814
0.319399
0.33291
1.13852
0.179752
-1.10248
1.22187
0.235704
1.31327
0.349208
1.33055
0.421217
0.478155
1.04621
0.119158
-0.985622
1.12652
0.1554
1.229
0.246726
1.34758
0.302642
0.368472
0.989456
0.0646366
-0.934934
1.05082
0.0940367
1.14806
0.149485
1.2713
0.179397
0.223192
0.942508
0.0194865
-0.897357
1.00246
0.034087
1.09702
0.0549236
1.21196
0.0644541
0.0815559
0.705546
-0.686059
0.739633
0.794556
0.85901
0.140588
0.312799
-0.258166
-0.19522
0.0934389
0.31844
-0.271292
0.0518837
0.3289
-0.287345
0.017414
0.320594
-0.286124
0.207871
-0.190457
0.101155
0.350403
-0.138759
0.0639881
0.355607
0.0308217
0.362066
0.00538015
0.346035
0.213251
0.0613698
0.385006
-0.0959728
0.0299239
0.387053
0.00355947
0.388431
-0.00897812
0.358573
0.204273
-0.0230291
0.399712
0.00832361
-0.0380938
0.402118
-0.0440047
0.394342
-0.0322774
0.346845
0.171996
-0.104563
0.0946127
-0.105212
-0.0935384
-0.0537247
0.198095
0.110185
-0.249231
-0.0590487
0.145268
0.115171
-0.062344
0.0906545
0.121083
-0.0664697
0.0370394
0.122375
-0.0687603
0.0870465
-0.0500071
0.18414
0.153005
-0.226961
0.139199
0.160113
0.0892867
0.170995
0.0372451
0.174417
0.124292
0.148813
0.198485
-0.194293
0.106168
0.202759
0.0646726
0.21249
0.0246957
0.214394
0.148987
0.152833
0.232837
-0.187186
0.11275
0.242842
0.0687669
0.256473
0.0265869
0.256574
0.175574
0.103755
-0.129084
0.075305
0.0444332
0.014883
0.41058
0.0304835
-0.0450843
0.421547
0.0629153
-0.0738817
0.41525
0.194143
-0.187846
0.382204
0.278409
-0.245363
0.501018
-0.368046
0.408561
0.0179018
0.414861
0.0566157
0.405661
0.203343
0.372215
0.311856
0.646273
0.40263
0.0112514
0.409404
0.0498422
0.381326
0.23142
0.3645
0.328682
0.81648
0.397584
0.0096469
0.39384
0.0535867
0.36474
0.26052
0.337187
0.356235
0.966481
0.388739
0.0168874
0.380743
0.0615829
0.332633
0.30863
0.315656
0.373212
1.15305
0.620027
0.000881243
0.646096
0.0355136
0.668697
0.286028
0.742198
0.299711
0.866537
1.02871
0.626764
-0.021862
0.645237
0.0170405
0.707077
0.224187
0.780155
0.226634
0.612173
1.03452
0.627024
-0.0448656
0.649367
-0.00530218
0.734433
0.139122
0.823982
0.137085
0.3916
1.04455
0.61779
-0.0586353
0.645412
-0.0329238
0.739598
0.0449348
0.822588
0.0540948
0.190994
1.02319
0.545385
0.512461
0.557396
0.611491
0.802485
1.05671
-0.223214
1.04804
-0.130093
1.05486
-0.102795
1.05338
0.00981205
0.0455096
0.987732
-0.176428
0.97238
-0.114741
0.949288
-0.0797026
0.963987
-0.00488665
0.023875
0.976044
-0.107917
0.943683
-0.0823801
0.915832
-0.0518513
0.924663
-0.0137178
0.0136037
0.958911
-0.0436338
0.913997
-0.0374655
0.886636
-0.024491
0.88543
-0.0125111
0.00167587
0.758851
0.721385
0.696894
0.684383
0.0469872
0.137908
-0.184896
0.072032
0.305641
-0.330686
0.073407
0.360162
-0.361537
0.0631928
0.364767
-0.354552
0.334101
0.0511125
-0.322021
0.0672979
0.0706106
0.139154
0.233785
0.175222
0.324094
0.1809
0.359089
0.356175
0.158826
0.0556156
0.014995
0.166026
0.123375
0.260934
0.229187
0.331079
0.288943
0.342668
0.344586
0.0260704
-0.0110754
0.118702
0.0307429
0.238184
0.109706
0.355455
0.171671
0.23135
0.466774
0.0045563
-0.0156317
0.0478922
-0.012593
0.140016
0.0175819
0.254171
0.0575157
0.0899572
0.395564
-0.00334079
-0.0122909
0.00747709
-0.0234109
0.0461137
-0.0210547
0.110979
-0.00734967
0.0134444
0.187492
0.00366803
-0.015959
0.011481
-0.0312238
0.0248993
-0.034473
0.0480292
-0.0304795
-0.02152
0.0829936
-0.00915617
-0.00680279
-0.0244993
-0.0158807
-0.039446
-0.0195262
-0.0500188
-0.0199068
-0.0182091
-0.0533297
-0.0256861
0.0188834
-0.0650946
0.0235277
-0.104493
0.0198724
-0.140306
0.0159056
0.0128295
-0.171344
-0.027812
-0.0714052
-0.117352
-0.162027
-0.203406
0.370513
0.398166
-0.581187
0.426722
0.125466
-0.181674
0.395006
0.0343073
-0.00259117
0.386457
0.0315488
-0.0229997
0.0066797
-0.0233252
0.224891
0.256268
0.232195
0.118161
0.271821
-0.00531844
0.339779
-0.0364099
-0.0350035
-0.00658005
0.209519
0.0977554
0.0138258
0.234238
-0.141801
0.331262
-0.133433
-0.0797987
-0.133891
0.172066
0.0806432
-0.200708
0.238418
-0.299576
0.33746
-0.232475
-0.120472
-0.158764
0.0904676
0.249164
0.345847
0.235039
0.392096
-0.627135
0.118132
0.116908
0.173421
-0.055289
0.238189
-0.0647684
-0.0253194
0.820092
-1.00918
0.755325
0.697445
0.609677
0.0833588
-0.0147027
-0.068656
0.134034
-0.0506755
0.247627
-0.113593
0.417717
-0.170089
-0.209418
0.18721
-0.150801
0.295361
0.526354
0.823038
0.137315
-0.124444
0.155984
-0.168855
0.103318
-0.128956
0.162952
0.0658257
-0.135347
0.172839
0.0265429
-0.134714
0.173997
-0.0936137
0.120157
0.171238
-0.0864059
-0.209276
0.12931
-0.0870273
0.0822328
-0.0882694
0.0338667
-0.0863481
-0.0597469
0.181198
-0.0391963
-0.228407
0.132351
-0.0381803
0.0819834
-0.0379019
0.0331081
-0.0374729
-0.0266388
0.193945
0.00988432
-0.243025
0.143673
0.0120915
0.0913386
0.0144323
0.0381035
0.0157622
0.0114647
0.19383
-0.242995
0.143578
0.0915405
0.0385424
0.0369621
-0.302643
-0.0563398
0.0142045
-0.331795
-0.00713211
-0.340201
-0.0154327
-0.322385
-0.200328
0.11826
-0.272979
-0.147924
0.0764745
-0.290009
0.0367735
-0.3005
0.00713068
-0.292743
-0.193198
0.136222
-0.234783
-0.174418
0.0964592
-0.250246
0.0564722
-0.260513
0.0199428
-0.256213
-0.173255
0.156003
-0.201048
-0.189738
0.114064
-0.208307
0.0691958
-0.215644
0.0270556
-0.214073
-0.146199
0.154279
-0.199343
0.108923
0.0661187
0.0260428
0.393729
0.0813203
-0.0790697
0.390519
0.128694
-0.125483
0.341887
0.142272
-0.0936404
0.289355
0.0528649
-0.000333373
-0.145144
0.265644
0.399349
0.0779508
0.409316
0.118727
0.384361
0.167227
0.328542
0.108684
-0.025878
0.402934
0.0709967
0.419397
0.102263
0.404751
0.181873
0.352615
0.160819
0.0983299
0.407403
0.0595731
0.423046
0.0866211
0.41836
0.186559
0.373515
0.205664
0.22882
0.410468
0.423208
0.421921
0.382221
0.424029
0.086022
0.324434
0.0995949
0.262569
0.0618649
0.271611
-0.00904157
-0.143755
0.415366
0.517003
0.491115
0.459339
0.449965
0.571854
0.33065
0.0847162
0.254923
0.0757266
0.16795
0.0869733
0.0964454
0.0715043
0.0277894
0.457227
0.343215
0.255771
0.179351
)
;

boundaryField
{
    left
    {
        type            calculated;
        value           nonuniform List<scalar> 
17
(
-0.60402
-0.60402
-0.60402
-0.60402
-0.60402
-0.39598
-0.39598
-0.39598
-0.39598
-0.39598
-0.39598
-0.39598
-0.39598
-0.39598
-0.39598
-0.510051
-0.510051
)
;
    }
    right
    {
        type            calculated;
        value           nonuniform List<scalar> 
17
(
0.263509
0.561033
0.403102
0.381463
0.376057
0.378132
0.382829
0.389925
0.402457
0.42286
0.449336
0.473638
0.748648
0.692681
0.709055
0.626097
0.339179
)
;
    }
    down
    {
        type            calculated;
        value           uniform 0;
    }
    up
    {
        type            calculated;
        value           uniform 0;
    }
    cylinder
    {
        type            calculated;
        value           uniform 0;
    }
    defaultFaces
    {
        type            empty;
    }
}


// ************************************************************************* //
