/*--------------------------------*- C++ -*----------------------------------*\
  =========                 |
  \\      /  F ield         | OpenFOAM: The Open Source CFD Toolbox
   \\    /   O peration     | Website:  https://openfoam.org
    \\  /    A nd           | Version:  13
     \\/     M anipulation  |
\*---------------------------------------------------------------------------*/
FoamFile
{
    format      ascii;
    class       volVectorField;
    location    "3";
    object      U;
}
// * * * * * * * * * * * * * * * * * * * * * * * * * * * * * * * * * * * * * //

dimensions      [0 1 -1 0 0 0 0];

internalField   nonuniform List<vector> 
440
(
(-0.0823106 0.0559976 -7.88368e-20)
(-0.13568 0.129591 9.51989e-20)
(-0.0167237 0.173019 6.36361e-20)
(0.371464 0.217255 4.38145e-19)
(0.454659 0.313688 1.3172e-21)
(-0.100378 0.049579 2.50645e-20)
(0.0255575 0.0203127 -1.56998e-19)
(0.514414 -0.0137432 -1.03833e-19)
(1.09504 -0.0360912 5.12637e-20)
(1.60346 -0.0402199 -2.09342e-21)
(-0.0444034 0.0145819 5.62784e-20)
(0.478257 -0.0312126 7.54956e-19)
(1.28568 -0.020354 -3.91135e-19)
(1.90481 0.0151263 -1.17164e-18)
(2.44324 0.0250265 4.3085e-19)
(0.171662 -0.041427 -1.83891e-19)
(1.20026 0.0111889 -5.4757e-19)
(2.01228 0.0877383 1.76803e-18)
(2.46287 0.128987 1.92417e-18)
(2.54009 0.152342 -5.39421e-19)
(0.549196 -0.00599865 -3.05429e-19)
(1.78014 0.198334 -6.4341e-19)
(2.35652 0.285751 1.95862e-18)
(2.50136 0.306188 2.09517e-18)
(2.59262 0.279763 6.98129e-19)
(-0.0413588 0.367968 1.70603e-19)
(-0.155559 0.534447 6.84419e-20)
(-0.260533 0.52601 -3.20302e-19)
(-0.35379 0.481597 4.6293e-20)
(-0.414156 0.425793 2.23167e-19)
(-0.0938705 0.44632 -2.37491e-21)
(-0.186478 0.700791 -2.04501e-19)
(-0.245256 0.715441 6.12258e-20)
(-0.290415 0.666635 6.10078e-20)
(-0.301727 0.592211 -1.18681e-19)
(-0.126472 0.384234 -1.76833e-19)
(-0.200289 0.729346 8.47546e-20)
(-0.207014 0.801784 -6.5777e-20)
(-0.176702 0.758007 -5.94527e-19)
(-0.129675 0.677485 6.36343e-21)
(-0.100089 0.207775 -2.54046e-20)
(-0.170763 0.533379 2.96967e-20)
(-0.159653 0.673763 5.63255e-20)
(-0.0901362 0.688431 3.32352e-19)
(-0.0303291 0.638239 -7.84668e-20)
(-0.0677431 0.0818963 -6.84834e-20)
(-0.157872 0.277673 -8.59616e-20)
(-0.164745 0.419402 -9.86991e-20)
(-0.0780067 0.478891 -1.00826e-19)
(0.0188618 0.5325 -5.74565e-19)
(-0.519685 0.0699149 -1.08595e-18)
(0.0770367 -0.415952 6.93256e-19)
(0.51326 -0.376623 2.65434e-20)
(0.775846 -0.264319 -1.05177e-20)
(0.984595 -0.124708 -3.70077e-22)
(-0.0625669 0.00351788 1.03127e-18)
(0.443472 -0.5438 -1.72654e-19)
(0.70311 -0.467766 7.30769e-20)
(0.872904 -0.323364 7.0832e-20)
(1.01623 -0.150386 1.13822e-20)
(0.573381 -0.0958886 2.44782e-19)
(0.955569 -0.605084 7.5177e-19)
(1.01783 -0.508487 -6.06659e-20)
(1.03492 -0.352246 1.09873e-19)
(1.06775 -0.164701 -4.14973e-21)
(1.1346 -0.24192 -1.70807e-19)
(1.36462 -0.655752 -2.6608e-19)
(1.32135 -0.514985 -4.46869e-20)
(1.22434 -0.346303 -1.17785e-19)
(1.13461 -0.163023 4.30828e-20)
(1.51774 -0.404843 -1.14442e-19)
(1.65359 -0.683147 -4.50954e-19)
(1.51455 -0.509452 0)
(1.3699 -0.319501 1.02506e-19)
(1.196 -0.147096 2.15999e-20)
(2.19528 -0.412445 -4.32001e-19)
(2.03601 -0.623548 1.72932e-19)
(1.68906 -0.472399 -1.47518e-20)
(1.46697 -0.275888 7.74662e-20)
(1.23935 -0.118521 -6.4625e-20)
(2.43523 -0.468876 3.47768e-20)
(2.01318 -0.534258 2.45085e-19)
(1.51515 -0.307809 -1.15899e-20)
(1.28732 -0.153921 -7.49391e-20)
(1.14673 -0.0665647 0)
(2.34233 -0.321318 -4.80474e-19)
(2.01756 -0.354273 1.36471e-20)
(1.63232 -0.201188 -1.07145e-19)
(1.37584 -0.11017 4.16089e-20)
(1.17382 -0.0517945 -1.77188e-20)
(2.20678 -0.273894 9.20091e-20)
(1.71565 -0.27967 1.23621e-19)
(1.33937 -0.0896775 -2.62098e-20)
(1.16074 0.00673833 -3.50699e-34)
(1.03648 0.00615972 1.75364e-20)
(1.37677 -0.0846268 1.63658e-19)
(0.751907 -0.030305 1.56459e-20)
(0.527794 0.00896229 -4.75996e-21)
(0.534443 0.0108528 -8.23425e-21)
(0.561443 0.00240588 1.20372e-21)
(2.45699 0.302178 -8.53649e-19)
(2.70395 0.0652963 -1.08716e-18)
(2.48189 0.138614 6.6797e-19)
(2.80779 -0.108736 1.07131e-19)
(2.04121 0.141852 -1.59641e-21)
(2.17328 0.222913 7.99221e-20)
(2.506 0.0222618 -3.9611e-20)
(2.30315 0.0743027 -1.45065e-19)
(2.58672 -0.136152 -2.029e-19)
(2.39191 -0.126401 -8.52526e-21)
(2.13143 0.121075 8.26093e-20)
(2.26792 0.0251302 8.92959e-20)
(2.25157 0.0051508 -1.14894e-19)
(2.32527 -0.0842155 4.36897e-20)
(2.34642 -0.12991 -2.46242e-21)
(2.08969 0.0502105 1.20586e-19)
(2.10917 0.000201928 1.56545e-19)
(2.19482 -0.0163459 -2.03831e-20)
(2.18587 -0.071692 -5.70199e-20)
(2.26029 -0.0940745 3.56991e-20)
(1.59304 -0.0137484 1.85804e-19)
(1.55033 -0.0157817 -1.25686e-20)
(1.62438 -0.0272439 2.30982e-20)
(1.54508 -0.0293134 -2.78854e-20)
(1.61575 -0.0464356 5.88747e-21)
(1.62875 0.873841 1.17015e-18)
(1.58083 0.974605 -3.67098e-19)
(1.5816 1.10777 -1.39169e-18)
(1.5136 1.15618 7.67394e-19)
(0.931115 0.837731 -1.80027e-19)
(1.92906 0.837962 -5.96185e-19)
(1.89553 0.919095 -3.16632e-18)
(1.89429 1.02738 -1.22743e-18)
(1.80466 1.03723 -4.25824e-19)
(1.1032 0.728822 -6.98944e-19)
(2.21198 0.711403 8.18757e-19)
(2.20012 0.783522 2.04283e-19)
(2.18231 0.87427 -2.42399e-18)
(2.04396 0.859025 -6.74229e-19)
(1.202 0.566966 4.83192e-19)
(2.39961 0.60358 2.39507e-18)
(2.3828 0.653014 1.75651e-18)
(2.37279 0.701911 -2.01686e-18)
(2.14676 0.653464 -1.53175e-18)
(1.16147 0.370864 -2.72257e-19)
(2.52646 0.439522 1.16499e-18)
(2.54281 0.462903 -8.30437e-19)
(2.44257 0.486784 5.98381e-19)
(2.08254 0.422094 4.6105e-19)
(0.94722 0.158872 -3.83111e-19)
(0.568744 0.488576 -5.46369e-19)
(0.481769 0.522216 -4.15786e-19)
(0.365992 0.558116 4.51346e-20)
(0.230251 0.575311 1.35335e-21)
(0.0587647 0.422037 9.07857e-20)
(0.665939 0.674632 1.4374e-19)
(0.60292 0.741623 -2.35273e-19)
(0.518436 0.816522 1.81388e-19)
(0.396865 0.864409 -8.59784e-20)
(0.173785 0.645254 1.20839e-19)
(0.800292 0.841053 1.04147e-19)
(0.72586 0.918895 4.82415e-19)
(0.669526 1.0196 1.27499e-19)
(0.585472 1.07252 -3.21821e-19)
(0.320307 0.793377 2.74968e-19)
(1.06755 0.931579 2.74623e-19)
(1.01886 1.02103 -8.17309e-19)
(0.969262 1.12322 -2.10012e-18)
(0.889244 1.18586 8.35376e-19)
(0.525057 0.878475 -1.63631e-19)
(1.19525 0.957517 -1.17842e-19)
(1.2154 1.08076 -1.95042e-19)
(1.23119 1.1999 -3.88915e-19)
(1.17443 1.23273 -4.44883e-19)
(0.720021 0.891093 -7.00397e-21)
(0.94465 0.0291581 -9.98872e-20)
(1.05467 0.0495538 -3.39589e-20)
(1.01997 0.136744 -2.00064e-21)
(0.94879 0.180604 -3.00608e-19)
(0.873977 0.31375 2.93776e-19)
(0.943532 0.0236274 6.69402e-20)
(1.05954 0.0505571 1.21609e-19)
(1.01648 0.141381 1.19529e-19)
(0.983896 0.220177 4.69545e-20)
(0.927536 0.377358 -2.52171e-20)
(0.948203 0.0197647 9.07714e-20)
(1.04839 0.0468616 -4.49622e-21)
(1.06031 0.157761 -4.38533e-21)
(0.931542 0.220337 1.53685e-19)
(1.16441 0.537471 -4.82235e-19)
(0.948223 0.0161171 -1.26468e-21)
(1.05566 0.042905 -1.61427e-19)
(1.05721 0.172567 -6.41445e-20)
(1.01731 0.236784 -4.0445e-19)
(1.18245 0.553445 1.00156e-19)
(0.948927 0.0115195 -1.91257e-20)
(1.05187 0.0442748 4.37529e-20)
(1.09906 0.180585 3.09294e-20)
(0.988381 0.248216 4.51144e-19)
(1.48164 0.701972 -4.53792e-19)
(0.932761 0.00954223 -1.48466e-20)
(1.08401 0.0266412 9.05809e-20)
(1.09203 0.204152 -8.27604e-20)
(1.15451 0.18713 8.20848e-19)
(1.33728 0.693038 -3.83052e-19)
(0.930357 -0.00869303 -2.00289e-21)
(1.1044 0.0151419 -8.00655e-20)
(1.0757 0.156842 4.45649e-21)
(1.2413 0.178525 -2.60274e-19)
(1.40838 0.440429 -1.01818e-20)
(0.942087 -0.0166188 -4.53079e-21)
(1.09086 0.00810911 1.19471e-35)
(1.10657 0.124288 -3.662e-20)
(1.28827 0.110147 9.05985e-20)
(1.51111 0.304156 1.66148e-19)
(0.962561 -0.043688 4.76979e-21)
(1.03663 -0.0158339 -2.31752e-20)
(1.152 0.0492956 1.77348e-20)
(1.25121 0.0585099 3.30377e-20)
(1.54291 0.186481 -2.53724e-19)
(0.901481 -0.0226743 -3.67646e-20)
(0.856615 -0.0231388 -2.34011e-21)
(0.888153 0.00503991 2.69256e-20)
(0.914653 0.0059335 -1.56054e-20)
(1.17025 0.0561416 -5.773e-20)
(1.86433 0.660246 3.18075e-19)
(1.95284 0.677751 8.01908e-19)
(2.22741 0.544796 -1.14127e-18)
(2.27869 0.529724 2.34022e-20)
(2.51665 0.317262 4.85748e-19)
(1.79842 0.431574 6.19375e-20)
(1.82406 0.437367 9.80225e-19)
(2.04887 0.355 1.14163e-19)
(2.01922 0.35348 -9.60139e-19)
(2.30511 0.18954 -2.93027e-19)
(1.74588 0.307797 -2.20043e-19)
(1.81897 0.277915 -1.53341e-19)
(1.9411 0.241296 1.64671e-19)
(1.98639 0.214198 -3.07433e-19)
(2.13333 0.134897 2.76016e-19)
(1.70085 0.186789 3.41265e-19)
(1.79263 0.160765 -4.90998e-21)
(1.84823 0.140319 2.27754e-19)
(1.94907 0.113195 2.03382e-19)
(1.99436 0.0713564 -1.97962e-19)
(1.34667 0.0473409 -4.11424e-20)
(1.41705 0.0313217 2.32961e-19)
(1.4522 0.0217985 1.09368e-19)
(1.52257 0.00585859 -2.31942e-19)
(1.52211 -0.00157318 2.61561e-22)
(1.07965 -0.0170271 5.91281e-20)
(2.0526 -0.0447217 -3.83115e-19)
(2.28523 -0.0353586 1.04604e-18)
(2.26069 0.0016826 4.54983e-19)
(2.12385 0.0324802 -3.22494e-19)
(0.676277 0.0921809 1.05159e-19)
(1.83264 0.082663 -3.86268e-19)
(2.28668 0.0829571 -5.12497e-19)
(2.36081 0.0899007 6.06928e-19)
(2.09416 0.0760457 -3.69277e-19)
(0.219339 0.0760372 -1.89768e-20)
(1.21793 0.139782 4.01054e-19)
(1.93883 0.154353 5.27531e-20)
(2.31213 0.141423 2.82306e-19)
(2.51778 0.135731 7.43574e-20)
(-0.024095 -0.0154672 1.70302e-19)
(0.442253 0.0746995 1.7028e-19)
(1.18034 0.137334 -3.56566e-19)
(1.64738 0.156524 1.65736e-20)
(2.18851 0.175111 -4.92882e-20)
(-0.0846124 -0.0672075 1.24847e-19)
(0.00832299 -0.0392989 -1.32655e-19)
(0.389785 0.0295925 -2.45521e-20)
(0.85681 0.0560955 3.65467e-20)
(1.1582 0.0802326 -4.06015e-20)
(-0.0573069 -0.05558 -3.24847e-21)
(-0.0899768 -0.0896685 7.12322e-20)
(-0.00471186 -0.087621 8.64742e-20)
(0.189085 -0.0576198 -1.23591e-19)
(0.440497 -0.0350073 -7.0727e-23)
(-0.0432601 -0.0785002 -1.26675e-20)
(-0.0808991 -0.170377 -6.19309e-21)
(-0.0717465 -0.203782 9.48445e-21)
(-0.0229764 -0.19075 2.2587e-20)
(0.0785544 -0.155331 1.64686e-20)
(-0.0449229 -0.0897226 -1.72949e-20)
(-0.115788 -0.153564 -1.95945e-19)
(-0.158405 -0.149997 1.6321e-19)
(-0.181573 -0.122581 4.23779e-19)
(-0.170861 -0.093999 -5.62185e-20)
(-0.0175526 0.0311187 1.44382e-20)
(-0.127182 0.0391558 9.77965e-20)
(-0.231097 0.0365279 -2.75618e-19)
(-0.314277 0.0394055 -2.64014e-19)
(-0.36214 0.045416 1.62882e-20)
(-0.0073906 0.206516 -4.04075e-21)
(-0.120358 0.293538 2.02793e-20)
(-0.23587 0.287539 -1.35712e-20)
(-0.338025 0.266639 3.95601e-20)
(-0.408266 0.240235 1.65656e-19)
(1.29668 0.348139 -1.77028e-20)
(1.2306 0.0727332 8.25837e-19)
(1.14225 -0.00019978 -6.43544e-20)
(0.997178 0.0368795 -8.30452e-20)
(1.01787 0.0265514 4.90478e-22)
(0.853508 0.199083 8.34978e-20)
(0.553206 0.0977854 -3.00835e-19)
(0.667036 0.0523948 -1.62686e-19)
(0.76565 0.0183378 -1.15254e-20)
(0.963214 -0.00086112 -1.4817e-20)
(0.049464 0.160135 6.41204e-20)
(0.00572462 0.0682065 -3.92138e-19)
(0.455467 -0.0466895 2.68148e-20)
(0.699416 -0.0484924 1.34026e-19)
(0.949584 -0.025887 2.98462e-21)
(-0.46917 0.130188 1.82406e-19)
(-0.100428 -0.050832 -5.57443e-19)
(0.432686 -0.144884 5.49048e-20)
(0.704102 -0.121101 2.66524e-21)
(0.954828 -0.0626481 8.68582e-21)
(-0.624673 0.101999 1.16132e-19)
(-0.068804 -0.227496 2.12817e-20)
(0.448209 -0.261515 -2.62532e-20)
(0.729782 -0.19248 -8.22533e-21)
(0.966684 -0.0933674 1.48521e-20)
(0.715571 0.102328 -6.52036e-20)
(0.187902 -0.0467682 0)
(0.284101 -0.0737051 -2.84265e-20)
(0.407156 -0.0561747 2.58038e-20)
(0.516482 -0.0241204 8.10669e-22)
(1.7837 0.352042 0)
(1.47272 0.190336 0)
(1.45547 0.00690555 3.72973e-19)
(1.28213 -0.0191096 4.99294e-20)
(1.09979 -0.00456351 -1.07873e-21)
(0.684936 -0.000185171 -1.19441e-19)
(0.720854 -0.00331399 2.38008e-19)
(0.895035 -0.0186654 -1.66858e-20)
(1.03953 0.00699544 2.22384e-19)
(1.30911 0.0380037 1.43773e-19)
(1.5556 0.02113 1.13613e-19)
(1.63945 0.0662523 2.54922e-19)
(1.87335 0.0184187 -3.68246e-20)
(2.41114 0.146614 -6.17176e-20)
(2.05395 0.0640727 3.28452e-21)
(0.845021 -0.41793 -3.65201e-20)
(0.822108 -0.499334 -1.37324e-19)
(0.804154 -0.588554 -8.40592e-20)
(0.731734 -0.650145 5.13243e-20)
(0.440668 -0.506956 1.1275e-19)
(0.734343 -0.321478 1.15404e-19)
(0.681251 -0.381127 2.46784e-19)
(0.612348 -0.447946 -2.42911e-20)
(0.505227 -0.503675 1.2183e-19)
(0.27106 -0.399286 5.1722e-20)
(0.603426 -0.182314 -1.41695e-19)
(0.521096 -0.215769 -4.41036e-20)
(0.421265 -0.25833 1.38376e-19)
(0.304167 -0.298131 -4.17376e-21)
(0.129311 -0.242519 -1.00762e-19)
(0.516733 0.0419345 -3.92681e-19)
(0.434317 0.032118 -3.31638e-19)
(0.326786 0.0135836 2.66835e-19)
(0.202379 -0.0164886 1.74992e-19)
(0.049158 -0.0379596 1.34684e-20)
(0.494145 0.245047 -1.61686e-19)
(0.411026 0.25566 -1.60953e-19)
(0.300926 0.267929 -7.34826e-20)
(0.172766 0.274176 1.13623e-20)
(0.0225972 0.194461 9.60494e-21)
(1.88277 -0.0391397 6.9137e-19)
(2.14573 -0.0985308 2.21667e-19)
(2.20645 -0.176273 -6.13207e-19)
(2.05668 -0.203354 -1.27616e-18)
(1.22737 -0.17147 1.12251e-19)
(1.87067 -0.108437 1.1627e-18)
(1.94582 -0.213461 1.56158e-18)
(1.96407 -0.327735 1.33155e-19)
(1.88124 -0.384655 2.37307e-19)
(1.19638 -0.329939 -1.56334e-19)
(1.59471 -0.258919 -3.00314e-18)
(1.66138 -0.368741 3.11602e-19)
(1.70034 -0.484025 9.46368e-19)
(1.6316 -0.553172 -3.42107e-19)
(1.05125 -0.462139 5.49925e-19)
(1.40097 -0.368339 6.93081e-19)
(1.41264 -0.458626 -1.86946e-18)
(1.39241 -0.566417 -2.10699e-18)
(1.31837 -0.645603 6.34745e-19)
(0.845017 -0.526929 4.57811e-19)
(1.1339 -0.412955 1.31479e-19)
(1.08887 -0.499055 2.21206e-19)
(1.07095 -0.60974 -3.19113e-19)
(1.00913 -0.687911 -3.84402e-19)
(0.633231 -0.543018 -3.49889e-21)
(0.964901 0.042717 6.13099e-21)
(1.03106 0.0757658 -2.91696e-21)
(1.06084 0.0660444 -1.00667e-20)
(0.783112 0.00402182 -1.77296e-19)
(1.03252 -0.159081 -1.07869e-20)
(0.966548 0.0439582 -2.61413e-21)
(1.02242 0.07097 4.62709e-20)
(1.08197 0.0963421 -4.7512e-20)
(0.849177 0.0476174 9.29153e-20)
(0.919394 -0.0514788 -1.3425e-20)
(0.966614 0.0396261 -5.7255e-20)
(1.01426 0.0642159 2.14832e-22)
(1.08389 0.105392 -1.78181e-20)
(0.858441 0.0838332 1.76873e-20)
(0.883963 0.00378406 -1.52846e-19)
(0.958816 0.0376985 7.55907e-20)
(1.028 0.0550661 3.8915e-21)
(1.05341 0.119723 3.11525e-20)
(0.906177 0.116592 3.25502e-20)
(0.813893 0.108781 1.00415e-19)
(0.949709 0.0335143 1.84961e-20)
(1.04568 0.0524603 -3.06869e-20)
(1.02509 0.125418 4.07299e-20)
(0.943529 0.15645 7.90576e-20)
(0.8007 0.203814 -1.22594e-19)
(0.870049 0.0333649 0)
(0.752988 0.0302289 1.12253e-20)
(0.548364 0.0185718 1.44527e-21)
(0.463803 -0.00814744 3.50554e-20)
(0.644151 -0.0401004 -1.26736e-19)
(0.956949 0.0643765 -5.98925e-20)
(1.03152 0.088128 -1.47836e-20)
(0.929706 0.0547906 -3.31964e-20)
(0.85779 -0.004489 -1.03726e-19)
(0.961945 -0.148986 -1.32889e-19)
(0.88432 -0.0550092 -2.68837e-20)
(0.960451 -0.0219493 4.49308e-19)
(1.03246 0.0413513 2.72087e-19)
(0.904167 0.0504066 3.22241e-20)
(0.694859 0.0253922 0)
(1.20841 -0.278106 2.6731e-19)
(1.31303 -0.249774 1.27192e-18)
(1.47336 -0.138051 -1.3995e-18)
(1.56471 -0.0161301 -4.2591e-19)
(1.45317 0.0246873 3.28571e-19)
)
;

boundaryField
{
    left
    {
        type            fixedValue;
        value           uniform (1 0 0);
    }
    right
    {
        type            zeroGradient;
    }
    down
    {
        type            noSlip;
    }
    up
    {
        type            noSlip;
    }
    cylinder
    {
        type            noSlip;
    }
    defaultFaces
    {
        type            empty;
    }
}


// ************************************************************************* //
