/*--------------------------------*- C++ -*----------------------------------*\
  =========                 |
  \\      /  F ield         | OpenFOAM: The Open Source CFD Toolbox
   \\    /   O peration     | Website:  https://openfoam.org
    \\  /    A nd           | Version:  13
     \\/     M anipulation  |
\*---------------------------------------------------------------------------*/
FoamFile
{
    format      ascii;
    class       surfaceScalarField;
    location    "3.35";
    object      phi;
}
// * * * * * * * * * * * * * * * * * * * * * * * * * * * * * * * * * * * * * //

dimensions      [0 3 -1 0 0 0 0];

internalField   nonuniform List<scalar> 
3485
(
-0.00192206
0.00396487
-0.00204281
-0.00449104
0.00766447
-0.0050955
-0.00546178
0.00828208
-0.00731134
-0.00312597
0.00616187
-0.00849769
0.00392738
0.00126074
-0.00831409
0.0167831
-0.006405
-0.00645069
0.0363244
-0.0168749
-0.00266635
0.0632265
-0.029787
0.00288485
0.0978608
-0.0444388
0.00980446
-0.051395
0.0139046
0.135351
-0.000818068
0.00478294
-0.000973212
0.00781962
0.00151219
0.00579668
0.00838975
-0.000715686
0.0210434
-0.011393
0.0404373
-0.0257988
0.0666986
-0.0431363
0.099254
-0.0623424
0.137078
-0.0822624
-0.0973493
0.183032
0.000340575
0.00444236
0.00308631
0.00507389
0.0100491
-0.0011661
0.0228897
-0.0135564
0.0426168
-0.03112
0.0692488
-0.0524308
0.101681
-0.0755687
0.137868
-0.0985294
0.175412
-0.119806
-0.137432
0.215494
0.00116288
0.00327949
0.00660984
-0.000373077
0.0182049
-0.0127612
0.0370958
-0.0324472
0.0632214
-0.0572457
0.0949969
-0.0842063
0.129765
-0.110337
0.164581
-0.133345
0.19675
-0.151974
-0.165876
0.225194
0.00212467
0.00115482
0.0105531
-0.00880145
0.0268553
-0.0290634
0.0510881
-0.0566801
0.0812884
-0.0874459
0.114071
-0.116989
0.145853
-0.14212
0.173865
-0.161357
0.196569
-0.174678
-0.183315
0.214008
0.00333614
-0.00218133
0.0149611
-0.0204264
0.0354391
-0.0495413
0.0628347
-0.0840758
0.0931825
-0.117794
0.122266
-0.146072
0.147104
-0.166958
0.16645
-0.180703
0.180574
-0.188802
-0.193014
0.190273
0.00467588
-0.00685721
0.0192184
-0.034969
0.0422646
-0.0725875
0.0696343
-0.111445
0.0963869
-0.144546
0.119051
-0.168736
0.136318
-0.184225
0.148583
-0.192968
0.156999
-0.197217
-0.198904
0.162889
0.00594516
-0.0128024
0.0224591
-0.0514829
0.0457598
-0.0958881
0.0702081
-0.135894
0.0914071
-0.165745
0.107494
-0.184823
0.118645
-0.195376
0.125992
-0.200315
0.130792
-0.202018
-0.201974
0.133861
0.00691274
-0.0197151
0.0240142
-0.0685844
0.045407
-0.117281
0.0653654
-0.155852
0.080873
-0.181253
0.0914951
-0.195445
0.0981743
-0.202055
0.102186
-0.204326
0.104549
-0.20438
-0.203312
0.105888
0.00741436
-0.0271295
0.0236783
-0.0848483
0.0417826
-0.135385
0.0568986
-0.170968
0.0673937
-0.191748
0.0737154
-0.201767
0.077067
-0.205407
0.0785908
-0.20585
0.0790559
-0.204846
0.0788004
-0.203057
-0.00392417
0.0184918
-0.0145677
-0.0129885
0.0394734
-0.0304091
-0.0249864
0.0493598
-0.0373618
-0.0384454
0.0529634
-0.0395044
-0.0525614
0.0537125
-0.0395966
-0.0669656
0.0533757
-0.0389714
-0.0814862
0.0525865
-0.038066
-0.0960061
0.0514792
-0.0369593
-0.11042
0.0500755
-0.0356614
0.0487452
-0.124692
-0.0344738
-0.00118697
0.0196788
-0.00584211
0.0441285
-0.0134938
0.0570114
-0.0230189
0.0624886
-0.0334303
0.0641239
-0.0441182
0.0640636
-0.0547711
0.0632393
-0.0652162
0.0619243
-0.0753111
0.0601704
0.0582866
-0.0848525
0.00180299
0.0178758
0.00274376
0.0431877
0.00107204
0.0586832
-0.00291509
0.0664757
-0.00825498
0.0694637
-0.0141039
0.0699126
-0.01995
0.0690854
-0.0255374
0.0675117
-0.0307077
0.0653407
0.0627644
-0.0351855
0.00407478
0.013801
0.0103296
0.036933
0.0152666
0.0537462
0.0178211
0.0639211
0.0183865
0.0688983
0.0178284
0.0704706
0.0168979
0.070016
0.0160674
0.0683421
0.0155902
0.0658179
0.0626177
0.015737
0.00501072
0.00879032
0.0148806
0.0270631
0.0256148
0.043012
0.0349553
0.0545807
0.0422566
0.0615969
0.0478565
0.0648708
0.0524477
0.0654248
0.0566902
0.0640997
0.0610528
0.0614553
0.057535
0.0661354
0.00453149
0.00425883
0.0151112
0.0164834
0.0287367
0.0293865
0.0429288
0.0403885
0.0562266
0.0482991
0.0681198
0.0529776
0.0787169
0.0548277
0.0884009
0.0544157
0.0975434
0.0523127
0.0483701
0.106708
0.00314078
0.00111805
0.0116471
0.00797705
0.024121
0.0169126
0.0388529
0.0256566
0.0543836
0.0327685
0.0697634
0.0375978
0.0845339
0.0400571
0.0985751
0.0403745
0.111927
0.0389613
0.0352829
0.125014
0.00144191
-0.000323859
0.00631803
0.00310093
0.0145876
0.00864299
0.0256492
0.0145951
0.038635
0.0197826
0.0527194
0.0235134
0.067262
0.0255146
0.0818394
0.0257971
0.0963501
0.0244506
0.0204284
0.111205
-0.000419045
9.51855e-05
0.000256981
0.00242491
0.00305208
0.00584789
0.00826069
0.0093865
0.0157587
0.0122847
0.0252534
0.0140186
0.0364271
0.0143409
0.0490521
0.013172
0.0631422
0.0103605
0.00481176
0.0787588
-0.00194762
-0.00461821
-0.00608165
-0.00519284
-0.00122227
0.00634564
0.0180202
0.0340771
0.0542421
0.0729585
-0.195328
0.312673
-0.242037
-0.150548
0.0447535
-0.0895329
-0.0351024
-0.223447
0.108001
0.0583246
-0.347682
0.254255
0.118492
-0.394146
0.333978
0.156276
-0.33291
0.295126
0.180484
-0.266117
0.241909
0.195431
-0.18977
0.174823
0.205628
-0.147844
0.137646
-0.0918636
0.0869635
-0.135056
0.362877
-0.096473
0.00617022
-0.000740636
-0.319179
0.0835376
-0.431961
0.137928
-0.448537
0.171121
-0.366103
0.19084
-0.285836
0.202243
-0.201172
0.209777
-0.155377
-0.0954847
-0.0652985
0.39299
-0.0328257
-0.0263025
0.0409794
-0.392984
0.112627
-0.503608
0.158655
-0.494564
0.186484
-0.393932
0.201782
-0.301134
0.20969
-0.209081
0.214409
-0.160096
-0.0977331
0.000438196
0.408289
0.0287988
-0.0546632
0.0853244
-0.44951
0.143176
-0.56146
0.179472
-0.530861
0.201113
-0.415573
0.212198
-0.312219
0.217069
-0.213951
0.219198
-0.162225
-0.0986742
0.0636639
0.41076
0.0832065
-0.0742058
0.127365
-0.493668
0.172488
-0.606583
0.199398
-0.557771
0.214512
-0.430687
0.221443
-0.31915
0.223754
-0.216263
0.223759
-0.16223
-0.0985281
0.116043
0.401426
0.130772
-0.0889345
0.164384
-0.527281
0.198275
-0.640473
0.217189
-0.576685
0.226385
-0.439883
0.229321
-0.322086
0.229397
-0.216338
0.227771
-0.160604
-0.0976041
0.155145
0.371294
0.17008
-0.10387
0.195369
-0.55257
0.219475
-0.664579
0.231957
-0.589167
0.236444
-0.44437
0.235865
-0.321507
0.233925
-0.214398
0.231055
-0.157734
-0.0962237
0.175931
0.306568
0.200779
-0.128718
0.219804
-0.571594
0.235609
-0.680385
0.24328
-0.596838
0.244479
-0.445569
0.241162
-0.318191
0.237449
-0.210685
0.23358
-0.153865
-0.0946589
0.181097
0.20423
0.223844
-0.171465
0.237635
-0.585385
0.246502
-0.689252
0.250999
-0.601334
0.250337
-0.444906
0.245251
-0.313105
0.240129
-0.205562
0.235426
-0.149163
-0.0931137
0.183174
0.094014
0.239542
-0.227833
0.248316
-0.594159
0.253151
-0.694087
0.255626
-0.603809
0.254151
-0.443432
0.248172
-0.307126
0.2421
-0.19949
0.236724
-0.143787
-0.091738
0.528261
0.00740865
-0.441655
0.639915
-0.339487
0.649395
-0.603639
0.604668
-0.64936
0.543716
-0.542858
0.486991
-0.386706
0.438649
-0.258784
0.402827
-0.163668
0.375978
-0.116938
-0.0770576
0.729872
-0.055564
-0.666899
0.749279
-0.358895
0.696363
-0.550722
0.618715
-0.571712
0.548154
-0.472297
0.490127
-0.328679
0.442378
-0.211035
0.406447
-0.127737
0.378449
-0.0889397
-0.0610568
0.781285
-0.100114
-0.736735
0.748184
-0.325794
0.683114
-0.485652
0.621382
-0.509979
0.563355
-0.41427
0.505948
-0.271273
0.453771
-0.158858
0.41345
-0.0874165
0.382045
-0.0575342
-0.0431432
0.769216
-0.126114
-0.743216
0.738278
-0.294856
0.689372
-0.436747
0.631152
-0.451759
0.565504
-0.348623
0.500796
-0.206565
0.445999
-0.104061
0.406641
-0.0480581
0.37755
-0.0284428
-0.0263212
0.750024
-0.142749
-0.733389
0.727527
-0.272359
0.681863
-0.391083
0.621616
-0.391512
0.554411
-0.281417
0.490536
-0.14269
0.437194
-0.0507191
0.399237
-0.0101008
0.371836
-0.0010425
-0.0105075
0.732842
-0.153095
-0.722496
0.714371
-0.253888
0.665561
-0.342273
0.594506
-0.320457
0.518117
-0.205028
0.454452
-0.0790251
0.407764
-0.00403111
0.3773
0.0203633
0.35664
0.0196178
0.00174844
0.712179
-0.153874
-0.711401
0.683973
-0.225683
0.613597
-0.271897
0.522236
-0.229097
0.440421
-0.123212
0.385659
-0.0242634
0.353913
0.0277145
0.337354
0.0369232
0.327831
0.0291407
0.00835426
0.655695
-0.130825
-0.678744
0.594991
-0.164979
0.49102
-0.167925
0.382929
-0.121006
0.309377
-0.0496603
0.276853
0.00826035
0.269648
0.0349202
0.271966
0.0346049
0.275822
0.0252847
0.00854039
0.489368
-0.0696254
-0.550568
0.389575
-0.0651857
0.271895
-0.050245
0.181457
-0.0305681
0.140955
-0.00915886
0.139897
0.00931898
0.156642
0.0181752
0.174374
0.016873
0.187718
0.0119405
0.00423312
0.158388
-0.228013
0.0932023
0.0429573
0.0123892
0.00323035
0.0125493
0.0307245
0.0475975
0.059538
0.556159
0.0674149
-0.544773
0.568287
0.0937588
0.583522
0.118627
0.599702
0.146709
0.616432
0.173543
0.631838
0.198601
0.630938
0.226094
0.61115
0.235282
0.535228
0.258954
0.228923
0.536237
0.0559638
-0.524785
0.55023
0.0797657
0.566402
0.102455
0.587787
0.125324
0.608803
0.152527
0.636282
0.171122
0.65759
0.204786
0.678107
0.214765
0.684588
0.252474
0.246612
0.522146
0.0459842
-0.512166
0.536322
0.0655896
0.551889
0.0868877
0.572603
0.10461
0.594653
0.130477
0.621028
0.144746
0.650513
0.175302
0.679618
0.18566
0.714554
0.217537
0.224431
0.512005
0.0366108
-0.502632
0.525377
0.0522182
0.540991
0.0712732
0.559891
0.085711
0.58274
0.107628
0.607148
0.120339
0.638459
0.14399
0.668839
0.15528
0.708038
0.178338
0.189254
0.503151
0.027269
-0.493809
0.515613
0.0397563
0.531427
0.0554591
0.54948
0.0676575
0.572427
0.0846813
0.59654
0.0962252
0.627053
0.113477
0.657928
0.124406
0.69557
0.140696
0.151435
0.494453
0.0179804
-0.485164
0.50646
0.027749
0.522213
0.0397065
0.540258
0.0496119
0.562886
0.0620532
0.587393
0.0717188
0.616973
0.083897
0.648234
0.0931444
0.684451
0.104479
0.11339
0.483544
0.00904523
-0.474609
0.49529
0.016003
0.510704
0.0242929
0.528892
0.0314231
0.551147
0.039799
0.576078
0.046787
0.605227
0.0547489
0.636985
0.0613855
0.672957
0.0685081
0.0749461
0.459297
0.00140126
-0.451653
0.469833
0.00546689
0.483939
0.0101868
0.501137
0.0142253
0.522105
0.0188302
0.546244
0.0226487
0.574232
0.0267603
0.605407
0.0302104
0.640472
0.0334433
0.0366744
0.387339
-0.00232885
-0.383609
0.393667
-0.000860537
0.403132
0.000721698
0.415281
0.00207618
0.430604
0.00350672
0.44867
0.00458305
0.469805
0.00562579
0.49373
0.00628487
0.520402
0.00677104
0.00650878
0.192796
-0.195125
0.191935
0.192657
0.194733
0.19824
0.202823
0.208449
0.214734
0.221505
0.0724861
0.149426
-0.137635
-0.0842769
0.06167
0.1516
-0.140784
0.0517056
0.154222
-0.144258
0.0420527
0.157739
-0.148087
0.0324559
0.161492
-0.151895
0.0230024
0.164355
-0.154902
0.0141136
0.163611
-0.154722
0.00660655
0.153248
-0.145741
0.00160159
0.122686
-0.117681
0.0577248
-0.0561232
0.0685415
0.159955
-0.0790709
0.0581688
0.161973
0.0481448
0.164246
0.0384753
0.167409
0.0290571
0.17091
0.0199949
0.173418
0.011742
0.171864
0.00510159
0.159888
0.00101117
0.126776
0.058736
0.0612933
0.169317
-0.0706548
0.0516545
0.171612
0.0421485
0.173752
0.0329633
0.176594
0.024133
0.179741
0.0158205
0.18173
0.00849527
0.179189
0.0030198
0.165364
0.000163324
0.129632
0.0588993
0.0499904
0.177294
-0.0579678
0.0416435
0.179959
0.0332271
0.182168
0.0250015
0.18482
0.0171373
0.187605
0.00992235
0.188945
0.00393798
0.185173
-2.00706e-05
0.169322
-0.000947364
0.13056
0.057952
0.0367808
0.184236
-0.0437224
0.0296323
0.187107
0.0223792
0.189421
0.0152682
0.191931
0.00857739
0.194296
0.00270346
0.194819
-0.00156296
0.18944
-0.00321174
0.170971
-0.00219172
0.12954
0.0557602
0.0214878
0.190013
-0.0272653
0.0156013
0.192994
0.00964742
0.195375
0.00385211
0.197726
-0.00142289
0.199571
-0.00553594
0.198932
-0.00767121
0.191575
-0.00701573
0.170315
-0.00353625
0.12606
0.052224
0.00510541
0.19496
-0.0100523
0.000287669
0.197811
-0.00444765
0.200111
-0.00887246
0.202151
-0.0125441
0.203242
-0.0147528
0.201141
-0.0144948
0.191317
-0.0109784
0.166799
-0.00483146
0.119913
0.0473925
-0.0132557
0.198811
0.00940504
-0.0168751
0.201431
-0.020272
0.203507
-0.0231765
0.205055
-0.0250194
0.205085
-0.0248908
0.201012
-0.0217191
0.188145
-0.014948
0.160028
-0.00598921
0.110955
0.0414033
-0.033281
0.201548
0.0305442
-0.0356792
0.203829
-0.0376721
0.2055
-0.038876
0.206259
-0.0385526
0.204762
-0.0356285
0.198088
-0.0290377
0.181554
-0.0186541
0.149644
-0.00688264
0.0991831
0.0345207
-0.0553923
0.0538835
-0.056409
-0.0567587
-0.0559064
-0.052911
-0.046571
-0.0359849
-0.021726
-0.00739121
0.108686
0.0397921
-0.120808
-0.0276701
0.0962899
0.0408743
-0.0284786
0.0836088
0.0420454
-0.0293642
0.0706166
0.0432962
-0.030304
0.0572958
0.0446074
-0.0312866
0.0436714
0.0458363
-0.0322119
0.0299279
0.0464238
-0.0326802
0.0167033
0.0447908
-0.0315662
0.00562446
0.0375483
-0.0264695
0.019037
-0.0134125
0.107702
0.051906
-0.119816
0.0953918
0.0531844
0.0828084
0.0546288
0.0699208
0.0561838
0.0567037
0.0578244
0.0431801
0.05936
0.0295425
0.0600613
0.0164427
0.0578907
0.00550841
0.0484826
0.0245454
0.106276
0.0638932
-0.118263
0.0940306
0.0654299
0.0815376
0.0671217
0.0687703
0.0689511
0.0557052
0.0708895
0.0423594
0.0727058
0.0289215
0.0734992
0.0160462
0.0707659
0.00534648
0.0591823
0.0298919
0.104216
0.075902
-0.116225
0.0920965
0.0775492
0.0797217
0.0794965
0.0670701
0.0816026
0.0541398
0.0838199
0.0409819
0.0858637
0.0278155
0.0866656
0.0153072
0.0832743
0.00503427
0.0694553
0.0349261
0.101595
0.0876673
-0.113361
0.0896895
0.0894549
0.077617
0.0915691
0.0653039
0.0939158
0.0526986
0.0964251
0.0398323
0.09873
0.0269458
0.0995521
0.0147466
0.0954735
0.00481235
0.0793895
0.0397385
0.0977601
0.0995023
-0.109595
0.0859409
0.101274
0.0739723
0.103538
0.0618666
0.106021
0.0496113
0.10868
0.0372297
0.111112
0.0249444
0.111837
0.0134518
0.106966
0.00427355
0.0885678
0.044012
0.0937656
0.110667
-0.10493
0.0826028
0.112437
0.0712402
0.1149
0.0595829
0.117679
0.0476462
0.120617
0.0355492
0.123209
0.0236074
0.123779
0.0125704
0.118003
0.00391968
0.0972185
0.0479317
0.0863258
0.121678
-0.0973368
0.075562
0.123201
0.0648567
0.125606
0.0540741
0.128461
0.0430962
0.131595
0.0319566
0.134348
0.0209708
0.134765
0.0109251
0.128049
0.00326175
0.104882
0.0511935
0.0815983
0.130893
-0.0908141
0.0719492
0.13285
0.0617043
0.13585
0.0511016
0.139064
0.040312
0.142384
0.0294949
0.145165
0.0190132
0.145247
0.00965823
0.137404
0.00276759
0.111772
0.053961
0.0704941
-0.0772358
0.0625599
0.0541527
0.0451303
0.0356193
0.0258826
0.0164076
0.00807035
0.00216221
0.201626
0.00499466
-0.00863092
0.205584
0.0267287
-0.0306871
0.209257
0.0341165
-0.0377891
0.211788
0.0522205
-0.0547512
0.213543
0.0641784
-0.0659338
0.212639
0.0832662
-0.0823616
0.207987
0.115431
-0.110779
0.196324
0.147424
-0.135761
0.170847
0.201697
-0.17622
0.263012
-0.212973
0.201269
0.00171578
0.204826
0.0231717
0.208385
0.0305568
0.210311
0.0502944
0.212106
0.0623833
0.21041
0.0849631
0.205897
0.119943
0.193779
0.159542
0.168573
0.226903
0.311769
0.200871
-0.00116525
0.20389
0.020153
0.207308
0.0271387
0.208464
0.0491378
0.210287
0.060561
0.207571
0.0876785
0.203199
0.124315
0.190108
0.172633
0.165635
0.251376
0.359141
0.200414
-0.00358954
0.202784
0.017783
0.205988
0.0239348
0.206268
0.0488579
0.208068
0.0587607
0.204173
0.091574
0.199955
0.128533
0.18535
0.187238
0.162092
0.274635
0.405009
0.199877
-0.00547633
0.201523
0.0161369
0.204417
0.0210405
0.203777
0.0494976
0.205423
0.0571153
0.200252
0.0967444
0.196107
0.132678
0.179746
0.203599
0.157865
0.296516
0.449513
0.19924
-0.00672663
0.200122
0.015255
0.202593
0.0185694
0.201022
0.0510685
0.202337
0.0558007
0.195811
0.10327
0.191641
0.136849
0.173065
0.222175
0.153254
0.316326
0.493171
0.198492
-0.00722864
0.198603
0.0151441
0.200516
0.0166556
0.198023
0.0535619
0.198781
0.0550424
0.190935
0.111116
0.186326
0.141458
0.165921
0.24258
0.147571
0.334676
0.535813
0.197629
-0.0068676
0.196983
0.0157894
0.198193
0.0154463
0.194787
0.0569679
0.194763
0.055066
0.185602
0.120278
0.180291
0.146769
0.157414
0.265456
0.141702
0.350388
0.580178
0.19666
-0.00553819
0.195276
0.0171735
0.195637
0.0150853
0.19132
0.061285
0.190241
0.0561455
0.179964
0.130554
0.173532
0.153201
0.150177
0.288811
0.134848
0.365717
0.624212
0.195634
-0.00318265
0.193447
0.0193603
0.192931
0.0156014
0.187533
0.0666836
0.185136
0.0585419
0.173319
0.142372
0.164822
0.161698
0.139726
0.313907
0.128611
0.376832
0.675588
0.304584
-0.00575673
0.308293
0.0156511
0.31752
0.00637455
0.319166
0.0650376
0.331566
0.0461426
0.332407
0.14153
0.352499
0.141606
0.3584
0.308006
0.41124
0.323992
0.605208
0.48162
0.304712
-0.00845862
0.309935
0.0104282
0.319929
-0.00361923
0.323036
0.0619299
0.337081
0.0320979
0.341366
0.137246
0.362362
0.12061
0.378239
0.29213
0.427081
0.275149
0.537664
0.494624
0.304974
-0.0114222
0.312429
0.00297298
0.32192
-0.0131102
0.327967
0.0558823
0.342145
0.0179202
0.350628
0.128762
0.370425
0.100813
0.393201
0.269354
0.437182
0.231168
0.464993
0.509854
0.305804
-0.0152162
0.315537
-0.00675973
0.323666
-0.021239
0.334295
0.0452531
0.346343
0.00587211
0.358839
0.116267
0.376181
0.0834701
0.404438
0.241097
0.446374
0.189232
0.389922
0.521446
0.307514
-0.0207197
0.319023
-0.0182685
0.326425
-0.0286419
0.341699
0.0299794
0.351474
-0.00390277
0.367701
0.10004
0.382643
0.0685283
0.416116
0.207624
0.451659
0.153689
0.316007
0.525574
0.310001
-0.0287104
0.322973
-0.0312411
0.330678
-0.036347
0.349495
0.0111629
0.356624
-0.0110323
0.375299
0.0813653
0.388473
0.0553547
0.424944
0.171152
0.45669
0.121943
0.244892
0.527804
0.313255
-0.0399548
0.327243
-0.0452298
0.335589
-0.0446928
0.354906
-0.00815368
0.357745
-0.0138719
0.378458
0.060653
0.390606
0.043206
0.430612
0.131147
0.460512
0.0920433
0.178441
0.526963
0.316264
-0.0542086
0.32796
-0.0569253
0.333159
-0.049892
0.34552
-0.0205146
0.34295
-0.0113019
0.364977
0.0386254
0.377826
0.0303571
0.422407
0.0865656
0.452831
0.0616195
0.113948
0.517324
0.309173
-0.0613709
0.303906
-0.0516587
0.292452
-0.0384385
0.287594
-0.0156566
0.281183
-0.00489077
0.302834
0.0169743
0.318849
0.014343
0.36705
0.0383637
0.40074
0.0279299
0.0478993
0.466789
0.240639
0.188981
0.150542
0.134885
0.129995
0.146969
0.161312
0.199676
0.227606
0.275505
0.4952
-0.0978565
0.499738
-0.0836086
0.503393
-0.0743103
0.506422
-0.0609967
0.511188
-0.0484881
0.515626
-0.0317035
0.521771
-0.0161971
0.527861
0.00331499
0.536245
0.0221604
0.0453549
0.4956
-0.0988321
0.496165
-0.0841738
0.496239
-0.0743846
0.496187
-0.0609446
0.497796
-0.0500972
0.49967
-0.0335772
0.504065
-0.0205924
0.508867
-0.00148662
0.516379
0.0146479
0.0369486
0.503125
-0.0921028
0.499501
-0.0805499
0.496058
-0.0709416
0.493638
-0.0585252
0.492143
-0.0486016
0.492644
-0.0340779
0.494436
-0.022385
0.49818
-0.00523077
0.503677
0.00915134
0.028459
0.510363
-0.0810205
0.50229
-0.0724767
0.495827
-0.0644782
0.49173
-0.0544287
0.488197
-0.0450686
0.487388
-0.0332689
0.487261
-0.0222572
0.490421
-0.00839158
0.494618
0.00495456
0.0204452
0.513695
-0.0691415
0.503864
-0.0626457
0.495494
-0.0561078
0.489455
-0.04839
0.484536
-0.0401493
0.482188
-0.0309205
0.481084
-0.0211535
0.483093
-0.0104008
0.486769
0.00127871
0.0134052
0.514834
-0.0561713
0.50346
-0.0512719
0.493609
-0.0462563
0.485822
-0.040603
0.479813
-0.0341402
0.476166
-0.0272737
0.474493
-0.0194806
0.475517
-0.0114248
0.478867
-0.00207132
0.00710795
0.512639
-0.0418479
0.499842
-0.0384745
0.488731
-0.0351451
0.479653
-0.031525
0.472724
-0.0272112
0.468084
-0.022634
0.465784
-0.0171808
0.466001
-0.0116411
0.468935
-0.00500619
0.00143456
0.501278
-0.0258021
0.487001
-0.0241974
0.474619
-0.0227634
0.464276
-0.0211822
0.456155
-0.0190898
0.450219
-0.0166981
0.446707
-0.0136687
0.445562
-0.0104964
0.447226
-0.0066704
-0.00299162
0.450395
-0.00940774
0.435781
-0.00958337
0.422784
-0.00976656
0.411363
-0.0097613
0.401677
-0.009404
0.393739
-0.00875958
0.387857
-0.00778693
0.384034
-0.00667367
0.382669
-0.00530544
-0.00393162
0.266097
0.256514
0.246747
0.236986
0.227582
0.218822
0.211035
0.204362
0.199056
0.00681955
0.0420917
-0.0489112
0.0162495
0.109449
-0.118879
0.0226852
0.154692
-0.161128
0.0251021
0.179381
-0.181798
0.0244291
0.190085
-0.189412
0.0218953
0.192854
-0.19032
0.0184286
0.191248
-0.187781
0.0146634
0.186292
-0.182527
0.0111758
0.176792
-0.173304
0.159464
0.00852849
-0.156817
0.00815529
0.0339364
0.0217028
0.0959012
0.0332749
0.14312
0.0404457
0.17221
0.0436467
0.186884
0.0441529
0.192347
0.0430656
0.192335
0.0410358
0.188322
0.0382724
0.179555
0.163211
0.0345256
0.00869429
0.0252421
0.0256917
0.0789037
0.042657
0.126155
0.055397
0.15947
0.0633391
0.178942
0.0675172
0.188169
0.0691293
0.190723
0.0688763
0.188575
0.0667784
0.181653
0.16803
0.061959
0.008318
0.0169241
0.0272827
0.0599391
0.0491681
0.104269
0.068103
0.140535
0.0818735
0.165172
0.0907784
0.179264
0.095964
0.185537
0.0983239
0.186215
0.0978779
0.182099
0.172217
0.0936913
0.00713778
0.00978632
0.0259241
0.0411527
0.0510005
0.079193
0.0759671
0.115568
0.0966625
0.144476
0.111794
0.164133
0.12188
0.175451
0.127876
0.18022
0.130243
0.179732
0.1747
0.12776
0.00546546
0.00432087
0.0218993
0.0247189
0.0470921
0.0540001
0.0760476
0.0866129
0.103626
0.116898
0.126532
0.141228
0.143615
0.158367
0.155154
0.168681
0.161712
0.173174
0.173053
0.163359
0.00371099
0.000609874
0.0164115
0.0120184
0.038419
0.0319926
0.0673683
0.0576637
0.0990922
0.085174
0.129445
0.110875
0.155498
0.132315
0.175832
0.148346
0.190304
0.158702
0.165231
0.198126
0.0022056
-0.00159573
0.0108968
0.00332717
0.0276451
0.0152443
0.0523914
0.0329174
0.0831446
0.0544209
0.116697
0.0773222
0.149723
0.0992885
0.179348
0.118721
0.203993
0.134057
0.14533
0.223894
0.00108852
-0.00268425
0.00631689
-0.00190121
0.0174835
0.0040777
0.0357137
0.0146871
0.0609443
0.0291903
0.0918105
0.046456
0.126061
0.0650382
0.161216
0.083566
0.193956
0.101317
0.112206
0.22708
0.000298366
-0.00298261
0.00281827
-0.00442111
0.00917579
-0.00227982
0.0207768
0.00308608
0.0385144
0.0114527
0.0625035
0.022467
0.0919893
0.0355524
0.125673
0.0498819
0.161576
0.0654152
0.0776529
0.196128
-0.000306083
-0.00267653
0.000271967
-0.00499916
0.00304585
-0.00505371
0.00922553
-0.0030936
0.01985
0.000828252
0.0356954
0.00662162
0.0570235
0.0142243
0.0834983
0.0234071
0.11475
0.0341638
0.0483508
0.144052
-0.000468967
-0.00220756
-0.000690131
-0.004778
0.000213516
-0.00595735
0.00299431
-0.00587439
0.00838843
-0.00456587
0.017011
-0.00200095
0.0293418
0.00189356
0.0455585
0.0071903
0.0654504
0.0142719
0.0246896
0.0891116
5.30282e-05
-0.00226059
0.000529701
-0.00525467
0.00169123
-0.00711888
0.00379203
-0.0079752
0.00711246
-0.0078863
0.0119772
-0.00686565
0.0187563
-0.00488554
0.0278062
-0.00185967
0.0395264
0.00255165
0.00870095
0.0555151
0.000700875
-0.00296147
0.00212753
-0.00668133
0.00407364
-0.009065
0.00656872
-0.0104703
0.00974595
-0.0110635
0.0138012
-0.0109209
0.0189935
-0.0100778
0.0256665
-0.00853264
0.0344544
-0.00623633
-0.00327777
0.0464332
0.000628592
-0.00359006
0.00150743
-0.00756017
0.00242377
-0.00998134
0.00351308
-0.0115596
0.00501586
-0.0125663
0.00720759
-0.0131127
0.0103861
-0.0132563
0.0148813
-0.0130279
0.0210806
-0.0124356
-0.0116483
0.0294512
-0.000418824
-0.00317123
-0.00188362
-0.00609537
-0.00405318
-0.00781178
-0.00645598
-0.00915679
-0.00868678
-0.0103355
-0.0104309
-0.0113686
-0.0114431
-0.0122441
-0.0115337
-0.0129372
-0.0105804
-0.013389
-0.013759
-0.0084697
-0.00225551
-0.000915722
-0.00734447
-0.00100641
-0.0138716
-0.00128463
-0.020905
-0.00212337
-0.027911
-0.00332954
-0.0345945
-0.00468505
-0.0407792
-0.00605936
-0.0463469
-0.00736954
-0.0511768
-0.00855901
-0.00981483
-0.0551211
-0.00430487
0.00338915
-0.0131214
0.00781011
-0.0239981
0.00959212
-0.0356801
0.00955855
-0.0476343
0.0086247
-0.0596588
0.00733945
-0.0716562
0.00593808
-0.0835352
0.00450945
-0.095178
0.00308379
0.00161607
-0.106609
-0.00562356
0.00901271
-0.0168468
0.0190333
-0.0305184
0.0232638
-0.0451798
0.0242199
-0.0603006
0.0237455
-0.0757276
0.0227665
-0.0913943
0.0216047
-0.107219
0.0203337
-0.123097
0.0189627
0.0175758
-0.139057
-0.00555497
-0.0169307
-0.0310287
-0.0463132
-0.0621643
-0.0783692
-0.0948304
-0.111456
-0.128155
-0.145053
0.200385
0.0897864
-0.14612
0.21177
0.424996
-0.436381
0.196611
0.465412
-0.450253
0.203233
0.175429
-0.18205
0.214697
-0.0713038
0.0598391
0.213261
-0.121762
0.123199
0.205788
-0.0861588
0.0936311
0.201315
-0.0474393
0.0519129
0.202143
-0.0290101
0.0281818
-0.0208367
0.0159035
0.159554
0.0193437
0.200959
0.383591
0.205892
0.460479
0.222257
0.159064
0.225473
-0.07452
0.215019
-0.111308
0.204955
-0.0760942
0.201033
-0.0435182
0.203068
-0.0310448
-0.0259189
0.127935
-0.0530761
0.176164
0.335362
0.197447
0.439196
0.217548
0.138963
0.211839
-0.0688105
0.198427
-0.0978962
0.192575
-0.0702425
0.194004
-0.0449467
0.200094
-0.0371354
-0.0322683
0.0944022
-0.101045
0.133039
0.296726
0.165401
0.406834
0.18536
0.119003
0.176681
-0.060131
0.170286
-0.0915017
0.175454
-0.0754105
0.185261
-0.0547539
0.196386
-0.0482599
-0.0401367
0.0423109
-0.113905
0.0724583
0.266578
0.111298
0.367994
0.130424
0.099878
0.133108
-0.0628157
0.143676
-0.102069
0.161959
-0.0936936
0.17922
-0.0720148
0.194079
-0.0631195
-0.0489413
-0.0301631
-0.0922114
-0.00358351
0.239999
0.0394351
0.324975
0.0716108
0.0677023
0.10059
-0.0917945
0.12885
-0.130329
0.156128
-0.120972
0.177336
-0.0932231
0.193731
-0.0795147
-0.0578582
-0.118685
-0.0286478
-0.0969846
0.218298
-0.0250823
0.253073
0.0350541
0.00756581
0.0872362
-0.143977
0.125539
-0.168632
0.156471
-0.151904
0.178572
-0.115324
0.19485
-0.0957919
-0.0663109
-0.19505
0.0597929
-0.162588
0.185836
-0.0563479
0.146833
0.0241374
-0.0729194
0.0862481
-0.206087
0.128462
-0.210845
0.159956
-0.183398
0.181418
-0.136786
0.196785
-0.111159
-0.0740463
-0.234158
0.154893
-0.187757
0.139436
-0.0611777
0.0202533
0.0272046
-0.161302
0.0915584
-0.270441
0.134555
-0.253842
0.165037
-0.21388
0.185124
-0.156874
0.199208
-0.125243
-0.0809668
-0.232196
-0.182293
-0.054039
0.0389147
0.102452
0.143736
0.171765
0.189714
0.202117
0.048811
0.034296
-0.083107
0.00733147
0.0414795
-0.0230034
0.0303349
-0.0353012
0.0122978
-0.0246095
-0.0106917
0.00096042
-0.02557
0.0225724
-0.021612
0.0341781
-0.0116057
0.0392969
-0.00511879
-0.00191969
0.197061
0.105727
-0.268492
0.0849912
0.153549
0.00263028
0.112696
-0.0196332
0.0345613
0.00392888
-0.0342538
0.0436987
-0.0653398
0.0767327
-0.054646
0.0955563
-0.0304294
0.104875
-0.0144376
-0.00589032
0.340951
0.16296
-0.398184
0.202939
0.291561
0.0833592
0.232276
0.044161
0.0737595
0.0654567
-0.0555495
0.099987
-0.0998701
0.127381
-0.0820403
0.143853
-0.0469012
0.153032
-0.0236161
-0.010474
0.416547
0.177257
-0.430845
0.308368
0.399741
0.1832
0.357443
0.130147
0.126812
0.14023
-0.0656322
0.159963
-0.119603
0.172896
-0.0949734
0.180302
-0.0543069
0.185247
-0.028561
-0.014021
0.395355
-0.364217
0.358715
0.265905
0.210667
0.204874
0.20847
0.207127
0.204733
0.204354
0.0109281
-0.000153617
-0.0107745
0.0125445
-0.00161639
0.0155083
-0.00296384
0.0199261
-0.00441779
0.0263059
-0.00637976
0.0335846
-0.0072787
0.0438862
-0.0103017
0.0547665
-0.0108803
0.0689674
-0.0142009
-0.0141396
0.0300352
-0.000870489
-0.0293183
0.0346408
-0.00622205
0.0430296
-0.0113527
0.0562083
-0.0175964
0.07472
-0.0248915
0.0978986
-0.0304573
0.130801
-0.0432043
0.167067
-0.0471459
0.214685
-0.0618187
-0.0679465
0.0464248
-0.00242511
-0.0448702
0.0537564
-0.0135537
0.0669929
-0.0245891
0.0877558
-0.0383594
0.115979
-0.0531147
0.153722
-0.0682005
0.202351
-0.0918334
0.257612
-0.102407
0.328273
-0.13248
-0.137857
0.0600086
-0.00496291
-0.0574707
0.0695884
-0.0231335
0.0868107
-0.0418114
0.112879
-0.0644275
0.148106
-0.0883421
0.195087
-0.115181
0.24857
-0.145317
0.313356
-0.167192
0.381379
-0.200503
-0.187323
0.0709249
-0.0673593
0.0823169
0.102465
0.131728
0.171147
0.219324
0.272133
0.328835
0.355412
0.0826134
-0.0757221
0.0835349
-0.0904262
0.0739723
-0.076839
0.08548
0.0649559
-0.0786133
0.0876297
0.0553245
-0.0805159
0.0901473
0.0450047
-0.0824317
0.0927515
0.0341235
-0.0840603
0.0949415
0.0230493
-0.0843083
0.0953825
0.0125456
-0.0803051
0.0908087
0.00405956
-0.0662727
0.0747587
-0.0329591
0.0370186
0.0913845
-0.0661683
-0.100938
0.0814401
-0.0668946
0.0708472
-0.0680204
0.0596703
-0.069339
0.0480642
-0.0708256
0.0362078
-0.0722038
0.0243962
-0.0724967
0.0132996
-0.0692085
0.00432847
-0.0573016
-0.0286306
0.093323
-0.0553584
-0.104133
0.0824036
-0.0559752
0.0712805
-0.0568974
0.0599557
-0.0580141
0.0483983
-0.0592682
0.0366074
-0.0604129
0.024773
-0.0606624
0.013547
-0.0579824
0.00440635
-0.048161
-0.0242242
0.0987277
-0.0442159
-0.10987
0.0874325
-0.04468
0.0759071
-0.0453719
0.0640727
-0.0461798
0.0518785
-0.047074
0.039358
-0.0478924
0.0267506
-0.0480551
0.0147456
-0.0459773
0.0048771
-0.0382925
-0.0193472
0.101499
-0.0325932
-0.113122
0.0897413
-0.0329223
0.0777394
-0.03337
0.0654661
-0.0339064
0.0529094
-0.0345173
0.0401114
-0.0350944
0.0272813
-0.0352249
0.0150619
-0.033758
0.00498592
-0.0282165
-0.0143612
0.104592
-0.0207932
-0.116392
0.0925786
-0.0209085
0.0803161
-0.0211075
0.067772
-0.0213623
0.0549214
-0.0216667
0.0417852
-0.0219582
0.0285538
-0.0219935
0.0158713
-0.0210754
0.0053167
-0.0176619
-0.00904453
0.106577
-0.00877893
-0.118591
0.0943637
-0.00869511
0.0818935
-0.00863736
0.069137
-0.00860575
0.0560693
-0.00859906
0.0427088
-0.00859771
0.0292378
-0.00852248
0.0162928
-0.00813045
0.00547573
-0.00684489
-0.00356879
0.108069
0.00333136
-0.120179
0.0957246
0.00364951
0.08311
0.00397726
0.0701973
0.00430692
0.0569641
0.00463415
0.0434295
0.00493684
0.0297734
0.0051337
0.016629
0.00501392
0.00561024
0.00417386
0.00204144
0.10888
0.0154932
-0.121041
0.0964702
0.0160589
0.083783
0.0166644
0.0707908
0.0172991
0.0574708
0.0179541
0.0438406
0.0185671
0.0300773
0.0188969
0.0168145
0.0182768
0.00567955
0.0153088
0.007721
0.109027
-0.121203
0.0966069
0.0839071
0.0709023
0.0575698
0.0439249
0.0301417
0.0168522
0.0056915
0.0135988
-0.154706
-0.0157099
0.00917411
-0.168879
0.00374756
-0.177101
-0.00182246
-0.182211
-0.00688104
-0.185261
-0.0106655
-0.185628
-0.0121456
-0.180317
-0.0102393
-0.163034
-0.00496081
-0.124157
-0.053872
0.0363778
-0.151626
-0.0394578
0.0303567
-0.162858
0.023129
-0.169873
0.0156186
-0.174701
0.00836127
-0.178004
0.00194096
-0.179208
-0.00269196