/*--------------------------------*- C++ -*----------------------------------*\
  =========                 |
  \\      /  F ield         | OpenFOAM: The Open Source CFD Toolbox
   \\    /   O peration     | Website:  https://openfoam.org
    \\  /    A nd           | Version:  13
     \\/     M anipulation  |
\*---------------------------------------------------------------------------*/
FoamFile
{
    format      ascii;
    class       surfaceScalarField;
    location    "0.25";
    object      phi;
}
// * * * * * * * * * * * * * * * * * * * * * * * * * * * * * * * * * * * * * //

dimensions      [0 3 -1 0 0 0 0];

internalField   nonuniform List<scalar> 
823
(
0.011378
-0.0505561
0.039178
0.0387606
-0.133438
0.106055
0.0788382
-0.205878
0.165801
0.130184
-0.268867
0.217521
-0.323249
0.259398
0.194036
0.0107031
-0.0612592
0.0361446
-0.15888
0.0726531
-0.242387
0.117984
-0.314197
-0.375601
0.170336
0.00837777
-0.069637
0.028288
-0.17879
0.0567321
-0.270831
0.0918226
-0.349288
-0.416059
0.132281
0.00530008
-0.0749371
0.0179984
-0.191488
0.0362352
-0.289068
0.0588932
-0.371946
-0.442428
0.0852621
0.00196233
-0.0768994
0.00663105
-0.196157
0.0132914
-0.295728
0.0215242
-0.380179
0.0310649
-0.451969
0.00663637
-0.0106889
0.00405258
0.0221031
-0.0308099
0.0153432
0.0452147
-0.0483912
0.0252797
0.0742631
-0.0638346
0.0347862
-0.0769214
0.107807
0.0433778
0.00578644
-0.0164754
0.0215477
-0.0465711
0.0467851
-0.0736286
0.0798435
-0.0968929
-0.116004
0.118926
0.006415
-0.0228904
0.0237164
-0.0638725
0.0513362
-0.101248
0.0880549
-0.133612
-0.160073
0.132124
0.00754197
-0.0304323
0.027106
-0.0834366
0.057354
-0.131496
0.0970809
-0.173339
-0.207876
0.144884
0.00874567
0.0313646
0.065669
0.109851
0.161373
0.320401
-0.956284
0.74369
0.467874
-0.812509
0.665036
0.548005
-0.33891
0.258779
0.570718
-0.0972225
0.0745094
-0.0167815
0.0190676
0.330137
-1.1675
0.467478
-0.94985
0.548
-0.419431
0.571246
-0.120468
-0.016537
0.337282
-1.37265
0.461147
-1.07372
0.541289
-0.499573
0.568629
-0.147808
-0.022035
0.338089
-1.56586
0.450891
-1.18652
0.528867
-0.577549
0.56356
-0.182501
-0.0361722
0.327925
-1.73241
0.431599
-1.29019
0.507367
-0.653317
0.554881
-0.230016
-0.0623105
1.19545
-1.58771
-1.34016
1.00532
-1.10006
0.908795
-0.556788
0.883709
-0.20493
-0.0531477
1.33173
-1.1321
-1.78733
0.991223
-0.759562
0.813296
-0.378861
0.75298
-0.144613
-0.0345708
1.19049
-0.607553
-1.71504
0.818541
-0.387618
0.629557
-0.189876
0.561727
-0.0767832
-0.0185182
0.822464
-0.185314
-1.2447
0.545759
-0.110913
0.406326
-0.0504439
0.351992
-0.0224495
-0.00558842
0.306625
-0.491939
0.195712
0.145268
0.122819
1.56263
0.0462481
-1.57781
1.52171
0.126177
1.46267
0.19133
1.39629
0.236711
0.250171
1.67594
0.035654
-1.66534
1.69942
0.10269
1.73096
0.159797
1.76547
0.202197
0.228314
1.38799
0.0184784
-1.37082
1.43709
0.053594
1.51393
0.0829503
1.61027
0.105861
0.123548
0.977703
0.00531495
-0.96454
1.01588
0.0154174
1.0758
0.0230318
1.15385
0.0278074
0.0326966
0.392986
-0.387671
0.408403
0.431435
0.459242
0.128831
0.327566
-0.264553
-0.191843
0.0781815
0.273187
-0.222538
0.0385296
0.209791
-0.170139
0.01134
0.136454
-0.109265
0.0519628
-0.0406228
0.115967
0.378883
-0.167285
0.0714944
0.31766
0.0356111
0.245674
0.0105571
0.161508
0.0625198
0.0888613
0.418272
-0.128251
0.0548117
0.35171
0.0272851
0.273201
0.00806321
0.18073
0.070583
0.0552523
0.443543
-0.0805224
0.0337675
0.373194
0.016656
0.290313
0.00486415
0.192522
0.0754472
0.0174868
-0.0259132
0.0105027
0.00508695
0.00145223
0.0718475
0.0867004
-0.106148
-0.0523999
0.042387
0.0731528
-0.0436922
0.019486
0.0564633
-0.0335623
0.00507132
0.0364572
-0.0220426
0.0131305
-0.00805917
0.0762325
0.125287
-0.114819
0.0439012
0.105484
0.0197621
0.0806023
0.00513459
0.0510847
0.0182651
0.0849841
0.168135
-0.127833
0.0494804
0.140988
0.0229405
0.107142
0.00623956
0.0677857
0.0245046
0.0945245
0.214449
-0.140838
0.0560604
0.179452
0.0266711
0.136531
0.00747367
0.0869831
0.0319783
0.10762
-0.157724
0.0645338
0.030926
0.00864452
0.501679
0.164529
-0.270228
0.533587
0.184703
-0.216611
0.481404
0.312617
-0.260434
0.329197
0.801637
-0.64943
1.03371
-0.810657
0.497185
0.0633236
0.528636
0.153251
0.473211
0.368043
0.329081
0.945767
1.24797
0.493994
-0.0346906
0.519286
0.127959
0.458107
0.429222
0.329379
1.07449
1.44951
0.491056
-0.129767
0.508271
0.110744
0.440643
0.496851
0.326653
1.18848
1.63533
0.487376
-0.221163
0.491091
0.107029
0.417178
0.570764
0.314906
1.29076
1.79251
0.772923
-0.390066
0.86113
0.0188213
0.959528
0.472366
1.16912
1.08116
1.61447
1.34716
0.737823
-0.523869
0.825915
-0.0692699
0.971152
0.327128
1.30152
0.750797
1.14177
1.77422
0.615015
-0.534863
0.653724
-0.107979
0.810279
0.170573
1.17433
0.386751
0.611705
1.70439
0.452025
-0.382867
0.415048
-0.0710025
0.539808
0.0458133
0.816271
0.110287
0.186879
1.2411
0.221153
0.15015
0.195964
0.306251
0.49313
1.40237
-0.247047
1.46564
-0.23056
1.52297
-0.185577
1.56317
-0.120722
-0.0405575
1.75302
-0.225853
1.72001
-0.197551
1.69081
-0.156372
1.67096
-0.100871
-0.0349408
1.60172
-0.123181
1.50888
-0.104712
1.43461
-0.0821038
1.38708
-0.0533399
-0.0186787
1.15102
-0.0330993
1.07426
-0.027956
1.01527
-0.02312
0.977565
-0.0156305
-0.00565326
0.46003
0.432075
0.408954
0.393324
0.00250084
0.0429929
-0.0454938
0.00732641
0.101024
-0.105849
0.0160923
0.14836
-0.157126
0.0165749
0.151877
-0.152359
0.113999
0.0148102
-0.112235
0.00682674
0.0361662
0.0201734
0.087677
0.0409502
0.127583
0.0482469
0.14458
0.116355
0.0458912
0.00880677
0.0273594
0.0270698
0.069414
0.0521397
0.102514
0.0730854
0.123634
0.114009
0.0754311
0.00779721
0.0195622
0.0255025
0.0517087
0.0497328
0.0782833
0.0774229
0.0959442
0.0991917
0.0922406
0.00509349
0.0144687
0.0179571
0.0388452
0.0367518
0.0594886
0.0600181
0.072678
0.0766566
0.0825532
0.00341904
0.0110497
0.0125698
0.0296944
0.0274656
0.0445928
0.0471412
0.0530025
0.0559964
0.0678015
0.00224557
0.00880416
0.00904407
0.022896
0.0225316
0.0311053
0.0414148
0.0341193
0.0344833
0.0629281
0.00173554
0.00706865
0.0103318
0.0142999
0.0264718
0.0149654
0.0470702
0.0135211
0.0111865
0.070367
0.00373462
0.00333409
0.017442
0.000592682
0.0366536
-0.00424611
0.0595457
-0.00937094
-0.0145901
0.0853223
0.0073868
0.0233228
0.0443564
0.0697716
0.0985593
0.155322
0.0164881
-0.104009
0.2448
-0.129686
0.0402085
0.26797
-0.042061
0.0188914
0.280122
-0.0125985
0.00044595
-0.0107289
0.00020551
0.216386
-0.13697
0.32674
-0.24004
0.355175
-0.0704956
0.366363
-0.0237869
-0.0180941
0.260174
-0.326778
0.391416
-0.371282
0.436081
-0.115161
0.446494
-0.0342002
-0.0206573
0.291366
-0.532821
0.43548
-0.515395
0.500944
-0.180625
0.517205
-0.050462
-0.0199318
0.309428
0.459068
0.537222
0.56127
0.07103
0.0382811
-0.109311
0.0790186
-0.00798865
0.0839592
-0.00494059
0.0837256
0.00023363
-8.47241e-06
0.195711
-0.261439
0.227932
0.241882
0.242562
0.0207256
-0.00433013
-0.0163955
0.0342715
-0.0135459
0.0567434
-0.0224719
0.0855979
-0.0288544
-0.0237132
0.0539085
-0.0434283
0.0862538
0.139213
0.202599
0.0480265
-0.0549488
0.0762427
-0.0693203
0.0276574
-0.0519634
0.0723325
0.0123558
-0.0442442
0.0595458
0.00331693
-0.0300137
0.0390525
-0.0112619
0.0145789
0.0460246
-0.0318909
-0.0690824
0.0254239
-0.0313627
0.0100676
-0.0288879
0.00224602
-0.0221921
-0.00901591
0.0564297
-0.00627611
-0.0820445
0.0334752
-0.00840815
0.0145723
-0.00998498
0.00270635
-0.0103262
-0.00630955
0.0693948
0.0217138
-0.0973847
0.044371
0.0166157
0.0231416
0.0112444
0.00688133
0.00593415
0.000571787
0.0729902
-0.103676
0.0459137
0.0235958
0.00748739
0.0165817
-0.113998
-0.0148186
0.016092
-0.151869
0.00730525
-0.148339
0.00248862
-0.101033
-0.0430052
0.0482645
-0.116346
-0.0459165
0.0409249
-0.14453
0.0201596
-0.127574
0.0068196
-0.0876926
-0.0361856
0.0731249
-0.113941
-0.0755293
0.0521138
-0.123519
0.0270581
-0.102518
0.00880357
-0.0694381
-0.027382
0.0773453
-0.0989067
-0.09238
0.0496094
-0.0957829
0.0254216
-0.0783306
0.00777093
-0.0517874
-0.0196111
0.0600021
-0.0826661
0.0365518
0.0177671
0.0050322
0.344082
0.58017
-0.528273
0.286993
0.215652
-0.158562
0.252116
0.0561351
-0.0212585
0.167105
0.121012
-0.0360016
0.00265844
0.0951266
0.412163
0.563987
0.380127
0.247688
0.340416
0.095846
0.235064
0.226365
0.16864
0.468777
0.491189
0.461248
0.255217
0.411883
0.145211
0.28345
0.354798
0.370046
0.505812
0.381357
0.518667
0.242362
0.457981
0.205897
0.314418
0.498361
0.587079
0.507108
0.53286
0.478323
0.327254
0.158767
0.351284
0.0860203
0.0727463
0.0818622
0.00415809
0.0729349
0.00892724
-0.0364497
0.109385
0.333063
0.247247
0.230146
0.203072
0.26175
0.0856534
0.0237313
0.0567752
0.0288782
0.0342823
0.022493
0.020729
0.0135532
0.00433358
0.202815
0.139313
0.0862767
0.0539134
)
;

boundaryField
{
    left
    {
        type            calculated;
        value           nonuniform List<scalar> 
17
(
-0.60402
-0.60402
-0.60402
-0.60402
-0.60402
-0.39598
-0.39598
-0.39598
-0.39598
-0.39598
-0.39598
-0.39598
-0.39598
-0.39598
-0.39598
-0.510051
-0.510051
)
;
    }
    right
    {
        type            calculated;
        value           nonuniform List<scalar> 
17
(
0.083734
0.242759
0.290646
0.373728
0.449058
0.51648
0.560405
0.568432
0.571001
0.574126
0.577697
0.58102
0.874546
0.734403
0.545674
0.339062
0.11723
)
;
    }
    down
    {
        type            calculated;
        value           uniform 0;
    }
    up
    {
        type            calculated;
        value           uniform 0;
    }
    cylinder
    {
        type            calculated;
        value           uniform 0;
    }
    defaultFaces
    {
        type            empty;
    }
}


// ************************************************************************* //
