/*--------------------------------*- C++ -*----------------------------------*\
  =========                 |
  \\      /  F ield         | OpenFOAM: The Open Source CFD Toolbox
   \\    /   O peration     | Website:  https://openfoam.org
    \\  /    A nd           | Version:  13
     \\/     M anipulation  |
\*---------------------------------------------------------------------------*/
FoamFile
{
    format      ascii;
    class       volVectorField;
    location    "0.25";
    object      U;
}
// * * * * * * * * * * * * * * * * * * * * * * * * * * * * * * * * * * * * * //

dimensions      [0 1 -1 0 0 0 0];

internalField   nonuniform List<vector> 
440
(
(0.218266 -0.176699 -1.811e-19)
(0.613084 -0.43666 1.07898e-18)
(0.984289 -0.640893 4.23359e-19)
(1.32752 -0.795352 1.2419e-18)
(1.63253 -0.916668 -2.60071e-19)
(0.304901 -0.177689 -5.44564e-19)
(0.81915 -0.428708 -1.01972e-18)
(1.27999 -0.618905 1.14471e-19)
(1.69192 -0.761629 -1.21529e-18)
(2.05375 -0.875077 -1.02102e-18)
(0.384891 -0.152411 -6.98113e-19)
(1.00471 -0.363021 1.59006e-18)
(1.53979 -0.51839 -1.93488e-18)
(2.00476 -0.63263 1.37863e-18)
(2.40599 -0.72146 1.43039e-18)
(0.445884 -0.102749 5.62419e-19)
(1.14613 -0.243089 -1.29963e-18)
(1.7375 -0.344816 -7.50779e-19)
(2.243 -0.418221 1.96676e-18)
(2.67453 -0.474457 2.50014e-18)
(0.479277 -0.0361596 6.86967e-19)
(1.22368 -0.0847564 1.69159e-19)
(1.84597 -0.119365 2.53147e-18)
(2.3741 -0.143866 -1.06216e-18)
(2.82304 -0.162496 -4.83815e-19)
(-0.00100037 -0.0514434 2.88127e-19)
(0.0499045 -0.144103 -3.6277e-19)
(0.105621 -0.222281 1.08051e-18)
(0.170957 -0.292292 -1.74238e-19)
(0.23893 -0.354015 -1.5863e-18)
(0.0136648 -0.0841536 -2.6588e-19)
(0.0893588 -0.2275 -4.42257e-19)
(0.174187 -0.349787 1.12575e-19)
(0.268498 -0.449733 6.14e-20)
(0.364801 -0.52985 -4.00146e-20)
(0.0433126 -0.114197 6.64061e-20)
(0.165503 -0.30299 5.26416e-19)
(0.296252 -0.467114 9.29979e-20)
(0.433003 -0.598518 1.45586e-18)
(0.568112 -0.697027 -2.49254e-20)
(0.0866112 -0.140991 6.66471e-20)
(0.276384 -0.367782 -3.36587e-20)
(0.469516 -0.562918 2.16823e-19)
(0.661443 -0.718381 -2.03962e-18)
(0.844165 -0.830277 9.58103e-19)
(0.142127 -0.161728 -2.36095e-19)
(0.420084 -0.41285 -4.43118e-19)
(0.691396 -0.621453 -7.71567e-19)
(0.950133 -0.782367 9.5483e-19)
(1.1852 -0.892779 3.46045e-18)
(0.59109 -0.592291 -4.22174e-18)
(0.954475 -0.513246 1.21963e-18)
(1.26943 -0.209377 3.47512e-19)
(1.39408 -0.0650245 -6.64212e-19)
(1.43551 -0.0170725 -1.04985e-19)
(0.785678 -0.74277 4.92588e-18)
(1.04061 -0.616782 -3.45085e-19)
(1.30204 -0.268245 -1.44242e-19)
(1.41294 -0.0863448 4.24127e-19)
(1.44195 -0.0230735 1.87548e-19)
(1.03691 -0.877191 1.53996e-18)
(1.17727 -0.700532 4.09602e-18)
(1.33555 -0.323031 6.77958e-20)
(1.4281 -0.10531 4.70489e-19)
(1.4498 -0.0285481 -6.32221e-20)
(1.33071 -0.988203 1.24336e-18)
(1.35645 -0.762279 -4.19026e-19)
(1.38679 -0.369744 -7.68901e-19)
(1.43919 -0.120738 -3.01866e-19)
(1.45876 -0.0329698 1.938e-20)
(1.63 -1.04736 -1.04657e-20)
(1.55043 -0.804421 -1.6494e-18)
(1.44732 -0.412657 0)
(1.44319 -0.142807 2.64763e-19)
(1.46706 -0.0380651 3.31759e-20)
(2.15618 -1.11455 -1.57979e-18)
(1.82659 -0.797527 -4.92242e-19)
(1.5613 -0.419254 -9.85472e-21)
(1.46143 -0.149581 2.07122e-20)
(1.44753 -0.0364684 -9.36655e-20)
(2.63387 -0.889159 -1.61314e-18)
(1.90342 -0.589655 2.90755e-18)
(1.4636 -0.292958 4.38556e-21)
(1.26259 -0.1102 2.49153e-19)
(1.21566 -0.0283135 0)
(2.47954 -0.522417 -6.93776e-18)
(1.60711 -0.337006 -1.49692e-19)
(1.15645 -0.164951 2.04884e-18)
(0.949187 -0.068399 -2.97498e-19)
(0.903663 -0.0172291 -5.98944e-20)
(1.76247 -0.219975 6.8394e-18)
(1.08882 -0.135414 1.3017e-18)
(0.753514 -0.0640604 2.25649e-19)
(0.602962 -0.029172 2.80825e-33)
(0.562118 -0.00798653 -1.14031e-19)
(0.683073 0.000126261 1.55787e-18)
(0.395158 0.0234196 7.21993e-19)
(0.26792 0.0232683 -5.06322e-19)
(0.214547 0.0110272 1.81557e-19)
(0.195162 0.00349917 -4.55617e-20)
(3.58196 -0.168165 1.2561e-17)
(3.41725 -0.502912 -1.04424e-17)
(3.13673 -0.786941 7.10746e-18)
(2.78059 -0.99599 2.31973e-18)
(2.33302 -1.10159 -4.15082e-19)
(3.78467 -0.103597 1.03956e-17)
(3.71764 -0.32447 -6.63988e-19)
(3.57796 -0.551835 -4.27079e-18)
(3.37857 -0.785754 2.69133e-18)
(3.10065 -1.01974 -6.62783e-19)
(3.11489 -0.0605637 3.65431e-18)
(3.09871 -0.181719 -2.51849e-18)
(3.05969 -0.309717 5.0124e-18)
(2.99904 -0.444889 -1.52644e-19)
(2.92461 -0.593606 -4.79011e-18)
(2.19088 -0.0276229 2.78862e-18)
(2.18385 -0.0833999 8.42972e-18)
(2.16461 -0.14407 -6.53225e-19)
(2.13403 -0.207376 -6.60645e-18)
(2.11301 -0.269547 1.94564e-18)
(0.879438 -0.00184233 5.21215e-18)
(0.876484 -0.00524186 -1.16419e-19)
(0.867347 -0.00957492 -4.26238e-20)
(0.850454 -0.0162685 -2.00872e-18)
(0.841073 -0.0229329 -3.60303e-18)
(1.65289 0.93961 2.26557e-18)
(1.34818 0.816491 -7.55074e-20)
(1.00336 0.658604 -3.2674e-20)
(0.627912 0.449517 -1.96502e-19)
(0.22527 0.182337 -1.34541e-19)
(2.07037 0.892344 -1.21674e-18)
(1.71061 0.777688 -1.19525e-18)
(1.29832 0.632608 7.33576e-19)
(0.834077 0.438767 -4.84582e-19)
(0.312175 0.182113 -4.21496e-21)
(2.41857 0.735787 -5.91248e-19)
(2.01966 0.645345 5.25265e-19)
(1.55502 0.528777 2.4378e-18)
(1.01757 0.370219 8.08512e-19)
(0.39136 0.155296 5.26227e-19)
(2.68206 0.486692 1.3468e-20)
(2.25244 0.42829 -2.722e-19)
(1.74748 0.352332 -6.46723e-19)
(1.15481 0.247656 2.0567e-18)
(0.450345 0.10415 -3.26869e-19)
(2.82555 0.17386 -1.17097e-18)
(2.37735 0.152644 -1.60656e-18)
(1.84947 0.125349 -7.28774e-19)
(1.22676 0.0878374 7.96339e-19)
(0.480879 0.0366885 -3.25847e-19)
(0.238882 0.414514 -2.109e-18)
(0.169274 0.351153 -1.78791e-18)
(0.102341 0.27497 3.0636e-19)
(0.0452096 0.182052 -3.55023e-20)
(-0.00183061 0.0668185 3.35633e-20)
(0.37074 0.591034 -8.07853e-19)
(0.273876 0.507063 -6.47612e-19)
(0.178585 0.396961 1.62981e-21)
(0.0924064 0.257864 -2.15038e-20)
(0.0166213 0.0958325 2.25366e-20)
(0.581819 0.750565 2.16981e-18)
(0.446289 0.647299 -1.60763e-19)
(0.307922 0.505459 -1.42955e-19)
(0.174284 0.327501 -2.13866e-19)
(0.0482016 0.123582 1.69271e-19)
(0.862055 0.872987 -1.30218e-18)
(0.679196 0.756961 1.99405e-18)
(0.485287 0.593266 3.2835e-19)
(0.288299 0.387963 9.9435e-20)
(0.0924504 0.149065 -1.17862e-19)
(1.20353 0.924228 -4.43113e-19)
(0.96906 0.811201 -4.59449e-19)
(0.708608 0.644797 3.63666e-19)
(0.433363 0.429094 3.61331e-19)
(0.148474 0.168554 1.90058e-21)
(0.899264 0.154072 -3.91112e-19)
(1.45042 0.143907 5.77054e-20)
(1.26505 0.202237 2.3733e-20)
(0.99651 0.50256 -3.7728e-19)
(0.593851 0.64265 -3.60108e-20)
(0.894163 0.0853572 1.74118e-19)
(1.45163 0.12841 2.54076e-19)
(1.28916 0.240193 1.17058e-19)
(1.05336 0.611569 -1.02475e-19)
(0.783709 0.798078 7.73719e-19)
(0.889776 0.0193818 4.44728e-21)
(1.46576 0.110539 -1.93144e-20)
(1.30247 0.279465 -5.90977e-20)
(1.16721 0.700615 -5.06883e-19)
(1.03757 0.931348 1.8347e-19)
(0.888117 -0.0441813 -2.39053e-20)
(1.48454 0.0919344 -5.51967e-19)
(1.33024 0.317643 1.19646e-19)
(1.3308 0.763217 1.24379e-18)
(1.3347 1.03667 9.35146e-19)
(0.888875 -0.105519 4.29514e-21)
(1.50248 0.0770263 1.26191e-19)
(1.37028 0.357573 -6.8446e-20)
(1.51416 0.805049 -4.14632e-19)
(1.63518 1.0885 -2.76714e-18)
(0.891335 -0.196499 2.35316e-19)
(1.5139 0.0455821 4.01572e-19)
(1.46379 0.358796 -1.18242e-20)
(1.76992 0.787916 2.89305e-18)
(2.15151 1.14078 -5.5232e-18)
(0.870183 -0.326962 -2.73831e-20)
(1.42545 -0.0180232 -6.16352e-19)
(1.44536 0.260556 8.63635e-21)
(1.85367 0.587085 -3.0184e-18)
(2.59605 0.899593 1.66292e-18)
(0.782462 -0.41054 5.34765e-18)
(1.12581 -0.0818223 6.57884e-35)
(1.15145 0.142207 -2.18046e-18)
(1.58138 0.334211 2.70685e-18)
(2.45823 0.528796 5.03334e-18)
(0.632109 -0.290368 1.50139e-19)
(0.730934 -0.0692021 5.20129e-19)
(0.741154 0.0512377 2.56825e-19)
(1.07685 0.133386 6.26536e-19)
(1.75848 0.220369 -8.63622e-18)
(0.321725 -0.043307 -4.29944e-18)
(0.297527 0.00436234 2.7771e-19)
(0.268135 -0.0122989 1.08836e-18)
(0.393895 -0.0239586 -7.76088e-19)
(0.686029 -0.000350861 -1.46369e-18)
(2.34815 1.1204 4.68151e-18)
(2.78704 1.01217 3.46519e-18)
(3.14078 0.803184 -5.68442e-18)
(3.41898 0.519501 -1.46116e-17)
(3.58245 0.185832 1.57613e-17)
(3.07949 1.01865 5.00691e-18)
(3.3546 0.795142 2.5652e-17)
(3.5574 0.56064 7.24509e-18)
(3.70142 0.331811 -3.08382e-17)
(3.77813 0.11112 -5.1739e-18)
(2.90626 0.591841 -7.23366e-18)
(2.98625 0.448064 -3.38171e-18)
(3.05231 0.312154 -6.30349e-18)
(3.09531 0.18179 -6.88938e-18)
(3.11406 0.058474 6.52242e-18)
(2.10619 0.266038 5.40833e-18)
(2.13003 0.205897 -4.05078e-19)
(2.16248 0.143155 4.86969e-18)
(2.1831 0.0822041 6.28838e-18)
(2.19077 0.0260295 -5.88735e-18)
(0.842387 0.0221027 -5.7382e-19)
(0.851824 0.0156805 3.51876e-18)
(0.868571 0.00914574 2.44235e-18)
(0.877464 0.00479991 -5.16865e-18)
(0.87983 0.00136463 -3.84237e-20)
(0.281886 0.0207538 5.51943e-19)
(0.656579 0.0404608 -7.43326e-19)
(0.973018 0.0440606 -8.18662e-19)
(0.944203 0.0274274 -1.51792e-18)
(0.697751 0.0163829 -6.63697e-19)
(0.245534 0.055452 7.45377e-19)
(0.591178 0.107059 1.44154e-18)
(0.864566 0.125125 -6.96853e-19)
(0.939839 0.0969843 1.96027e-18)
(0.724077 0.0532281 -2.70087e-18)
(0.185583 0.0742537 4.95971e-19)
(0.476311 0.145874 -1.39947e-18)
(0.707668 0.184733 -9.13717e-19)
(0.857197 0.175379 -1.81075e-18)
(0.741482 0.101196 -2.86199e-18)
(0.12328 0.0774659 -7.72748e-19)
(0.3447 0.160343 -1.37659e-18)
(0.53445 0.214849 4.39665e-18)
(0.677577 0.233248 -3.66411e-19)
(0.712985 0.179972 2.25026e-18)
(0.0752631 0.0723669 -6.23573e-19)
(0.230664 0.160113 1.56332e-18)
(0.372188 0.224483 6.07646e-19)
(0.482622 0.25757 -1.29287e-18)
(0.560971 0.258163 -1.75858e-19)
(0.0451512 0.0638043 8.20346e-20)
(0.149941 0.148802 -1.21644e-18)
(0.247674 0.211997 -9.32463e-19)
(0.325185 0.233613 -1.03391e-19)
(0.370926 0.223195 -5.06935e-20)
(0.0263961 0.0557067 3.12054e-19)
(0.095138 0.134077 5.82954e-19)
(0.160935 0.183843 -2.17692e-19)
(0.213745 0.193891 2.60817e-19)
(0.253699 0.183514 1.72913e-19)
(0.0131552 0.0486137 2.46516e-19)
(0.0586795 0.110314 1.33595e-18)
(0.103699 0.119273 -1.24727e-18)
(0.142698 0.105266 -2.784e-18)
(0.178986 0.0836733 4.10628e-19)
(0.00610864 0.0389628 -2.3673e-19)
(0.04221 0.0475192 -1.79028e-18)
(0.0791291 0.0204515 3.20007e-18)
(0.118947 -0.0113289 1.3205e-18)
(0.160156 -0.0451413 -2.69624e-19)
(0.00963548 0.0018607 2.05748e-19)
(0.0414196 -0.0502648 -4.44652e-19)
(0.0811505 -0.0965351 8.89276e-20)
(0.129452 -0.144579 1.06385e-19)
(0.179743 -0.190877 4.85729e-21)
(0.339323 0.069703 -8.41765e-20)
(0.619339 -0.0419984 -1.2163e-18)
(0.705447 -0.0151759 2.5667e-19)
(0.729564 -0.000796929 3.77287e-19)
(0.73411 -0.000139672 1.83843e-20)
(0.304555 -0.0374611 -9.9559e-20)
(0.755435 -0.114609 1.42231e-18)
(0.888662 -0.0263595 9.27753e-19)
(0.930606 -0.00236323 7.89457e-20)
(0.943904 -0.00023301 -4.87085e-20)
(0.319643 -0.152395 -7.95057e-19)
(0.835675 -0.197568 3.01453e-18)
(1.04652 -0.0474207 -1.86232e-19)
(1.11397 -0.00578324 -3.47698e-19)
(1.13412 -0.000580559 9.1416e-20)
(0.372911 -0.290215 1.08592e-18)
(0.879074 -0.296203 -2.53641e-18)
(1.15829 -0.0908213 -5.14677e-19)
(1.27016 -0.017012 -3.59586e-20)
(1.30437 -0.00311169 -1.24762e-20)
(0.459104 -0.437954 5.09543e-19)
(0.910243 -0.402584 -5.63573e-19)
(1.22551 -0.148492 4.42661e-19)
(1.36286 -0.0400084 1.37453e-19)
(1.41527 -0.00969296 -4.31789e-20)
(0.183045 -0.0448568 9.54269e-19)
(0.146144 -0.00500429 0)
(0.163287 0.0013626 1.18929e-19)
(0.165622 0.000317447 2.31571e-20)
(0.164242 -0.000113652 -8.26956e-20)
(0.401021 0.0697525 0)
(0.412541 -0.000689899 0)
(0.468379 -0.00491067 7.45562e-20)
(0.478031 0.000346036 4.15159e-20)
(0.476083 2.9894e-05 2.26969e-20)
(0.162639 -0.000821046 -3.6835e-19)
(0.186349 -0.00179214 3.10711e-18)
(0.213152 -0.00502138 -6.8669e-19)
(0.22975 -0.0149886 -3.11635e-18)
(0.245644 -0.0169755 -7.96814e-19)
(0.431914 0.00444008 6.09767e-19)
(0.484434 0.0196893 4.11534e-18)
(0.536335 0.0466695 -6.73213e-18)
(0.567579 0.0805371 2.20837e-18)
(0.598398 0.16217 3.79218e-18)
(0.37052 -0.219708 -3.37817e-19)
(0.324043 -0.230784 -8.90849e-20)
(0.24826 -0.212218 -3.13077e-19)
(0.15075 -0.150683 3.82639e-19)
(0.0458426 -0.0646058 1.14488e-19)
(0.257849 -0.167234 4.20255e-19)
(0.215153 -0.179505 1.41806e-18)
(0.162393 -0.175321 2.72385e-19)
(0.0967723 -0.134392 2.3487e-19)
(0.0267575 -0.0570999 -1.73339e-20)
(0.19305 -0.0522486 -3.09352e-19)
(0.151428 -0.0748223 -1.01306e-19)
(0.108539 -0.0923913 1.63339e-18)
(0.062277 -0.0951043 2.92206e-19)
(0.0130032 -0.0474619 -3.07675e-19)
(0.17653 0.088134 -6.36374e-19)
(0.130982 0.0544323 -7.07661e-19)
(0.0865132 0.0209961 1.29807e-18)
(0.0486593 -0.00881289 1.58837e-18)
(0.0111839 -0.0287746 1.98703e-19)
(0.185272 0.243396 1.23853e-19)
(0.131672 0.197226 -1.19573e-19)
(0.08004 0.147608 2.48225e-19)
(0.0370208 0.0966692 6.05331e-19)
(-0.00269448 0.0353987 8.65318e-20)
(0.697747 -0.016338 1.53107e-18)
(0.944209 -0.0274039 -1.80062e-18)
(0.972826 -0.0441859 2.26946e-18)
(0.65659 -0.0405232 3.6429e-19)
(0.28192 -0.0207624 5.36504e-19)
(0.724068 -0.0531186 1.77165e-18)
(0.939698 -0.0969972 7.94621e-18)
(0.864361 -0.125227 1.03349e-18)
(0.59123 -0.107099 1.34914e-18)
(0.245629 -0.0554732 -4.78345e-19)
(0.741412 -0.10094 -1.22303e-18)
(0.856589 -0.175205 -2.29467e-18)
(0.707584 -0.18479 2.92374e-18)
(0.476378 -0.145943 -1.08482e-19)
(0.185706 -0.0742899 3.3962e-19)
(0.712494 -0.179775 2.39664e-20)
(0.676845 -0.233162 -7.67854e-18)
(0.534476 -0.215162 -5.99255e-18)
(0.344834 -0.160679 1.09101e-18)
(0.123463 -0.0775725 5.08056e-19)
(0.558546 -0.256527 4.74048e-19)
(0.481544 -0.256859 5.32481e-19)
(0.372238 -0.225129 -8.95716e-19)
(0.23092 -0.160975 -8.86693e-19)
(0.0756107 -0.0726307 -5.13826e-21)
(0.724754 0.371918 1.16684e-18)
(0.897991 0.122802 -1.89294e-19)
(0.691 0.0202441 2.65284e-19)
(0.651121 0.0394815 -7.63676e-19)
(0.364033 -0.0599225 -1.01606e-19)
(0.822753 0.396209 -1.66036e-19)
(1.11671 0.14931 -5.22503e-19)
(0.88262 0.0402333 8.16901e-19)
(0.80839 0.105325 1.66449e-18)
(0.342499 0.0568727 1.06891e-19)
(0.882329 0.367681 -2.07693e-18)
(1.3145 0.160985 -3.76545e-20)
(1.04693 0.0687721 2.1833e-19)
(0.906197 0.186258 1.53873e-18)
(0.364127 0.178909 -1.33289e-18)
(0.901219 0.303126 1.30372e-18)
(1.46103 0.160046 2.72038e-20)
(1.16111 0.110915 -1.67353e-19)
(0.953851 0.284435 -4.30492e-19)
(0.41043 0.324014 -5.28911e-19)
(0.902699 0.226888 1.42124e-19)
(1.46398 0.153691 -1.44326e-20)
(1.22438 0.15798 -3.69193e-20)
(0.975207 0.390661 5.43641e-21)
(0.478131 0.479687 1.3584e-18)
(0.275073 0.0483727 0)
(0.245861 -0.0104786 6.35538e-19)
(0.160648 -0.0156857 1.28917e-19)
(0.152239 0.00514444 -1.37081e-19)
(0.184569 0.0438636 -1.80809e-18)
(0.571623 0.265851 -1.01867e-17)
(0.616342 0.0738094 -2.50008e-18)
(0.45525 0.0123661 5.16562e-19)
(0.429268 0.00173997 -6.73611e-19)
(0.409132 -0.0678865 -6.63992e-19)
(0.245797 0.016922 -1.17529e-21)
(0.22985 0.0150733 1.92806e-18)
(0.213229 0.0050637 5.23707e-19)
(0.186399 0.0018018 3.23198e-19)
(0.162655 0.000824879 0)
(0.599361 -0.16202 -1.05707e-19)
(0.568171 -0.080215 2.55282e-18)
(0.536448 -0.0464404 -1.34758e-19)
(0.484494 -0.0196361 -2.69683e-19)
(0.431938 -0.0044179 7.60205e-19)
)
;

boundaryField
{
    left
    {
        type            fixedValue;
        value           uniform (1 0 0);
    }
    right
    {
        type            zeroGradient;
    }
    down
    {
        type            noSlip;
    }
    up
    {
        type            noSlip;
    }
    cylinder
    {
        type            noSlip;
    }
    defaultFaces
    {
        type            empty;
    }
}


// ************************************************************************* //
