/*--------------------------------*- C++ -*----------------------------------*\
  =========                 |
  \\      /  F ield         | OpenFOAM: The Open Source CFD Toolbox
   \\    /   O peration     | Website:  https://openfoam.org
    \\  /    A nd           | Version:  13
     \\/     M anipulation  |
\*---------------------------------------------------------------------------*/
FoamFile
{
    format      ascii;
    class       volScalarField;
    location    "0.055";
    object      p;
}
// * * * * * * * * * * * * * * * * * * * * * * * * * * * * * * * * * * * * * //

dimensions      [0 2 -2 0 0 0 0];

internalField   nonuniform List<scalar> 
1800
(
-0.834882
-0.71105
-0.59509
-0.489705
-0.398638
-0.320261
-0.252287
-0.192777
-0.139922
-0.0950502
-0.975269
-0.838059
-0.70934
-0.591415
-0.488789
-0.39998
-0.322633
-0.254853
-0.195488
-0.145981
-1.10373
-0.953579
-0.812939
-0.683143
-0.569698
-0.471229
-0.385277
-0.309867
-0.243763
-0.187644
-1.21538
-1.05296
-0.901558
-0.760798
-0.637464
-0.53024
-0.436529
-0.354239
-0.282045
-0.220239
-1.30527
-1.13148
-0.970724
-0.820108
-0.687988
-0.573023
-0.472445
-0.384045
-0.306404
-0.239386
-1.36849
-1.18456
-1.01605
-0.856847
-0.717236
-0.5957
-0.489285
-0.395674
-0.313353
-0.241805
-1.40057
-1.20814
-1.03355
-0.86714
-0.721561
-0.594804
-0.483739
-0.385965
-0.299878
-0.224636
-1.39781
-1.19875
-1.01983
-0.847608
-0.697877
-0.567413
-0.453024
-0.352256
-0.263428
-0.185433
-1.35768
-1.15326
-0.972477
-0.795575
-0.643901
-0.511396
-0.395111
-0.292603
-0.202131
-0.12239
-1.27886
-1.06849
-0.890611
-0.709179
-0.558602
-0.425744
-0.308993
-0.205987
-0.114925
-0.0344307
0.277434
0.300156
0.323659
0.339979
0.350464
0.357034
0.360834
0.36258
0.362789
0.361901
0.249006
0.275007
0.301883
0.321319
0.334566
0.34358
0.349544
0.353202
0.3551
0.355777
0.194174
0.225506
0.257547
0.281767
0.299248
0.311998
0.321257
0.327821
0.332277
0.335338
0.114746
0.153467
0.192266
0.222797
0.245868
0.263534
0.277114
0.287469
0.295248
0.301397
0.0133264
0.0612942
0.108235
0.146449
0.176334
0.199972
0.218776
0.233692
0.245438
0.255249
-0.106697
-0.0479744
0.00829376
0.0554031
0.0931913
0.123735
0.148553
0.168687
0.184936
0.19887
-0.241278
-0.170671
-0.104051
-0.0469768
-0.000309124
0.0379783
0.0695153
0.0954447
0.116648
0.135081
-0.385938
-0.302626
-0.224738
-0.15673
-0.10026
-0.0534023
-0.0144301
0.0178823
0.0444728
0.0677228
-0.53605
-0.439457
-0.349472
-0.269639
-0.202439
-0.146098
-0.0988112
-0.0593192
-0.0266421
0.00202756
-0.687108
-0.576904
-0.47412
-0.381699
-0.302851
-0.235944
-0.179077
-0.130937
-0.0903204
-0.0547059
0.32434
0.233052
0.20205
0.172329
0.144319
0.117666
0.0915101
0.0654622
0.0393156
0.0130901
0.32791
0.242139
0.208779
0.177316
0.147908
0.120178
0.0932176
0.0665555
0.0399205
0.0132759
0.324447
0.25127
0.215622
0.182538
0.151782
0.122954
0.0951433
0.0678096
0.040623
0.013494
0.31367
0.259923
0.222546
0.18797
0.15592
0.125982
0.0972783
0.0692187
0.0414203
0.0137438
0.295387
0.267251
0.229454
0.193569
0.160293
0.129243
0.0996117
0.0707758
0.0423086
0.0140247
0.269805
0.272063
0.236122
0.199271
0.164865
0.132717
0.10213
0.0724726
0.043284
0.0143362
0.237631
0.273139
0.242163
0.204971
0.169588
0.136377
0.104817
0.0742993
0.0443413
0.0146771
0.199217
0.270477
0.247202
0.210555
0.174416
0.140197
0.107657
0.0762453
0.0454749
0.0150462
0.155393
0.263247
0.250826
0.21588
0.179305
0.144161
0.110641
0.0783041
0.0466813
0.015443
0.109605
0.252596
0.253439
0.221043
0.184281
0.148279
0.113774
0.0804787
0.0479632
0.0158732
0.106256
0.26023
0.261679
0.228157
0.189863
0.152423
0.116714
0.0824269
0.0491034
0.0163036
0.112938
0.253921
0.258347
0.228034
0.191106
0.153913
0.117989
0.0833381
0.0496502
0.0165001
0.135413
0.251471
0.255713
0.227405
0.191692
0.154901
0.118933
0.0840487
0.0500861
0.0166577
0.161975
0.250821
0.25316
0.226268
0.191703
0.155436
0.119566
0.0845621
0.0504118
0.0167782
0.189011
0.251587
0.250745
0.224742
0.191229
0.155564
0.119904
0.0848833
0.0506282
0.0168617
0.213228
0.253005
0.248419
0.222922
0.19036
0.155336
0.119972
0.0850225
0.0507392
0.0169091
0.232459
0.254219
0.246048
0.220863
0.189171
0.154806
0.119799
0.0849928
0.0507497
0.0169211
0.245463
0.254398
0.243422
0.218565
0.187708
0.154009
0.119405
0.0848048
0.0506631
0.0168983
0.250991
0.25259
0.240165
0.215899
0.185921
0.152919
0.118769
0.08444
0.0504612
0.0168269
0.255009
0.254896
0.241096
0.216455
0.186357
0.153285
0.119059
0.0846452
0.0505843
0.0168705
0.102729
0.0173205
-0.0473333
-0.0917324
-0.117253
-0.125865
-0.119659
-0.101538
-0.0730763
-0.0437313
0.252596
0.168842
0.101847
0.0510984
0.0156165
-0.00618149
-0.0156931
-0.0166444
-0.00827353
-0.00346091
0.367241
0.286973
0.220464
0.167463
0.127281
0.0986539
0.0805904
0.0697979
0.0676729
0.0622286
0.455406
0.378054
0.312529
0.258716
0.216096
0.183655
0.160496
0.144025
0.134743
0.123644
0.522869
0.447962
0.383479
0.329433
0.285434
0.250666
0.224231
0.20421
0.190226
0.175969
0.574112
0.501046
0.437406
0.383308
0.338467
0.302228
0.273699
0.251471
0.234525
0.218372
0.61217
0.54029
0.477123
0.422873
0.377353
0.340047
0.310101
0.28645
0.267645
0.250291
0.639093
0.567689
0.50449
0.449778
0.403467
0.365173
0.334127
0.309527
0.289649
0.271747
0.656215
0.584321
0.520281
0.464449
0.416825
0.377158
0.344814
0.319279
0.298814
0.281402
0.664609
0.590816
0.524629
0.466452
0.416407
0.374392
0.339892
0.312793
0.291187
0.27582
1.82048
1.77744
1.7321
1.6844
1.63158
1.57166
1.50281
1.42339
1.33502
1.23756
1.60833
1.5596
1.50815
1.45186
1.38865
1.31689
1.23475
1.14068
1.03717
0.92194
1.38247
1.33002
1.27312
1.20952
1.13747
1.05536
0.961225
0.853651
0.736232
0.603498
1.16005
1.10255
1.03926
0.968031
0.887203
0.795018
0.689328
0.568858
0.438621
0.288704
0.945135
0.882005
0.812126
0.733363
0.644022
0.54218
0.425487
0.29285
0.151196
-0.0153758
0.739912
0.671516
0.595542
0.509863
0.412737
0.302064
0.175275
0.0314737
-0.119669
-0.302146
0.547379
0.474523
0.393323
0.30171
0.197892
0.0795731
-0.0561531
-0.210194
-0.368279
-0.565638
0.370864
0.294541
0.209187
0.112851
0.00374974
-0.120568
-0.263692
-0.428251
-0.589924
-0.800397
0.213529
0.134775
0.0463742
-0.0534374
-0.166356
-0.294525
-0.442252
-0.619582
-0.781908
-0.9999
0.0780411
-0.00219886
-0.0926284
-0.194788
-0.310502
-0.441869
-0.587104
-0.77754
-0.940311
-1.16191
3.1661
3.18844
3.21666
3.24803
3.27975
3.311
3.34136
3.3702
3.3969
3.41468
3.10619
3.12662
3.15251
3.18127
3.21014
3.23828
3.26521
3.29026
3.31283
3.3274
3.02522
3.0428
3.06515
3.08994
3.1145
3.1379
3.15962
3.17887
3.19511
3.20494
2.92376
2.93766
2.95538
2.97496
2.99383
3.01101
3.02584
3.03745
3.04538
3.04844
2.80281
2.8123
2.8244
2.83765
2.84959
2.85916
2.8656
2.86789
2.86572
2.85971
2.66389
2.66835
2.67395
2.67983
2.68372
2.68444
2.68111
2.67259
2.65872
2.64138
2.50916
2.50804
2.50637
2.50395
2.49876
2.48951
2.47517
2.45449
2.42753
2.39682
2.34112
2.33402
2.32443
2.31289
2.29767
2.27742
2.25095
2.21696
2.17575
2.12994
2.16475
2.15132
2.13274
2.1108
2.08434
2.05191
2.01218
1.96376
1.90732
1.84508
1.98497
1.96191
1.93232
1.89895
1.8605
1.81519
1.7615
1.69798
1.62576
1.54618
3.48048
1.91562
2.93106
2.87632
2.86015
2.86141
2.87592
2.91148
2.99607
3.08974
3.47238
1.90474
2.9239
2.86783
2.85023
2.84941
2.86072
2.89146
2.96588
3.04835
3.46586
1.89168
2.91843
2.85958
2.83984
2.83627
2.84337
2.86765
2.92704
2.99481
3.46081
1.87663
2.91477
2.85154
2.82897
2.82199
2.82389
2.84001
2.88008
2.92849
3.45703
1.85986
2.91306
2.84363
2.81756
2.80655
2.80231
2.8085
2.82563
2.84881
3.45429
1.84174
2.91344
2.83572
2.80556
2.78996
2.77864
2.77306
2.7641
2.75566
3.45231
1.82272
2.91606
2.82759
2.79291
2.7722
2.75289
2.73358
2.69504
2.65002
3.4508
1.80334
2.92101
2.81898
2.77954
2.75326
2.72502
2.69007
2.62043
2.53093
3.44941
1.78425
2.92829
2.80956
2.76545
2.73317
2.69506
2.64284
2.54195
2.39677
3.44758
1.76618
2.93787
2.799
2.75071
2.71208
2.66354
2.59366
2.46362
2.25495
3.4465
1.75044
2.93374
2.78818
2.73266
2.68431
2.62049
2.52654
2.3583
2.08677
3.44973
1.74006
2.91568
2.77823
2.71434
2.65561
2.57725
2.46356
2.27039
1.98392
3.45336
1.73298
2.90066
2.76822
2.69735
2.62936
2.53869
2.40973
2.20099
1.91376
3.45827
1.72872
2.88858
2.75879
2.68198
2.60595
2.50511
2.36446
2.14689
1.86227
3.46537
1.72694
2.87926
2.75042
2.66853
2.58576
2.47673
2.32739
2.10554
1.82408
3.47553
1.72742
2.87246
2.74343
2.65725
2.56901
2.45365
2.29809
2.0748
1.79657
3.48962
1.72999
2.86788
2.73802
2.64834
2.55585
2.43581
2.27604
2.05299
1.77798
3.50883
1.73451
2.86511
2.73427
2.64191
2.54637
2.42315
2.26078
2.03882
1.76715
3.53227
1.74163
2.86364
2.73215
2.63803
2.54062
2.41559
2.25204
2.03179
1.76422
3.57691
1.74666
2.8644
2.72995
2.63505
2.53629
2.40987
2.24518
2.02552
1.76049
1.78902
1.60147
1.39367
1.19201
0.999143
0.814774
0.640845
0.480066
0.335115
0.208451
1.69683
1.54893
1.38213
1.21462
1.05124
0.892676
0.741045
0.599013
0.469054
0.353251
1.63785
1.51322
1.37181
1.22676
1.08427
0.945395
0.811628
0.68504
0.567638
0.46112
1.59887
1.48944
1.36704
1.23964
1.11294
0.988398
0.867392
0.7518
0.643513
0.544235
1.57435
1.47529
1.36616
1.2514
1.1361
1.02199
0.910383
0.80299
0.701575
0.60775
1.55981
1.46798
1.36804
1.26227
1.15519
1.04861
0.943798
0.842347
0.745925
0.656077
1.55238
1.46556
1.37191
1.27236
1.171
1.06968
0.969605
0.87228
0.779306
0.692176
1.55028
1.46691
1.37745
1.28193
1.18427
1.08632
0.989248
0.8945
0.80362
0.718062
1.55439
1.47357
1.38647
1.2929
1.19693
1.10045
1.0046
0.910789
0.820526
0.73523
1.56334
1.48528
1.39884
1.30546
1.20965
1.11318
1.01712
0.922852
0.831806
0.745346
-2.50273
-2.22757
-1.99535
-1.77762
-1.6036
-1.46221
-1.34833
-1.25825
-1.18912
-1.1392
-2.62927
-2.36378
-2.12777
-1.91437
-1.74015
-1.59891
-1.48537
-1.39559
-1.32654
-1.2765
-2.64424
-2.3879
-2.15603
-1.94787
-1.77615
-1.63652
-1.5239
-1.43441
-1.3651
-1.31392
-2.56096
-2.3169
-2.09367
-1.89357
-1.72714
-1.59107
-1.4806
-1.39206
-1.32266
-1.27047
-2.40024
-2.17221
-1.96145
-1.77246
-1.61421
-1.48397
-1.37736
-1.29093
-1.22208
-1.16956
-2.1856
-1.97643
-1.7816
-1.60666
-1.4594
-1.33741
-1.23671
-1.15414
-1.08724
-1.0357
-1.93895
-1.75044
-1.57412
-1.4156
-1.28171
-1.17022
-1.07754
-1.00083
-0.937793
-0.889074
-1.67814
-1.51111
-1.35473
-1.21414
-1.09525
-0.995937
-0.912967
-0.843838
-0.786494
-0.742281
-1.41622
-1.27064
-1.13449
-1.01237
-0.909293
-0.823115
-0.750937
-0.690536
-0.640039
-0.602073
-1.16191
-1.03711
-0.92046
-0.81655
-0.729319
-0.656542
-0.595541
-0.54413
-0.499844
-0.464399
-0.920629
-0.815398
-0.716977
-0.630475
-0.558785
-0.499787
-0.45137
-0.412077
-0.380418
-0.352822
-0.695494
-0.60814
-0.526079
-0.455211
-0.397353
-0.350332
-0.31223
-0.281685
-0.257547
-0.236305
-0.48878
-0.417364
-0.349587
-0.292282
-0.246284
-0.209363
-0.179744
-0.156155
-0.137543
-0.121103
-0.302651
-0.245133
-0.189625
-0.143876
-0.107928
-0.0795428
-0.0570925
-0.039436
-0.0256365
-0.0135228
-0.139306
-0.0935442
-0.0483992
-0.0123244
0.0152226
0.0364412
0.0528168
0.0653591
0.0748767
0.0830066
-0.000833467
0.0354607
0.0720951
0.100302
0.121018
0.136372
0.147728
0.155988
0.161854
0.166537
0.111052
0.140276
0.17028
0.192416
0.207864
0.218673
0.226111
0.230993
0.233945
0.235844
0.195189
0.219697
0.245022
0.262912
0.274681
0.282307
0.286986
0.289476
0.290339
0.290213
0.250983
0.272944
0.295614
0.311116
0.320827
0.326676
0.329815
0.330965
0.330652
0.329364
0.27831
0.299703
0.321775
0.336761
0.34605
0.35155
0.354397
0.355298
0.354766
0.353223
-0.147603
0.0719451
0.121871
0.129062
0.122238
0.106984
0.0868701
0.0638312
0.0389169
0.0130388
-0.0578911
0.10838
0.135858
0.135
0.124026
0.107077
0.0863728
0.0632405
0.0384899
0.0128948
0.0223816
0.136553
0.146559
0.139343
0.125559
0.107303
0.0860641
0.0628103
0.0381658
0.012784
0.0911799
0.15815
0.155372
0.143345
0.127156
0.107724
0.0859602
0.0625454
0.0379455
0.0127066
0.149584
0.175274
0.162943
0.147153
0.128883
0.108364
0.0860708
0.0624488
0.0378294
0.0126625
0.198925
0.188288
0.169781
0.150938
0.130799
0.109245
0.0864031
0.0625224
0.0378175
0.0126514
0.239548
0.198607
0.176193
0.154813
0.132944
0.110381
0.0869623
0.0627676
0.0379101
0.0126734
0.27186
0.20732
0.182535
0.158853
0.135351
0.111787
0.0877521
0.063185
0.0381068
0.0127283
0.296628
0.215762
0.188938
0.163103
0.138041
0.113468
0.0887739
0.0637742
0.0384073
0.0128161
0.313921
0.224257
0.195438
0.167591
0.141029
0.115428
0.0900273
0.064534
0.0388106
0.0129367
-0.334872
-0.0163762
0.0782342
0.109386
0.113212
0.103093
0.0854092
0.0634322
0.0389088
0.0131061
-0.309826
-0.00709411
0.0823998
0.111171
0.113995
0.10343
0.0855465
0.0634803
0.0389202
0.0131062
-0.278053
0.00968836
0.0906098
0.114817
0.115543
0.104048
0.0857568
0.0635232
0.0389049
0.0130891
-0.242926
0.0291393
0.10064
0.119424
0.117531
0.105009
0.0861867
0.0637015
0.0389678
0.0130998
-0.200377
0.0511665
0.112408
0.124971
0.120417
0.106306
0.0868225
0.0640074
0.0391035
0.0131357
-1.07484
-1.19657
-1.24153
-1.22836
-1.17197
-1.0885
-0.987432
-0.875255
-0.756811
-0.643557
-1.08083
-1.21201
-1.258
-1.23538
-1.1624
-1.05472
-0.927658
-0.797762
-0.671551
-0.57042
-1.08794
-1.22213
-1.26482
-1.23303
-1.14695
-1.02715
-0.892728
-0.760573
-0.635865
-0.540839
-1.09825
-1.23229
-1.27073
-1.23184
-1.13737
-1.01039
-0.871191
-0.735657
-0.609959
-0.511804
-1.11355
-1.24898
-1.2844
-1.23974
-1.13857
-1.00543
-0.861019
-0.718819
-0.584235
-0.462855
2.59039
2.5693
2.54254
2.51354
2.48099
2.44316
2.39876
2.34645
2.28702
2.22407
2.73507
2.7268
2.71446
2.70026
2.68298
2.66125
2.63398
2.59994
2.55954
2.5161
2.86553
2.86476
2.86306
2.86104
2.85676
2.8489
2.83652
2.81846
2.79483
2.76825
2.97827
2.98402
2.9909
2.99859
3.00482
3.00836
3.00838
3.00383
2.99455
2.98198
3.07021
3.08153
3.09558
3.1113
3.12619
3.13915
3.14947
3.15619
3.15896
3.15756
3.14087
3.1567
3.17653
3.19868
3.22051
3.24103
3.25961
3.27544
3.28802
3.29499
3.18974
3.20903
3.23327
3.26031
3.28742
3.31367
3.33855
3.36134
3.38147
3.39425
3.21662
3.23831
3.26559
3.29599
3.32671
3.3569
3.3861
3.41366
3.43898
3.45566
3.2215
3.24451
3.27348
3.30571
3.3384
3.37072
3.40225
3.4324
3.46052
3.47943
3.20454
3.22779
3.25707
3.28963
3.32264
3.35531
3.38722
3.41777
3.44634
3.46563
-0.889636
-0.942265
-1.0136
-1.10551
-1.22046
-1.36173
-1.53431
-1.75765
-1.96639
-2.26359
-0.527793
-0.588677
-0.666743
-0.763829
-0.882118
-1.02507
-1.19832
-1.4053
-1.6129
-1.90959
-0.0786398
-0.153747
-0.242623
-0.34723
-0.469799
-0.613649
-0.782909
-0.978766
-1.18791
-1.46084
0.403869
0.315419
0.217239
0.107158
-0.0171571
-0.1588
-0.321512
-0.507572
-0.709951
-0.955134
0.866338
0.772841
0.672293
0.562653
0.441728
0.306711
0.154155
-0.0186558
-0.206991
-0.424319
1.2808
1.19131
1.09611
0.993447
0.881455
0.757752
0.61934
0.463639
0.294133
0.104808
1.6414
1.56166
1.47712
1.38619
1.28729
1.17847
1.05724
0.921316
0.773389
0.611929
1.95402
1.88572
1.81389
1.73683
1.65299
1.56078
1.45814
1.3431
1.21777
1.08333
2.22853
2.16959
2.10897
2.04527
1.97639
1.90083
1.81682
1.72257
1.61963
1.51073
2.45681
2.40733
2.35664
2.30627
2.25304
2.19483
2.12988
2.05643
1.97551
1.89048
3.63823
1.91844
3.09466
2.94661
2.91835
2.91429
2.91537
2.91363
2.87177
2.80836
3.61785
1.92265
3.07049
2.94488
2.91706
2.91434
2.91868
2.92711
2.90545
2.90145
3.59803
1.9271
3.04792
2.94092
2.91474
2.91345
2.92163
2.9393
2.9399
2.98119
3.57897
1.93118
3.02711
2.9352
2.91128
2.91139
2.92283
2.9484
2.97126
3.04216
3.56085
1.93437
3.00816
2.92816
2.90667
2.90808
2.92218
2.95385
2.99731
3.08763
3.54387
1.93622
2.99106
2.92021
2.90096
2.90347
2.91962
2.95586
3.01614
3.11991
3.52817
1.93636
2.97575
2.91168
2.89427
2.89756
2.91508
2.95434
3.02827
3.13857
3.5139
1.93453
2.96216
2.90285
2.88674
2.89037
2.90849
2.94917
3.03297
3.14427
3.50118
1.93052
2.9502
2.89392
2.87847
2.88192
2.89979
2.94032
3.02949
3.13739
3.49007
1.92423
2.93984
2.88504
2.86958
2.87225
2.88894
2.92776
3.01728
3.11937
3.7993
1.94327
3.11136
2.95998
2.92342
2.90952
2.89227
2.85933
2.75082
2.62169
3.75074
1.93785
3.10913
2.95941
2.92304
2.90996
2.8941
2.86321
2.75805
2.62448
3.7185
1.93081
3.10957
2.95732
2.92237
2.91073
2.89703
2.86942
2.77066
2.63091
3.68855
1.92441
3.10914
2.9539
2.92121
2.91171
2.90151
2.8793
2.79226
2.65432
3.66058
1.9187
3.10841
2.94919
2.91958
2.91277
2.90722
2.89273
2.82291
2.69887
2.34989
2.21328
1.99314
1.69172
1.31658
0.866417
0.363897
-0.133465
-0.552538
-0.863825
2.33178
2.18612
1.96649
1.67379
1.31554
0.88769
0.40313
-0.0883017
-0.52105
-0.853237
2.34072
2.18152
1.95453
1.66445
1.31499
0.90061
0.429238
-0.0602392
-0.504034
-0.850728
2.37911
2.1999
1.95985
1.66707
1.31867
0.908163
0.441248
-0.0490151
-0.500211
-0.855902
2.44649
2.2368
1.97495
1.67389
1.32254
0.912434
0.447521
-0.0431592
-0.500158
-0.864716
)
;

boundaryField
{
    left
    {
        type            zeroGradient;
    }
    right
    {
        type            fixedValue;
        value           uniform 0;
    }
    down
    {
        type            zeroGradient;
    }
    up
    {
        type            zeroGradient;
    }
    cylinder
    {
        type            zeroGradient;
    }
    defaultFaces
    {
        type            empty;
    }
}


// ************************************************************************* //
