/*--------------------------------*- C++ -*----------------------------------*\
  =========                 |
  \\      /  F ield         | OpenFOAM: The Open Source CFD Toolbox
   \\    /   O peration     | Website:  https://openfoam.org
    \\  /    A nd           | Version:  13
     \\/     M anipulation  |
\*---------------------------------------------------------------------------*/
FoamFile
{
    format      ascii;
    class       surfaceScalarField;
    location    "0.2525";
    object      phi;
}
// * * * * * * * * * * * * * * * * * * * * * * * * * * * * * * * * * * * * * //

dimensions      [0 3 -1 0 0 0 0];

internalField   nonuniform List<scalar> 
3485
(
0.00311676
-0.0256593
0.0225425
0.0106602
-0.0829219
0.0753785
0.0202859
-0.121529
0.111904
0.0304255
-0.139773
0.129633
0.040397
-0.145246
0.135274
0.0500039
-0.144666
0.135059
0.0592121
-0.141782
0.132574
0.067994
-0.138228
0.129446
0.0762857
-0.134513
0.126221
-0.13056
0.122639
0.0842069
0.00334113
-0.0290004
0.0109271
-0.090508
0.0202617
-0.130864
0.0298758
-0.149387
0.0392396
-0.154609
0.0482865
-0.153713
0.0570931
-0.150589
0.0657654
-0.1469
0.0744651
-0.143213
-0.139623
0.083528
0.00354012
-0.0325405
0.0110807
-0.0980485
0.0199816
-0.139765
0.0288792
-0.158285
0.0373757
-0.163106
0.0454821
-0.161819
0.0532958
-0.158402
0.0608945
-0.154499
0.0683218
-0.15064
-0.14689
0.075589
0.00372681
-0.0362673
0.0111578
-0.105479
0.0195495
-0.148157
0.0276838
-0.166419
0.0353224
-0.170744
0.0425778
-0.169074
0.0495959
-0.16542
0.0564729
-0.161376
0.0632716
-0.157439
-0.153754
0.0701353
0.00385226
-0.0401196
0.0110359
-0.112663
0.0187536
-0.155874
0.0259566
-0.173622
0.0325627
-0.177351
0.0387687
-0.17528
0.0447499
-0.171402
0.0506084
-0.167234
0.0564068
-0.163237
-0.159554
0.0622068
0.00391548
-0.0440351
0.0107192
-0.119467
0.0176329
-0.162788
0.0238082
-0.179797
0.0293214
-0.182864
0.0344462
-0.180405
0.0393814
-0.176337
0.0442299
-0.172083
0.0490429
-0.16805
-0.164384
0.0538732
0.0038847
-0.0479198
0.0101439
-0.125726
0.0161002
-0.168744
0.0211258
-0.184823
0.0254484
-0.187186
0.0294029
-0.18436
0.0332012
-0.180135
0.0369426
-0.175824
0.0406729
-0.171781
-0.168127
0.0444155
0.00374994
-0.0516697
0.00930427
-0.13128
0.0141697
-0.17361
0.017957
-0.18861
0.0210318
-0.190261
0.0237708
-0.187099
0.026387
-0.182751
0.0289705
-0.178408
0.0315572
-0.174367
-0.170721
0.0341508
0.00349742
-0.0551671
0.00818798
-0.135971
0.0118422
-0.177264
0.0143235
-0.191092
0.0161075
-0.192045
0.0175964
-0.188588
0.0189961
-0.184151
0.0203856
-0.179797
0.021792
-0.175774
-0.172131
0.023202
0.00313102
-0.0582982
0.00681754
-0.139657
0.00917402
-0.17962
0.010312
-0.19223
0.010784
-0.192517
0.0110092
-0.188813
0.0111745
-0.184316
0.0113485
-0.179971
0.0115605
-0.175986
0.0117933
-0.172364
0.00144263
-0.00352517
0.00208254
0.00773572
-0.0130556
0.00676248
0.0178688
-0.0202175
0.0100844
0.0301069
-0.0240337
0.0117955
0.0431695
-0.025477
0.0124145
0.056357
-0.0256503
0.0124627
0.0693537
-0.02526
0.0122633
0.0820414
-0.024665
0.0119773
0.0943921
-0.024025
0.0116744
-0.0235602
0.106558
0.0113947
0.00150033
-0.00502551
0.00785185
-0.0194071
0.0179977
-0.0303633
0.030202
-0.0362379
0.0431986
-0.0384736
0.0563035
-0.0387553
0.0692116
-0.038168
0.0818113
-0.0372647
0.0940796
-0.0362933
-0.0356477
0.106167
0.00158336
-0.00660887
0.00802233
-0.0258461
0.0181919
-0.0405328
0.0303533
-0.0483994
0.0432612
-0.0513815
0.0562528
-0.0517468
0.0690378
-0.050953
0.0815135
-0.0497404
0.0936638
-0.0484437
-0.04762
0.105636
0.00169728
-0.00830614
0.00825752
-0.0324063
0.0184615
-0.0507368
0.0305671
-0.0605049
0.0433577
-0.0641721
0.0561997
-0.0645888
0.0688229
-0.0635762
0.0811359
-0.0620535
0.0931314
-0.0604391
-0.0594382
0.10495
0.00184646
-0.0101526
0.00856357
-0.0391234
0.0188098
-0.0609831
0.0308407
-0.0725358
0.0434794
-0.0768108
0.0561309
-0.0772404
0.0685513
-0.0759965
0.0806635
-0.0741657
0.0924693
-0.0722449
-0.0710619
0.104093
0.00203236
-0.012185
0.00893775
-0.0460288
0.0192253
-0.0712706
0.0311525
-0.084463
0.0435953
-0.0892536
0.0560092
-0.0896544
0.0681838
-0.0881711
0.0800599
-0.0860418
0.0916469
-0.0838319
-0.0824467
0.103032
0.00225145
-0.0144364
0.00936347
-0.0531408
0.019674
-0.0815811
0.0314503
-0.0962393
0.0436367
-0.10144
0.0557526
-0.10177
0.0676296
-0.100048
0.0792316
-0.0976438
0.0905719
-0.0951723
-0.0935287
0.101654
0.00248834
-0.0169247
0.00979481
-0.0604473
0.0200759
-0.0918623
0.0316215
-0.107785
0.0434598
-0.113278
0.0551853
-0.113496
0.066679
-0.111542
0.0779306
-0.108895
0.0889485
-0.10619
-0.104152
0.0995722
0.00271077
-0.0196355
0.0101485
-0.067885
0.0202942
-0.102008
0.0314745
-0.118965
0.0428128
-0.124617
0.0539843
-0.124667
0.0649195
-0.122477
0.0756304
-0.119606
0.0861039
-0.116664
-0.113966
0.095918
0.00290699
0.0104005
0.0202961
0.0309645
0.0416219
0.0520137
0.0621105
0.07195
0.0815079
0.0901805
0.156314
-0.141324
0.0915674
0.181856
-0.10162
0.0760787
0.194658
-0.0756579
0.0628556
0.200818
-0.0570326
0.0508728
0.203495
-0.0428856
0.0402084
0.20423
-0.0317181
0.0309837
0.203829
-0.0227373
0.0231378
0.202731
-0.0153464
0.0164442
0.201194
-0.00940894
0.0109466
-0.00242852
0.004371
0.155309
-0.190466
0.18089
-0.127201
0.193935
-0.088703
0.200339
-0.0634364
0.203213
-0.0457603
0.204108
-0.032613
0.203845
-0.022474
0.202872
-0.0143738
0.201455
-0.00799151
-0.000609663
0.153566
-0.238396
0.179055
-0.15269
0.192374
-0.102022
0.199115
-0.0701773
0.2023
-0.0489451
0.203478
-0.033791
0.203479
-0.0224756
0.202763
-0.0136574
0.201598
-0.00682726
0.000950472
0.15104
-0.284487
0.176337
-0.177987
0.189972
-0.115657
0.197148
-0.0773529
0.200757
-0.0525546
0.20234
-0.035374
0.202733
-0.0228685
0.202402
-0.0133265
0.201623
-0.00604774
0.00211768
0.147703
-0.328097
0.172725
-0.203009
0.186732
-0.129664
0.194443
-0.0850639
0.198593
-0.0567044
0.200702
-0.0374832
0.201611
-0.0237774
0.201793
-0.0135082
0.201527
-0.0057823
0.00275946
0.143515
-0.36858
0.168206
-0.227701
0.182659
-0.144116
0.19101
-0.0934152
0.195817
-0.0615113
0.198572
-0.0402384
0.200119
-0.0253239
0.200937
-0.0143264
0.201312
-0.00615728
0.00274579
0.138383
-0.405309
0.162731
-0.252049
0.177748
-0.159133
0.186859
-0.102525
0.192442
-0.0670952
0.195962
-0.043758
0.198265
-0.0276266
0.199839
-0.0159011
0.200977
-0.0072952
0.00195006
0.132222
-0.437958
0.156162
-0.27599
0.171945
-0.174916
0.18198
-0.112561
0.188476
-0.0735914
0.192882
-0.0481637
0.196058
-0.0308027
0.198506
-0.0183485
0.200525
-0.00931428
0.000249759
0.124835
-0.466875
0.148257
-0.299411
0.165051
-0.19171
0.17628
-0.12379
0.183887
-0.0811983
0.189328
-0.0536049
0.193504
-0.0349781
0.19694
-0.0217851
0.199955
-0.0123294
-0.00247316
0.117258
-0.493953
0.140074
-0.322228
0.157681
-0.209317
0.170023
-0.136133
0.178783
-0.0899583
0.185349
-0.0601708
0.190625
-0.0402534
0.195154
-0.0263147
0.199272
-0.0164473
-0.00633172
0.369019
-0.437482
-0.425489
0.339995
-0.293204
0.325778
-0.1951
0.319278
-0.129633
0.31593
-0.08661
0.313902
-0.0581426
0.312536
-0.0388879
0.311602
-0.0253805
0.310985
-0.0158306
-0.00608113
0.38181
-0.373387
-0.445906
0.350338
-0.261731
0.333989
-0.178751
0.325173
-0.120816
0.319983
-0.0814201
0.316678
-0.0548377
0.314481
-0.0366912
0.313025
-0.0239246
0.312099
-0.0149049
-0.00571917
0.39625
-0.312296
-0.45734
0.362046
-0.227527
0.342371
-0.159076
0.330885
-0.109331
0.323843
-0.0743777
0.319313
-0.0503083
0.316326
-0.0337041
0.314374
-0.0219726
0.313151
-0.0136819
-0.00524743
0.405988
-0.255261
-0.463024
0.370944
-0.192483
0.349337
-0.137468
0.335887
-0.0958808
0.327317
-0.0658079
0.321719
-0.0447103
0.318021
-0.0300059
0.315615
-0.0195668
0.314116
-0.0121832
-0.0046723
0.413013
-0.202659
-0.465614
0.378002
-0.157473
0.355117
-0.114583
0.340168
-0.0809322
0.330351
-0.0559909
0.323845
-0.0382039
0.319527
-0.0256883
0.31672
-0.0167601
0.314975
-0.0104376
-0.00400334
0.417948
-0.154244
-0.466363
0.383443
-0.122967
0.359755
-0.0908957
0.343701
-0.0648777
0.332901
-0.0451909
0.325651
-0.0309539
0.320814
-0.0208518
0.317667
-0.0136128
0.315709
-0.00847948
-0.00325248
0.42129
-0.10937
-0.466164
0.387464
-0.0891407
0.363306
-0.0667386
0.34647
-0.0480408
0.33493
-0.0336511
0.327101
-0.0231251
0.321853
-0.0156034
0.318432
-0.010192
0.3163
-0.00634803
-0.00243359
0.423165
-0.0669134
-0.465622
0.389983
-0.0559586
0.365618
-0.0423733
0.348298
-0.0307215
0.336265
-0.0216177
0.328035
-0.0148953
0.322496
-0.0100638
0.318879
-0.0065759
0.316622
-0.00409055
-0.00156444
0.419173
-0.0242436
-0.461843
0.386716
-0.0235021
0.362763
-0.0184195
0.345572
-0.0135308
0.333528
-0.00957377
0.325248
-0.00661477
0.319659
-0.00447559
0.316011
-0.00292756
0.313735
-0.00181478
-0.00068771
0.338485
-0.362728
0.314983
0.296563
0.283032
0.273459
0.266844
0.262368
0.259441
0.257626
0.457565
0.0105138
-0.456285
0.458021
0.0227459
0.457629
0.0345426
0.456345
0.0456992
0.453874
0.0563449
0.450788
0.0652925
0.44511
0.0758127
0.441018
0.0796813
0.429845
0.094701
0.0885626
0.439062
0.00942516
-0.437974
0.440329
0.021479
0.441673
0.0331987
0.443099
0.0442737
0.44428
0.0551638
0.445675
0.0638975
0.446151
0.0753371
0.447191
0.0786412
0.448139
0.0937527
0.0907961
0.423627
0.00815387
-0.422356
0.425583
0.0195227
0.428151
0.0306305
0.431313
0.0411124
0.434955
0.0515216
0.439011
0.0598418
0.443644
0.0707036
0.447788
0.0744976
0.45369
0.0878503
0.0871457
0.411661
0.00683039
-0.410337
0.414013
0.0171703
0.417356
0.0272877
0.421622
0.0368463
0.42684
0.046303
0.432649
0.054033
0.439746
0.0636067
0.446426
0.0678175
0.455416
0.0788603
0.079538
0.402295
0.0054674
-0.400932
0.404933
0.0145325
0.408813
0.0234074
0.413851
0.0318091
0.420114
0.0400393
0.427206
0.0469412
0.435842
0.0549711
0.444502
0.0591572
0.455423
0.0679389
0.0693468
0.395176
0.00406241
-0.393771
0.398018
0.0116903
0.40227
0.0191556
0.407845
0.026234
0.414796
0.033088
0.422791
0.0389469
0.432374
0.0453879
0.442377
0.0491535
0.454445
0.0558718
0.0574283
0.389956
0.00260315
-0.388497
0.392962
0.00868423
0.397488
0.0146297
0.403451
0.0202716
0.410861
0.0256772
0.419461
0.0303473
0.429608
0.0352408
0.440474
0.0382874
0.453199
0.0431465
0.0444637
0.385758
0.00099552
-0.384151
0.388986
0.00545612
0.393824
0.00979236
0.400181
0.0139148
0.408014
0.0178438
0.417106
0.0212554
0.42763
0.0247168
0.439032
0.0268851
0.452084
0.0300942
0.0309262
0.373196
-0.000580593
-0.37162
0.376863
0.00178946
0.382398
0.00425731
0.389702
0.00661087
0.398659
0.00888621
0.408999
0.010916
0.420753
0.0129629
0.433354
0.0142833
0.447294
0.0161551
0.016377
0.27049
-0.271071
0.27228
0.276537
0.283148
0.292034
0.30295
0.315913
0.330196
0.346351
0.0783489
0.12559
-0.114123
-0.0898163
0.0678543
0.127897
-0.117402
0.0580324
0.130761
-0.120939
0.0484925
0.134314
-0.124774
0.0389396
0.138267
-0.128715
0.0292558
0.142258
-0.132574
0.0195492
0.144925
-0.135218
0.0103761
0.141316
-0.132143
0.00311594
0.119025
-0.111764
0.0584559
-0.0553399
0.0773534
0.135595
-0.0873579
0.0671996
0.138051
0.0571776
0.140783
0.0473673
0.144124
0.0376764
0.147958
0.0280311
0.151903
0.0185312
0.154425
0.00970508
0.150142
0.00284948
0.12588
0.0613053
0.0705256
0.144095
-0.0790263
0.0616125
0.146964
0.0525517
0.149844
0.0434782
0.153198
0.0344135
0.157023
0.0253676
0.160949
0.0165006
0.163292
0.00838766
0.158255
0.00229942
0.131968
0.0636048
0.0603667
0.151143
-0.0674139
0.0529782
0.154352
0.0453064
0.157516
0.0374374
0.161067
0.0294348
0.165026
0.021377
0.169007
0.0135036
0.171165
0.00646418
0.165295
0.00150592
0.136927
0.0651107
0.0496213
0.157007
-0.0554855
0.0435332
0.16044
0.0371581
0.163891
0.0305276
0.167697
0.0237011
0.171852
0.0167895
0.175919
0.0100943
0.177861
0.00432505
0.171064
0.000638025
0.140614
0.0657487
0.0393518
0.161942
-0.0442868
0.0342856
0.165507
0.0289988
0.169177
0.023494
0.173202
0.0178147
0.177532
0.012081
0.181652
0.00662162
0.18332
0.00220665
0.175479
-0.000193868
0.143014
0.0655548
0.0293861
0.166018
-0.0334621
0.0252455
0.169647
0.0209582
0.173465
0.0165173
0.177643
0.0119565
0.182092
0.00740159
0.186207
0.00321906
0.187503
-1.33549e-05
0.178711
-0.000901037
0.143902
0.0646538
0.0193661
0.169148
-0.0224959
0.0162043
0.172809
0.0129411
0.176728
0.00957379
0.181011
0.00613603
0.18553
0.00276088
0.189582
-0.000209707
0.190473
-0.00178793
0.18029
-0.00154708
0.143661
0.0631067
0.00917928
0.171247
-0.0112784
0.00706774
0.17492
0.00489259
0.178903
0.00266399
0.183239
0.000418982
0.187775
-0.00169039
0.191692
-0.00321579
0.191999
-0.00356088
0.180635
-0.00213917
0.142239
0.0609676
-0.000960704
-0.000155794
-0.0020258
-0.00309402
-0.00417124
-0.00520895
-0.00603429
-0.00626542
-0.00525123
-0.0026694
0.106189
0.0228976
-0.117527
-0.0115601
0.0945021
0.0235067
-0.0118194
0.0824683
0.0241298
-0.012096
0.0700719
0.0247895
-0.012393
0.0572969
0.0254908
-0.0127158
0.0441352
0.0262207
-0.013059
0.0306646
0.026824
-0.0133535
0.0173697
0.0265492
-0.0132542
0.0059013
0.0231386
-0.0116702
0.0122221
-0.00632084
0.105309
0.0341992
-0.116611
0.0936743
0.0351414
0.0817057
0.0360984
0.0693868
0.0371083
0.0567015
0.0381761
0.0436416
0.0392806
0.0302869
0.0401788
0.0171244
0.0397116
0.00579965
0.0344633
0.0180218
0.104041
0.0454438
-0.115286
0.0924918
0.0466906
0.080624
0.0479662
0.0684211
0.0493113
0.0558663
0.0507309
0.0429522
0.0521947
0.0297617
0.0533693
0.0167856
0.0526876
0.00565745
0.0455915
0.0236792
0.102306
0.0566002
-0.113462
0.0908806
0.0581161
0.0791562
0.0596906
0.0671154
0.0613521
0.0547409
0.0631054
0.0420258
0.0649098
0.0290578
0.0663373
0.0163345
0.0654109
0.00546785
0.0564582
0.0291471
0.0999944
0.0676346
-0.111029
0.0887435
0.0693669
0.0772224
0.0712118
0.0654087
0.0731658
0.0532809
0.0752331
0.0408312
0.0773595
0.0281535
0.079015
0.0157577
0.0778067
0.00524211
0.0669738
0.0343892
0.0969433
0.0784884
-0.107797
0.0859346
0.0803756
0.0746869
0.0824595
0.0631748
0.0846779
0.051374
0.0870339
0.0392755
0.089458
0.0269785
0.091312
0.015003
0.0897822
0.00492918
0.0770476
0.0393184
0.0931386
0.0890083
-0.103658
0.0825526
0.0909617
0.0717451
0.0932669
0.0606628
0.0957601
0.0492751
0.0984216
0.0375827
0.10115
0.0257062
0.103188
0.0141914
0.101297
0.00460107
0.086638
0.0439194
0.0873569
0.0990081
-0.0973566
0.0773522
0.100966
0.0671917
0.103427
0.0567995
0.106152
0.0461131
0.109108
0.0351117
0.112152
0.0239153
0.114385
0.013083
0.112129
0.00415486
0.0955661
0.0480743
0.083811
0.107893
-0.0926963
0.0746669
0.11011
0.0649776
0.113117
0.0548443
0.116286
0.0443671
0.119585
0.0336132
0.122906
0.022743
0.125255
0.0123287
0.122544
0.00386169
0.104033
0.051936
0.0730988
-0.0793282
0.0658069
0.0579845
0.049496
0.0403667
0.030698
0.0207346
0.0111352
0.00340396
0.201506
0.0136564
-0.0171725
0.204039
0.0252975
-0.0278309
0.204266
0.0309924
-0.0312189
0.205175
0.0328969
-0.0338057
0.204644
0.0389912
-0.038461
0.202336
0.0475687
-0.0452607
0.196789
0.0595884
-0.0540409
0.186068
0.0757496
-0.0650286
0.162077
0.101252
-0.077261
0.136994
-0.0924433
0.201282
0.0103637
0.203682
0.0228978
0.203853
0.0308216
0.204691
0.0320586
0.204059
0.0396238
0.201599
0.0500283
0.195862
0.0653254
0.184833
0.086779
0.160732
0.125352
0.181115
0.200933
0.00742016
0.203046
0.0207854
0.203065
0.0308026
0.203698
0.0314253
0.202829
0.0404928
0.200093
0.0527645
0.194065
0.0713529
0.182625
0.0982194
0.158365
0.149611
0.224195
0.200454
0.00495635
0.202134
0.0191052
0.201912
0.0310243
0.202206
0.0311315
0.200968
0.0417309
0.19783
0.0559028
0.191396
0.077786
0.179436
0.11018
0.154968
0.174079
0.265701
0.199837
0.00310955
0.200952
0.0179902
0.200409
0.0315669
0.200228
0.0313129
0.19849
0.0434684
0.194824
0.0595692
0.187854
0.0847557
0.175266
0.122768
0.150873
0.198473
0.305545
0.199074
0.00202486
0.199506
0.0175587
0.198572
0.0325007
0.197778
0.0321075
0.195415
0.0458313
0.191092
0.0638916
0.183434
0.0924136
0.170108
0.136095
0.14637
0.22221
0.344118
0.198158
0.00185618
0.197806
0.0179107
0.196421
0.0338864
0.194872
0.0336565
0.191764
0.0489395
0.186655
0.0690005
0.178167
0.100901
0.163911
0.150351
0.1414
0.244721
0.381859
0.19708
0.00276629
0.195866
0.0191241
0.193976
0.0357764
0.191528
0.0361043
0.187564
0.0529036
0.181539
0.0750261
0.172123
0.110317
0.156708
0.165766
0.13544
0.265989
0.419943
0.195839
0.00491755
0.193712
0.0212503
0.191262
0.0382265
0.187766
0.0396001
0.182843
0.0578266
0.175788
0.0820811
0.165444
0.120661
0.14948
0.18173
0.129914
0.285556
0.45716
0.194556
0.00835145
0.191373
0.0244336
0.188334
0.0412654
0.183566
0.0443675
0.177682
0.0637106
0.169472
0.0902911
0.157559
0.132575
0.139897
0.199391
0.119367
0.306086
0.497199
0.303184
0.00717717
0.305586
0.0220322
0.309318
0.037533
0.311053
0.042633
0.313527
0.0612368
0.316401
0.0874169
0.321159
0.127817
0.330995
0.189555
0.356794
0.280287
0.437732
0.416261
0.303968
0.00521926
0.306719
0.0192812
0.310837
0.0334148
0.313523
0.0399467
0.317297
0.0574634
0.32236
0.0823539
0.330506
0.11967
0.345184
0.174877
0.37539
0.250082
0.37848
0.434642
0.304716
0.00251378
0.307991
0.0160054
0.312367
0.0290397
0.315948
0.0363652
0.320861
0.0525504
0.327752
0.075463
0.33857
0.108852
0.356448
0.156999
0.389212
0.217318
0.319591
0.448101
0.305476
-0.000952133
0.309265
0.0122164
0.313878
0.0244272
0.318217
0.0320259
0.324151
0.0466164
0.33259
0.0670239
0.345484
0.0959586
0.365679
0.136804
0.399269
0.183727
0.263161
0.455699
0.306285
-0.00522657
0.31055
0.00795089
0.315332
0.0196453
0.320278
0.0270802
0.327082
0.0398118
0.33679
0.057316
0.351251
0.0814978
0.373071
0.114984
0.406348
0.15045
0.210152
0.459356
0.307211
-0.0104278
0.311878
0.00328445
0.316703
0.0148206
0.322087
0.0216957
0.329597
0.0323023
0.340305
0.0466074
0.355915
0.065888
0.378788
0.092111
0.41124
0.117999
0.16077
0.460622
0.308304
-0.0167219
0.313277
-0.00168858
0.317961
0.0101373
0.323603
0.0160531
0.331649
0.024256
0.343108
0.0351483
0.359531
0.0494651
0.383019
0.0686231
0.414534
0.0864846
0.11468
0.460623
0.309621
-0.0243326
0.314739
-0.00680634
0.318996
0.00588045
0.324698
0.010351
0.333123
0.0158311
0.34511
0.0231613
0.362088
0.0324865
0.385891
0.0448199
0.416582
0.0557942
0.0713712
0.459891
0.308931
-0.0312529
0.313215
-0.0110904
0.316882
0.00221318
0.322579
0.00465366
0.33123
0.00718054
0.343559
0.0108322
0.360911
0.0151341
0.384837
0.0208943
0.415076
0.0255553
0.0318443
0.454603
0.270757
0.259667
0.26188
0.266534
0.273714
0.284546
0.299681
0.320575
0.34613
0.377974
0.430222
-0.103778
0.43432
-0.091456
0.436621
-0.0813271
0.439238
-0.0700307
0.442432
-0.0586793
0.445859
-0.0477139
0.449185
-0.0367886
0.452123
-0.0254335
0.454557
-0.0137121
-0.00188435
0.43515
-0.104285
0.435086
-0.0913925
0.434212
-0.0804527
0.434042
-0.0698606
0.434455
-0.0590926
0.435032
-0.0482912
0.435608
-0.037364
0.436282
-0.0261075
0.437092
-0.014522
-0.00276654
0.441821
-0.098006
0.43707
-0.0866412
0.432699
-0.0760815
0.428991
-0.0661526
0.426173
-0.0562742
0.424103
-0.0462216
0.422695
-0.0359557
0.421957
-0.0253697
0.421863
-0.0144282
-0.00325904
0.445375
-0.0876816
0.436999
-0.078266
0.429872
-0.0689541
0.423845
-0.0601257
0.418997
-0.0514263
0.415261
-0.0424855
0.412536
-0.0332306
0.410795
-0.0236289
0.410051
-0.0136839
-0.00354521
0.446771
-0.0750965
0.436115
-0.0676098
0.427081
-0.0599204
0.419444
-0.0524883
0.413155
-0.0451375
0.408184
-0.0375147
0.404485
-0.0295308
0.402041
-0.0211852
0.400865
-0.0125075
-0.00361294
0.446782
-0.0612563
0.434737
-0.055565
0.424418
-0.0496018
0.415669
-0.0437395
0.408405
-0.0378728
0.4026
-0.0317102
0.398238
-0.0251683
0.395311
-0.018259
0.393825
-0.0110213
-0.00355849
0.446069
-0.046702
0.433188
-0.0426845
0.422055
-0.0384687
0.412587
-0.0342715
0.40469
-0.0299752
0.398339
-0.0253598
0.393536
-0.020365
0.390287
-0.0150102
0.388609
-0.00934286
-0.00344687
0.444839
-0.0316502
0.431386
-0.0292311
0.419729
-0.0268117
0.409783
-0.0243261
0.401446
-0.0216384
0.394704
-0.0186176
0.389575
-0.0152352
0.386084
-0.0115195
0.384264
-0.00752344
-0.00333321
0.438385
-0.0154325
0.424117
-0.0149631
0.411697
-0.0143916
0.400954
-0.0135826
0.391792
-0.0124765
0.384227
-0.0110536
0.378337
-0.00934481
0.37422
-0.00740202
0.371967
-0.00527079
-0.00298614
0.362542
0.347579
0.333187
0.319605
0.307128
0.296075
0.28673
0.279328
0.274057
0.00819283
0.0717692
-0.079962
0.0160767
0.174591
-0.182475
0.019465
0.224097
-0.227486
0.0195857
0.239631
-0.239751
0.018205
0.240775
-0.239394
0.0163552
0.237664
-0.235814
0.0144228
0.233851
-0.231919
0.0125142
0.229853
-0.227945
0.0107112
0.224234
-0.222431
0.212209
0.0092088
-0.210706
0.00979888
0.0619703
0.0216958
0.162694
0.0296271
0.216166
0.0339928
0.235265
0.0365739
0.238193
0.0386214
0.235616
0.0406535
0.231819
0.0426892
0.227818
0.0442386
0.222684
0.212555
0.0438924
0.0103946
0.0515756
0.0253009
0.147788
0.0373811
0.204086
0.0459839
0.226662
0.0525945
0.231583
0.0585546
0.229656
0.0645449
0.225829
0.0706567
0.221706
0.0762306
0.21711
0.209885
0.0789
0.00995483
0.0416208
0.0264324
0.131311
0.041697
0.188821
0.0540597
0.214299
0.0644277
0.221215
0.074023
0.220061
0.0836222
0.21623
0.0934876
0.21184
0.10326
0.207338
0.202079
0.111067
0.00870798
0.0329128
0.0251858
0.114833
0.0422798
0.171727
0.0574916
0.199088
0.0709988
0.207708
0.0836874
0.207372
0.0962849
0.203632
0.109167
0.198959
0.122329
0.194176
0.189264
0.135144
0.00701135
0.0259015
0.0221788
0.0996652
0.0396522
0.154254
0.0565127
0.182227
0.0722251
0.191995
0.0871973
0.1924
0.101956
0.188874
0.11686
0.184054
0.132085
0.17895
0.173487
0.147861
0.00525694
0.0206445
0.0183918
0.0865303
0.0351047
0.137541
0.0524489
0.164883
0.0693389
0.175105
0.0856893
0.17605
0.101736
0.172827
0.117723
0.168067
0.133788
0.162886
0.156916
0.150359
0.00374274
0.0169018
0.0147393
0.0755338
0.03006
0.12222
0.0469749
0.147968
0.0640601
0.15802
0.0808219
0.159288
0.0972009
0.156448
0.113273
0.151995
0.129164
0.146995
0.141153
0.144927
0.00265435
0.0142474
0.0118936
0.0662946
0.0257668
0.108347
0.041849
0.131886
0.0585855
0.141284
0.0752433
0.14263
0.0915733
0.140118
0.107561
0.136008
0.123316
0.13124
0.125063
0.139406
0.00197486
0.0122726
0.00996969
0.0582998
0.0225942
0.0957227
0.0376755
0.116804
0.0536253
0.125334
0.0695539
0.126701
0.0850231
0.124648
0.0998136
0.121217
0.113687
0.117367
0.112339
0.126411
0.00164094
0.0106316
0.00890594
0.0510348
0.0206729
0.0839557
0.0349589
0.102518
0.0502401
0.110053
0.065638
0.111303
0.0807368
0.10955
0.095392
0.106562
0.109573
0.103186
0.100112
0.121799
0.00151668
0.00911496
0.0084052
0.0441462
0.0196435
0.0727174
0.0333624
0.0887995
0.0481088
0.0953062
0.0630351
0.0963771
0.0777273
0.0948575
0.0920151
0.0922744
0.105854
0.0893471
0.0873776
0.118589
0.00146015
0.00765481
0.00812125
0.0374851
0.0189867
0.061852
0.032242
0.0755442
0.046482
0.0810662
0.0608887
0.0819705
0.0750594
0.0806868
0.0888222
0.0785117
0.102117
0.0760523
0.0746524
0.114842
0.00142272
0.00623209
0.00792506
0.0309828
0.0185182
0.0512588
0.0314152
0.0626472
0.0452458
0.0672356
0.0592212
0.0679951
0.0729567
0.0669513
0.0862868
0.0651815
0.0991495
0.0631897
0.0621472
0.111655
0.00139811
0.00483398
0.00779207
0.0245888
0.0182002
0.0408507
0.0308516
0.0499958
0.0444006
0.0536866
0.0580828
0.0543129
0.0715311
0.0535031
0.0845914
0.0521211
0.0972106
0.0505705
0.0498026
0.109555
0.00138213
0.00345185
0.00770346
0.0182675
0.0179909
0.0305633
0.0304849
0.0375017
0.0438563
0.0403151
0.0573587
0.0408105
0.0706397
0.040222
0.0835563
0.0392046
0.096064
0.0380628
0.0375318
0.108335
0.00137341
0.00207843
0.0076484
0.0119925
0.0178594
0.0203523
0.0302559
0.0251053
0.0435204
0.0270506
0.0569187
0.0274122
0.0701084
0.0270323
0.0829541
0.0263589
0.0954166
0.0256002
0.0252868
0.107662
0.00137313
0.000705304
0.00762372
0.00574193
0.017789
0.0101871
0.0301254
0.0127689
0.0433247
0.0138513
0.0566612
0.0140757
0.0697995
0.013894
0.082609
0.0135494
0.0950535
0.0131557
0.0130479
0.107292
0.00138278
-0.000677472
0.00762908
-0.000504378
0.0177697
4.64922e-05
0.0300666
0.000471969
0.0432202
0.000697719
0.056512
0.000783879
0.0696121
0.000793908
0.0823939
0.000767652
0.0948231
0.000726459
0.000817145
0.107054
0.00140507
0.00766317
0.0177941
0.0300615
0.0431737
0.0564203
0.0694776
0.0822225
0.0946234
0.106835
0.138256
0.272878
-0.289335
0.15029
0.118275
-0.130309
0.159756
0.0405679
-0.0500335
0.167067
0.00564708
-0.0129585
0.173204
-0.00806013
0.00192294
0.17867
-0.0121607
0.00669451
0.183688
-0.0121742
0.00715682
0.188349
-0.0105723
0.00591077
0.192703
-0.00854409
0.00419071
-0.00563123
0.00169778
0.141235
0.250232
0.156395
0.103115
0.16639
0.0305729
0.173408
-0.0013707
0.178757
-0.0134092
0.183252
-0.0166559
0.187204
-0.0161266
0.190753
-0.0141209
0.193977
-0.0117679
-0.00844279
0.144099
0.220975
0.161771
0.0854427
0.172273
0.0200705
0.178997
-0.00809391
0.183752
-0.0181645
0.18741
-0.0203146
0.190415
-0.0191314
0.192963
-0.0166685
0.195167
-0.0139723
-0.0102395
0.146897
0.185733
0.166586
0.0657536
0.177554
0.00910257
0.184051
-0.0145906
0.18823
-0.0223437
0.191145
-0.0232299
0.19331
-0.021296
0.19497
-0.0183288
0.19627
-0.0152724
-0.0111337
0.149648
0.14564
0.170855
0.0445466
0.182189
-0.002232
0.188483
-0.0208846
0.192172
-0.0260323
0.194443
-0.0255008
0.195878
-0.0227315
0.196768
-0.0192186
0.197282
-0.0157863
-0.0112424
0.15203
0.101945
0.174509
0.0220673
0.186151
-0.0138735
0.192276
-0.0270093
0.195556
-0.0293123
0.197286
-0.027231
0.198108
-0.0235534
0.198348
-0.0194585
0.198197
-0.0156361
-0.0106867
0.153973
0.0556335
0.177497
-0.00145634
0.189401
-0.0257774
0.1954
-0.0330091
0.198361
-0.0322725
0.199659
-0.0285294
0.199987
-0.023881
0.199701
-0.0191728
0.199012
-0.0149474
-0.00959199
0.155424
0.00750168
0.179763
-0.0257948
0.191903
-0.0379178
0.197834
-0.0389399
0.200569
-0.0350078
0.201549
-0.0295095
0.201505
-0.0238372
0.200821
-0.0184887
0.199723
-0.0138487
-0.00808664
0.156323
-0.0417674
0.181268
-0.0507395
0.193628
-0.050278
0.199557
-0.0448693
0.202168
-0.0376184
0.202946
-0.0302878
0.202656
-0.0235471
0.201703
-0.0175356
0.200325
-0.012471
-0.0063019
0.156635
0.181974
0.194552
0.200556
0.203146
0.203841
0.203432
0.202341
0.200816
0.144461
0.0125415
-0.157003
0.134741
0.00972025
0.129879
0.00486176
0.128568
0.00131107
0.129004
-0.000435351
0.130015
-0.00101142
0.131043
-0.00102747
0.131874
-0.000831074
0.132445
-0.000571465
-0.000222089
0.2347
0.080777
-0.302935
0.204407
0.0400131
0.192629
0.0166393
0.189228
0.00471241
0.189251
-0.000458488
0.190462
-0.0022223
0.191867
-0.00243241
0.193057
-0.00202146
0.19391
-0.00142372
-0.000568336
0.245177
0.157174
-0.321574
0.212352
0.0728384
0.199844
0.0291464
0.196311
0.00824589
0.196383
-0.000530967
0.197673
-0.00351159
0.199157
-0.00391718
0.200415
-0.00327853
0.20132
-0.00232951
-0.000939552
0.240358
0.227252
-0.310435
0.21028
0.102916
0.199123
0.0403036
0.196302
0.0110668
0.196721
-0.000950244
0.198197
-0.00498754
0.199765
-0.00548457
0.20106
-0.00457384
0.201983
-0.00325253
-0.00131651
0.234498
-0.296581
0.207105
0.197375
0.195484
0.196456
0.198163
0.199836
0.201172
0.202111
0.0154872
8.35691e-05
-0.0155708
0.0173377
-0.00185049
0.0211054
-0.00376775
0.0271707
-0.00606527
0.0365651
-0.00939436
0.0500957
-0.0135307
0.0703531
-0.0202574
0.0942225
-0.0238693
0.126468
-0.0322453
-0.0305352
0.043682
-0.000484071
-0.0431144
0.0498103
-0.00797875
0.0619856
-0.0159431
0.0812327
-0.0253123
0.108333
-0.0364948
0.142868
-0.0480658
0.183716
-0.0611048
0.22491
-0.0650642
0.267905
-0.0752398
-0.0655654
0.0673944
-0.00219313
-0.0656854
0.0772463
-0.0178306
0.0957986
-0.0344953
0.123331
-0.0528444
0.158387
-0.0715511
0.197625
-0.0873038
0.23588
-0.0993599
0.26947
-0.0986541
0.298864
-0.104633
-0.0882759
0.0855768
-0.00514198
-0.082628
0.0979226
-0.0301764
0.119741
-0.0563134
0.149576
-0.0826803
0.183611
-0.105585
0.217145
-0.120838
0.245561
-0.127776
0.270727
-0.12382
0.291813
-0.12572
-0.106898
0.0984206
-0.0943538
0.112137
0.134723
0.163109
0.192669
0.219691
0.242274
0.263382
0.277068
0.0952922
-0.0896252
0.0979324
-0.103599
0.0862911
-0.0920812
0.101082
0.0768744
-0.095405
0.104822
0.0666036
-0.0988305
0.109101
0.0553604
-0.10227
0.113513
0.0431998
-0.105688
0.117849
0.0303204
-0.108419
0.121298
0.0173229
-0.107168
0.120165
0.0059416
-0.0924757
0.103857
-0.0474957
0.0534373
0.105101
-0.0793376
-0.115389
0.0944491
-0.0814292
0.082962
-0.0839179
0.07074
-0.0866084
0.0579455
-0.0894756
0.0446888
-0.0924314
0.0310999
-0.0948299
0.017675
-0.0937427
0.0060549
-0.0808556
-0.0414408
0.103828
-0.0680585
-0.115107
0.0924217
-0.0700232
0.080746
-0.0722422
0.0687452
-0.0746076
0.056354
-0.0770843
0.0435244
-0.0796018
0.0303139
-0.0816194
0.0172036
-0.0806323
0.00584905
-0.069501
-0.0355918
0.105789
-0.056682
-0.117166
0.0942481
-0.0584823
0.0823762
-0.0603703
0.0701129
-0.0623444
0.0574211
-0.0643925
0.0442912
-0.066472
0.0308113
-0.0681395
0.0174803
-0.0673013
0.00595859
-0.0579793
-0.0296332
0.106511
-0.0452809
-0.117912
0.0948299
-0.0468007
0.0828
-0.0483403
0.0703978
-0.0499422
0.0576032
-0.0515978
0.044405
-0.0532738
0.0308796
-0.0546142
0.0175103
-0.053932
0.00595049
-0.0464195
-0.0236827
0.106963
-0.0338996
-0.118344
0.0952532
-0.0350911
0.0831832
-0.0362703
0.0707332
-0.0374923
0.0578849
-0.0387495
0.0446287
-0.0400177
0.0310418
-0.0410273
0.0176084
-0.0404985
0.00599219
-0.0348033
-0.0176905
0.107202
-0.0225263
-0.118575
0.0954732
-0.0233627
0.0833778
-0.0241748
0.0708985
-0.025013
0.0580199
-0.0258709
0.0447341
-0.0267318
0.0311179
-0.0274111
0.0176552
-0.0270358
0.00601439
-0.0231626
-0.0116761
0.10726
-0.0111557
-0.118631
0.0955214
-0.0116241
0.0834163
-0.0120698
0.0709288
-0.0125255
0.0580436
-0.0129857
0.0447529
-0.0134411
0.0311333
-0.0137915
0.017668
-0.0135705
0.00602173
-0.0115163
-0.0056544
0.107117
0.000186155
-0.118459
0.0953825
0.000110287
0.0832866
2.61297e-05
0.0708098
-4.86894e-05
0.0579391
-0.000114998
0.0446665
-0.000168556
0.0310685
-0.0001935
0.0176273
-0.000129235
0.00600753
0.000103485
0.000353124
0.106744
-0.118118
0.0950348
0.0829649
0.0705232
0.0576924
0.0444648
0.0309179
0.0175344
0.00596772
0.022085
-0.207881
-0.0249105
0.0171596
-0.217505
0.011617
-0.222402
0.00600945
-0.226311
0.000535489
-0.23034
-0.00453779
-0.234321
-0.00837955
-0.235909
-0.00931835
-0.226547
-0.00584567
-0.185948
-0.0858077
0.0526358
-0.202188
-0.0583285
0.0443536
-0.209223
0.0354685
-0.213517
0.0266253
-0.217468
0.0179863
-0.221701
0.00970767
-0.226042
0.00232939
-0.228531
-0.00266316
-0.221554
-0.00316105
-0.18545
-0.0889687
0.0785895