/*--------------------------------*- C++ -*----------------------------------*\
  =========                 |
  \\      /  F ield         | OpenFOAM: The Open Source CFD Toolbox
   \\    /   O peration     | Website:  https://openfoam.org
    \\  /    A nd           | Version:  13
     \\/     M anipulation  |
\*---------------------------------------------------------------------------*/
FoamFile
{
    format      ascii;
    class       surfaceScalarField;
    location    "0.87";
    object      phi;
}
// * * * * * * * * * * * * * * * * * * * * * * * * * * * * * * * * * * * * * //

dimensions      [0 3 -1 0 0 0 0];

internalField   nonuniform List<scalar> 
3485
(
0.00137167
-0.011258
0.00988629
0.00505116
-0.0319067
0.0282272
0.0107642
-0.0513829
0.0456698
0.0183125
-0.0696769
0.0621286
0.0275453
-0.0868351
0.0776023
0.0383482
-0.102901
0.0920983
0.0506328
-0.117906
0.105622
0.0643559
-0.131871
0.118148
0.0796148
-0.144862
0.129603
-0.156896
0.139505
0.0970057
0.00150034
-0.0127583
0.00544582
-0.0358522
0.0114762
-0.0574132
0.0193235
-0.0775242
0.0287727
-0.0962843
0.0396465
-0.113775
0.0518006
-0.130061
0.065127
-0.145198
0.0795343
-0.159269
-0.172198
0.0948363
0.00147418
-0.0142325
0.00532699
-0.039705
0.0111745
-0.0632607
0.0187208
-0.0850706
0.0277252
-0.105289
0.0379883
-0.124038
0.0493441
-0.141416
0.061653
-0.157507
0.074783
-0.172399
-0.186037
0.0886226
0.00133887
-0.0155713
0.00485903
-0.0432252
0.0102109
-0.0686125
0.017117
-0.0919767
0.0253538
-0.113525
0.03474
-0.133424
0.0451299
-0.151806
0.0564032
-0.16878
0.0684533
-0.184449
-0.198791
0.0812067
0.00116693
-0.0167383
0.00425599
-0.0463142
0.00897313
-0.0733296
0.0150817
-0.0980853
0.0223916
-0.120835
0.0307522
-0.141785
0.0400458
-0.1611
0.0501797
-0.178914
0.0610763
-0.195346
-0.210402
0.0726878
0.000980024
-0.0177183
0.00358795
-0.0489221
0.00758659
-0.0773283
0.0127839
-0.103283
0.019026
-0.127077
0.0261924
-0.148951
0.0341912
-0.169099
0.042953
-0.187676
0.0524228
-0.204816
-0.220549
0.0625697
0.000780725
-0.018499
0.002865
-0.0510064
0.00606896
-0.0805323
0.0102428
-0.107456
0.0152665
-0.132101
0.0210466
-0.154732
0.0275141
-0.175566
0.0346202
-0.194782
0.0423308
-0.212526
-0.228851
0.0506323
0.000569701
-0.0190687
0.00209345
-0.0525302
0.00443785
-0.0828767
0.00749264
-0.110511
0.0111686
-0.135777
0.0153967
-0.15896
0.0201274
-0.180297
0.0253293
-0.199984
0.0309862
-0.218183
-0.234967
0.0371027
0.000352505
-0.0194212
0.00129575
-0.0534734
0.002745
-0.0843259
0.0046283
-0.112395
0.00688642
-0.138035
0.00947302
-0.161546
0.0123552
-0.183179
0.0155141
-0.203143
0.0189446
-0.221614
-0.238684
0.0226613
0.000137793
-0.019559
0.000502454
-0.0538381
0.00105695
-0.0848804
0.00176951
-0.113107
0.00261368
-0.138879
0.00356835
-0.162501
0.00461804
-0.184229
0.00575324
-0.204278
0.00697049
-0.222831
0.00827488
-0.239988
0.0004874
-0.00186864
0.00138124
0.00208624
-0.00625518
0.00465634
0.00542754
-0.0114264
0.00808507
0.0101159
-0.0162026
0.0115142
0.0155402
-0.0201957
0.0147714
0.0214371
-0.0235912
0.0176943
0.0279029
-0.0267721
0.0203062
0.0350864
-0.0299671
0.0227836
0.0429721
-0.033128
0.0252422
-0.0361024
0.0514262
0.0276483
0.000426841
-0.00229548
0.00211041
-0.00793875
0.00543738
-0.0147533
0.00981357
-0.0205788
0.0148842
-0.0252663
0.0207593
-0.0294663
0.0276121
-0.0336249
0.0353907
-0.0377457
0.0438832
-0.0416205
-0.0451437
0.0529245
0.000682834
-0.00297831
0.00271672
-0.00997265
0.00577955
-0.0178162
0.00976062
-0.0245599
0.0148133
-0.030319
0.0211106
-0.0357636
0.0285832
-0.0410976
0.0369512
-0.0461137
0.0459956
-0.0506648
-0.0547733
0.0556252
0.000868609
-0.00384692
0.00306147
-0.0121655
0.00607881
-0.0208335
0.0101996
-0.0286806
0.0156973
-0.0358166
0.022555
-0.0426213
0.0305303
-0.0490729
0.0393862
-0.0549697
0.0490278
-0.0603064
-0.0651188
0.0593733
0.00092336
-0.00477028
0.00320106
-0.0144432
0.00651904
-0.0241515
0.0111166
-0.0332782
0.0171345
-0.0418345
0.0244474
-0.0499342
0.0328632
-0.0574887
0.0422847
-0.0643911
0.052649
-0.0706707
-0.0762935
0.0638237
0.000944114
-0.0057144
0.00337306
-0.0168722
0.00709151
-0.0278699
0.0121743
-0.038361
0.0186325
-0.0482928
0.0263548
-0.0576565
0.035244
-0.0663779
0.0452531
-0.0744002
0.0563036
-0.0817213
-0.0882276
0.0682377
0.000980108
-0.0066945
0.00358428
-0.0194763
0.00764145
-0.0319271
0.013107
-0.0438265
0.0199254
-0.0551112
0.0280102
-0.0657413
0.0372992
-0.075667
0.0477465
-0.0848475
0.0592792
-0.093254
-0.100701
0.0717524
0.0010181
-0.00771261
0.00376793
-0.0222262
0.00807124
-0.0362304
0.0138198
-0.049575
0.0209191
-0.0622105
0.0292803
-0.0741024
0.0388337
-0.0852204
0.0495226
-0.0955365
0.0612885
-0.10502
-0.113444
0.0740313
0.00105469
-0.00876729
0.00393684
-0.0251083
0.00846108
-0.0407546
0.014482
-0.055596
0.0218735
-0.069602
0.0305251
-0.082754
0.0403416
-0.0950368
0.0512341
-0.106429
0.0631217
-0.116907
-0.126321
0.0759996
0.001119
0.0042379
0.0091531
0.0156857
0.023686
0.0330303
0.0436154
0.0553345
0.0680299
0.0812134
0.114328
-0.414626
0.351724
0.168135
-0.471933
0.418127
0.210281
-0.422093
0.379947
0.244166
-0.326891
0.293006
0.270976
-0.214575
0.187765
0.291578
-0.110159
0.0895567
0.305088
-0.0316768
0.0181669
0.310292
0.0111062
-0.0163101
0.310828
0.0251544
-0.0256902
0.020543
-0.0193795
0.115906
-0.477607
0.16969
-0.525717
0.211805
-0.464209
0.24543
-0.360516
0.272386
-0.241532
0.293787
-0.131561
0.310047
-0.0479367
0.319195
0.00195795
0.322957
0.0213925
0.0200086
0.117713
-0.539695
0.170511
-0.578516
0.212216
-0.505913
0.245223
-0.393523
0.272039
-0.268348
0.293749
-0.153271
0.311588
-0.0657753
0.32416
-0.0106146
0.332313
0.0132398
0.0165924
0.120093
-0.600415
0.170877
-0.6293
0.211695
-0.546731
0.243777
-0.425604
0.270181
-0.294752
0.291948
-0.175037
0.31061
-0.0844373
0.325014
-0.0250195
0.337471
0.000783219
0.00837354
0.122993
-0.659584
0.170989
-0.677297
0.210372
-0.586113
0.241281
-0.456514
0.26701
-0.320481
0.288678
-0.196705
0.307874
-0.103633
0.323181
-0.0403269
0.338542
-0.0145769
-0.00458655
0.125852
-0.717198
0.170876
-0.722321
0.208329
-0.623566
0.237875
-0.48606
0.26268
-0.345285
0.284135
-0.218161
0.303656
-0.123154
0.319844
-0.0565158
0.335287
-0.0300198
-0.0170297
0.127792
-0.773238
0.17035
-0.764879
0.205613
-0.658829
0.233673
-0.51412
0.257331
-0.368943
0.27844
-0.23927
0.298143
-0.142857
0.315342
-0.0737142
0.32919
-0.043868
-0.0258187
0.127875
-0.827082
0.16893
-0.805934
0.202086
-0.691985
0.228641
-0.540675
0.251013
-0.391315
0.271592
-0.259849
0.291631
-0.162896
0.30835
-0.0904338
0.319049
-0.0545666
-0.0324054
0.125798
-0.87688
0.166207
-0.846344
0.197697
-0.723474
0.222866
-0.565843
0.243837
-0.412286
0.263624
-0.279637
0.283216
-0.182487
0.297499
-0.104717
0.305096
-0.0621634
-0.0388432
0.122116
-0.917782
0.161382
-0.88561
0.191572
-0.753664
0.215641
-0.589912
0.235298
-0.431944
0.25443
-0.298769
0.270936
-0.198993
0.282093
-0.115873
0.289523
-0.0695936
-0.0456334
0.583955
-0.92026
-0.581477
0.561182
-0.862837
0.523944
-0.716425
0.487847
-0.553816
0.460473
-0.404571
0.443816
-0.282111
0.43174
-0.186918
0.425605
-0.109738
0.422317
-0.0663055
-0.0441457
0.682869
-0.871667
-0.731462
0.619674
-0.799642
0.553845
-0.650596
0.496232
-0.496202
0.450544
-0.358883
0.418545
-0.250112
0.39848
-0.166853
0.389031
-0.100289
0.383762
-0.0610368
-0.0409664
0.753984
-0.775222
-0.850429
0.655072
-0.700731
0.56333
-0.558853
0.4872
-0.420073
0.42916
-0.300843
0.388886
-0.209838
0.363457
-0.141424
0.350467
-0.0872987
0.343284
-0.0538539
-0.0364165
0.778966
-0.641708
-0.912479
0.65369
-0.575455
0.546175
-0.451338
0.46086
-0.334758
0.397791
-0.237773
0.353969
-0.166016
0.325621
-0.113076
0.310077
-0.0717545
0.301263
-0.0450405
-0.0308
0.752962
-0.492445
-0.902225
0.617528
-0.440022
0.506124
-0.339934
0.420003
-0.248638
0.35736
-0.17513
0.313754
-0.12241
0.284913
-0.0842352
0.268032
-0.0548731
0.258071
-0.0350792
-0.0244441
0.685095
-0.345841
-0.831699
0.552685
-0.307611
0.446423
-0.233672
0.365947
-0.168161
0.30819
-0.117374
0.267964
-0.0821832
0.240864
-0.0571356
0.224143
-0.0381518
0.213812
-0.0247487
-0.0177833
0.582615
-0.213864
-0.714592
0.462883
-0.187879
0.369304
-0.140093
0.299922
-0.0987789
0.250855
-0.0683066
0.216678
-0.0480064
0.193274
-0.0337317
0.178199
-0.0230764
0.168482
-0.0150317
-0.0113616
0.448757
-0.105525
-0.557096
0.351175
-0.0902974
0.277051
-0.0659689
0.223519
-0.0452471
0.186246
-0.0310336
0.160239
-0.0219996
0.142143
-0.0156353
0.130058
-0.0109919
0.122029
-0.00700232
-0.00580111
0.28659
-0.0302209
-0.361894
0.220909
-0.0246157
0.172487
-0.0175471
0.138709
-0.0114694
0.115472
-0.00779633
0.0991071
-0.00563474
0.0875382
-0.00406647
0.0795558
-0.00300955
0.0743039
-0.00175043
-0.00177952
0.101315
-0.131536
0.0766997
0.0591527
0.0476833
0.039887
0.0342522
0.0301858
0.0271762
0.0254258
0.73882
0.0102223
-0.740768
0.733074
0.0284073
0.723436
0.0467415
0.710163
0.0639053
0.69357
0.0791624
0.674077
0.0921812
0.652273
0.10301
0.628713
0.112182
0.60427
0.11928
0.119798
0.845548
0.0133981
-0.848724
0.837321
0.0366344
0.827288
0.0567748
0.816594
0.0745995
0.805251
0.0905052
0.792897
0.104535
0.779284
0.116623
0.764588
0.126878
0.749124
0.134744
0.13746
0.844982
0.0114253
-0.843009
0.848882
0.0327348
0.853019
0.0526378
0.85647
0.0711482
0.858831
0.0881437
0.859918
0.103448
0.859594
0.116947
0.857966
0.128506
0.8553
0.137411
0.142331
0.800213
0.00930441
-0.798092
0.80582
0.027127
0.814418
0.0440405
0.825636
0.0599302
0.839
0.0747793
0.853848
0.0885999
0.869417
0.101379
0.88505
0.112872
0.899935
0.122526
0.129787
0.737865
0.00703871
-0.7356
0.744154
0.0208384
0.754123
0.0340714
0.767503
0.0465502
0.784083
0.0581999
0.80366
0.0690224
0.825988
0.079051
0.850621
0.0882394
0.876541
0.0966058
0.104102
0.653921
0.00485395
-0.651736
0.660203
0.0145561
0.670378
0.0238963
0.684221
0.0327074
0.701525
0.040896
0.722111
0.0484359
0.745805
0.0553567
0.772329
0.0617159
0.801216
0.0677186
0.0736187
0.549112
0.00291607
-0.547174
0.554812
0.00885589
0.564138
0.0145705
0.576905
0.01994
0.592915
0.0248867
0.611968
0.0293826
0.633871
0.033454
0.658406
0.0371801
0.685379
0.0407461
0.0444058
0.422793
0.00137571
-0.421252
0.427413
0.00423594
0.435008
0.00697561
0.445422
0.00952586
0.45847
0.0118388
0.473957
0.0138957
0.491697
0.0157138
0.511527
0.0173497
0.533346
0.0189271
0.0206561
0.273828
0.000366656
-0.272819
0.276915
0.00114943
0.281999
0.00189174
0.288955
0.00256941
0.29763
0.00316447
0.307856
0.00366915
0.319482
0.00408805
0.332395
0.00443667
0.346561
0.00476039
0.00532319
0.100484
-0.100117
0.101633
0.103525
0.106094
0.109259
0.112928
0.117016
0.121453
0.126213
0.0779294
0.159504
-0.142492
-0.0949421
0.063026
0.147461
-0.132557
0.0496172
0.134406
-0.120997
0.0376025
0.120332
-0.108318
0.0270259
0.105171
-0.0945941
0.0179775
0.0888944
-0.079846
0.0105727
0.0714606
-0.0640557
0.00496322
0.0528094
-0.0472
0.001348
0.0328743
-0.0292591
0.0116389
-0.010291
0.0779394
0.174434
-0.0928689
0.0638702
0.16153
0.0508391
0.147437
0.0389377
0.132234
0.0282758
0.115833
0.0190001
0.0981701
0.0112895
0.0791712
0.00535956
0.0587394
0.00147721
0.0367567
0.0131162
0.0731787
0.187928
-0.0866732
0.0603695
0.174339
0.0483501
0.159457
0.0372485
0.143335
0.0272031
0.125878
0.0183793
0.106994
0.0109766
0.0865738
0.00523535
0.0644806
0.00144963
0.0405424
0.0145658
0.0667705
0.200353
-0.0791953
0.0550328
0.186077
0.0440492
0.17044
0.0339216
0.153463
0.0247664
0.135033
0.016727
0.115033
0.00998166
0.0933191
0.00475147
0.0697108
0.00130965
0.0439842
0.0158754
0.0593122
0.211657
-0.0706158
0.0487152
0.196674
0.0388673
0.180288
0.0298411
0.162489
0.0217243
0.14315
0.0146295
0.122128
0.00870233
0.0992463
0.00412645
0.0742867
0.00113097
0.0469797
0.0170064
0.0505979
0.221521
-0.0604618
0.0414109
0.205861
0.0329274
0.188772
0.0251972
0.170219
0.0182837
0.150064
0.0122721
0.12814
0.00727495
0.104243
0.00343653
0.0781251
0.000937284
0.0494789
0.0179437
0.0404571
0.229564
-0.0485
0.0330126
0.213305
0.0261764
0.195608
0.0199772
0.176418
0.0144573
0.155583
0.00967743
0.13292
0.00572043
0.1082
0.00269376
0.0811518
0.000731839
0.0514408
0.0186755
0.0290541
0.235441
-0.0349316
0.0236512
0.218708
0.0187146
0.200544
0.0142551
0.180878
0.0102962
0.159542
0.00687751
0.136338
0.0040556
0.111022
0.00190427
0.0833031
0.000515282
0.0528298
0.0191908
0.0169174
0.238926
-0.0204019
0.0137418
0.221884
0.0108549
0.203431
0.0082548
0.183478
0.00595148
0.161846
0.00396649
0.138323
0.00233218
0.112657
0.00109066
0.0845446
0.000293242
0.0536272
0.0194841
0.00482785
-0.00589045
0.00388043
0.00303404
0.00228342
0.00162817
0.00107201
0.000621624
0.000285831
7.49722e-05
0.0436724
0.041415
-0.0525716
-0.0325157
0.0352928
0.0383655
-0.0299859
0.02762
0.0349651
-0.0272923
0.0208812
0.0313489
-0.0246101
0.0150794
0.0277802
-0.0219783
0.00997301
0.0242211
-0.0191147
0.00544321
0.0200847
-0.0155549
0.00197659
0.0144719
-0.0110052
0.000386915
0.00739954
-0.00580986
0.00208915
-0.00170224
0.0437651
0.0505885
-0.0529385
0.035111
0.0470195
0.0270672
0.0430089
0.0199164
0.0384997
0.0139759
0.0337207
0.00925343
0.0289436
0.00550432
0.0238338
0.00257639
0.0173998
0.000621943
0.00935399
0.0027111
0.044938
0.0601468
-0.0544963
0.036013
0.0559446
0.0277723
0.0512496
0.0203323
0.0459397
0.014019
0.0400341
0.00909739
0.0338651
0.00551409
0.0274171
0.00289185
0.020022
0.000809526
0.0114363
0.00352063
0.0473603
0.0703338
-0.0575474
0.0379243
0.0653806
0.0293543
0.0598196
0.0216881
0.0536059
0.0150508
0.0466715
0.00970109
0.0392148
0.00576113
0.0313571
0.00295835
0.0228248
0.000874835
0.0135198
0.00439546
0.0508257
0.0812598
-0.0617516
0.0407223
0.075484
0.0316056
0.0689363
0.0235379
0.0616736
0.0165421
0.0536673
0.0107447
0.0450121
0.00628109
0.0358207
0.00306096
0.026045
0.00088018
0.0157006
0.00527564
0.0545242
0.0928563
-0.0661208
0.0438036
0.0862046
0.034122
0.078618
0.0255542
0.0702413
0.0181221
0.0610994
0.0118816
0.0512526
0.00692787
0.0407745
0.00327815
0.0296947
0.000908392
0.0180704
0.00618403
0.0575796
0.104938
-0.0696607
0.0464205
0.0973636
0.036318
0.0887205
0.027332
0.0792273
0.0194984
0.068933
0.0128677
0.0578833
0.00751944
0.0461227
0.00352495
0.0336892
0.000959531
0.0206358
0.00714356
0.0596376
0.117264
-0.0719641
0.0482607
0.10874
0.0379189
0.0990624
0.0286572
0.0884891
0.0205273
0.0770629
0.0135983
0.0648123
0.00796128
0.0517597
0.00372165
0.0379288
0.00100527
0.0233522
0.00814883
0.0614523
0.129717
-0.0739056
0.049955
0.120238
0.0394063
0.109611
0.0298775
0.0980178
0.021455
0.0854854
0.0142358
0.0720315
0.00833434
0.0576611
0.00388448
0.0423787
0.00104188
0.0261948
0.00919071
0.066309
-0.0790832
0.0539896
0.0426034
0.0323036
0.0231949
0.0153804
0.00898585
0.00416455
0.00110024
0.213759
0.0620787
-0.0778484
0.236439
0.0903597
-0.113039
0.260978
0.123872
-0.148411
0.277083
0.112222
-0.128326
0.276248
0.109438
-0.108603
0.253237
0.178583
-0.155572
0.218981
0.293637
-0.259381
0.174889
0.412577
-0.368485
0.118439
0.494718
-0.438268
0.461746
-0.395879
0.21311
0.0469583
0.234696
0.0687736
0.258335
0.100233
0.275082
0.0954749
0.275859
0.108661
0.253627
0.200815
0.219189
0.328075
0.174638
0.457127
0.1181
0.551256
0.526908
0.212875
0.0320733
0.233611
0.0480374
0.256396
0.0774479
0.273142
0.0787289
0.274246
0.107557
0.25243
0.222631
0.217942
0.362563
0.173326
0.501743
0.117882
0.606701
0.590293
0.212984
0.0170792
0.233182
0.0278388
0.255226
0.0554045
0.271502
0.0624522
0.271732
0.107328
0.249782
0.24458
0.215403
0.396942
0.171343
0.545803
0.118376
0.659668
0.651122
0.213308
0.00176075
0.233259
0.00788842
0.254615
0.0340478
0.269799
0.0472682
0.268226
0.108901
0.245753
0.267053
0.211771
0.430923
0.169111
0.588464
0.119719
0.70906
0.709089
0.213688
-0.0139374
0.233616
-0.0120393
0.25424
0.0134239
0.267676
0.0338319
0.263624
0.112952
0.240454
0.290224
0.207305
0.464073
0.166903
0.628866
0.121446
0.754517
0.764414
0.213951
-0.0298988
0.234048
-0.0321365
0.253814
-0.00634198
0.264898
0.0227483
0.257904
0.119946
0.234095
0.314033
0.202284
0.495883
0.164705
0.666445
0.122663
0.796558
0.817416
0.213989
-0.0458984
0.234434
-0.0525811
0.253118
-0.0250261
0.261231
0.0146354
0.250992
0.130185
0.2268
0.338225
0.196758
0.525925
0.162088
0.701116
0.122346
0.836299
0.867799
0.21381
-0.061719
0.234753
-0.0735237
0.252027
-0.0423005
0.256705
0.00995794
0.243148
0.143742
0.218937
0.362435
0.190842
0.55402
0.158623
0.733335
0.120099
0.874823
0.913992
0.213682
-0.0774116
0.23497
-0.0948113
0.250532
-0.0578628
0.250983
0.00950701
0.233844
0.160882
0.209871
0.386408
0.183605
0.580287
0.15344
0.7635
0.116425
0.911838
0.951334
0.331934
-0.107335
0.370559
-0.133436
0.406956
-0.0942594
0.424377
-0.00791414
0.438855
0.146403
0.467408
0.357855
0.506591
0.541104
0.54958
0.720511
0.581373
0.880044
0.946204
0.586504
0.333629
-0.138954
0.373174
-0.172981
0.408328
-0.129414
0.422065
-0.021651
0.435423
0.133046
0.475903
0.317376
0.534274
0.482733
0.604465
0.65032
0.675403
0.809106
0.888619
0.732988
0.336353
-0.173297
0.375437
-0.212065
0.408733
-0.16271
0.417004
-0.0299224
0.427218
0.122832
0.473911
0.270682
0.546456
0.410188
0.638805
0.557971
0.742285
0.705626
0.784488
0.846416
0.340511
-0.211797
0.373413
-0.244967
0.384177
-0.173474
0.380414
-0.0261593
0.398907
0.104339
0.452859
0.21673
0.534102
0.328945
0.640505
0.451569
0.767077
0.579053
0.647072
0.904493
0.348515
-0.258302
0.356578
-0.253031
0.337452
-0.154348
0.334177
-0.0228849
0.358521
0.0799952
0.414
0.161252
0.497227
0.245717
0.607867
0.340929
0.743732
0.443189
0.495868
0.894936
0.340774
-0.297065
0.32114
-0.233397
0.287847
-0.121055
0.283895
-0.0189334
0.308878
0.0550129
0.361069
0.109061
0.439735
0.16705
0.545749
0.234915
0.678762
0.310176
0.347986
0.826644
0.314272
-0.309328
0.271551
-0.190675
0.233589
-0.0830931
0.228584
-0.0139289
0.251015
0.0325818
0.296147
0.0639292
0.364601
0.0985959
0.458323
0.141193
0.578796
0.189703
0.215104
0.711678
0.273773
-0.28109
0.212874
-0.129776
0.174324
-0.0445439
0.168762
-0.00836642
0.186238
0.0151058
0.220954
0.0292127
0.274168
0.0453823
0.348682
0.0666787
0.44705
0.0913353
0.106139
0.556015
0.214646
-0.193726
0.140473
-0.0556023
0.10936
-0.0134316
0.104077
-0.00308252
0.115347
0.00383518
0.137267
0.00729257
0.171093
0.0115567
0.21997
0.0178016
0.286339
0.0249659
0.0304074
0.362071
0.108284
0.0526818
0.0392502
0.0361677
0.0400029
0.0472955
0.0588521
0.0766537
0.10162
0.132027
0.608658
-0.117097
0.632322
-0.116533
0.655139
-0.10949
0.67629
-0.100346
0.695234
-0.0895592
0.71137
-0.0765985
0.724263
-0.061393
0.73359
-0.0442582
0.739075
-0.0258868
-0.00758338
0.750322
-0.13443
0.765224
-0.131435
0.779426
-0.123693
0.792649
-0.11357
0.804712
-0.101622
0.815848
-0.0877338
0.826403
-0.0719481
0.836392
-0.0542474
0.844841
-0.0343356
-0.0114667
0.851037
-0.139051
0.853479
-0.133877
0.854993
-0.125207
0.855371
-0.113947
0.854522
-0.100774
0.852622
-0.0858334
0.849896
-0.0692219
0.846739
-0.0510906
0.843946
-0.0315429
-0.0105298
0.89255
-0.127107
0.878534
-0.119861
0.863854
-0.110527
0.84929
-0.0993829
0.835446
-0.0869294
0.823019
-0.0734068
0.812635
-0.0588383
0.804756
-0.0432111
0.799744
-0.0265314
-0.00887709
0.870309
-0.102481
0.845548
-0.0951002
0.821944
-0.086923
0.800489
-0.0779279
0.781654
-0.0680942
0.765714
-0.0574669
0.75289
-0.0460142
0.743403
-0.0337241
0.737523
-0.0206517
-0.00695363
0.796997
-0.0728331
0.768933
-0.0670366
0.743122
-0.0611116
0.720037
-0.0548429
0.699971
-0.0480286
0.683112
-0.0406075
0.669641
-0.0325437
0.659769
-0.0238515
0.653726
-0.0146085
-0.0049638
0.682984
-0.0441392
0.656499
-0.0405524
0.632401
-0.0370128
0.610878
-0.0333203
0.592145
-0.0292954
0.576395
-0.024858
0.563828
-0.0199763
0.554646
-0.0146696
0.549043
-0.00900559
-0.00309477
0.53251
-0.0206337
0.510908
-0.0189508
0.491275
-0.0173796
0.473704
-0.0157489
0.458351
-0.0139423
0.445397
-0.0119047
0.435037
-0.00961621
0.427458
-0.00709086
0.422824
-0.00437154
-0.0015229
0.346789
-0.00535165
0.332647
-0.00480906
0.319753
-0.00448486
0.308137
-0.00413358
0.297909
-0.00371365
0.289215
-0.00321086
0.282219
-0.00262001
0.277075
-0.0019474
0.273913
-0.00120946
-0.000429227
0.126675
0.121866
0.117381
0.113248
0.109534
0.106323
0.103703
0.101756
0.100546
0.000185057
0.0116092
-0.0117943
0.000623737
0.0304465
-0.0308852
0.00123716
0.0462418
-0.0468552
0.00197733
0.0594676
-0.0602078
0.00277662
0.0700217
-0.070821
0.00376954
0.0798892
-0.0808822
0.00396348
0.0772674
-0.0774613
0.00408486
0.0700426
-0.0701639
0.00394498
0.0610798
-0.0609399
0.0499562
0.00350723
-0.0495184
0.000533397
0.0110759
0.00180387
0.0291761
0.00358509
0.0444606
0.00574126
0.0573114
0.00807285
0.0676901
0.0110397
0.0769224
0.011676
0.0766311
0.0120809
0.0696377
0.0117737
0.061387
0.0510785
0.0106513
0.0008355
0.0102404
0.00283184
0.0271797
0.00563913
0.0416533
0.00904158
0.053909
0.0127395
0.0639922
0.0172475
0.0724144
0.0187903
0.0750883
0.0195719
0.068856
0.0193857
0.0615732
0.052435
0.0180293
0.00105598
0.00918437
0.00359702
0.0246387
0.00719366
0.0380566
0.0115559
0.0495468
0.0163567
0.0591914
0.0217479
0.0670233
0.0250729
0.0717633
0.0263552
0.0675737
0.0266035
0.0613249
0.0535668
0.0254717
0.00115146
0.00803291
0.00397934
0.0218108
0.00804179
0.0339942
0.0129971
0.0445915
0.0185518
0.0536366
0.0245578
0.0610173
0.0299525
0.0663687
0.0320904
0.0654358
0.0330117
0.0604036
0.0540916
0.032487
0.0011115
0.00692142
0.00396603
0.0189563
0.00818569
0.0297745
0.0133904
0.0393868
0.0193183
0.0477088
0.0257723
0.0545632
0.0324163
0.0597247
0.0363131
0.061539
0.0381249
0.0585918
0.0537076
0.0385089
0.000926238
0.00599518
0.00357299
0.0163095
0.00771073
0.0256368
0.0128819
0.0342157
0.0187869
0.0418038
0.0253385
0.0480116
0.0323215
0.0527417
0.0382758
0.0555847
0.0415881
0.0552795
0.0521835
0.0431122
0.000567818
0.00542737
0.00278659
0.0140908
0.00665747
0.0217659
0.0116213
0.0292518
0.0172043
0.0362208
0.0234475
0.0417685
0.0302863
0.0459029
0.0371846
0.0486864
0.0425621
0.049902
0.0489244
0.0458212
0.000103737
0.00532363
0.00176843
0.0124261
0.0051755
0.0183589
0.00981462
0.0246127
0.0149566
0.0310788
0.0206209
0.0361042
0.0269034
0.0396204
0.0335873
0.0420025
0.0400856
0.0434037
0.0437956
0.0452144
-0.00017583
0.00549946
0.00108643
0.0111638
0.00385537
0.0155899
0.00788581
0.0205823
0.0125
0.0264645
0.0175705
0.0310337
0.0231767
0.0340142
0.0292493
0.0359299
0.0356362
0.0370168
0.0373687
0.0420631
-2.16895e-05
0.00552115
0.00113906
0.0100031
0.00327637
0.0134526
0.00641153
0.0174471
0.0102927
0.0225833
0.0148344
0.0264921
0.0199547
0.028894
0.0254874
0.0303972
0.0312255
0.0312786
0.0316942
0.0369
0.000376622
0.00514453
0.00153015
0.00884953
0.00317843
0.0118043
0.00548873
0.0151368
0.00870797
0.0193641
0.0128939
0.0223061
0.0177463
0.0240416
0.023014
0.0251295
0.028506
0.0257866
0.026057
0.0341432
0.000623212
0.00452132
0.00170509
0.00776765
0.0030249
0.0104845
0.00484449
0.0133172
0.0078365
0.0163721
0.011927
0.0182156
0.0166796
0.019289
0.0218547
0.0199543
0.0273202
0.0203212
0.0204027
0.0329745
0.00067651
0.00384481
0.001642
0.00680216
0.00282203
0.0093045
0.00470643
0.0114328
0.00798373
0.0130948
0.0122171
0.0139822
0.0170368
0.0144694
0.022281
0.01471
0.0278535
0.0147487
0.0145878
0.0336684
0.000664693
0.00318011
0.00155628
0.00591056
0.00300184
0.00785894
0.00559498
0.00883967
0.00939262
0.00929711
0.0139209
0.00945387
0.0189706
0.00941971
0.0244422
0.00923837
0.0302679
0.00892306
0.00847962
0.0363761
0.000594878
0.00258523
0.00172355
0.00478188
0.0040792
0.00550328
0.00754583
0.00537303
0.0118077
0.00503522
0.0166647
0.00459691
0.0220153
0.00406902
0.0278006
0.0034531
0.033969
0.00275465
0.00198683
0.0404618
0.00052818
0.00205705
0.00250098
0.00280906
0.00577786
0.00222639
0.00978393
0.00136696
0.0143826
0.00043659
0.0195284
-0.000548897
0.0251914
-0.00159407
0.0313289
-0.00268438
0.0378797
-0.00379615
-0.00491723
0.0447838
0.000884815
0.00117222
0.00363627
5.75917e-05
0.00720297
-0.00134031
0.0113935
-0.00282355
0.016195
-0.00436494
0.0216183
-0.00597224
0.0276216
-0.00759737
0.0341135
-0.00917629
0.0410107
-0.0106933
-0.012179
0.0482725
0.00150692
-0.00033471
0.00413466
-0.00257015
0.00755741
-0.00476308
0.0117757
-0.00704186
0.0167967
-0.00938593
0.0225405
-0.0117161
0.0288391
-0.0138959
0.0355711
-0.0159083
0.0427117
-0.0178339
-0.0197287
0.0502613
0.00104652
0.0031327
0.00645469
0.010927
0.0163125
0.0222907
0.028701
0.0355763
0.0429846
0.0509043
0.0514273
0.0837065
-0.0982339
0.0773469
-0.00756904
-0.0183505
0.0999995
-0.0512502
0.0285976
0.1137
-0.0471729
0.033472
0.121679
-0.0268949
0.0189163
0.125305
-0.00801083
0.00438471
0.126332
0.00345083
-0.00447789
0.126437
0.00747283
-0.00757745
0.126303
0.00785676
-0.00772289
0.005496
-0.00607141
0.058647
0.0592026
0.0917332
-0.0406553
0.118941
-0.0784582
0.134983
-0.063215
0.143727
-0.0356387
0.147388
-0.0116713
0.148142
0.00269673
0.147896
0.00771803
0.147419
0.00833362
0.00526715
0.066681
0.025496
0.105136
-0.07911
0.136182
-0.109505
0.155854
-0.0828862
0.165872
-0.0456567
0.169603
-0.0154029
0.169979
0.00232119
0.169223
0.00847386
0.168236
0.00932014
0.00552735
0.0755826
-0.0164182
0.117993
-0.121521
0.151938
-0.14345
0.175374
-0.106323
0.187446
-0.0577281
0.191515
-0.0194721
0.191551
0.00228518
0.190234
0.00979076
0.188659
0.0108949
0.00635575
0.0846558
-0.0646979
0.129838
-0.166702
0.165953
-0.179565
0.192703
-0.133073
0.207685
-0.0727095
0.212694
-0.0244811
0.212591
0.00238787
0.21076
0.0116217
0.208595
0.0130598
0.0077713
0.0931253
-0.117361
0.140332
-0.213909
0.178134
-0.217367
0.20745
-0.162389
0.225728
-0.0909876
0.232599
-0.0313518
0.232779
0.0022074
0.230606
0.0137952
0.22794
0.0157258
0.00972633
0.100326
-0.172904
0.149201
-0.262784
0.188384
-0.256549
0.219536
-0.193542
0.240879
-0.11233
0.250588
-0.0410606
0.251752
0.00104284
0.249557
0.0159899
0.246579
0.0187046
0.0121032
0.10591
-0.230541
0.156318
-0.313192
0.196644
-0.296876
0.229067
-0.225965
0.252814
-0.136076
0.265927
-0.054174
0.269064
-0.00209406
0.267362
0.0176913
0.264376
0.0216907
0.0147081
0.109858
-0.290138
0.161714
-0.365049
0.202941
-0.338103
0.236217
-0.259241
0.261583
-0.161442
0.277984
-0.0705747
0.284161
-0.00827144
0.283713
0.0181396
0.28117
0.0242335
0.0172613
0.11249
0.165568
0.207413
0.241178
0.2675
0.286482
0.296378
0.298207
0.296751
0.0132007
0.00607771
-0.0192784
0.0109898
0.0022109
0.0115099
-0.00052012
0.0129341
-0.00142424
0.0136498
-0.000715681
0.0137671
-0.00011728
0.0135415
0.000225569
0.013175
0.000366445
0.0129125
0.000262545
0.000365187
0.0372493
0.0232147
-0.0543862
0.0314963
0.0079638
0.0340105
-0.0030343
0.0380711
-0.00548483
0.0402463
-0.00289085
0.0406437
-0.000514763
0.0400007
0.000868579
0.0389977
0.00136942
0.0380633
0.00119703
0.00122668
0.0579669
0.0480944
-0.0828466
0.0508879
0.0150427
0.0559035
-0.00804989
0.062489
-0.0120704
0.0661608
-0.00656259
0.0669175
-0.00127152
0.0659251
0.00186102
0.0643418
0.00295269
0.0627364
0.00280244
0.00250214
0.0739076
0.0753978
-0.101211
0.0680878
0.0208625
0.0764623
-0.0164244
0.0858059
-0.021414
0.0911303
-0.0118869
0.0923873
-0.00252857
0.0911509
0.00309744
0.0890533
0.00505025
0.086849
0.00500681
0.00413936
0.0814003
-0.104237
0.0839122
0.0960852
0.108143
0.115173
0.117029
0.115648
0.113121
0.110405
0.00273369
-0.000172927
-0.00256076
0.00326456
-0.000530876
0.00417681
-0.000912239
0.00548787
-0.00131107
0.0071843
-0.00169642
0.00922888
-0.00204458
0.0115855
-0.00235661
0.0141738
-0.00258834
0.016859
-0.00268515
-0.00241942
0.00778748
-0.000645703
-0.0073147
0.00923438
-0.00197778
0.0117138
-0.00339162
0.0152702
-0.00486748
0.0198845
-0.00631072
0.0254825
-0.0076426
0.0319648
-0.00883896
0.0391563
-0.00977981
0.0467677
-0.0102966
-0.0100379
0.0124781
-0.00138377
-0.0117401
0.0147278
-0.00422749
0.0185607
-0.00722452
0.0240247
-0.0103315
0.0310794
-0.0133654
0.0395863
-0.0161495
0.0493283
-0.018581
0.0600517
-0.0205033
0.071416
-0.0216609
-0.0214685
0.0168075
-0.00234772
-0.0158436
0.0197318
-0.00715174
0.024675
-0.0121678
0.0316516
-0.017308
0.0405502
-0.022264
0.0511064
-0.0267057
0.0629377
-0.0304123
0.0756948
-0.0332604
0.0888617
-0.0348277
-0.0338179
0.0207931
-0.0196336
0.0242927
0.0301542
0.0383179
0.0485408
0.060344
0.0730439
0.0856047
0.0959914
0.0314443
-0.0313066
0.0371113
-0.037249
0.0255841
-0.0309036
0.0367639
0.0199258
-0.030071
0.0357293
0.0146795
-0.028675
0.0339212
0.0100599
-0.0264663
0.031086
0.00620474
-0.0227789
0.026634
0.00311383
-0.0176477
0.0207386
0.00101743
-0.0136221
0.0157185
-8.67402e-05
-0.0101616
0.0112658
-0.00564232
0.00555558
0.0294605
-0.0254434
-0.0353238
0.0237449
-0.0251879
0.0182551
-0.0245812
0.0131692
-0.0235891
0.00874034
-0.0220375
0.00535041
-0.0193889
0.00301976
-0.015317
0.00139653
-0.0119989
0.000298199
-0.00906324
-0.00534412
0.029432
-0.0194553
-0.0354201
0.023628
-0.0193839
0.0181108
-0.0190639
0.0129974
-0.0184757
0.00849096
-0.017531
0.00504246
-0.0159404
0.00300398
-0.0132785
0.00164449
-0.0106394
0.000582423
-0.00800117
-0.00476169
0.0313523
-0.0131923
-0.0376152
0.0253238
-0.0133554
0.0196133
-0.0133535
0.0143073
-0.0131697
0.0095444
-0.0127681
0.00564952
-0.0120455
0.00319574
-0.0108247
0.00176036
-0.009204
0.000726624
-0.00696742
-0.00403506
0.0349541
-0.00653693
-0.0416094
0.0285806
-0.00698193
0.0225611
-0.0073339
0.0169617
-0.00757022
0.0118729
-0.0076794
0.00747953
-0.00765214
0.00413371
-0.00747892
0.00199201
-0.00706229
0.000798144
-0.00577355
-0.00323691
0.0392755
0.000571284
-0.0463837
0.0324924
-0.000198809
0.0261069
-0.00094842
0.0201937
-0.00165701
0.0148134
-0.00229908
0.010029
-0.00286777
0.00592438
-0.00337427
0.00267391
-0.00381181
0.000720604
-0.00382024
-0.0025163
0.0431151
0.00808953
-0.0506334
0.0359371
0.00697924
0.0291528
0.00583591
0.0228622
0.00463353
0.0171679
0.00339526
0.0121095
0.00219067
0.00766793
0.00106726
0.00384926
6.87622e-06
0.000979706
-0.000950677
-0.00153659
0.0453953
0.0158952
-0.0532009
0.037966
0.0144086
0.0309103
0.0128916
0.0242644
0.0112795
0.0181713
0.00948834
0.0128177
0.00754432
0.00828258
0.00560234
0.00454126
0.0037482
0.00163227
0.00195831
9.5688e-05
0.0455486
0.0239995
-0.0536529
0.0379293
0.0220279
0.0307986
0.0200223
0.0240689
0.0180092
0.0177075
0.0158497
0.0119086
0.0133432
0.00704991
0.0104611
0.0034185
0.00737962
0.00114796
0.00422886
0.00124365
0.0444881
-0.0530044
0.03653
0.0292601
0.0226591
0.0165305
0.010759
0.00566519
0.00203958