/*--------------------------------*- C++ -*----------------------------------*\
  =========                 |
  \\      /  F ield         | OpenFOAM: The Open Source CFD Toolbox
   \\    /   O peration     | Website:  https://openfoam.org
    \\  /    A nd           | Version:  13
     \\/     M anipulation  |
\*---------------------------------------------------------------------------*/
FoamFile
{
    format      ascii;
    class       surfaceScalarField;
    location    "71.7";
    object      phi;
}
// * * * * * * * * * * * * * * * * * * * * * * * * * * * * * * * * * * * * * //

dimensions      [0 3 -1 0 0 0 0];

internalField   nonuniform List<scalar> 
823
(
0.0082065
0.0277541
-0.0359606
0.0245818
0.0243549
-0.0407302
0.0672957
-0.0264624
-0.0162514
0.147166
-0.0909869
0.0111167
-0.128709
0.0133869
0.262488
0.0190161
0.00873793
0.0769871
-0.0336161
0.168041
-0.117516
0.275087
-0.198033
-0.270634
0.417011
0.0218806
-0.0131427
0.105384
-0.117119
0.21619
-0.228322
0.324033
-0.305876
-0.354383
0.407783
0.0417731
-0.0549158
0.138507
-0.213854
0.227476
-0.317292
0.285481
-0.363881
-0.377882
0.308979
0.0559028
-0.110819
0.129652
-0.287602
0.173161
-0.360801
0.189667
-0.380386
0.197392
-0.385607
0.0235082
-0.061
0.0374917
0.0563233
-0.12521
0.0923947
0.0790273
-0.136515
0.113811
0.0870479
-0.117232
0.109211
-0.089567
0.0837571
0.0928578
0.0224094
-0.0834094
0.0381712
-0.140972
0.0336518
-0.131995
0.0150838
-0.0986638
-0.0648668
-0.00961643
0.0146693
-0.0980786
0.00793571
-0.134238
-0.0136605
-0.110399
-0.0328323
-0.0794921
-0.0548934
-0.0428056
-0.0459249
-0.0521538
-0.119083
-0.0610803
-0.181224
-0.0482578
-0.224851
-0.0358648
-0.0242225
-0.255522
-0.0881143
-0.189925
-0.254434
-0.279182
-0.290018
0.335533
-0.366956
0.11518
0.381691
1.77967
-1.82582
0.398031
0.76248
-0.77882
0.466081
-1.54838
1.48033
-0.980971
0.971787
-0.0135194
-0.363054
0.198347
1.5678
0.501048
0.45978
0.51635
-1.56368
-0.980613
-0.0895671
-0.316292
0.132532
1.3457
0.582232
0.0100807
0.568555
-1.55
-0.962515
-0.141455
-0.430359
0.202382
1.00186
0.643593
-0.431131
0.629093
-1.5355
-0.923439
-0.0914572
-0.62892
0.273369
0.637036
0.660896
-0.818658
0.656166
-1.53077
-0.878233
0.798501
-0.313901
-1.11352
1.01017
0.425371
1.31494
-1.12343
1.13225
-1.34809
-0.676218
1.19927
-0.177173
-1.336
1.42879
0.195851
1.3866
-1.08124
1.0331
-0.994589
-0.430859
1.25426
-0.109968
-1.32146
1.51579
-0.065682
1.25677
-0.822213
0.884977
-0.6228
-0.235353
1.25054
-0.0669562
-1.29355
1.35859
-0.173738
0.959745
-0.423365
0.571684
-0.234739
-0.0688493
0.821369
-0.888325
0.647631
0.224266
-0.0104734
1.07997
0.14514
-1.02772
1.14788
0.241068
1.25559
0.300074
1.26074
0.411858
0.409709
1.00412
0.0775904
-0.936568
1.06204
0.183148
1.15821
0.203906
1.25554
0.314528
0.329247
0.940449
0.0352914
-0.89815
1.00506
0.118536
1.08413
0.12484
1.20637
0.192283
0.214159
0.889991
0.00827816
-0.862978
0.963296
0.0452309
1.04243
0.0457078
1.16012
0.0745924
0.0807286
0.642065
-0.633787
0.687296
0.733004
0.807597
0.130546
0.296576
-0.248007
-0.179115
0.0868777
0.303903
-0.260235
0.0473831
0.314438
-0.274944
0.0150862
0.30592
-0.273623
0.198026
-0.182939
0.0925678
0.333583
-0.129575
0.0577654
0.338706
0.0269721
0.345231
0.00344962
0.329442
0.201475
0.0508994
0.363187
-0.0805029
0.0224529
0.367152
-0.000938593
0.368623
-0.0101694
0.338673
0.191306
-0.023005
0.379275
0.00691636
-0.0372557
0.381403
-0.0424451
0.373812
-0.0306259
0.326854
0.16068
-0.103141
0.0968087
-0.102124
-0.0891128
-0.0498613
0.204956
0.0938306
-0.257927
-0.04086
0.15059
0.0980007
-0.0436342
0.0941955
0.102675
-0.0462811
0.0385936
0.10291
-0.0473076
0.0733075
-0.0347139
0.197571
0.138731
-0.242472
0.150446
0.145126
0.0980267
0.155095
0.041818
0.159118
0.115126
0.151206
0.184397
-0.196872
0.10768
0.188652
0.0652563
0.197519
0.0247931
0.199582
0.139919
0.157686
0.220092
-0.193382
0.116737
0.229601
0.0715233
0.242732
0.027709
0.243396
0.167628
0.108384
-0.136299
0.0777504
0.045539
0.0153119
0.404375
0.0684906
-0.0768859
0.422259
0.00809181
-0.0259759
0.416279
0.151899
-0.145919
0.391636
0.189755
-0.165112
0.391435
-0.257726
0.401923
0.0625472
0.417132
-0.00711767
0.405691
0.163341
0.375669
0.219777
0.524632
0.396649
0.0618779
0.412963
-0.0234314
0.384042
0.192262
0.361457
0.242362
0.689217
0.39457
0.0632871
0.401233
-0.0300939
0.368306
0.225189
0.337655
0.273012
0.833491
0.388782
0.0704846
0.390726
-0.0320381
0.338612
0.277303
0.310795
0.300829
1.00799
0.628497
0.0460084
0.662145
-0.0656862
0.675973
0.263475
0.734332
0.24247
0.7635
0.978819
0.646578
0.00345125
0.664105
-0.0832132
0.688133
0.239446
0.777483
0.15312
0.528492
1.01249
0.654293
-0.0468214
0.643952
-0.0728721
0.691019
0.192379
0.793106
0.0510326
0.333292
0.988306
0.631057
-0.0738579
0.60463
-0.0464448
0.720794
0.0762148
0.775294
-0.00346766
0.158164
0.950422
0.530163
0.483718
0.559933
0.556465
0.714629
0.995004
-0.195301
0.99419
-0.128761
0.98652
-0.0728325
0.999944
-0.00650827
0.0690375
0.951261
-0.13407
0.935791
-0.113291
0.906184
-0.0432255
0.927556
-0.0278802
0.0600251
0.930081
-0.075845
0.895567
-0.0787764
0.875308
-0.022967
0.879622
-0.0321939
0.0414967
0.903454
-0.0288775
0.858598
-0.0339199
0.847617
-0.011986
0.834736
-0.0193131
0.0132546
0.685752
0.651832
0.639846
0.620533
0.0551256
0.175565
-0.230691
0.0787205
0.373413
-0.397008
0.0772094
0.427178
-0.425667
0.0671951
0.427509
-0.417495
0.394898
0.0531805
-0.380884
0.0857978
0.0897674
0.161414
0.297797
0.193803
0.39479
0.197786
0.423526
0.410203
0.182481
0.073946
0.0158215
0.201514
0.170229
0.295856
0.300448
0.348453
0.370928
0.415612
0.343044
0.0354874
-0.0196659
0.156674
0.0490425
0.293022
0.164099
0.421892
0.242059
0.336221
0.501283
0.00568161
-0.0253476
0.0689236
-0.0141995
0.188728
0.044295
0.336109
0.0946777
0.192465
0.479866
-0.00611111
-0.0192364
0.0134495
-0.0337601
0.0809137
-0.0231692
0.185681
-0.0100893
0.0653734
0.312772
-0.00452162
-0.0147148
0.000976908
-0.0392587
0.0272626
-0.0494548
0.0662204
-0.0490472
-0.0135669
0.145161
-2.2933e-05
-0.0146919
0.00700553
-0.0462871
0.0225028
-0.0649521
0.0418173
-0.0683616
-0.0570473
0.0852976
0.00769831
-0.0223902
0.0265497
-0.0651385
0.0504302
-0.0888326
0.075002
-0.0929334
-0.0857831
0.103738
0.0151015
0.0423577
0.0673357
0.0836135
0.0906883
0.39209
1.07798
-1.1573
0.165681
0.867608
-0.641199
-0.0808006
0.529983
-0.283502
0.139213
-0.709703
0.48969
-0.623791
0.429184
0.357954
0.865189
0.0281098
1.19745
-0.0804886
0.638582
0.206771
-0.996962
-0.7573
0.382948
0.567538
0.0384113
1.54199
0.0196741
0.657319
0.27204
-1.24933
-0.853011
0.436667
0.234609
0.212023
1.76663
0.170746
0.698595
0.317145
-1.39573
-0.932293
0.440478
0.381288
0.301063
0.385661
-0.148713
0.741823
-0.59311
-0.297974
0.149262
-0.225525
-0.0724489
0.0644855
-0.290011
-0.179135
0.815106
-1.23058
0.323169
-0.0327818
0.166897
0.0960813
-0.0122716
-0.0838098
0.156524
-0.0604422
0.258689
-0.102166
0.411621
-0.152931
-0.18149
0.220939
-0.18003
0.342978
0.583857
0.932208
0.147176
-0.153833
0.185673
-0.179016
0.112523
-0.160382
0.195035
0.0732005
-0.169166
0.208489
0.0302522
-0.170062
0.21301
-0.120337
0.15059
0.191995
-0.1134
-0.232428
0.146086
-0.114473
0.0933579
-0.116439
0.0388428
-0.115547
-0.0814945
0.186835
-0.06203
-0.238205
0.134732
-0.06237
0.0829519
-0.0646582
0.0335774
-0.0661725
-0.0479172
0.204965
-0.0105081
-0.256487
0.152625
-0.0100297
0.0979188
-0.00995227
0.0415138
-0.0097675
-0.00640333
0.20809
-0.259458
0.154426
0.0981924
0.0411173
0.0492506
-0.357076
-0.0730581
0.0194614
-0.387706
-0.00603346
-0.400172
-0.0174094
-0.385632
-0.2481
0.137677
-0.322159
-0.172594
0.0921357
-0.342164
0.0458403
-0.353877
0.0100127
-0.349804
-0.238088
0.161418
-0.277419
-0.206158
0.113096
-0.293842
0.0665084
-0.30729
0.0241835
-0.307479
-0.213904
0.179512
-0.237322
-0.219609
0.132633
-0.246963
0.0825422
-0.257198
0.0336259
-0.258563
-0.180278
0.175879
-0.227529
0.123951
0.0752415
0.0296886
0.38867
0.103993
-0.0966833
0.391729
0.0786597
-0.0817188
0.359685
0.137605
-0.105561
0.312698
0.02686
0.0201274
-0.27284
0.406522
0.396412
0.103561
0.40584
0.0692323
0.397744
0.1457
0.353741
0.0708634
-0.151527
0.401598
0.0979418
0.415242
0.0555889
0.412166
0.148776
0.37584
0.107189
-0.0138916
0.40604
0.0878811
0.420178
0.0414508
0.422562
0.146393
0.392197
0.137554
0.121818
0.406975
0.42245
0.422924
0.395366
0.415404
0.0946474
0.338342
0.0770619
0.259902
0.0784402
0.274802
-0.0149008
-0.219098
0.493901
0.508015
0.503358
0.476237
0.481463
0.668887
0.395267
0.0986336
0.308096
0.0871709
0.206864
0.101232
0.120568
0.0862963
0.0367578
0.539992
0.407554
0.302628
0.21633
)
;

boundaryField
{
    left
    {
        type            calculated;
        value           nonuniform List<scalar> 
17
(
-0.60402
-0.60402
-0.60402
-0.60402
-0.60402
-0.39598
-0.39598
-0.39598
-0.39598
-0.39598
-0.39598
-0.39598
-0.39598
-0.39598
-0.39598
-0.510051
-0.510051
)
;
    }
    right
    {
        type            calculated;
        value           nonuniform List<scalar> 
17
(
0.24362
0.416946
0.33382
0.34028
0.367751
0.396427
0.425156
0.475265
0.515992
0.550458
0.590017
0.61096
0.930237
0.787743
0.68947
0.405181
-0.0793227
)
;
    }
    down
    {
        type            calculated;
        value           uniform 0;
    }
    up
    {
        type            calculated;
        value           uniform 0;
    }
    cylinder
    {
        type            calculated;
        value           uniform 0;
    }
    defaultFaces
    {
        type            empty;
    }
}


// ************************************************************************* //
