/*--------------------------------*- C++ -*----------------------------------*\
  =========                 |
  \\      /  F ield         | OpenFOAM: The Open Source CFD Toolbox
   \\    /   O peration     | Website:  https://openfoam.org
    \\  /    A nd           | Version:  13
     \\/     M anipulation  |
\*---------------------------------------------------------------------------*/
FoamFile
{
    format      ascii;
    class       volScalarField;
    location    "0.69";
    object      p;
}
// * * * * * * * * * * * * * * * * * * * * * * * * * * * * * * * * * * * * * //

dimensions      [0 2 -2 0 0 0 0];

internalField   nonuniform List<scalar> 
1800
(
-1.12647
-1.11932
-1.07974
-1.00271
-0.905468
-0.807219
-0.717112
-0.637091
-0.566398
-0.508617
-1.32143
-1.3132
-1.26737
-1.17953
-1.07009
-0.960356
-0.860077
-0.771533
-0.694914
-0.632027
-1.50682
-1.49709
-1.44429
-1.34522
-1.22369
-1.10266
-0.992196
-0.894491
-0.809222
-0.73689
-1.67774
-1.66597
-1.60572
-1.49566
-1.36308
-1.23228
-1.11328
-1.00799
-0.915863
-0.837103
-1.82823
-1.8138
-1.74545
-1.62449
-1.48166
-1.34207
-1.21539
-1.10322
-1.00479
-0.919593
-1.95363
-1.93601
-1.85932
-1.72812
-1.57642
-1.42966
-1.2969
-1.17934
-1.07594
-0.985849
-2.04891
-2.02755
-1.94238
-1.80176
-1.64267
-1.49032
-1.35295
-1.23132
-1.1242
-1.03033
-2.11024
-2.08476
-1.9914
-1.84257
-1.67781
-1.52162
-1.38121
-1.25692
-1.14731
-1.05084
-2.13436
-2.10457
-2.00356
-1.84798
-1.6794
-1.52113
-1.37925
-1.2537
-1.14289
-1.04499
-2.11918
-2.08515
-1.97732
-1.81674
-1.64627
-1.48763
-1.3458
-1.22032
-1.10943
-1.01113
0.315102
0.322022
0.333225
0.347329
0.360351
0.369845
0.375272
0.377107
0.376069
0.372752
0.266488
0.273227
0.28513
0.301159
0.317045
0.329757
0.338345
0.343121
0.344777
0.344064
0.190148
0.19667
0.209667
0.228652
0.248917
0.266525
0.279911
0.289146
0.294884
0.298141
0.0874014
0.0938947
0.108377
0.131326
0.157419
0.181497
0.201194
0.216268
0.227338
0.2358
-0.0395821
-0.0332534
-0.0167725
0.0111664
0.0444533
0.0764335
0.103784
0.125899
0.143372
0.158095
-0.188488
-0.182048
-0.16316
-0.129269
-0.0875487
-0.0464333
-0.0103102
0.0198201
0.0445472
0.0663551
-0.355713
-0.349432
-0.327629
-0.286888
-0.235703
-0.18451
-0.138805
-0.0999858
-0.0674217
-0.0380538
-0.537463
-0.531328
-0.506163
-0.457875
-0.396588
-0.334861
-0.279264
-0.231574
-0.19102
-0.154225
-0.729812
-0.723366
-0.694143
-0.637431
-0.565337
-0.492623
-0.426906
-0.370284
-0.321718
-0.278046
-0.927416
-0.920785
-0.886764
-0.820337
-0.736015
-0.650863
-0.57349
-0.50618
-0.447757
-0.396657
0.338372
0.268586
0.210876
0.166847
0.131977
0.103156
0.07783
0.0545526
0.0324065
0.0107826
0.326002
0.26262
0.20838
0.165471
0.130934
0.102291
0.0771346
0.0540395
0.0320832
0.0106582
0.305766
0.252662
0.204193
0.163407
0.12962
0.10133
0.0764222
0.0535393
0.0317755
0.0105393
0.27712
0.238806
0.198298
0.160621
0.128018
0.100262
0.0756839
0.0530456
0.0314794
0.0104248
0.239306
0.221216
0.190681
0.157076
0.126108
0.0990757
0.0749116
0.052552
0.0311914
0.0103142
0.19152
0.200145
0.181343
0.152729
0.123869
0.0977622
0.0740978
0.0520527
0.0309083
0.0102072
0.133088
0.176034
0.170409
0.147572
0.121283
0.0963128
0.0732365
0.0515424
0.0306268
0.0101039
0.0626049
0.148805
0.158035
0.141644
0.11835
0.0947264
0.072325
0.0510174
0.0303452
0.0100048
-0.0217607
0.116977
0.143679
0.134693
0.114939
0.092944
0.071338
0.0504654
0.0300582
0.00991119
-0.114633
0.0811622
0.127692
0.126841
0.111029
0.0909274
0.0702487
0.0498695
0.0297559
0.00982268
-0.167991
0.0490745
0.109001
0.115687
0.104414
0.0869341
0.0677893
0.0483766
0.0289655
0.00961887
-0.182997
0.0162227
0.0827452
0.0981051
0.0933661
0.0800365
0.0634585
0.0457216
0.0275277
0.00916749
-0.181364
-0.00348581
0.0643068
0.0839372
0.0835364
0.0735487
0.0592683
0.0431173
0.0261021
0.00871566
-0.176457
-0.0205278
0.0472341
0.0705879
0.0741116
0.0672443
0.0551669
0.0405579
0.0246922
0.00826285
-0.167506
-0.0324205
0.0331932
0.0588474
0.0654734
0.0613246
0.0512681
0.0381078
0.0233318
0.00782129
-0.157791
-0.0412614
0.0213693
0.0485433
0.0576846
0.0558898
0.0476514
0.0358195
0.0220504
0.0074002
-0.149374
-0.0480634
0.0114379
0.0396368
0.0508234
0.0510367
0.0443934
0.0337431
0.0208736
0.00700621
-0.143875
-0.0540481
0.00294204
0.0320464
0.0449518
0.0468576
0.0415724
0.0319334
0.0198319
0.00665243
-0.139333
-0.0593094
-0.0044895
0.0255179
0.0399376
0.0432918
0.0391578
0.0303701
0.0188994
0.00631589
-0.145844
-0.0656129
-0.0101769
0.0212009
0.0367632
0.0410583
0.0376521
0.029398
0.0183123
0.00610414
-0.845472
-0.878473
-0.887884
-0.874933
-0.841545
-0.789957
-0.724132
-0.644693
-0.558812
-0.465277
-0.66741
-0.70006
-0.713885
-0.710174
-0.689568
-0.655255
-0.608971
-0.552776
-0.492694
-0.429386
-0.531268
-0.563252
-0.579477
-0.581409
-0.568707
-0.545574
-0.511498
-0.470229
-0.424942
-0.376187
-0.426507
-0.457897
-0.47559
-0.481096
-0.473782
-0.457821
-0.431842
-0.40032
-0.364616
-0.326183
-0.347116
-0.37781
-0.396456
-0.404241
-0.400702
-0.389433
-0.369208
-0.3444
-0.31546
-0.284153
-0.286711
-0.317106
-0.336594
-0.346034
-0.345291
-0.337238
-0.321114
-0.300842
-0.276469
-0.249857
-0.242076
-0.272497
-0.292749
-0.303451
-0.304778
-0.298965
-0.285729
-0.268489
-0.247296
-0.223847
-0.210167
-0.241398
-0.26264
-0.274458
-0.277359
-0.273134
-0.26186
-0.24658
-0.227483
-0.20647
-0.194174
-0.224933
-0.247027
-0.260256
-0.264622
-0.261546
-0.251205
-0.236146
-0.217029
-0.193972
-0.18288
-0.216305
-0.240662
-0.256315
-0.263666
-0.263652
-0.256748
-0.244544
-0.227371
-0.204764
0.489886
0.43685
0.37541
0.308955
0.235828
0.153641
0.0621796
-0.0327635
-0.111933
-0.1464
0.295369
0.238301
0.173391
0.10098
0.0191164
-0.0740661
-0.1781
-0.286027
-0.375741
-0.414113
0.0848582
0.0233087
-0.046085
-0.12418
-0.213048
-0.314508
-0.427952
-0.545897
-0.644569
-0.685473
-0.114155
-0.18223
-0.25874
-0.344801
-0.442392
-0.553323
-0.676829
-0.804754
-0.912803
-0.954762
-0.29629
-0.37196
-0.456614
-0.551606
-0.658958
-0.780503
-0.915209
-1.05333
-1.17043
-1.21191
-0.463306
-0.545974
-0.63825
-0.741754
-0.858562
-0.990398
-1.13632
-1.28565
-1.40633
-1.44821
-0.615116
-0.703402
-0.802098
-0.912979
-1.03813
-1.17917
-1.33464
-1.49397
-1.61288
-1.65644
-0.748722
-0.841356
-0.945214
-1.0621
-1.19402
-1.34244
-1.50631
-1.66817
-1.78727
-1.83062
-0.860219
-0.956287
-1.0641
-1.18546
-1.32255
-1.47646
-1.64478
-1.80838
-1.9257
-1.96703
-0.948332
-1.04634
-1.15645
-1.28067
-1.421
-1.57828
-1.74869
-1.91208
-2.02548
-2.06351
1.66445
1.67873
1.69484
1.711
1.72614
1.73965
1.75076
1.75902
1.76567
1.77113
1.61179
1.62405
1.63767
1.65098
1.66298
1.67302
1.68032
1.68466
1.68796
1.69157
1.53893
1.54836
1.55844
1.56767
1.57516
1.5802
1.58202
1.58072
1.5792
1.58022
1.44638
1.45229
1.45787
1.4619
1.46363
1.46229
1.45708
1.44854
1.44083
1.4386
1.33504
1.3369
1.33723
1.33513
1.33001
1.32105
1.30745
1.29023
1.27506
1.26898
1.20659
1.20403
1.19844
1.1893
1.17629
1.15852
1.13522
1.10799
1.08426
1.07392
1.06362
1.05644
1.04453
1.02776
1.00608
0.978563
0.944495
0.906143
0.872838
0.85787
0.91274
0.900131
0.880392
0.854311
0.822344
0.783502
0.737159
0.686329
0.642537
0.622794
0.759191
0.741132
0.712918
0.67649
0.63299
0.581399
0.52126
0.456522
0.401215
0.376403
0.616921
0.583878
0.540109
0.48961
0.432695
0.367397
0.293061
0.214321
0.147569
0.117897
1.50474
1.4099
1.5149
1.40895
1.43775
1.44309
1.4495
1.47465
1.51851
1.60511
1.49892
1.40473
1.5099
1.403
1.43116
1.43497
1.43908
1.46051
1.49773
1.57078
1.49356
1.39963
1.50513
1.39645
1.42418
1.42609
1.42716
1.44371
1.47157
1.52472
1.48865
1.39463
1.50062
1.38932
1.41685
1.41644
1.41372
1.42414
1.44005
1.46647
1.48419
1.38978
1.49635
1.38166
1.40922
1.40598
1.39876
1.40165
1.40317
1.39534
1.4802
1.38514
1.49229
1.3735
1.40132
1.3947
1.38224
1.37611
1.36092
1.3107
1.47664
1.38076
1.48838
1.36492
1.39319
1.38252
1.36411
1.34745
1.31298
1.21144
1.47355
1.37672
1.48452
1.35603
1.38483
1.36941
1.34428
1.31553
1.25908
1.0998
1.47092
1.3731
1.48059
1.347
1.37625
1.3554
1.32278
1.28015
1.1981
0.972659
1.46907
1.37003
1.4764
1.33799
1.36735
1.34055
1.29997
1.2428
1.13301
0.843288
1.46693
1.36663
1.47107
1.32914
1.35456
1.32161
1.27037
1.19534
1.05988
0.722608
1.46688
1.36292
1.46624
1.32086
1.33974
1.30133
1.23962
1.1501
0.998256
0.679926
1.4684
1.36004
1.4623
1.31316
1.32617
1.28251
1.21173
1.1113
0.949135
0.647936
1.47211
1.3583
1.45908
1.3063
1.31396
1.26547
1.18702
1.07864
0.909295
0.626189
1.47832
1.35782
1.45653
1.30044
1.30329
1.25054
1.16586
1.05177
0.878276
0.613349
1.48751
1.35864
1.4546
1.29562
1.29431
1.23793
1.14842
1.03037
0.855133
0.606371
1.49989
1.36041
1.45314
1.2918
1.28712
1.22778
1.13471
1.01405
0.838697
0.603568
1.5199
1.36437
1.45279
1.28901
1.28184
1.22019
1.12474
1.00249
0.82799
0.604288
1.53499
1.36382
1.44981
1.28701
1.27864
1.21524
1.11853
0.995534
0.821985
0.608175
1.5902
1.37371
1.452
1.28473
1.27818
1.21262
1.11563
0.992119
0.819533
0.610701
0.460915
0.294241
0.110652
-0.0602648
-0.215497
-0.359291
-0.492134
-0.610593
-0.710546
-0.789143
0.399825
0.271718
0.131444
-0.0037552
-0.129685
-0.24808
-0.358915
-0.459211
-0.545893
-0.615904
0.373433
0.269731
0.158926
0.0470383
-0.0604607
-0.162215
-0.257928
-0.34538
-0.421626
-0.484285
0.369973
0.278644
0.184523
0.0880922
-0.00605431
-0.0952392
-0.179272
-0.256726
-0.325001
-0.382011
0.376687
0.293046
0.20985
0.124792
0.0403051
-0.0405509
-0.117049
-0.18804
-0.251296
-0.304865
0.387894
0.309699
0.233491
0.155851
0.0777685
0.00246242
-0.06887
-0.135287
-0.194892
-0.245817
0.400114
0.325945
0.254422
0.18169
0.107909
0.0362954
-0.0316656
-0.0951205
-0.152405
-0.201813
0.412137
0.340545
0.2721
0.202376
0.131123
0.0616568
-0.00436204
-0.0660975
-0.121963
-0.170319
0.426271
0.356473
0.289137
0.219867
0.148822
0.0794079
0.0133413
-0.0485151
-0.104726
-0.153721
0.439895
0.373624
0.306975
0.237018
0.165751
0.0960771
0.0293376
-0.0333854
-0.09057
-0.14075
-3.18674
-3.12786
-2.97666
-2.7801
-2.58634
-2.41543
-2.27061
-2.15045
-2.05371
-1.98066
-3.2721
-3.22407
-3.08967
-2.90121
-2.70766
-2.53403
-2.38615
-2.26321
-2.16468
-2.09187
-3.25912
-3.22254
-3.1068
-2.92825
-2.73469
-2.5571
-2.40498
-2.27842
-2.17677
-2.1011
-3.15251
-3.12706
-3.02953
-2.86125
-2.66704
-2.48393
-2.32585
-2.19432
-2.08831
-2.00742
-2.96005
-2.94455
-2.86299
-2.70523
-2.51118
-2.32283
-2.15857
-2.02171
-1.91124
-1.82505
-2.69188
-2.68401
-2.61528
-2.46904
-2.27886
-2.08909
-1.92154
-1.78144
-1.66806
-1.57987
-2.363
-2.35995
-2.30157
-2.16899
-1.98935
-1.80578
-1.64141
-1.50309
-1.39004
-1.30317
-1.99805
-1.99579
-1.94539
-1.82858
-1.6667
-1.4982
-1.34517
-1.21516
-1.10794
-1.0261
-1.62373
-1.6205
-1.57685
-1.47744
-1.33881
-1.19287
-1.05894
-0.944224
-0.848836
-0.77923
-1.26442
-1.25987
-1.22252
-1.14029
-1.02627
-0.905522
-0.793656
-0.696581
-0.61285
-0.549229
-0.937729
-0.931067
-0.899824
-0.833467
-0.743028
-0.647816
-0.560194
-0.485284
-0.421966
-0.367529
-0.650414
-0.642965
-0.616879
-0.563948
-0.493469
-0.420008
-0.352853
-0.295696
-0.248052
-0.204874
-0.403616
-0.39608
-0.374162
-0.331984
-0.277334
-0.22114
-0.170211
-0.126995
-0.0912572
-0.0584026
-0.195858
-0.188454
-0.169903
-0.136458
-0.0946796
-0.0527309
-0.0154613
0.015632
0.0408671
0.0637015
-0.0249615
-0.0177783
-0.00189435
0.0245583
0.0560084
0.0864168
0.112484
0.133435
0.149741
0.163788
0.111224
0.118123
0.132017
0.153137
0.176675
0.198181
0.215537
0.228499
0.237655
0.244605
0.214198
0.221048
0.233494
0.250758
0.26855
0.283552
0.294497
0.301522
0.305289
0.306882
0.285205
0.292149
0.30363
0.318365
0.332368
0.343053
0.349716
0.352744
0.352845
0.350784
0.325209
0.332225
0.343201
0.356619
0.368636
0.377036
0.381417
0.382298
0.380411
0.376347
0.334945
0.341958
0.352849
0.366073
0.377787
0.38582
0.389819
0.390332
0.38809
0.383636
-0.0499844
0.112321
0.145731
0.144485
0.129935
0.109208
0.0860608
0.0619579
0.0374085
0.0125722
0.0549993
0.14741
0.160347
0.150575
0.131217
0.108666
0.0849866
0.0609275
0.0367013
0.0123286
0.138608
0.175785
0.172111
0.154648
0.132093
0.108103
0.0839853
0.0599773
0.036051
0.012103
0.201392
0.199758
0.182446
0.158509
0.132808
0.107558
0.0830614
0.0591047
0.0354538
0.0118944
0.249492
0.220688
0.191403
0.161659
0.133312
0.107013
0.0822018
0.0583015
0.0349053
0.0117009
0.286005
0.2383
0.198703
0.164113
0.133618
0.106462
0.0813973
0.0575611
0.0344013
0.0115212
0.312615
0.252246
0.204374
0.165921
0.133725
0.105892
0.0806373
0.0568765
0.033938
0.0113539
0.330566
0.262363
0.208438
0.167096
0.133624
0.10529
0.0799111
0.0562405
0.033511
0.0111976
0.340634
0.268455
0.210884
0.167644
0.133308
0.104643
0.0792081
0.055646
0.0331163
0.0110511
0.343208
0.270531
0.211703
0.167565
0.132763
0.103936
0.0785179
0.0550858
0.0327495
0.0109131
-0.265391
-0.0112256
0.0861024
0.116822
0.118901
0.105783
0.0857851
0.0627545
0.0383018
0.012986
-0.242342
0.0113303
0.0951806
0.121082
0.120074
0.106068
0.0857699
0.0626415
0.0381764
0.0129289
-0.200551
0.0288926
0.103522
0.124893
0.121783
0.106633
0.0858364
0.0625334
0.0380384
0.0128618
-0.159213
0.0522791
0.115218
0.130425
0.124238
0.107563
0.0860626
0.0624905
0.0379301
0.0128052
-0.115279
0.08295
0.13163
0.138442
0.127727
0.108823
0.0864315
0.0625072
0.0378497
0.0127594
-1.91655
-2.02351
-2.04112
-1.97108
-1.82215
-1.63121
-1.38901
-1.1592
-0.919214
-0.695027
-1.91399
-2.01887
-2.03147
-1.95597
-1.80359
-1.60984
-1.36477
-1.12792
-0.894349
-0.670225
-1.91585
-2.0211
-2.03052
-1.94887
-1.78889
-1.58229
-1.32975
-1.07573
-0.837895
-0.62543
-1.92529
-2.03286
-2.04065
-1.95201
-1.78083
-1.55416
-1.28969
-1.02126
-0.786334
-0.588507
-1.94366
-2.05399
-2.06039
-1.96475
-1.78151
-1.5372
-1.26193
-0.988277
-0.748355
-0.538266
1.08816
1.06594
1.03542
0.999895
0.959741
0.913059
0.858572
0.799374
0.74864
0.724835
1.21644
1.21003
1.19573
1.17523
1.14956
1.11768
1.07869
1.03521
0.997982
0.981022
1.34154
1.34039
1.33413
1.32348
1.30886
1.28935
1.26406
1.23479
1.20978
1.19898
1.45134
1.45508
1.45617
1.45431
1.44934
1.44042
1.4267
1.4093
1.39432
1.38859
1.54395
1.55155
1.55804
1.56273
1.56514
1.56446
1.55986
1.55195
1.54511
1.54371
1.61635
1.6272
1.63819
1.64824
1.65661
1.66256
1.66528
1.66492
1.66447
1.6664
1.66782
1.68114
1.69551
1.70953
1.72231
1.73316
1.7413
1.74653
1.7508
1.75519
1.69832
1.71327
1.72987
1.74651
1.76219
1.77626
1.78795
1.79682
1.80412
1.81009
1.70788
1.72353
1.74116
1.75902
1.77605
1.79162
1.80498
1.81556
1.82425
1.83092
1.69656
1.71199
1.72945
1.74713
1.76396
1.77933
1.79248
1.80284
1.81131
1.8178
-1.77922
-1.85423
-1.95001
-2.06735
-2.20882
-2.37669
-2.56974
-2.77139
-2.93541
-3.00307
-1.50216
-1.57967
-1.67506
-1.78969
-1.92716
-2.09004
-2.27809
-2.48338
-2.65558
-2.72776
-1.17039
-1.24931
-1.34429
-1.45642
-1.58934
-1.74603
-1.92687
-2.12153
-2.30306
-2.37598
-0.808349
-0.887588
-0.981458
-1.09042
-1.21757
-1.36604
-1.53651
-1.7217
-1.89407
-1.97037
-0.442185
-0.521162
-0.612543
-0.716434
-0.835644
-0.973475
-1.13133
-1.30271
-1.45901
-1.53221
-0.0993409
-0.174831
-0.260244
-0.355568
-0.463553
-0.587578
-0.729225
-0.882447
-1.02026
-1.08702
0.20601
0.139148
0.0641054
-0.0190366
-0.112979
-0.220975
-0.344449
-0.477692
-0.596149
-0.654131
0.480765
0.425154
0.362344
0.29245
0.212771
0.120335
0.0141501
-0.100195
-0.200384
-0.249181
0.739915
0.693166
0.639104
0.578934
0.510152
0.430174
0.338466
0.240481
0.156265
0.115998
0.966644
0.925167
0.874939
0.821001
0.761706
0.694508
0.618518
0.538127
0.470023
0.438018
1.59951
1.45956
1.56206
1.42873
1.48132
1.47883
1.47535
1.47525
1.43916
1.27916
1.58561
1.45535
1.55958
1.42983
1.47857
1.4792
1.47761
1.4857
1.47085
1.3647
1.57306
1.45078
1.55614
1.43044
1.47549
1.47878
1.48035
1.49536
1.49829
1.45043
1.56172
1.44596
1.55192
1.43044
1.47209
1.47745
1.48143
1.50186
1.51901
1.51593
1.5514
1.44097
1.54712
1.42972
1.46837
1.47514
1.48111
1.50574
1.53409
1.56717
1.54195
1.43589
1.54194
1.4282
1.46429
1.4719
1.47943
1.50699
1.54406
1.60414
1.53328
1.43074
1.53653
1.42588
1.45983
1.46778
1.47635
1.50561
1.54918
1.62799
1.52528
1.42555
1.53102
1.42275
1.45497
1.46281
1.47184
1.50166
1.54931
1.63958
1.51789
1.42033
1.52552
1.41887
1.44967
1.45702
1.46587
1.49519
1.54423
1.63949
1.51106
1.41511
1.52013
1.41425
1.44393
1.45044
1.45843
1.48619
1.53399
1.62797
1.7364
1.47397
1.56708
1.42737
1.48351
1.47176
1.45615
1.4295
1.33994
1.13683
1.67889
1.46797
1.56536
1.42912
1.48241
1.47333
1.45761
1.43288
1.34687
1.14125
1.65731
1.46958
1.56646
1.42963
1.48259
1.47458
1.46052
1.43931
1.36084
1.15153
1.63431
1.46714
1.56544
1.42942
1.48269
1.47592
1.46456
1.44853
1.37974
1.17195
1.61526
1.46355
1.56386
1.42862
1.48265
1.47723
1.4691
1.45995
1.40369
1.19435
0.781736
0.627058
0.423776
0.157687
-0.158304
-0.498586
-0.840928
-1.17293
-1.47829
-1.73166
0.78128
0.627546
0.431218
0.174784
-0.132408
-0.469967
-0.816101
-1.15439
-1.46656
-1.72628
0.801544
0.643063
0.443671
0.193311
-0.106408
-0.443929
-0.796554
-1.14182
-1.45993
-1.72497
0.853343
0.67629
0.461813
0.210784
-0.0848655
-0.42307
-0.782331
-1.13519
-1.45935
-1.72993
0.9335
0.727239
0.487591
0.226867
-0.07046
-0.40991
-0.773862
-1.13358
-1.46468
-1.74238
)
;

boundaryField
{
    left
    {
        type            zeroGradient;
    }
    right
    {
        type            fixedValue;
        value           uniform 0;
    }
    down
    {
        type            zeroGradient;
    }
    up
    {
        type            zeroGradient;
    }
    cylinder
    {
        type            zeroGradient;
    }
    defaultFaces
    {
        type            empty;
    }
}


// ************************************************************************* //
