/*--------------------------------*- C++ -*----------------------------------*\
  =========                 |
  \\      /  F ield         | OpenFOAM: The Open Source CFD Toolbox
   \\    /   O peration     | Website:  https://openfoam.org
    \\  /    A nd           | Version:  13
     \\/     M anipulation  |
\*---------------------------------------------------------------------------*/
FoamFile
{
    format      ascii;
    class       surfaceScalarField;
    location    "0.685";
    object      phi;
}
// * * * * * * * * * * * * * * * * * * * * * * * * * * * * * * * * * * * * * //

dimensions      [0 3 -1 0 0 0 0];

internalField   nonuniform List<scalar> 
3485
(
0.00216224
-0.0049214
0.00275917
0.00868179
-0.0535499
0.0470303
0.0180298
-0.104647
0.0952988
0.0283678
-0.13533
0.124992
0.0386724
-0.147507
0.137202
0.0485978
-0.149498
0.139572
0.0580878
-0.147247
0.137757
0.0671401
-0.143618
0.134566
0.0757232
-0.139597
0.131013
-0.135345
0.126997
0.0840712
0.00263809
-0.00755949
0.00963034
-0.0605421
0.0190281
-0.114045
0.0290443
-0.145346
0.0388746
-0.157337
0.0483778
-0.159001
0.057654
-0.156523
0.0668428
-0.152807
0.0761473
-0.148901
-0.145107
0.0859101
0.0030575
-0.010617
0.0103823
-0.0678669
0.0195888
-0.123251
0.0289363
-0.154694
0.0378007
-0.166201
0.0461639
-0.167364
0.054163
-0.164522
0.0619137
-0.160558
0.0694878
-0.156475
-0.15246
0.0768407
0.0034922
-0.0141092
0.0111098
-0.0754846
0.0200817
-0.132223
0.0287774
-0.16339
0.0368045
-0.174228
0.0443128
-0.174872
0.0515241
-0.171734
0.0585842
-0.167618
0.0655734
-0.163465
-0.159522
0.0726351
0.00383818
-0.0179474
0.011558
-0.0832044
0.0200549
-0.14072
0.0278408
-0.171176
0.0347536
-0.181141
0.0410856
-0.181204
0.047117
-0.177765
0.0530092
-0.17351
0.0588499
-0.169305
-0.165353
0.0646808
0.00412557
-0.0220729
0.011795
-0.0908738
0.0196665
-0.148591
0.0264506
-0.17796
0.0322232
-0.186914
0.0374062
-0.186387
0.042324
-0.182683
0.04714
-0.178326
0.0519243
-0.17409
-0.170159
0.0567299
0.00429767
-0.0263706
0.0116987
-0.0982749
0.0187333
-0.155626
0.0243554
-0.183582
0.0288691
-0.191428
0.0328021
-0.19032
0.0365076
-0.186389
0.0401484
-0.181967
0.0437902
-0.177731
-0.17383
0.0474611
0.00434814
-0.0307187
0.0112678
-0.105195
0.0172844
-0.161642
0.0216424
-0.18794
0.0248469
-0.194632
0.0275002
-0.192973
0.0299633
-0.188852
0.0323875
-0.184391
0.0348267
-0.180171
-0.176302
0.0372991
0.00425205
-0.0349708
0.0104679
-0.11141
0.0153011
-0.166476
0.0183167
-0.190955
0.0201734
-0.196489
0.0215257
-0.194326
0.0227274
-0.190053
0.023915
-0.185578
0.0251338
-0.18139
-0.177559
0.0263905
0.0040104
-0.0389812
0.00932539
-0.116725
0.0128569
-0.170007
0.0144808
-0.192579
0.0149743
-0.196982
0.0150261
-0.194377
0.0149675
-0.189995
0.0149169
-0.185528
0.0149107
-0.181383
0.0149495
-0.177597
-0.000730419
0.000320376
0.000410043
0.00219958
-0.00757378
0.00464378
0.0101253
-0.0170963
0.00917053
0.0215167
-0.0234316
0.0120403
0.0345579
-0.026343
0.0133018
0.0480967
-0.0271456
0.0136068
0.0615761
-0.0269494
0.0134701
0.0747763
-0.0263696
0.0131694
0.0876376
-0.0256895
0.0128282
-0.0252065
0.100331
0.012513
-0.000642613
0.000962989
0.00241312
-0.0106295
0.0104103
-0.0250935
0.0217989
-0.0348202
0.034781
-0.0393251
0.0482276
-0.0405923
0.0615991
-0.0403209
0.074686
-0.0394566
0.0874361
-0.0384396
-0.0377918
0.100021
-0.000514754
0.00147774
0.00272011
-0.0138644
0.0108228
-0.0331962
0.0222134
-0.0462108
0.035118
-0.0522297
0.0484404
-0.0539146
0.0616645
-0.053545
0.074595
-0.0523872
0.0871894
-0.051034
-0.0502231
0.0996206
-0.000337374
0.00181512
0.0031426
-0.0173444
0.0113918
-0.0414454
0.0227899
-0.0576089
0.0355971
-0.0650368
0.0487613
-0.0670789
0.0617986
-0.0665823
0.0745321
-0.0651206
0.0869306
-0.0634325
-0.0624573
0.0991648
-0.000117257
0.00193237
0.00369207
-0.0211537
0.0121365
-0.0498898
0.0235487
-0.0690211
0.0362377
-0.0777258
0.0492112
-0.0800524
0.0620274
-0.0793985
0.0745322
-0.0776254
0.0867068
-0.0756072
-0.074459
0.0987085
0.000163661
0.00176871
0.00438293
-0.0253729
0.0130629
-0.0585698
0.0244862
-0.0804445
0.0370296
-0.0902692
0.0497786
-0.0928014
0.0623453
-0.0919652
0.0746043
-0.0898843
0.0865466
-0.0875494
-0.0861968
0.0982844
0.000523072
0.00124564
0.00521308
-0.030063
0.0141464
-0.0675031
0.0255555
-0.0918536
0.0379044
-0.102618
0.0503778
-0.105275
0.0626577
-0.104245
0.0746565
-0.101883
0.0863694
-0.0992623
-0.0976167
0.0977893
0.000931073
0.000314566
0.00613436
-0.0352662
0.0153035
-0.0766722
0.026631
-0.103181
0.0386908
-0.114678
0.0507864
-0.11737
0.0626821
-0.116141
0.0743356
-0.113537
0.0857384
-0.110665
-0.108533
0.0966544
0.00134417
-0.0010296
0.0070258
-0.0409479
0.0163349
-0.0859813
0.0274385
-0.114285
0.039036
-0.126275
0.050554
-0.128888
0.0618316
-0.127418
0.0728582
-0.124563
0.0835996
-0.121407
-0.118481
0.0935478
0.00172956
0.00781199
0.0171296
0.0278371
0.0387635
0.0494472
0.059786
0.0697887
0.0793956
0.0879115
0.154336
-0.154507
0.100502
0.181118
-0.109576
0.082794
0.194565
-0.0818946
0.0684472
0.201208
-0.0619626
0.0553196
0.204224
-0.0467417
0.0437261
0.205176
-0.0347505
0.0337983
0.20492
-0.0251707
0.0254262
0.203923
-0.0173324
0.0183298
0.202469
-0.0112715
0.012725
-0.00344684
0.00535066
0.153174
-0.20766
0.180113
-0.136515
0.193852
-0.0956333
0.200749
-0.0688596
0.203964
-0.049957
0.205077
-0.0358627
0.204956
-0.0250497
0.20408
-0.0164568
0.202743
-0.00993424
-0.00166488
0.151222
-0.259261
0.178219
-0.163513
0.192301
-0.109715
0.199547
-0.0761055
0.203073
-0.0534831
0.204468
-0.037257
0.204608
-0.0251902
0.203984
-0.0158328
0.202896
-0.00884596
-0.000140825
0.148463
-0.308559
0.175424
-0.190474
0.189911
-0.124202
0.197605
-0.0837996
0.201555
-0.0574332
0.203352
-0.0390543
0.203881
-0.0257183
0.203638
-0.0155906
0.20293
-0.00813815
0.000991638
0.144895
-0.354745
0.171717
-0.217297
0.186683
-0.139168
0.194928
-0.0920452
0.199416
-0.0619214
0.201737
-0.0413746
0.202776
-0.0267579
0.203043
-0.0158567
0.202845
-0.00794011
0.00159917
0.140499
-0.396959
0.167075
-0.243873
0.182618
-0.154711
0.191526
-0.100953
0.196668
-0.0670638
0.19963
-0.0443362
0.201302
-0.0284305
0.2022
-0.0167541
0.202639
-0.00837978
0.00154893
0.135197
-0.434367
0.161431
-0.270106
0.177698
-0.170978
0.187403
-0.110658
0.193322
-0.0729828
0.197043
-0.0480574
0.199467
-0.0308542
0.201116
-0.0184033
0.202313
-0.00957708
0.00071765
0.128926
-0.466639
0.154648
-0.295828
0.171838
-0.188168
0.182539
-0.12136
0.189381
-0.0798244
0.193985
-0.0526616
0.197278
-0.0341471
0.199796
-0.0209214
0.201871
-0.0116517
-0.00101991
0.121808
-0.494899
0.146614
-0.320634
0.164839
-0.206393
0.176821
-0.133342
0.184801
-0.0878053
0.190446
-0.0583061
0.194738
-0.0384391
0.198243
-0.0244263
0.20131
-0.0147188
-0.00378208
0.114847
-0.521834
0.138647
-0.344435
0.157095
-0.22484
0.170275
-0.146522
0.17955
-0.0970805
0.186406
-0.0651624
0.191842
-0.0438755
0.196458
-0.0290413
0.200633
-0.0188942
-0.00768365
0.378723
-0.461194
-0.439363
0.34691
-0.312622
0.330793
-0.208723
0.323072
-0.1388
0.319042
-0.0930505
0.316636
-0.0627565
0.315041
-0.0422809
0.313954
-0.0279545
0.313218
-0.018158
-0.00737332
0.390964
-0.390882
-0.461276
0.356026
-0.277683
0.338399
-0.191096
0.328917
-0.129319
0.323224
-0.0873575
0.319559
-0.0590913
0.317104
-0.0398256
0.315459
-0.0263098
0.314376
-0.017075
-0.00692761
0.40694
-0.325747
-0.472075
0.369335
-0.240079
0.347726
-0.169486
0.33518
-0.116773
0.327434
-0.0796122
0.322423
-0.0540804
0.319098
-0.0365
0.3169
-0.0241124
0.315472
-0.0156463
-0.00634633
0.41711
-0.265423
-0.477434
0.378964
-0.201933
0.355271
-0.145793
0.340582
-0.102085
0.331191
-0.070221
0.325024
-0.0479132
0.320922
-0.032398
0.31822
-0.0214105
0.316471
-0.0138975
-0.00563933
0.424264
-0.210018
-0.479668
0.386499
-0.164168
0.361501
-0.120795
0.345191
-0.0857748
0.33446
-0.0594893
0.327311
-0.0407649
0.322534
-0.0276211
0.319392
-0.0182681
0.31736
-0.011865
-0.00481661
0.429174
-0.159091
-0.480101
0.392192
-0.127186
0.366446
-0.0950492
0.348967
-0.0682957
0.337189
-0.0477111
0.329245
-0.0328215
0.323907
-0.0222823
0.320389
-0.0147506
0.318112
-0.00958814
-0.00389445
0.432416
-0.111843
-0.479664
0.39631
-0.0910792
0.370181
-0.0689207
0.351899
-0.0500131
0.33934
-0.0351524
0.330783
-0.0242643
0.325004
-0.0165034
0.321188
-0.0109352
0.318712
-0.00711182
-0.00288852
0.433988
-0.0669077
-0.478923
0.398646
-0.0557371
0.372428
-0.0427026
0.353695
-0.0312805
0.340639
-0.0220964
0.331672
-0.0152971
0.325592
-0.0104232
0.32157
-0.00691343
0.318954
-0.00449621
-0.00182461
0.426991
-0.0206756
-0.473224
0.392373
-0.0211191
0.366906
-0.0172348
0.34857
-0.0129453
0.335691
-0.00921662
0.326799
-0.00640595
0.320754
-0.00437777
0.316755
-0.00291471
0.31415
-0.00189116
-0.000762528
0.312897
-0.333572
0.291778
0.274543
0.261598
0.252381
0.245975
0.241597
0.238683
0.236791
0.471623
0.0131371
-0.46981
0.472659
0.0253537
0.472804
0.0371545
0.471972
0.048293
0.469739
0.0589633
0.467066
0.0673535
0.460845
0.0788563
0.457412
0.0802734
0.445635
0.0976869
0.0903435
0.452793
0.0113787
-0.451034
0.45462
0.023526
0.456419
0.0353559
0.458257
0.0464546
0.459595
0.0576252
0.46137
0.0655789
0.461552
0.0786742
0.462685
0.0791405
0.463521
0.0968514
0.0925877
0.436512
0.00960025
-0.434733
0.438925
0.0211128
0.44188
0.0324007
0.445396
0.0429388
0.449262
0.053759
0.453502
0.061339
0.458292
0.0738843
0.46225
0.0751825
0.468391
0.0907109
0.0889031
0.424052
0.00783088
-0.422282
0.426806
0.0183584
0.430493
0.028714
0.435053
0.0383788
0.440548
0.0482637
0.446442
0.0554449
0.453932
0.0663944
0.460444
0.0686708
0.469742
0.081412
0.0812116
0.414303
0.00607033
-0.412543
0.417302
0.0153598
0.421513
0.0245035
0.426823
0.0330681
0.433392
0.0416945
0.440568
0.0482695
0.449638
0.0573246
0.458166
0.060143
0.469377
0.0702006
0.07092
0.406941
0.00429522
-0.405166
0.410126
0.0121741
0.414699
0.019931
0.420539
0.0272277
0.427788
0.034446
0.435881
0.0401764
0.445838
0.0473679
0.455742
0.0502383
0.468066
0.0578768
0.0588851
0.401573
0.00247942
-0.399757
0.404922
0.00882531
0.409772
0.0150807
0.416008
0.0209922
0.423703
0.0267506
0.432429
0.0314505
0.442882
0.0369148
0.453691
0.0394289
0.466593
0.0449754
0.0458134
0.396853
0.000423364
-0.394797
0.400492
0.00518587
0.405734
0.00983859
0.412458
0.0142687
0.420647
0.0185616
0.429968
0.0221297
0.440796
0.0260869
0.452227
0.027997
0.465419
0.0317839
0.0323091
0.37799
-0.00151358
-0.376053
0.382134
0.00104208
0.388324
0.00364819
0.396392
0.00620091
0.406221
0.00873274
0.417406
0.0109443
0.430113
0.0133806
0.443435
0.0146748
0.458196
0.0170223
0.017282
0.240644
-0.242158
0.241687
0.245335
0.251536
0.260268
0.271213
0.284593
0.299268
0.31629
0.0784078
0.127745
-0.115459
-0.0906936
0.0671403
0.12965
-0.118383
0.0568038
0.132431
-0.122095
0.0469053
0.13612
-0.126222
0.0370696
0.140233
-0.130398
0.027161
0.144139
-0.13423
0.0173877
0.145603
-0.13583
0.00857192
0.13774
-0.128924
0.00227829
0.108201
-0.101908
0.0479857
-0.0457074
0.0801827
0.138954
-0.091392
0.0686884
0.141144
0.0575701
0.14355
0.0469434
0.146747
0.0366313
0.150545
0.0265105
0.15426
0.0167551
0.155359
0.00813376
0.146361
0.00210016
0.114235
0.0500859
0.0730658
0.148365
-0.0824764
0.0631579
0.151052
0.0531259
0.153582
0.0431987
0.156674
0.0334095
0.160335
0.0237845
0.163885
0.0146027
0.16454
0.0067051
0.154259
0.00148128
0.119459
0.0515671
0.0610436
0.155819
-0.0684978
0.0531888
0.158907
0.0449511
0.161819
0.0364689
0.165156
0.0278605
0.168943
0.0192834
0.172462
0.0111632
0.172661
0.00448215
0.16094
0.000573561
0.123367
0.0521407
0.0485093
0.161777
-0.0544667
0.0422717
0.165145
0.0356206
0.16847
0.0286057
0.172171
0.0213424
0.176206
0.014044
0.17976
0.00722964
0.179475
0.00197358
0.166196
-0.000381787
0.125723
0.0517589
0.0371232
0.166723
-0.0420697
0.0319917
0.170276
0.0265334
0.173929
0.0207584
0.177946
0.0147583
0.182206
0.008759
0.185759
0.00334743
0.184887
-0.000502201
0.170046
-0.00125276
0.126473
0.0505061
0.0266034
0.170856
-0.0307365
0.0223604
0.174519
0.0178978
0.178391
0.0132153
0.182629
0.00838869
0.187033
0.00365392
0.190494
-0.000456096
0.188997
-0.00253493
0.172125
-0.00203062
0.125969
0.0484755
0.0163277
0.174114
-0.0195856
0.0130018
0.177845
0.00953306
0.18186
0.00592806
0.186234
0.00226145
0.1907
-0.00121749
0.193973
-0.00376063
0.19154
-0.00450655
0.17287
-0.00264505
0.124107
0.0458305
0.0059982
0.176399
-0.00828314
0.00367717
0.180166
0.00127649
0.184261
-0.00119006
0.1887
-0.00364722
0.193157
-0.00580171
0.196128
-0.00703052
0.192768
-0.00630864
0.172149
-0.00319798
0.120997
0.0426325
-0.00439934
0.00320067
-0.00561665
-0.00688349
-0.00817797
-0.0093987
-0.0102535
-0.0100642
-0.00792277
-0.00365128
0.103552
0.0239535
-0.114858
-0.0126471
0.0919227
0.0245765
-0.0129477
0.0799343
0.0252498
-0.0132614
0.0675641
0.0259673
-0.0135971
0.0548027
0.0267215
-0.0139602
0.0416605
0.0274797
-0.0143375
0.0282906
0.0279819
-0.014612
0.0154137
0.0271612
-0.0142844
0.00494746
0.0225687
-0.0121024
0.0111316
-0.00618416
0.102782
0.0352443
-0.114073
0.0911843
0.0361746
0.0792414
0.0371927
0.0669312
0.0382775
0.0542439
0.0394088
0.0411903
0.0405333
0.0279267
0.0412455
0.0151782
0.0399096
0.00485193
0.032895
0.0159836
0.101669
0.0465041
-0.112928
0.0901235
0.0477198
0.0782526
0.0490636
0.0660333
0.0504968
0.0534546
0.0519875
0.0405278
0.0534601
0.0274149
0.0543583
0.0148477
0.0524769
0.00471712
0.0430256
0.0207007
0.100098
0.0577061
-0.1113
0.0886392
0.0591784
0.076879
0.0608238
0.0647929
0.0625829
0.0523687
0.0644116
0.0396186
0.0662103
0.0267123
0.0672646
0.0143937
0.0647955
0.00453146
0.0528878
0.0252321
0.0979096
0.0688073
-0.109011
0.0865949
0.0704931
0.0750128
0.072406
0.0631321
0.0744636
0.0509342
0.0766095
0.0384301
0.0787144
0.0257995
0.0798952
0.0138022
0.0767928
0.0042892
0.0624008
0.0295213
0.0949216
0.079727
-0.105841
0.0838246
0.0815901
0.0724875
0.083743
0.0608818
0.0860694
0.0489895
0.0885018
0.0368233
0.0908806
0.0245723
0.0921462
0.0130107
0.0883544
0.00396387
0.0714476
0.0334852
0.0911587
0.0902683
-0.1017
0.0805148
0.092234
0.069641
0.0946167
0.0584693
0.0972411
0.0469748
0.0999962
0.0351864
0.102669
0.0233297
0.104003
0.0122187
0.0994653
0.00365508
0.0800113
0.0371403
0.0847791
0.100323
-0.094834
0.0746853
0.102328
0.0644644
0.104838
0.0540437
0.107662
0.0433474
0.110692
0.0323587
0.113658
0.0212903
0.115071
0.0109663
0.109789
0.00315529
0.0878223
0.0402956
0.0822875
0.108962
-0.0909266
0.073184
0.111431
0.0633912
0.11463
0.053067
0.117986
0.042364
0.121395
0.0314054
0.124616
0.0204772
0.126
0.0104287
0.119838
0.00296202
0.095289
0.0432576
0.0692525
-0.0757495
0.0623012
0.0548369
0.0466013
0.037599
0.0279853
0.018155
0.00906855
0.00244982
0.202123
0.0124595
-0.0165922
0.20471
0.0283721
-0.0309596
0.205217
0.0347579
-0.0352652
0.206174
0.0364884
-0.0374449
0.205278
0.043006
-0.0421103
0.202782
0.0516331
-0.0491364
0.196684
0.0644127
-0.0583152
0.185991
0.0812338
-0.070541
0.160259
0.10938
-0.0836475
0.145944
-0.100543
0.20185
0.00859888
0.204295
0.0259279
0.204752
0.0343005
0.205648
0.035592
0.204675
0.0439797
0.202042
0.0542655
0.195804
0.070651
0.184788
0.0922501
0.159107
0.13506
0.190978
0.201454
0.00513478
0.203613
0.023769
0.203924
0.0339895
0.204617
0.0348989
0.20344
0.0451563
0.200548
0.0571579
0.194086
0.0771134
0.182621
0.103714
0.157172
0.16051
0.235222
0.200926
0.00219867
0.202665
0.0220295
0.202743
0.033912
0.203091
0.0345511
0.201588
0.0466586
0.198314
0.0604325
0.191533
0.0838942
0.179475
0.115773
0.154498
0.185487
0.27842
0.200262
-7.37372e-05
0.201458
0.0208333
0.201221
0.0341493
0.201081
0.0346907
0.199136
0.0486041
0.19536
0.0642083
0.18816
0.0910945
0.175317
0.128616
0.151157
0.209646
0.320566
0.199457
-0.00154139
0.199998
0.0202928
0.199373
0.0347743
0.198602
0.0354613
0.196103
0.0511039
0.191707
0.068604
0.183975
0.0988262
0.170157
0.142434
0.147175
0.232628
0.3619
0.198504
-0.00205564
0.198294
0.020503
0.197218
0.0358499
0.195672
0.0370072
0.192513
0.0542635
0.187374
0.073743
0.17897
0.10723
0.16412
0.157284
0.142614
0.254134
0.402813
0.197399
-0.00146462
0.196359
0.0215431
0.194773
0.0374352
0.192307
0.0394738
0.188392
0.0581788
0.18238
0.0797545
0.173106
0.116503
0.157125
0.173265
0.136649
0.27461
0.444629
0.196154
0.000371583
0.194225
0.0234714
0.192059
0.0396014
0.188525
0.0430079
0.183771
0.0629326
0.176797
0.0867289
0.166651
0.126649
0.150505
0.189411
0.131839
0.293277
0.485541
0.194886
0.00347554
0.191959
0.0263984
0.189097
0.0424632
0.184289
0.0478155
0.178504
0.0687182
0.170067
0.0951656
0.158023
0.138693
0.140269
0.207165
0.121135
0.31241
0.530927
0.303409
0.00207722
0.306837
0.0229696
0.31064
0.0386602
0.313231
0.0452248
0.316224
0.0657253
0.319667
0.091722
0.325221
0.13314
0.336344
0.196042
0.361714
0.287041
0.467812
0.424829
0.304273
-0.000185355
0.307985
0.0192578
0.31237
0.034275
0.315762
0.0418332
0.320182
0.0613046
0.325812
0.0860927
0.334781
0.12417
0.350627
0.180197
0.380294
0.257373
0.403965
0.444141
0.305132
-0.00330698
0.309337
0.0150529
0.314112
0.0294999
0.318294
0.0376508
0.323916
0.0556827
0.331399
0.0786096
0.343046
0.112523
0.361734
0.161509
0.395265
0.223842
0.341006
0.458224
0.306038
-0.00733441
0.310753
0.0103374
0.31582
0.0244335
0.320693
0.0327774
0.327334
0.0490417
0.336368
0.0695756
0.350063
0.098828
0.370908
0.140664
0.40586
0.18889
0.280805
0.466062
0.30704
-0.012364
0.312254
0.00512322
0.317464
0.0192235
0.322887
0.0273543
0.330361
0.0415681
0.340652
0.0592846
0.355863
0.0836172
0.378332
0.118194
0.413084
0.154137
0.224176
0.469713
0.308194
-0.0185475
0.313876
-0.00055948
0.319029
0.0140713
0.324832
0.0215506
0.332955
0.0334456
0.344218
0.048021
0.360514
0.067322
0.384113
0.0945946
0.417909
0.120342
0.171198
0.470887
0.309567
-0.0261039
0.315659
-0.0066515
0.320486
0.00924444
0.326477
0.0155593
0.335072
0.0248507
0.347046
0.0360464
0.364091
0.0502773
0.388396
0.0702897
0.421053
0.0876848
0.121498
0.470753
0.311305
-0.0353985
0.317623
-0.0129698
0.321695
0.00517281
0.32763
0.00962367
0.336538
0.0159433
0.348999
0.0235847
0.366556
0.0327207
0.39124
0.0456057
0.42296
0.0559647
0.0746279
0.46983
0.309634
-0.0430227
0.314705
-0.0180402
0.317904
0.0019734
0.323828
0.00369938
0.332903
0.00686827
0.345685
0.0108027
0.363605
0.0148008
0.38841
0.0208014
0.419776
0.0245988
0.0324061
0.461997
0.258988
0.240947
0.242921
0.24662
0.253488
0.264291
0.279092
0.299893
0.324492
0.356898
0.439329
-0.105194
0.444933
-0.0969952
0.44748
-0.0850238
0.449738
-0.0707559
0.452704
-0.0574323
0.456345
-0.0457106
0.460245
-0.0346373
0.463952
-0.0232919
0.467125
-0.0114566
0.000515632
0.44495
-0.106002
0.443714
-0.0957594
0.442381
-0.0836912
0.442471
-0.0708458
0.443633
-0.0585945
0.445126
-0.0472034
0.446598
-0.0361091
0.448059
-0.024753
0.449586
-0.0129831
-0.000932961
0.451903
-0.099682
0.446446
-0.0903024
0.441745
-0.0789896
0.43827
-0.067371
0.435904
-0.0562288
0.43433
-0.0456291
0.433431
-0.03521
0.433211
-0.0245333
0.433659
-0.0134309
-0.00200734
0.455585
-0.0892058
0.44653
-0.0812476
0.438888
-0.0713471
0.43288
-0.0613634
0.428423
-0.0517715
0.4252
-0.042406
0.422997
-0.0330065
0.421763
-0.0232994
0.421517
-0.0131856
-0.00277206
0.456931
-0.0764233
0.445729
-0.0700457
0.436306
-0.0619244
0.42867
-0.053728
0.422682
-0.0457833
0.418123
-0.0378469
0.414845
-0.0297287
0.412817
-0.0212712
0.412052
-0.0124209
-0.00326254
0.456869
-0.062405
0.444373
-0.0575504
0.433753
-0.0513043
0.424992
-0.0449672
0.417955
-0.0387454
0.412493
-0.0323856
0.408503
-0.0257387
0.40595
-0.0187182
0.404836
-0.0113064
-0.0035924
0.456005
-0.0476567
0.44273
-0.0442759
0.43136
-0.0399337
0.421894
-0.0355014
0.414197
-0.0310487
0.40816
-0.0263477
0.403707
-0.0212864
0.400818
-0.0158285
0.399501
-0.00998975
-0.00384883
0.454427
-0.0322534
0.440511
-0.0303607
0.428578
-0.0280005
0.418596
-0.0255191
0.410416
-0.022869
0.403942
-0.0198738
0.399128
-0.0164717
0.395977
-0.0126781
0.394523
-0.00853505
-0.00412292
0.444992
-0.0152477
0.429821
-0.0151903
0.416725
-0.0149038
0.405563
-0.0143574
0.39616
-0.0134663
0.388448
-0.012162
0.382471
-0.0104943
0.378337
-0.00854453
0.376172
-0.00636955
-0.0040041
0.34165
0.32646
0.311556
0.297199
0.283732
0.27157
0.261076
0.252532
0.246162
0.0102852
0.0496961
-0.0599813
0.0214919
0.150223
-0.16143
0.0264021
0.215919
-0.220829
0.0260316
0.242904
-0.242533
0.0229612
0.248709
-0.245638
0.0189286
0.246903
-0.242871
0.0146205
0.243218
-0.23891
0.0102706
0.238577
-0.234228
0.00620055
0.23049
-0.22642
0.211291
0.00340095
-0.208491
0.0119106
0.0377854
0.027739
0.134395
0.0379429
0.205715
0.0423353
0.238511
0.0434751
0.247569
0.0434339
0.246945
0.0431119
0.24354
0.0425193
0.23917
0.0408353
0.232174
0.21572
0.0364054
0.0122909
0.0254946
0.0313862
0.1153
0.0464382
0.190663
0.0557759
0.229174
0.0615062
0.241839
0.0658227
0.242628
0.0698837
0.239479
0.0737883
0.235265
0.0762468
0.229716
0.218667
0.0732999
0.0114006
0.014094
0.0316988
0.0950014
0.0502712
0.172091
0.0640821
0.215363
0.0743484
0.231572
0.0830338
0.233943
0.0914405
0.231072
0.0999668
0.226739
0.107843
0.22184
0.215125
0.111385
0.00950493
0.00458909
0.0287831
0.0757232
0.0489499
0.151924
0.0661065
0.198206
0.0803618
0.217317
0.0930861
0.221218
0.105468
0.21869
0.118103
0.214104
0.130909
0.209034
0.203637
0.142396
0.00703497
-0.00244588
0.0235166
0.0592416
0.043255
0.132186
0.0621606
0.1793
0.079303
0.200175
0.0952407
0.205281
0.110792
0.203138
0.126522
0.198374
0.142694
0.192862
0.186805
0.159527
0.00448028
-0.00692616
0.0173417
0.0463802
0.0352014
0.114326
0.054331
0.160171
0.0730377
0.181468
0.0910652
0.187253
0.108714
0.18549
0.126337
0.180751
0.14413
0.175069
0.168255
0.162679
0.00222265
-0.00914881
0.011569
0.0370338
0.0268987
0.0989962
0.0450763
0.141993
0.0639693
0.162575
0.0826696
0.168553
0.100974
0.167186
0.118944
0.162781
0.136772
0.157241
0.150552
0.154476
0.000589266
-0.00973808
0.00725503
0.0303681
0.0202773
0.0859739
0.0371298
0.125141
0.0555414
0.144163
0.0742396
0.149855
0.0927106
0.148715
0.110836
0.144656
0.128706
0.13937
0.132259
0.146999
-0.000380112
-0.00935797
0.00444704
0.0255409
0.0155843
0.0748366
0.0309151
0.10981
0.0481396
0.126939
0.0657655
0.132229
0.0830205
0.13146
0.0995638
0.128113
0.11507
0.123864
0.118005
0.129324
-0.000801852
-0.00855611
0.00302797
0.0217111
0.0129637
0.0649009
0.0271552
0.0956186
0.0434036
0.11069
0.06023
0.115402
0.076862
0.114828
0.0929828
0.111992
0.108457
0.10839
0.105051
0.121411
-0.000936347
-0.00761977
0.00244709
0.0183277
0.0116849
0.0556631
0.025078
0.0822256
0.0405349
0.0952334
0.0566389
0.0992983
0.0726469
0.0988197
0.08824
0.0963989
0.103323
0.0933063
0.0913322
0.117043
-0.00097154
-0.00664823
0.00215426
0.0152019
0.0108952
0.0469222
0.0236226
0.0694982
0.0383238
0.0805322
0.0536437
0.0839784
0.0688741
0.0835893
0.0837032
0.0815697
0.0980203
0.0789892
0.0776925
0.11166
-0.000968226
-0.00568
0.00199428
0.0122394
0.0103805
0.0385359
0.0225982
0.0572805
0.0366913
0.0664391
0.0513573
0.0693124
0.0659203
0.0690263
0.0800787
0.0674113
0.0937126
0.0653554
0.0644418
0.106963
-0.000945502
-0.0047345
0.0019203
0.00937356
0.0100732
0.030383
0.0219445
0.0454092
0.035618
0.0527656
0.0498335
0.0550968
0.0639467
0.0549132
0.0776763
0.0536817
0.0909167
0.0521149
0.05147
0.103888
-0.000922142
-0.00381236
0.00188755
0.00656387
0.00989352
0.022377
0.0215465
0.0337563
0.0349587
0.0393534
0.0489013
0.0411542
0.0627558
0.0410586
0.0762604
0.0401771
0.089326
0.0390494
0.0386265
0.10217
-0.000900506
-0.00291185
0.00188212
0.00378124
0.00980221
0.0144569
0.021327
0.0222315
0.0345891
0.0260913
0.0483806
0.0273628
0.0621006
0.0273385
0.0755006
0.0267771
0.0885017
0.0260483
0.0258257
0.101302
-0.000872051
-0.0020398
0.00190622
0.00100297
0.0097834
0.00657974
0.0212377
0.0107772
0.0344163
0.0129128
0.0481253
0.0136538
0.061776
0.0136878
0.0751284
0.0134247
0.0881093
0.0130675
0.0130322
0.100903
-0.000837245
-0.00120255
0.00196201
-0.00179629
0.00982899
-0.00128724
0.0212466
-0.000640485
0.0343744
-0.000214989
0.0480302
-2.04341e-06
0.0616347
8.3261e-05
0.0749545
0.000104976
0.0879202
0.000101822
0.000245793
0.100707
-0.000792513
0.00205498
0.00993827
0.0213381
0.0344248
0.0480296
0.061583
0.0748573
0.0877874
0.100546
0.13787
0.292172
-0.308631
0.149913
0.122712
-0.134754
0.159569
0.0415636
-0.0512198
0.167251
0.00493673
-0.0126189
0.173643
-0.00906395
0.00267184
0.179312
-0.0131458
0.00747668
0.184508
-0.0130667
0.00787051
0.189331
-0.0113587
0.00653624
0.193841
-0.00932012
0.00481008
-0.00607755
0.00204742
0.139619
0.269595
0.15561
0.106721
0.16641
0.0307635
0.173734
-0.00238704
0.179299
-0.014629
0.183964
-0.0178111
0.188076
-0.0171785
0.191768
-0.0150515
0.195133
-0.0126845
-0.00897409
0.141898
0.239357
0.160886
0.0877337
0.172263
0.0193867
0.179344
-0.00946828
0.184308
-0.0195925
0.188154
-0.0216574
0.191318
-0.0203431
0.194003
-0.0177362
0.196339
-0.0150199
-0.010847
0.144609
0.201711
0.165707
0.0666359
0.177507
0.00758696
0.184391
-0.0163526
0.188808
-0.0240096
0.191919
-0.0247677
0.194242
-0.022666
0.196033
-0.0195276
0.197456
-0.0164428
-0.01181
0.147353
0.158247
0.169994
0.0439946
0.182109
-0.00452785
0.188812
-0.0230557
0.192769
-0.0279671
0.195244
-0.027242
0.196837
-0.0242591
0.197852
-0.020543
0.198482
-0.0170722
-0.0119809
0.149834
0.110582
0.173677
0.0201518
0.186048
-0.0168983
0.192602
-0.02961
0.196173
-0.0315387
0.198113
-0.0291817
0.199091
-0.0252372
0.199452
-0.0209038
0.199411
-0.0170312
-0.0114819
0.151906
0.0599786
0.176698
-0.00464068
0.189287
-0.0294867
0.195732
-0.0360552
0.199
-0.0348069
0.200512
-0.0306935
0.200994
-0.0257192
0.200824
-0.0207343
0.200239
-0.0164458
-0.0104388
0.153467
0.00741436
0.179004
-0.0301776
0.191786
-0.0422686
0.198175
-0.0424445
0.201231
-0.0378625
0.202427
-0.0318894
0.202535
-0.0258277
0.201963
-0.0201622
0.200963
-0.0154454
-0.00898113
0.15443
-0.046309
0.180535
-0.0562831
0.193516
-0.055249
0.199912
-0.0488411
0.202852
-0.0408017
0.203847
-0.0328848
0.203707
-0.0256878
0.202862
-0.019317
0.201577
-0.0141607
-0.00724036
0.15474
0.181251
0.194449
0.200927
0.203852
0.204765
0.204504
0.203516
0.202081
0.108762
-0.00339541
-0.105367
0.10664
0.00212224
0.104715
0.00192452
0.104656
5.91964e-05
0.105632
-0.000975738
0.106819
-0.00118757
0.107886
-0.00106648
0.108719
-0.000832783
0.109297
-0.000578397
-0.000233575
0.232467
0.0669278
-0.30279
0.200341
0.0342478
0.188206
0.0140597
0.184953
0.00331256
0.185169
-0.00119168
0.186561
-0.00257991
0.188121
-0.002626
0.189443
-0.00215508
0.190424
-0.00155967
-0.000651536
0.250429
0.156409
-0.33991
0.213788
0.070889
0.200136
0.0277115
0.196376
0.0070731
0.196498
-0.00131358
0.197941
-0.00402297
0.199593
-0.00427819
0.201008
-0.00356997
0.20207
-0.0026217
-0.00110893
0.245519
0.23825
-0.327361
0.212159
0.10425
0.199907
0.0399626
0.19679
0.0101904
0.197245
-0.00176872
0.198855
-0.00563308
0.200595
-0.00601797
0.202053
-0.00502737
0.203136
-0.00370504
-0.00157468
0.240263
-0.310644
0.209758
0.198501
0.196073
0.196976
0.198819
0.200672
0.202181
0.203286
0.011714
0.00068512
-0.0123991
0.012014
-0.000300013
0.0127839
-0.000769925
0.0136689
-0.00088497
0.015452
-0.00178311
0.0195096
-0.00405757
0.0309282
-0.0114186
0.0469884
-0.0160602
0.075666
-0.0286776
-0.0297007
0.0340422
0.00162487
-0.034982
0.0370168
-0.00327461
0.0443268
-0.00807991
0.0578492
-0.0144074
0.0803136
-0.0242475
0.113862
-0.0376059
0.158955
-0.0565113
0.207429
-0.0645346
0.260753
-0.0820019
-0.0717376
0.0558504
0.00165173
-0.0558772
0.0629994
-0.0104236
0.0789411
-0.0240216
0.106219
-0.0416854
0.145442
-0.0634708
0.193459
-0.0856227
0.24203
-0.105082
0.283698
-0.106203
0.316821
-0.115124
-0.0948265
0.0757588
5.11755e-05
-0.0741582
0.0871339
-0.0217987
0.110055
-0.0469431
0.144802
-0.0764319
0.187195
-0.105864
0.229516
-0.127944
0.263265
-0.138831
0.290366
-0.133304
0.310065
-0.134824
-0.112122
0.0922148
-0.0887627
0.106822
0.133178
0.168131
0.204664
0.236248
0.260095
0.281267
0.293442
0.090949
-0.087967
0.0971536
-0.100136
0.0820789
-0.0906675
0.0995377
0.0731241
-0.0942014
0.103156
0.0633569
-0.0978423
0.107609
0.0525065
-0.101389
0.11224
0.0406109
-0.104732
0.116627
0.0279604
-0.106763
0.119413
0.0154155
-0.102901
0.115445
0.00500697
-0.0835532
0.0939617
-0.0393754
0.0443823
0.104669
-0.0780691
-0.114567
0.0941344
-0.0801327
0.0825527
-0.0826198
0.0700712
-0.0853608
0.056938
-0.0882562
0.043341
-0.0911348
0.0295145
-0.092936
0.0161963
-0.0895823
0.00529315
-0.0726501
-0.0340822
0.101598
-0.0667804
-0.112887
0.0900814
-0.0686162
0.0783169
-0.0708552
0.0662771
-0.0733211
0.0538891
-0.0758683
0.0410911
-0.0783368
0.0279891
-0.079834
0.0152843
-0.0768776
0.00489893
-0.0622646
-0.0291833
0.103759
-0.0554603
-0.115079
0.0922373
-0.0570942
0.0803797
-0.0589976
0.0680993
-0.0610406
0.0553577
-0.0631267
0.0421655
-0.0651446
0.0286919
-0.0663603
0.0156797
-0.0638655
0.00506254
-0.0516475
-0.0241207
0.104316
-0.0440649
-0.115712
0.0926322
-0.0454102
0.0805928
-0.0469581
0.0681643
-0.0486121
0.0553324
-0.0502947
0.0421044
-0.0519167
0.0286307
-0.0528867
0.0156309
-0.0508657
0.00502807
-0.0410446
-0.0190927
0.104591
-0.0326845
-0.115971
0.0929016
-0.0337212
0.0808495
-0.0349061
0.0684025
-0.0361651
0.0555441
-0.0374364
0.0422814
-0.0386539
0.028766
-0.0393712
0.0157188
-0.0378185
0.00506965
-0.0303955
-0.014023
0.10468
-0.0213304
-0.116034
0.0929951
-0.0220367
0.0809356
-0.0228465
0.0684747
-0.0237042
0.0556012
-0.024563
0.0423248
-0.0253775
0.0287963
-0.0258427
0.015734
-0.0247563
0.00507331
-0.0197348
-0.0089497
0.104624
-0.00999179
-0.115962
0.092947
-0.0103602
0.0808929
-0.0107925
0.0684372
-0.0112485
0.0555699
-0.0116957
0.0423008
-0.0121084
0.0287803
-0.0123221
0.0157259
-0.0117019
0.00507178
-0.00908061
-0.00387792
0.104417
0.00133083
-0.11574
0.0927557
0.00130125
0.0807172
0.00124606
0.068279
0.00118968
0.0554324
0.00115093
0.0421876
0.00113638
0.0286951
0.00117041
0.0156725
0.0013207
0.0050505
0.00154134
0.00117258
0.104057
-0.115374
0.092411
0.0803956
0.0679882
0.0551789
0.0419779
0.0285363
0.0155726
0.00501159
0.0257879
-0.206319
-0.02796
0.0197141
-0.220346
0.0123258
-0.226839
0.00472038
-0.231305
-0.00265841
-0.235492
-0.00928372
-0.239013
-0.0137893
-0.238028
-0.0138649
-0.220754
-0.00775806
-0.167537
-0.0677394
0.0549613
-0.201928
-0.059352
0.0461509
-0.211536
0.0360142
-0.216702
0.0257059
-0.220996
0.0156089
-0.225395
0.00608971
-0.229494
-0.00189727
-0.230041
-0.00614391