/*--------------------------------*- C++ -*----------------------------------*\
  =========                 |
  \\      /  F ield         | OpenFOAM: The Open Source CFD Toolbox
   \\    /   O peration     | Website:  https://openfoam.org
    \\  /    A nd           | Version:  13
     \\/     M anipulation  |
\*---------------------------------------------------------------------------*/
FoamFile
{
    format      ascii;
    class       volVectorField;
    location    "0.685";
    object      U;
}
// * * * * * * * * * * * * * * * * * * * * * * * * * * * * * * * * * * * * * //

dimensions      [0 1 -1 0 0 0 0];

internalField   nonuniform List<vector> 
1800
(
(0.0325503 -0.0341071 1.40828e-19)
(0.478767 -0.407684 6.51303e-20)
(0.971726 -0.791975 -3.75429e-19)
(1.28779 -1.00802 4.924e-19)
(1.43393 -1.07519 1.29623e-18)
(1.48455 -1.06026 5.71549e-19)
(1.49333 -1.01228 -2.98756e-19)
(1.48602 -0.955675 -7.56854e-19)
(1.4751 -0.894668 -4.00382e-19)
(1.4426 -0.843525 -3.28437e-19)
(0.0587284 -0.0499582 5.86184e-20)
(0.578828 -0.417278 -3.09156e-19)
(1.12737 -0.780808 4.31442e-21)
(1.46678 -0.978799 -4.40835e-19)
(1.61522 -1.03597 1.18123e-19)
(1.65977 -1.01693 1.30991e-18)
(1.66108 -0.967717 -9.53708e-19)
(1.64795 -0.910358 4.86785e-19)
(1.63241 -0.850772 8.03406e-19)
(1.60969 -0.806225 -4.13338e-19)
(0.0921824 -0.0650766 6.7948e-21)
(0.687107 -0.416807 9.25475e-20)
(1.28514 -0.75073 2.87915e-19)
(1.64126 -0.926464 -2.80253e-19)
(1.78725 -0.973474 -1.52513e-18)
(1.8225 -0.952622 3.50662e-19)
(1.8134 -0.906094 6.25198e-19)
(1.79038 -0.85383 -7.50035e-20)
(1.76532 -0.801271 -5.29618e-21)
(1.73263 -0.759532 -3.37106e-20)
(0.132844 -0.0775834 -1.06249e-20)
(0.801661 -0.403321 -1.06376e-19)
(1.44178 -0.699139 -2.47651e-19)
(1.80834 -0.84868 6.80995e-20)
(1.94901 -0.884584 3.96545e-19)
(1.97469 -0.861864 3.6037e-20)
(1.95632 -0.817598 -2.52692e-20)
(1.92531 -0.768769 5.72978e-19)
(1.89317 -0.719807 4.77297e-19)
(1.85723 -0.682739 -1.61056e-19)
(0.180407 -0.0861424 1.07432e-19)
(0.920069 -0.376205 1.66974e-19)
(1.59302 -0.627731 -7.865e-20)
(1.96259 -0.749479 -9.23467e-20)
(2.09429 -0.775496 -1.19229e-18)
(2.10936 -0.753268 1.07519e-20)
(2.08196 -0.714061 9.71783e-19)
(2.04365 -0.671775 3.3113e-19)
(2.0052 -0.630184 2.10719e-20)
(1.96505 -0.598004 -2.11714e-19)
(0.233615 -0.0888492 -7.61006e-20)
(1.03853 -0.333473 2.31189e-19)
(1.73397 -0.535816 9.83272e-19)
(2.09944 -0.629055 -7.80171e-19)
(2.21945 -0.64625 -8.65151e-19)
(2.22376 -0.625689 1.47919e-18)
(2.18815 -0.592338 -1.07036e-18)
(2.14346 -0.556997 -1.1927e-18)
(2.09962 -0.522538 8.60375e-19)
(2.05615 -0.496295 -2.96109e-20)
(0.290958 -0.0843902 8.20443e-20)
(1.15331 -0.275008 -5.56483e-19)
(1.86035 -0.425618 -2.62223e-18)
(2.2151 -0.491438 1.29991e-18)
(2.32136 -0.501968 2.18599e-18)
(2.31533 -0.484962 -6.43949e-21)
(2.27279 -0.458986 -2.88897e-18)
(2.22321 -0.431821 2.16834e-21)
(2.17541 -0.405562 2.60473e-18)
(2.12946 -0.385679 6.85486e-19)
(0.350141 -0.0715745 -2.07566e-21)
(1.2598 -0.20086 4.37575e-19)
(1.96751 -0.299073 2.0414e-18)
(2.3059 -0.339638 -6.59416e-20)
(2.39727 -0.345822 -1.40764e-18)
(2.38173 -0.333866 -4.44685e-19)
(2.33363 -0.316211 0)
(2.28043 -0.297884 1.01252e-18)
(2.22986 -0.280285 5.18578e-21)
(2.18231 -0.267412 -8.29143e-19)
(0.408524 -0.0498397 2.47305e-21)
(1.35366 -0.112351 9.38739e-19)
(2.05172 -0.159451 1.84366e-18)
(2.36952 -0.177914 -1.92531e-18)
(2.44579 -0.182238 -1.44126e-18)
(2.42209 -0.176674 4.5085e-19)
(2.37002 -0.168075 -1.90337e-18)
(2.31466 -0.159013 -1.30983e-18)
(2.26261 -0.150305 1.5475e-18)
(2.2144 -0.144622 1.31906e-18)
(0.463183 -0.0192578 1.11539e-19)
(1.43073 -0.0115111 6.45237e-19)
(2.10989 -0.0103018 3.4753e-19)
(2.40436 -0.010458 -2.80232e-18)
(2.46611 -0.0152166 3.14194e-20)
(2.43589 -0.0170963 4.28903e-18)
(2.38146 -0.0179583 -2.28969e-18)
(2.32533 -0.0183208 -1.27473e-18)
(2.27307 -0.018504 4.22527e-19)
(2.22517 -0.0200314 -9.58029e-19)
(-0.00332995 -0.000511032 9.91835e-20)
(-0.00173816 -0.0763051 5.39628e-20)
(0.0372317 -0.162879 -1.64783e-21)
(0.0949836 -0.218427 -8.78875e-21)
(0.160488 -0.242109 -2.29893e-21)
(0.225973 -0.246537 -5.93661e-20)
(0.287596 -0.24205 1.04485e-20)
(0.34425 -0.234304 -1.07614e-20)
(0.395606 -0.225865 3.22267e-21)
(0.443583 -0.219002 -8.33814e-21)
(-0.00432013 0.0078392 2.83962e-20)
(0.00950822 -0.113153 7.46006e-20)
(0.0631888 -0.258113 -1.02348e-19)
(0.130384 -0.35162 -4.69246e-20)
(0.199612 -0.390341 -7.87687e-20)
(0.265442 -0.395691 -9.76733e-20)
(0.325859 -0.385632 4.77071e-20)
(0.380769 -0.370036 -3.95109e-21)
(0.430138 -0.353473 -1.47404e-20)
(0.477066 -0.340916 -4.35853e-21)
(-0.00641577 0.0146658 -4.41951e-20)
(0.0271967 -0.150258 1.71142e-19)
(0.105139 -0.350612 7.01957e-20)
(0.187977 -0.479574 2.70772e-19)
(0.263409 -0.531966 5.27566e-20)
(0.329844 -0.537722 -3.25635e-19)
(0.388306 -0.522054 -2.35888e-20)
(0.440373 -0.498799 1.14425e-19)
(0.48651 -0.474468 -5.88048e-20)
(0.531834 -0.456404 -1.55175e-20)
(-0.00905977 0.0193578 -1.18031e-19)
(0.0519317 -0.187436 -2.84226e-20)
(0.163105 -0.438789 3.28912e-20)
(0.267245 -0.599593 -1.39289e-19)
(0.351011 -0.663727 7.3335e-20)
(0.418128 -0.669198 2.06918e-19)
(0.473831 -0.647911 6.43588e-20)
(0.521961 -0.617298 -2.20138e-20)
(0.563697 -0.585707 2.25031e-20)
(0.606883 -0.562367 -2.99542e-21)
(-0.011476 0.0214298 0)
(0.0845397 -0.224519 9.01976e-20)
(0.237013 -0.521113 2.2423e-19)
(0.36733 -0.709055 -2.62893e-19)
(0.46109 -0.78248 -5.89272e-19)
(0.528756 -0.786846 2.11866e-19)
(0.580857 -0.759993 -3.30017e-20)
(0.624016 -0.722459 -1.04644e-19)
(0.660319 -0.684273 0)
(0.700869 -0.655895 -9.76416e-21)
(-0.0129037 0.0203979 4.20732e-20)
(0.125742 -0.261326 1.09223e-19)
(0.32669 -0.596006 2.41224e-20)
(0.486988 -0.805408 2.49516e-19)
(0.591771 -0.885261 -1.97165e-19)
(0.659604 -0.887657 -3.10049e-19)
(0.707248 -0.855418 5.55187e-19)
(0.744511 -0.811577 5.64278e-20)
(0.77458 -0.767599 -3.37834e-19)
(0.811983 -0.734324 -7.5778e-21)
(-0.0123668 0.0157347 6.1024e-21)
(0.176248 -0.297375 4.96448e-20)
(0.431645 -0.661723 1.45441e-19)
(0.624447 -0.886189 2.78838e-20)
(0.74051 -0.969393 3.26705e-19)
(0.807828 -0.969051 -4.23857e-19)
(0.85016 -0.931841 -4.3405e-19)
(0.880729 -0.88259 -3.7415e-19)
(0.90406 -0.83374 2.73498e-19)
(0.937459 -0.795431 2.99238e-19)
(-0.00847827 0.00726319 -1.29632e-19)
(0.236973 -0.331798 3.66479e-20)
(0.55089 -0.716473 3.11952e-19)
(0.777194 -0.94921 -1.7916e-19)
(0.90398 -1.03276 3.38298e-19)
(0.969811 -1.02928 8.31844e-19)
(1.00598 -0.988024 5.92122e-19)
(1.02913 -0.934901 -4.59116e-19)
(1.04548 -0.882437 -2.20504e-19)
(1.07259 -0.838788 3.16796e-19)
(-0.000142183 -0.00457871 -2.23432e-19)
(0.307972 -0.363176 -3.71139e-19)
(0.682277 -0.758215 5.91099e-19)
(0.941257 -0.992309 7.09997e-19)
(1.07718 -1.07337 -7.5329e-19)
(1.1401 -1.06671 8.67791e-19)
(1.16905 -1.02285 1.37266e-19)
(1.18386 -0.968157 -1.07551e-18)
(1.1928 -0.913766 -2.62667e-19)
(1.20837 -0.865086 3.51401e-19)
(0.013282 -0.0187475 5.63317e-20)
(0.388547 -0.389282 -3.72232e-19)
(0.822911 -0.784279 -4.23862e-19)
(1.11194 -1.01272 7.39174e-19)
(1.25417 -1.08829 6.12136e-19)
(1.31174 -1.07793 -7.77674e-19)
(1.33127 -1.03219 -6.54356e-19)
(1.3356 -0.977108 3.91405e-19)
(1.33533 -0.920769 -4.04096e-19)
(1.33131 -0.868563 -2.48735e-19)
(0.623931 -0.178159 4.1249e-20)
(0.80207 -0.134776 -5.51818e-20)
(0.889745 -0.105673 6.41311e-21)
(0.940725 -0.0828077 1.04516e-20)
(0.970372 -0.0642556 -5.2467e-21)
(0.988052 -0.049078 -2.50932e-21)
(0.999017 -0.0366387 -4.26625e-21)
(1.00596 -0.0262834 -3.04719e-21)
(1.01017 -0.0181912 7.54915e-21)
(1.01301 -0.00763955 2.87679e-21)
(0.641553 -0.254051 1.12134e-19)
(0.814448 -0.174142 1.1466e-20)
(0.898234 -0.126908 3.97071e-21)
(0.947185 -0.0947666 -5.1371e-21)
(0.975498 -0.0712737 -1.31209e-20)
(0.992174 -0.053291 0)
(1.00236 -0.0392176 -4.48631e-21)
(1.00871 -0.027867 3.72376e-21)
(1.01251 -0.0191683 4.64209e-22)
(1.01501 -0.00802761 -3.52812e-21)
(0.669661 -0.327158 -7.70897e-20)
(0.832314 -0.212836 -3.40443e-20)
(0.909518 -0.147947 1.42797e-20)
(0.95506 -0.106612 -8.42042e-21)
(0.9814 -0.0781859 -3.71453e-21)
(0.996752 -0.0574017 5.95056e-21)
(1.00598 -0.0416988 0)
(1.01162 -0.0293656 0)
(1.01496 -0.0200757 -2.06715e-21)
(1.01708 -0.00838356 0)
(0.708335 -0.395961 -3.5705e-20)
(0.855336 -0.25033 7.02455e-20)
(0.923577 -0.168569 7.51272e-21)
(0.964353 -0.118229 0)
(0.988076 -0.0849212 1.8846e-20)
(1.00178 -0.0613666 -3.0106e-21)
(1.00986 -0.0440552 0)
(1.01471 -0.0307616 3.99105e-21)
(1.01754 -0.0209019 0)
(1.01923 -0.00870237 6.30963e-22)
(0.757659 -0.458953 -3.98113e-20)
(0.883112 -0.286118 9.55406e-20)
(0.940361 -0.188563 -4.0048e-21)
(0.975064 -0.129505 0)
(0.995519 -0.0914126 3.85937e-21)
(1.00725 -0.0651435 5.913e-21)
(1.014 -0.0462594 5.80763e-21)
(1.01794 -0.0320379 1.06774e-21)
(1.0202 -0.0216357 -2.15451e-21)
(1.02145 -0.00897912 2.625e-21)
(0.817416 -0.514627 -7.22742e-19)
(0.915125 -0.319823 -1.81401e-19)
(0.959765 -0.207786 1.53073e-21)
(0.987186 -0.140348 2.82529e-20)
(1.00372 -0.0975997 -6.03643e-21)
(1.01313 -0.0686919 4.46245e-21)
(1.01839 -0.048285 4.41986e-21)
(1.02132 -0.0331761 -8.80789e-21)
(1.02294 -0.0222666 -2.05411e-22)
(1.02374 -0.00921121 6.59747e-23)
(0.88653 -0.561081 -4.24757e-21)
(0.950277 -0.350625 7.08223e-20)
(0.981463 -0.226092 2.57773e-21)
(1.00066 -0.150701 -8.18381e-22)
(1.01265 -0.103445 -2.18273e-20)
(1.01942 -0.0719812 5.20865e-21)
(1.023 -0.050109 -3.23078e-21)
(1.02481 -0.0341596 -4.18904e-21)
(1.02575 -0.0227831 1.06711e-21)
(1.02604 -0.00939297 -1.81846e-21)
(0.964053 -0.596817 2.84446e-19)
(0.98646 -0.377258 8.59017e-20)
(1.00419 -0.242791 0)
(1.01506 -0.160245 -5.01544e-22)
(1.02214 -0.108801 1.77197e-20)
(1.02604 -0.0749434 1.16249e-21)
(1.02779 -0.0516983 -1.45697e-20)
(1.02841 -0.0349709 4.14745e-21)
(1.0286 -0.0231742 -4.00435e-23)
(1.02838 -0.00951978 -3.33314e-22)
(1.05429 -0.625682 -4.21307e-19)
(1.02496 -0.402248 -2.31475e-19)
(1.02679 -0.259046 5.22099e-20)
(1.02942 -0.169354 -2.48178e-22)
(1.03168 -0.113712 -2.23328e-21)
(1.03274 -0.0775342 -1.39576e-20)
(1.03264 -0.0530093 3.71517e-21)
(1.03205 -0.0355814 5.17908e-22)
(1.03146 -0.0234243 -3.14295e-21)
(1.03072 -0.00959067 -2.65519e-21)
(1.16063 -0.651617 2.96081e-19)
(1.0765 -0.426238 -2.28264e-19)
(1.05357 -0.277506 -3.8984e-20)
(1.04486 -0.180712 -4.11986e-20)
(1.0414 -0.119944 -2.22963e-20)
(1.03941 -0.080731 -1.09603e-20)
(1.03749 -0.05453 -5.41098e-21)
(1.03567 -0.0362106 0)
(1.0343 -0.0236264 -4.09083e-22)
(1.03306 -0.00961686 2.10032e-21)
(1.31856 -0.636745 4.66646e-19)
(1.17999 -0.426549 1.49654e-19)
(1.11328 -0.279428 -1.18784e-19)
(1.07906 -0.18261 7.498e-21)
(1.06132 -0.121037 8.87954e-21)
(1.05158 -0.0811085 -5.00903e-21)
(1.04533 -0.0544629 3.74571e-22)
(1.04099 -0.0359433 4.45462e-21)
(1.03816 -0.0233174 -3.10842e-21)
(1.03608 -0.00947117 3.67546e-23)
(1.36986 -0.520213 -6.70167e-21)
(1.21097 -0.361874 1.40901e-19)
(1.14027 -0.246794 1.19632e-19)
(1.10107 -0.166559 -1.45037e-20)
(1.07737 -0.112488 5.57571e-20)
(1.06285 -0.0761174 3.57475e-20)
(1.05325 -0.0513386 2.43593e-20)
(1.04665 -0.0339469 -2.4012e-21)
(1.04245 -0.0220477 8.53471e-21)
(1.03947 -0.00894822 3.79528e-21)
(1.42825 -0.447756 -1.43964e-19)
(1.26265 -0.324997 -1.16886e-20)
(1.17679 -0.226303 6.22421e-21)
(1.12599 -0.154401 5.60109e-37)
(1.09406 -0.104728 7.27584e-22)
(1.07409 -0.0709661 -9.91363e-35)
(1.06098 -0.0478499 -2.88939e-21)
(1.05212 -0.0316038 -2.09566e-34)
(1.04654 -0.0205049 8.33204e-22)
(1.04265 -0.0083167 -2.46117e-21)
(1.46464 -0.366393 -2.19954e-34)
(1.29835 -0.275172 -3.87483e-20)
(1.20533 -0.196865 -4.16604e-20)
(1.14703 -0.136947 0)
(1.10881 -0.093856 -2.41311e-20)
(1.08426 -0.0639153 -1.6323e-20)
(1.06804 -0.0431796 -9.43869e-21)
(1.05713 -0.0285286 -2.5629e-34)
(1.05027 -0.0185129 -2.91485e-21)
(1.04554 -0.00750992 2.33005e-21)
(1.48733 -0.294785 -8.79842e-20)
(1.32563 -0.228079 4.68641e-21)
(1.22855 -0.166491 0)
(1.16476 -0.11752 0)
(1.12158 -0.0812252 0)
(1.09318 -0.0555579 0)
(1.07427 -0.0376099 -5.60185e-22)
(1.06156 -0.0248646 -2.86189e-34)
(1.05361 -0.0161438 7.32924e-22)
(1.0481 -0.00655203 2.7818e-34)
(1.50131 -0.228717 -3.31061e-20)
(1.34581 -0.181364 0)
(1.24673 -0.134728 0)
(1.17913 -0.0963422 0)
(1.13216 -0.0671105 0)
(1.10069 -0.0460954 0)
(1.07958 -0.0312687 9.30907e-22)
(1.06535 -0.0206909 5.81832e-21)
(1.05643 -0.0134442 6.87456e-22)
(1.05026 -0.00545921 3.16415e-21)
(1.50942 -0.167843 0)
(1.36009 -0.135804 -1.12593e-20)
(1.2603 -0.102345 -1.61799e-20)
(1.19017 -0.0739949 0)
(1.14048 -0.051896 -1.11714e-20)
(1.10665 -0.0357801 -7.92154e-21)
(1.08381 -0.02432 -4.5292e-21)
(1.06838 -0.0161087 -3.40621e-21)
(1.0587 -0.0104761 4.53329e-21)
(1.05197 -0.0042575 1.2937e-21)
(1.51239 -0.11155 9.06056e-21)
(1.368 -0.0908468 6.86721e-21)
(1.26836 -0.0689807 -4.03951e-21)
(1.19693 -0.0502731 2.56393e-36)
(1.14555 -0.0354352 7.05897e-22)
(1.11019 -0.0245033 -6.09422e-35)
(1.08617 -0.0166841 6.89798e-22)
(1.06991 -0.011061 3.03018e-21)
(1.05969 -0.00719383 5.65474e-22)
(1.05258 -0.00292037 -1.872e-21)
(1.48806 -0.053115 -4.48099e-20)
(1.34624 -0.048414 1.00458e-20)
(1.24926 -0.0381771 1.14046e-20)
(1.17951 -0.0283095 0)
(1.12899 -0.020098 7.13793e-21)
(1.09399 -0.0139473 5.05545e-21)
(1.07011 -0.00951736 4.01369e-21)
(1.05393 -0.00632036 2.21001e-21)
(1.04377 -0.00411143 -2.06515e-21)
(1.03668 -0.00166619 2.27442e-21)
(1.08056 -0.00109254 0)
(0.996693 -0.00577815 0)
(0.932854 -0.00562933 0)
(0.884259 -0.00442132 0)
(0.848222 -0.00318783 0)
(0.823055 -0.00223589 0)
(0.805796 -0.00153798 5.3727e-22)
(0.794046 -0.00103368 -3.5422e-36)
(0.786632 -0.000659944 5.62442e-22)
(0.781526 -0.000256003 1.7231e-21)
(2.1402 -0.0201341 8.89667e-19)
(2.1317 -0.127089 6.14905e-20)
(2.10535 -0.2323 -1.31377e-19)
(2.06125 -0.333317 -3.53816e-19)
(2.00146 -0.428231 -1.21619e-19)
(1.92379 -0.516953 -1.82705e-19)
(1.8415 -0.58776 -4.42098e-19)
(1.72555 -0.668131 1.40323e-19)
(1.64883 -0.688965 0)
(1.48304 -0.771668 4.63208e-20)
(2.05388 -0.0139911 2.26456e-19)
(2.04715 -0.0942323 -3.43547e-19)
(2.02731 -0.173638 -6.5482e-21)
(1.99207 -0.251125 -1.39961e-19)
(1.94893 -0.323472 2.43834e-20)
(1.88426 -0.398377 1.30005e-19)
(1.82982 -0.446302 1.14239e-20)
(1.73195 -0.532209 9.56009e-20)
(1.67934 -0.533676 -1.17379e-19)
(1.56541 -0.624182 2.67428e-20)
(1.97927 -0.0104174 -1.16677e-19)
(1.9741 -0.0742079 2.15823e-19)
(1.95886 -0.137092 1.92724e-19)
(1.9302 -0.19898 -2.32521e-19)
(1.89726 -0.255236 9.96368e-20)
(1.8441 -0.317799 1.32959e-19)
(1.80236 -0.351551 -6.25916e-20)
(1.72628 -0.429073 7.45176e-20)
(1.67856 -0.426785 7.64873e-20)
(1.59583 -0.507325 9.95655e-20)
(1.92231 -0.0105916 -2.00475e-19)
(1.91815 -0.0593627 4.45114e-20)
(1.90549 -0.107413 -1.04782e-19)
(1.88161 -0.155493 -6.52054e-20)
(1.85409 -0.198724 2.11365e-20)
(1.81071 -0.24912 -1.06045e-19)
(1.77439 -0.274828 8.72053e-20)
(1.7157 -0.338784 2.86799e-20)
(1.67149 -0.33764 -1.33727e-20)
(1.60923 -0.403859 9.64329e-21)
(1.87774 -0.0093967 5.41741e-20)
(1.87436 -0.0465671 5.15949e-20)
(1.86345 -0.0830887 -6.21065e-20)
(1.84333 -0.11985 2.29988e-19)
(1.81905 -0.152763 1.29249e-20)
(1.7833 -0.191655 -1.40977e-19)
(1.75013 -0.211862 2.1417e-20)
(1.70337 -0.261197 -8.87332e-20)
(1.66283 -0.262061 1.14142e-19)
(1.61315 -0.313329 8.31542e-20)
(1.84404 -0.00968329 -1.06719e-19)
(1.84133 -0.0368444 -5.86999e-20)
(1.83161 -0.063512 3.4241e-20)
(1.81417 -0.0904756 8.14573e-20)
(1.79194 -0.114779 4.62469e-20)
(1.76147 -0.143508 -4.14687e-20)
(1.7304 -0.159311 3.283e-21)
(1.6911 -0.195692 5.26057e-20)
(1.65369 -0.198079 1.00214e-19)
(1.6115 -0.236347 -5.49142e-20)
(1.81943 -0.0104417 -4.34302e-20)
(1.81731 -0.0289482 -8.09588e-20)
(1.80853 -0.0470841 -5.41217e-20)
(1.79302 -0.0655169 -1.06564e-19)
(1.77222 -0.0823197 -1.88326e-20)
(1.74519 -0.102236 -3.63283e-21)
(1.71559 -0.113808 4.68159e-20)
(1.68077 -0.139287 -1.50862e-20)
(1.6458 -0.142086 -3.3802e-20)
(1.60771 -0.169445 9.74365e-21)
(1.79725 -0.0102959 3.62644e-20)
(1.79649 -0.0211823 3.34411e-20)
(1.78925 -0.0317444 1.25955e-20)
(1.77594 -0.0424979 -2.22271e-20)
(1.75706 -0.0524716 -1.80681e-20)
(1.733 -0.0647317 3.37492e-20)
(1.70502 -0.0721225 -2.32131e-21)
(1.67306 -0.0889742 -4.54343e-20)
(1.64001 -0.0910981 1.03852e-20)
(1.60399 -0.110987 5.03395e-20)
(1.7114 -0.0162113 -2.85688e-20)
(1.71189 -0.0184853 3.2799e-21)
(1.70905 -0.0202668 4.3456e-20)
(1.70242 -0.0220339 2.50945e-21)
(1.69145 -0.0232931 -3.28375e-21)
(1.67693 -0.0264067 -5.0359e-21)
(1.6577 -0.0265351 1.80479e-20)
(1.63618 -0.0341062 -2.80222e-20)
(1.60889 -0.0325242 3.61344e-20)
(1.58459 -0.0436563 1.19017e-19)
(1.0944 -0.00984116 3.08216e-20)
(1.08489 -0.00677802 2.01285e-20)
(1.07863 -0.00370265 1.61769e-20)
(1.07614 -0.000688525 1.79134e-20)
(1.07645 0.00226072 -3.29814e-21)
(1.08064 0.00473669 5.40339e-21)
(1.08409 0.00763643 -8.6312e-21)
(1.09445 0.00769464 1.99808e-21)
(1.09295 0.0115751 -3.24553e-21)
(1.11113 0.00789883 3.60898e-21)
(1.37963 0.748535 -5.6378e-20)
(1.3649 0.794995 2.50395e-20)
(1.36901 0.852007 -4.50443e-19)
(1.37956 0.917006 2.16994e-19)
(1.39047 0.985472 8.73874e-19)
(1.39603 1.05339 -1.37485e-19)
(1.37623 1.10462 -8.50285e-19)
(1.2721 1.08195 -4.52072e-20)
(0.98233 0.874455 -4.16629e-19)
(0.433746 0.394751 1.52572e-19)
(1.55709 0.722547 0)
(1.54727 0.770493 5.39215e-19)
(1.54492 0.823746 1.21714e-18)
(1.55056 0.885439 -7.41288e-19)
(1.56134 0.952471 -1.79474e-18)
(1.56983 1.02021 -1.40467e-19)
(1.55119 1.07153 -1.79352e-19)
(1.43609 1.04889 6.46135e-19)
(1.1073 0.844177 8.48573e-19)
(0.485296 0.376553 3.8399e-19)
(1.70031 0.702635 6.2553e-20)
(1.70384 0.748968 0)
(1.70709 0.797311 -6.55466e-20)
(1.71548 0.852821 7.647e-19)
(1.72927 0.914355 5.27934e-20)
(1.74117 0.977615 -1.88252e-18)
(1.72281 1.02513 1.19286e-18)
(1.59526 1.00007 7.53802e-19)
(1.22619 0.799973 -7.72354e-19)
(0.532195 0.351 -2.82224e-19)
(1.81283 0.671116 -1.3125e-19)
(1.82913 0.712671 -1.01396e-19)
(1.84339 0.755821 2.28639e-19)
(1.86082 0.805322 -2.86109e-19)
(1.88228 0.860827 -1.37203e-18)
(1.90023 0.918301 -1.06417e-18)
(1.88283 0.960242 1.16629e-18)
(1.74186 0.931192 7.43716e-19)
(1.33131 0.73827 0)
(0.569028 0.316099 0)
(1.90784 0.616903 -8.02713e-19)
(1.93408 0.653459 -1.41893e-18)
(1.95937 0.692158 -5.58506e-19)
(1.98741 0.736417 -3.39283e-20)
(2.01832 0.785977 0)
(2.04344 0.837066 1.43093e-19)
(2.02669 0.87265 1.70803e-19)
(1.87055 0.839169 2.18709e-19)
(1.4169 0.657284 -3.27907e-19)
(0.592729 0.272356 -8.26944e-20)
(1.99353 0.540036 9.78049e-19)
(2.02687 0.57214 -4.25951e-20)
(2.06108 0.606697 -1.1538e-18)
(2.09847 0.645821 0)
(2.13806 0.689165 0)
(2.16948 0.733191 0)
(2.15156 0.762073 1.49711e-18)
(1.9778 0.725847 -1.74365e-18)
(1.47938 0.558984 -1.0836e-18)
(0.602199 0.221749 -4.57032e-20)
(2.07037 0.445908 -1.31517e-18)
(2.10874 0.473402 -2.75581e-18)
(2.14963 0.503127 -4.82755e-21)
(2.19428 0.536373 5.68366e-19)
(2.24069 0.572727 -4.15687e-20)
(2.27641 0.609135 1.3038e-18)
(2.25554 0.629964 -7.49384e-19)
(2.06013 0.595009 -2.17127e-18)
(1.51774 0.450564 1.8073e-19)
(0.597545 0.16827 1.28156e-19)
(2.13493 0.339642 -1.06431e-18)
(2.17708 0.361655 1.64321e-20)
(2.22291 0.385371 4.15846e-19)
(2.27288 0.411673 -4.08927e-19)
(2.32412 0.440059 6.46478e-19)
(2.36205 0.467311 1.85914e-18)
(2.33447 0.482841 -2.26604e-19)
(2.11449 0.452016 -1.24609e-18)
(1.53197 0.334315 2.91941e-19)
(0.580161 0.115118 4.70921e-20)
(2.18363 0.224723 4.09124e-19)
(2.22866 0.240393 8.27735e-20)
(2.27799 0.256999 -4.42931e-19)
(2.33157 0.275369 -1.05413e-18)
(2.38574 0.295017 9.44633e-20)
(2.42327 0.313826 9.72643e-20)
(2.3861 0.324487 -1.69219e-18)
(2.14158 0.300038 7.04516e-19)
(1.52163 0.215746 2.05217e-19)
(0.550948 0.0648427 -1.68106e-19)
(2.21432 0.103865 8.07682e-19)
(2.26122 0.112401 -1.24044e-18)
(2.31262 0.121186 1.90775e-19)
(2.3682 0.130833 2.63637e-18)
(2.4234 0.141234 1.37988e-18)
(2.45828 0.151361 -3.19545e-18)
(2.40983 0.15839 -3.32895e-18)
(2.14012 0.144393 1.62152e-18)
(1.48747 0.0990579 7.44922e-21)
(0.511419 0.0193888 5.50443e-20)
(0.512161 0.208961 -1.65032e-19)
(0.474939 0.216197 -1.50683e-19)
(0.43138 0.224121 8.21265e-20)
(0.383292 0.23264 -2.6615e-19)
(0.330338 0.24175 -3.24734e-20)
(0.271798 0.251194 2.23531e-19)
(0.206818 0.258652 5.35209e-20)
(0.13536 0.254329 -2.39604e-20)
(0.0648307 0.214743 3.40647e-21)
(0.0109846 0.108138 1.54039e-20)
(0.540247 0.309009 1.3354e-19)
(0.503867 0.323014 1.85573e-19)
(0.461691 0.338693 3.50864e-20)
(0.415172 0.35559 -7.11155e-20)
(0.363906 0.373572 -2.52313e-19)
(0.307161 0.392187 5.23806e-21)
(0.243665 0.407405 1.21348e-19)
(0.171755 0.402415 1.42937e-20)
(0.0955926 0.338398 -6.74391e-20)
(0.0265276 0.167918 -2.24357e-20)
(0.585573 0.405017 -1.3633e-19)
(0.550683 0.425529 -1.39816e-19)
(0.510893 0.448553 1.24348e-19)
(0.467046 0.473388 1.06349e-19)
(0.418614 0.499794 -6.2415e-20)
(0.364845 0.527106 -7.73695e-20)
(0.303757 0.5496 -8.54639e-20)
(0.230932 0.543671 -1.36481e-20)
(0.145187 0.455806 -4.1249e-20)
(0.0511784 0.224158 3.55349e-21)
(0.647023 0.494912 6.69323e-20)
(0.614239 0.521543 -2.03671e-20)
(0.577779 0.551298 -1.04467e-19)
(0.537646 0.58342 3.05736e-20)
(0.493143 0.617602 -7.71205e-20)
(0.443476 0.652935 1.98876e-20)
(0.385668 0.682026 -1.64349e-19)
(0.311453 0.674832 -1.19444e-20)
(0.212286 0.564111 -2.27194e-19)
(0.0841145 0.275263 4.71774e-20)
(0.722995 0.576779 -1.65718e-20)
(0.692909 0.609063 -2.77086e-21)
(0.660712 0.644812 -4.25611e-20)
(0.625361 0.683426 -1.78708e-19)
(0.5859 0.724567 8.00959e-20)
(0.541437 0.76706 -4.15188e-20)
(0.487708 0.801887 1.11884e-19)
(0.411642 0.792991 -5.05884e-20)
(0.295187 0.660763 2.867e-19)
(0.124268 0.319871 2.14981e-19)
(0.811506 0.648896 -2.55667e-20)
(0.784504 0.685953 -9.17224e-20)
(0.757218 0.726493 1.14643e-19)
(0.727433 0.770455 8.73512e-20)
(0.693937 0.817529 2.325e-19)
(0.65569 0.866179 1.40928e-19)
(0.606787 0.905747 4.3652e-19)
(0.528414 0.894626 1.94746e-19)
(0.39122 0.742521 1.67317e-19)
(0.17018 0.35625 1.91103e-19)
(0.910446 0.70896 -9.37849e-20)
(0.887898 0.750288 3.4649e-19)
(0.867158 0.794806 2.13889e-19)
(0.844397 0.843046 -2.48606e-19)
(0.817966 0.894845 -1.31594e-19)
(0.786671 0.948413 4.88847e-19)
(0.742784 0.991643 -9.47299e-20)
(0.661009 0.97799 -3.03915e-19)
(0.499185 0.808148 -6.08635e-20)
(0.220849 0.383816 2.00305e-19)
(1.01025 0.758211 1.87618e-19)
(0.990581 0.801397 5.25959e-20)
(0.976355 0.847756 -5.69104e-19)
(0.961987 0.898988 7.64402e-20)
(0.944938 0.954511 3.76491e-19)
(0.923186 1.0118 -2.54288e-19)
(0.88636 1.05717 -6.1404e-20)
(0.801628 1.03988 -1.32811e-19)
(0.612997 0.854256 1.28316e-20)
(0.273222 0.40081 -2.8705e-19)
(1.13196 0.780066 2.09228e-20)
(1.12131 0.826295 -3.91362e-19)
(1.11501 0.873707 -3.11523e-21)
(1.10682 0.926631 3.25438e-19)
(1.0956 0.985362 -3.29008e-19)
(1.07994 1.04668 6.75207e-19)
(1.04711 1.09525 4.7466e-19)
(0.95604 1.07668 -7.28409e-19)
(0.73557 0.880555 -3.62403e-20)
(0.327887 0.40828 -2.87947e-19)
(1.20067 0.796355 -2.28711e-19)
(1.20373 0.844646 -2.24706e-19)
(1.21846 0.894896 2.38291e-19)
(1.22973 0.949974 5.477e-19)
(1.23481 1.00941 2.15884e-19)
(1.23235 1.07049 -5.67321e-19)
(1.20756 1.1176 4.17201e-20)
(1.1114 1.09437 1.58055e-19)
(0.858067 0.888742 -2.03009e-19)
(0.381372 0.406381 -2.04897e-19)
(0.824869 0.0213825 3.94988e-21)
(1.15574 0.042947 -1.66725e-20)
(0.919145 0.0500302 -1.41488e-20)
(1.04023 0.052935 0)
(0.988271 0.060611 1.66572e-20)
(0.973427 0.0714389 2.21477e-20)
(0.950502 0.0866339 2.83894e-20)
(0.89965 0.106675 5.82342e-20)
(0.830781 0.13525 -8.42829e-20)
(0.663946 0.172207 -1.06381e-19)
(0.82432 0.0181903 3.3292e-20)
(1.15555 0.0427251 -5.31088e-20)
(0.91955 0.0519307 1.09812e-22)
(1.04193 0.0545603 -1.3699e-20)
(0.990912 0.0646494 9.03843e-21)
(0.977474 0.0776773 -1.1343e-20)
(0.955843 0.0977748 -7.03902e-20)
(0.907969 0.124111 0)
(0.840492 0.173024 1.82024e-19)
(0.686524 0.236689 -2.23586e-19)
(0.823541 0.0151913 -3.05207e-20)
(1.15558 0.0423753 1.66046e-20)
(0.919886 0.0535758 3.32995e-20)
(1.04413 0.0559482 1.19955e-20)
(0.993879 0.0684403 -2.19457e-20)
(0.982296 0.0837151 9.55457e-23)
(0.962203 0.108622 -4.99325e-20)
(0.919251 0.14147 -4.19616e-21)
(0.853779 0.209719 1.13656e-22)
(0.72204 0.299383 5.9533e-19)
(0.822529 0.0124508 -2.28822e-20)
(1.15577 0.0418893 -6.92665e-22)
(0.920164 0.0549167 2.5326e-20)
(1.04682 0.057099 1.69049e-20)
(0.997188 0.0719501 -9.53035e-21)
(0.987877 0.0895045 -1.29885e-20)
(0.969681 0.119054 7.47214e-20)
(0.933281 0.158669 -1.20117e-21)
(0.870927 0.244805 -2.20633e-19)
(0.769832 0.359241 7.01645e-20)
(0.821279 0.00999146 1.58985e-20)
(1.15604 0.0412396 -2.92916e-20)
(0.920407 0.0559014 -1.8763e-20)
(1.05001 0.058016 9.07916e-21)
(1.00084 0.075146 0)
(0.994201 0.0949974 0)
(0.978395 0.128967 6.39214e-20)
(0.949819 0.175656 1.37804e-22)
(0.892256 0.277725 -1.05704e-19)
(0.829029 0.415311 8.4742e-20)
(0.819794 0.0078845 3.67569e-21)
(1.15632 0.0403957 2.11743e-20)
(0.920647 0.0564798 -4.73603e-20)
(1.05367 0.0587083 -2.67786e-20)
(1.00484 0.0779952 6.63552e-22)
(1.00124 0.100149 5.29545e-20)
(0.988457 0.138287 1.0037e-19)
(0.968561 0.192377 -7.46422e-22)
(0.918205 0.307542 1.83829e-19)
(0.89872 0.468091 -1.93113e-19)
(0.818071 0.00619766 -2.12718e-20)
(1.15651 0.0393219 1.34126e-20)
(0.920925 0.0566029 -1.23507e-20)
(1.05783 0.059191 -4.9834e-20)
(1.00917 0.0804653 -1.2761e-21)
(1.00899 0.104928 -8.56578e-22)
(0.999967 0.146988 -6.34926e-21)
(0.989106 0.208688 -1.83194e-19)
(0.949555 0.332743 1.4118e-19)
(0.976098 0.514959 -4.62865e-19)
(0.816109 0.00497299 -5.05319e-22)
(1.15653 0.0379585 -3.03545e-20)
(0.921296 0.0562333 2.43337e-20)
(1.06243 0.0594828 3.17865e-20)
(1.01381 0.0825126 -3.912e-22)
(1.01744 0.109297 -6.27355e-20)
(1.01296 0.155098 -5.60881e-20)
(1.01116 0.224915 3.33629e-19)
(0.986903 0.356007 1.32985e-20)
(1.06061 0.566382 7.34177e-19)
(0.8139 0.00421598 9.85353e-21)
(1.15643 0.0361672 1.18806e-20)
(0.921835 0.0553262 2.99642e-20)
(1.06747 0.0595923 -3.28507e-20)
(1.01871 0.0840391 -6.00385e-20)
(1.02654 0.112981 1.5805e-21)
(1.02734 0.161593 -7.7565e-20)
(1.03491 0.237113 4.38129e-19)
(1.03392 0.366227 -8.07667e-21)
(1.14195 0.590974 -1.00641e-18)
(0.811458 0.00439021 1.66892e-21)
(1.15718 0.0341879 1.51262e-20)
(0.922362 0.0540099 9.4154e-21)
(1.07298 0.0598277 -6.66431e-20)
(1.02355 0.0857745 -5.92008e-20)
(1.03511 0.117882 -5.24609e-20)
(1.03986 0.171601 -1.38807e-19)
(1.0533 0.256946 -4.04376e-19)
(1.07477 0.39388 -2.45742e-19)
(1.23645 0.658919 -1.05184e-18)
(0.808945 0.0040287 -4.69465e-21)
(1.16046 0.030901 -3.08735e-21)
(0.923803 0.0510262 -1.01943e-20)
(1.07995 0.058438 1.47744e-20)
(1.0326 0.084576 4.78209e-20)
(1.05052 0.117768 -3.70466e-20)
(1.06472 0.171588 1.23289e-19)
(1.09214 0.254702 -4.01227e-19)
(1.14577 0.373527 -1.74543e-19)
(1.23523 0.646047 5.77084e-19)
(0.809435 0.00138154 3.06246e-21)
(1.16469 0.0264207 8.65644e-21)
(0.928233 0.0455342 -6.95122e-21)
(1.08608 0.054552 4.19022e-20)
(1.04335 0.0795102 7.50624e-20)
(1.06628 0.111421 1.07968e-19)
(1.08889 0.161282 2.64844e-20)
(1.13058 0.235691 2.111e-19)
(1.1971 0.341853 2.59594e-19)
(1.31603 0.540231 3.58212e-21)
(0.809653 -0.00187905 -4.93104e-21)
(1.16944 0.0215661 -2.92863e-22)
(0.93313 0.0398442 3.4026e-21)
(1.09229 0.0498087 9.75955e-21)
(1.0538 0.0732491 2.08583e-34)
(1.08113 0.10319 -8.07212e-21)
(1.11075 0.148278 -5.27198e-34)
(1.16401 0.213865 1.85565e-20)
(1.23453 0.300484 -5.43099e-20)
(1.38293 0.464254 -4.98074e-20)
(0.809953 -0.00637081 1.79962e-20)
(1.17441 0.0159935 -7.42223e-36)
(0.938137 0.0336903 -3.76214e-21)
(1.0983 0.0441164 -1.6661e-20)
(1.06349 0.0655703 -3.02152e-20)
(1.09456 0.0928186 -3.63613e-20)
(1.13001 0.132328 -6.51117e-34)
(1.19184 0.189026 -9.16914e-20)
(1.26455 0.257392 -1.25557e-19)
(1.42791 0.386931 8.90008e-20)
(0.810435 -0.0119907 0)
(1.17979 0.00977943 -6.2546e-36)
(0.943199 0.0272396 0)
(1.10395 0.0376425 0)
(1.07218 0.0567227 0)
(1.10631 0.0806852 0)
(1.14652 0.114162 -3.87585e-34)
(1.21417 0.161842 0)
(1.28907 0.213678 -2.03958e-20)
(1.45445 0.313925 5.34264e-20)
(0.811173 -0.0187061 6.00908e-21)
(1.18584 0.00308629 -3.68759e-21)
(0.948329 0.0207224 -4.5438e-21)
(1.10909 0.0305844 0)
(1.07972 0.0469483 0)
(1.11623 0.0671669 6.77461e-21)
(1.16021 0.0944049 2.70869e-20)
(1.23149 0.132959 -1.36343e-20)
(1.30847 0.170852 -2.99664e-20)
(1.4688 0.245491 2.03611e-19)
(0.812286 -0.0285048 -6.30619e-20)
(1.19288 -0.00454975 5.36573e-21)
(0.953512 0.0142711 -4.94274e-21)
(1.11356 0.0231625 -5.69007e-21)
(1.08596 0.0364839 -1.08295e-20)
(1.1242 0.0526123 -8.3346e-21)
(1.17102 0.0735437 -2.0582e-20)
(1.24439 0.103008 -3.80154e-20)
(1.32299 0.129487 -5.25575e-20)
(1.47592 0.181808 7.15798e-20)
(0.813802 -0.0340952 -9.53977e-21)
(1.20141 -0.0112516 -7.45071e-21)
(0.95847 0.00952319 -5.286e-21)
(1.1167 0.0154332 -8.06033e-21)
(1.09029 0.0253562 2.14454e-35)
(1.12971 0.0370807 7.29537e-21)
(1.17856 0.0515605 -9.41733e-34)
(1.25309 0.0718677 -1.37929e-20)
(1.33266 0.0888025 1.85169e-20)
(1.47928 0.120308 2.58986e-20)
(0.811143 -0.0595085 1.57355e-19)
(1.19257 -0.0229497 -8.58969e-21)
(0.947618 0.00251049 -5.53699e-21)
(1.10331 0.00900792 3.85399e-21)
(1.07791 0.0145311 3.1562e-21)
(1.11813 0.0221599 1.39926e-20)
(1.16833 0.0306281 7.91026e-21)
(1.24366 0.0426778 -4.76994e-21)
(1.32303 0.0515465 -2.00468e-20)
(1.46835 0.0675616 1.38902e-19)
(0.729242 -0.038622 1.00479e-20)
(0.938572 -0.0191341 -5.28092e-35)
(0.709024 0.00271045 -6.40109e-21)
(0.85026 0.000145226 0)
(0.817384 0.00286388 0)
(0.852759 0.00441879 7.54098e-21)
(0.894976 0.00598828 -8.97768e-36)
(0.956995 0.00865652 -1.37462e-20)
(1.0239 0.00993981 -2.69147e-20)
(1.13425 0.0125962 5.60677e-20)
(1.47456 0.637664 -1.79942e-19)
(1.58584 0.614863 -2.71552e-19)
(1.68774 0.601182 0)
(1.77552 0.580331 1.15093e-19)
(1.85562 0.53687 5.43763e-19)
(1.9314 0.469659 -1.17272e-19)
(2.00074 0.385522 1.54585e-18)
(2.05905 0.291228 -7.87393e-20)
(2.10283 0.190495 -3.48015e-19)
(2.13026 0.0867195 3.29912e-19)
(1.51589 0.51726 8.08749e-20)
(1.59223 0.501856 1.07687e-19)
(1.67016 0.486603 -8.76335e-21)
(1.7462 0.460416 1.76647e-19)
(1.81847 0.417657 -1.5064e-19)
(1.88536 0.360507 -3.68303e-19)
(1.94398 0.293754 -1.11107e-19)
(1.99125 0.221096 5.07686e-19)
(2.02594 0.144753 -2.1792e-20)