/*--------------------------------*- C++ -*----------------------------------*\
  =========                 |
  \\      /  F ield         | OpenFOAM: The Open Source CFD Toolbox
   \\    /   O peration     | Website:  https://openfoam.org
    \\  /    A nd           | Version:  13
     \\/     M anipulation  |
\*---------------------------------------------------------------------------*/
FoamFile
{
    format      ascii;
    class       surfaceScalarField;
    location    "8.515";
    object      phi;
}
// * * * * * * * * * * * * * * * * * * * * * * * * * * * * * * * * * * * * * //

dimensions      [0 3 -1 0 0 0 0];

internalField   nonuniform List<scalar> 
823
(
0.000372759
0.0143388
-0.0147116
0.0250784
0.00304121
-0.0277469
0.0947022
-0.0466579
-0.0229659
0.200086
-0.116339
0.010955
-0.153689
0.00741571
0.34636
0.00634681
0.00799202
0.0614201
-0.0520321
0.164942
-0.15018
0.283151
-0.234547
-0.307563
0.437024
0.0265059
-0.0185139
0.121279
-0.146805
0.238431
-0.267333
0.347218
-0.343333
-0.384571
0.424226
0.0498287
-0.0683426
0.149782
-0.246758
0.230653
-0.348204
0.275742
-0.388423
-0.399112
0.290284
0.0615527
-0.129895
0.130747
-0.315953
0.16768
-0.385137
0.182027
-0.40277
0.192138
-0.409223
-0.0166025
0.0766601
-0.0600576
-0.0504601
0.116861
-0.0830034
-0.0864952
0.118528
-0.0824932
-0.119752
0.109469
-0.076212
0.0972857
-0.149824
-0.0672144
0.0149479
0.0617121
0.0209316
0.110877
0.0202019
0.119258
0.0190311
0.11064
0.0946883
0.0216285
0.0268802
0.0348319
0.0596515
0.0781061
0.0870578
0.0918518
0.110459
0.0872382
0.0750942
0.130054
0.0190663
0.0157656
0.0538773
0.043295
0.0907168
0.0550123
0.12948
0.0484752
0.044856
0.159718
0.00105404
0.0166022
0.0486486
0.108079
0.16035
-0.201577
0.161473
-0.10972
0.120148
-1.60707
1.28534
0.348953
-0.710831
0.482026
0.231774
0.983786
-0.866607
0.327792
-0.363903
0.13802
0.0450811
0.296464
-1.76551
0.266286
-0.680653
0.205545
1.04453
0.220991
0.394365
-0.219231
0.513809
-1.88495
0.309562
-0.476407
0.247789
1.1063
0.0750762
0.42592
-0.485433
0.508492
-1.96753
0.299943
-0.267858
0.294157
1.11209
-0.124879
0.397448
-0.72253
0.329005
-1.89908
0.13869
-0.0775427
0.358716
0.892061
-0.371815
1.31536
-0.788506
-1.24938
0.884385
-1.46811
0.519325
0.287518
0.928787
0.482598
-0.578708
1.3876
-0.72391
-1.4522
0.791264
-0.871777
0.721953
0.356828
1.21014
-0.00559346
-0.602851
1.25263
-0.586353
-1.39019
0.777933
-0.39708
0.907185
0.227577
1.23542
-0.333827
-0.468575
1.0556
-0.318872
-1.32308
0.771229
-0.112705
0.976934
0.021872
0.941014
-0.297908
-0.206984
0.536864
-0.855736
0.424159
0.446031
0.148123
1.13052
0.160961
-1.09935
1.21808
0.202725
1.3167
0.325609
1.3655
0.388222
0.46248
1.03292
0.100805
-0.972767
1.11071
0.124939
1.21322
0.223101
1.32804
0.2734
0.338323
0.984271
0.0472122
-0.930678
1.0388
0.0704104
1.1336
0.1283
1.25081
0.156194
0.198941
0.948251
0.00810579
-0.909145
0.998378
0.0202834
1.08512
0.0415615
1.19063
0.0506806
0.0664875
0.676723
-0.668617
0.697006
0.738568
0.789248
0.139925
0.308004
-0.252423
-0.195507
0.0933602
0.31336
-0.266795
0.0523389
0.324239
-0.283218
0.0180743
0.315361
-0.281097
0.203342
-0.185268
0.100941
0.344613
-0.137549
0.0648464
0.349455
0.0330172
0.356068
0.00789195
0.340486
0.211234
0.0718326
0.381023
-0.108243
0.038786
0.382502
0.0106659
0.384189
-0.00516487
0.356317
0.206069
-0.00999774
0.396818
-0.00579724
-0.0266871
0.399191
-0.0348438
0.392345
-0.0270889
0.348562
0.17898
-0.0853244
0.07292
-0.0889032
-0.0816947
-0.049085
0.194769
0.112964
-0.24821
-0.0595229
0.14106
0.117526
-0.0638177
0.0870033
0.122372
-0.0683148
0.035143
0.122025
-0.070165
0.0863566
-0.0512136
0.196668
0.15613
-0.239834
0.150084
0.16411
0.0976021
0.174853
0.0415308
0.178097
0.127887
0.133947
0.201017
-0.178834
0.093604
0.204453
0.0553638
0.213094
0.0197607
0.2137
0.147648
0.156007
0.233235
-0.188224
0.116322
0.244138
0.0715893
0.257826
0.0279908
0.257298
0.175639
0.0814767
-0.100665
0.058819
0.0334273
0.009629
0.405641
0.0725144
-0.0821755
0.421955
0.0437885
-0.0601032
0.407851
0.204958
-0.190854
0.396123
0.220759
-0.209031
0.516246
-0.368332
0.402837
0.0656569
0.415132
0.0314935
0.399244
0.220847
0.386314
0.233689
0.662726
0.396549
0.0650877
0.409517
0.0185258
0.378835
0.251528
0.374895
0.23763
0.858786
0.393365
0.0677022
0.395345
0.0165456
0.371222
0.275651
0.356377
0.252475
1.02694
0.385502
0.0781802
0.386339
0.0157087
0.343813
0.318176
0.326175
0.270114
1.25245
0.622464
0.0597364
0.654136
-0.0159627
0.707861
0.264451
0.806649
0.171326
1.04617
1.01293
0.637364
0.0263928
0.656333
-0.0349313
0.751471
0.169313
0.785528
0.137269
0.813815
1.01788
0.645267
-0.0148537
0.66562
-0.0552839
0.743113
0.0918198
0.762853
0.117529
0.563168
1.0135
0.642231
-0.0530643
0.644578
-0.057631
0.701201
0.0351969
0.761121
0.0576097
0.270468
1.05382
0.550956
0.493325
0.528522
0.586132
0.8566
1.05238
-0.234951
1.04037
-0.125543
1.0516
-0.119478
1.04592
-0.000115775
0.0194963
0.969642
-0.186714
0.951784
-0.107684
0.936525
-0.104219
0.948274
-0.0118652
-0.00499664
0.949213
-0.122428
0.932821
-0.0912922
0.90712
-0.0785188
0.923177
-0.0279222
-0.012497
0.987888
-0.0564959
0.946295
-0.0496983
0.910408
-0.0426327
0.907571
-0.0250844
-0.0140713
0.800104
0.750406
0.707773
0.682689
0.0474239
0.13636
-0.183784
0.0729518
0.30588
-0.331408
0.0744213
0.361539
-0.363008
0.0642766
0.366196
-0.356051
0.334919
0.0525231
-0.323165
0.0676151
0.0687448
0.140401
0.233094
0.176794
0.325146
0.182054
0.360936
0.357639
0.159333
0.0551293
0.0136155
0.166775
0.121448
0.262593
0.229328
0.332369
0.29116
0.346251
0.343757
0.0255334
-0.0119178
0.118784
0.0281979
0.239721
0.10839
0.359136
0.171745
0.236125
0.469261
0.00472596
-0.0166438
0.0481176
-0.0151937
0.141116
0.015392
0.257621
0.0552398
0.0946689
0.399078
-0.00582948
-0.0108143
0.000409327
-0.0214325
0.0375862
-0.0217848
0.104801
-0.0119749
0.00987692
0.189593
-0.00415178
-0.00666252
-0.00558492
-0.0199994
0.00298714
-0.0303568
0.0258759
-0.0348636
-0.0310425
0.0667953
-0.00559485
-0.00106767
-0.0129229
-0.0126713
-0.0224549
-0.0208248
-0.0329603
-0.0243583
-0.0257577
-0.038245
-0.0231193
0.0220517
-0.0606087
0.0248181
-0.104586
0.023152
-0.150404
0.0214597
0.0168439
-0.193005
-0.0380059
-0.0961912
-0.155533
-0.210285
-0.260655
0.395658
0.423994
-0.630059
0.536927
0.171258
-0.312527
0.520586
0.163401
-0.14706
0.375939
0.220144
-0.0754965
0.0771071
0.00743668
0.297647
0.193143
0.509389
-0.0404848
0.555577
0.117213
0.391486
0.384235
0.180896
0.0522927
0.102606
0.399518
-0.38771
0.530777
-0.0140455
0.364211
0.5508
0.276997
-0.170711
0.0803117
0.283977
-0.842398
0.47968
-0.209748
0.317592
0.712888
0.343049
-0.290063
0.152881
0.425159
0.271441
0.159473
0.459117
-0.61859
-0.0225407
0.182014
-0.0105176
-0.0120231
0.0711346
-0.0816522
-0.0681451
0.853474
-1.02442
0.72296
0.563877
0.406728
0.0836544
-0.0153374
-0.068317
0.134526
-0.0508721
0.245874
-0.111348
0.415745
-0.169871
-0.202845
0.187922
-0.150737
0.296384
0.528793
0.828184
0.138689
-0.12979
0.159885
-0.168783
0.105376
-0.134402
0.167716
0.0675326
-0.14059
0.178433
0.0272516
-0.139608
0.179889
-0.0969193
0.124171
0.175851
-0.0908022
-0.214839
0.132586
-0.0911374
0.0841742
-0.0921785
0.0346396
-0.0900732
-0.0622797
0.18659
-0.042171
-0.235221
0.136431
-0.0409782
0.0847954
-0.0405434
0.0343988
-0.0396766
-0.0278809
0.198849
0.00899333
-0.250013
0.147033
0.0108379
0.093717
0.0127724
0.0394266
0.0146138
0.0115457
0.203741
-0.254271
0.150761
0.0952191
0.0396679
0.0353102
-0.303184
-0.0552916
0.0124807
-0.333221
-0.00845161
-0.342076
-0.0160426
-0.323817
-0.199826
0.115416
-0.274027
-0.144573
0.0741618
-0.291967
0.0351045
-0.303019
0.0063112
-0.295024
-0.193515
0.132433
-0.2365
-0.169961
0.0933803
-0.252914
0.0542567
-0.263895
0.0188589
-0.259626
-0.174656
0.152058
-0.203521
-0.185037
0.11094
-0.211795
0.0670185
-0.219974
0.0259615
-0.218569
-0.148695
0.148824
-0.19246
0.104745
0.0632043
0.024524
0.386668
0.110391
-0.101079
0.38615
0.0999848
-0.0994666
0.353143
0.163917
-0.13091
0.295383
0.079436
-0.0216755
-0.172807
0.299406
0.395189
0.111181
0.400396
0.0947781
0.39088
0.173433
0.343561
0.126755
-0.0440845
0.401643
0.105518
0.411089
0.0853319
0.405397
0.179125
0.369213
0.162939
0.0899076
0.406848
0.0946489
0.418553
0.0736269
0.413946
0.183733
0.387981
0.188904
0.227875
0.408453
0.421977
0.414856
0.394728
0.413681
0.0963697
0.327232
0.0864497
0.234788
0.0924434
0.23026
0.00452805
-0.165133
0.395394
0.505341
0.492324
0.453857
0.43671
0.570982
0.31719
0.0782034
0.246953
0.0702374
0.164347
0.0826061
0.095404
0.0689427
0.027087
0.456726
0.341925
0.254571
0.178941
)
;

boundaryField
{
    left
    {
        type            calculated;
        value           nonuniform List<scalar> 
17
(
-0.60402
-0.60402
-0.60402
-0.60402
-0.60402
-0.39598
-0.39598
-0.39598
-0.39598
-0.39598
-0.39598
-0.39598
-0.39598
-0.39598
-0.39598
-0.510051
-0.510051
)
;
    }
    right
    {
        type            calculated;
        value           nonuniform List<scalar> 
17
(
0.13928
0.34602
0.291395
0.287698
0.26811
0.25154
0.250586
0.267886
0.312345
0.393704
0.494112
0.605651
1.13568
1.23429
1.10114
0.679424
-0.0588612
)
;
    }
    down
    {
        type            calculated;
        value           uniform 0;
    }
    up
    {
        type            calculated;
        value           uniform 0;
    }
    cylinder
    {
        type            calculated;
        value           uniform 0;
    }
    defaultFaces
    {
        type            empty;
    }
}


// ************************************************************************* //
