/*--------------------------------*- C++ -*----------------------------------*\
  =========                 |
  \\      /  F ield         | OpenFOAM: The Open Source CFD Toolbox
   \\    /   O peration     | Website:  https://openfoam.org
    \\  /    A nd           | Version:  13
     \\/     M anipulation  |
\*---------------------------------------------------------------------------*/
FoamFile
{
    format      ascii;
    class       surfaceScalarField;
    location    "8.98";
    object      phi;
}
// * * * * * * * * * * * * * * * * * * * * * * * * * * * * * * * * * * * * * //

dimensions      [0 3 -1 0 0 0 0];

internalField   nonuniform List<scalar> 
823
(
-0.00188002
0.0163555
-0.0144755
0.019341
0.00607572
-0.0272968
0.0867717
-0.0430862
-0.0243445
0.191681
-0.111601
0.00669203
-0.148419
0.00203891
0.338062
0.00615397
0.0102015
0.05995
-0.0477203
0.162346
-0.145483
0.281049
-0.230304
-0.304056
0.436685
0.0260924
-0.0158909
0.120034
-0.141662
0.23701
-0.262459
0.346118
-0.339412
-0.381576
0.423638
0.0490878
-0.0649787
0.149375
-0.241949
0.231513
-0.344596
0.278021
-0.385921
-0.397006
0.293452
0.0612833
-0.126262
0.131413
-0.312079
0.169193
-0.382376
0.183594
-0.400322
0.192911
-0.406323
-0.0100771
0.0626285
-0.0525514
-0.0364092
0.108948
-0.0826161
-0.0653357
0.115618
-0.0866915
-0.0889967
0.108813
-0.0851525
0.0977068
-0.103332
-0.0833713
0.0157026
0.0469259
0.0251216
0.0995291
0.0251987
0.115541
0.0217813
0.112231
0.100029
0.019459
0.022219
0.0247069
0.0539591
0.067789
0.0803463
0.0891538
0.100089
0.0924878
0.0849595
0.115159
0.0133381
0.0113688
0.0435376
0.0375896
0.0786081
0.0540833
0.117132
0.0539644
0.0528692
0.149222
-0.00310672
0.00718608
0.0369249
0.0975813
0.152489
0.131122
0.492439
-0.726893
0.439719
-1.44069
1.13209
0.420741
-1.41921
1.43819
0.336247
0.527032
-0.442539
0.453009
-0.41235
0.302234
0.209664
0.609439
-1.7479
0.444912
-1.25468
0.28791
0.684034
0.450917
0.289039
0.0357838
0.51713
-1.97599
0.407236
-1.14479
0.285016
0.806253
0.408141
0.355913
-0.170908
0.402867
-2.02294
0.285702
-1.02762
0.304707
0.787248
0.319265
0.399509
-0.417927
0.339484
-1.96292
0.126705
-0.814842
0.251946
0.662007
0.0969966
1.35829
-0.53807
-1.23815
1.07073
-1.67536
0.547927
-0.292036
0.620456
0.589478
-0.211157
1.48503
-0.580809
-1.44229
0.931314
-1.12164
0.599944
0.0393336
0.920064
0.269359
-0.381211
1.31778
-0.523127
-1.37546
0.793983
-0.597841
0.718798
0.114519
1.08761
-0.0994501
-0.368244
1.12474
-0.326891
-1.32098
0.720022
-0.19312
0.80091
0.0336307
0.902889
-0.201429
-0.18511
0.539925
-0.866816
0.346805
0.380436
0.179007
1.12335
0.155587
-1.08602
1.20698
0.209818
1.31375
0.316875
1.35276
0.397665
0.452676
1.02202
0.0951298
-0.961564
1.10017
0.131674
1.20333
0.213711
1.32157
0.279424
0.331955
0.969822
0.0451631
-0.919856
1.02774
0.0737557
1.11787
0.123585
1.2388
0.158488
0.195295
0.944303
0.00748922
-0.906629
0.99751
0.0205486
1.0815
0.0395912
1.1897
0.050294
0.0640141
0.692368
-0.684879
0.712917
0.752508
0.802802
0.139657
0.30501
-0.250837
-0.19383
0.0935916
0.311438
-0.265372
0.0525954
0.322666
-0.28167
0.0181591
0.313805
-0.279368
0.201855
-0.183696
0.10015
0.341819
-0.13696
0.064026
0.347562
0.0322155
0.354476
0.00732033
0.3387
0.209175
0.0704812
0.377896
-0.106558
0.0376383
0.380405
0.00977024
0.382344
-0.00561114
0.354081
0.203564
-0.0116076
0.394
-0.00449614
-0.0281286
0.396926
-0.0360192
0.390235
-0.0276843
0.345746
0.17588
-0.0877478
0.0754246
-0.0911439
-0.0832851
-0.0496178
0.195191
0.110561
-0.248772
-0.0569803
0.141319
0.114933
-0.0610605
0.0871028
0.119603
-0.0653867
0.0351542
0.119036
-0.067087
0.0836871
-0.0485329
0.196761
0.154074
-0.240273
0.149938
0.161755
0.0974587
0.172083
0.0414948
0.175
0.125182
0.136747
0.198731
-0.181404
0.0961376
0.202364
0.0571499
0.211071
0.0206044
0.211545
0.145786
0.155092
0.231288
-0.187649
0.115725
0.241731
0.0713799
0.255415
0.0279106
0.255014
0.173697
0.0842478
-0.103797
0.0606071
0.0343529
0.00999885
0.405973
0.0661899
-0.0761836
0.423119
0.0419228
-0.0590682
0.407186
0.209596
-0.193663
0.395907
0.213989
-0.20271
0.502777
-0.355642
0.403473
0.058696
0.415622
0.0297739
0.397728
0.22749
0.386003
0.225714
0.648507
0.397305
0.057371
0.409316
0.0177623
0.376648
0.260157
0.373886
0.228477
0.840989
0.394298
0.0590522
0.393971
0.0180895
0.368167
0.285961
0.3572
0.239444
1.01054
0.386144
0.0688877
0.383425
0.0208082
0.341831
0.327556
0.325961
0.255314
1.2327
0.621866
0.0510425
0.647311
-0.0046368
0.702711
0.272155
0.811084
0.146941
1.04712
0.996672
0.635983
0.0190797
0.646046
-0.0146994
0.749655
0.168546
0.80712
0.0894758
0.833468
1.02077
0.641059
-0.0179584
0.660475
-0.0341156
0.753973
0.0750471
0.775706
0.0677433
0.598504
1.01067
0.638354
-0.0522919
0.653801
-0.0495625
0.712562
0.0162857
0.741996
0.0383093
0.30036
1.04014
0.551729
0.502166
0.518452
0.556761
0.857121
1.03656
-0.233713
1.02698
-0.127382
1.0378
-0.117382
1.03416
-0.000858738
0.0235648
0.969856
-0.182801
0.946807
-0.104332
0.92764
-0.0982153
0.938285
-0.0115037
0.000285341
0.943437
-0.115568
0.922615
-0.0835107
0.897491
-0.0730906
0.911038
-0.0250509
-0.00853252
0.975675
-0.0511034
0.936957
-0.0447923
0.903728
-0.0398619
0.902271
-0.0235936
-0.0128911
0.806018
0.761226
0.721364
0.69777
0.0471109
0.143539
-0.19065
0.0720382
0.314178
-0.339105
0.07332
0.368366
-0.369648
0.06368
0.371638
-0.361998
0.339966
0.0521178
-0.328404
0.0679657
0.075573
0.139058
0.243085
0.174193
0.333231
0.179273
0.366558
0.360676
0.158563
0.0567731
0.0187998
0.167025
0.132833
0.259915
0.240341
0.325597
0.300875
0.351745
0.334529
0.0272705
-0.00847068
0.122015
0.0380884
0.241602
0.120754
0.358423
0.184055
0.249628
0.460541
0.00600329
-0.014474
0.0524876
-0.00839597
0.146687
0.0265541
0.261714
0.0690282
0.113517
0.397824
-0.00321996
-0.011254
0.00696512
-0.018581
0.0473657
-0.0138465
0.115165
0.00122924
0.0301023
0.19858
-0.00119624
-0.0100578
0.000354341
-0.0201316
0.0106536
-0.0241457
0.0338007
-0.0219178
-0.0109286
0.0748316
-0.00274452
-0.00731323
-0.00978569
-0.0130904
-0.0203273
-0.0136041
-0.0315531
-0.0106921
-0.00486531
-0.0376164
-0.0239802
0.016667
-0.0638325
0.0267619
-0.109299
0.0318624
-0.156302
0.0363104
0.0402666
-0.201433
-0.0358844
-0.0917386
-0.146568
-0.19541
-0.238514
0.319208
0.658056
-0.778684
0.451605
0.10142
-0.233817
0.556758
-0.121825
0.0166714
0.461298
0.150448
-0.0549879
0.0775701
0.00112327
0.201761
0.531127
0.349634
-0.0464537
0.5757
-0.34789
0.492879
0.233268
0.170634
-0.10458
0.598091
0.166817
-0.317851
0.552089
-0.733161
0.476837
0.30852
0.264025
-0.338284
0.734941
0.0758996
-0.732034
0.509273
-1.16653
0.434817
0.382976
0.348204
-0.230466
0.169594
0.441244
0.381681
0.0978171
0.500526
-0.598343
-0.0360298
0.133847
0.0244629
-0.0604927
0.0996236
-0.0751607
-0.0649313
0.750954
-1.02911
0.650984
0.607163
0.477014
0.0852232
-0.0150003
-0.0702229
0.135961
-0.0507378
0.24314
-0.107179
0.406168
-0.163028
-0.192175
0.190777
-0.153659
0.298601
0.525951
0.823464
0.139474
-0.132916
0.163025
-0.169582
0.105922
-0.137905
0.171457
0.0678243
-0.144592
0.18269
0.0273607
-0.144204
0.184668
-0.101078
0.128439
0.176983
-0.0936927
-0.216206
0.133502
-0.0944254
0.0848735
-0.095963
0.0350294
-0.09436
-0.0660486
0.188374
-0.044998
-0.237068
0.138083
-0.0441351
0.0860848
-0.0439644
0.0350149
-0.0432902
-0.0310337
0.19966
0.00629793
-0.250956
0.14766
0.00786567
0.0941694
0.0095259
0.0396743
0.0112049
0.00864061
0.20483
-0.255512
0.151635
0.0957744
0.0398923
0.037217
-0.308367
-0.0572535
0.0138476
-0.338628
-0.0074473
-0.348353
-0.0156161
-0.330936
-0.206266
0.117287
-0.278548
-0.147107
0.0757613
-0.297102
0.0361859
-0.308777
0.00681637
-0.301567
-0.199449
0.134862
-0.240441
-0.172969
0.0951018
-0.257342
0.0553776
-0.269053
0.0194018
-0.265591
-0.180048
0.153792
-0.206912
-0.187321
0.112325
-0.215875
0.0680286
-0.224757
0.0264612
-0.224023
-0.153586
0.150988
-0.194876
0.106571
0.0645032
0.0251477
0.388069
0.107067
-0.0991564
0.386973
0.101383
-0.100288
0.353519
0.163336
-0.129882
0.29583
0.0720842
-0.0143952
-0.180779
0.307027
0.396421
0.106626
0.401687
0.0961167
0.391095
0.173929
0.34408
0.119099
-0.0529053
0.402517
0.100089
0.41238
0.0862537
0.405749
0.180559
0.369218
0.15563
0.0792447
0.407203
0.088865
0.419847
0.0736098
0.414663
0.185743
0.388128
0.182166
0.216416
0.408661
0.423203
0.415283
0.394739
0.414184
0.0958673
0.327778
0.0864056
0.236237
0.0915409
0.235048
0.00118918
-0.169444
0.404492
0.506762
0.49288
0.454539
0.441333
0.578916
0.325057
0.0794347
0.253487
0.0715705
0.16908
0.0844065
0.0984049
0.0706755
0.028182
0.463474
0.347724
0.259162
0.182731
)
;

boundaryField
{
    left
    {
        type            calculated;
        value           nonuniform List<scalar> 
17
(
-0.60402
-0.60402
-0.60402
-0.60402
-0.60402
-0.39598
-0.39598
-0.39598
-0.39598
-0.39598
-0.39598
-0.39598
-0.39598
-0.39598
-0.39598
-0.510051
-0.510051
)
;
    }
    right
    {
        type            calculated;
        value           nonuniform List<scalar> 
17
(
0.164555
0.413206
0.382605
0.399815
0.383446
0.350639
0.317535
0.295588
0.290003
0.327792
0.393583
0.474214
0.928609
1.09012
1.07464
0.719755
-0.00610236
)
;
    }
    down
    {
        type            calculated;
        value           uniform 0;
    }
    up
    {
        type            calculated;
        value           uniform 0;
    }
    cylinder
    {
        type            calculated;
        value           uniform 0;
    }
    defaultFaces
    {
        type            empty;
    }
}


// ************************************************************************* //
