# Forces      
# CofR        : (0.000000e+00 0.000000e+00 0.000000e+00)
# Time        forces(pressure viscous)	moments(pressure viscous)
5.215         	((8.946606e+00 -5.928132e-01 4.523135e-19) (1.218166e+00 6.248212e-02 1.073207e-18)) ((-2.230954e-21 -3.371188e-19 -5.301111e-07) (4.015983e-18 -4.148424e-20 -4.537783e-02))
5.22          	((8.950664e+00 -5.942550e-01 4.512409e-19) (1.218520e+00 6.194050e-02 1.071923e-18)) ((-2.970839e-21 -3.364849e-19 -5.312634e-07) (4.016121e-18 -3.987092e-20 -4.556250e-02))
5.225         	((8.953040e+00 -5.951389e-01 4.505786e-19) (1.218870e+00 6.140165e-02 1.070666e-18)) ((-3.524038e-21 -3.361194e-19 -5.319317e-07) (4.016310e-18 -3.825714e-20 -4.574713e-02))
5.23          	((8.955927e+00 -5.964646e-01 4.496427e-19) (1.219221e+00 6.086354e-02 1.069723e-18)) ((-4.214256e-21 -3.355728e-19 -5.334678e-07) (4.016301e-18 -3.690144e-20 -4.593174e-02))
5.235         	((8.959018e+00 -5.980004e-01 4.487095e-19) (1.219570e+00 6.032722e-02 1.068572e-18)) ((-4.904941e-21 -3.350278e-19 -5.344457e-07) (4.016434e-18 -3.539593e-20 -4.611631e-02))
5.24          	((8.962178e+00 -5.995254e-01 4.477952e-19) (1.219917e+00 5.979278e-02 1.067392e-18)) ((-5.580877e-21 -3.344934e-19 -5.353430e-07) (4.016590e-18 -3.387539e-20 -4.630082e-02))
5.245         	((8.965560e+00 -6.009147e-01 4.469605e-19) (1.220262e+00 5.926031e-02 1.066195e-18)) ((-6.201596e-21 -3.340166e-19 -5.361404e-07) (4.016759e-18 -3.235112e-20 -4.648528e-02))
5.25          	((8.968691e+00 -6.026686e-01 4.458999e-19) (1.220606e+00 5.872931e-02 1.064994e-18)) ((-6.965995e-21 -3.333668e-19 -5.371507e-07) (4.016942e-18 -3.082978e-20 -4.666968e-02))
5.255         	((8.968980e+00 -6.069407e-01 4.433619e-19) (1.220944e+00 5.819660e-02 1.063766e-18)) ((-8.684731e-21 -3.315916e-19 -5.394716e-07) (4.017142e-18 -2.927477e-20 -4.685398e-02))
5.26          	((8.971326e+00 -6.085701e-01 4.424044e-19) (1.221279e+00 5.766519e-02 1.062349e-18)) ((-9.374870e-21 -3.309568e-19 -5.404419e-07) (4.017248e-18 -2.758862e-20 -4.703820e-02))
5.265         	((8.974110e+00 -6.101986e-01 4.411691e-19) (1.221610e+00 5.713484e-02 1.060822e-18)) ((-1.022906e-20 -3.301365e-19 -5.415300e-07) (4.017306e-18 -2.581925e-20 -4.722231e-02))
5.27          	((8.976554e+00 -6.124374e-01 4.393432e-19) (1.221938e+00 5.660432e-02 1.059083e-18)) ((-1.144683e-20 -3.288703e-19 -5.430653e-07) (4.017262e-18 -2.387687e-20 -4.740630e-02))
5.275         	((8.979262e+00 -6.145026e-01 4.377043e-19) (1.222264e+00 5.607588e-02 1.057851e-18)) ((-1.249593e-20 -3.277121e-19 -5.437912e-07) (4.017493e-18 -2.237695e-20 -4.759018e-02))
5.28          	((8.981254e+00 -6.175868e-01 4.349898e-19) (1.222591e+00 5.554874e-02 1.056919e-18)) ((-1.413179e-20 -3.256943e-19 -5.445025e-07) (4.017892e-18 -2.113558e-20 -4.777392e-02))
5.285         	((8.981057e+00 -6.228333e-01 4.307327e-19) (1.222913e+00 5.502009e-02 1.056127e-18)) ((-1.670039e-20 -3.224979e-19 -5.457496e-07) (4.018394e-18 -1.999417e-20 -4.795751e-02))
5.29          	((8.989855e+00 -6.167638e-01 4.388348e-19) (1.223245e+00 5.450484e-02 1.055727e-18)) ((-1.246610e-20 -3.290776e-19 -5.469892e-07) (4.019095e-18 -1.926487e-20 -4.814096e-02))
5.295         	((8.997567e+00 -6.120272e-01 4.452092e-19) (1.223581e+00 5.399895e-02 1.054817e-18)) ((-9.155283e-21 -3.342790e-19 -5.481543e-07) (4.019558e-18 -1.810856e-20 -4.832428e-02))
5.3           	((8.999054e+00 -6.154114e-01 4.425818e-19) (1.223913e+00 5.349240e-02 1.053944e-18)) ((-1.077347e-20 -3.323393e-19 -5.491973e-07) (4.020071e-18 -1.694360e-20 -4.850745e-02))
5.305         	((9.001466e+00 -6.184076e-01 4.411324e-19) (1.224243e+00 5.298564e-02 1.053196e-18)) ((-1.180057e-20 -3.313511e-19 -5.506583e-07) (4.020642e-18 -1.589974e-20 -4.869046e-02))
5.31          	((9.004207e+00 -6.192472e-01 4.403926e-19) (1.224571e+00 5.248099e-02 1.052242e-18)) ((-1.232234e-20 -3.308697e-19 -5.512876e-07) (4.021114e-18 -1.469807e-20 -4.887331e-02))
5.315         	((9.005936e+00 -6.144249e-01 4.406895e-19) (1.224895e+00 5.198548e-02 1.050868e-18)) ((-1.192612e-20 -3.310607e-19 -5.486462e-07) (4.021377e-18 -1.317123e-20 -4.905601e-02))
