# Selection   : all
# Cells       : 1800
# Volume      : 7.372328e+01
# Time        	max(p)
4.15          	1.196698e+00
4.175         	1.799721e+00
4.2           	1.852414e+00
