/*--------------------------------*- C++ -*----------------------------------*\
  =========                 |
  \\      /  F ield         | OpenFOAM: The Open Source CFD Toolbox
   \\    /   O peration     | Website:  https://openfoam.org
    \\  /    A nd           | Version:  13
     \\/     M anipulation  |
\*---------------------------------------------------------------------------*/
FoamFile
{
    format      ascii;
    class       surfaceScalarField;
    location    "47.6";
    object      phi;
}
// * * * * * * * * * * * * * * * * * * * * * * * * * * * * * * * * * * * * * //

dimensions      [0 3 -1 0 0 0 0];

internalField   nonuniform List<scalar> 
823
(
0.00340114
0.0289966
-0.0323977
0.0146372
0.025124
-0.03636
0.0541594
-0.0273957
-0.0121265
0.132738
-0.0900981
0.0115191
-0.125795
0.00803505
0.250499
0.0191927
0.00980386
0.0763946
-0.0320778
0.165131
-0.116132
0.271392
-0.196359
-0.267948
0.413545
0.0219136
-0.0121097
0.105045
-0.115209
0.215112
-0.226199
0.322579
-0.303826
-0.352318
0.406948
0.0416264
-0.0537361
0.138009
-0.211591
0.226718
-0.314908
0.284565
-0.361673
-0.376125
0.308372
0.0556048
-0.109341
0.129287
-0.285274
0.173096
-0.358717
0.190118
-0.378695
0.198074
-0.384081
0.0182613
-0.0587415
0.0404802
0.045437
-0.120582
0.0934059
0.0643168
-0.132951
0.114071
0.0686584
-0.114761
0.11042
-0.0844547
0.0583996
0.0947135
0.0226747
-0.0814162
0.0428222
-0.140729
0.0438074
-0.133936
0.0280092
-0.0989631
-0.0565115
6.59877e-05
0.0233955
-0.104812
0.0290208
-0.146354
0.0185756
-0.123491
0.00839126
-0.0887787
-0.0550761
0.00695587
-0.0347032
-0.0701085
-0.0983319
-0.0827258
-0.155083
-0.0667395
-0.196317
-0.0475444
-0.0264753
-0.224918
-0.102506
-0.221592
-0.300458
-0.336483
-0.354923
0.102455
-0.121998
0.0779428
0.21137
1.7718
-1.88072
0.438681
0.379702
-0.607013
0.45852
-1.57031
1.55047
-0.949952
0.933573
-0.180762
0.0588298
0.0764792
1.51456
0.532256
-0.0760754
0.512303
-1.55036
-0.946683
-0.0438601
0.109646
0.153497
1.3172
0.570155
-0.492733
0.555619
-1.53582
-0.922098
-0.0364316
-0.0788407
0.278538
1.00223
0.63455
-0.848745
0.609022
-1.51029
-0.871544
-0.036798
-0.396966
0.374251
0.591185
0.661449
-1.13594
0.638526
-1.48737
-0.810628
0.83866
-0.145232
-1.09039
1.1496
0.280243
1.32444
-1.31078
1.10499
-1.26792
-0.599115
1.24929
-0.0562345
-1.33829
1.48643
0.043101
1.34247
-1.16681
0.978164
-0.903618
-0.36964
1.31796
-0.0579505
-1.31625
1.52852
-0.167451
1.1973
-0.835601
0.851661
-0.557978
-0.20202
1.29021
-0.0523651
-1.29579
1.34326
-0.220501
0.91575
-0.408092
0.561587
-0.203815
-0.0611678
0.836066
-0.888431
0.615565
0.207473
0.00365776
1.07606
0.146536
-1.02452
1.14425
0.240182
1.24988
0.301315
1.2527
0.410725
0.412806
0.998946
0.0779784
-0.930389
1.05532
0.18381
1.15499
0.201647
1.24963
0.316079
0.324151
0.939544
0.0341226
-0.895688
1.00289
0.12046
1.08293
0.121611
1.20311
0.195898
0.211015
0.891889
0.00792525
-0.865692
0.966313
0.0460355
1.04346
0.0444618
1.16343
0.0759287
0.0786526
0.643353
-0.635427
0.689388
0.73385
0.809779
0.128392
0.295594
-0.247639
-0.176347
0.0853583
0.302972
-0.259938
0.0463839
0.313546
-0.274572
0.0146042
0.304793
-0.273013
0.196914
-0.18231
0.090556
0.33262
-0.127583
0.0560524
0.337476
0.0257865
0.343812
0.00284476
0.327735
0.199759
0.0506088
0.361896
-0.0798839
0.0223171
0.365768
-0.000943981
0.367073
-0.0100599
0.336851
0.189699
-0.0246702
0.377681
0.00888524
-0.0384219
0.379519
-0.0430936
0.371745
-0.0307662
0.324523
0.158933
-0.102693
0.0962922
-0.101869
-0.0888414
-0.0495919
0.205589
0.0933053
-0.258688
-0.0402063
0.151098
0.0974372
-0.0429462
0.0945626
0.102095
-0.0455598
0.0387628
0.102324
-0.0465241
0.0727928
-0.03403
0.197752
0.138283
-0.242729
0.150528
0.144661
0.0980346
0.154589
0.0418085
0.15855
0.114601
0.150711
0.184084
-0.196512
0.107176
0.188196
0.0648518
0.196913
0.0245925
0.198809
0.139194
0.1584
0.220075
-0.194391
0.117116
0.229479
0.0717085
0.242321
0.0277884
0.242729
0.166982
0.108322
-0.135886
0.0778626
0.045612
0.0153278
0.404145
0.0675743
-0.07574
0.423171
0.00265209
-0.0216773
0.41612
0.155512
-0.148461
0.392395
0.182564
-0.15884
0.387546
-0.25384
0.401853
0.0617005
0.418165
-0.0136591
0.405311
0.168366
0.376592
0.211283
0.521409
0.3969
0.0607805
0.413927
-0.0306862
0.383318
0.198975
0.361966
0.232634
0.686864
0.395249
0.0615111
0.401808
-0.0372454
0.367566
0.233217
0.339347
0.260853
0.83182
0.389712
0.0677785
0.391046
-0.0385794
0.338202
0.286062
0.310992
0.288062
1.00693
0.630455
0.0413439
0.660188
-0.0683126
0.673196
0.273054
0.737078
0.22418
0.767056
0.976949
0.648909
-0.00354467
0.657618
-0.0770219
0.686316
0.244356
0.782579
0.127918
0.545802
1.00383
0.654243
-0.0537676
0.638827
-0.0616058
0.691922
0.191261
0.788827
0.0310134
0.356201
0.978427
0.626837
-0.0765844
0.605352
-0.0401201
0.724323
0.0722901
0.766467
-0.0111315
0.170219
0.952449
0.527436
0.487316
0.559606
0.548474
0.718694
0.991839
-0.191238
0.991862
-0.127605
0.982818
-0.0708404
0.997232
-0.00552785
0.0690037
0.944266
-0.131671
0.928369
-0.111708
0.899664
-0.0421354
0.921608
-0.0274719
0.0602233
0.923233
-0.0764765
0.889828
-0.0783033
0.871934
-0.0242415
0.876713
-0.0322504
0.041248
0.905843
-0.0298703
0.861563
-0.0340238
0.850374
-0.0130518
0.837318
-0.0191946
0.0128742
0.688823
0.6548
0.641748
0.622553
0.0548389
0.178914
-0.233753
0.0780533
0.377312
-0.400527
0.0763699
0.430402
-0.428718
0.0664508
0.430159
-0.42024
0.397153
0.0525564
-0.383259
0.0859796
0.0929347
0.160622
0.302669
0.192415
0.398609
0.1966
0.425974
0.411622
0.182132
0.0748935
0.0180411
0.201478
0.176085
0.293677
0.30641
0.343414
0.376237
0.41791
0.337126
0.0364189
-0.0183777
0.158657
0.0538464
0.294402
0.170665
0.420733
0.249906
0.343494
0.495149
0.0061005
-0.0244783
0.0714136
-0.0114667
0.19214
0.0499384
0.33991
0.102136
0.20506
0.478344
-0.00509358
-0.0193847
0.0172166
-0.0337769
0.0878278
-0.0206727
0.196063
-0.00609958
0.0758842
0.325239
-0.00253601
-0.0168487
0.00628214
-0.0425951
0.0364646
-0.0508552
0.0783521
-0.0479871
-0.00601208
0.160248
0.00185787
-0.0187065
0.0108534
-0.0515906
0.02733
-0.0673317
0.0462986
-0.0669558
-0.0506109
0.0908975
0.00870368
-0.0274102
0.0271872
-0.0700742
0.0507586
-0.0909031
0.0763287
-0.0925258
-0.0824617
0.108179
0.01307
0.0364018
0.0595696
0.0774634
0.0897152
0.372388
1.11724
-1.16439
0.0983216
0.950433
-0.676367
-0.0995634
0.417429
-0.219544
0.165939
-0.826838
0.561336
-0.571992
0.385067
0.323262
0.954228
-0.0133609
1.28706
-0.0729422
0.47701
0.224303
-1.12408
-0.707082
0.399738
0.645387
0.0852106
1.60158
0.0754406
0.48678
0.297872
-1.34651
-0.797756
0.508897
0.244669
0.294376
1.8161
0.212613
0.568543
0.341126
-1.47503
-0.878239
0.412327
0.347715
0.309245
0.384689
-0.16517
0.742417
-0.577247
-0.318223
0.153053
-0.220601
-0.0976215
0.0962873
-0.316889
-0.161507
0.811766
-1.23374
0.288452
-0.0287131
0.215734
0.0964366
-0.0119529
-0.0844837
0.156445
-0.0600083
0.255112
-0.0986671
0.405179
-0.150067
-0.172068
0.221798
-0.181195
0.343922
0.58238
0.927462
0.147968
-0.15515
0.187101
-0.179919
0.113089
-0.161796
0.196675
0.0735562
-0.17073
0.210263
0.0304081
-0.171809
0.214957
-0.121901
0.152309
0.192917
-0.114519
-0.233548
0.146809
-0.115688
0.0938666
-0.117788
0.0390927
-0.117035
-0.0828085
0.187676
-0.0630158
-0.239179
0.135425
-0.0634373
0.083453
-0.0658158
0.0338253
-0.0674078
-0.0489831
0.205615
-0.0112985
-0.257332
0.153087
-0.0109101
0.0982177
-0.0109462
0.0416653
-0.0108554
-0.0073178
0.209089
-0.260594
0.155233
0.0987273
0.0413478
0.0504374
-0.359424
-0.0742724
0.0202638
-0.390066
-0.00553122
-0.402923
-0.0172275
-0.38883
-0.250981
0.138259
-0.324163
-0.173521
0.0927507
-0.344558
0.0463637
-0.356536
0.0102714
-0.352738
-0.240709
0.162988
-0.279291
-0.20786
0.11425
-0.29582
0.0671911
-0.309477
0.0244929
-0.31004
-0.216216
0.180135
-0.238805
-0.220621
0.13306
-0.248746
0.0829015
-0.259318
0.0338179
-0.260956
-0.182398
0.177215
-0.228918
0.125144
0.0760882
0.0300892
0.388981
0.102886
-0.0958875
0.392493
0.0771863
-0.080698
0.360329
0.137673
-0.105509
0.313811
0.0234782
0.0230399
-0.275931
0.409823
0.3966
0.102266
0.406601
0.0671848
0.398051
0.146223
0.354766
0.066763
-0.154713
0.401707
0.0965383
0.415932
0.0529602
0.412355
0.1498
0.376682
0.102437
-0.0172099
0.405991
0.0865274
0.420849
0.0381016
0.42256
0.148089
0.392935
0.132062
0.118393
0.406767
0.423191
0.422819
0.396041
0.415738
0.0943127
0.339089
0.0766491
0.260827
0.0782621
0.277172
-0.016345
-0.221152
0.498324
0.508476
0.504427
0.47718
0.483875
0.672546
0.398879
0.0994456
0.311
0.0878788
0.208905
0.102095
0.121875
0.0870303
0.0373912
0.543073
0.410331
0.304566
0.218076
)
;

boundaryField
{
    left
    {
        type            calculated;
        value           nonuniform List<scalar> 
17
(
-0.60402
-0.60402
-0.60402
-0.60402
-0.60402
-0.39598
-0.39598
-0.39598
-0.39598
-0.39598
-0.39598
-0.39598
-0.39598
-0.39598
-0.39598
-0.510051
-0.510051
)
;
    }
    right
    {
        type            calculated;
        value           nonuniform List<scalar> 
17
(
0.257794
0.439294
0.352864
0.359393
0.388546
0.421609
0.440024
0.474898
0.509034
0.531035
0.558467
0.57761
0.893477
0.748689
0.684041
0.420734
-0.0575101
)
;
    }
    down
    {
        type            calculated;
        value           uniform 0;
    }
    up
    {
        type            calculated;
        value           uniform 0;
    }
    cylinder
    {
        type            calculated;
        value           uniform 0;
    }
    defaultFaces
    {
        type            empty;
    }
}


// ************************************************************************* //
