# Selection   : all
# Cells       : 440
# Volume      : 7.374263e+01
# Time        	maxMag(U)
8.015         	2.788033e+00
8.06          	2.786156e+00
8.11          	2.784010e+00
