/*--------------------------------*- C++ -*----------------------------------*\
  =========                 |
  \\      /  F ield         | OpenFOAM: The Open Source CFD Toolbox
   \\    /   O peration     | Website:  https://openfoam.org
    \\  /    A nd           | Version:  13
     \\/     M anipulation  |
\*---------------------------------------------------------------------------*/
FoamFile
{
    format      ascii;
    class       surfaceScalarField;
    location    "3.19";
    object      phi;
}
// * * * * * * * * * * * * * * * * * * * * * * * * * * * * * * * * * * * * * //

dimensions      [0 3 -1 0 0 0 0];

internalField   nonuniform List<scalar> 
823
(
-0.00132268
0.0148151
-0.0134924
0.021654
0.0127841
-0.0357608
0.0893922
-0.0237706
-0.0439675
0.197629
-0.085047
-0.02319
-0.108556
-0.0392052
0.34539
0.00164852
0.0131665
0.0474566
-0.0330239
0.146073
-0.122387
0.26645
-0.205423
-0.278118
0.436012
0.0223336
-0.00916702
0.112279
-0.122969
0.233302
-0.24341
0.352947
-0.325069
-0.37544
0.45027
0.0461759
-0.0553429
0.150925
-0.227718
0.243862
-0.336347
0.302926
-0.384134
-0.397832
0.325317
0.062622
-0.117965
0.14147
-0.306566
0.187413
-0.38229
0.205659
-0.402379
0.217425
-0.409598
-0.0225074
0.0685577
-0.0460503
-0.061855
0.107266
-0.0679186
-0.10537
0.111267
-0.0677522
-0.14834
0.106556
-0.0635856
0.0986392
-0.188369
-0.0586103
0.000527755
0.06803
-0.013355
0.121149
-0.0344575
0.132369
-0.0558456
0.127944
0.116118
-0.073324
0.0210186
0.0470114
0.0409258
0.101242
0.053232
0.120063
0.0629604
0.118216
0.107898
0.07118
0.0246843
0.0223271
0.0634727
0.0624534
0.100299
0.0832371
0.134439
0.084076
0.0850651
0.157271
0.00883468
0.0355272
0.0747969
0.135683
0.181543
-0.125298
0.176216
-0.239287
0.108384
-0.631114
0.397433
0.251062
-0.647569
0.504891
0.34659
-0.477263
0.381734
-0.22497
0.186509
0.0480568
0.054835
0.220853
-0.803911
0.314557
-0.741272
0.376012
-0.538718
-0.251056
0.241648
-0.115633
0.361849
-0.924112
0.407389
-0.786813
0.422164
-0.553493
-0.258
0.365638
-0.324
0.447529
-1.006
0.48043
-0.819713
0.469511
-0.542575
-0.249814
0.408243
-0.5507
0.480681
-1.07844
0.510503
-0.849535
0.497752
-0.529824
-0.239367
1.27465
-0.63699
-1.18836
1.16673
-0.970526
0.997037
-0.679841
0.844898
-0.377685
-0.161169
1.37213
-0.545379
-1.46374
1.1263
-0.724697
0.893709
-0.447248
0.753419
-0.237395
-0.107233
1.32284
-0.447286
-1.42093
1.13548
-0.537338
0.947279
-0.259043
0.792496
-0.0826126
-0.0338006
1.19553
-0.287768
-1.35504
0.937765
-0.279577
0.761728
-0.083006
0.663903
0.0152125
0.00967636
0.655774
-0.943541
0.376196
0.29319
0.308403
1.13851
0.181376
-1.10246
1.22685
0.236978
1.32122
0.355901
1.32839
0.428836
0.485429
1.04659
0.121092
-0.986304
1.12943
0.154135
1.23381
0.251521
1.35353
0.309114
0.37522
0.98877
0.066967
-0.934645
1.04922
0.0936895
1.14798
0.152761
1.27361
0.183477
0.227897
0.939961
0.0211895
-0.894183
0.999276
0.0343741
1.09492
0.0571165
1.2118
0.0665945
0.0846557
0.7008
-0.679611
0.735175
0.792291
0.858885
0.143696
0.309794
-0.254242
-0.199248
0.0958858
0.315012
-0.267202
0.05372
0.325306
-0.28314
0.0184798
0.316938
-0.281697
0.205114
-0.186634
0.102838
0.34715
-0.140194
0.0655776
0.352273
0.0323298
0.358554
0.00648253
0.342785
0.211596
0.06686
0.383369
-0.10308
0.0339593
0.385173
0.00615538
0.386358
-0.0078781
0.356818
0.203718
-0.0200544
0.398751
0.00467262
-0.0358316
0.400951
-0.0424496
0.392976
-0.0316902
0.346059
0.172028
-0.102813
0.0919666
-0.104242
-0.0935561
-0.0540632
0.198199
0.109758
-0.249447
-0.0585095
0.145355
0.114446
-0.0616029
0.0907797
0.119988
-0.065412
0.0371243
0.120955
-0.0672995
0.0857579
-0.0486336
0.183936
0.152279
-0.226457
0.139136
0.159246
0.0892701
0.169854
0.0372896
0.172935
0.123047
0.1454
0.197321
-0.190441
0.103323
0.201323
0.0625459
0.210631
0.0235655
0.211916
0.146613
0.151016
0.230206
-0.183902
0.112087
0.240252
0.0687505
0.253967
0.0267198
0.253946
0.173333
0.0971756
-0.121211
0.0702252
0.0410522
0.0133013
0.410341
0.0312342
-0.0455957
0.422099
0.0580031
-0.0697608
0.416186
0.189913
-0.184
0.384742
0.274334
-0.24289
0.507594
-0.372299
0.408482
0.0187315
0.415212
0.0512731
0.406069
0.199055
0.374105
0.306299
0.655242
0.402334
0.0123768
0.409996
0.0436114
0.380919
0.228132
0.365454
0.321763
0.830254
0.397428
0.010928
0.394459
0.0465812
0.365413
0.257178
0.336306
0.35087
0.982659
0.388493
0.0184145
0.38148
0.0535945
0.332989
0.305669
0.316705
0.367154
1.17815
0.619458
0.00297691
0.646717
0.0263355
0.671925
0.280461
0.742239
0.29684
0.90227
1.01812
0.6272
-0.0202022
0.645584
0.00795055
0.707425
0.21862
0.768524
0.235741
0.638257
1.03254
0.628096
-0.0442778
0.648029
-0.0119822
0.729794
0.136855
0.818446
0.147089
0.40113
1.05557
0.618464
-0.0587212
0.642059
-0.0355778
0.734567
0.0443475
0.824722
0.056934
0.192468
1.03338
0.545299
0.509721
0.554069
0.611003
0.803471
1.05166
-0.232786
1.04288
-0.131418
1.05342
-0.113621
1.04966
0.008433
0.0391691
0.988766
-0.189014
0.974536
-0.117189
0.951451
-0.0905359
0.964409
-0.00452476
0.0172743
0.983346
-0.116787
0.950863
-0.084706
0.918863
-0.0585356
0.927477
-0.0131383
0.0101061
0.963853
-0.0472557
0.917662
-0.0385154
0.886067
-0.0269409
0.884831
-0.0119025
0.000754577
0.756215
0.7177
0.690759
0.678856
0.0469584
0.13977
-0.186728
0.0718397
0.308083
-0.332964
0.0731294
0.362297
-0.363586
0.0631162
0.366456
-0.356443
0.335559
0.0511751
-0.323618
0.06753
0.0722398
0.139008
0.236604
0.174718
0.326587
0.180264
0.36091
0.357127
0.158696
0.0561629
0.0160769
0.166463
0.126305
0.26061
0.232439
0.329237
0.292284
0.344902
0.341462
0.0267849
-0.010708
0.120387
0.0327022
0.239917
0.112909
0.356828
0.175373
0.236559
0.465171
0.00554492
-0.0162529
0.0504369
-0.0121897
0.143456
0.0198897
0.257666
0.0611634
0.097583
0.396642
-0.0029487
-0.0133042
0.00805196
-0.0231904
0.0471463
-0.0192046
0.112414
-0.00410419
0.0199627
0.190034
0.00288003
-0.0161842
0.0097464
-0.0300567
0.0230295
-0.0324877
0.0466776
-0.0277523
-0.0172468
0.0838871
-0.00764557
-0.00853863
-0.0207965
-0.0169058
-0.0335396
-0.0197446
-0.0421118
-0.0191801
-0.0161919
-0.0431667
-0.0255641
0.0170254
-0.0649622
0.0224924
-0.104677
0.0199702
-0.140948
0.0170904
0.0152144
-0.172354
-0.0290249
-0.0744512
-0.122233
-0.168728
-0.212124
0.354612
0.444643
-0.609221
0.414711
0.138123
-0.198221
0.392559
0.0058037
0.0163477
0.386292
0.00897214
-0.0027048
0.00209091
-0.0185212
0.222798
0.305732
0.221292
0.139628
0.258257
-0.0311615
0.328803
-0.0615736
-0.0436225
-0.0153897
0.277955
0.0707165
0.0535222
0.211259
-0.171704
0.315916
-0.16623
-0.0949612
-0.158524
0.264125
0.0452742
-0.150276
0.213151
-0.339581
0.321997
-0.275076
-0.142706
-0.187286
0.0598707
0.22518
0.331838
0.223615
0.396551
-0.620166
0.103834
0.119781
0.160371
-0.0565365
0.227307
-0.0669366
-0.0274044
0.800968
-1.01364
0.722528
0.682339
0.612698
0.0837948
-0.0146998
-0.069095
0.134437
-0.0506423
0.246215
-0.111778
0.415363
-0.169148
-0.204803
0.188038
-0.151563
0.296092
0.525777
0.821799
0.136716
-0.1256
0.1569
-0.168016
0.102944
-0.130302
0.164074
0.0655657
-0.136911
0.174289
0.0263892
-0.136534
0.175711
-0.095163
0.121552
0.172077
-0.0875053
-0.210172
0.13002
-0.0882448
0.0827853
-0.0896766
0.0341595
-0.0879085
-0.0610034
0.18232
-0.0402372
-0.229588
0.133438
-0.0393631
0.082903
-0.0391414
0.0335796
-0.0385851
-0.0274238
0.194598
0.00908425
-0.243919
0.144094
0.0111409
0.0915376
0.0134148
0.0381755
0.014777
0.0107517
0.192864
-0.242289
0.142402
0.0904043
0.0378818
0.0374252
-0.304237
-0.0568062
0.0145053
-0.333523
-0.00690041
-0.34218
-0.0153622
-0.324502
-0.20209
0.118683
-0.274555
-0.148366
0.076935
-0.291775
0.0370801
-0.302326
0.00727087
-0.294693
-0.19482
0.136837
-0.23632
-0.175073
0.0968861
-0.251824
0.0567332
-0.262173
0.0200733
-0.258033
-0.174746
0.156878
-0.20235
-0.190848
0.114663
-0.209609
0.0695711
-0.217081
0.0272443
-0.215706
-0.147502
0.154271
-0.199721
0.108736
0.0659451
0.0259498
0.393734
0.0801794
-0.0779341
0.391675
0.127914
-0.125855
0.344113
0.146989
-0.0994263
0.289642
0.0512773
0.00319299
-0.149765
0.271391
0.398974
0.0771852
0.41014
0.116747
0.387431
0.169699
0.330681
0.108027
-0.0292562
0.402422
0.0707424
0.419695
0.0994747
0.407874
0.18152
0.355104
0.160797
0.0962593
0.406926
0.0597957
0.423305
0.0830957
0.420747
0.184079
0.376705
0.204839
0.229045
0.41018
0.423515
0.423593
0.385543
0.424434
0.0856171
0.324028
0.100406
0.258613
0.0654151
0.269595
-0.0109826
-0.146133
0.415729
0.517734
0.492285
0.458274
0.450484
0.575742
0.331082
0.0846465
0.255536
0.0755468
0.168695
0.0868401
0.0970779
0.0716176
0.0279829
0.460668
0.345367
0.257134
0.180386
)
;

boundaryField
{
    left
    {
        type            calculated;
        value           nonuniform List<scalar> 
17
(
-0.60402
-0.60402
-0.60402
-0.60402
-0.60402
-0.39598
-0.39598
-0.39598
-0.39598
-0.39598
-0.39598
-0.39598
-0.39598
-0.39598
-0.39598
-0.510051
-0.510051
)
;
    }
    right
    {
        type            calculated;
        value           nonuniform List<scalar> 
17
(
0.254712
0.566772
0.402722
0.374516
0.367255
0.369742
0.375642
0.385051
0.402099
0.429108
0.461325
0.487306
0.766699
0.699482
0.719064
0.620426
0.318079
)
;
    }
    down
    {
        type            calculated;
        value           uniform 0;
    }
    up
    {
        type            calculated;
        value           uniform 0;
    }
    cylinder
    {
        type            calculated;
        value           uniform 0;
    }
    defaultFaces
    {
        type            empty;
    }
}


// ************************************************************************* //
