/*--------------------------------*- C++ -*----------------------------------*\
  =========                 |
  \\      /  F ield         | OpenFOAM: The Open Source CFD Toolbox
   \\    /   O peration     | Website:  https://openfoam.org
    \\  /    A nd           | Version:  13
     \\/     M anipulation  |
\*---------------------------------------------------------------------------*/
FoamFile
{
    format      ascii;
    class       volScalarField;
    location    "7.145";
    object      p;
}
// * * * * * * * * * * * * * * * * * * * * * * * * * * * * * * * * * * * * * //

dimensions      [0 2 -2 0 0 0 0];

internalField   nonuniform List<scalar> 
440
(
-0.840034
-0.824407
-0.833394
-0.819737
-0.905264
-0.872052
-0.852756
-0.833823
-0.815405
-0.807415
-0.967247
-0.933284
-0.892221
-0.844218
-0.792671
-1.08246
-1.03022
-0.940546
-0.834045
-0.726667
-1.15693
-1.08721
-0.935271
-0.779386
-0.637746
-0.442211
-0.444242
-0.44862
-0.454561
-0.460204
-0.500162
-0.507813
-0.520864
-0.536222
-0.547909
-0.608531
-0.621008
-0.643547
-0.674142
-0.699288
-0.760274
-0.776615
-0.809384
-0.860731
-0.929697
-0.827173
-0.830386
-0.843456
-0.859145
-0.904654
-0.485092
-0.302792
-0.581493
-0.225061
-0.311921
-0.518369
-0.226701
-0.753217
-0.182404
-0.30898
-0.546019
0.0105289
-0.752333
-0.205738
-0.251338
-0.590997
0.36438
-0.496406
-0.356571
-0.190075
-0.665047
0.599219
-0.166575
-0.486256
-0.151146
-0.478978
0.747297
0.131803
-0.556433
-0.131732
-0.195476
0.494501
0.254707
-0.338659
-0.118694
-0.144096
0.503933
0.476884
-0.0568721
-0.0999926
-0.0403143
0.535701
0.555324
0.0599935
-0.0976302
0.00434501
0.559896
0.662875
0.227945
-0.0893168
-0.397185
-0.519276
-0.702788
-0.87267
-1.0165
-0.143224
-0.268477
-0.357848
-0.40963
-0.419982
0.0321564
-0.0793061
-0.143925
-0.191104
-0.213231
0.135262
0.0308483
-0.0381801
-0.0817766
-0.0980069
0.178933
0.0751588
0.00624202
-0.0353135
-0.0418317
1.03829
0.890158
0.700423
0.486912
0.251155
0.6014
0.441752
0.247396
0.025594
-0.228613
0.177348
0.0143851
-0.192279
-0.423612
-0.660096
-0.199445
-0.367859
-0.573513
-0.795943
-0.976542
-0.4598
-0.62595
-0.817349
-1.01823
-1.1343
2.22541
2.25561
2.28319
2.29697
2.29348
2.02204
2.042
2.05626
2.05339
2.02929
1.78758
1.77686
1.7435
1.6872
1.6042
1.52304
1.48999
1.42197
1.32268
1.19309
1.2837
1.18104
1.04775
0.892566
0.702931
1.99417
1.98256
1.97183
2.03076
2.11291
1.98309
1.96863
1.9505
2.00192
2.01429
1.97299
1.95144
1.92689
1.96073
1.89149
1.96417
1.93163
1.9009
1.90887
1.71358
1.95658
1.91136
1.87359
1.85142
1.52912
1.95051
1.87826
1.83834
1.74742
1.32257
1.94788
1.84293
1.81737
1.64503
1.3964
1.95383
1.82325
1.80126
1.58523
1.38845
1.94607
1.80011
1.79437
1.53506
1.34997
1.98424
1.79064
1.79218
1.50825
1.33282
0.996384
0.677024
0.320705
-0.000640045
-0.206339
0.890645
0.662584
0.418071
0.196381
0.0108694
0.87187
0.687872
0.500294
0.327544
0.162924
0.899823
0.731996
0.564851
0.408314
0.259189
0.920929
0.759552
0.600541
0.448656
0.303659
-0.835941
-0.708112
-0.552974
-0.427332
-0.353331
-0.867323
-0.81108
-0.697491
-0.606348
-0.554925
-0.76729
-0.721105
-0.659834
-0.612852
-0.587682
-0.603807
-0.566521
-0.529692
-0.503103
-0.489099
-0.480876
-0.461251
-0.437302
-0.419764
-0.443101
-0.40618
-0.395857
-0.370809
-0.354688
-0.337358
-0.406133
-0.395103
-0.373517
-0.354504
-0.354806
-0.440095
-0.429263
-0.41528
-0.404011
-0.40102
-0.455681
-0.448553
-0.44384
-0.444938
-0.447927
-0.445327
-0.44185
-0.440447
-0.442841
-0.446239
-0.435028
-0.444767
-0.123776
-0.0406111
-0.00676638
-0.402173
-0.410742
-0.115248
-0.056162
-0.0211262
-0.400653
-0.428304
-0.149253
-0.101858
-0.072199
-0.4606
-0.432151
-0.242163
-0.164258
-0.158885
-0.469889
-0.377991
-0.389628
-0.214139
-0.253199
-0.0143055
-0.525684
-0.244567
-0.0782602
-0.0044335
-0.343298
-0.537458
-0.171787
-0.0358095
0.00288172
-0.311387
-0.542544
-0.568171
-0.524753
-0.305024
-0.329465
-0.537828
-0.580204
-0.504966
-0.506905
1.99508
1.9743
1.9364
1.88246
1.8112
2.15574
2.17699
2.18258
2.17126
2.14421
2.28774
2.32126
2.3466
2.35981
2.35921
2.35461
2.3942
2.43537
2.46894
2.48452
2.332
2.36919
2.41035
2.44467
2.46033
0.0606677
-0.0375297
-0.193112
-0.381817
-0.597209
0.617038
0.487349
0.313627
0.104726
-0.156879
1.11225
0.976416
0.81472
0.624194
0.386604
1.5058
1.40272
1.27604
1.12128
0.934502
1.8175
1.74576
1.65142
1.53821
1.40533
2.06315
2.0222
2.02208
2.04678
2.08971
2.04684
2.01725
2.01771
2.0555
2.13461
2.03239
2.01106
2.01331
2.06701
2.19231
2.01878
2.00366
2.00353
2.06503
2.19021
2.00602
1.99453
1.98934
2.05306
2.16859
2.11937
2.03163
2.01501
1.98195
1.98503
2.07454
2.02116
2.00792
1.99674
1.99075
1.71002
1.52223
1.17703
0.661841
0.0893739
1.78593
1.54914
1.18937
0.679752
0.0977625
)
;

boundaryField
{
    left
    {
        type            zeroGradient;
    }
    right
    {
        type            fixedValue;
        value           uniform 0;
    }
    down
    {
        type            zeroGradient;
    }
    up
    {
        type            zeroGradient;
    }
    cylinder
    {
        type            zeroGradient;
    }
    defaultFaces
    {
        type            empty;
    }
}


// ************************************************************************* //
