# Selection   : all
# Cells       : 440
# Volume      : 7.374263e+01
# Time        	minMag(U)
1.2           	1.915796e-02
1.25          	1.396663e-02
1.3           	4.474893e-02
