/*--------------------------------*- C++ -*----------------------------------*\
  =========                 |
  \\      /  F ield         | OpenFOAM: The Open Source CFD Toolbox
   \\    /   O peration     | Website:  https://openfoam.org
    \\  /    A nd           | Version:  13
     \\/     M anipulation  |
\*---------------------------------------------------------------------------*/
FoamFile
{
    format      ascii;
    class       volScalarField;
    location    "1.9";
    object      p;
}
// * * * * * * * * * * * * * * * * * * * * * * * * * * * * * * * * * * * * * //

dimensions      [0 2 -2 0 0 0 0];

internalField   nonuniform List<scalar> 
1800
(
-1.56878
-1.56064
-1.55109
-1.54084
-1.53403
-1.53327
-1.53914
-1.55062
-1.56312
-1.5862
-1.60351
-1.59493
-1.58581
-1.57688
-1.57032
-1.56732
-1.56698
-1.56709
-1.56493
-1.56518
-1.65769
-1.64773
-1.63818
-1.62928
-1.62145
-1.61372
-1.60396
-1.58999
-1.57128
-1.54958
-1.72857
-1.71676
-1.70563
-1.69476
-1.68225
-1.66549
-1.64238
-1.61235
-1.57597
-1.53646
-1.81433
-1.80054
-1.78669
-1.77096
-1.74926
-1.71879
-1.67913
-1.63189
-1.57986
-1.52675
-1.91164
-1.89596
-1.87749
-1.85278
-1.81683
-1.76864
-1.71065
-1.64682
-1.58069
-1.51562
-2.01385
-1.99625
-1.97045
-1.93203
-1.87745
-1.80908
-1.73262
-1.65348
-1.57545
-1.5013
-2.11128
-2.0912
-2.05489
-1.99866
-1.92257
-1.83352
-1.73968
-1.64676
-1.55793
-1.47487
-2.19206
-2.16838
-2.1188
-2.04214
-1.94394
-1.83565
-1.72661
-1.62207
-1.52436
-1.43434
-2.24394
-2.21535
-2.15092
-2.05316
-1.93455
-1.80978
-1.68826
-1.57422
-1.46902
-1.37269
-0.905984
-0.912735
-0.920846
-0.93043
-0.941715
-0.953265
-0.963465
-0.970493
-0.970599
-0.959121
-1.04067
-1.04612
-1.05327
-1.06311
-1.07596
-1.09008
-1.10351
-1.11426
-1.1182
-1.10926
-1.19101
-1.19487
-1.20092
-1.21153
-1.22686
-1.24479
-1.26293
-1.27905
-1.28907
-1.28557
-1.33506
-1.3371
-1.34153
-1.3532
-1.3714
-1.39365
-1.41699
-1.43886
-1.45584
-1.46007
-1.45151
-1.45072
-1.45363
-1.46522
-1.48491
-1.51015
-1.5375
-1.56379
-1.58639
-1.59672
-1.52705
-1.52282
-1.52265
-1.53141
-1.549
-1.57343
-1.60151
-1.62973
-1.65413
-1.66564
-1.56133
-1.55413
-1.54972
-1.55258
-1.56378
-1.58281
-1.60759
-1.63483
-1.66034
-1.67283
-1.56567
-1.55703
-1.54878
-1.54449
-1.54674
-1.55685
-1.57432
-1.59644
-1.61898
-1.63175
-1.55783
-1.54928
-1.53908
-1.52979
-1.52525
-1.5284
-1.54012
-1.55854
-1.57999
-1.58892
-1.55478
-1.54673
-1.53642
-1.52545
-1.51827
-1.5183
-1.52675
-1.5419
-1.55853
-1.56288
-0.817055
-0.133804
0.0147463
0.114829
0.101194
0.0788114
0.0578088
0.0395423
0.0229711
0.00777108
-0.926115
-0.182912
-0.00476922
0.106326
0.0969507
0.0760251
0.0557844
0.0381132
0.0221262
0.00744321
-1.06833
-0.247351
-0.0311864
0.0934957
0.0909945
0.0723763
0.0532928
0.0364396
0.0211647
0.00707724
-1.22347
-0.318641
-0.0637236
0.0763135
0.0831857
0.067807
0.0503093
0.0345083
0.0200785
0.00667157
-1.37183
-0.393384
-0.100808
0.054983
0.0733579
0.0622561
0.0468125
0.0323082
0.0188609
0.00622547
-1.50219
-0.470407
-0.140787
0.0297968
0.0613658
0.0556686
0.0427897
0.0298331
0.0175083
0.00573924
-1.59665
-0.551242
-0.182959
0.00134692
0.0471468
0.0479997
0.0382354
0.0270836
0.0160222
0.00521573
-1.64487
-0.635475
-0.227194
-0.0295819
0.0307724
0.0392064
0.03313
0.0240557
0.0144051
0.00466142
-1.64316
-0.718015
-0.272991
-0.0619427
0.0125327
0.0292647
0.0274165
0.0207161
0.012641
0.00408097
-1.59705
-0.793271
-0.319065
-0.0942117
-0.00680758
0.0183713
0.02111
0.0170384
0.0106999
0.00347073
-1.47669
-0.792101
-0.338031
-0.119755
-0.0276325
0.00460568
0.0125337
0.0118629
0.00792783
0.00262605
-1.24219
-0.725505
-0.338288
-0.141226
-0.0504258
-0.0121636
0.00164769
0.00515787
0.00438175
0.00149754
-1.07498
-0.674754
-0.342427
-0.156595
-0.0673149
-0.0257463
-0.00774596
-0.00082059
0.00116154
0.000473547
-0.946076
-0.630387
-0.347791
-0.176812
-0.0883031
-0.0415923
-0.0180218
-0.00703591
-0.00208083
-0.000568949
-0.849114
-0.600148
-0.357637
-0.195087
-0.104864
-0.0543969
-0.0267972
-0.0125086
-0.00496834
-0.00148876
-0.773852
-0.57948
-0.371138
-0.216587
-0.123101
-0.0675533
-0.0353657
-0.0176413
-0.00760243
-0.00231427
-0.715785
-0.569508
-0.390132
-0.239827
-0.140078
-0.0788416
-0.042597
-0.021919
-0.00977058
-0.00296979
-0.673811
-0.568564
-0.411992
-0.263211
-0.15588
-0.0886871
-0.0486967
-0.0253898
-0.0114691
-0.00344303
-0.650227
-0.574295
-0.428776
-0.278614
-0.165047
-0.0943204
-0.0517693
-0.0271109
-0.0123142
-0.00362735
-0.637507
-0.578887
-0.437493
-0.286036
-0.170567
-0.09783
-0.0539882
-0.0283625
-0.0129943
-0.00382692
-1.20675
-1.27538
-1.32556
-1.36523
-1.3924
-1.42142
-1.44658
-1.48964
-1.52333
-1.58638
-1.01942
-1.0907
-1.14617
-1.19257
-1.22698
-1.25894
-1.28252
-1.30797
-1.32995
-1.36046
-0.871466
-0.940522
-0.997612
-1.04425
-1.08088
-1.10926
-1.13055
-1.14616
-1.16053
-1.1732
-0.751158
-0.817416
-0.873673
-0.919008
-0.955378
-0.981992
-1.00212
-1.01527
-1.0257
-1.03257
-0.65433
-0.717663
-0.771681
-0.815597
-0.850803
-0.877077
-0.896412
-0.909079
-0.916901
-0.920235
-0.5766
-0.637107
-0.688676
-0.731017
-0.764833
-0.790455
-0.808836
-0.820721
-0.826881
-0.828262
-0.515085
-0.573103
-0.622504
-0.66304
-0.695338
-0.719633
-0.736921
-0.747695
-0.753002
-0.753522
-0.468826
-0.524877
-0.5726
-0.611345
-0.642128
-0.664692
-0.680905
-0.690289
-0.695115
-0.694479
-0.440935
-0.496068
-0.542546
-0.580115
-0.609945
-0.631485
-0.646876
-0.654984
-0.659325
-0.657203
-0.427938
-0.483377
-0.530342
-0.568851
-0.598973
-0.621136
-0.636246
-0.644401
-0.647637
-0.643309
0.344264
0.272329
0.189921
0.101627
0.00617483
-0.098869
-0.213447
-0.331199
-0.430456
-0.479299
0.129847
0.0516066
-0.0356607
-0.131209
-0.236898
-0.354422
-0.482723
-0.613764
-0.723111
-0.775779
-0.105613
-0.187428
-0.277965
-0.378441
-0.491029
-0.617072
-0.75493
-0.895329
-1.01186
-1.06648
-0.333094
-0.419216
-0.514885
-0.621627
-0.741334
-0.875035
-1.02075
-1.16825
-1.28956
-1.34405
-0.541474
-0.633149
-0.735234
-0.848992
-0.975986
-1.11711
-1.26996
-1.42331
-1.54484
-1.59864
-0.73005
-0.827387
-0.935623
-1.05581
-1.1892
-1.3362
-1.4952
-1.64864
-1.76781
-1.8207
-0.898968
-1.00097
-1.11401
-1.23887
-1.37679
-1.52753
-1.68622
-1.83743
-1.95191
-2.00214
-1.04948
-1.15404
-1.26907
-1.39557
-1.53449
-1.68486
-1.84043
-1.98515
-2.09112
-2.13701
-1.18127
-1.28481
-1.39856
-1.52353
-1.66002
-1.80607
-1.95415
-2.08743
-2.18144
-2.22184
-1.28964
-1.39025
-1.5006
-1.62133
-1.75197
-1.88943
-2.02501
-2.14223
-2.22194
-2.25633
1.75492
1.76915
1.78381
1.79779
1.81027
1.82055
1.82795
1.83249
1.83622
1.84041
1.67846
1.68958
1.7004
1.7099
1.71738
1.72215
1.72353
1.72182
1.72012
1.72106
1.58136
1.58843
1.59426
1.59799
1.59908
1.59686
1.59064
1.58104
1.57239
1.56934
1.46503
1.46752
1.46736
1.46399
1.45719
1.44625
1.43056
1.41113
1.39383
1.3861
1.32927
1.32621
1.31912
1.30779
1.29219
1.27161
1.24542
1.21506
1.188
1.17507
1.17751
1.16874
1.15381
1.13313
1.10716
1.07524
1.03685
0.994002
0.956008
0.937157
1.00994
0.994882
0.971947
0.941878
0.905301
0.861484
0.810038
0.753675
0.70389
0.678803
0.835076
0.812734
0.779704
0.737974
0.688842
0.631641
0.566071
0.495497
0.433618
0.402175
0.657886
0.628051
0.584347
0.530038
0.467066
0.394841
0.31334
0.226966
0.152121
0.114316
0.492667
0.445276
0.384124
0.31404
0.236049
0.148571
0.0513608
-0.0503509
-0.137498
-0.181123
1.50481
1.47556
1.4764
1.47292
1.46985
1.47994
1.50014
1.5369
1.59641
1.69174
1.49768
1.46965
1.4705
1.46595
1.46172
1.46883
1.48576
1.51614
1.56477
1.64221
1.4911
1.46371
1.46447
1.45855
1.45298
1.45668
1.46992
1.49231
1.52752
1.58108
1.48504
1.45777
1.45834
1.45074
1.44366
1.44347
1.45267
1.46528
1.48508
1.50759
1.47947
1.45187
1.45211
1.44259
1.43375
1.42916
1.43408
1.43482
1.4381
1.42062
1.47441
1.44605
1.44582
1.43411
1.42326
1.41378
1.41414
1.40084
1.38683
1.31931
1.46986
1.44033
1.43947
1.42536
1.41218
1.39738
1.39277
1.36329
1.33143
1.2021
1.46584
1.43474
1.43306
1.41635
1.40051
1.38007
1.3698
1.32236
1.27159
1.07023
1.46237
1.4293
1.42662
1.40713
1.38826
1.36201
1.34507
1.2782
1.20567
0.92181
1.45952
1.42403
1.42014
1.39772
1.37559
1.34337
1.31948
1.23244
1.13634
0.768348
1.45666
1.41791
1.41186
1.38603
1.35871
1.31918
1.2845
1.1765
1.05634
0.622008
1.45508
1.41157
1.40269
1.37318
1.34006
1.29374
1.24634
1.12773
0.979615
0.593528
1.45546
1.40611
1.39384
1.36089
1.32202
1.27087
1.21061
1.08845
0.918539
0.578901
1.45842
1.40157
1.3853
1.34917
1.30453
1.25111
1.17788
1.0576
0.869762
0.57307
1.46448
1.39798
1.3769
1.33787
1.2875
1.23444
1.14839
1.03467
0.83244
0.5719
1.47434
1.39537
1.36905
1.32729
1.27137
1.22067
1.12302
1.01876
0.805215
0.569988
1.48762
1.39218
1.35936
1.31527
1.25602
1.20936
1.10182
1.00773
0.786606
0.567843
1.51225
1.39353
1.35317
1.30554
1.243
1.20042
1.08499
1.00046
0.774821
0.566851
1.5241
1.38512
1.33956
1.29348
1.23274
1.19413
1.07373
0.996735
0.769389
0.568293
1.59974
1.39812
1.34201
1.28928
1.22898
1.19103
1.06825
0.995758
0.766539
0.571368
0.327399
0.151396
-0.0569413
-0.258553
-0.442209
-0.608368
-0.759463
-0.89658
-1.01692
-1.1214
0.276233
0.137148
-0.0216561
-0.181955
-0.333176
-0.473305
-0.603444
-0.72465
-0.835308
-0.934967
0.261564
0.143747
0.0156072
-0.117023
-0.246793
-0.370651
-0.487918
-0.59799
-0.699624
-0.791047
0.275808
0.166175
0.0512701
-0.0643908
-0.178237
-0.288645
-0.394551
-0.494965
-0.588783
-0.674415
0.294775
0.191193
0.0849709
-0.0194296
-0.121424
-0.221295
-0.318497
-0.412086
-0.500322
-0.58146
0.313526
0.21563
0.116328
0.0198125
-0.0740211
-0.166519
-0.257553
-0.34612
-0.429961
-0.507313
0.330958
0.238378
0.144748
0.0537648
-0.0349035
-0.122701
-0.209531
-0.294247
-0.374515
-0.448662
0.346757
0.258951
0.16999
0.0826948
-0.00319394
-0.0885927
-0.173088
-0.25536
-0.333117
-0.404713
0.361065
0.277276
0.19197
0.106536
0.0211051
-0.0641874
-0.148275
-0.229717
-0.30659
-0.377462
0.37325
0.29188
0.208049
0.122113
0.035282
-0.0511444
-0.135719
-0.217153
-0.293837
-0.36455
-1.16838
-1.13333
-1.05798
-0.962328
-0.864835
-0.775792
-0.699082
-0.6358
-0.586281
-0.551019
-1.20838
-1.17742
-1.11527
-1.03461
-0.949662
-0.870357
-0.801161
-0.743672
-0.698874
-0.668024
-1.1874
-1.15969
-1.11158
-1.0489
-0.980203
-0.913822
-0.854489
-0.804297
-0.764736
-0.737277
-1.11969
-1.09448
-1.05886
-1.01428
-0.963785
-0.912871
-0.865781
-0.824807
-0.791635
-0.767692
-1.02563
-1.00287
-0.976659
-0.946788
-0.912867
-0.877213
-0.842651
-0.811122
-0.784252
-0.762875
-0.926274
-0.906552
-0.886741
-0.866609
-0.844918
-0.822017
-0.799254
-0.777728
-0.758968
-0.743964
-0.837197
-0.821524
-0.806177
-0.791224
-0.776225
-0.761301
-0.74692
-0.733621
-0.721433
-0.710018
-0.765849
-0.75482
-0.743286
-0.731042
-0.718601
-0.706938
-0.697346
-0.690052
-0.68735
-0.688057
-0.711576
-0.70474
-0.696248
-0.685057
-0.672777
-0.661767
-0.654555
-0.653363
-0.657171
-0.673756
-0.674704
-0.670557
-0.662382
-0.650213
-0.636597
-0.62498
-0.619557
-0.625389
-0.641752
-0.687005
-0.666745
-0.662091
-0.652773
-0.638712
-0.623192
-0.610849
-0.605683
-0.611151
-0.627721
-0.650077
-0.688038
-0.681283
-0.6722
-0.661164
-0.650422
-0.64327
-0.642704
-0.650773
-0.669025
-0.692137
-0.718367
-0.711563
-0.705888
-0.702879
-0.703751
-0.709784
-0.721785
-0.739907
-0.763871
-0.787524
-0.740054
-0.736039
-0.735292
-0.74002
-0.750746
-0.767494
-0.789913
-0.817376
-0.848513
-0.874864
-0.743592
-0.743671
-0.74692
-0.755681
-0.770264
-0.790272
-0.814953
-0.843539
-0.875211
-0.899221
-0.731007
-0.734462
-0.740218
-0.749672
-0.763396
-0.781013
-0.801888
-0.825153
-0.848282
-0.866474
-0.715383
-0.721092
-0.728358
-0.737638
-0.749554
-0.76363
-0.77906
-0.794695
-0.808142
-0.816901
-0.7133
-0.720342
-0.728673
-0.738095
-0.749057
-0.76084
-0.772417
-0.782451
-0.788517
-0.788599
-0.739072
-0.746927
-0.755976
-0.765689
-0.776377
-0.787068
-0.796537
-0.803318
-0.804655
-0.798158
-0.803128
-0.810712
-0.819557
-0.829206
-0.839868
-0.850344
-0.859261
-0.864931
-0.864112
-0.853733
-0.810161
-0.615579
-0.333403
-0.0784913
0.0468908
0.0681407
0.0601207
0.0454284
0.0279309
0.00986245
-0.887222
-0.570669
-0.24699
-0.0207345
0.0652714
0.0719955
0.0604428
0.0449502
0.0274203
0.00965579
-0.947135
-0.521468
-0.16934
0.0258082
0.0789565
0.0751549
0.0609121
0.044628
0.0270012
0.00947538
-0.987028
-0.471376
-0.106943
0.0586481
0.087945
0.0776909
0.061403
0.0443543
0.0266188
0.00930373
-0.973013
-0.407995
-0.0586902
0.0808413
0.0942839
0.0797675
0.0617686
0.0440456
0.0262364
0.00913163
-0.90503
-0.322077
-0.0195675
0.0974084
0.0991102
0.0813169
0.061921
0.0436614
0.0258361
0.00895374
-0.816468
-0.227607
0.00914588
0.109631
0.1025
0.082227
0.061798
0.0431673
0.0253995
0.00876365
-0.753706
-0.154243
0.0256989
0.116613
0.104415
0.0824572
0.0613578
0.0425332
0.0249096
0.00855532
-0.730241
-0.115044
0.0310345
0.119847
0.104872
0.081987
0.0605665
0.0417327
0.0243508
0.00832345
-0.750907
-0.10926
0.0269451
0.119257
0.103816
0.0807845
0.0593933
0.0407427
0.0237088
0.00806338
-0.532522
-0.601299
-0.482908
-0.192675
-0.00533716
0.0538632
0.0584381
0.0461002
0.0288349
0.0102831
-0.52508
-0.598866
-0.494987
-0.197399
-0.0043092
0.0547205
0.0585504
0.0460045
0.0286948
0.0102189
-0.563187
-0.609191
-0.494795
-0.196736
-0.000950967
0.0558867
0.0584719
0.0457836
0.0285206
0.0101539
-0.641714
-0.622481
-0.474483
-0.182956
0.00822326
0.0584069
0.0586168
0.0456306
0.0283816
0.0100904
-0.738307
-0.631354
-0.408491
-0.132978
0.0270469
0.0636639
0.0596363
0.0457345
0.0283109
0.0100387
-0.517415
-0.629985
-0.703448
-0.739767
-0.749444
-0.728446
-0.716702
-0.669422
-0.63982
-0.594204
-0.517774
-0.631897
-0.703626
-0.738458
-0.743076
-0.722414
-0.709095
-0.657134
-0.63757
-0.586373
-0.519766
-0.634879
-0.705181
-0.739221
-0.737655
-0.724336
-0.69735
-0.664201
-0.644916
-0.612826
-0.525017
-0.641546
-0.711338
-0.744336
-0.739328
-0.730493
-0.69313
-0.683345
-0.664937
-0.68305
-0.534287
-0.652637
-0.722448
-0.753664
-0.748768
-0.73494
-0.700549
-0.693804
-0.679628
-0.753253
1.49971
1.49165
1.47709
1.45896
1.43813
1.41364
1.38487
1.35365
1.32771
1.31616
1.58454
1.58777
1.5847
1.57728
1.56669
1.55247
1.5342
1.51336
1.49612
1.48905
1.66566
1.67353
1.67683
1.67689
1.67454
1.66938
1.66088
1.64989
1.64088
1.63802
1.73515
1.74701
1.75623
1.76325
1.76833
1.77097
1.77054
1.7675
1.76507
1.76593
1.79245
1.80738
1.82067
1.83241
1.84262
1.8508
1.8563
1.8593
1.86204
1.86583
1.83314
1.85
1.8664
1.88199
1.89643
1.90916
1.91952
1.92735
1.93409
1.94027
1.85681
1.8749
1.89324
1.91119
1.92817
1.94359
1.95679
1.96747
1.97665
1.9843
1.86142
1.87982
1.89899
1.91804
1.9362
1.95287
1.96734
1.97926
1.98945
1.9977
1.84633
1.86425
1.8831
1.90186
1.91966
1.93588
1.94981
1.96112
1.97076
1.97865
1.81095
1.82749
1.84485
1.86192
1.87783
1.89191
1.90348
1.91234
1.91982
1.92636
-0.385766
-0.426858
-0.480946
-0.548534
-0.630291
-0.725632
-0.831541
-0.93786
-1.02345
-1.06246
-0.178813
-0.225334
-0.28363
-0.354399
-0.438735
-0.536834
-0.647574
-0.760566
-0.853114
-0.894651
0.0574662
0.006117
-0.0558587
-0.128859
-0.214141
-0.312413
-0.422357
-0.535519
-0.633866
-0.676278
0.303861
0.249405
0.185582
0.11229
0.028358
-0.0670664
-0.172986
-0.283017
-0.377688
-0.421566
0.541639
0.486857
0.424151
0.353598
0.274114
0.184626
0.0856755
-0.0170756
-0.104549
-0.146601
0.757106
0.705804
0.647969
0.583696
0.511895
0.43135
0.342365
0.250007
0.171792
0.133678
0.94738
0.902922
0.853067
0.797797
0.735944
0.666242
0.588901
0.508508
0.44076
0.407787
1.11962
1.08301
1.0419
0.996234
0.944696
0.886016
0.820413
0.752061
0.694837
0.667319
1.28152
1.25137
1.21669
1.17854
1.13572
1.08692
1.03231
0.975497
0.928402
0.906223
1.42137
1.397
1.36713
1.33535
1.30105
1.26273
1.22002
1.17554
1.13893
1.1221
1.62366
1.51693
1.51341
1.5071
1.51249
1.53717
1.56078
1.59844
1.61612
1.58843
1.60607
1.51589
1.51306
1.50746
1.51158
1.53576
1.56082
1.60124
1.63307
1.6399
1.5901
1.51372
1.51154
1.50678
1.50992
1.53336
1.55999
1.60437
1.64958
1.69028
1.57567
1.51066
1.50909
1.50517
1.5075
1.53003
1.55785
1.60491
1.66114
1.72785
1.5626
1.50688
1.50588
1.50271
1.50434
1.52579
1.55422
1.60303
1.66785
1.75526
1.55072
1.50252
1.50202
1.49944
1.50042
1.52059
1.54906
1.59868
1.66952
1.77192
1.53989
1.4977
1.49763
1.49542
1.49574
1.51442
1.54237
1.59172
1.6659
1.77788
1.52999
1.49251
1.49279
1.4907
1.49032
1.50727
1.53414
1.5821
1.65685
1.77307
1.5209
1.48704
1.48759
1.48534
1.48418
1.49915
1.52436
1.56978
1.64234
1.75717
1.51253
1.48137
1.48211
1.4794
1.47734
1.49004
1.51302
1.55474
1.62224
1.73005
1.78985
1.51982
1.50265
1.49581
1.50703
1.52927
1.54325
1.56413
1.52821
1.50116
1.71575
1.51359
1.50322
1.49778
1.50785
1.53014
1.54388
1.56552
1.53169
1.49808
1.69312
1.51839
1.50773
1.50059
1.50913
1.53177
1.54631
1.56966
1.54263
1.50031
1.66655
1.51823
1.51063
1.50338
1.51064
1.53397
1.55072
1.57727
1.56112
1.51152
1.64343
1.51752
1.51256
1.50565
1.512
1.53619
1.55589
1.58722
1.58539
1.52975
1.30454
1.21618
1.09542
0.937819
0.74559
0.525706
0.288952
0.0509118
-0.171299
-0.362688
1.29893
1.21336
1.09793
0.945197
0.757796
0.541187
0.304907
0.0642957
-0.162752
-0.359438
1.31025
1.2205
1.10244
0.951074
0.767221
0.553079
0.316655
0.0735148
-0.157577
-0.3585
1.34374
1.24009
1.11075
0.95665
0.77444
0.561563
0.32438
0.0787392
-0.155919
-0.360709
1.39779
1.27333
1.12483
0.962324
0.778348
0.565779
0.328407
0.0809537
-0.15727
-0.366483
)
;

boundaryField
{
    left
    {
        type            zeroGradient;
    }
    right
    {
        type            fixedValue;
        value           uniform 0;
    }
    down
    {
        type            zeroGradient;
    }
    up
    {
        type            zeroGradient;
    }
    cylinder
    {
        type            zeroGradient;
    }
    defaultFaces
    {
        type            empty;
    }
}


// ************************************************************************* //
