/*--------------------------------*- C++ -*----------------------------------*\
  =========                 |
  \\      /  F ield         | OpenFOAM: The Open Source CFD Toolbox
   \\    /   O peration     | Website:  https://openfoam.org
    \\  /    A nd           | Version:  13
     \\/     M anipulation  |
\*---------------------------------------------------------------------------*/
FoamFile
{
    format      ascii;
    class       volVectorField;
    location    "1.9";
    object      U;
}
// * * * * * * * * * * * * * * * * * * * * * * * * * * * * * * * * * * * * * //

dimensions      [0 1 -1 0 0 0 0];

internalField   nonuniform List<vector> 
1800
(
(-0.051205 0.0454686 1.7096e-20)
(-0.100288 0.0968969 7.81467e-21)
(-0.0842705 0.120639 -6.7177e-20)
(-0.00213148 0.115036 4.81032e-20)
(0.145906 0.0827039 7.32115e-20)
(0.354507 0.0279312 3.10909e-21)
(0.612801 -0.0426457 1.64245e-20)
(0.90087 -0.123825 1.44053e-19)
(1.21352 -0.19999 9.9522e-20)
(1.45229 -0.273824 8.75723e-20)
(-0.0525888 0.0405625 7.4908e-21)
(-0.0741731 0.0685702 -9.97011e-20)
(-0.00837196 0.0645053 5.76716e-22)
(0.140683 0.0326258 -7.31219e-20)
(0.366484 -0.020291 3.06175e-20)
(0.653306 -0.0868602 4.49714e-20)
(0.97614 -0.159235 2.2278e-20)
(1.30542 -0.231253 6.25208e-21)
(1.61599 -0.292214 1.1076e-20)
(1.85745 -0.356154 -1.91059e-20)
(-0.0462695 0.0315431 8.60512e-21)
(-0.0223705 0.0366968 2.83978e-20)
(0.113861 0.00986641 9.227e-22)
(0.349261 -0.0402204 -8.91126e-21)
(0.662443 -0.102977 -1.40587e-19)
(1.01903 -0.168742 2.60145e-20)
(1.37853 -0.229889 7.16867e-20)
(1.70545 -0.281474 -1.43916e-20)
(1.974 -0.321466 -1.36432e-21)
(2.18855 -0.363091 4.69366e-21)
(-0.0282864 0.0179307 -1.09827e-20)
(0.0628854 -0.00047627 -3.33321e-20)
(0.289071 -0.0446157 -3.16488e-20)
(0.620719 -0.102339 3.55229e-20)
(1.01218 -0.161571 3.24427e-20)
(1.40823 -0.213739 1.23862e-20)
(1.76147 -0.254618 -6.01506e-21)
(2.04308 -0.284372 1.93634e-19)
(2.24843 -0.303307 2.18748e-19)
(2.3732 -0.31886 -1.10871e-19)
(0.00397489 0.00166388 7.5304e-20)
(0.186086 -0.0376596 6.94694e-20)
(0.516539 -0.0902681 -5.06543e-20)
(0.938805 -0.142652 -6.09843e-20)
(1.37869 -0.185786 -2.20465e-19)
(1.77035 -0.216521 3.24839e-21)
(2.07627 -0.236112 3.54468e-19)
(2.28907 -0.247472 1.44397e-19)
(2.4193 -0.252698 -2.22919e-21)
(2.49474 -0.262236 -1.53712e-19)
(0.0525146 -0.0144905 -6.85546e-20)
(0.347129 -0.0668721 -1.26855e-20)
(0.784584 -0.115582 2.63111e-19)
(1.27335 -0.150305 -1.1959e-19)
(1.71997 -0.170624 -2.43941e-19)
(2.06841 -0.180426 5.45841e-19)
(2.30613 -0.184042 -5.22322e-19)
(2.44856 -0.18486 -7.31937e-19)
(2.52324 -0.184278 5.78416e-19)
(2.54957 -0.186387 2.45245e-21)
(0.117719 -0.0270759 6.92512e-20)
(0.539242 -0.0795574 -1.81143e-19)
(1.07081 -0.11084 -7.18515e-19)
(1.58961 -0.120446 3.87648e-19)
(2.00551 -0.1188 8.55088e-19)
(2.29032 -0.113625 -3.22353e-21)
(2.45948 -0.108727 -1.7475e-18)
(2.54536 -0.105384 1.56103e-20)
(2.57839 -0.10332 1.99424e-18)
(2.58214 -0.106704 5.42372e-19)
(0.197411 -0.0322518 5.41556e-20)
(0.748597 -0.0684153 3.5738e-19)
(1.34814 -0.0711508 6.67248e-19)
(1.86117 -0.0548621 -9.69398e-20)
(2.22404 -0.0369536 -7.18375e-19)
(2.44242 -0.0239619 -2.73082e-19)
(2.55359 -0.0167106 0)
(2.59752 -0.0139655 7.92126e-19)
(2.60434 -0.0141983 -1.68287e-20)
(2.58997 -0.0186952 -7.36673e-19)
(0.286908 -0.0264811 4.38052e-20)
(0.957454 -0.0292684 4.81292e-19)
(1.59375 0.00245524 9.15657e-19)
(2.07546 0.0405312 -1.00931e-18)
(2.37785 0.0677868 -8.84684e-19)
(2.53676 0.0823833 3.26641e-19)
(2.60296 0.0873946 -1.51287e-18)
(2.61806 0.0866051 -1.14412e-18)
(2.60769 0.0826111 1.38008e-18)
(2.58422 0.0745111 1.19769e-18)
(0.379656 -0.00732916 6.09222e-21)
(1.14856 0.0378511 3.85235e-19)
(1.79343 0.104785 2.19712e-19)
(2.2299 0.158661 -1.83404e-18)
(2.47381 0.189035 3.23685e-20)
(2.58372 0.200439 3.51628e-18)
(2.61703 0.200056 -2.02354e-18)
(2.61301 0.193655 -1.15827e-18)
(2.59237 0.184296 4.14308e-19)
(2.56275 0.171835 -9.41333e-19)
(-0.0140492 0.166057 2.29792e-19)
(-0.0710126 0.289751 -1.3686e-19)
(-0.138321 0.309157 1.13277e-21)
(-0.205618 0.281783 -3.17243e-20)
(-0.265365 0.236802 1.06107e-21)
(-0.316367 0.186652 8.87785e-20)
(-0.359314 0.135493 1.1429e-19)
(-0.394886 0.0836925 -9.42e-20)
(-0.420921 0.030229 1.9162e-20)
(-0.430549 -0.0256267 -5.344e-20)
(-0.0315075 0.223432 -1.72732e-20)
(-0.0946251 0.406185 7.90496e-21)
(-0.157367 0.446913 1.00478e-20)
(-0.215795 0.419505 3.16853e-20)
(-0.265492 0.36436 -1.96232e-19)
(-0.306085 0.299806 7.61948e-20)
(-0.338274 0.232547 -1.28902e-19)
(-0.36281 0.163837 -1.69579e-19)
(-0.37771 0.092851 -7.10911e-20)
(-0.374402 0.0189571 2.59192e-20)
(-0.0531041 0.259601 -1.14479e-19)
(-0.123689 0.493557 3.73468e-20)
(-0.179233 0.559477 1.50033e-20)
(-0.223953 0.537961 -1.79785e-19)
(-0.258005 0.476998 -5.06501e-20)
(-0.282251 0.400316 4.85656e-19)
(-0.297363 0.317776 -2.64566e-19)
(-0.30404 0.232402 -6.21884e-20)
(-0.300959 0.144349 1.20718e-20)
(-0.278266 0.0537769 -5.75201e-20)
(-0.0728099 0.267358 -1.33677e-19)
(-0.150556 0.538358 8.9809e-21)
(-0.197157 0.633639 3.67456e-20)
(-0.224298 0.626546 -1.60893e-19)
(-0.237992 0.566798 3.82128e-19)
(-0.240638 0.482249 -1.65551e-19)
(-0.232963 0.386269 -1.85227e-19)
(-0.215383 0.284559 2.16853e-19)
(-0.187794 0.179439 4.49571e-20)
(-0.140859 0.0730532 -3.77666e-21)
(-0.0843269 0.245003 0)
(-0.166604 0.531058 6.00466e-20)
(-0.203958 0.656604 -2.26792e-19)
(-0.212428 0.673431 1.35566e-19)
(-0.202793 0.62517 2.51932e-19)
(-0.179949 0.540575 -2.70861e-19)
(-0.145634 0.435662 1.18508e-19)
(-0.0997866 0.318871 -9.69499e-20)
(-0.0440305 0.194358 0)
(0.0299542 0.0694794 -4.27926e-21)
(-0.0841267 0.199237 1.16973e-20)
(-0.167583 0.471627 1.66977e-20)
(-0.198137 0.618984 -6.73942e-20)
(-0.191458 0.664474 8.4925e-20)
(-0.160778 0.638346 -5.31977e-20)
(-0.113418 0.565733 2.4136e-19)
(-0.0530167 0.463093 -4.80695e-19)
(0.0189719 0.339806 2.10126e-20)
(0.10101 0.200227 3.41559e-19)
(0.205986 0.0569507 -3.56212e-22)
(-0.0737232 0.144375 6.50892e-21)
(-0.154792 0.375615 5.28857e-20)
(-0.182426 0.52527 1.63827e-20)
(-0.167209 0.591923 4.06852e-21)
(-0.121564 0.590353 -4.57995e-20)
(-0.0540281 0.538637 1.94265e-19)
(0.0299894 0.451118 2.30996e-19)
(0.127797 0.336941 2.96082e-19)
(0.236682 0.199227 -1.7048e-19)
(0.375943 0.0484363 -9.713e-20)
(-0.0596867 0.0965315 1.2127e-21)
(-0.135978 0.272014 -4.5742e-20)
(-0.163394 0.401334 -2.92724e-20)
(-0.145601 0.470249 1.17414e-20)
(-0.0914909 0.482007 -3.66611e-20)
(-0.00877805 0.447134 -1.97333e-19)
(0.0969085 0.376127 -2.45907e-19)
(0.222596 0.277051 2.18545e-19)
(0.363325 0.152296 1.01358e-19)
(0.551539 0.00489636 -9.42219e-20)
(-0.0498602 0.0655566 -1.89819e-20)
(-0.120631 0.18771 -1.55799e-19)
(-0.145825 0.282461 1.43575e-19)
(-0.123934 0.334777 8.32649e-20)
(-0.0591801 0.34316 3.83101e-21)
(0.0433722 0.312819 -9.2058e-20)
(0.179407 0.250507 -2.15912e-20)
(0.346274 0.163669 4.31842e-19)
(0.531924 0.0535066 8.67095e-20)
(0.783664 -0.0777746 -7.7637e-20)
(-0.0480274 0.0510576 -1.34741e-20)
(-0.111463 0.131956 -1.11964e-19)
(-0.124759 0.189188 -4.00755e-20)
(-0.0847855 0.213753 6.38441e-20)
(0.00802542 0.204882 2.81021e-20)
(0.150821 0.165713 3.82703e-20)
(0.338863 0.101298 1.07418e-19)
(0.56376 0.0179555 -9.93212e-20)
(0.810311 -0.079354 6.77277e-20)
(1.10397 -0.177683 2.42608e-20)
(-0.412501 -0.317663 5.88223e-19)
(-0.0324109 -0.402797 -4.11939e-19)
(0.454879 -0.294886 -6.79981e-20)
(0.684898 -0.223914 1.89382e-20)
(0.854553 -0.16996 -1.12573e-20)
(0.948971 -0.126592 -9.21146e-21)
(1.0002 -0.0995639 -1.04543e-20)
(1.03175 -0.0705258 -2.32068e-21)
(1.04637 -0.0602727 1.19761e-20)
(1.06304 -0.0406805 2.04395e-21)
(-0.277223 -0.376134 6.215e-19)
(0.0216833 -0.538373 3.36526e-19)
(0.496647 -0.397086 -1.14687e-20)
(0.710762 -0.28676 -4.20363e-20)
(0.871136 -0.206359 -6.03955e-20)
(0.960338 -0.147063 0)
(1.00861 -0.111238 -1.27214e-20)
(1.03751 -0.0770137 4.36275e-21)
(1.05097 -0.0644471 3.06539e-22)
(1.06561 -0.0429736 -3.99317e-21)
(-0.0713103 -0.434388 -7.22868e-19)
(0.138881 -0.651803 -1.64277e-19)
(0.566755 -0.494642 7.30783e-20)
(0.752059 -0.346457 1.39975e-20)
(0.894833 -0.241072 -5.20014e-22)
(0.975145 -0.166595 4.17472e-21)
(1.01876 -0.122256 0)
(1.04414 -0.0830395 0)
(1.05609 -0.0682129 -6.25641e-21)
(1.06837 -0.044975 0)
(0.190788 -0.491674 -1.15965e-19)
(0.323465 -0.739024 5.38758e-19)
(0.670414 -0.57944 -3.83031e-20)
(0.812306 -0.399751 0)
(0.927273 -0.272541 8.3964e-20)
(0.993937 -0.184487 -1.47582e-20)
(1.03078 -0.132298 0)
(1.05165 -0.0884501 1.82302e-20)
(1.06168 -0.0714807 0)
(1.0713 -0.0466411 2.55667e-21)
(0.491525 -0.546888 -2.77921e-19)
(0.553463 -0.801639 3.10815e-19)
(0.801798 -0.645359 2.82348e-20)
(0.890739 -0.443321 0)
(0.969185 -0.298933 3.29069e-20)
(1.01721 -0.199844 3.49343e-20)
(1.04483 -0.140966 3.70989e-21)
(1.06007 -0.0930745 3.47857e-22)
(1.06771 -0.0741609 -4.85227e-21)
(1.07437 -0.0479317 1.55338e-21)
(0.80766 -0.603689 -1.58461e-18)
(0.802664 -0.843899 -5.29246e-19)
(0.94626 -0.691205 -1.63129e-20)
(0.980677 -0.475694 1.53331e-19)
(1.01906 -0.318928 -6.2626e-20)
(1.04491 -0.211775 2.08018e-20)
(1.06104 -0.147796 3.79267e-20)
(1.06945 -0.0967087 -3.73337e-20)
(1.07418 -0.0761559 -4.66128e-23)
(1.07755 -0.0488098 -4.80981e-21)
(1.09573 -0.654929 1.42478e-19)
(1.04967 -0.869121 1.25157e-19)
(1.08973 -0.71902 -5.09977e-20)
(1.07234 -0.497678 -5.25077e-21)
(1.0728 -0.332508 -9.03798e-20)
(1.07591 -0.21982 2.89164e-21)
(1.07924 -0.152379 -1.72892e-20)
(1.07982 -0.0991212 -1.85289e-21)
(1.0811 -0.0773458 5.14613e-21)
(1.08084 -0.049237 -9.08752e-22)
(1.3509 -0.696896 -1.44104e-20)
(1.2804 -0.879536 2.22692e-19)
(1.22448 -0.731478 0)
(1.15837 -0.510938 3.27121e-20)
(1.12536 -0.340846 7.96136e-20)
(1.10786 -0.224313 -2.1656e-21)
(1.09867 -0.154619 -6.22594e-20)
(1.09105 -0.100153 1.61301e-20)
(1.08846 -0.0776099 -2.56749e-22)
(1.08423 -0.0491708 -2.60748e-21)
(1.57672 -0.722873 2.23829e-19)
(1.4869 -0.87461 -5.99423e-19)
(1.34736 -0.730609 1.32571e-19)
(1.23615 -0.516708 -2.24082e-20)
(1.17344 -0.345351 -9.3541e-22)
(1.13815 -0.226276 -6.79043e-20)
(1.11797 -0.154963 2.11568e-20)
(1.10264 -0.0999159 1.83999e-22)
(1.0961 -0.0769375 -1.27667e-21)
(1.08769 -0.0485899 2.48862e-21)
(1.79152 -0.724169 -2.32295e-19)
(1.66597 -0.854025 -5.42743e-19)
(1.45721 -0.717395 7.30662e-21)
(1.30577 -0.514947 -1.59611e-19)
(1.2164 -0.346404 -9.4059e-20)
(1.16525 -0.226596 -4.19863e-20)
(1.1357 -0.154175 -1.41082e-20)
(1.11376 -0.0988352 0)
(1.1036 -0.0755208 -7.23308e-21)
(1.0911 -0.0475238 5.61764e-21)
(2.14768 -0.720025 -9.14873e-19)
(1.88639 -0.80384 -3.86524e-20)
(1.59249 -0.67883 -2.5204e-19)
(1.39011 -0.496243 2.73289e-20)
(1.26692 -0.337102 2.71179e-20)
(1.19546 -0.220633 -2.75411e-20)
(1.15495 -0.149181 -1.5846e-20)
(1.12608 -0.09517 1.1438e-20)
(1.11216 -0.0722424 -4.87654e-21)
(1.0951 -0.0455282 -2.56195e-21)
(2.26085 -0.677286 1.68619e-19)
(1.8893 -0.705769 -3.10727e-19)
(1.57361 -0.560475 1.16404e-20)
(1.3905 -0.403988 -1.66735e-20)
(1.2804 -0.278717 1.05077e-19)
(1.20971 -0.186806 8.03703e-20)
(1.16679 -0.129453 5.28934e-20)
(1.13467 -0.0838529 -5.74046e-21)
(1.11915 -0.0647891 1.80052e-20)
(1.09845 -0.0414761 3.2575e-21)
(2.24332 -0.556793 -1.31001e-19)
(1.95593 -0.587031 -3.47467e-20)
(1.69082 -0.490635 3.66325e-20)
(1.49278 -0.36724 7.90798e-36)
(1.35186 -0.255757 -9.25064e-21)
(1.25353 -0.16997 -2.29353e-34)
(1.19219 -0.116478 2.36458e-21)
(1.14865 -0.0749179 -4.67164e-36)
(1.12793 -0.0577548 -3.12762e-23)
(1.10214 -0.0371803 -1.21305e-22)
(2.21229 -0.468836 -4.82518e-34)
(1.95933 -0.502243 9.87755e-20)
(1.69717 -0.404245 -2.01371e-20)
(1.49978 -0.287609 0)
(1.36318 -0.196631 -4.97136e-20)
(1.26632 -0.1315 -3.79325e-20)
(1.20355 -0.0922326 -2.68311e-20)
(1.15675 -0.0605095 1.86411e-34)
(1.13413 -0.0478869 -8.27207e-21)
(1.10481 -0.0316003 -1.77936e-22)
(2.18145 -0.39343 -8.19957e-20)
(1.97585 -0.411165 1.14342e-20)
(1.73739 -0.326127 0)
(1.53532 -0.230444 0)
(1.38825 -0.157058 0)
(1.28288 -0.103889 0)
(1.21436 -0.0722363 1.01234e-21)
(1.16326 -0.0471682 2.20611e-34)
(1.13874 -0.0378139 -2.66322e-22)
(1.10649 -0.0255759 -4.70073e-35)
(2.16019 -0.334092 2.11278e-20)
(1.97649 -0.337053 0)
(1.74496 -0.250955 0)
(1.54052 -0.162331 0)
(1.39084 -0.104757 0)
(1.28449 -0.0682316 0)
(1.2155 -0.0482404 -2.32239e-21)
(1.16357 -0.0320107 1.24592e-20)
(1.13893 -0.0267535 -3.70419e-22)
(1.1053 -0.0189842 1.27113e-21)
(2.12304 -0.282329 0)
(1.93227 -0.26193 9.51245e-21)
(1.69981 -0.174395 -3.55996e-20)
(1.49887 -0.0974544 0)
(1.35608 -0.0568023 -2.85633e-20)
(1.25822 -0.0355119 -1.84155e-20)
(1.19565 -0.0256589 -1.42649e-20)
(1.14795 -0.0174157 -6.75184e-21)
(1.12574 -0.0158196 6.28063e-21)
(1.09335 -0.0122791 -1.89601e-21)
(1.98142 -0.221662 5.83658e-21)
(1.74676 -0.179806 1.21824e-20)
(1.51543 -0.097836 -1.4208e-20)
(1.34243 -0.0377285 -3.70906e-36)
(1.23125 -0.0150222 8.12057e-21)
(1.16038 -0.00822975 -1.22853e-34)
(1.11615 -0.00703459 -2.94521e-21)
(1.08129 -0.00538815 -5.19658e-21)
(1.06573 -0.00644316 -4.90777e-22)
(1.03922 -0.00617289 1.02423e-21)
(1.51006 -0.138193 -1.86816e-20)
(1.24012 -0.0871326 8.99518e-21)
(1.04945 -0.0259431 2.22203e-20)
(0.954395 0.00825871 0)
(0.913944 0.0136085 1.27975e-20)
(0.894394 0.00969352 7.9669e-21)
(0.882285 0.0053221 1.48367e-21)
(0.869711 0.00272054 2.59031e-21)
(0.865045 0.000375057 -3.22562e-21)
(0.850065 -0.00137113 -7.43932e-22)
(0.506107 -0.0151583 0)
(0.346613 -0.00160216 0)
(0.284313 0.00648156 0)
(0.292739 0.0081076 0)
(0.320458 0.00584622 0)
(0.343695 0.00362225 0)
(0.35808 0.00217637 -3.22878e-21)
(0.36541 0.00126072 9.30764e-36)
(0.370047 0.000653589 -5.92318e-22)
(0.368328 4.6099e-05 -1.15115e-21)
(2.49215 0.146921 9.05012e-19)
(2.51612 0.0651144 5.74969e-20)
(2.53999 -0.0221342 -1.00297e-19)
(2.53771 -0.0926621 -3.27378e-19)
(2.55314 -0.177385 -7.24345e-20)
(2.51049 -0.229829 -1.212e-19)
(2.53244 -0.319454 -4.25369e-19)
(2.38861 -0.336705 6.58539e-20)
(2.42317 -0.437556 0)
(2.02244 -0.371678 9.90503e-20)
(2.39987 0.116836 2.8077e-19)
(2.40527 0.0542482 -3.41776e-19)
(2.45811 -0.0197599 -6.20677e-20)
(2.43153 -0.073922 -1.52693e-19)
(2.49368 -0.152952 1.12331e-19)
(2.42867 -0.196292 2.19017e-19)
(2.50803 -0.284192 -2.71547e-19)
(2.39758 -0.319598 -6.51323e-21)
(2.47218 -0.414331 -2.80194e-20)
(2.32463 -0.448439 1.21254e-19)
(2.32528 0.0948615 -1.29292e-19)
(2.32983 0.0372438 2.86481e-19)
(2.37557 -0.0166675 1.93051e-19)
(2.35817 -0.0710089 -3.0893e-19)
(2.40181 -0.12656 -2.05189e-20)
(2.36809 -0.179426 4.16849e-19)
(2.40333 -0.235983 6.11801e-20)
(2.36676 -0.293749 -7.39894e-20)
(2.37596 -0.346949 -3.83688e-20)
(2.35279 -0.418452 -4.35802e-20)
(2.25894 0.0701689 -3.06861e-19)
(2.27481 0.0177386 -2.80555e-20)
(2.30262 -0.0203172 -8.07913e-21)
(2.30597 -0.0727438 -3.10091e-20)
(2.32254 -0.110697 -1.99671e-19)
(2.31905 -0.164115 -1.13681e-19)
(2.32035 -0.201043 2.39386e-19)
(2.31738 -0.258147 -1.90501e-21)
(2.30093 -0.2935 4.1152e-20)
(2.30167 -0.3568 2.63452e-20)
(2.20499 0.0450535 5.23042e-20)
(2.22769 0.000390181 1.22788e-19)
(2.24596 -0.0288305 -4.14584e-20)
(2.25967 -0.074273 2.40539e-19)
(2.26603 -0.103424 -4.19016e-20)
(2.27313 -0.149326 -2.60279e-19)
(2.26713 -0.177973 4.20902e-20)
(2.26971 -0.224981 -1.20479e-19)
(2.25258 -0.253591 6.7129e-20)
(2.2511 -0.302519 4.15261e-20)
(2.1607 0.0193778 -1.66327e-19)
(2.18421 -0.0167432 -8.05415e-20)
(2.2003 -0.0405609 1.26783e-20)
(2.21579 -0.0774318 1.25546e-19)
(2.22193 -0.101526 2.35413e-19)
(2.23012 -0.138374 -7.64532e-20)
(2.2268 -0.162694 6.94143e-21)
(2.2284 -0.199401 -3.20283e-20)
(2.21629 -0.224042 -2.98197e-20)
(2.21204 -0.260622 -6.97305e-20)
(2.11117 -0.00500226 -6.13507e-20)
(2.13312 -0.0332867 -1.30822e-19)
(2.14768 -0.0523171 -1.31994e-19)
(2.16333 -0.0814739 -2.56479e-19)
(2.16933 -0.100703 4.25676e-20)
(2.17946 -0.130198 4.96238e-20)
(2.17708 -0.149787 2.83881e-20)
(2.18283 -0.179144 5.62036e-20)
(2.17161 -0.198707 -9.43239e-20)
(2.1748 -0.227428 -3.40797e-20)
(2.00754 -0.0256673 5.98375e-20)
(2.0249 -0.0457865 4.71936e-20)
(2.03232 -0.0592902 2.17205e-20)
(2.04735 -0.0807568 -4.37696e-20)
(2.04587 -0.0939285 -4.09615e-20)
(2.06099 -0.116632 -1.08744e-20)
(2.04979 -0.129495 -4.15346e-20)
(2.0679 -0.153028 5.06224e-20)
(2.04512 -0.165181 -2.85462e-20)
(2.06969 -0.188858 4.74793e-20)
(1.70131 -0.0385125 -5.19006e-20)
(1.70094 -0.048953 1.82314e-22)
(1.69274 -0.0565215 1.02049e-19)
(1.69252 -0.0675052 -4.50273e-21)
(1.67691 -0.0743273 -2.76738e-20)
(1.6813 -0.0865237 5.56329e-20)
(1.65552 -0.0924325 -3.48766e-20)
(1.67008 -0.106465 1.82626e-20)
(1.62885 -0.110804 1.0407e-20)
(1.66166 -0.126872 9.03945e-21)
(0.845782 -0.0152189 4.6996e-20)
(0.822578 -0.0150356 3.63864e-20)
(0.799515 -0.0146808 3.49711e-20)
(0.777146 -0.0146751 5.4382e-20)
(0.753591 -0.0146859 -2.69087e-20)
(0.733015 -0.015141 -2.76779e-20)
(0.707616 -0.0158591 1.07839e-20)
(0.691745 -0.0169536 -2.27745e-21)
(0.658172 -0.0174592 3.26312e-21)
(0.659043 -0.0224133 -4.37363e-21)
(1.5566 0.933332 -8.23653e-20)
(1.54005 0.979308 2.83497e-20)
(1.54291 1.03285 -6.20847e-19)
(1.55111 1.09395 2.47822e-19)
(1.55747 1.15876 1.16181e-18)
(1.55358 1.21972 -1.55299e-19)
(1.51823 1.25544 -1.0531e-18)
(1.40215 1.21512 -2.10314e-20)
(1.11636 1.00272 -5.27464e-19)
(0.527945 0.487866 1.32072e-19)
(1.72162 0.900353 0)
(1.71042 0.945577 7.32451e-19)
(1.70988 0.995957 1.62261e-18)
(1.71778 1.05509 -9.92029e-19)
(1.72768 1.11904 -2.32289e-18)
(1.72766 1.17876 -1.60318e-19)
(1.6913 1.21175 -2.04914e-19)
(1.56162 1.16784 7.44259e-19)
(1.23898 0.956044 1.08886e-18)
(0.581222 0.458775 4.49786e-19)
(1.87482 0.86076 7.15635e-20)
(1.87329 0.90552 0)
(1.87449 0.952845 -7.19254e-20)
(1.88314 1.00739 1.01396e-18)
(1.89529 1.06661 5.89472e-20)
(1.89714 1.12141 -2.30505e-18)
(1.8574 1.14869 1.45139e-18)
(1.71143 1.10001 8.76351e-19)
(1.35036 0.891628 -9.47211e-19)
(0.626563 0.420395 -2.96543e-19)
(2.00924 0.807746 -1.82003e-19)
(2.01839 0.851366 -1.35406e-19)
(2.02592 0.895843 2.84617e-19)
(2.03824 0.945599 -3.5281e-19)
(2.05302 0.999014 -1.64458e-18)
(2.05549 1.04706 -1.2683e-18)
(2.00986 1.06705 1.34726e-18)
(1.84493 1.01294 8.72627e-19)
(1.44362 0.810075 0)
(0.65964 0.372819 0)
(2.13009 0.741385 -9.56973e-19)
(2.14778 0.782412 -1.72292e-18)
(2.16222 0.823396 -6.67594e-19)
(2.17907 0.868045 -3.70658e-20)
(2.19622 0.915025 0)
(2.19748 0.955579 1.50653e-19)
(2.14327 0.966686 1.75943e-19)
(1.95472 0.906844 2.1974e-19)
(1.51106 0.712682 -3.19257e-19)
(0.676445 0.316903 -8.0158e-20)
(2.23524 0.662349 1.14359e-18)
(2.26065 0.699644 -4.67079e-20)
(2.28192 0.736509 -1.34225e-18)
(2.30328 0.775818 0)
(2.32191 0.815811 0)
(2.31976 0.846733 0)
(2.2517 0.84896 1.57518e-18)
(2.03368 0.785501 -1.74662e-18)
(1.54754 0.601975 -1.12354e-18)
(0.674344 0.254922 2.99725e-21)
(2.3291 0.572835 -1.50638e-18)
(2.35916 0.605557 -3.16319e-18)
(2.38523 0.637606 -5.48181e-21)
(2.40958 0.67087 6.35779e-19)
(2.42744 0.703125 -4.30839e-20)
(2.4173 0.725171 1.36045e-18)
(2.32901 0.718462 -7.437e-19)
(2.07691 0.651221 -2.05355e-18)
(1.54869 0.481784 1.43361e-19)
(0.651854 0.190625 1.04788e-19)
(2.40885 0.47648 -1.19884e-18)
(2.44227 0.503358 1.85508e-20)
(2.47107 0.530083 4.55112e-19)
(2.49596 0.556983 -4.36532e-19)
(2.50945 0.581219 6.70306e-19)
(2.48589 0.594056 1.81983e-18)
(2.3711 0.578652 -1.95675e-19)
(2.07926 0.509222 -1.10378e-18)
(1.51057 0.358215 2.61061e-19)
(0.608819 0.128252 4.74042e-20)
(2.47589 0.375035 4.43032e-19)
(2.50962 0.397097 9.57342e-20)
(2.53839 0.41814 -4.66059e-19)
(2.56065 0.438167 -1.06513e-18)
(2.56516 0.454039 9.08439e-20)
(2.52158 0.457593 8.29903e-20)
(2.37244 0.434537 -1.41442e-18)
(2.03537 0.365912 5.7895e-19)
(1.43065 0.238192 1.72738e-19)
(0.546582 0.0720506 -1.0516e-19)
(2.52678 0.27338 8.48178e-19)
(2.55971 0.290415 -1.26092e-18)
(2.5861 0.305352 1.99975e-19)
(2.60186 0.318225 2.50208e-18)
(2.59138 0.325803 1.244e-18)
(2.51953 0.320849 -2.66924e-18)
(2.32729 0.292333 -2.52879e-18)
(1.94092 0.228529 1.12453e-18)
(1.30889 0.129022 -2.10001e-20)
(0.468448 0.0259088 -4.87188e-20)
(0.529989 0.377055 -1.54416e-19)
(0.490247 0.390521 -1.61433e-19)
(0.445575 0.404961 6.81527e-20)
(0.39656 0.420518 -2.26339e-19)
(0.342879 0.437061 -1.73297e-20)
(0.283721 0.453272 2.15223e-19)
(0.218183 0.463711 3.31664e-20)
(0.146796 0.452479 5.53312e-21)
(0.0764903 0.384248 2.15265e-20)
(0.0156587 0.198301 1.30957e-20)
(0.574279 0.481651 1.28807e-19)
(0.535333 0.501557 1.63858e-19)
(0.492245 0.523004 4.91651e-20)
(0.445213 0.546159 -4.7958e-20)
(0.393638 0.570802 -2.18716e-19)
(0.336462 0.595087 -1.72848e-20)
(0.272083 0.611635 5.75193e-20)
(0.1992 0.599089 4.07674e-20)
(0.121059 0.509991 -1.25754e-19)
(0.0387373 0.263507 -4.349e-20)
(0.63655 0.579552 -1.06105e-19)
(0.598823 0.605196 -9.30251e-20)
(0.557953 0.63283 9.7269e-20)
(0.513693 0.662898 6.80352e-20)
(0.465187 0.695286 -8.18243e-20)
(0.411089 0.727718 -2.44774e-20)
(0.348795 0.75087 -1.1244e-19)
(0.274238 0.737864 -7.76675e-20)
(0.184987 0.629217 -6.95481e-20)
(0.0718276 0.325011 6.83345e-22)
(0.714924 0.673498 3.16838e-20)
(0.678928 0.705406 -5.66343e-20)
(0.641235 0.739237 -8.32698e-20)
(0.60067 0.775652 -5.70772e-20)
(0.55594 0.814626 -7.04855e-20)
(0.505474 0.853522 -3.69321e-21)
(0.445631 0.881253 -2.80925e-19)
(0.368984 0.866004 5.15276e-20)
(0.265675 0.737807 -3.23922e-19)
(0.113554 0.380247 5.079e-20)
(0.807347 0.752495 7.76082e-21)
(0.773709 0.789308 1.43595e-20)
(0.740286 0.828524 -5.14429e-20)
(0.705104 0.871197 -2.72808e-19)
(0.666154 0.917121 1.25047e-19)
(0.621097 0.962979 3.0042e-20)
(0.564673 0.995902 5.64484e-20)
(0.485295 0.979435 -1.6664e-19)
(0.364024 0.833874 3.90826e-19)
(0.163837 0.428419 2.85726e-19)
(0.914886 0.829513 -9.19895e-20)
(0.883004 0.870868 -1.84729e-19)
(0.852911 0.913511 3.28287e-20)
(0.822015 0.959816 1.03737e-19)
(0.788268 1.01016 3.64943e-19)
(0.748894 1.06065 2.61132e-19)
(0.696591 1.09633 6.4255e-19)
(0.614629 1.07642 2.67244e-19)
(0.473616 0.913532 1.58971e-19)
(0.219788 0.466874 2.13513e-19)
(1.02895 0.881905 -1.12337e-19)
(1.0028 0.92801 6.07281e-19)
(0.980303 0.975215 3.93311e-19)
(0.956971 1.02595 -4.98717e-19)
(0.930034 1.08071 -2.48749e-19)
(0.896508 1.13551 6.77408e-19)
(0.847531 1.17401 -1.10436e-19)
(0.761014 1.15162 -4.49648e-19)
(0.59603 0.97443 8.65129e-21)
(0.281075 0.494796 2.59606e-19)
(1.15033 0.934195 3.02203e-19)
(1.12429 0.980763 6.18021e-20)
(1.10624 1.02835 -7.82966e-19)
(1.09066 1.081 1.58865e-19)
(1.07302 1.13848 5.79384e-19)
(1.04829 1.19543 -3.29944e-19)
(1.00467 1.23382 -9.75819e-20)
(0.914001 1.20633 -1.85878e-19)
(0.723495 1.01522 1.88678e-20)
(0.344118 0.510963 -3.12931e-19)
(1.28059 0.953136 2.05394e-20)
(1.26515 1.00376 -5.68113e-19)
(1.25461 1.05251 -4.71678e-21)
(1.24461 1.10625 4.77414e-19)
(1.23264 1.16609 -4.8991e-19)
(1.21377 1.2258 9.60429e-19)
(1.17317 1.26511 6.48643e-19)
(1.07562 1.23405 -9.67333e-19)
(0.855751 1.03295 -7.19254e-20)
(0.407767 0.51475 -3.41664e-19)
(1.38419 0.962196 -3.35279e-19)
(1.37989 1.01366 -3.18288e-19)
(1.3866 1.06434 3.06249e-19)
(1.39165 1.11919 7.7839e-19)
(1.39142 1.17888 2.84667e-19)
(1.38134 1.23753 -7.91922e-19)
(1.34456 1.27424 8.99024e-20)
(1.23919 1.23786 2.15957e-19)
(0.987757 1.02903 -2.93513e-19)
(0.469672 0.50697 -2.43205e-19)
(0.971607 0.0168362 1.22563e-21)
(1.02429 0.0349095 -1.91979e-20)
(1.01752 0.0541354 -1.60577e-20)
(1.02136 0.0836009 0)
(1.03061 0.104644 2.18377e-20)
(1.0123 0.13475 3.06506e-20)
(0.988289 0.158225 4.0859e-20)
(0.933913 0.190378 8.738e-20)
(0.852383 0.248575 -1.2788e-19)
(0.703446 0.310187 -1.97158e-19)
(0.97182 0.0151173 4.07741e-20)
(1.02304 0.03287 -6.2682e-20)
(1.01642 0.0520272 1.31207e-22)
(1.02043 0.0821209 -2.05989e-20)
(1.03191 0.106879 1.08196e-20)
(1.01599 0.139912 -1.53024e-20)
(0.995048 0.169894 -9.542e-20)
(0.947635 0.21041 0)
(0.868405 0.285271 2.64458e-19)
(0.741518 0.378861 -2.70685e-19)
(0.971694 0.0135943 -3.08014e-20)
(1.02253 0.0309753 1.74401e-20)
(1.01579 0.049974 4.3903e-20)
(1.02072 0.0807184 1.09093e-20)
(1.03355 0.10858 -2.58403e-20)
(1.02164 0.145037 1.25927e-21)
(1.0019 0.180534 -6.55399e-20)
(0.965655 0.230196 -5.5034e-21)
(0.886843 0.320501 -3.5111e-23)
(0.793482 0.444862 7.58546e-19)
(0.971262 0.0121986 -3.31782e-20)
(1.02267 0.0291562 2.63643e-21)
(1.01562 0.0479021 3.59976e-20)
(1.02205 0.0794818 2.27517e-20)
(1.03569 0.109668 -1.27735e-20)
(1.02903 0.150362 -1.72594e-20)
(1.0092 0.189871 9.45074e-20)
(0.987644 0.250087 -1.49685e-21)
(0.907855 0.353215 -2.89603e-19)
(0.858727 0.506773 9.35864e-20)
(0.970559 0.0108751 2.3348e-20)
(1.0234 0.0273419 -3.33803e-20)
(1.01594 0.0457692 -2.868e-20)
(1.0242 0.0784465 1.33579e-20)
(1.03861 0.110091 0)
(1.03771 0.156084 0)
(1.01762 0.197613 7.86891e-20)
(1.01262 0.270343 1.14852e-22)
(0.932836 0.382842 -1.31566e-19)
(0.934754 0.563356 9.67659e-20)
(0.969618 0.00957729 6.53468e-21)
(1.02465 0.0254551 2.73748e-20)
(1.01677 0.0435665 -7.65894e-20)
(1.02692 0.0775807 -2.61569e-20)
(1.04259 0.109852 -6.35947e-22)
(1.0472 0.162275 7.1763e-20)
(1.02771 0.203456 1.19866e-19)
(1.04048 0.291412 -9.46781e-22)
(0.960113 0.407512 2.18226e-19)
(1.02557 0.618771 -2.25258e-19)
(0.96846 0.00825565 -2.63489e-20)
(1.02639 0.0234121 1.46674e-20)
(1.01813 0.0413148 -2.03288e-20)
(1.03005 0.0767757 -5.5258e-20)
(1.04795 0.109056 2.01718e-21)
(1.05692 0.168737 -1.71968e-21)
(1.04063 0.207522 -6.81256e-21)
(1.06876 0.312639 -2.37642e-19)
(0.996586 0.428125 1.59973e-19)
(1.11314 0.659846 -5.51884e-19)
(0.967079 0.00687438 -4.12959e-21)
(1.02859 0.0211317 -4.32155e-20)
(1.02001 0.0390535 4.10888e-20)
(1.03352 0.0758769 2.97174e-20)
(1.05482 0.107882 1.04865e-21)
(1.06663 0.175111 -8.24023e-20)
(1.05643 0.21011 -6.48049e-20)
(1.09932 0.334154 4.2196e-19)
(1.03278 0.44482 1.54637e-20)
(1.22847 0.716082 8.65663e-19)
(0.965421 0.00539571 1.81636e-20)
(1.03125 0.0185466 2.00019e-20)
(1.02239 0.0368457 4.65145e-20)
(1.03744 0.0747802 -3.25275e-20)
(1.06328 0.106485 -8.69401e-20)
(1.07603 0.181233 1.27497e-21)
(1.07665 0.209921 -8.83536e-20)
(1.12869 0.353727 5.45046e-19)
(1.08996 0.446306 -9.35331e-21)
(1.29971 0.732902 -1.19918e-18)
(0.963389 0.00392511 6.0231e-22)
(1.0344 0.0156773 3.16914e-20)
(1.02524 0.0348374 1.58936e-20)
(1.04196 0.0735084 -6.56326e-20)
(1.07257 0.106552 -8.32263e-20)
(1.08511 0.186805 -6.89616e-20)
(1.09755 0.216266 -1.59793e-19)
(1.15412 0.375469 -4.89514e-19)
(1.1446 0.472071 -2.66205e-19)
(1.43655 0.800652 -1.26494e-18)
(0.960477 0.00149284 -1.82652e-21)
(1.03825 0.0112505 -7.15249e-21)
(1.02991 0.0303932 -1.73127e-20)
(1.04746 0.0693905 3.50831e-20)
(1.08611 0.0996626 5.99502e-20)
(1.10018 0.188769 -4.5111e-20)
(1.124 0.200265 1.49419e-19)
(1.20032 0.385732 -4.56288e-19)
(1.21179 0.413535 -2.00582e-19)
(1.45367 0.789447 6.7497e-19)
(0.958933 -0.00253925 3.58695e-21)
(1.04213 0.00461641 1.56205e-20)
(1.0374 0.0228017 -1.08693e-20)
(1.05418 0.0607768 6.65577e-20)
(1.1059 0.0868591 9.71714e-20)
(1.10935 0.183294 1.32268e-19)
(1.16784 0.173282 3.34406e-20)
(1.22811 0.371976 2.20744e-19)
(1.31134 0.364064 3.27109e-19)
(1.4772 0.690387 2.12171e-20)
(0.957737 -0.00714696 -2.25913e-21)
(1.04704 -0.00338842 -4.24488e-21)
(1.04588 0.0147586 3.19681e-21)
(1.06451 0.0499758 5.07814e-21)
(1.12452 0.0753356 2.86682e-34)
(1.11843 0.17258 -7.87591e-21)
(1.2114 0.14446 -5.65266e-34)
(1.24763 0.349002 2.06488e-20)
(1.3763 0.310157 -5.9733e-20)
(1.51178 0.603223 -5.83959e-20)
(0.956233 -0.0128795 1.42675e-20)
(1.05376 -0.0131428 -4.78962e-35)
(1.05519 0.00553494 -3.70446e-21)
(1.08006 0.0376126 -3.04825e-20)
(1.13672 0.0650903 -4.56964e-20)
(1.13766 0.156531 -4.2342e-20)
(1.23909 0.116587 -7.11432e-34)
(1.27122 0.322411 -8.55402e-20)
(1.40674 0.258685 -1.48248e-19)
(1.55053 0.510275 9.95555e-20)
(0.954221 -0.020102 0)
(1.06273 -0.0243577 7.82085e-35)
(1.0665 -0.00624705 0)
(1.10006 0.0241465 0)
(1.14346 0.0542255 0)
(1.16722 0.135865 0)
(1.24954 0.0927044 -4.71963e-34)
(1.29812 0.288406 0)
(1.42655 0.212767 -2.15326e-20)
(1.58731 0.41152 5.94225e-20)
(0.951792 -0.0284868 3.70951e-21)
(1.0742 -0.0373918 7.66787e-21)
(1.08034 -0.0184918 -4.8135e-21)
(1.12195 0.0135849 0)
(1.14904 0.0441247 0)
(1.19859 0.112765 6.90299e-21)
(1.25187 0.0743238 4.05749e-20)
(1.32268 0.245298 -1.47872e-20)
(1.45009 0.169873 -3.17271e-20)
(1.61083 0.31928 2.2824e-19)
(0.950195 -0.0428127 -7.71999e-20)
(1.08934 -0.0570271 -1.66457e-21)
(1.09462 -0.0370166 -5.43799e-21)
(1.13859 -0.00100604 -1.89526e-20)
(1.14994 0.0313019 -2.4727e-20)
(1.22049 0.0861791 -1.0471e-20)
(1.24993 0.0598144 -3.31334e-20)
(1.33966 0.194453 -3.0614e-20)
(1.47012 0.129515 -5.75839e-20)
(1.62238 0.236254 8.02365e-20)
(0.952649 -0.0492115 -7.34102e-21)
(1.10158 -0.0662488 -1.83614e-20)
(1.08565 -0.043549 -6.0623e-21)
(1.12266 -0.00546653 -5.12621e-21)
(1.11996 0.0230654 -1.93265e-35)
(1.21002 0.0602668 7.35188e-21)
(1.21647 0.0475881 -9.32177e-34)
(1.3403 0.138588 -1.44322e-20)
(1.45652 0.0900477 2.01758e-20)
(1.62351 0.159246 2.8011e-20)
(0.955681 -0.0894892 1.95021e-19)
(1.0554 -0.0948966 -4.14958e-21)
(0.967422 -0.0626101 -6.47806e-21)
(0.973606 -0.0162762 1.41691e-20)
(0.958438 0.00867674 1.22098e-20)
(1.06346 0.0324985 1.55831e-20)
(1.04973 0.0328473 1.45871e-20)
(1.23239 0.0791251 -1.00624e-20)
(1.30575 0.0526967 -2.3073e-20)
(1.51754 0.0876484 1.46642e-19)
(0.8304 -0.0454359 9.46132e-21)
(0.733001 -0.0349204 -9.49044e-35)
(0.532204 -0.0148497 -7.68644e-21)
(0.494753 -0.00198669 0)
(0.478687 0.00171063 0)
(0.542663 0.00799937 7.47065e-21)
(0.552253 0.00589476 -6.38611e-36)
(0.692253 0.0162258 -1.40233e-20)
(0.75088 0.00784548 -2.99705e-20)
(0.910658 0.0155717 6.10967e-20)
(1.65734 0.818894 -2.01818e-19)
(1.75872 0.796187 -2.98114e-19)
(1.87516 0.76201 0)
(1.98399 0.712299 1.54547e-19)
(2.08764 0.650992 6.68917e-19)
(2.17774 0.5791 -1.32855e-19)
(2.26373 0.498901 1.76946e-18)
(2.33461 0.415503 -8.36352e-20)
(2.40026 0.325556 -4.06865e-19)
(2.44899 0.238005 3.64634e-19)
(1.67876 0.669503 1.01883e-19)
(1.75796 0.646853 1.19538e-19)
(1.85328 0.613984 -1.30616e-20)
(1.94485 0.565389 2.21627e-19)
(2.03648 0.512758 -1.84626e-19)
(2.11131 0.450731 -4.38605e-19)
(2.1894 0.388833 -1.26554e-19)
(2.24462 0.321912 6.06176e-19)
(2.31085 0.254597 -2.35655e-20)
(2.34365 0.187831 -5.2647e-19)
(1.71211 0.551407 1.03712e-19)