/*--------------------------------*- C++ -*----------------------------------*\
  =========                 |
  \\      /  F ield         | OpenFOAM: The Open Source CFD Toolbox
   \\    /   O peration     | Website:  https://openfoam.org
    \\  /    A nd           | Version:  13
     \\/     M anipulation  |
\*---------------------------------------------------------------------------*/
FoamFile
{
    format      ascii;
    class       volScalarField;
    location    "1.1";
    object      p;
}
// * * * * * * * * * * * * * * * * * * * * * * * * * * * * * * * * * * * * * //

dimensions      [0 2 -2 0 0 0 0];

internalField   nonuniform List<scalar> 
1800
(
-1.36703
-1.35873
-1.35436
-1.35321
-1.34853
-1.33187
-1.29741
-1.2437
-1.17293
-1.09921
-1.46924
-1.4597
-1.45343
-1.44842
-1.43682
-1.41097
-1.36729
-1.30699
-1.23567
-1.16433
-1.57541
-1.5648
-1.55573
-1.54462
-1.52282
-1.4845
-1.42867
-1.35897
-1.28145
-1.20381
-1.68612
-1.67436
-1.66119
-1.64132
-1.60646
-1.55365
-1.48516
-1.40669
-1.32427
-1.2447
-1.79877
-1.7857
-1.76653
-1.7348
-1.68419
-1.61507
-1.53299
-1.4448
-1.35626
-1.27224
-1.90827
-1.8934
-1.8661
-1.81992
-1.75181
-1.66621
-1.57137
-1.47452
-1.38056
-1.29307
-2.00717
-1.98964
-1.95203
-1.88944
-1.80277
-1.70096
-1.59392
-1.48857
-1.38891
-1.29724
-2.08701
-2.06563
-2.01615
-1.93608
-1.83145
-1.71509
-1.59763
-1.48519
-1.38069
-1.28539
-2.13883
-2.1127
-2.05049
-1.95283
-1.83184
-1.70306
-1.57695
-1.45858
-1.34993
-1.25136
-2.15524
-2.12387
-2.04879
-1.93495
-1.80037
-1.66209
-1.52977
-1.40734
-1.29584
-1.19489
-0.283993
-0.286721
-0.28653
-0.281144
-0.270078
-0.252813
-0.229509
-0.201263
-0.17
-0.137611
-0.340209
-0.34232
-0.341673
-0.336257
-0.325326
-0.30804
-0.28405
-0.253963
-0.219159
-0.181527
-0.426318
-0.4277
-0.42667
-0.421572
-0.411278
-0.39468
-0.370503
-0.338925
-0.30098
-0.257023
-0.536733
-0.537398
-0.536358
-0.532464
-0.524169
-0.50873
-0.484814
-0.451879
-0.408797
-0.359806
-0.663353
-0.663224
-0.662292
-0.659956
-0.654064
-0.641163
-0.618274
-0.584048
-0.538215
-0.481438
-0.796633
-0.79555
-0.794854
-0.794596
-0.792542
-0.782162
-0.760585
-0.725785
-0.676766
-0.612225
-0.927398
-0.925067
-0.92452
-0.926027
-0.926065
-0.918524
-0.898566
-0.863561
-0.812312
-0.741358
-1.04948
-1.04568
-1.04472
-1.04703
-1.04854
-1.0425
-1.0231
-0.987289
-0.934042
-0.858492
-1.16152
-1.15615
-1.15434
-1.15649
-1.15801
-1.15134
-1.13015
-1.09137
-1.03432
-0.954858
-1.26593
-1.25903
-1.25611
-1.25716
-1.2567
-1.24652
-1.22015
-1.17499
-1.11089
-1.02856
0.0622494
0.119292
0.14222
0.119951
0.0946704
0.0736591
0.0555
0.0388306
0.0229989
0.00773656
0.0190981
0.104942
0.134653
0.115713
0.0919442
0.0716835
0.05404
0.0378197
0.0224067
0.00750865
-0.0415238
0.0861917
0.124917
0.110466
0.0887773
0.0695029
0.0524817
0.0367662
0.0217984
0.00727466
-0.114935
0.0626736
0.112862
0.104185
0.0851547
0.0671062
0.0508169
0.035664
0.0211697
0.00703403
-0.196889
0.0345655
0.0983925
0.0968733
0.0810579
0.0644806
0.0490383
0.0345077
0.0205167
0.00678666
-0.284953
0.00185999
0.0817765
0.0886058
0.076493
0.061621
0.0471417
0.0332931
0.019836
0.00653304
-0.378439
-0.0364631
0.0630891
0.0793699
0.0714718
0.0585375
0.0451315
0.0320197
0.019126
0.00627475
-0.475571
-0.0816654
0.0416191
0.068808
0.0658773
0.0552046
0.0430046
0.0306868
0.0183863
0.00601531
-0.57048
-0.132878
0.0168934
0.0564474
0.0594178
0.0514903
0.0407068
0.0292709
0.0176066
0.00575773
-0.655362
-0.186587
-0.0099852
0.0425776
0.0520716
0.0473255
0.0381893
0.0277422
0.0167682
0.00550125
-0.660663
-0.213384
-0.0324395
0.0267719
0.0421238
0.0411496
0.0343036
0.0253173
0.015427
0.00511851
-0.584801
-0.21776
-0.0549006
0.00670302
0.0282096
0.0321412
0.0285841
0.0217759
0.0135123
0.00450983
-0.522435
-0.217461
-0.0654325
-0.00532022
0.018115
0.0247734
0.0235563
0.0185412
0.0117216
0.00393047
-0.469329
-0.218654
-0.0798806
-0.0199022
0.0068539
0.017025
0.0184724
0.0153454
0.00996639
0.00335078
-0.428157
-0.218927
-0.0905544
-0.0310666
-0.00256405
0.0101152
0.0137915
0.0123657
0.00831737
0.00279856
-0.396445
-0.220489
-0.101893
-0.0420516
-0.0114886
0.00363864
0.00942736
0.0096059
0.00678947
0.00227938
-0.374434
-0.224346
-0.113489
-0.0522974
-0.0195276
-0.0021709
0.00550602
0.00713546
0.00541445
0.00180209
-0.362411
-0.231094
-0.125373
-0.0619519
-0.026667
-0.00720331
0.00214079
0.00503831
0.00423923
0.00138637
-0.361281
-0.240454
-0.135941
-0.0692765
-0.0317099
-0.0107512
-0.000268304
0.00353498
0.00337237
0.00108232
-0.359703
-0.249045
-0.146096
-0.0767398
-0.0364317
-0.0137752
-0.00225041
0.00230903
0.00263834
0.000830802
-1.02216
-1.07976
-1.11796
-1.13623
-1.13927
-1.12666
-1.10469
-1.07126
-1.03155
-0.985769
-0.832089
-0.889497
-0.930099
-0.953073
-0.961751
-0.955906
-0.939278
-0.913033
-0.880539
-0.84674
-0.683332
-0.738578
-0.779036
-0.804812
-0.816816
-0.816314
-0.804572
-0.784498
-0.757209
-0.72681
-0.564571
-0.617957
-0.657999
-0.6855
-0.699762
-0.703018
-0.695206
-0.679403
-0.655822
-0.628159
-0.471367
-0.522777
-0.562281
-0.590568
-0.606496
-0.61226
-0.607556
-0.595066
-0.575216
-0.551244
-0.398072
-0.447943
-0.486976
-0.515705
-0.533099
-0.540864
-0.538921
-0.529482
-0.513124
-0.492455
-0.341245
-0.390036
-0.428887
-0.458106
-0.476881
-0.486411
-0.486955
-0.480159
-0.466837
-0.448812
-0.299534
-0.347699
-0.386761
-0.416561
-0.436636
-0.447691
-0.450469
-0.44583
-0.435206
-0.419028
-0.275429
-0.323967
-0.363265
-0.393199
-0.414172
-0.42654
-0.431096
-0.428062
-0.4195
-0.404706
-0.263513
-0.313055
-0.353626
-0.385289
-0.407928
-0.421932
-0.427824
-0.426117
-0.418099
-0.402738
0.48828
0.4241
0.350524
0.27167
0.186374
0.0924026
-0.0102166
-0.115758
-0.204753
-0.248623
0.277202
0.206787
0.128293
0.0422851
-0.0529629
-0.159011
-0.274905
-0.39336
-0.492254
-0.540152
0.0465242
-0.0276902
-0.109803
-0.201051
-0.303428
-0.418159
-0.543761
-0.67177
-0.778043
-0.828415
-0.175557
-0.254547
-0.342325
-0.44039
-0.55048
-0.67355
-0.80771
-0.943484
-1.05545
-1.10673
-0.378659
-0.463952
-0.55891
-0.664845
-0.783223
-0.914814
-1.05738
-1.19991
-1.3152
-1.36544
-0.562214
-0.654119
-0.756291
-0.869857
-0.996136
-1.1356
-1.28567
-1.43265
-1.54608
-1.59638
-0.727959
-0.825519
-0.933741
-1.05357
-1.18614
-1.33196
-1.48558
-1.63255
-1.74373
-1.79273
-0.875631
-0.977212
-1.08949
-1.21348
-1.35001
-1.49838
-1.65264
-1.79693
-1.9031
-1.94914
-1.00547
-1.10831
-1.22196
-1.34742
-1.48508
-1.63322
-1.78468
-1.92256
-2.0205
-2.06233
-1.11265
-1.21502
-1.32822
-1.45307
-1.58932
-1.73416
-1.87908
-2.00666
-2.09398
-2.13073
1.84906
1.86451
1.88076
1.8967
1.9114
1.92417
1.93431
1.94167
1.94779
1.95342
1.77914
1.79187
1.8048
1.81688
1.82732
1.83539
1.84042
1.84251
1.84407
1.84691
1.68888
1.69797
1.70647
1.71346
1.71827
1.72019
1.71856
1.71375
1.70927
1.70854
1.57938
1.58433
1.58742
1.58799
1.58568
1.57977
1.56964
1.55606
1.54391
1.53888
1.45068
1.45063
1.44742
1.4407
1.43032
1.41556
1.39581
1.37223
1.35121
1.3415
1.30559
1.30023
1.28978
1.27446
1.25456
1.2294
1.19846
1.16341
1.13233
1.11722
1.14463
1.1334
1.11539
1.09121
1.06135
1.02512
0.982088
0.934564
0.892558
0.871632
0.975132
0.957114
0.929703
0.89462
0.852985
0.80417
0.747856
0.686973
0.633575
0.606622
0.801634
0.776662
0.739286
0.692429
0.637831
0.574927
0.503652
0.427905
0.362251
0.329215
0.636829
0.595708
0.542214
0.480669
0.412007
0.334783
0.248738
0.158548
0.0812281
0.0425472
1.60413
1.54496
1.57516
1.55512
1.55414
1.5665
1.58301
1.61903
1.67749
1.78025
1.59727
1.53927
1.56925
1.54822
1.54589
1.55564
1.56891
1.59899
1.64777
1.73447
1.59094
1.53349
1.56327
1.54088
1.53707
1.54381
1.55325
1.57591
1.61247
1.67729
1.58512
1.52766
1.55727
1.53314
1.5277
1.53102
1.53604
1.54965
1.57188
1.60812
1.57979
1.52184
1.55127
1.52504
1.51781
1.51725
1.5173
1.52011
1.52651
1.52591
1.57494
1.51607
1.5453
1.5166
1.50743
1.50253
1.49699
1.48713
1.47685
1.42978
1.5706
1.51038
1.53937
1.50784
1.49654
1.48685
1.47506
1.45072
1.4231
1.31824
1.56676
1.50481
1.53348
1.49881
1.48516
1.47026
1.45147
1.4111
1.36502
1.1924
1.56348
1.49942
1.52764
1.48954
1.47328
1.45285
1.42625
1.36843
1.30109
1.04975
1.56079
1.49425
1.52185
1.48006
1.46098
1.43479
1.40005
1.32407
1.23406
0.9019
1.55807
1.48827
1.5144
1.46869
1.44498
1.41136
1.36496
1.26884
1.15451
0.757425
1.55676
1.48206
1.50619
1.45664
1.42733
1.38638
1.3288
1.21914
1.07771
0.718852
1.55738
1.47665
1.49845
1.44524
1.41052
1.36363
1.29629
1.17824
1.01507
0.694216
1.56045
1.4721
1.49118
1.4346
1.39474
1.34345
1.26701
1.1455
0.964658
0.68061
1.5665
1.46846
1.48411
1.42469
1.38024
1.32583
1.24111
1.11997
0.926413
0.675341
1.57613
1.46568
1.47848
1.41571
1.36738
1.31077
1.21911
1.10053
0.89918
0.672689
1.58924
1.4624
1.47056
1.40715
1.35622
1.29827
1.20128
1.08646
0.880055
0.67116
1.61241
1.46332
1.46627
1.39991
1.34733
1.28851
1.18784
1.07666
0.867197
0.671007
1.62443
1.4551
1.45426
1.39232
1.34066
1.28167
1.17908
1.0709
0.860002
0.672646
1.6957
1.4668
1.45554
1.38902
1.33847
1.27797
1.17513
1.06817
0.856535
0.675063
0.465506
0.289885
0.0856791
-0.110361
-0.287925
-0.448075
-0.594296
-0.72649
-0.843886
-0.942943
0.406886
0.268355
0.112546
-0.0419773
-0.186321
-0.3198
-0.444449
-0.560409
-0.665435
-0.756801
0.385667
0.269259
0.145073
0.0188857
-0.10357
-0.220722
-0.332164
-0.436428
-0.530943
-0.613616
0.393104
0.287249
0.178417
0.0699671
-0.0367455
-0.14103
-0.241477
-0.336166
-0.422562
-0.498967
0.409444
0.310906
0.211315
0.114005
0.018608
-0.0756474
-0.167788
-0.255956
-0.337247
-0.409976
0.427474
0.33482
0.241981
0.152131
0.0644503
-0.0226551
-0.108818
-0.192217
-0.269556
-0.338825
0.444407
0.356711
0.269117
0.184427
0.101712
0.0192702
-0.0627369
-0.142516
-0.21677
-0.283538
0.459954
0.376385
0.292823
0.211422
0.131312
0.0511891
-0.0285078
-0.105944
-0.178094
-0.243055
0.47447
0.394659
0.314273
0.234348
0.154475
0.074317
-0.005122
-0.0819084
-0.153547
-0.218459
0.487284
0.4104
0.331672
0.251193
0.169652
0.0880995
0.00814947
-0.0685717
-0.140286
-0.205712
-1.69323
-1.64609
-1.54213
-1.41208
-1.2817
-1.16367
-1.06192
-0.977151
-0.909616
-0.860262
-1.73302
-1.69249
-1.60527
-1.4915
-1.37299
-1.26293
-1.16644
-1.08509
-1.02012
-0.973595
-1.69618
-1.66144
-1.59326
-1.50107
-1.3998
-1.30181
-1.21319
-1.13627
-1.07278
-1.02506
-1.59865
-1.56836
-1.51834
-1.4501
-1.37019
-1.28818
-1.21063
-1.1408
-1.08138
-1.03518
-1.46436
-1.4376
-1.40235
-1.35652
-1.29984
-1.23733
-1.17445
-1.11486
-1.061
-1.01491
-1.31904
-1.29518
-1.27005
-1.24129
-1.20538
-1.16273
-1.11603
-1.0676
-1.02053
-0.976997
-1.18319
-1.16219
-1.14277
-1.12446
-1.10475
-1.08154
-1.05394
-1.0226
-0.98855
-0.955302
-1.07102
-1.05162
-1.03422
-1.02047
-1.01173
-1.00567
-0.997899
-0.983997
-0.963848
-0.936836
-0.99506
-0.975243
-0.956934
-0.944015
-0.94164
-0.949275
-0.960311
-0.966557
-0.962857
-0.953481
-0.965527
-0.946314
-0.92793
-0.917147
-0.920642
-0.939255
-0.964485
-0.985505
-0.991089
-0.98554
-0.974309
-0.958784
-0.947047
-0.946644
-0.961079
-0.98835
-1.02399
-1.05088
-1.05681
-1.01942
-0.980592
-0.973149
-0.974817
-0.992031
-1.02423
-1.06573
-1.10386
-1.13014
-1.135
-1.0779
-0.938319
-0.939277
-0.951231
-0.979234
-1.01987
-1.06528
-1.10535
-1.12743
-1.12448
-1.05424
-0.832803
-0.838237
-0.848609
-0.872853
-0.904459
-0.936358
-0.959517
-0.965173
-0.950702
-0.878133
-0.685738
-0.690199
-0.697011
-0.707611
-0.720211
-0.730079
-0.731974
-0.721163
-0.693884
-0.647046
-0.537305
-0.540527
-0.542448
-0.543067
-0.541847
-0.53639
-0.524185
-0.5035
-0.4741
-0.436781
-0.413089
-0.41582
-0.415675
-0.411717
-0.403854
-0.391002
-0.37228
-0.347638
-0.317698
-0.283634
-0.324455
-0.327293
-0.326907
-0.321606
-0.31129
-0.295413
-0.27385
-0.24725
-0.216866
-0.183254
-0.274061
-0.277115
-0.277027
-0.271618
-0.260633
-0.243706
-0.221019
-0.193614
-0.163235
-0.130898
-0.261142
-0.264174
-0.264194
-0.258861
-0.247738
-0.230438
-0.207174
-0.178992
-0.14765
-0.11426
-0.816627
-0.104128
0.102957
0.115124
0.101317
0.0854486
0.0672909
0.0483933
0.0291794
0.00999657
-0.743539
-0.0161291
0.125357
0.120719
0.103557
0.0847516
0.0661284
0.0473306
0.0284466
0.0097409
-0.615689
0.0540304
0.136336
0.123118
0.103186
0.0838517
0.0649971
0.0463258
0.0277637
0.00950055
-0.448462
0.100764
0.140652
0.124727
0.103141
0.0829658
0.0639004
0.0453634
0.0271155
0.00926967
-0.278454
0.126885
0.144641
0.126133
0.10289
0.0820014
0.0628055
0.0444268
0.0264929
0.0090456
-0.136959
0.139257
0.149116
0.127047
0.102348
0.0809433
0.061699
0.0435068
0.0258909
0.00882641
-0.0326415
0.143202
0.15221
0.127298
0.101509
0.0797774
0.0605663
0.042594
0.0253041
0.00861005
0.0357476
0.142149
0.152827
0.126797
0.100355
0.0784842
0.0593929
0.0416788
0.024727
0.00839457
0.0720563
0.137504
0.151274
0.125456
0.0988532
0.0770446
0.0581654
0.0407523
0.0241539
0.0081782
0.0797494
0.129844
0.147738
0.123191
0.0969675
0.0754414
0.0568716
0.0398056
0.0235796
0.00795934
-0.779737
-0.323127
-0.0314627
0.0766431
0.0927906
0.0843966
0.0684619
0.0499378
0.0304978
0.0105383
-0.781266
-0.32908
-0.0271928
0.0785974
0.0931772
0.0842112
0.0681965
0.0497123
0.0303199
0.0104734
-0.788278
-0.314786
-0.0113465
0.0838066
0.0942509
0.0841792
0.0679567
0.0494721
0.0301187
0.010392
-0.793673
-0.263738
0.016605
0.0914975
0.0960958
0.0845515
0.067854
0.0492585
0.0299123
0.0102987
-0.819205
-0.176207
0.075647
0.111491
0.101293
0.0856269
0.0679352
0.0490798
0.0297058
0.0102068
-0.81639
-0.92638
-0.976801
-0.999516
-0.966648
-0.936599
-0.884352
-0.844807
-0.803374
-0.774098
-0.815446
-0.92652
-0.973585
-0.992853
-0.954928
-0.920489
-0.871923
-0.823969
-0.797875
-0.759928
-0.8173
-0.928708
-0.973766
-0.989794
-0.951789
-0.913546
-0.874997
-0.824076
-0.812158
-0.782547
-0.823972
-0.936348
-0.981787
-0.994429
-0.961118
-0.920762
-0.892458
-0.853862
-0.851156
-0.848096
-0.836345
-0.950402
-0.997894
-1.00789
-0.98138
-0.941733
-0.921282
-0.901206
-0.910228
-0.942975
1.52647
1.51367
1.49298
1.46788
1.43946
1.4065
1.36809
1.32626
1.29053
1.2736
1.62054
1.62107
1.6141
1.60175
1.58541
1.56456
1.53867
1.50946
1.4846
1.47348
1.71084
1.71659
1.71693
1.71328
1.70661
1.69649
1.68227
1.665
1.65036
1.64443
1.78819
1.79842
1.80563
1.81015
1.81221
1.81122
1.80649
1.79868
1.79204
1.79057
1.85258
1.86633
1.87816
1.88808
1.89609
1.90162
1.90402
1.90364
1.90343
1.90549
1.899
1.91495
1.93046
1.94506
1.95832
1.96961
1.97821
1.98408
1.98909
1.99426
1.92823
1.94593
1.96392
1.98148
1.99796
2.01273
2.02507
2.03477
2.04308
2.05023
1.93809
1.95649
1.97577
1.99502
2.01339
2.03022
2.0448
2.05675
2.06693
2.07518
1.92848
1.94682
1.96628
1.98582
2.0045
2.02165
2.03656
2.04883
2.05926
2.06763
1.89888
1.91623
1.93468
1.95311
1.97057
1.98636
1.99979
2.01053
2.0196
2.02709
-0.687282
-0.740636
-0.810333
-0.896833
-1.00125
-1.12353
-1.26098
-1.40196
-1.51831
-1.57145
-0.457215
-0.515016
-0.587649
-0.675828
-0.78106
-0.904127
-1.04401
-1.19181
-1.31611
-1.3731
-0.186703
-0.248841
-0.324295
-0.413513
-0.518113
-0.639433
-0.77693
-0.922586
-1.05282
-1.11148
0.101893
0.036896
-0.0398605
-0.128545
-0.230619
-0.347606
-0.479273
-0.619338
-0.74385
-0.804797
0.38462
0.319384
0.244176
0.159032
0.0626267
-0.0467682
-0.169328
-0.299442
-0.414015
-0.472355
0.643379
0.58197
0.512304
0.434477
0.347169
0.24854
0.138268
0.0214476
-0.0807938
-0.133582
0.872692
0.818843
0.758175
0.69071
0.615027
0.529257
0.433079
0.331206
0.242596
0.196931
1.07992
1.03479
0.983926
0.927413
0.863641
0.790756
0.708557
0.621459
0.546312
0.508094
1.27328
1.23535
1.19149
1.1433
1.08939
1.02792
0.958702
0.885673
0.823374
0.792366
1.43805
1.40652
1.36771
1.32647
1.28219
1.23288
1.17782
1.11985
1.07077
1.0469
1.71761
1.58192
1.61602
1.59035
1.60178
1.62272
1.64119
1.67297
1.68226
1.63608
1.70094
1.58128
1.61493
1.59014
1.59981
1.62113
1.64088
1.67684
1.70107
1.69529
1.68578
1.57961
1.61281
1.58914
1.59727
1.61873
1.64013
1.68049
1.71856
1.75207
1.67205
1.57709
1.60984
1.58736
1.59413
1.61553
1.6381
1.68156
1.7313
1.79446
1.65959
1.57385
1.60617
1.58481
1.59038
1.61143
1.63467
1.68042
1.73913
1.82559
1.64824
1.57001
1.60191
1.5815
1.58598
1.60637
1.62985
1.67685
1.74212
1.84517
1.63786
1.56567
1.59717
1.57747
1.58092
1.60034
1.62357
1.67071
1.74003
1.85382
1.62835
1.56092
1.59205
1.57277
1.5752
1.59333
1.61579
1.66192
1.73264
1.85167
1.61961
1.55584
1.58662
1.56744
1.56882
1.58535
1.60645
1.6504
1.71983
1.83877
1.61156
1.5505
1.58097
1.56154
1.56179
1.5764
1.59553
1.63613
1.70149
1.81498
1.87616
1.58261
1.60567
1.58406
1.60025
1.6159
1.62451
1.63721
1.5857
1.55012
1.80495
1.57629
1.60577
1.58559
1.60064
1.61696
1.62539
1.63917
1.59119
1.54681
1.78357
1.58164
1.61102
1.58757
1.60149
1.61849
1.62797
1.6439
1.60416
1.54768
1.75829
1.58219
1.61399
1.58909
1.60216
1.62036
1.6323
1.65213
1.62387
1.55658
1.7363
1.58208
1.61575
1.58997
1.60251
1.62212
1.63669
1.66213
1.64955
1.57123
1.30465
1.19595
1.04972
0.858917
0.626637
0.363563
0.084379
-0.191803
-0.444272
-0.655457
1.29823
1.19271
1.05321
0.868516
0.642053
0.382711
0.103766
-0.175876
-0.434225
-0.651412
1.31129
1.20186
1.05941
0.876295
0.654094
0.397522
0.117911
-0.165191
-0.428462
-0.650448
1.35008
1.22571
1.07018
0.883695
0.663451
0.408098
0.126973
-0.159639
-0.427312
-0.653778
1.41232
1.26527
1.08732
0.891019
0.668736
0.413364
0.131357
-0.157984
-0.430152
-0.661959
)
;

boundaryField
{
    left
    {
        type            zeroGradient;
    }
    right
    {
        type            fixedValue;
        value           uniform 0;
    }
    down
    {
        type            zeroGradient;
    }
    up
    {
        type            zeroGradient;
    }
    cylinder
    {
        type            zeroGradient;
    }
    defaultFaces
    {
        type            empty;
    }
}


// ************************************************************************* //
