/*--------------------------------*- C++ -*----------------------------------*\
  =========                 |
  \\      /  F ield         | OpenFOAM: The Open Source CFD Toolbox
   \\    /   O peration     | Website:  https://openfoam.org
    \\  /    A nd           | Version:  13
     \\/     M anipulation  |
\*---------------------------------------------------------------------------*/
FoamFile
{
    format      ascii;
    class       volVectorField;
    location    "2.165";
    object      U;
}
// * * * * * * * * * * * * * * * * * * * * * * * * * * * * * * * * * * * * * //

dimensions      [0 1 -1 0 0 0 0];

internalField   nonuniform List<vector> 
440
(
(-0.122315 0.100353 -1.07077e-19)
(-0.117472 0.16105 9.3397e-20)
(0.203193 0.116964 -1.86456e-20)
(0.702456 0.0226971 2.73254e-19)
(1.28506 -0.13154 -4.7837e-21)
(-0.104374 0.0592982 4.49343e-20)
(0.174801 -0.000845915 -1.5848e-19)
(0.843802 -0.0917113 -1.08538e-19)
(1.49955 -0.163886 5.95094e-20)
(2.03423 -0.22562 -9.09274e-21)
(0.00959761 -0.00767632 7.00193e-20)
(0.752818 -0.0868334 9.4003e-19)
(1.58713 -0.116362 -5.98492e-19)
(2.12969 -0.119616 -1.98317e-18)
(2.42255 -0.124449 8.65603e-19)
(0.278522 -0.0574034 -1.90311e-19)
(1.39922 -0.0259387 -6.5321e-19)
(2.10987 0.00657811 2.23449e-18)
(2.40962 0.0246658 2.4088e-18)
(2.47532 0.0169361 -6.83738e-19)
(0.664347 -0.00161309 -3.47625e-19)
(1.85317 0.151845 -7.4019e-19)
(2.35101 0.207161 2.25646e-18)
(2.49281 0.208731 2.40979e-18)
(2.53792 0.193831 8.09008e-19)
(-0.0441056 0.262758 1.73247e-19)
(-0.165203 0.316731 8.61993e-20)
(-0.252634 0.236371 -2.45963e-19)
(-0.307027 0.140292 8.97447e-21)
(-0.319862 0.0643199 -2.55222e-19)
(-0.10352 0.406883 -3.1335e-20)
(-0.223431 0.518854 -3.07073e-19)
(-0.284468 0.401285 8.65139e-20)
(-0.300325 0.252352 8.42982e-20)
(-0.266456 0.123577 -1.38141e-19)
(-0.15586 0.441682 -3.66036e-19)
(-0.240042 0.655834 2.04467e-19)
(-0.21835 0.553425 -1.58068e-19)
(-0.160392 0.341765 -4.55527e-19)
(-0.0438115 0.121258 -3.66327e-21)
(-0.153474 0.312038 -2.66319e-20)
(-0.226908 0.587791 7.59054e-23)
(-0.161421 0.593268 6.38199e-20)
(-0.0551036 0.424392 3.49563e-19)
(0.251788 0.135378 -8.05945e-21)
(-0.1258 0.166441 -5.17836e-20)
(-0.204932 0.363085 -6.86894e-20)
(-0.0885983 0.401629 2.82624e-20)
(0.112634 0.294729 -1.00701e-19)
(0.672278 0.0632876 -1.82984e-21)
(-0.209961 -0.256036 -6.84681e-19)
(0.405538 -0.346288 3.75684e-20)
(0.741577 -0.205535 8.44299e-21)
(0.927417 -0.131294 -1.45298e-20)
(1.02151 -0.0602845 -4.82913e-21)
(0.0667142 -0.381076 1.55032e-18)
(0.482808 -0.486846 -9.90073e-20)
(0.786808 -0.282197 1.70311e-20)
(0.952021 -0.167045 1.89055e-20)
(1.03135 -0.0728664 1.09116e-20)
(0.613762 -0.508073 6.82575e-19)
(0.717462 -0.57922 7.17064e-19)
(0.883857 -0.34498 -1.78471e-20)
(0.994019 -0.196757 3.81936e-20)
(1.04554 -0.0829924 -3.42492e-21)
(1.2086 -0.599023 -4.09748e-19)
(1.09229 -0.613188 -2.81477e-19)
(1.04681 -0.375866 -3.93575e-20)
(1.06054 -0.213458 -4.28957e-20)
(1.06565 -0.088708 1.22635e-20)
(1.63542 -0.660335 -1.72925e-19)
(1.43891 -0.610135 -7.06705e-19)
(1.23666 -0.369223 0)
(1.14696 -0.209921 5.34335e-20)
(1.09231 -0.0876335 8.21512e-21)
(2.20214 -0.64598 -3.88994e-19)
(1.7777 -0.573059 2.19363e-19)
(1.43533 -0.333687 -7.83989e-21)
(1.24795 -0.179394 4.82641e-20)
(1.12691 -0.075032 -3.43435e-20)
(2.15226 -0.5561 5.09692e-20)
(1.58871 -0.391827 3.43952e-20)
(1.29257 -0.189448 -7.04341e-21)
(1.1845 -0.100928 -6.36998e-20)
(1.1064 -0.0464637 0)
(2.14359 -0.380945 -4.27468e-19)
(1.69387 -0.281453 1.53393e-20)
(1.37296 -0.150819 -8.00858e-20)
(1.22515 -0.0833393 2.28553e-20)
(1.11763 -0.0366074 -1.02857e-20)
(1.99812 -0.273209 3.56031e-20)
(1.54241 -0.155558 7.71048e-20)
(1.26325 -0.0377238 -1.99033e-20)
(1.1443 -0.0104145 -1.71612e-34)
(1.05911 -0.00767525 6.79813e-21)
(1.21378 -0.0639375 1.11625e-19)
(0.809441 -0.0164789 -1.06153e-21)
(0.710401 0.00412469 -2.55897e-21)
(0.70969 0.00332728 -5.08531e-21)
(0.696947 0.000372603 1.72243e-21)
(2.39034 0.179369 -1.00831e-18)
(2.56375 0.00360467 -1.2062e-18)
(2.37999 -0.0787049 9.51142e-19)
(2.59638 -0.23873 -1.20228e-20)
(2.13024 -0.217142 -4.49551e-20)
(2.21272 0.0841828 6.63305e-20)
(2.36208 0.0231268 -4.04786e-20)
(2.29678 -0.0986498 -1.2876e-19)
(2.38707 -0.191873 -1.74773e-19)
(2.30901 -0.297242 -5.35236e-21)
(2.17592 0.0337867 7.85279e-20)
(2.22246 0.0158113 1.00523e-19)
(2.25084 -0.100171 -1.31865e-19)
(2.24826 -0.138977 4.58808e-20)
(2.26062 -0.239864 2.90238e-20)
(2.0981 -0.00829202 1.22098e-19)
(2.10147 -0.0179654 1.36228e-19)
(2.16749 -0.0900207 -1.97691e-20)
(2.12723 -0.110634 -2.50144e-20)
(2.18297 -0.172999 2.66723e-20)
(1.59404 -0.0269821 1.79943e-19)
(1.56073 -0.0238973 -1.34604e-20)
(1.58126 -0.0444832 2.51192e-20)
(1.49839 -0.038228 -2.24114e-20)
(1.52775 -0.0659197 1.38832e-20)
(1.60938 0.934262 1.20994e-18)
(1.56867 1.02416 -3.54543e-19)
(1.57278 1.14721 -1.36906e-18)
(1.5073 1.17816 7.70505e-19)
(0.934798 0.84933 -1.89744e-19)
(1.90199 0.835017 -6.04813e-19)
(1.88224 0.919125 -3.24892e-18)
(1.88523 1.03042 -1.26397e-18)
(1.80036 1.03834 -4.32703e-19)
(1.10263 0.727088 -7.09262e-19)
(2.16204 0.725206 8.84909e-19)
(2.15283 0.789975 2.04339e-19)
(2.15332 0.87296 -2.51683e-18)
(2.02118 0.851128 -6.92645e-19)
(1.19201 0.56037 4.91596e-19)
(2.35518 0.567401 2.60377e-18)
(2.35598 0.61344 1.87623e-18)
(2.34093 0.668083 -2.12741e-18)
(2.13011 0.624741 -1.6518e-18)
(1.16676 0.362205 -2.92189e-19)
(2.46033 0.385008 1.25372e-18)
(2.4771 0.415803 -8.79863e-19)
(2.41927 0.435847 6.46105e-19)
(2.08611 0.379982 5.11302e-19)
(0.993338 0.1593 -4.48831e-19)
(0.548469 0.48733 -4.60253e-19)
(0.462489 0.52597 -3.38072e-19)
(0.350237 0.569227 3.38202e-20)
(0.220574 0.591212 8.49941e-21)
(0.0565869 0.435698 9.96692e-20)
(0.668803 0.676268 2.03655e-19)
(0.602734 0.741823 -2.05708e-19)
(0.516328 0.814628 1.92393e-19)
(0.39506 0.859138 -9.04536e-20)
(0.173625 0.643023 1.25303e-19)
(0.818035 0.830661 8.64141e-20)
(0.744196 0.90825 5.27858e-19)
(0.682657 1.00749 1.17443e-19)
(0.596066 1.06848 -3.28695e-19)
(0.327415 0.80143 2.74465e-19)
(1.08177 0.952904 3.24424e-19)
(1.03301 1.04514 -8.72435e-19)
(0.978345 1.1432 -2.18429e-18)
(0.890574 1.19444 8.63722e-19)
(0.527287 0.888245 -1.81286e-19)
(1.2243 0.946213 -1.50809e-19)
(1.2402 1.07113 -2.2964e-19)
(1.25428 1.194 -3.68787e-19)
(1.19773 1.23908 -4.31132e-19)
(0.737983 0.908729 -7.01197e-21)
(0.910344 0.0270404 -1.10823e-19)
(1.08503 0.0613234 -4.02318e-20)
(0.986902 0.136133 -2.36294e-21)
(0.95342 0.167336 -3.72275e-19)
(0.855333 0.297188 2.80059e-19)
(0.910221 0.0215312 7.60502e-20)
(1.08648 0.0629542 1.3846e-19)
(0.993447 0.143414 1.3348e-19)
(0.975708 0.201789 5.35917e-20)
(0.930163 0.376994 -4.07915e-20)
(0.912336 0.0170762 1.04201e-19)
(1.0823 0.0617835 -4.90884e-21)
(1.02169 0.156924 -4.86281e-21)
(0.953882 0.210839 1.79705e-19)
(1.15018 0.511114 -4.85627e-19)
(0.912949 0.0129187 -1.68229e-21)
(1.08566 0.0602459 -1.7692e-19)
(1.02573 0.169088 -6.92264e-20)
(1.02741 0.217662 -4.44366e-19)
(1.19689 0.541079 1.2804e-19)
(0.91223 0.00930626 -2.30265e-20)
(1.08621 0.061271 4.66954e-20)
(1.05662 0.173607 3.34679e-20)
(1.01278 0.240181 4.91074e-19)
(1.46206 0.690173 -4.60235e-19)
(0.897503 0.00528691 -1.82957e-20)
(1.11486 0.0499063 8.89637e-20)
(1.04443 0.190257 -9.46915e-20)
(1.1707 0.172905 8.7921e-19)
(1.41251 0.64497 -4.46779e-19)
(0.896203 -0.0107537 -2.31166e-21)
(1.12294 0.0409059 -8.29329e-20)
(1.06108 0.143255 5.01905e-21)
(1.26475 0.141373 -2.77783e-19)
(1.43424 0.45748 1.45436e-20)
(0.900119 -0.0167123 -7.89405e-21)
(1.11731 0.0282861 1.28763e-35)
(1.11493 0.103871 -4.6418e-20)
(1.28879 0.0854794 8.88972e-20)
(1.43078 0.335572 1.63982e-19)
(0.907524 -0.0408933 5.35504e-21)
(1.08787 -0.00633516 -2.27623e-20)
(1.15224 0.042029 1.90424e-20)
(1.23464 0.0577247 3.49743e-20)
(1.47159 0.209627 -2.4892e-19)
(0.860802 -0.0236479 -3.49836e-20)
(0.900245 -0.020195 -2.56082e-21)
(0.889162 0.00612739 2.86358e-20)
(0.931413 0.00961636 -1.56004e-20)
(1.18972 0.0604577 -5.68981e-20)
(1.83328 0.777114 3.75654e-19)
(1.93335 0.683902 8.99591e-19)
(2.17891 0.617051 -1.23544e-18)
(2.23873 0.472091 8.70794e-20)
(2.44002 0.320469 4.87784e-19)
(1.73461 0.530502 1.30547e-20)
(1.81044 0.421449 9.82149e-19)
(1.97851 0.42518 9.13705e-20)
(2.04421 0.265754 -9.8488e-19)
(2.21549 0.232847 -3.11237e-19)
(1.70013 0.354066 -2.08707e-19)
(1.80962 0.269684 -1.56517e-19)
(1.91627 0.277028 2.02254e-19)
(2.02396 0.16306 -3.18038e-19)
(2.10866 0.157316 2.8086e-19)
(1.70491 0.204612 3.54259e-19)
(1.79914 0.150215 -4.30136e-21)
(1.8768 0.147104 2.39154e-19)
(1.97221 0.076542 2.05927e-19)
(2.01925 0.0675155 -1.94784e-19)
(1.40484 0.0446397 -4.27965e-20)
(1.46709 0.0249836 2.42796e-19)
(1.51966 0.0173741 1.13627e-19)
(1.56016 -0.00378173 -2.32537e-19)
(1.57213 -0.00731449 5.8272e-22)
(1.08215 -0.0218479 5.07824e-20)
(2.07118 -0.0520411 -3.6515e-19)
(2.30932 -0.0410998 1.00398e-18)
(2.29445 0.000298712 4.33949e-19)
(2.16277 0.0300596 -2.98291e-19)
(0.6536 0.0861675 8.24861e-20)
(1.84895 0.0685877 -3.67644e-19)
(2.31927 0.0678549 -4.70523e-19)
(2.40718 0.0788522 5.29324e-19)
(2.14312 0.0689672 -2.83866e-19)
(0.175976 0.0630101 -2.77449e-20)
(1.1935 0.118863 3.88398e-19)
(1.95409 0.132015 5.45112e-20)
(2.34731 0.114154 1.8612e-19)
(2.59425 0.116786 3.43466e-20)
(-0.0544407 -0.0271306 1.96014e-19)
(0.385115 0.0583674 1.95586e-19)
(1.14122 0.112193 -3.65376e-19)
(1.64447 0.1349 7.37825e-21)
(2.22662 0.146893 -2.42766e-19)
(-0.080134 -0.0506924 1.04592e-19)
(-0.0284428 -0.0454445 -1.72368e-19)
(0.359506 -0.00626723 -4.56384e-20)
(0.778531 -0.0216107 -6.96293e-20)
(1.1456 -0.0058556 -1.07389e-19)
(-0.0501103 -0.0624252 -1.00265e-19)
(-0.118291 -0.200153 1.12423e-19)
(-0.0298798 -0.272355 7.70891e-21)
(0.0889396 -0.299545 5.04796e-20)
(0.410569 -0.262984 -2.26552e-20)
(-0.0839477 -0.178412 1.03531e-20)
(-0.151322 -0.394912 4.58279e-20)
(-0.131949 -0.431304 4.85697e-20)
(-0.0735755 -0.361057 6.5675e-20)
(0.0605912 -0.245966 2.65146e-20)
(-0.0899005 -0.195004 -1.07011e-20)
(-0.201594 -0.295326 -3.6377e-19)
(-0.254082 -0.236106 2.96581e-19)
(-0.272451 -0.16141 6.3437e-19)
(-0.24926 -0.113069 -3.71883e-20)
(-0.0377702 -0.0525085 2.07124e-20)
(-0.164373 -0.106916 1.07266e-19)
(-0.254847 -0.115867 -2.32317e-19)
(-0.30693 -0.100232 -1.19075e-19)
(-0.32053 -0.0849808 -2.08892e-20)
(-0.0160571 0.104501 -7.46525e-21)
(-0.125222 0.110416 2.57688e-20)
(-0.216947 0.0728561 -1.10207e-20)
(-0.28088 0.0334271 3.41591e-20)
(-0.303869 0.000619581 9.4413e-21)
(1.47653 0.252131 -2.95516e-20)
(1.28923 0.117048 8.68337e-19)
(1.01262 0.0925729 -4.91484e-20)
(0.962387 0.0578873 2.49137e-20)
(1.01278 0.0148714 -6.02498e-22)
(0.768347 0.196153 9.43579e-20)
(0.645894 0.178158 -4.2766e-19)
(0.762382 0.0886678 -1.36808e-19)
(0.903122 0.0147219 -6.45352e-22)
(1.00948 -0.00726659 -5.30395e-21)
(0.00252184 0.0977594 3.50614e-19)
(0.377994 0.0900808 -7.897e-19)
(0.701084 0.0202784 1.37152e-20)
(0.896901 -0.0114344 6.04036e-22)
(1.00774 -0.0146014 4.79772e-21)
(-0.235021 -0.016222 -5.65428e-20)
(0.3734 -0.0474341 3.30944e-19)
(0.705363 -0.0579276 3.47037e-20)
(0.901068 -0.0591259 -7.76863e-22)
(1.01016 -0.0333467 3.52608e-22)
(-0.248462 -0.131864 1.68856e-20)
(0.393699 -0.193457 1.78718e-19)
(0.722146 -0.129333 -1.29688e-20)
(0.912818 -0.0931517 4.40158e-21)
(1.01478 -0.0460787 -9.55034e-22)
(0.614559 0.0956393 -4.30184e-20)
(0.332339 -0.0814941 0)
(0.400643 -0.0836408 -2.6528e-20)
(0.530595 -0.0496616 4.89207e-20)
(0.600702 -0.0147402 -3.3487e-21)
(1.96925 0.39457 0)
(1.82922 0.169522 0)
(1.42955 0.0145186 2.69857e-19)
(1.13859 -0.00382454 2.34845e-20)
(1.03048 -0.00148063 4.14116e-21)
(0.677047 0.000458629 -1.13937e-19)
(0.755824 -0.00866985 1.52251e-19)
(0.938487 -0.00444447 -1.6307e-20)
(1.06237 -0.0174447 2.36178e-19)
(1.42314 0.037945 1.62809e-19)
(1.55666 0.0181082 1.07643e-19)
(1.71271 0.0665489 1.64378e-19)
(1.92356 -0.00464284 4.26077e-20)
(2.52871 0.147049 -1.72697e-19)
(2.13415 0.000629393 -8.56671e-20)
(0.847067 -0.406199 -3.42837e-20)
(0.822353 -0.486826 -1.27779e-19)
(0.807842 -0.57801 -7.78664e-20)
(0.734613 -0.641476 4.67878e-20)
(0.43685 -0.498174 1.07273e-19)
(0.742639 -0.3158 1.17875e-19)
(0.689332 -0.373618 2.6192e-19)
(0.6141 -0.434649 -1.51765e-20)
(0.496738 -0.48243 1.09686e-19)
(0.260136 -0.377861 4.58871e-20)
(0.587946 -0.181351 -1.44247e-19)
(0.499377 -0.21343 -3.78421e-20)
(0.398844 -0.256167 1.2294e-19)
(0.287855 -0.294059 -6.06305e-21)
(0.121552 -0.232362 -8.81001e-20)
(0.510865 0.0521707 -3.90404e-19)
(0.430412 0.0430153 -3.35695e-19)
(0.325979 0.0213018 2.68426e-19)
(0.20378 -0.0143424 1.85128e-19)
(0.0494108 -0.0346837 1.36285e-20)
(0.501178 0.24381 -1.75071e-19)
(0.420602 0.255866 -1.70567e-19)
(0.310934 0.268928 -8.98063e-20)
(0.179024 0.279378 9.49168e-22)
(0.0230309 0.206588 9.5706e-21)
(1.92372 -0.0341056 6.61085e-19)
(2.17129 -0.0990906 2.18437e-19)
(2.22719 -0.177063 -6.06289e-19)
(2.0726 -0.206417 -1.26232e-18)
(1.23238 -0.174917 1.05301e-19)
(1.89248 -0.106409 1.14621e-18)
(1.9711 -0.208798 1.52743e-18)
(1.98011 -0.324645 1.29251e-19)
(1.89356 -0.384088 2.28139e-19)
(1.20199 -0.332032 -1.50168e-19)
(1.62809 -0.253551 -2.9457e-18)
(1.67384 -0.364604 3.16744e-19)
(1.70234 -0.480398 9.31908e-19)
(1.63374 -0.552102 -3.45431e-19)
(1.05062 -0.462267 5.49889e-19)
(1.40203 -0.36545 6.89664e-19)
(1.41382 -0.454802 -1.82919e-18)
(1.39915 -0.563839 -2.07066e-18)
(1.32602 -0.64494 6.26335e-19)
(0.846727 -0.526803 4.46197e-19)
(1.14427 -0.410299 1.24979e-19)
(1.09552 -0.495979 2.10366e-19)
(1.06949 -0.60465 -3.07883e-19)
(1.00257 -0.681174 -3.7502e-19)
(0.626526 -0.537561 -3.44334e-21)
(0.923947 0.0455923 5.81093e-21)
(1.06382 0.0686285 -5.13584e-21)
(1.01113 0.0479152 -1.98034e-20)
(0.789947 0.0113602 -1.41163e-19)
(1.05843 -0.154491 -6.61795e-21)
(0.92414 0.0462935 -2.7481e-21)
(1.06334 0.0681803 5.36148e-20)
(1.02275 0.0799273 -7.65511e-20)
(0.842431 0.0394893 4.63909e-20)
(0.918542 -0.051792 -2.23429e-20)
(0.922659 0.0413067 -5.96281e-20)
(1.06082 0.0654745 5.58775e-22)
(1.02692 0.0946663 -2.58775e-20)
(0.844111 0.0743063 -4.10336e-20)
(0.889656 0.000143127 -1.07392e-19)
(0.917579 0.03744 8.18221e-20)
(1.07059 0.0611211 4.02292e-21)
(1.00366 0.114602 3.94582e-20)
(0.900922 0.0995428 7.51714e-20)
(0.803789 0.110666 1.22085e-19)
(0.912857 0.0323372 2.01559e-20)
(1.07997 0.0611288 -3.47043e-20)
(0.988367 0.124359 4.88252e-20)
(0.936525 0.139901 1.00728e-19)
(0.793685 0.194124 -1.33576e-19)
(0.842257 0.0330619 0)
(0.775648 0.028461 1.01531e-20)
(0.577196 0.0152024 -1.20629e-21)
(0.544107 -0.0104789 3.84414e-20)
(0.664974 -0.0370506 -1.12123e-19)
(0.917798 0.0649623 -5.76291e-20)
(1.05241 0.0765415 -1.96258e-20)
(0.913754 0.0357132 -1.14979e-20)
(0.898642 0.00560285 -7.50188e-20)
(0.933727 -0.152994 -1.1415e-19)
(0.938335 -0.0390666 -2.27754e-20)
(1.00963 -0.00747351 4.18729e-19)
(1.07839 0.0521516 2.61388e-19)
(0.929421 0.0571391 3.14828e-20)
(0.716524 0.0272439 0)
(1.21519 -0.279979 2.44951e-19)
(1.32968 -0.247747 1.22339e-18)
(1.50964 -0.134555 -1.3637e-18)
(1.5882 -0.0113485 -4.1908e-19)
(1.50321 0.0303933 3.10481e-19)
)
;

boundaryField
{
    left
    {
        type            fixedValue;
        value           uniform (1 0 0);
    }
    right
    {
        type            zeroGradient;
    }
    down
    {
        type            noSlip;
    }
    up
    {
        type            noSlip;
    }
    cylinder
    {
        type            noSlip;
    }
    defaultFaces
    {
        type            empty;
    }
}


// ************************************************************************* //
