/*--------------------------------*- C++ -*----------------------------------*\
  =========                 |
  \\      /  F ield         | OpenFOAM: The Open Source CFD Toolbox
   \\    /   O peration     | Website:  https://openfoam.org
    \\  /    A nd           | Version:  13
     \\/     M anipulation  |
\*---------------------------------------------------------------------------*/
FoamFile
{
    format      ascii;
    class       volScalarField;
    location    "0.625";
    object      strainRateViscosityModel:nu;
}
// * * * * * * * * * * * * * * * * * * * * * * * * * * * * * * * * * * * * * //

dimensions      [0 2 -1 0 0 0 0];

internalField   nonuniform List<scalar> 
440
(
9.41956
8.96971
8.54447
8.04235
7.58623
9.68996
9.35816
8.98175
8.48002
7.87556
9.80074
9.53084
9.15876
8.58508
7.84825
9.84962
9.61817
9.25861
8.64755
7.86606
9.86917
9.65607
9.30591
8.68094
7.90878
1.30459
1.79085
2.05053
2.30084
2.36486
3.3838
3.30279
3.31801
3.42682
3.49756
5.89214
5.27166
4.92869
4.72927
4.75912
7.76969
6.99347
6.42049
5.90529
5.8279
8.82072
8.15134
7.55205
6.91828
6.87179
1.85223
0.845771
0.413532
0.146818
0.115715
2.61835
0.911698
0.36212
0.107146
0.0241764
3.5143
1.15257
0.303034
0.0658002
0.011933
4.09272
1.44011
0.277835
0.0412024
0.0191648
4.60487
1.7574
0.325934
0.0121333
0.095599
4.23009
1.7427
0.291785
0.0532349
0.271963
3.71063
1.82304
0.618663
0.317622
0.424396
4.91897
3.2088
1.23512
0.556906
0.558926
7.00945
4.28948
1.91444
0.902878
0.690764
8.27283
5.07741
2.49588
1.31005
0.870266
2.84832
3.68271
4.61992
5.50591
6.1493
3.68372
3.69654
3.77206
3.85199
3.36775
8.22653
8.08656
7.79931
7.38537
6.34624
9.05291
8.99237
8.85905
8.6215
8.16018
9.60671
9.56995
9.48702
9.33805
9.1188
7.50332
8.01244
8.55942
9.01087
9.46421
7.794
8.45162
8.98711
9.37787
9.70864
7.77898
8.55903
9.15941
9.54077
9.80944
7.81627
8.62755
9.25739
9.62275
9.85359
7.89134
8.67366
9.30535
9.65743
9.87034
2.52785
2.46896
2.26922
2.11512
2.04371
3.47861
3.43046
3.47047
3.68969
4.24078
4.63738
4.66022
5.04967
5.59837
6.44933
5.68518
5.8269
6.49785
7.18786
8.0408
6.75382
6.8421
7.58051
8.24277
8.93543
0.202606
0.0573485
0.273883
0.859343
2.02167
0.170575
0.0731839
0.219501
0.880599
2.65928
0.149284
0.0788439
0.167587
1.08044
3.44308
0.138317
0.0682488
0.159886
1.3903
3.94525
0.145384
0.0762435
0.255819
1.73924
4.36696
0.19958
0.114233
0.269381
1.87131
4.10265
0.330721
0.132796
0.266278
1.80515
3.86039
0.660492
0.260209
0.777281
3.03585
4.90731
2.2729
0.820975
1.5109
4.16208
6.96072
5.05591
2.54218
2.42381
5.0387
8.27908
5.94769
5.26661
4.40267
3.51059
2.77991
3.52188
3.99068
3.97065
3.87618
3.7636
6.32089
7.35232
7.77907
8.06775
8.21851
8.12128
8.59997
8.84947
8.98863
9.05204
9.11692
9.3378
9.4874
9.57051
9.60696
9.31084
7.9168
1.39863
3.63014
7.73675
9.08182
7.44074
3.20592
1.64072
6.78899
8.39864
6.57764
4.20844
1.00353
4.14768
6.81558
5.09469
3.45526
1.70054
1.03874
4.50373
3.14532
2.03882
1.37784
0.459882
2.59706
1.6187
1.0024
0.796676
0.926294
1.45586
0.778955
0.579313
0.612363
0.685154
0.80153
0.405346
0.589446
0.758174
0.831491
0.305995
0.506268
0.884093
1.04945
1.1109
0.161527
0.934733
1.28045
1.51648
1.57083
0.19032
0.361636
0.706172
0.773093
0.732197
0.3953
0.499285
0.574934
0.631102
0.617358
0.613137
0.645304
0.460648
0.485678
0.498408
0.964664
0.793202
0.412801
0.344247
0.37195
1.33002
0.843664
0.417497
0.222842
0.253589
1.10547
0.857024
1.11962
1.10649
1.00541
0.28403
0.470976
0.862059
0.9172
0.850085
9.19114
8.83861
7.75874
5.73012
3.55956
8.58725
7.72285
5.85153
3.4915
0.866162
0.96493
0.858829
1.02718
1.62019
2.65817
0.814062
0.768222
0.704647
0.824797
1.52602
1.05976
1.01103
0.847869
0.553327
0.742842
1.38233
1.34525
1.14743
0.796404
0.227426
1.85144
1.8048
1.55308
1.23584
0.597226
7.73628
3.62707
1.39993
7.91504
9.31099
6.78516
1.64048
3.20262
7.43764
9.08246
4.13412
1.01087
4.19432
6.57303
8.4002
1.03661
1.7056
3.43359
5.08551
6.82205
0.47629
1.37648
2.01476
3.12746
4.52658
1.31041
0.546137
0.550961
0.45453
0.176316
0.675662
0.295924
0.46738
0.520547
0.486776
0.396022
0.163106
0.379331
0.621272
0.80463
0.28694
0.0728082
0.338963
0.770831
1.22172
0.24242
0.0421144
0.316006
0.851026
1.58375
5.48083
2.46121
1.03704
0.964032
1.14186
2.88694
1.08956
0.725342
0.55738
0.25167
3.56831
5.73575
7.75993
8.83914
9.19129
0.843237
3.47192
5.84489
7.72147
8.5871
)
;

boundaryField
{
    left
    {
        type            calculated;
        value           nonuniform List<scalar> 
17
(
0.45086
1.11566
2.18281
3.91035
6.58022
0.30094
0.18612
0.136592
0.141517
0.210187
2.95868
2.06007
1.33342
0.812525
0.494782
6.97865
4.57958
)
;
    }
    right
    {
        type            calculated;
        value           nonuniform List<scalar> 
17
(
1.00572
0.85156
0.734284
0.620086
0.500571
0.371254
0.24722
0.105091
0.0196533
0.0113467
0.0231454
0.127295
0.333905
0.481035
0.595559
0.705341
0.861945
)
;
    }
    down
    {
        type            calculated;
        value           nonuniform List<scalar> 
20
(
5.99476
2.99986
1.14649
1.04661
1.8529
4.27034
6.3838
8.13138
9.01577
9.30924
9.30907
9.01513
8.12989
6.37973
4.26401
1.83154
0.931725
1.18607
1.16351
1.05304
)
;
    }
    up
    {
        type            calculated;
        value           nonuniform List<scalar> 
20
(
8.54861
5.40531
2.72534
1.4585
0.934925
9.69562
9.66615
9.59857
9.47421
9.29339
9.29638
9.47645
9.60017
9.66725
9.69603
5.70395
3.15125
2.66373
5.39441
8.56545
)
;
    }
    cylinder
    {
        type            calculated;
        value           nonuniform List<scalar> 
40
(
1.36944
3.58846
6.11857
7.96051
8.95713
9.50514
9.74577
9.84079
9.88145
9.89745
9.54747
9.76284
9.84855
9.88496
9.89848
2.28158
4.51801
6.69611
8.23383
9.06993
3.04374
1.85002
1.09232
0.443571
0.605043
9.51903
9.33186
8.74227
7.26967
4.98611
9.51886
9.33112
8.74022
7.26145
4.95751
2.96559
1.73265
1.07362
0.668598
0.104143
)
;
    }
    defaultFaces
    {
        type            empty;
    }
}


// ************************************************************************* //
