/*--------------------------------*- C++ -*----------------------------------*\
  =========                 |
  \\      /  F ield         | OpenFOAM: The Open Source CFD Toolbox
   \\    /   O peration     | Website:  https://openfoam.org
    \\  /    A nd           | Version:  13
     \\/     M anipulation  |
\*---------------------------------------------------------------------------*/
FoamFile
{
    format      ascii;
    class       volScalarField;
    location    "0.86";
    object      p;
}
// * * * * * * * * * * * * * * * * * * * * * * * * * * * * * * * * * * * * * //

dimensions      [0 2 -2 0 0 0 0];

internalField   nonuniform List<scalar> 
440
(
7.82704
10.5834
12.9459
13.1274
10.1511
20.717
24.1003
27.0957
27.7961
25.908
41.2536
44.2849
46.9879
47.7805
46.6195
67.3864
69.4842
71.3976
72.0542
71.3667
96.6626
97.4796
98.2766
98.6767
98.6431
-0.451155
-0.551193
-0.0796773
0.481659
0.824787
-1.67399
-2.34131
-2.08271
-1.38788
-0.750332
-2.01796
-2.90107
-2.82583
-2.07354
-0.95711
-0.677826
-0.811049
-0.40779
0.553917
2.41736
3.08468
4.39593
5.82456
7.2549
9.50358
2.08674
2.26654
1.33507
0.679914
0.238213
1.06058
2.08075
1.21762
0.621173
0.233224
-0.0920666
1.67034
1.0888
0.575493
0.225777
-0.403741
1.06517
0.879308
0.543021
0.213525
1.50226
0.474319
0.595451
0.485647
0.189035
4.37207
0.245667
0.343421
0.413322
0.144624
6.71829
0.70999
0.446077
0.408379
0.0812252
9.98279
2.44764
1.09024
0.540892
0.0477752
13.8711
4.74627
2.1341
0.822757
0.0582869
16.607
7.10748
3.4541
1.31161
0.163806
100.687
75.8385
53.3227
33.1476
12.3445
102.382
78.9411
57.5361
39.0561
23.4822
104.284
82.7007
62.4738
45.2337
32.8871
105.166
85.0197
66.5014
51.1821
40.6556
105.085
84.7422
66.3273
51.2497
40.8951
219.867
216.385
216.089
218.204
220.937
202.688
200.22
200.478
203.219
206.511
180.539
178.766
179.129
181.552
184.43
154.74
153.397
153.602
155.196
157.092
126.86
126.146
126.085
126.545
127.138
235.596
236.028
236.67
237.1
236.848
236.156
236.795
237.355
237.336
236.385
234.934
235.91
236.326
236.054
235.067
230.046
231.644
232.205
232.34
232.248
221.565
223.426
224.435
225.642
226.996
235.712
234.73
234.894
234.145
234.279
235.677
234.714
234.841
234.098
234.798
235.664
234.672
234.776
234.206
235.306
235.666
234.605
234.766
234.456
234.892
235.672
234.517
234.833
234.654
232.207
235.688
234.37
234.88
234.428
228.724
235.887
234.23
234.769
233.929
226.353
236.796
234
234.143
232.247
223.332
240.845
233.977
232.966
229.791
219.661
249.817
234.705
231.744
227.247
216.911
217.76
196.234
175.026
151.732
126.445
207.364
191.368
172.323
150.42
126.65
198.875
186.195
168.613
148.086
126.332
191.743
180.783
165.098
146.26
125.919
191.526
180.764
165.353
146.66
126.149
96.3943
95.5175
95.0698
94.3029
94.1463
57.3122
55.3653
53.6599
51.7381
50.9721
29.4813
27.138
24.3752
22.0761
20.7515
15.0291
12.6125
10.147
8.1267
7.15612
9.19941
7.31163
5.92482
4.94951
4.36231
5.96889
4.86691
4.28738
4.19893
4.28726
4.05982
3.60063
3.52896
3.68498
3.83874
2.75021
2.73722
2.97165
3.27564
3.4342
1.64996
1.95473
2.40703
2.75808
2.90293
0.605485
1.00173
1.57473
1.97738
2.15198
3.60844
3.17544
2.06208
0.951543
0.26984
3.66196
3.00358
1.96988
0.895714
0.259339
3.4622
2.7409
1.84078
0.844815
0.251905
3.14168
2.49672
1.67772
0.793901
0.247345
2.72689
2.35089
1.49469
0.738754
0.243026
4.47585
3.15801
1.97512
0.996591
0.306034
3.73949
3.25341
2.06415
0.9883
0.284266
94.9018
54.1422
27.5042
14.4804
9.45998
93.6806
51.1328
22.9807
9.46462
5.2542
232.144
232.225
232.175
231.658
230.58
232.731
232.905
233.134
233.172
232.796
233.295
233.467
233.855
234.252
234.423
233.897
234.049
234.453
235.058
235.478
234.646
234.883
235.389
236.005
236.266
141.979
141.787
140.959
140.448
139.537
185.214
184.405
182.426
180.66
178.682
215.514
214.144
211.794
208.98
206.606
229.151
228.144
226.093
223.595
221.15
232
231.385
230.413
229.03
227.131
238.821
234.445
234.526
233.514
232.897
237.116
234.488
234.615
233.682
232.914
236.348
234.578
234.719
233.905
233.245
235.974
234.66
234.823
234.109
233.626
235.793
234.714
234.89
234.196
233.945
252.263
235.785
234.882
233.451
231.98
243.169
234.691
234.464
233.394
232.701
226.936
221.863
208.755
182.037
141.228
231.134
226.891
213.308
185.061
142.452
)
;

boundaryField
{
    left
    {
        type            zeroGradient;
    }
    right
    {
        type            fixedValue;
        value           uniform 0;
    }
    down
    {
        type            zeroGradient;
    }
    up
    {
        type            zeroGradient;
    }
    cylinder
    {
        type            zeroGradient;
    }
    defaultFaces
    {
        type            empty;
    }
}


// ************************************************************************* //
