/*--------------------------------*- C++ -*----------------------------------*\
  =========                 |
  \\      /  F ield         | OpenFOAM: The Open Source CFD Toolbox
   \\    /   O peration     | Website:  https://openfoam.org
    \\  /    A nd           | Version:  13
     \\/     M anipulation  |
\*---------------------------------------------------------------------------*/
FoamFile
{
    format      ascii;
    class       volVectorField;
    location    "0.86";
    object      U;
}
// * * * * * * * * * * * * * * * * * * * * * * * * * * * * * * * * * * * * * //

dimensions      [0 1 -1 0 0 0 0];

internalField   nonuniform List<vector> 
440
(
(0.218255 -0.17669 -1.81142e-19)
(0.613075 -0.436651 1.07864e-18)
(0.984293 -0.640904 4.23077e-19)
(1.32755 -0.795401 1.2433e-18)
(1.63259 -0.916783 -2.59968e-19)
(0.30489 -0.177682 -5.44456e-19)
(0.81913 -0.428696 -1.01955e-18)
(1.27997 -0.618898 1.14525e-19)
(1.6919 -0.76164 -1.21509e-18)
(2.05375 -0.875125 -1.02099e-18)
(0.384877 -0.152406 -6.98056e-19)
(1.00468 -0.363013 1.58977e-18)
(1.53975 -0.518384 -1.93457e-18)
(2.00471 -0.632634 1.37975e-18)
(2.40594 -0.721482 1.42955e-18)
(0.445865 -0.102745 5.62386e-19)
(1.14609 -0.243083 -1.29949e-18)
(1.73743 -0.344811 -7.50801e-19)
(2.24293 -0.418222 1.96646e-18)
(2.67445 -0.474466 2.50023e-18)
(0.479253 -0.0361581 6.86899e-19)
(1.22363 -0.0847541 1.69138e-19)
(1.84589 -0.119363 2.53129e-18)
(2.37401 -0.143865 -1.062e-18)
(2.82294 -0.162496 -4.83732e-19)
(-0.00093643 -0.0518781 2.72977e-19)
(0.0499752 -0.144854 -3.83989e-19)
(0.105883 -0.223091 1.11093e-18)
(0.171392 -0.293049 -1.77066e-19)
(0.239535 -0.354732 -1.60374e-18)
(0.0137152 -0.08441 -2.63512e-19)
(0.0892531 -0.228108 -4.29892e-19)
(0.174027 -0.350639 1.10084e-19)
(0.268273 -0.450695 5.94744e-20)
(0.364509 -0.530897 -3.55884e-20)
(0.0433463 -0.114282 7.04024e-20)
(0.165446 -0.303259 5.31494e-19)
(0.296128 -0.467582 9.50862e-20)
(0.432808 -0.599151 1.45554e-18)
(0.567853 -0.697795 -2.49441e-20)
(0.0866157 -0.140988 6.69812e-20)
(0.276365 -0.36783 -3.5531e-20)
(0.469488 -0.563057 2.18467e-19)
(0.661409 -0.718628 -2.03289e-18)
(0.844129 -0.830615 9.5651e-19)
(0.142117 -0.161713 -2.35658e-19)
(0.420076 -0.41284 -4.42329e-19)
(0.691403 -0.621477 -7.69772e-19)
(0.95016 -0.782443 9.52629e-19)
(1.18524 -0.892904 3.45127e-18)
(0.592491 -0.592843 -4.0258e-18)
(0.962734 -0.518423 9.80045e-19)
(1.29641 -0.214368 3.66754e-19)
(1.50031 -0.0337161 -5.78515e-19)
(1.57357 0.00213456 -5.69149e-20)
(0.78514 -0.744314 4.83087e-18)
(1.0431 -0.625342 -3.07208e-19)
(1.31959 -0.288105 -1.43887e-19)
(1.54222 -0.080762 3.85818e-19)
(1.68283 -0.0157048 1.23968e-19)
(1.03633 -0.878749 1.5473e-18)
(1.17756 -0.711405 4.05093e-18)
(1.34102 -0.360084 6.89686e-20)
(1.54825 -0.131977 3.65246e-19)
(1.72225 -0.0453763 -5.01848e-20)
(1.33058 -0.989147 1.21659e-18)
(1.35879 -0.7725 -4.22205e-19)
(1.38526 -0.421973 -7.69245e-19)
(1.53289 -0.176985 -2.9056e-19)
(1.65564 -0.0711306 1.0939e-19)
(1.62994 -1.04778 5.54133e-21)
(1.55538 -0.811909 -1.72273e-18)
(1.44841 -0.470321 0)
(1.49756 -0.228853 3.30025e-19)
(1.52449 -0.0846492 8.79044e-20)
(2.1564 -1.11557 -1.57985e-18)
(1.83413 -0.801011 -4.90387e-19)
(1.55946 -0.457428 -9.47147e-21)
(1.38126 -0.216949 7.85956e-20)
(1.33373 -0.0809017 -2.76073e-19)
(2.6325 -0.889972 -1.61184e-18)
(1.8991 -0.59117 2.98047e-18)
(1.43161 -0.320408 6.70123e-21)
(1.14996 -0.15645 2.18314e-19)
(1.06886 -0.0596287 0)
(2.47848 -0.522944 -6.92638e-18)
(1.60493 -0.339034 -1.48962e-19)
(1.14903 -0.179307 1.96725e-18)
(0.888804 -0.0925654 -3.36768e-19)
(0.788575 -0.0373898 -2.86043e-20)
(1.76237 -0.220013 6.83499e-18)
(1.0885 -0.135708 1.24296e-18)
(0.752172 -0.0678712 2.23769e-19)
(0.57098 -0.0366056 2.95486e-33)
(0.487883 -0.0162794 -7.23973e-20)
(0.683164 0.000174045 1.55187e-18)
(0.395188 0.0235656 7.12321e-19)
(0.26772 0.0240817 -5.17225e-19)
(0.205501 0.0152678 2.29071e-19)
(0.172049 0.00610292 -8.14753e-20)
(3.58188 -0.168161 1.25619e-17)
(3.41717 -0.502946 -1.04437e-17)
(3.13669 -0.787012 7.10861e-18)
(2.78063 -0.996129 2.3211e-18)
(2.33318 -1.10187 -4.14173e-19)
(3.78451 -0.10359 1.03946e-17)
(3.71745 -0.324464 -6.6389e-19)
(3.5777 -0.551829 -4.26983e-18)
(3.37825 -0.785774 2.68956e-18)
(3.10029 -1.01981 -6.62786e-19)
(3.11483 -0.0605695 3.65447e-18)
(3.09865 -0.181683 -2.51885e-18)
(3.0596 -0.309669 5.01277e-18)
(2.99889 -0.444869 -1.52976e-19)
(2.9243 -0.593648 -4.79038e-18)
(2.19087 -0.0276239 2.78879e-18)
(2.18384 -0.0833665 8.43053e-18)
(2.16463 -0.144 -6.53263e-19)
(2.13408 -0.207274 -6.60888e-18)
(2.11306 -0.269436 1.94587e-18)
(0.879441 -0.00184239 5.21228e-18)
(0.876492 -0.00523858 -1.16441e-19)
(0.867374 -0.00956714 -4.25739e-20)
(0.850513 -0.0162531 -2.00946e-18)
(0.841162 -0.0229044 -3.60556e-18)
(1.65318 0.940151 2.27742e-18)
(1.34832 0.816735 -7.93806e-20)
(1.00338 0.658647 -3.57717e-20)
(0.627854 0.449463 -1.96227e-19)
(0.225215 0.182284 -1.33997e-19)
(2.07052 0.892537 -1.21881e-18)
(1.71069 0.777736 -1.20444e-18)
(1.29832 0.632577 7.31651e-19)
(0.834032 0.438711 -4.83998e-19)
(0.312132 0.182081 -4.04304e-21)
(2.4186 0.735862 -5.88913e-19)
(2.01967 0.645355 5.25244e-19)
(1.555 0.528757 2.4364e-18)
(1.01753 0.370193 8.08282e-19)
(0.391333 0.155283 5.26037e-19)
(2.68202 0.486724 1.57038e-20)
(2.25238 0.428294 -2.71545e-19)
(1.74743 0.352324 -6.46743e-19)
(1.15476 0.247645 2.05638e-18)
(0.450322 0.104144 -3.26825e-19)
(2.82546 0.173874 -1.17051e-18)
(2.37727 0.152648 -1.60648e-18)
(1.84939 0.125347 -7.28683e-19)
(1.22671 0.0878343 7.96268e-19)
(0.480854 0.0366867 -3.25826e-19)
(0.241488 0.417622 -2.15421e-18)
(0.171201 0.35406 -1.82664e-18)
(0.103607 0.277561 3.18195e-19)
(0.0458559 0.184031 -4.89048e-20)
(-0.00158875 0.0677389 3.42432e-20)
(0.371231 0.595466 -8.00177e-19)
(0.274272 0.510963 -6.76064e-19)
(0.178902 0.40014 1.43886e-20)
(0.0926614 0.260005 -2.64306e-20)
(0.0169167 0.0967083 2.68935e-20)
(0.581642 0.754609 2.18807e-18)
(0.446194 0.650552 -1.50646e-19)
(0.307948 0.507801 -1.454e-19)
(0.174429 0.328908 -2.15604e-19)
(0.0484529 0.124086 1.67e-19)
(0.862024 0.875556 -1.29417e-18)
(0.679136 0.758824 1.97279e-18)
(0.485264 0.594416 2.99049e-19)
(0.288337 0.388543 1.02722e-19)
(0.0925572 0.149216 -1.18476e-19)
(1.2037 0.925432 -4.40849e-19)
(0.969105 0.811964 -4.57601e-19)
(0.708578 0.645152 3.59353e-19)
(0.43331 0.429187 3.58868e-19)
(0.148455 0.168529 1.89534e-21)
(0.946854 0.169521 -4.77679e-19)
(1.49565 0.130902 4.97673e-20)
(1.34027 0.196308 1.88017e-20)
(1.01605 0.498594 -4.93475e-19)
(0.599957 0.646051 6.55868e-20)
(0.954389 0.0901522 1.7802e-19)
(1.51184 0.103749 3.11235e-19)
(1.37015 0.246582 2.77916e-19)
(1.06186 0.614987 -5.01655e-20)
(0.785003 0.804344 7.54373e-19)
(0.960604 0.010167 6.09737e-20)
(1.52957 0.0789294 -2.14994e-20)
(1.36963 0.298289 -5.74206e-20)
(1.16473 0.714444 -4.06711e-19)
(1.03718 0.938923 9.41229e-20)
(0.963326 -0.0683933 -1.8698e-20)
(1.53328 0.0576212 -7.54109e-19)
(1.36873 0.351382 7.27123e-20)
(1.32557 0.782804 1.18192e-18)
(1.33494 1.04317 9.47327e-19)
(0.960383 -0.144246 -1.74562e-20)
(1.5037 0.0501983 2.22942e-19)
(1.38661 0.402492 -6.00828e-20)
(1.50956 0.824318 -3.71379e-19)
(1.63621 1.09274 -2.72703e-18)
(0.942738 -0.238117 2.54886e-19)
(1.44433 0.0183345 5.06242e-19)
(1.46211 0.396524 -3.95437e-20)
(1.76673 0.802252 3.12322e-18)
(2.1534 1.14379 -5.5191e-18)
(0.888543 -0.345332 -2.51376e-20)
(1.31078 -0.0299636 -6.45942e-19)
(1.39919 0.28419 6.91341e-21)
(1.84108 0.596202 -3.07165e-18)
(2.59419 0.900818 1.67025e-18)
(0.787852 -0.411542 5.54233e-18)
(1.07701 -0.0919071 6.95743e-35)
(1.13439 0.150623 -2.11749e-18)
(1.57581 0.34077 2.62664e-18)
(2.45649 0.529756 5.03198e-18)
(0.635052 -0.291791 1.5121e-19)
(0.71216 -0.0719915 5.26952e-19)
(0.731773 0.0519498 2.4696e-19)
(1.07519 0.135312 6.22519e-19)
(1.75836 0.220514 -8.64556e-18)
(0.322782 -0.0431107 -4.30806e-18)
(0.293575 0.00572813 2.85356e-19)
(0.264961 -0.0133739 1.11237e-18)
(0.393407 -0.0240328 -7.69941e-19)
(0.68621 -0.000474456 -1.4665e-18)
(2.34871 1.12132 4.69182e-18)
(2.78734 1.01262 3.47413e-18)
(3.1409 0.803417 -5.69301e-18)
(3.41899 0.519618 -1.46167e-17)
(3.58239 0.185886 1.5764e-17)
(3.07877 1.01887 5.00923e-18)
(3.35398 0.795235 2.56324e-17)
(3.55689 0.56067 7.24219e-18)
(3.70106 0.331823 -3.08276e-17)
(3.77791 0.111137 -5.17326e-18)
(2.90565 0.592024 -7.22774e-18)
(2.98594 0.448105 -3.38025e-18)
(3.05216 0.312105 -6.2966e-18)
(3.09523 0.181714 -6.88932e-18)
(3.114 0.0584209 6.52288e-18)
(2.10628 0.265884 5.41652e-18)
(2.13014 0.205728 -4.04562e-19)
(2.16255 0.143026 4.87142e-18)
(2.18313 0.0821251 6.28939e-18)
(2.19077 0.0259933 -5.88797e-18)
(0.842558 0.0220519 -5.7475e-19)
(0.851949 0.0156515 3.52132e-18)
(0.868643 0.0091302 2.44329e-18)
(0.877498 0.00479189 -5.1695e-18)
(0.87984 0.00136126 -3.84296e-20)
(0.28199 0.0207607 5.52154e-19)
(0.656793 0.040474 -7.43631e-19)
(0.973297 0.0440746 -8.18473e-19)
(0.944466 0.0274365 -1.51804e-18)
(0.697971 0.016389 -6.63748e-19)
(0.245627 0.0554706 7.45799e-19)
(0.591376 0.107095 1.44152e-18)
(0.864823 0.125164 -6.97422e-19)
(0.940092 0.097016 1.96084e-18)
(0.724295 0.0532512 -2.70093e-18)
(0.185657 0.0742784 4.96274e-19)
(0.476475 0.145921 -1.39886e-18)
(0.707887 0.184792 -9.13944e-19)
(0.857441 0.175441 -1.81039e-18)
(0.741677 0.101248 -2.86252e-18)
(0.123327 0.0774873 -7.72694e-19)
(0.344821 0.160382 -1.37667e-18)
(0.53462 0.214913 4.39913e-18)
(0.677823 0.233348 -3.66696e-19)
(0.713156 0.180055 2.25475e-18)
(0.075285 0.0723775 -6.23068e-19)
(0.230744 0.160128 1.56428e-18)
(0.372327 0.224558 6.12e-19)
(0.482874 0.257799 -1.29567e-18)
(0.561375 0.258483 -1.74981e-19)
(0.0451554 0.0637846 8.38813e-20)
(0.149963 0.148785 -1.2217e-18)
(0.247764 0.212166 -9.44358e-19)
(0.325463 0.234101 -8.83241e-20)
(0.371256 0.223842 -5.00537e-20)
(0.0264684 0.0557162 3.12297e-19)
(0.0950836 0.134326 5.91616e-19)
(0.160898 0.18481 -2.10742e-19)
(0.213773 0.1954 2.60318e-19)
(0.253642 0.185325 1.71908e-19)
(0.0133347 0.0488599 2.49613e-19)
(0.0586709 0.111362 1.33031e-18)
(0.103797 0.12104 -1.24303e-18)
(0.142825 0.107196 -2.79026e-18)
(0.179078 0.0857339 4.08268e-19)
(0.00623055 0.0392955 -2.38509e-19)
(0.042722 0.0486267 -1.81016e-18)
(0.0800029 0.0215921 3.21972e-18)
(0.120117 -0.0102204 1.31377e-18)
(0.161662 -0.044026 -2.69261e-19)
(0.00989432 0.00137907 2.09478e-19)
(0.0421158 -0.0504401 -4.51715e-19)
(0.082225 -0.0966081 9.00611e-20)
(0.13093 -0.144579 1.04816e-19)
(0.18165 -0.190819 1.10052e-22)
(0.338775 0.0718796 -7.53024e-20)
(0.613922 -0.042384 -1.22954e-18)
(0.704567 -0.013431 2.54455e-19)
(0.715572 0.0074344 4.04067e-19)
(0.696293 0.0044232 1.18211e-20)
(0.303118 -0.0344507 -1.00196e-19)
(0.750643 -0.115096 1.47924e-18)
(0.888887 -0.0230438 9.19905e-19)
(0.914941 0.0115166 7.53679e-20)
(0.900015 0.00749506 -3.67149e-20)
(0.320164 -0.150054 -8.15552e-19)
(0.835608 -0.198555 3.17202e-18)
(1.0509 -0.0422947 -1.81634e-19)
(1.1025 0.0143494 -3.44191e-19)
(1.09314 0.0105663 6.81952e-20)
(0.376463 -0.288949 1.10444e-18)
(0.885183 -0.298365 -2.71489e-18)
(1.17403 -0.0831262 -5.3721e-19)
(1.27007 0.0116062 -3.14589e-20)
(1.27268 0.012178 1.00103e-20)
(0.463061 -0.437473 4.97467e-19)
(0.920366 -0.406044 -5.41377e-19)
(1.25271 -0.143635 4.83101e-19)
(1.40692 -0.00237273 1.14997e-19)
(1.43509 0.010197 1.9395e-20)
(0.182982 -0.0449759 9.55166e-19)
(0.145038 -0.0052014 0)
(0.162791 0.000954905 1.16498e-19)
(0.16201 -0.000559658 -9.27931e-21)
(0.155143 -0.000893412 -7.0826e-20)
(0.399768 0.0699845 0)
(0.40883 -0.000513494 0)
(0.467282 -0.00414486 5.09187e-20)
(0.467795 0.00374789 -3.82975e-20)
(0.449526 0.00181285 4.9732e-20)
(0.162698 -0.000821317 -3.68484e-19)
(0.186416 -0.00179196 3.10779e-18)
(0.213227 -0.00502018 -6.86343e-19)
(0.229826 -0.0149883 -3.11714e-18)
(0.24572 -0.0170096 -7.97102e-19)
(0.43206 0.00444158 6.09954e-19)
(0.484592 0.0196971 4.1157e-18)
(0.536489 0.0466995 -6.73022e-18)
(0.567665 0.0806171 2.20941e-18)
(0.598363 0.162222 3.7974e-18)
(0.370768 -0.220745 -3.32735e-19)
(0.324401 -0.23172 -9.33171e-20)
(0.248412 -0.212726 -3.33073e-19)
(0.150774 -0.15075 3.89011e-19)
(0.0458718 -0.0645746 1.14e-19)
(0.257471 -0.169965 4.23252e-19)
(0.215059 -0.182031 1.41441e-18)
(0.162385 -0.177315 2.57521e-19)
(0.0967095 -0.135181 2.36553e-19)
(0.0269227 -0.0572047 -1.8896e-20)
(0.193177 -0.0552062 -3.12374e-19)
(0.151616 -0.0777642 -1.05909e-19)
(0.108794 -0.0953208 1.63408e-18)
(0.062317 -0.0974922 2.85224e-19)
(0.0132733 -0.0480838 -3.14525e-19)
(0.179 0.0866759 -6.37541e-19)
(0.132894 0.0528046 -7.06324e-19)
(0.0879365 0.0190526 1.31178e-18)
(0.049591 -0.0110864 1.60294e-18)
(0.0112336 -0.0300592 1.98989e-19)
(0.18934 0.244312 1.24511e-19)
(0.134784 0.197991 -1.19926e-19)
(0.0822413 0.148149 2.48957e-19)
(0.0384244 0.0970152 6.25726e-19)
(-0.00219914 0.0356292 9.35072e-20)
(0.697968 -0.0163444 1.53164e-18)
(0.944471 -0.0274142 -1.80087e-18)
(0.973106 -0.0442013 2.27012e-18)
(0.656805 -0.0405367 3.64667e-19)
(0.282024 -0.0207694 5.36708e-19)
(0.724284 -0.0531457 1.77274e-18)
(0.939948 -0.0970322 7.9469e-18)
(0.864622 -0.12527 1.03371e-18)
(0.591429 -0.107135 1.34956e-18)
(0.245723 -0.0554919 -4.78535e-19)
(0.741586 -0.10101 -1.22121e-18)
(0.85684 -0.175283 -2.2968e-18)
(0.707812 -0.184857 2.92459e-18)
(0.476545 -0.145991 -1.08249e-19)
(0.185781 -0.0743146 3.39509e-19)
(0.712616 -0.179886 1.66703e-20)
(0.677138 -0.233312 -7.68708e-18)
(0.53466 -0.21525 -6.00059e-18)
(0.34496 -0.160716 1.09174e-18)
(0.12351 -0.0775913 5.08046e-19)
(0.559026 -0.257048 4.67156e-19)
(0.481888 -0.257281 5.33675e-19)
(0.37241 -0.225298 -8.99983e-19)
(0.231005 -0.160998 -8.88496e-19)
(0.0756331 -0.0726339 -5.14505e-21)
(0.728046 0.37316 1.17632e-18)
(0.879685 0.127893 -1.8957e-19)
(0.676372 0.0204971 2.50208e-19)
(0.643655 0.0352332 -7.47266e-19)
(0.362644 -0.0620749 -1.00649e-19)
(0.828159 0.39818 -1.70998e-19)
(1.08618 0.158142 -5.85888e-19)
(0.868109 0.0392703 8.39689e-19)
(0.803786 0.0979276 1.67161e-18)
(0.340362 0.0537533 1.02928e-19)
(0.8934 0.372823 -2.27692e-18)
(1.26447 0.17235 -3.79795e-20)
(1.03981 0.0635996 2.52915e-19)
(0.908385 0.176953 1.72091e-18)
(0.364989 0.176342 -1.45517e-18)
(0.926695 0.318778 1.52847e-18)
(1.40036 0.174321 1.59399e-20)
(1.17928 0.100519 -2.21196e-19)
(0.964976 0.275493 -8.12824e-19)
(0.416438 0.323221 -5.99789e-19)
(0.939412 0.247274 1.8731e-19)
(1.47577 0.157911 4.13626e-20)
(1.27804 0.146365 -9.57715e-20)
(0.994616 0.38354 -1.18255e-19)
(0.487103 0.480822 1.37005e-18)
(0.275723 0.0483738 0)
(0.244287 -0.0113065 6.51066e-19)
(0.157415 -0.0159224 1.26948e-19)
(0.150087 0.00553489 -1.1025e-19)
(0.184389 0.0441294 -1.80803e-18)
(0.573587 0.266369 -1.01989e-17)
(0.609189 0.0751723 -2.5669e-18)
(0.44453 0.0136737 5.02407e-19)
(0.422859 8.76883e-05 -6.49318e-19)
(0.407546 -0.0683456 -6.62183e-19)
(0.245849 0.0169756 -7.99224e-22)
(0.229919 0.0150777 1.92878e-18)
(0.213305 0.00506436 5.24632e-19)
(0.186466 0.00180205 3.22991e-19)
(0.162713 0.000825195 0)
(0.599186 -0.162144 -1.16939e-19)
(0.568196 -0.0803448 2.54639e-18)
(0.536592 -0.0464814 -1.38167e-19)
(0.48465 -0.0196443 -2.70628e-19)
(0.432083 -0.00441928 7.60546e-19)
)
;

boundaryField
{
    left
    {
        type            fixedValue;
        value           uniform (1 0 0);
    }
    right
    {
        type            zeroGradient;
    }
    down
    {
        type            noSlip;
    }
    up
    {
        type            noSlip;
    }
    cylinder
    {
        type            noSlip;
    }
    defaultFaces
    {
        type            empty;
    }
}


// ************************************************************************* //
