/*--------------------------------*- C++ -*----------------------------------*\
  =========                 |
  \\      /  F ield         | OpenFOAM: The Open Source CFD Toolbox
   \\    /   O peration     | Website:  https://openfoam.org
    \\  /    A nd           | Version:  13
     \\/     M anipulation  |
\*---------------------------------------------------------------------------*/
FoamFile
{
    format      ascii;
    class       surfaceScalarField;
    location    "4.67";
    object      phi;
}
// * * * * * * * * * * * * * * * * * * * * * * * * * * * * * * * * * * * * * //

dimensions      [0 3 -1 0 0 0 0];

internalField   nonuniform List<scalar> 
3485
(
0.00209424
-0.0041906
0.00209636
0.00864018
-0.0556709
0.049125
0.0180209
-0.108308
0.0989272
0.0283235
-0.137945
0.127642
0.0385456
-0.148511
0.138289
0.0483779
-0.149423
0.139591
0.0577772
-0.146669
0.13727
0.0667394
-0.142867
0.133904
0.0752206
-0.138807
0.130326
-0.134555
0.126322
0.0834545
0.00257579
-0.00676639
0.00955434
-0.0626495
0.0189266
-0.11768
0.0288748
-0.147893
0.0386308
-0.158267
0.048085
-0.158877
0.0573404
-0.155925
0.0665239
-0.15205
0.0758255
-0.148108
-0.144334
0.0856036
0.0029949
-0.00976129
0.0102603
-0.0699148
0.0193763
-0.126796
0.0286104
-0.157127
0.0373867
-0.167043
0.0457086
-0.167199
0.0537064
-0.163922
0.0614815
-0.159825
0.0691016
-0.155728
-0.151739
0.0765074
0.00342888
-0.0131902
0.0109389
-0.0774249
0.0197547
-0.135612
0.0282904
-0.165663
0.0362075
-0.17496
0.0436645
-0.174656
0.0508636
-0.171121
0.0579268
-0.166888
0.0649192
-0.162721
-0.158792
0.0719717
0.00377773
-0.0169679
0.0113515
-0.0849987
0.0196451
-0.143906
0.0272474
-0.173265
0.0340535
-0.181766
0.0403561
-0.180959
0.0464056
-0.177171
0.0523367
-0.17282
0.0582242
-0.168608
-0.16467
0.0641021
0.00406514
-0.021033
0.0115519
-0.0924854
0.0191775
-0.151531
0.0257519
-0.17984
0.0314106
-0.187425
0.0365634
-0.186111
0.0414976
-0.182105
0.0463477
-0.17767
0.05117
-0.173431
-0.169508
0.0560086
0.00424227
-0.0252753
0.0114388
-0.099682
0.0182028
-0.158295
0.023607
-0.185244
0.0280138
-0.191832
0.0319284
-0.190026
0.0356614
-0.185838
0.0393453
-0.181354
0.0430322
-0.177117
-0.173222
0.0467458
0.00429798
-0.0295733
0.0110017
-0.106386
0.0167324
-0.164026
0.0208697
-0.189381
0.0239725
-0.194935
0.0266127
-0.192666
0.0291054
-0.188331
0.031573
-0.183821
0.0340579
-0.179602
-0.175739
0.0365751
0.00420813
-0.0337814
0.0102102
-0.112388
0.0147494
-0.168565
0.0175564
-0.192188
0.0193195
-0.196698
0.0206627
-0.19401
0.0218938
-0.189562
0.0231216
-0.185049
0.0243806
-0.180861
-0.177039
0.0256798
0.00396999
-0.0377514
0.00907076
-0.117489
0.0123182
-0.171812
0.0137534
-0.193623
0.014161
-0.197105
0.0142071
-0.194056
0.0141773
-0.189532
0.0141627
-0.185034
0.014188
-0.180886
0.0142585
-0.177109
-0.000778946
0.000412057
0.000366889
0.00240273
-0.00803873
0.00485706
0.0107959
-0.0178894
0.00949619
0.0225729
-0.0240263
0.0122493
0.0358191
-0.0265911
0.0133449
0.0494205
-0.027135
0.0135337
0.062883
-0.0268015
0.013339
0.0760313
-0.0261663
0.0130179
0.0888267
-0.0254699
0.0126746
-0.0249894
0.101453
0.0123635
-0.000693183
0.00110524
0.00260752
-0.0113394
0.0110583
-0.0263401
0.0228176
-0.0357856
0.0359932
-0.0397667
0.0494955
-0.0406374
0.0628473
-0.0401533
0.0758822
-0.0392011
0.0885681
-0.0381558
-0.0375105
0.101089
-0.000567219
0.00167246
0.00290414
-0.0148108
0.0114419
-0.0348778
0.0231825
-0.0475263
0.0362646
-0.0528488
0.049633
-0.0540058
0.0628332
-0.0533535
0.0757111
-0.052079
0.0882432
-0.0506879
-0.0498816
0.100614
-0.000395367
0.00206783
0.00331207
-0.0185182
0.0119722
-0.043538
0.0236932
-0.0592473
0.0366565
-0.0658121
0.0498537
-0.067203
0.0628607
-0.0663605
0.0755393
-0.0647576
0.0878764
-0.063025
-0.0620591
0.100054
-0.000177436
0.00224526
0.00384364
-0.0225393
0.0126668
-0.0523611
0.0243668
-0.0709473
0.0371847
-0.07863
0.0501743
-0.0801926
0.0629509
-0.079137
0.075396
-0.0772027
0.0875074
-0.0751364
-0.0740059
0.0994542
8.53969e-05
0.00215986
0.00450634
-0.0269603
0.0135279
-0.0613827
0.0251977
-0.0826171
0.0378387
-0.091271
0.0505843
-0.0929383
0.0631002
-0.0916529
0.0752922
-0.0893947
0.0871662
-0.0870104
-0.0856892
0.0988495
0.000450698
0.00170917
0.00531355
-0.0318231
0.0145371
-0.0706063
0.0261428
-0.0942228
0.0385554
-0.103684
0.0510083
-0.105391
0.0632306
-0.103875
0.0751599
-0.101324
0.0868043
-0.0986547
-0.0970611
0.0981762
0.000859974
0.000849193
0.00620746
-0.0371706
0.015611
-0.0800098
0.0270839
-0.105696
0.0391783
-0.115778
0.0512466
-0.117459
0.0630937
-0.115722
0.0746969
-0.112927
0.0860584
-0.110016
-0.107956
0.0969538
0.00127997
-0.000430776
0.00707547
-0.0429661
0.0165628
-0.0894971
0.0277638
-0.116897
0.0393734
-0.127388
0.0508659
-0.128952
0.0621152
-0.126972
0.0731252
-0.123937
0.083868
-0.120759
-0.117905
0.0938167
0.00166558
0.00782446
0.0172545
0.0280003
0.0389015
0.0495402
0.0598384
0.0698057
0.0793723
0.0877886
0.154781
-0.152749
0.09942
0.181301
-0.108517
0.0819964
0.194597
-0.0811028
0.0678071
0.201156
-0.0613634
0.0548051
0.204124
-0.0462883
0.0433194
0.20505
-0.0343993
0.0334742
0.204777
-0.0248876
0.0251597
0.203769
-0.0171013
0.0181097
0.202304
-0.0110168
0.0124816
-0.00328305
0.00519342
0.1536
-0.20526
0.18029
-0.135206
0.193878
-0.0946915
0.200693
-0.0681778
0.203862
-0.049458
0.204948
-0.0354853
0.204812
-0.0247509
0.203925
-0.0162149
0.202577
-0.00966889
-0.00149562
0.151622
-0.256267
0.178385
-0.161969
0.192319
-0.108626
0.199486
-0.0753442
0.202968
-0.0529403
0.204337
-0.0368546
0.204463
-0.0248768
0.20383
-0.0155817
0.202732
-0.00857091
3.40477e-05
0.148834
-0.305047
0.175574
-0.188709
0.189918
-0.12297
0.197538
-0.0829635
0.201446
-0.056849
0.20322
-0.0386284
0.203735
-0.0253915
0.203484
-0.0153313
0.202768
-0.00785468
0.00117128
0.145239
-0.350832
0.17185
-0.21532
0.186678
-0.137799
0.194854
-0.0911392
0.199304
-0.0612988
0.201603
-0.0409275
0.202629
-0.0264179
0.202887
-0.0155887
0.202682
-0.00765036
0.00178216
0.140824
-0.392806
0.167191
-0.241687
0.182602
-0.15321
0.191444
-0.0999814
0.196551
-0.0664057
0.199493
-0.0438698
0.201156
-0.0280801
0.202046
-0.0164796
0.202478
-0.00808191
0.00173764
0.135506
-0.430136
0.161538
-0.26772
0.177674
-0.169346
0.187315
-0.109622
0.193201
-0.0722919
0.196904
-0.0475727
0.199318
-0.0304945
0.200962
-0.0181239
0.202154
-0.00927403
0.000909445
0.129181
-0.462364
0.15475
-0.293289
0.171817
-0.186412
0.182449
-0.120253
0.189258
-0.0791008
0.193845
-0.05216
0.197129
-0.0337782
0.199642
-0.0206373
0.201713
-0.0113447
-0.000824561
0.121924
-0.490471
0.146637
-0.318002
0.16481
-0.204585
0.176732
-0.132175
0.184678
-0.0870476
0.190306
-0.0577877
0.194589
-0.0380612
0.198089
-0.024137
0.201154
-0.0144095
-0.00358471
0.114732
-0.517414
0.138459
-0.341729
0.156955
-0.223081
0.170143
-0.145363
0.179412
-0.0963165
0.186261
-0.0646367
0.191691
-0.0434921
0.196305
-0.0287503
0.200478
-0.0185823
-0.00748282
0.377325
-0.457794
-0.436945
0.345928
-0.310332
0.330113
-0.207267
0.322582
-0.137831
0.318657
-0.0923914
0.316312
-0.0622911
0.314753
-0.0419333
0.313689
-0.0276866
0.312972
-0.0178648
-0.00718171
0.389713
-0.388255
-0.459252
0.355229
-0.275847
0.337805
-0.189843
0.328443
-0.12847
0.322829
-0.0867771
0.319219
-0.0586807
0.316803
-0.0395175
0.315186
-0.0260703
0.314128
-0.0168061
-0.00674891
0.405611
-0.323706
-0.47016
0.368395
-0.238631
0.347037
-0.168485
0.334654
-0.116087
0.327011
-0.0791346
0.322068
-0.0537372
0.31879
-0.0362395
0.316625
-0.0239056
0.315225
-0.0154067
-0.0061856
0.415832
-0.263877
-0.475661
0.378014
-0.200813
0.354558
-0.145029
0.340032
-0.101561
0.33075
-0.0698527
0.324657
-0.0476433
0.320607
-0.0321896
0.317944
-0.0212425
0.316231
-0.0136941
-0.00549898
0.422999
-0.208903
-0.477973
0.385534
-0.163348
0.360767
-0.120262
0.34462
-0.0854139
0.334002
-0.0592345
0.326935
-0.0405759
0.322214
-0.0274692
0.319113
-0.0181413
0.317121
-0.0117017
-0.00470077
0.42791
-0.158359
-0.478454
0.391217
-0.126656
0.3657
-0.0947455
0.348386
-0.0680994
0.336723
-0.0475718
0.328862
-0.0327148
0.323583
-0.0221905
0.32011
-0.0146682
0.317876
-0.00946764
-0.00380509
0.431147
-0.111466
-0.478039
0.395335
-0.0908437
0.369433
-0.0688436
0.351315
-0.0499811
0.338873
-0.0351299
0.330398
-0.0242407
0.32468
-0.016472
0.32091
-0.0108982
0.318481
-0.00703842
-0.00282876
0.432783
-0.0669617
-0.477287
0.39775
-0.0558101
0.37175
-0.0428439
0.353169
-0.0314001
0.34022
-0.0221811
0.33133
-0.015351
0.325308
-0.0104493
0.32133
-0.00692102
0.31876
-0.00446757
-0.00179239
0.426551
-0.0212641
-0.472248
0.392251
-0.0215107
0.366934
-0.017527
0.348682
-0.0131472
0.335854
-0.00935358
0.327
-0.00649728
0.320986
-0.00443529
0.317013
-0.00294752
0.314444
-0.00189897
-0.000757775
0.316608
-0.337872
0.295097
0.27757
0.264423
0.255069
0.248572
0.244137
0.241189
0.23929
0.470213
0.0126048
-0.46856
0.47111
0.024783
0.471121
0.0365646
0.470136
0.0477305
0.46783
0.058315
0.464949
0.0669826
0.458786
0.078135
0.45532
0.0799736
0.443371
0.0975522
0.0898809
0.451493
0.0109668
-0.449855
0.453183
0.0230925
0.454858
0.0348897
0.456555
0.0460335
0.457831
0.0570393
0.459459
0.0653539
0.459605
0.0779897
0.460792
0.0787859
0.461506
0.0968384
0.0921346
0.435261
0.00930088
-0.433595
0.437562
0.0207918
0.440414
0.0320375
0.443821
0.0426265
0.447594
0.0532665
0.451762
0.0611853
0.456452
0.0732996
0.460376
0.0748624
0.46654
0.0906742
0.0885142
0.422861
0.00763271
-0.421193
0.425514
0.0181393
0.429103
0.0284485
0.433578
0.0381507
0.438968
0.0478773
0.444833
0.0553194
0.452214
0.0659187
0.458676
0.0684006
0.468024
0.081326
0.0808776
0.413151
0.00596468
-0.411483
0.416061
0.0152295
0.420182
0.0243274
0.425423
0.03291
0.43189
0.0414103
0.439048
0.0481613
0.448014
0.0569522
0.456489
0.0599259
0.467727
0.0700885
0.0706312
0.405818
0.00427331
-0.404127
0.408921
0.0121267
0.413407
0.0198406
0.419181
0.0271362
0.426334
0.0342571
0.434403
0.0400924
0.444266
0.0470896
0.454125
0.0500668
0.466461
0.0577525
0.0586381
0.400479
0.00253992
-0.398745
0.403747
0.00885831
0.408513
0.0150746
0.414678
0.0209714
0.422282
0.0266526
0.430971
0.0314034
0.441338
0.0367224
0.452103
0.0393022
0.465005
0.0448509
0.0456035
0.395971
0.000590418
-0.394021
0.399515
0.00531437
0.404648
0.00994174
0.411265
0.014354
0.419334
0.018584
0.428572
0.022165
0.43929
0.0260047
0.450656
0.0279362
0.463799
0.0317075
0.0321151
0.378567
-0.00134823
-0.376629
0.38265
0.00123153
0.388748
0.00384341
0.39669
0.00641277
0.406338
0.00893523
0.417341
0.0111624
0.429804
0.0135413
0.442914
0.0148262
0.457449
0.0171728
0.0173158
0.24343
-0.244778
0.244662
0.248505
0.254918
0.263853
0.275016
0.288557
0.303383
0.320556
0.0795024
0.127853
-0.115306
-0.0920497
0.0680028
0.129719
-0.118219
0.0574709
0.13251
-0.121978
0.0474164
0.136162
-0.126108
0.0374559
0.140242
-0.130282
0.0274368
0.144197
-0.134178
0.0175442
0.145887
-0.135995
0.00860171
0.138223
-0.12928
0.00224601
0.108052
-0.101696
0.0469342
-0.0446882
0.080493
0.139106
-0.0917455
0.0689782
0.141233
0.0578635
0.143624
0.0472239
0.146802
0.036873
0.150593
0.0266897
0.154381
0.0168441
0.155733
0.00812129
0.146946
0.00205265
0.114121
0.0489868
0.0724768
0.148322
-0.0816932
0.0627767
0.150934
0.0529255
0.153476
0.0431225
0.156605
0.0334018
0.160314
0.0237966
0.163986
0.0145845
0.164945
0.00662897
0.154901
0.0014058
0.119344
0.0503926
0.0602725
0.155547
-0.0674971
0.05264
0.158566
0.0445968
0.161519
0.0362694
0.164932
0.0277747
0.168809
0.0192638
0.172497
0.0111471
0.173062
0.00441875
0.16163
0.000509643
0.123253
0.0509023
0.0481243
0.161375
-0.0539525
0.0419998
0.164691
0.0354563
0.168062
0.0285459
0.171843
0.0213749
0.17598
0.0141311
0.179741
0.00730725
0.179886
0.00198982
0.166947
-0.000430742
0.125674
0.0504715
0.0372068
0.16629
-0.0421216
0.0320956
0.169802
0.0266682
0.17349
0.0209413
0.17757
0.0149927
0.181928
0.00901262
0.185721
0.00353481
0.185363
-0.000427693
0.170909
-0.00130614
0.126552
0.0491654
0.0269986
0.170427
-0.0311355
0.0227447
0.174056
0.0182856
0.177949
0.0136267
0.182229
0.0088273
0.186728
0.00408917
0.190459
-0.00012084
0.189573
-0.00242285
0.173211
-0.00202835
0.126158
0.0471371
0.0168842
0.173686
-0.0201438
0.0135498
0.17739
0.0100818
0.181417
0.00648853
0.185822
0.00283208
0.190384
-0.000693662
0.193985
-0.00332811
0.192208
-0.00427673
0.17416
-0.0025944
0.124475
0.0445427
0.00662571
0.175953
-0.00889285
0.00431749
0.179698
0.00193964
0.183795
-0.000500155
0.188262
-0.00295233
0.192836
-0.00514631
0.196178
-0.00656353
0.193625
-0.00611288
0.173709
-0.00317337
0.121536
0.0413693
-0.00371919
0.00256347
-0.00490732
-0.00614706
-0.00741748
-0.00863688
-0.00956365
-0.009562
-0.00766502
-0.00361789
0.103432
0.0238148
-0.114723
-0.0125241
0.091814
0.0244376
-0.0128197
0.0798304
0.0251128
-0.0131292
0.0674632
0.0258286
-0.0134614
0.0547054
0.0265792
-0.0138214
0.0415639
0.0273396
-0.0141981
0.0281802
0.0278651
-0.0144814
0.0152768
0.0270748
-0.0141713
0.00484084
0.022416
-0.0119801
0.0109073
-0.0060665
0.102666
0.0350893
-0.113941
0.0910794
0.0360244
0.0791417
0.0370504
0.066835
0.0381354
0.0541516
0.0392626
0.0410984
0.0403928
0.0278201
0.0411434
0.0150436
0.0398513
0.00474682
0.0327128
0.0156542
0.101561
0.0463316
-0.112804
0.0900273
0.0475584
0.078162
0.0489158
0.0659463
0.0503511
0.0533713
0.0518377
0.0404443
0.0533197
0.0273153
0.0542724
0.0147179
0.0524487
0.00461375
0.0428169
0.0202679
0.100005
0.0575149
-0.111188
0.0885573
0.059006
0.0768028
0.0606703
0.0647206
0.0624332
0.0522999
0.0642584
0.0395484
0.0660712
0.0266236
0.0671972
0.0142727
0.0647996
0.00443246
0.0526572
0.0247004
0.0978386
0.0685954
-0.108919
0.0865345
0.0703101
0.0749572
0.0722475
0.0630791
0.0743114
0.050883
0.0764545
0.0383752
0.078579
0.0257222
0.0798501
0.0136872
0.0768346
0.00419153
0.0621529
0.0288919
0.0948962
0.079493
-0.105794
0.0838106
0.0813957
0.07248
0.0835781
0.0608772
0.0859142
0.0489844
0.0883474
0.0368085
0.0907549
0.0245259
0.0921328
0.0129154
0.088445
0.00387581
0.0711925
0.0327677
0.0911081
0.0900145
-0.10163
0.080469
0.0920348
0.0695966
0.0944505
0.0584284
0.0970823
0.04694
0.0998358
0.0351517
0.102543
0.023272
0.104013
0.0121175
0.0995995
0.00356449
0.0797456
0.0363322
0.0849809
0.100022
-0.0949887
0.074899
0.102117
0.0646697
0.10468
0.0542256
0.107526
0.0434959
0.110565
0.0324629
0.113576
0.0213282
0.115147
0.0109211
0.110007
0.00308591
0.0875808
0.0394181
0.0822596
0.108606
-0.0908428
0.0731725
0.111204
0.063402
0.11445
0.0530978
0.117831
0.0424062
0.121257
0.0314411
0.124541
0.0204735
0.126115
0.010361
0.120119
0.00288672
0.0950551
0.0423048
0.0695479
-0.0762481
0.0625326
0.0550051
0.0467278
0.037703
0.028066
0.018186
0.00902471
0.00238337
0.202119
0.0128035
-0.0169324
0.204629
0.0283047
-0.0308155
0.205076
0.0344046
-0.0348511
0.206041
0.0360631
-0.0370284
0.205136
0.042628
-0.0417224
0.202621
0.0512565
-0.0487415
0.196533
0.0639967
-0.0579085
0.185782
0.0807602
-0.0700101
0.159994
0.108823
-0.0830348
0.144958
-0.0996863
0.201849
0.00894388
0.204222
0.0259318
0.204621
0.0340064
0.205524
0.0351599
0.204537
0.0436146
0.201886
0.0539072
0.195655
0.0702277
0.184588
0.0918271
0.158859
0.134552
0.189877
0.201453
0.00548041
0.203546
0.0238392
0.203801
0.0337516
0.204499
0.034462
0.203307
0.0448057
0.200399
0.0568159
0.193941
0.0766851
0.18244
0.103329
0.156946
0.160045
0.23402
0.200926
0.00254384
0.202605
0.0221609
0.202628
0.0337288
0.202977
0.0341122
0.20146
0.046323
0.198173
0.0601033
0.191394
0.083464
0.179319
0.115404
0.154299
0.185064
0.27713
0.200262
0.000271457
0.201402
0.0210211
0.201115
0.0340158
0.200972
0.0342548
0.199011
0.0482842
0.195228
0.0638865
0.188025
0.0906664
0.175191
0.128239
0.150998
0.209258
0.319209
0.199455
-0.00119341
0.199944
0.0205316
0.199277
0.0346828
0.198496
0.0350357
0.195982
0.0507984
0.191585
0.0682839
0.183849
0.0984022
0.170063
0.142025
0.147075
0.232245
0.36049
0.198499
-0.00170286
0.198241
0.0207896
0.197133
0.0357907
0.195564
0.0366048
0.192396
0.0539667
0.187261
0.0734189
0.178855
0.106808
0.164068
0.156813
0.142578
0.253735
0.401438
0.19739
-0.00110344
0.196304
0.0218764
0.194702
0.037392
0.192191
0.0391158
0.188279
0.0578792
0.182275
0.0794226
0.173005
0.116078
0.157126
0.172692
0.136669
0.274192
0.443118
0.19614
0.000746378
0.194162
0.0238542
0.192009
0.0395455
0.188398
0.0427269
0.183665
0.0626116
0.176702
0.0863856
0.166575
0.126205
0.150554
0.188713
0.131862
0.292885
0.484137
0.194863
0.00387292
0.191892
0.0268256
0.189061
0.0423765
0.184144
0.0476435
0.178397
0.0683591
0.169951
0.0948317
0.15791
0.138245
0.140251
0.206372
0.12077
0.312366
0.528659
0.303352
0.00253079
0.306797
0.0233813
0.310477
0.0386963
0.313047
0.0450734
0.315981
0.0654253
0.319422
0.0913906
0.324985
0.132682
0.336055
0.195301
0.361017
0.287405
0.464015
0.425661
0.304235
0.000306185
0.307916
0.0196999
0.312218
0.0343944
0.315564
0.0417276
0.319929
0.0610598
0.325535
0.0857846
0.334492
0.123725
0.350224
0.17957
0.379994
0.257635
0.399929
0.44408
0.30511
-0.00279328
0.309243
0.0155667
0.313953
0.029684
0.318079
0.0376015
0.323654
0.0554851
0.331108
0.0783311
0.342714
0.112119
0.361324
0.16096
0.394936
0.224023
0.337396
0.457469
0.306015
-0.00679789
0.310636
0.0109457
0.315643
0.0246771
0.320463
0.0327813
0.327059
0.0488887
0.33606
0.0693301
0.349697
0.0984824
0.370482
0.140174
0.405468
0.189038
0.277858
0.465005
0.307003
-0.0117909
0.312101
0.00584813
0.317263
0.0195153
0.322643
0.0274005
0.330074
0.0414585
0.340326
0.0590773
0.355471
0.0833384
0.377878
0.117767
0.412645
0.15427
0.221933
0.46857
0.308134
-0.0179145
0.313682
0.000299598
0.318795
0.014403
0.324572
0.0216236
0.332651
0.0333793
0.343873
0.0478549
0.360103
0.0671085
0.383629
0.0942404
0.417444
0.120456
0.169617
0.46976
0.309458
-0.0253618
0.315426
-0.00566903
0.32021
0.00961927
0.326201
0.0156326
0.334757
0.0248234
0.346688
0.0359231
0.363668
0.0501285
0.387884
0.0700249
0.420578
0.0877615
0.120532
0.469664
0.311145
-0.0344964
0.317349
-0.0118737
0.321385
0.00558372
0.327365
0.00965256
0.336234
0.0159541
0.348652
0.0235054
0.366147
0.0326339
0.390731
0.0454408
0.422496
0.055996
0.07421
0.468818
0.30964
-0.0421258
0.314887
-0.0171208
0.317991
0.0024793
0.324013
0.0036309
0.333032
0.00693521
0.345764
0.0107728
0.363612
0.0147862
0.388311
0.0207415
0.41967
0.0246374
0.0323249
0.461555
0.259884
0.242764
0.245243
0.248874
0.255809
0.266582
0.281368
0.30211
0.326747
0.359072
0.439313
-0.105702
0.444351
-0.0967833
0.446485
-0.0838279
0.448621
-0.0696322
0.45164
-0.056972
0.455356
-0.0458375
0.459274
-0.0350534
0.462938
-0.0238081
0.466028
-0.0119831
3.20922e-05
0.444349
-0.105971
0.442767
-0.0952022
0.441536
-0.0825964
0.44186
-0.0699567
0.443121
-0.0582327
0.444543
-0.0472592
0.445863
-0.0363733
0.44715
-0.025095
0.448516
-0.0133493
-0.00130693
0.451085
-0.0995866
0.445572
-0.089689
0.440991
-0.0780159
0.43763
-0.0665951
0.435266
-0.0558691
0.433616
-0.0456091
0.432614
-0.0353713
0.432283
-0.0247642
0.432622
-0.0136884
-0.00227939
0.454518
-0.0890996
0.445514
-0.0806844
0.438041
-0.0705436
0.432193
-0.0607465
0.427789
-0.0514659
0.424523
-0.0423427
0.422227
-0.0330754
0.420886
-0.0234234
0.420535
-0.0133368
-0.00293746
0.4558
-0.0763293
0.444699
-0.0695833
0.435448
-0.0612925
0.427945
-0.0532439
0.421999
-0.0455196
0.417404
-0.0377476
0.414051
-0.0297225
0.411936
-0.0213083
0.41108
-0.0124811
-0.00334054
0.455748
-0.0623176
0.443353
-0.0571879
0.432884
-0.0508237
0.424235
-0.0445947
0.417235
-0.0385195
0.411749
-0.032262
0.4077
-0.025673
0.405072
-0.0186801
0.403877
-0.0112862
-0.00359046
0.454924
-0.0475776
0.44174
-0.0440048
0.430507
-0.0395897
0.421139
-0.0352269
0.413477
-0.0308573
0.407421
-0.0262062
0.402918
-0.0211704
0.399962
-0.0157242
0.39857
-0.00989344
-0.00376603
0.453428
-0.0321879
0.439627
-0.0302029
0.427846
-0.027809
0.417975
-0.0253558
0.409846
-0.0227284
0.403374
-0.0197347
0.398531
-0.0163268
0.395333
-0.0125268
0.39382
-0.00838028
-0.00396732
0.444633
-0.0152658
0.429654
-0.0152239
0.416772
-0.0149268
0.405786
-0.0143699
0.396507
-0.0134491
0.388879
-0.0121074
0.382964
-0.0104115
0.378877
-0.00844014
0.376741
-0.00624375
-0.00385513
0.343806
0.328582
0.313655
0.299285
0.285836
0.273729
0.263317
0.254877
0.248634
0.0104307
0.0478189
-0.0582496
0.0214765
0.15059
-0.161636
0.0261216
0.217756
-0.222401
0.0256665
0.244216
-0.243761
0.0227382
0.249278
-0.246349
0.0190059
0.247102
-0.24337
0.0150538
0.243357
-0.239405
0.0110004
0.238922
-0.234869
0.00697126
0.231442
-0.227413
0.213044
0.00376509
-0.209838
0.0119875
0.0358315
0.0274556
0.135122
0.0372409
0.207971
0.0414789
0.239978
0.0428098
0.247947
0.043201
0.246711
0.0434464
0.243111
0.0434858
0.238883
0.0423487
0.232579
0.217539
0.0378534
0.0122532
0.0235783
0.0307773
0.116598
0.0451798
0.193568
0.0541993
0.230958
0.0600507
0.242095
0.0648052
0.241956
0.0694907
0.238426
0.0741763
0.234197
0.0776394
0.229116
0.219485
0.0756938
0.0112237
0.0123546
0.0308084
0.0970133
0.0485397
0.175837
0.0618455
0.217653
0.0720882
0.231853
0.0811213
0.232923
0.0900923
0.229455
0.0993457
0.224944
0.10826
0.220202
0.214223
0.113521
0.00919534
0.0031593
0.027756
0.0784526
0.0470421
0.156551
0.063573
0.201122
0.0776383
0.217787
0.0905441
0.220017
0.103331
0.216668
0.116505
0.211771
0.130046
0.206661
0.201378
0.142891
0.006646
-0.0034867
0.0225602
0.0625384
0.0415847
0.137526
0.059888
0.182818
0.076718
0.200957
0.0926291
0.204106
0.108337
0.20096
0.124314
0.195794
0.140803
0.190171
0.184067
0.158114
0.00409428
-0.00758098
0.0166488
0.0499839
0.0341178
0.120057
0.05281
0.164126
0.0711587
0.182609
0.0889559
0.186309
0.106469
0.183447
0.123992
0.178271
0.141685
0.172477
0.16571
0.160043
0.00193327
-0.00951425
0.0112593
0.0406579
0.0265704
0.104746
0.0445654
0.146131
0.0631609
0.164013
0.0815325
0.167937
0.0995162
0.165463
0.117173
0.160615
0.134688
0.154963
0.148384
0.152014
0.000406896
-0.00992115
0.00729733
0.0337675
0.0206134
0.0914303
0.0375316
0.129213
0.0557615
0.145783
0.0741276
0.149571
0.0922039
0.147387
0.109914
0.142905
0.127338
0.137538
0.13056
0.145163
-0.000433338
-0.00948781
0.00473944
0.0285947
0.0163478
0.079822
0.0319063
0.113654
0.0490431
0.128646
0.0663567
0.132258
0.0831871
0.130556
0.0992719
0.12682
0.114315
0.122496
0.116748
0.128126
-0.000796157
-0.00869166
0.00344537
0.0243532
0.0139493
0.069318
0.02849
0.0991137
0.0447733
0.112363
0.0614039
0.115627
0.0777213
0.114239
0.0934848
0.111056
0.108607
0.107374
0.104128
0.121227
-0.000914677
-0.00777698
0.00288089
0.0205576
0.0127078
0.0594912
0.0265004
0.0853211
0.0420618
0.0968015
0.0580469
0.0996421
0.0738176
0.0984681
0.089132
0.0957419
0.10395
0.0925557
0.0906255
0.117453
-0.000959185
-0.00681779
0.00255175
0.0170467
0.0118685
0.0501744
0.0250111
0.0721786
0.0398585
0.0819541
0.0551157
0.0843848
0.0701687
0.0834152
0.0847749
0.0811357
0.0988673
0.0784633
0.0771804
0.112312
-0.0009714
-0.00584639
0.00234543
0.0137299
0.0112883
0.0412315
0.0239276
0.0595392
0.0381997
0.0676821
0.0528536
0.0697308
0.0672973
0.0689715
0.0812912
0.0671417
0.0947515
0.065003
0.0640872
0.107845
-0.0009634
-0.00488299
0.0022279
0.0105386
0.0109174
0.032542
0.0232107
0.0472459
0.0370852
0.0538076
0.0513269
0.0554891
0.0653681
0.0549303
0.0789841
0.0535258
0.0921003
0.0518868
0.0512322
0.104955
-0.000949741
-0.00393325
0.00216102
0.0074278
0.0106859
0.0240171
0.0227581
0.0351738
0.0363841
0.0401816
0.0503773
0.0414958
0.0641906
0.041117
0.0776141
0.0401023
0.0905857
0.0389151
0.0384802
0.103338
-0.00093445
-0.0029988
0.00213144
0.00436191
0.010557
0.0155916
0.022497
0.0232338
0.0359786
0.0266999
0.0498336
0.0276409
0.0635287
0.0274219
0.0768646
0.0267665
0.0897866
0.0259931
0.0257589
0.102508
-0.000912435
-0.00208637
0.00213816
0.00131131
0.0105109
0.0072188
0.0223757
0.0113691
0.0357748
0.0133007
0.0495525
0.0138632
0.0631858
0.0137886
0.0764817
0.0134705
0.0893903
0.0130845
0.0130396
0.10211
-0.000880626
-0.00120574
0.00218262
-0.00175194
0.0105362
-0.00113479
0.0223582
-0.000452919
0.0357041
-4.51531e-05
0.0494291
0.000138181
0.0630186
0.000199098
0.076285
0.000204135
0.0891815
0.000188077
0.000324783
0.101896
-0.000838856
0.00226626
0.0106277
0.022424
0.0357238
0.0493957
0.0629337
0.0761558
0.0890184
0.101707
0.137673
0.287578
-0.304023
0.149695
0.121347
-0.13337
0.159459
0.0411918
-0.050956
0.167171
0.00488595
-0.0125981
0.173559
-0.00898942
0.00260162
0.179212
-0.0130484
0.00739518
0.184389
-0.012971
0.00779425
0.189192
-0.0112727
0.00646968
0.19368
-0.00921858
0.00473077
-0.00600993
0.00199523
0.13973
0.265301
0.155581
0.105496
0.16637
0.0304026
0.173667
-0.00241048
0.179215
-0.014538
0.183861
-0.0176936
0.187953
-0.0170631
0.191627
-0.0149471
0.194971
-0.0125624
-0.00889244
0.142171
0.235442
0.160937
0.0867295
0.172241
0.0190982
0.179285
-0.00945378
0.184222
-0.019475
0.188047
-0.0215187
0.191192
-0.0202081
0.193859
-0.0176145
0.196176
-0.0148788
-0.0107527
0.144962
0.198325
0.165797
0.0658948
0.177501
0.00739428
0.184336
-0.016289
0.188722
-0.0238608
0.191809
-0.0246056
0.194112
-0.0225116
0.195887
-0.0193894
0.197292
-0.016284
-0.0117042
0.147733
0.155547
0.170116
0.0435116
0.182116
-0.00460521
0.18876
-0.0229331
0.192682
-0.0277825
0.195131
-0.0270549
0.196704
-0.0240852
0.197704
-0.0203893
0.198317
-0.0168968
-0.0118645
0.150231
0.108654
0.173826
0.0199158
0.186067
-0.0168455
0.192553
-0.0294195
0.196085
-0.031314
0.197998
-0.0289681
0.198956
-0.0250439
0.199302
-0.0207352
0.199246
-0.0168403
-0.0113559
0.152321
0.0588415
0.176866
-0.00462978
0.189314
-0.0292931
0.195684
-0.0357898
0.198909
-0.0345391
0.200394
-0.0304527
0.200857
-0.0255069
0.200674
-0.0205517
0.200074
-0.0162406
-0.0103041
0.153902
0.00704958
0.179183
-0.0299113
0.191819
-0.0419294
0.198128
-0.0420986
0.201138
-0.0375492
0.202306
-0.0316207
0.202396
-0.0255968
0.201811
-0.0199664
0.200797
-0.0152266
-0.00883838
0.154879
-0.0459334
0.180721
-0.0557525
0.193552
-0.0547604
0.199865
-0.0484116
0.202757
-0.0404418
0.203725
-0.0325883
0.203567
-0.0254388
0.202709
-0.0191087
0.201412
-0.0139293
-0.00709011
0.155193
0.181437
0.194484
0.200877
0.203755
0.204641
0.204362
0.203363
0.201915
0.112377
-0.00233372
-0.110043
0.109145
0.00323192
0.10676
0.0023844
0.106527
0.000232873
0.107437
-0.00090944
0.108602
-0.00116553
0.109667
-0.00106496
0.110504
-0.00083618
0.111083
-0.00057929
-0.000232166
0.233843
0.0700714
-0.306248
0.201422
0.035653
0.189227
0.0145787
0.185929
0.00353083
0.186113
-0.00109266
0.187483
-0.0025363
0.189027
-0.00260826
0.190337
-0.00214637
0.191304
-0.00154673
-0.000640981
0.249259
0.156649
-0.335836
0.213575
0.0713366
0.200149
0.0280051
0.196445
0.00723461
0.196566
-0.00121392
0.197995
-0.00396477
0.199627
-0.00424036
0.201023
-0.00354255
0.202064
-0.0025876
-0.00108514
0.244097
0.235742
-0.32319
0.211706
0.103727
0.199729
0.0399827
0.196698
0.0102653
0.197166
-0.00168181
0.198764
-0.00556245
0.200484
-0.00596079
0.201922
-0.00498025
0.202982
-0.00364809
-0.00153653
0.23891
-0.307191
0.209267
0.198294
0.195961
0.196881
0.198714
0.200547
0.202037
0.203119
0.0113499
0.000743881
-0.0120937
0.0115374
-0.000187508
0.0121715
-0.000634087
0.0129329
-0.00076148
0.0147507
-0.00181777
0.0192745
-0.00452381
0.0315609
-0.0122864
0.0488884
-0.0173275
0.079217
-0.0303286
-0.0308259
0.0333921
0.00173117
-0.0343794
0.0363931
-0.00318854
0.0439631
-0.00820404
0.058193
-0.0149914
0.0819855
-0.0256103
0.117434
-0.0399722
0.164132
-0.0589843
0.213548
-0.0667441
0.266005
-0.0827848
-0.0710691
0.0554816
0.00171523
-0.0554657
0.0629685
-0.0106754
0.0797574
-0.024993
0.108427
-0.0436608
0.149107
-0.0662907
0.197491
-0.088356
0.244496
-0.105989
0.283345
-0.105594
0.31387
-0.11331
-0.0930351
0.075967
-5.51777e-05
-0.0741966
0.0879445
-0.0226529
0.111859
-0.0489074
0.147383
-0.0791849
0.189302
-0.10821
0.229523
-0.128576
0.26078
-0.137246
0.286229
-0.131043
0.305526
-0.132607
-0.110699
0.0928994
-0.0891895
0.1081
0.134886
0.169223
0.203904
0.233441
0.256238
0.277209
0.289764
0.0912866
-0.0878662
0.0972576
-0.100678
0.0823476
-0.0906957
0.0996347
0.0733012
-0.0942882
0.103335
0.0634568
-0.0979622
0.107807
0.0525599
-0.101526
0.112422
0.0406364
-0.10491
0.116833
0.0279504
-0.107072
0.119758
0.0153534
-0.103307
0.115904
0.00493731
-0.0834638
0.0938799
-0.0386024
0.0435398
0.104401
-0.0780079
-0.11426
0.0938702
-0.0801644
0.0823094
-0.0827274
0.0698622
-0.0855151
0.0567695
-0.0884328
0.0432062
-0.0913466
0.0293895
-0.0932552
0.0160604
-0.0899784
0.00519673
-0.0726001
-0.0334057
0.101761
-0.0667775
-0.112991
0.0902769
-0.0686806
0.0785225
-0.070973
0.0664664
-0.073459
0.0540396
-0.076006
0.041187
-0.078494
0.0280139
-0.0800821
0.0152308
-0.0771953
0.00482899
-0.0621984
-0.0285767
0.103696
-0.0554793
-0.114995
0.092176
-0.0571603
0.0803109
-0.0591078
0.0680222
-0.0611704
0.0552768
-0.0632606
0.0420819
-0.0652991
0.0285927
-0.0665929
0.0155525
-0.0641551
0.00496144
-0.0516073
-0.0236153
0.104259
-0.0441056
-0.115632
0.0925857
-0.0454872
0.0805503
-0.0470724
0.0681219
-0.048742
0.0552877
-0.0504264
0.0420518
-0.0520632
0.028554
-0.053095
0.0155178
-0.0511189
0.00493282
-0.0410224
-0.0186825
0.104508
-0.0327444
-0.115869
0.0928284
-0.0338079
0.0807787
-0.0350228
0.0683307
-0.0362939
0.0554708
-0.0375665
0.0422033
-0.0387957
0.0286692
-0.0395609
0.0155913
-0.038041
0.00496741
-0.0303985
-0.013715
0.10458
-0.0214073
-0.115917
0.0929055
-0.0221336
0.0808493
-0.0229666
0.0683892
-0.0238338
0.0555165
-0.0246939
0.0422379
-0.0255171
0.0286928
-0.0260158
0.0156012
-0.0249493
0.00496885
-0.0197662
-0.00874619
0.104515
-0.0100843
-0.115838
0.0928481
-0.0104671
0.0807975
-0.010916
0.0683429
-0.0113793
0.0554773
-0.0118282
0.0422072
-0.012247
0.0286715
-0.0124801
0.0155896
-0.0118675
0.00496545
-0.00914202
-0.00378073
0.104299
0.00122318
-0.115607
0.0926485
0.0011838
0.0806142
0.00111824
0.0681784
0.00105658
0.0553347
0.00101544
0.0420902
0.000997504
0.0285839
0.00102617
0.0155351
0.00118139
0.00494344
0.00144961
0.00116271
0.103938
-0.115239
0.0923018
0.0802908
0.067886
0.05508
0.0418795
0.0284242
0.0154342
0.00490379
0.0258095
-0.207447
-0.0281996
0.0195977
-0.221201
0.0122343
-0.227506
0.00474864
-0.231919
-0.00249713
-0.236124
-0.00907259
-0.239774
-0.0136895
-0.239144
-0.0139953
-0.222095
-0.00789979
-0.167732
-0.0661494
0.0553462
-0.202939
-0.0598549
0.0464038
-0.212258
0.0361994
-0.217301
0.0258786
-0.221598
0.0157971
-0.226042
0.00629424