# Selection   : all
# Cells       : 440
# Volume      : 7.374263e+01
# Time        	maxMag(U)
8.615         	2.775845e+00
8.66          	2.775908e+00
8.71          	2.775791e+00
