/*--------------------------------*- C++ -*----------------------------------*\
  =========                 |
  \\      /  F ield         | OpenFOAM: The Open Source CFD Toolbox
   \\    /   O peration     | Website:  https://openfoam.org
    \\  /    A nd           | Version:  13
     \\/     M anipulation  |
\*---------------------------------------------------------------------------*/
FoamFile
{
    format      ascii;
    class       volScalarField;
    location    "26.7";
    object      p;
}
// * * * * * * * * * * * * * * * * * * * * * * * * * * * * * * * * * * * * * //

dimensions      [0 2 -2 0 0 0 0];

internalField   nonuniform List<scalar> 
440
(
-1.11897
-1.1004
-1.08975
-1.06008
-1.11375
-1.19418
-1.17161
-1.14576
-1.11727
-1.09446
-1.32481
-1.28597
-1.23676
-1.17473
-1.10814
-1.46937
-1.4164
-1.31045
-1.18619
-1.06185
-1.56249
-1.48744
-1.31781
-1.14383
-0.987187
-1.13478
-1.19861
-1.33046
-1.47437
-1.59198
-1.25067
-1.25941
-1.28468
-1.32166
-1.35307
-1.18634
-1.16333
-1.13658
-1.11886
-1.10433
-1.13803
-1.11454
-1.08593
-1.06261
-1.06535
-1.09647
-1.08247
-1.06301
-1.03684
-1.06787
-1.86326
-0.645372
0.666465
0.0981557
0.0230961
-1.52397
-0.747348
0.474406
0.0467637
0.0374707
-1.18119
-0.88825
0.208722
-0.0224955
0.0482504
-1.11327
-0.964851
0.117553
-0.0523601
0.0447167
-1.17425
-0.893226
0.155208
-0.0174408
0.0232645
-0.972601
-0.605601
0.221136
0.0902527
-3.03631e-06
-0.539033
-0.262647
0.0909945
0.151374
0.0215232
-0.422905
-0.133352
0.0859417
0.209675
0.0345266
-0.290222
-0.0671781
0.0718081
0.176808
0.0233766
-0.176102
-0.103527
0.0858677
0.205084
0.0343774
-0.725787
-0.830905
-0.980025
-1.14847
-1.30135
-0.468611
-0.582645
-0.660049
-0.714817
-0.729273
-0.292376
-0.390855
-0.446639
-0.483346
-0.502109
-0.177475
-0.265039
-0.319686
-0.347523
-0.355621
-0.120889
-0.205796
-0.255666
-0.27168
-0.256954
0.624258
0.464599
0.261233
0.0363904
-0.206789
0.193847
0.0258061
-0.178721
-0.410681
-0.674144
-0.219703
-0.391039
-0.607124
-0.84719
-1.09702
-0.585045
-0.760513
-0.979889
-1.21465
-1.40916
-0.823539
-1.00453
-1.21223
-1.42889
-1.55794
1.73145
1.75914
1.78208
1.79013
1.78107
1.53125
1.54836
1.55867
1.55092
1.52158
1.31349
1.29693
1.25587
1.19104
1.09932
1.06385
1.02544
0.949371
0.841817
0.705148
0.846099
0.734134
0.589288
0.424433
0.226424
1.52752
1.5205
1.49386
1.56472
1.62748
1.5172
1.50936
1.47336
1.54385
1.5333
1.50799
1.49538
1.45048
1.51083
1.41099
1.49997
1.47951
1.42643
1.46157
1.23858
1.49304
1.46292
1.40149
1.41441
1.05196
1.48826
1.43726
1.37108
1.31129
0.846238
1.48418
1.40664
1.36405
1.1778
0.979932
1.49274
1.39192
1.35232
1.1253
1.02616
1.4905
1.36557
1.34258
1.06417
1.05844
1.52545
1.36459
1.33857
1.02707
1.10096
0.589571
0.277244
-0.0635055
-0.368677
-0.548509
0.485556
0.262808
0.0359757
-0.166328
-0.329928
0.469818
0.293447
0.126455
-0.0255824
-0.173784
0.548467
0.379357
0.21792
0.0710903
-0.0648496
0.595744
0.419952
0.259235
0.116458
-0.012607
-1.33919
-1.22031
-1.0717
-0.950495
-0.878045
-1.42817
-1.36633
-1.25096
-1.1562
-1.09647
-1.37887
-1.33178
-1.26204
-1.20007
-1.15549
-1.26378
-1.22606
-1.18303
-1.14486
-1.11029
-1.16067
-1.14221
-1.12178
-1.10218
-1.09535
-1.1523
-1.1465
-1.13252
-1.1237
-1.07063
-1.06324
-1.05987
-1.05266
-1.05594
-1.04785
-1.17837
-1.22172
-1.2691
-1.30132
-1.31532
-0.900933
-0.95493
-1.04666
-1.14429
-1.20804
-0.575806
-0.741974
-0.970849
-1.15766
-1.28005
-1.07533
0.35719
0.247057
0.233198
-0.035037
-1.04512
0.424428
0.277547
0.241216
-0.0395427
-1.01611
0.550503
0.347897
0.244309
-0.0311004
-1.09984
0.37714
0.543296
0.232914
-0.0125619
-1.48075
-0.263722
0.667038
0.165593
0.00913882
-0.592292
0.144008
0.182468
0.222039
-0.00585331
-0.926027
0.238873
0.242343
0.242079
-0.0154829
-0.834558
-1.07197
-1.09614
-1.0784
-0.862646
-0.85286
-1.07202
-1.1223
-1.08041
-1.07256
1.44053
1.42401
1.39214
1.34621
1.28541
1.61708
1.63823
1.64689
1.64127
1.62149
1.76251
1.79575
1.82357
1.84073
1.84423
1.84222
1.88033
1.92063
1.9534
1.96872
1.82737
1.86178
1.89963
1.93042
1.94373
-0.468939
-0.560417
-0.702291
-0.875957
-1.06285
0.0698335
-0.0473684
-0.204519
-0.392296
-0.616663
0.553893
0.431023
0.284645
0.113658
-0.0903998
0.939685
0.845465
0.731056
0.593871
0.432446
1.24778
1.18393
1.10159
1.00342
0.889475
1.59156
1.55153
1.53688
1.54957
1.56576
1.57598
1.54816
1.53528
1.5633
1.62132
1.56263
1.54358
1.53185
1.58031
1.68479
1.55013
1.53768
1.52349
1.5851
1.69236
1.53837
1.53035
1.51027
1.58025
1.67682
1.64873
1.55938
1.52771
1.48036
1.43765
1.60247
1.54921
1.52175
1.4969
1.45782
1.14534
0.948621
0.605283
0.106404
-0.441204
1.2151
0.975916
0.620704
0.125718
-0.433917
)
;

boundaryField
{
    left
    {
        type            zeroGradient;
    }
    right
    {
        type            fixedValue;
        value           uniform 0;
    }
    down
    {
        type            zeroGradient;
    }
    up
    {
        type            zeroGradient;
    }
    cylinder
    {
        type            zeroGradient;
    }
    defaultFaces
    {
        type            empty;
    }
}


// ************************************************************************* //
