/*--------------------------------*- C++ -*----------------------------------*\
  =========                 |
  \\      /  F ield         | OpenFOAM: The Open Source CFD Toolbox
   \\    /   O peration     | Website:  https://openfoam.org
    \\  /    A nd           | Version:  13
     \\/     M anipulation  |
\*---------------------------------------------------------------------------*/
FoamFile
{
    format      ascii;
    class       volScalarField;
    location    "27";
    object      p;
}
// * * * * * * * * * * * * * * * * * * * * * * * * * * * * * * * * * * * * * //

dimensions      [0 2 -2 0 0 0 0];

internalField   nonuniform List<scalar> 
440
(
-1.02145
-1.00299
-0.991682
-0.954197
-1.00223
-1.09729
-1.07665
-1.05071
-1.01975
-0.992653
-1.22256
-1.18613
-1.13974
-1.08038
-1.01549
-1.36585
-1.31465
-1.21484
-1.09635
-0.977362
-1.46115
-1.38973
-1.22679
-1.0584
-0.905388
-1.08016
-1.1199
-1.19404
-1.26149
-1.30359
-1.16124
-1.16974
-1.19279
-1.22375
-1.24223
-1.13405
-1.12051
-1.11129
-1.1166
-1.12536
-1.07566
-1.05518
-1.03049
-1.012
-1.01553
-1.00354
-0.987322
-0.962733
-0.922632
-0.931851
-1.49134
-0.572014
0.321943
0.0610045
0.0191529
-1.29838
-0.834916
0.176766
-0.0184445
0.0297704
-1.28137
-1.0817
0.0732585
-0.0967788
0.0378298
-1.20109
-1.14108
0.0336278
-0.0789374
0.0448255
-1.05835
-1.06798
0.0277167
-0.0072134
0.040213
-0.743667
-0.819783
0.0261986
0.0649653
0.0268708
-0.451257
-0.478916
-0.0429909
0.0127826
0.00959536
-0.346699
-0.289176
-0.0498744
0.127903
0.017859
-0.246999
-0.177239
-0.0598152
0.0881895
0.00809582
-0.129729
-0.190256
-0.0682102
0.114008
0.0151544
-0.649082
-0.757344
-0.891334
-1.04082
-1.15697
-0.399118
-0.511689
-0.582542
-0.626753
-0.63629
-0.229245
-0.324653
-0.380008
-0.411421
-0.430973
-0.118651
-0.203545
-0.259321
-0.28739
-0.299521
-0.0648144
-0.147083
-0.197515
-0.214906
-0.202918
0.666393
0.510089
0.311012
0.0913044
-0.144684
0.243608
0.079833
-0.11959
-0.345469
-0.600527
-0.161799
-0.328793
-0.539736
-0.774875
-1.01529
-0.517843
-0.688531
-0.901356
-1.13028
-1.3166
-0.755531
-0.929413
-1.12917
-1.33766
-1.45975
1.7279
1.75695
1.78176
1.792
1.78511
1.53572
1.55466
1.56693
1.5613
1.53424
1.32444
1.31035
1.27213
1.21047
1.1227
1.08421
1.04808
0.974936
0.871099
0.739283
0.876056
0.767609
0.626603
0.465821
0.273594
1.51785
1.51135
1.48435
1.55639
1.61732
1.50826
1.50088
1.46542
1.53816
1.52686
1.49983
1.48748
1.44395
1.50858
1.40751
1.49262
1.47179
1.4215
1.46214
1.23874
1.48649
1.45603
1.39845
1.41709
1.05583
1.48268
1.43059
1.37017
1.31677
0.850088
1.48083
1.40097
1.36777
1.1856
0.983713
1.48693
1.3859
1.36202
1.12381
1.03642
1.48691
1.36038
1.35339
1.06217
1.06646
1.52118
1.3581
1.35034
1.02316
1.11169
0.633335
0.324449
-0.0121132
-0.310489
-0.490512
0.525686
0.309091
0.0861813
-0.109933
-0.272843
0.507268
0.336195
0.173169
0.0257434
-0.116853
0.575236
0.413722
0.260942
0.121151
-0.0089233
0.624928
0.457285
0.304226
0.166369
0.0410277
-1.56906
-1.43748
-1.2776
-1.14626
-1.0674
-1.66925
-1.60016
-1.47209
-1.36411
-1.29301
-1.62441
-1.57334
-1.49018
-1.41193
-1.35047
-1.50981
-1.46754
-1.41496
-1.36129
-1.30783
-1.39611
-1.37532
-1.34919
-1.31692
-1.28422
-1.3875
-1.3811
-1.35948
-1.34566
-1.27014
-1.32188
-1.31516
-1.3017
-1.29814
-1.26521
-1.41933
-1.44112
-1.46769
-1.48479
-1.48579
-1.30885
-1.37554
-1.46285
-1.54296
-1.60006
-0.892761
-1.01917
-1.17112
-1.29651
-1.38915
-1.14545
0.132019
0.279011
0.247552
-0.0279769
-1.14006
0.17731
0.34168
0.255268
-0.0308116
-1.19694
0.263125
0.415127
0.244772
-0.0238903
-1.41941
0.197195
0.438144
0.190067
-0.00894989
-1.5973
-0.200061
0.406954
0.104464
0.00454988
-0.661871
-0.0838773
0.185393
0.23045
-0.00521647
-0.975026
0.0206318
0.252076
0.255282
-0.0114242
-1.0203
-1.25599
-1.27889
-1.23654
-1.00821
-1.03955
-1.26045
-1.30416
-1.24976
-1.21236
1.38788
1.36864
1.33329
1.28301
1.21649
1.57587
1.59593
1.60293
1.59496
1.57202
1.73225
1.765
1.79216
1.80834
1.8106
1.82212
1.86042
1.90096
1.93389
1.94909
1.81566
1.85084
1.88965
1.9214
1.93544
-0.635668
-0.733403
-0.884783
-1.06878
-1.27231
-0.067629
-0.191204
-0.356768
-0.555368
-0.796242
0.445197
0.315613
0.161047
-0.0199486
-0.23859
0.855219
0.755366
0.634212
0.488623
0.315864
1.18316
1.11454
1.02633
0.921189
0.798599
1.57903
1.53884
1.52027
1.52683
1.53105
1.56386
1.53617
1.51991
1.54257
1.59373
1.55101
1.53232
1.51795
1.56301
1.66341
1.53909
1.52715
1.51103
1.57063
1.67521
1.52798
1.52056
1.49932
1.56873
1.66378
1.63544
1.54547
1.50868
1.45205
1.3955
1.58954
1.53574
1.50338
1.47067
1.41685
1.07555
0.863665
0.498738
-0.0285956
-0.605578
1.14954
0.893356
0.515432
-0.00840576
-0.598353
)
;

boundaryField
{
    left
    {
        type            zeroGradient;
    }
    right
    {
        type            fixedValue;
        value           uniform 0;
    }
    down
    {
        type            zeroGradient;
    }
    up
    {
        type            zeroGradient;
    }
    cylinder
    {
        type            zeroGradient;
    }
    defaultFaces
    {
        type            empty;
    }
}


// ************************************************************************* //
