/*--------------------------------*- C++ -*----------------------------------*\
  =========                 |
  \\      /  F ield         | OpenFOAM: The Open Source CFD Toolbox
   \\    /   O peration     | Website:  https://openfoam.org
    \\  /    A nd           | Version:  13
     \\/     M anipulation  |
\*---------------------------------------------------------------------------*/
FoamFile
{
    format      ascii;
    class       volVectorField;
    location    "27";
    object      U;
}
// * * * * * * * * * * * * * * * * * * * * * * * * * * * * * * * * * * * * * //

dimensions      [0 1 -1 0 0 0 0];

internalField   nonuniform List<vector> 
440
(
(-0.0874467 0.059628 -7.15249e-20)
(-0.108025 0.0724548 5.61515e-20)
(0.0648328 0.0415758 1.44888e-19)
(0.521112 0.0245324 2.48526e-20)
(0.585249 0.126552 1.88742e-20)
(-0.098318 0.0556522 4.55944e-20)
(0.0799504 0.00864378 -1.39323e-19)
(0.634492 -0.0501008 -1.35205e-19)
(1.21485 -0.0846904 7.70073e-20)
(1.76428 -0.114132 2.04863e-20)
(-0.0163947 0.00334979 5.595e-20)
(0.586503 -0.0546768 8.24061e-19)
(1.41244 -0.0575209 -5.25126e-19)
(2.015 -0.0423203 -1.67269e-18)
(2.49052 -0.0368106 6.99759e-19)
(0.219904 -0.0497025 -1.812e-19)
(1.29715 -0.00244413 -5.97152e-19)
(2.06855 0.0532679 1.95571e-18)
(2.4574 0.0801105 2.14104e-18)
(2.48894 0.0859609 -6.05302e-19)
(0.607228 -0.00315328 -3.13561e-19)
(1.81438 0.177302 -6.75055e-19)
(2.33773 0.241874 2.06261e-18)
(2.45846 0.24617 2.20538e-18)
(2.5513 0.220186 7.39075e-19)
(-0.0414587 0.58854 2.0715e-19)
(-0.211555 0.828211 4.72737e-19)
(-0.351647 0.745293 -8.38394e-19)
(-0.445337 0.676937 1.07818e-19)
(-0.479097 0.65661 7.14494e-19)
(-0.0616588 0.467605 -4.09703e-20)
(-0.074525 0.951836 -2.03407e-19)
(-0.0900274 1.03261 -2.79343e-20)
(-0.0973011 0.940323 -2.48556e-20)
(-0.0739463 0.797902 4.06425e-20)
(-0.0519265 0.183174 1.00969e-19)
(-0.0571785 0.617834 -1.56396e-19)
(-0.0303555 0.855581 9.11338e-20)
(0.012777 0.920716 -1.29935e-19)
(0.087666 0.873422 5.73883e-21)
(-0.0176106 0.0319085 -3.74044e-20)
(-0.0635321 0.25224 9.14774e-20)
(-0.0586344 0.473947 1.51972e-20)
(-0.00908965 0.602738 -1.66807e-19)
(0.0402779 0.692222 1.50869e-20)
(-0.0374719 0.0244827 -5.62328e-20)
(-0.121553 0.104408 -7.75357e-20)
(-0.140669 0.205136 -2.01086e-19)
(-0.021039 0.274672 1.04513e-19)
(0.045044 0.408414 -1.53744e-19)
(-0.677998 0.587974 1.34899e-18)
(1.82488 -0.877488 2.22885e-18)
(1.14148 -0.77198 3.33609e-19)
(1.4108 0.358631 -5.59004e-19)
(1.16221 0.1517 3.53315e-20)
(-0.0218403 0.284783 -5.81631e-19)
(1.64879 -1.17069 -3.86392e-19)
(1.35933 -0.796427 1.34538e-19)
(1.44182 0.339525 6.97515e-19)
(1.22461 0.169469 -5.02078e-20)
(0.189765 0.142456 -1.86686e-19)
(1.42672 -1.30764 1.64888e-18)
(1.10572 -0.820034 -1.01975e-19)
(1.3517 0.381369 2.58332e-19)
(1.23733 0.199249 4.27646e-22)
(0.632495 0.183102 3.46446e-19)
(1.87168 -1.25069 -1.90929e-19)
(1.04972 -0.877605 5.73832e-20)
(1.11637 0.335164 2.83539e-19)
(1.25445 0.187566 -6.71862e-21)
(1.31499 -0.112533 -2.17672e-19)
(2.37846 -1.17682 6.138e-19)
(1.17279 -0.77856 0)
(0.757085 0.33381 -3.39737e-19)
(1.3228 0.141231 1.92298e-20)
(2.03416 -0.235502 -5.06912e-19)
(2.76559 -0.956505 -2.60738e-20)
(1.50892 -0.66717 -2.00964e-20)
(0.902965 0.234003 -5.01824e-20)
(1.51152 0.0227862 -7.6484e-20)
(2.3015 -0.416272 2.52479e-20)
(2.49431 -0.943073 9.53345e-19)
(0.829596 -0.24544 -1.1898e-20)
(0.982058 0.317266 1.11952e-19)
(1.58456 -0.0521831 0)
(2.22656 -0.364596 -3.44405e-19)
(2.118 -0.428032 6.91423e-21)
(0.726007 -0.0845044 -3.23951e-20)
(1.37738 0.0108094 -6.57899e-20)
(1.58881 -0.184163 -1.9782e-21)
(2.21237 -0.312831 7.37141e-20)
(1.50451 -0.329318 1.20848e-19)
(0.854842 0.0204924 -1.87885e-20)
(1.4493 -0.078259 -9.17208e-35)
(1.09193 -0.126383 -8.77209e-21)
(1.20617 -0.0922545 1.65951e-19)
(0.471989 0.0442108 -7.56759e-21)
(0.554252 -0.0515496 -1.41108e-20)
(0.398763 -0.0882527 1.50092e-20)
(0.0280968 -0.0162016 -6.23456e-21)
(2.38629 0.224817 -9.14664e-19)
(2.62434 0.00925187 -1.13188e-18)
(2.42912 0.0270621 8.68096e-19)
(2.75586 -0.161342 5.15218e-20)
(2.13916 -0.0192697 -1.59537e-20)
(2.068 0.157308 4.58021e-20)
(2.41813 -0.0152847 -3.86842e-20)
(2.21082 -0.025666 -1.25915e-19)
(2.45311 -0.177378 -2.20137e-19)
(2.33269 -0.245184 -4.78644e-21)
(2.09024 0.077755 6.41033e-20)
(2.21018 -0.0136553 1.06898e-19)
(2.20471 -0.063527 -1.42974e-19)
(2.23329 -0.134931 4.54786e-20)
(2.26757 -0.206425 2.84087e-20)
(2.08929 0.0105048 1.07778e-19)
(2.12259 -0.044871 1.09679e-19)
(2.16258 -0.0719368 -1.73814e-20)
(2.17147 -0.122367 -9.43373e-21)
(2.18934 -0.15729 2.66364e-20)
(1.5765 -0.0275723 1.48407e-19)
(1.51344 -0.0284265 -1.25165e-20)
(1.55372 -0.0443538 2.65115e-20)
(1.45786 -0.0423862 -1.07e-20)
(1.4962 -0.0661886 3.33057e-20)
(1.55709 0.8186 1.13927e-18)
(1.52212 0.924405 -3.78926e-19)
(1.52969 1.06092 -1.36691e-18)
(1.45765 1.10887 7.30215e-19)
(0.887845 0.790314 -1.66022e-19)
(1.86348 0.805594 -5.75931e-19)
(1.82771 0.87955 -3.03708e-18)
(1.83088 0.983305 -1.1683e-18)
(1.74029 0.994259 -4.04667e-19)
(1.05804 0.692506 -6.58731e-19)
(2.15222 0.662421 7.57632e-19)
(2.14293 0.737645 1.9642e-19)
(2.1216 0.829121 -2.29366e-18)
(1.98291 0.817314 -6.44253e-19)
(1.16959 0.541395 4.75458e-19)
(2.34159 0.556211 2.2727e-18)
(2.31981 0.603832 1.69488e-18)
(2.31508 0.656734 -1.96421e-18)
(2.10371 0.616936 -1.49858e-18)
(1.15242 0.358826 -2.74869e-19)
(2.4665 0.392327 1.15627e-18)
(2.49673 0.418312 -8.18758e-19)
(2.40294 0.444514 5.93291e-19)
(2.0662 0.392073 4.69837e-19)
(0.974541 0.160883 -4.01289e-19)
(0.575942 0.48766 -6.44473e-19)
(0.482647 0.524953 -4.84953e-19)
(0.363207 0.561392 5.22401e-20)
(0.22588 0.559508 -2.88752e-21)
(0.055448 0.392686 8.05674e-20)
(0.680371 0.642631 8.36332e-20)
(0.615423 0.697549 -2.90405e-19)
(0.525856 0.762139 1.74928e-19)
(0.401103 0.820107 -8.19152e-20)
(0.175105 0.621197 1.16395e-19)
(0.77361 0.858194 1.15107e-19)
(0.70316 0.941902 4.48999e-19)
(0.648096 1.03432 1.16519e-19)
(0.561977 1.062 -3.03111e-19)
(0.306547 0.772357 2.5611e-19)
(1.04548 0.902055 2.28573e-19)
(0.9957 0.982599 -7.31805e-19)
(0.950049 1.08448 -1.93287e-18)
(0.871455 1.15233 7.64612e-19)
(0.511607 0.848292 -1.55216e-19)
(1.12635 0.975942 -9.08665e-20)
(1.15998 1.09041 -1.66053e-19)
(1.17902 1.19479 -3.79424e-19)
(1.122 1.20735 -4.21541e-19)
(0.685502 0.853319 -6.56551e-21)
(1.01446 0.0385014 -8.57348e-20)
(1.00657 0.0379733 -2.81395e-20)
(1.03862 0.143304 -1.41996e-21)
(0.941024 0.140665 -1.76324e-19)
(0.909017 0.299549 2.93784e-19)
(1.00372 0.0343608 5.32117e-20)
(1.02576 0.0348091 1.07579e-19)
(1.01582 0.155778 1.16385e-19)
(0.987375 0.163937 2.48094e-20)
(0.93557 0.383778 -8.02554e-21)
(1.01428 0.0324354 7.04867e-20)
(1.00567 0.0268513 -4.30146e-21)
(1.06053 0.176761 -3.73724e-21)
(0.930871 0.161395 1.2841e-19)
(1.15096 0.52798 -4.75152e-19)
(1.01411 0.0304947 -2.54215e-22)
(1.01875 0.0197442 -1.53364e-19)
(1.03839 0.20082 -5.7796e-20)
(1.03853 0.151011 -3.35937e-19)
(1.17077 0.589647 8.0742e-20)
(1.02074 0.0229143 -1.09365e-20)
(1.00081 0.0262343 4.29462e-20)
(1.08572 0.195904 2.6306e-20)
(1.02178 0.178807 4.2383e-19)
(1.37979 0.714579 -4.70447e-19)
(0.998083 0.0263077 -4.71326e-21)
(1.04248 0.00474225 9.25512e-20)
(1.05099 0.22552 -4.93545e-20)
(1.27689 0.0923158 9.68835e-19)
(1.30883 0.788024 -3.27103e-19)
(0.955416 -0.00153709 -1.28419e-21)
(1.10596 0.0177878 -7.94947e-20)
(0.964357 0.136729 5.21147e-21)
(1.42801 0.0693487 -3.43235e-19)
(1.32067 0.576227 -8.23702e-20)
(0.978858 -0.0052571 6.19994e-21)
(1.06571 0.0291268 1.31312e-35)
(1.10377 0.0686556 -1.27237e-20)
(1.37793 0.0172913 1.07687e-19)
(1.36342 0.409349 1.67599e-19)
(1.02949 -0.035207 3.76522e-21)
(0.99914 -0.00655603 -2.44948e-20)
(1.28179 -0.0150812 2.11089e-20)
(1.08715 0.0175186 2.03105e-20)
(1.46542 0.307519 -2.50274e-19)
(0.94585 -0.0213337 -3.70712e-20)
(0.844537 -0.0267831 -1.32474e-21)
(0.941864 -0.00556158 2.63829e-20)
(0.680275 0.0100404 -2.26795e-20)
(1.17321 0.0835653 -5.69801e-20)
(1.7985 0.579543 2.75707e-19)
(1.89909 0.643208 7.22973e-19)
(2.16136 0.478697 -1.03887e-18)
(2.2204 0.47939 1.81088e-20)
(2.43816 0.263931 4.31987e-19)
(1.78542 0.377202 9.11029e-20)
(1.77199 0.443053 9.76764e-19)
(2.03776 0.31421 1.09241e-19)
(1.93741 0.330152 -8.5423e-19)
(2.27145 0.153098 -2.72085e-19)
(1.71032 0.301262 -2.22448e-19)
(1.77318 0.305754 -1.41799e-19)
(1.93082 0.226404 2.3265e-19)
(1.94245 0.20774 -2.68664e-19)
(2.11192 0.106365 2.45886e-19)
(1.69492 0.190451 3.86731e-19)
(1.81032 0.169413 1.39182e-21)
(1.88241 0.111057 2.06655e-19)
(1.96973 0.0910793 1.63228e-19)
(2.02732 0.0306304 -1.64343e-19)
(1.38279 0.0411682 -5.12324e-20)
(1.48447 0.0223172 2.41446e-19)
(1.49972 0.00794719 9.76287e-20)
(1.56284 -0.0070357 -1.97267e-19)
(1.53109 -0.0142168 5.90977e-22)
(1.16847 -0.0164584 7.3861e-20)
(2.16996 -0.0297407 -4.67462e-19)
(2.39394 -0.0198959 1.27222e-18)
(2.37478 0.0188064 5.74111e-19)
(2.18659 0.039847 -4.03103e-19)
(0.767537 0.104259 1.54559e-19)
(1.9558 0.112661 -4.97857e-19)
(2.38956 0.117985 -6.99759e-19)
(2.41488 0.123839 9.11235e-19)
(2.1864 0.108902 -6.42948e-19)
(0.290789 0.102457 1.04712e-21)
(1.37933 0.190621 5.85835e-19)
(2.08445 0.2228 8.02739e-20)
(2.43341 0.219334 7.92476e-19)
(2.50111 0.204638 4.07833e-19)
(0.015982 0.0118882 2.02646e-19)
(0.590586 0.142151 2.23584e-19)
(1.36059 0.225986 -6.29387e-19)
(1.83734 0.267048 5.52788e-20)
(2.36011 0.292216 4.43099e-19)
(-0.0482025 -0.0362192 1.05199e-19)
(0.119079 0.032081 -1.52274e-19)
(0.592109 0.138772 -1.25423e-19)
(1.05428 0.199863 1.24442e-19)
(1.51863 0.301985 6.56942e-20)
(-0.0627997 -0.0771459 2.20498e-20)
(-0.0721809 -0.0914357 8.23241e-20)
(0.0759188 -0.041981 1.1985e-19)
(0.290808 0.0525481 -4.06678e-19)
(0.707176 0.15321 2.64247e-21)
(-0.0195431 -0.0317498 1.17737e-21)
(-0.00335168 -0.039086 -6.95637e-20)
(0.0548571 0.0133881 -5.97328e-20)
(0.13906 0.105755 8.23069e-20)
(0.319775 0.248808 7.04696e-20)
(-0.0431644 -0.192706 1.98502e-20)
(0.0150403 -0.294389 -4.21807e-19)
(0.0759925 -0.23663 3.08222e-19)
(0.107947 -0.129894 1.67173e-19)
(0.154275 -0.00406215 -1.25168e-22)
(-0.0939416 -0.347654 1.36794e-19)
(-0.157516 -0.250514 7.81293e-19)
(-0.161722 0.0529275 -1.73181e-18)
(-0.191727 0.248276 -1.1597e-18)
(-0.178605 0.373852 1.53603e-19)
(-0.114116 0.0818958 -1.05738e-19)
(-0.443379 0.198511 3.18642e-19)
(-0.628951 0.317484 -8.78914e-20)
(-0.722256 0.383398 -3.82635e-20)
(-0.755529 0.438667 3.82761e-19)
(1.09712 0.720505 -6.12409e-20)
(0.413298 -0.0203187 8.86326e-19)
(1.26572 0.0938668 -6.75752e-20)
(0.60597 0.116977 2.67685e-20)
(0.461271 -0.0867855 -3.77449e-21)
(1.02384 0.829666 1.90906e-19)
(-0.147103 -0.134453 -2.91273e-19)
(1.36116 0.058137 -4.43853e-19)
(0.955121 0.196178 1.49554e-20)
(0.685725 -0.0515398 -1.28744e-20)
(0.861233 0.727998 -4.00909e-19)
(-0.965274 -0.205876 -5.0311e-19)
(1.44759 -0.133802 1.76768e-21)
(1.25238 0.273061 -2.75586e-19)
(0.888768 -0.00387966 6.47782e-21)
(0.116117 0.993896 8.35666e-19)
(-0.903368 -0.407229 -4.2411e-18)
(1.26346 -0.498722 -8.9399e-21)
(1.4464 0.343417 -1.48279e-20)
(1.06195 0.0603211 4.13191e-20)
(-0.771998 0.805896 3.20005e-20)
(0.685187 -0.755186 -5.56004e-19)
(0.91123 -0.786472 1.36659e-19)
(1.50581 0.32412 4.78511e-20)
(1.15789 0.110132 8.58367e-20)
(-0.0315429 0.143595 -1.33733e-19)
(-0.324768 -0.14793 0)
(0.119637 -0.0849615 -2.15672e-20)
(-0.133861 -0.042864 3.53283e-20)
(0.298513 -0.0288408 -9.81719e-21)
(1.55916 0.591001 0)
(0.781164 0.0996396 0)
(1.06398 0.0362495 2.721e-19)
(0.207283 -0.0142207 4.00277e-20)
(0.396125 -0.102547 3.35431e-20)
(0.706057 0.0022057 -1.28719e-19)
(0.724146 -0.00281549 2.49846e-19)
(0.933847 0.0093367 -5.0392e-20)
(0.857194 0.0158814 3.29288e-19)
(1.26201 0.116376 2.24142e-19)
(1.58994 0.0308799 1.22684e-19)
(1.70305 0.0734453 3.60346e-19)
(1.87238 0.0891035 -6.08183e-19)
(2.30612 0.220404 1.63671e-19)
(2.14599 0.234081 3.80585e-19)
(0.89531 -0.470901 -2.1828e-20)
(0.882066 -0.559728 -1.70675e-19)
(0.870979 -0.65579 -1.1668e-19)
(0.801094 -0.723151 7.13319e-20)
(0.489909 -0.56926 1.31446e-19)
(0.791019 -0.37161 1.18051e-19)
(0.736624 -0.436504 2.20562e-19)
(0.665939 -0.508531 -5.65196e-20)
(0.557274 -0.571082 1.44172e-19)
(0.306498 -0.458502 5.39156e-20)
(0.648076 -0.230505 -1.34725e-19)
(0.563491 -0.270361 -5.62756e-20)
(0.462909 -0.319246 9.33505e-20)
(0.34212 -0.362888 -2.04357e-20)
(0.15208 -0.295165 -1.27909e-19)
(0.549379 0.00174831 -4.29955e-19)
(0.463 -0.0126528 -3.51614e-19)
(0.351729 -0.0343801 2.83448e-19)
(0.224053 -0.0645242 1.63451e-19)
(0.0612466 -0.0761035 1.346e-20)
(0.524267 0.207876 -1.49101e-19)
(0.437793 0.209384 -1.59038e-19)
(0.320359 0.210183 -5.66321e-20)
(0.182552 0.216201 3.22812e-20)
(0.0266402 0.158663 1.2132e-20)
(1.97044 -0.0365004 8.15552e-19)
(2.21793 -0.0998467 2.73344e-19)
(2.30232 -0.181609 -7.21138e-19)
(2.16454 -0.207472 -1.49745e-18)
(1.31025 -0.182517 1.29834e-19)
(1.93598 -0.120564 1.33356e-18)
(2.03731 -0.229147 1.77606e-18)
(2.06352 -0.347359 1.50377e-19)
(1.98694 -0.40449 2.66309e-19)
(1.27533 -0.353197 -1.76069e-19)
(1.66601 -0.279262 -3.43221e-18)
(1.73299 -0.394865 3.70412e-19)
(1.782 -0.517466 1.08668e-18)
(1.72518 -0.589193 -4.03238e-19)
(1.12194 -0.496228 6.41944e-19)
(1.45456 -0.400696 8.23435e-19)
(1.47844 -0.499048 -2.19378e-18)
(1.47312 -0.615323 -2.49246e-18)
(1.40908 -0.698439 7.56955e-19)
(0.911286 -0.57258 5.22921e-19)
(1.1822 -0.457671 1.74002e-19)
(1.1469 -0.551015 2.53949e-19)
(1.14057 -0.670055 -3.80442e-19)
(1.08667 -0.75345 -4.58257e-19)
(0.690753 -0.5988 -4.2471e-21)
(1.07202 0.0517085 7.21481e-21)
(0.937566 0.0607005 -6.27774e-22)
(1.10852 0.084763 6.76946e-21)
(0.817101 0.00975353 -2.4492e-19)
(1.06255 -0.192906 -1.75203e-20)
(1.08108 0.0529433 -2.37539e-21)
(0.93384 0.0583248 3.00004e-20)
(1.11065 0.103179 -1.09758e-20)
(0.897261 0.0583533 1.92358e-19)
(0.974331 -0.0788439 -1.70075e-21)
(1.07814 0.0478792 -5.66161e-20)
(0.937204 0.0545579 -3.62996e-23)
(1.09743 0.107039 -1.17752e-20)
(0.900772 0.0806064 1.08768e-19)
(0.942842 -0.016656 -2.30068e-19)
(1.05765 0.0450708 6.75695e-20)
(0.962819 0.0491474 2.94819e-21)
(1.06635 0.115964 2.53871e-20)
(0.930112 0.105472 -4.90836e-20)
(0.863096 0.0906748 7.43408e-20)
(1.02994 0.0405413 1.67594e-20)
(0.995424 0.0465116 -2.39983e-20)
(1.03526 0.124234 3.79412e-20)
(0.955378 0.130864 3.87242e-20)
(0.842719 0.194655 -6.93445e-20)
(0.89157 0.0339359 0)
(0.711659 0.028421 9.48061e-21)
(0.590651 0.0222778 6.41011e-21)
(0.337083 -0.00547389 4.46471e-20)
(0.645883 -0.0507528 -1.52617e-19)
(1.03894 0.0734769 -6.42278e-20)
(0.946333 0.0755876 -7.05594e-21)
(1.0112 0.0839472 -5.71823e-20)
(0.797599 0.00213654 -1.44587e-19)
(1.00476 -0.180276 -1.6455e-19)
(0.891424 -0.0655832 -3.60203e-20)
(0.978832 -0.0322647 5.27242e-19)
(1.06711 0.0349301 3.1039e-19)
(0.947353 0.0503591 3.22377e-20)
(0.737591 0.0267916 0)
(1.24372 -0.305405 3.44097e-19)
(1.357 -0.269937 1.4792e-18)
(1.52713 -0.152236 -1.59331e-18)
(1.62276 -0.0212532 -4.9209e-19)
(1.53171 0.026286 3.83057e-19)
)
;

boundaryField
{
    left
    {
        type            fixedValue;
        value           uniform (1 0 0);
    }
    right
    {
        type            zeroGradient;
    }
    down
    {
        type            noSlip;
    }
    up
    {
        type            noSlip;
    }
    cylinder
    {
        type            noSlip;
    }
    defaultFaces
    {
        type            empty;
    }
}


// ************************************************************************* //
