# Selection   : all
# Cells       : 440
# Volume      : 7.374263e+01
# Time        	min(p)
7.615         	-1.273670e+00
7.66          	-1.297599e+00
7.71          	-1.328416e+00
