# Selection   : all
# Cells       : 440
# Volume      : 7.374263e+01
# Time        	maxMag(U)
5.015         	2.714909e+00
5.06          	2.725787e+00
5.11          	2.737799e+00
