/*--------------------------------*- C++ -*----------------------------------*\
  =========                 |
  \\      /  F ield         | OpenFOAM: The Open Source CFD Toolbox
   \\    /   O peration     | Website:  https://openfoam.org
    \\  /    A nd           | Version:  13
     \\/     M anipulation  |
\*---------------------------------------------------------------------------*/
FoamFile
{
    format      ascii;
    class       surfaceScalarField;
    location    "1.695";
    object      phi;
}
// * * * * * * * * * * * * * * * * * * * * * * * * * * * * * * * * * * * * * //

dimensions      [0 3 -1 0 0 0 0];

internalField   nonuniform List<scalar> 
823
(
0.0146034
0.0237568
-0.0383602
0.0728018
-0.0215568
-0.0366416
0.167548
-0.121577
0.0268305
0.269453
-0.215205
0.1133
-0.286396
0.205421
0.350428
0.0236398
0.000117062
0.107877
-0.105794
0.211793
-0.225493
0.301569
-0.304981
-0.348841
0.364014
0.0395889
-0.0394719
0.132859
-0.199064
0.215569
-0.308203
0.269178
-0.35859
-0.375088
0.295425
0.0542324
-0.0937042
0.129635
-0.274467
0.17938
-0.357949
0.204825
-0.384035
-0.389343
0.21908
0.0521717
-0.145876
0.100022
-0.322316
0.122004
-0.379931
0.128839
-0.39087
0.128525
-0.389029
-0.0295834
0.0459091
-0.0163257
-0.0678813
0.0519663
-0.0136684
-0.0953632
0.0286196
-0.00113773
-0.106143
-0.00235946
0.0131398
-0.0284606
-0.10103
0.0233473
-0.0211398
0.0670489
-0.0526805
0.083507
-0.0777555
0.0536946
-0.0872541
0.00713911
-0.0405342
-0.0751805
-0.00161413
0.068663
-0.0110483
0.0929411
-0.019761
0.0624074
-0.0180321
0.00541015
-0.0697729
0.0112067
0.0151797
0.0534833
0.0350212
0.0730996
0.0618844
0.0355442
0.0996364
-0.0323419
-0.131032
0.160895
0.0151231
0.0515811
0.113956
0.194914
0.269303
0.150793
-0.589207
0.337384
0.312362
-0.441596
0.280027
0.379916
-0.239324
0.171771
0.403778
-0.140373
0.116511
-0.0562326
0.0538484
0.141581
-0.805969
0.307868
-0.607883
0.379359
-0.310816
0.404916
-0.165931
-0.060207
0.179726
-0.974489
0.310512
-0.738668
0.378327
-0.378631
0.405234
-0.192838
-0.0672724
0.256739
-1.07033
0.329941
-0.81187
0.380368
-0.429058
0.405524
-0.217993
-0.0782406
0.32935
-1.13038
0.359856
-0.842376
0.388011
-0.457214
0.40724
-0.237222
-0.0930461
1.08746
-0.961705
-1.25613
0.872276
-0.627195
0.742022
-0.32696
0.678612
-0.173811
-0.0719892
1.00998
-0.678749
-1.29294
0.814458
-0.431673
0.719868
-0.23237
0.674346
-0.128289
-0.053989
1.02764
-0.446252
-1.26014
0.850704
-0.254738
0.743801
-0.125467
0.684809
-0.0692968
-0.0305588
0.97626
-0.216088
-1.20642
0.811774
-0.0902516
0.715657
-0.029351
0.663212
-0.016851
-0.00921198
0.608873
-0.824961
0.518621
0.48927
0.472419
1.07142
0.0756845
-1.01858
1.10605
0.18446
1.18896
0.212512
1.23314
0.319829
0.32744
0.993133
0.0373723
-0.954821
1.0478
0.129798
1.1143
0.146003
1.20864
0.22549
0.243148
0.954381
0.0145661
-0.931575
1.0114
0.0727799
1.07161
0.0857882
1.16281
0.134289
0.145827
0.907994
-0.00282455
-0.890603
0.959696
0.0210779
1.0199
0.0255868
1.10802
0.046162
0.0474279
0.684707
-0.687531
0.705785
0.731372
0.777534
0.115271
0.298764
-0.253771
-0.160264
0.0753571
0.306032
-0.266118
0.0404043
0.316185
-0.281232
0.0122388
0.307904
-0.279738
0.199907
-0.187668
0.101364
0.335424
-0.138024
0.0665926
0.340803
0.0341816
0.348596
0.00864548
0.33344
0.208552
0.0586447
0.361831
-0.085051
0.0320778
0.36737
0.00909124
0.371582
-0.00482047
0.347352
0.203732
0.0098676
0.381021
-0.0290576
-0.0090556
0.386294
-0.0214549
0.383982
-0.0195442
0.345441
0.184188
-0.0609108
0.0529023
-0.0654869
-0.0614364
-0.0383118
0.184961
0.103198
-0.234155
-0.0540039
0.134834
0.107674
-0.0575479
0.083765
0.112873
-0.0618036
0.0341245
0.11375
-0.0641091
0.0816834
-0.0475589
0.187858
0.148456
-0.233115
0.141193
0.154338
0.0907775
0.163289
0.0382236
0.166303
0.119907
0.154656
0.192523
-0.198724
0.111572
0.197423
0.0682673
0.206593
0.0264573
0.208114
0.146364
0.146444
0.227314
-0.181234
0.107428
0.236439
0.0649547
0.249066
0.0243945
0.248674
0.170759
0.109819
-0.136276
0.0801396
0.0479739
0.0169092
0.411126
0.0263128
-0.0414588
0.417252
0.0845996
-0.0907258
0.409901
0.176212
-0.168861
0.373153
0.23243
-0.195682
0.468384
-0.329386
0.408432
0.01386
0.412094
0.0809375
0.401501
0.186805
0.367525
0.266406
0.602794
0.403433
0.00640627
0.403951
0.0804197
0.383795
0.206962
0.362553
0.287648
0.766623
0.39709
0.00529568
0.38967
0.0878398
0.368666
0.227966
0.337917
0.318397
0.923305
0.388752
0.0125236
0.374191
0.1024
0.338063
0.264094
0.312588
0.343872
1.09962
0.618851
-0.00230721
0.634601
0.0866507
0.67002
0.228675
0.762388
0.251503
0.880457
0.981549
0.621192
-0.0194784
0.645296
0.0625461
0.707326
0.166646
0.774302
0.184527
0.67821
0.976549
0.623035
-0.0384926
0.659895
0.0256854
0.725422
0.10112
0.780165
0.129784
0.448837
1.00954
0.619476
-0.053948
0.661665
-0.0165035
0.72339
0.0393944
0.788078
0.0650959
0.214292
1.02262
0.550072
0.533569
0.572963
0.638059
0.852351
0.996043
-0.174759
0.994348
-0.136329
0.987481
-0.0781838
1.00512
-0.0466923
0.0394336
0.951548
-0.149757
0.939441
-0.124222
0.930152
-0.0688948
0.938796
-0.0553368
0.0234083
0.964336
-0.104556
0.934646
-0.0945314
0.921836
-0.0560852
0.913674
-0.0471745
0.00550768
0.967043
-0.0489761
0.919573
-0.0470614
0.896037
-0.0325488
0.878012
-0.02915
-0.00708338
0.803375
0.756314
0.723765
0.694615
0.0511841
0.145356
-0.19654
0.0756569
0.325977
-0.35045
0.0747852
0.382762
-0.38189
0.0646965
0.388372
-0.378283
0.358616
0.0532309
-0.347151
0.0770052
0.0683508
0.153312
0.24967
0.190084
0.345989
0.196994
0.381462
0.377462
0.178149
0.0616488
0.00670208
0.184743
0.126576
0.285031
0.245701
0.348731
0.317763
0.374645
0.351547
0.0253247
-0.0186226
0.133377
0.0185238
0.269344
0.109734
0.410024
0.177084
0.274111
0.510557
0.00571184
-0.0243345
0.0662959
-0.0420603
0.181932
-0.00590241
0.331644
0.0273718
0.132426
0.47333
0.0201605
-0.044495
0.0628468
-0.0847466
0.132318
-0.0753733
0.213732
-0.0540421
0.0309172
0.31524
0.0201086
-0.0646035
0.0364895
-0.101128
0.0500479
-0.0889317
0.0548933
-0.0588876
-0.0064727
0.0922832
-0.0185125
-0.0460911
-0.0522645
-0.0673755
-0.0833283
-0.0578679
-0.103692
-0.0385244
-0.0165031
-0.0936611
-0.0322763
-0.0138148
-0.0747508
-0.024901
-0.105838
-0.0267804
-0.12054
-0.0238223
-0.0190192
-0.118024
-0.0301405
-0.0687099
-0.0966281
-0.107311
-0.102982
0.38887
0.49824
-0.57187
0.349331
0.289697
-0.250158
0.350495
0.103549
-0.104713
0.377506
0.00181309
-0.0288245
-0.0211355
-0.000510303
0.195535
0.394988
0.282762
0.202471
0.34923
0.0370816
0.386019
-0.0349764
-0.0363986
0.112767
0.188559
0.284694
0.0305441
0.360412
-0.0386366
0.391814
-0.0663782
-0.0460554
0.140145
-0.0696094
0.302295
-0.131606
0.370889
-0.107231
0.39739
-0.0928785
-0.0511811
0.164792
0.313213
0.377753
0.401385
0.232159
0.408956
-0.641115
0.226673
0.00548558
0.288306
-0.0616327
0.323442
-0.0351359
-0.0103923
0.997334
-1.16025
0.752661
0.586315
0.522355
0.0877056
-0.0146498
-0.0730557
0.147201
-0.0594956
0.250882
-0.103681
0.437976
-0.187095
-0.203139
0.200073
-0.161492
0.318727
0.566593
0.890056
0.14049
-0.128329
0.160398
-0.172558
0.107178
-0.133715
0.167027
0.0699966
-0.140651
0.177833
0.0291456
-0.139287
0.180138
-0.0955243
0.12467
0.182974
-0.0903232
-0.22098
0.139479
-0.0902203
0.0890118
-0.0901844
0.0369534
-0.0872291
-0.0585709
0.169721
-0.0416814
-0.218363
0.120924
-0.0414232
0.0732938
-0.0425544
0.0290576
-0.0429929
-0.0295132
0.19244
0.00605151
-0.240173
0.143284
0.00773261
0.0915342
0.00919576
0.038381
0.0101602
0.00886781
0.195063
-0.243016
0.145248
0.09264
0.0386911
0.0454199
-0.323766
-0.0688053
0.0173108
-0.350174
-0.00656555
-0.358014
-0.0167429
-0.340272
-0.213283
0.129376
-0.291544
-0.161597
0.085826
-0.306624
0.0422214
-0.314409
0.00917357
-0.307225
-0.204109
0.152165
-0.24771
-0.195998
0.105561
-0.260021
0.0614054
-0.270253
0.022037
-0.267856
-0.182072
0.167249
-0.209231
-0.205729
0.122747
-0.215519
0.0757389
-0.223245
0.0303028
-0.22242
-0.15177
0.163285
-0.212119
0.114794
0.0693813
0.0270997
0.392495
0.0838483
-0.0803639
0.379214
0.108114
-0.0948329
0.333307
0.0927104
-0.0468032
0.302681
0.0417022
-0.0110766
-0.161648
0.291771
0.400106
0.0797216
0.39794
0.11028
0.366716
0.123934
0.328618
0.0798006
-0.0540096
0.405272
0.0704291
0.410682
0.10487
0.385823
0.148793
0.349999
0.115625
0.0776262
0.40945
0.0569587
0.416456
0.0978647
0.403747
0.161502
0.363893
0.155479
0.201346
0.411479
0.418618
0.411259
0.371056
0.426962
0.0830894
0.351525
0.0754367
0.320818
0.0307067
0.326518
-0.00570027
-0.154838
0.481356
0.512777
0.49338
0.477284
0.460507
0.59744
0.380498
0.100858
0.289756
0.0907427
0.188632
0.101124
0.107186
0.0814458
0.0341303
0.486179
0.371193
0.276319
0.196167
)
;

boundaryField
{
    left
    {
        type            calculated;
        value           nonuniform List<scalar> 
17
(
-0.60402
-0.60402
-0.60402
-0.60402
-0.60402
-0.39598
-0.39598
-0.39598
-0.39598
-0.39598
-0.39598
-0.39598
-0.39598
-0.39598
-0.39598
-0.510051
-0.510051
)
;
    }
    right
    {
        type            calculated;
        value           nonuniform List<scalar> 
17
(
0.333834
0.511452
0.399152
0.401282
0.40147
0.402515
0.404053
0.406162
0.408891
0.412299
0.416492
0.422045
0.657555
0.656346
0.661379
0.641865
0.463207
)
;
    }
    down
    {
        type            calculated;
        value           uniform 0;
    }
    up
    {
        type            calculated;
        value           uniform 0;
    }
    cylinder
    {
        type            calculated;
        value           uniform 0;
    }
    defaultFaces
    {
        type            empty;
    }
}


// ************************************************************************* //
