# Selection   : all
# Cells       : 440
# Volume      : 7.374263e+01
# Time        	minMag(U)
7.115         	2.186824e-03
7.16          	1.986203e-03
7.21          	3.310184e-03
