# Selection   : all
# Cells       : 440
# Volume      : 7.374263e+01
# Time        	min(p)
9.015         	-1.739210e+00
9.06          	-1.732827e+00
9.11          	-1.696867e+00
