/*--------------------------------*- C++ -*----------------------------------*\
  =========                 |
  \\      /  F ield         | OpenFOAM: The Open Source CFD Toolbox
   \\    /   O peration     | Website:  https://openfoam.org
    \\  /    A nd           | Version:  13
     \\/     M anipulation  |
\*---------------------------------------------------------------------------*/
FoamFile
{
    format      ascii;
    class       surfaceScalarField;
    location    "0.77";
    object      phi;
}
// * * * * * * * * * * * * * * * * * * * * * * * * * * * * * * * * * * * * * //

dimensions      [0 3 -1 0 0 0 0];

internalField   nonuniform List<scalar> 
3485
(
0.00137166
-0.011258
0.00988633
0.00505114
-0.0319068
0.0282273
0.0107642
-0.0513829
0.0456699
0.0183125
-0.0696769
0.0621286
0.0275453
-0.0868351
0.0776023
0.0383483
-0.102901
0.0920981
0.0506329
-0.117906
0.105622
0.0643561
-0.131871
0.118148
0.0796153
-0.144861
0.129602
-0.156895
0.139504
0.0970063
0.00150033
-0.0127583
0.00544581
-0.0358522
0.0114761
-0.0574132
0.0193235
-0.0775243
0.0287727
-0.0962843
0.0396466
-0.113775
0.0518007
-0.13006
0.0651272
-0.145197
0.0795346
-0.159269
-0.172197
0.0948368
0.00147418
-0.0142325
0.00532698
-0.039705
0.0111745
-0.0632607
0.0187208
-0.0850706
0.0277252
-0.105289
0.0379883
-0.124038
0.0493442
-0.141416
0.0616532
-0.157506
0.0747833
-0.172399
-0.186037
0.088623
0.00133886
-0.0155714
0.00485902
-0.0432252
0.0102108
-0.0686125
0.017117
-0.0919768
0.0253538
-0.113526
0.0347401
-0.133424
0.0451299
-0.151806
0.0564033
-0.16878
0.0684535
-0.184449
-0.198791
0.081207
0.00116693
-0.0167383
0.00425599
-0.0463143
0.00897313
-0.0733297
0.0150817
-0.0980853
0.0223916
-0.120835
0.0307523
-0.141785
0.0400459
-0.1611
0.0501799
-0.178914
0.0610765
-0.195346
-0.210402
0.0726881
0.000980023
-0.0177183
0.00358795
-0.0489222
0.0075866
-0.0773283
0.0127839
-0.103283
0.019026
-0.127078
0.0261924
-0.148951
0.0341912
-0.169099
0.0429531
-0.187676
0.052423
-0.204816
-0.220549
0.0625699
0.000780725
-0.018499
0.002865
-0.0510064
0.00606897
-0.0805323
0.0102428
-0.107456
0.0152665
-0.132101
0.0210466
-0.154732
0.0275141
-0.175566
0.0346203
-0.194782
0.042331
-0.212526
-0.228851
0.0506325
0.000569702
-0.0190687
0.00209346
-0.0525302
0.00443786
-0.0828767
0.00749266
-0.110511
0.0111686
-0.135777
0.0153968
-0.15896
0.0201274
-0.180297
0.0253294
-0.199984
0.0309863
-0.218183
-0.234967
0.0371029
0.000352506
-0.0194212
0.00129576
-0.0534735
0.00274501
-0.084326
0.00462832
-0.112395
0.00688645
-0.138035
0.00947306
-0.161546
0.0123552
-0.183179
0.0155142
-0.203143
0.0189447
-0.221614
-0.238684
0.0226615
0.000137794
-0.019559
0.000502459
-0.0538381
0.00105696
-0.0848805
0.00176953
-0.113107
0.0026137
-0.138879
0.00356838
-0.162501
0.00461808
-0.184229
0.00575329
-0.204278
0.00697055
-0.222831
0.00827495
-0.239988
0.0004884
-0.00186914
0.00138074
0.00208889
-0.00625525
0.00465476
0.00543069
-0.011423
0.00808124
0.0101193
-0.0161973
0.0115086
0.0155445
-0.02019
0.0147648
0.0214427
-0.0235858
0.0176876
0.0279097
-0.0267667
0.0202997
0.0350939
-0.0299613
0.0227771
0.0429802
-0.0331216
0.0252353
-0.0360955
0.0514348
0.0276409
0.000426981
-0.00229612
0.00211106
-0.00793933
0.00543873
-0.0147507
0.00981633
-0.0205749
0.0148888
-0.0252624
0.0207655
-0.0294625
0.0276193
-0.0336206
0.0353986
-0.0377406
0.0438918
-0.0416148
-0.0451376
0.0529339
0.000682787
-0.00297891
0.00271653
-0.00997307
0.00578033
-0.0178145
0.00976302
-0.0245575
0.0148173
-0.0303167
0.0211157
-0.0357609
0.0285891
-0.041094
0.036958
-0.0461094
0.0460033
-0.0506601
-0.0547684
0.0556341
0.000868469
-0.00384738
0.00306116
-0.0121658
0.00607935
-0.0208327
0.0102013
-0.0286795
0.0156999
-0.0358153
0.0225584
-0.0426194
0.0305345
-0.0490702
0.0393916
-0.0549664
0.0490343
-0.0603028
-0.0651149
0.0593808
0.000923193
-0.00477057
0.00320083
-0.0144434
0.00651934
-0.0241512
0.0111175
-0.0332776
0.017136
-0.0418338
0.0244495
-0.0499329
0.0328662
-0.0574869
0.0422886
-0.0643888
0.0526538
-0.070668
-0.0762904
0.0638293
0.000944
-0.00571457
0.00337292
-0.0168723
0.00709162
-0.0278699
0.0121747
-0.0383607
0.0186333
-0.0482923
0.0263561
-0.0576557
0.0352459
-0.0663767
0.0452556
-0.0743986
0.0563068
-0.0817192
-0.0882252
0.0682416
0.000980043
-0.00669462
0.00358419
-0.0194765
0.00764145
-0.0319272
0.0131071
-0.0438264
0.0199257
-0.0551109
0.0280108
-0.0657408
0.0373002
-0.0756662
0.0477481
-0.0848464
0.0592813
-0.0932524
-0.100699
0.071755
0.00101807
-0.00771268
0.00376787
-0.0222263
0.00807118
-0.0362305
0.0138198
-0.049575
0.0209192
-0.0622104
0.0292806
-0.0741021
0.0388342
-0.0852198
0.0495235
-0.0955356
0.0612898
-0.105019
-0.113442
0.074033
0.00105466
-0.00876734
0.00393679
-0.0251084
0.00846102
-0.0407547
0.014482
-0.055596
0.0218735
-0.0696019
0.0305253
-0.0827538
0.0403419
-0.0950364
0.0512346
-0.106428
0.0631225
-0.116907
-0.12632
0.0760007
0.00111898
0.00423787
0.00915306
0.0156857
0.023686
0.0330303
0.0436156
0.0553349
0.0680305
0.0812142
0.11434
-0.414542
0.351638
0.168146
-0.471803
0.417996
0.210284
-0.421902
0.379764
0.244149
-0.326603
0.292739
0.270929
-0.214225
0.187444
0.291469
-0.109688
0.0891483
0.304751
-0.0304531
0.017171
0.309599
0.0124224
-0.0172703
0.309861
0.0247388
-0.0250011
0.0197926
-0.0183751
0.115921
-0.477529
0.169708
-0.52559
0.21182
-0.464015
0.24543
-0.360212
0.272358
-0.241153
0.29368
-0.131011
0.309665
-0.0464373
0.318373
0.00371364
0.321699
0.0214133
0.0196672
0.117729
-0.539625
0.170534
-0.578395
0.212241
-0.505722
0.24524
-0.393211
0.272034
-0.267947
0.293656
-0.152632
0.31112
-0.0639016
0.323146
-0.00831193
0.330601
0.0139581
0.0168222
0.120109
-0.600353
0.170901
-0.629187
0.211726
-0.546547
0.243808
-0.425293
0.270202
-0.294341
0.291892
-0.174322
0.310069
-0.0820784
0.323676
-0.0219186
0.335164
0.00247024
0.00936255
0.123007
-0.659531
0.171013
-0.677193
0.210406
-0.585939
0.241322
-0.45621
0.267051
-0.32007
0.288689
-0.195961
0.307289
-0.100678
0.321679
-0.0363084
0.335446
-0.0112967
-0.00163406
0.125864
-0.717153
0.170898
-0.722227
0.208364
-0.623405
0.237921
-0.485768
0.262727
-0.344876
0.284214
-0.217447
0.303136
-0.1196
0.318302
-0.0514747
0.332762
-0.0257565
-0.0132181
0.127802
-0.7732
0.17037
-0.764796
0.205647
-0.658682
0.233723
-0.513844
0.257374
-0.368527
0.278554
-0.238627
0.29775
-0.138797
0.314039
-0.0677637
0.327472
-0.0391893
-0.0222627
0.127884
-0.827051
0.168948
-0.80586
0.202119
-0.691852
0.228696
-0.540421
0.251044
-0.390875
0.271708
-0.25929
0.291265
-0.158354
0.308037
-0.0845359
0.31891
-0.0500621
-0.0285268
0.125805
-0.876855
0.166223
-0.846279
0.197726
-0.723355
0.222925
-0.56562
0.24387
-0.41182
0.263634
-0.279054
0.283348
-0.178069
0.298191
-0.0993784
0.305761
-0.0576322
-0.0345915
0.122121
-0.917762
0.161396
-0.885553
0.191598
-0.753557
0.215703
-0.589725
0.235339
-0.431457
0.254322
-0.298037
0.271516
-0.195263
0.28348
-0.111343
0.290615
-0.0647671
-0.041108
0.583951
-0.920237
-0.581475
0.561182
-0.862785
0.52395
-0.716325
0.487881
-0.553655
0.460511
-0.404087
0.444189
-0.281715
0.433307
-0.184381
0.427628
-0.105664
0.424379
-0.0615183
-0.0395677
0.682867
-0.871644
-0.731459
0.619681
-0.799599
0.553876
-0.65052
0.496323
-0.496102
0.450818
-0.358582
0.418922
-0.249818
0.399681
-0.16514
0.390996
-0.0969798
0.386072
-0.0565941
-0.0366313
0.753989
-0.775205
-0.850428
0.655094
-0.700704
0.563382
-0.558809
0.487302
-0.420022
0.429387
-0.300668
0.389217
-0.209648
0.364367
-0.14029
0.352159
-0.084772
0.345609
-0.0500439
-0.032561
0.778976
-0.641699
-0.912482
0.653714
-0.575442
0.546219
-0.451314
0.460931
-0.334734
0.39794
-0.237677
0.354192
-0.1659
0.32625
-0.112347
0.31144
-0.0699622
0.303421
-0.0420251
-0.0275922
0.75297
-0.49244
-0.902229
0.617542
-0.440014
0.506149
-0.33992
0.420043
-0.248628
0.357449
-0.175083
0.313895
-0.122346
0.285334
-0.0837867
0.269065
-0.0536932
0.259944
-0.0329045
-0.0219722
0.685099
-0.345838
-0.831701
0.552692
-0.307608
0.446437
-0.233665
0.365967
-0.168158
0.308239
-0.117355
0.268044
-0.0821505
0.241132
-0.0568752
0.224882
-0.0374433
0.215333
-0.0233549
-0.0160543
0.582617
-0.213862
-0.714593
0.462887
-0.187877
0.369311
-0.140089
0.299932
-0.098779
0.250879
-0.0683012
0.216719
-0.0479907
0.193438
-0.0335943
0.178697
-0.0227018
0.169623
-0.0142811
-0.0103068
0.448758
-0.105524
-0.557096
0.351177
-0.0902967
0.277055
-0.0659673
0.223524
-0.0452479
0.186256
-0.0310335
0.160259
-0.0219929
0.14224
-0.0155755
0.13037
-0.0108321
0.122797
-0.00670788
-0.0052888
0.286591
-0.0302208
-0.361894
0.22091
-0.0246155
0.172489
-0.0175466
0.138711
-0.0114698
0.115475
-0.00779695
0.0991142
-0.00563256
0.0875892
-0.00405051
0.0797245
-0.00296747
0.0747194
-0.00170272
-0.00163376
0.101316
-0.131536
0.0767
0.0591534
0.0476836
0.0398867
0.0342541
0.0302036
0.0272361
0.0255334
0.738821
0.0102224
-0.740768
0.733075
0.0284074
0.723436
0.0467417
0.710163
0.0639056
0.69357
0.0791628
0.674076
0.0921817
0.652272
0.103011
0.628712
0.112183
0.604268
0.119281
0.119799
0.845548
0.0133982
-0.848724
0.837321
0.0366347
0.827288
0.0567752
0.816593
0.0746
0.80525
0.0905058
0.792896
0.104536
0.779283
0.116624
0.764587
0.126879
0.749122
0.134746
0.137461
0.844982
0.0114254
-0.84301
0.848882
0.032735
0.853019
0.0526381
0.856471
0.0711486
0.858832
0.0881443
0.859919
0.103449
0.859595
0.116949
0.857966
0.128507
0.855299
0.137413
0.142333
0.800213
0.00930452
-0.798092
0.805821
0.0271271
0.814418
0.0440406
0.825636
0.0599304
0.839001
0.0747796
0.85385
0.0886003
0.869419
0.101379
0.885052
0.112873
0.899938
0.122527
0.129789
0.737866
0.00703881
-0.7356
0.744154
0.0208385
0.754123
0.0340715
0.767503
0.0465502
0.784083
0.0582
0.803661
0.0690226
0.825989
0.0790513
0.850622
0.0882399
0.876543
0.0966066
0.104103
0.653921
0.00485402
-0.651736
0.660203
0.0145561
0.670378
0.0238963
0.684221
0.0327074
0.701525
0.040896
0.722111
0.048436
0.745806
0.0553568
0.77233
0.0617161
0.801217
0.067719
0.0736192
0.549112
0.00291612
-0.547174
0.554812
0.00885592
0.564138
0.0145706
0.576905
0.01994
0.592915
0.0248867
0.611968
0.0293826
0.633871
0.033454
0.658407
0.0371802
0.685379
0.0407462
0.044406
0.422793
0.00137573
-0.421252
0.427413
0.00423596
0.435008
0.00697561
0.445422
0.00952586
0.45847
0.0118387
0.473957
0.0138957
0.491697
0.0157138
0.511527
0.0173497
0.533346
0.0189271
0.0206561
0.273828
0.000366663
-0.272819
0.276915
0.00114944
0.281999
0.00189174
0.288955
0.00256941
0.297629
0.00316446
0.307856
0.00366914
0.319482
0.00408804
0.332395
0.00443667
0.346561
0.0047604
0.0053232
0.100484
-0.100117
0.101633
0.103525
0.106094
0.109259
0.112928
0.117016
0.121453
0.126213
0.0779307
0.159503
-0.14249
-0.0949438
0.063027
0.14746
-0.132556
0.0496179
0.134405
-0.120996
0.037603
0.120332
-0.108317
0.0270262
0.10517
-0.0945936
0.0179777
0.0888942
-0.0798457
0.0105728
0.0714605
-0.0640556
0.00496326
0.0528094
-0.0471999
0.001348
0.0328743
-0.0292591
0.011639
-0.010291
0.0779404
0.174433
-0.0928702
0.0638708
0.161529
0.0508396
0.147437
0.038938
0.132233
0.028276
0.115832
0.0190002
0.09817
0.0112896
0.0791712
0.00535958
0.0587394
0.00147721
0.0367567
0.0131162
0.0731794
0.187928
-0.0866742
0.06037
0.174339
0.0483504
0.159456
0.0372487
0.143335
0.0272031
0.125878
0.0183793
0.106994
0.0109766
0.0865738
0.00523535
0.0644807
0.00144963
0.0405424
0.0145658
0.066771
0.200353
-0.079196
0.0550332
0.186076
0.0440494
0.17044
0.0339217
0.153463
0.0247665
0.135033
0.016727
0.115033
0.00998166
0.0933192
0.00475146
0.0697109
0.00130965
0.0439842
0.0158755
0.0593125
0.211657
-0.0706164
0.0487154
0.196674
0.0388674
0.180288
0.0298412
0.162489
0.0217243
0.14315
0.0146296
0.122128
0.00870232
0.0992464
0.00412644
0.0742867
0.00113096
0.0469797
0.0170064
0.0505982
0.221521
-0.0604622
0.0414111
0.205861
0.0329275
0.188772
0.0251972
0.170219
0.0182837
0.150064
0.0122721
0.12814
0.00727495
0.104244
0.00343653
0.0781252
0.000937282
0.049479
0.0179437
0.0404573
0.229564
-0.0485003
0.0330127
0.213305
0.0261764
0.195608
0.0199773
0.176418
0.0144574
0.155584
0.00967744
0.13292
0.00572043
0.108201
0.00269376
0.0811518
0.000731837
0.0514409
0.0186756
0.0290542
0.235441
-0.0349317
0.0236512
0.218708
0.0187147
0.200544
0.0142551
0.180878
0.0102962
0.159542
0.00687751
0.136338
0.00405559
0.111022
0.00190426
0.0833032
0.000515281
0.0528299
0.0191908
0.0169174
0.238926
-0.0204019
0.0137418
0.221884
0.0108549
0.203431
0.0082548
0.183478
0.00595147
0.161846
0.00396648
0.138323
0.00233218
0.112657
0.00109066
0.0845447
0.00029324
0.0536273
0.0194841
0.00482783
-0.00589043
0.00388041
0.00303402
0.0022834
0.00162816
0.001072
0.000621615
0.000285827
7.49707e-05
0.0436649
0.0414068
-0.0525628
-0.0325089
0.0352868
0.0383576
-0.0299795
0.0276155
0.0349577
-0.0272864
0.020878
0.0313424
-0.0246049
0.015077
0.0277744
-0.0219734
0.00997079
0.0242159
-0.0191097
0.00544124
0.0200797
-0.0155502
0.00197538
0.0144677
-0.0110018
0.00038661
0.00739722
-0.00580844
0.00208845
-0.00170183
0.0437642
0.05058
-0.0529374
0.0351103
0.0470114
0.0270669
0.0430011
0.0199167
0.0384926
0.0139766
0.0337146
0.00925405
0.0289384
0.00550436
0.0238294
0.00257584
0.0173962
0.000621683
0.00935138
0.00271013
0.0449432
0.0601389
-0.0545021
0.0360174
0.0559372
0.0277759
0.0512426
0.0203353
0.0459332
0.0140215
0.0400284
0.00909948
0.0338604
0.00551544
0.0274135
0.00289235
0.0200193
0.000809553
0.0114342
0.00351969
0.0473685
0.070327
-0.0575565
0.0379314
0.0653743
0.0293602
0.0598138
0.0216928
0.0536006
0.0150542
0.0466669
0.0097036
0.0392111
0.00576281
0.0313543
0.00295927
0.0228228
0.000875094
0.0135184
0.00439478
0.0508339
0.0812541
-0.061761
0.0407294
0.0754788
0.0316115
0.0689317
0.0235425
0.0616696
0.0165455
0.053664
0.0107471
0.0450095
0.00628258
0.0358188
0.00306179
0.0260436
0.000880457
0.0156997
0.00527524
0.0545312
0.0928517
-0.0661288
0.0438094
0.0862005
0.0341267
0.0786145
0.0255579
0.0702385
0.0181247
0.0610971
0.0118834
0.0512508
0.00692899
0.0407732
0.00327875
0.0296938
0.000908592
0.0180698
0.00618383
0.0575848
0.104934
-0.069667
0.0464248
0.0973605
0.0363214
0.0887179
0.0273345
0.0792253
0.0195003
0.0689314
0.0128689
0.0578821
0.00752019
0.0461219
0.00352533
0.0336887
0.000959651
0.0206355
0.00714348
0.0596414
0.117261
-0.0719687
0.0482638
0.108738
0.0379212
0.0990605
0.0286588
0.0884876
0.0205284
0.0770618
0.013599
0.0648116
0.00796172
0.0517593
0.00372186
0.0379286
0.00100533
0.0233521
0.00814881
0.0614549
0.129715
-0.073909
0.0499571
0.120236
0.0394078
0.10961
0.0298786
0.0980168
0.0214557
0.0854847
0.0142362
0.072031
0.00833459
0.0576609
0.0038846
0.0423785
0.00104191
0.0261947
0.00919072
0.0663109
-0.0790857
0.053991
0.0426044
0.0323043
0.0231954
0.0153807
0.00898599
0.00416462
0.00110026
0.21384
0.0618563
-0.0777065
0.236528
0.0901105
-0.112799
0.261058
0.123605
-0.148135
0.276902
0.112771
-0.128615
0.276088
0.109711
-0.108898
0.253111
0.178759
-0.155781
0.218897
0.293662
-0.259448
0.174842
0.412518
-0.368463
0.118416
0.494628
-0.438203
0.461661
-0.395808
0.213196
0.0466496
0.234773
0.0685341
0.25839
0.0999881
0.274824
0.0963378
0.275624
0.108911
0.25349
0.200893
0.219114
0.328038
0.174606
0.457026
0.11809
0.551145
0.526814
0.212944
0.0316959
0.233663
0.0478147
0.256413
0.0772376
0.272859
0.0798925
0.27398
0.107789
0.252301
0.222573
0.217888
0.362452
0.173312
0.501602
0.117884
0.606573
0.590196
0.213008
0.016678
0.233202
0.0276203
0.255199
0.0552412
0.271223
0.0638683
0.27147
0.107542
0.249678
0.244365
0.215375
0.396755
0.171347
0.54563
0.118389
0.659531
0.651028
0.213278
0.0013895
0.233249
0.00764925
0.254546
0.0339448
0.269531
0.0488831
0.267993
0.109079
0.245683
0.266675
0.211768
0.43067
0.169128
0.58827
0.119736
0.708923
0.709003
0.213631
-0.0142521
0.233593
-0.0123122
0.254142
0.0133962
0.267424
0.0356005
0.263438
0.113066
0.240422
0.289691
0.207322
0.463769
0.166927
0.628665
0.121464
0.754387
0.764338
0.213908
-0.0301698
0.234031
-0.0324357
0.253706
-0.00627919
0.264674
0.0246332
0.257777
0.119963
0.234098
0.313369
0.202315
0.495552
0.164732
0.666248
0.12268
0.796439
0.81735
0.213972
-0.0461519
0.23443
-0.0528939
0.253014
-0.0248633
0.261046
0.0166014
0.250929
0.13008
0.226834
0.337465
0.196796
0.52559
0.162114
0.70093
0.122361
0.836192
0.867743
0.213806
-0.0619678
0.234757
-0.0738454
0.251931
-0.0420376
0.256568
0.011965
0.243152
0.143495
0.218993
0.361624
0.190881
0.553703
0.158648
0.733163
0.120112
0.874729
0.913946
0.213677
-0.0776549
0.234968
-0.0951364
0.250442
-0.0575115
0.250893
0.0115135
0.233913
0.160476
0.209941
0.385596
0.183642
0.580001
0.153462
0.763343
0.116435
0.911755
0.951295
0.3319
-0.107544
0.370518
-0.133755
0.406905
-0.0938983
0.424438
-0.00601917
0.438986
0.145928
0.467438
0.357143
0.506598
0.540841
0.549581
0.720361
0.581369
0.879966
0.946164
0.5865
0.333568
-0.139103
0.373068
-0.173254
0.408222
-0.129053
0.422318
-0.0201151
0.435699
0.132546
0.475989
0.316854
0.534303
0.482527
0.604472
0.650191
0.6754
0.809038
0.888581
0.732984
0.336287
-0.173379
0.375266
-0.212234
0.408552
-0.162338
0.417558
-0.0291218
0.427609
0.122496
0.47406
0.270402
0.546523
0.410064
0.638831
0.557883
0.742293
0.705577
0.784458
0.846415
0.340451
-0.21182
0.373289
-0.245072
0.384208
-0.173257
0.380826
-0.0257395
0.399117
0.104205
0.452968
0.216551
0.534169
0.328863
0.64054
0.451512
0.767094
0.579023
0.647054
0.904498
0.348488
-0.258297
0.356497
-0.253082
0.337475
-0.154235
0.334393
-0.0226569
0.358656
0.079942
0.414067
0.161139
0.497273
0.245657
0.607894
0.340891
0.743746
0.44317
0.495858
0.894942
0.340782
-0.297069
0.321115
-0.233415
0.287867
-0.120987
0.284032
-0.0188211
0.308972
0.0550018
0.361116
0.108995
0.439765
0.167009
0.545765
0.234891
0.67877
0.310165
0.347981
0.826648
0.314271
-0.30933
0.271537
-0.190681
0.233607
-0.0830569
0.228667
-0.013881
0.251082
0.0325869
0.296181
0.0638957
0.36462
0.0985697
0.458332
0.141179
0.5788
0.189697
0.215102
0.711679
0.273772
-0.281092
0.212868
-0.129777
0.174339
-0.0445275
0.16881
-0.00835211
0.186283
0.0151137
0.220979
0.0291994
0.27418
0.0453688
0.348687
0.0666724
0.447051
0.091333
0.106138
0.556015
0.214645
-0.193727
0.14047
-0.0556023
0.10937
-0.013427
0.104099
-0.00308182
0.115374
0.00383949
0.137283
0.00728997
0.171099
0.0115525
0.219972
0.0177998
0.28634
0.0249652
0.0304073
0.362071
0.108283
0.0526812
0.0392542
0.0361724
0.0400119
0.0473018
0.0588543
0.0766541
0.101619
0.132027
0.608656
-0.117099
0.63232
-0.116535
0.655138
-0.109492
0.67629
-0.100348
0.695233
-0.0895601
0.71137
-0.0765992
0.724263
-0.0613935
0.73359
-0.0442584
0.739075
-0.025887
-0.00758339
0.750318
-0.134434
0.765222
-0.131438
0.779424
-0.123695
0.792648
-0.113571
0.804712
-0.101624
0.815847
-0.0877348
0.826403
-0.0719488
0.836392
-0.0542478
0.844841
-0.0343359
-0.0114668
0.851037
-0.139055
0.85348
-0.133881
0.854994
-0.125209
0.855372
-0.113949
0.854523
-0.100775
0.852623
-0.0858342
0.849897
-0.0692224
0.84674
-0.0510908
0.843947
-0.031543
-0.0105297
0.892554
-0.127111
0.878538
-0.119864
0.863857
-0.110529
0.849292
-0.099384
0.835447
-0.08693
0.82302
-0.0734071
0.812636
-0.0588384
0.804756
-0.043211
0.799745
-0.0265313
-0.00887699
0.870314
-0.102483
0.845551
-0.0951015
0.821946
-0.0869238
0.80049
-0.0779283
0.781655
-0.0680943
0.765714
-0.0574669
0.75289
-0.0460141
0.743403
-0.033724
0.737523
-0.0206516
-0.00695352
0.796999
-0.072834
0.768934
-0.067037
0.743122
-0.0611117
0.720037
-0.0548429
0.699971
-0.0480286
0.683112
-0.0406073
0.669641
-0.0325436
0.659769
-0.0238514
0.653726
-0.0146084
-0.00496371
0.682984
-0.0441395
0.6565
-0.0405524
0.632401
-0.0370127
0.610878
-0.0333202
0.592145
-0.0292953
0.576395
-0.0248579
0.563828
-0.0199762
0.554646
-0.0146695
0.549043
-0.0090055
-0.0030947
0.53251
-0.0206337
0.510908
-0.0189507
0.491275
-0.0173795
0.473703
-0.0157488
0.45835
-0.0139422
0.445397
-0.0119046
0.435037
-0.00961614
0.427458
-0.0070908
0.422824
-0.00437149
-0.00152287
0.346788
-0.00535163
0.332647
-0.00480903
0.319752
-0.00448482
0.308137
-0.00413355
0.297908
-0.00371361
0.289215
-0.00321083
0.282218
-0.00261999
0.277075
-0.00194737
0.273913
-0.00120945
-0.000429215
0.126675
0.121866
0.117381
0.113248
0.109534
0.106323
0.103703
0.101756
0.100546
0.000185057
0.0116092
-0.0117943
0.000623736
0.0304465
-0.0308851
0.00123716
0.0462417
-0.0468551
0.00197732
0.0594675
-0.0602076
0.00277661
0.0700215
-0.0708208
0.00376953
0.0798891
-0.080882
0.00396348
0.0772672
-0.0774612
0.00408485
0.0700424
-0.0701638
0.00394497
0.0610797
-0.0609398
0.049956
0.00350722
-0.0495183
0.000533396
0.0110758
0.00180387
0.029176
0.00358508
0.0444605
0.00574125
0.0573113
0.00807283
0.0676899
0.0110396
0.0769223
0.011676
0.0766309
0.0120809
0.0696375
0.0117737
0.0613869
0.0510784
0.0106513
0.000835499
0.0102403
0.00283183
0.0271797
0.00563912
0.0416532
0.00904157
0.0539089
0.0127395
0.063992
0.0172475
0.0724143
0.0187902
0.0750882
0.0195719
0.0688559
0.0193857
0.0615731
0.0524349
0.0180292
0.00105598
0.00918434
0.00359701
0.0246386
0.00719365
0.0380565
0.0115559
0.0495467
0.0163566
0.0591913
0.0217478
0.0670231
0.0250728
0.0717631
0.0263552
0.0675735
0.0266035
0.0613248
0.0535667
0.0254716
0.00115146
0.00803289
0.00397933
0.0218108
0.00804177
0.0339941
0.012997
0.0445914
0.0185518
0.0536365
0.0245578
0.0610172
0.0299524
0.0663685
0.0320903
0.0654356
0.0330117
0.0604035
0.0540915
0.0324869
0.00111149
0.0069214
0.00396602
0.0189562
0.00818566
0.0297745
0.0133904
0.0393867
0.0193182
0.0477087
0.0257723
0.0545631
0.0324163
0.0597245
0.036313
0.0615389
0.0381248
0.0585916
0.0537075
0.0385088
0.000926239
0.00599516
0.00357299
0.0163095
0.00771073
0.0256367
0.0128818
0.0342156
0.0187868
0.0418037
0.0253385
0.0480115
0.0323214
0.0527416
0.0382757
0.0555846
0.0415879
0.0552794
0.0521834
0.043112
0.000567826
0.00542734
0.00278662
0.0140907
0.0066575
0.0217659
0.0116214
0.0292517
0.0172044
0.0362206
0.0234475
0.0417684
0.0302863
0.0459029
0.0371845
0.0486865
0.0425618
0.0499021
0.0489244
0.0458208
0.000103758
0.00532358
0.00176849
0.012426
0.00517559
0.0183588
0.00981476
0.0246126
0.0149568
0.0310786
0.0206211
0.0361041
0.0269035
0.0396204
0.0335873
0.0420027
0.0400854
0.043404
0.0437958
0.045214
-0.000175775
0.00549936
0.00108654
0.0111637
0.00385554
0.0155898
0.00788605
0.0205821
0.0125004
0.0264643
0.0175708
0.0310337
0.0231768
0.0340144
0.0292492
0.0359303
0.0356359
0.0370172
0.0373691
0.0420625
-2.15718e-05
0.00552093
0.00113927
0.0100028
0.00327666
0.0134524
0.00641189
0.0174468
0.0102932
0.022583
0.0148347
0.0264922
0.0199547
0.0288944
0.0254871
0.0303979
0.0312249
0.0312794
0.0316951
0.036899
0.000376768
0.00514416
0.00153041
0.00884917
0.00317876
0.011804
0.00548907
0.0151365
0.00870806
0.019364
0.0128936
0.0223066
0.0177454
0.0240426
0.0230126
0.0251306
0.0285041
0.0257879
0.0260584
0.0341408
0.000623293
0.00452087
0.00170523
0.00776723
0.00302503
0.0104842
0.00484431
0.0133172
0.00783548
0.0163728
0.0119251
0.018217
0.016677
0.0192907
0.0218514
0.0199562
0.0273161
0.0203233
0.0204048
0.0329696
0.000676418
0.00384445
0.00164181
0.00680184
0.00282145
0.00930458
0.00470478
0.0114339
0.00798077
0.0130969
0.0122131
0.0139847
0.0170317
0.0144721
0.0222749
0.0147129
0.0278464
0.0147518
0.014591
0.0336602
0.000664373
0.00318008
0.00155549
0.00591071
0.00299973
0.00786034
0.00559123
0.0088424
0.00938757
0.00930051
0.0139147
0.00945756
0.0189632
0.0094236
0.0244336
0.00924247
0.0302581
0.00892736
0.0084841
0.036365
0.000594642
0.00258543
0.0017218
0.00478355
0.00407546
0.00550667
0.00754069
0.00537716
0.0118015
0.0050397
0.0166574
0.00460166
0.022007
0.00407402
0.027791
0.00345837
0.0339582
0.00276018
0.0019926
0.0404497
0.000527479
0.00205794
0.00249828
0.00281274
0.00577393
0.00223101
0.00977917
0.00137192
0.014377
0.000441823
0.019522
-0.000543342
0.0251842
-0.00158813
0.0313206
-0.00267806
0.0378703
-0.00378951
-0.00491032
0.0447732
0.000883038
0.0011749
0.00363399
6.17705e-05
0.00720052
-0.00133553
0.0113908
-0.0028184
0.016192
-0.00435934
0.0216147
-0.00596606
0.0276172
-0.00759065
0.0341084
-0.00916922
0.0410049
-0.010686
-0.0121715
0.048266
0.00150697
-0.000332085
0.00413549
-0.00256676
0.00755866
-0.00475871
0.0117769
-0.00703666
0.0167974
-0.00937984
0.0225407
-0.0117093
0.0288389
-0.0138889
0.0355709
-0.0159012
0.0427114
-0.0178265
-0.019721
0.0502609
0.00104865
0.00313664
0.00645917
0.0109311
0.0163161
0.0222944
0.0287052
0.0355811
0.0429898
0.0509097
0.0514171
0.0837264
-0.0982445
0.0773236
-0.00752079
-0.0183858
0.0999645
-0.0511996
0.0285587
0.11365
-0.0471171
0.0334318
0.121609
-0.0268198
0.0188604
0.125216
-0.00793289
0.00432554
0.12622
0.00352116
-0.00452427
0.126316
0.00745647
-0.0075526
0.126268
0.00757414
-0.00752663
0.00507251
-0.00576201
0.0586318
0.0592353
0.0917058
-0.0405948
0.118901
-0.0783943
0.134923
-0.06314
0.143646
-0.0355423
0.147286
-0.0115727
0.148008
0.00279924
0.147746
0.00771752
0.147368
0.00795221
0.00471797
0.0666622
0.0255427
0.105105
-0.0790375
0.136138
-0.109427
0.155786
-0.0827887
0.165781
-0.0455366
0.169489
-0.0152814
0.169822
0.00246622
0.16904
0.00849948
0.168161
0.00883139
0.0048451
0.0755616
-0.0163587
0.117961
-0.121437
0.15189
-0.143357
0.175303
-0.106201
0.187347
-0.0575816
0.191391
-0.0193247
0.191371
0.00248568
0.190014
0.00985634
0.18855
0.0102955
0.00553906
0.0846343
-0.064628
0.129806
-0.166608
0.165905
-0.179456
0.19263
-0.132926
0.207583
-0.0725337
0.212561
-0.0243035
0.212387
0.0026598
0.210498
0.0117457
0.208439
0.012354
0.00682677
0.0931056
-0.117284
0.140303
-0.213805
0.178089
-0.217242
0.20738
-0.162217
0.225627
-0.0907811
0.232462
-0.0311382
0.232551
0.00257035
0.230295
0.0140018
0.227721
0.0149278
0.00867103
0.100311
-0.172822
0.149177
-0.262671
0.188343
-0.256409
0.219471
-0.193345
0.240783
-0.112093
0.25045
-0.0408044
0.251499
0.00152075
0.24919
0.0163107
0.246276
0.0178423
0.0109676
0.105901
-0.230456
0.156301
-0.313071
0.196611
-0.29672
0.229011
-0.225744
0.252728
-0.135811
0.265794
-0.0538703
0.268787
-0.00147246
0.266931
0.0181669
0.263964
0.0208094
0.0135394
0.109856
-0.290051
0.161707
-0.364922
0.202919
-0.337932
0.236171
-0.258996
0.26151
-0.161149
0.27786
-0.0702202
0.283863
-0.00747629
0.283207
0.0188235
0.280615
0.0234008
0.0161277
0.112496
0.16557
0.207403
0.241145
0.26744
0.286368
0.296063
0.297616
0.296015
0.0132003
0.00607799
-0.0192783
0.010988
0.00221229
0.0115062
-0.000518183
0.0129288
-0.00142259
0.0136416
-0.000712893
0.0137557
-0.000114062
0.0135289
0.000226852
0.0131694
0.000359465
0.0129088
0.000260602
0.000349622
0.0372481
0.0232158
-0.054386
0.0314908
0.00796954
0.0339996
-0.00302694
0.0380551
-0.00547814
0.0402227
-0.00288048
0.0406119
-0.000503248
0.039965
0.000873738
0.0389717
0.00135279
0.0380562
0.00117602
0.00117128
0.0579644
0.0480975
-0.0828461
0.0508783
0.0150556
0.0558856
-0.00803422
0.0624629
-0.0120554
0.0661228
-0.00654043
0.0668671
-0.00124751
0.065867
0.0018738
0.0642918
0.00292802
0.0627257
0.00274204
0.00238427
0.0739036
0.0754041
-0.10121
0.0680744
0.0208848
0.0764381
-0.016398
0.0857705
-0.0213878
0.0910794
-0.0118494
0.0923204
-0.0024885
0.0910708
0.00312341
0.0889769
0.00502191
0.0868313
0.00488757
0.00393644
0.0813958
-0.104236
0.0838946
0.0960553
0.108099
0.11511
0.116947
0.115546
0.113016
0.110377
0.00273368
-0.000172927
-0.00256075
0.00326456
-0.000530874
0.00417679
-0.000912237
0.00548786
-0.00131107
0.00718428
-0.00169642
0.00922886
-0.00204458
0.0115855
-0.0023566
0.0141738
-0.00258833
0.0168589
-0.00268513
-0.00241937
0.00778746
-0.000645701
-0.00731468
0.00923435
-0.00197778
0.0117137
-0.00339161
0.0152701
-0.00486747
0.0198844
-0.00631071
0.0254824
-0.0076426
0.0319648
-0.00883895
0.0391562
-0.00977977
0.0467676
-0.0102965
-0.0100378
0.0124781
-0.00138376
-0.01174
0.0147278
-0.00422748
0.0185607
-0.0072245
0.0240247
-0.0103314
0.0310793
-0.0133654
0.0395862
-0.0161495
0.0493282
-0.0185809
0.0600516
-0.0205032
0.0714157
-0.0216607
-0.0214681
0.0168075
-0.00234771
-0.0158435
0.0197317
-0.00715172
0.024675
-0.0121677
0.0316515
-0.017308
0.0405501
-0.022264
0.0511063
-0.0267057
0.0629376
-0.0304122
0.0756945
-0.0332601
0.0888611
-0.0348273
-0.0338172
0.0207931
-0.0196335
0.0242926
0.0301541
0.0383178
0.0485407
0.0603438
0.0730437
0.0856043
0.095991
0.031446
-0.0313058
0.0371107
-0.037251
0.0255855
-0.0309028
0.0367633
0.019927
-0.0300701
0.0357287
0.0146804
-0.0286741
0.0339206
0.0100605
-0.0264656
0.0310855
0.0062051
-0.0227784
0.0266338
0.00311409
-0.0176475
0.0207386
0.00101762
-0.013622
0.0157185
-8.66153e-05
-0.0101614
0.0112656
-0.005642
0.00555539
0.0294632
-0.0254422
-0.0353267
0.0237472
-0.0251868
0.0182571
-0.02458
0.0131709
-0.0235879
0.00874164
-0.0220363
0.00535119
-0.0193879
0.00302028
-0.0153166
0.00139689
-0.0119986
0.000298402
-0.00906289
-0.00534359
0.0294351
-0.0194538
-0.0354235
0.0236309
-0.0193825
0.0181134
-0.0190625
0.0129997
-0.0184742
0.00849289
-0.0175294
0.00504388
-0.0159389
0.0030049
-0.0132776
0.0016451
-0.0106388
0.000582743
-0.00800053
-0.00476085
0.0313547
-0.0131907
-0.0376178
0.0253261
-0.0133539
0.0196155
-0.0133519
0.0143093
-0.0131681
0.00954635
-0.0127665
0.00565133
-0.0120438
0.00319704
-0.0108233
0.00176116
-0.00920292
0.000727028
-0.00696639
-0.00403382
0.0349541
-0.0065356
-0.0416092
0.0285808
-0.00698063
0.0225615
-0.00733258
0.0169623
-0.00756886
0.0118739
-0.00767801
0.00748075
-0.00765071
0.00413485
-0.00747743
0.00199267
-0.00706074
0.000798357
-0.00577206
-0.00323545
0.0392715
0.000571854
-0.046379
0.0324892
-0.000198284
0.0261045
-0.000947855
0.020192
-0.00165633
0.0148123
-0.00229829
0.0100284
-0.00286688
0.00592423
-0.00337322
0.00267397
-0.00381047
0.00072061
-0.00381869
-0.00251484
0.0431066
0.00808877
-0.0506235
0.0359299
0.00697843
0.0291469
0.00583512
0.0228577
0.0046329
0.0171645
0.00339496
0.0121068
0.00219075
0.00766603
0.0010676
0.00384816
7.40627e-06
0.000979378
-0.000949897
-0.00153545
0.0453829
0.0158927
-0.0531868
0.0379553
0.0144061
0.0309013
0.0128891
0.0242571
0.0112771
0.0181658
0.00948623
0.0128137
0.00754283
0.00827977
0.00560157
0.00453933
0.00374785
0.00163129
0.00195816
9.58422e-05
0.045535
0.0239948
-0.0536372
0.0379176
0.0220235
0.0307885
0.0200183
0.0240604
0.0180052
0.0177009
0.0158458
0.0119041
0.0133396
0.0070475
0.0104582
0.00341739
0.00737797
0.00114748
0.00422808
0.00124332
0.0444762
-0.0529903
0.0365202
0.029252
0.0226524
0.0165248
0.0107547
0.00566268
0.00203887