/*--------------------------------*- C++ -*----------------------------------*\
  =========                 |
  \\      /  F ield         | OpenFOAM: The Open Source CFD Toolbox
   \\    /   O peration     | Website:  https://openfoam.org
    \\  /    A nd           | Version:  13
     \\/     M anipulation  |
\*---------------------------------------------------------------------------*/
FoamFile
{
    format      ascii;
    class       volVectorField;
    location    "29.9";
    object      U;
}
// * * * * * * * * * * * * * * * * * * * * * * * * * * * * * * * * * * * * * //

dimensions      [0 1 -1 0 0 0 0];

internalField   nonuniform List<vector> 
440
(
(-0.222081 0.208259 5.27007e-20)
(-0.240458 0.263871 -3.27483e-19)
(-0.039641 0.145625 -1.78571e-19)
(0.369254 0.110264 2.52244e-19)
(0.429235 0.119085 -4.29102e-21)
(-0.0654523 0.0528521 8.81272e-22)
(0.0656127 0.0848714 9.75346e-21)
(0.507867 0.0418578 7.33417e-20)
(1.03446 0.0153944 -8.61903e-20)
(1.50887 -0.00636622 -7.37848e-20)
(-0.0105639 0.00529422 3.41211e-20)
(0.448294 -0.0332135 5.84922e-19)
(1.17597 -0.0203541 -2.9499e-19)
(1.76359 0.00335672 -8.70178e-19)
(2.29989 0.0222377 4.85276e-19)
(0.183457 -0.042412 -1.61359e-19)
(1.10532 0.00294993 -5.00425e-19)
(1.87579 0.0805731 1.51335e-18)
(2.32854 0.132339 1.73963e-18)
(2.43798 0.156576 -4.5044e-19)
(0.518997 -0.00894297 -2.82783e-19)
(1.6659 0.179732 -5.9756e-19)
(2.22923 0.267688 1.82999e-18)
(2.37434 0.286838 1.95094e-18)
(2.43533 0.261129 6.61874e-19)
(0.0455432 -0.307567 -4.41404e-20)
(0.173275 -0.679955 -1.45013e-19)
(0.235663 -0.78522 1.26655e-19)
(0.242819 -0.720219 1.46575e-21)
(0.208004 -0.599652 1.08986e-19)
(0.133901 -0.430653 7.99818e-20)
(0.292739 -0.791981 2.78103e-19)
(0.279399 -0.783674 -1.36919e-20)
(0.192603 -0.601664 -1.07294e-20)
(0.0842878 -0.414155 1.41396e-20)
(0.267699 -0.53781 3.84804e-19)
(0.385543 -0.827499 2.2746e-19)
(0.288465 -0.748112 8.83543e-20)
(0.155849 -0.568364 -1.08064e-19)
(0.0568279 -0.406742 -4.09305e-22)
(0.274601 -0.505127 2.28461e-19)
(0.128192 -0.708188 -3.70633e-19)
(-0.120665 -0.633926 3.63454e-19)
(-0.283467 -0.560513 3.81217e-19)
(-0.360159 -0.471882 6.4603e-20)
(-0.121646 -0.026316 2.64664e-19)
(-0.372774 -0.232587 3.93229e-19)
(-0.474595 -0.385393 5.57511e-19)
(-0.478232 -0.415175 -1.73015e-19)
(-0.458165 -0.394169 2.40504e-19)
(0.0586456 -0.252355 -1.56177e-18)
(1.46116 1.24654 -4.23916e-19)
(0.427117 0.624304 -5.21764e-19)
(1.28993 -1.00174 5.46103e-19)
(1.20295 -0.679669 -9.51614e-20)
(-0.199701 -0.236507 -1.01102e-18)
(0.252899 1.23555 2.42666e-19)
(0.720026 0.530645 2.07323e-21)
(1.52725 -1.05621 -1.11355e-18)
(1.33817 -0.686512 1.86843e-19)
(0.106482 -0.341518 -1.52056e-18)
(-0.69052 0.959185 -2.65926e-18)
(1.16242 0.243347 -9.74519e-21)
(1.75246 -1.07076 -1.54338e-18)
(1.43749 -0.675462 3.40676e-20)
(-0.31512 -0.198717 6.21459e-19)
(-0.874059 0.811817 2.25167e-19)
(1.58533 -0.0534196 -2.46956e-19)
(2.00862 -1.04016 9.76126e-19)
(1.53685 -0.646907 2.24342e-19)
(0.0495115 -0.488009 -3.73848e-19)
(-0.715238 0.556516 2.07187e-18)
(1.92862 -0.342524 0)
(2.17725 -0.999074 -6.6431e-19)
(1.60199 -0.593088 3.92467e-20)
(1.77798 -0.293894 -3.80983e-19)
(0.739861 0.185045 -2.96938e-19)
(2.28736 -0.625121 5.3516e-21)
(2.22821 -0.953056 -1.89772e-19)
(1.59966 -0.525171 -4.65522e-20)
(2.04029 -0.177803 4.01158e-20)
(1.86047 0.336393 3.02098e-19)
(2.65222 -0.627904 5.86562e-21)
(2.13582 -0.777878 4.8538e-19)
(1.35911 -0.366785 0)
(1.87121 -0.0860489 1.38019e-20)
(2.31074 -0.010127 -5.35358e-21)
(2.54791 -0.634505 7.12882e-19)
(1.80902 -0.52339 -1.40068e-19)
(1.13537 -0.222465 -1.67434e-20)
(1.90977 -0.0571102 -2.79718e-20)
(2.31755 -0.0410744 1.44463e-19)
(2.05958 -0.428424 3.04797e-20)
(1.24838 -0.325442 -5.01106e-35)
(0.65387 -0.0973592 4.89224e-20)
(1.37455 -0.0163735 6.61504e-20)
(1.44451 -0.145626 3.30756e-20)
(0.692216 -0.084757 -1.58249e-19)
(0.0630885 0.00539777 2.78788e-20)
(-0.189787 -0.0017071 8.31473e-21)
(2.35281 0.257213 -8.05914e-19)
(2.51134 0.0968371 -1.08179e-18)
(2.42131 0.0753629 8.17282e-19)
(2.58625 -0.0433763 4.64135e-20)
(1.98163 -0.00384096 -8.88672e-20)
(2.13043 0.120641 6.89018e-20)
(2.3292 0.126456 -4.0075e-20)
(2.23533 -0.0472567 -1.30053e-19)
(2.38973 -0.0364986 -2.52734e-19)
(2.26383 -0.243953 -3.71136e-21)
(2.08879 0.0365132 7.54973e-20)
(2.10186 0.10577 8.94639e-20)
(2.20535 -0.0639686 -1.08944e-19)
(2.14172 -0.00790057 3.52257e-20)
(2.28516 -0.145659 2.21611e-20)
(2.0109 -0.00172025 1.15148e-19)
(1.97288 0.0527046 1.51894e-19)
(2.1288 -0.0491155 -1.84036e-20)
(2.03847 -0.0106705 -5.79824e-20)
(2.20543 -0.0863526 2.30988e-20)
(1.43154 -0.0146008 1.82042e-19)
(1.45119 -0.00217583 -1.14663e-20)
(1.47468 -0.0235926 1.88388e-20)
(1.45694 -0.0115597 -3.23219e-20)
(1.50575 -0.0333864 -9.82316e-21)
(1.55719 0.846863 1.01378e-18)
(1.5178 0.942485 -2.94981e-19)
(1.51215 1.06537 -1.23033e-18)
(1.44282 1.10952 6.92277e-19)
(0.891437 0.802622 -1.76534e-19)
(1.8194 0.795246 -5.39109e-19)
(1.79909 0.879715 -2.82452e-18)
(1.80772 0.987668 -1.09863e-18)
(1.71985 0.996231 -4.01041e-19)
(1.0503 0.692472 -6.36745e-19)
(2.10448 0.696654 7.18078e-19)
(2.08934 0.761723 1.89083e-19)
(2.07205 0.842504 -2.19678e-18)
(1.93675 0.825259 -6.00513e-19)
(1.13259 0.534743 4.41738e-19)
(2.25733 0.570718 2.20811e-18)
(2.26247 0.623239 1.61115e-18)
(2.25643 0.669262 -1.85763e-18)
(2.02889 0.621358 -1.38309e-18)
(1.08907 0.344676 -2.48993e-19)
(2.40858 0.429903 1.05085e-18)
(2.40645 0.449243 -7.65985e-19)
(2.30786 0.464805 5.40953e-19)
(1.95758 0.399242 4.25762e-19)
(0.882776 0.143176 -3.52852e-19)
(0.576675 0.389341 -7.19033e-19)
(0.488597 0.420583 -5.91036e-19)
(0.369649 0.451974 7.92633e-20)
(0.229321 0.459298 -2.85863e-20)
(0.0559668 0.333374 6.83451e-20)
(0.670576 0.56727 6.61027e-20)
(0.606992 0.625056 -3.23948e-19)
(0.518383 0.692668 1.73332e-19)
(0.390672 0.747623 -7.98416e-20)
(0.166478 0.572294 1.14379e-19)
(0.77179 0.758551 2.12184e-19)
(0.697866 0.83549 4.06848e-19)
(0.637877 0.932918 5.01523e-20)
(0.551917 0.988157 -2.72246e-19)
(0.301453 0.741953 2.1987e-19)
(1.03277 0.855544 2.12135e-19)
(0.9851 0.943721 -6.06748e-19)
(0.93316 1.04407 -1.77205e-18)
(0.848784 1.11147 7.27002e-19)
(0.501218 0.831997 -1.80147e-19)
(1.15633 0.887947 -1.3641e-19)
(1.16523 1.00823 -2.11386e-19)
(1.1779 1.12794 -3.20474e-19)
(1.12159 1.16908 -3.75065e-19)
(0.690744 0.851991 -6.20506e-21)
(1.01349 0.0539459 -8.8582e-20)
(0.983395 0.0143942 -3.41127e-20)
(1.04892 0.106142 -1.34298e-21)
(0.94447 0.123436 -2.71902e-19)
(0.884155 0.231973 3.0152e-19)
(1.00147 0.0533176 5.51293e-20)
(0.995902 0.00923692 1.22953e-19)
(1.0414 0.113215 1.05302e-19)
(0.970569 0.156126 3.15089e-20)
(0.92019 0.306118 2.04881e-20)
(1.00549 0.0529981 7.39121e-20)
(0.983212 0.00122121 -4.68721e-21)
(1.08946 0.128747 -5.61793e-21)
(0.914593 0.163957 1.62074e-19)
(1.11542 0.4409 -4.20553e-19)
(0.997766 0.0533972 -4.2868e-22)
(1.0065 -0.0106397 -1.76631e-19)
(1.08992 0.148461 -5.9521e-20)
(0.978007 0.18024 -3.90626e-19)
(1.16424 0.478355 9.00814e-20)
(0.993303 0.0454542 -1.26743e-20)
(1.01847 -0.010115 5.36957e-20)
(1.13097 0.15694 2.98745e-20)
(0.954902 0.201296 4.62401e-19)
(1.40727 0.604722 -4.11787e-19)
(0.952141 0.0460923 -5.69997e-21)
(1.09967 -0.0391343 1.10511e-19)
(1.12088 0.188989 -8.3026e-20)
(1.1504 0.154704 8.16328e-19)
(1.33285 0.614123 -3.95448e-19)
(0.891314 0.0134793 -1.66434e-21)
(1.21004 -0.0482132 -9.70132e-20)
(1.03551 0.142066 4.5229e-21)
(1.2211 0.146972 -2.73288e-19)
(1.42537 0.379042 2.99511e-20)
(0.962905 -0.00278597 -4.74901e-21)
(1.16372 -0.057519 1.25659e-35)
(1.01564 0.150664 -4.05196e-20)
(1.23681 0.0612887 8.34376e-20)
(1.46523 0.251678 1.53705e-19)
(1.10932 -0.0558902 4.18697e-21)
(0.945743 -0.0447948 -2.61972e-20)
(1.09945 0.0911383 1.72197e-20)
(1.23942 0.0130899 3.27644e-20)
(1.39606 0.147829 -2.16689e-19)
(1.00522 -0.0256412 -4.33152e-20)
(0.709467 -0.0164441 -4.96284e-21)
(0.932289 0.00800782 1.89477e-20)
(0.881114 -0.0148811 -1.28013e-20)
(1.01216 0.0489771 -4.80022e-20)
(1.7453 0.654806 3.12786e-19)
(1.86242 0.641814 7.22954e-19)
(2.09 0.546889 -1.01675e-18)
(2.17149 0.488943 1.74279e-20)
(2.35264 0.325196 4.49574e-19)
(1.70309 0.487987 4.65105e-20)
(1.7869 0.415518 9.63812e-19)
(1.94111 0.415428 9.47957e-20)
(1.98446 0.287718 -8.76865e-19)
(2.1617 0.267303 -2.8223e-19)
(1.64864 0.382101 -2.0065e-19)
(1.75219 0.270468 -1.42162e-19)
(1.8254 0.314205 2.4188e-19)
(1.93431 0.154132 -2.91272e-19)
(1.99184 0.211189 2.64968e-19)
(1.60692 0.225465 2.9925e-19)
(1.67807 0.143366 -1.57441e-21)
(1.75078 0.176236 2.20945e-19)
(1.85423 0.0660201 1.98004e-19)
(1.88251 0.115992 -1.91211e-19)
(1.23345 0.0526831 -3.41722e-20)
(1.25809 0.0311245 2.08124e-19)
(1.34518 0.0291176 1.06437e-19)
(1.36384 0.00419721 -2.28666e-19)
(1.4223 0.00986412 2.20956e-22)
(1.365 -0.0391785 6.57946e-20)
(2.4766 -0.031828 -5.55914e-19)
(2.7025 -0.0234296 1.50611e-18)
(2.69378 0.0261196 6.93119e-19)
(2.47139 0.0440153 -4.62228e-19)
(0.873383 0.0981651 1.2692e-19)
(2.25626 0.110088 -5.71872e-19)
(2.71135 0.114811 -7.99003e-19)
(2.7174 0.130343 1.05136e-18)
(2.51875 0.12421 -7.34732e-19)
(0.253458 0.090295 -3.68035e-20)
(1.6011 0.186372 6.33491e-19)
(2.41133 0.231881 1.05687e-19)
(2.78567 0.23543 9.53028e-19)
(2.8119 0.224902 5.43842e-19)
(-0.0624475 -0.0300858 2.5452e-19)
(0.642329 0.120635 2.69948e-19)
(1.58969 0.226949 -7.10533e-19)
(2.16779 0.294158 5.81735e-20)
(2.77681 0.329049 4.20832e-19)
(-0.134773 -0.108843 1.99704e-19)
(0.0258423 -0.0311351 -2.22326e-19)
(0.664557 0.11243 -5.54648e-20)
(1.19323 0.184651 1.07982e-19)
(1.86858 0.343208 2.27936e-20)
(-0.100124 -0.10663 3.79079e-20)
(-0.155502 -0.125732 1.58862e-19)
(0.0664832 -0.104778 1.03447e-19)
(0.260806 -0.0744791 -8.46499e-20)
(0.974488 0.116516 1.29223e-20)
(-0.0594155 -0.0851513 -1.35665e-20)
(-0.147728 -0.193954 -1.24821e-19)
(-0.123815 -0.257986 -5.10115e-20)
(-0.0605934 -0.266032 -2.01576e-20)
(0.226764 -0.083937 6.72448e-21)
(-0.0351838 -0.074642 4.04917e-21)
(-0.0916391 -0.238686 3.20152e-19)
(-0.096011 -0.343001 -2.26092e-19)
(-0.0580407 -0.375195 -4.09433e-19)
(0.00339478 -0.291917 8.16727e-20)
(-0.0223275 -0.109968 -2.80684e-20)
(-0.0309018 -0.355766 -1.75926e-19)
(-0.00455219 -0.514689 4.50903e-19)
(0.047055 -0.568833 2.27885e-19)
(0.0668039 -0.551963 -4.80511e-20)
(-0.00454461 -0.194289 1.59965e-20)
(0.0462938 -0.519576 -5.21588e-20)
(0.100128 -0.677652 1.64176e-20)
(0.134344 -0.687555 1.08744e-20)
(0.136315 -0.618355 -1.11799e-19)
(1.55666 0.754678 -5.57615e-20)
(1.66479 0.427965 3.15368e-19)
(-0.124439 0.276755 8.96052e-20)
(-0.139694 -0.275973 5.13504e-19)
(0.82023 -0.300311 -2.44375e-21)
(1.39406 0.621035 4.0561e-20)
(1.28125 0.613216 7.17e-19)
(-0.587971 0.418038 9.45254e-19)
(0.0994578 -0.504487 2.49624e-20)
(0.838602 -0.438633 3.51249e-20)
(1.36758 0.525665 3.72748e-19)
(0.922066 0.898275 2.39519e-18)
(-0.550355 0.466401 -1.55927e-20)
(0.422427 -0.676371 -1.89739e-18)
(0.897501 -0.521826 -2.15985e-20)
(1.05972 0.234109 2.50589e-20)
(1.03357 1.09284 -4.13675e-18)
(-0.0605638 0.496706 -1.9922e-19)
(0.607122 -0.847185 1.81265e-20)
(0.979906 -0.598822 -7.60978e-20)
(0.400035 0.0891396 2.70528e-19)
(1.45618 1.25988 -5.08137e-19)
(0.303249 0.543405 -2.53424e-19)
(0.910139 -0.950519 -1.13373e-19)
(1.05733 -0.654514 -2.16075e-19)
(-0.153393 0.143913 -6.44587e-20)
(-0.407917 -0.185162 0)
(-0.640519 -0.108701 -2.13426e-20)
(-0.202989 -0.108374 -4.94735e-21)
(0.415859 -0.0414976 1.13652e-21)
(1.81208 0.688969 0)
(1.31669 0.365952 0)
(0.0895863 0.040711 2.1112e-20)
(-0.0662322 -0.194612 -1.67104e-19)
(0.752461 -0.17091 6.36442e-21)
(0.79717 0.00556688 -1.36173e-19)
(0.844783 -0.00675263 1.98701e-19)
(1.09254 0.0363061 -4.74547e-20)
(0.93657 -0.00048661 3.99694e-19)
(1.465 0.174136 2.69535e-19)
(1.78861 0.0394708 1.29493e-19)
(2.00047 0.0814602 3.48337e-19)
(2.14213 0.118648 -6.90947e-19)
(2.61665 0.252061 1.60874e-19)
(2.54817 0.283057 3.61522e-19)
(0.977821 -0.534668 4.40475e-20)
(0.96767 -0.63357 -2.11869e-19)
(0.967045 -0.74122 -2.02807e-19)
(0.901852 -0.817842 1.19962e-19)
(0.554132 -0.647712 1.43438e-19)
(0.876684 -0.446834 1.08068e-19)
(0.821322 -0.517626 1.38348e-19)
(0.744906 -0.593366 -1.13763e-19)
(0.627394 -0.659746 1.45145e-19)
(0.347472 -0.526396 3.23282e-20)
(0.681772 -0.312786 -1.2387e-19)
(0.5889 -0.357552 -5.65805e-20)
(0.488436 -0.41509 -8.64834e-21)
(0.374954 -0.466186 -5.39971e-20)
(0.176775 -0.369198 -1.33583e-19)
(0.575467 -0.079524 -4.44934e-19)
(0.492111 -0.101143 -3.59367e-19)
(0.384604 -0.135041 2.92471e-19)
(0.256754 -0.176054 1.56097e-19)
(0.0812355 -0.156198 1.36991e-20)
(0.538579 0.124985 -1.49798e-19)
(0.453538 0.124094 -1.65424e-19)
(0.336881 0.120432 -4.63982e-20)
(0.198653 0.120161 5.29e-20)
(0.035024 0.0895236 1.50549e-20)
(2.25249 -0.031876 9.64858e-19)
(2.48431 -0.107226 3.54833e-19)
(2.58178 -0.202403 -9.02743e-19)
(2.45622 -0.227123 -1.92426e-18)
(1.51506 -0.224266 1.37855e-19)
(2.18137 -0.13265 1.6137e-18)
(2.29995 -0.250087 2.09583e-18)
(2.32134 -0.380695 1.72294e-19)
(2.25381 -0.445433 2.95638e-19)
(1.47448 -0.418087 -1.9701e-19)
(1.90159 -0.308283 -4.13859e-18)
(1.948 -0.43228 4.865e-19)
(1.99086 -0.567083 1.30113e-18)
(1.94632 -0.651952 -5.299e-19)
(1.28532 -0.576377 8.36193e-19)
(1.63855 -0.439603 1.01126e-18)
(1.65779 -0.545091 -2.63941e-18)
(1.65379 -0.67296 -3.07623e-18)
(1.59461 -0.773253 9.716e-19)
(1.04119 -0.65693 6.20907e-19)
(1.33795 -0.509405 2.33429e-19)
(1.2847 -0.609599 2.79498e-19)
(1.2708 -0.74026 -4.7149e-19)
(1.21717 -0.837394 -5.72631e-19)
(0.777853 -0.679348 -5.55005e-21)
(1.06129 0.0553354 7.21024e-21)
(0.929432 0.0448164 -1.22357e-21)
(1.1392 0.0680983 1.9793e-21)
(0.820984 -0.0106246 -2.39149e-19)
(1.20189 -0.249385 -1.63183e-20)
(1.07089 0.0590668 -2.43226e-21)
(0.925022 0.0396724 3.68466e-20)
(1.13259 0.0855738 -1.55421e-20)
(0.899482 0.029829 1.71676e-19)
(1.05278 -0.132964 -5.85833e-21)
(1.06877 0.0569373 -5.86021e-20)
(0.927898 0.0321729 2.98215e-22)
(1.11685 0.0867018 -9.1367e-21)
(0.891192 0.0498238 6.40273e-20)
(1.00918 -0.0761542 -2.39081e-19)
(1.0504 0.056163 7.0407e-20)
(0.953829 0.0255318 2.89676e-21)
(1.07649 0.0915981 2.35325e-20)
(0.933342 0.0764165 -3.43717e-21)
(0.885719 0.0365602 7.96362e-20)
(1.02648 0.0540551 1.74451e-20)
(0.979168 0.0215308 -2.69163e-20)
(1.04629 0.0963358 3.37555e-20)
(0.952975 0.104611 6.86098e-20)
(0.847679 0.128235 -3.54496e-20)
(0.887076 0.0335387 0)
(0.713614 0.0271018 8.65962e-21)
(0.631615 0.0214159 5.25676e-21)
(0.374554 -0.0104338 5.17565e-20)
(0.751012 -0.0636454 -1.60521e-19)
(1.03004 0.074375 -6.31068e-20)
(0.940129 0.0643555 -5.78953e-21)
(1.05218 0.0709515 -5.37719e-20)
(0.83479 -0.0094322 -1.36843e-19)
(1.11287 -0.22598 -1.66161e-19)
(1.05813 -0.0675138 -3.69644e-20)
(1.14851 -0.0372658 5.76998e-19)
(1.25985 0.0379566 3.53699e-19)
(1.12327 0.0640634 2.59126e-20)
(0.874694 0.0349367 0)
(1.42342 -0.337112 3.72083e-19)
(1.55044 -0.296524 1.69549e-18)
(1.75066 -0.172249 -1.89187e-18)
(1.85066 -0.0214945 -6.03222e-19)
(1.7895 0.0371667 4.40384e-19)
)
;

boundaryField
{
    left
    {
        type            fixedValue;
        value           uniform (1 0 0);
    }
    right
    {
        type            zeroGradient;
    }
    down
    {
        type            noSlip;
    }
    up
    {
        type            noSlip;
    }
    cylinder
    {
        type            noSlip;
    }
    defaultFaces
    {
        type            empty;
    }
}


// ************************************************************************* //
