# Selection   : all
# Cells       : 440
# Volume      : 7.374263e+01
# Time        	maxMag(U)
5.415         	2.799664e+00
5.46          	2.806374e+00
5.51          	2.813295e+00
