# Selection   : all
# Cells       : 440
# Volume      : 7.374263e+01
# Time        	min(p)
4.31          	-1.724820e+00
4.355         	-1.734650e+00
4.405         	-1.734318e+00
