/*--------------------------------*- C++ -*----------------------------------*\
  =========                 |
  \\      /  F ield         | OpenFOAM: The Open Source CFD Toolbox
   \\    /   O peration     | Website:  https://openfoam.org
    \\  /    A nd           | Version:  13
     \\/     M anipulation  |
\*---------------------------------------------------------------------------*/
FoamFile
{
    format      ascii;
    class       volVectorField;
    location    "39.4";
    object      U;
}
// * * * * * * * * * * * * * * * * * * * * * * * * * * * * * * * * * * * * * //

dimensions      [0 1 -1 0 0 0 0];

internalField   nonuniform List<vector> 
440
(
(-0.0952396 0.0679862 -6.36178e-20)
(-0.120024 0.0805693 1.86008e-20)
(0.0362852 0.0467372 1.23117e-19)
(0.454631 0.04692 3.86226e-20)
(0.500655 0.144477 2.487e-20)
(-0.101175 0.0586451 4.32175e-20)
(0.05519 0.0203821 -1.22427e-19)
(0.576932 -0.0354352 -1.2085e-19)
(1.13912 -0.0673948 7.09039e-20)
(1.68008 -0.0957471 1.66261e-20)
(-0.0234032 0.00783635 5.41521e-20)
(0.534313 -0.0435988 7.43456e-19)
(1.33427 -0.0418039 -4.60505e-19)
(1.93756 -0.0247465 -1.50435e-18)
(2.4199 -0.0116431 6.35304e-19)
(0.20085 -0.0454986 -1.74728e-19)
(1.23193 0.00276752 -5.50085e-19)
(2.00377 0.0640484 1.79408e-18)
(2.40699 0.0972489 1.97011e-18)
(2.46177 0.105591 -5.60961e-19)
(0.575739 -0.00422852 -2.95183e-19)
(1.76115 0.17944 -6.29736e-19)
(2.29261 0.249625 1.91908e-18)
(2.42059 0.25636 2.06392e-18)
(2.50716 0.231582 6.97258e-19)
(-0.0452293 0.0342753 -1.15098e-19)
(-0.246777 0.0744187 4.50269e-19)
(-0.413319 0.0617365 -6.21688e-19)
(-0.515846 0.137312 1.02077e-19)
(-0.568662 0.246042 7.39732e-19)
(-0.0441212 0.222008 -1.94717e-20)
(-0.1391 0.485344 -6.04926e-20)
(-0.233753 0.499649 -5.99873e-20)
(-0.311046 0.434135 -5.571e-20)
(-0.364623 0.406428 9.69525e-20)
(-0.0316442 0.112182 1.8589e-19)
(-0.0647791 0.428651 -1.17044e-19)
(-0.0768738 0.6111 1.25235e-19)
(-0.0760109 0.670308 5.24509e-20)
(-0.0347685 0.658321 5.16516e-21)
(0.00491703 -0.00931671 -2.71845e-20)
(-0.0399954 0.156072 9.43251e-20)
(-0.0534306 0.338921 1.8491e-22)
(-0.0386407 0.449706 -6.26205e-19)
(0.0168984 0.513829 1.48715e-19)
(-0.0320006 0.0114038 -4.25684e-20)
(-0.123656 0.0626519 -6.67155e-20)
(-0.165036 0.14178 -2.30037e-19)
(-0.0848187 0.204441 2.36343e-19)
(-0.0058266 0.307652 2.88143e-19)
(-0.65608 0.89155 2.43314e-18)
(1.29809 -0.490824 1.45957e-18)
(1.12187 -1.1434 7.09533e-20)
(1.44411 0.034368 -5.9603e-19)
(1.28535 0.157188 -1.52487e-20)
(-0.659457 0.590551 -5.9328e-19)
(1.29895 -0.760083 -4.20015e-19)
(0.819038 -1.23303 1.48212e-19)
(1.39803 -0.031953 1.0449e-19)
(1.30202 0.165672 3.37314e-20)
(-0.240101 0.484608 -5.59024e-19)
(1.95789 -0.792057 1.61333e-18)
(1.22431 -1.19378 -1.36644e-19)
(1.30464 -0.089174 -7.2995e-20)
(1.28672 0.181792 -6.92294e-21)
(0.0153452 0.366647 7.20405e-19)
(2.34967 -0.894127 -1.10491e-19)
(1.74127 -1.1248 8.49068e-20)
(1.19964 -0.115988 -3.07582e-19)
(1.24315 0.170824 1.06544e-20)
(0.625708 0.0262319 -1.75026e-19)
(2.47896 -1.00089 3.97896e-19)
(1.8831 -0.995414 0)
(0.913734 -0.0160255 2.45008e-19)
(1.18892 0.16632 -2.27246e-21)
(1.6686 -0.104283 -3.52655e-19)
(2.66511 -0.903701 -9.28975e-20)
(1.90225 -0.855545 -2.67585e-20)
(0.970022 -0.00522222 1.93148e-19)
(1.31011 0.0936921 -6.5325e-20)
(2.16723 -0.18467 1.09394e-21)
(2.63618 -0.950422 1.20208e-18)
(1.12495 -0.493864 -1.37782e-20)
(0.734337 0.191951 8.87236e-20)
(1.34213 0.0430348 0)
(2.22576 -0.26545 -2.16393e-19)
(2.27764 -0.482535 -4.94442e-23)
(1.02679 -0.203965 7.23226e-21)
(1.06073 -0.00790173 -9.85426e-20)
(1.42553 -0.119373 3.79824e-21)
(2.26143 -0.239021 9.03813e-20)
(1.73685 -0.41214 1.61072e-19)
(0.859087 -0.0538996 -1.6943e-20)
(1.24454 -0.0239924 -1.92227e-34)
(1.0703 -0.0949038 9.5591e-21)
(1.31765 -0.113672 1.65291e-19)
(0.544683 0.0457363 2.10837e-20)
(0.465506 -0.0172087 6.1294e-21)
(0.380653 -0.0927864 2.29e-20)
(0.0703096 -0.0230046 -1.04773e-20)
(2.37304 0.22787 -8.75446e-19)
(2.57183 0.0337014 -1.06896e-18)
(2.42686 0.0417883 8.134e-19)
(2.66111 -0.12021 3.95507e-20)
(2.10103 -0.0228959 -2.66388e-20)
(2.12313 0.156465 4.33717e-20)
(2.37019 0.031645 -3.7664e-20)
(2.25072 -0.0297 -1.18436e-19)
(2.41206 -0.107802 -2.15739e-19)
(2.32754 -0.247517 -3.31834e-21)
(2.08141 0.0822198 6.22368e-20)
(2.16552 0.0215702 9.88409e-20)
(2.18519 -0.0465598 -1.23679e-19)
(2.212 -0.0857408 3.99751e-20)
(2.24388 -0.169628 2.1393e-20)
(2.03455 0.0240255 1.04024e-19)
(2.08254 -0.0153807 1.18023e-19)
(2.12012 -0.0499493 -1.70853e-20)
(2.15443 -0.0855489 -2.92896e-20)
(2.16865 -0.127276 2.73308e-20)
(1.55493 -0.0224768 1.50691e-19)
(1.51198 -0.023216 -1.12673e-20)
(1.55393 -0.0365783 2.33821e-20)
(1.48404 -0.0395486 -1.60486e-20)
(1.51824 -0.0553427 2.07448e-20)
(1.5355 0.821765 1.10768e-18)
(1.49266 0.918248 -3.65647e-19)
(1.49526 1.04734 -1.31358e-18)
(1.42048 1.0878 6.99481e-19)
(0.862751 0.767894 -1.60064e-19)
(1.83566 0.782504 -5.57016e-19)
(1.79704 0.854258 -2.91576e-18)
(1.79638 0.957122 -1.11973e-18)
(1.7026 0.969424 -3.87548e-19)
(1.03135 0.672223 -6.25555e-19)
(2.12471 0.660484 7.26563e-19)
(2.10772 0.729464 1.88729e-19)
(2.08093 0.815508 -2.17347e-18)
(1.9398 0.80247 -6.0847e-19)
(1.14014 0.527964 4.52977e-19)
(2.30518 0.543886 2.18391e-18)
(2.28226 0.592256 1.61903e-18)
(2.27343 0.644774 -1.87594e-18)
(2.05826 0.606132 -1.42036e-18)
(1.12228 0.349579 -2.59141e-19)
(2.43438 0.393587 1.08048e-18)
(2.45379 0.417957 -7.73921e-19)
(2.35698 0.44142 5.59605e-19)
(2.01947 0.389135 4.4135e-19)
(0.942239 0.154991 -3.73358e-19)
(0.57839 0.461198 -6.70926e-19)
(0.48629 0.496936 -5.20735e-19)
(0.3673 0.532188 6.10202e-20)
(0.228246 0.530029 -1.16175e-20)
(0.055753 0.37083 7.38734e-20)
(0.676753 0.618208 6.74599e-20)
(0.60982 0.670545 -3.03629e-19)
(0.518973 0.734018 1.71639e-19)
(0.394217 0.792449 -8.00363e-20)
(0.171253 0.601572 1.14142e-19)
(0.763833 0.838726 1.36454e-19)
(0.693875 0.920671 4.28741e-19)
(0.637502 1.01043 9.84634e-20)
(0.550611 1.03682 -2.88344e-19)
(0.299861 0.753407 2.40169e-19)
(1.03264 0.884072 2.11775e-19)
(0.982419 0.96209 -6.74484e-19)
(0.935219 1.06108 -1.83572e-18)
(0.854729 1.12757 7.29279e-19)
(0.501129 0.829364 -1.57455e-19)
(1.1011 0.957525 -9.26745e-20)
(1.13575 1.07173 -1.66687e-19)
(1.15635 1.17603 -3.55525e-19)
(1.09972 1.18775 -3.94671e-19)
(0.671616 0.835346 -6.2218e-21)
(1.01084 0.0375587 -7.99579e-20)
(1.00853 0.0275363 -2.68207e-20)
(1.04299 0.140205 -1.54727e-21)
(0.941933 0.126858 -1.41362e-19)
(0.908153 0.281769 2.88058e-19)
(0.999046 0.0339029 4.90505e-20)
(1.02946 0.0225146 1.03711e-19)
(1.01908 0.154294 1.1095e-19)
(0.98378 0.147682 1.89022e-20)
(0.938145 0.369743 -9.94232e-22)
(1.00921 0.0318939 6.39157e-20)
(1.01163 0.0149175 -4.28887e-21)
(1.06059 0.174678 -2.48482e-21)
(0.932035 0.146372 1.19694e-19)
(1.13455 0.510956 -4.61475e-19)
(1.00904 0.0298783 -2.91645e-22)
(1.02741 0.00546575 -1.40772e-19)
(1.03667 0.201157 -5.47631e-20)
(1.02927 0.135064 -3.15777e-19)
(1.16052 0.578168 7.87806e-20)
(1.01688 0.0211129 -9.36657e-21)
(1.01219 0.0127193 4.08692e-20)
(1.07474 0.198404 2.47545e-20)
(1.02082 0.161915 4.1849e-19)
(1.36773 0.703302 -4.63702e-19)
(0.99592 0.0221282 -2.04702e-21)
(1.05771 -0.00525985 9.48857e-20)
(1.033 0.227071 -4.43001e-20)
(1.28198 0.0752937 9.30776e-19)
(1.27523 0.777377 -3.22094e-19)
(0.954884 -0.00719662 -1.32813e-21)
(1.12668 0.0109075 -7.60608e-20)
(0.931852 0.144321 4.61693e-21)
(1.40327 0.0590637 -3.37027e-19)
(1.25819 0.559684 -7.71943e-20)
(0.985817 -0.0179755 7.24184e-21)
(1.06752 0.0310856 1.28924e-35)
(1.06156 0.0904828 -2.33168e-21)
(1.35903 0.00241491 1.14283e-19)
(1.3744 0.381957 1.60759e-19)
(1.0393 -0.0460216 3.84625e-21)
(0.955907 0.00582403 -2.48173e-20)
(1.29504 -0.00408935 1.9964e-20)
(1.11178 -0.00907398 2.1589e-20)
(1.44938 0.286442 -2.43487e-19)
(0.944665 -0.0208567 -3.73069e-20)
(0.815807 -0.0246285 -1.55927e-21)
(0.984916 -0.0093841 2.35023e-20)
(0.666621 0.00503899 -2.22816e-20)
(1.12302 0.0870528 -5.48749e-20)
(1.80003 0.611133 2.71297e-19)
(1.88395 0.634149 7.22024e-19)
(2.1525 0.498474 -1.02023e-18)
(2.20332 0.462986 1.43669e-20)
(2.4128 0.278117 4.20161e-19)
(1.79623 0.400079 8.5611e-20)
(1.77347 0.438633 9.41176e-19)
(2.04474 0.338381 1.07457e-19)
(1.96943 0.326014 -8.38616e-19)
(2.24702 0.182847 -2.70208e-19)
(1.70375 0.280809 -2.18199e-19)
(1.76523 0.288046 -1.39394e-19)
(1.904 0.224481 2.02792e-19)
(1.93476 0.203583 -2.5969e-19)
(2.06428 0.124822 2.40335e-19)
(1.66382 0.189848 3.66975e-19)
(1.76215 0.175109 9.28601e-23)
(1.83361 0.125035 1.98511e-19)
(1.91182 0.102598 1.57818e-19)
(1.97428 0.0530532 -1.60454e-19)
(1.33222 0.046993 -4.90898e-20)
(1.43194 0.0283347 2.30469e-19)
(1.45665 0.0130247 9.17624e-20)
(1.5206 -0.00210242 -1.92374e-19)
(1.50667 -0.00964382 5.13982e-22)
(1.25224 -0.0198362 8.06758e-20)
(2.28381 -0.0197956 -5.32547e-19)
(2.50317 -0.0107126 1.44123e-18)
(2.47843 0.0310031 6.63979e-19)
(2.26709 0.0465756 -4.59862e-19)
(0.841495 0.110691 1.82281e-19)
(2.07462 0.131779 -5.88051e-19)
(2.49225 0.141009 -8.39721e-19)
(2.49956 0.147106 1.13121e-18)
(2.27847 0.133871 -8.28177e-19)
(0.332144 0.116661 4.35739e-21)
(1.51159 0.223155 7.24225e-19)
(2.21964 0.267453 1.04597e-19)
(2.53458 0.271771 1.15476e-18)
(2.54471 0.247769 6.28878e-19)
(0.0308218 0.0227759 2.21199e-19)
(0.703027 0.184163 2.61316e-19)
(1.51358 0.288749 -8.61136e-19)
(2.00918 0.342523 8.72295e-20)
(2.47531 0.369253 7.91852e-19)
(-0.052218 -0.0404073 1.50886e-19)
(0.170748 0.0684455 -1.98362e-19)
(0.72201 0.216582 -1.90248e-19)
(1.20911 0.31318 2.56064e-19)
(1.75259 0.451103 1.51782e-19)
(-0.0574887 -0.0673042 4.50474e-20)
(-0.0399705 -0.0435139 8.87722e-20)
(0.17575 0.0422173 1.22707e-19)
(0.435657 0.181325 -5.20111e-19)
(0.96025 0.338421 6.07686e-21)
(-0.0273283 -0.0388554 -3.28194e-20)
(-0.0282241 -0.019924 -6.19877e-20)
(0.0440616 0.0563155 -7.55814e-23)
(0.14058 0.201325 -3.99151e-20)
(0.382771 0.397273 1.34264e-20)
(-0.0126943 -0.0519998 3.02909e-21)
(0.0264199 -0.085777 2.84866e-19)
(0.0944923 0.00430565 -1.06738e-19)
(0.148873 0.145414 -5.89644e-19)
(0.227306 0.335889 1.79004e-19)
(-0.0249549 -0.223867 4.58183e-20)
(0.0216197 -0.277933 2.21039e-19)
(0.102651 -0.0935665 -4.3235e-19)
(0.183931 0.146353 -6.36252e-19)
(0.267159 0.363541 5.243e-21)
(-0.035889 -0.252214 -5.94731e-20)
(-0.12835 -0.233609 1.90262e-19)
(-0.162251 -0.0879374 -6.33505e-20)
(-0.136636 0.0680529 -5.15526e-20)
(-0.0749831 0.236146 3.50996e-19)
(1.2378 0.733906 -8.94685e-20)
(-0.0987802 0.0554368 5.20371e-19)
(1.07152 -0.064217 -1.1519e-19)
(0.791398 0.0763784 -4.63364e-20)
(0.589388 -0.0325186 9.11321e-22)
(0.95706 0.94191 1.90049e-19)
(-0.969837 0.0159166 1.02469e-18)
(1.09832 -0.22147 1.14315e-19)
(1.09444 0.127577 1.03787e-20)
(0.825411 0.00497652 -2.09765e-20)
(0.552947 1.01158 -1.0484e-18)
(-1.5313 -0.160377 1.79587e-18)
(0.970297 -0.644174 9.21057e-20)
(1.32934 0.149941 -3.27149e-19)
(1.04916 0.0536024 1.43927e-20)
(0.733457 1.1925 1.01158e-18)
(-0.549486 -0.23319 -9.01396e-19)
(0.650408 -1.0673 -3.64639e-19)
(1.36655 0.120218 -1.25193e-21)
(1.19501 0.10249 1.79413e-20)
(0.441096 1.2715 -2.3288e-19)
(1.07573 -0.182526 4.21502e-19)
(0.994429 -1.06925 5.65006e-21)
(1.41003 0.0352855 -7.68326e-21)
(1.2809 0.120574 2.14214e-20)
(-0.163122 0.105945 -1.05769e-19)
(-0.382918 -0.161672 0)
(0.084251 -0.0941888 -5.44377e-20)
(-0.0201032 -0.047281 5.00608e-20)
(0.305969 -0.0241954 -1.34654e-20)
(1.62 0.619258 0)
(0.60881 0.119938 0)
(1.00149 -0.0220151 3.29479e-19)
(0.444187 -0.0213935 7.71165e-20)
(0.471606 -0.0675645 1.53747e-20)
(0.727475 0.00420936 -1.29858e-19)
(0.756987 -0.000321615 2.9779e-19)
(0.919447 0.0240728 -4.73794e-20)
(0.829481 0.0233338 3.81316e-19)
(1.19608 0.15591 2.32462e-19)
(1.6423 0.0376109 1.24723e-19)
(1.77641 0.0842295 4.52997e-19)
(1.89624 0.139861 -8.19131e-19)
(2.30195 0.250454 3.20063e-19)
(2.17778 0.362337 5.7696e-19)
(0.926928 -0.495098 -4.547e-21)
(0.916434 -0.588474 -1.9039e-19)
(0.908806 -0.689347 -1.43243e-19)
(0.840839 -0.7612 8.70636e-20)
(0.517423 -0.603235 1.40506e-19)
(0.821142 -0.396976 1.13001e-19)
(0.766389 -0.464674 1.86206e-19)
(0.695019 -0.539861 -7.98361e-20)
(0.585471 -0.606607 1.51908e-19)
(0.325002 -0.489333 5.06481e-20)
(0.665348 -0.257691 -1.23331e-19)
(0.580278 -0.300737 -6.01444e-20)
(0.48021 -0.353444 5.64041e-20)
(0.359527 -0.399948 -3.22754e-20)
(0.163496 -0.324394 -1.37491e-19)
(0.5596 -0.0252487 -4.31645e-19)
(0.473265 -0.0423843 -3.50659e-19)
(0.361955 -0.0672783 2.84874e-19)
(0.233929 -0.0993563 1.53594e-19)
(0.0678209 -0.102599 1.31721e-20)
(0.531105 0.182919 -1.40893e-19)
(0.444356 0.181925 -1.54878e-19)
(0.326113 0.178625 -4.75073e-20)
(0.187298 0.180355 4.19941e-20)
(0.0294395 0.131584 1.30245e-20)
(2.05683 -0.0318164 8.95103e-19)
(2.3004 -0.0982219 3.1144e-19)
(2.39434 -0.184476 -8.03148e-19)
(2.26834 -0.210689 -1.68861e-18)
(1.39076 -0.195505 1.41002e-19)
(2.01495 -0.123494 1.45016e-18)
(2.12514 -0.235597 1.92128e-18)
(2.15474 -0.35824 1.62276e-19)
(2.08331 -0.418275 2.86179e-19)
(1.35034 -0.376499 -1.90447e-19)
(1.73722 -0.289035 -3.71522e-18)
(1.80127 -0.408356 4.06346e-19)
(1.85301 -0.536435 1.18066e-18)
(1.80428 -0.613271 -4.49307e-19)
(1.18381 -0.526265 7.16108e-19)
(1.51445 -0.414689 8.97097e-19)
(1.5409 -0.517019 -2.38333e-18)
(1.53896 -0.638538 -2.72147e-18)
(1.47859 -0.728262 8.37706e-19)
(0.962327 -0.605956 5.69131e-19)
(1.23117 -0.476392 1.97073e-19)
(1.19311 -0.573371 2.72808e-19)
(1.18766 -0.697948 -4.19109e-19)
(1.13655 -0.787442 -5.06143e-19)
(0.726947 -0.632471 -4.75435e-21)
(1.06875 0.0502923 6.9688e-21)
(0.944545 0.0564644 9.54726e-22)
(1.11413 0.0816929 9.94004e-21)
(0.829568 0.000494749 -2.57148e-19)
(1.0979 -0.207411 -2.05072e-20)
(1.07789 0.0513304 -2.30632e-21)
(0.939413 0.0529753 2.38414e-20)
(1.11619 0.100112 4.53072e-22)
(0.905817 0.0480092 2.2813e-19)
(1.00229 -0.0934104 4.25824e-21)
(1.07485 0.046132 -5.43916e-20)
(0.942237 0.0478003 -1.40853e-22)
(1.10103 0.104363 -7.94253e-21)
(0.90835 0.0666547 1.35837e-19)
(0.96315 -0.0312469 -2.57029e-19)
(1.05463 0.0433708 6.43463e-20)
(0.966233 0.0412906 2.75279e-21)
(1.06983 0.112939 2.21919e-20)
(0.936279 0.0920932 -7.11683e-20)
(0.874031 0.0752576 6.27094e-20)
(1.02672 0.0390805 1.58175e-20)
(0.997887 0.037477 -2.244e-20)
(1.03891 0.121592 3.47891e-20)
(0.958296 0.115572 2.65842e-20)
(0.849576 0.180271 -4.7331e-20)
(0.890487 0.0337788 0)
(0.716971 0.0280827 8.94991e-21)
(0.599498 0.021603 7.16506e-21)
(0.352315 -0.0064703 5.18756e-20)
(0.681269 -0.0535262 -1.69227e-19)
(1.03621 0.0724575 -6.30999e-20)
(0.953267 0.0728073 -2.12697e-21)
(1.02032 0.0816387 -6.60369e-20)
(0.813852 -0.00506586 -1.53915e-19)
(1.04026 -0.192889 -1.81165e-19)
(0.94299 -0.0679083 -3.94235e-20)
(1.03347 -0.0350951 5.68991e-19)
(1.13011 0.0353963 3.33914e-19)
(1.0048 0.0542049 3.12723e-20)
(0.780804 0.0292735 0)
(1.29735 -0.31591 3.80779e-19)
(1.41516 -0.278776 1.6022e-18)
(1.5952 -0.158324 -1.72135e-18)
(1.69552 -0.0204543 -5.38269e-19)
(1.60996 0.031111 4.16258e-19)
)
;

boundaryField
{
    left
    {
        type            fixedValue;
        value           uniform (1 0 0);
    }
    right
    {
        type            zeroGradient;
    }
    down
    {
        type            noSlip;
    }
    up
    {
        type            noSlip;
    }
    cylinder
    {
        type            noSlip;
    }
    defaultFaces
    {
        type            empty;
    }
}


// ************************************************************************* //
