/*--------------------------------*- C++ -*----------------------------------*\
  =========                 |
  \\      /  F ield         | OpenFOAM: The Open Source CFD Toolbox
   \\    /   O peration     | Website:  https://openfoam.org
    \\  /    A nd           | Version:  13
     \\/     M anipulation  |
\*---------------------------------------------------------------------------*/
FoamFile
{
    format      ascii;
    class       surfaceScalarField;
    location    "0.49";
    object      phi;
}
// * * * * * * * * * * * * * * * * * * * * * * * * * * * * * * * * * * * * * //

dimensions      [0 3 -1 0 0 0 0];

internalField   nonuniform List<scalar> 
3485
(
0.00215454
-0.00472095
0.00256642
0.00869108
-0.0531856
0.0466491
0.0180787
-0.103392
0.0940042
0.0284828
-0.133755
0.12335
0.0388657
-0.146378
0.135995
0.0488608
-0.149026
0.139031
0.0584011
-0.14727
0.137729
0.0674859
-0.143912
0.134827
0.0760892
-0.140009
0.131406
-0.13579
0.127429
0.0844497
0.00263255
-0.00735351
0.00965495
-0.060208
0.0191211
-0.112858
0.0292318
-0.143865
0.039151
-0.156297
0.0487105
-0.158585
0.0580021
-0.156561
0.0671715
-0.153081
0.0764319
-0.149269
-0.145497
0.0861391
0.00305893
-0.0104124
0.0104332
-0.0675823
0.0197431
-0.122168
0.0292225
-0.153345
0.0382047
-0.165279
0.0466445
-0.167025
0.0546774
-0.164594
0.0624327
-0.160836
0.0699954
-0.156832
-0.152834
0.0773322
0.00349695
-0.0139094
0.0111772
-0.0752626
0.0202749
-0.131266
0.0291215
-0.162191
0.0372734
-0.173431
0.0448541
-0.174606
0.0520902
-0.17183
0.0591454
-0.167892
0.0661171
-0.163804
-0.159877
0.0731602
0.00384744
-0.0177568
0.01164
-0.0830551
0.0202773
-0.139903
0.0282246
-0.170138
0.0352628
-0.180469
0.0416602
-0.181003
0.0477041
-0.177874
0.0535749
-0.173762
0.0593774
-0.169606
-0.165664
0.0651649
0.00413917
-0.021896
0.0118876
-0.0908035
0.0199087
-0.147924
0.0268593
-0.177089
0.0327585
-0.186368
0.0380074
-0.186252
0.0429418
-0.182809
0.0477473
-0.178568
0.0525115
-0.17437
-0.17045
0.0572972
0.00431251
-0.0262085
0.0117911
-0.0982822
0.0189728
-0.155106
0.0247536
-0.18287
0.0293825
-0.190997
0.0333697
-0.190239
0.0370824
-0.186521
0.0407052
-0.182191
0.0443193
-0.177984
-0.174091
0.0479601
0.00436588
-0.0305744
0.0113614
-0.105278
0.01752
-0.161264
0.0220269
-0.187377
0.025338
-0.194308
0.0280422
-0.192944
0.0305147
-0.188994
0.0329277
-0.184604
0.0353485
-0.180405
-0.176542
0.0377999
0.00427243
-0.0348468
0.0105634
-0.111569
0.0155235
-0.166225
0.0186717
-0.190525
0.020621
-0.196258
0.0220161
-0.194339
0.023226
-0.190204
0.0244062
-0.185784
0.0256128
-0.181612
-0.177782
0.026853
0.00403423
-0.038881
0.00942748
-0.116962
0.0130659
-0.169863
0.014807
-0.192266
0.0153776
-0.196828
0.0154637
-0.194425
0.0154149
-0.190155
0.0153637
-0.185733
0.0153535
-0.181601
0.0153843
-0.177813
-0.000757588
0.000350961
0.000406627
0.00212449
-0.00748822
0.00460615
0.00986785
-0.0167747
0.00903135
0.0210015
-0.0230012
0.0118676
0.0338229
-0.0260045
0.0131832
0.0472301
-0.0269784
0.0135712
0.0606591
-0.0269313
0.0135022
0.0738633
-0.0264464
0.0132423
0.0867589
-0.0258158
0.0129202
-0.0253536
0.0995014
0.0126111
-0.000668524
0.00101949
0.00234032
-0.0104971
0.0101613
-0.0245957
0.0213033
-0.0341433
0.0340778
-0.0387789
0.0474026
-0.0403032
0.0607296
-0.0402583
0.0738228
-0.0395396
0.0866067
-0.0385997
-0.0379851
0.0992382
-0.000541596
0.00156108
0.00264856
-0.0136872
0.0105834
-0.0325305
0.0217427
-0.0453025
0.0344565
-0.0514928
0.0476705
-0.0535173
0.0608586
-0.0534465
0.0737991
-0.05248
0.0864271
-0.0512277
-0.0504594
0.0989014
-0.000360049
0.00192113
0.00307498
-0.0171223
0.0111663
-0.0406219
0.0223534
-0.0564896
0.0349918
-0.0641312
0.0480654
-0.0665909
0.061078
-0.066459
0.0738266
-0.0652287
0.0862596
-0.0636607
-0.0627338
0.098534
-0.000135406
0.00205654
0.00363003
-0.0208877
0.0119306
-0.0489224
0.023158
-0.067717
0.0357062
-0.0766794
0.0486109
-0.0794955
0.0614158
-0.0792639
0.0739423
-0.0777552
0.086153
-0.0758713
-0.0747726
0.0981918
0.000146885
0.00190965
0.00432698
-0.0250678
0.0128833
-0.0574787
0.0241548
-0.0789885
0.03659
-0.0891147
0.0492936
-0.0921991
0.0618617
-0.091832
0.0741469
-0.0900404
0.0861241
-0.0878485
-0.0865409
0.0978924
0.000509113
0.00140054
0.0051665
-0.0297252
0.0140011
-0.0663133
0.0252965
-0.0902838
0.0375719
-0.10139
0.0500215
-0.104649
0.0623094
-0.10412
0.0743294
-0.10206
0.0860647
-0.0995838
-0.0979748
0.0974986
0.000917302
0.000483236
0.00609496
-0.0349028
0.0151942
-0.0754125
0.0264502
-0.10154
0.0384738
-0.113414
0.0505664
-0.116741
0.062473
-0.116027
0.0741361
-0.113723
0.0855404
-0.110988
-0.108886
0.096452
0.0013315
-0.000848266
0.00699553
-0.0405669
0.016267
-0.084684
0.027345
-0.112618
0.0389487
-0.125017
0.0504932
-0.128286
0.061799
-0.127332
0.0728454
-0.12477
0.0835978
-0.121741
-0.118847
0.0935586
0.00171815
0.00780037
0.0171206
0.0278531
0.0388305
0.0495755
0.0599724
0.0700296
0.0796946
0.0882766
0.154014
-0.155702
0.101189
0.180955
-0.110214
0.0832723
0.194507
-0.082382
0.0688307
0.201205
-0.0623243
0.0556254
0.204251
-0.0470132
0.0439678
0.20522
-0.0349591
0.0339898
0.204975
-0.0253369
0.0255817
0.203984
-0.0174601
0.0184509
0.202538
-0.0114139
0.0128608
-0.00354414
0.0054437
0.152854
-0.209317
0.179954
-0.137314
0.193796
-0.0962242
0.200748
-0.0692763
0.203993
-0.050258
0.205122
-0.0360884
0.205011
-0.0252258
0.204142
-0.0165905
0.202811
-0.0100827
-0.00176579
0.150903
-0.261318
0.178066
-0.164477
0.19225
-0.110408
0.199549
-0.0765757
0.203105
-0.0538132
0.204515
-0.0374989
0.204665
-0.0253757
0.204047
-0.0159728
0.202964
-0.00899959
-0.000244064
0.148145
-0.31093
0.175277
-0.19161
0.189864
-0.124995
0.19761
-0.0843216
0.201589
-0.0577915
0.203401
-0.0393116
0.203938
-0.0259128
0.203702
-0.0157361
0.202999
-0.0082967
0.000885464
0.144581
-0.357319
0.171579
-0.218608
0.186642
-0.140058
0.194937
-0.0926173
0.199453
-0.062307
0.201788
-0.0416469
0.202836
-0.0269608
0.203106
-0.0160062
0.202912
-0.00810295
0.0014897
0.14019
-0.399616
0.166944
-0.245362
0.182581
-0.155695
0.191539
-0.101575
0.196708
-0.0674759
0.199683
-0.0446226
0.201363
-0.0286406
0.202265
-0.0169079
0.202708
-0.00854554
0.00143834
0.134905
-0.437023
0.161305
-0.271761
0.17766
-0.172051
0.187418
-0.111333
0.193363
-0.073421
0.197098
-0.0483573
0.199529
-0.0310719
0.201182
-0.0185604
0.202382
-0.00974526
0.000604992
0.128699
-0.46927
0.154546
-0.297608
0.171799
-0.189305
0.182555
-0.122088
0.189425
-0.0802906
0.194041
-0.0529741
0.19734
-0.0343711
0.199861
-0.0210814
0.201938
-0.0118223
-0.00113475
0.121701
-0.497412
0.146596
-0.322502
0.164828
-0.207537
0.176843
-0.134103
0.184846
-0.0882935
0.190503
-0.0586311
0.194801
-0.0386693
0.198309
-0.0245887
0.201377
-0.0148907
-0.00389786
0.114865
-0.524
0.138691
-0.346329
0.157143
-0.22599
0.170324
-0.147284
0.179606
-0.0975759
0.186469
-0.0654934
0.191909
-0.0441092
0.196525
-0.0292051
0.200701
-0.0190664
-0.00780093
0.379665
-0.462888
-0.440776
0.34747
-0.314134
0.331173
-0.209693
0.323333
-0.139445
0.319234
-0.0934763
0.31679
-0.0630499
0.315174
-0.0424926
0.314075
-0.0281063
0.31333
-0.0183213
-0.00748408
0.391784
-0.392199
-0.462473
0.356479
-0.278828
0.338722
-0.191936
0.329162
-0.129885
0.32342
-0.0877341
0.319721
-0.0593509
0.317244
-0.0400156
0.315583
-0.0264455
0.314486
-0.0172239
-0.00703139
0.407766
-0.326778
-0.473187
0.369887
-0.24095
0.348117
-0.170166
0.335463
-0.117231
0.327654
-0.0799246
0.322601
-0.0542978
0.319245
-0.0366598
0.317028
-0.0242282
0.315582
-0.015778
-0.00643979
0.417891
-0.266199
-0.478471
0.379528
-0.202586
0.355677
-0.146315
0.340884
-0.102438
0.331425
-0.0704661
0.325212
-0.0480843
0.321075
-0.0325233
0.318352
-0.0215044
0.316582
-0.0140081
-0.00571815
0.425021
-0.210579
-0.480641
0.387075
-0.16464
0.361923
-0.121163
0.345507
-0.0860213
0.334702
-0.0596614
0.327504
-0.0408858
0.322692
-0.0277115
0.319523
-0.0183355
0.317467
-0.0119519
-0.00488197
0.429926
-0.159472
-0.481033
0.392775
-0.12749
0.366879
-0.0952665
0.349291
-0.0684337
0.337436
-0.047806
0.32944
-0.0328905
0.324067
-0.0223378
0.320523
-0.0147924
0.318222
-0.0096504
-0.00394466
0.433155
-0.112051
-0.480576
0.396887
-0.0912216
0.370612
-0.0689907
0.352222
-0.050044
0.339589
-0.0351728
0.330978
-0.0242798
0.32516
-0.01652
0.321319
-0.0109514
0.318817
-0.00714821
-0.0029221
0.434667
-0.066867
-0.479851
0.39915
-0.0557044
0.372791
-0.0426325
0.353963
-0.0312153
0.34084
-0.0220499
0.331826
-0.0152665
0.325713
-0.0104063
0.321666
-0.00690495
0.319024
-0.00450584
-0.00183941
0.427132
-0.0205327
-0.473466
0.392361
-0.0209331
0.366801
-0.0170722
0.348419
-0.0128338
0.335513
-0.00914364
0.326604
-0.00635768
0.320545
-0.0043468
0.316534
-0.00289476
0.313913
-0.00188404
-0.000764264
0.311252
-0.331785
0.290319
0.273247
0.260413
0.251269
0.244911
0.240565
0.23767
0.235786
0.472244
0.0134881
-0.470347
0.47337
0.0257266
0.473597
0.0375725
0.472894
0.0486632
0.470721
0.05947
0.46819
0.0676958
0.462082
0.0792689
0.458602
0.0808121
0.446868
0.0978733
0.0905411
0.453349
0.011651
-0.451512
0.455273
0.0238027
0.457153
0.0356931
0.459112
0.0467043
0.460515
0.0580661
0.462387
0.0658243
0.462698
0.0789577
0.46384
0.0796705
0.464689
0.0970242
0.0927565
0.437058
0.00979725
-0.435204
0.43955
0.0213105
0.442578
0.0326652
0.446173
0.0431089
0.450118
0.054121
0.45442
0.0615224
0.459284
0.0740944
0.463318
0.0756356
0.469475
0.0908675
0.0890446
0.424563
0.00795751
-0.422724
0.427389
0.0184853
0.431151
0.0289026
0.435769
0.0384913
0.441352
0.0485377
0.447297
0.0555775
0.454831
0.0665604
0.461442
0.0690247
0.470764
0.0815452
0.0813383
0.414806
0.00613607
-0.412984
0.417863
0.0154278
0.422143
0.0246228
0.427499
0.0331351
0.434151
0.0418856
0.44137
0.0483589
0.450476
0.0574544
0.459096
0.0604044
0.470335
0.0703063
0.0710326
0.40743
0.00430574
-0.405599
0.410668
0.012189
0.415306
0.019985
0.42119
0.027251
0.428515
0.0345605
0.436649
0.0402257
0.446644
0.0474594
0.456631
0.0504173
0.468982
0.0579554
0.0589814
0.402034
0.0024355
-0.400164
0.405435
0.00878829
0.410348
0.0150712
0.416633
0.0209662
0.424404
0.0267895
0.433176
0.0314536
0.443673
0.0369625
0.454556
0.0395349
0.467485
0.045026
0.0458903
0.397122
0.000331968
-0.395019
0.400813
0.00509774
0.406129
0.00975464
0.412924
0.0141709
0.421209
0.0185053
0.430608
0.022054
0.441521
0.0260502
0.453046
0.0280091
0.466305
0.0317669
0.0323445
0.377544
-0.00156812
-0.375644
0.381678
0.000964141
0.387871
0.00356143
0.395954
0.00608762
0.405844
0.00861573
0.4171
0.0107984
0.429918
0.0132322
0.443374
0.0145527
0.45828
0.0168608
0.0171581
0.239953
-0.241522
0.240918
0.244479
0.250567
0.259182
0.269981
0.283213
0.297766
0.314626
0.0779406
0.127828
-0.115651
-0.0901181
0.0667928
0.129732
-0.118585
0.0565666
0.132489
-0.122263
0.046749
0.136165
-0.126348
0.0369645
0.140274
-0.130489
0.0270915
0.144158
-0.134285
0.0173485
0.145608
-0.135865
0.00855023
0.137867
-0.129069
0.00225851
0.108478
-0.102187
0.0479715
-0.045713
0.07947
0.1389
-0.0905418
0.0681383
0.141064
0.0571644
0.143463
0.0466479
0.146682
0.0364194
0.150503
0.0263669
0.15421
0.0166699
0.155305
0.00808785
0.146449
0.00207098
0.114495
0.0500425
0.0727639
0.148247
-0.0821108
0.0629062
0.150922
0.0529107
0.153459
0.043018
0.156574
0.0332721
0.160248
0.0236997
0.163783
0.0145691
0.164436
0.00669933
0.154319
0.00147115
0.119723
0.0515136
0.0613603
0.155766
-0.0688794
0.0534125
0.15887
0.0450821
0.161789
0.0365343
0.165122
0.0278966
0.168886
0.0193212
0.172358
0.011215
0.172542
0.00452963
0.161004
0.00058586
0.123667
0.0520995
0.0490753
0.161852
-0.0551612
0.042697
0.165248
0.0359162
0.16857
0.0288005
0.172238
0.0214719
0.176215
0.0141418
0.179688
0.00731286
0.179371
0.00203606
0.166281
-0.000356521
0.12606
0.051743
0.037523
0.166896
-0.042567
0.0322962
0.170475
0.0267509
0.174115
0.0209019
0.178087
0.0148455
0.182271
0.00881667
0.185717
0.00339696
0.184791
-0.00047827
0.170156
-0.00125303
0.126834
0.0504899
0.0266965
0.171069
-0.0308697
0.0224197
0.174752
0.0179251
0.17861
0.0132104
0.182802
0.00835535
0.187126
0.00360542
0.190467
-0.000481089
0.188877
-0.00253128
0.172206
-0.0020201
0.126323
0.0484698
0.0161739
0.17433
-0.0194352
0.0128506
0.178075
0.00938314
0.182077
0.00577616
0.186409
0.00211453
0.190788
-0.00134098
0.193922
-0.00386412
0.1914
-0.00457336
0.172916
-0.00268515
0.124435
0.0457847
0.005694
0.176615
-0.00797844
0.00338088
0.180388
0.000988632
0.18447
-0.00147181
0.188869
-0.00391257
0.193229
-0.0060231
0.196033
-0.00717641
0.192553
-0.00636874
0.172108
-0.00323117
0.121298
0.0425535
-0.00478652
0.00358794
-0.00599989
-0.0072632
-0.00854914
-0.00974519
-0.0105406
-0.0102531
-0.00800814
-0.00367248
0.103593
0.0240322
-0.114907
-0.0127175
0.0919561
0.0246583
-0.0130218
0.0799629
0.0253328
-0.0133395
0.0675907
0.026051
-0.0136788
0.054829
0.0268063
-0.0140446
0.0416877
0.0275647
-0.0144234
0.028319
0.0280674
-0.0146986
0.0154332
0.0272609
-0.0143751
0.00494564
0.022679
-0.0121914
0.0111691
-0.00622347
0.102826
0.0353315
-0.114126
0.0912207
0.0362641
0.0792727
0.0372808
0.0669602
0.0383634
0.0542723
0.0394942
0.0412193
0.0406177
0.0279566
0.0413301
0.0151987
0.0400188
0.00485011
0.0330276
0.0160192
0.101714
0.0466001
-0.112983
0.0901615
0.047817
0.0782854
0.0491569
0.0660635
0.0505853
0.0534838
0.0520739
0.0405576
0.0535439
0.0274456
0.054442
0.0148691
0.0525953
0.00471618
0.0431805
0.0207354
0.100146
0.0578119
-0.111357
0.088679
0.0592837
0.0769131
0.0609228
0.0648237
0.0626747
0.0523979
0.0644997
0.0396479
0.0662939
0.0267424
0.0673476
0.0144134
0.0649243
0.00452896
0.053065
0.0252644
0.0979604
0.0689234
-0.109072
0.0866374
0.0706067
0.0750495
0.0725107
0.0631657
0.0745585
0.0509661
0.0766993
0.0384621
0.078798
0.025832
0.0799777
0.0138243
0.0769319
0.00428881
0.0626005
0.0295532
0.094942
0.0798557
-0.105874
0.0838362
0.0817125
0.0724928
0.0838542
0.0608841
0.0861672
0.0489928
0.0885906
0.0368317
0.090959
0.0245881
0.0922214
0.013023
0.0884969
0.00395907
0.0716644
0.0335122
0.0912425
0.0904053
-0.101792
0.0805917
0.0923633
0.0697115
0.0947343
0.0585326
0.0973461
0.0470298
0.100093
0.0352347
0.102754
0.023373
0.104083
0.0122474
0.0996225
0.00365668
0.0802552
0.0371689
0.084764
0.100485
-0.0948436
0.0746576
0.10247
0.064433
0.104959
0.0540143
0.107765
0.043324
0.110784
0.0323453
0.113733
0.0212897
0.115139
0.0109687
0.109944
0.00314713
0.0880767
0.0403161
0.0822249
0.109161
-0.0909009
0.0731014
0.111593
0.0632964
0.114764
0.0529734
0.118088
0.0422854
0.121472
0.0313523
0.124666
0.020453
0.126038
0.0104199
0.119977
0.00294905
0.0955476
0.0432651
0.0693931
-0.075883
0.0624016
0.0549024
0.0466427
0.0376249
0.028006
0.0181789
0.00908692
0.00244789
0.20212
0.0123091
-0.0164394
0.204734
0.028319
-0.0309329
0.205269
0.0349019
-0.035437
0.206225
0.0367039
-0.0376599
0.205336
0.0432061
-0.0423164
0.202847
0.0518412
-0.0493531
0.19674
0.0646419
-0.0585343
0.186062
0.0815195
-0.0708416
0.160354
0.109714
-0.0840057
0.146458
-0.101011
0.201848
0.00845067
0.204316
0.0258509
0.2048
0.0344186
0.205696
0.0358072
0.20473
0.0441727
0.202106
0.054465
0.195859
0.0708884
0.184854
0.0925243
0.1592
0.135368
0.191532
0.201451
0.00498983
0.203631
0.0236706
0.203967
0.0340823
0.204662
0.0351126
0.203493
0.0453415
0.200608
0.0573499
0.194141
0.0773559
0.182678
0.103987
0.157263
0.160784
0.235812
0.200923
0.00205713
0.202682
0.0219115
0.202782
0.0339819
0.203133
0.034762
0.201639
0.0468347
0.19837
0.0606188
0.191589
0.0841369
0.179518
0.116058
0.154587
0.185715
0.279042
0.200259
-0.000212071
0.201473
0.0206972
0.201256
0.0341991
0.201121
0.034897
0.199185
0.0487708
0.195412
0.0643918
0.188215
0.0913336
0.175352
0.128922
0.151239
0.209827
0.321209
0.199454
-0.00167664
0.200012
0.0201396
0.199404
0.0348066
0.198642
0.0356594
0.19615
0.0512624
0.191754
0.0687882
0.184028
0.0990596
0.170185
0.142765
0.147233
0.232779
0.362568
0.198501
-0.00218778
0.198307
0.0203332
0.197246
0.0358684
0.195713
0.0371923
0.192559
0.0544164
0.187416
0.0739309
0.17902
0.107456
0.164134
0.157651
0.142652
0.254261
0.403427
0.197397
-0.00159522
0.196375
0.0213556
0.194796
0.0374476
0.192348
0.0396397
0.188436
0.0583284
0.18242
0.0799473
0.173151
0.116725
0.157122
0.17368
0.13668
0.274703
0.445263
0.196153
0.000242056
0.194244
0.0232641
0.192077
0.0396151
0.188569
0.043147
0.183811
0.0630867
0.176832
0.086926
0.166685
0.126872
0.150487
0.189878
0.131809
0.293381
0.486171
0.194885
0.00334643
0.19198
0.0261691
0.189112
0.0424834
0.18434
0.0479193
0.178544
0.0688821
0.17011
0.09536
0.158065
0.138918
0.140245
0.207697
0.121275
0.312352
0.531563
0.303412
0.00194414
0.30685
0.0227314
0.310695
0.0386384
0.313305
0.0453092
0.316326
0.0658617
0.319782
0.0919039
0.325336
0.133364
0.336495
0.196538
0.362322
0.286525
0.469263
0.424621
0.304274
-0.000319692
0.308004
0.0190016
0.312424
0.0342181
0.315845
0.0418887
0.320288
0.0614182
0.325937
0.0862547
0.334904
0.124397
0.350861
0.180581
0.380523
0.256863
0.405847
0.443939
0.305132
-0.00344191
0.309363
0.0147707
0.314172
0.0294094
0.318386
0.0376751
0.324028
0.0557755
0.33153
0.0787527
0.343192
0.112736
0.361954
0.161819
0.395389
0.223428
0.342866
0.45837
0.306041
-0.00747264
0.310791
0.0100211
0.315889
0.0243109
0.320791
0.0327733
0.327453
0.0491131
0.336505
0.0697006
0.350229
0.0990121
0.371114
0.140934
0.405984
0.188558
0.282436
0.466414
0.307043
-0.0125056
0.312302
0.00476209
0.317547
0.0190659
0.322993
0.0273277
0.330488
0.0416176
0.340796
0.0593925
0.356042
0.0837666
0.378541
0.118435
0.41322
0.153878
0.225484
0.470172
0.30821
-0.0187055
0.31395
-0.000977565
0.31913
0.0138857
0.324947
0.0215106
0.333089
0.0334757
0.344369
0.0481123
0.360698
0.0674373
0.384332
0.0948011
0.418056
0.120155
0.172168
0.471372
0.309596
-0.0262917
0.315756
-0.0071373
0.320609
0.00903308
0.326601
0.0155183
0.335214
0.0248632
0.347205
0.0361213
0.364277
0.0503645
0.388626
0.0704526
0.421204
0.0875766
0.122145
0.471227
0.311338
-0.0356199
0.317726
-0.0135246
0.321825
0.00493403
0.327739
0.00960447
0.336661
0.0159404
0.349141
0.0236414
0.366726
0.0327793
0.391465
0.0457139
0.423108
0.055934
0.0749861
0.470267
0.309577
-0.0431868
0.314546
-0.0184938
0.317772
0.00170855
0.323659
0.0037169
0.332755
0.00684476
0.345563
0.0108333
0.36352
0.0148225
0.388377
0.0208565
0.41972
0.0245915
0.0325333
0.462172
0.258823
0.24033
0.242038
0.245755
0.2526
0.263433
0.278256
0.299112
0.323704
0.356237
0.439038
-0.104535
0.444708
-0.0962111
0.447539
-0.0849419
0.450069
-0.0714098
0.453164
-0.0582563
0.456823
-0.0462259
0.460709
-0.0347552
0.464411
-0.0231375
0.467617
-0.0111842
0.000857545
0.444904
-0.105499
0.443989
-0.0952965
0.442891
-0.0838436
0.442973
-0.0714922
0.443989
-0.0592717
0.445372
-0.0476093
0.446829
-0.0362128
0.448349
-0.0246573
0.449955
-0.0127903
-0.000699375
0.45218
-0.0993089
0.446899
-0.0900154
0.442235
-0.07918
0.438674
-0.0679307
0.436208
-0.0568057
0.434593
-0.0459949
0.433713
-0.0353321
0.433546
-0.024491
0.43406
-0.013304
-0.00184333
0.456042
-0.0889371
0.44711
-0.0810829
0.439482
-0.071552
0.433375
-0.0618239
0.428791
-0.0522216
0.42549
-0.0426945
0.423277
-0.0331186
0.422079
-0.023293
0.421891
-0.0131162
-0.00267613
0.457467
-0.0762325
0.446336
-0.0699518
0.436891
-0.0621064
0.429152
-0.0540852
0.423055
-0.0461241
0.418434
-0.0380741
0.415151
-0.0298356
0.413155
-0.0212965
0.41244
-0.0124011
-0.0032209
0.457416
-0.0622763
0.444968
-0.0575037
0.434318
-0.0514571
0.425468
-0.0452349
0.418339
-0.0389955
0.412826
-0.0325602
0.408827
-0.0258374
0.406297
-0.018766
0.405222
-0.0113263
-0.00359816
0.456532
-0.0475813
0.443294
-0.0442657
0.43189
-0.040053
0.422341
-0.0356862
0.414563
-0.0312177
0.408478
-0.0264749
0.404017
-0.021376
0.401145
-0.0158944
0.399863
-0.0100444
-0.00389861
0.454907
-0.0322216
0.441009
-0.0303671
0.429024
-0.0280682
0.418946
-0.0256081
0.410675
-0.0229465
0.404141
-0.0199413
0.399302
-0.0165368
0.396153
-0.0127452
0.394715
-0.00860668
-0.00420218
0.445178
-0.0152271
0.429984
-0.0151736
0.416806
-0.0148902
0.405529
-0.0143307
0.396019
-0.0134361
0.388224
-0.0121471
0.382185
-0.0104978
0.378002
-0.00856193
0.375795
-0.00639916
-0.00405174
0.34101
0.325836
0.310946
0.296615
0.283179
0.271032
0.260534
0.251972
0.245573
0.0101875
0.0497022
-0.0598897
0.0212455
0.150673
-0.161731
0.0261128
0.21584
-0.220708
0.0257908
0.242347
-0.242025
0.0228129
0.248028
-0.24505
0.0188797
0.246239
-0.242306
0.0146899
0.242559
-0.23837
0.0104999
0.237901
-0.233711
0.00661139
0.229887
-0.225998
0.21114
0.00386145
-0.20839
0.01179
0.0379122
0.0274662
0.134996
0.0376097
0.205697
0.0420135
0.237943
0.0431666
0.246874
0.0430996
0.246306
0.0427298
0.242929
0.042138
0.238493
0.0406414
0.231383
0.215136
0.0366455
0.0121894
0.0257228
0.0312138
0.115972
0.0462831
0.190628
0.0556576
0.228568
0.0613551
0.241177
0.065529
0.242132
0.0693499
0.239108
0.0729728
0.23487
0.0752741
0.229082
0.217708
0.0727018
0.0113564
0.0143664
0.0317488
0.0955796
0.05053
0.171846
0.0645143
0.214584
0.0748001
0.230891
0.0833179
0.233614
0.0913918
0.231034
0.0994526
0.226809
0.106773
0.221761
0.214525
0.109957
0.00954422
0.00482215
0.0291006
0.0760232
0.049711
0.151236
0.0672514
0.197044
0.0816673
0.216475
0.0942914
0.22099
0.106351
0.218975
0.118484
0.214676
0.130593
0.209652
0.204021
0.141096
0.00717013
-0.00234798
0.0240509
0.0591425
0.0443847
0.130902
0.0638438
0.177585
0.0813016
0.199018
0.0972612
0.20503
0.112584
0.203652
0.127896
0.199364
0.143477
0.19407
0.188103
0.159396
0.00467488
-0.00702286
0.017947
0.0458703
0.0363857
0.112464
0.0560928
0.157877
0.0751983
0.179912
0.0933805
0.186848
0.110971
0.186061
0.128388
0.181948
0.145871
0.176587
0.169954
0.164019
0.00241074
-0.0094336
0.0120649
0.0362162
0.0277918
0.0967366
0.0463994
0.13927
0.0656502
0.160661
0.0845812
0.167917
0.102996
0.167647
0.120996
0.163947
0.13881
0.158774
0.152235
0.156529
0.000712615
-0.0101462
0.00751422
0.0294146
0.0206674
0.0835834
0.0376936
0.122244
0.0563099
0.142045
0.0752148
0.149012
0.0938773
0.148984
0.112181
0.145644
0.130228
0.140727
0.133698
0.148765
-0.00035311
-0.00979311
0.00446028
0.0246012
0.0155025
0.0725412
0.0307693
0.106977
0.0480335
0.124781
0.0658064
0.131239
0.0832853
0.131505
0.100095
0.128834
0.115888
0.124934
0.119137
0.130449
-0.000834914
-0.00895819
0.00287738
0.0208889
0.0125716
0.062847
0.0265289
0.0930195
0.0426745
0.108635
0.0595599
0.114354
0.0763797
0.114686
0.0927685
0.112445
0.108555
0.109148
0.105898
0.121794
-0.000998616
-0.00795958
0.0022289
0.0176614
0.0111633
0.0539126
0.0242337
0.079949
0.0394934
0.0933755
0.0555715
0.0982758
0.0716944
0.0985626
0.0874868
0.0966528
0.102802
0.0938326
0.0919683
0.116732
-0.00103745
-0.00692213
0.00193728
0.0146867
0.0103707
0.0454792
0.0227487
0.067571
0.0372058
0.0789184
0.0524413
0.0830403
0.0677235
0.0832805
0.0826888
0.0816874
0.0971766
0.0793448
0.0781597
0.110985
-0.00102689
-0.00589524
0.00180558
0.0118542
0.00990507
0.0373797
0.0217783
0.0556978
0.0356114
0.0650853
0.0501598
0.068492
0.0647311
0.0687091
0.0789798
0.0674387
0.0927439
0.0655808
0.0647672
0.106136
-0.000994812
-0.00490043
0.00176477
0.00909462
0.00965824
0.0294862
0.0212021
0.0441539
0.0346152
0.0516722
0.0486953
0.0544119
0.0627863
0.0546181
0.0765689
0.0536561
0.0899021
0.0522475
0.0516852
0.102984
-0.000965074
-0.00393535
0.00176042
0.00636912
0.00953203
0.0217146
0.0208758
0.0328102
0.0340328
0.0385153
0.047831
0.0406137
0.0616433
0.0408058
0.0751744
0.040125
0.0883044
0.0391175
0.0387584
0.101231
-0.000936672
-0.00299868
0.00177658
0.00365587
0.00948073
0.0140105
0.0207111
0.0215799
0.0337242
0.0255021
0.0473682
0.0269697
0.0610354
0.0271385
0.0744468
0.0267136
0.087496
0.0260683
0.025891
0.100363
-0.000903933
-0.00209475
0.00181475
0.000937186
0.00948871
0.0063365
0.0206596
0.0104089
0.0335955
0.0125663
0.0471579
0.0134073
0.0607519
0.0135445
0.0741089
0.0133566
0.0871299
0.0130474
0.0130394
0.0999815
-0.000867165
-0.00122758
0.00187857
-0.00180855
0.00955115
-0.00133609
0.0206944
-0.000734324
0.0335859
-0.000325259
0.0470984
-0.000105184
0.0606463
-3.37803e-06
0.0739684
3.45587e-05
0.0869707
4.50759e-05
0.000199276
0.0998107
-0.000820958
0.00197664
0.0096719
0.0208051
0.033663
0.047129
0.0606279
0.0739047
0.0868699
0.0996803
0.137956
0.295842
-0.312003
0.149991
0.124086
-0.136121
0.159604
0.041853
-0.0514654
0.167272
0.00500982
-0.0126778
0.173666
-0.00908936
0.00269499
0.179343
-0.0131974
0.00751997
0.18455
-0.0131207
0.00791414
0.189382
-0.0114052
0.00657262
0.193905
-0.00937576
0.00485372
-0.00611673
0.00207797
0.139444
0.273129
0.155612
0.107918
0.166405
0.0310604
0.173744
-0.00232902
0.179319
-0.0146652
0.183996
-0.0178742
0.188119
-0.0172434
0.191821
-0.0151077
0.195197
-0.0127514
-0.00902127
0.141584
0.24253
0.16082
0.0886819
0.172236
0.0196443
0.179346
-0.00943954
0.184329
-0.0196475
0.188188
-0.0217335
0.191363
-0.0204191
0.194057
-0.0178018
0.196403
-0.0150974
-0.0109016
0.144238
0.204429
0.16561
0.0673099
0.17747
0.00778358
0.184391
-0.0163599
0.188829
-0.024086
0.191954
-0.0248581
0.194288
-0.0227535
0.196089
-0.019602
0.197521
-0.0165302
-0.0118715
0.146978
0.160435
0.169871
0.0444166
0.182065
-0.00441
0.188809
-0.023104
0.19279
-0.0280675
0.19528
-0.0273478
0.196885
-0.0243579
0.197909
-0.0206261
0.198548
-0.0171691
-0.0120488
0.149476
0.112191
0.173535
0.0203572
0.185998
-0.0168723
0.192597
-0.0297038
0.196195
-0.0316651
0.198151
-0.0293037
0.19914
-0.0253474
0.199509
-0.0209951
0.199477
-0.0171369
-0.0115557
0.151562
0.0609916
0.176544
-0.00462415
0.189232
-0.0295603
0.195726
-0.0361983
0.199022
-0.034961
0.200551
-0.0308325
0.201044
-0.0258409
0.200883
-0.0208336
0.200306
-0.0165598
-0.0105179
0.153135
0.00783862
0.178843
-0.030333
0.191728
-0.0424445
0.198169
-0.0426401
0.201254
-0.0380452
0.202467
-0.0320457
0.202587
-0.0259609
0.202022
-0.0202691
0.201029
-0.0155668
-0.009065
0.154103
-0.0464535
0.180372
-0.0566018
0.193456
-0.0555286
0.199907
-0.0490913
0.202875
-0.0410136
0.203888
-0.0330586
0.20376
-0.0258323
0.202922
-0.0194312
0.201645
-0.0142895
-0.00732895
0.154416
0.181087
0.194389
0.200923
0.203877
0.204808
0.204557
0.203577
0.202148
0.107406
-0.00344048
-0.103966
0.105812
0.00159444
0.104123
0.00168843
0.104142
-1.9248e-05
0.10515
-0.00100769
0.106349
-0.00119851
0.107418
-0.00106965
0.108251
-0.000832796
0.10883
-0.000578793
-0.000234651
0.231029
0.0649304
-0.299399
0.199548
0.0330754
0.187592
0.0136437
0.184392
0.00318148
0.184633
-0.00124869
0.18604
-0.00260549
0.187608
-0.00263787
0.188936
-0.00216069
0.189923
-0.00156656
-0.000657405
0.251227
0.155511
-0.341808
0.213859
0.0704435
0.200058
0.0274448
0.196263
0.00697673
0.196384
-0.00137002
0.197836
-0.00405721
0.199499
-0.00430121
0.200924
-0.00358524
0.201997
-0.00263984
-0.00112246
0.246811
0.239813
-0.331113
0.212481
0.104773
0.199998
0.0399278
0.196812
0.0101622
0.197255
-0.00181219
0.19887
-0.00567258
0.20062
-0.00605122
0.202088
-0.00505322
0.203184
-0.00373596
-0.00159666
0.241521
-0.313711
0.210173
0.198636
0.19612
0.197003
0.19885
0.200713
0.202233
0.20335
0.0117294
0.000657628
-0.012387
0.012072
-0.000342625
0.0128612
-0.000789187
0.0137116
-0.000850416
0.0154641
-0.00175255
0.0194876
-0.00402343
0.0308019
-0.0113143
0.0467311
-0.0159292
0.0748731
-0.028142
-0.0290925
0.034146
0.0015148
-0.0350032
0.0372357
-0.00343229
0.0446403
-0.00819384
0.0582002
-0.0144102
0.0805532
-0.0241056
0.113576
-0.0370467
0.157736
-0.0554741
0.204881
-0.0630737
0.257241
-0.0805027
-0.0712505
0.0560844
0.00141665
-0.0559863
0.0633826
-0.0107304
0.0793581
-0.0241694
0.106375
-0.0414275
0.144839
-0.0625691
0.191754
-0.0839621
0.239714
-0.103433
0.282005
-0.105365
0.317104
-0.115601
-0.0959548
0.076052
-0.000315767
-0.0743196
0.0874857
-0.0221641
0.110156
-0.0468402
0.144241
-0.0755117
0.185934
-0.104263
0.228399
-0.126427
0.263528
-0.138562
0.292567
-0.134405
0.313602
-0.136636
-0.113466
0.0924267
-0.088881
0.106908
0.13277
0.167215
0.204049
0.237018
0.262475
0.284599
0.296728
0.091192
-0.0879867
0.0971187
-0.100324
0.0823102
-0.0906548
0.0995366
0.0733363
-0.0941604
0.103134
0.063547
-0.0977598
0.107549
0.052665
-0.101271
0.112153
0.040732
-0.104584
0.116517
0.0280463
-0.106608
0.119293
0.0154638
-0.102835
0.115418
0.00501477
-0.083603
0.094052
-0.039279
0.0442938
0.104678
-0.0780671
-0.114597
0.0941282
-0.0801055
0.082529
-0.0825612
0.0700376
-0.0852684
0.0569067
-0.0881397
0.0433229
-0.0910008
0.0295137
-0.0927984
0.0162
-0.0895214
0.00528373
-0.0726867
-0.0339952
0.101477
-0.0667552
-0.112788
0.0899477
-0.0685766
0.0781801
-0.0707935
0.0661485
-0.0732368
0.0537803
-0.0757715
0.0410108
-0.0782313
0.0279402
-0.0797278
0.0152565
-0.0768377
0.00487825
-0.0623084
-0.029117
0.103797
-0.0554343
-0.115117
0.0922764
-0.0570564
0.0804227
-0.0589398
0.0681461
-0.0609602
0.0554053
-0.0630307
0.0422106
-0.0650366
0.028732
-0.0662492
0.0157048
-0.0638106
0.005063
-0.0516666
-0.024054
0.104305
-0.0440311
-0.115709
0.0926168
-0.0453678
0.0805749
-0.0468979
0.0681472
-0.0485325
0.0553193
-0.0502028
0.0420989
-0.0518162
0.0286343
-0.0527846
0.0156332
-0.0508095
0.005018
-0.0410514
-0.019036
0.104604
-0.0326438
-0.115991
0.0929091
-0.0336732
0.0808542
-0.034843
0.0684079
-0.0360862
0.0555527
-0.0373476
0.0422947
-0.0385582
0.0287842
-0.0392741
0.015732
-0.0377573
0.00506553
-0.0303848
-0.0139705
0.104699
-0.0212826
-0.11606
0.0930088
-0.021983
0.0809463
-0.0227805
0.0684855
-0.0236254
0.0556141
-0.0244762
0.0423413
-0.0252853
0.0288166
-0.0257494
0.0157482
-0.0246889
0.00506878
-0.0197055
-0.00890169
0.104647
-0.00993721
-0.115993
0.0929648
-0.0103006
0.0809076
-0.0107233
0.0684518
-0.0111696
0.0555862
-0.0116106
0.0423202
-0.0120193
0.0288028
-0.012232
0.0157415
-0.0116276
0.0050681
-0.00903211
-0.00383359
0.104451
0.00139303
-0.115781
0.0927822
0.00136789
0.0807394
0.00131947
0.0683001
0.00126975
0.0554539
0.00123549
0.0422109
0.00122373
0.0287204
0.00125853
0.0156899
0.00140282
0.00504799
0.00160982
0.0012144
0.104095
-0.115419
0.092441
0.0804209
0.0680119
0.0552028
0.0420031
0.028563
0.0155907
0.00500907
0.025334
-0.206094
-0.0276302
0.0193065
-0.219971
0.0120476
-0.226452
0.00458398
-0.230906
-0.0026695
-0.235052
-0.00919041
-0.238529
-0.013628
-0.237587
-0.0137076
-0.220628
-0.00770328
-0.167735
-0.067593
0.0546266
-0.201607
-0.0591138
0.0458346
-0.211179
0.0357749
-0.216392
0.0255689
-0.2207
0.0155785
-0.225062
0.00614941
-0.2291