# Selection   : all
# Cells       : 440
# Volume      : 7.374263e+01
# Time        	maxMag(U)
6.815         	2.851536e+00
6.86          	2.857609e+00
6.91          	2.863163e+00
