/*--------------------------------*- C++ -*----------------------------------*\
  =========                 |
  \\      /  F ield         | OpenFOAM: The Open Source CFD Toolbox
   \\    /   O peration     | Website:  https://openfoam.org
    \\  /    A nd           | Version:  13
     \\/     M anipulation  |
\*---------------------------------------------------------------------------*/
FoamFile
{
    format      ascii;
    class       volVectorField;
    location    "20";
    object      U;
}
// * * * * * * * * * * * * * * * * * * * * * * * * * * * * * * * * * * * * * //

dimensions      [0 1 -1 0 0 0 0];

internalField   nonuniform List<vector> 
440
(
(-0.0876047 0.0658106 -8.20158e-20)
(-0.0844766 0.0911279 7.16918e-20)
(0.145588 0.060296 7.09879e-20)
(0.62027 0.0335746 1.7345e-19)
(0.877983 0.0145428 1.00921e-20)
(-0.0799084 0.0443972 3.8917e-20)
(0.154701 -0.0159476 -1.58637e-19)
(0.772857 -0.0842855 -1.27294e-19)
(1.387 -0.134215 4.55691e-20)
(1.9863 -0.172865 -1.03372e-20)
(0.0177007 -0.0126666 4.94688e-20)
(0.7136 -0.0830169 9.73055e-19)
(1.57381 -0.0947494 -6.67427e-19)
(2.1834 -0.0803818 -2.01447e-18)
(2.59519 -0.0872278 8.94845e-19)
(0.281596 -0.0619433 -1.85384e-19)
(1.44389 -0.0160321 -7.20683e-19)
(2.21157 0.0315507 2.30174e-18)
(2.5582 0.0478205 2.56502e-18)
(2.58655 0.0497511 -6.95506e-19)
(0.696925 -0.000200565 -3.48999e-19)
(1.94762 0.174229 -7.71052e-19)
(2.44708 0.226334 2.37754e-18)
(2.56326 0.223984 2.45697e-18)
(2.64834 0.194092 8.19101e-19)
(-0.0261995 0.725999 5.26507e-19)
(-0.0835883 1.04153 8.61685e-19)
(-0.121825 1.06482 -2.3973e-18)
(-0.121624 0.99211 5.54377e-19)
(-0.118805 0.85517 3.98944e-18)
(-0.0633339 0.51093 -5.67111e-20)
(-0.0271944 0.935864 -3.14564e-19)
(0.0264834 1.03173 -3.86143e-20)
(0.12552 0.963575 -5.67627e-20)
(0.137625 0.822237 1.40271e-19)
(-0.0679678 0.226622 1.12063e-19)
(-0.0727818 0.569417 -2.66321e-19)
(-0.0289343 0.703311 1.0009e-19)
(0.0784699 0.688586 -1.27591e-19)
(0.105782 0.61366 6.62776e-21)
(-0.0571334 0.103755 -4.58986e-20)
(-0.103568 0.306147 7.90056e-20)
(-0.0775747 0.427504 2.28879e-20)
(0.0110798 0.467834 1.96052e-19)
(0.0707496 0.465124 -8.21017e-20)
(-0.0693243 0.0714352 -6.19939e-20)
(-0.137458 0.172301 -7.99184e-20)
(-0.101835 0.229836 -1.39605e-19)
(0.0582773 0.230382 6.6545e-20)
(0.22669 0.248032 -8.22525e-20)
(0.704562 -0.386829 -1.15348e-18)
(0.0922493 -1.27362 1.72161e-18)
(1.58878 0.513382 -3.03823e-19)
(0.876257 0.647525 -2.06391e-20)
(1.01138 -0.107858 1.22544e-20)
(1.61775 -0.361894 1.69236e-18)
(-0.174036 -1.2583 -1.02821e-19)
(1.61634 0.320941 -3.4472e-20)
(0.859167 0.695147 -3.23686e-20)
(1.13537 -0.114864 6.64534e-20)
(1.33626 -0.451062 6.67595e-19)
(0.18756 -1.26228 2.20028e-19)
(1.15326 0.22156 1.09314e-20)
(0.652271 0.72529 -1.48682e-19)
(1.27479 -0.170505 -3.00598e-21)
(1.49014 -0.445925 -1.34565e-19)
(1.69788 -1.28266 -4.05094e-19)
(0.74691 0.0853527 3.09761e-19)
(0.667676 0.646446 3.50537e-19)
(1.49537 -0.256087 2.05089e-19)
(1.78827 -0.70565 -2.50281e-19)
(2.62232 -1.21827 -4.93056e-19)
(0.667319 0.217247 0)
(0.964966 0.570207 -3.66676e-19)
(1.74724 -0.319863 -2.62423e-20)
(2.16961 -0.731399 -6.67859e-19)
(2.40886 -1.04696 1.39269e-19)
(0.691375 0.211862 -1.66846e-20)
(1.56826 0.342232 -1.47853e-19)
(1.96233 -0.398714 3.34116e-19)
(2.58564 -0.753674 6.03253e-20)
(1.35937 -0.646896 9.10421e-19)
(0.0958985 0.516288 -4.10207e-21)
(1.87009 0.0675403 -8.18995e-20)
(1.87426 -0.405865 0)
(2.32258 -0.457615 -5.99844e-19)
(1.48666 -0.233737 1.74534e-20)
(0.617882 0.177887 4.70968e-19)
(2.15635 -0.348692 1.76958e-20)
(1.62897 -0.406883 1.396e-20)
(1.99823 -0.375718 3.92497e-20)
(1.07735 -0.0616178 1.32742e-20)
(1.3896 0.126304 -4.56155e-21)
(1.81303 -0.305397 6.80513e-34)
(0.888576 -0.220137 -3.3681e-20)
(1.01125 -0.04412 1.18302e-19)
(0.508241 0.0197577 -2.66938e-20)
(0.966589 -0.110722 -8.61385e-20)
(0.439001 -0.101537 6.99342e-20)
(-0.176435 -0.00618137 -2.89523e-20)
(2.46997 0.207741 -9.97697e-19)
(2.72061 -0.0355217 -1.32567e-18)
(2.53638 0.00578567 1.08365e-18)
(2.83906 -0.255714 3.63661e-20)
(2.28721 -0.0646808 -3.64412e-20)
(2.14615 0.14361 5.04317e-20)
(2.43998 -0.0957407 -4.35044e-20)
(2.29442 -0.0191117 -1.4953e-19)
(2.5332 -0.267638 -2.40126e-19)
(2.38956 -0.247467 -8.18446e-21)
(2.11366 0.0337002 6.92157e-20)
(2.23249 -0.0660351 1.17641e-19)
(2.19692 -0.0928509 -1.76105e-19)
(2.26836 -0.182784 5.62855e-20)
(2.26137 -0.243025 4.86043e-20)
(2.0639 -0.0133687 1.11647e-19)
(2.04434 -0.0677528 1.01932e-19)
(2.10466 -0.0786349 -1.67594e-20)
(2.06328 -0.141423 2.65112e-20)
(2.11875 -0.155313 1.98035e-20)
(1.48625 -0.0252045 1.55582e-19)
(1.38971 -0.0222634 -1.26061e-20)
(1.4586 -0.042059 2.6269e-20)
(1.32416 -0.0323317 -3.40076e-21)
(1.40698 -0.0666964 4.7359e-20)
(1.6074 0.833589 1.18945e-18)
(1.55956 0.938216 -3.89308e-19)
(1.56545 1.07871 -1.44049e-18)
(1.4988 1.13284 7.79106e-19)
(0.920365 0.82014 -1.80136e-19)
(1.91154 0.8151 -6.14386e-19)
(1.87516 0.891033 -3.20504e-18)
(1.87703 0.996638 -1.23331e-18)
(1.79384 1.01462 -4.37645e-19)
(1.10357 0.723747 -7.19666e-19)
(2.21453 0.658904 8.2029e-19)
(2.19945 0.737735 2.12924e-19)
(2.18175 0.837527 -2.42841e-18)
(2.05358 0.830216 -7.04075e-19)
(1.23125 0.56806 5.35804e-19)
(2.41777 0.551721 2.47414e-18)
(2.3941 0.600852 1.83098e-18)
(2.38861 0.657939 -2.14918e-18)
(2.19291 0.624761 -1.65358e-18)
(1.2294 0.381413 -3.19007e-19)
(2.54251 0.370073 1.28912e-18)
(2.5761 0.401541 -9.25134e-19)
(2.49782 0.435954 6.50528e-19)
(2.17729 0.392609 5.46054e-19)
(1.06621 0.177268 -4.83236e-19)
(0.57188 0.507119 -6.07545e-19)
(0.479816 0.544084 -4.44313e-19)
(0.361516 0.579838 4.44653e-20)
(0.22604 0.582676 4.88004e-21)
(0.0561434 0.418481 9.3013e-20)
(0.687665 0.670782 1.26748e-19)
(0.626052 0.731391 -2.8134e-19)
(0.539313 0.800061 1.90062e-19)
(0.413323 0.858486 -8.88209e-20)
(0.181633 0.652485 1.255e-19)
(0.777722 0.867622 8.80433e-20)
(0.704245 0.952263 5.03603e-19)
(0.652802 1.0523 1.33828e-19)
(0.573127 1.08974 -3.28919e-19)
(0.316116 0.800229 2.79313e-19)
(1.07326 0.928604 2.51821e-19)
(1.02408 1.01017 -7.74432e-19)
(0.97389 1.11073 -2.05114e-18)
(0.893964 1.18055 8.16803e-19)
(0.52755 0.876297 -1.65291e-19)
(1.13536 0.982771 -1.03028e-19)
(1.17701 1.10508 -1.81888e-19)
(1.20367 1.21661 -3.97851e-19)
(1.15148 1.23486 -4.46493e-19)
(0.708406 0.882832 -7.02183e-21)
(1.02332 0.0438474 -1.03434e-19)
(0.995455 0.0538861 -3.47503e-20)
(1.02968 0.13502 -1.42965e-21)
(0.945765 0.1576 -2.81229e-19)
(0.899141 0.316304 3.1731e-19)
(1.01516 0.0392897 6.55359e-20)
(1.00828 0.0543069 1.25438e-19)
(1.01495 0.143725 1.40647e-19)
(0.988659 0.18407 4.07021e-20)
(0.93676 0.392813 -2.36448e-20)
(1.02501 0.0369888 8.93222e-20)
(0.985965 0.0490061 -4.74454e-21)
(1.06189 0.163828 -6.62357e-21)
(0.937332 0.178211 1.53701e-19)
(1.17239 0.543696 -5.124e-19)
(1.02362 0.0355999 -2.75194e-22)
(0.99272 0.0446203 -1.73221e-19)
(1.05583 0.178785 -7.1121e-20)
(1.05122 0.179221 -3.88084e-19)
(1.1613 0.592255 9.71147e-20)
(1.02393 0.0305787 -1.52528e-20)
(0.978999 0.0462609 4.6984e-20)
(1.11756 0.174745 3.31899e-20)
(1.01178 0.208867 4.80483e-19)
(1.42775 0.725121 -4.90591e-19)
(0.993227 0.0356621 -1.25999e-20)
(1.01993 0.0223961 9.65984e-20)
(1.10374 0.202389 -7.82297e-20)
(1.27226 0.117147 9.70448e-19)
(1.30708 0.775273 -3.71494e-19)
(0.939132 0.0143907 -1.2641e-21)
(1.08144 0.0196284 -8.93145e-20)
(1.08302 0.103672 5.51415e-21)
(1.43632 0.131994 -2.79485e-19)
(1.21779 0.542243 -6.84003e-20)
(0.957057 0.0230786 -1.45578e-21)
(1.09078 -0.00813793 1.54256e-35)
(1.18709 0.0457386 -4.6726e-20)
(1.31145 0.118762 8.61236e-20)
(1.35422 0.396893 1.89058e-19)
(1.03173 -0.0198628 3.77428e-21)
(1.07269 -0.0485041 -2.69017e-20)
(1.18034 0.00505052 1.97177e-20)
(1.08651 0.0920566 2.28555e-20)
(1.59919 0.250143 -2.83217e-19)
(0.967717 -0.0228567 -3.94149e-20)
(0.862182 -0.0271788 -9.95141e-22)
(0.833302 0.00814406 2.93349e-20)
(0.822675 0.0149606 -1.70617e-20)
(1.24832 0.0500942 -6.57693e-20)
(1.86633 0.597102 2.96142e-19)
(1.93199 0.648139 7.71552e-19)
(2.23233 0.478003 -1.12727e-18)
(2.26781 0.469493 2.41615e-20)
(2.52815 0.237037 5.07392e-19)
(1.72787 0.346678 9.03753e-20)
(1.74606 0.400007 1.04158e-18)
(2.00892 0.257592 1.26252e-19)
(1.97164 0.291063 -9.3654e-19)
(2.26358 0.0824365 -2.92012e-19)
(1.73357 0.273115 -2.38018e-19)
(1.82122 0.247445 -1.56033e-19)
(1.9661 0.175848 2.14217e-19)
(1.99253 0.147735 -2.95368e-19)
(2.13737 0.0521261 2.66417e-19)
(1.75682 0.141086 4.13171e-19)
(1.87521 0.112847 -3.17197e-21)
(1.90071 0.0694604 2.29381e-19)
(1.98979 0.0491972 1.87893e-19)
(1.9914 -0.000549482 -1.78335e-19)
(1.38413 0.0234196 -5.00456e-20)
(1.46121 0.0106085 2.5837e-19)
(1.44208 0.00373298 1.1014e-19)
(1.49006 -0.00789389 -2.14028e-19)
(1.42767 -0.0117142 5.58231e-22)
(1.07038 -0.0166625 5.51822e-20)
(2.05366 -0.0451466 -3.84117e-19)
(2.28936 -0.0344391 1.08097e-18)
(2.27483 0.00368348 4.82816e-19)
(2.1196 0.030871 -3.34689e-19)
(0.665825 0.0912898 1.01095e-19)
(1.83329 0.0827762 -3.98618e-19)
(2.29517 0.0857439 -5.35778e-19)
(2.35536 0.0940645 6.57962e-19)
(2.1069 0.0823523 -4.17789e-19)
(0.209036 0.0739525 -1.90957e-20)
(1.22208 0.140947 4.19484e-19)
(1.95135 0.161473 5.81542e-20)
(2.33788 0.153153 3.92523e-19)
(2.49816 0.148586 1.81737e-19)
(-0.0302399 -0.0183759 1.73369e-19)
(0.441412 0.0749851 1.74277e-19)
(1.19769 0.144694 -3.8505e-19)
(1.6806 0.178138 2.25239e-20)
(2.25932 0.20722 5.5178e-20)
(-0.088691 -0.0723676 1.12075e-19)
(0.0011306 -0.0478927 -1.30109e-19)
(0.409258 0.0246856 -3.08004e-20)
(0.864536 0.0540296 1.48635e-20)
(1.25704 0.112573 -3.12683e-20)
(-0.0690597 -0.0711923 4.10394e-21)
(-0.115043 -0.105493 6.343e-20)
(-0.0212607 -0.101779 6.36987e-20)
(0.166264 -0.0690665 -1.26984e-19)
(0.508011 -0.0145323 -4.93605e-22)
(-0.0400651 -0.062186 -6.10677e-21)
(-0.0943094 -0.132959 -1.21621e-20)
(-0.103246 -0.179349 -6.81951e-21)
(-0.0675595 -0.189253 4.11675e-20)
(0.0583212 -0.139315 3.3948e-20)
(-0.0264749 -0.0525505 -8.07347e-21)
(-0.0802333 -0.13068 -2.86158e-19)
(-0.125851 -0.191274 2.99929e-19)
(-0.170116 -0.215179 7.91485e-19)
(-0.171555 -0.200516 -8.53627e-20)
(-0.026765 0.00385238 -5.25848e-21)
(-0.173127 -0.0027013 7.2864e-21)
(-0.328299 0.0466997 -2.34438e-20)
(-0.49479 0.13772 -1.48816e-19)
(-0.618994 0.181601 -1.35958e-19)
(-0.0424443 0.408199 -4.32937e-20)
(-0.315755 0.598851 2.13113e-19)
(-0.594735 0.711346 -1.19461e-19)
(-0.833065 0.722784 2.18369e-19)
(-0.9247 0.630464 1.16988e-18)
(1.31126 0.601376 1.52132e-20)
(1.25527 0.0487009 1.26855e-18)
(1.35984 0.253518 1.40973e-19)
(0.223902 0.107651 1.01149e-19)
(0.418153 -0.15091 -1.42116e-20)
(1.10045 0.477176 1.50371e-19)
(1.10568 -0.0112664 -7.09924e-19)
(1.57812 0.3966 6.57342e-19)
(0.503401 0.200313 1.03522e-20)
(0.493032 -0.158925 5.6946e-20)
(0.257699 0.258431 5.01911e-19)
(0.78792 -0.151496 5.27198e-19)
(1.71115 0.489945 -9.29752e-20)
(0.72358 0.335302 7.43619e-21)
(0.627183 -0.143059 1.86193e-21)
(-0.909576 0.197251 3.82084e-19)
(0.740894 -0.487274 -5.97717e-18)
(1.76848 0.553513 -2.39391e-19)
(0.843051 0.449567 -1.89553e-21)
(0.765727 -0.128331 -4.4427e-21)
(-0.828994 -0.180696 3.01373e-19)
(0.534468 -1.06543 -1.13284e-18)
(1.76139 0.508371 1.26372e-19)
(0.916112 0.558424 5.67989e-22)
(0.901282 -0.105283 1.48555e-20)
(0.232072 0.173382 -1.02928e-19)
(-0.235979 -0.129036 0)
(0.0152952 -0.0935267 2.73919e-20)
(-0.134957 -0.0498679 2.582e-20)
(0.268361 -0.0231034 -1.02921e-20)
(1.66333 0.510089 0)
(1.17379 0.181883 0)
(1.05393 0.0774391 1.16994e-21)
(0.0446693 -0.0263958 7.18028e-22)
(0.447831 -0.101172 5.06021e-20)
(0.675182 0.000482482 -1.14337e-19)
(0.698407 -0.00458678 1.53468e-19)
(0.928788 -0.00620373 -4.69253e-20)
(0.92369 0.00967759 2.83723e-19)
(1.32918 0.0712584 2.01924e-19)
(1.53638 0.0227488 1.07722e-19)
(1.65067 0.0647047 2.2011e-19)
(1.85391 0.0331633 -3.08105e-19)
(2.37939 0.179907 -1.41152e-20)
(2.11877 0.10023 1.46302e-19)
(0.859361 -0.441113 -3.48619e-20)
(0.842864 -0.524192 -1.36819e-19)
(0.829051 -0.614193 -8.95366e-20)
(0.755495 -0.675174 5.55952e-20)
(0.453751 -0.523246 1.13312e-19)
(0.759969 -0.343032 1.28037e-19)
(0.704759 -0.403578 2.73224e-19)
(0.631935 -0.469272 -2.42782e-20)
(0.520736 -0.523358 1.22087e-19)
(0.279084 -0.412735 4.95297e-20)
(0.623405 -0.201061 -1.62785e-19)
(0.536107 -0.235846 -4.48622e-20)
(0.434255 -0.279338 1.45387e-19)
(0.315473 -0.318425 -4.79468e-21)
(0.134777 -0.255108 -1.02471e-19)
(0.533675 0.030882 -4.33206e-19)
(0.44726 0.019679 -3.59562e-19)
(0.337019 0.000215698 2.8039e-19)
(0.210484 -0.0285851 1.81658e-19)
(0.0522779 -0.0443909 1.35604e-20)
(0.514166 0.238332 -1.75327e-19)
(0.427868 0.244783 -1.73041e-19)
(0.31215 0.251344 -7.98179e-20)
(0.177204 0.259361 1.20929e-20)
(0.023542 0.191508 1.06532e-20)
(1.88673 -0.0407793 7.0972e-19)
(2.14309 -0.10198 2.4263e-19)
(2.21161 -0.179479 -6.44536e-19)
(2.05753 -0.205862 -1.29476e-18)
(1.21807 -0.170145 1.0684e-19)
(1.8688 -0.117197 1.18499e-18)
(1.95571 -0.221307 1.57104e-18)
(1.97277 -0.335153 1.30345e-19)
(1.88693 -0.38944 2.27827e-19)
(1.19101 -0.328145 -1.49715e-19)
(1.60009 -0.269549 -3.07785e-18)
(1.6649 -0.380013 3.5064e-19)
(1.70696 -0.495543 9.6115e-19)
(1.63883 -0.561685 -3.572e-19)
(1.04958 -0.462072 5.59222e-19)
(1.40348 -0.383799 7.28407e-19)
(1.4207 -0.475676 -1.92414e-18)
(1.4063 -0.584793 -2.20565e-18)
(1.33427 -0.661318 6.64732e-19)
(0.850925 -0.53199 4.53511e-19)
(1.1364 -0.436345 1.46008e-19)
(1.09525 -0.523613 2.15367e-19)
(1.08384 -0.635459 -3.29048e-19)
(1.02488 -0.710796 -3.95951e-19)
(0.642303 -0.554847 -3.65471e-21)
(1.07538 0.0554947 7.87044e-21)
(0.92014 0.0639614 -5.39316e-21)
(1.10885 0.083768 -5.09377e-21)
(0.791451 0.0213472 -1.89209e-19)
(1.04436 -0.182868 -8.18939e-21)
(1.08448 0.0579153 -2.59254e-21)
(0.91925 0.0632012 5.10333e-20)
(1.108 0.101966 -5.0471e-20)
(0.879261 0.0684611 1.06933e-19)
(0.94697 -0.0674373 -2.14255e-20)
(1.08222 0.0539063 -6.36754e-20)
(0.923781 0.0613476 4.03976e-22)
(1.09679 0.104054 -2.29174e-20)
(0.881636 0.0951419 2.1414e-20)
(0.927855 -0.00663785 -1.55414e-19)
(1.06211 0.0514438 7.78969e-20)
(0.953277 0.0581617 3.53534e-21)
(1.06141 0.112019 3.64861e-20)
(0.920434 0.119741 2.2519e-20)
(0.850419 0.105186 1.13646e-19)
(1.03649 0.0468366 1.97859e-20)
(0.985544 0.0581069 -2.99979e-20)
(1.0296 0.118734 4.99309e-20)
(0.950528 0.146754 7.61807e-20)
(0.833779 0.206566 -1.28434e-19)
(0.892585 0.0340991 0)
(0.701487 0.0285557 1.05711e-20)
(0.588396 0.0235375 3.3418e-21)
(0.322016 -0.00520488 3.82963e-20)
(0.612849 -0.0485071 -1.09159e-19)
(1.04175 0.0756426 -6.66288e-20)
(0.930163 0.0772579 -2.00927e-20)
(1.00713 0.0830418 -2.90107e-20)
(0.782928 0.0111242 -1.00199e-19)
(0.967402 -0.169814 -1.18122e-19)
(0.843964 -0.0612045 -2.64848e-20)
(0.924501 -0.0289267 4.36185e-19)
(1.00336 0.0351238 2.6881e-19)
(0.885997 0.0475388 2.63888e-20)
(0.688603 0.0244983 0)
(1.20317 -0.293908 2.52365e-19)
(1.30917 -0.26003 1.25968e-18)
(1.46853 -0.146611 -1.41164e-18)
(1.55548 -0.0217408 -4.34724e-19)
(1.45484 0.0221871 3.29145e-19)
)
;

boundaryField
{
    left
    {
        type            fixedValue;
        value           uniform (1 0 0);
    }
    right
    {
        type            zeroGradient;
    }
    down
    {
        type            noSlip;
    }
    up
    {
        type            noSlip;
    }
    cylinder
    {
        type            noSlip;
    }
    defaultFaces
    {
        type            empty;
    }
}


// ************************************************************************* //
