/*--------------------------------*- C++ -*----------------------------------*\
  =========                 |
  \\      /  F ield         | OpenFOAM: The Open Source CFD Toolbox
   \\    /   O peration     | Website:  https://openfoam.org
    \\  /    A nd           | Version:  13
     \\/     M anipulation  |
\*---------------------------------------------------------------------------*/
FoamFile
{
    format      ascii;
    class       volScalarField;
    location    "0.5925";
    object      p;
}
// * * * * * * * * * * * * * * * * * * * * * * * * * * * * * * * * * * * * * //

dimensions      [0 2 -2 0 0 0 0];

internalField   nonuniform List<scalar> 
1800
(
-1.12608
-1.11891
-1.07976
-1.0033
-0.906324
-0.808054
-0.717763
-0.637525
-0.566641
-0.508724
-1.32079
-1.31255
-1.2672
-1.17997
-1.07085
-0.961119
-0.860688
-0.771964
-0.695187
-0.632188
-1.50597
-1.49621
-1.44394
-1.34551
-1.2243
-1.1033
-0.992699
-0.894825
-0.809405
-0.736972
-1.67667
-1.66487
-1.60517
-1.49575
-1.3635
-1.23274
-1.11362
-1.00818
-0.915922
-0.837068
-1.82695
-1.81249
-1.7447
-1.62436
-1.48185
-1.34231
-1.21554
-1.10323
-1.00468
-0.919401
-1.95218
-1.93453
-1.85839
-1.72776
-1.57637
-1.42967
-1.29683
-1.17916
-1.07567
-0.985503
-2.04732
-2.02592
-1.94127
-1.80117
-1.64236
-1.49008
-1.35265
-1.23092
-1.12372
-1.0298
-2.10855
-2.08304
-1.99014
-1.84176
-1.67727
-1.52114
-1.38068
-1.25631
-1.14663
-1.05012
-2.1326
-2.10279
-2.00219
-1.84699
-1.67864
-1.52041
-1.37849
-1.25288
-1.14201
-1.04407
-2.11737
-2.08334
-1.97583
-1.81559
-1.6453
-1.48668
-1.34482
-1.21929
-1.10837
-1.01005
0.313556
0.320506
0.331717
0.345885
0.359037
0.368702
0.3743
0.376283
0.375364
0.37214
0.265013
0.271786
0.283681
0.299746
0.315744
0.32862
0.337382
0.342313
0.344096
0.343485
0.188799
0.195342
0.208308
0.22729
0.247639
0.265405
0.278972
0.288372
0.294249
0.297621
0.0862202
0.0927166
0.107134
0.130029
0.156172
0.180401
0.200288
0.215543
0.226769
0.235362
-0.0405675
-0.034245
-0.0178704
0.00994861
0.0432469
0.0753678
0.10292
0.125235
0.142883
0.157756
-0.18924
-0.182837
-0.164097
-0.130399
-0.0887109
-0.0474661
-0.0111313
0.0192175
0.0441397
0.0661193
-0.356232
-0.349981
-0.328382
-0.287919
-0.236819
-0.185516
-0.139595
-0.100544
-0.0677699
-0.0382159
-0.537715
-0.531622
-0.506721
-0.458799
-0.397654
-0.335842
-0.280037
-0.232113
-0.191345
-0.154361
-0.729952
-0.723466
-0.694528
-0.638246
-0.566333
-0.493549
-0.427624
-0.370763
-0.32198
-0.278114
-0.927275
-0.920631
-0.886964
-0.821039
-0.736934
-0.651724
-0.574138
-0.506576
-0.447922
-0.396613
0.338087
0.268145
0.210433
0.166462
0.13166
0.102906
0.0776409
0.0544204
0.0323285
0.0107571
0.32575
0.262168
0.207952
0.165105
0.130634
0.102053
0.0769542
0.0539131
0.0320084
0.0106338
0.305569
0.252179
0.203774
0.163057
0.129334
0.101103
0.0762503
0.0534185
0.0317039
0.0105158
0.276994
0.238282
0.197883
0.160287
0.127746
0.100046
0.0755202
0.0529304
0.0314109
0.0104022
0.239262
0.220652
0.19027
0.156755
0.12585
0.0988712
0.074756
0.0524422
0.031126
0.0102925
0.191562
0.199562
0.180938
0.152423
0.123624
0.0975686
0.0739503
0.0519483
0.0308457
0.0101863
0.133211
0.17547
0.17002
0.147282
0.121052
0.0961304
0.0730969
0.0514433
0.0305673
0.0100839
0.0627724
0.148303
0.157673
0.141372
0.118135
0.0945555
0.0721936
0.0509235
0.0302885
0.00998571
-0.0215753
0.116581
0.143355
0.134446
0.114741
0.092785
0.0712148
0.0503769
0.0300044
0.00989291
-0.114442
0.080901
0.127416
0.126622
0.110849
0.0907807
0.0701337
0.0497863
0.0297049
0.0098053
-0.167808
0.0490013
0.108816
0.115512
0.104262
0.0868057
0.0676866
0.0483012
0.0289186
0.0096027
-0.182758
0.0163026
0.0826579
0.0979879
0.0932492
0.0799317
0.0633717
0.0456562
0.0274864
0.00915306
-0.181054
-0.0032731
0.0643358
0.0838935
0.0834625
0.0734702
0.0591981
0.0430621
0.0260664
0.00870289
-0.176065
-0.0202358
0.047347
0.0706031
0.0740756
0.06719
0.0551121
0.0405121
0.0246614
0.0082515
-0.167047
-0.0320674
0.0333761
0.0589146
0.0654719
0.0612924
0.0512267
0.0380701
0.0233059
0.00781141
-0.157278
-0.0408642
0.021604
0.0486518
0.0577121
0.0558767
0.047622
0.035789
0.0220282
0.00739134
-0.14882
-0.0476324
0.0117097
0.0397765
0.0508734
0.0510383
0.0443737
0.0337187
0.0208545
0.00699809
-0.14329
-0.053595
0.00323714
0.0322074
0.0450175
0.04687
0.0415596
0.031913
0.0198151
0.00664518
-0.138707
-0.0588325
-0.00418001
0.0256895
0.0400111
0.0433094
0.0391484
0.030352
0.0188832
0.00630809
-0.145225
-0.0651929
-0.00991112
0.021351
0.0368253
0.0410685
0.0376374
0.0293766
0.0182943
0.00609587
-0.844293
-0.877484
-0.88708
-0.87429
-0.841052
-0.789595
-0.723908
-0.644569
-0.558801
-0.465292
-0.666314
-0.699145
-0.713114
-0.709532
-0.689041
-0.654805
-0.608639
-0.552498
-0.492474
-0.429255
-0.530186
-0.562291
-0.578636
-0.580691
-0.568089
-0.545019
-0.511051
-0.469808
-0.42457
-0.375922
-0.425373
-0.456885
-0.474688
-0.480306
-0.473076
-0.457181
-0.431297
-0.399792
-0.364135
-0.325785
-0.345955
-0.376764
-0.395508
-0.403396
-0.399936
-0.388729
-0.368582
-0.343795
-0.314905
-0.283665
-0.28552
-0.316026
-0.335608
-0.345145
-0.344475
-0.336489
-0.320432
-0.300187
-0.275868
-0.249309
-0.240861
-0.271391
-0.291735
-0.30253
-0.30393
-0.298187
-0.285014
-0.267803
-0.246661
-0.223256
-0.208925
-0.240269
-0.261609
-0.273521
-0.276492
-0.272336
-0.261117
-0.245865
-0.226822
-0.205841
-0.192942
-0.223818
-0.245993
-0.259311
-0.26376
-0.260768
-0.250498
-0.235472
-0.21642
-0.193396
-0.181629
-0.215143
-0.239607
-0.255354
-0.262774
-0.262827
-0.255966
-0.243787
-0.226663
-0.204082
0.493101
0.440012
0.378502
0.311985
0.238814
0.1566
0.0651417
-0.0298256
-0.10902
-0.143604
0.298571
0.241469
0.176522
0.104058
0.0221334
-0.0711055
-0.175174
-0.283162
-0.372895
-0.411409
0.0878285
0.0263013
-0.0430906
-0.121214
-0.210125
-0.311626
-0.425098
-0.543102
-0.641724
-0.682807
-0.11155
-0.179579
-0.256075
-0.342142
-0.439742
-0.550674
-0.67417
-0.802124
-0.909988
-0.952187
-0.294028
-0.369661
-0.454303
-0.54929
-0.656628
-0.778139
-0.912812
-1.05098
-1.16771
-1.20951
-0.461287
-0.54394
-0.636218
-0.739721
-0.856512
-0.988298
-1.13415
-1.28357
-1.40379
-1.44607
-0.613271
-0.701564
-0.800281
-0.911181
-1.03634
-1.17734
-1.33279
-1.49193
-1.61059
-1.65444
-0.747038
-0.839698
-0.943591
-1.06052
-1.19248
-1.34088
-1.50461
-1.66634
-1.78507
-1.82859
-0.85866
-0.954787
-1.06267
-1.18406
-1.32121
-1.47512
-1.64327
-1.80658
-1.92367
-1.96504
-0.947054
-1.04507
-1.15522
-1.27947
-1.41984
-1.57711
-1.74734
-1.91041
-2.02363
-2.06162
1.66826
1.68258
1.69872
1.71492
1.73011
1.74366
1.75481
1.76312
1.76982
1.77533
1.6155
1.62779
1.64144
1.65479
1.66683
1.6769
1.68424
1.68863
1.69197
1.69562
1.54254
1.552
1.56211
1.57137
1.57889
1.58397
1.58582
1.58456
1.58307
1.58411
1.4499
1.45583
1.46144
1.4655
1.46726
1.46594
1.46076
1.45225
1.44456
1.44233
1.33846
1.34034
1.3407
1.33862
1.33353
1.32459
1.31101
1.29382
1.27866
1.27256
1.20991
1.20739
1.20182
1.1927
1.17971
1.16195
1.13866
1.11145
1.08771
1.07734
1.06685
1.05969
1.04781
1.03105
1.00939
0.981882
0.947833
0.90949
0.876166
0.861158
0.915922
0.903338
0.88361
0.857529
0.825555
0.786709
0.740376
0.689545
0.645721
0.625923
0.762287
0.744259
0.716069
0.679646
0.636138
0.584538
0.524403
0.459651
0.404301
0.379421
0.620111
0.587037
0.543234
0.492701
0.435761
0.370453
0.296129
0.217377
0.150591
0.120829
1.50737
1.4129
1.51739
1.41203
1.44068
1.44605
1.45252
1.47777
1.52181
1.60871
1.50153
1.40772
1.51238
1.40608
1.43408
1.43793
1.44208
1.4636
1.50096
1.57431
1.49616
1.40261
1.50761
1.39953
1.42709
1.42903
1.43013
1.44676
1.47473
1.52818
1.49125
1.39761
1.50308
1.39241
1.41975
1.41936
1.41668
1.42713
1.44313
1.46986
1.48678
1.39275
1.4988
1.38475
1.4121
1.40889
1.40169
1.40459
1.40617
1.39865
1.48277
1.3881
1.49472
1.3766
1.40419
1.39758
1.38515
1.37901
1.36385
1.31393
1.4792
1.38372
1.49079
1.36804
1.39604
1.38539
1.36699
1.3503
1.31585
1.21457
1.4761
1.37967
1.48692
1.35916
1.38766
1.37226
1.34714
1.31833
1.26193
1.10282
1.47347
1.37604
1.48297
1.35013
1.37905
1.35823
1.32561
1.2829
1.20096
0.975528
1.47164
1.37296
1.47877
1.34112
1.37014
1.34336
1.30277
1.24551
1.13584
0.84596
1.46949
1.36953
1.47344
1.33223
1.35734
1.32441
1.27314
1.198
1.06266
0.725111
1.46945
1.3658
1.46859
1.32391
1.34251
1.3041
1.24237
1.15275
1.00099
0.682512
1.47097
1.36291
1.4646
1.31618
1.32894
1.28527
1.21446
1.11395
0.951848
0.650601
1.47469
1.36114
1.46134
1.3093
1.31672
1.26822
1.18973
1.08129
0.911971
0.628866
1.48092
1.36064
1.45874
1.30341
1.30604
1.25327
1.16856
1.05442
0.880912
0.616023
1.49014
1.36142
1.45676
1.29856
1.29705
1.24065
1.1511
1.03301
0.857735
0.609018
1.50252
1.36314
1.45525
1.29472
1.28985
1.23049
1.13738
1.01669
0.84127
0.60618
1.52255
1.36705
1.45485
1.29192
1.28456
1.22289
1.1274
1.00512
0.830542
0.606869
1.53769
1.36647
1.45177
1.28992
1.28135
1.21793
1.12118
0.998157
0.82452
0.61073
1.59329
1.37634
1.45404
1.2877
1.28089
1.2153
1.11827
0.994737
0.822059
0.613246
0.463982
0.297312
0.113391
-0.0579267
-0.213445
-0.357419
-0.490399
-0.609
-0.709093
-0.787789
0.402649
0.274479
0.133964
-0.00153109
-0.12769
-0.246235
-0.357193
-0.457634
-0.544487
-0.614597
0.376036
0.272173
0.161186
0.0491194
-0.0585395
-0.160422
-0.256244
-0.343838
-0.420256
-0.483115
0.37242
0.280927
0.186679
0.0901281
-0.00416396
-0.093479
-0.177618
-0.255195
-0.323611
-0.38076
0.379061
0.29524
0.211916
0.126773
0.0421758
-0.0387961
-0.115393
-0.186498
-0.249888
-0.303591
0.390222
0.311851
0.235519
0.157813
0.0796405
0.00421906
-0.0672172
-0.133739
-0.193462
-0.24451
0.402412
0.328076
0.25643
0.183642
0.109781
0.0380582
-0.0300023
-0.0935582
-0.150959
-0.200484
0.414417
0.342663
0.274101
0.204325
0.132996
0.063423
-0.00269622
-0.0645305
-0.120503
-0.168969
0.428534
0.358595
0.291152
0.221832
0.150713
0.0811906
0.0150188
-0.046941
-0.103263
-0.152372
0.442188
0.375779
0.309027
0.238997
0.167637
0.0978515
0.0310015
-0.0318272
-0.0891179
-0.139402
-3.17829
-3.11922
-2.96818
-2.77192
-2.57852
-2.40786
-2.26317
-2.14305
-2.04631
-1.97322
-3.26373
-3.21546
-3.08136
-2.89349
-2.70052
-2.52728
-2.37957
-2.25668
-2.1581
-2.08521
-3.25123
-3.2144
-3.09924
-2.92166
-2.72899
-2.55196
-2.40011
-2.27366
-2.17201
-2.09626
-3.1458
-3.12015
-3.02347
-2.85654
-2.66345
-2.481
-2.32321
-2.19178
-2.08578
-2.00487
-2.95528
-2.9397
-2.85918
-2.70305
-2.51016
-2.32236
-2.15823
-2.02133
-1.91076
-1.8245
-2.68953
-2.6817
-2.61412
-2.46958
-2.2804
-2.09088
-1.92314
-1.78273
-1.66909
-1.5807
-2.36276
-2.3599
-2.30271
-2.17169
-1.99277
-1.80909
-1.64417
-1.50525
-1.39171
-1.30455
-1.99922
-1.99719
-1.94787
-1.83236
-1.67091
-1.50204
-1.34821
-1.21738
-1.10949
-1.02724
-1.62541
-1.62239
-1.57962
-1.48121
-1.34282
-1.19641
-1.06163
-0.946045
-0.849948
-0.779927
-1.26608
-1.26161
-1.22496
-1.14346
-1.02957
-0.90838
-0.795757
-0.697895
-0.613502
-0.549448
-0.939145
-0.932461
-0.901777
-0.835924
-0.745551
-0.649964
-0.561719
-0.486152
-0.422261
-0.367359
-0.651607
-0.644103
-0.618422
-0.565836
-0.495392
-0.42164
-0.354008
-0.296352
-0.248275
-0.204734
-0.4047
-0.397115
-0.375468
-0.333518
-0.278873
-0.222443
-0.17114
-0.127535
-0.0914554
-0.0583082
-0.196941
-0.189507
-0.171119
-0.137808
-0.0960012
-0.0538451
-0.0162716
0.0151309
0.040637
0.0637038
-0.0261178
-0.0189231
-0.0031232
0.0232683
0.0547787
0.0853754
0.111693
0.13289
0.149407
0.163634
0.109952
0.116858
0.130721
0.151835
0.17546
0.197145
0.214713
0.227877
0.237202
0.244291
0.212792
0.219676
0.232115
0.249413
0.267316
0.282492
0.293627
0.300824
0.304733
0.30644
0.283703
0.290683
0.302173
0.31697
0.331102
0.341962
0.348802
0.351985
0.352212
0.350249
0.323651
0.330698
0.341691
0.355186
0.367342
0.375918
0.380471
0.381498
0.379728
0.375754
0.333372
0.340414
0.35132
0.364622
0.376475
0.384682
0.388851
0.389508
0.387383
0.38302
-0.049367
0.111514
0.144892
0.143791
0.12941
0.108812
0.0857705
0.0617594
0.0372929
0.0125352
0.0555316
0.146506
0.159531
0.149911
0.130715
0.108285
0.0847071
0.0607359
0.0365897
0.0122928
0.13901
0.174845
0.171326
0.15402
0.131613
0.107738
0.0837166
0.0597928
0.0359433
0.0120685
0.201629
0.198839
0.181703
0.157918
0.132351
0.107208
0.0828033
0.0589271
0.03535
0.011861
0.249563
0.21984
0.190711
0.161104
0.132878
0.106679
0.0819544
0.0581308
0.0348054
0.0116688
0.285938
0.23755
0.198066
0.163594
0.133206
0.106143
0.0811603
0.0573972
0.0343053
0.0114903
0.312443
0.251599
0.203789
0.165434
0.133335
0.105588
0.0804104
0.0567193
0.0338457
0.0113242
0.330322
0.261803
0.2079
0.166639
0.133255
0.105001
0.0796941
0.0560898
0.0334225
0.0111691
0.340351
0.26796
0.210387
0.167214
0.132957
0.104367
0.0790008
0.0555017
0.0330313
0.0110236
0.342911
0.270076
0.211238
0.167159
0.13243
0.103673
0.0783198
0.0549476
0.0326681
0.0108867
-0.26567
-0.0122714
0.0853317
0.11648
0.118397
0.105374
0.0854811
0.0625465
0.0381812
0.0129474
-0.242705
0.0103596
0.0943368
0.120311
0.119545
0.105657
0.0854661
0.0624332
0.0380553
0.0128901
-0.200247
0.0280622
0.102651
0.124122
0.121241
0.106221
0.0855333
0.0623259
0.0379178
0.0128232
-0.158567
0.0515239
0.114357
0.129678
0.123693
0.107152
0.0857615
0.0622846
0.0378104
0.0127668
-0.114531
0.0822602
0.130791
0.137719
0.127185
0.108416
0.0861336
0.0623036
0.0377313
0.0127214
-1.90918
-2.01678
-2.03587
-1.96765
-1.82031
-1.63091
-1.38969
-1.16037
-0.920673
-0.696154
-1.90662
-2.01219
-2.02628
-1.95262
-1.80184
-1.60969
-1.36561
-1.12913
-0.895647
-0.671203
-1.90847
-2.01441
-2.02539
-1.94567
-1.78737
-1.58233
-1.33073
-1.07713
-0.839336
-0.626195
-1.91787
-2.02615
-2.03559
-1.94901
-1.77966
-1.55452
-1.29092
-1.02247
-0.787057
-0.588708
-1.93623
-2.04731
-2.05546
-1.96203
-1.78077
-1.53789
-1.26312
-0.989197
-0.748854
-0.538315
1.09369
1.07149
1.041
1.0055
0.965396
0.918786
0.864396
0.805283
0.754566
0.730741
1.22158
1.21526
1.20104
1.18061
1.15501
1.1232
1.08429
1.04088
1.00367
0.986698
1.34649
1.34542
1.33922
1.32863
1.31407
1.29462
1.2694
1.24019
1.21521
1.2044
1.45606
1.45986
1.46102
1.45923
1.45433
1.44548
1.43183
1.41452
1.39958
1.39386
1.5485
1.55617
1.56272
1.56748
1.56995
1.56934
1.5648
1.55696
1.55018
1.54879
1.62075
1.63166
1.64271
1.65282
1.66125
1.66726
1.67005
1.66976
1.66937
1.67133
1.67209
1.68546
1.69987
1.71395
1.72679
1.73771
1.74591
1.75121
1.75553
1.75998
1.70246
1.71745
1.7341
1.7508
1.76653
1.78066
1.79241
1.80134
1.8087
1.81473
1.7119
1.72759
1.74527
1.76318
1.78026
1.79589
1.80929
1.81993
1.82868
1.83541
1.70047
1.71594
1.73344
1.75117
1.76805
1.78347
1.79667
1.80708
1.8156
1.82215
-1.77178
-1.84673
-1.94244
-2.05969
-2.20103
-2.36871
-2.56152
-2.76303
-2.92683
-2.99465
-1.4948
-1.5722
-1.66751
-1.78204
-1.91938
-2.08211
-2.26998
-2.47513
-2.6471
-2.71953
-1.16299
-1.24182
-1.33675
-1.44881
-1.5816
-1.73813
-1.91883
-2.11357
-2.29475
-2.36812
-0.800939
-0.880158
-0.974021
-1.08296
-1.21003
-1.35839
-1.52873
-1.71386
-1.88605
-1.96257
-0.43499
-0.513958
-0.605338
-0.709213
-0.828351
-0.966054
-1.12373
-1.29499
-1.45127
-1.52474
-0.0925246
-0.167963
-0.253338
-0.348622
-0.45652
-0.580406
-0.721859
-0.874952
-1.0128
-1.07981
0.212494
0.145732
0.0707683
-0.0123121
-0.106167
-0.21404
-0.337351
-0.470488
-0.58899
-0.647175
0.487146
0.431621
0.368888
0.299042
0.219415
0.127046
0.020955
-0.0933405
-0.193594
-0.242535
0.746299
0.699551
0.645493
0.58532
0.516536
0.43657
0.344902
0.246936
0.162654
0.122299
0.972749
0.931244
0.880947
0.826965
0.767666
0.700497
0.624576
0.544243
0.476119
0.444069
1.60239
1.4624
1.56443
1.432
1.48423
1.48186
1.47854
1.4786
1.44284
1.28366
1.58845
1.45824
1.56197
1.43307
1.48149
1.48222
1.48072
1.48902
1.47448
1.36912
1.57585
1.4537
1.55854
1.43365
1.47842
1.48179
1.48346
1.49864
1.50185
1.45477
1.56448
1.44891
1.55434
1.43363
1.47503
1.48045
1.48453
1.50511
1.52253
1.52015
1.55413
1.44395
1.54957
1.43288
1.47131
1.47815
1.4842
1.50897
1.53759
1.57128
1.54466
1.43887
1.5444
1.43134
1.46723
1.47491
1.48252
1.51021
1.54755
1.60815
1.53596
1.43373
1.539
1.429
1.46278
1.47078
1.47943
1.50882
1.55264
1.63191
1.52795
1.42855
1.5335
1.42586
1.45791
1.46581
1.47491
1.50486
1.55274
1.64342
1.52054
1.42333
1.52801
1.42196
1.4526
1.46001
1.46892
1.49837
1.54763
1.64324
1.5137
1.41811
1.52262
1.41734
1.44686
1.45342
1.46147
1.48935
1.53734
1.63165
1.73985
1.47656
1.56918
1.43077
1.48637
1.47476
1.4593
1.43283
1.34348
1.14206
1.68194
1.47057
1.5675
1.43246
1.48529
1.47634
1.46076
1.43621
1.35042
1.14639
1.66033
1.47224
1.56871
1.43292
1.48549
1.4776
1.46368
1.44265
1.36443
1.15653
1.6373
1.46985
1.56776
1.43269
1.4856
1.47895
1.46773
1.45187
1.38336
1.17672
1.61819
1.46632
1.56622
1.43189
1.48556
1.48026
1.47229
1.4633
1.40735
1.19895
0.787514
0.633079
0.430176
0.164682
-0.150753
-0.490882
-0.833475
-1.16573
-1.47109
-1.72429
0.786959
0.633473
0.437503
0.181618
-0.125015
-0.462338
-0.808616
-1.14713
-1.45932
-1.7189
0.807313
0.649033
0.449888
0.199941
-0.0992512
-0.436431
-0.789063
-1.13451
-1.45267
-1.71759
0.859259
0.682458
0.468082
0.217302
-0.0778899
-0.415709
-0.774871
-1.12786
-1.45209
-1.72255
0.939565
0.733574
0.493907
0.233316
-0.0636145
-0.402663
-0.766442
-1.12623
-1.45739
-1.73498
)
;

boundaryField
{
    left
    {
        type            zeroGradient;
    }
    right
    {
        type            fixedValue;
        value           uniform 0;
    }
    down
    {
        type            zeroGradient;
    }
    up
    {
        type            zeroGradient;
    }
    cylinder
    {
        type            zeroGradient;
    }
    defaultFaces
    {
        type            empty;
    }
}


// ************************************************************************* //
