/*--------------------------------*- C++ -*----------------------------------*\
  =========                 |
  \\      /  F ield         | OpenFOAM: The Open Source CFD Toolbox
   \\    /   O peration     | Website:  https://openfoam.org
    \\  /    A nd           | Version:  13
     \\/     M anipulation  |
\*---------------------------------------------------------------------------*/
FoamFile
{
    format      ascii;
    class       volVectorField;
    location    "62.2";
    object      U;
}
// * * * * * * * * * * * * * * * * * * * * * * * * * * * * * * * * * * * * * //

dimensions      [0 1 -1 0 0 0 0];

internalField   nonuniform List<vector> 
440
(
(-0.0878066 0.0629138 -7.76171e-20)
(-0.0959536 0.0865106 5.26452e-20)
(0.104458 0.0649577 8.88667e-20)
(0.576794 0.0543094 1.54746e-19)
(0.733305 0.0994249 2.052e-20)
(-0.0869248 0.04739 4.34674e-20)
(0.129012 -0.00939546 -1.53795e-19)
(0.730271 -0.0716131 -1.29121e-19)
(1.33325 -0.116448 5.93175e-20)
(1.9228 -0.145957 2.963e-21)
(0.00510853 -0.00736776 5.40017e-20)
(0.676861 -0.0728717 9.29347e-19)
(1.53105 -0.0806126 -6.03541e-19)
(2.14441 -0.0618259 -1.8206e-18)
(2.57826 -0.0677067 7.76093e-19)
(0.263333 -0.0584294 -1.86753e-19)
(1.40936 -0.0114479 -6.84476e-19)
(2.18187 0.0383401 2.20337e-18)
(2.53761 0.054151 2.42545e-18)
(2.56767 0.0574774 -6.67875e-19)
(0.673835 -0.00046013 -3.4014e-19)
(1.91584 0.176016 -7.40709e-19)
(2.41851 0.230147 2.26864e-18)
(2.53517 0.230487 2.36174e-18)
(2.61706 0.199985 7.85415e-19)
(-0.0112805 0.855923 5.54345e-19)
(-0.0481667 1.24883 1.04127e-18)
(-0.0797333 1.2461 -2.47483e-18)
(-0.0759152 1.12792 4.49085e-19)
(-0.0755067 1.00177 2.99334e-18)
(-0.0591614 0.528655 -5.18948e-20)
(-0.00318041 1.04722 -2.71341e-19)
(0.0543046 1.16008 -6.87525e-20)
(0.15474 1.06484 -7.98795e-20)
(0.185562 0.862191 1.50673e-19)
(-0.0547143 0.195699 1.78857e-19)
(-0.0478296 0.60639 -2.84635e-19)
(0.00141906 0.804649 1.41877e-19)
(0.115662 0.823766 -1.45975e-19)
(0.17137 0.739816 9.94097e-21)
(-0.0295245 0.0539382 -5.60779e-20)
(-0.076513 0.273068 1.22296e-19)
(-0.0577379 0.442168 -9.69108e-21)
(0.0278962 0.512355 -2.33596e-19)
(0.076571 0.542177 2.75854e-20)
(-0.0504518 0.0402347 -5.32846e-20)
(-0.133736 0.129741 -7.68793e-20)
(-0.130479 0.205439 -1.72271e-19)
(0.00433622 0.232166 8.40898e-20)
(0.127241 0.290989 -1.00901e-19)
(0.509128 0.0618356 -2.42644e-18)
(-0.369763 -1.24969 1.10499e-18)
(1.44754 0.0432312 -5.80751e-19)
(1.06899 0.62792 -4.05636e-19)
(1.01573 -0.0104899 2.76967e-20)
(1.29038 0.0227127 7.41991e-20)
(0.690799 -1.29944 -1.69414e-19)
(1.37046 -0.255752 6.84147e-20)
(1.11834 0.648238 4.06905e-19)
(1.12095 0.00840665 -4.47501e-20)
(1.00681 -0.152159 -9.1801e-19)
(2.00837 -1.32655 7.79564e-19)
(1.07998 -0.238238 -7.57763e-20)
(0.913569 0.69455 1.36533e-19)
(1.21823 -0.00473343 -7.5828e-21)
(1.12363 -0.325562 3.81203e-19)
(2.7115 -1.32746 -3.06346e-19)
(0.995731 -0.136189 -5.32517e-19)
(0.726887 0.652342 1.85774e-19)
(1.40567 -0.0717372 2.34544e-19)
(1.61244 -0.66278 -1.5721e-19)
(2.21037 -1.33305 -5.51564e-20)
(0.977105 0.0460274 0)
(0.821189 0.60589 -2.72655e-19)
(1.62551 -0.147498 3.60974e-20)
(2.33966 -0.514322 -5.19462e-19)
(1.91094 -1.10797 9.67203e-20)
(0.942231 -0.0379946 -1.27849e-20)
(1.29084 0.451216 -1.87827e-19)
(1.8244 -0.238917 1.51193e-19)
(2.67625 -0.625777 5.24464e-20)
(1.74495 -0.789421 9.73667e-19)
(0.264299 0.234268 -7.12211e-21)
(1.57492 0.26624 1.57239e-19)
(1.81891 -0.278311 0)
(2.27659 -0.443223 -5.17788e-19)
(1.80814 -0.332087 1.50094e-20)
(0.493727 0.107448 1.39247e-19)
(1.93262 -0.174385 -7.98778e-22)
(1.697 -0.333336 1.95342e-20)
(2.07153 -0.360344 5.07231e-20)
(1.21101 -0.16049 3.65232e-20)
(1.11599 0.122528 -1.06319e-20)
(1.7374 -0.203821 3.31115e-34)
(1.01946 -0.18613 -3.10974e-20)
(1.07357 -0.0577142 1.47473e-19)
(0.461096 0.0316458 -3.14405e-20)
(0.813153 -0.0924167 -6.1941e-20)
(0.467275 -0.104329 3.74101e-20)
(-0.0674839 -0.0140288 -1.94933e-20)
(2.46021 0.21843 -9.57194e-19)
(2.67477 -0.042609 -1.25446e-18)
(2.52679 0.0278417 9.68605e-19)
(2.85005 -0.233393 6.32349e-20)
(2.24737 -0.0200074 -1.83156e-20)
(2.12027 0.147189 5.07481e-20)
(2.43198 -0.0939428 -4.12948e-20)
(2.23866 -0.029573 -1.44821e-19)
(2.55215 -0.248737 -2.35027e-19)
(2.34766 -0.256183 -7.27051e-21)
(2.11975 0.0408066 6.83646e-20)
(2.24546 -0.0674151 1.1184e-19)
(2.19853 -0.0942891 -1.61104e-19)
(2.2719 -0.183759 5.29026e-20)
(2.27386 -0.239443 3.99518e-20)
(2.1 -0.015088 1.12526e-19)
(2.09245 -0.0758323 1.09225e-19)
(2.13935 -0.0853548 -1.75103e-20)
(2.1104 -0.148249 1.15985e-20)
(2.14827 -0.163051 2.31993e-20)
(1.53129 -0.0284522 1.5675e-19)
(1.43891 -0.0254451 -1.27712e-20)
(1.49356 -0.0439681 2.67983e-20)
(1.36766 -0.0358822 -6.84332e-21)
(1.43057 -0.0669156 4.24253e-20)
(1.59243 0.837034 1.17976e-18)
(1.549 0.941041 -3.90858e-19)
(1.5558 1.07949 -1.428e-18)
(1.48749 1.12959 7.68452e-19)
(0.910756 0.81157 -1.75407e-19)
(1.89999 0.813565 -6.03303e-19)
(1.86404 0.888449 -3.16826e-18)
(1.8663 0.993117 -1.22025e-18)
(1.78041 1.009 -4.26379e-19)
(1.09056 0.714302 -7.0098e-19)
(2.19627 0.663376 8.0599e-19)
(2.18519 0.740566 2.07006e-19)
(2.16654 0.836937 -2.39424e-18)
(2.0346 0.827545 -6.87998e-19)
(1.21396 0.560743 5.1633e-19)
(2.39012 0.551231 2.43349e-18)
(2.3709 0.601052 1.80484e-18)
(2.36732 0.65758 -2.09877e-18)
(2.16817 0.622519 -1.61939e-18)
(1.20738 0.374873 -3.05049e-19)
(2.52319 0.370935 1.25195e-18)
(2.5547 0.401394 -8.9406e-19)
(2.47352 0.435224 6.3877e-19)
(2.1483 0.390362 5.23622e-19)
(1.04256 0.172977 -4.59639e-19)
(0.572103 0.510744 -6.03087e-19)
(0.478832 0.548202 -4.38238e-19)
(0.35982 0.583966 4.26663e-20)
(0.224548 0.583809 6.32342e-21)
(0.0555852 0.415569 9.09505e-20)
(0.687787 0.668766 1.21509e-19)
(0.62584 0.72783 -2.77518e-19)
(0.538205 0.794948 1.86133e-19)
(0.412161 0.85338 -8.70746e-20)
(0.180908 0.64773 1.23079e-19)
(0.779722 0.873454 8.32369e-20)
(0.707345 0.958855 4.95542e-19)
(0.655437 1.05675 1.34643e-19)
(0.573477 1.08959 -3.25401e-19)
(0.31504 0.797092 2.76739e-19)
(1.06816 0.924871 2.53783e-19)
(1.01826 1.00552 -7.82089e-19)
(0.969906 1.10716 -2.04483e-18)
(0.891445 1.17818 8.10146e-19)
(0.525666 0.873208 -1.62153e-19)
(1.13565 0.989511 -1.00184e-19)
(1.17595 1.11005 -1.77857e-19)
(1.20053 1.21956 -3.95496e-19)
(1.14694 1.23475 -4.42346e-19)
(0.70425 0.878111 -6.93907e-21)
(1.02094 0.0417178 -9.88773e-20)
(0.999836 0.0514392 -3.22802e-20)
(1.03102 0.14029 -1.39117e-21)
(0.943688 0.154684 -2.4941e-19)
(0.903817 0.317755 3.05897e-19)
(1.01214 0.0371063 6.24399e-20)
(1.01457 0.0510486 1.1877e-19)
(1.01334 0.150053 1.344e-19)
(0.989953 0.18086 3.56813e-20)
(0.93485 0.394824 -2.26605e-20)
(1.02255 0.0349869 8.4985e-20)
(0.992076 0.0446992 -4.55335e-21)
(1.06067 0.171192 -5.93565e-21)
(0.934267 0.174435 1.48096e-19)
(1.17288 0.545139 -4.99393e-19)
(1.02181 0.0334017 -2.30927e-22)
(1.00015 0.0398924 -1.64759e-19)
(1.04821 0.188593 -6.75075e-20)
(1.05278 0.171112 -3.70835e-19)
(1.16607 0.597102 9.4852e-20)
(1.02442 0.0279156 -1.41616e-20)
(0.983297 0.0429418 4.5425e-20)
(1.10824 0.183237 3.13243e-20)
(1.01732 0.201466 4.5941e-19)
(1.41355 0.727769 -4.81918e-19)
(0.997234 0.0332079 -1.12565e-20)
(1.02221 0.0184777 9.47662e-20)
(1.08878 0.212292 -6.95148e-20)
(1.27993 0.109337 9.90377e-19)
(1.31898 0.7865 -3.63566e-19)
(0.94734 0.00997151 -1.20872e-21)
(1.08242 0.021421 -8.32295e-20)
(1.04552 0.112788 5.65506e-21)
(1.45675 0.109012 -3.01812e-19)
(1.26776 0.56487 -7.56247e-20)
(0.964235 0.0170753 3.58637e-21)
(1.08038 0.00582899 1.46878e-35)
(1.16841 0.0436989 -3.67095e-20)
(1.35131 0.085188 8.97901e-20)
(1.33384 0.424781 1.85706e-19)
(1.02868 -0.0219059 3.71604e-21)
(1.05875 -0.0368268 -2.66635e-20)
(1.21444 -0.00891044 2.05944e-20)
(1.06964 0.0749821 2.08279e-20)
(1.55506 0.289072 -2.74007e-19)
(0.95945 -0.0227862 -3.81489e-20)
(0.865529 -0.0274355 -7.74876e-22)
(0.858994 0.00378869 2.79053e-20)
(0.76397 0.0159107 -1.94485e-20)
(1.24753 0.0634639 -6.33753e-20)
(1.84531 0.596514 2.90634e-19)
(1.92478 0.647578 7.50758e-19)
(2.19671 0.479292 -1.09454e-18)
(2.25654 0.471431 2.68753e-20)
(2.47638 0.232782 4.86602e-19)
(1.72621 0.361584 8.76907e-20)
(1.74565 0.425207 1.02379e-18)
(1.98948 0.269596 1.19521e-19)
(1.96145 0.309086 -8.99842e-19)
(2.23532 0.0825456 -2.83415e-19)
(1.72016 0.298935 -2.30127e-19)
(1.81119 0.277441 -1.50817e-19)
(1.96086 0.189951 2.35712e-19)
(1.99478 0.167279 -2.87206e-19)
(2.14261 0.0549259 2.61883e-19)
(1.75816 0.163767 4.16377e-19)
(1.88372 0.13298 -4.80887e-22)
(1.92744 0.0774733 2.2694e-19)
(2.01948 0.0580914 1.82571e-19)
(2.03414 -0.00250842 -1.76338e-19)
(1.4123 0.0284182 -5.23038e-20)
(1.50092 0.0117261 2.6085e-19)
(1.49303 0.00153821 1.09596e-19)
(1.54332 -0.0105551 -2.10603e-19)
(1.48237 -0.0151695 6.19765e-22)
(1.08037 -0.0151338 6.10673e-20)
(2.05859 -0.0410201 -3.98426e-19)
(2.29081 -0.0304606 1.10857e-18)
(2.27546 0.00674216 4.94863e-19)
(2.11016 0.0324162 -3.47425e-19)
(0.684494 0.094725 1.1605e-19)
(1.84176 0.0907677 -4.13173e-19)
(2.29439 0.0941643 -5.65533e-19)
(2.34534 0.101813 7.05192e-19)
(2.10597 0.0886518 -4.63425e-19)
(0.230559 0.0811519 -1.19278e-20)
(1.24515 0.152394 4.46945e-19)
(1.9596 0.175261 6.03226e-20)
(2.33536 0.167035 4.69534e-19)
(2.46692 0.160394 2.22744e-19)
(-0.0138344 -0.00834931 1.71767e-19)
(0.477104 0.0924531 1.76932e-19)
(1.22448 0.164158 -4.16879e-19)
(1.69962 0.199218 2.79365e-20)
(2.26336 0.226977 1.32449e-19)
(-0.0777535 -0.0628581 1.0888e-19)
(0.0305133 -0.0285692 -1.30074e-19)
(0.446378 0.0498434 -4.85731e-20)
(0.899341 0.0860798 2.81843e-20)
(1.29811 0.152373 -1.22445e-20)
(-0.0657892 -0.0722635 3.24854e-20)
(-0.0962817 -0.103712 4.55699e-20)
(0.0107337 -0.0948984 3.6753e-20)
(0.198453 -0.0509304 -1.26749e-19)
(0.547414 0.00810761 6.0128e-21)
(-0.0323722 -0.0508324 5.6825e-21)
(-0.0660928 -0.109284 -3.48193e-20)
(-0.0573373 -0.12081 -5.25828e-20)
(-0.00595559 -0.0910154 9.79731e-20)
(0.134403 -0.00625595 7.08433e-20)
(-0.0380878 -0.139895 -2.88001e-20)
(-0.0392882 -0.244406 -8.61271e-19)
(-0.0416576 -0.268862 5.6586e-19)
(-0.0654007 -0.249911 1.18751e-18)
(-0.0765372 -0.209888 -1.38742e-19)
(-0.0781714 -0.122387 3.40943e-20)
(-0.279198 -0.0525375 3.62033e-19)
(-0.444304 0.175573 -1.04099e-18)
(-0.621851 0.351688 -9.48896e-19)
(-0.73488 0.387098 -6.40946e-21)
(-0.0696419 0.507836 -1.09513e-19)
(-0.437172 0.740477 4.17786e-19)
(-0.750835 0.796978 -1.74678e-19)
(-0.94153 0.754013 2.06152e-19)
(-0.987666 0.646859 1.30483e-18)
(1.20849 0.642617 4.20826e-21)
(1.09381 -0.0086513 1.09592e-18)
(1.36326 0.26276 1.03594e-19)
(0.310867 0.111054 3.67142e-20)
(0.368639 -0.163311 -1.05291e-20)
(1.10049 0.563852 1.48177e-19)
(0.865609 -0.0887314 -5.88173e-19)
(1.56739 0.37611 3.32241e-19)
(0.668305 0.207818 3.42647e-21)
(0.519027 -0.144391 1.55196e-20)
(0.396269 0.375672 3.81401e-19)
(0.441478 -0.20469 8.69533e-19)
(1.71808 0.40365 -7.45807e-20)
(0.919105 0.328261 1.1992e-19)
(0.676542 -0.114154 1.96701e-21)
(-0.861811 0.400614 6.15517e-19)
(0.203137 -0.564221 -7.6457e-18)
(1.76645 0.391478 1.90648e-19)
(1.07288 0.445865 -3.34312e-21)
(0.822978 -0.0723208 5.1984e-20)
(-0.860165 -0.00281641 5.17752e-19)
(-0.362734 -1.15265 -1.08113e-18)
(1.67115 0.201043 -4.27069e-19)
(1.15052 0.537212 2.4668e-20)
(0.939541 -0.0272518 7.88427e-20)
(0.128176 0.1637 -1.18392e-19)
(-0.237051 -0.136156 0)
(0.084613 -0.0866924 1.82979e-20)
(-0.208157 -0.04525 1.79653e-20)
(0.293351 -0.0287375 -8.57719e-21)
(1.57059 0.534438 0)
(1.07437 0.135378 0)
(1.05096 0.0921053 1.56425e-20)
(-0.0296159 -0.0232439 2.73183e-21)
(0.405773 -0.129588 5.14496e-20)
(0.675533 0.000757269 -1.19188e-19)
(0.692898 -0.00432079 1.75229e-19)
(0.926129 -0.00229964 -5.39677e-20)
(0.88904 0.0109529 2.78527e-19)
(1.30519 0.0821798 2.03342e-19)
(1.53085 0.0243832 1.12537e-19)
(1.64301 0.0662419 2.52073e-19)
(1.83773 0.0433871 -4.0638e-19)
(2.33102 0.192638 1.95433e-20)
(2.10961 0.126063 1.92827e-19)
(0.861507 -0.443742 -3.59117e-20)
(0.845359 -0.527523 -1.43555e-19)
(0.831598 -0.618323 -9.04784e-20)
(0.759081 -0.680306 5.60126e-20)
(0.458025 -0.529082 1.1756e-19)
(0.761337 -0.344563 1.2576e-19)
(0.706594 -0.405794 2.64027e-19)
(0.634883 -0.472814 -2.90475e-20)
(0.524932 -0.52875 1.28411e-19)
(0.283054 -0.419287 5.25593e-20)
(0.626846 -0.202236 -1.54878e-19)
(0.54079 -0.237929 -4.81204e-20)
(0.439226 -0.282166 1.36508e-19)
(0.319521 -0.321854 -7.17893e-21)
(0.137243 -0.259715 -1.09193e-19)
(0.536507 0.029746 -4.29687e-19)
(0.450022 0.018266 -3.55807e-19)
(0.339309 -0.000913568 2.80162e-19)
(0.212211 -0.0294704 1.76764e-19)
(0.0532227 -0.0465938 1.3479e-20)
(0.515429 0.236244 -1.66574e-19)
(0.428951 0.241802 -1.67536e-19)
(0.312653 0.247963 -7.39599e-20)
(0.176953 0.257019 1.55692e-20)
(0.0235267 0.189472 1.07045e-20)
(1.88839 -0.0396128 7.26518e-19)
(2.14017 -0.100568 2.43209e-19)
(2.21234 -0.178211 -6.49414e-19)
(2.06205 -0.204345 -1.31501e-18)
(1.22589 -0.170109 1.12749e-19)
(1.8637 -0.117296 1.20479e-18)
(1.9553 -0.221748 1.60343e-18)
(1.97535 -0.335758 1.34313e-19)
(1.89107 -0.390001 2.36688e-19)
(1.19704 -0.329546 -1.55637e-19)
(1.59985 -0.269569 -3.11664e-18)
(1.66557 -0.380696 3.45227e-19)
(1.70911 -0.497095 9.78633e-19)
(1.64326 -0.563568 -3.59429e-19)
(1.05534 -0.464587 5.66756e-19)
(1.40037 -0.384917 7.40221e-19)
(1.42006 -0.478016 -1.96468e-18)
(1.40895 -0.588179 -2.23688e-18)
(1.33889 -0.664959 6.72366e-19)
(0.856279 -0.535844 4.65294e-19)
(1.13636 -0.437755 1.4855e-19)
(1.09856 -0.526099 2.2455e-19)
(1.08845 -0.638693 -3.36177e-19)
(1.03033 -0.714891 -4.04294e-19)
(0.64779 -0.559713 -3.71523e-21)
(1.07537 0.0543836 7.70971e-21)
(0.924819 0.0642498 -4.05908e-21)
(1.10646 0.0855599 -1.35241e-21)
(0.798086 0.0203209 -2.05903e-19)
(1.03768 -0.181109 -1.10026e-20)
(1.08443 0.0563456 -2.53363e-21)
(0.923271 0.0633214 4.45288e-20)
(1.10684 0.103729 -3.91013e-20)
(0.883952 0.0681935 1.32965e-19)
(0.94778 -0.0662756 -1.53276e-20)
(1.08191 0.0519073 -6.18054e-20)
(0.927635 0.0612563 2.55244e-22)
(1.09522 0.106395 -2.01865e-20)
(0.887209 0.0941579 4.78768e-20)
(0.92657 -0.00471362 -1.77871e-19)
(1.06149 0.0492428 7.51395e-20)
(0.956188 0.0576108 3.3511e-21)
(1.06166 0.114929 3.36925e-20)
(0.922225 0.118559 2.85302e-22)
(0.851981 0.105851 1.00569e-19)
(1.03501 0.0445372 1.89965e-20)
(0.989085 0.0569443 -2.79262e-20)
(1.03002 0.122404 4.69035e-20)
(0.951417 0.145294 6.48932e-20)
(0.835393 0.207555 -1.09336e-19)
(0.892615 0.0340815 0)
(0.703853 0.0286654 1.0338e-20)
(0.585777 0.0232457 4.30076e-21)
(0.322075 -0.00504731 3.9226e-20)
(0.612517 -0.0483336 -1.2149e-19)
(1.04175 0.0750774 -6.61171e-20)
(0.934292 0.0776508 -1.67555e-20)
(1.00546 0.0845254 -3.67728e-20)
(0.78219 0.0100136 -1.133e-19)
(0.96947 -0.16925 -1.31826e-19)
(0.843243 -0.0621699 -2.92493e-20)
(0.925165 -0.0293564 4.58754e-19)
(1.00479 0.0346753 2.77291e-19)
(0.888158 0.0472152 2.90253e-20)
(0.69154 0.024479 0)
(1.19878 -0.294331 2.76546e-19)
(1.30579 -0.260274 1.30547e-18)
(1.46582 -0.146457 -1.43796e-18)
(1.55329 -0.0215701 -4.41945e-19)
(1.45652 0.0224268 3.39868e-19)
)
;

boundaryField
{
    left
    {
        type            fixedValue;
        value           uniform (1 0 0);
    }
    right
    {
        type            zeroGradient;
    }
    down
    {
        type            noSlip;
    }
    up
    {
        type            noSlip;
    }
    cylinder
    {
        type            noSlip;
    }
    defaultFaces
    {
        type            empty;
    }
}


// ************************************************************************* //
