/*--------------------------------*- C++ -*----------------------------------*\
  =========                 |
  \\      /  F ield         | OpenFOAM: The Open Source CFD Toolbox
   \\    /   O peration     | Website:  https://openfoam.org
    \\  /    A nd           | Version:  13
     \\/     M anipulation  |
\*---------------------------------------------------------------------------*/
FoamFile
{
    format      ascii;
    class       volVectorField;
    location    "3.855";
    object      U;
}
// * * * * * * * * * * * * * * * * * * * * * * * * * * * * * * * * * * * * * //

dimensions      [0 1 -1 0 0 0 0];

internalField   nonuniform List<vector> 
440
(
(-0.0612027 0.0342957 -7.91292e-20)
(-0.100888 0.0846799 6.43588e-20)
(-0.0231711 0.110132 1.23079e-19)
(0.428077 0.13316 3.07713e-19)
(0.201959 0.414297 1.97988e-21)
(-0.0885047 0.0421498 2.98154e-20)
(0.0221863 0.0077532 -1.42909e-19)
(0.46184 -0.0270567 -1.25535e-19)
(1.03598 -0.0508012 6.78745e-20)
(1.3815 -0.00748636 2.15397e-20)
(-0.0402511 0.0142921 5.16963e-20)
(0.439123 -0.0243905 7.04168e-19)
(1.21898 -0.00175943 -3.78391e-19)
(1.79317 0.0444034 -1.14627e-18)
(2.39763 0.0671227 3.39164e-19)
(0.173131 -0.0413507 -1.73627e-19)
(1.16822 0.0163251 -5.12113e-19)
(1.96283 0.09746 1.57997e-18)
(2.45163 0.139093 1.6668e-18)
(2.52821 0.166469 -4.61033e-19)
(0.547046 -0.0043294 -2.81151e-19)
(1.74923 0.197921 -5.89878e-19)
(2.31581 0.279502 1.76742e-18)
(2.43077 0.297151 1.85072e-18)
(2.51542 0.263445 6.12986e-19)
(-0.0406609 0.244707 6.22048e-20)
(-0.173107 0.400675 1.3509e-19)
(-0.295218 0.425433 -3.45057e-19)
(-0.394742 0.425837 6.48755e-20)
(-0.466639 0.423307 5.3243e-19)
(-0.078184 0.35647 -1.50047e-20)
(-0.180181 0.610593 -1.67166e-19)
(-0.261331 0.637129 2.06534e-20)
(-0.327524 0.605625 2.37934e-20)
(-0.368198 0.56896 -5.20848e-20)
(-0.100407 0.30478 -7.5584e-20)
(-0.176253 0.664844 4.60897e-20)
(-0.207758 0.792002 -1.44339e-20)
(-0.215797 0.794897 -4.18335e-19)
(-0.197906 0.741761 6.9939e-21)
(-0.0670394 0.141138 -2.03016e-20)
(-0.133068 0.450509 3.2796e-20)
(-0.14383 0.652138 5.52983e-20)
(-0.118831 0.748096 1.59052e-19)
(-0.0809574 0.786446 -4.41339e-20)
(-0.0371976 0.040104 -6.56382e-20)
(-0.113493 0.198844 -8.43661e-20)
(-0.149777 0.371632 -1.39129e-19)
(-0.0681446 0.46917 -4.35436e-20)
(-0.0624065 0.681955 -5.28477e-19)
(-0.718199 0.389247 -7.48282e-19)
(0.00642126 -0.108257 1.12595e-18)
(0.456073 -0.44748 1.17679e-19)
(0.686346 -0.439699 -9.9108e-20)
(0.943237 -0.243863 2.23134e-21)
(-0.47783 0.335028 3.44855e-19)
(0.523214 -0.282118 -2.2064e-19)
(0.838832 -0.525136 1.20232e-19)
(0.982468 -0.490454 1.92899e-19)
(1.05651 -0.268642 3.2065e-20)
(-0.0143361 0.227348 -5.84817e-20)
(1.00843 -0.430382 1.12226e-18)
(1.19346 -0.585638 -9.81506e-20)
(1.27598 -0.505911 1.73855e-19)
(1.1936 -0.269298 -1.46001e-21)
(0.433553 0.162914 2.36081e-19)
(1.43875 -0.538113 -1.81311e-19)
(1.46633 -0.630476 -8.53113e-21)
(1.46946 -0.503764 -1.44868e-19)
(1.30135 -0.254332 8.78175e-20)
(0.857517 -0.0185646 -1.46333e-19)
(1.81979 -0.612763 -1.19875e-19)
(1.72882 -0.635044 0)
(1.59595 -0.480742 7.74587e-20)
(1.35909 -0.230297 3.01329e-20)
(1.84332 -0.0987695 -3.67525e-19)
(2.30278 -0.568909 2.70872e-20)
(2.03458 -0.572395 -2.26441e-20)
(1.70915 -0.415375 9.14508e-20)
(1.37959 -0.194285 -7.42714e-20)
(2.43198 -0.1987 7.56576e-21)
(2.45403 -0.598785 6.76958e-19)
(1.99928 -0.476832 -1.65233e-20)
(1.5461 -0.246114 -1.38272e-19)
(1.22453 -0.104115 0)
(2.41584 -0.177055 -3.27212e-19)
(2.22557 -0.40851 4.69923e-21)
(1.85788 -0.293695 -3.72e-20)
(1.58488 -0.135001 7.18842e-20)
(1.25657 -0.0606701 -3.95078e-20)
(2.3042 -0.155969 9.45218e-20)
(1.94393 -0.355541 1.92864e-19)
(1.41947 -0.231976 -2.3742e-20)
(1.15031 -0.0261471 -5.36388e-34)
(0.974971 0.017821 3.67845e-20)
(1.52372 -0.0836008 1.37695e-19)
(0.872866 -0.0498504 5.18517e-20)
(0.402446 0.0106089 -1.38832e-20)
(0.330413 0.0229502 -1.42451e-20)
(0.386107 0.00763976 5.67443e-21)
(2.40951 0.283334 -7.18041e-19)
(2.65896 0.0589115 -9.32165e-19)
(2.47455 0.16563 4.92e-19)
(2.78048 -0.0465107 1.24241e-19)
(1.98203 0.219869 4.19385e-21)
(2.12519 0.208298 7.83481e-20)
(2.5084 0.0107474 -3.5045e-20)
(2.26874 0.0762639 -1.27868e-19)
(2.58859 -0.0939226 -2.00382e-19)
(2.3819 -0.101357 -6.0509e-21)
(2.12379 0.104732 7.80367e-20)
(2.2847 0.0148885 7.76716e-20)
(2.23578 0.000961891 -9.44146e-20)
(2.3303 -0.0568177 3.59496e-20)
(2.33976 -0.108715 -1.07338e-20)
(2.07066 0.0383666 1.11261e-19)
(2.11466 -0.00346522 1.55885e-19)
(2.16185 -0.0146765 -1.81581e-20)
(2.19117 -0.0439108 -6.96401e-20)
(2.23543 -0.0712423 3.21515e-20)
(1.53938 -0.00671234 1.79059e-19)
(1.51283 -0.0139651 -1.08101e-20)
(1.56432 -0.0153969 1.74941e-20)
(1.53396 -0.0228014 -3.10586e-20)
(1.57359 -0.0259935 -8.20392e-21)
(1.55508 0.810849 1.11546e-18)
(1.50574 0.907358 -3.69125e-19)
(1.50061 1.03712 -1.328e-18)
(1.42631 1.08278 7.04257e-19)
(0.865357 0.767315 -1.59257e-19)
(1.83559 0.791263 -5.65986e-19)
(1.8009 0.864069 -2.93149e-18)
(1.80365 0.964043 -1.11547e-18)
(1.70649 0.972815 -3.89864e-19)
(1.0349 0.675728 -6.29679e-19)
(2.15815 0.648724 7.21862e-19)
(2.12781 0.719393 1.91857e-19)
(2.08828 0.810633 -2.16993e-18)
(1.95099 0.801811 -6.10661e-19)
(1.14808 0.530731 4.56096e-19)
(2.31515 0.554725 2.12284e-18)
(2.30026 0.60718 1.57065e-18)
(2.29451 0.655431 -1.83752e-18)
(2.06876 0.613792 -1.38091e-18)
(1.12876 0.354691 -2.5682e-19)
(2.48655 0.404121 1.02589e-18)
(2.48299 0.425014 -7.5839e-19)
(2.36316 0.454667 5.37569e-19)
(2.02998 0.401851 4.281e-19)
(0.939742 0.157462 -3.56885e-19)
(0.571773 0.489559 -5.9919e-19)
(0.482095 0.521084 -4.56823e-19)
(0.365333 0.550359 5.08811e-20)
(0.227898 0.548845 -4.57392e-21)
(0.0571585 0.389735 8.08778e-20)
(0.661668 0.650732 1.06457e-19)
(0.597261 0.706084 -2.68121e-19)
(0.511036 0.771262 1.75529e-19)
(0.390085 0.822606 -8.22153e-20)
(0.171035 0.617984 1.16405e-19)
(0.768543 0.852184 1.21866e-19)
(0.693917 0.92848 4.47947e-19)
(0.636793 1.01764 1.14447e-19)
(0.551665 1.04467 -2.97866e-19)
(0.30108 0.756786 2.50307e-19)
(1.0306 0.908739 2.16631e-19)
(0.984507 0.983447 -6.91215e-19)
(0.936781 1.07648 -1.85811e-18)
(0.856447 1.13721 7.35952e-19)
(0.502475 0.832769 -1.55294e-19)
(1.08834 0.963937 -8.51085e-20)
(1.12611 1.0784 -1.58503e-19)
(1.15246 1.18265 -3.69117e-19)
(1.09677 1.18968 -4.05512e-19)
(0.668923 0.832856 -6.30642e-21)
(0.969634 0.0324738 -9.14271e-20)
(1.03135 0.0346163 -2.70534e-20)
(1.03734 0.126823 -2.04338e-21)
(0.961952 0.153006 -2.04189e-19)
(0.891798 0.32122 2.95755e-19)
(0.965377 0.0270801 5.94082e-20)
(1.04369 0.0348573 1.04635e-19)
(1.02024 0.130767 1.24129e-19)
(1.00656 0.187809 3.08584e-20)
(0.928267 0.397203 -2.1249e-20)
(0.973102 0.0239858 7.88565e-20)
(1.02582 0.0283572 -4.187e-21)
(1.06963 0.151964 -2.23942e-21)
(0.950256 0.178036 1.22692e-19)
(1.15187 0.553599 -5.04497e-19)
(0.972284 0.0209787 -8.4448e-22)
(1.03636 0.022931 -1.46915e-19)
(1.05981 0.165109 -6.05904e-20)
(1.05096 0.186274 -3.15936e-19)
(1.13181 0.610287 8.36689e-20)
(0.975039 0.0157439 -1.48077e-20)
(1.02788 0.0235578 3.93525e-20)
(1.10632 0.169473 2.69902e-20)
(1.00865 0.216137 4.15691e-19)
(1.38966 0.735036 -4.89676e-19)
(0.959673 0.0156916 -1.04949e-20)
(1.05842 0.00441118 8.88163e-20)
(1.09694 0.196054 -6.2464e-20)
(1.22609 0.124167 8.86198e-19)
(1.26846 0.809271 -3.18948e-19)
(0.952068 -0.0035986 -1.66241e-21)
(1.09281 -0.00353648 -7.99437e-20)
(1.07023 0.124774 3.90967e-21)
(1.30194 0.147438 -2.51708e-19)
(1.19407 0.568997 -8.89786e-20)
(0.968901 -0.0118023 1.40466e-21)
(1.08241 -0.0112942 1.21305e-35)
(1.0974 0.094233 -1.76019e-20)
(1.25666 0.118859 9.18741e-20)
(1.37531 0.390542 1.76282e-19)
(1.00198 -0.0439404 4.2839e-21)
(1.01264 -0.0261157 -2.33925e-20)
(1.14164 0.0331466 1.6206e-20)
(1.15399 0.0706913 2.1994e-20)
(1.58519 0.233606 -2.78177e-19)
(0.926886 -0.0223327 -3.83578e-20)
(0.832792 -0.0243556 -2.03125e-21)
(0.87753 0.00198102 2.26315e-20)
(0.836284 0.00754671 -1.97003e-20)
(1.22583 0.0600219 -6.43067e-20)
(1.80806 0.591881 2.6129e-19)
(1.88415 0.645838 7.24443e-19)
(2.17772 0.474699 -1.02476e-18)
(2.21892 0.486029 -4.35652e-20)
(2.46851 0.27169 4.56901e-19)
(1.77322 0.341847 1.04248e-19)
(1.7558 0.415383 9.55603e-19)
(2.05922 0.273566 1.39758e-19)
(1.96703 0.329831 -9.16403e-19)
(2.32527 0.1356 -2.58783e-19)
(1.76876 0.242827 -2.35432e-19)
(1.83578 0.257779 -1.50638e-19)
(1.9944 0.177852 1.19558e-19)
(1.99482 0.194917 -2.86914e-19)
(2.17533 0.0921532 2.60093e-19)
(1.76253 0.134022 3.9078e-19)
(1.85663 0.130388 -5.77614e-21)
(1.89973 0.0851448 2.19421e-19)
(1.96816 0.0891881 1.96329e-19)
(2.015 0.0388231 -1.89309e-19)
(1.37133 0.034054 -4.82882e-20)
(1.44684 0.025504 2.47894e-19)
(1.44657 0.0127851 1.11212e-19)
(1.50217 0.00752471 -2.22178e-19)
(1.4836 -0.00384124 -1.14815e-23)
(1.15106 -0.0194397 6.71961e-20)
(2.14924 -0.0379144 -4.32715e-19)
(2.37811 -0.0301307 1.16553e-18)
(2.35471 0.00972913 5.13155e-19)
(2.19911 0.0336069 -3.65672e-19)
(0.737949 0.0983506 1.26308e-19)
(1.93122 0.0965057 -4.39567e-19)
(2.37683 0.10006 -5.99348e-19)
(2.43148 0.104601 7.41502e-19)
(2.17417 0.0948506 -4.92296e-19)
(0.25398 0.0875904 -1.68268e-20)
(1.32184 0.162829 4.70954e-19)
(2.04673 0.18317 6.3505e-20)
(2.40691 0.177009 4.50861e-19)
(2.56266 0.160787 1.68672e-19)
(-0.0101707 -0.00627219 1.87737e-19)
(0.522036 0.100709 1.88933e-19)
(1.29352 0.174914 -4.15005e-19)
(1.78016 0.201042 2.3792e-20)
(2.31318 0.229268 7.13633e-20)
(-0.0837934 -0.0687356 1.31813e-19)
(0.0408688 -0.0312127 -1.45116e-19)
(0.478833 0.0531119 -2.85469e-20)
(0.948506 0.0967789 5.31846e-20)
(1.35737 0.160904 -6.35415e-21)
(-0.0730417 -0.0803042 1.38144e-20)
(-0.0906862 -0.110609 6.6289e-20)
(0.0374404 -0.0860035 5.19772e-20)
(0.256858 -0.0262247 -9.68639e-20)
(0.617204 0.0506074 4.50905e-21)
(-0.0555958 -0.0964595 -2.33954e-20)
(-0.0849768 -0.173335 -1.45935e-20)
(-0.0587486 -0.182761 1.21385e-20)
(0.011883 -0.142076 3.33567e-21)
(0.163758 -0.0595499 1.22193e-20)
(-0.0533625 -0.14465 -3.62661e-20)
(-0.0868243 -0.232001 -2.53607e-19)
(-0.0887843 -0.23035 1.87016e-19)
(-0.0737293 -0.189802 6.02856e-19)
(-0.0338856 -0.132143 -8.95071e-20)
(-0.0405136 -0.102829 2.57484e-20)
(-0.125977 -0.122327 2.1458e-19)
(-0.203386 -0.09058 -6.49408e-19)
(-0.266392 -0.0427802 -4.45866e-19)
(-0.294164 0.0114868 8.17063e-20)
(-0.0220704 0.0559003 -1.09882e-20)
(-0.14013 0.124873 4.50796e-20)
(-0.256544 0.157095 -1.78466e-20)
(-0.358871 0.184716 -9.89923e-21)
(-0.430319 0.216306 1.18465e-19)
(1.35107 0.464151 -2.44131e-20)
(1.01438 0.174151 7.63164e-19)
(0.953097 -0.0398888 -9.34233e-20)
(0.887174 -0.0468235 -1.29136e-19)
(0.983048 -0.00427975 1.74326e-21)
(1.06613 0.351102 9.23113e-20)
(0.510138 0.184139 -9.46255e-20)
(0.463876 0.00773238 -2.08017e-19)
(0.538593 -0.061882 -1.55931e-20)
(0.860833 -0.035402 -2.41548e-20)
(0.397427 0.303819 1.08784e-19)
(-0.205772 0.235519 1.25519e-19)
(0.194194 -0.0667727 4.83355e-20)
(0.409557 -0.156448 1.03033e-19)
(0.828118 -0.0871515 -5.23908e-22)
(-0.266847 0.362805 1.01906e-19)
(-0.511339 0.195977 -1.38138e-18)
(0.166988 -0.190503 -8.81916e-20)
(0.418466 -0.249101 5.81766e-21)
(0.841692 -0.143945 2.13403e-20)
(-0.651058 0.391869 7.06544e-20)
(-0.396507 0.0724958 -1.23412e-19)
(0.23038 -0.335681 9.86548e-20)
(0.498772 -0.351913 -2.82624e-20)
(0.876496 -0.198321 3.41038e-20)
(0.627727 0.125969 -7.64364e-20)
(0.019173 -0.0435019 0)
(0.155011 -0.0720974 -3.8055e-20)
(0.29265 -0.0476362 1.84081e-20)
(0.441374 -0.0232637 4.62158e-21)
(1.89017 0.381232 0)
(1.21765 0.209828 0)
(1.1502 -0.00364908 3.43321e-19)
(1.17334 -0.0469928 5.4331e-20)
(1.10339 -0.0190169 -4.45507e-21)
(0.706282 0.00064934 -1.27906e-19)
(0.771029 -0.00176637 3.13152e-19)
(0.89008 -0.00951229 -1.22157e-20)
(1.04627 0.0119424 2.49639e-19)
(1.28584 0.0624877 1.57677e-19)
(1.60094 0.022254 1.22656e-19)
(1.72541 0.0754918 3.47522e-19)
(1.89083 0.0506386 -1.49361e-19)
(2.44477 0.167116 8.32679e-21)
(2.10773 0.142462 1.11782e-19)
(0.871149 -0.449886 -2.14998e-20)
(0.856597 -0.536938 -1.60048e-19)
(0.846303 -0.63228 -1.05894e-19)
(0.777774 -0.698984 6.42555e-20)
(0.474027 -0.549472 1.25395e-19)
(0.772421 -0.350814 1.15027e-19)
(0.719035 -0.413431 2.27073e-19)
(0.649167 -0.483465 -4.37918e-20)
(0.541072 -0.544883 1.36089e-19)
(0.294864 -0.437355 5.37076e-20)
(0.628588 -0.212134 -1.30615e-19)
(0.546445 -0.249918 -5.09819e-20)
(0.447519 -0.296509 1.07252e-19)
(0.32801 -0.337094 -1.43084e-20)
(0.143 -0.273331 -1.15727e-19)
(0.537714 0.0138885 -4.02659e-19)
(0.453267 -0.000159604 -3.34123e-19)
(0.34328 -0.02097 2.69556e-19)
(0.215325 -0.0488693 1.65149e-19)
(0.056126 -0.0606721 1.30311e-20)
(0.501114 0.221109 -1.50277e-19)
(0.413704 0.22508 -1.5226e-19)
(0.298968 0.230952 -6.29881e-20)
(0.168657 0.235823 1.71472e-20)
(0.0224261 0.167214 9.71233e-21)
(1.96087 -0.0363458 7.67643e-19)
(2.21998 -0.0993927 2.494e-19)
(2.29046 -0.179696 -6.76249e-19)
(2.14766 -0.207221 -1.4259e-18)
(1.29762 -0.182083 1.2433e-19)
(1.94259 -0.116159 1.28533e-18)
(2.02691 -0.223146 1.71261e-18)
(2.04598 -0.340766 1.45973e-19)
(1.96636 -0.398931 2.59813e-19)
(1.26254 -0.350099 -1.71705e-19)
(1.66206 -0.270872 -3.299e-18)
(1.7254 -0.383797 3.40948e-19)
(1.76625 -0.503479 1.04021e-18)
(1.7043 -0.576839 -3.8182e-19)
(1.10781 -0.4888 6.15074e-19)
(1.4575 -0.386706 7.75928e-19)
(1.46932 -0.480583 -2.08696e-18)
(1.45242 -0.593855 -2.36012e-18)
(1.38338 -0.678287 7.17089e-19)
(0.893315 -0.558932 5.04916e-19)
(1.17353 -0.438351 1.59517e-19)
(1.12654 -0.528135 2.43916e-19)
(1.11469 -0.645607 -3.63054e-19)
(1.06033 -0.729894 -4.36438e-19)
(0.672406 -0.580705 -4.02333e-21)
(0.993286 0.0396728 6.36597e-21)
(1.00854 0.0709948 -1.3195e-21)
(1.09397 0.0800555 -1.85086e-21)
(0.810699 -0.00360035 -2.18324e-19)
(1.05512 -0.180591 -1.56758e-20)
(1.0004 0.0417191 -2.48549e-21)
(0.987184 0.0636666 3.76774e-20)
(1.11699 0.1045 -2.52752e-20)
(0.886023 0.0418065 1.71269e-19)
(0.953261 -0.0676322 -3.93934e-21)
(1.00338 0.038532 -5.54309e-20)
(0.974471 0.054726 -9.13923e-23)
(1.11165 0.107269 -1.25574e-20)
(0.900102 0.074186 7.87015e-20)
(0.913971 -0.00971938 -1.98879e-19)
(0.99362 0.0384319 7.08442e-20)
(0.990747 0.0445001 3.5533e-21)
(1.07841 0.113158 2.73646e-20)
(0.936457 0.106236 -2.44119e-20)
(0.84374 0.100603 8.35149e-20)
(0.97861 0.0353764 1.73053e-20)
(1.01802 0.0409092 -2.58571e-20)
(1.04197 0.114343 3.88589e-20)
(0.968549 0.140632 5.06761e-20)
(0.826732 0.203142 -1.0503e-19)
(0.879927 0.0332998 0)
(0.75397 0.0304483 1.09683e-20)
(0.549736 0.0192564 3.88811e-21)
(0.422625 -0.00967353 4.52267e-20)
(0.670946 -0.0422795 -1.47713e-19)
(0.977832 0.062423 -6.07048e-20)
(1.02594 0.0873925 -9.81787e-21)
(0.955698 0.0709843 -4.63954e-20)
(0.839898 -0.0134256 -1.25731e-19)
(0.9967 -0.167837 -1.56684e-19)
(0.912202 -0.0609652 -3.26061e-20)
(0.993368 -0.0296546 5.05675e-19)
(1.07482 0.0365529 3.00929e-19)
(0.949756 0.0510128 3.26792e-20)
(0.735576 0.0268872 0)
(1.2578 -0.293146 3.16127e-19)
(1.36875 -0.261466 1.41882e-18)
(1.53454 -0.146967 -1.54366e-18)
(1.62872 -0.0194424 -4.74869e-19)
(1.52594 0.027625 3.64336e-19)
)
;

boundaryField
{
    left
    {
        type            fixedValue;
        value           uniform (1 0 0);
    }
    right
    {
        type            zeroGradient;
    }
    down
    {
        type            noSlip;
    }
    up
    {
        type            noSlip;
    }
    cylinder
    {
        type            noSlip;
    }
    defaultFaces
    {
        type            empty;
    }
}


// ************************************************************************* //
