/*--------------------------------*- C++ -*----------------------------------*\
  =========                 |
  \\      /  F ield         | OpenFOAM: The Open Source CFD Toolbox
   \\    /   O peration     | Website:  https://openfoam.org
    \\  /    A nd           | Version:  13
     \\/     M anipulation  |
\*---------------------------------------------------------------------------*/
FoamFile
{
    format      ascii;
    class       volVectorField;
    location    "69.4";
    object      U;
}
// * * * * * * * * * * * * * * * * * * * * * * * * * * * * * * * * * * * * * //

dimensions      [0 1 -1 0 0 0 0];

internalField   nonuniform List<vector> 
440
(
(-0.0965944 0.0700998 -6.21501e-20)
(-0.121767 0.0837799 1.04885e-20)
(0.0321031 0.0481393 1.14082e-19)
(0.440987 0.0513841 4.53045e-20)
(0.488407 0.144794 2.39915e-20)
(-0.0998369 0.0580528 4.23653e-20)
(0.0529494 0.0217422 -1.17961e-19)
(0.56734 -0.033418 -1.16178e-19)
(1.12543 -0.0648421 6.77725e-20)
(1.66408 -0.0938349 1.45811e-20)
(-0.0230588 0.00796346 5.35166e-20)
(0.525751 -0.0422784 7.29202e-19)
(1.31844 -0.039572 -4.49001e-19)
(1.9202 -0.0225327 -1.47495e-18)
(2.40232 -0.0075329 6.273e-19)
(0.198702 -0.0449291 -1.73274e-19)
(1.21895 0.00310491 -5.41098e-19)
(1.98872 0.0648338 1.75984e-18)
(2.39315 0.0991287 1.93154e-18)
(2.45274 0.107368 -5.50268e-19)
(0.569909 -0.00444394 -2.91973e-19)
(1.74782 0.1784 -6.21009e-19)
(2.27857 0.248723 1.88922e-18)
(2.40797 0.255494 2.03426e-18)
(2.49274 0.230838 6.88639e-19)
(-0.0280365 -0.107229 -1.17833e-19)
(-0.19594 -0.118314 5.51584e-19)
(-0.342957 -0.104553 -8.43083e-19)
(-0.420279 -0.00343944 1.42429e-19)
(-0.442629 0.138471 9.62524e-19)
(-0.0291713 0.11468 -5.35361e-21)
(-0.136262 0.298383 1.5258e-20)
(-0.244396 0.28911 -9.3394e-20)
(-0.333735 0.231733 -9.00793e-20)
(-0.40209 0.239594 1.64235e-19)
(-0.0158163 0.05582 2.4693e-19)
(-0.0594829 0.308147 -1.70488e-19)
(-0.0899337 0.461367 1.51355e-19)
(-0.109135 0.508194 3.46798e-19)
(-0.0890527 0.49958 1.16347e-21)
(0.0117575 -0.0266696 -2.78018e-20)
(-0.0378115 0.105316 9.53218e-20)
(-0.0640485 0.264805 -1.20046e-20)
(-0.0649658 0.363077 -7.20924e-19)
(-0.0202842 0.417898 1.68917e-19)
(-0.0326389 0.0108064 -3.60484e-20)
(-0.126299 0.0526655 -5.80938e-20)
(-0.17359 0.120265 -2.02611e-19)
(-0.103592 0.177567 2.32535e-19)
(-0.0224024 0.269293 3.61979e-19)
(-0.275521 1.01976 2.96694e-18)
(1.17072 -0.344628 8.04058e-19)
(0.951009 -1.27432 2.50978e-20)
(1.40314 -0.0871055 -3.12534e-19)
(1.31759 0.144826 -2.39114e-20)
(-0.713741 0.675445 -1.15687e-18)
(1.39432 -0.546312 -3.88061e-19)
(0.906502 -1.30178 1.62471e-19)
(1.33942 -0.18266 -1.75433e-20)
(1.32367 0.146383 5.59288e-20)
(-0.425714 0.530492 -7.26851e-19)
(2.00929 -0.643669 1.28193e-18)
(1.59215 -1.24506 -1.40045e-19)
(1.30158 -0.228057 4.65331e-19)
(1.30516 0.158555 -8.58783e-21)
(-0.172861 0.388165 6.67114e-19)
(2.28341 -0.830664 -8.29722e-20)
(1.93963 -1.17667 1.27793e-19)
(1.26654 -0.214537 -5.68848e-19)
(1.25757 0.151925 4.80624e-20)
(0.459572 0.0595413 -1.50839e-19)
(2.42387 -0.95986 3.52403e-19)
(1.94105 -1.05906 0)
(0.981833 -0.103101 2.78972e-19)
(1.15736 0.164232 -5.67518e-21)
(1.58932 -0.0705529 -3.2405e-19)
(2.66388 -0.868954 -1.02775e-19)
(1.90606 -0.901453 -2.6682e-20)
(0.970195 -0.0772743 1.80828e-19)
(1.23114 0.107455 -3.1502e-20)
(2.11455 -0.136644 -3.07526e-21)
(2.69811 -0.934006 1.19866e-18)
(1.19261 -0.549437 -1.40268e-20)
(0.644945 0.138855 1.15515e-19)
(1.24898 0.0586961 0)
(2.20499 -0.239437 -2.04972e-19)
(2.31482 -0.488752 -1.1493e-21)
(1.12948 -0.228466 1.23663e-20)
(0.973599 -0.0292362 -1.00165e-19)
(1.36257 -0.110058 7.54726e-21)
(2.26023 -0.217589 9.37852e-20)
(1.79175 -0.430433 1.6972e-19)
(0.86719 -0.0616763 -1.73818e-20)
(1.18811 -0.00506967 -1.94701e-34)
(1.0533 -0.08867 1.26513e-20)
(1.34184 -0.12003 1.65823e-19)
(0.555297 0.0486984 2.84989e-20)
(0.454182 -0.00328385 1.09129e-20)
(0.403571 -0.100873 2.35406e-20)
(0.0905451 -0.029369 -1.32327e-20)
(2.36827 0.226779 -8.67104e-19)
(2.55872 0.0376244 -1.05573e-18)
(2.42101 0.0412733 8.08642e-19)
(2.63987 -0.110997 3.6438e-20)
(2.09103 -0.0284278 -2.94334e-20)
(2.13239 0.150342 4.37761e-20)
(2.36054 0.04395 -3.74985e-20)
(2.25579 -0.0371409 -1.17142e-19)
(2.40066 -0.0928998 -2.14849e-19)
(2.33014 -0.250991 -3.09474e-21)
(2.07965 0.0784512 6.17745e-20)
(2.15324 0.0274863 9.8661e-20)
(2.18108 -0.047122 -1.21069e-19)
(2.20047 -0.0770174 3.93264e-20)
(2.23997 -0.164834 2.22763e-20)
(2.01958 0.0259657 1.03094e-19)
(2.06722 -0.0102978 1.1799e-19)
(2.10564 -0.0459404 -1.68259e-20)
(2.14186 -0.0776675 -3.17166e-20)
(2.15715 -0.121135 2.69947e-20)
(1.54392 -0.0213767 1.50427e-19)
(1.50435 -0.0220846 -1.1004e-20)
(1.54653 -0.0341692 2.26005e-20)
(1.48281 -0.0385901 -1.65547e-20)
(1.51503 -0.0516284 1.92085e-20)
(1.52947 0.826776 1.10029e-18)
(1.48581 0.92134 -3.60275e-19)
(1.48784 1.04856 -1.29819e-18)
(1.41267 1.08626 6.92253e-19)
(0.858089 0.764645 -1.5971e-19)
(1.8275 0.780897 -5.52832e-19)
(1.78798 0.851676 -2.89483e-18)
(1.78639 0.953708 -1.11128e-18)
(1.69191 0.964768 -3.83697e-19)
(1.02377 0.666871 -6.1822e-19)
(2.11628 0.66066 7.23623e-19)
(2.09684 0.727446 1.8683e-19)
(2.06872 0.811725 -2.14999e-18)
(1.92673 0.797767 -6.00177e-19)
(1.13079 0.523296 4.46123e-19)
(2.29486 0.542105 2.17221e-18)
(2.27114 0.58992 1.60218e-18)
(2.25994 0.641423 -1.85307e-18)
(2.04369 0.602271 -1.40027e-18)
(1.11282 0.346391 -2.54914e-19)
(2.42376 0.391759 1.06836e-18)
(2.43929 0.415606 -7.63944e-19)
(2.34187 0.438428 5.52915e-19)
(2.00476 0.386507 4.34583e-19)
(0.933824 0.153263 -3.67004e-19)
(0.578865 0.452577 -6.78064e-19)
(0.487116 0.487937 -5.31832e-19)
(0.36828 0.522874 6.39086e-20)
(0.228904 0.520742 -1.43902e-20)
(0.0558434 0.364184 7.20057e-20)
(0.676766 0.610618 6.397e-20)
(0.609512 0.662451 -3.0723e-19)
(0.518247 0.725543 1.70995e-19)
(0.393091 0.784099 -7.96436e-20)
(0.170397 0.596142 1.13719e-19)
(0.762224 0.831457 1.40717e-19)
(0.691964 0.913139 4.25275e-19)
(0.635185 1.00304 9.34089e-20)
(0.548261 1.03037 -2.84846e-19)
(0.2986 0.749427 2.36012e-19)
(1.0313 0.880637 2.09682e-19)
(0.980937 0.958337 -6.61989e-19)
(0.932602 1.05609 -1.81639e-18)
(0.850996 1.12147 7.22782e-19)
(0.498768 0.825153 -1.58703e-19)
(1.09819 0.950075 -9.564e-20)
(1.13249 1.06452 -1.69589e-19)
(1.15329 1.16957 -3.48838e-19)
(1.09672 1.18307 -3.87514e-19)
(0.670088 0.832911 -6.14076e-21)
(1.00996 0.0375196 -7.86049e-20)
(1.00884 0.0246017 -2.62417e-20)
(1.04402 0.138743 -1.54776e-21)
(0.942206 0.122748 -1.36211e-19)
(0.907331 0.275348 2.85272e-19)
(0.997979 0.0340048 4.81331e-20)
(1.02999 0.0190822 1.01842e-19)
(1.0203 0.153203 1.09353e-19)
(0.982053 0.143232 1.75466e-20)
(0.93861 0.363863 1.61572e-21)
(1.00793 0.0319165 6.26784e-20)
(1.01294 0.0114187 -4.16172e-21)
(1.06076 0.173533 -2.44298e-21)
(0.931536 0.142195 1.20039e-19)
(1.1321 0.503763 -4.53345e-19)
(1.00771 0.0298771 -2.77737e-22)
(1.02936 0.0015729 -1.50444e-19)
(1.03683 0.200339 -5.4573e-20)
(1.0266 0.131385 -3.14109e-19)
(1.1564 0.571371 7.94829e-20)
(1.01569 0.0208637 -9.37611e-21)
(1.01527 0.00917526 4.31023e-20)
(1.07274 0.198381 2.46076e-20)
(1.0184 0.158246 4.22622e-19)
(1.36847 0.697158 -4.56525e-19)
(0.995127 0.0211295 -1.93305e-21)
(1.06202 -0.00780863 9.27069e-20)
(1.02835 0.227055 -4.39947e-20)
(1.28429 0.0708624 9.1975e-19)
(1.26963 0.767514 -3.24955e-19)
(0.954364 -0.00852261 -1.34438e-21)
(1.13178 0.00875316 -7.65828e-20)
(0.926195 0.144674 4.4975e-21)
(1.39757 0.0581692 -3.29312e-19)
(1.23795 0.553055 -7.26075e-20)
(0.98709 -0.0209343 7.06729e-21)
(1.06929 0.0301736 1.27633e-35)
(1.05166 0.0953874 -9.64651e-22)
(1.35024 0.0020002 1.14829e-19)
(1.37541 0.375667 1.59859e-19)
(1.04235 -0.0488445 3.86055e-21)
(0.945544 0.0080535 -2.47861e-20)
(1.29434 -0.000440034 1.96873e-20)
(1.11675 -0.0146271 2.16431e-20)
(1.45055 0.279947 -2.42256e-19)
(0.944993 -0.0208281 -3.75339e-20)
(0.807446 -0.0240226 -1.57403e-21)
(0.993641 -0.0102397 2.29349e-20)
(0.665685 0.00356305 -2.21899e-20)
(1.11327 0.0868963 -5.44311e-20)
(1.79578 0.622717 2.73593e-19)
(1.88116 0.636977 7.24128e-19)
(2.1468 0.504991 -1.02036e-18)
(2.20077 0.463326 1.80566e-20)
(2.40426 0.28007 4.17695e-19)
(1.78296 0.40167 8.11437e-20)
(1.77004 0.434765 9.30356e-19)
(2.03266 0.340844 1.06166e-19)
(1.97683 0.32262 -8.33411e-19)
(2.2357 0.190043 -2.69641e-19)
(1.69788 0.274586 -2.17423e-19)
(1.76533 0.280694 -1.38814e-19)
(1.89425 0.222135 1.95429e-19)
(1.93549 0.198039 -2.57424e-19)
(2.05178 0.127535 2.38363e-19)
(1.658 0.187112 3.63797e-19)
(1.75376 0.173652 -2.18001e-22)
(1.82149 0.126435 1.96728e-19)
(1.89916 0.103095 1.55975e-19)
(1.95863 0.0569722 -1.58795e-19)
(1.31896 0.047839 -4.85644e-20)
(1.41714 0.0293972 2.28148e-19)
(1.44246 0.0141063 9.04046e-20)
(1.50631 -0.00132075 -1.9058e-19)
(1.49449 -0.00857553 5.01127e-22)
(1.27944 -0.0210348 8.28213e-20)
(2.32065 -0.0162719 -5.5405e-19)
(2.53895 -0.00759063 1.49579e-18)
(2.51152 0.0353093 6.92966e-19)
(2.29131 0.0484802 -4.78366e-19)
(0.865832 0.11258 1.91256e-19)
(2.11348 0.137917 -6.17372e-19)
(2.52552 0.148535 -8.85591e-19)
(2.52877 0.15453 1.20421e-18)
(2.31112 0.142716 -8.90351e-19)
(0.344858 0.120875 5.23684e-21)
(1.55484 0.233578 7.68911e-19)
(2.26394 0.281933 1.12451e-19)
(2.56557 0.289553 1.27472e-18)
(2.55642 0.261739 6.99465e-19)
(0.0347436 0.0256359 2.26478e-19)
(0.741075 0.196801 2.71751e-19)
(1.56643 0.308997 -9.25255e-19)
(2.06973 0.367346 9.63385e-20)
(2.5147 0.396127 9.00061e-19)
(-0.0563144 -0.044667 1.62469e-19)
(0.185323 0.0747654 -2.06553e-19)
(0.765432 0.237305 -2.01184e-19)
(1.26584 0.346883 2.83865e-19)
(1.83235 0.495697 1.75065e-19)
(-0.0606375 -0.0716059 5.82325e-20)
(-0.0310561 -0.0379592 8.75831e-20)
(0.212401 0.0602144 1.12643e-19)
(0.49006 0.215781 -5.20627e-19)
(1.06426 0.398999 6.91691e-21)
(-0.0378774 -0.0583559 -4.2768e-20)
(-0.0449718 -0.0393687 -4.18183e-20)
(0.0368643 0.0425436 2.93519e-20)
(0.143891 0.203736 -7.03577e-20)
(0.421468 0.419643 -1.56028e-22)
(-0.0155069 -0.0417105 -2.53733e-20)
(0.0108701 -0.0521108 2.62974e-19)
(0.0726437 0.0433484 -1.60459e-19)
(0.124456 0.193251 -5.42385e-19)
(0.211852 0.398907 1.90597e-19)
(-0.0160821 -0.164838 6.61781e-21)
(0.0366498 -0.226199 3.36295e-20)
(0.122647 -0.0718383 -8.95896e-20)
(0.220665 0.167131 -4.34403e-19)
(0.320146 0.415319 9.67244e-21)
(-0.0110003 -0.287334 -3.89617e-20)
(-0.0278799 -0.319784 1.38787e-19)
(-0.0104821 -0.183247 -5.00271e-20)
(0.045052 -0.0067053 -1.49068e-20)
(0.121858 0.185075 3.88615e-19)
(1.30421 0.739228 -9.38711e-20)
(-0.246217 0.0839424 5.47749e-19)
(0.992254 -0.120068 -1.01235e-19)
(0.864461 0.0475981 -6.54665e-20)
(0.655723 -0.0153634 2.0131e-21)
(1.01218 0.953654 1.86145e-19)
(-1.20921 0.0993113 9.90279e-19)
(0.977767 -0.324794 5.9098e-19)
(1.12456 0.0853619 7.07469e-21)
(0.875868 0.0217765 -1.79751e-20)
(0.418329 1.08473 -1.11808e-18)
(-1.60642 -0.0895403 3.12678e-18)
(0.763788 -0.823289 1.11691e-19)
(1.29076 0.0784942 -3.11515e-19)
(1.08877 0.0665029 1.92563e-20)
(0.665058 1.24945 1.06234e-18)
(-0.416596 -0.171035 -1.35833e-18)
(0.616224 -1.16864 -3.80925e-19)
(1.28035 0.0209505 3.06679e-21)
(1.21129 0.104137 2.17766e-21)
(0.787923 1.35285 -1.90664e-19)
(0.992535 -0.0800989 8.44458e-19)
(1.07806 -1.14075 -5.1703e-20)
(1.35903 -0.0738436 -2.11631e-20)
(1.30411 0.111035 -1.17946e-20)
(-0.202218 0.0927349 -9.20474e-20)
(-0.402158 -0.169898 0)
(0.0587832 -0.0960303 -6.87002e-20)
(0.0389544 -0.0505537 6.1568e-20)
(0.323553 -0.0234167 -1.69492e-20)
(1.63927 0.626898 0)
(0.569006 0.13185 0)
(0.959756 -0.0479102 3.30186e-19)
(0.556912 -0.0292761 9.10118e-20)
(0.534077 -0.0540658 1.51441e-20)
(0.732353 0.00494384 -1.30048e-19)
(0.770043 0.000650505 3.18966e-19)
(0.910444 0.0294315 -4.44181e-20)
(0.822254 0.0261495 3.91383e-19)
(1.16964 0.170454 2.31396e-19)
(1.65577 0.0397502 1.2531e-19)
(1.80355 0.0878016 4.87407e-19)
(1.90204 0.158391 -8.80067e-19)
(2.29986 0.259702 3.68826e-19)
(2.19037 0.40708 6.4232e-19)
(0.936762 -0.502476 1.41724e-21)
(0.927117 -0.597197 -1.96683e-19)
(0.920752 -0.69955 -1.5169e-19)
(0.853346 -0.772768 9.19583e-20)
(0.525879 -0.613505 1.43289e-19)
(0.830813 -0.405051 1.11192e-19)
(0.775862 -0.473505 1.74074e-19)
(0.703996 -0.549405 -8.78614e-20)
(0.593868 -0.617115 1.54044e-19)
(0.330388 -0.498312 4.92308e-20)
(0.6704 -0.266308 -1.19217e-19)
(0.584904 -0.310209 -6.12032e-20)
(0.484925 -0.364083 4.20783e-20)
(0.364493 -0.4115 -3.66562e-20)
(0.166872 -0.333332 -1.39919e-19)
(0.562773 -0.0341218 -4.30192e-19)
(0.476342 -0.0521175 -3.46885e-19)
(0.364832 -0.0780515 2.82582e-19)
(0.236665 -0.110754 1.48628e-19)
(0.0697524 -0.111169 1.30167e-20)
(0.533574 0.174607 -1.38086e-19)
(0.446925 0.173037 -1.54172e-19)
(0.328662 0.168812 -4.3927e-20)
(0.189439 0.169463 4.59458e-20)
(0.0305062 0.123332 1.33391e-20)
(2.08668 -0.0296714 9.21217e-19)
(2.32782 -0.0972847 3.24452e-19)
(2.42373 -0.184987 -8.30979e-19)
(2.30172 -0.211475 -1.75295e-18)
(1.41668 -0.199679 1.44581e-19)
(2.03994 -0.124667 1.48923e-18)
(2.15326 -0.23783 1.96844e-18)
(2.18415 -0.361871 1.66074e-19)
(2.11406 -0.422636 2.92565e-19)
(1.37437 -0.38405 -1.95146e-19)
(1.76136 -0.291941 -3.80515e-18)
(1.82386 -0.412237 4.17534e-19)
(1.8757 -0.54188 1.21045e-18)
(1.82944 -0.620509 -4.64059e-19)
(1.20346 -0.535745 7.40083e-19)
(1.53415 -0.419031 9.21113e-19)
(1.5611 -0.5225 -2.4444e-18)
(1.55997 -0.645594 -2.79463e-18)
(1.50038 -0.737314 8.63539e-19)
(0.978202 -0.616275 5.83866e-19)
(1.24729 -0.482345 2.04299e-19)
(1.2077 -0.580289 2.78733e-19)
(1.20201 -0.706454 -4.31499e-19)
(1.15167 -0.797764 -5.21467e-19)
(0.737918 -0.64275 -4.91705e-21)
(1.0679 0.0499838 6.89252e-21)
(0.945871 0.0551177 1.42954e-21)
(1.11649 0.0804647 1.07818e-20)
(0.832956 -0.00186423 -2.63439e-19)
(1.11055 -0.212523 -2.14076e-20)
(1.07708 0.051034 -2.28774e-21)
(0.940351 0.0513001 2.19244e-20)
(1.1182 0.0988721 3.9808e-21)
(0.907877 0.0442218 2.36914e-19)
(1.01128 -0.0985286 6.081e-21)
(1.07402 0.0458587 -5.37894e-20)
(0.943075 0.0457159 -1.73134e-22)
(1.10247 0.103197 -6.80792e-21)
(0.909682 0.0623786 1.39946e-19)
(0.97004 -0.0365192 -2.65712e-19)
(1.05385 0.0431411 6.35127e-20)
(0.966844 0.0389329 2.68535e-21)
(1.07093 0.111618 2.12218e-20)
(0.937686 0.087899 -7.57264e-20)
(0.877551 0.069995 5.85622e-20)
(1.02592 0.0389419 1.55853e-20)
(0.998247 0.0347911 -2.18493e-20)
(1.04005 0.120405 3.37807e-20)
(0.958699 0.110852 2.46089e-20)
(0.851547 0.174744 -3.78003e-20)
(0.890189 0.0337348 0)
(0.718294 0.0279474 8.75742e-21)
(0.60279 0.0214229 7.39124e-21)
(0.357265 -0.00715305 5.39257e-20)
(0.692935 -0.0544923 -1.7434e-19)
(1.03545 0.0722027 -6.27473e-20)
(0.954824 0.0718811 -6.0759e-22)
(1.02329 0.0806843 -6.8363e-20)
(0.818645 -0.00677801 -1.57526e-19)
(1.05165 -0.197194 -1.86289e-19)
(0.960084 -0.0684648 -4.04658e-20)
(1.05128 -0.0359472 5.8203e-19)
(1.15049 0.035528 3.41433e-19)
(1.02318 0.0554785 3.08994e-20)
(0.795184 0.0300818 0)
(1.3156 -0.319383 3.91739e-19)
(1.43481 -0.281576 1.64133e-18)
(1.61803 -0.160271 -1.76263e-18)
(1.71883 -0.0202122 -5.53685e-19)
(1.63694 0.0329167 4.27008e-19)
)
;

boundaryField
{
    left
    {
        type            fixedValue;
        value           uniform (1 0 0);
    }
    right
    {
        type            zeroGradient;
    }
    down
    {
        type            noSlip;
    }
    up
    {
        type            noSlip;
    }
    cylinder
    {
        type            noSlip;
    }
    defaultFaces
    {
        type            empty;
    }
}


// ************************************************************************* //
