# Selection   : all
# Cells       : 440
# Volume      : 7.374263e+01
# Time        	max(p)
5.915         	2.422940e+00
5.96          	2.423075e+00
6.01          	2.421563e+00
