/*--------------------------------*- C++ -*----------------------------------*\
  =========                 |
  \\      /  F ield         | OpenFOAM: The Open Source CFD Toolbox
   \\    /   O peration     | Website:  https://openfoam.org
    \\  /    A nd           | Version:  13
     \\/     M anipulation  |
\*---------------------------------------------------------------------------*/
FoamFile
{
    format      ascii;
    class       volScalarField;
    location    "1.62";
    object      p;
}
// * * * * * * * * * * * * * * * * * * * * * * * * * * * * * * * * * * * * * //

dimensions      [0 2 -2 0 0 0 0];

internalField   nonuniform List<scalar> 
440
(
-1.3719
-1.34974
-1.35234
-1.34235
-1.29628
-1.49362
-1.46727
-1.44116
-1.38863
-1.30942
-1.66999
-1.62956
-1.54926
-1.43619
-1.30795
-1.81864
-1.7586
-1.61372
-1.44647
-1.28899
-1.89103
-1.7911
-1.58755
-1.38307
-1.20075
-0.568972
-0.575794
-0.583825
-0.574415
-0.541813
-0.767021
-0.770545
-0.779409
-0.768622
-0.720565
-1.01748
-1.02111
-1.0346
-1.05661
-0.974777
-1.20593
-1.2045
-1.21938
-1.25861
-1.17511
-1.29592
-1.28233
-1.28734
-1.3139
-1.25122
-0.217331
-0.00509763
0.0777376
0.0456118
0.0141089
-0.335406
-0.0159382
0.0715799
0.0429585
0.013247
-0.487671
-0.0373479
0.0628826
0.0396826
0.0123088
-0.627699
-0.0726866
0.050366
0.0355228
0.0112149
-0.735629
-0.119273
0.034382
0.0302957
0.00982992
-0.728616
-0.149438
0.012631
0.020967
0.00737985
-0.587119
-0.166387
-0.0300522
-0.00119594
0.00129146
-0.502987
-0.164963
-0.0352745
-0.00637949
-0.000657079
-0.45413
-0.189228
-0.0614889
-0.0199432
-0.00465542
-0.418841
-0.197485
-0.0749409
-0.0269647
-0.00659554
-0.902596
-1.01207
-1.0716
-1.10533
-1.11787
-0.643723
-0.74423
-0.803369
-0.830755
-0.83334
-0.468329
-0.559147
-0.617278
-0.64127
-0.644168
-0.352997
-0.442262
-0.498857
-0.522025
-0.52349
-0.296301
-0.386365
-0.44333
-0.467202
-0.467025
0.379509
0.230132
0.0485912
-0.157164
-0.393981
-0.0144012
-0.179823
-0.382498
-0.6134
-0.875751
-0.42578
-0.60171
-0.822454
-1.06405
-1.32175
-0.773263
-0.956932
-1.19057
-1.44014
-1.6573
-1.03906
-1.22792
-1.45248
-1.68901
-1.84945
1.70623
1.7269
1.74645
1.75513
1.74918
1.49999
1.50959
1.51322
1.50059
1.46905
1.24003
1.22544
1.19113
1.13515
1.05398
0.958488
0.915617
0.840074
0.735081
0.599884
0.671022
0.575417
0.446945
0.292702
0.106249
1.56213
1.44474
1.5344
1.53248
1.64043
1.54947
1.42985
1.51177
1.49615
1.54401
1.53742
1.4132
1.48708
1.44891
1.41692
1.52614
1.39542
1.46029
1.39262
1.23748
1.5161
1.37671
1.43268
1.32956
1.04334
1.50491
1.35259
1.39515
1.22597
0.827374
1.49545
1.32639
1.36341
1.13326
0.829038
1.49509
1.30682
1.34014
1.07659
0.82949
1.49148
1.2881
1.32477
1.03333
0.837358
1.51902
1.28418
1.31644
1.00626
0.843989
0.391042
0.103767
-0.239591
-0.526106
-0.749614
0.355102
0.153372
-0.0865748
-0.309619
-0.499739
0.37567
0.195556
0.00451507
-0.181032
-0.337878
0.415947
0.244751
0.073071
-0.0898758
-0.229687
0.438928
0.272843
0.111383
-0.0413466
-0.175618
-1.01332
-0.89586
-0.75328
-0.642183
-0.577408
-1.03188
-0.979901
-0.876606
-0.791947
-0.743841
-0.919708
-0.873289
-0.811026
-0.765903
-0.739766
-0.746237
-0.694362
-0.665494
-0.662606
-0.689157
-0.643045
-0.600818
-0.582874
-0.614999
-0.696954
-0.716329
-0.70589
-0.683073
-0.780818
-0.791493
-0.746722
-0.760711
-0.786277
-0.877475
-0.834305
-0.587225
-0.602849
-0.638873
-0.672352
-0.644867
-0.47743
-0.487912
-0.503755
-0.50702
-0.489793
-0.474527
-0.48514
-0.497241
-0.494059
-0.471774
-0.586063
-0.103471
0.0688893
0.0483106
0.0171035
-0.523842
-0.0548582
0.0790873
0.0576669
0.0181729
-0.360015
-0.019228
0.0822197
0.0503427
0.0163258
-0.217373
-0.00422038
0.0834161
0.0499667
0.0158161
-0.169265
-0.000631473
0.0814218
0.0477092
0.0148913
-0.40969
-0.266751
0.0148172
0.0421314
0.0183291
-0.54993
-0.171196
0.07548
0.0730776
0.0245401
-0.548758
-0.705747
-0.760478
-0.716909
-0.536608
-0.559138
-0.720365
-0.74242
-0.720113
-0.704508
1.58832
1.57137
1.54122
1.49859
1.44202
1.72123
1.74192
1.75141
1.74764
1.73143
1.82751
1.85463
1.87462
1.8844
1.8834
1.86563
1.89925
1.93632
1.96796
1.98345
1.82709
1.85729
1.89149
1.9199
1.93236
-0.192854
-0.280411
-0.422418
-0.594001
-0.792761
0.31868
0.202739
0.0498451
-0.137116
-0.371684
0.784083
0.665359
0.522127
0.351441
0.139911
1.14355
1.05347
0.944699
0.810965
0.649892
1.42646
1.3676
1.28854
1.19188
1.07905
1.6301
1.48969
1.60193
1.58211
1.68005
1.61532
1.48482
1.59318
1.58843
1.70367
1.6018
1.47783
1.58426
1.58778
1.74668
1.5884
1.46894
1.57063
1.57886
1.72853
1.57515
1.45784
1.55404
1.56017
1.69983
1.6802
1.49899
1.60024
1.53643
1.58945
1.64072
1.48976
1.59625
1.55433
1.59264
1.31548
1.14933
0.836546
0.358403
-0.170917
1.39678
1.18068
0.850356
0.376135
-0.162343
)
;

boundaryField
{
    left
    {
        type            zeroGradient;
    }
    right
    {
        type            fixedValue;
        value           uniform 0;
    }
    down
    {
        type            zeroGradient;
    }
    up
    {
        type            zeroGradient;
    }
    cylinder
    {
        type            zeroGradient;
    }
    defaultFaces
    {
        type            empty;
    }
}


// ************************************************************************* //
