# Selection   : all
# Cells       : 440
# Volume      : 7.374263e+01
# Time        	maxMag(U)
6.215         	2.869524e+00
6.26          	2.870234e+00
6.31          	2.870547e+00
