# Selection   : all
# Cells       : 440
# Volume      : 7.374263e+01
# Time        	max(p)
7.015         	2.484850e+00
7.06          	2.468592e+00
7.11          	2.475010e+00
