/*--------------------------------*- C++ -*----------------------------------*\
  =========                 |
  \\      /  F ield         | OpenFOAM: The Open Source CFD Toolbox
   \\    /   O peration     | Website:  https://openfoam.org
    \\  /    A nd           | Version:  13
     \\/     M anipulation  |
\*---------------------------------------------------------------------------*/
FoamFile
{
    format      ascii;
    class       volVectorField;
    location    "2.98";
    object      U;
}
// * * * * * * * * * * * * * * * * * * * * * * * * * * * * * * * * * * * * * //

dimensions      [0 1 -1 0 0 0 0];

internalField   nonuniform List<vector> 
440
(
(-0.0833372 0.056899 -7.90935e-20)
(-0.136554 0.13083 9.57126e-20)
(-0.0148001 0.174087 6.10833e-20)
(0.372279 0.217427 4.39438e-19)
(0.468737 0.30665 1.42915e-21)
(-0.100856 0.0499697 2.52771e-20)
(0.026482 0.0207135 -1.5699e-19)
(0.518083 -0.0137931 -1.03065e-19)
(1.09951 -0.0366258 5.11195e-20)
(1.61319 -0.042888 -2.62739e-21)
(-0.0441083 0.0144375 5.65381e-20)
(0.481399 -0.031724 7.57042e-19)
(1.28977 -0.0215198 -3.92128e-19)
(1.90947 0.0133037 -1.17682e-18)
(2.44365 0.0227829 4.36445e-19)
(0.172494 -0.0415369 -1.84162e-19)
(1.20263 0.0107831 -5.48658e-19)
(2.01386 0.0867189 1.7749e-18)
(2.46167 0.127647 1.93201e-18)
(2.53868 0.15042 -5.42067e-19)
(0.550154 -0.00597199 -3.06205e-19)
(1.78078 0.197749 -6.44928e-19)
(2.35619 0.284831 1.96356e-18)
(2.50167 0.305063 2.10174e-18)
(2.59267 0.278895 7.00544e-19)
(-0.0413133 0.367052 1.71607e-19)
(-0.155155 0.531941 6.79196e-20)
(-0.259544 0.522761 -3.18833e-19)
(-0.352278 0.47784 4.56349e-20)
(-0.412096 0.421481 2.13242e-19)
(-0.0940099 0.446041 -3.20555e-21)
(-0.186987 0.698022 -2.06958e-19)
(-0.245766 0.711094 6.18186e-20)
(-0.290357 0.66151 6.15761e-20)
(-0.300875 0.586594 -1.1964e-19)
(-0.127068 0.385721 -1.79883e-19)
(-0.201029 0.728414 8.70245e-20)
(-0.207276 0.797569 -6.71386e-20)
(-0.175945 0.751069 -5.96988e-19)
(-0.128072 0.668887 6.31019e-21)
(-0.101113 0.209792 -2.55766e-20)
(-0.171897 0.534901 2.94946e-20)
(-0.160109 0.672457 5.63849e-20)
(-0.0897993 0.683852 3.35392e-19)
(-0.0280101 0.629477 -7.88389e-20)
(-0.0689113 0.0834094 -6.84536e-20)
(-0.159307 0.279766 -8.60149e-20)
(-0.164902 0.42002 -9.7042e-20)
(-0.077787 0.477273 -1.00902e-19)
(0.0256206 0.524788 -5.66646e-19)
(-0.513062 0.061769 -1.07857e-18)
(0.0797303 -0.418295 6.72325e-19)
(0.517837 -0.372662 2.42741e-20)
(0.779865 -0.260247 -9.33589e-21)
(0.985867 -0.12254 -5.04572e-22)
(-0.0547968 -0.00527784 1.04977e-18)
(0.438897 -0.54609 -1.7034e-19)
(0.702111 -0.46432 7.14179e-20)
(0.873682 -0.319082 6.81948e-20)
(1.0165 -0.147958 1.12219e-20)
(0.583329 -0.105547 2.59817e-19)
(0.949403 -0.606449 7.47091e-19)
(1.01162 -0.505791 -5.94111e-20)
(1.03139 -0.348504 1.07196e-19)
(1.06645 -0.162379 -4.14765e-21)
(1.14531 -0.252473 -1.80246e-19)
(1.36117 -0.655537 -2.67845e-19)
(1.31511 -0.51192 -4.47725e-20)
(1.21815 -0.343212 -1.15798e-19)
(1.13178 -0.16111 4.18412e-20)
(1.52563 -0.413733 -1.14314e-19)
(1.64948 -0.682319 -4.62229e-19)
(1.50987 -0.505712 0)
(1.36382 -0.316558 1.01767e-19)
(1.19253 -0.145589 2.11962e-20)
(2.19914 -0.420189 -4.32792e-19)
(2.02868 -0.623669 1.75879e-19)
(1.68359 -0.469149 -1.45628e-20)
(1.46195 -0.272921 7.70178e-20)
(1.23621 -0.117242 -6.40673e-20)
(2.43128 -0.473589 3.53403e-20)
(2.00044 -0.531388 2.37741e-19)
(1.5067 -0.304435 -1.14609e-20)
(1.28395 -0.152104 -7.41788e-20)
(1.14562 -0.065882 0)
(2.3396 -0.324129 -4.82491e-19)
(2.01114 -0.352858 1.38001e-20)
(1.62537 -0.199827 -1.07274e-19)
(1.37129 -0.109623 4.08347e-20)
(1.17217 -0.0514485 -1.74402e-20)
(2.203 -0.275599 9.14034e-20)
(1.71125 -0.27681 1.22169e-19)
(1.33752 -0.0872729 -2.61175e-20)
(1.16056 0.00664667 -3.45425e-34)
(1.03736 0.00576401 1.71831e-20)
(1.37248 -0.0844038 1.63615e-19)
(0.751307 -0.0299882 1.4976e-20)
(0.531694 0.00889887 -4.67851e-21)
(0.538986 0.0106084 -8.05763e-21)
(0.565015 0.00233617 1.1719e-21)
(2.45682 0.301406 -8.57881e-19)
(2.70263 0.064486 -1.09043e-18)
(2.48048 0.135992 6.7419e-19)
(2.80539 -0.111199 1.05226e-19)
(2.04339 0.136419 -2.08759e-21)
(2.1748 0.221525 7.98633e-20)
(2.50381 0.0222823 -3.96873e-20)
(2.30363 0.0720322 -1.45113e-19)
(2.58396 -0.13732 -2.02084e-19)
(2.3912 -0.128639 -8.53244e-21)
(2.13261 0.120253 8.26982e-20)
(2.26754 0.025295 8.94456e-20)
(2.25216 0.00384351 -1.1509e-19)
(2.32475 -0.0851888 4.38201e-20)
(2.34573 -0.131472 -2.02318e-21)
(2.0906 0.0493698 1.20794e-19)
(2.10965 9.54401e-05 1.56561e-19)
(2.19563 -0.0175157 -2.04252e-20)
(2.18561 -0.0726275 -5.65242e-20)
(2.26036 -0.0954745 3.5672e-20)
(1.59402 -0.0140506 1.85981e-19)
(1.5514 -0.0158781 -1.26087e-20)
(1.62493 -0.0276966 2.3219e-20)
(1.54487 -0.0295233 -2.78181e-20)
(1.61554 -0.0470075 6.17276e-21)
(1.62998 0.8763 1.17198e-18)
(1.58217 0.976944 -3.66929e-19)
(1.58305 1.10995 -1.39255e-18)
(1.51512 1.158 7.6854e-19)
(0.932333 0.839182 -1.80538e-19)
(1.93033 0.839379 -5.96895e-19)
(1.89701 0.920582 -3.17234e-18)
(1.89569 1.02895 -1.23005e-18)
(1.80615 1.03855 -4.2649e-19)
(1.10419 0.729616 -7.00126e-19)
(2.2121 0.713224 8.2198e-19)
(2.20054 0.78513 2.04431e-19)
(2.18336 0.875596 -2.43011e-18)
(2.04491 0.859983 -6.75337e-19)
(1.20234 0.567316 4.8326e-19)
(2.40023 0.604331 2.4037e-18)
(2.38345 0.653555 1.7611e-18)
(2.37313 0.702376 -2.0206e-18)
(2.14712 0.653707 -1.53522e-18)
(1.16137 0.370807 -2.72422e-19)
(2.52573 0.439456 1.16861e-18)
(2.54232 0.462946 -8.31825e-19)
(2.44291 0.486582 5.99882e-19)
(2.08257 0.421753 4.61724e-19)
(0.947298 0.158786 -3.83864e-19)
(0.568635 0.488627 -5.44339e-19)
(0.481691 0.522427 -4.14074e-19)
(0.365934 0.558615 4.48752e-20)
(0.230242 0.576244 1.5825e-21)
(0.0587749 0.422974 9.11137e-20)
(0.666206 0.675287 1.45347e-19)
(0.603162 0.742504 -2.34194e-19)
(0.518678 0.817583 1.81707e-19)
(0.39708 0.865398 -8.61462e-20)
(0.173894 0.645952 1.21032e-19)
(0.801149 0.840819 1.02901e-19)
(0.726684 0.91875 4.84241e-19)
(0.670319 1.01972 1.27884e-19)
(0.586309 1.07325 -3.22565e-19)
(0.320821 0.79434 2.75573e-19)
(1.06891 0.93268 2.76608e-19)
(1.02005 1.02242 -8.20878e-19)
(0.970187 1.12466 -2.10687e-18)
(0.889976 1.1871 8.37981e-19)
(0.525563 0.879566 -1.64065e-19)
(1.19767 0.95761 -1.19039e-19)
(1.21757 1.08105 -1.96342e-19)
(1.23313 1.20045 -3.89029e-19)
(1.17629 1.2338 -4.45451e-19)
(0.721258 0.892467 -7.01806e-21)
(0.94395 0.0291056 -1.00198e-19)
(1.05533 0.0498913 -3.41658e-20)
(1.01931 0.136989 -2.00645e-21)
(0.948627 0.18078 -3.03158e-19)
(0.873703 0.313227 2.93349e-19)
(0.942874 0.0235731 6.71916e-20)
(1.06009 0.0509077 1.22146e-19)
(1.01612 0.141703 1.19786e-19)
(0.983372 0.220258 4.71738e-20)
(0.927765 0.376982 -2.54855e-20)
(0.947481 0.0196911 9.11574e-20)
(1.04913 0.0472742 -4.50747e-21)
(1.05963 0.157992 -4.41136e-21)
(0.931467 0.220692 1.54777e-19)
(1.16483 0.53676 -4.81703e-19)
(0.94752 0.0160233 -1.27341e-21)
(1.05631 0.0433749 -1.61842e-19)
(1.05668 0.172802 -6.42259e-20)
(1.01701 0.236927 -4.06379e-19)
(1.18393 0.5523 1.00948e-19)
(0.948181 0.0114432 -1.92375e-20)
(1.05264 0.044766 4.38536e-20)
(1.09835 0.180734 3.10324e-20)
(0.98851 0.248337 4.52423e-19)
(1.48281 0.701492 -4.53137e-19)
(0.932025 0.00941603 -1.49366e-20)
(1.08479 0.0272171 9.0606e-20)
(1.09115 0.204245 -8.32418e-20)
(1.15382 0.187529 8.21548e-19)
(1.33982 0.690197 -3.85412e-19)
(0.929695 -0.00879564 -2.01004e-21)
(1.10478 0.0157911 -8.00987e-20)
(1.07534 0.157183 4.47806e-21)
(1.24147 0.177861 -2.61007e-19)
(1.41209 0.43874 -8.39737e-21)
(0.941256 -0.0166944 -4.61244e-21)
(1.09124 0.00875145 1.19645e-35)
(1.10691 0.124335 -3.69851e-20)
(1.28929 0.109227 9.06231e-20)
(1.51088 0.30369 1.65924e-19)
(0.961417 -0.0436572 4.78291e-21)
(1.03751 -0.0155272 -2.31518e-20)
(1.15249 0.0492624 1.77961e-20)
(1.25194 0.0581851 3.32109e-20)
(1.54057 0.186561 -2.5317e-19)
(0.900709 -0.0226922 -3.67251e-20)
(0.857386 -0.0230916 -2.309e-21)
(0.888433 0.00506126 2.70213e-20)
(0.915202 0.00595928 -1.55738e-20)
(1.1696 0.0562678 -5.7589e-20)
(1.86528 0.66372 3.20099e-19)
(1.95399 0.679152 8.05049e-19)
(2.22787 0.547879 -1.14507e-18)
(2.27925 0.530441 2.64675e-20)
(2.51662 0.318382 4.86289e-19)
(1.79738 0.435456 6.01412e-20)
(1.8243 0.437931 9.79971e-19)
(2.04732 0.358143 1.13076e-19)
(2.02006 0.353031 -9.6088e-19)
(2.30334 0.191265 -2.93945e-19)
(1.74381 0.309896 -2.19424e-19)
(1.81792 0.277925 -1.53384e-19)
(1.93952 0.243242 1.66114e-19)
(1.98668 0.213751 -3.07843e-19)
(2.13245 0.136082 2.7638e-19)
(1.7 0.188239 3.40814e-19)
(1.79182 0.161073 -4.86557e-21)
(1.84819 0.141478 2.28045e-19)
(1.94947 0.112852 2.03596e-19)
(1.99493 0.071764 -1.98178e-19)
(1.34747 0.0475447 -4.10846e-20)
(1.41766 0.0312789 2.32946e-19)
(1.45378 0.021855 1.09414e-19)
(1.52375 0.00563279 -2.32234e-19)
(1.52384 -0.00161121 2.67793e-22)
(1.0786 -0.0170397 5.89347e-20)
(2.05133 -0.0449115 -3.82238e-19)
(2.28413 -0.0355102 1.04398e-18)
(2.25956 0.00148553 4.53994e-19)
(2.12333 0.0324693 -3.21695e-19)
(0.675139 0.0920304 1.04642e-19)
(1.83135 0.0823217 -3.85306e-19)
(2.28567 0.0825401 -5.10815e-19)
(2.3604 0.0895988 6.04175e-19)
(2.09336 0.075619 -3.66489e-19)
(0.218406 0.0757372 -1.90863e-20)
(1.21609 0.139216 3.99879e-19)
(1.93736 0.153675 5.26033e-20)
(2.31103 0.140572 2.78727e-19)
(2.51825 0.135203 7.23988e-20)
(-0.0246189 -0.0157452 1.70198e-19)
(0.440434 0.0741369 1.70216e-19)
(1.1782 0.136508 -3.56145e-19)
(1.64506 0.155515 1.64516e-20)
(2.18656 0.173807 -5.25737e-20)
(-0.0845695 -0.0669644 1.24869e-19)
(0.00758259 -0.039154 -1.32948e-19)
(0.388018 0.0293337 -2.47872e-20)
(0.855058 0.05532 3.5993e-20)
(1.15409 0.0783179 -4.18342e-20)
(-0.0567506 -0.0548016 -4.63693e-21)
(-0.0899262 -0.0896943 7.2124e-20)
(-0.00561603 -0.0889426 8.71761e-20)
(0.187234 -0.0600614 -1.23563e-19)
(0.436424 -0.0389157 -3.18929e-22)
(-0.0431705 -0.0786483 -1.21492e-20)
(-0.0810964 -0.172019 -6.50354e-21)
(-0.0721255 -0.206144 8.94289e-21)
(-0.0235924 -0.193391 2.37751e-20)
(0.0770993 -0.158369 1.69238e-20)
(-0.0450504 -0.0896755 -1.65918e-20)
(-0.116675 -0.154008 -1.94378e-19)
(-0.159848 -0.150293 1.63404e-19)
(-0.183458 -0.122933 4.21096e-19)
(-0.173247 -0.0948261 -5.59159e-20)
(-0.017325 0.0319087 1.43316e-20)
(-0.127075 0.0392018 9.57457e-20)
(-0.230966 0.0357913 -2.68571e-19)
(-0.314041 0.0379946 -2.60241e-19)
(-0.361852 0.0432922 1.47137e-20)
(-0.00729042 0.206503 -4.00627e-21)
(-0.119788 0.292455 2.00424e-20)
(-0.234781 0.285728 -1.34837e-20)
(-0.33647 0.264204 4.01053e-20)
(-0.406187 0.237106 1.64222e-19)
(1.2983 0.344969 -1.80127e-20)
(1.23656 0.0716888 8.24638e-19)
(1.14244 0.00205125 -6.26386e-20)
(0.996749 0.0385389 -7.99789e-20)
(1.01787 0.0267464 4.30964e-22)
(0.850325 0.196231 8.30437e-20)
(0.556435 0.0979281 -3.02362e-19)
(0.670012 0.0536943 -1.56658e-19)
(0.769539 0.0194144 -1.13175e-20)
(0.964923 -0.000671875 -1.44308e-20)
(0.0446733 0.156311 6.53447e-20)
(0.013789 0.066639 -4.04276e-19)
(0.46149 -0.0446752 2.64912e-20)
(0.705303 -0.0464935 1.31574e-19)
(0.95175 -0.0251409 3.04095e-21)
(-0.468317 0.124282 1.81075e-19)
(-0.0898093 -0.0533534 -5.27804e-19)
(0.439535 -0.14231 5.60999e-20)
(0.710101 -0.118629 2.60825e-21)
(0.956891 -0.0614751 8.39262e-21)
(-0.619236 0.0947588 1.14911e-19)
(-0.0599971 -0.230237 2.70153e-20)
(0.455083 -0.257933 -2.79169e-20)
(0.735301 -0.189118 -7.9532e-21)
(0.968464 -0.0916535 1.43211e-20)
(0.715795 0.101968 -6.47633e-20)
(0.191418 -0.0471992 0)
(0.286638 -0.0741323 -2.83157e-20)
(0.409827 -0.0563283 2.63686e-20)
(0.518345 -0.0240357 6.98801e-22)
(1.78291 0.35225 0)
(1.48201 0.189985 0)
(1.46053 0.00766766 3.71256e-19)
(1.28112 -0.0185423 4.95469e-20)
(1.09838 -0.00434496 -9.74446e-22)
(0.68478 -0.000203119 -1.19299e-19)
(0.720173 -0.00336554 2.35577e-19)
(0.895922 -0.0188449 -1.69881e-20)
(1.03961 0.00687153 2.22146e-19)
(1.31089 0.0374893 1.43824e-19)
(1.55531 0.0210922 1.13446e-19)
(1.63865 0.0661067 2.52323e-19)
(1.87396 0.0176092 -3.48469e-20)
(2.41193 0.14629 -6.38165e-20)
(2.05398 0.062015 1.18095e-22)
(0.844819 -0.417336 -3.68892e-20)
(0.821716 -0.498624 -1.36893e-19)
(0.803635 -0.587733 -8.36012e-20)
(0.731118 -0.649267 5.10599e-20)
(0.440153 -0.506232 1.12532e-19)
(0.733903 -0.321027 1.15482e-19)
(0.680804 -0.380629 2.47313e-19)
(0.611836 -0.44734 -2.39402e-20)
(0.504594 -0.502854 1.21534e-19)
(0.270584 -0.398489 5.16449e-20)
(0.602954 -0.181853 -1.41913e-19)
(0.52052 -0.215218 -4.39722e-20)
(0.420636 -0.257734 1.38582e-19)
(0.303644 -0.297552 -4.07925e-21)
(0.129042 -0.242011 -1.00491e-19)
(0.516427 0.0425439 -3.927e-19)
(0.434043 0.0328262 -3.31808e-19)
(0.326565 0.0143144 2.6696e-19)
(0.202233 -0.0158617 1.75298e-19)
(0.0490638 -0.0375436 1.34835e-20)
(0.494349 0.245466 -1.6201e-19)
(0.411324 0.256213 -1.61232e-19)
(0.301275 0.268592 -7.38443e-20)
(0.173041 0.274938 1.11664e-20)
(0.0226324 0.195147 9.60297e-21)
(1.88197 -0.0391752 6.90007e-19)
(2.14506 -0.0985199 2.21215e-19)
(2.20549 -0.176265 -6.12237e-19)
(2.05555 -0.203339 -1.27391e-18)
(1.2264 -0.171347 1.12014e-19)
(1.86992 -0.1083 1.16078e-18)
(1.94479 -0.213319 1.55924e-18)
(1.96297 -0.327568 1.32945e-19)
(1.88011 -0.384485 2.36913e-19)
(1.19548 -0.329676 -1.56063e-19)
(1.59395 -0.258709 -2.99862e-18)
(1.6606 -0.368508 3.11246e-19)
(1.69952 -0.483753 9.44933e-19)
(1.6307 -0.552866 -3.41596e-19)
(1.05051 -0.461794 5.49045e-19)
(1.40013 -0.368083 6.91797e-19)
(1.41182 -0.458315 -1.86597e-18)
(1.39159 -0.566038 -2.10315e-18)
(1.31751 -0.645166 6.33573e-19)
(0.844376 -0.526515 4.57105e-19)
(1.13347 -0.412552 1.30913e-19)
(1.0885 -0.498617 2.20817e-19)
(1.07043 -0.609194 -3.18312e-19)
(1.00844 -0.687271 -3.83542e-19)
(0.632668 -0.542477 -3.49062e-21)
(0.964073 0.0428101 6.12763e-21)
(1.03173 0.075744 -2.95213e-21)
(1.05986 0.0656674 -1.03435e-20)
(0.782807 0.00426398 -1.79788e-19)
(1.03259 -0.158709 -1.06881e-20)
(0.965643 0.0440341 -2.61779e-21)
(1.02335 0.0710292 4.64514e-20)
(1.0808 0.0960761 -4.80344e-20)
(0.848563 0.0475486 9.03393e-20)
(0.918981 -0.0512681 -1.36194e-20)
(0.965656 0.0396794 -5.73376e-20)
(1.01532 0.0643509 2.24633e-22)
(1.08283 0.105288 -1.79587e-20)
(0.857617 0.0838585 1.53277e-20)
(0.883729 0.00394124 -1.51962e-19)
(0.957917 0.0377026 7.57639e-20)
(1.02898 0.0552754 3.8956e-21)
(1.05242 0.119828 3.13122e-20)
(0.905661 0.116497 3.42677e-20)
(0.813458 0.108885 1.00784e-19)
(0.94893 0.0334909 1.85442e-20)
(1.04645 0.0527206 -3.0813e-20)
(1.02437 0.125644 4.08839e-20)
(0.943052 0.156435 7.99132e-20)
(0.800396 0.203654 -1.22577e-19)
(0.869624 0.0333645 0)
(0.753155 0.0302105 1.12052e-20)
(0.548651 0.0185329 1.42729e-21)
(0.465176 -0.0081938 3.49419e-20)
(0.643922 -0.0400762 -1.26177e-19)
(0.956241 0.0644278 -5.98631e-20)
(1.03178 0.0880093 -1.4849e-20)
(0.929177 0.0543636 -3.32432e-20)
(0.858455 -0.00418331 -1.05154e-19)
(0.961182 -0.148745 -1.32281e-19)
(0.884466 -0.0547404 -2.67497e-20)
(0.960498 -0.0216462 4.482e-19)
(1.03233 0.041572 2.71571e-19)
(0.903804 0.0504743 3.22315e-20)
(0.694449 0.0253957 0)
(1.20767 -0.277922 2.66338e-19)
(1.31228 -0.249625 1.26932e-18)
(1.47277 -0.137879 -1.39718e-18)
(1.56408 -0.0160396 -4.25098e-19)
(1.4525 0.0246894 3.27895e-19)
)
;

boundaryField
{
    left
    {
        type            fixedValue;
        value           uniform (1 0 0);
    }
    right
    {
        type            zeroGradient;
    }
    down
    {
        type            noSlip;
    }
    up
    {
        type            noSlip;
    }
    cylinder
    {
        type            noSlip;
    }
    defaultFaces
    {
        type            empty;
    }
}


// ************************************************************************* //
