/*--------------------------------*- C++ -*----------------------------------*\
  =========                 |
  \\      /  F ield         | OpenFOAM: The Open Source CFD Toolbox
   \\    /   O peration     | Website:  https://openfoam.org
    \\  /    A nd           | Version:  13
     \\/     M anipulation  |
\*---------------------------------------------------------------------------*/
FoamFile
{
    format      ascii;
    class       volScalarField;
    location    "60";
    object      p;
}
// * * * * * * * * * * * * * * * * * * * * * * * * * * * * * * * * * * * * * //

dimensions      [0 2 -2 0 0 0 0];

internalField   nonuniform List<scalar> 
440
(
-1.18929
-1.21443
-1.26884
-1.27224
-1.32098
-1.11918
-1.10753
-1.11266
-1.12587
-1.13605
-1.20673
-1.17082
-1.13722
-1.09988
-1.0552
-1.31701
-1.26619
-1.18156
-1.07989
-0.975664
-1.39391
-1.32576
-1.17699
-1.02159
-0.878711
-1.18231
-1.16051
-1.13387
-1.11106
-1.08635
-1.17431
-1.16018
-1.14763
-1.14358
-1.14264
-1.10396
-1.11679
-1.14521
-1.16629
-1.17619
-0.923007
-0.971743
-1.0513
-1.10892
-1.12677
-0.917055
-1.00282
-1.1083
-1.16933
-1.18804
-1.03485
-1.23771
-1.18123
-1.39792
0.0697914
-1.23373
-1.11254
-0.969131
-1.33746
0.0327538
-1.16051
-0.848723
-0.801118
-1.20604
-0.00740812
-0.899023
-0.539818
-0.707958
-0.996741
-0.0458372
-0.730192
-0.209346
-0.712506
-0.818821
-0.0774515
-0.498037
0.059547
-0.814382
-0.65606
-0.107228
-0.280288
-0.104425
-0.654279
-0.444669
-0.111314
-0.344021
0.133024
-0.387232
-0.300563
-0.118836
-0.302683
0.25113
-0.208273
-0.244074
-0.122638
-0.260512
0.290091
-0.0172973
-0.178653
-0.127063
-0.634831
-0.76959
-0.944419
-1.11734
-1.29308
-0.386078
-0.506157
-0.585753
-0.611471
-0.605451
-0.216023
-0.318645
-0.384931
-0.424333
-0.440123
-0.110632
-0.212208
-0.281726
-0.32772
-0.345621
-0.0633456
-0.165354
-0.235061
-0.279828
-0.289986
0.677245
0.53997
0.366024
0.165741
-0.064466
0.271444
0.119318
-0.0704321
-0.287982
-0.536332
-0.129744
-0.290747
-0.493671
-0.725475
-0.948571
-0.472126
-0.640207
-0.845136
-1.06671
-1.23924
-0.718886
-0.883169
-1.07202
-1.26885
-1.38024
1.90343
1.93556
1.96725
1.98622
1.98753
1.71512
1.73603
1.75284
1.75381
1.73389
1.48516
1.47822
1.45017
1.3997
1.32314
1.22154
1.18845
1.12231
1.02571
0.898683
0.961002
0.868692
0.744397
0.594746
0.410718
1.64509
1.6324
1.62738
1.67626
1.78574
1.63491
1.61965
1.60917
1.64771
1.69988
1.62572
1.60397
1.58842
1.60695
1.59226
1.61769
1.58535
1.56484
1.55672
1.43379
1.61073
1.56709
1.53939
1.50012
1.26159
1.60504
1.53512
1.50504
1.40404
1.07194
1.6022
1.4981
1.47686
1.31061
1.07808
1.60872
1.47856
1.45094
1.25392
1.01338
1.59939
1.45728
1.43775
1.21618
0.95814
1.63921
1.44911
1.43608
1.19704
0.933379
0.64611
0.352897
0.0180703
-0.263218
-0.467729
0.579716
0.370615
0.14105
-0.0613517
-0.237794
0.587158
0.422841
0.246993
0.0770346
-0.0820937
0.623242
0.483665
0.329442
0.16705
0.0174876
0.643792
0.513311
0.366978
0.20742
0.0638684
-1.61553
-1.4547
-1.27308
-1.12133
-1.03092
-1.65762
-1.588
-1.44527
-1.32238
-1.24091
-1.55665
-1.50667
-1.41526
-1.32594
-1.25407
-1.38328
-1.33816
-1.28587
-1.23251
-1.18237
-1.22625
-1.20431
-1.17068
-1.14568
-1.14386
-1.13045
-1.12537
-1.08595
-1.10911
-1.0677
-1.09393
-1.08625
-1.06134
-1.06145
-1.03087
-1.10008
-1.09096
-1.07196
-1.04996
-1.04102
-1.12452
-1.11201
-1.09229
-1.07174
-1.06787
-1.14908
-1.12908
-1.09716
-1.06298
-1.02953
-1.02622
-0.718384
-0.812204
-0.813632
0.199622
-1.00155
-0.737914
-0.94713
-0.94335
0.181783
-0.885166
-0.835255
-1.12884
-1.1719
0.160562
-0.827136
-1.06009
-1.29369
-1.35403
0.135383
-0.787989
-1.2352
-1.33449
-1.42504
0.104645
-0.435656
-0.84182
-0.79063
-0.753835
0.22846
-0.907684
-0.810905
-0.726067
-0.759686
0.215481
-0.980159
-1.20009
-1.17708
-1.11758
-0.850825
-1.00036
-1.20242
-1.20076
-1.13319
-1.10394
1.58534
1.55662
1.5092
1.44445
1.35965
1.76263
1.78104
1.78248
1.76547
1.73105
1.91505
1.94647
1.96813
1.97632
1.97017
1.9974
2.0369
2.07854
2.1127
2.12828
1.99611
2.03438
2.07673
2.11217
2.12863
-0.571521
-0.686296
-0.866171
-1.0814
-1.33979
0.0394748
-0.105692
-0.299111
-0.532924
-0.836537
0.594158
0.443618
0.262929
0.0490369
-0.224366
1.03627
0.919489
0.77737
0.604072
0.391551
1.38691
1.30508
1.19722
1.06704
0.913533
1.70985
1.66768
1.6658
1.6805
1.71014
1.69422
1.66394
1.66301
1.69392
1.76593
1.68069
1.65867
1.66089
1.70811
1.83795
1.66795
1.65198
1.65327
1.70816
1.8412
1.65606
1.64346
1.6418
1.69777
1.83172
1.76583
1.67429
1.65587
1.60801
1.59715
1.72043
1.66506
1.65016
1.62825
1.60019
1.2697
1.05273
0.664942
0.0921799
-0.536148
1.35371
1.08506
0.678853
0.111509
-0.528643
)
;

boundaryField
{
    left
    {
        type            zeroGradient;
    }
    right
    {
        type            fixedValue;
        value           uniform 0;
    }
    down
    {
        type            zeroGradient;
    }
    up
    {
        type            zeroGradient;
    }
    cylinder
    {
        type            zeroGradient;
    }
    defaultFaces
    {
        type            empty;
    }
}


// ************************************************************************* //
