/*--------------------------------*- C++ -*----------------------------------*\
  =========                 |
  \\      /  F ield         | OpenFOAM: The Open Source CFD Toolbox
   \\    /   O peration     | Website:  https://openfoam.org
    \\  /    A nd           | Version:  13
     \\/     M anipulation  |
\*---------------------------------------------------------------------------*/
FoamFile
{
    format      ascii;
    class       surfaceScalarField;
    location    "60";
    object      phi;
}
// * * * * * * * * * * * * * * * * * * * * * * * * * * * * * * * * * * * * * //

dimensions      [0 3 -1 0 0 0 0];

internalField   nonuniform List<scalar> 
823
(
0.0145291
0.0232167
-0.0377458
0.0378277
0.019954
-0.0432527
0.0855955
-0.0281949
-0.0195729
0.167172
-0.0945217
0.0129451
-0.135076
0.0242278
0.278021
0.0171443
0.00607237
0.0752387
-0.0381403
0.16937
-0.122326
0.277711
-0.202863
-0.276603
0.419237
0.021323
-0.0152506
0.105233
-0.12205
0.216853
-0.233947
0.324928
-0.310938
-0.358575
0.4069
0.0422217
-0.0574723
0.139021
-0.218849
0.227151
-0.322077
0.283952
-0.367739
-0.380671
0.306048
0.0564479
-0.11392
0.129771
-0.292172
0.172403
-0.364709
0.188204
-0.383539
0.196033
-0.3885
0.0237702
-0.0563317
0.0325615
0.0554743
-0.118846
0.087142
0.0742538
-0.128413
0.109633
0.077612
-0.109377
0.106019
-0.0852955
0.0722764
0.0906311
0.0199206
-0.0762522
0.0286619
-0.127587
0.0181019
-0.117853
-0.000453052
-0.0908219
-0.0694459
-0.0163027
0.0013326
-0.0775848
-0.0222965
-0.103958
-0.0563933
-0.083756
-0.0831727
-0.0640425
-0.0533244
-0.0992942
-0.0555866
-0.0219982
-0.133111
-0.0264339
-0.196219
-0.0206483
-0.240874
-0.0193871
-0.0220569
-0.272142
-0.059744
-0.129431
-0.169652
-0.176094
-0.173923
0.394234
-0.456827
0.13487
0.482208
1.59491
-1.68288
0.393974
1.02585
-0.937612
0.466449
-1.42604
1.35356
-1.01593
1.0068
0.249544
-0.722674
0.403697
1.44075
0.446173
0.98337
0.524052
-1.50392
-1.01439
0.0075312
-0.829499
0.219576
1.22871
0.544884
0.658062
0.594976
-1.55401
-0.997167
-0.194201
-0.907439
0.162178
0.87233
0.635683
0.184557
0.645948
-1.56427
-0.975182
-0.133538
-0.947824
0.164365
0.574427
0.659087
-0.310165
0.656162
-1.56135
-0.955009
0.759381
-0.56603
-1.14118
0.826201
0.507607
1.29887
-0.782836
1.14388
-1.40636
-0.769325
1.11522
-0.343059
-1.33819
1.31065
0.31218
1.43117
-0.903354
1.10332
-1.07851
-0.507185
1.17659
-0.19236
-1.32729
1.45548
0.0332897
1.3142
-0.76208
0.932166
-0.696478
-0.282094
1.1962
-0.097447
-1.29112
1.3485
-0.11901
1.00836
-0.421937
0.585049
-0.273167
-0.0822324
0.78715
-0.884597
0.66814
0.246203
-0.026964
1.08482
0.14454
-1.03333
1.15242
0.23845
1.26053
0.298795
1.26985
0.409916
0.406691
1.01063
0.0794763
-0.945569
1.07145
0.177628
1.16215
0.208098
1.26448
0.30759
0.332978
0.944965
0.0388143
-0.904303
1.00942
0.113176
1.08835
0.129162
1.21003
0.185909
0.215727
0.889898
0.00969553
-0.860779
0.960518
0.0425561
1.04235
0.0473271
1.15701
0.0712519
0.0816202
0.641841
-0.632146
0.684397
0.731725
0.802977
0.13178
0.298105
-0.248509
-0.181376
0.0875159
0.305043
-0.260778
0.0477909
0.315544
-0.27582
0.0153107
0.307335
-0.274855
0.199326
-0.184016
0.0965365
0.335286
-0.133718
0.0609988
0.34058
0.0293018
0.347241
0.00469339
0.331944
0.20402
0.0524004
0.365197
-0.0823119
0.023677
0.369304
-0.000190606
0.371109
-0.0099345
0.341687
0.194085
-0.0201339
0.381887
0.0034444
-0.0352407
0.384411
-0.0412501
0.377118
-0.0302818
0.330719
0.163803
-0.101711
0.0950983
-0.10084
-0.0884306
-0.0498833
0.203875
0.0952998
-0.256697
-0.042478
0.149687
0.0995361
-0.0453475
0.0935245
0.104263
-0.0481011
0.0382698
0.104502
-0.0492474
0.0745637
-0.0362939
0.196749
0.140083
-0.241532
0.149802
0.146484
0.097593
0.156472
0.0416159
0.160479
0.11618
0.151539
0.18562
-0.197077
0.108015
0.190008
0.0655423
0.198945
0.0249533
0.201068
0.141133
0.156865
0.220694
-0.191939
0.11644
0.230433
0.0714581
0.243926
0.0276916
0.244835
0.168825
0.10745
-0.135265
0.0771048
0.0452115
0.0151911
0.404822
0.0690593
-0.077902
0.421104
0.0169827
-0.0332644
0.416258
0.148994
-0.144147
0.391104
0.1998
-0.174646
0.401947
-0.26754
0.402176
0.0628625
0.415779
0.00338021
0.405944
0.158828
0.375321
0.230424
0.535735
0.396405
0.0624371
0.411591
-0.0118057
0.384854
0.185565
0.361676
0.253603
0.700334
0.393738
0.064679
0.400214
-0.0182821
0.369623
0.216156
0.336248
0.286977
0.844644
0.387503
0.0731554
0.390012
-0.0207906
0.339328
0.26684
0.310671
0.315634
1.02005
0.625707
0.0514692
0.663681
-0.0587647
0.6806
0.249921
0.733911
0.262323
0.770437
0.983524
0.642964
0.0125256
0.671839
-0.0876398
0.69346
0.2283
0.770011
0.185772
0.516566
1.02388
0.653647
-0.0371014
0.651656
-0.085649
0.69116
0.188796
0.795706
0.0812261
0.310291
1.00198
0.636602
-0.0696827
0.605447
-0.0544944
0.715251
0.0789924
0.786964
0.00951335
0.145275
0.95198
0.534338
0.479843
0.558836
0.568349
0.713624
1.00268
-0.200535
1.00013
-0.13116
0.993637
-0.0758241
1.00539
-0.00830658
0.0671566
0.96181
-0.138463
0.946126
-0.115476
0.91596
-0.0456574
0.935896
-0.0282432
0.0574833
0.940752
-0.0772345
0.905365
-0.0800885
0.882967
-0.0232599
0.886304
-0.0315795
0.039484
0.903731
-0.0289858
0.857987
-0.0343447
0.846334
-0.0116069
0.833812
-0.0190571
0.0125165
0.684638
0.650293
0.638686
0.619629
0.0550193
0.170023
-0.225042
0.0790566
0.366036
-0.390074
0.0777895
0.420624
-0.419357
0.0676836
0.421721
-0.411615
0.389561
0.0536322
-0.375509
0.0847241
0.085299
0.161103
0.289657
0.194177
0.38755
0.197934
0.417963
0.405959
0.181536
0.0720567
0.0132423
0.199831
0.161884
0.296157
0.291223
0.351963
0.362158
0.410204
0.347718
0.0341558
-0.0209135
0.153194
0.0428457
0.289439
0.154978
0.420226
0.231371
0.325566
0.504864
0.00546874
-0.0263823
0.0662035
-0.0178891
0.184311
0.0368708
0.329932
0.0857495
0.177201
0.478297
-0.00642481
-0.0199575
0.0106875
-0.0350014
0.0740973
-0.0265391
0.174314
-0.0144675
0.053916
0.297599
-0.00647265
-0.0134848
-0.0053677
-0.0361064
0.0161904
-0.0480972
0.0517638
-0.050041
-0.0206499
0.12633
-0.00125766
-0.0122272
0.00441539
-0.0417794
0.0191652
-0.062847
0.0393066
-0.0701825
-0.0642969
0.0829537
0.00656877
-0.0187959
0.0253467
-0.0605574
0.0499166
-0.0874168
0.0749399
-0.0952058
-0.0918908
0.102534
0.0137655
0.0403501
0.0625665
0.0733793
0.0721196
0.404614
1.02732
-1.13434
0.238626
0.772572
-0.606584
-0.0494703
0.647271
-0.359175
0.110438
-0.577162
0.417253
-0.69322
0.493646
0.403459
0.750193
0.122581
1.05345
-0.0585952
0.828447
0.185362
-0.821119
-0.822627
0.42275
0.410397
0.0643641
1.41184
-0.0180243
0.910836
0.242919
-1.08206
-0.917732
0.395179
0.117752
0.146064
1.66095
0.124645
0.932255
0.301271
-1.25869
-0.983184
0.324742
0.30281
0.297453
0.392329
-0.12785
0.734287
-0.606437
-0.272905
0.145056
-0.229633
-0.0432724
0.0316029
-0.261236
-0.205449
0.818994
-1.21905
0.357466
-0.044981
0.111036
0.0948227
-0.0126266
-0.0821961
0.155198
-0.0603748
0.260488
-0.105291
0.416061
-0.155572
-0.190376
0.218244
-0.177238
0.339405
0.581832
0.931124
0.145793
-0.151193
0.182816
-0.177417
0.111499
-0.157551
0.191846
0.0725289
-0.166048
0.205018
0.0299473
-0.166612
0.209193
-0.117365
0.147312
0.190257
-0.111091
-0.230359
0.144708
-0.112002
0.0923977
-0.113737
0.0383736
-0.112588
-0.0789913
0.185793
-0.0599428
-0.236941
0.133912
-0.0601207
0.0823644
-0.0621899
0.033285
-0.0635083
-0.0457064
0.203804
-0.00869032
-0.255056
0.151735
-0.00805174
0.0973117
-0.00776665
0.0412096
-0.00740625
-0.00449674
0.206711
-0.25788
0.153312
0.0974443
0.0407907
0.0475382
-0.351981
-0.0710661
0.0184181
-0.382495
-0.00655531
-0.394384
-0.0175024
-0.379127
-0.242545
0.135943
-0.317697
-0.170228
0.0906308
-0.337182
0.0447603
-0.348513
0.00956249
-0.343929
-0.232982
0.158521
-0.273454
-0.202764
0.111014
-0.289675
0.0652476
-0.302746
0.0236216
-0.302303
-0.209361
0.177563
-0.234082
-0.216934
0.131175
-0.243288
0.0814617
-0.253033
0.033079
-0.25392
-0.176282
0.173153
-0.224419
0.121711
0.0736963
0.0289695
0.388332
0.105362
-0.0977141
0.390593
0.0816271
-0.0838878
0.358619
0.138548
-0.106574
0.310588
0.0333003
0.0147306
-0.265019
0.39819
0.396254
0.105088
0.404736
0.0731453
0.397161
0.146123
0.352079
0.0783823
-0.143299
0.401553
0.0995139
0.41426
0.0604387
0.411711
0.148672
0.37462
0.115473
-0.00562035
0.406205
0.0892887
0.419265
0.0473786
0.422371
0.145566
0.39135
0.146493
0.130674
0.407366
0.42148
0.422899
0.394746
0.414925
0.0951258
0.336919
0.0780059
0.257767
0.0791521
0.27007
-0.0123032
-0.214393
0.484463
0.507463
0.501581
0.474158
0.476586
0.660383
0.387616
0.0968476
0.301976
0.0856398
0.202506
0.0994704
0.117837
0.0846682
0.0356413
0.532811
0.401517
0.298223
0.212663
)
;

boundaryField
{
    left
    {
        type            calculated;
        value           nonuniform List<scalar> 
17
(
-0.60402
-0.60402
-0.60402
-0.60402
-0.60402
-0.39598
-0.39598
-0.39598
-0.39598
-0.39598
-0.39598
-0.39598
-0.39598
-0.39598
-0.39598
-0.510051
-0.510051
)
;
    }
    right
    {
        type            calculated;
        value           nonuniform List<scalar> 
17
(
0.237051
0.399234
0.310013
0.314768
0.338024
0.366723
0.415941
0.475578
0.52252
0.577749
0.623963
0.635989
0.9582
0.84118
0.707075
0.385188
-0.109196
)
;
    }
    down
    {
        type            calculated;
        value           uniform 0;
    }
    up
    {
        type            calculated;
        value           uniform 0;
    }
    cylinder
    {
        type            calculated;
        value           uniform 0;
    }
    defaultFaces
    {
        type            empty;
    }
}


// ************************************************************************* //
