/*--------------------------------*- C++ -*----------------------------------*\
  =========                 |
  \\      /  F ield         | OpenFOAM: The Open Source CFD Toolbox
   \\    /   O peration     | Website:  https://openfoam.org
    \\  /    A nd           | Version:  13
     \\/     M anipulation  |
\*---------------------------------------------------------------------------*/
FoamFile
{
    format      ascii;
    class       volVectorField;
    location    "60";
    object      U;
}
// * * * * * * * * * * * * * * * * * * * * * * * * * * * * * * * * * * * * * //

dimensions      [0 1 -1 0 0 0 0];

internalField   nonuniform List<vector> 
440
(
(-0.193275 0.192857 5.74755e-20)
(-0.21114 0.270022 -2.59097e-19)
(-0.0209764 0.176305 -1.77944e-19)
(0.392919 0.133259 2.61553e-19)
(0.499024 0.122531 -1.71579e-20)
(-0.0499271 0.040681 -8.52471e-21)
(0.0950471 0.0612893 -2.65492e-20)
(0.545066 0.021555 5.92715e-20)
(1.08025 -0.00819461 -9.88821e-20)
(1.57124 -0.0349023 -8.10141e-20)
(-0.00137487 -0.000207029 3.24583e-20)
(0.478231 -0.0456689 6.74261e-19)
(1.2161 -0.0346871 -3.68233e-19)
(1.80198 -0.0121507 -1.07544e-18)
(2.33266 0.00604152 5.74423e-19)
(0.198006 -0.0460337 -1.63328e-19)
(1.14169 -0.00194045 -5.39657e-19)
(1.91135 0.0721379 1.64615e-18)
(2.35517 0.121423 1.89599e-18)
(2.44818 0.142177 -4.95703e-19)
(0.538399 -0.00884962 -2.89831e-19)
(1.69623 0.178264 -6.22098e-19)
(2.2532 0.262876 1.9152e-18)
(2.39091 0.279013 2.0319e-18)
(2.45406 0.253485 6.88034e-19)
(0.0428108 -0.27081 -2.48922e-20)
(0.180717 -0.647709 -1.97906e-19)
(0.244622 -0.76147 2.76688e-19)
(0.250166 -0.699428 -4.68096e-20)
(0.22723 -0.574095 -3.84149e-19)
(0.133605 -0.417363 5.07478e-20)
(0.282505 -0.774576 1.69108e-19)
(0.254662 -0.765242 5.2487e-21)
(0.164736 -0.598017 9.99102e-21)
(0.0821904 -0.440616 -2.56903e-20)
(0.230944 -0.483626 2.95534e-19)
(0.285596 -0.741725 3.02212e-19)
(0.160493 -0.676829 5.33747e-20)
(0.0324096 -0.556416 -2.4679e-19)
(-0.0320994 -0.477277 2.02103e-21)
(0.15538 -0.350872 1.68136e-19)
(-0.0287176 -0.519573 -3.26335e-19)
(-0.249301 -0.488996 2.33044e-19)
(-0.367437 -0.474385 5.54029e-19)
(-0.407069 -0.448291 -3.34531e-20)
(-0.14155 0.0507118 2.61229e-19)
(-0.312848 -0.114205 3.48294e-19)
(-0.354608 -0.25725 5.2513e-19)
(-0.308752 -0.311083 -2.63095e-19)
(-0.23016 -0.331823 -1.03666e-19)
(-0.0604921 -0.273739 -1.93439e-18)
(1.78995 1.10507 -4.50587e-19)
(0.494121 0.701495 -5.30386e-19)
(1.3084 -0.961591 4.85674e-19)
(1.19729 -0.710213 -7.33817e-20)
(-0.136086 -0.382027 3.18816e-19)
(1.21513 1.10367 2.2845e-19)
(0.526842 0.745925 -7.2633e-20)
(1.55284 -1.01927 -7.97602e-19)
(1.31627 -0.713742 1.4424e-19)
(-0.00403653 -0.566574 -8.5199e-19)
(-0.0641655 0.901716 -2.9121e-18)
(0.817092 0.577349 4.8808e-20)
(1.85029 -1.04262 -1.52754e-18)
(1.45639 -0.697156 4.31451e-20)
(-0.305 -0.48291 5.40534e-19)
(-0.845375 0.72258 1.68508e-19)
(1.30238 0.288343 8.65634e-20)
(2.06753 -1.03181 1.21455e-18)
(1.57389 -0.664403 2.24476e-19)
(0.502483 -0.698093 -4.12831e-19)
(-1.08932 0.476738 1.85307e-18)
(1.7613 -0.0751239 0)
(2.17248 -1.01629 -8.64644e-19)
(1.60489 -0.61813 3.8425e-20)
(2.10674 -0.375117 -4.82962e-19)
(0.434376 0.184054 -1.83305e-19)
(2.15991 -0.433705 1.28859e-20)
(2.24652 -0.957737 -3.16761e-19)
(1.58567 -0.560368 -3.58927e-20)
(2.10329 -0.335323 5.19518e-20)
(1.59836 0.380675 1.21989e-19)
(2.59533 -0.49535 8.23317e-21)
(2.25479 -0.771693 6.32353e-19)
(1.39241 -0.388924 0)
(1.8939 -0.126022 2.60693e-20)
(2.12034 0.0484184 -1.00654e-21)
(2.54457 -0.587465 6.01728e-19)
(1.8975 -0.562632 -1.75012e-19)
(1.17073 -0.24787 -1.49589e-20)
(1.87498 -0.102605 -4.28179e-20)
(2.21714 -0.0100145 1.54457e-19)
(2.10935 -0.392799 3.50534e-20)
(1.28852 -0.328437 8.32624e-35)
(0.637964 -0.0999506 4.77964e-20)
(1.30753 -0.0114443 6.1099e-20)
(1.40254 -0.137289 2.26489e-20)
(0.729312 -0.0993223 -1.35521e-19)
(0.0890119 0.00234898 3.80308e-20)
(-0.180362 -0.00538134 3.91069e-21)
(2.35263 0.248113 -8.4346e-19)
(2.5345 0.0852517 -1.13554e-18)
(2.39827 0.0604659 8.84548e-19)
(2.63901 -0.070776 3.38576e-20)
(1.95746 -0.024128 -9.99281e-20)
(2.11951 0.120065 6.44213e-20)
(2.36678 0.107473 -4.05989e-20)
(2.21429 -0.0406733 -1.31761e-19)
(2.41912 -0.0719853 -2.57666e-19)
(2.25112 -0.236531 -2.81493e-21)
(2.09341 0.0441512 7.48732e-20)
(2.12031 0.0917527 9.37176e-20)
(2.20564 -0.0563827 -1.17362e-19)
(2.15295 -0.0265973 3.69619e-20)
(2.28181 -0.14699 2.69419e-20)
(2.01938 0.00519623 1.16415e-19)
(1.96954 0.0421187 1.48207e-19)
(2.13555 -0.0425908 -1.82729e-20)
(2.03338 -0.0244522 -4.79718e-20)
(2.20851 -0.084073 2.10687e-20)
(1.43875 -0.0146972 1.80791e-19)
(1.44191 -0.00398605 -1.15868e-20)
(1.48204 -0.0239845 1.9725e-20)
(1.44135 -0.0127581 -2.90167e-20)
(1.5107 -0.036272 -1.20616e-21)
(1.56432 0.849864 1.03674e-18)
(1.52269 0.945442 -3.02556e-19)
(1.51684 1.06933 -1.25219e-18)
(1.44855 1.11383 7.03918e-19)
(0.895853 0.806748 -1.78408e-19)
(1.83193 0.79345 -5.47433e-19)
(1.81047 0.877999 -2.85876e-18)
(1.81853 0.987315 -1.11353e-18)
(1.73186 0.998922 -4.07248e-19)
(1.05934 0.698009 -6.4705e-19)
(2.11537 0.69839 7.32014e-19)
(2.10104 0.763812 1.9258e-19)
(2.08415 0.844794 -2.22602e-18)
(1.95084 0.828664 -6.12161e-19)
(1.14512 0.540867 4.53904e-19)
(2.27271 0.567178 2.253e-18)
(2.27661 0.620143 1.64779e-18)
(2.27289 0.66872 -1.89976e-18)
(2.04839 0.622843 -1.41915e-18)
(1.10539 0.34949 -2.58203e-19)
(2.42094 0.425854 1.08063e-18)
(2.4242 0.445951 -7.88374e-19)
(2.32754 0.462279 5.5506e-19)
(1.98115 0.399045 4.43027e-19)
(0.902242 0.146472 -3.70232e-19)
(0.575828 0.400067 -7.07639e-19)
(0.487805 0.431837 -5.76871e-19)
(0.369097 0.463529 7.63052e-20)
(0.229107 0.470958 -2.59332e-20)
(0.0561834 0.34279 7.19603e-20)
(0.671407 0.577623 7.84697e-20)
(0.607834 0.635947 -3.19852e-19)
(0.519618 0.704007 1.77243e-19)
(0.392392 0.758791 -8.16321e-20)
(0.167879 0.580721 1.16602e-19)
(0.775701 0.76729 2.09886e-19)
(0.701923 0.844448 4.1789e-19)
(0.641961 0.941997 5.39525e-20)
(0.556014 0.997146 -2.78263e-19)
(0.304099 0.749165 2.25455e-19)
(1.03513 0.86362 2.1883e-19)
(0.988835 0.951835 -6.23059e-19)
(0.93804 1.05228 -1.80333e-18)
(0.854325 1.12 7.3902e-19)
(0.505097 0.8394 -1.81706e-19)
(1.15648 0.893438 -1.36487e-19)
(1.1672 1.01487 -2.12397e-19)
(1.1824 1.13597 -3.26364e-19)
(1.12803 1.17767 -3.81542e-19)
(0.695538 0.858643 -6.30606e-21)
(1.01562 0.0539853 -9.19446e-20)
(0.981817 0.0197201 -3.54586e-20)
(1.04673 0.105433 -1.37408e-21)
(0.946 0.128885 -2.90469e-19)
(0.883682 0.239707 3.07269e-19)
(1.00424 0.0529644 5.75816e-20)
(0.993249 0.0158094 1.26262e-19)
(1.03964 0.111355 1.11732e-19)
(0.974134 0.161995 3.47401e-20)
(0.921986 0.314196 1.39504e-20)
(1.00864 0.0525496 7.77549e-20)
(0.978923 0.00852711 -4.8254e-21)
(1.08968 0.126546 -6.03562e-21)
(0.919644 0.168818 1.63929e-19)
(1.11791 0.449156 -4.37269e-19)
(1.00087 0.0530542 -4.49023e-22)
(1.00087 -0.0030065 -1.79185e-19)
(1.09293 0.143843 -6.21552e-20)
(0.983525 0.18644 -3.97426e-19)
(1.16246 0.48771 9.36094e-20)
(0.995748 0.0456666 -1.37079e-20)
(1.01207 -0.00302617 5.39282e-20)
(1.13693 0.152405 3.09534e-20)
(0.956968 0.20804 4.67871e-19)
(1.41562 0.612838 -4.2507e-19)
(0.953747 0.0469361 -7.43856e-21)
(1.09178 -0.0314708 1.12537e-19)
(1.13239 0.182034 -8.6692e-20)
(1.15329 0.159362 8.23022e-19)
(1.32847 0.625925 -4.00314e-19)
(0.892194 0.0157739 -1.67395e-21)
(1.20129 -0.0450012 -1.00607e-19)
(1.0618 0.134389 4.53687e-21)
(1.20966 0.159434 -2.67028e-19)
(1.41333 0.382018 2.89887e-20)
(0.962857 0.00155674 -5.71618e-21)
(1.16138 -0.0601171 1.30535e-35)
(1.0381 0.145776 -4.64032e-20)
(1.21926 0.0777151 8.23948e-20)
(1.48146 0.2417 1.56206e-19)
(1.11036 -0.0527629 4.229e-21)
(0.955185 -0.0502171 -2.59846e-20)
(1.09393 0.0914238 1.70667e-20)
(1.23784 0.0244084 3.39496e-20)
(1.42059 0.137759 -2.2209e-19)
(1.00803 -0.0257205 -4.31042e-20)
(0.715375 -0.0168581 -4.7477e-21)
(0.917306 0.00974861 1.93134e-20)
(0.898175 -0.0132692 -1.11234e-20)
(1.02223 0.0456603 -4.92026e-20)
(1.76071 0.660169 3.20109e-19)
(1.87243 0.64184 7.41155e-19)
(2.10593 0.550276 -1.0419e-18)
(2.18069 0.484438 1.79427e-20)
(2.36916 0.324339 4.58795e-19)
(1.72906 0.492714 4.87166e-20)
(1.79235 0.415912 9.79889e-19)
(1.97435 0.420635 9.58088e-20)
(1.98404 0.284513 -8.94691e-19)
(2.19982 0.265706 -2.88975e-19)
(1.66955 0.382189 -2.03838e-19)
(1.76533 0.271794 -1.43502e-19)
(1.84786 0.316411 2.48925e-19)
(1.94256 0.158222 -2.96437e-19)
(2.0141 0.208207 2.68238e-19)
(1.60855 0.224962 2.9557e-19)
(1.68363 0.143865 -1.4079e-21)
(1.74567 0.1765 2.21778e-19)
(1.86028 0.0697923 1.99259e-19)
(1.87756 0.11206 -1.91837e-19)
(1.23612 0.0515724 -3.38157e-20)
(1.25822 0.0299259 2.06771e-19)
(1.34024 0.0286123 1.06795e-19)
(1.36707 0.00330719 -2.31319e-19)
(1.41641 0.00907105 2.11937e-22)
(1.3327 -0.0374045 6.20108e-20)
(2.43471 -0.0343866 -5.32214e-19)
(2.6622 -0.0249568 1.45618e-18)
(2.65637 0.0238902 6.70396e-19)
(2.43745 0.0426022 -4.44978e-19)
(0.846032 0.0964463 1.17097e-19)
(2.21394 0.105107 -5.49666e-19)
(2.67285 0.110405 -7.65425e-19)
(2.68128 0.125809 1.00416e-18)
(2.4821 0.11997 -6.95226e-19)
(0.240245 0.0860256 -3.83637e-20)
(1.56089 0.178861 6.02004e-19)
(2.3687 0.223036 1.00976e-19)
(2.75004 0.226924 8.91422e-19)
(2.7826 0.21754 5.12861e-19)
(-0.0664583 -0.0337289 2.45955e-19)
(0.613258 0.110387 2.57115e-19)
(1.55084 0.215075 -6.6155e-19)
(2.12503 0.281131 5.33717e-20)
(2.74227 0.318617 3.80868e-19)
(-0.136928 -0.112403 1.9303e-19)
(0.0127527 -0.0415473 -2.08235e-19)
(0.635717 0.097211 -4.24081e-20)
(1.1591 0.168097 9.39913e-20)
(1.82331 0.322421 1.69612e-20)
(-0.103764 -0.11168 4.91503e-20)
(-0.161686 -0.131667 1.4134e-19)
(0.049224 -0.112765 8.4566e-20)
(0.24121 -0.0803134 -7.40665e-20)
(0.936816 0.102036 1.54036e-20)
(-0.0609442 -0.0844256 -1.86054e-20)
(-0.151491 -0.183238 -9.99481e-20)
(-0.137513 -0.243979 -3.9756e-20)
(-0.0806983 -0.250043 -2.96495e-20)
(0.194501 -0.0743405 2.72042e-21)
(-0.0314789 -0.0640956 1.3857e-21)
(-0.0893779 -0.209769 2.59143e-19)
(-0.101137 -0.320021 -2.15944e-19)
(-0.0715161 -0.371297 -4.16908e-19)
(-0.0167208 -0.312554 8.65965e-20)
(-0.0193049 -0.0851455 -2.39126e-20)
(-0.0318247 -0.308668 -1.46393e-19)
(-0.00900121 -0.479412 3.69779e-19)
(0.0351087 -0.55663 2.05965e-19)
(0.0515452 -0.566846 -2.82875e-20)
(-0.00535066 -0.150053 1.84748e-20)
(0.0447961 -0.46153 -6.14991e-20)
(0.0985442 -0.633195 2.17971e-20)
(0.126048 -0.65528 2.9115e-21)
(0.123546 -0.592503 -2.27363e-19)
(1.49362 0.746259 -4.1962e-20)
(1.69725 0.419762 2.89072e-19)
(-0.0560378 0.330809 1.39052e-19)
(-0.223258 -0.28605 4.86565e-19)
(0.779957 -0.375754 -1.32553e-20)
(1.32969 0.608414 3.42545e-20)
(1.4514 0.585816 5.7283e-19)
(-0.46823 0.49024 1.03109e-18)
(0.13814 -0.480447 2.18087e-20)
(0.791674 -0.50299 7.74293e-20)
(1.33318 0.455744 3.39523e-19)
(1.16389 0.85917 2.15832e-18)
(-0.508648 0.57464 -3.93043e-20)
(0.386797 -0.653038 -1.97065e-18)
(0.849926 -0.580442 -2.93172e-20)
(0.957268 0.132316 -1.52047e-19)
(1.06887 1.03089 -3.42937e-18)
(-0.102766 0.6274 -3.16267e-19)
(0.63931 -0.822542 1.88998e-20)
(0.922073 -0.656746 -9.01638e-20)
(0.22775 0.0597023 1.20839e-19)
(1.27167 1.22659 -4.19288e-19)
(0.319567 0.649177 -1.334e-19)
(1.02575 -0.89325 -1.22966e-19)
(1.04637 -0.692473 -2.27447e-19)
(-0.161999 0.151203 -6.1258e-20)
(-0.392234 -0.193009 0)
(-0.642712 -0.10685 -6.03696e-21)
(-0.304237 -0.11035 -8.323e-21)
(0.461781 -0.0479187 3.12707e-21)
(1.79406 0.675501 0)
(1.33068 0.367107 0)
(0.0830957 0.0647454 -1.32134e-19)
(-0.281452 -0.19975 -1.87613e-19)
(0.779827 -0.212594 3.86771e-20)
(0.783319 0.00515475 -1.30894e-19)
(0.824418 -0.00711562 1.68013e-19)
(1.08272 0.0343153 -4.7076e-20)
(0.921486 -0.000952003 3.94283e-19)
(1.45807 0.169675 2.66635e-19)
(1.76208 0.0381539 1.24061e-19)
(1.96766 0.0793452 3.14024e-19)
(2.11525 0.110891 -6.55869e-19)
(2.59483 0.246564 1.45872e-19)
(2.52086 0.269934 3.44895e-19)
(0.963668 -0.524228 3.68565e-20)
(0.952658 -0.621405 -2.00446e-19)
(0.951174 -0.72729 -1.90526e-19)
(0.885293 -0.802009 1.12843e-19)
(0.542029 -0.632706 1.38122e-19)
(0.864932 -0.435962 1.12024e-19)
(0.809733 -0.505355 1.60639e-19)
(0.733513 -0.579522 -1.00063e-19)
(0.615844 -0.643982 1.39622e-19)
(0.339113 -0.51196 3.33452e-20)
(0.674499 -0.301339 -1.31869e-19)
(0.581494 -0.344842 -5.36596e-20)
(0.480602 -0.400712 1.2316e-20)
(0.366869 -0.450017 -4.73689e-20)
(0.171183 -0.355319 -1.26841e-19)
(0.569956 -0.0678021 -4.47094e-19)
(0.486532 -0.0882024 -3.62914e-19)
(0.379168 -0.120719 2.93075e-19)
(0.251737 -0.160696 1.63719e-19)
(0.0780549 -0.143555 1.39276e-20)
(0.535006 0.13588 -1.57005e-19)
(0.449835 0.135992 -1.68986e-19)
(0.333485 0.133695 -5.33673e-20)
(0.196034 0.134734 4.63132e-20)
(0.033683 0.10117 1.4602e-20)
(2.21774 -0.0324861 9.31015e-19)
(2.44965 -0.106641 3.44395e-19)
(2.54546 -0.200283 -8.74889e-19)
(2.41577 -0.225433 -1.8489e-18)
(1.48269 -0.218706 1.31822e-19)
(2.15162 -0.130796 1.55865e-18)
(2.26816 -0.246799 2.02415e-18)
(2.28692 -0.375442 1.65918e-19)
(2.21642 -0.43959 2.84067e-19)
(1.44387 -0.408382 -1.89143e-19)
(1.87376 -0.304129 -4.00619e-18)
(1.91935 -0.426386 4.75414e-19)
(1.96137 -0.559105 1.25695e-18)
(1.91392 -0.642194 -5.10398e-19)
(1.25918 -0.563689 8.02313e-19)
(1.61595 -0.433226 9.7548e-19)
(1.6345 -0.536933 -2.54203e-18)
(1.62867 -0.66249 -2.96726e-18)
(1.5672 -0.760498 9.34366e-19)
(1.01975 -0.642424 5.96719e-19)
(1.31882 -0.501383 2.22906e-19)
(1.26511 -0.599689 2.67785e-19)
(1.25028 -0.728165 -4.52912e-19)
(1.19544 -0.822852 -5.49583e-19)
(0.761513 -0.664273 -5.31483e-21)
(1.06302 0.0559382 7.35088e-21)
(0.925581 0.0464043 -2.35732e-21)
(1.13795 0.0690486 -7.74871e-22)
(0.814507 -0.00747574 -2.26595e-19)
(1.18847 -0.243962 -1.38994e-20)
(1.07268 0.0597755 -2.47759e-21)
(0.921858 0.041822 4.17566e-20)
(1.13106 0.086351 -2.50423e-20)
(0.895623 0.0342985 1.49888e-19)
(1.04156 -0.127674 -1.10676e-20)
(1.07066 0.0576696 -5.9958e-20)
(0.925044 0.0350634 3.85482e-22)
(1.11577 0.0870664 -1.19916e-20)
(0.887957 0.0550738 4.58143e-20)
(1.00195 -0.0698974 -2.17941e-19)
(1.05214 0.0568202 7.23866e-20)
(0.951896 0.0290635 3.07026e-21)
(1.07498 0.0918126 2.63783e-20)
(0.931662 0.0817032 1.13951e-20)
(0.880849 0.0434175 9.12011e-20)
(1.02837 0.0544675 1.80034e-20)
(0.977535 0.0258906 -2.8386e-20)
(1.04454 0.095907 3.68324e-20)
(0.952868 0.110547 7.53021e-20)
(0.845293 0.134721 -5.29689e-20)
(0.887708 0.033596 0)
(0.711112 0.0272186 8.99876e-21)
(0.62895 0.0217022 4.54763e-21)
(0.368649 -0.00962313 4.85189e-20)
(0.737491 -0.062506 -1.48323e-19)
(1.0314 0.0747773 -6.3704e-20)
(0.93662 0.0653739 -9.01285e-21)
(1.04968 0.0715866 -4.73231e-20)
(0.828325 -0.0071155 -1.27292e-19)
(1.09988 -0.221104 -1.53604e-19)
(1.03805 -0.0667645 -3.44278e-20)
(1.1267 -0.0364281 5.50404e-19)
(1.23444 0.0378856 3.40606e-19)
(1.09821 0.0626804 2.44425e-20)
(0.854122 0.0339016 0)
(1.4041 -0.332538 3.46585e-19)
(1.52898 -0.292556 1.62616e-18)
(1.72484 -0.169595 -1.82757e-18)
(1.82221 -0.0211458 -5.82136e-19)
(1.7567 0.0357631 4.23221e-19)
)
;

boundaryField
{
    left
    {
        type            fixedValue;
        value           uniform (1 0 0);
    }
    right
    {
        type            zeroGradient;
    }
    down
    {
        type            noSlip;
    }
    up
    {
        type            noSlip;
    }
    cylinder
    {
        type            noSlip;
    }
    defaultFaces
    {
        type            empty;
    }
}


// ************************************************************************* //
