/*--------------------------------*- C++ -*----------------------------------*\
  =========                 |
  \\      /  F ield         | OpenFOAM: The Open Source CFD Toolbox
   \\    /   O peration     | Website:  https://openfoam.org
    \\  /    A nd           | Version:  13
     \\/     M anipulation  |
\*---------------------------------------------------------------------------*/
FoamFile
{
    format      ascii;
    class       volScalarField;
    location    "0.205";
    object      p;
}
// * * * * * * * * * * * * * * * * * * * * * * * * * * * * * * * * * * * * * //

dimensions      [0 2 -2 0 0 0 0];

internalField   nonuniform List<scalar> 
440
(
8.10873
10.8652
13.2266
13.4056
10.4305
21
24.3838
27.3793
28.0793
26.1917
41.5358
44.5675
47.2708
48.0635
46.9028
67.6695
69.7676
71.6812
72.3378
71.6503
96.9484
97.7655
98.5624
98.9624
98.9286
-0.04067
-0.161151
0.283475
0.826312
1.16173
-1.31098
-1.99668
-1.76218
-1.08898
-0.46246
-1.72117
-2.60866
-2.54181
-1.80054
-0.690478
-0.399084
-0.530162
-0.12488
0.835676
2.69785
3.3665
4.67915
6.10917
7.53911
9.78862
2.4139
2.64291
1.72549
0.960621
0.322843
1.33901
2.4074
1.60633
0.899471
0.30803
0.165378
1.97055
1.46412
0.848063
0.297153
-0.1247
1.37778
1.26164
0.803341
0.290866
1.81701
0.812254
0.989425
0.7588
0.289067
4.73486
0.593325
0.684673
0.710091
0.292216
7.02635
0.940194
0.709646
0.731537
0.283663
10.2768
2.69091
1.37752
0.866681
0.25611
14.1931
5.08799
2.4629
1.10262
0.241698
16.9464
7.49843
3.7662
1.47639
0.300085
100.972
76.1222
53.6069
33.4346
12.6396
102.668
79.2234
57.8154
39.3332
23.7626
104.569
82.9853
62.7559
45.5118
33.1643
105.451
85.306
66.7897
51.4737
40.9524
105.37
85.0278
66.6145
51.5411
41.1955
220.165
216.706
216.428
218.552
221.288
202.975
200.52
200.787
203.531
206.824
180.829
179.061
179.427
181.85
184.729
155.03
153.689
153.895
155.489
157.386
127.148
126.435
126.374
126.835
127.427
235.682
236.093
236.697
237.078
236.794
236.388
237.008
237.538
237.49
236.521
235.297
236.272
236.689
236.418
235.421
230.427
232.039
232.624
232.777
232.685
221.907
223.788
224.822
226.047
227.406
236.347
234.991
235.149
234.189
234.4
236.313
234.98
235.126
234.193
235.034
236.305
234.951
235.104
234.357
235.648
236.324
234.904
235.126
234.629
235.257
236.359
234.842
235.205
234.827
232.536
236.409
234.756
235.266
234.616
228.963
236.555
234.645
235.164
234.235
226.637
237.336
234.414
234.497
232.517
223.614
241.231
234.4
233.297
229.959
219.884
250.16
235.114
232.137
227.38
217.105
218.027
196.504
175.306
152.017
126.732
207.657
191.662
172.616
150.711
126.939
199.177
186.494
168.904
148.373
126.617
192.002
181.051
165.374
146.541
126.202
191.776
181.03
165.63
146.942
126.433
96.6777
95.8007
95.3528
94.586
94.4296
57.6173
55.6697
53.9641
52.0429
51.2773
29.8045
27.4602
24.698
22.4006
21.0762
15.3648
12.9478
10.4854
8.46889
7.4985
9.53143
7.64565
6.26675
5.29929
4.71124
6.28301
5.18545
4.61937
4.54265
4.6362
4.35008
3.89792
3.83947
4.00718
4.16744
3.04711
3.04493
3.28708
3.59573
3.7569
2.0136
2.30798
2.75303
3.10027
3.24623
1.02095
1.39329
1.94208
2.33592
2.51031
3.96584
3.51207
2.39073
1.25395
0.397064
4.00309
3.34482
2.2976
1.20336
0.385767
3.79844
3.09843
2.16942
1.15685
0.374739
3.49123
2.88404
2.01341
1.09958
0.360042
3.08306
2.75483
1.857
1.02896
0.340383
4.82994
3.4868
2.28552
1.24465
0.401401
4.10906
3.5883
2.39114
1.27645
0.403677
95.1856
54.4496
27.8306
14.8168
9.79921
93.9646
51.4394
23.3042
9.79891
5.5954
232.34
232.424
232.385
231.886
230.817
232.946
233.122
233.361
233.414
233.051
233.493
233.663
234.046
234.445
234.62
234.031
234.181
234.574
235.154
235.554
234.715
234.947
235.431
236.001
236.226
142.239
142.048
141.22
140.709
139.798
185.453
184.644
182.666
180.899
178.921
215.733
214.362
212.014
209.201
206.826
229.352
228.343
226.297
223.804
221.36
232.194
231.577
230.614
229.242
227.348
239.176
234.779
234.858
233.723
233.093
237.543
234.82
234.943
233.897
233.127
236.857
234.9
235.038
234.107
233.438
236.549
234.96
235.118
234.249
233.761
236.415
234.987
235.15
234.257
234.032
252.55
236.093
235.238
233.684
232.181
243.473
235.023
234.801
233.604
232.885
227.144
222.07
208.971
182.273
141.488
231.338
227.101
213.528
185.298
142.711
)
;

boundaryField
{
    left
    {
        type            zeroGradient;
    }
    right
    {
        type            fixedValue;
        value           uniform 0;
    }
    down
    {
        type            zeroGradient;
    }
    up
    {
        type            zeroGradient;
    }
    cylinder
    {
        type            zeroGradient;
    }
    defaultFaces
    {
        type            empty;
    }
}


// ************************************************************************* //
