/*--------------------------------*- C++ -*----------------------------------*\
  =========                 |
  \\      /  F ield         | OpenFOAM: The Open Source CFD Toolbox
   \\    /   O peration     | Website:  https://openfoam.org
    \\  /    A nd           | Version:  13
     \\/     M anipulation  |
\*---------------------------------------------------------------------------*/
FoamFile
{
    format      ascii;
    class       surfaceScalarField;
    location    "0.205";
    object      phi;
}
// * * * * * * * * * * * * * * * * * * * * * * * * * * * * * * * * * * * * * //

dimensions      [0 3 -1 0 0 0 0];

internalField   nonuniform List<scalar> 
823
(
0.0113783
-0.0505549
0.0391766
0.0387599
-0.133437
0.106056
0.0788337
-0.20588
0.165807
0.13017
-0.268873
0.217536
-0.32326
0.259425
0.194006
0.0107036
-0.0612586
0.0361455
-0.158879
0.0726531
-0.242388
0.11798
-0.3142
-0.375607
0.170327
0.0083784
-0.069637
0.0282895
-0.17879
0.0567341
-0.270833
0.091824
-0.34929
-0.416063
0.13228
0.00530053
-0.0749375
0.0179995
-0.191489
0.0362369
-0.28907
0.0588951
-0.371949
-0.442432
0.0852635
0.00196249
-0.0769
0.00663136
-0.196158
0.0132916
-0.29573
0.021524
-0.380181
0.0310639
-0.451972
0.00651216
-0.0107249
0.0042127
0.0218556
-0.030909
0.0155657
0.0448568
-0.0485509
0.0255497
0.0738088
-0.0640374
0.0350855
-0.0771526
0.107262
0.0436995
0.00575582
-0.0164806
0.0214535
-0.0466067
0.0466149
-0.0737122
0.079599
-0.0970215
-0.116163
0.11861
0.00641169
-0.0228923
0.023693
-0.0638881
0.0512717
-0.101291
0.087938
-0.133688
-0.160177
0.131952
0.00754032
-0.0304327
0.027095
-0.0834428
0.0573197
-0.131516
0.09701
-0.173378
-0.207937
0.14477
0.00874393
0.0313567
0.0656476
0.109806
0.161293
0.319182
-0.959528
0.747608
0.465497
-0.808761
0.662446
0.539107
-0.333969
0.260359
0.557815
-0.103095
0.084387
-0.0189358
0.0225365
0.329179
-1.1701
0.465396
-0.944978
0.539416
-0.407989
0.558932
-0.122611
-0.0174435
0.336661
-1.37481
0.459596
-1.06791
0.533929
-0.482322
0.557367
-0.146049
-0.021405
0.337672
-1.56771
0.450083
-1.18032
0.523553
-0.555792
0.553477
-0.175973
-0.0335766
0.327628
-1.73404
0.431714
-1.28441
0.504763
-0.628841
0.5463
-0.21751
-0.0571452
1.19372
-1.58762
-1.34014
1.00256
-1.09325
0.905963
-0.532243
0.878356
-0.189903
-0.0485613
1.33199
-1.13225
-1.78736
0.995661
-0.756921
0.82916
-0.365743
0.773729
-0.134473
-0.0308077
1.19065
-0.607813
-1.71509
0.820137
-0.386404
0.638443
-0.184049
0.575419
-0.0714486
-0.0160368
0.822272
-0.185421
-1.24466
0.546394
-0.110525
0.411478
-0.0491332
0.36126
-0.0212304
-0.00474671
0.306472
-0.491893
0.195947
0.146814
0.125583
1.56264
0.0462409
-1.57782
1.52173
0.126174
1.46269
0.191327
1.39631
0.236707
0.250168
1.67595
0.035653
-1.66536
1.69944
0.102682
1.73098
0.159785
1.7655
0.202185
0.228309
1.388
0.0184785
-1.37082
1.43709
0.0535868
1.51394
0.082934
1.61029
0.105835
0.123514
0.977703
0.00531522
-0.96454
1.01587
0.0154146
1.07578
0.0230247
1.15383
0.0277938
0.0326748
0.392985
-0.38767
0.4084
0.431424
0.459218
0.128845
0.327548
-0.264526
-0.191867
0.078188
0.273178
-0.222521
0.0385318
0.209788
-0.170132
0.0113404
0.136455
-0.109263
0.0519641
-0.0406238
0.115972
0.378875
-0.167298
0.0714945
0.317656
0.0356099
0.245673
0.0105563
0.161508
0.0625204
0.0888659
0.41827
-0.128261
0.054813
0.351708
0.027285
0.273201
0.00806297
0.180731
0.0705834
0.0552568
0.443543
-0.0805303
0.0337697
0.373195
0.0166567
0.290314
0.00486427
0.192523
0.0754477
0.0174897
-0.025918
0.0105042
0.00508753
0.00145235
0.071534
0.086619
-0.105723
-0.0524301
0.0421775
0.0730814
-0.043725
0.0193768
0.0563938
-0.0335931
0.00504256
0.0363936
-0.0220594
0.0130949
-0.0080523
0.0762162
0.125181
-0.114778
0.0439045
0.105393
0.0197746
0.0805237
0.00514253
0.0510258
0.0182374
0.0850828
0.168054
-0.127956
0.0495527
0.140923
0.0229826
0.107094
0.00625399
0.0677544
0.0244914
0.0946134
0.2144
-0.14096
0.0561188
0.179418
0.0267019
0.136511
0.00748363
0.0869727
0.031975
0.107664
-0.15779
0.0645608
0.0309395
0.00864877
0.497343
0.164131
-0.265495
0.525106
0.189488
-0.217251
0.476693
0.313873
-0.26546
0.327519
0.797482
-0.648308
1.03258
-0.810779
0.492402
0.0677092
0.520654
0.161236
0.469447
0.36508
0.328308
0.938621
1.24611
0.489002
-0.0253135
0.51249
0.137748
0.455931
0.421639
0.329444
1.06511
1.44759
0.486281
-0.115615
0.503271
0.120758
0.440089
0.484821
0.32715
1.17805
1.63378
0.483552
-0.203187
0.488622
0.115688
0.418145
0.555298
0.315577
1.28061
1.79157
0.771871
-0.371038
0.860812
0.0267476
0.959537
0.456572
1.16842
1.07173
1.61297
1.34703
0.746781
-0.513798
0.837598
-0.0640701
0.976565
0.317606
1.30253
0.745758
1.14118
1.77432
0.622275
-0.532052
0.663339
-0.105134
0.81364
0.167305
1.17505
0.38435
0.611651
1.70457
0.454381
-0.382413
0.419506
-0.0702597
0.541453
0.0453579
0.816312
0.109492
0.186883
1.24108
0.221608
0.151348
0.196706
0.306197
0.49308
1.40229
-0.247133
1.46561
-0.230613
1.52296
-0.185609
1.56317
-0.120741
-0.0405702
1.75312
-0.225929
1.72009
-0.197586
1.69087
-0.156383
1.67099
-0.100868
-0.0349368
1.60182
-0.123173
1.50893
-0.104694
1.43463
-0.0820854
1.38709
-0.0533268
-0.018672
1.15099
-0.0330833
1.07424
-0.0279419
1.01526
-0.0231103
0.977561
-0.0156246
-0.00565038
0.459997
0.432055
0.408945
0.39332
0.00250075
0.0429895
-0.0454903
0.00732614
0.101017
-0.105842
0.0160918
0.148351
-0.157117
0.0165741
0.151868
-0.152351
0.113992
0.0148092
-0.112227
0.00682643
0.0361631
0.0201725
0.0876705
0.0409485
0.127575
0.0482455
0.144571
0.116349
0.0458888
0.00880617
0.027357
0.0270679
0.0694088
0.0521367
0.102506
0.0730869
0.123621
0.114002
0.0754334
0.00779505
0.0195619
0.0254965
0.0517074
0.0497252
0.0782778
0.0774243
0.095922
0.099164
0.0922628
0.00508882
0.0144731
0.017943
0.0388533
0.0367401
0.0594807
0.0600304
0.0726318
0.0766037
0.0825907
0.0034143
0.0110588
0.0125607
0.0297069
0.0274976
0.0445439
0.0472473
0.0528821
0.0558615
0.0679896
0.00225537
0.00880344
0.00913943
0.022823
0.022787
0.0308964
0.0418172
0.033852
0.0342068
0.0634719
0.00180967
0.00699382
0.0106141
0.0140187
0.026912
0.0145988
0.0476292
0.013135
0.0107855
0.0710505
0.0038933
0.00310061
0.0176287
0.000283565
0.0368422
-0.0046146
0.0597334
-0.00975613
-0.0149949
0.0855139
0.0073135
0.0231629
0.0440981
0.0694274
0.0981321
0.156805
0.0135299
-0.102345
0.246061
-0.128987
0.0397302
0.270406
-0.0449801
0.0206357
0.284519
-0.0170118
0.00289856
-0.0125723
0.00113269
0.21826
-0.141259
0.328276
-0.239002
0.357983
-0.0746869
0.371443
-0.0304716
-0.0208984
0.261292
-0.3315
0.392515
-0.370225
0.438689
-0.120861
0.451542
-0.0433244
-0.0242073
0.291306
-0.537292
0.434942
-0.513861
0.500966
-0.186885
0.520541
-0.0628997
-0.0245431
0.308447
0.457032
0.530507
0.551994
0.0713517
0.0379375
-0.109289
0.0792901
-0.00793839
0.0847557
-0.00546566
0.0851409
-0.000385144
-0.000232482
0.197108
-0.261515
0.228901
0.244071
0.246585
0.020724
-0.00432977
-0.0163942
0.0342686
-0.0135446
0.0567382
-0.0224696
0.0855901
-0.0288519
-0.0236992
0.0539048
-0.0434253
0.086249
0.139213
0.202624
0.0481412
-0.0548567
0.0762094
-0.0694939
0.0277121
-0.0518627
0.0722917
0.0123638
-0.0441817
0.05953
0.00331563
-0.0300079
0.039056
-0.0112662
0.0145818
0.0463937
-0.0316872
-0.0695632
0.0256848
-0.0311538
0.0101997
-0.0286965
0.00227364
-0.0220819
-0.00899253
0.0567035
-0.00602573
-0.082365
0.0337101
-0.00816048
0.0147498
-0.00973624
0.00276879
-0.010101
-0.00622375
0.0691902
0.0218886
-0.0971045
0.0442427
0.016787
0.0230895
0.011417
0.00688485
0.00610359
0.000661086
0.0724612
-0.103003
0.0455232
0.023347
0.00739121
0.0165808
-0.113991
-0.0148176
0.0160912
-0.151861
0.00730486
-0.148331
0.00248849
-0.101026
-0.0430018
0.0482627
-0.116339
-0.0459139
0.0409229
-0.144521
0.0201584
-0.127566
0.00681917
-0.0876864
-0.0361826
0.0731256
-0.113935
-0.0755299
0.0521106
-0.123506
0.0270558
-0.102511
0.00880276
-0.0694333
-0.0273799
0.0773485
-0.0988866
-0.0923969
0.0496046
-0.0957623
0.0254165
-0.0783231
0.00776897
-0.0517858
-0.0196109
0.0600226
-0.0826998
0.0365521
0.0177589
0.00502914
0.345438
0.578014
-0.527472
0.290418
0.211029
-0.156009
0.253679
0.0595122
-0.0227733
0.168171
0.122049
-0.0365418
0.00480543
0.093872
0.414345
0.559648
0.384126
0.241248
0.342057
0.101582
0.235996
0.22811
0.171239
0.473407
0.482221
0.465681
0.248974
0.412478
0.154784
0.283487
0.357101
0.372361
0.505362
0.372838
0.51548
0.238856
0.455795
0.214469
0.313204
0.499692
0.58846
0.503323
0.524929
0.473937
0.325322
0.158878
0.351173
0.0867437
0.0721346
0.0822942
0.00444955
0.0732137
0.00908044
-0.0361543
0.109368
0.333752
0.249877
0.231553
0.204092
0.26181
0.0856466
0.0237214
0.0567703
0.0288763
0.0342794
0.0224909
0.0207275
0.013552
0.00433322
0.202831
0.139311
0.0862716
0.0539097
)
;

boundaryField
{
    left
    {
        type            calculated;
        value           nonuniform List<scalar> 
17
(
-0.60402
-0.60402
-0.60402
-0.60402
-0.60402
-0.39598
-0.39598
-0.39598
-0.39598
-0.39598
-0.39598
-0.39598
-0.39598
-0.39598
-0.39598
-0.510051
-0.510051
)
;
    }
    right
    {
        type            calculated;
        value           nonuniform List<scalar> 
17
(
0.0853734
0.247485
0.295959
0.379769
0.454851
0.520877
0.549987
0.554214
0.557439
0.561328
0.565649
0.569868
0.869772
0.755975
0.560648
0.34997
0.120837
)
;
    }
    down
    {
        type            calculated;
        value           uniform 0;
    }
    up
    {
        type            calculated;
        value           uniform 0;
    }
    cylinder
    {
        type            calculated;
        value           uniform 0;
    }
    defaultFaces
    {
        type            empty;
    }
}


// ************************************************************************* //
