/*--------------------------------*- C++ -*----------------------------------*\
  =========                 |
  \\      /  F ield         | OpenFOAM: The Open Source CFD Toolbox
   \\    /   O peration     | Website:  https://openfoam.org
    \\  /    A nd           | Version:  13
     \\/     M anipulation  |
\*---------------------------------------------------------------------------*/
FoamFile
{
    format      ascii;
    class       volVectorField;
    location    "0.205";
    object      U;
}
// * * * * * * * * * * * * * * * * * * * * * * * * * * * * * * * * * * * * * //

dimensions      [0 1 -1 0 0 0 0];

internalField   nonuniform List<vector> 
440
(
(0.218259 -0.176692 -1.81139e-19)
(0.61308 -0.436653 1.07848e-18)
(0.984296 -0.640905 4.22424e-19)
(1.32754 -0.795404 1.24374e-18)
(1.63257 -0.916766 -2.60108e-19)
(0.304896 -0.177685 -5.44479e-19)
(0.819148 -0.428704 -1.01964e-18)
(1.28 -0.618906 1.14578e-19)
(1.69194 -0.761646 -1.21526e-18)
(2.05378 -0.875114 -1.0211e-18)
(0.384889 -0.152409 -6.98071e-19)
(1.00471 -0.363018 1.59009e-18)
(1.5398 -0.518387 -1.93466e-18)
(2.00477 -0.632632 1.37945e-18)
(2.40602 -0.721469 1.42983e-18)
(0.445886 -0.102749 5.62408e-19)
(1.14614 -0.243088 -1.29963e-18)
(1.73751 -0.344814 -7.50832e-19)
(2.24302 -0.41822 1.96648e-18)
(2.67456 -0.474458 2.50027e-18)
(0.479281 -0.0361598 6.8698e-19)
(1.22369 -0.0847563 1.69172e-19)
(1.84598 -0.119365 2.53144e-18)
(2.37412 -0.143867 -1.06226e-18)
(2.82306 -0.162499 -4.83896e-19)
(-0.0012002 -0.0517158 2.88685e-19)
(0.0493668 -0.145004 -3.42718e-19)
(0.104915 -0.223636 1.06488e-18)
(0.170081 -0.293926 -1.73944e-19)
(0.237904 -0.355844 -1.59155e-18)
(0.0136494 -0.084252 -2.71275e-19)
(0.089248 -0.227884 -4.70145e-19)
(0.173997 -0.35057 1.1178e-19)
(0.268232 -0.450852 6.16445e-20)
(0.364479 -0.531187 -4.09865e-20)
(0.0433355 -0.114218 6.43775e-20)
(0.165532 -0.303138 5.39993e-19)
(0.296276 -0.467497 9.29012e-20)
(0.433021 -0.599174 1.44103e-18)
(0.568133 -0.697884 -2.47537e-20)
(0.0866206 -0.140992 6.66066e-20)
(0.276411 -0.367841 -3.4738e-20)
(0.469559 -0.5631 2.18335e-19)
(0.661505 -0.718743 -2.03124e-18)
(0.84425 -0.830801 9.56437e-19)
(0.142124 -0.161723 -2.35824e-19)
(0.420087 -0.412865 -4.42594e-19)
(0.691414 -0.621528 -7.6993e-19)
(0.950173 -0.782545 9.52785e-19)
(1.18527 -0.893075 3.45456e-18)
(0.58932 -0.594912 -4.26461e-18)
(0.951419 -0.51122 1.23504e-18)
(1.25782 -0.208672 3.44278e-19)
(1.3623 -0.0700679 -6.77236e-19)
(1.39959 -0.0187416 -1.11183e-19)
(0.784858 -0.744825 4.96359e-18)
(1.03775 -0.613959 -3.48465e-19)
(1.29112 -0.262494 -1.51443e-19)
(1.38205 -0.0887928 4.11332e-19)
(1.4077 -0.0238231 1.99432e-19)
(1.03665 -0.878768 1.54638e-18)
(1.17464 -0.696816 4.07476e-18)
(1.32579 -0.313102 7.30368e-20)
(1.40052 -0.105273 4.62355e-19)
(1.41747 -0.0282746 -6.97358e-20)
(1.3307 -0.989479 1.25034e-18)
(1.35339 -0.758028 -4.19659e-19)
(1.37877 -0.356289 -7.49452e-19)
(1.4165 -0.118064 -2.9464e-19)
(1.42833 -0.0316816 1.91142e-20)
(1.63019 -1.04845 -1.77416e-20)
(1.54696 -0.800325 -1.63047e-18)
(1.44161 -0.396372 0)
(1.42704 -0.135171 2.74219e-19)
(1.4389 -0.0351419 3.86346e-20)
(2.15625 -1.11498 -1.58559e-18)
(1.82169 -0.794084 -4.8764e-19)
(1.55755 -0.403555 -8.20292e-21)
(1.45612 -0.140172 1.38688e-20)
(1.43963 -0.0339628 -9.26895e-20)
(2.63413 -0.889334 -1.61252e-18)
(1.904 -0.587882 2.84705e-18)
(1.48003 -0.28182 4.71224e-21)
(1.29836 -0.101431 2.68856e-19)
(1.25134 -0.0247233 0)
(2.47987 -0.522487 -6.94233e-18)
(1.60733 -0.335172 -1.49742e-19)
(1.16279 -0.15878 2.0583e-18)
(0.971404 -0.0633314 -2.97274e-19)
(0.928381 -0.015322 -5.11564e-20)
(1.76245 -0.220052 6.84073e-18)
(1.08835 -0.134839 1.33009e-18)
(0.75621 -0.0623173 2.27661e-19)
(0.616736 -0.0273096 2.82233e-33)
(0.5801 -0.0069107 -1.27664e-19)
(0.682986 0.000107507 1.56177e-18)
(0.394908 0.0233927 7.27473e-19)
(0.268748 0.0226715 -4.94758e-19)
(0.218674 0.00993968 1.6937e-19)
(0.201034 0.00322674 -4.23017e-20)
(3.58198 -0.168176 1.25612e-17)
(3.41728 -0.502921 -1.04419e-17)
(3.13677 -0.786963 7.10641e-18)
(2.78062 -0.99604 2.31978e-18)
(2.33303 -1.10168 -4.15373e-19)
(3.7847 -0.10361 1.03957e-17)
(3.71767 -0.324486 -6.64006e-19)
(3.578 -0.551858 -4.27096e-18)
(3.37862 -0.785781 2.69153e-18)
(3.10072 -1.01977 -6.62723e-19)
(3.1149 -0.0605634 3.65426e-18)
(3.09872 -0.181741 -2.51844e-18)
(3.0597 -0.30976 5.01231e-18)
(2.99906 -0.444946 -1.52568e-19)
(2.92466 -0.593673 -4.78993e-18)
(2.19088 -0.0276218 2.78857e-18)
(2.18384 -0.083414 8.42958e-18)
(2.16459 -0.144104 -6.53205e-19)
(2.13399 -0.207435 -6.60565e-18)
(2.11295 -0.269631 1.94544e-18)
(0.879438 -0.00184206 5.21216e-18)
(0.876481 -0.00524281 -1.16409e-19)
(0.867334 -0.00957787 -4.26542e-20)
(0.850423 -0.0162756 -2.0084e-18)
(0.841016 -0.0229476 -3.60166e-18)
(1.65281 0.939473 2.26296e-18)
(1.34813 0.816422 -7.47784e-20)
(1.00335 0.658578 -3.2239e-20)
(0.627914 0.449516 -1.96531e-19)
(0.225277 0.182343 -1.34642e-19)
(2.07032 0.892286 -1.21629e-18)
(1.71058 0.777666 -1.19327e-18)
(1.29831 0.632605 7.33966e-19)
(0.834078 0.438772 -4.84697e-19)
(0.31218 0.182117 -4.24369e-21)
(2.41855 0.735758 -5.91825e-19)
(2.01965 0.645333 5.25264e-19)
(1.55501 0.528774 2.43811e-18)
(1.01757 0.37022 8.08564e-19)
(0.391362 0.155297 5.26257e-19)
(2.68206 0.486677 1.28824e-20)
(2.25244 0.428283 -2.7237e-19)
(1.74748 0.35233 -6.46692e-19)
(1.15481 0.247656 2.05679e-18)
(0.450348 0.10415 -3.26873e-19)
(2.82556 0.173852 -1.17111e-18)
(2.37737 0.15264 -1.60656e-18)
(1.84948 0.125347 -7.28796e-19)
(1.22677 0.0878373 7.96344e-19)
(0.480882 0.0366887 -3.25844e-19)
(0.238022 0.414385 -2.09817e-18)
(0.168616 0.351019 -1.77348e-18)
(0.101894 0.274791 3.00716e-19)
(0.0449739 0.181819 -2.87562e-20)
(-0.00189119 0.066664 3.43865e-20)
(0.370549 0.590415 -8.07523e-19)
(0.273725 0.506505 -6.37556e-19)
(0.17848 0.396447 -1.06219e-21)
(0.0923434 0.257462 -2.04805e-20)
(0.0165657 0.0956491 2.14697e-20)
(0.581825 0.749877 2.16316e-18)
(0.446287 0.646736 -1.60644e-19)
(0.307905 0.505018 -1.40328e-19)
(0.174253 0.327209 -2.13991e-19)
(0.0481501 0.123469 1.69932e-19)
(0.862045 0.872507 -1.30265e-18)
(0.679195 0.756605 1.99552e-18)
(0.485281 0.593028 3.31236e-19)
(0.288283 0.387828 9.90231e-20)
(0.0924236 0.149024 -1.17591e-19)
(1.20348 0.923986 -4.43551e-19)
(0.969039 0.811038 -4.59764e-19)
(0.708602 0.644709 3.643e-19)
(0.433364 0.429059 3.61714e-19)
(0.148472 0.168552 1.90142e-21)
(0.884567 0.151676 -4.28101e-19)
(1.43448 0.145806 6.15527e-20)
(1.24479 0.204695 2.54836e-20)
(0.990956 0.50103 -3.41102e-19)
(0.591992 0.642486 -6.60888e-20)
(0.878037 0.0866394 1.86757e-19)
(1.43595 0.132761 2.56317e-19)
(1.27047 0.239758 7.15044e-20)
(1.05035 0.607874 -1.09241e-19)
(0.783159 0.797071 7.7757e-19)
(0.872864 0.0238622 -2.77506e-20)
(1.45073 0.11663 -1.98336e-20)
(1.28821 0.276094 -6.21746e-20)
(1.16616 0.694819 -5.15579e-19)
(1.03746 0.929955 2.0217e-19)
(0.870474 -0.0369644 -2.59975e-20)
(1.47201 0.0985612 -5.34419e-19)
(1.32105 0.310971 1.23738e-19)
(1.33028 0.75636 1.23035e-18)
(1.33454 1.03543 9.32344e-19)
(0.870842 -0.0945175 2.83359e-20)
(1.49577 0.0825507 1.07087e-19)
(1.36582 0.347706 -6.66928e-20)
(1.51376 0.798192 -4.04912e-19)
(1.63492 1.08771 -2.78068e-18)
(0.875891 -0.182178 2.68799e-19)
(1.51799 0.0515958 3.8275e-19)
(1.46249 0.347167 -9.00769e-21)
(1.7691 0.78206 2.82952e-18)
(2.15097 1.14002 -5.52284e-18)
(0.863924 -0.31555 -2.92294e-20)
(1.45317 -0.0134036 -5.90712e-19)
(1.46025 0.25269 9.48227e-21)
(1.85702 0.583445 -2.98234e-18)
(2.59648 0.899276 1.65896e-18)
(0.781298 -0.409727 5.26443e-18)
(1.14808 -0.0792041 6.46473e-35)
(1.16081 0.138406 -2.18749e-18)
(1.58342 0.331335 2.73118e-18)
(2.45895 0.528493 5.03391e-18)
(0.631513 -0.289473 1.51044e-19)
(0.739865 -0.0679857 5.11645e-19)
(0.745594 0.0506471 2.6009e-19)
(1.0772 0.132421 6.28395e-19)
(1.75854 0.220315 -8.63304e-18)
(0.321461 -0.0433318 -4.29528e-18)
(0.299681 0.00370011 2.74688e-19)
(0.2697 -0.0116753 1.07531e-18)
(0.393994 -0.0239253 -7.79645e-19)
(0.685963 -0.000309078 -1.46259e-18)
(2.34797 1.12014 4.67791e-18)
(2.78695 1.01203 3.46265e-18)
(3.14073 0.803112 -5.68215e-18)
(3.41897 0.519462 -1.461e-17)
(3.58245 0.18581 1.57605e-17)
(3.07967 1.01856 5.00558e-18)
(3.35476 0.795096 2.56567e-17)
(3.55754 0.560623 7.24582e-18)
(3.70152 0.331803 -3.08415e-17)
(3.77818 0.111109 -5.17407e-18)
(2.9065 0.591782 -7.23572e-18)
(2.98637 0.44805 -3.38229e-18)
(3.05236 0.31217 -6.30585e-18)
(3.09533 0.181815 -6.88949e-18)
(3.11407 0.0584926 6.52229e-18)
(2.10615 0.266102 5.40512e-18)
(2.12999 0.205964 -4.05279e-19)
(2.16245 0.143206 4.86908e-18)
(2.18308 0.0822353 6.28805e-18)
(2.19077 0.0260443 -5.88717e-18)
(0.842317 0.0221242 -5.73414e-19)
(0.851773 0.0156924 3.51774e-18)
(0.868542 0.00915189 2.442e-18)
(0.87745 0.00480308 -5.16836e-18)
(0.879826 0.00136608 -3.84219e-20)
(0.281865 0.0207523 5.519e-19)
(0.656534 0.0404577 -7.43261e-19)
(0.97296 0.0440571 -8.18722e-19)
(0.944149 0.0274251 -1.5179e-18)
(0.697705 0.0163815 -6.63705e-19)
(0.245513 0.0554479 7.45275e-19)
(0.591136 0.107051 1.44159e-18)
(0.864511 0.125115 -6.96669e-19)
(0.939787 0.0969764 1.96005e-18)
(0.724032 0.0532215 -2.70095e-18)
(0.185567 0.0742476 4.95882e-19)
(0.476275 0.145864 -1.39978e-18)
(0.707621 0.18472 -9.13663e-19)
(0.85714 0.175359 -1.81108e-18)
(0.74145 0.101176 -2.86216e-18)
(0.123271 0.0774631 -7.72858e-19)
(0.344674 0.160347 -1.37666e-18)
(0.534416 0.214844 4.39514e-18)
(0.6775 0.233212 -3.66222e-19)
(0.712956 0.179937 2.2466e-18)
(0.0752678 0.0723743 -6.24238e-19)
(0.230647 0.160149 1.56255e-18)
(0.372151 0.224483 6.03172e-19)
(0.482496 0.257436 -1.29058e-18)
(0.56073 0.257955 -1.76545e-19)
(0.0451751 0.0638464 7.94962e-20)
(0.149971 0.14889 -1.21031e-18)
(0.247677 0.21191 -9.19073e-19)
(0.325029 0.233211 -1.19623e-19)
(0.370822 0.222684 -5.11714e-20)
(0.0263589 0.0557585 3.12223e-19)
(0.0952187 0.133966 5.67501e-19)
(0.160991 0.182947 -2.29374e-19)
(0.213743 0.192399 2.6269e-19)
(0.253861 0.181744 1.74652e-19)
(0.0130324 0.0484295 2.43245e-19)
(0.0588441 0.109125 1.3961e-18)
(0.103839 0.117078 -1.26674e-18)
(0.142978 0.102791 -2.79396e-18)
(0.179517 0.0810372 4.14895e-19)
(0.00622855 0.0384856 -2.37786e-19)
(0.0423677 0.0452169 -1.78161e-18)
(0.0790057 0.0180125 3.19529e-18)
(0.118834 -0.0138675 1.32562e-18)
(0.159992 -0.047751 -2.70219e-19)
(0.00907337 -0.000240396 2.0127e-19)
(0.0408876 -0.0522832 -4.37419e-19)
(0.0804488 -0.0986071 8.8455e-20)
(0.128554 -0.146722 1.06721e-19)
(0.178645 -0.193121 1.12741e-21)
(0.340988 0.0677908 -9.10232e-20)
(0.62335 -0.0416569 -1.20715e-18)
(0.709037 -0.0166227 2.58565e-19)
(0.738243 -0.00291925 3.73573e-19)
(0.747511 -0.000939739 2.02296e-20)
(0.307064 -0.0404198 -9.75814e-20)
(0.759903 -0.114077 1.39361e-18)
(0.89235 -0.0286306 9.35818e-19)
(0.940097 -0.005799 8.10119e-20)
(0.959145 -0.00160142 -5.56437e-20)
(0.321326 -0.155428 -8.00038e-19)
(0.838602 -0.196764 2.93505e-18)
(1.0485 -0.0508616 -1.89902e-19)
(1.12253 -0.0107062 -3.50025e-19)
(1.14874 -0.00246591 9.96776e-20)
(0.37235 -0.293136 1.0802e-18)
(0.879497 -0.295052 -2.40151e-18)
(1.15348 -0.095623 -5.13263e-19)
(1.27171 -0.0254683 -3.79959e-20)
(1.31546 -0.00627212 -1.34206e-20)
(0.457037 -0.440839 5.09868e-19)
(0.908307 -0.401053 -5.53803e-19)
(1.21492 -0.151873 4.36942e-19)
(1.33926 -0.0486179 1.45875e-19)
(1.38895 -0.0128222 -4.18996e-20)
(0.183146 -0.0447682 9.53865e-19)
(0.146978 -0.00479642 0)
(0.164192 0.00152786 1.20186e-19)
(0.167766 0.000563756 3.48492e-20)
(0.167447 3.44713e-05 -8.67981e-20)
(0.402423 0.0695127 0)
(0.415246 -0.000776739 0)
(0.471033 -0.00551908 8.82679e-20)
(0.484164 -0.000510758 6.89833e-20)
(0.485331 -0.000262186 1.71231e-20)
(0.162627 -0.000820971 -3.68322e-19)
(0.186335 -0.00179194 3.10706e-18)
(0.213134 -0.00502033 -6.86963e-19)
(0.22973 -0.0149853 -3.1161e-18)
(0.245614 -0.0169336 -7.96415e-19)
(0.431884 0.00443983 6.09731e-19)
(0.484401 0.0196876 4.11546e-18)
(0.536309 0.0466575 -6.73342e-18)
(0.567602 0.0804955 2.2075e-18)
(0.598511 0.162181 3.78969e-18)
(0.370548 -0.219296 -3.42064e-19)
(0.323939 -0.23039 -8.63688e-20)
(0.248239 -0.212024 -3.01641e-19)
(0.150771 -0.150696 3.78906e-19)
(0.0458461 -0.0646353 1.14811e-19)
(0.258135 -0.165809 4.22775e-19)
(0.215245 -0.178197 1.43022e-18)
(0.162437 -0.174329 2.83527e-19)
(0.096833 -0.134054 2.34935e-19)
(0.026695 -0.0570736 -1.57878e-20)
(0.193151 -0.0505901 -3.12603e-19)
(0.151421 -0.0731775 -9.96269e-20)
(0.108457 -0.0908029 1.64178e-18)
(0.0622896 -0.093891 2.98614e-19)
(0.0128932 -0.0471908 -3.06127e-19)
(0.175648 0.0893591 -6.42732e-19)
(0.130261 0.0557131 -7.11796e-19)
(0.0859345 0.0223635 1.29667e-18)
(0.0482588 -0.00738346 1.58865e-18)
(0.0112305 -0.0280769 2.00146e-19)
(0.183808 0.243916 1.22829e-19)
(0.130502 0.197759 -1.20123e-19)
(0.0791628 0.148137 2.47793e-19)
(0.0363994 0.0970924 5.94405e-19)
(-0.00297789 0.0355288 8.24268e-20)
(0.697702 -0.0163368 1.53096e-18)
(0.944154 -0.027402 -1.80058e-18)
(0.972768 -0.0441829 2.26933e-18)
(0.656546 -0.0405204 3.64206e-19)
(0.281898 -0.020761 5.36463e-19)
(0.724023 -0.0531127 1.7714e-18)
(0.939646 -0.0969899 7.94607e-18)
(0.864307 -0.125219 1.03345e-18)
(0.591188 -0.107091 1.34906e-18)
(0.245609 -0.0554692 -4.78306e-19)
(0.741378 -0.100923 -1.22392e-18)
(0.856533 -0.175187 -2.29414e-18)
(0.707538 -0.184778 2.92356e-18)
(0.476343 -0.145935 -1.08543e-19)
(0.185691 -0.0742847 3.3966e-19)
(0.712472 -0.179743 2.69754e-20)
(0.676772 -0.233124 -7.67551e-18)
(0.53444 -0.21515 -5.98942e-18)
(0.34481 -0.160681 1.09069e-18)
(0.123456 -0.0775706 5.08111e-19)
(0.558395 -0.256358 4.76445e-19)
(0.481434 -0.256723 5.32212e-19)
(0.372201 -0.225095 -8.93766e-19)
(0.230908 -0.160993 -8.85848e-19)
(0.0756137 -0.0726378 -5.1342e-21)
(0.723463 0.371011 1.16047e-18)
(0.907536 0.120277 -1.84538e-19)
(0.697884 0.0218755 2.67137e-19)
(0.65303 0.0399429 -7.50889e-19)
(0.365765 -0.058951 -1.01454e-19)
(0.820509 0.395324 -1.63747e-19)
(1.12911 0.145514 -5.24627e-19)
(0.889987 0.0428979 7.93305e-19)
(0.809134 0.106627 1.63647e-18)
(0.34437 0.0585626 1.05919e-19)
(0.876424 0.363927 -2.00517e-18)
(1.33668 0.155437 -3.89564e-20)
(1.05096 0.0739028 2.01988e-19)
(0.90419 0.187653 1.46659e-18)
(0.36455 0.180352 -1.29445e-18)
(0.891172 0.295907 1.26039e-18)
(1.45887 0.155296 3.35475e-20)
(1.15372 0.117255 -1.57769e-19)
(0.948858 0.285383 -3.22435e-19)
(0.408587 0.324975 -5.07584e-19)
(0.890097 0.221007 1.42958e-19)
(1.44802 0.153139 -3.53799e-20)
(1.20699 0.163849 -4.34565e-20)
(0.968784 0.390667 3.1795e-20)
(0.47526 0.480191 1.36631e-18)
(0.274796 0.0483524 0)
(0.246872 -0.0100608 6.29414e-19)
(0.1621 -0.0155949 1.28887e-19)
(0.152845 0.00490718 -1.5335e-19)
(0.184702 0.0437337 -1.80838e-18)
(0.570828 0.265507 -1.0179e-17)
(0.620425 0.0730055 -2.46954e-18)
(0.460203 0.0125901 5.35708e-19)
(0.430889 0.00198839 -6.71589e-19)
(0.410218 -0.0675634 -6.64898e-19)
(0.245772 0.016875 -1.05077e-21)
(0.229831 0.0150682 1.92773e-18)
(0.213212 0.00506273 5.23464e-19)
(0.186384 0.00180164 3.23257e-19)
(0.162642 0.000824804 0)
(0.599439 -0.16201 -1.04329e-19)
(0.568179 -0.0801796 2.55582e-18)
(0.536419 -0.0464305 -1.34076e-19)
(0.484461 -0.0196346 -2.69452e-19)
(0.431907 -0.00441767 7.60136e-19)
)
;

boundaryField
{
    left
    {
        type            fixedValue;
        value           uniform (1 0 0);
    }
    right
    {
        type            zeroGradient;
    }
    down
    {
        type            noSlip;
    }
    up
    {
        type            noSlip;
    }
    cylinder
    {
        type            noSlip;
    }
    defaultFaces
    {
        type            empty;
    }
}


// ************************************************************************* //
