/*--------------------------------*- C++ -*----------------------------------*\
  =========                 |
  \\      /  F ield         | OpenFOAM: The Open Source CFD Toolbox
   \\    /   O peration     | Website:  https://openfoam.org
    \\  /    A nd           | Version:  13
     \\/     M anipulation  |
\*---------------------------------------------------------------------------*/
FoamFile
{
    format      ascii;
    class       volVectorField;
    location    "0.285";
    object      U;
}
// * * * * * * * * * * * * * * * * * * * * * * * * * * * * * * * * * * * * * //

dimensions      [0 1 -1 0 0 0 0];

internalField   nonuniform List<vector> 
1800
(
(0.188606 -0.173519 1.31544e-19)
(0.686344 -0.58647 6.00005e-20)
(1.08093 -0.875187 -4.79665e-19)
(1.30971 -1.01343 5.0531e-19)
(1.41592 -1.04552 1.22211e-18)
(1.4546 -1.02165 5.25438e-19)
(1.46231 -0.974496 -2.72612e-19)
(1.45731 -0.920725 -6.93418e-19)
(1.44821 -0.864568 -3.6418e-19)
(1.4186 -0.816389 -2.97151e-19)
(0.232352 -0.182198 3.90877e-20)
(0.805291 -0.58653 -5.05962e-19)
(1.2419 -0.859282 5.14135e-21)
(1.48441 -0.98489 -4.26995e-19)
(1.58904 -1.0097 1.07099e-19)
(1.6204 -0.982692 1.21119e-18)
(1.6199 -0.93456 -8.79526e-19)
(1.60792 -0.880382 4.46718e-19)
(1.5929 -0.825408 7.34779e-19)
(1.56953 -0.78248 -3.75926e-19)
(0.281226 -0.186749 2.44898e-20)
(0.929174 -0.572218 1.48571e-19)
(1.40321 -0.822199 3.79537e-19)
(1.65491 -0.932443 -2.92024e-19)
(1.75487 -0.950057 -1.44797e-18)
(1.77692 -0.921636 3.2644e-19)
(1.76654 -0.875369 5.78145e-19)
(1.74524 -0.824898 -6.58664e-20)
(1.72154 -0.775043 -4.87712e-21)
(1.68993 -0.734907 -2.93549e-20)
(0.334719 -0.185966 -2.96751e-20)
(1.05553 -0.542 -1.67203e-19)
(1.56123 -0.76304 -2.9157e-19)
(1.81763 -0.855724 6.12601e-20)
(1.91079 -0.866153 3.81319e-19)
(1.92331 -0.83704 3.26204e-20)
(1.90396 -0.793148 -2.34915e-20)
(1.87495 -0.746029 5.31974e-19)
(1.84452 -0.699771 4.4284e-19)
(1.80971 -0.663751 -1.51167e-19)
(0.392001 -0.178875 1.21974e-19)
(1.18135 -0.495486 2.29023e-19)
(1.71153 -0.682942 -7.26123e-20)
(1.96748 -0.757319 -8.32749e-20)
(2.05137 -0.761818 -1.14368e-18)
(2.05369 -0.734019 1.00037e-20)
(2.02557 -0.69475 9.1208e-19)
(1.9893 -0.653446 3.05691e-19)
(1.95269 -0.613622 1.75075e-20)
(1.91393 -0.582492 -1.98568e-19)
(0.451631 -0.164323 -7.11785e-20)
(1.30284 -0.431946 4.44477e-19)
(1.84957 -0.582344 1.11698e-18)
(2.10025 -0.638412 -8.06122e-19)
(2.17318 -0.638269 -8.31706e-19)
(2.16548 -0.613145 1.40117e-18)
(2.1295 -0.579524 -1.00438e-18)
(2.08702 -0.544678 -1.12488e-18)
(2.04527 -0.511405 8.0307e-19)
(2.00348 -0.485821 -2.43309e-20)
(0.511869 -0.141588 1.73618e-19)
(1.41617 -0.351948 -8.32989e-19)
(1.9711 -0.463545 -3.01642e-18)
(2.21211 -0.502499 1.32647e-18)
(2.27291 -0.499669 2.10694e-18)
(2.25574 -0.479009 -6.09548e-21)
(2.21305 -0.452504 -2.72814e-18)
(2.16562 -0.425356 5.92904e-21)
(2.11992 -0.399712 2.45001e-18)
(2.07576 -0.380266 6.41643e-19)
(0.570433 -0.110184 -5.5068e-20)
(1.51706 -0.256434 5.6096e-19)
(2.07192 -0.328926 2.34347e-18)
(2.29967 -0.352651 -5.41206e-20)
(2.34796 -0.349122 -1.35915e-18)
(2.32233 -0.334367 -4.25261e-19)
(2.27428 -0.315938 0)
(2.22316 -0.297166 9.58378e-19)
(2.17465 -0.279604 -4.18322e-22)
(2.1289 -0.2668 -7.84487e-19)
(0.624848 -0.0702083 -4.18871e-21)
(1.60162 -0.147427 1.2889e-18)
(2.14872 -0.181961 2.07288e-18)
(2.36061 -0.192952 -1.95175e-18)
(2.39672 -0.190766 -1.40313e-18)
(2.36404 -0.183195 4.29482e-19)
(2.31217 -0.173615 -1.80069e-18)
(2.25875 -0.163727 -1.25157e-18)
(2.20867 -0.154557 1.46123e-18)
(2.16215 -0.148581 1.24099e-18)
(0.672572 -0.0223049 1.67206e-19)
(1.66635 -0.0276007 8.54841e-19)
(2.19886 -0.0264021 3.86217e-19)
(2.39328 -0.0274216 -2.81886e-18)
(2.41817 -0.028438 2.28765e-20)
(2.38008 -0.0289938 4.09074e-18)
(2.32594 -0.0287231 -2.18434e-18)
(2.27158 -0.0279667 -1.19744e-18)
(2.22109 -0.027258 4.04852e-19)
(2.17472 -0.0280437 -9.07975e-19)
(0.000534877 -0.0286742 1.1047e-19)
(0.020151 -0.110604 9.54503e-20)
(0.0682929 -0.17645 -1.8971e-21)
(0.128314 -0.214355 -7.19992e-21)
(0.192032 -0.229856 -2.17031e-21)
(0.254506 -0.232021 -5.57364e-20)
(0.313179 -0.227635 7.00678e-21)
(0.367164 -0.220598 -8.51976e-21)
(0.416372 -0.212848 2.4561e-21)
(0.461365 -0.206404 -6.26923e-21)
(0.00443273 -0.0418848 5.2867e-20)
(0.0374989 -0.176506 1.01166e-19)
(0.0968425 -0.286427 -1.13972e-19)
(0.163232 -0.349136 -4.78613e-20)
(0.229281 -0.373343 -6.70013e-20)
(0.291745 -0.374552 -9.01562e-20)
(0.349298 -0.364534 4.47412e-20)
(0.40173 -0.35008 -1.19894e-21)
(0.449188 -0.334615 -1.17223e-20)
(0.493199 -0.322645 -4.46467e-21)
(0.0106038 -0.0555291 -1.89599e-20)
(0.0657752 -0.24109 2.28135e-19)
(0.143618 -0.392818 7.58495e-20)
(0.220535 -0.478637 2.78351e-19)
(0.290447 -0.510631 5.08174e-20)
(0.35289 -0.51054 -3.06143e-19)
(0.408585 -0.49489 -1.64623e-20)
(0.458445 -0.473205 1.02679e-19)
(0.503017 -0.450343 -5.30637e-20)
(0.545493 -0.433018 -1.30369e-20)
(0.0193176 -0.0696735 -1.06908e-19)
(0.105132 -0.30347 -4.4913e-20)
(0.208367 -0.493647 2.934e-20)
(0.299583 -0.600119 -1.23018e-19)
(0.374641 -0.638603 5.25374e-20)
(0.436916 -0.636757 1.91396e-19)
(0.489959 -0.615514 6.11659e-20)
(0.536228 -0.586889 -2.32685e-20)
(0.576833 -0.5571 1.93389e-20)
(0.617227 -0.534636 -2.63274e-21)
(0.0309456 -0.0843947 0)
(0.155732 -0.36277 8.25526e-20)
(0.290654 -0.586961 3.17818e-19)
(0.399379 -0.710894 -2.72018e-19)
(0.480516 -0.754223 -5.56385e-19)
(0.542312 -0.750095 1.99056e-19)
(0.591866 -0.723371 -3.20683e-20)
(0.63356 -0.688233 -9.1775e-20)
(0.669223 -0.652139 0)
(0.706994 -0.624781 -8.71877e-21)
(0.0459686 -0.0997312 2.2521e-20)
(0.217723 -0.418054 1.76237e-19)
(0.389807 -0.670798 7.03343e-20)
(0.5185 -0.808355 2.20966e-19)
(0.606187 -0.854613 -1.75918e-19)
(0.666986 -0.847663 -2.88199e-19)
(0.712187 -0.815693 5.09459e-19)
(0.748394 -0.774643 4.99501e-20)
(0.778305 -0.733018 -3.11919e-19)
(0.812869 -0.700973 -6.81711e-21)
(0.0649591 -0.115614 1.46032e-20)
(0.291163 -0.468255 1.63084e-19)
(0.504812 -0.743182 1.03519e-19)
(0.654998 -0.890044 2.31104e-20)
(0.749149 -0.937195 3.0121e-19)
(0.808205 -0.926997 -3.91167e-19)
(0.848176 -0.890242 -3.95424e-19)
(0.878078 -0.844149 -3.41868e-19)
(0.901639 -0.797934 2.49589e-19)
(0.932109 -0.761297 2.73053e-19)
(0.0884815 -0.131745 -1.20598e-19)
(0.375778 -0.512057 -2.8905e-20)
(0.634021 -0.802088 2.53343e-19)
(0.806111 -0.953697 -1.61753e-19)
(0.906018 -0.999793 3.13689e-19)
(0.962364 -0.986214 7.66035e-19)
(0.996245 -0.945547 5.42019e-19)
(1.01913 -0.895771 -4.16694e-19)
(1.03594 -0.84622 -2.00469e-19)
(1.06044 -0.80504 2.8716e-19)
(0.116867 -0.147438 -2.43694e-19)
(0.470632 -0.547738 -5.70724e-19)
(0.774819 -0.845299 7.30157e-19)
(0.967909 -0.997024 7.3805e-19)
(1.07206 -1.04024 -7.10503e-19)
(1.1243 -1.02336 8.02626e-19)
(1.15101 -0.97995 1.23028e-19)
(1.16605 -0.928233 -9.8176e-19)
(1.17562 -0.876738 -2.39104e-19)
(1.19025 -0.831249 3.17427e-19)
(0.150185 -0.161681 2.64843e-20)
(0.574439 -0.573181 -5.26558e-19)
(0.924401 -0.870337 -4.32027e-19)
(1.13648 -1.01753 7.26882e-19)
(1.2426 -1.05601 5.87678e-19)
(1.28871 -1.03573 -7.17244e-19)
(1.30642 -0.990335 -5.99419e-19)
(1.31192 -0.937683 3.5775e-19)
(1.31284 -0.884423 -3.67512e-19)
(1.31079 -0.835508 -2.26924e-19)
(0.624002 -0.167493 1.77747e-20)
(0.803152 -0.127606 -3.3431e-20)
(0.888846 -0.099869 1.02104e-20)
(0.938416 -0.0781754 5.9115e-21)
(0.96746 -0.0605892 -2.61505e-21)
(0.984642 -0.0461515 5.11788e-22)
(0.995161 -0.0342645 -1.29478e-21)
(1.00174 -0.0243267 -3.17167e-21)
(1.00569 -0.0163917 5.15592e-21)
(1.00833 -0.00668029 3.02216e-21)
(0.641657 -0.239722 8.4009e-20)
(0.81448 -0.165857 1.33472e-21)
(0.896925 -0.120625 4.03031e-21)
(0.94457 -0.089715 -5.68107e-22)
(0.972333 -0.0672822 -1.13642e-21)
(0.988572 -0.0501473 0)
(0.998361 -0.0366929 -1.39332e-21)
(1.00439 -0.0258013 3.33191e-21)
(1.00795 -0.0172774 4.97952e-22)
(1.01028 -0.00702038 -3.20665e-21)
(0.670009 -0.309502 -4.98928e-20)
(0.830819 -0.203269 -2.70859e-20)
(0.907683 -0.141117 9.81783e-21)
(0.952127 -0.10114 -8.59022e-21)
(0.977961 -0.073877 -3.92108e-21)
(0.992939 -0.054048 6.14204e-21)
(1.00183 -0.0390328 0)
(1.0072 -0.0272003 0)
(1.01034 -0.0181029 -5.76803e-22)
(1.01231 -0.00733286 0)
(0.709083 -0.375447 -2.91036e-20)
(0.85198 -0.23931 4.86358e-20)
(0.92105 -0.161099 7.98881e-21)
(0.961072 -0.112332 0)
(0.98434 -0.0803061 7.74795e-21)
(0.997735 -0.0578129 -2.59325e-22)
(1.00555 -0.0412587 0)
(1.01017 -0.0285077 -1.88958e-22)
(1.01282 -0.0188579 0)
(1.01441 -0.00761371 4.82185e-23)
(0.758846 -0.436186 -2.89933e-20)
(0.877738 -0.273527 7.53502e-20)
(0.936933 -0.180338 -4.46886e-21)
(0.971382 -0.123179 0)
(0.991463 -0.0865059 -6.49801e-23)
(1.00295 -0.0614028 -4.32486e-23)
(1.00952 -0.0433456 6.18712e-21)
(1.01329 -0.0297072 1.23647e-21)
(1.01541 -0.0195323 -1.32411e-21)
(1.01659 -0.00785887 2.85666e-21)
(0.818966 -0.490261 -6.11853e-19)
(0.907783 -0.30554 -1.40549e-19)
(0.955203 -0.198663 1.87817e-21)
(0.983017 -0.133581 1.74152e-20)
(0.999314 -0.0924198 6.83282e-22)
(1.00857 -0.0647809 1.37601e-21)
(1.01371 -0.0452689 -3.14362e-21)
(1.01655 -0.0307827 -1.57088e-21)
(1.01806 -0.0201156 -2.43857e-22)
(1.01881 -0.00806426 1.36327e-21)
(0.888518 -0.53607 -8.68762e-21)
(0.941391 -0.334716 5.62716e-20)
(0.975569 -0.215876 3.92128e-21)
(0.995888 -0.143448 -4.58193e-22)
(1.00786 -0.0979978 -1.27515e-20)
(1.01458 -0.0679149 5.32092e-21)
(1.01812 -0.0470063 -2.4332e-22)
(1.01991 -0.0317184 -4.68317e-21)
(1.02078 -0.020598 -2.7574e-24)
(1.02107 -0.00822592 -2.02334e-21)
(0.966653 -0.573171 2.57934e-19)
(0.977276 -0.360596 6.61283e-20)
(0.99718 -0.231727 0)
(1.00965 -0.152621 -2.11661e-21)
(1.01696 -0.103157 9.91868e-21)
(1.0209 -0.0707619 1.59115e-21)
(1.02271 -0.048534 -4.96235e-21)
(1.02337 -0.0324998 1.41247e-21)
(1.02354 -0.0209705 1.39633e-23)
(1.02335 -0.00834086 2.45814e-22)
(1.05469 -0.603866 -3.79473e-19)
(1.0161 -0.384959 -1.77643e-19)
(1.01924 -0.247366 3.70169e-20)
(1.02363 -0.161583 9.7437e-22)
(1.02625 -0.108057 -2.04884e-21)
(1.02736 -0.0733585 -5.33151e-21)
(1.02738 -0.0498517 3.54304e-22)
(1.02688 -0.0331187 5.84926e-22)
(1.02632 -0.0212256 -3.55584e-21)
(1.02563 -0.00840909 -3.90838e-21)
(1.15343 -0.626375 2.62671e-19)
(1.06382 -0.406174 -1.74322e-19)
(1.04401 -0.263357 -2.6833e-20)
(1.03825 -0.171265 -2.36986e-20)
(1.03563 -0.113339 -1.15479e-20)
(1.03382 -0.0760437 -5.4954e-21)
(1.03206 -0.0511098 -3.58875e-21)
(1.03039 -0.0336292 0)
(1.02909 -0.0213798 1.18971e-21)
(1.02792 -0.00842128 1.19331e-21)
(1.30382 -0.610144 4.17011e-19)
(1.15825 -0.405384 1.17166e-19)
(1.09739 -0.264843 -7.71709e-20)
(1.06893 -0.172881 4.10494e-21)
(1.05375 -0.114265 5.35061e-21)
(1.04503 -0.0763294 -1.16704e-21)
(1.03936 -0.0510081 3.43662e-21)
(1.03541 -0.0333665 2.89336e-21)
(1.0328 -0.0210955 -2.66992e-21)
(1.03084 -0.00828914 6.79237e-22)
(1.35578 -0.505877 -6.45283e-21)
(1.19432 -0.34862 1.18805e-19)
(1.12662 -0.236407 9.04865e-20)
(1.09146 -0.159113 -1.05613e-20)
(1.06973 -0.107015 4.00371e-20)
(1.05604 -0.0720742 2.51674e-20)
(1.04703 -0.0483155 1.76578e-20)
(1.04089 -0.0316315 -1.62819e-21)
(1.03697 -0.0200003 6.16428e-21)
(1.03415 -0.00784881 3.86701e-21)
(1.41046 -0.433372 -1.23779e-19)
(1.24391 -0.31071 -9.62038e-21)
(1.16128 -0.214908 3.93357e-21)
(1.11501 -0.146534 -1.0452e-37)
(1.08559 -0.0992653 1.82001e-21)
(1.06677 -0.0670564 -6.99366e-35)
(1.05441 -0.0449782 -3.78699e-21)
(1.04614 -0.0294288 -2.49856e-34)
(1.04093 -0.0185928 1.02392e-21)
(1.03726 -0.00729114 -3.01127e-21)
(1.44428 -0.357123 -1.8943e-34)
(1.27957 -0.265262 -3.04476e-20)
(1.18911 -0.187832 -3.1848e-20)
(1.13514 -0.13027 0)
(1.09968 -0.0891348 -1.74723e-20)
(1.07649 -0.0605017 -1.17257e-20)
(1.06117 -0.040653 -5.85409e-21)
(1.05097 -0.0266037 -3.45147e-34)
(1.04456 -0.0168058 -1.58417e-21)
(1.04009 -0.00658972 2.9224e-21)
(1.46574 -0.287803 -7.15174e-20)
(1.30691 -0.22076 3.80565e-21)
(1.21188 -0.15934 0)
(1.15216 -0.112006 0)
(1.11187 -0.0772915 0)
(1.08503 -0.0527 0)
(1.06716 -0.0354802 -8.36588e-22)
(1.05525 -0.0232303 -3.87592e-34)
(1.04779 -0.0146781 9.52774e-22)
(1.04261 -0.00575668 3.55484e-34)
(1.47884 -0.223995 -2.40689e-20)
(1.32722 -0.176521 0)
(1.22988 -0.129555 0)
(1.16603 -0.0921214 0)
(1.12202 -0.0640491 0)
(1.09223 -0.0438551 0)
(1.07226 -0.0295844 1.50094e-21)
(1.05891 -0.0193829 4.27534e-21)
(1.05055 -0.0122516 9.19545e-22)
(1.04474 -0.00480645 3.52257e-21)
(1.48639 -0.165184 0)
(1.34169 -0.133072 -9.33707e-21)
(1.24344 -0.0990055 -1.35778e-20)
(1.17677 -0.0710635 0)
(1.13002 -0.0497228 -8.62899e-21)
(1.09798 -0.0341728 -6.05446e-21)
(1.07634 -0.0230962 -2.64884e-21)
(1.06185 -0.0151423 -2.57767e-21)
(1.05277 -0.00957385 3.8136e-21)
(1.04645 -0.00375669 2.16328e-21)
(1.48933 -0.110339 6.52706e-21)
(1.35009 -0.0904654 5.31544e-21)
(1.25186 -0.0678898 -2.63008e-21)
(1.18357 -0.0490533 3.70603e-36)
(1.13507 -0.0344848 -2.69852e-22)
(1.10152 -0.0237678 -4.94561e-35)
(1.07874 -0.0160868 1.31529e-21)
(1.06344 -0.0105509 4.63535e-21)
(1.05386 -0.00666408 7.97171e-22)
(1.04716 -0.00260771 -2.59082e-21)
(1.46973 -0.0558024 -3.10907e-20)
(1.33424 -0.0503221 9.01064e-21)
(1.23843 -0.0388813 1.03721e-20)
(1.17113 -0.0284494 0)
(1.12301 -0.0201273 6.1215e-21)
(1.08952 -0.0139159 4.28548e-21)
(1.0667 -0.00943244 4.12274e-21)
(1.05137 -0.00618936 1.86224e-21)
(1.04176 -0.00390379 -1.38388e-21)
(1.03505 -0.00152103 2.92911e-21)
(1.1463 -0.00441507 0)
(1.05621 -0.00749209 0)
(0.986804 -0.00651369 0)
(0.936102 -0.00493186 0)
(0.899256 -0.00352789 0)
(0.873436 -0.00245561 0)
(0.855766 -0.00167061 1.1846e-21)
(0.843868 -0.00110114 -6.13196e-36)
(0.836386 -0.000677567 8.20148e-22)
(0.831226 -0.000250954 2.46483e-21)
(2.0927 -0.0269626 8.40989e-19)
(2.08266 -0.130729 5.74237e-20)
(2.05533 -0.232212 -1.19124e-19)
(2.0108 -0.329489 -3.32803e-19)
(1.95143 -0.420146 -1.0956e-19)
(1.87507 -0.504903 -1.66953e-19)
(1.79386 -0.5734 -4.13315e-19)
(1.68443 -0.646691 1.26845e-19)
(1.60463 -0.671988 0)
(1.45252 -0.750739 4.31886e-20)
(2.00788 -0.0199629 2.26502e-19)
(1.99993 -0.0978264 -3.18478e-19)
(1.97941 -0.174529 -1.76834e-20)
(1.94454 -0.249468 -1.31757e-19)
(1.90146 -0.318541 3.36664e-20)
(1.83985 -0.389485 1.26929e-19)
(1.784 -0.437981 -1.08623e-20)
(1.69448 -0.512418 7.9548e-20)
(1.63874 -0.521839 -1.00125e-19)
(1.53042 -0.606189 2.53395e-20)
(1.93603 -0.0149406 -1.10648e-19)
(1.92995 -0.0766499 2.17118e-19)
(1.9142 -0.137115 1.77797e-19)
(1.88618 -0.196778 -2.28062e-19)
(1.85289 -0.250582 7.15167e-20)
(1.80314 -0.309389 1.56753e-19)
(1.75948 -0.34524 -4.24429e-20)
(1.69003 -0.411122 5.42068e-20)
(1.64145 -0.417394 5.98057e-20)
(1.56203 -0.491137 7.89203e-20)
(1.88054 -0.013516 -2.16174e-19)
(1.87571 -0.060968 1.82818e-20)
(1.8627 -0.107502 -6.95006e-20)
(1.83951 -0.154085 -5.0935e-20)
(1.81172 -0.195864 -2.21078e-20)
(1.77127 -0.243173 -9.50894e-20)
(1.73366 -0.271295 9.66068e-20)
(1.67952 -0.325442 2.18864e-20)
(1.63562 -0.331799 -6.87744e-21)
(1.57549 -0.391809 9.44919e-21)
(1.83723 -0.0114597 4.54138e-20)
(1.83326 -0.0476921 6.85295e-20)
(1.82207 -0.0831974 -4.78123e-20)
(1.8025 -0.118928 2.0178e-19)
(1.77819 -0.151021 -2.53506e-22)
(1.74465 -0.187656 -1.42528e-19)
(1.71098 -0.209952 2.14127e-20)
(1.66742 -0.251964 -7.95006e-20)
(1.62783 -0.258611 9.04174e-20)
(1.58003 -0.304929 6.43358e-20)
(1.8043 -0.0106381 -1.14785e-19)
(1.80103 -0.0373001 -5.63952e-20)
(1.7911 -0.0634296 2.0734e-20)
(1.77408 -0.0898172 7.92972e-20)
(1.7521 -0.113734 8.22717e-20)
(1.72329 -0.14097 -4.10235e-20)
(1.69244 -0.158321 3.29391e-21)
(1.65566 -0.189577 3.09909e-20)
(1.61946 -0.196084 6.44662e-20)
(1.57918 -0.230641 -4.4716e-20)
(1.78006 -0.0102397 -4.17128e-20)
(1.77741 -0.0286573 -8.38246e-20)
(1.76845 -0.0466696 -7.19019e-20)
(1.75324 -0.0649168 -1.28894e-19)
(1.7329 -0.081664 1.93923e-21)
(1.70719 -0.10075 8.63362e-21)
(1.67831 -0.113499 3.25399e-20)
(1.64566 -0.135673 -1.12012e-21)
(1.61199 -0.141388 -3.33189e-20)
(1.57607 -0.166228 2.34467e-21)
(1.75908 -0.00975042 4.08674e-20)
(1.75747 -0.0207604 2.69464e-20)
(1.74988 -0.031487 1.21889e-20)
(1.7366 -0.0423254 -2.2291e-20)
(1.71811 -0.0523545 -1.85155e-20)
(1.695 -0.0641052 1.25792e-20)
(1.66796 -0.0721859 -8.47396e-21)
(1.638 -0.0867797 -1.89769e-20)
(1.60617 -0.0908654 2.86278e-21)
(1.57278 -0.108515 3.55521e-20)
(1.69159 -0.013174 -3.85817e-20)
(1.69087 -0.0165748 -2.37815e-21)
(1.68649 -0.0196158 6.09323e-20)
(1.67827 -0.0226786 -4.57026e-21)
(1.66585 -0.0252659 -9.18306e-21)
(1.64998 -0.0292333 7.77518e-21)
(1.62972 -0.0310805 5.02293e-21)
(1.60779 -0.0378947 -1.40963e-20)
(1.58039 -0.0385779 2.00335e-20)
(1.55649 -0.0487122 7.22557e-20)
(1.19342 -0.00731561 3.62541e-20)
(1.18563 -0.00531797 2.63053e-20)
(1.17977 -0.003304 2.32446e-20)
(1.17611 -0.00140148 3.14257e-20)
(1.17397 0.000398666 -1.01896e-20)
(1.17409 0.00179821 -9.09005e-21)
(1.17305 0.00345133 -1.57358e-21)
(1.17682 0.00318814 2.25093e-21)
(1.17088 0.00541349 -3.671e-21)
(1.18176 0.00176852 4.06965e-21)
(1.36859 0.743842 -5.32939e-20)
(1.35772 0.791202 2.50351e-20)
(1.3631 0.845027 -4.35802e-19)
(1.37332 0.905587 2.19147e-19)
(1.38344 0.970419 8.22353e-19)
(1.38935 1.03677 -1.39532e-19)
(1.37707 1.09342 -8.30861e-19)
(1.30235 1.09756 -4.16343e-20)
(1.06614 0.942728 -4.66304e-19)
(0.512266 0.471865 1.20314e-19)
(1.52347 0.715 0)
(1.51959 0.76212 5.32728e-19)
(1.5227 0.813638 1.19503e-18)
(1.53189 0.872489 -7.17034e-19)
(1.54466 0.936789 -1.72469e-18)
(1.55561 1.00329 -1.40151e-19)
(1.54732 1.06007 -1.79822e-19)
(1.46768 1.06415 6.62611e-19)
(1.20216 0.911221 9.95372e-19)
(0.575568 0.45256 4.27608e-19)
(1.65915 0.686526 6.44048e-20)
(1.66659 0.73211 0)
(1.67486 0.780365 -6.70804e-20)
(1.68749 0.834605 7.30413e-19)
(1.7043 0.894341 5.31289e-20)
(1.71998 0.956884 -1.83265e-18)
(1.71464 1.01021 1.1841e-18)
(1.62873 1.01211 7.84171e-19)
(1.33276 0.86261 -9.04212e-19)
(0.634733 0.424007 -2.89259e-19)
(1.77297 0.647718 -1.12445e-19)
(1.79084 0.689674 -9.17843e-20)
(1.80816 0.733675 2.19176e-19)
(1.82848 0.782663 -2.7539e-19)
(1.85224 0.836852 -1.33421e-18)
(1.87412 0.893929 -1.03494e-18)
(1.8719 0.941921 1.1656e-18)
(1.77879 0.940175 7.86142e-19)
(1.45154 0.79558 0)
(0.68538 0.385036 0)
(1.87012 0.590997 -7.74457e-19)
(1.89659 0.628399 -1.3371e-18)
(1.92324 0.667763 -5.36166e-19)
(1.95255 0.71141 -3.49523e-20)
(1.98461 0.75972 0)
(2.01346 0.810532 1.46187e-19)
(2.0141 0.852088 1.73519e-19)
(1.9125 0.846053 2.22074e-19)
(1.55306 0.709111 -3.37663e-19)
(0.723804 0.335961 -8.54252e-20)
(1.95572 0.515211 9.26105e-19)
(1.98875 0.547841 -4.50356e-20)
(2.02325 0.58237 -1.10658e-18)
(2.06074 0.620455 0)
(2.10063 0.662422 0)
(2.1358 0.706236 0)
(2.13798 0.74054 1.49021e-18)
(2.02586 0.730239 -1.8438e-18)
(1.63335 0.605089 -1.29237e-18)
(0.748091 0.27938 9.45672e-21)
(2.03059 0.423721 -1.25514e-18)
(2.06839 0.45121 -2.63858e-18)
(2.10892 0.480287 -4.61656e-21)
(2.15297 0.512148 5.40491e-19)
(2.19923 0.54703 -4.25893e-20)
(2.23912 0.582931 1.26135e-18)
(2.24068 0.609694 -7.37939e-19)
(2.11581 0.596114 -2.32438e-18)
(1.68935 0.487222 1.75092e-19)
(0.758479 0.21826 1.31274e-19)
(2.09235 0.320652 -1.02327e-18)
(2.13368 0.342218 1.77847e-20)
(2.17869 0.364896 4.01661e-19)
(2.22763 0.389639 -3.91909e-19)
(2.2785 0.416634 6.13888e-19)
(2.32117 0.444022 1.79392e-18)
(2.31983 0.4622 -2.33893e-19)
(2.17922 0.449028 -1.34948e-18)
(1.72036 0.361677 3.51536e-19)
(0.755454 0.154853 6.58844e-20)
(2.13801 0.209205 3.88112e-19)
(2.182 0.224193 8.82187e-20)
(2.23021 0.239624 -4.31584e-19)
(2.2825 0.256451 -1.00048e-18)
(2.33628 0.274668 9.97409e-20)
(2.37957 0.292858 1.05037e-19)
(2.37255 0.304363 -1.70169e-18)
(2.21412 0.293651 7.71669e-19)
(1.72684 0.231033 2.59118e-19)
(0.739418 0.0920627 -1.98866e-19)
(2.16599 0.0919577 7.76111e-19)
(2.21163 0.0994928 -1.18421e-18)
(2.26161 0.107204 1.93036e-19)
(2.31569 0.115579 2.51027e-18)
(2.37055 0.124743 1.32705e-18)
(2.41224 0.133998 -3.07498e-18)
(2.39718 0.139763 -3.33156e-18)
(2.2208 0.133643 1.78457e-18)
(1.70865 0.0997998 2.55147e-22)
(0.711363 0.0323363 2.74098e-20)
(0.5202 0.199202 -1.91568e-19)
(0.485251 0.206035 -1.72196e-19)
(0.442599 0.21348 1.02127e-19)
(0.394348 0.221519 -3.38493e-19)
(0.341366 0.230167 -4.5756e-20)
(0.283038 0.239267 2.83871e-19)
(0.218204 0.247216 7.92509e-20)
(0.146661 0.246686 -4.91349e-20)
(0.0745991 0.216452 -6.86366e-21)
(0.013076 0.115757 2.42239e-20)
(0.547164 0.299292 1.54876e-19)
(0.51301 0.31278 2.21814e-19)
(0.471695 0.327728 3.51695e-20)
(0.42503 0.343933 -9.51125e-20)
(0.373769 0.361318 -3.17666e-19)
(0.317268 0.379608 1.74983e-20)
(0.254063 0.396039 1.84616e-19)
(0.182754 0.398023 1.86015e-21)
(0.106529 0.349788 -4.88864e-20)
(0.0302164 0.185742 -1.52633e-20)
(0.591228 0.395141 -1.67703e-19)
(0.558492 0.415065 -1.78546e-19)
(0.519487 0.437145 1.5445e-19)
(0.475522 0.461093 1.41597e-19)
(0.427155 0.486775 -6.25133e-20)
(0.373692 0.513791 -1.17527e-19)
(0.313164 0.538235 -8.57628e-20)
(0.242125 0.542426 1.94496e-20)
(0.158742 0.476616 -3.42032e-20)
(0.0579152 0.251853 5.3433e-21)
(0.651359 0.484591 9.11533e-20)
(0.620627 0.510632 -6.26981e-21)
(0.58483 0.539296 -1.25702e-19)
(0.544602 0.570367 7.54886e-20)
(0.500234 0.603709 -8.96572e-20)
(0.450962 0.638784 3.37761e-20)
(0.394116 0.67057 -1.28842e-19)
(0.323389 0.676559 -4.12167e-20)
(0.229884 0.593923 -2.18211e-19)
(0.0953017 0.312369 4.97083e-20)
(0.726062 0.565687 -2.8207e-20)
(0.697881 0.597406 -9.93091e-21)
(0.666143 0.63196 -4.25291e-20)
(0.630671 0.669376 -1.54632e-19)
(0.591393 0.70957 6.81719e-20)
(0.547425 0.751858 -7.79353e-20)
(0.495209 0.790125 1.47056e-19)
(0.424847 0.79737 -1.68313e-20)
(0.318247 0.698952 2.84029e-19)
(0.141314 0.365822 2.18194e-19)
(0.813238 0.636834 -1.54376e-21)
(0.787996 0.673505 -6.40233e-20)
(0.760954 0.712892 1.51957e-19)
(0.731045 0.755562 8.75377e-20)
(0.697803 0.801575 1.99708e-19)
(0.660174 0.850049 1.04634e-19)
(0.613487 0.89375 3.94323e-19)
(0.543557 0.901518 1.88752e-19)
(0.421367 0.788459 1.68668e-19)
(0.194589 0.410407 1.91555e-19)
(0.911026 0.695411 -9.29825e-20)
(0.889824 0.736388 2.78944e-19)
(0.868819 0.779756 1.66614e-19)
(0.845737 0.826639 -1.7915e-19)
(0.819545 0.877341 -9.93249e-20)
(0.789003 0.930861 4.54569e-19)
(0.748242 0.978959 -9.56256e-20)
(0.678248 0.986765 -2.9503e-19)
(0.53765 0.860658 -4.86075e-20)
(0.253897 0.445108 2.11535e-19)
(1.01072 0.742967 1.58201e-19)
(0.992677 0.786542 5.26782e-20)
(0.97809 0.832088 -5.34834e-19)
(0.963277 0.881861 5.47282e-20)
(0.94623 0.93611 3.32038e-19)
(0.925009 0.993364 -2.44445e-19)
(0.891983 1.04426 -5.39884e-20)
(0.822546 1.05078 -1.32327e-19)
(0.661936 0.912835 1.4147e-20)
(0.316522 0.468415 -2.80707e-19)
(1.12828 0.76459 2.22283e-20)
(1.11762 0.811321 -3.60288e-19)
(1.11028 0.858575 -2.82108e-21)
(1.10206 0.910367 2.99025e-19)
(1.09159 0.967738 -2.97394e-19)
(1.07729 1.02882 6.18378e-19)
(1.05001 1.08305 4.50724e-19)
(0.978964 1.08962 -7.37198e-19)
(0.794754 0.943741 -4.95322e-20)
(0.381979 0.480569 -2.99731e-19)
(1.20895 0.780961 -2.04824e-19)
(1.21034 0.828775 -2.06728e-19)
(1.2205 0.877511 2.30878e-19)
(1.22869 0.930439 5.08124e-19)
(1.23217 0.988322 2.06128e-19)
(1.22964 1.04961 -5.21074e-19)
(1.21079 1.10343 3.09518e-20)
(1.13881 1.10744 1.62745e-19)
(0.92982 0.954591 -2.40452e-19)
(0.447561 0.481789 -2.17583e-19)
(0.764204 0.021986 1.14437e-20)
(1.17526 0.0394574 -1.89834e-20)
(0.921899 0.0459452 -8.99252e-21)
(1.02122 0.0492185 0)
(0.99346 0.0566076 1.90387e-20)
(0.97211 0.0673195 2.40132e-20)
(0.947447 0.0819164 3.0831e-20)
(0.89844 0.101044 6.29266e-20)
(0.833452 0.127677 -9.23306e-20)
(0.663465 0.163899 -1.04392e-19)
(0.763776 0.0193652 3.71033e-20)
(1.17528 0.0392297 -6.37131e-20)
(0.922408 0.0481164 -6.80877e-22)
(1.02296 0.0508697 -1.23118e-20)
(0.996091 0.0601979 9.73041e-21)
(0.975988 0.073332 -1.2266e-20)
(0.952603 0.0924379 -7.68469e-20)
(0.906225 0.118543 0)
(0.842978 0.163503 2.00525e-19)
(0.685141 0.227783 -2.45909e-19)
(0.763141 0.0168423 -4.65029e-20)
(1.17548 0.0388751 1.76832e-20)
(0.922814 0.050049 3.24718e-20)
(1.02512 0.0523008 1.45855e-20)
(0.999076 0.0635867 -2.35193e-20)
(0.980565 0.0791747 5.63087e-22)
(0.958829 0.102757 -5.48086e-20)
(0.916813 0.135963 -4.938e-21)
(0.856191 0.198789 2.6577e-22)
(0.719644 0.289492 6.13167e-19)
(0.762295 0.0145198 -1.49901e-20)
(1.17583 0.0383967 3.3749e-21)
(0.923129 0.0516948 2.73214e-20)
(1.02773 0.0535048 1.58498e-20)
(1.00243 0.0667543 -1.11569e-20)
(0.985841 0.0848058 -1.40382e-20)
(0.966202 0.112779 8.20616e-20)
(0.930108 0.153175 -1.45624e-21)
(0.873239 0.233163 -2.46812e-19)
(0.766325 0.347848 6.55232e-20)
(0.761234 0.0124562 1.17846e-20)
(1.17625 0.0377772 -3.55741e-20)
(0.923373 0.0530018 -2.11715e-20)
(1.03079 0.0544782 7.62703e-21)
(1.00615 0.0696836 0)
(0.991808 0.0901873 0)
(0.974808 0.122437 7.01544e-20)
(0.945963 0.170036 2.57032e-22)
(0.894359 0.265963 -1.18458e-19)
(0.824321 0.402057 8.95208e-20)
(0.75995 0.0107163 6.88739e-22)
(1.17666 0.0369902 2.96691e-20)
(0.923574 0.0539169 -4.77921e-20)
(1.03431 0.0552227 -3.09055e-20)
(1.01025 0.0723584 1.81023e-23)
(0.998461 0.0952872 5.77974e-20)
(0.984725 0.1317 1.09632e-19)
(0.964144 0.186402 -7.44863e-22)
(0.919945 0.296295 1.96137e-19)
(0.892522 0.452168 -1.97222e-19)
(0.758436 0.00938459 -2.33163e-20)
(1.17696 0.0359979 1.56394e-20)
(0.923769 0.0543879 -8.75362e-21)
(1.03831 0.0557464 -5.36835e-20)
(1.0147 0.074761 2.10584e-22)
(1.0058 0.100076 -1.13032e-21)
(0.996005 0.140529 -6.54842e-21)
(0.984346 0.202222 -1.94905e-19)
(0.950559 0.322954 1.47862e-19)
(0.968702 0.496557 -4.61715e-19)
(0.756676 0.00854594 6.41953e-21)
(1.17707 0.0347354 -4.56456e-20)
(0.924011 0.0543635 2.07452e-20)
(1.04278 0.0560631 3.89076e-20)
(1.0195 0.0768655 1.95443e-22)
(1.01383 0.104513 -6.76903e-20)
(1.00869 0.148801 -6.03143e-20)
(1.00627 0.217567 3.51108e-19)
(0.986674 0.346357 1.13092e-20)
(1.05121 0.541483 7.43229e-19)
(0.754645 0.00828171 1.44047e-21)
(1.17698 0.0331329 2.02317e-20)
(0.924376 0.0537711 1.40557e-20)
(1.04772 0.0561853 -4.09323e-20)
(1.02459 0.0786358 -7.04149e-20)
(1.02248 0.108503 1.45872e-21)
(1.02271 0.156064 -8.2999e-20)
(1.02991 0.230514 4.5622e-19)
(1.03128 0.359764 -7.24542e-21)
(1.13374 0.565999 -1.01229e-18)
(0.752333 0.00882402 4.91133e-21)
(1.17747 0.0314368 3.02625e-20)
(0.924752 0.0525937 1.13122e-20)
(1.05318 0.0561746 -8.8255e-20)
(1.02966 0.0802567 -6.68347e-20)
(1.03075 0.112798 -5.75867e-20)
(1.03526 0.165057 -1.48746e-19)
(1.04881 0.248516 -4.25861e-19)
(1.07023 0.385385 -2.45966e-19)
(1.22167 0.623817 -1.09984e-18)
(0.751047 0.00867921 -1.38177e-20)
(1.18022 0.0288012 -6.30566e-21)
(0.926278 0.049655 -1.02731e-20)
(1.05939 0.0550756 1.07208e-20)
(1.0386 0.0792819 5.03128e-20)
(1.04535 0.112573 -3.98937e-20)
(1.05904 0.164903 1.33186e-19)
(1.08672 0.246321 -4.19742e-19)
(1.13756 0.365071 -1.77681e-19)
(1.24771 0.610433 5.81784e-19)
(0.751367 0.00621733 1.03724e-20)
(1.1842 0.025316 1.21673e-20)
(0.930621 0.0443629 -8.25475e-22)
(1.06494 0.0520902 4.34182e-20)
(1.04912 0.075091 7.88237e-20)
(1.06109 0.107297 1.16607e-19)
(1.08307 0.156349 2.8016e-20)
(1.12423 0.23017 2.19729e-19)
(1.18931 0.333382 2.8443e-19)
(1.31976 0.523903 -3.97372e-21)
(0.751499 0.00316972 -1.4014e-20)
(1.18851 0.0213766 -3.6705e-21)
(0.935345 0.0389006 -3.85713e-21)
(1.07062 0.0479924 1.46649e-20)
(1.05924 0.0695024 2.18653e-34)
(1.07588 0.0996498 -8.03286e-21)
(1.10477 0.144195 -5.34257e-34)
(1.1567 0.20935 1.87037e-20)
(1.22746 0.293312 -5.33222e-20)
(1.37937 0.447761 -4.69513e-20)
(0.751707 -0.000761855 2.95174e-20)
(1.19287 0.0167286 -3.99167e-35)
(0.940095 0.0331323 3.54793e-21)
(1.07617 0.0428795 -1.69696e-20)
(1.06859 0.0625662 -3.15452e-20)
(1.08926 0.0899148 -3.9069e-20)
(1.12389 0.129135 -6.61092e-34)
(1.18367 0.185289 -9.43555e-20)
(1.25788 0.251445 -1.32379e-19)
(1.41915 0.373038 8.59562e-20)
(0.752067 -0.00577389 0)
(1.19745 0.0114317 1.16896e-35)
(0.944809 0.027104 0)
(1.08143 0.0369314 0)
(1.07697 0.0544466 0)
(1.10099 0.0784121 0)
(1.14027 0.111802 -3.94957e-34)
(1.20534 0.158801 0)
(1.28232 0.209336 -2.01931e-20)
(1.44265 0.302459 5.21449e-20)
(0.752658 -0.011877 1.55698e-20)
(1.20253 0.00559759 -2.05635e-21)
(0.949489 0.0209615 2.85453e-21)
(1.08623 0.0303516 0)
(1.08422 0.0453475 0)
(1.1109 0.0654873 6.78846e-21)
(1.15383 0.0927823 2.75806e-20)
(1.22222 0.130603 -1.39497e-20)
(1.30139 0.167999 -2.98364e-20)
(1.45545 0.236482 1.97464e-19)
(0.753571 -0.0199196 -5.77373e-20)
(1.20836 -0.000921545 4.01509e-21)
(0.954127 0.0148432 2.49626e-21)
(1.0904 0.0233505 -5.47018e-21)
(1.0902 0.035479 -1.0832e-20)
(1.11887 0.0514663 -8.69219e-21)
(1.16454 0.0725448 -2.07329e-20)
(1.23486 0.101312 -3.89774e-20)
(1.31551 0.127819 -5.31863e-20)
(1.46187 0.175181 7.80753e-20)
(0.754751 -0.025989 -2.23413e-20)
(1.21507 -0.00702946 -1.4126e-20)
(0.958394 0.00969656 2.04357e-21)
(1.09338 0.0161712 -1.11631e-20)
(1.09437 0.0250156 4.57115e-35)
(1.12447 0.0366164 7.31715e-21)
(1.17207 0.0513952 -9.49982e-34)
(1.24348 0.0712533 -1.41318e-20)
(1.32486 0.0885614 1.86444e-20)
(1.46471 0.117098 2.58278e-20)
(0.753213 -0.0462627 1.7348e-19)
(1.20897 -0.0159128 -9.90328e-21)
(0.950427 0.00265183 1.90063e-21)
(1.08361 0.00987213 2.91132e-21)
(1.08531 0.0147327 3.27614e-21)
(1.11643 0.0220657 1.37431e-20)
(1.16533 0.0308815 7.77815e-21)
(1.23746 0.0426378 -5.18135e-21)
(1.3186 0.0522426 -2.13775e-20)
(1.45614 0.0664666 1.37692e-19)
(0.687608 -0.0303357 1.98345e-20)
(1.00526 -0.0144957 -7.15887e-35)
(0.758815 0.00225819 1.08627e-21)
(0.881875 0.000827208 0)
(0.877055 0.00298475 0)
(0.904429 0.00451168 7.54929e-21)
(0.947095 0.00621903 -9.05395e-36)
(1.00863 0.00878812 -1.40346e-20)
(1.07935 0.0104606 -2.72337e-20)
(1.18887 0.0126592 5.61772e-20)
(1.45208 0.630947 -1.70355e-19)
(1.54793 0.61523 -2.75771e-19)
(1.64901 0.59471 0)
(1.74133 0.562991 1.01434e-19)
(1.8235 0.514099 4.91337e-19)
(1.89796 0.447103 -1.30006e-19)
(1.96445 0.365658 1.44668e-18)
(2.01964 0.274617 -6.61763e-20)
(2.0606 0.177161 -3.46723e-19)
(2.08521 0.076831 3.18354e-19)
(1.49577 0.513874 6.7696e-20)
(1.56404 0.501726 1.09151e-19)
(1.64243 0.479888 -5.46169e-21)
(1.7202 0.445942 1.7083e-19)
(1.79066 0.400101 -1.48843e-19)
(1.85298 0.343785 -3.6948e-19)
(1.90709 0.279184 -9.58836e-20)
(1.95112 0.208721 5.14759e-19)
(1.98325 0.134502 -2.02879e-20)