# Selection   : all
# Cells       : 440
# Volume      : 7.374263e+01
# Time        	min(p)
6.715         	-1.189790e+00
6.76          	-1.164048e+00
6.81          	-1.125108e+00
