/*--------------------------------*- C++ -*----------------------------------*\
  =========                 |
  \\      /  F ield         | OpenFOAM: The Open Source CFD Toolbox
   \\    /   O peration     | Website:  https://openfoam.org
    \\  /    A nd           | Version:  13
     \\/     M anipulation  |
\*---------------------------------------------------------------------------*/
FoamFile
{
    format      ascii;
    class       volScalarField;
    location    "0.0125";
    object      p;
}
// * * * * * * * * * * * * * * * * * * * * * * * * * * * * * * * * * * * * * //

dimensions      [0 2 -2 0 0 0 0];

internalField   nonuniform List<scalar> 
1800
(
-0.692122
-0.563315
-0.438763
-0.333118
-0.24284
-0.164929
-0.0972243
-0.0379104
0.0147524
0.0603904
-0.798533
-0.650404
-0.512005
-0.394042
-0.292571
-0.204417
-0.127327
-0.0595167
0.000290887
0.0509529
-0.892628
-0.723751
-0.572423
-0.443106
-0.331521
-0.234373
-0.14933
-0.0745491
-0.00870426
0.0475241
-0.970106
-0.778919
-0.615879
-0.476319
-0.355661
-0.250493
-0.158371
-0.0773507
-0.00602665
0.0552727
-1.02648
-0.811167
-0.637976
-0.489515
-0.360974
-0.248852
-0.150592
-0.0641437
0.0119894
0.0778496
-1.05729
-0.815762
-0.634389
-0.478665
-0.343641
-0.225788
-0.122448
-0.0314818
0.0486979
0.118482
-1.05828
-0.788195
-0.601228
-0.44025
-0.300394
-0.178211
-0.0709904
0.0234686
0.106821
0.179771
-1.02421
-0.724709
-0.535771
-0.371832
-0.228929
-0.103893
0.00595443
0.102826
0.188419
0.263714
-0.944484
-0.624686
-0.438364
-0.272962
-0.128351
-0.00169186
0.109653
0.207907
0.29481
0.3716
-0.813747
-0.485319
-0.311334
-0.14398
0.00179593
0.129104
0.24087
0.339447
0.426673
0.504035
0.178567
0.195926
0.222376
0.243531
0.259726
0.272418
0.282602
0.290905
0.297851
0.303298
0.167942
0.189193
0.218872
0.24276
0.2613
0.27599
0.287858
0.297556
0.305624
0.311989
0.131068
0.158368
0.193128
0.221308
0.243522
0.261343
0.275851
0.287743
0.297589
0.305436
0.0703615
0.10565
0.147225
0.181158
0.208297
0.230319
0.248381
0.263242
0.275515
0.285419
-0.0109735
0.0339587
0.0839318
0.124956
0.158169
0.18538
0.207842
0.226399
0.241719
0.254249
-0.108987
-0.0530999
0.00669118
0.0560109
0.0963319
0.129618
0.157232
0.180121
0.19902
0.214665
-0.219126
-0.151331
-0.0804407
-0.0217256
0.0266531
0.0668213
0.100253
0.127995
0.150847
0.169895
-0.336663
-0.256098
-0.172933
-0.103765
-0.046368
0.00154223
0.0415237
0.0746812
0.101817
0.124407
-0.457405
-0.362499
-0.266111
-0.185494
-0.118036
-0.0612963
-0.013657
0.0259883
0.0583257
0.0852028
-0.577193
-0.466193
-0.355871
-0.262969
-0.184452
-0.11768
-0.0609271
-0.0130598
0.0265935
0.0606336
0.276528
0.146335
0.149302
0.141621
0.126446
0.107254
0.0855562
0.062243
0.0378605
0.0129304
0.290126
0.169111
0.164004
0.151724
0.133558
0.112253
0.0889902
0.0644581
0.039077
0.0132711
0.294825
0.195696
0.180538
0.162837
0.141337
0.117728
0.0927663
0.0669061
0.0404277
0.0136524
0.291761
0.223994
0.19857
0.174877
0.149751
0.123664
0.0968761
0.0695821
0.0419107
0.0140743
0.282298
0.251511
0.217598
0.18772
0.158755
0.130039
0.101307
0.0724792
0.043523
0.0145364
0.267654
0.276052
0.236982
0.201195
0.168288
0.136823
0.106044
0.0755883
0.0452604
0.0150381
0.248146
0.296752
0.25606
0.215088
0.178273
0.143981
0.111066
0.0788979
0.0471178
0.0155784
0.223651
0.314317
0.27443
0.2292
0.188629
0.151475
0.116351
0.0823947
0.0490885
0.0161559
0.197698
0.32656
0.291699
0.243403
0.199318
0.159291
0.12189
0.0860714
0.0511683
0.0167697
0.176656
0.331211
0.30733
0.25761
0.210326
0.167436
0.127694
0.0899352
0.0533635
0.017436
0.217473
0.369002
0.335064
0.277552
0.224276
0.17702
0.134138
0.0940462
0.0556525
0.0181536
0.246829
0.380084
0.347329
0.289437
0.234039
0.184307
0.13923
0.0973269
0.0574502
0.0186493
0.291511
0.388813
0.355961
0.298435
0.24193
0.190474
0.143666
0.100233
0.0590516
0.019082
0.339954
0.397895
0.362636
0.305406
0.248304
0.195631
0.147464
0.102754
0.0604471
0.0194533
0.385771
0.407408
0.367851
0.310626
0.25326
0.199786
0.150598
0.104864
0.0616209
0.0197605
0.425153
0.41665
0.371857
0.314333
0.256907
0.202964
0.153059
0.106546
0.0625616
0.0200015
0.45597
0.424527
0.374642
0.316684
0.259346
0.205203
0.154851
0.107792
0.0632624
0.0201756
0.477177
0.430004
0.376053
0.317767
0.260663
0.206544
0.155985
0.108602
0.0637197
0.0202823
0.488332
0.432426
0.376017
0.317687
0.260951
0.207036
0.156481
0.108981
0.0639326
0.0203198
0.502055
0.443473
0.384138
0.323786
0.265477
0.210296
0.158732
0.110432
0.0647415
0.0205702
0.637673
0.509176
0.401693
0.314874
0.247693
0.198565
0.165538
0.146162
0.138735
0.130367
0.785405
0.660925
0.553123
0.461851
0.386439
0.325796
0.2786
0.24255
0.216515
0.18433
0.897452
0.779184
0.674713
0.584134
0.507044
0.442622
0.389807
0.346629
0.311897
0.272574
0.983267
0.87048
0.769549
0.680716
0.603757
0.538043
0.482666
0.436028
0.396563
0.355545
1.04895
0.940676
0.842895
0.755955
0.679763
0.613828
0.557347
0.509059
0.467097
0.425977
1.09878
0.994006
0.898756
0.813468
0.738152
0.67243
0.615591
0.566628
0.523453
0.482597
1.13572
1.03341
0.939932
0.855808
0.781135
0.715641
0.65871
0.609514
0.565799
0.525221
1.16178
1.06086
0.96831
0.884692
0.810195
0.744656
0.687568
0.638262
0.594386
0.554174
1.17822
1.07748
0.984763
0.900688
0.825531
0.75924
0.701455
0.651709
0.607767
0.568349
1.18538
1.08352
0.989459
0.903901
0.827223
0.759506
0.700536
0.650091
0.606132
0.570189
2.74155
2.70355
2.66596
2.62643
2.58239
2.53227
2.47433
2.40631
2.32406
2.20296
2.49879
2.45548
2.41052
2.36153
2.30659
2.24421
2.17259
2.08936
1.99006
1.8454
2.24338
2.19545
2.14409
2.08705
2.02261
1.94923
1.86503
1.76751
1.65188
1.48283
1.98745
1.93412
1.87609
1.81115
1.7376
1.6538
1.55769
1.44663
1.31548
1.12116
1.73586
1.67688
1.61223
1.53966
1.45747
1.36387
1.25664
1.13296
0.98735
0.766889
1.49208
1.42782
1.357
1.27742
1.18736
1.08488
0.967617
0.832612
0.67408
0.42647
1.25945
1.19062
1.11443
1.02877
0.93189
0.821753
0.6959
0.551347
0.382233
0.10623
1.04128
0.968783
0.888193
0.797523
0.695015
0.578585
0.445777
0.293921
0.11832
-0.18687
0.840774
0.765585
0.681613
0.587012
0.480004
0.35843
0.21979
0.0620492
-0.112212
-0.442914
0.660896
0.584025
0.497737
0.400322
0.2899
0.164071
0.019781
-0.145983
-0.312603
-0.644264
4.31012
4.33992
4.37743
4.41923
4.46213
4.50558
4.54913
4.59206
4.63249
4.65484
4.23603
4.26358
4.29848
4.33748
4.37739
4.4176
4.45765
4.49674
4.53295
4.55091
4.14029
4.16441
4.19534
4.23006
4.26537
4.30062
4.33527
4.36847
4.39818
4.40927
4.02295
4.0427
4.06845
4.09758
4.12686
4.15556
4.18308
4.20846
4.22951
4.23132
3.88446
3.89911
3.9187
3.94109
3.96306
3.9838
4.0026
4.0184
4.02882
4.01903
3.72604
3.73502
3.74759
3.76223
3.77575
3.78725
3.79593
3.80055
3.79856
3.77494
3.54999
3.55271
3.55742
3.56335
3.56736
3.56846
3.56573
3.55778
3.54181
3.50224
3.35929
3.35509
3.35109
3.34732
3.3408
3.33043
3.31515
3.29342
3.26215
3.20466
3.15713
3.14549
3.13177
3.11724
3.09919
3.07637
3.04757
3.01106
2.96343
2.88622
2.94535
2.92493
2.90078
2.87502
2.84492
2.80909
2.76615
2.71418
2.64948
2.551
11.2851
3.78347
4.06294
4.02262
3.98493
3.97287
3.98743
4.03868
4.15938
4.21018
11.2807
3.76162
4.04707
4.00813
3.96973
3.95537
3.9659
4.01027
4.11578
4.15866
11.2815
3.72715
4.02557
3.99047
3.95224
3.93555
3.94118
3.97635
4.05971
4.0959
11.2872
3.68042
3.99915
3.97013
3.93273
3.91359
3.91339
3.93713
3.99312
4.02026
11.2971
3.6219
3.96889
3.94778
3.91158
3.88968
3.8827
3.89291
3.91813
3.93001
11.3101
3.55231
3.93619
3.92423
3.88919
3.86406
3.84928
3.84402
3.83632
3.82404
11.3248
3.47261
3.90277
3.90027
3.86594
3.83694
3.81329
3.79065
3.7476
3.70317
11.3394
3.38413
3.87063
3.87663
3.84214
3.80853
3.77487
3.73282
3.65163
3.56922
11.352
3.28867
3.84203
3.85381
3.81803
3.77896
3.73412
3.6709
3.55157
3.42063
11.3604
3.18855
3.81929
3.83198
3.79376
3.74852
3.69178
3.6075
3.45548
3.2595
11.3771
3.13677
3.78756
3.8046
3.76321
3.70841
3.63366
3.51901
3.31634
3.05119
11.4066
3.14749
3.75242
3.77415
3.72994
3.66576
3.57463
3.43651
3.20524
2.91581
11.4287
3.15786
3.72764
3.7475
3.69941
3.62674
3.52208
3.36657
3.11939
2.81714
11.4466
3.16743
3.71033
3.72497
3.6722
3.5919
3.47619
3.30781
3.05218
2.74079
11.463
3.17642
3.69847
3.70651
3.64874
3.56178
3.43725
3.25955
2.99971
2.68178
11.4796
3.18527
3.69069
3.6919
3.62927
3.53671
3.40538
3.22113
2.9595
2.63763
11.4981
3.19438
3.68598
3.68087
3.61394
3.5169
3.38055
3.1919
2.9299
2.6064
11.52
3.20402
3.68353
3.67314
3.60277
3.50245
3.36267
3.17133
2.90982
2.58661
11.5467
3.21426
3.68254
3.66842
3.59572
3.49334
3.35157
3.15889
2.89846
2.57722
11.5777
3.21877
3.68137
3.6639
3.58907
3.48443
3.34011
3.14504
2.88378
2.56539
2.69189
2.47348
2.23677
2.00323
1.77508
1.55371
1.34145
1.14102
0.955239
0.786703
2.58332
2.40681
2.21032
2.01161
1.81395
1.61956
1.431
1.25092
1.08188
0.92613
2.496
2.34352
2.17358
2.00012
1.82677
1.65526
1.48754
1.32579
1.17223
1.0289
2.43223
2.2974
2.14825
1.99409
1.83871
1.68383
1.53123
1.38292
1.24093
1.10717
2.38708
2.2648
2.13064
1.99063
1.84852
1.70597
1.56466
1.42645
1.29326
1.16689
2.35618
2.2428
2.11928
1.98947
1.85701
1.72349
1.59047
1.45971
1.33305
1.21222
2.33636
2.22916
2.11301
1.99034
1.8647
1.73756
1.61041
1.48494
1.36289
1.24598
2.32545
2.22245
2.11121
1.99325
1.87208
1.7491
1.62576
1.50368
1.38458
1.27011
2.32332
2.22347
2.11506
1.99952
1.88053
1.75954
1.63797
1.51743
1.39957
1.286
2.3274
2.23041
2.12279
2.00775
1.88918
1.76847
1.64701
1.52638
1.40819
1.29403
-2.04705
-1.61823
-1.39381
-1.19745
-1.03691
-0.907365
-0.804576
-0.72531
-0.667162
-0.628835
-2.30084
-1.90802
-1.67436
-1.48368
-1.33065
-1.21011
-1.118
-1.05121
-1.00735
-0.985041
-2.42496
-2.08266
-1.85055
-1.66474
-1.51765
-1.40351
-1.31818
-1.25856
-1.2223
-1.20802
-2.44442
-2.14593
-1.92201
-1.7434
-1.60223
-1.49269
-1.4107
-1.35314
-1.31768
-1.30293
-2.37644
-2.11548
-1.90398
-1.73465
-1.59996
-1.49432
-1.41376
-1.35516
-1.31611
-1.29546
-2.24054
-2.01294
-1.8169
-1.65879
-1.5318
-1.43067
-1.35162
-1.29163
-1.24828
-1.22092
-2.05693
-1.85971
-1.68123
-1.53616
-1.41849
-1.3234
-1.24742
-1.18774
-1.14203
-1.11028
-1.84367
-1.67429
-1.51466
-1.38402
-1.27726
-1.19001
-1.11916
-1.06219
-1.01699
-0.984209
-1.61524
-1.47121
-1.33087
-1.21551
-1.1208
-1.04283
-0.978829
-0.926566
-0.884185
-0.85314
-1.3823
-1.26104
-1.13977
-1.03996
-0.957994
-0.890424
-0.834728
-0.788789
-0.750405
-0.719914
-1.15212
-1.05098
-0.947839
-0.863127
-0.79394
-0.737357
-0.691385
-0.654649
-0.625996
-0.601912
-0.929833
-0.846097
-0.759501
-0.688544
-0.630891
-0.583944
-0.545904
-0.515493
-0.491633
-0.472173
-0.719261
-0.650747
-0.578773
-0.519927
-0.472344
-0.433682
-0.402289
-0.376968
-0.356644
-0.339674
-0.5238
-0.468876
-0.409478
-0.361026
-0.322055
-0.290441
-0.264675
-0.243682
-0.226489
-0.211935
-0.347073
-0.303996
-0.255216
-0.215548
-0.183883
-0.158296
-0.137433
-0.120358
-0.106238
-0.0943296
-0.192395
-0.159244
-0.119157
-0.0867054
-0.0610788
-0.0405266
-0.023829
-0.0101726
0.00115696
0.0105721
-0.0625127
-0.0371814
-0.00383721
0.0230025
0.0439145
0.0605145
0.0739184
0.0848496
0.0939371
0.101347
0.040512
0.0602816
0.0888767
0.111762
0.129351
0.143165
0.15425
0.16327
0.170798
0.176831
0.115328
0.131897
0.157764
0.178386
0.194082
0.206317
0.216096
0.224052
0.230724
0.236005
0.161313
0.177084
0.202246
0.222297
0.237534
0.2494
0.258885
0.266608
0.273097
0.278201
-0.394507
-0.0225724
0.0601388
0.0823
0.0871856
0.081942
0.0696058
0.0527989
0.0330342
0.011701
-0.286031
0.0186985
0.0730178
0.0876605
0.0895989
0.082825
0.0698454
0.0527621
0.0329364
0.0116485
-0.182716
0.0462633
0.0821638
0.0927982
0.0919978
0.0839612
0.0703419
0.0529263
0.0329624
0.0116345
-0.0899001
0.0655414
0.0896657
0.0970896
0.0945807
0.0854149
0.0711184
0.0533
0.0331147
0.0116596
-0.00929548
0.0803518
0.0965082
0.101437
0.0974957
0.0872278
0.072193
0.0538902
0.0333952
0.0117236
0.0613109
0.0906977
0.103231
0.106162
0.100849
0.0894363
0.0735803
0.0547029
0.0338057
0.0118264
0.123175
0.0977161
0.109606
0.111466
0.104721
0.0920706
0.0752929
0.0557431
0.0343481
0.0119683
0.176284
0.107805
0.117057
0.117554
0.109176
0.0951547
0.0773409
0.0570147
0.0350238
0.0121493
0.219987
0.116103
0.125906
0.124558
0.114263
0.0987066
0.0797316
0.058521
0.0358339
0.0123698
0.253279
0.128612
0.1366
0.132565
0.120014
0.102738
0.0824695
0.0602636
0.0367794
0.01263
-0.582688
-0.0828155
0.0385418
0.0742803
0.0824761
0.0783528
0.0672191
0.0513579
0.0322979
0.011522
-0.57093
-0.0817036
0.0383187
0.0741666
0.0826598
0.0786691
0.0675324
0.0516033
0.0324508
0.0115748
-0.534108
-0.0659465
0.044384
0.0764542
0.0835747
0.0791418
0.067804
0.0517534
0.0325205
0.0115898
-0.490605
-0.0478916
0.0515721
0.079245
0.0849909
0.0799363
0.0683245
0.0520759
0.0326917
0.0116378
-0.441019
-0.0312299
0.0585966
0.0820718
0.0868389
0.0810414
0.0691047
0.0525796
0.032969
0.0117206
-0.544402
-0.871056
-1.13954
-1.32005
-1.39403
-1.37551
-1.29417
-1.17923
-1.05876
-0.943477
-0.571393
-0.931001
-1.18875
-1.33244
-1.3665
-1.31738
-1.21877
-1.09917
-0.981458
-0.884691
-0.588781
-0.961841
-1.20882
-1.32775
-1.33711
-1.271
-1.16417
-1.04331
-0.927185
-0.839482
-0.598554
-0.967199
-1.20322
-1.30836
-1.30594
-1.23266
-1.12301
-1.00218
-0.885654
-0.797548
-0.611353
-0.977212
-1.20533
-1.30013
-1.28881
-1.20976
-1.0966
-0.971567
-0.844905
-0.727856
3.82949
3.80757
3.78282
3.75827
3.73104
3.70009
3.66448
3.62268
3.5714
3.4912
3.97431
3.96543
3.95589
3.94729
3.9366
3.92287
3.90525
3.88236
3.85121
3.79421
4.09991
4.10067
4.10336
4.10799
4.11125
4.11221
4.11011
4.10371
4.09027
4.05338
4.20511
4.21406
4.22669
4.24205
4.25677
4.26997
4.28096
4.28862
4.29043
4.27061
4.28876
4.3044
4.32514
4.34924
4.37332
4.3966
4.41844
4.43784
4.45247
4.44681
4.34977
4.3708
4.39805
4.42915
4.46074
4.49212
4.52271
4.5516
4.57664
4.58232
4.38742
4.41272
4.44504
4.48153
4.51889
4.55647
4.59376
4.62992
4.66295
4.67723
4.40174
4.43016
4.46611
4.50641
4.54781
4.58972
4.63166
4.67289
4.71145
4.73167
4.39323
4.42351
4.46157
4.50406
4.54775
4.59208
4.63663
4.68067
4.72232
4.74583
4.36251
4.39328
4.43187
4.47486
4.51905
4.5639
4.60898
4.65358
4.69584
4.72006
-0.152221
-0.213467
-0.29124
-0.386887
-0.502764
-0.642172
-0.809421
-1.0091
-1.22877
-1.66587
0.410359
0.322113
0.222491
0.109644
-0.0188363
-0.166211
-0.336368
-0.533442
-0.764688
-1.17711
0.998765
0.888528
0.771704
0.645928
0.508709
0.356705
0.185927
-0.0085788
-0.236592
-0.60053
1.55609
1.4368
1.31342
1.18361
1.04521
0.895147
0.72973
0.544263
0.330038
0.0113898
2.05413
1.93841
1.81928
1.69477
1.56323
1.42214
1.2684
1.09796
0.903383
0.626158
2.48793
2.38367
2.27614
2.16367
2.04508
1.9184
1.78113
1.62988
1.45833
1.22003
2.86231
2.77287
2.68048
2.58367
2.48149
2.37242
2.25443
2.12471
1.97784
1.77627
3.1846
3.1101
3.0335
2.9534
2.86887
2.77865
2.68105
2.57368
2.45182
2.28459
3.46151
3.39953
3.3374
3.27346
3.20646
3.13516
3.05801
2.97284
2.87544
2.73991
3.68922
3.63799
3.58964
3.54232
3.49342
3.44144
3.38484
3.32157
3.24778
3.14128
11.544
3.33755
3.99813
4.03326
4.02999
4.03433
4.04398
4.0489
4.02323
4.06697
11.5145
3.42638
4.00305
4.0353
4.03032
4.03467
4.04803
4.06471
4.0582
4.14799
11.4816
3.50897
4.01366
4.03786
4.03021
4.03418
4.05102
4.0793
4.09801
4.2118
11.4473
3.58326
4.02756
4.04085
4.02953
4.03258
4.05207
4.09006
4.13439
4.25839
11.4135
3.64767
4.04247
4.04382
4.02807
4.02968
4.05096
4.09603
4.1636
4.29152
11.3816
3.70108
4.05635
4.04607
4.02553
4.02527
4.04751
4.09846
4.18618
4.31019
11.353
3.7427
4.06752
4.04686
4.02157
4.01911
4.04147
4.09683
4.20207
4.31403
11.3285
3.77201
4.07459
4.04543
4.01581
4.01096
4.03261
4.09035
4.20895
4.30443
11.3089
3.78868
4.07656
4.04117
4.00792
4.00063
4.02074
4.07865
4.20554
4.28291
11.2945
3.79252
4.07278
4.03364
3.99767
3.98796
4.00571
4.06146
4.18935
4.25148
11.7433
3.34897
3.97037
4.02256
4.02558
4.02336
4.01173
3.97432
3.87086
3.87263
11.7016
3.34109
3.97108
4.02323
4.02591
4.02443
4.01483
3.98134
3.88339
3.87917
11.6614
3.32695
3.97524
4.02515
4.02685
4.02607
4.01869
3.98917
3.89627
3.88219
11.6199
3.31112
3.98195
4.02773
4.02798
4.02827
4.02458
4.00186
3.9203
3.90152
11.575
3.29442
3.99226
4.0308
4.02913
4.03095
4.0325
4.01991
3.95823
3.94774
3.63667
3.50145
3.28066
2.98547
2.61776
2.16505
1.62076
1.00429
0.385595
-0.14005
3.6081
3.46305
3.24141
2.95239
2.59836
2.16835
1.65457
1.06719
0.45346
-0.109579
3.60776
3.44667
3.21581
2.92582
2.57634
2.15758
1.66145
1.09183
0.482427
-0.0988359
3.63727
3.45578
3.21006
2.9125
2.55861
2.1388
1.64516
1.08001
0.473674
-0.107944
3.68781
3.47812
3.21356
2.90564
2.54498
2.12171
1.62798
1.06523
0.461319
-0.120104
)
;

boundaryField
{
    left
    {
        type            zeroGradient;
    }
    right
    {
        type            fixedValue;
        value           uniform 0;
    }
    down
    {
        type            zeroGradient;
    }
    up
    {
        type            zeroGradient;
    }
    cylinder
    {
        type            zeroGradient;
    }
    defaultFaces
    {
        type            empty;
    }
}


// ************************************************************************* //
