/*--------------------------------*- C++ -*----------------------------------*\
  =========                 |
  \\      /  F ield         | OpenFOAM: The Open Source CFD Toolbox
   \\    /   O peration     | Website:  https://openfoam.org
    \\  /    A nd           | Version:  13
     \\/     M anipulation  |
\*---------------------------------------------------------------------------*/
FoamFile
{
    format      ascii;
    class       volVectorField;
    location    "0.0125";
    object      U;
}
// * * * * * * * * * * * * * * * * * * * * * * * * * * * * * * * * * * * * * //

dimensions      [0 1 -1 0 0 0 0];

internalField   nonuniform List<vector> 
1800
(
(1.20142 -1.05994 7.42877e-20)
(1.36085 -1.14034 2.73436e-20)
(1.35928 -1.06953 -8.86362e-19)
(1.35145 -0.99714 5.4796e-19)
(1.34383 -0.931298 1.00883e-18)
(1.33661 -0.871483 3.93335e-19)
(1.3298 -0.816871 -1.93801e-19)
(1.32336 -0.766735 -6.1702e-19)
(1.31749 -0.720112 -2.81042e-19)
(1.30225 -0.675088 -2.05171e-19)
(1.36612 -1.02808 -9.83983e-20)
(1.53558 -1.10866 -1.59682e-18)
(1.52348 -1.03916 8.11202e-21)
(1.50508 -0.968172 -3.1764e-19)
(1.48793 -0.903638 3.73722e-20)
(1.47217 -0.845058 9.80687e-19)
(1.45768 -0.791669 -7.93289e-19)
(1.44434 -0.742837 3.7766e-19)
(1.43212 -0.697798 6.38783e-19)
(1.41301 -0.656208 -3.05196e-19)
(1.52533 -0.971942 1.54418e-19)
(1.70475 -1.0514 4.62175e-19)
(1.68244 -0.98482 7.3986e-19)
(1.65377 -0.916954 -3.37339e-19)
(1.62737 -0.855295 -1.22272e-18)
(1.60331 -0.799339 2.776e-19)
(1.58134 -0.748346 4.81275e-19)
(1.56123 -0.701694 -1.29187e-21)
(1.54281 -0.658652 -4.1139e-21)
(1.51929 -0.619165 -1.67472e-21)
(1.67511 -0.892506 -1.7543e-19)
(1.86421 -0.969608 -5.11087e-19)
(1.83224 -0.907472 -4.32459e-19)
(1.79383 -0.844437 8.89321e-21)
(1.7587 -0.787208 3.61869e-19)
(1.7268 -0.735289 1.10542e-20)
(1.69779 -0.687982 -1.95509e-20)
(1.67133 -0.644698 4.43369e-19)
(1.64714 -0.604765 3.84373e-19)
(1.61972 -0.568504 -1.58236e-19)
(1.81162 -0.791372 2.31581e-19)
(2.00991 -0.864931 5.71387e-19)
(1.96908 -0.808639 -1.3282e-20)
(1.92172 -0.752059 -3.85464e-21)
(1.87856 -0.700731 -1.01357e-18)
(1.83949 -0.654183 7.03676e-21)
(1.80403 -0.611778 8.20091e-19)
(1.77178 -0.57298 2.09486e-19)
(1.74234 -0.537202 -1.29921e-20)
(1.71146 -0.505028 -1.89884e-19)
(1.93121 -0.670773 -2.17585e-20)
(2.13806 -0.739691 1.78765e-18)
(2.08938 -0.690407 1.42186e-18)
(2.03409 -0.641776 -8.85221e-19)
(1.98385 -0.597702 -7.31411e-19)
(1.93845 -0.55775 1.26768e-18)
(1.89731 -0.521362 -8.32014e-19)
(1.85996 -0.488073 -1.02328e-18)
(1.82592 -0.457394 6.53728e-19)
(1.79207 -0.430048 1.82909e-20)
(2.03064 -0.533576 1.02899e-18)
(2.24528 -0.596848 -2.56953e-18)
(2.18993 -0.555387 -4.03518e-18)
(2.12795 -0.516027 1.32641e-18)
(2.07176 -0.480401 1.85937e-18)
(2.02104 -0.448119 -5.09953e-21)
(1.97516 -0.418726 -2.32532e-18)
(1.93354 -0.391838 5.2643e-20)
(1.89566 -0.367075 2.07473e-18)
(1.85939 -0.34519 5.2184e-19)
(2.10731 -0.383256 -6.01858e-19)
(2.3287 -0.439909 1.2328e-18)
(2.26795 -0.406628 3.15777e-18)
(2.20072 -0.377678 9.93402e-20)
(2.13988 -0.351505 -1.1972e-18)
(2.08503 -0.327792 -3.92266e-19)
(2.03546 -0.306202 0)
(1.99053 -0.286452 8.07376e-19)
(1.94969 -0.268275 -5.97037e-20)
(1.91158 -0.252365 -6.91857e-19)
(2.15973 -0.223515 -7.78042e-20)
(2.38593 -0.272435 3.65166e-18)
(2.32107 -0.247539 2.47495e-18)
(2.25028 -0.230015 -1.91422e-18)
(2.18629 -0.214073 -1.3611e-18)
(2.12864 -0.199605 3.57504e-19)
(2.07656 -0.186422 -1.41472e-18)
(2.02938 -0.174358 -1.1358e-18)
(1.98653 -0.163263 1.16464e-18)
(1.94718 -0.153713 9.69142e-19)
(2.18655 -0.0572711 8.13571e-19)
(2.4152 -0.0971537 2.26392e-18)
(2.34783 -0.0821353 4.13846e-19)
(2.27528 -0.0768972 -2.61552e-18)
(2.20973 -0.0715527 -7.23376e-20)
(2.15067 -0.066687 3.3439e-18)
(2.09733 -0.062254 -1.84632e-18)
(2.04902 -0.0581963 -8.33747e-19)
(2.00517 -0.0544783 3.6764e-19)
(1.96522 -0.0515268 -7.51232e-19)
(0.0333005 -0.189616 5.68827e-20)
(0.129925 -0.206355 1.87419e-19)
(0.203606 -0.197791 -3.09862e-21)
(0.271256 -0.188771 2.81073e-21)
(0.332202 -0.180585 -2.57141e-21)
(0.387088 -0.173178 -9.48586e-20)
(0.436658 -0.166443 -3.54763e-20)
(0.481485 -0.160292 7.35919e-20)
(0.52227 -0.154633 -2.34406e-21)
(0.550306 -0.150165 7.21633e-21)
(0.0670296 -0.34325 8.38004e-20)
(0.165165 -0.369538 1.54753e-19)
(0.236677 -0.350444 -1.65422e-19)
(0.302155 -0.330709 -6.216e-20)
(0.361149 -0.312739 -1.29371e-20)
(0.414295 -0.296423 -1.10384e-19)
(0.462315 -0.281551 9.32847e-20)
(0.505763 -0.267946 7.74504e-20)
(0.545312 -0.255421 -6.42208e-20)
(0.572378 -0.246085 1.05763e-20)
(0.124864 -0.489991 4.29426e-20)
(0.225856 -0.525531 3.81634e-19)
(0.293737 -0.496373 9.99553e-20)
(0.35556 -0.466409 3.48332e-19)
(0.411251 -0.439114 5.74277e-20)
(0.461434 -0.414322 -3.69893e-19)
(0.506796 -0.391717 4.33903e-20)
(0.547862 -0.371037 1.31543e-19)
(0.585255 -0.352009 -1.05747e-19)
(0.610637 -0.338084 -3.76098e-20)
(0.205508 -0.626425 -7.18788e-20)
(0.310608 -0.670762 -1.02465e-19)
(0.37343 -0.632217 1.56917e-20)
(0.430159 -0.592734 -6.21889e-20)
(0.481241 -0.55678 -4.89001e-20)
(0.527281 -0.52413 1.8059e-19)
(0.568917 -0.494372 8.21932e-20)
(0.606633 -0.467162 -6.2023e-20)
(0.640989 -0.442151 8.04031e-21)
(0.664004 -0.424025 -2.25324e-21)
(0.307154 -0.749275 0)
(0.417494 -0.801795 5.38965e-20)
(0.473892 -0.75476 6.82097e-19)
(0.524165 -0.706681 -3.17156e-19)
(0.569401 -0.662929 -4.94772e-19)
(0.610177 -0.623224 1.98375e-19)
(0.647072 -0.587062 -4.48234e-20)
(0.680517 -0.554023 -4.51043e-20)
(0.711001 -0.523706 0)
(0.730997 -0.501867 -6.17468e-21)
(0.42749 -0.855486 -7.04679e-20)
(0.544078 -0.915425 4.86575e-19)
(0.592783 -0.860997 2.48721e-19)
(0.635343 -0.805444 1.09946e-19)
(0.673587 -0.754935 -9.36474e-20)
(0.708057 -0.709139 -2.55989e-19)
(0.739259 -0.667473 4.28244e-19)
(0.767568 -0.629454 2.3684e-20)
(0.793385 -0.594649 -2.75801e-19)
(0.809731 -0.569671 -4.37306e-21)
(0.563736 -0.942334 6.38929e-20)
(0.687456 -1.00877 7.18686e-19)
(0.727342 -0.948226 -6.60421e-20)
(0.761076 -0.886479 3.37665e-21)
(0.791301 -0.830392 2.10826e-19)
(0.818514 -0.779595 -3.23842e-19)
(0.843141 -0.733443 -2.93959e-19)
(0.865494 -0.691404 -2.7533e-19)
(0.885882 -0.653051 1.87126e-19)
(0.897932 -0.625562 2.01014e-19)
(0.712721 -1.00755 -8.23826e-20)
(0.844363 -1.07943 -3.62563e-19)
(0.874502 -1.01414 -8.77057e-22)
(0.898482 -0.94758 -8.26578e-20)
(0.919808 -0.887168 2.2535e-19)
(0.938918 -0.832513 6.25791e-19)
(0.956145 -0.782935 4.56884e-19)
(0.971735 -0.737877 -2.94408e-19)
(0.985902 -0.696971 -1.42998e-19)
(0.992908 -0.667584 1.87795e-19)
(0.87102 -1.04946 -3.98957e-19)
(1.01131 -1.12555 -1.63683e-18)
(1.03106 -1.05696 1.26344e-18)
(1.04461 -0.98698 8.41074e-19)
(1.05638 -0.923486 -5.91296e-19)
(1.0667 -0.866061 6.95234e-19)
(1.07579 -0.81401 4.52612e-20)
(1.08377 -0.76678 -7.8473e-19)
(1.09072 -0.724131 -1.69888e-19)
(1.09153 -0.693099 1.80941e-19)
(1.03512 -1.06707 -1.67184e-19)
(1.18472 -1.146 -1.35754e-18)
(1.19381 -1.07554 -4.21037e-19)
(1.19664 -1.00357 6.31917e-19)
(1.19859 -0.938204 5.81339e-19)
(1.19991 -0.878993 -5.7914e-19)
(1.20063 -0.825199 -4.76701e-19)
(1.20065 -0.77625 2.74172e-19)
(1.19968 -0.73201 -2.3534e-19)
(1.19257 -0.697779 -1.7939e-19)
(0.653899 -0.12242 -1.21546e-19)
(0.825069 -0.0941415 2.43102e-19)
(0.896009 -0.0745765 3.61153e-20)
(0.936047 -0.0589017 -3.63443e-20)
(0.959052 -0.0457759 1.8084e-20)
(0.972681 -0.0346673 2.09656e-20)
(0.980922 -0.0252238 1.83923e-20)
(0.985892 -0.0170993 -3.19213e-21)
(0.988725 -0.00993147 -9.86076e-21)
(0.990301 -0.00323944 3.39187e-21)
(0.670402 -0.182022 -3.57317e-20)
(0.832962 -0.123657 -1.06349e-19)
(0.901733 -0.090355 4.92579e-22)
(0.94054 -0.0677193 4.04135e-20)
(0.962736 -0.0508861 8.99601e-20)
(0.975746 -0.0377042 0)
(0.983502 -0.0270444 1.90836e-20)
(0.988109 -0.018165 1.27077e-22)
(0.990696 -0.0104909 5.94281e-22)
(0.992107 -0.00341042 -1.26942e-21)
(0.698445 -0.239785 2.23518e-20)
(0.84489 -0.152858 7.2258e-20)
(0.909455 -0.106104 -4.4802e-20)
(0.946065 -0.0765381 -4.45654e-21)
(0.966989 -0.0559762 -3.71295e-21)
(0.979145 -0.0407042 5.4223e-21)
(0.98629 -0.0288235 0)
(0.990465 -0.0191951 0)
(0.992771 -0.011027 8.17122e-21)
(0.993997 -0.00357444 0)
(0.73747 -0.294555 -9.06956e-21)
(0.860903 -0.18144 -1.57091e-19)
(0.919165 -0.121699 4.78162e-21)
(0.952625 -0.0852934 0)
(0.971812 -0.0610078 -8.1049e-20)
(0.982874 -0.0436425 1.8665e-20)
(0.989279 -0.0305451 0)
(0.992951 -0.0201794 -2.5821e-20)
(0.994938 -0.0115342 0)
(0.995962 -0.00372978 -2.79165e-21)
(0.786698 -0.345262 -1.00342e-20)
(0.881078 -0.209158 -1.23276e-19)
(0.930859 -0.137029 -4.01776e-21)
(0.960224 -0.0939265 0)
(0.977205 -0.0659446 -3.00666e-20)
(0.986927 -0.0464949 -4.05249e-20)
(0.99246 -0.0321926 7.16416e-21)
(0.995556 -0.0211072 2.0095e-21)
(0.997187 -0.0120062 3.67858e-21)
(0.99799 -0.00387433 3.70617e-21)
(0.845084 -0.390917 -2.34516e-19)
(0.905493 -0.235853 1.78674e-19)
(0.944554 -0.152011 2.43319e-21)
(0.968868 -0.102387 -7.85281e-20)
(0.983166 -0.0707531 5.07901e-20)
(0.991299 -0.0492377 -1.97155e-20)
(0.995822 -0.0337493 -5.01355e-20)
(0.998268 -0.0219671 4.24652e-20)
(0.999503 -0.0124365 -4.21717e-22)
(1.00007 -0.0040056 7.4886e-21)
(0.911283 -0.430656 2.52657e-20)
(0.93418 -0.261434 -5.56996e-20)
(0.960305 -0.166591 7.49132e-21)
(0.978569 -0.110636 2.41788e-21)
(0.989693 -0.0754044 5.65467e-20)
(0.995981 -0.0518486 4.92876e-21)
(0.999354 -0.0351985 1.84599e-20)
(1.00107 -0.0227474 -6.77742e-21)
(1.00187 -0.0128178 -6.08261e-21)
(1.00219 -0.00412069 -2.83785e-21)
(0.983584 -0.463824 6.71091e-20)
(0.967051 -0.285493 -4.46246e-20)
(0.978186 -0.180685 0)
(0.98935 -0.118638 -1.22736e-20)
(0.996789 -0.079872 -4.66338e-20)
(1.00096 -0.0543066 4.1107e-21)
(1.00304 -0.036524 5.52599e-20)
(1.00396 -0.0234366 -1.50855e-20)
(1.00428 -0.0131431 3.17429e-22)
(1.00432 -0.00421638 3.01172e-21)
(1.0589 -0.488092 -8.20348e-20)
(1.00332 -0.305572 4.75698e-20)
(0.997934 -0.193248 -5.36441e-20)
(1.00112 -0.12593 8.09628e-21)
(1.00441 -0.0839536 -5.23037e-22)
(1.00623 -0.0565256 5.00361e-20)
(1.00688 -0.037689 -1.99724e-20)
(1.0069 -0.0240178 8.85019e-22)
(1.00671 -0.0134041 -5.36442e-21)
(1.00647 -0.0042899 -9.63672e-21)
(1.12297 -0.505582 1.98634e-21)
(1.03168 -0.324933 4.57463e-20)
(1.01323 -0.205747 4.65997e-20)
(1.01068 -0.132855 8.25173e-20)
(1.01101 -0.0875392 5.78243e-20)
(1.01107 -0.0582862 2.90043e-20)
(1.01055 -0.0385048 7.69422e-21)
(1.0098 -0.0243678 0)
(1.00913 -0.0135371 9.87254e-21)
(1.00861 -0.00432193 -3.18749e-21)
(1.23913 -0.483944 -1.73118e-19)
(1.09601 -0.31828 -1.06134e-19)
(1.04998 -0.205431 1.31618e-19)
(1.03213 -0.133739 -1.47413e-20)
(1.02408 -0.0882055 -1.61507e-20)
(1.01942 -0.0585551 2.20576e-20)
(1.01619 -0.0385047 2.09166e-20)
(1.01385 -0.0242529 -6.27496e-21)
(1.0123 -0.0134195 1.61334e-23)
(1.01131 -0.00426467 3.6283e-21)
(1.29026 -0.428579 3.0997e-20)
(1.14057 -0.293457 -5.2458e-20)
(1.08221 -0.195281 -5.53331e-20)
(1.05351 -0.129053 9.45142e-21)
(1.03803 -0.0855324 -4.67461e-20)
(1.02868 -0.0567436 -3.56237e-20)
(1.02257 -0.0371993 -2.11823e-20)
(1.01851 -0.0233485 2.80019e-21)
(1.01599 -0.012882 -7.09924e-21)
(1.01446 -0.00408249 4.10324e-21)
(1.32949 -0.364693 -2.88218e-20)
(1.17943 -0.260933 -3.05703e-21)
(1.11096 -0.178744 -6.38949e-21)
(1.07321 -0.120095 -3.27778e-36)
(1.05119 -0.0802127 7.63258e-21)
(1.03754 -0.0533384 9.04314e-35)
(1.02871 -0.0349495 -8.56065e-21)
(1.02298 -0.0219016 -4.50039e-34)
(1.0195 -0.0120636 1.96123e-21)
(1.01745 -0.00381538 -5.46484e-21)
(1.35467 -0.303304 -1.24114e-34)
(1.20988 -0.226076 2.462e-20)
(1.13525 -0.158987 1.57416e-20)
(1.09062 -0.108509 0)
(1.06316 -0.0730596 1.50011e-20)
(1.04572 -0.0487333 1.23292e-20)
(1.0344 -0.0319431 1.34985e-20)
(1.02713 -0.0199999 -8.00758e-34)
(1.02276 -0.0110033 5.4149e-21)
(1.02021 -0.00347521 5.58272e-21)
(1.37025 -0.246194 1.93042e-20)
(1.23317 -0.190255 -4.16909e-22)
(1.15523 -0.136935 0)
(1.10557 -0.0948027 0)
(1.0737 -0.0643304 0)
(1.05303 -0.0430587 0)
(1.03953 -0.0282482 -2.29404e-21)
(1.03086 -0.0176799 -9.07263e-34)
(1.02569 -0.00971947 2.05675e-21)
(1.02269 -0.00306678 7.04379e-34)
(1.37947 -0.193794 4.96828e-20)
(1.25054 -0.154401 0)
(1.17119 -0.113349 0)
(1.11796 -0.0794562 0)
(1.08265 -0.0542991 0)
(1.05931 -0.0364676 0)
(1.04396 -0.0239511 4.48632e-21)
(1.0341 -0.0149897 -3.8772e-21)
(1.02823 -0.00823665 2.09157e-21)
(1.02483 -0.00259719 5.21135e-21)
(1.38464 -0.145737 0)
(1.26309 -0.119009 1.16363e-20)
(1.18345 -0.0887875 3.65668e-21)
(1.1278 -0.0628827 0)
(1.08989 -0.0432321 3.27332e-21)
(1.06445 -0.029123 3.11909e-21)
(1.04761 -0.0191494 7.0823e-21)
(1.03678 -0.0119862 1.79204e-21)
(1.03033 -0.00658441 9.92889e-23)
(1.0266 -0.00207526 6.07008e-21)
(1.38733 -0.101261 -8.73816e-21)
(1.27171 -0.0842645 -4.70528e-21)
(1.19233 -0.0636462 5.22233e-21)
(1.13512 -0.0454346 8.43326e-36)
(1.09536 -0.0313836 -5.17521e-21)
(1.06838 -0.0211932 1.58748e-35)
(1.05041 -0.0139493 4.55719e-21)
(1.03883 -0.00873303 1.28793e-20)
(1.03194 -0.00479649 1.97502e-21)
(1.02796 -0.00151119 -5.85322e-21)
(1.38844 -0.0598464 5.33357e-20)
(1.27701 -0.0505556 -1.17373e-20)
(1.19803 -0.0385344 -7.04521e-21)
(1.13991 -0.0276702 0)
(1.09898 -0.0191806 -4.19467e-21)
(1.07098 -0.012977 -3.26999e-21)
(1.05227 -0.0085484 2.16926e-21)
(1.04019 -0.00535312 -1.59473e-21)
(1.03299 -0.00294035 3.92345e-21)
(1.02885 -0.0009268 5.6087e-21)
(1.37352 -0.0130337 0)
(1.26572 -0.0112017 0)
(1.1879 -0.00859741 0)
(1.13 -0.0061961 0)
(1.08895 -0.00430476 0)
(1.06074 -0.00291619 0)
(1.04185 -0.00192223 4.64157e-21)
(1.02965 -0.00120412 -2.05745e-35)
(1.02238 -0.000660775 2.16938e-21)
(1.01819 -0.00020789 5.93552e-21)
(1.8969 -0.0449276 7.23638e-19)
(1.88143 -0.133769 4.41609e-20)
(1.85083 -0.219863 -6.01188e-20)
(1.80598 -0.301442 -3.07521e-19)
(1.74813 -0.376824 -5.2971e-20)
(1.67883 -0.444471 -1.14845e-19)
(1.59991 -0.503051 -4.25472e-19)
(1.51329 -0.55149 8.81332e-20)
(1.4232 -0.588649 0)
(1.32753 -0.624459 9.35748e-20)
(1.81979 -0.0339954 3.01861e-19)
(1.80844 -0.101582 -2.36682e-19)
(1.78601 -0.167311 -1.20156e-19)
(1.75313 -0.229985 -1.27488e-19)
(1.71068 -0.288488 1.45732e-19)
(1.65972 -0.341816 1.92164e-19)
(1.60148 -0.389125 -2.60699e-19)
(1.53696 -0.429794 -2.79368e-20)
(1.46992 -0.462562 1.15509e-20)
(1.39434 -0.500997 4.44453e-20)
(1.7588 -0.0263907 -9.35256e-20)
(1.74982 -0.0792171 2.93624e-19)
(1.73205 -0.130788 1.15861e-19)
(1.70602 -0.180297 -2.78894e-19)
(1.67242 -0.226974 -1.34391e-19)
(1.63213 -0.270109 4.57797e-19)
(1.58612 -0.309069 1.14976e-19)
(1.53522 -0.343366 -1.1263e-19)
(1.48232 -0.371807 -7.35884e-20)
(1.42564 -0.404664 -7.67956e-20)
(1.7107 -0.0204982 -3.9153e-19)
(1.70334 -0.0616555 -1.79339e-19)
(1.68879 -0.101938 1.8236e-19)
(1.66748 -0.14078 4.24076e-20)
(1.64003 -0.17764 -3.78075e-19)
(1.60718 -0.212013 -4.86887e-20)
(1.56977 -0.243438 2.2904e-19)
(1.5286 -0.271549 -2.72162e-20)
(1.48566 -0.295405 5.31176e-20)
(1.44207 -0.322518 1.6405e-20)
(1.67296 -0.0157882 -1.1403e-20)
(1.66673 -0.0475685 2.13951e-19)
(1.65441 -0.0787368 4.69343e-20)
(1.63639 -0.108894 5.31039e-20)
(1.61322 -0.137653 -1.01275e-19)
(1.58556 -0.164647 -2.15779e-19)
(1.55416 -0.189529 3.23387e-20)
(1.51983 -0.212021 -4.83861e-20)
(1.48386 -0.231434 -5.51729e-20)
(1.44932 -0.253166 -4.90298e-20)
(1.64376 -0.0119308 -1.97912e-19)
(1.63832 -0.0359904 -5.10722e-20)
(1.62756 -0.0596301 -7.44915e-20)
(1.61184 -0.0825715 8.54706e-20)
(1.59165 -0.104539 3.73676e-19)
(1.56762 -0.125263 -5.37932e-20)
(1.54041 -0.144483 4.96979e-21)
(1.51083 -0.161989 -1.22337e-19)
(1.47967 -0.177287 -1.82499e-19)
(1.45133 -0.19419 -6.7573e-22)
(1.62178 -0.00868477 -3.62821e-20)
(1.61689 -0.0262147 -1.20139e-19)
(1.60723 -0.0434698 -2.16981e-19)
(1.59311 -0.0602637 -3.20621e-19)
(1.575 -0.0764059 1.50183e-19)
(1.55347 -0.0917043 9.84596e-20)
(1.52914 -0.10597 -5.3618e-20)
(1.50278 -0.119048 1.01918e-19)
(1.4749 -0.130586 -5.27769e-20)
(1.45069 -0.143189 -5.23342e-20)
(1.6061 -0.00586895 8.13987e-20)
(1.6016 -0.0177045 -2.16402e-20)
(1.59269 -0.0293773 1.06308e-20)
(1.57966 -0.0407737 -2.6507e-20)
(1.56297 -0.051773 -2.61383e-20)
(1.54312 -0.0622489 -1.28025e-19)
(1.5207 -0.0720753 -5.46183e-20)
(1.49644 -0.0811433 1.60924e-19)
(1.47065 -0.0892205 -5.14386e-20)
(1.44908 -0.0979694 -4.28979e-20)
(1.59593 -0.00332728 -1.3095e-19)
(1.5917 -0.010062 -4.89622e-20)
(1.5833 -0.0167268 1.97046e-19)
(1.57102 -0.0232687 -5.1422e-20)
(1.55524 -0.0296253 -5.38001e-20)
(1.53646 -0.0357262 1.05783e-19)
(1.51521 -0.0414972 -8.7948e-20)
(1.49218 -0.0468725 7.89184e-20)
(1.46756 -0.0517158 -6.77893e-20)
(1.44746 -0.0570866 -1.96262e-19)
(1.55922 -0.000637542 7.74229e-20)
(1.55566 -0.00190388 7.25094e-20)
(1.54863 -0.0031737 7.34255e-20)
(1.53828 -0.0044453 1.24721e-19)
(1.52488 -0.00571165 -6.11373e-20)
(1.50873 -0.00696031 -9.86613e-20)
(1.4902 -0.00817522 4.44385e-20)
(1.46985 -0.00933619 -3.53507e-22)
(1.44756 -0.0104284 9.8524e-23)
(1.4302 -0.0120012 -8.27816e-22)
(1.30305 0.674934 -3.18347e-20)
(1.31524 0.71794 3.46479e-20)
(1.32196 0.765401 -2.02213e-19)
(1.32861 0.81621 2.906e-19)
(1.3357 0.871138 3.77185e-19)
(1.34317 0.9311 -1.83701e-19)
(1.35109 0.996949 -6.10643e-19)
(1.35941 1.06941 -1.53796e-19)
(1.36307 1.14262 -6.96338e-19)
(1.18581 1.09494 -7.62606e-20)
(1.41492 0.654113 0)
(1.43165 0.696159 3.90834e-19)
(1.44416 0.741641 8.34043e-19)
(1.45736 0.790838 -4.31227e-19)
(1.4718 0.844433 -1.09623e-18)
(1.48757 0.903136 -1.56018e-19)
(1.50481 0.967687 -1.94605e-19)
(1.52357 1.03874 7.12389e-19)
(1.53797 1.11029 1.66018e-18)
(1.35014 1.06788 7.77931e-19)
(1.52105 0.618303 7.63419e-20)
(1.54269 0.658264 0)
(1.56133 0.701365 -8.39525e-20)
(1.58128 0.748066 4.47763e-19)
(1.60314 0.799053 6.16322e-20)
(1.62712 0.85499 -1.40939e-18)
(1.65352 0.916571 8.78246e-19)
(1.68249 0.984391 7.79047e-19)
(1.70738 1.05236 -1.56554e-18)
(1.50975 1.01656 -3.75139e-19)
(1.62086 0.568022 -2.56491e-20)
(1.64691 0.604931 -4.28093e-20)
(1.6713 0.644828 1.72958e-19)
(1.69766 0.688071 -2.15815e-19)
(1.72658 0.735303 -1.13057e-18)
(1.75841 0.787145 -8.16591e-19)
(1.79353 0.844244 1.0132e-18)
(1.83221 0.907136 6.95151e-19)
(1.86707 0.969641 0)
(1.66068 0.941645 0)
(1.71208 0.504715 -7.39236e-19)
(1.742 0.537669 -1.02251e-18)
(1.77158 0.573392 -4.48782e-19)
(1.80377 0.612122 -4.67998e-20)
(1.83916 0.654434 0)
(1.87817 0.700884 1.90956e-19)
(1.92131 0.752056 2.24002e-19)
(1.96893 0.808405 2.77822e-19)
(2.01295 0.863627 -4.35009e-19)
(1.79907 0.844445 -1.18101e-19)
(1.79233 0.429862 7.85854e-19)
(1.82551 0.458049 -7.07177e-20)
(1.85963 0.488682 -9.24577e-19)
(1.89694 0.521901 0)
(1.93801 0.558199 0)
(1.98335 0.59805 0)
(2.03356 0.641957 1.35726e-18)
(2.08907 0.690267 -1.91556e-18)
(2.14114 0.736451 -2.52273e-18)
(1.92126 0.72689 4.71809e-19)
(1.85942 0.345143 -1.11767e-18)
(1.89526 0.367877 -2.26833e-18)
(1.93315 0.392615 -3.72905e-21)
(1.97472 0.419446 3.976e-19)
(2.02054 0.448767 -5.92138e-20)
(2.07118 0.480959 1.03732e-18)
(2.12731 0.516427 -5.63707e-19)
(2.18941 0.555386 -2.48174e-18)
(2.24814 0.59084 1.8243e-19)
(2.02393 0.591479 1.86608e-19)
(1.9115 0.252468 -9.63663e-19)
(1.94934 0.269208 3.30608e-20)
(1.99017 0.287389 3.60639e-19)
(2.03504 0.30711 -3.17685e-19)
(2.08455 0.328665 4.32544e-19)
(2.1393 0.352338 1.4821e-18)
(2.20003 0.378427 -3.55989e-19)
(2.26722 0.407005 -1.46285e-18)
(2.33084 0.430081 7.82156e-19)
(2.10413 0.441202 2.96918e-19)
(1.94709 0.153943 3.19655e-19)
(1.9863 0.164297 1.55323e-19)
(2.02913 0.175427 -4.24686e-19)
(2.07627 0.187495 -7.35553e-19)
(2.12831 0.200695 1.73924e-19)
(2.18591 0.21521 2.10761e-19)
(2.24983 0.231265 -1.69691e-18)
(2.32057 0.248994 7.8416e-19)
(2.38711 0.258174 6.45001e-19)
(2.1587 0.279451 -5.79929e-19)
(1.96518 0.0518237 7.14549e-19)
(2.00509 0.0555565 -9.92435e-19)
(2.04894 0.0593153 2.6456e-19)
(2.09724 0.0633746 1.98936e-18)
(2.15058 0.0678113 1.16472e-18)
(2.20963 0.0726798 -2.47997e-18)
(2.27519 0.0780695 -3.00249e-18)
(2.34775 0.0848358 2.00892e-18)
(2.4155 0.0814174 -2.04717e-20)
(2.18618 0.111888 -3.425e-19)
(0.550744 0.15259 -3.50362e-19)
(0.524228 0.15723 -3.15031e-19)
(0.483752 0.162832 2.11031e-19)
(0.438485 0.168992 -7.26814e-19)
(0.388856 0.175732 -1.16571e-19)
(0.333948 0.183154 6.66638e-19)
(0.272996 0.191369 2.43521e-19)
(0.205235 0.200481 -2.16252e-19)
(0.131496 0.209617 -6.26805e-20)
(0.0339917 0.19415 6.29489e-20)
(0.572755 0.248374 2.84213e-19)
(0.54721 0.258202 4.39734e-19)
(0.507989 0.270568 4.64389e-20)
(0.464126 0.284193 -2.24091e-19)
(0.416069 0.299057 -7.10303e-19)
(0.362927 0.315373 8.67919e-20)
(0.303958 0.33336 6.02344e-19)
(0.238417 0.353222 -8.00663e-20)
(0.166948 0.373309 5.01012e-20)
(0.0670334 0.349697 1.00602e-20)
(0.610894 0.340186 -3.37581e-19)
(0.587049 0.354924 -3.98466e-19)
(0.550004 0.373691 3.3238e-19)
(0.508551 0.394397 3.42212e-19)
(0.463174 0.416976 -7.81182e-20)
(0.413022 0.441748 -3.72493e-19)
(0.357388 0.469039 -1.0533e-19)
(0.295564 0.49915 2.6306e-19)
(0.227879 0.52969 7.20129e-21)
(0.123764 0.498451 1.3837e-20)
(0.664073 0.425892 2.1282e-19)
(0.642622 0.445148 5.7601e-20)
(0.608634 0.4698 -2.62646e-19)
(0.570561 0.497037 3.23463e-19)
(0.528931 0.526744 -1.79303e-19)
(0.482947 0.559344 1.26043e-19)
(0.431957 0.595266 9.41375e-20)
(0.375298 0.634901 -2.91218e-19)
(0.312866 0.675167 -1.72216e-19)
(0.202926 0.637079 6.80312e-20)
(0.730805 0.503467 -8.43829e-20)
(0.712401 0.52674 -4.79954e-20)
(0.682305 0.556607 -5.2942e-20)
(0.648532 0.589662 -5.50016e-20)
(0.611662 0.625742 1.08567e-20)
(0.570966 0.665361 -3.35735e-19)
(0.525856 0.709041 4.46397e-19)
(0.475731 0.757257 3.29416e-19)
(0.419951 0.806299 2.72941e-19)
(0.302773 0.762372 2.77876e-19)
(0.809204 0.570996 9.8456e-20)
(0.79446 0.597687 6.10129e-20)
(0.769045 0.631953 4.03848e-19)
(0.740443 0.669968 1.08587e-19)
(0.709285 0.71151 2.44279e-20)
(0.674919 0.757176 -1.37447e-19)
(0.636835 0.807566 9.54506e-20)
(0.594504 0.863225 1.25087e-19)
(0.546661 0.919881 2.46488e-19)
(0.42107 0.871331 2.11133e-19)
(0.896989 0.626656 -1.12302e-19)
(0.886502 0.656077 2.3627e-20)
(0.866527 0.693804 -7.81024e-20)
(0.843929 0.735798 2.51763e-19)
(0.819373 0.781776 1.14708e-19)
(0.792295 0.832393 2.7038e-19)
(0.762268 0.888308 -1.20649e-19)
(0.728846 0.950114 -1.01432e-19)
(0.690072 1.01305 -9.04767e-20)
(0.555141 0.961277 3.14767e-19)
(0.991469 0.668599 1.06493e-19)
(0.985877 0.700003 6.69151e-20)
(0.97215 0.740179 -4.46897e-19)
(0.956398 0.78512 -9.60694e-20)
(0.939291 0.834462 4.63081e-20)
(0.92036 0.888883 -2.05873e-19)
(0.899278 0.949068 2.00304e-20)
(0.875694 1.01563 -7.43222e-20)
(0.846912 1.0834 1.78225e-20)
(0.701949 1.02997 -2.74766e-19)
(1.08947 0.694468 3.49005e-20)
(1.0898 0.72734 -3.14429e-19)
(1.08338 0.769043 -1.36318e-21)
(1.07537 0.815999 1.32841e-19)
(1.06648 0.867722 -6.96778e-20)
(1.0564 0.924853 1.95124e-19)
(1.04493 0.988072 2.0671e-19)
(1.03186 1.05799 -5.41106e-19)
(1.01372 1.1291 -8.1869e-20)
(0.858229 1.07574 -4.15806e-19)
(1.18683 0.69984 -1.20866e-19)
(1.19581 0.734621 -1.30821e-19)
(1.19825 0.77786 2.24898e-19)
(1.19887 0.826543 2.02224e-19)
(1.19875 0.880048 1.4794e-19)
(1.19791 0.939008 -1.46178e-19)
(1.19639 1.00413 -1.22842e-19)
(1.19415 1.07604 9.66055e-20)
(1.18696 1.14898 -3.76943e-19)
(1.02063 1.09755 -3.29442e-19)
(0.448275 0.0238605 3.13583e-19)
(1.13695 0.0257287 -1.0629e-19)
(0.992696 0.0298232 -1.91701e-20)
(0.985293 0.0348688 0)
(0.97594 0.0419959 4.15216e-20)
(0.961408 0.0513789 4.65846e-20)
(0.937847 0.0632201 5.87289e-20)
(0.897291 0.0779434 1.20115e-19)
(0.82721 0.0968738 -1.59854e-19)
(0.65472 0.124808 -1.92917e-19)
(0.448325 0.0242291 2.39755e-20)
(1.13779 0.0254598 -5.05844e-19)
(0.993858 0.0316045 -1.71991e-21)
(0.987059 0.0371329 -4.27019e-20)
(0.978389 0.0452944 2.02749e-20)
(0.964629 0.0566421 -2.5448e-20)
(0.94199 0.0721094 -1.46288e-19)
(0.902777 0.0937123 0)
(0.834899 0.12636 3.78098e-19)
(0.671456 0.184385 -3.21772e-19)
(0.448314 0.0245042 -5.74867e-19)
(1.13885 0.0251273 -2.39617e-19)
(0.995068 0.0332502 1.67542e-19)
(0.988967 0.0392561 2.86241e-20)
(0.981132 0.0484754 -5.04427e-20)
(0.968393 0.0618233 -1.32107e-21)
(0.947142 0.0809549 -1.03874e-19)
(0.91026 0.109425 -1.13836e-20)
(0.846583 0.155523 -2.173e-22)
(0.699923 0.242069 8.02074e-19)
(0.448243 0.0247237 4.52542e-19)
(1.14011 0.0247704 5.81761e-19)
(0.996315 0.0347421 1.72357e-19)
(0.991024 0.0412106 5.92489e-20)
(0.984179 0.051508 -2.74828e-20)
(0.972714 0.0668821 -3.02723e-20)
(0.953321 0.0896936 1.54404e-19)
(0.919738 0.124962 -3.75505e-21)
(0.862332 0.184074 -4.58961e-19)
(0.739527 0.296697 8.14397e-20)
(0.448111 0.0249355 -2.83206e-19)
(1.14153 0.0244265 1.14066e-19)
(0.997578 0.0360541 -1.57407e-19)
(0.993235 0.0429689 3.65246e-20)
(0.987543 0.0543651 0)
(0.977606 0.0717831 0)
(0.960544 0.0982705 1.30846e-19)
(0.931215 0.140224 1.59124e-21)
(0.882247 0.211784 -2.13363e-19)
(0.789448 0.347191 1.18221e-19)
(0.447913 0.0251954 -1.58573e-19)
(1.14307 0.0241294 3.61683e-19)
(0.998834 0.0371485 -4.25841e-19)
(0.995609 0.0445053 -7.18436e-20)
(0.991235 0.0570241 -1.87253e-21)
(0.983083 0.076497 1.19414e-19)
(0.968831 0.10664 2.01308e-19)
(0.944721 0.155133 -4.9878e-22)
(0.906429 0.238513 3.42337e-19)
(0.848587 0.392559 -2.49978e-19)
(0.447639 0.0255659 -3.24738e-21)
(1.14465 0.0239069 -2.82977e-19)
(1.00005 0.0379731 -9.71036e-20)
(0.998159 0.0457978 -1.50479e-19)
(0.995266 0.0594677 4.5458e-21)
(0.989155 0.0810009 -2.22974e-21)
(0.978208 0.11477 -1.03948e-20)
(0.960318 0.169632 -3.3481e-19)
(0.934926 0.264137 2.58931e-19)
(0.915534 0.43195 -5.50367e-19)
(0.447273 0.0261144 3.07999e-19)
(1.1462 0.0237781 -5.97245e-19)
(1.00121 0.0384574 2.10355e-19)
(1.0009 0.0468324 7.37867e-20)
(0.999646 0.0616837 1.961e-21)
(0.995836 0.0852743 -1.34837e-19)
(0.988707 0.12263 -1.07076e-19)
(0.978086 0.183643 5.92332e-19)
(0.967694 0.288267 1.00457e-20)
(0.988538 0.464907 8.66196e-19)
(0.446793 0.0269198 -4.04839e-19)
(1.14763 0.0237533 4.57647e-19)
(1.00227 0.0385133 1.43271e-19)
(1.00386 0.0475931 -7.66576e-20)
(1.00437 0.0636074 -1.68584e-19)
(1.00311 0.0891279 2.47864e-21)
(1.0003 0.129738 -1.47378e-19)
(0.997936 0.195991 7.60944e-19)
(1.00446 0.307989 -6.45982e-21)
(1.06523 0.488723 -1.19469e-18)
(0.446149 0.028001 1.38262e-19)
(1.14887 0.0238534 1.06696e-18)
(1.00328 0.0380417 9.45935e-20)
(1.00691 0.0479409 -1.42497e-19)
(1.00886 0.065029 -1.54957e-19)
(1.00951 0.0924421 -1.12704e-19)
(1.00976 0.136471 -2.6184e-19)
(1.0132 0.208451 -7.30492e-19)
(1.03283 0.327723 -4.00533e-19)
(1.12878 0.508146 -1.48648e-18)
(0.449734 0.0277463 -3.86967e-19)
(1.15027 0.0242761 -2.494e-19)
(1.00595 0.0365361 -6.75894e-20)
(1.01159 0.0473487 9.4779e-20)
(1.01653 0.0649251 1.08633e-19)
(1.02204 0.0928318 -7.54804e-20)
(1.03069 0.137114 2.42545e-19)
(1.04922 0.207815 -7.23422e-19)
(1.09498 0.319995 -2.78205e-19)
(1.23909 0.484557 8.53047e-19)
(0.44942 0.0254551 3.21724e-19)
(1.15177 0.0244297 -2.79264e-20)
(1.00996 0.0341624 1.71864e-20)
(1.01693 0.0452948 1.51205e-19)
(1.02501 0.0626705 1.6893e-19)
(1.03546 0.0899103 2.23482e-19)
(1.05179 0.132378 5.04996e-20)
(1.08155 0.197939 3.86472e-19)
(1.14022 0.295671 4.84693e-19)
(1.2916 0.431055 -5.53547e-20)
(0.449298 0.0230454 -3.78625e-19)
(1.15324 0.0234672 -5.30538e-19)
(1.01369 0.0315433 -4.16862e-20)
(1.02222 0.0422698 1.99598e-21)
(1.03321 0.0587627 4.66667e-34)
(1.04817 0.0842583 -1.25365e-20)
(1.07118 0.123199 -8.06351e-34)
(1.11007 0.181241 2.84694e-20)
(1.17872 0.262823 -6.44074e-20)
(1.33034 0.366609 -5.2624e-20)
(0.449314 0.0203947 4.33037e-19)
(1.15467 0.0216542 -4.88849e-33)
(1.01704 0.0285053 3.94168e-20)
(1.02718 0.0384243 -5.4268e-20)
(1.04082 0.0535775 -6.70908e-20)
(1.05973 0.0766987 -7.68844e-20)
(1.08831 0.111315 -1.02851e-33)
(1.13412 0.161228 -1.61418e-19)
(1.2089 0.227632 -1.98539e-19)
(1.35512 0.304885 1.07521e-19)
(0.449413 0.017469 0)
(1.15602 0.0191706 -2.25131e-34)
(1.02001 0.0250078 0)
(1.03166 0.0338349 0)
(1.04763 0.0472608 0)
(1.06991 0.0675062 0)
(1.103 0.0972593 -6.52025e-34)
(1.15387 0.138881 0)
(1.23198 0.191538 -2.68834e-20)
(1.37032 0.247527 6.72716e-20)
(0.44956 0.0142604 3.89653e-19)
(1.15727 0.0161571 -2.37723e-20)
(1.02257 0.0210718 3.58174e-20)
(1.03556 0.0285923 0)
(1.0535 0.0399754 0)
(1.07855 0.0569627 1.04179e-20)
(1.11518 0.0815201 4.94115e-20)
(1.16962 0.11497 -2.07466e-20)
(1.24919 0.155437 -4.12519e-20)
(1.37921 0.194881 2.36873e-19)
(0.449732 0.0107737 3.0318e-19)
(1.15839 0.0127334 1.69724e-20)
(1.02469 0.0167573 3.43934e-20)
(1.03878 0.0228012 -1.63503e-20)
(1.05831 0.031894 -2.30983e-20)
(1.08555 0.0453441 -1.89965e-20)
(1.12484 0.0645208 -3.72149e-20)
(1.1817 0.0900643 -6.43637e-20)
(1.26162 0.119812 -8.46807e-20)
(1.38411 0.146582 1.61261e-19)
(0.449924 0.0070203 -5.14239e-19)
(1.15937 0.00901096 -9.04493e-19)
(1.02636 0.0121504 3.23183e-20)
(1.04126 0.016578 -3.75807e-21)
(1.06198 0.0231946 6.83029e-35)
(1.09084 0.0329135 1.11717e-20)
(1.13202 0.0466217 -1.45617e-33)
(1.19044 0.064566 -2.10709e-20)
(1.27016 0.0848375 2.72068e-20)
(1.38659 0.101866 3.58557e-20)
(0.450125 0.0032145 5.15882e-19)
(1.16017 0.00536238 -1.335e-20)
(1.02751 0.00740062 3.21081e-20)
(1.0429 0.010139 8.04663e-21)
(1.06443 0.0141875 1.19322e-20)
(1.09434 0.0201025 2.70646e-20)
(1.13673 0.0283795 1.96605e-20)
(1.19606 0.0390764 1.8221e-21)
(1.27543 0.0508883 -1.84357e-20)
(1.38762 0.0601979 1.58813e-19)
(0.446249 -0.000460681 3.92261e-19)
(1.14908 0.000372803 -2.4987e-33)
(1.01698 0.00175674 3.14353e-20)
(1.0325 0.00227887 0)
(1.05419 0.0031871 0)
(1.08432 0.0045131 1.15717e-20)
(1.12685 0.00636121 -1.00505e-35)
(1.18597 0.008735 -2.12093e-20)
(1.26422 0.0113103 -4.09348e-20)
(1.37278 0.013174 8.07307e-20)
(1.33463 0.615928 -2.29448e-19)
(1.42265 0.590181 -3.55999e-19)
(1.51328 0.552586 0)
(1.59925 0.504 4.48431e-20)
(1.67802 0.445183 3.04203e-19)
(1.74736 0.377289 -2.41922e-19)
(1.80533 0.301694 1.13808e-18)
(1.85034 0.219954 8.69937e-21)
(1.88113 0.133753 -4.50004e-19)
(1.8968 0.0448574 3.25613e-19)
(1.39616 0.495702 7.02678e-20)
(1.46672 0.465559 1.51267e-19)
(1.53668 0.430718 1.14979e-20)
(1.60133 0.389634 1.35532e-19)
(1.65964 0.342123 -1.5058e-19)
(1.71055 0.288702 -4.55627e-19)
(1.75298 0.23017 2.89341e-21)
(1.78586 0.167498 6.95454e-19)
(1.80833 0.101785 -1.43808e-20)
(1.81975 0.0342081 -5.3174e-19)