/*--------------------------------*- C++ -*----------------------------------*\
  =========                 |
  \\      /  F ield         | OpenFOAM: The Open Source CFD Toolbox
   \\    /   O peration     | Website:  https://openfoam.org
    \\  /    A nd           | Version:  13
     \\/     M anipulation  |
\*---------------------------------------------------------------------------*/
FoamFile
{
    format      ascii;
    class       surfaceScalarField;
    location    "4.7";
    object      phi;
}
// * * * * * * * * * * * * * * * * * * * * * * * * * * * * * * * * * * * * * //

dimensions      [0 3 -1 0 0 0 0];

internalField   nonuniform List<scalar> 
3485
(
-0.000929539
0.00283507
-0.00190553
-0.00222285
0.00605622
-0.00476291
-0.00251585
0.00714903
-0.00685603
-0.000553536
0.00626585
-0.00822817
0.00482676
0.00346023
-0.00884053
0.0147184
-0.00127825
-0.00861342
0.0302836
-0.00813105
-0.00743412
0.0523095
-0.0168016
-0.00522432
0.0808805
-0.0266464
-0.00192459
-0.0307169
0.000973997
0.110623
-0.000492021
0.00332709
-0.000422172
0.00598637
0.00153826
0.0051886
0.00671327
0.00109085
0.0163573
-0.00618376
0.0315682
-0.0164892
0.0529323
-0.0294951
0.0807541
-0.0446234
0.115145
-0.0610376
-0.0720154
0.156444
0.000149614
0.00317748
0.00208702
0.00404896
0.00726424
1.13808e-05
0.017154
-0.00879889
0.0328473
-0.0218771
0.0548782
-0.0385201
0.0829453
-0.0575621
0.115938
-0.0776165
0.152448
-0.0975472
-0.11382
0.194253
0.000713681
0.0024638
0.00471418
4.84632e-05
0.0137705
-0.00904493
0.0291248
-0.0241532
0.051332
-0.0440842
0.0797603
-0.0669484
0.112712
-0.0905134
0.147838
-0.112743
0.182513
-0.132222
-0.147825
0.216518
0.0015389
0.000924896
0.00818467
-0.00659731
0.0216372
-0.0224975
0.04258
-0.045096
0.0701193
-0.0716236
0.101894
-0.0987228
0.134828
-0.123448
0.166
-0.143915
0.193207
-0.159428
-0.170462
0.215844
0.00264406
-0.00171916
0.0123556
-0.0163088
0.0302297
-0.0403716
0.0554301
-0.0702964
0.0851041
-0.101298
0.115489
-0.129107
0.143259
-0.151218
0.166337
-0.166993
0.184063
-0.177155
-0.18305
0.196651
0.00392713
-0.00564629
0.0166909
-0.0290726
0.0379075
-0.0615882
0.0646053
-0.0969942
0.0923921
-0.129084
0.117445
-0.15416
0.137636
-0.171409
0.152596
-0.181953
0.163084
-0.187643
-0.190332
0.170366
0.00521925
-0.0108655
0.0203614
-0.0442148
0.0428633
-0.08409
0.0678914
-0.122022
0.0908691
-0.152062
0.10923
-0.172521
0.122506
-0.184685
0.131518
-0.190965
0.1375
-0.193625
-0.194262
0.14143
0.00629458
-0.0171601
0.0225899
-0.0605102
0.0440808
-0.105581
0.0652263
-0.143168
0.0824989
-0.169335
0.0948862
-0.184908
0.10301
-0.192809
0.10807
-0.196025
0.111151
-0.196706
-0.196058
0.112947
0.0069589
-0.024119
0.0229692
-0.0765205
0.041704
-0.124316
0.0581288
-0.159593
0.0701067
-0.181313
0.0777247
-0.192526
0.082051
-0.197135
0.0842494
-0.198223
0.0851747
-0.197632
0.0852783
-0.196162
-0.00332922
-0.0104603
0.0137895
-0.0110432
-0.0188747
0.0265887
-0.0211332
-0.0215198
0.0316098
-0.0322262
-0.0222477
0.0333406
-0.0435447
-0.0226739
0.0339924
-0.054712
-0.0231031
0.0342703
-0.0655481
-0.0233836
0.0342198
-0.0759425
-0.0233386
0.033733
-0.0858122
-0.0228696
0.0327393
-0.0220658
-0.095169
0.0314226
-0.00433377
-0.00612655
-0.0134519
-0.00975661
-0.0250193
-0.00995235
-0.0377626
-0.00950443
-0.0510052
-0.00943126
-0.0643725
-0.00973576
-0.0776287
-0.0101275
-0.0905969
-0.0103703
-0.103144
-0.0103225
-0.00990677
-0.115303
-0.00380079
-0.00232575
-0.0116854
-0.00187198
-0.021893
0.000255211
-0.0335731
0.00217564
-0.0461568
0.00315249
-0.0592298
0.00333728
-0.0724606
0.00310322
-0.0855864
0.00275549
-0.0983895
0.0024806
0.00249638
-0.110793
-0.00220721
-0.000118545
-0.00699951
0.00292033
-0.0135739
0.00682958
-0.0216089
0.0102107
-0.0308776
0.0124211
-0.0410142
0.0134739
-0.0515984
0.0136874
-0.0622517
0.0134088
-0.07266
0.0128889
0.0123724
-0.082536
-0.000635387
0.000516842
-0.00187222
0.00415716
-0.00383758
0.00879494
-0.00681165
0.0131847
-0.0109567
0.0165662
-0.0161716
0.0186888
-0.0221297
0.0196455
-0.0283974
0.0196765
-0.0345543
0.0190458
0.0179011
-0.040083
0.000351037
0.000165805
0.00139614
0.00311206
0.0028114
0.00737968
0.00413161
0.0118645
0.00493441
0.0157634
0.00500162
0.0186216
0.00436744
0.0202797
0.00328737
0.0207565
0.00222461
0.0201086
0.0182858
0.00183989
0.000454517
-0.000288712
0.00192844
0.00163814
0.00429694
0.00501117
0.00725487
0.00890661
0.010406
0.0126122
0.013399
0.0156286
0.016024
0.0176547
0.018262
0.0185185
0.020314
0.0180566
0.0158537
0.0227461
-3.05466e-05
-0.000258166
0.000408316
0.00119928
0.00159095
0.00382854
0.00352232
0.00697524
0.00601002
0.0101245
0.00877254
0.0128661
0.0115532
0.0148741
0.0142262
0.0158455
0.0169398
0.015343
0.0125547
0.0202387
-0.000779176
0.000521011
-0.00198585
0.00240594
-0.00289038
0.00473308
-0.00311154
0.00719639
-0.00253064
0.00954359
-0.00119732
0.0115328
0.000759371
0.0129174
0.00322455
0.0133803
0.00622809
0.0123395
0.00854181
0.010241
-0.00138452
-0.00374149
-0.00586444
-0.00689622
-0.00619315
-0.00327376
0.00220953
0.0103655
0.0207804
0.0302962
-0.117602
-0.177568
0.200001
-0.0756091
0.326392
-0.368385
-0.0776048
0.844253
-0.842257
-0.047212
0.62983
-0.660223
0.0401686
0.0985452
-0.185926
0.106777
-0.29189
0.225281
0.160545
-0.505088
0.451321
0.196262
-0.480821
0.445103
0.216172
-0.464129
0.444219
-0.313431
0.30421
-0.153893
-0.138978
-0.112329
0.284827
-0.0883803
0.820304
-0.0317915
0.573241
0.0681741
-0.00142036
0.137111
-0.360827
0.186995
-0.554973
0.219417
-0.513243
0.234393
-0.479105
-0.318728
-0.165479
-0.0842918
-0.129045
0.248393
-0.066379
0.757639
0.00752421
0.499338
0.101888
-0.0957846
0.170139
-0.429078
0.214342
-0.599175
0.242142
-0.541042
0.251979
-0.488942
-0.320142
-0.143911
-0.0229167
-0.120583
0.225065
-0.0293122
0.666368
0.0608743
0.409151
0.140485
-0.175395
0.204108
-0.492701
0.241655
-0.636722
0.263796
-0.563184
0.268452
-0.493598
-0.31783
-0.0917671
0.0287674
-0.083236
0.216534
0.0146874
0.568445
0.112051
0.311788
0.180516
-0.24386
0.236911
-0.549096
0.267652
-0.667463
0.283792
-0.579324
0.283408
-0.493213
-0.312034
-0.0244825
0.0550897
-0.0205879
0.212639
0.0676154
0.480241
0.159192
0.220211
0.218833
-0.3035
0.26694
-0.597204
0.291147
-0.69167
0.301594
-0.589771
0.29652
-0.488139
-0.303057
0.0360895
0.0417463
0.0530926
0.195636
0.124591
0.408743
0.202057
0.142745
0.253354
-0.354797
0.293111
-0.636961
0.311305
-0.709863
0.316788
-0.595254
0.307473
-0.478825
-0.291321
0.0692822
-0.00729713
0.117048
0.14787
0.177567
0.348224
0.239291
0.0810205
0.282558
-0.398064
0.314518
-0.668922
0.327568
-0.722913
0.329065
-0.596751
0.316054
-0.465814
-0.277323
0.0775632
-0.0746193
0.155874
0.0695595
0.21705
0.287048
0.268825
0.0292457
0.305607
-0.434846
0.330683
-0.693997
0.339709
-0.731939
0.338262
-0.595304
0.322166
-0.449719
-0.261575
0.0849926
-0.129316
0.165778
-0.0112256
0.238641
0.214184
0.291979
-0.0240918
0.321922
-0.464789
0.341531
-0.713607
0.348075
-0.738483
0.344505
-0.591733
0.325847
-0.431061
-0.244546
0.352106
-0.129652
-0.35177
0.378529
-0.0376493
0.495236
0.0974775
0.635818
-0.164674
0.699372
-0.528343
0.696096
-0.71033
0.651374
-0.693761
0.59282
-0.53318
0.522724
-0.360965
-0.194013
0.600698
-0.124022
-0.606328
0.593639
-0.0305901
0.6783
0.0128168
0.764601
-0.250974
0.769234
-0.532977
0.724601
-0.665697
0.659009
-0.628169
0.589562
-0.463734
0.514373
-0.285775
-0.141457
0.691368
-0.10974
-0.70565
0.707984
-0.0472062
0.777676
-0.0568745
0.798722
-0.272021
0.763513
-0.497769
0.715116
-0.617299
0.652207
-0.565261
0.580617
-0.392143
0.502818
-0.207976
-0.0875449
0.714387
-0.0981588
-0.725969
0.742865
-0.0756841
0.784728
-0.0987379
0.782773
-0.270065
0.75922
-0.474216
0.712743
-0.570822
0.635515
-0.488033
0.550574
-0.307202
0.468834
-0.126236
-0.0357879
0.717783
-0.0945471
-0.721395
0.739988
-0.0978892
0.762885
-0.121635
0.765033
-0.272213
0.739333
-0.448515
0.668249
-0.499739
0.571001
-0.390785
0.482199
-0.2184
0.40997
-0.0540075
0.00527813
0.715008
-0.0964527
-0.713103
0.726975
-0.109856
0.740668
-0.135328
0.738662
-0.270207
0.6901
-0.399953
0.5891
-0.398738
0.478188
-0.279872
0.391755
-0.131968
0.334436
0.00331204
0.0323437
0.705762
-0.0974045
-0.70481
0.706061
-0.110155
0.709084
-0.138351
0.680964
-0.242087
0.584567
-0.303556
0.449015
-0.263187
0.335392
-0.16625
0.267388
-0.0639639
0.23918
0.0315203
0.0395406
0.666925
-0.0845348
-0.679795
0.650294
-0.0935247
0.627722
-0.115778
0.544707
-0.159072
0.400803
-0.159652
0.261925
-0.124308
0.174095
-0.0784199
0.137168
-0.0270371
0.139856
0.0288322
0.0291665
0.532539
-0.0485759
-0.568498
0.490091
-0.0510764
0.421326
-0.0470131
0.30237
-0.0401169
0.177298
-0.0345795
0.0893334
-0.0363439
0.0404119
-0.0294984
0.0262364
-0.0128616
0.0442776
0.010791
0.011707
0.209271
-0.257847
0.158195
0.111182
0.0710651
0.0364856
0.000141703
-0.0293567
-0.0422183
-0.0314273
0.538586
0.0740348
-0.527342
0.55073
0.100802
0.565721
0.126439
0.580876
0.155211
0.595902
0.181625
0.604539
0.207208
0.590129
0.230927
0.547573
0.236809
0.451873
0.252144
0.210726
0.520105
0.0625172
-0.508588
0.534413
0.0864947
0.551034
0.109818
0.572508
0.133736
0.593266
0.160868
0.619214
0.181259
0.636239
0.213902
0.648725
0.224323
0.643081
0.257789
0.247479
0.506409
0.0523465
-0.496238
0.521029
0.0718745
0.536921
0.0939257
0.557945
0.112713
0.580231
0.138582
0.60635
0.15514
0.63575
0.184501
0.66232
0.197753
0.694015
0.226094
0.235844
0.496873
0.0425177
-0.487044
0.510577
0.058171
0.526663
0.0778395
0.545753
0.0936225
0.569193
0.115143
0.593592
0.130741
0.62563
0.152464
0.655264
0.168118
0.693804
0.187554
0.203679
0.48935
0.0324775
-0.47931
0.50207
0.045451
0.518493
0.0614168
0.53682
0.0752954
0.560278
0.0916844
0.58477
0.106249
0.615432
0.121801
0.646701
0.13685
0.683673
0.150582
0.165957
0.482087
0.0225011
-0.47211
0.494437
0.033101
0.510739
0.0451149
0.529298
0.0567356
0.552237
0.0687455
0.577464
0.0810226
0.606941
0.0923236
0.63898
0.104811
0.674562
0.115
0.127417
0.471924
0.0129893
-0.462412
0.48424
0.0207851
0.500199
0.0291557
0.519199
0.0377358
0.54187
0.046074
0.567777
0.0551161
0.597135
0.0629656
0.629829
0.0721168
0.665707
0.079122
0.0883139
0.44766
0.00460127
-0.439272
0.459245
0.00920011
0.474275
0.014126
0.492863
0.0191481
0.514898
0.0240387
0.540754
0.0292597
0.569975
0.0337455
0.603084
0.0390077
0.639512
0.042694
0.0480311
0.377179
-0.00061236
-0.371965
0.385307
0.00107177
0.396587
0.00284559
0.411117
0.00461832
0.428869
0.00628661
0.450109
0.00801971
0.47444
0.00941515
0.50247
0.010977
0.533272
0.0118925
0.0128048
0.189916
-0.190528
0.190988
0.193833
0.198452
0.204738
0.212758
0.222173
0.23315
0.245043
0.0708613
0.144382
-0.132857
-0.082386
0.0602393
0.146573
-0.135951
0.0504187
0.149179
-0.139359
0.0409009
0.15263
-0.143112
0.031451
0.156286
-0.146836
0.0221683
0.159021
-0.149738
0.0134886
0.158151
-0.149471
0.00623046
0.147847
-0.140589
0.00146798
0.118019
-0.113256
0.0553095
-0.0538415
0.0666449
0.154719
-0.0769819
0.0564469
0.156771
0.0465755
0.159051
0.0370556
0.16215
0.0278073
0.165534
0.0189543
0.167874
0.0109604
0.166145
0.00462197
0.154185
0.000844111
0.121797
0.0561536
0.0587002
0.16381
-0.0677909
0.0493323
0.166139
0.0400799
0.168303
0.0311323
0.171098
0.0225481
0.174118
0.0145123
0.17591
0.00752752
0.17313
0.0024198
0.159293
-2.73496e-05
0.124244
0.0561263
0.0472144
0.171639
-0.0550434
0.0390739
0.174279
0.0308843
0.176493
0.022895
0.179087
0.0152988
0.181714
0.00842355
0.182785
0.00282145
0.178732
-0.00057682
0.162691
-0.00112952
0.124796
0.0549968
0.0335332
0.178353
-0.0402479
0.0266357
0.181177
0.0196532
0.183475
0.012829
0.185911
0.0064501
0.188093
0.000963822
0.188271
-0.00274302
0.182438
-0.00389941
0.163848
-0.00238394
0.123281
0.0526128
0.0180075
0.183993
-0.0236474
0.0123161
0.186868
0.00661227
0.189179
0.00112519
0.191399
-0.0037571
0.192975
-0.00739499
0.191909
-0.0089833
0.184027
-0.00768
0.162544
-0.00368995
0.119291
0.0489229
0.00117793
0.188778
-0.00596232
-0.0034237
0.19147
-0.00788535
0.193641
-0.01197
0.195483
-0.0152059
0.196211
-0.0168307
0.193534
-0.0158525
0.183049
-0.0115979
0.15829
-0.00492947
0.112622
0.0439934
-0.0176986
0.192394
0.0140818
-0.021063
0.194834
-0.0241492
0.196727
-0.0266476
0.197982
-0.02794
0.197504
-0.0270847
0.192679
-0.0230483
0.179012
-0.0154521
0.150693
-0.00599743
0.103168
0.037996
-0.0382884
0.194896
0.0357869
-0.0404035
0.196949
-0.0420205
0.198344
-0.0427061
0.198667
-0.0416684
0.196466
-0.0378195
0.18883
-0.0301925
0.171385
-0.0189247
0.139426
-0.00676378
0.0910069
0.0312322
-0.0609295
0.059664
-0.0616122
-0.0614918
-0.0599596
-0.0560194
-0.0485022
-0.0367096
-0.0215996
-0.00711318
0.110757
0.0351126
-0.123044
-0.0228255
0.0981786
0.0361251
-0.0235465
0.085296
0.037231
-0.0243483
0.0720827
0.0384098
-0.0251965
0.05852
0.039644
-0.0260813
0.0446318
0.0408084
-0.0269201
0.0306042
0.0414103
-0.0273827
0.0170889
0.0400442
-0.0265288
0.00575561
0.0336665
-0.0223332
0.017144
-0.0113884
0.108967
0.0473073
-0.121162
0.0965537
0.048539
0.0838514
0.0499333
0.0708295
0.0514316
0.057462
0.0530115
0.0437705
0.0544998
0.0299504
0.0552304
0.0166665
0.053328
0.00557954
0.0447535
0.0227236
0.106883
0.05932
-0.118895
0.0945986
0.0608229
0.0820505
0.0624814
0.0692119
0.0642702
0.0560617
0.0661617
0.0426208
0.0679408
0.0290839
0.0687672
0.0161187
0.0662932
0.0053602
0.055512
0.0280838
0.104289
0.0712877
-0.116257
0.0921911
0.0729212
0.0798281
0.0748443
0.0671753
0.076923
0.0542277
0.0791094
0.0410378
0.0811307
0.0278333
0.0819717
0.0152958
0.0788307
0.00501668
0.0657911
0.0331004
0.101262
0.0830104
-0.112985
0.0893911
0.0847922
0.0773435
0.0868919
0.0650529
0.0892136
0.0524711
0.0916912
0.03963
0.0939717
0.0267752
0.0948265
0.0146239
0.0909821
0.00475682
0.0756581
0.0378572
0.0972138
0.0947308
-0.108934
0.0854853
0.0965207
0.0735909
0.0987863
0.0615396
0.101265
0.0493248
0.103906
0.0369811
0.106315
0.0247429
0.107065
0.0133168
0.102408
0.00421969
0.0847553
0.0420769
0.0929535
0.10584
-0.104063
0.0818474
0.107627
0.0705527
0.110081
0.0589754
0.112842
0.0471244
0.115757
0.0351177
0.118322
0.0232778
0.118905
0.0123619
0.113324
0.00383976
0.0932774
0.0459167
0.0856313
0.116728
-0.0965192
0.0749404
0.118318
0.0642808
0.120741
0.0535378
0.123585
0.0426099
0.126685
0.0315389
0.129393
0.0206474
0.129796
0.010724
0.123248
0.00318976
0.100812
0.0491065
0.0806367
0.125974
-0.0898827
0.0710132
0.127941
0.0608358
0.130918
0.0503186
0.134102
0.039627
0.137376
0.0289258
0.140094
0.0185857
0.140136
0.00939849
0.132435
0.00267486
0.107535
0.0517813
0.0698334
-0.0767171
0.061824
0.0533833
0.0443733
0.034914
0.0252702
0.0159352
0.00778115
0.00206022
0.201859
0.00338668
-0.00725563
0.205389
0.0225212
-0.0260517
0.209675
0.0287642
-0.0330499
0.212467
0.0436874
-0.0464796
0.214623
0.0557155
-0.0578715
0.213743
0.0738908
-0.0730107
0.209019
0.0924912
-0.0877672
0.197859
0.115018
-0.103859
0.173314
0.162288
-0.137743
0.222979
-0.172709
0.201584
-0.000207099
0.20451
0.0195946
0.208772
0.0245022
0.210867
0.0415929
0.213102
0.0534803
0.211372
0.0756208
0.206762
0.0971012
0.194837
0.126943
0.170174
0.186951
0.27199
0.201257
-0.00347434
0.203514
0.0173374
0.20766
0.0203566
0.208954
0.0402991
0.211177
0.0512567
0.208388
0.0784101
0.20392
0.101569
0.19079
0.140073
0.166566
0.211175
0.319662
0.200856
-0.0063405
0.202403
0.0157908
0.206317
0.016442
0.206734
0.0398822
0.208836
0.0491548
0.204836
0.08241
0.200524
0.105882
0.185833
0.154764
0.162508
0.2345
0.365912
0.200366
-0.00871664
0.201172
0.0149843
0.204725
0.0128898
0.204221
0.0403856
0.206052
0.0473236
0.200752
0.0877103
0.196517
0.110116
0.180088
0.171193
0.15792
0.256669
0.410847
0.199775
-0.010502
0.199821
0.0149382
0.202868
0.00984258
0.201428
0.0418258
0.202817
0.0459349
0.196153
0.0943747
0.191909
0.11436
0.173391
0.189712
0.152986
0.277073
0.454899
0.199076
-0.0115885
0.19835
0.0156648
0.20074
0.00745218
0.198379
0.0441866
0.199107
0.0452069
0.191126
0.102356
0.186526
0.11896
0.166216
0.210022
0.147163
0.296126
0.497999
0.198271
-0.0118695
0.19676
0.0171754
0.198341
0.00587176
0.19509
0.0474377
0.194929
0.0453676
0.18567
0.111614
0.180492
0.124138
0.157859
0.232655
0.141029
0.312956
0.542509
0.197373
-0.0112527
0.195052
0.0194959
0.195683
0.00524108
0.191571
0.0515502
0.190243
0.0466952
0.179909
0.121949
0.173738
0.130309
0.150687
0.255707
0.134274
0.329369
0.5869
0.196433
-0.00969639
0.19318
0.0227491
0.192853
0.00556874
0.187724
0.0566787
0.185003
0.049416
0.173225
0.133727
0.165123
0.138411
0.140147
0.280683
0.127477
0.342039
0.63766
0.305989
-0.0136756
0.307589
0.0211492
0.316089
-0.00293126
0.318243
0.0545254
0.329537
0.038122
0.328865
0.134399
0.346292
0.120984
0.349536
0.277439
0.39756
0.294015
0.569551
0.465669
0.306241
-0.0179062
0.308969
0.0184208
0.318117
-0.0120786
0.322255
0.0503866
0.33456
0.0258173
0.337553
0.131405
0.356587
0.10195
0.369435
0.264592
0.413143
0.250307
0.504475
0.478219
0.306146
-0.0220422
0.311169
0.0133976
0.320012
-0.0209211
0.327332
0.0430669
0.339037
0.014112
0.346572
0.12387
0.365542
0.08298
0.385002
0.245132
0.423578
0.211731
0.434726
0.493326
0.305971
-0.0260028
0.31444
0.00492872
0.322224
-0.0287058
0.333261
0.0320307
0.342452
0.00492097
0.354736
0.111585
0.372164
0.0655517
0.397101
0.220195
0.434361
0.17447
0.363907
0.505181
0.306354
-0.0303465
0.318385
-0.00710266
0.325941
-0.0362615
0.33968
0.0182911
0.34668
-0.00207894
0.363991
0.0942749
0.379329
0.0502133
0.409697
0.189827
0.441361
0.142806
0.296104
0.509163
0.307763
-0.0360991
0.323345
-0.0226843
0.330728
-0.0436448
0.345933
0.00308576
0.351828
-0.00797393
0.37256
0.0735436
0.385677
0.0370957
0.419155
0.15635
0.447111
0.11485
0.232045
0.51117
0.31087
-0.0449586
0.328547
-0.0403612
0.335262
-0.0503605
0.350187
-0.0118388
0.354138
-0.0119247
0.376976
0.0507053
0.387128
0.0269435
0.42356
0.119917
0.450198
0.0882125
0.171313
0.510931
0.314365
-0.0573138
0.329372
-0.0553675
0.331405
-0.0523939
0.341109
-0.0215425
0.341149
-0.0119649
0.362737
0.0291169
0.370373
0.0193081
0.410461
0.0798292
0.438845
0.0598285
0.110059
0.500099
0.307652
-0.0629552
0.303794
-0.0515102
0.289918
-0.0385176
0.2848
-0.0164243
0.279193
-0.00635798
0.295799
0.0125108
0.304736
0.0103714
0.348771
0.0357936
0.381419
0.0271811
0.0461702
0.445307
0.239055
0.187545
0.149027
0.132603
0.126245
0.138756
0.149127
0.184921
0.212102
0.258272
0.478362
-0.0950784
0.482828
-0.0814485
0.486198
-0.0711605
0.489448
-0.0582934
0.493853
-0.0446528
0.498514
-0.0283087
0.504227
-0.0116754
0.510512
0.0077965
0.518608
0.0276914
0.0509298
0.479116
-0.0959755
0.479747
-0.0820798
0.479776
-0.0711891
0.479937
-0.0584546
0.481323
-0.0460394
0.48341
-0.0303954
0.487475
-0.0157408
0.492597
0.00267518
0.499862
0.0204259
0.0422045
0.487047
-0.0896961
0.483444
-0.0784773
0.480046
-0.0677905
0.477558
-0.0559668
0.475987
-0.0444683
0.476418
-0.0308263
0.47803
-0.0173526
0.481964
-0.00125898
0.48746
0.0149296
0.0334261
0.494396
-0.0789111
0.486212
-0.0702936
0.479712
-0.0612902
0.47531
-0.0515643
0.471802
-0.0409608
0.470857
-0.0298809
0.47094
-0.0174356
0.474196
-0.00451564
0.47875
0.0103754
0.0251321
0.497216
-0.0669633
0.487195
-0.0602726
0.478881
-0.0529764
0.472748
-0.0454314
0.468166
-0.0363786
0.465923
-0.0276383
0.465405
-0.0169172
0.467633
-0.00674407
0.471992
0.00601662
0.0178144
0.498248
-0.0540412
0.486951
-0.048975
0.477444
-0.0434698
0.469902
-0.03789
0.464467
-0.0309434
0.461119
-0.02429
0.460134
-0.0159323
0.461417
-0.0080268
0.465537
0.00189679
0.0112409
0.496783
-0.0398934
0.484201
-0.036393
0.473497
-0.0327661
0.464736
-0.0291293
0.458316
-0.0245227
0.453987
-0.0199617
0.45224
-0.0141846
0.452778
-0.00856559
0.45629
-0.0016151
0.00511897
0.484314
-0.0241091
0.470348
-0.0224264
0.458395
-0.0208134
0.448429
-0.0191631
0.440798
-0.0168918
0.435285
-0.0144482
0.432341
-0.0112408
0.431735
-0.00795955
0.43409
-0.00396996
-6.38028e-05
0.4297
-0.00850143
0.415884
-0.00861078
0.403746
-0.00867504
0.393173
-0.00858997
0.384416
-0.00813533
0.377417
-0.00744921
0.372585
-0.0064085
0.369871
-0.00524525
0.36971
-0.0038098
-0.00231848
0.249771
0.24116
0.232485
0.223895
0.215759
0.20831
0.201902
0.196657
0.192847
0.00802366
0.0483075
-0.0563311
0.0185932
0.125701
-0.13627
0.0253711
0.176013
-0.182791
0.0275703
0.202012
-0.204212
0.0264729
0.212332
-0.211234
0.0235008
0.2143
-0.211328
0.0196269
0.21198
-0.208106
0.0154723
0.206486
-0.202331
0.0116334
0.19648
-0.192642
0.178203
0.00876038
-0.17533
0.00956782
0.0387397
0.0248663
0.110402
0.0373176
0.163562
0.0445844
0.194746
0.047515
0.209401
0.0476865
0.214129
0.0463211
0.213346
0.0440909
0.208716
0.0411935
0.199378
0.182007
0.0373894
0.0101608
0.0285788
0.0295136
0.0910494
0.0480264
0.145049
0.0612866
0.181485
0.069149
0.201539
0.073065
0.210213
0.074462
0.211949
0.0741045
0.209073
0.0719949
0.201487
0.186927
0.0670752
0.00967427
0.0189046
0.0314506
0.0692731
0.0556765
0.120823
0.0757159
0.161446
0.089643
0.187612
0.0982869
0.201569
0.103158
0.207077
0.105318
0.206914
0.104778
0.202028
0.191168
0.100537
0.00826261
0.010642
0.0299994
0.0475363
0.058239
0.0925832
0.0852035
0.134482
0.106543
0.166273
0.121485
0.186627
0.131136
0.197426
0.136796
0.201254
0.139049
0.199775
0.193853
0.136364
0.00630468
0.00433728
0.025426
0.028415
0.0543114
0.0636979
0.0863979
0.102395
0.115617
0.137054
0.138708
0.163536
0.155113
0.18102
0.165734
0.190633
0.171525
0.193984
0.192717
0.172661
0.00427185
6.54256e-05
0.0191234
0.0135635
0.0447642
0.0380571
0.0777477
0.0694114
0.112592
0.102209
0.144434
0.131694
0.170373
0.15508
0.189574
0.171432
0.20258
0.180978
0.186345
0.208952
0.0025506
-0.00248517
0.0127696
0.00334441
0.0325548
0.0182719
0.0614793
0.0404869
0.0965307
0.0671577
0.133401
0.0948236
0.168093
0.120388
0.197509
0.142017
0.220673
0.157814
0.169367
0.237651
0.0012452
-0.00373037
0.00745085
-0.00286125
0.0208469
0.00487585
0.04267
0.0186639
0.0724289
0.0373988
0.107905
0.0593472
0.145943
0.0823506
0.183426
0.104534
0.216576
0.124664
0.13748
0.248463
0.000330435
-0.0040608
0.0034428
-0.00597361
0.0113338
-0.00301511
0.0256526
0.00434505
0.0472763
0.0157751
0.0759243
0.0306992
0.11012
0.0481552
0.147835
0.0668187
0.186168
0.0863317
0.10284
0.220807
-0.00033114
-0.00372966
0.000634395
-0.00693915
0.00450074
-0.00688145
0.0127034
-0.00385766
0.0264258
0.00205275
0.0463649
0.01076
0.0725409
0.0219793
0.10417
0.0351895
0.140585
0.049917
0.0695372
0.173888
-0.000673092
-0.00305657
-0.000867271
-0.00674497
0.000639629
-0.00838835
0.00480383
-0.00802186
0.0124848
-0.00562825
0.0243943
-0.00114947
0.0410748
0.00529876
0.0625073
0.013757
0.0880999
0.0243244
0.0400792
0.117558
-0.000573101
-0.00248347
-0.0006994
-0.00661867
0.000351715
-0.00943947
0.00292251
-0.0105926
0.00727836
-0.0099841
0.0137506
-0.00762174
0.0225711
-0.00352173
0.033956
0.00237211
0.047995
0.0102854
0.0211115
0.0669627
0.000295576
-0.00277905
0.00194214
-0.00826524
0.00503383
-0.0125312
0.00934346
-0.0149023
0.0146263
-0.0152669
0.0207887
-0.0137841
0.0279424
-0.0106755
0.0364156
-0.00610109
0.0468565
-0.000155439
0.00752481
0.0604432
0.00160472
-0.00438377
0.00591641
-0.0125769
0.0121977
-0.0188124
0.0197468
-0.0224514
0.0281064
-0.0236265
0.0370905
-0.0227683
0.0467502
-0.0203352
0.0573457
-0.0166966
0.0692722
-0.0120819
-0.00631399
0.083111
0.0028466
-0.00723036
0.00924901
-0.0189793
0.0175581
-0.0271215
0.0267502
-0.0316435
0.0363895
-0.0332658
0.0464301
-0.0328088
0.0570267
-0.0309318
0.0684189
-0.0280887
0.0808881
-0.0245511
-0.0202075
0.0947817
0.00348966
-0.01072
0.0101891
-0.0256788
0.0178623
-0.0347947
0.0255672
-0.0393485
0.0331792
-0.0408777
0.0409371
-0.0405668
0.0491514
-0.0391461
0.0580697
-0.037007
0.0678493
-0.0343308
-0.0311374
0.0787792
0.00298291
-0.0137029
0.00752271
-0.0302186
0.0116565
-0.0389285
0.0150348
-0.0427267
0.018021
-0.0438639
0.0211027
-0.0436485
0.0246326
-0.042676
0.0287895
-0.0411639
0.033633
-0.0391743
-0.0368124
0.0393079
0.00125671
-0.0149596
0.00175269
-0.0307146
0.000691098
-0.0378669
-0.00142423
-0.0406114
-0.00385569
-0.0414324
-0.00607831
-0.0414258
-0.00784621
-0.0409081
-0.00911496
-0.0398952
-0.00994789
-0.0383413
-0.036365
-0.0103953
-0.00117011
-0.005296
-0.0115531
-0.0188239
-0.0262639
-0.0334194
-0.0401078
-0.0462699
-0.051872
-0.0568143
0.237604
0.192004
-0.25572
0.207712
0.623313
-0.593421
0.129075
0.681094
-0.602457
0.0890691
0.362706
-0.3227
0.0936741
-0.0168485
0.0122435
0.0965918
-0.17775
0.174832
0.104019
-0.185516
0.178089
0.123888
-0.161737
0.141868
0.152296
-0.147144
0.118737
-0.0899565
0.0679617
0.197606
0.111956
0.212942
0.607978
0.15103
0.743006
0.119248
0.394488
0.111754
-0.00935501
0.093024
-0.159019
0.0920859
-0.184578
0.110995
-0.180646
0.142477
-0.178627
-0.115307
0.165047
0.0138717
0.210989
0.562035
0.164097
0.789899
0.137861
0.420724
0.111316
0.0171905
0.0762709
-0.123975
0.0750104
-0.183317
0.0966082
-0.202244
0.131595
-0.213614
-0.143682
0.155741
-0.0814257
0.200215
0.517561
0.168353
0.821761
0.140938
0.448138
0.0950601
0.0630686
0.0549412
-0.0838558
0.0624472
-0.190823
0.0889049
-0.228702
0.126186
-0.250895
-0.173379
0.153188
-0.151503
0.178714
0.492035
0.161962
0.838512
0.127865
0.482236
0.0685066
0.122427
0.0378177
-0.0531668
0.0594087
-0.212414
0.0905256
-0.259819
0.128179
-0.288549
-0.202424
0.1343
-0.191022
0.147867
0.478468
0.143538
0.842841
0.100086
0.525689
0.0387355
0.183777
0.0301651
-0.0445964
0.0651328
-0.247382
0.099508
-0.294194
0.136068
-0.325109
-0.229433
0.0959523
-0.208195
0.109082
0.465338
0.112095
0.839828
0.0622937
0.57549
0.013962
0.232109
0.0324542
-0.0630886
0.0768346
-0.291762
0.113458
-0.330817
0.147992
-0.359643
-0.253552
0.0443921
-0.213279
0.065787
0.443943
0.0706531
0.834962
0.0225479
0.623595
0.000157798
0.254499
0.042796
-0.105727
0.0930392
-0.342005
0.131107
-0.368885
0.162875
-0.391411
-0.274208
-0.01284
-0.210834
0.021819
0.409284
0.021707
0.835074
-0.0117124
0.657014
0.00220551
0.240581
0.0589467
-0.162468
0.112935
-0.395994
0.151426
-0.407375
0.179807
-0.419793
-0.291117
-0.0676471
-0.0267478
-0.0339308
-0.037139
0.0175162
0.0803295
0.135657
0.173385
0.197812
0.0324194
0.0418139
-0.0742332
-0.00372561
0.036145
-0.0284252
0.0246995
-0.0526999
0.0242747
-0.0603166
0.00761675
-0.0359716
-0.024345
-0.00821776
-0.0277539
0.0111764
-0.0193942
0.0249194
-0.0137429
-0.00683629
0.172074
0.142639
-0.272899
0.0511248
0.157094
-0.0352686
0.111093
-0.0799689
0.0689751
-0.0743762
0.00202398
-0.0272127
-0.0715085
0.0187857
-0.0737523
0.0515705
-0.052179
0.0760684
-0.0382408
-0.0196652
0.328947
0.23834
-0.424647
0.157603
0.328439
0.0105984
0.258097
-0.0530181
0.132592
-0.0362197
-0.0147745
0.0130358
-0.120764
0.0579195
-0.118636
0.0912687
-0.0855282
0.118049
-0.0650214
-0.0346841
0.433414
0.282261
-0.477336
0.263124
0.498729
0.0830509
0.43817
0.00271073
0.212932
0.0168691
-0.0289328
0.0550795
-0.158974
0.0912001
-0.154757
0.121131
-0.115459
0.147421
-0.091312
-0.0503907
0.453161
-0.42662
0.35847
0.194182
0.0844137
0.0677244
0.083582
0.106914
0.133323
0.160748
0.0123326
-8.43111e-05
-0.0122482
0.0140193
-0.0016867
0.0171326
-0.00311331
0.021564
-0.00443141
0.0280088
-0.00644487
0.0346077
-0.00659885
0.0441249
-0.00951723
0.0527001
-0.00857516
0.0643754
-0.0116753
-0.00985789
0.0339278
-0.000708077
-0.033304
0.0388577
-0.0066166
0.0478374
-0.012093
0.0617053
-0.0182993
0.0812513
-0.0259909
0.104581
-0.0299287
0.138097
-0.0430327
0.173775
-0.0442535
0.220664
-0.0585646
-0.0620932
0.0523935
-0.00224785
-0.0508537
0.0603358
-0.014559
0.0746392
-0.0263964
0.0969399
-0.0406
0.127113
-0.0561641
0.166634
-0.0694493
0.218166
-0.0945649
0.275486
-0.101574
0.349556
-0.132635
-0.137184
0.0675704
-0.00491084
-0.0649075
0.0779906
-0.0249791
0.0967055
-0.0451113
0.124937
-0.0688311
0.162619
-0.0938463
0.213241
-0.120071
0.270489
-0.151813
0.340201
-0.171285
0.416964
-0.209398
-0.197556
0.0796127
-0.0757631
0.0920229
0.113987
0.145692
0.18821
0.240799
0.297938
0.364304
0.403369
0.0893593
-0.0864721
0.0944444
-0.0973316
0.080295
-0.0877466
0.0968109
0.0707318
-0.0897879
0.0993511
0.0604211
-0.0919568
0.102267
0.0493085
-0.0941663
0.105279
0.0375398
-0.0961622
0.107931
0.0254938
-0.0968095
0.108855
0.0139712
-0.0928495
0.104372
0.00456058
-0.0773641
0.0867747
-0.038929
0.0434896
0.0990637
-0.0763279
-0.109208
0.0884433
-0.0771262
0.0770676
-0.0784121
0.0650336
-0.0799227
0.0525253
-0.081658
0.0397218
-0.0833587
0.0269045
-0.0839921
0.0147652
-0.0807103
0.00485087
-0.0674497
-0.0340781
0.101178
-0.0646605
-0.112846
0.0894211
-0.0653691
0.0774605
-0.0664515
0.065294
-0.0677562
0.0528686
-0.0692326
0.0401542
-0.0706444
0.0273222
-0.0711601
0.0150482
-0.0684363
0.0049433
-0.0573448
-0.0291348
0.107053
-0.0526268
-0.119087
0.0948745
-0.0531903
0.0824554
-0.0540325
0.0697024
-0.0550032
0.0565552
-0.0560853
0.0430405
-0.0571296
0.0293899
-0.0575095
0.0163069
-0.0553533
0.00544077
-0.0464787
-0.023694
0.109302
-0.0400812
-0.121847
0.0966546
-0.0405434
0.0837604
-0.0411383
0.0705943
-0.0418371
0.0571436
-0.0426347
0.0434396
-0.0434256
0.0296708
-0.0437406
0.0164794
-0.0421619
0.00549885
-0.0354982
-0.0181952
0.111878
-0.0274923
-0.124467
0.099072
-0.027737
0.0860152
-0.0280815
0.072671
-0.0284929
0.0590067
-0.0289703
0.0450267
-0.0294457
0.0309013
-0.0296153
0.0172784
-0.028539
0.00583613
-0.0240559
-0.012359
0.112808
-0.0147841
-0.125516
0.0999186
-0.014848
0.086765
-0.0149278
0.0733159
-0.0150439
0.0595423
-0.0151967
0.0454534
-0.0153568
0.0312177
-0.0153796
0.0174741
-0.0147954
0.0059085
-0.0124902
-0.00645054
0.11324
-0.00216502
-0.125859
0.100362
-0.0019706
0.087199
-0.00176463
0.0737203
-0.00156515
0.0599008
-0.00137723
0.0457536
-0.00120952
0.0314496
-0.00107555
0.0176285
-0.00097439
0.00597679
-0.000838522
-0.000473749
0.112932
0.0103839
-0.125481
0.100121
0.0108403
0.0870139
0.0113423
0.0735834
0.0118654
0.0598046
0.0124016
0.0456899
0.0129052
0.0314098
0.0132046
0.0176051
0.0128302
0.0059662
0.0108004
0.00549245
0.112044
-0.124485
0.0993373
0.0863312
0.0730001
0.0593203
0.0453054
0.0311273
0.0174287
0.00589595
0.015588
-0.172821
-0.0180968
0.0105911
-0.187645
0.00458215
-0.196322
-0.00155772
-0.201967
-0.00719953
-0.205686
-0.0115695
-0.206864
-0.0135169
-0.202264
-0.0117049
-0.184603
-0.00584993
-0.142125
-0.0621811
0.0407026
-0.168998
-0.0445253
0.0338249
-0.180767
0.0257944
-0.188292
0.0175357
-0.193708
0.00953859
-0.197689
0.00236998
-0.199696