/*--------------------------------*- C++ -*----------------------------------*\
  =========                 |
  \\      /  F ield         | OpenFOAM: The Open Source CFD Toolbox
   \\    /   O peration     | Website:  https://openfoam.org
    \\  /    A nd           | Version:  13
     \\/     M anipulation  |
\*---------------------------------------------------------------------------*/
FoamFile
{
    format      ascii;
    class       volScalarField;
    location    "1.3";
    object      p;
}
// * * * * * * * * * * * * * * * * * * * * * * * * * * * * * * * * * * * * * //

dimensions      [0 2 -2 0 0 0 0];

internalField   nonuniform List<scalar> 
1800
(
-1.4275
-1.41721
-1.41024
-1.40788
-1.4085
-1.40607
-1.39311
-1.36429
-1.3173
-1.26283
-1.50363
-1.49245
-1.48432
-1.47947
-1.47459
-1.46339
-1.44008
-1.40215
-1.35122
-1.29595
-1.59217
-1.58034
-1.5707
-1.56198
-1.5489
-1.52558
-1.48862
-1.43821
-1.37772
-1.31365
-1.69247
-1.67996
-1.66776
-1.65277
-1.62835
-1.59031
-1.53834
-1.47549
-1.40621
-1.33702
-1.80069
-1.7872
-1.7706
-1.74599
-1.70679
-1.65155
-1.58331
-1.5073
-1.4287
-1.35252
-1.91038
-1.89558
-1.87223
-1.83447
-1.77781
-1.70435
-1.62049
-1.53277
-1.446
-1.36406
-2.01353
-1.99664
-1.96386
-1.90992
-1.8338
-1.74201
-1.64338
-1.54469
-1.45016
-1.36241
-2.10099
-2.0808
-2.03628
-1.96428
-1.86845
-1.75976
-1.64833
-1.54045
-1.43932
-1.34646
-2.16314
-2.13832
-2.08063
-1.98977
-1.87542
-1.75195
-1.62974
-1.51415
-1.40741
-1.31014
-2.19114
-2.16091
-2.0895
-1.98064
-1.85038
-1.71518
-1.58486
-1.46362
-1.35271
-1.25197
-0.474329
-0.478971
-0.481986
-0.481431
-0.476566
-0.466074
-0.449079
-0.425563
-0.395893
-0.360009
-0.54433
-0.548132
-0.550342
-0.549482
-0.544742
-0.534436
-0.517454
-0.493247
-0.462059
-0.424374
-0.6449
-0.647748
-0.64935
-0.648881
-0.645377
-0.636631
-0.620556
-0.596294
-0.563622
-0.523302
-0.767029
-0.768874
-0.770252
-0.771059
-0.77005
-0.764205
-0.750595
-0.727337
-0.693378
-0.648749
-0.897982
-0.89871
-0.900088
-0.902828
-0.905427
-0.90391
-0.894198
-0.873156
-0.838767
-0.786667
-1.02373
-1.02301
-1.02392
-1.02828
-1.03439
-1.03744
-1.03256
-1.01498
-0.980847
-0.924744
-1.13321
-1.13051
-1.13051
-1.13545
-1.14381
-1.15066
-1.14919
-1.13453
-1.10176
-1.04182
-1.22254
-1.21754
-1.21568
-1.21954
-1.22798
-1.23585
-1.23645
-1.22333
-1.19138
-1.12848
-1.29539
-1.28822
-1.2843
-1.2862
-1.29308
-1.30004
-1.29959
-1.28482
-1.25046
-1.18452
-1.36051
-1.35156
-1.34589
-1.34564
-1.34999
-1.35353
-1.34857
-1.32834
-1.28747
-1.22016
-0.133199
0.0842038
0.132484
0.115793
0.0932704
0.0727701
0.0546966
0.0381612
0.0225331
0.00759576
-0.184921
0.0634729
0.121282
0.109789
0.0894561
0.0700889
0.0527579
0.0368365
0.0217671
0.00730828
-0.262548
0.0370223
0.106715
0.102609
0.0851252
0.067141
0.050679
0.0354437
0.0209714
0.00701021
-0.359749
0.00357201
0.0893617
0.0942038
0.0802345
0.0639101
0.0484511
0.0339764
0.0201415
0.00670084
-0.468441
-0.0374541
0.0698955
0.084566
0.0747446
0.060378
0.0460656
0.0324288
0.019273
0.00638002
-0.580241
-0.0860956
0.0485016
0.0737106
0.0686447
0.0565383
0.0435188
0.030797
0.0183623
0.00604821
-0.688313
-0.142439
0.0244507
0.0614744
0.0618973
0.0523921
0.0408153
0.0290818
0.0174084
0.0057073
-0.784108
-0.20531
-0.00343171
0.0473995
0.0543105
0.0478833
0.0379451
0.0272818
0.0164112
0.00536151
-0.858825
-0.271051
-0.0352992
0.0311754
0.0455921
0.0428508
0.0348387
0.025368
0.0153587
0.00501407
-0.912754
-0.335016
-0.0694605
0.0133774
0.0358359
0.0372422
0.0314414
0.023305
0.0142282
0.00466332
-0.881003
-0.356598
-0.0943448
-0.00528536
0.0234974
0.0294129
0.0264984
0.0202342
0.012533
0.00416432
-0.760498
-0.341992
-0.114761
-0.0270611
0.00750057
0.0187502
0.0196465
0.0159751
0.0102338
0.003431
-0.670528
-0.329204
-0.124664
-0.0399184
-0.00390543
0.0101642
0.0137066
0.0121356
0.00811202
0.00274464
-0.596247
-0.318229
-0.138647
-0.056335
-0.0171443
0.00090505
0.00762458
0.0083253
0.00603525
0.00206007
-0.539852
-0.310639
-0.149299
-0.0685543
-0.027831
-0.00713329
0.0021302
0.00482702
0.00411338
0.00141987
-0.497319
-0.306859
-0.161385
-0.0811815
-0.0382639
-0.0147619
-0.00300251
0.00160195
0.00235104
0.000827304
-0.467953
-0.30827
-0.174644
-0.093261
-0.0476839
-0.0215468
-0.00756073
-0.00124303
0.000795232
0.000297016
-0.451316
-0.314829
-0.188821
-0.104954
-0.0562057
-0.0274538
-0.011453
-0.00362656
-0.000502081
-0.000147147
-0.447194
-0.325498
-0.201543
-0.113408
-0.0617214
-0.0312098
-0.0139721
-0.00516924
-0.00136547
-0.000432812
-0.443187
-0.333457
-0.212014
-0.123115
-0.067337
-0.0345041
-0.0160498
-0.00642317
-0.00209619
-0.000667857
-1.07941
-1.1403
-1.18241
-1.20661
-1.21713
-1.21572
-1.20677
-1.19268
-1.1738
-1.15711
-0.888637
-0.94972
-0.995213
-1.02453
-1.04078
-1.04471
-1.03936
-1.02699
-1.00887
-0.991448
-0.738455
-0.797925
-0.843696
-0.875388
-0.894305
-0.901506
-0.898624
-0.888002
-0.871551
-0.852549
-0.617886
-0.675459
-0.720355
-0.753184
-0.773637
-0.783468
-0.78303
-0.774929
-0.760026
-0.741123
-0.522171
-0.577428
-0.621165
-0.654369
-0.675951
-0.687667
-0.689376
-0.683455
-0.670355
-0.652839
-0.446291
-0.499405
-0.542162
-0.575297
-0.597725
-0.610832
-0.614512
-0.610765
-0.600007
-0.584627
-0.386962
-0.438471
-0.48044
-0.513345
-0.53646
-0.550716
-0.55633
-0.554722
-0.546605
-0.53343
-0.342882
-0.393402
-0.435016
-0.467763
-0.491453
-0.506627
-0.514027
-0.514239
-0.508688
-0.497331
-0.317015
-0.367502
-0.408973
-0.441521
-0.465571
-0.481577
-0.490368
-0.491883
-0.48826
-0.478238
-0.304553
-0.355876
-0.398549
-0.432717
-0.458283
-0.475734
-0.485532
-0.488144
-0.484722
-0.473812
0.456832
0.389984
0.313335
0.231236
0.142503
0.044825
-0.0617781
-0.171406
-0.263901
-0.30957
0.243395
0.17026
0.0886821
-0.000653724
-0.0994977
-0.209464
-0.329584
-0.45236
-0.554926
-0.604635
0.00872173
-0.0680871
-0.153109
-0.247535
-0.353403
-0.471989
-0.601775
-0.734082
-0.844031
-0.896108
-0.218159
-0.299507
-0.38995
-0.490955
-0.604291
-0.730954
-0.869038
-1.00888
-1.12425
-1.17697
-0.425942
-0.513377
-0.61077
-0.719366
-0.840641
-0.975451
-1.1216
-1.26777
-1.38558
-1.43734
-0.613194
-0.707137
-0.811589
-0.927585
-1.05636
-1.19836
-1.35186
-1.50099
-1.61681
-1.66833
-0.781276
-0.880849
-0.991206
-1.1132
-1.24798
-1.39572
-1.55134
-1.70002
-1.81274
-1.86245
-0.930511
-1.03386
-1.14783
-1.27343
-1.4115
-1.56122
-1.71647
-1.86134
-1.96778
-2.01399
-1.0614
-1.16552
-1.28026
-1.40663
-1.54495
-1.69337
-1.84448
-1.98129
-2.07812
-2.11959
-1.16889
-1.27196
-1.38559
-1.5105
-1.64628
-1.78993
-1.93269
-2.05728
-2.14212
-2.17806
1.83597
1.85113
1.86693
1.88229
1.89632
1.90834
1.91766
1.92416
1.92955
1.93473
1.76356
1.77588
1.78821
1.79953
1.80907
1.81614
1.82006
1.821
1.82156
1.82381
1.67077
1.67935
1.6871
1.69312
1.69682
1.69749
1.69446
1.6882
1.68245
1.68101
1.5587
1.56301
1.56517
1.56461
1.56098
1.55359
1.54182
1.5265
1.51282
1.50697
1.42747
1.42661
1.42228
1.41419
1.40226
1.38578
1.36412
1.33853
1.31569
1.305
1.2801
1.27383
1.26208
1.24515
1.22341
1.19617
1.16294
1.12549
1.09228
1.07601
1.11664
1.10441
1.08503
1.05915
1.02729
0.988751
0.943132
0.892871
0.848453
0.826238
0.945202
0.925963
0.89688
0.859787
0.815882
0.764527
0.705402
0.64156
0.58555
0.557183
0.770445
0.744125
0.704837
0.655649
0.598413
0.532575
0.458084
0.378986
0.310404
0.275802
0.605683
0.562531
0.506491
0.442125
0.370417
0.289869
0.200214
0.106281
0.0257201
-0.0146643
1.5859
1.53778
1.55692
1.54398
1.54158
1.55395
1.57182
1.60845
1.66757
1.76838
1.57891
1.53199
1.55093
1.53699
1.53322
1.54281
1.55739
1.58788
1.63691
1.72103
1.57246
1.52613
1.54485
1.52955
1.52427
1.53068
1.54143
1.56425
1.60066
1.66222
1.56651
1.52023
1.53871
1.52173
1.51476
1.51756
1.52395
1.53744
1.55917
1.5913
1.56106
1.51434
1.53255
1.51354
1.50471
1.50344
1.50497
1.50731
1.51296
1.50722
1.5561
1.5085
1.52638
1.50502
1.49414
1.48831
1.48446
1.47373
1.46249
1.40918
1.55163
1.50274
1.52022
1.4962
1.48303
1.47221
1.4624
1.43668
1.40793
1.29544
1.54769
1.4971
1.51408
1.48711
1.47139
1.45518
1.43873
1.39635
1.34898
1.16733
1.5443
1.49161
1.50797
1.4778
1.45922
1.43736
1.41341
1.35291
1.28422
1.02264
1.54154
1.48633
1.50188
1.46829
1.4466
1.41891
1.38717
1.30779
1.21596
0.872646
1.53851
1.48019
1.49407
1.45672
1.43018
1.395
1.35168
1.25182
1.13591
0.727153
1.53705
1.47379
1.48546
1.44428
1.4121
1.36958
1.31457
1.20186
1.05917
0.692199
1.53753
1.46819
1.47729
1.43244
1.39478
1.34654
1.28107
1.16105
0.995734
0.669827
1.5405
1.46345
1.46956
1.42132
1.37834
1.32621
1.25092
1.12858
0.943582
0.656447
1.5465
1.45962
1.46185
1.4108
1.36296
1.30857
1.22402
1.10363
0.903748
0.649949
1.55618
1.45667
1.45519
1.40104
1.34907
1.29353
1.20094
1.08535
0.875349
0.64586
1.56935
1.45315
1.44649
1.39135
1.33673
1.28107
1.18195
1.07225
0.855699
0.643388
1.59302
1.45393
1.44147
1.38351
1.32676
1.27132
1.1674
1.06314
0.842701
0.642651
1.60489
1.44531
1.42856
1.37403
1.31912
1.26447
1.15784
1.05779
0.835704
0.644075
1.67792
1.45745
1.42998
1.3705
1.31648
1.26081
1.1535
1.05543
0.832136
0.646777
0.435479
0.258317
0.0500998
-0.150757
-0.332876
-0.496366
-0.644785
-0.778762
-0.897006
-0.997594
0.377605
0.237269
0.077803
-0.0809968
-0.229025
-0.364946
-0.491055
-0.608112
-0.715689
-0.809867
0.356565
0.237931
0.11027
-0.0194865
-0.144684
-0.263641
-0.37652
-0.482655
-0.57968
-0.665287
0.364103
0.255763
0.143717
0.0323537
-0.0764674
-0.182182
-0.283886
-0.380338
-0.469066
-0.54885
0.379762
0.279133
0.177047
0.0774298
-0.0197363
-0.115235
-0.208419
-0.298006
-0.381252
-0.456637
0.397357
0.303105
0.208333
0.116604
0.0273661
-0.0608946
-0.147949
-0.23256
-0.311816
-0.383958
0.414305
0.325388
0.23623
0.149941
0.0657993
-0.0177661
-0.100609
-0.181406
-0.257321
-0.326542
0.429955
0.345564
0.260778
0.178001
0.0965891
0.0154045
-0.0651416
-0.143536
-0.217155
-0.284157
0.444474
0.364024
0.282649
0.201526
0.120467
0.0393533
-0.0408592
-0.118594
-0.191575
-0.258185
0.457137
0.37945
0.299704
0.218078
0.135474
0.053032
-0.0277778
-0.105498
-0.178394
-0.245193
-1.47182
-1.42919
-1.33574
-1.21821
-1.09979
-0.99238
-0.899867
-0.823068
-0.762225
-0.718114
-1.50778
-1.47088
-1.39326
-1.29215
-1.18644
-1.08817
-1.00225
-0.930216
-0.873213
-0.832999
-1.47222
-1.4401
-1.38001
-1.29979
-1.2117
-1.12652
-1.04983
-0.983858
-0.930176
-0.890717
-1.381
-1.35246
-1.30858
-1.25064
-1.18345
-1.11476
-1.0502
-0.992619
-0.944325
-0.907614
-1.25744
-1.23191
-1.20067
-1.16235
-1.11628
-1.0661
-1.01613
-0.96935
-0.927904
-0.893336
-1.12619
-1.10362
-1.08077
-1.0563
-1.02756
-0.994795
-0.960009
-0.924818
-0.891474
-0.861313
-1.00594
-0.987062
-0.969083
-0.951857
-0.934248
-0.9156
-0.895751
-0.875007
-0.853381
-0.832393
-0.907332
-0.891785
-0.876106
-0.861092
-0.848932
-0.840463
-0.834903
-0.829718
-0.824572
-0.817064
-0.836779
-0.821995
-0.806064
-0.789547
-0.778532
-0.776553
-0.783483
-0.795579
-0.807881
-0.820806
-0.807665
-0.792474
-0.774175
-0.755072
-0.744419
-0.747407
-0.764503
-0.792963
-0.824449
-0.864995
-0.823858
-0.80891
-0.791758
-0.777249
-0.772668
-0.782455
-0.807061
-0.840823
-0.874291
-0.883866
-0.862987
-0.851272
-0.843125
-0.844255
-0.85742
-0.88288
-0.917677
-0.954455
-0.991503
-0.994987
-0.880594
-0.876179
-0.880855
-0.900171
-0.933546
-0.977592
-1.02694
-1.07407
-1.1084
-1.10469
-0.845399
-0.847643
-0.858842
-0.88373
-0.92053
-0.964405
-1.00914
-1.04802
-1.07451
-1.06403
-0.759829
-0.764782
-0.774614
-0.792277
-0.816774
-0.844368
-0.870537
-0.890477
-0.89812
-0.886351
-0.654547
-0.659693
-0.666053
-0.674601
-0.685139
-0.695281
-0.702157
-0.70301
-0.694634
-0.673968
-0.556537
-0.561636
-0.566023
-0.569493
-0.571931
-0.571735
-0.567227
-0.557225
-0.540372
-0.514875
-0.483175
-0.488427
-0.492322
-0.493661
-0.492148
-0.486522
-0.475757
-0.459485
-0.437235
-0.407653
-0.443131
-0.448498
-0.452361
-0.452862
-0.449494
-0.441089
-0.426903
-0.406959
-0.381283
-0.348917
-0.439961
-0.445146
-0.448764
-0.448722
-0.444379
-0.434518
-0.418437
-0.396277
-0.36833
-0.334049
-0.961216
-0.256702
0.048024
0.114875
0.106089
0.0882186
0.0692218
0.0496411
0.0298351
0.0102511
-0.984025
-0.148208
0.0933419
0.124564
0.107736
0.0874666
0.0679229
0.0484637
0.0290269
0.00996792
-0.925233
-0.0533995
0.12018
0.128728
0.107636
0.086459
0.0666416
0.0473357
0.028266
0.00969907
-0.773681
0.0199725
0.129888
0.130062
0.107466
0.0853801
0.0653664
0.0462366
0.027533
0.00943709
-0.577545
0.0705743
0.133823
0.130653
0.106749
0.0841275
0.0640535
0.0451436
0.0268161
0.00917893
-0.401452
0.101938
0.137411
0.130494
0.105575
0.0827119
0.0626952
0.0440476
0.0261101
0.00892274
-0.26491
0.116107
0.141272
0.129392
0.103961
0.0811289
0.0612769
0.0429381
0.0254091
0.00866624
-0.173748
0.118803
0.144098
0.127387
0.101928
0.079362
0.0597824
0.0418043
0.0247069
0.00840723
-0.124405
0.111695
0.143879
0.124502
0.0994803
0.0773914
0.0581965
0.0406365
0.0239974
0.00814368
-0.111812
0.100231
0.140068
0.120672
0.0966024
0.0751993
0.0565055
0.0394251
0.0232748
0.00787375
-0.694508
-0.473528
-0.116911
0.0551571
0.0911292
0.0868052
0.0706748
0.0514027
0.0312881
0.0108356
-0.69527
-0.478001
-0.121713
0.0574116
0.0919694
0.0866955
0.0704007
0.0511689
0.0311036
0.0107686
-0.732184
-0.465796
-0.110389
0.0639209
0.0937948
0.086667
0.0701014
0.0509011
0.0308899
0.010686
-0.803444
-0.421353
-0.0807613
0.0754385
0.0969156
0.0870625
0.0699291
0.0506478
0.0306635
0.0105879
-0.899658
-0.340013
-0.00533227
0.102484
0.104897
0.0886173
0.0700068
0.0504288
0.0304265
0.0104852
-0.678201
-0.789844
-0.848199
-0.877096
-0.861087
-0.834617
-0.79898
-0.756804
-0.723279
-0.688248
-0.677536
-0.790694
-0.846299
-0.872323
-0.852202
-0.820739
-0.791225
-0.735365
-0.723211
-0.676825
-0.679497
-0.793156
-0.847003
-0.870347
-0.848714
-0.815781
-0.789747
-0.739392
-0.737482
-0.708749
-0.685631
-0.800328
-0.85431
-0.874805
-0.854364
-0.82306
-0.795324
-0.771385
-0.769748
-0.790631
-0.696848
-0.813093
-0.86847
-0.886212
-0.869068
-0.837831
-0.811467
-0.805612
-0.809589
-0.888752
1.5443
1.53324
1.5147
1.49203
1.46624
1.43622
1.40117
1.36304
1.33077
1.31582
1.63414
1.63575
1.6302
1.61959
1.60524
1.58668
1.56341
1.53708
1.51492
1.50526
1.72015
1.72678
1.72823
1.7259
1.72073
1.7123
1.70002
1.6849
1.67223
1.6674
1.7937
1.80463
1.81259
1.81799
1.82111
1.82138
1.81815
1.81202
1.80688
1.80624
1.85457
1.86885
1.88126
1.89187
1.90069
1.9072
1.91075
1.91162
1.9125
1.91521
1.89814
1.91453
1.93043
1.94543
1.95915
1.971
1.98027
1.98688
1.99255
1.99812
1.92473
1.94267
1.96086
1.9786
1.9953
2.01034
2.02302
2.03311
2.04176
2.04911
1.93215
1.95066
1.96998
1.98921
2.00755
2.02438
2.03897
2.05096
2.0612
2.06948
1.92019
1.9385
1.95783
1.97716
1.99559
2.01248
2.02712
2.03913
2.04933
2.05756
1.88822
1.90541
1.92357
1.9416
1.9586
1.97388
1.98676
1.99693
2.00553
2.01272
-0.548206
-0.597142
-0.661213
-0.740953
-0.837343
-0.950155
-1.07659
-1.20542
-1.31083
-1.35884
-0.326435
-0.380327
-0.448019
-0.530235
-0.628353
-0.74297
-0.873066
-1.0089
-1.1222
-1.17366
-0.0683879
-0.126894
-0.197817
-0.2816
-0.379766
-0.49346
-0.621849
-0.756591
-0.876169
-0.928965
0.204919
0.143459
0.0709974
-0.0126198
-0.108762
-0.218716
-0.341968
-0.472145
-0.586754
-0.641713
0.471204
0.409453
0.338372
0.258017
0.167148
0.0642605
-0.0505793
-0.171713
-0.277302
-0.330008
0.713969
0.655971
0.590259
0.516932
0.434755
0.342097
0.23884
0.130082
0.0358138
-0.011933
0.928679
0.878062
0.821084
0.757757
0.686752
0.606397
0.516536
0.421836
0.340208
0.298908
1.12294
1.08082
1.03337
0.980627
0.92108
0.853066
0.776516
0.695759
0.626675
0.59216
1.30501
1.26985
1.22919
1.18448
1.13439
1.07728
1.01306
0.945568
0.888475
0.860563
1.46078
1.43176
1.39597
1.35792
1.31704
1.27148
1.22065
1.16732
1.12258
1.10123
1.70152
1.57581
1.59664
1.57984
1.58909
1.61226
1.63328
1.66853
1.68196
1.64464
1.6845
1.57515
1.59586
1.57969
1.58727
1.61053
1.6328
1.67179
1.69952
1.70008
1.66903
1.57341
1.59398
1.57869
1.58485
1.60796
1.63171
1.6747
1.71619
1.75379
1.65503
1.57079
1.59121
1.57687
1.58179
1.60455
1.62938
1.67515
1.72803
1.79366
1.64232
1.56742
1.58769
1.57425
1.57808
1.60024
1.62563
1.67334
1.73496
1.82273
1.63076
1.56345
1.58355
1.57085
1.5737
1.59497
1.62046
1.66914
1.73703
1.84065
1.62021
1.55897
1.5789
1.56673
1.56863
1.58872
1.61383
1.66239
1.73398
1.84779
1.61054
1.55409
1.57383
1.56193
1.56288
1.5815
1.60567
1.653
1.72561
1.84424
1.60165
1.54888
1.56843
1.5565
1.55644
1.57329
1.59597
1.64092
1.71182
1.82991
1.59346
1.54342
1.56277
1.55051
1.54933
1.56411
1.58469
1.62609
1.69253
1.80463
1.86292
1.57663
1.58534
1.57191
1.58682
1.60537
1.6169
1.63436
1.58793
1.55965
1.79047
1.57031
1.58557
1.57354
1.5873
1.60636
1.61764
1.63613
1.59297
1.55603
1.7687
1.57559
1.59076
1.57587
1.58824
1.60792
1.62012
1.6406
1.60543
1.55712
1.74299
1.57608
1.59399
1.57785
1.58909
1.60987
1.62445
1.64848
1.62503
1.56675
1.72061
1.57595
1.59604
1.57919
1.58962
1.61171
1.62887
1.6582
1.65037
1.58241
1.33318
1.23237
1.09582
0.917403
0.699886
0.452573
0.188724
-0.0737799
-0.315391
-0.519565
1.32689
1.22908
1.09887
0.926203
0.71415
0.470397
0.206881
-0.0587567
-0.305874
-0.515803
1.33893
1.2372
1.1042
0.93311
0.725137
0.484087
0.220125
-0.0486111
-0.300318
-0.51485
1.37586
1.25936
1.11376
0.939543
0.733514
0.493777
0.228625
-0.043212
-0.298984
-0.517769
1.43555
1.2968
1.12964
0.945982
0.738051
0.498478
0.232759
-0.04142
-0.301297
-0.52507
)
;

boundaryField
{
    left
    {
        type            zeroGradient;
    }
    right
    {
        type            fixedValue;
        value           uniform 0;
    }
    down
    {
        type            zeroGradient;
    }
    up
    {
        type            zeroGradient;
    }
    cylinder
    {
        type            zeroGradient;
    }
    defaultFaces
    {
        type            empty;
    }
}


// ************************************************************************* //
