# Forces      
# CofR        : (0.000000e+00 0.000000e+00 0.000000e+00)
# Time        forces(pressure viscous)	moments(pressure viscous)
5.115         	((8.873161e+00 -5.495765e-01 4.757253e-19) (1.211132e+00 7.357178e-02 1.098381e-18)) ((1.462134e-20 -3.498738e-19 -4.983992e-07) (4.014599e-18 -7.584790e-20 -4.168750e-02))
5.12          	((8.879523e+00 -5.546867e-01 4.776114e-19) (1.211505e+00 7.299323e-02 1.096188e-18)) ((1.512957e-20 -3.519786e-19 -5.011208e-07) (4.014167e-18 -7.322287e-20 -4.187070e-02))
5.125         	((8.890457e+00 -5.682966e-01 4.792947e-19) (1.211885e+00 7.240489e-02 1.096894e-18)) ((1.501522e-20 -3.539802e-19 -5.100700e-07) (4.014628e-18 -7.329182e-20 -4.205413e-02))
5.13          	((8.876363e+00 -5.512746e-01 4.641937e-19) (1.212242e+00 7.184187e-02 1.095951e-18)) ((8.196912e-21 -3.413418e-19 -5.027262e-07) (4.014681e-18 -7.185456e-20 -4.223781e-02))
5.135         	((8.879098e+00 -5.504644e-01 4.624802e-19) (1.212598e+00 7.128418e-02 1.094820e-18)) ((7.132916e-21 -3.401863e-19 -5.029253e-07) (4.014700e-18 -7.022622e-20 -4.242173e-02))
5.14          	((8.881745e+00 -5.492965e-01 4.621117e-19) (1.212951e+00 7.073216e-02 1.093454e-18)) ((6.851413e-21 -3.401045e-19 -5.027160e-07) (4.014683e-18 -6.837664e-20 -4.260588e-02))
5.145         	((8.886590e+00 -5.532298e-01 4.655941e-19) (1.213305e+00 7.017955e-02 1.092197e-18)) ((8.383946e-21 -3.433009e-19 -5.049487e-07) (4.014709e-18 -6.662558e-20 -4.279028e-02))
5.15          	((8.889892e+00 -5.545470e-01 4.646414e-19) (1.213658e+00 6.962947e-02 1.090926e-18)) ((7.535146e-21 -3.426980e-19 -5.063000e-07) (4.014754e-18 -6.487128e-20 -4.297492e-02))
5.155         	((8.893102e+00 -5.565385e-01 4.635136e-19) (1.214010e+00 6.908148e-02 1.089667e-18)) ((6.794257e-21 -3.424616e-19 -5.080212e-07) (4.014821e-18 -6.309494e-20 -4.315970e-02))
5.16          	((8.895866e+00 -5.575502e-01 4.624719e-19) (1.214359e+00 6.853666e-02 1.088394e-18)) ((6.120697e-21 -3.422886e-19 -5.094942e-07) (4.014912e-18 -6.131843e-20 -4.334453e-02))
5.165         	((8.897639e+00 -5.553266e-01 4.618256e-19) (1.214706e+00 6.799852e-02 1.087088e-18)) ((5.531173e-21 -3.419642e-19 -5.099839e-07) (4.015028e-18 -5.955494e-20 -4.352940e-02))
5.17          	((8.903386e+00 -5.648517e-01 4.604446e-19) (1.215054e+00 6.745284e-02 1.085798e-18)) ((4.439032e-21 -3.412862e-19 -5.132191e-07) (4.015135e-18 -5.778545e-20 -4.371429e-02))
5.175         	((8.908106e+00 -5.720150e-01 4.593511e-19) (1.215403e+00 6.690256e-02 1.084486e-18)) ((3.530339e-21 -3.407998e-19 -5.158473e-07) (4.015251e-18 -5.601087e-20 -4.389921e-02))
5.18          	((8.910601e+00 -5.738169e-01 4.586357e-19) (1.215749e+00 6.635423e-02 1.083143e-18)) ((2.886540e-21 -3.405152e-19 -5.171054e-07) (4.015391e-18 -5.422573e-20 -4.408414e-02))
5.185         	((8.912034e+00 -5.743805e-01 4.580991e-19) (1.216092e+00 6.580933e-02 1.081775e-18)) ((2.370004e-21 -3.403560e-19 -5.178490e-07) (4.015557e-18 -5.242316e-20 -4.426906e-02))
5.19          	((8.909632e+00 -5.696502e-01 4.587813e-19) (1.216426e+00 6.527426e-02 1.080373e-18)) ((2.657464e-21 -3.411059e-19 -5.164241e-07) (4.015773e-18 -5.059250e-20 -4.445397e-02))
5.195         	((8.917723e+00 -5.847023e-01 4.542508e-19) (1.216765e+00 6.472509e-02 1.078993e-18)) ((-4.747000e-22 -3.379800e-19 -5.227818e-07) (4.015967e-18 -4.876084e-20 -4.463882e-02))
5.2           	((8.926698e+00 -6.104700e-01 4.459944e-19) (1.217110e+00 6.414865e-02 1.077638e-18)) ((-6.017623e-21 -3.321028e-19 -5.331725e-07) (4.016072e-18 -4.691180e-20 -4.482360e-02))
5.205         	((8.933007e+00 -6.084830e-01 4.477472e-19) (1.217458e+00 6.357832e-02 1.076094e-18)) ((-5.091362e-21 -3.336354e-19 -5.336007e-07) (4.015980e-18 -4.499793e-20 -4.500832e-02))
5.21          	((8.942977e+00 -5.971236e-01 4.542637e-19) (1.217812e+00 6.302561e-02 1.074526e-18)) ((-1.123786e-21 -3.386985e-19 -5.305975e-07) (4.015892e-18 -4.315544e-20 -4.519301e-02))
5.215         	((8.946610e+00 -5.928148e-01 4.523163e-19) (1.218166e+00 6.248197e-02 1.073195e-18)) ((-2.231258e-21 -3.371165e-19 -5.301062e-07) (4.015996e-18 -4.148946e-20 -4.537770e-02))
