/*--------------------------------*- C++ -*----------------------------------*\
  =========                 |
  \\      /  F ield         | OpenFOAM: The Open Source CFD Toolbox
   \\    /   O peration     | Website:  https://openfoam.org
    \\  /    A nd           | Version:  13
     \\/     M anipulation  |
\*---------------------------------------------------------------------------*/
FoamFile
{
    format      ascii;
    class       surfaceScalarField;
    location    "45";
    object      phi;
}
// * * * * * * * * * * * * * * * * * * * * * * * * * * * * * * * * * * * * * //

dimensions      [0 3 -1 0 0 0 0];

internalField   nonuniform List<scalar> 
823
(
-0.00513898
0.0179191
-0.0127801
0.0121485
0.00625094
-0.0235384
0.0764122
-0.0458902
-0.0183734
0.178759
-0.113445
0.0110981
-0.156938
0.00819403
0.327504
0.00700267
0.0109165
0.061582
-0.0483284
0.163684
-0.147992
0.283241
-0.233003
-0.30726
0.433563
0.0265774
-0.015661
0.120149
-0.1419
0.234051
-0.261894
0.338341
-0.337293
-0.376779
0.40786
0.0489004
-0.0645614
0.146924
-0.239923
0.225925
-0.340895
0.269668
-0.381036
-0.391528
0.284417
0.0600057
-0.124567
0.127612
-0.30753
0.163379
-0.376662
0.176514
-0.394171
0.185027
-0.400041
-0.0312419
0.0692621
-0.0380202
-0.0922198
0.123214
-0.0622361
-0.152205
0.126099
-0.0661135
-0.20176
0.118696
-0.0691408
0.111159
-0.236418
-0.0765004
0.024449
0.0448131
0.0389453
0.108718
0.0328145
0.132229
0.0197595
0.131751
0.119704
0.0112139
0.0290427
0.0157704
0.0764873
0.0612731
0.116609
0.0921081
0.145115
0.103245
0.103819
0.161
0.010761
0.00500937
0.0436539
0.0283802
0.0872673
0.0484947
0.137626
0.0528867
0.0608535
0.180591
-0.00777077
-0.00292903
0.0271922
0.091177
0.160225
0.197429
0.679744
-1.11359
0.619359
-1.4722
1.05027
0.58706
-1.28168
1.31398
0.53044
0.467649
-0.411028
0.286735
-0.232496
0.249523
0.441435
0.49904
-1.72172
0.583698
-1.36634
0.545133
0.506214
0.334676
0.271396
0.331039
0.370716
-1.82104
0.483696
-1.47932
0.521737
0.468173
0.361629
0.428025
0.0836041
0.430583
-1.8236
0.433794
-1.48253
0.474628
0.427338
0.349922
0.524167
-0.280339
0.481858
-1.78129
0.367393
-1.36806
0.386438
0.408293
0.248263
1.4824
-0.532252
-1.23049
1.25958
-1.55847
0.713288
-0.821765
0.638738
0.482843
0.0460939
1.46528
-0.595894
-1.40164
0.969249
-1.06244
0.47601
-0.328525
0.692992
0.26586
-0.165294
1.31262
-0.556827
-1.35168
0.864739
-0.614563
0.578722
-0.0425087
0.865106
-0.0205234
-0.237357
1.11205
-0.356294
-1.31258
0.699797
-0.202308
0.651574
0.00571418
0.773372
-0.142321
-0.129839
0.500529
-0.856822
0.29822
0.303935
0.161614
1.10559
0.146672
-1.06724
1.18008
0.20993
1.28949
0.29845
1.336
0.387051
0.433016
1.0038
0.0938089
-0.95094
1.07898
0.134753
1.17078
0.206653
1.28936
0.26847
0.320734
0.961272
0.0476021
-0.915066
1.01997
0.0760582
1.10485
0.121768
1.21967
0.153653
0.188719
0.93836
0.00896213
-0.89972
0.992985
0.0214329
1.07684
0.0379151
1.1827
0.0477903
0.0588358
0.690848
-0.681886
0.712281
0.750196
0.797987
0.140465
0.300317
-0.245876
-0.194906
0.0943629
0.305851
-0.259748
0.0533596
0.316506
-0.275503
0.0186203
0.307495
-0.272755
0.197303
-0.178683
0.101242
0.336249
-0.137174
0.0650647
0.342027
0.0329953
0.348575
0.00781133
0.332679
0.205115
0.0699058
0.372658
-0.106314
0.0375288
0.374404
0.00993501
0.376169
-0.00542993
0.348044
0.199685
-0.00817376
0.388339
-0.00750721
-0.0254139
0.391645
-0.0340515
0.384807
-0.0265904
0.340582
0.173094
-0.0871987
0.075497
-0.0897249
-0.0815797
-0.0485272
0.199301
0.106879
-0.252964
-0.053216
0.145085
0.110904
-0.0566884
0.0897807
0.115416
-0.0601116
0.0364162
0.114716
-0.0613518
0.0803249
-0.0439087
0.193679
0.150193
-0.236993
0.147156
0.157426
0.0954279
0.167144
0.0405519
0.169592
0.120877
0.136762
0.194635
-0.181203
0.0961118
0.198076
0.0570502
0.206206
0.0205338
0.206109
0.141411
0.15221
0.22669
-0.184266
0.113661
0.236626
0.0701642
0.249703
0.0274293
0.248844
0.16884
0.0826771
-0.101863
0.0595546
0.0337549
0.00984325
0.408197
0.0429632
-0.0551806
0.426531
0.0414917
-0.0598257
0.408637
0.208269
-0.190375
0.397358
0.204929
-0.193651
0.487903
-0.343509
0.406543
0.0324002
0.419095
0.0289392
0.39814
0.229224
0.38583
0.217239
0.63674
0.400341
0.0280393
0.412159
0.0171207
0.374561
0.266822
0.372349
0.219451
0.827886
0.39732
0.0266988
0.393397
0.0210435
0.363885
0.296334
0.354864
0.228472
0.998485
0.387893
0.0347856
0.378735
0.0302014
0.3365
0.338569
0.324433
0.240539
1.22105
0.621449
0.0173573
0.630476
0.0211742
0.686167
0.282877
0.791135
0.135572
1.02852
0.983668
0.631018
-0.00964037
0.613519
0.0386735
0.728524
0.167872
0.804646
0.05945
0.797185
1.03598
0.626648
-0.032268
0.640615
0.0247069
0.76471
0.0437765
0.801605
0.0225552
0.578675
1.02011
0.622705
-0.0509531
0.674058
-0.0266457
0.737355
-0.0195207
0.739471
0.0204399
0.300621
1.01752
0.553067
0.526422
0.506901
0.527341
0.827962
1.02552
-0.236762
1.01514
-0.126792
1.0263
-0.11747
1.02041
-0.00161868
0.0286699
0.979744
-0.180522
0.954252
-0.101299
0.926932
-0.0901511
0.933158
-0.00784465
0.0108886
0.947171
-0.107578
0.921136
-0.0752653
0.893066
-0.0620808
0.904444
-0.0192228
0.000267119
0.954743
-0.0447965
0.918086
-0.0386088
0.889776
-0.0337709
0.890046
-0.0194928
-0.00940701
0.783166
0.744557
0.710786
0.691293
0.0466222
0.155652
-0.202274
0.0696203
0.330521
-0.353519
0.0697494
0.382277
-0.382406
0.0606631
0.382875
-0.373789
0.350399
0.0486476
-0.338383
0.0692373
0.0864146
0.136912
0.262846
0.168543
0.350647
0.172653
0.378765
0.366255
0.156796
0.0599038
0.0265108
0.167546
0.155204
0.253254
0.264938
0.307068
0.324952
0.365772
0.307551
0.0294865
-0.00297572
0.127926
0.0567639
0.244373
0.148492
0.354362
0.214963
0.287622
0.432512
0.00767333
-0.0106491
0.0608484
0.00358878
0.156982
0.0523576
0.269197
0.102748
0.163581
0.393237
-3.94509e-05
-0.0106096
0.0132323
-0.00968299
0.0566063
0.00898359
0.122894
0.0364599
0.0833677
0.203108
0.000480319
-0.0110899
0.00416977
-0.0133724
0.0138291
-0.000675752
0.0298358
0.0204532
0.0513604
0.0618432
0.0248483
-0.0359382
0.0493239
-0.0378481
0.0585534
-0.00990526
0.0612274
0.0177792
0.0437637
0.0688241
0.000673646
-0.0366118
-0.0089308
-0.0282436
-0.0245236
0.00568756
-0.0353072
0.0285627
0.0467365
-0.0382799
-0.074632
-0.165112
-0.225538
-0.266116
-0.29588
0.124565
1.19906
-1.12051
0.270725
-0.125288
-0.020872
0.361508
-0.0747146
-0.0160683
0.247962
0.217525
-0.10398
-0.0549869
0.0901611
0.011329
1.24957
0.181713
-0.295672
0.451977
-0.344979
0.349119
0.320384
0.00569762
-0.128157
1.44655
0.0725614
-0.49639
0.541585
-0.814003
0.450961
0.411007
0.0867133
-0.0994049
1.50768
0.130119
-0.725914
0.533963
-1.21785
0.512127
0.432843
0.166531
0.0982067
0.422567
0.518696
0.540511
-0.105581
0.631051
-0.52547
-0.0476131
-0.057968
0.0301381
-0.0777512
0.0774517
-0.0473136
-0.079713
0.555623
-1.04509
0.476783
0.382963
0.23167
0.0854848
-0.0124012
-0.0730836
0.136146
-0.0506612
0.229559
-0.0934127
0.366223
-0.136664
-0.159247
0.194974
-0.158728
0.30111
0.515248
0.811096
0.140352
-0.138325
0.168427
-0.170454
0.106711
-0.144029
0.17767
0.0684324
-0.15159
0.189868
0.0276597
-0.151956
0.192729
-0.107398
0.135058
0.180211
-0.098832
-0.219705
0.136238
-0.100056
0.0868384
-0.10219
0.0359726
-0.101091
-0.0714253
0.189896
-0.0496567
-0.239071
0.1392
-0.0493605
0.0868702
-0.0498601
0.0354189
-0.0496392
-0.0360064
0.20206
0.00201209
-0.253729
0.149622
0.00307753
0.0955652
0.00419706
0.0403934
0.00553255
0.004387
0.204866
-0.25607
0.151255
0.095341
0.0395217
0.0414044
-0.3185
-0.0612876
0.016496
-0.348881
-0.00566796
-0.360242
-0.0150402
-0.344147
-0.217314
0.121724
-0.287538
-0.152686
0.0798789
-0.307035
0.0389087
-0.319272
0.00802572
-0.313264
-0.209289
0.140254
-0.248129
-0.179663
0.0986145
-0.265395
0.0576014
-0.278259
0.0204325
-0.276095
-0.188856
0.15794
-0.213341
-0.192729
0.115758
-0.223213
0.0705736
-0.233075
0.027738
-0.233259
-0.161118
0.155339
-0.200252
0.109797
0.0665904
0.0260603
0.392438
0.095936
-0.0923944
0.390463
0.104726
-0.102751
0.356226
0.161586
-0.12735
0.298537
0.0626191
-0.00493001
-0.19767
0.325753
0.400165
0.0917503
0.405887
0.0990042
0.395041
0.172432
0.347614
0.110047
-0.0697611
0.405148
0.0825822
0.415851
0.0883012
0.409899
0.178384
0.372826
0.14712
0.0639941
0.408955
0.0696063
0.422259
0.0749977
0.418117
0.182525
0.391704
0.173534
0.201969
0.410405
0.425577
0.417727
0.39761
0.41597
0.0940808
0.32898
0.08699
0.240035
0.0889452
0.243793
-0.00375809
-0.179287
0.42308
0.511737
0.495977
0.457572
0.448884
0.59535
0.340368
0.0827122
0.265764
0.0746041
0.177581
0.0881832
0.103278
0.0743032
0.030194
0.47781
0.359685
0.268205
0.189822
)
;

boundaryField
{
    left
    {
        type            calculated;
        value           nonuniform List<scalar> 
17
(
-0.60402
-0.60402
-0.60402
-0.60402
-0.60402
-0.39598
-0.39598
-0.39598
-0.39598
-0.39598
-0.39598
-0.39598
-0.39598
-0.39598
-0.39598
-0.510051
-0.510051
)
;
    }
    right
    {
        type            calculated;
        value           nonuniform List<scalar> 
17
(
0.157165
0.242118
0.212788
0.288435
0.369946
0.43231
0.474545
0.476201
0.497192
0.494783
0.486336
0.488097
0.840907
0.90438
0.937169
0.665854
0.0317744
)
;
    }
    down
    {
        type            calculated;
        value           uniform 0;
    }
    up
    {
        type            calculated;
        value           uniform 0;
    }
    cylinder
    {
        type            calculated;
        value           uniform 0;
    }
    defaultFaces
    {
        type            empty;
    }
}


// ************************************************************************* //
