# Selection   : all
# Cells       : 1800
# Volume      : 7.372328e+01
# Time        	minMag(U)
3.05          	5.226240e-03
3.075         	3.584773e-03
3.1           	3.102349e-03
