# Selection   : all
# Cells       : 440
# Volume      : 7.374263e+01
# Time        	min(p)
5.215         	-1.752710e+00
5.26          	-1.745104e+00
5.31          	-1.743667e+00
