/*--------------------------------*- C++ -*----------------------------------*\
  =========                 |
  \\      /  F ield         | OpenFOAM: The Open Source CFD Toolbox
   \\    /   O peration     | Website:  https://openfoam.org
    \\  /    A nd           | Version:  13
     \\/     M anipulation  |
\*---------------------------------------------------------------------------*/
FoamFile
{
    format      ascii;
    class       surfaceScalarField;
    location    "66.4";
    object      phi;
}
// * * * * * * * * * * * * * * * * * * * * * * * * * * * * * * * * * * * * * //

dimensions      [0 3 -1 0 0 0 0];

internalField   nonuniform List<scalar> 
823
(
0.0162677
0.0107422
-0.0270098
0.0478224
0.00184992
-0.0334047
0.106021
-0.0469437
-0.0112548
0.190257
-0.113909
0.0296723
-0.162446
0.0570366
0.295666
0.0115086
-0.000766498
0.066908
-0.0535494
0.162258
-0.142294
0.271095
-0.222745
-0.296587
0.405236
0.0208996
-0.0216661
0.105694
-0.138344
0.215876
-0.252476
0.320405
-0.327275
-0.370079
0.393898
0.0440676
-0.0657337
0.139819
-0.234095
0.223023
-0.33568
0.273515
-0.377767
-0.387738
0.291174
0.0571734
-0.122907
0.127341
-0.304263
0.166074
-0.374413
0.179735
-0.391429
0.188119
-0.396121
0.00553792
-0.0289895
0.0234516
0.00792733
-0.0718044
0.069415
-0.00561078
-0.0764453
0.0899834
-0.0324608
-0.0625641
0.0894141
-0.0505014
-0.0638521
0.0818926
-0.00324048
-0.025749
-0.0213139
-0.053731
-0.0517046
-0.0460546
-0.0826108
-0.031658
-0.0282659
-0.104846
-0.0150327
-0.0107164
-0.0499187
-0.018845
-0.0859891
-0.00998419
-0.11004
-0.00760736
-0.0183043
-0.120001
-0.0318913
0.0211749
-0.0767741
0.0260379
-0.10676
0.0200019
-0.116713
0.00234532
-0.0212718
-0.113745
-0.00583491
-0.0132017
-0.00445462
0.027563
0.0633277
0.171654
-0.634302
0.398796
0.362397
1.05108
-1.24183
0.336544
1.4019
-1.37605
0.453828
-1.0859
0.968618
-1.03459
1.01394
0.270692
-1.00984
0.588002
0.733773
0.477542
1.51236
0.53382
-1.14218
-1.04454
0.224379
-1.35422
0.477529
0.480623
0.485181
1.50471
0.59925
-1.25625
-1.05579
0.0624781
-1.53044
0.19762
0.345481
0.486779
1.21555
0.64007
-1.40954
-1.06334
-0.0249754
-1.44214
0.0471719
0.273334
0.606094
0.656626
0.672408
-1.47586
-1.05671
0.731155
-0.993747
-1.17955
0.559151
0.445338
1.25675
-0.0409774
1.19653
-1.41563
-0.884833
0.953992
-0.605204
-1.34253
1.03537
0.363959
1.44121
-0.446818
1.20839
-1.1828
-0.63274
1.05165
-0.327183
-1.32967
1.27079
0.144826
1.3796
-0.555634
1.00744
-0.810638
-0.371719
1.09444
-0.149193
-1.27243
1.27321
-0.0339478
1.09399
-0.376414
0.626278
-0.342926
-0.113495
0.714647
-0.86384
0.680699
0.304286
-0.0386405
1.09659
0.14371
-1.05218
1.16347
0.224292
1.26653
0.290833
1.27793
0.393836
0.39405
1.02061
0.0860134
-0.962911
1.0868
0.158095
1.16758
0.21006
1.27454
0.286869
0.32606
0.955915
0.0450891
-0.914991
1.01541
0.098601
1.09503
0.130443
1.21029
0.171601
0.20668
0.889969
0.0120895
-0.856969
0.952993
0.0355763
1.03625
0.0471834
1.14416
0.0636928
0.0784147
0.638972
-0.626883
0.674549
0.721732
0.785425
0.133132
0.302043
-0.250488
-0.184687
0.0881308
0.308089
-0.263089
0.0481916
0.318818
-0.278879
0.0155813
0.311126
-0.278515
0.202555
-0.186974
0.100187
0.339164
-0.137308
0.063989
0.344287
0.0315608
0.351246
0.00621136
0.336475
0.208766
0.0595853
0.370619
-0.0910399
0.0295606
0.374312
0.00418009
0.376627
-0.00813938
0.348795
0.200627
-0.0143379
0.387169
-0.00221234
-0.0305255
0.390499
-0.0379604
0.384062
-0.0287942
0.339628
0.171833
-0.0930109
0.0840586
-0.0939402
-0.0842914
-0.0489256
0.202163
0.0994689
-0.254836
-0.0467955
0.148211
0.103892
-0.049941
0.0924118
0.108828
-0.053029
0.0377323
0.109181
-0.0545019
0.0781809
-0.0404486
0.194693
0.143974
-0.239198
0.148108
0.150477
0.0963452
0.160591
0.0409845
0.164542
0.119165
0.151451
0.18954
-0.197017
0.107896
0.194032
0.0654665
0.203021
0.0249512
0.205058
0.144117
0.155368
0.223701
-0.189529
0.115549
0.233851
0.0709617
0.247608
0.027501
0.248518
0.171618
0.105862
-0.132649
0.0766242
0.0453531
0.0153561
0.405788
0.0684602
-0.0782688
0.419504
0.034449
-0.048165
0.415497
0.149668
-0.14566
0.390881
0.217539
-0.192923
0.429376
-0.293331
0.402921
0.0615185
0.413794
0.0235761
0.405494
0.157968
0.375663
0.24737
0.565841
0.396311
0.0611871
0.409267
0.0106201
0.385257
0.181977
0.363457
0.269171
0.732281
0.392685
0.0644819
0.397859
0.00544598
0.371842
0.207995
0.335778
0.305234
0.878531
0.385355
0.0751068
0.388194
0.00260707
0.34048
0.255708
0.310777
0.334936
1.05666
0.620876
0.0582512
0.662937
-0.0394542
0.688667
0.229979
0.739227
0.284376
0.796251
0.999635
0.635365
0.0269062
0.6805
-0.0845891
0.709445
0.201034
0.757457
0.236364
0.514187
1.03952
0.650647
-0.0197206
0.665893
-0.0998353
0.696551
0.170377
0.794879
0.138036
0.287976
1.02109
0.645291
-0.0609911
0.612218
-0.0667627
0.704925
0.0776701
0.806425
0.0365363
0.129588
0.964812
0.543029
0.476267
0.553937
0.590473
0.720061
1.02331
-0.208362
1.01805
-0.132049
1.01466
-0.0876486
1.02
-0.00755475
0.051883
0.979253
-0.148094
0.96483
-0.117626
0.934528
-0.0573475
0.951594
-0.0246207
0.0405662
0.957942
-0.0849452
0.923799
-0.0834826
0.897541
-0.0310901
0.901697
-0.0287758
0.0272723
0.912135
-0.0322685
0.864621
-0.0359683
0.847962
-0.0144311
0.837067
-0.0178805
0.00737004
0.687793
0.651825
0.637393
0.619513
0.0540826
0.157954
-0.212036
0.0789563
0.348681
-0.373555
0.0782501
0.404706
-0.404
0.0678715
0.407378
-0.397
0.375826
0.0540816
-0.362037
0.0813295
0.0766243
0.158546
0.271464
0.193048
0.370205
0.196734
0.403692
0.394638
0.177923
0.0673279
0.00929644
0.19373
0.145062
0.2929
0.271035
0.354861
0.34173
0.395594
0.353905
0.0310082
-0.0217118
0.144174
0.0318963
0.278911
0.136298
0.411547
0.209095
0.300784
0.506356
0.00460745
-0.0263192
0.0600337
-0.0235299
0.173463
0.0228686
0.314312
0.0682457
0.14661
0.468486
-0.006062
-0.0202572
0.00767791
-0.0372698
0.0637638
-0.0332173
0.155045
-0.0230354
0.0321774
0.269478
-0.00810723
-0.01215
-0.0118724
-0.0335047
0.0027115
-0.0478012
0.0328281
-0.0531521
-0.0335465
0.098552
-0.00206894
-0.0100811
0.00177734
-0.037351
0.0138571
-0.059881
0.0317882
-0.0710831
-0.0710816
0.0693233
0.00627838
-0.0163595
0.0240547
-0.0551273
0.046428
-0.0822542
0.0678748
-0.09253
-0.0928365
0.0896297
0.0070921
0.0213797
0.0291089
0.0259931
0.0150492
0.41403
0.912028
-1.05658
0.337198
0.645678
-0.568845
0.0267648
0.745541
-0.435108
0.0678899
-0.323106
0.28198
-0.71893
0.526064
0.454935
0.555645
0.332716
0.767897
0.0491493
1.02911
0.134834
-0.408791
-0.847894
0.477957
0.147012
0.241646
1.00421
0.0348647
1.23589
0.202919
-0.576845
-0.93506
0.428969
-0.192328
0.217818
1.21536
0.0849131
1.36879
0.284532
-0.776464
-0.986553
0.221518
0.195051
0.187799
0.379954
-0.0807067
0.706567
-0.62586
-0.22318
0.142473
-0.223332
0.000152346
-0.0153158
-0.208017
-0.221841
0.833187
-1.1832
0.406815
-0.0281411
0.0458228
0.0914815
-0.0133323
-0.0781492
0.150858
-0.0593763
0.26071
-0.109853
0.421638
-0.160928
-0.204222
0.210908
-0.170159
0.329455
0.573508
0.918936
0.142947
-0.144976
0.176074
-0.174046
0.109354
-0.150876
0.184469
0.0710761
-0.158686
0.196963
0.0292603
-0.158512
0.200328
-0.110573
0.139833
0.186206
-0.105475
-0.225707
0.141398
-0.106069
0.0900681
-0.107355
0.0372356
-0.10568
-0.0733373
0.184103
-0.0549847
-0.234592
0.132759
-0.0547252
0.0815999
-0.0561964
0.0329073
-0.0569874
-0.04043
0.201499
-0.00402496
-0.252459
0.149791
-0.00301784
0.0958916
-0.00229648
0.0404596
-0.00155546
2.96098e-05
0.204761
-0.255581
0.151802
0.0964764
0.040419
0.0437985
-0.339218
-0.0666168
0.0162972
-0.369498
-0.00748422
-0.380219
-0.0175391
-0.3635
-0.229576
0.131106
-0.306438
-0.163886
0.0866079
-0.325001
0.0420892
-0.3357
0.00854863
-0.329959
-0.221027
0.151716
-0.263669
-0.194485
0.106246
-0.27953
0.0623224
-0.291777
0.0223216
-0.289958
-0.198705
0.171811
-0.225992
-0.209488
0.126698
-0.234418
0.078206
-0.243284
0.0314459
-0.243198
-0.167259
0.166565
-0.216483
0.116617
0.0702962
0.0274262
0.388035
0.10719
-0.0992461
0.388538
0.0887682
-0.0892707
0.356383
0.142428
-0.110274
0.305931
0.0480337
0.0024187
-0.243652
0.375537
0.39625
0.10692
0.402849
0.082169
0.39582
0.149458
0.348915
0.0949393
-0.120444
0.401725
0.101174
0.41265
0.0712441
0.410535
0.151573
0.372491
0.132983
0.0174544
0.406671
0.0904823
0.417857
0.0600583
0.421501
0.147929
0.389879
0.164605
0.154875
0.408193
0.420086
0.422355
0.394037
0.414101
0.0959496
0.33365
0.0804514
0.25221
0.08144
0.258822
-0.00661226
-0.202208
0.461031
0.506755
0.497935
0.469102
0.464908
0.638237
0.368707
0.0923239
0.286956
0.0817506
0.191828
0.0951281
0.111283
0.0805452
0.0331334
0.514078
0.38634
0.286983
0.203642
)
;

boundaryField
{
    left
    {
        type            calculated;
        value           nonuniform List<scalar> 
17
(
-0.60402
-0.60402
-0.60402
-0.60402
-0.60402
-0.39598
-0.39598
-0.39598
-0.39598
-0.39598
-0.39598
-0.39598
-0.39598
-0.39598
-0.39598
-0.510051
-0.510051
)
;
    }
    right
    {
        type            calculated;
        value           nonuniform List<scalar> 
17
(
0.206525
0.350046
0.260756
0.263799
0.290085
0.336025
0.407341
0.47448
0.54377
0.6105
0.647615
0.665784
1.02465
0.956294
0.746416
0.368054
-0.152136
)
;
    }
    down
    {
        type            calculated;
        value           uniform 0;
    }
    up
    {
        type            calculated;
        value           uniform 0;
    }
    cylinder
    {
        type            calculated;
        value           uniform 0;
    }
    defaultFaces
    {
        type            empty;
    }
}


// ************************************************************************* //
