# Selection   : all
# Cells       : 1800
# Volume      : 7.372328e+01
# Time        	min(p)
1.15          	-3.860757e+00
1.175         	-3.321964e+00
1.2           	-3.240662e+00
