/*--------------------------------*- C++ -*----------------------------------*\
  =========                 |
  \\      /  F ield         | OpenFOAM: The Open Source CFD Toolbox
   \\    /   O peration     | Website:  https://openfoam.org
    \\  /    A nd           | Version:  13
     \\/     M anipulation  |
\*---------------------------------------------------------------------------*/
FoamFile
{
    format      ascii;
    class       surfaceScalarField;
    location    "0.89";
    object      phi;
}
// * * * * * * * * * * * * * * * * * * * * * * * * * * * * * * * * * * * * * //

dimensions      [0 3 -1 0 0 0 0];

internalField   nonuniform List<scalar> 
3485
(
0.00137167
-0.011258
0.00988628
0.00505116
-0.0319067
0.0282272
0.0107642
-0.0513828
0.0456698
0.0183125
-0.0696769
0.0621286
0.0275453
-0.0868351
0.0776023
0.0383482
-0.102901
0.0920983
0.0506328
-0.117907
0.105622
0.0643558
-0.131871
0.118148
0.0796148
-0.144862
0.129603
-0.156896
0.139505
0.0970056
0.00150034
-0.0127583
0.00544583
-0.0358522
0.0114762
-0.0574132
0.0193235
-0.0775242
0.0287728
-0.0962843
0.0396465
-0.113775
0.0518006
-0.130061
0.065127
-0.145198
0.0795343
-0.159269
-0.172198
0.0948362
0.00147418
-0.0142325
0.00532699
-0.039705
0.0111745
-0.0632607
0.0187208
-0.0850706
0.0277252
-0.105289
0.0379883
-0.124038
0.0493441
-0.141416
0.061653
-0.157507
0.074783
-0.172399
-0.186037
0.0886225
0.00133887
-0.0155713
0.00485903
-0.0432252
0.0102109
-0.0686125
0.017117
-0.0919767
0.0253538
-0.113525
0.03474
-0.133424
0.0451299
-0.151806
0.0564032
-0.16878
0.0684533
-0.184449
-0.198791
0.0812067
0.00116693
-0.0167383
0.00425599
-0.0463142
0.00897313
-0.0733296
0.0150817
-0.0980853
0.0223916
-0.120835
0.0307522
-0.141785
0.0400458
-0.1611
0.0501797
-0.178914
0.0610763
-0.195346
-0.210402
0.0726877
0.000980024
-0.0177183
0.00358795
-0.0489221
0.00758659
-0.0773283
0.0127839
-0.103283
0.019026
-0.127077
0.0261924
-0.148951
0.0341912
-0.169099
0.042953
-0.187676
0.0524228
-0.204816
-0.220549
0.0625696
0.000780725
-0.018499
0.002865
-0.0510064
0.00606896
-0.0805322
0.0102428
-0.107456
0.0152665
-0.132101
0.0210466
-0.154732
0.0275141
-0.175566
0.0346202
-0.194782
0.0423308
-0.212526
-0.228851
0.0506323
0.000569701
-0.0190687
0.00209345
-0.0525302
0.00443785
-0.0828767
0.00749264
-0.110511
0.0111686
-0.135777
0.0153967
-0.15896
0.0201274
-0.180297
0.0253293
-0.199984
0.0309862
-0.218183
-0.234967
0.0371027
0.000352505
-0.0194212
0.00129575
-0.0534734
0.002745
-0.0843259
0.0046283
-0.112395
0.00688642
-0.138035
0.00947301
-0.161546
0.0123552
-0.183179
0.0155141
-0.203143
0.0189446
-0.221614
-0.238684
0.0226613
0.000137792
-0.019559
0.000502454
-0.0538381
0.00105695
-0.0848804
0.00176951
-0.113107
0.00261368
-0.138879
0.00356835
-0.162501
0.00461804
-0.184229
0.00575323
-0.204278
0.00697049
-0.222831
0.00827487
-0.239988
0.00048726
-0.00186856
0.00138131
0.00208587
-0.00625516
0.00465655
0.00542708
-0.0114268
0.00808559
0.0101154
-0.0162033
0.011515
0.0155396
-0.0201964
0.0147723
0.0214362
-0.0235919
0.0176952
0.0279019
-0.0267728
0.0203071
0.0350852
-0.0299679
0.0227845
0.0429709
-0.0331289
0.0252432
-0.0361033
0.0514249
0.0276494
0.000426819
-0.00229539
0.00211032
-0.00793866
0.00543719
-0.0147537
0.00981317
-0.0205793
0.0148835
-0.0252668
0.0207584
-0.0294668
0.0276111
-0.0336255
0.0353896
-0.0377464
0.043882
-0.0416213
-0.0451445
0.0529231
0.000682839
-0.00297822
0.00271675
-0.00997257
0.00577944
-0.0178164
0.00976029
-0.0245602
0.0148128
-0.0303193
0.0211099
-0.0357639
0.0285824
-0.041098
0.0369503
-0.0461143
0.0459945
-0.0506654
-0.054774
0.0556239
0.000868629
-0.00384685
0.00306151
-0.0121655
0.00607874
-0.0208336
0.0101994
-0.0286808
0.0156969
-0.0358168
0.0225545
-0.0426215
0.0305297
-0.0490732
0.0393855
-0.0549701
0.049027
-0.0603069
-0.0651194
0.0593723
0.000923384
-0.00477024
0.0032011
-0.0144432
0.00651901
-0.0241515
0.0111165
-0.0332782
0.0171343
-0.0418346
0.0244471
-0.0499343
0.0328629
-0.057489
0.0422842
-0.0643914
0.0526484
-0.0706711
-0.0762939
0.0638229
0.000944131
-0.00571437
0.00337308
-0.0168721
0.0070915
-0.0278699
0.0121742
-0.038361
0.0186324
-0.0482928
0.0263547
-0.0576566
0.0352438
-0.0663781
0.0452528
-0.0744004
0.0563032
-0.0817215
-0.0882279
0.0682372
0.000980118
-0.00669449
0.0035843
-0.0194763
0.00764145
-0.0319271
0.013107
-0.0438265
0.0199253
-0.0551112
0.0280101
-0.0657413
0.0372991
-0.0756671
0.0477464
-0.0848477
0.059279
-0.0932541
-0.100701
0.0717521
0.00101811
-0.00771259
0.00376795
-0.0222261
0.00807125
-0.0362304
0.0138198
-0.049575
0.0209191
-0.0622105
0.0292803
-0.0741025
0.0388336
-0.0852204
0.0495225
-0.0955366
0.0612884
-0.10502
-0.113444
0.0740311
0.00105469
-0.00876729
0.00393685
-0.0251083
0.00846109
-0.0407546
0.014482
-0.055596
0.0218735
-0.069602
0.0305251
-0.0827541
0.0403416
-0.0950368
0.051234
-0.106429
0.0631216
-0.116908
-0.126322
0.0759995
0.001119
0.00423791
0.00915311
0.0156857
0.023686
0.0330303
0.0436154
0.0553345
0.0680299
0.0812133
0.114326
-0.414637
0.351736
0.168133
-0.471952
0.418145
0.21028
-0.422122
0.379975
0.244167
-0.326937
0.29305
0.27098
-0.214635
0.187822
0.29159
-0.110246
0.0896353
0.305136
-0.0318978
0.0183525
0.310407
0.0107987
-0.0160695
0.311012
0.0250765
-0.0256819
0.0205408
-0.0194396
0.115903
-0.477618
0.169687
-0.525735
0.211802
-0.464237
0.245428
-0.360563
0.272388
-0.241595
0.293797
-0.131655
0.310097
-0.048197
0.319321
0.00157432
0.323181
0.0212165
0.0199166
0.11771
-0.539704
0.170508
-0.578533
0.212212
-0.505941
0.245219
-0.393571
0.272037
-0.268413
0.293756
-0.153375
0.311647
-0.0660875
0.3243
-0.0110792
0.332588
0.0129286
0.0163772
0.120091
-0.600423
0.170874
-0.629316
0.21169
-0.546757
0.243771
-0.425652
0.270176
-0.294817
0.291949
-0.175148
0.310678
-0.0848166
0.325193
-0.0255944
0.337817
0.000304609
0.00801555
0.122991
-0.659591
0.170986
-0.677311
0.210367
-0.586138
0.241275
-0.45656
0.267003
-0.320545
0.28867
-0.196815
0.307947
-0.104093
0.323399
-0.041047
0.338958
-0.0152544
-0.00518692
0.12585
-0.717204
0.170873
-0.722334
0.208324
-0.623589
0.237869
-0.486105
0.262672
-0.345348
0.284117
-0.21826
0.303717
-0.123693
0.320065
-0.0573952
0.335626
-0.0308154
-0.0176932
0.127791
-0.773243
0.170348
-0.764891
0.205608
-0.65885
0.233666
-0.514162
0.257325
-0.369008
0.278419
-0.239353
0.29819
-0.143465
0.315509
-0.0747135
0.32941
-0.044717
-0.0264623
0.127874
-0.827086
0.168928
-0.805944
0.202082
-0.692004
0.228632
-0.540713
0.251009
-0.391384
0.271571
-0.259916
0.291678
-0.163571
0.30837
-0.0914052
0.319028
-0.0553754
-0.0331206
0.125797
-0.876883
0.166205
-0.846353
0.197693
-0.723491
0.222856
-0.565877
0.243831
-0.412359
0.263629
-0.279714
0.283174
-0.183116
0.297348
-0.10558
0.304972
-0.0629989
-0.0396256
0.122115
-0.917785
0.16138
-0.885617
0.191568
-0.753679
0.215631
-0.58994
0.235291
-0.432019
0.254449
-0.298871
0.270853
-0.199521
0.281867
-0.116594
0.289334
-0.0704652
-0.0464651
0.583956
-0.920263
-0.581478
0.561182
-0.862844
0.523943
-0.716439
0.487841
-0.553838
0.460464
-0.404643
0.443752
-0.282158
0.431498
-0.187267
0.425284
-0.11038
0.421978
-0.0671586
-0.0449827
0.68287
-0.87167
-0.731462
0.619674
-0.799648
0.553841
-0.650607
0.496218
-0.496215
0.450503
-0.358927
0.418491
-0.250146
0.398307
-0.167083
0.388729
-0.100802
0.383386
-0.0618161
-0.0417549
0.753983
-0.775225
-0.850429
0.655069
-0.700734
0.563322
-0.55886
0.487186
-0.420079
0.429126
-0.300868
0.388838
-0.209858
0.363328
-0.141573
0.350212
-0.0876862
0.342909
-0.0545136
-0.0371136
0.778964
-0.64171
-0.912479
0.653687
-0.575457
0.546169
-0.451342
0.460851
-0.334761
0.39777
-0.237787
0.353938
-0.166026
0.325534
-0.11317
0.309875
-0.0720269
0.300918
-0.0455563
-0.0313764
0.752961
-0.492445
-0.902225
0.617526
-0.440022
0.50612
-0.339936
0.419998
-0.248639
0.357348
-0.175136
0.313735
-0.122413
0.284857
-0.0842919
0.267882
-0.0550516
0.257773
-0.035447
-0.0248853
0.685095
-0.345841
-0.831699
0.552684
-0.307612
0.446421
-0.233673
0.365944
-0.168161
0.308184
-0.117376
0.267954
-0.0821838
0.24083
-0.057168
0.224038
-0.0382592
0.213572
-0.0249816
-0.0180898
0.582615
-0.213864
-0.714592
0.462882
-0.18788
0.369303
-0.140094
0.299921
-0.0987788
0.250852
-0.068307
0.216674
-0.0480059
0.193255
-0.0337488
0.178129
-0.0231337
0.168303
-0.0151553
-0.0115472
0.448757
-0.105525
-0.557096
0.351175
-0.0902975
0.27705
-0.0659692
0.223519
-0.045247
0.186245
-0.0310334
0.160238
-0.0219991
0.142132
-0.0156429
0.130016
-0.0110171
0.12191
-0.00704972
-0.00589061
0.28659
-0.030221
-0.361894
0.220909
-0.0246157
0.172487
-0.0175471
0.138709
-0.0114693
0.115472
-0.00779617
0.0991072
-0.00563459
0.0875329
-0.00406855
0.0795324
-0.00301663
0.0742402
-0.00175748
-0.00180475
0.101315
-0.131536
0.0766997
0.0591526
0.0476833
0.0398871
0.0342525
0.030184
0.0271673
0.0254098
0.73882
0.0102223
-0.740768
0.733074
0.0284072
0.723436
0.0467414
0.710163
0.0639053
0.69357
0.0791624
0.674077
0.0921812
0.652273
0.10301
0.628714
0.112182
0.60427
0.11928
0.119798
0.845548
0.0133981
-0.848724
0.837321
0.0366344
0.827288
0.0567748
0.816594
0.0745994
0.805251
0.0905051
0.792897
0.104535
0.779284
0.116623
0.764588
0.126878
0.749124
0.134744
0.137459
0.844982
0.0114253
-0.843009
0.848882
0.0327348
0.853019
0.0526378
0.85647
0.0711481
0.858831
0.0881436
0.859918
0.103448
0.859594
0.116947
0.857966
0.128505
0.8553
0.137411
0.14233
0.800213
0.0093044
-0.798092
0.80582
0.027127
0.814418
0.0440405
0.825636
0.0599302
0.839
0.0747793
0.853848
0.0885998
0.869417
0.101378
0.88505
0.112872
0.899935
0.122526
0.129786
0.737865
0.0070387
-0.7356
0.744154
0.0208384
0.754123
0.0340714
0.767503
0.0465501
0.784083
0.0581998
0.80366
0.0690223
0.825988
0.079051
0.85062
0.0882394
0.87654
0.0966058
0.104102
0.653921
0.00485394
-0.651736
0.660203
0.0145561
0.670378
0.0238963
0.684221
0.0327074
0.701525
0.0408959
0.722111
0.0484359
0.745805
0.0553567
0.772329
0.0617159
0.801216
0.0677186
0.0736187
0.549112
0.00291606
-0.547174
0.554812
0.00885589
0.564138
0.0145705
0.576905
0.01994
0.592915
0.0248867
0.611968
0.0293826
0.633871
0.033454
0.658406
0.0371801
0.685379
0.0407461
0.0444058
0.422793
0.00137571
-0.421252
0.427413
0.00423594
0.435008
0.00697561
0.445422
0.00952586
0.45847
0.0118388
0.473957
0.0138957
0.491697
0.0157138
0.511527
0.0173497
0.533346
0.0189271
0.0206561
0.273828
0.000366655
-0.272819
0.276915
0.00114943
0.281999
0.00189174
0.288955
0.00256941
0.29763
0.00316447
0.307856
0.00366915
0.319482
0.00408805
0.332395
0.00443667
0.346562
0.00476039
0.00532319
0.100484
-0.100117
0.101633
0.103525
0.106094
0.109259
0.112928
0.117016
0.121453
0.126213
0.0779292
0.159505
-0.142492
-0.0949418
0.0630258
0.147461
-0.132557
0.0496171
0.134406
-0.120997
0.0376025
0.120332
-0.108318
0.0270259
0.105171
-0.0945942
0.0179775
0.0888944
-0.079846
0.0105727
0.0714606
-0.0640557
0.00496321
0.0528094
-0.0472
0.00134799
0.0328743
-0.0292591
0.0116389
-0.010291
0.0779393
0.174434
-0.0928687
0.0638701
0.16153
0.050839
0.147437
0.0389376
0.132234
0.0282758
0.115833
0.0190001
0.0981701
0.0112895
0.0791712
0.00535956
0.0587393
0.00147721
0.0367566
0.0131162
0.0731786
0.187928
-0.0866731
0.0603695
0.174339
0.04835
0.159457
0.0372485
0.143335
0.027203
0.125878
0.0183792
0.106994
0.0109766
0.0865738
0.00523535
0.0644806
0.00144963
0.0405424
0.0145658
0.0667704
0.200353
-0.0791952
0.0550328
0.186077
0.0440492
0.17044
0.0339216
0.153463
0.0247664
0.135033
0.016727
0.115033
0.00998166
0.0933191
0.00475147
0.0697108
0.00130965
0.0439842
0.0158754
0.0593121
0.211657
-0.0706158
0.0487151
0.196674
0.0388673
0.180288
0.0298411
0.162489
0.0217243
0.14315
0.0146295
0.122128
0.00870233
0.0992463
0.00412645
0.0742867
0.00113097
0.0469797
0.0170064
0.0505979
0.221521
-0.0604618
0.0414109
0.205861
0.0329274
0.188772
0.0251972
0.170219
0.0182837
0.150064
0.0122721
0.12814
0.00727495
0.104243
0.00343653
0.0781251
0.000937284
0.0494789
0.0179437
0.0404571
0.229564
-0.0485
0.0330126
0.213305
0.0261763
0.195608
0.0199772
0.176418
0.0144573
0.155583
0.00967743
0.13292
0.00572043
0.1082
0.00269376
0.0811518
0.000731839
0.0514408
0.0186755
0.029054
0.235441
-0.0349316
0.0236511
0.218708
0.0187146
0.200544
0.0142551
0.180878
0.0102962
0.159542
0.00687751
0.136338
0.0040556
0.111022
0.00190427
0.0833031
0.000515283
0.0528298
0.0191908
0.0169174
0.238926
-0.0204019
0.0137418
0.221884
0.0108549
0.203431
0.0082548
0.183478
0.00595148
0.161846
0.00396649
0.138323
0.00233218
0.112657
0.00109066
0.0845446
0.000293242
0.0536272
0.0194841
0.00482785
-0.00589045
0.00388044
0.00303404
0.00228342
0.00162818
0.00107202
0.000621625
0.000285832
7.49724e-05
0.0436734
0.0414162
-0.0525729
-0.0325167
0.0352937
0.0383666
-0.0299868
0.0276207
0.0349661
-0.0272931
0.0208817
0.0313499
-0.0246109
0.0150798
0.027781
-0.021979
0.00997333
0.0242218
-0.0191154
0.00544349
0.0200854
-0.0155556
0.00197676
0.0144724
-0.0110057
0.000386958
0.00739987
-0.00581006
0.00208926
-0.0017023
0.0437652
0.0505897
-0.0529387
0.0351111
0.0470207
0.0270673
0.04301
0.0199164
0.0385007
0.0139758
0.0337216
0.00925336
0.0289443
0.00550432
0.0238344
0.00257647
0.0174003
0.00062198
0.00935436
0.00271124
0.0449373
0.0601479
-0.0544956
0.0360124
0.0559456
0.0277718
0.0512506
0.0203319
0.0459406
0.0140186
0.0400349
0.00909711
0.0338658
0.0055139
0.0274176
0.00289178
0.0200224
0.000809523
0.0114366
0.00352076
0.0473592
0.0703348
-0.0575461
0.0379233
0.0653815
0.0293535
0.0598204
0.0216875
0.0536066
0.0150503
0.0466721
0.00970074
0.0392153
0.0057609
0.0313575
0.00295821
0.0228251
0.000874799
0.01352
0.00439556
0.0508245
0.0812606
-0.0617503
0.0407213
0.0754847
0.0316048
0.068937
0.0235372
0.0616742
0.0165416
0.0536677
0.0107444
0.0450125
0.00628088
0.035821
0.00306084
0.0260452
0.00088014
0.0157007
0.0052757
0.0545233
0.092857
-0.0661196
0.0438028
0.0862052
0.0341213
0.0786185
0.0255537
0.0702418
0.0181217
0.0610998
0.0118813
0.0512528
0.00692771
0.0407746
0.00327807
0.0296948
0.000908363
0.0180704
0.00618406
0.0575788
0.104938
-0.0696599
0.0464199
0.0973641
0.0363175
0.0887209
0.0273316
0.0792276
0.0194981
0.0689332
0.0128675
0.0578834
0.00751934
0.0461228
0.0035249
0.0336893
0.000959514
0.0206358
0.00714358
0.059637
0.117264
-0.0719635
0.0482603
0.108741
0.0379185
0.0990627
0.0286569
0.0884893
0.0205271
0.077063
0.0135982
0.0648124
0.00796121
0.0517598
0.00372162
0.0379288
0.00100526
0.0233522
0.00814883
0.0614519
0.129718
-0.0739051
0.0499547
0.120238
0.039406
0.109611
0.0298773
0.098018
0.0214549
0.0854855
0.0142357
0.0720316
0.00833431
0.0576612
0.00388447
0.0423787
0.00104188
0.0261948
0.00919071
0.0663087
-0.0790829
0.0539894
0.0426033
0.0323035
0.0231948
0.0153804
0.00898583
0.00416454
0.00110024
0.213747
0.0621099
-0.0778671
0.236422
0.0904058
-0.113081
0.260959
0.123936
-0.148473
0.277101
0.112123
-0.128265
0.276267
0.109386
-0.108552
0.253253
0.178555
-0.155542
0.218993
0.293632
-0.259372
0.174895
0.412585
-0.368488
0.118442
0.49473
-0.438277
0.461758
-0.395889
0.213097
0.0470031
0.234682
0.0688208
0.25832
0.100298
0.275112
0.0953303
0.275889
0.10861
0.253646
0.200799
0.219199
0.328079
0.174643
0.457141
0.118101
0.551272
0.526921
0.212864
0.0321293
0.2336
0.0480844
0.256387
0.0775105
0.273178
0.078539
0.274282
0.107506
0.252448
0.222633
0.21795
0.362577
0.173328
0.501763
0.117881
0.606719
0.590307
0.21298
0.0171396
0.233176
0.0278875
0.255224
0.0554625
0.27154
0.0622237
0.271768
0.107278
0.249797
0.244604
0.215408
0.396967
0.171343
0.545827
0.118375
0.659687
0.651135
0.213312
0.00181724
0.233257
0.00794221
0.254621
0.0340987
0.269836
0.0470088
0.26826
0.108854
0.245764
0.2671
0.211772
0.430958
0.169108
0.588491
0.119716
0.709079
0.709101
0.213696
-0.0138891
0.233617
-0.0119786
0.254251
0.0134648
0.267711
0.0335481
0.263652
0.112914
0.240459
0.290292
0.207303
0.464115
0.166899
0.628895
0.121443
0.754535
0.764425
0.213958
-0.0298568
0.23405
-0.0320707
0.253828
-0.00631361
0.264931
0.0224455
0.257924
0.119921
0.234094
0.314121
0.20228
0.495929
0.164701
0.666473
0.122661
0.796575
0.817426
0.213992
-0.0458592
0.234434
-0.0525124
0.253133
-0.0250122
0.261259
0.014319
0.251002
0.130179
0.226796
0.338327
0.196753
0.525972
0.162084
0.701143
0.122344
0.836315
0.867807
0.213812
-0.061681
0.234752
-0.0734533
0.252042
-0.0423016
0.256727
0.00963413
0.243148
0.143758
0.218929
0.362546
0.190836
0.554065
0.15862
0.733359
0.120098
0.874837
0.913999
0.213684
-0.0773753
0.234971
-0.0947404
0.250547
-0.0578778
0.250999
0.0091821
0.233835
0.160922
0.209862
0.386519
0.183599
0.580327
0.153436
0.763522
0.116424
0.91185
0.95134
0.331941
-0.107306
0.37057
-0.133369
0.40697
-0.0942783
0.424372
-0.00821913
0.438836
0.146458
0.467403
0.357953
0.50659
0.54114
0.549579
0.720532
0.581374
0.880055
0.94621
0.586504
0.333639
-0.138935
0.373195
-0.172925
0.408355
-0.129439
0.422035
-0.0218987
0.435384
0.133109
0.47589
0.317447
0.534269
0.48276
0.604464
0.650338
0.675403
0.809116
0.888624
0.732988
0.336362
-0.173287
0.375467
-0.212029
0.408774
-0.162745
0.416927
-0.0300524
0.427163
0.122873
0.47389
0.27072
0.546447
0.410204
0.638801
0.557984
0.742284
0.705633
0.784492
0.846416
0.340518
-0.211795
0.373433
-0.244945
0.384183
-0.173495
0.380359
-0.0262283
0.398878
0.104353
0.452844
0.216754
0.534093
0.328956
0.6405
0.451577
0.767075
0.579058
0.647074
0.904493
0.348517
-0.258301
0.356591
-0.253019
0.337456
-0.15436
0.33415
-0.0229224
0.358503
0.0800001
0.41399
0.161266
0.497221
0.245725
0.607864
0.340934
0.74373
0.443191
0.495869
0.894935
0.340774
-0.297064
0.321146
-0.233392
0.287848
-0.121062
0.283878
-0.0189519
0.308865
0.0550131
0.361062
0.109069
0.439731
0.167056
0.545747
0.234918
0.678761
0.310177
0.347986
0.826644
0.314273
-0.309327
0.271554
-0.190673
0.233589
-0.0830971
0.228574
-0.0139367
0.251006
0.0325805
0.296142
0.0639333
0.364599
0.0985994
0.458322
0.141195
0.578796
0.189704
0.215105
0.711677
0.273773
-0.28109
0.212875
-0.129775
0.174324
-0.0445458
0.168756
-0.00836881
0.186232
0.0151046
0.220951
0.0292142
0.274166
0.0453841
0.348682
0.0666796
0.44705
0.0913356
0.106139
0.556015
0.214647
-0.193726
0.140474
-0.0556023
0.10936
-0.0134321
0.104074
-0.00308269
0.115344
0.00383461
0.137265
0.00729282
0.171092
0.0115572
0.21997
0.0178018
0.286339
0.024966
0.0304074
0.362071
0.108284
0.052682
0.0392499
0.0361672
0.0400018
0.0472946
0.0588518
0.0766536
0.10162
0.132027
0.608659
-0.117096
0.632322
-0.116532
0.655139
-0.10949
0.67629
-0.100346
0.695234
-0.0895591
0.71137
-0.0765984
0.724263
-0.061393
0.73359
-0.0442581
0.739075
-0.0258868
-0.00758337
0.750322
-0.13443
0.765224
-0.131435
0.779426
-0.123692
0.79265
-0.113569
0.804712
-0.101622
0.815848
-0.0877337
0.826403
-0.071948
0.836392
-0.0542473
0.844841
-0.0343355
-0.0114667
0.851037
-0.13905
0.853479
-0.133877
0.854993
-0.125206
0.855371
-0.113947
0.854522
-0.100774
0.852622
-0.0858332
0.849895
-0.0692219
0.846739
-0.0510906
0.843946
-0.0315429
-0.0105298
0.892549
-0.127107
0.878533
-0.119861
0.863854
-0.110527
0.84929
-0.0993827
0.835445
-0.0869293
0.823019
-0.0734067
0.812635
-0.0588383
0.804756
-0.0432111
0.799744
-0.0265314
-0.00887711
0.870308
-0.10248
0.845548
-0.0951
0.821944
-0.0869229
0.800489
-0.0779279
0.781654
-0.0680942
0.765714
-0.0574669
0.75289
-0.0460142
0.743403
-0.0337241
0.737523
-0.0206517
-0.00695364
0.796997
-0.072833
0.768933
-0.0670365
0.743122
-0.0611115
0.720037
-0.0548429
0.699971
-0.0480286
0.683112
-0.0406075
0.669641
-0.0325437
0.659769
-0.0238515
0.653726
-0.0146085
-0.00496382
0.682984
-0.0441392
0.656499
-0.0405523
0.632401
-0.0370128
0.610878
-0.0333203
0.592145
-0.0292955
0.576396
-0.0248581
0.563828
-0.0199764
0.554646
-0.0146697
0.549043
-0.0090056
-0.00309478
0.53251
-0.0206337
0.510908
-0.0189508
0.491275
-0.0173796
0.473704
-0.0157489
0.458351
-0.0139423
0.445397
-0.0119047
0.435037
-0.00961622
0.427458
-0.00709087
0.422824
-0.00437155
-0.00152291
0.346789
-0.00535165
0.332647
-0.00480907
0.319753
-0.00448486
0.308137
-0.00413359
0.297909
-0.00371365
0.289215
-0.00321087
0.282219
-0.00262002
0.277075
-0.0019474
0.273913
-0.00120946
-0.000429229
0.126675
0.121866
0.117381
0.113248
0.109534
0.106323
0.103703
0.101756
0.100546
0.000185057
0.0116093
-0.0117943
0.000623737
0.0304465
-0.0308852
0.00123716
0.0462418
-0.0468552
0.00197733
0.0594676
-0.0602078
0.00277662
0.0700217
-0.070821
0.00376954
0.0798893
-0.0808822
0.00396348
0.0772674
-0.0774614
0.00408486
0.0700426
-0.0701639
0.00394498
0.0610798
-0.0609399
0.0499562
0.00350723
-0.0495184
0.000533397
0.0110759
0.00180387
0.0291761
0.00358509
0.0444606
0.00574126
0.0573115
0.00807285
0.0676901
0.0110397
0.0769225
0.011676
0.0766311
0.0120809
0.0696377
0.0117737
0.061387
0.0510785
0.0106513
0.0008355
0.0102404
0.00283184
0.0271797
0.00563913
0.0416533
0.00904159
0.053909
0.0127395
0.0639922
0.0172475
0.0724145
0.0187903
0.0750883
0.0195719
0.068856
0.0193857
0.0615732
0.052435
0.0180293
0.00105598
0.00918437
0.00359702
0.0246387
0.00719366
0.0380566
0.0115559
0.0495468
0.0163567
0.0591914
0.0217479
0.0670233
0.0250729
0.0717633
0.0263552
0.0675737
0.0266035
0.0613249
0.0535668
0.0254717
0.00115146
0.00803291
0.00397935
0.0218108
0.0080418
0.0339942
0.0129971
0.0445915
0.0185518
0.0536366
0.0245578
0.0610173
0.0299525
0.0663687
0.0320904
0.0654358
0.0330117
0.0604036
0.0540916
0.032487
0.0011115
0.00692142
0.00396603
0.0189563
0.00818569
0.0297746
0.0133904
0.0393868
0.0193183
0.0477088
0.0257723
0.0545633
0.0324163
0.0597247
0.0363131
0.061539
0.0381249
0.0585918
0.0537076
0.0385089
0.000926238
0.00599519
0.00357299
0.0163095
0.00771073
0.0256368
0.0128819
0.0342157
0.0187869
0.0418038
0.0253385
0.0480116
0.0323215
0.0527417
0.0382759
0.0555847
0.0415881
0.0552795
0.0521835
0.0431122
0.000567817
0.00542737
0.00278659
0.0140908
0.00665747
0.0217659
0.0116213
0.0292518
0.0172043
0.0362208
0.0234475
0.0417685
0.0302863
0.0459029
0.0371846
0.0486864
0.0425621
0.0499019
0.0489244
0.0458212
0.000103734
0.00532364
0.00176842
0.0124261
0.00517549
0.0183589
0.0098146
0.0246127
0.0149566
0.0310788
0.0206209
0.0361042
0.0269034
0.0396204
0.0335873
0.0420024
0.0400856
0.0434036
0.0437955
0.0452145
-0.000175837
0.00549948
0.00108642
0.0111638
0.00385535
0.01559
0.00788577
0.0205823
0.0125
0.0264646
0.0175705
0.0310337
0.0231767
0.0340142
0.0292493
0.0359298
0.0356362
0.0370167
0.0373686
0.0420632
-2.17056e-05
0.00552118
0.00113903
0.0100031
0.00327633
0.0134526
0.00641147
0.0174472
0.0102927
0.0225834
0.0148344
0.026492
0.0199547
0.0288939
0.0254875
0.030397
0.0312256
0.0312785
0.0316941
0.0369001
0.000376603
0.00514458
0.00153012
0.00884958
0.00317838
0.0118044
0.00548869
0.0151369
0.00870796
0.0193641
0.012894
0.022306
0.0177464
0.0240415
0.0230142
0.0251293
0.0285062
0.0257864
0.0260568
0.0341435
0.000623204
0.00452138
0.00170508
0.00776771
0.00302489
0.0104846
0.00484453
0.0133172
0.00783667
0.0163719
0.0119273
0.0182154
0.01668
0.0192888
0.0218553
0.019954
0.0273208
0.0203209
0.0204023
0.0329752
0.000676527
0.00384485
0.00164203
0.0068022
0.00282212
0.00930448
0.00470669
0.0114326
0.00798419
0.0130944
0.0122177
0.0139818
0.0170375
0.014469
0.022282
0.0147096
0.0278546
0.0147483
0.0145873
0.0336696
0.000664743
0.00318011
0.00155641
0.00591053
0.00300216
0.00785872
0.00559554
0.00883925
0.00939337
0.0092966
0.0139219
0.00945332
0.0189717
0.00941912
0.0244435
0.00923775
0.0302694
0.00892241
0.00847895
0.0363777
0.000594913
0.00258519
0.00172381
0.00478162
0.00407975
0.00550277
0.00754658
0.00537242
0.0118086
0.00503456
0.0166657
0.00459621
0.0220165
0.00406828
0.027802
0.00345233
0.0339705
0.00275383
0.00198597
0.0404635
0.000528278
0.0020569
0.00250136
0.00280853
0.00577841
0.00222572
0.00978459
0.00136623
0.0143833
0.000435828
0.0195292
-0.000549706
0.0251924
-0.00159493
0.03133
-0.0026853
0.037881
-0.00379711
-0.00491824
0.0447852
0.000885061
0.00117183
0.00363658
5.69927e-05
0.00720328
-0.001341
0.0113938
-0.00282428
0.0161954
-0.00436574
0.0216188
-0.00597312
0.0276222
-0.00759832
0.0341141
-0.00917729
0.0410114
-0.0106944
-0.0121801
0.0482733
0.0015069
-0.00033508
0.00413452
-0.00257063
0.0075572
-0.00476369
0.0117755
-0.00704259
0.0167965
-0.00938678
0.0225404
-0.011717
0.028839
-0.0138969
0.0355711
-0.0159093
0.0427116
-0.0178349
-0.0197298
0.0502612
0.00104622
0.00313213
0.00645403
0.0109264
0.0163119
0.0222901
0.0287003
0.0355755
0.0429838
0.0509034
0.0514289
0.0837034
-0.0982322
0.0773505
-0.00757651
-0.018345
0.100005
-0.0512582
0.0286037
0.113708
-0.0471821
0.0334787
0.121691
-0.0269084
0.0189262
0.125321
-0.00802771
0.00439751
0.126354
0.00343299
-0.00446571
0.126463
0.00746221
-0.00757192
0.126319
0.00789455
-0.00775017
0.00555638
-0.00611644
0.0586493
0.0591975
0.0917374
-0.0406646
0.118947
-0.0784683
0.134993
-0.0632276
0.143741
-0.0356562
0.147406
-0.0116927
0.148167
0.00267167
0.147929
0.00770039
0.147441
0.00838271
0.00534379
0.0666838
0.025489
0.10514
-0.0791211
0.136189
-0.109517
0.155864
-0.0829027
0.165887
-0.0456788
0.169624
-0.0154292
0.170008
0.00228707
0.169262
0.0084467
0.168264
0.00938052
0.00562028
0.0755857
-0.0164271
0.117998
-0.121533
0.151945
-0.143464
0.175386
-0.106343
0.187462
-0.0577555
0.191537
-0.0195038
0.191584
0.00223979
0.19028
0.00975093
0.188695
0.0109655
0.00646386
0.0846588
-0.0647082
0.129842
-0.166717
0.16596
-0.179582
0.192715
-0.133099
0.207702
-0.0727426
0.212717
-0.024519
0.212628
0.00232855
0.210814
0.0115653
0.208641
0.013138
0.007892
0.0931279
-0.117373
0.140336
-0.213925
0.178141
-0.217386
0.207461
-0.162419
0.225745
-0.0910266
0.232623
-0.0313969
0.23282
0.00213097
0.230668
0.0137172
0.227999
0.0158073
0.00985512
0.100328
-0.172916
0.149204
-0.262801
0.188389
-0.256571
0.219546
-0.193575
0.240894
-0.112375
0.250611
-0.0411139
0.251796
0.000945528
0.249629
0.0158843
0.246654
0.0187825
0.0122333
0.105911
-0.230553
0.156319
-0.31321
0.196648
-0.2969
0.229075
-0.226002
0.252826
-0.136126
0.265949
-0.0542361
0.269111
-0.00221675
0.267444
0.0175507
0.264472
0.0217551
0.0148295
0.109858
-0.29015
0.161715
-0.365067
0.202944
-0.338129
0.236223
-0.259282
0.261593
-0.161496
0.278003
-0.0706453
0.28421
-0.00842392
0.283806
0.0179546
0.28129
0.0242707
0.0173608
0.112489
0.165567
0.207413
0.241181
0.267508
0.286498
0.296426
0.298311
0.2969
0.0132007
0.00607767
-0.0192784
0.01099
0.00221069
0.0115104
-0.000520423
0.012935
-0.00142453
0.0136511
-0.000716121
0.0137691
-0.000118036
0.0135439
0.000225196
0.0131769
0.000367073
0.0129138
0.000263056
0.000367552
0.0372494
0.0232145
-0.0543863
0.0314972
0.0079629
0.0340122
-0.00303546
0.0380737
-0.00548596
0.0402501
-0.00289258
0.0406494
-0.000517366
0.0400076
0.000866982
0.0390043
0.00137039
0.0380668
0.00120054
0.00123505
0.0579673
0.0480938
-0.0828466
0.0508894
0.0150407
0.0559063
-0.00805235
0.0624932
-0.0120729
0.066167
-0.00656639
0.0669265
-0.00127684
0.0659363
0.00185719
0.0643536
0.00295308
0.0627424
0.00281168
0.00251978
0.0739082
0.0753968
-0.101211
0.0680899
0.020859
0.0764661
-0.0164286
0.0858116
-0.0214184
0.0911386
-0.0118934
0.0923991
-0.00253734
0.0911662
0.00309014
0.0890706
0.00504863
0.0868582
0.00502411
0.00416935
0.0814011
-0.104237
0.0839149
0.0960899
0.10815
0.115183
0.117043
0.115667
0.113144
0.110418
0.00273369
-0.000172927
-0.00256076
0.00326457
-0.000530876
0.00417681
-0.00091224
0.00548788
-0.00131107
0.0071843
-0.00169642
0.00922888
-0.00204458
0.0115855
-0.00235661
0.0141738
-0.00258834
0.016859
-0.00268516
-0.00241943
0.00778748
-0.000645703
-0.0073147
0.00923438
-0.00197778
0.0117138
-0.00339162
0.0152702
-0.00486748
0.0198845
-0.00631072
0.0254825
-0.0076426
0.0319648
-0.00883896
0.0391563
-0.00977982
0.0467678
-0.0102966
-0.010038
0.0124781
-0.00138377
-0.0117401
0.0147278
-0.00422749
0.0185607
-0.00722452
0.0240247
-0.0103315
0.0310794
-0.0133654
0.0395863
-0.0161495
0.0493283
-0.018581
0.0600517
-0.0205033
0.071416
-0.0216609
-0.0214686
0.0168075
-0.00234772
-0.0158436
0.0197318
-0.00715174
0.024675
-0.0121678
0.0316516
-0.017308
0.0405502
-0.022264
0.0511064
-0.0267057
0.0629377
-0.0304123
0.0756949
-0.0332604
0.0888617
-0.0348278
-0.033818
0.0207931
-0.0196336
0.0242927
0.0301542
0.0383179
0.0485408
0.060344
0.073044
0.0856047
0.0959914
0.0314441
-0.0313067
0.0371114
-0.0372487
0.0255839
-0.0309037
0.036764
0.0199256
-0.0300711
0.0357294
0.0146794
-0.0286751
0.0339213
0.0100598
-0.0264664
0.031086
0.0062047
-0.022779
0.026634
0.0031138
-0.0176477
0.0207386
0.0010174
-0.0136221
0.0157185
-8.6757e-05
-0.0101616
0.0112658
-0.00564237
0.00555561
0.0294602
-0.0254435
-0.0353234
0.0237445
-0.0251881
0.0182548
-0.0245813
0.0131689
-0.0235892
0.00874017
-0.0220377
0.0053503
-0.0193891
0.00301969
-0.0153171
0.00139649
-0.0119989
0.000298171
-0.00906329
-0.00534419
0.0294316
-0.0194554
-0.0354197
0.0236276
-0.0193841
0.0181104
-0.0190641
0.0129971
-0.0184759
0.00849069
-0.0175312
0.00504226
-0.0159406
0.00300385
-0.0132787
0.00164441
-0.0106395
0.000582379
-0.00800125
-0.00476181
0.0313519
-0.0131925
-0.0376149
0.0253235
-0.0133556
0.019613
-0.0133537
0.014307
-0.0131699
0.00954413
-0.0127684
0.00564927
-0.0120458
0.00319556
-0.0108249
0.00176025
-0.00920415
0.000726569
-0.00696757
-0.00403523
0.0349541
-0.00653711
-0.0416094
0.0285806
-0.0069821
0.022561
-0.00733408
0.0169616
-0.0075704
0.0118728
-0.00767959
0.00747936
-0.00765234
0.00413355
-0.00747913
0.00199191
-0.0070625
0.000798114
-0.00577376
-0.00323711
0.039276
0.000571211
-0.0463843
0.0324928
-0.000198877
0.0261072
-0.000948495
0.0201939
-0.0016571
0.0148135
-0.00229919
0.0100291
-0.0028679
0.00592439
-0.00337442
0.0026739
-0.003812
0.000720602
-0.00382045
-0.00251651
0.0431163
0.00808964
-0.0506347
0.0359381
0.00697936
0.0291536
0.00583602
0.0228629
0.00463362
0.0171684
0.0033953
0.0121098
0.00219066
0.00766819
0.00106722
0.0038494
6.80089e-06
0.000979748
-0.000950788
-0.00153675
0.045397
0.0158955
-0.0532029
0.0379674
0.0144089
0.0309116
0.0128919
0.0242654
0.0112798
0.018172
0.00948862
0.0128182
0.00754452
0.00828296
0.00560245
0.00454152
0.00374825
0.00163241
0.00195833
9.56629e-05
0.0455505
0.0240001
-0.0536551
0.037931
0.0220285
0.0308
0.0200229
0.0240701
0.0180097
0.0177085
0.0158502
0.0119092
0.0133438
0.00705025
0.0104614
0.00341866
0.00737985
0.00114803
0.00422897
0.0012437
0.0444898
-0.0530064
0.0365314
0.0292612
0.0226601
0.0165313
0.0107596
0.00566554
0.00203969
0.000458599