/*--------------------------------*- C++ -*----------------------------------*\
  =========                 |
  \\      /  F ield         | OpenFOAM: The Open Source CFD Toolbox
   \\    /   O peration     | Website:  https://openfoam.org
    \\  /    A nd           | Version:  13
     \\/     M anipulation  |
\*---------------------------------------------------------------------------*/
FoamFile
{
    format      ascii;
    class       surfaceScalarField;
    location    "2.95";
    object      phi;
}
// * * * * * * * * * * * * * * * * * * * * * * * * * * * * * * * * * * * * * //

dimensions      [0 3 -1 0 0 0 0];

internalField   nonuniform List<scalar> 
3485
(
-0.00175569
0.00386979
-0.0021141
-0.00361102
0.00742706
-0.00557173
-0.00327847
0.0077485
-0.00808105
0.000927016
0.00500325
-0.00920873
0.0103519
-0.000925628
-0.00849928
0.0259736
-0.00999573
-0.00562598
0.0484623
-0.0221707
-0.000317977
0.078525
-0.0369554
0.00689279
0.116178
-0.0540182
0.0163647
-0.0630289
0.0222788
0.156929
-0.000801933
0.00467172
-0.000547418
0.00717254
0.00291927
0.00428181
0.0113921
-0.00346959
0.0262113
-0.0157448
0.0481588
-0.0319432
0.0770241
-0.051036
0.111803
-0.0717343
0.150513
-0.0927284
-0.109332
0.196816
0.000387334
0.00428438
0.00356547
0.00399441
0.0115342
-0.00368694
0.0259423
-0.0178777
0.0476131
-0.0374156
0.0761859
-0.060516
0.110097
-0.0849466
0.146881
-0.108518
0.18382
-0.129668
-0.147129
0.221618
0.00133863
0.00294576
0.00742826
-0.00209522
0.0201477
-0.0164064
0.0405097
-0.0382398
0.0680264
-0.0649323
0.100612
-0.093102
0.135226
-0.119561
0.168793
-0.142085
0.198788
-0.159663
-0.172213
0.223871
0.0024024
0.000543355
0.0115937
-0.0112865
0.028999
-0.0338117
0.054258
-0.0634987
0.0848814
-0.0955557
0.117138
-0.125358
0.147437
-0.14986
0.173296
-0.167944
0.193586
-0.179953
-0.187459
0.208833
0.00364882
-0.00310546
0.0160204
-0.0236581
0.0372894
-0.0550807
0.0649734
-0.0911828
0.0947451
-0.125327
0.122435
-0.153048
0.145416
-0.172841
0.16287
-0.185398
0.175411
-0.192494
-0.195938
0.183889
0.00498678
-0.00809224
0.0200943
-0.0387656
0.0434243
-0.0784107
0.0703616
-0.11812
0.0959713
-0.150937
0.117123
-0.1742
0.132902
-0.188619
0.14395
-0.196446
0.151465
-0.200009
-0.201207
0.156735
0.00619974
-0.014292
0.0229952
-0.055561
0.0460856
-0.101501
0.0696939
-0.141728
0.0896903
-0.170934
0.104558
-0.189068
0.11469
-0.198751
0.121265
-0.203022
0.125507
-0.20425
-0.203854
0.128153
0.00707928
-0.0213713
0.0241691
-0.0726509
0.045034
-0.122366
0.0640733
-0.160768
0.0785677
-0.185428
0.0883029
-0.198803
0.0943036
-0.204752
0.0978358
-0.206554
0.0998681
-0.206283
-0.204973
0.100987
0.00748358
-0.0288548
0.0235112
-0.0886785
0.0409729
-0.139828
0.0552571
-0.175052
0.0649615
-0.195132
0.0706499
-0.204492
0.0735405
-0.207642
0.0747371
-0.207751
0.0749607
-0.206506
0.0745053
-0.204517
-0.00388355
0.0224088
-0.0185252
-0.0130119
0.0456982
-0.0365699
-0.0250528
0.0553621
-0.0433212
-0.0384422
0.0578541
-0.0444647
-0.0523399
0.0572602
-0.0433626
-0.06636
0.0555235
-0.0415034
-0.0803133
0.0533088
-0.0393555
-0.0940656
0.0507554
-0.0370031
-0.10749
0.0478735
-0.0344491
0.0449708
-0.120512
-0.0319487
-0.00116485
0.0235736
-0.00608485
0.0506182
-0.0141003
0.0633775
-0.0239296
0.0676835
-0.0345444
0.067875
-0.0453241
0.0663031
-0.0559392
0.0639239
-0.0661867
0.0610029
-0.0758885
0.0575753
0.0539028
-0.0848206
0.00187616
0.0216975
0.00244028
0.0500541
8.2693e-05
0.0657351
-0.00464956
0.0724158
-0.010657
0.0738825
-0.0170772
0.0727233
-0.0233865
0.0702332
-0.0292893
0.0669057
-0.0345778
0.0628639
0.0582049
-0.0388798
0.00436261
0.0173349
0.0104554
0.0439613
0.0146931
0.0614974
0.0163126
0.0707963
0.0159431
0.0742519
0.0145349
0.0741315
0.012829
0.0719391
0.0112804
0.0684543
0.0101577
0.0639866
0.0586064
0.00975622
0.00556002
0.0117749
0.0157862
0.0337351
0.0262092
0.0510744
0.0347142
0.0622913
0.0409701
0.0679961
0.0455294
0.0695722
0.0491436
0.0683249
0.0524276
0.0651703
0.0557767
0.0606375
0.0547145
0.0596686
0.00522825
0.0065466
0.0167246
0.0222388
0.0307546
0.0370444
0.0446601
0.0483858
0.0571458
0.0555103
0.0679469
0.0587712
0.0773403
0.0589315
0.0857593
0.0567513
0.0935403
0.0528564
0.0472838
0.100971
0.00382446
0.00272214
0.0136135
0.0124497
0.0272888
0.0233692
0.0427312
0.0329434
0.0583846
0.039857
0.0733854
0.0437703
0.087404
0.0449129
0.100407
0.0437479
0.112429
0.0408352
0.0360142
0.123698
0.00201631
0.000705831
0.00827284
0.00619317
0.0182947
0.0133473
0.0310629
0.0201751
0.0454666
0.0254532
0.0605994
0.0286375
0.0758314
0.0296809
0.0907609
0.0288184
0.105222
0.0263736
0.0213675
0.119869
0.000107684
0.000598147
0.00214371
0.00415715
0.00691329
0.00857776
0.0144655
0.0126229
0.0244735
0.0154453
0.0365166
0.0165943
0.0502838
0.0159138
0.06559
0.0135122
0.0825878
0.00937587
0.00230013
0.101655
-0.00151595
-0.00293053
-0.00243381
0.000980378
0.00792638
0.0188947
0.0344905
0.0548955
0.0806361
0.105215
-0.168769
0.207667
-0.159411
-0.103423
-0.177873
0.112528
0.00258415
-0.358048
0.252041
0.0828174
-0.363121
0.282888
0.13529
-0.325724
0.273251
0.168486
-0.247709
0.214514
0.189426
-0.187273
0.166333
0.201559
-0.129501
0.117368
0.208828
-0.0999933
0.0927237
-0.0634719
0.060654
-0.116232
0.239078
-0.0599737
-0.234131
0.0287896
-0.446812
0.101684
-0.436015
0.148367
-0.372407
0.176987
-0.27633
0.194595
-0.20488
0.204733
-0.13964
0.210814
-0.106074
-0.0657908
-0.055317
0.255515
-0.00667582
-0.282773
0.0623676
-0.515855
0.123888
-0.497536
0.163603
-0.412121
0.187061
-0.299788
0.200755
-0.218574
0.208448
-0.147333
0.213069
-0.110695
-0.0675644
0.00671898
0.258553
0.0432658
-0.319319
0.0981297
-0.570719
0.14654
-0.545946
0.178753
-0.444335
0.197378
-0.318412
0.207344
-0.22854
0.212524
-0.152513
0.215546
-0.113717
-0.0687717
0.0618071
0.256414
0.0916099
-0.349122
0.132897
-0.612006
0.168325
-0.581375
0.192474
-0.468483
0.206664
-0.332603
0.213566
-0.235442
0.216594
-0.155542
0.218111
-0.115234
-0.0694621
0.110006
0.247379
0.13473
-0.373846
0.163955
-0.641231
0.18825
-0.60567
0.204394
-0.484627
0.214299
-0.342507
0.218772
-0.239915
0.220237
-0.157007
0.220564
-0.11556
-0.0697789
0.148063
0.223014
0.170277
-0.39606
0.189293
-0.660248
0.205028
-0.621404
0.214347
-0.493947
0.220239
-0.3484
0.222679
-0.242355
0.223125
-0.157453
0.222694
-0.115129
-0.0699483
0.174233
0.16865
0.197586
-0.419412
0.20899
-0.671652
0.217885
-0.6303
0.222168
-0.49823
0.224692
-0.350923
0.225345
-0.243008
0.225123
-0.157232
0.22434
-0.114345
-0.0702373
0.191422
0.0788833
0.21723
-0.44522
0.222515
-0.676937
0.226578
-0.634362
0.227765
-0.499417
0.227877
-0.351034
0.227008
-0.242139
0.226289
-0.156513
0.225432
-0.113488
-0.0708971
0.207072
-0.0229737
0.229312
-0.46746
0.22987
-0.677495
0.231728
-0.63622
0.231412
-0.499101
0.230039
-0.349662
0.227959
-0.240059
0.226808
-0.155363
0.226018
-0.112698
-0.0721198
0.610679
-0.138656
-0.494997
0.647719
-0.5045
0.608817
-0.638593
0.54626
-0.573663
0.483567
-0.436408
0.433862
-0.299957
0.397419
-0.203616
0.373668
-0.131612
0.35726
-0.0962896
-0.0632466
0.747667
-0.195035
-0.691288
0.708015
-0.464848
0.627515
-0.558093
0.550323
-0.496471
0.487523
-0.373608
0.439527
-0.251961
0.403038
-0.167127
0.377807
-0.10638
0.359675
-0.0781577
-0.0531453
0.759883
-0.211631
-0.743287
0.698558
-0.403522
0.629624
-0.48916
0.568577
-0.435424
0.509737
-0.314769
0.45734
-0.199564
0.414948
-0.124735
0.38498
-0.0764131
0.363395
-0.0565727
-0.0412247
0.742994
-0.213328
-0.741297
0.695622
-0.35615
0.635244
-0.428781
0.571089
-0.371269
0.50723
-0.250909
0.452698
-0.145032
0.411177
-0.0832139
0.38294
-0.0481758
0.362543
-0.0361758
-0.0294269
0.725477
-0.209792
-0.729013
0.68741
-0.318084
0.631867
-0.373239
0.569918
-0.30932
0.507264
-0.188255
0.452124
-0.0898926
0.40967
-0.0407605
0.381063
-0.0195689
0.360811
-0.0159236
-0.0176913
0.710206
-0.202518
-0.71748
0.676621
-0.284498
0.617827
-0.314445
0.548242
-0.239734
0.483282
-0.123295
0.43145
-0.0380603
0.394192
-0.00350227
0.370108
0.00451533
0.353303
0.000880435
-0.00751338
0.68903
-0.187128
-0.704421
0.644719
-0.240187
0.569846
-0.239572
0.490457
-0.160345
0.427837
-0.0606758
0.386498
0.00327848
0.360667
0.022329
0.345543
0.0196392
0.335171
0.0112523
-0.000351694
0.628561
-0.148603
-0.667085
0.554542
-0.166167
0.456545
-0.141575
0.373455
-0.0772552
0.325044
-0.0122651
0.304866
0.0234565
0.297999
0.029196
0.296005
0.0216336
0.294416
0.012841
0.00264397
0.458656
-0.0740539
-0.533205
0.354755
-0.062266
0.253993
-0.0408134
0.192879
-0.0161412
0.175543
0.00507042
0.183015
0.0159849
0.195851
0.01636
0.205972
0.0115128
0.211951
0.00686197
0.0018823
0.138567
-0.21262
0.0763006
0.0354871
0.019346
0.0244164
0.0404012
0.0567613
0.068274
0.075136
0.559427
0.0629224
-0.547845
0.571065
0.0893493
0.586603
0.112615
0.602515
0.140823
0.620337
0.166067
0.637326
0.191844
0.642522
0.218675
0.633023
0.231117
0.573013
0.256827
0.234944
0.538765
0.0513812
-0.527224
0.551837
0.0762774
0.568304
0.0961477
0.588509
0.120618
0.610382
0.144194
0.637057
0.165169
0.661279
0.194453
0.684292
0.208104
0.699432
0.241687
0.243088
0.523487
0.0416955
-0.513801
0.536954
0.0628101
0.552427
0.0806751
0.572259
0.100786
0.594474
0.121979
0.620142
0.1395
0.650195
0.1644
0.679638
0.178661
0.716353
0.204972
0.216154
0.511963
0.0328392
-0.503107
0.525212
0.0495605
0.540222
0.0656654
0.559059
0.0819494
0.581084
0.0999542
0.605577
0.115007
0.635708
0.13427
0.666442
0.147927
0.704624
0.16679
0.179481
0.502984
0.0239207
-0.494065
0.515677
0.0368672
0.530716
0.0506268
0.54906
0.0636051
0.570818
0.0781962
0.595183
0.0906425
0.624178
0.105274
0.65516
0.116945
0.691244
0.130707
0.141712
0.495305
0.0149578
-0.486342
0.507439
0.0247332
0.522475
0.0355906
0.540563
0.0455177
0.562096
0.0566633
0.586474
0.0662642
0.614688
0.0770599
0.645554
0.0860786
0.680243
0.0960173
0.104475
0.485281
0.00645387
-0.476777
0.496755
0.0132596
0.511413
0.0209326
0.529126
0.0278048
0.550311
0.0354777
0.574525
0.0420502
0.602326
0.0492594
0.63307
0.0553348
0.667402
0.0616846
0.0674563
0.46089
-0.000469131
-0.453967
0.470687
0.00346284
0.483767
0.00785259
0.499935
0.0116365
0.519569
0.0158439
0.542343
0.0192761
0.56864
0.0229626
0.598068
0.0259067
0.631016
0.0287367
0.0313864
0.387528
-0.0031481
-0.384849
0.392715
-0.00172415
0.400861
-0.000293092
0.411575
0.000921985
0.425217
0.00220245
0.441401
0.00309153
0.460412
0.00395218
0.481953
0.00436576
0.505997
0.00469211
0.00417843
0.191233
-0.194381
0.189509
0.189216
0.190138
0.19234
0.195432
0.199384
0.20375
0.208442
0.0735149
0.150077
-0.138179
-0.0854126
0.0626002
0.152255
-0.14134
0.0525459
0.154885
-0.144831
0.0428052
0.158426
-0.148685
0.0331152
0.162219
-0.152529
0.0235556
0.165149
-0.155589
0.0145378
0.164514
-0.155496
0.00687447
0.154286
-0.146623
0.00170436
0.123768
-0.118598
0.0584319
-0.0567275
0.0696815
0.160694
-0.0802995
0.0592162
0.16272
0.0490991
0.165002
0.0393356
0.16819
0.0298152
0.171739
0.0206309
0.174333
0.0122232
0.172921
0.00539797
0.161112
0.00112272
0.128044
0.0595546
0.0626901
0.170142
-0.0721374
0.0529432
0.172467
0.0433171
0.174628
0.0340052
0.177502
0.0250389
0.180705
0.0165773
0.182795
0.00907553
0.180423
0.00337245
0.166815
0.000294705
0.131121
0.0598493
0.051415
0.178171
-0.0594442
0.0429957
0.180886
0.0344892
0.183135
0.0261584
0.185832
0.0181647
0.188699
0.0107806
0.190179
0.00460293
0.186601
0.000398962
0.171019
-0.000803449
0.132324
0.0590458
0.0385215
0.18522
-0.0455704
0.0312567
0.188151
0.0238739
0.190518
0.0166194
0.193087
0.00977154
0.195547
0.00368127
0.196269
-0.000886161
0.191168
-0.00282397
0.172956
-0.0020626
0.131562
0.0569832
0.0233198
0.191048
-0.0291476
0.017356
0.194115
0.0112905
0.196583
0.00534418
0.199033
-0.000132857
0.201024
-0.00445957
0.200596
-0.00686834
0.193577
-0.00656219
0.17265
-0.00339569
0.128396
0.0535875
0.00731424
0.196093
-0.0123594
0.00237778
0.199052
-0.00249311
0.201454
-0.00708211
0.203622
-0.0109632
0.204905
-0.0134719
0.203105
-0.0135853
0.19369
-0.0104821
0.169547
-0.00468966
0.122604
0.0488979
-0.010737
0.200039
0.0067906
-0.0144691
0.202784
-0.0180105
0.204995
-0.0211066
0.206718
-0.0232132
0.207011
-0.0234405
0.203332
-0.0207211
0.190971
-0.0144391
0.163265
-0.00586667
0.114031
0.0430312
-0.0302629
0.202909
0.027393
-0.032814
0.205335
-0.0349976
0.207179
-0.0364541
0.208175
-0.0364766
0.207034
-0.0340161
0.200872
-0.0279892
0.184944
-0.0181762
0.153452
-0.00680166
0.102656
0.0362296
-0.0519399
0.0503315
-0.0531115
-0.053683
-0.0531505
-0.0506084
-0.0448692
-0.0349772
-0.0213527
-0.00737471
0.107691
0.0403625
-0.119718
-0.0283361
0.095397
0.0414683
-0.0291739
0.0828221
0.0426629
-0.0300879
0.069941
0.0439408
-0.0310597
0.0567365
0.0452827
-0.0320782
0.0432338
0.0465445
-0.0330418
0.0296177
0.0471604
-0.0335442
0.0165227
0.04553
-0.032435
0.00556045
0.0382068
-0.0272445
0.019407
-0.0138466
0.106956
0.0524066
-0.119
0.0947194
0.0537047
0.0822144
0.055168
0.06941
0.0567452
0.0562814
0.0584114
0.0428516
0.0599743
0.0293128
0.0606992
0.0163121
0.0585306
0.00546397
0.0490549
0.024871
0.105772
0.06435
-0.117716
0.0935775
0.0658995
0.081139
0.0676065
0.0684301
0.0694541
0.0554275
0.071414
0.0421479
0.0732539
0.0287786
0.0740684
0.0159696
0.0713396
0.00532284
0.0597017
0.0301938
0.103933
0.0763289
-0.115912
0.0918453
0.0779872
0.0795057
0.079946
0.0668923
0.0820675
0.0540024
0.0843039
0.0408861
0.0863702
0.0277599
0.0871946
0.0152854
0.0838141
0.00503289
0.0699543
0.0352267
0.101489
0.088089
-0.113249
0.0895936
0.0898828
0.0775343
0.0920053
0.0652383
0.0943635
0.0526537
0.0968886
0.0398096
0.0992143
0.0269433
0.100061
0.0147566
0.0960008
0.0048219
0.079889
0.0400486
0.0978736
0.0999246
-0.109709
0.0860519
0.101705
0.0740796
0.103978
0.0619695
0.106474
0.0497099
0.109148
0.0373236
0.111601
0.025029
0.112356
0.0135162
0.107514
0.00430417
0.0891011
0.0443528
0.094012
0.111105
-0.105192
0.0828374
0.112879
0.0714642
0.115351
0.0597951
0.118143
0.0478431
0.1211
0.0357255
0.123718
0.0237538
0.124327
0.0126723
0.118595
0.00396404
0.0978094
0.0483168
0.0867522
0.122152
-0.0977989
0.0759543
0.123677
0.0652169
0.126088
0.0544037
0.128956
0.0433941
0.13211
0.0322165
0.134896
0.0211801
0.135364
0.0110655
0.12871
0.00331998
0.105555
0.0516368
0.0822191
0.131403
-0.0914702
0.0725302
0.133366
0.0622387
0.13638
0.0515843
0.13961
0.0407389
0.142955
0.0298587
0.145776
0.0192989
0.145923
0.00984454
0.138164
0.0028425
0.112557
0.0544793
0.0712083
-0.0779844
0.0632342
0.0547828
0.0457078
0.0361343
0.0263209
0.0167486
0.00828951
0.00224819
0.20163
0.0066231
-0.0102635
0.205492
0.0272768
-0.031139
0.208845
0.0344818
-0.037834
0.211627
0.0530905
-0.0558734
0.213354
0.0659852
-0.0677118
0.212409
0.0900883
-0.0891429
0.207347
0.123284
-0.118222
0.195141
0.153012
-0.140805
0.169438
0.206718
-0.181015
0.267676
-0.217956
0.201276
0.00333693
0.204792
0.0237603
0.207961
0.0313131
0.21021
0.0508418
0.211951
0.0642445
0.210316
0.0917225
0.205458
0.128143
0.19292
0.165549
0.167489
0.232149
0.316165
0.200866
0.000460433
0.203907
0.0207195
0.206885
0.0283353
0.208442
0.0492844
0.210166
0.0625208
0.207545
0.0943429
0.202882
0.132807
0.189538
0.178893
0.16483
0.256856
0.36328
0.200387
-0.00193721
0.202845
0.0182617
0.205588
0.0255927
0.206314
0.0485587
0.207983
0.0608517
0.204171
0.0981546
0.199699
0.137279
0.184939
0.193653
0.161518
0.280278
0.408886
0.199823
-0.00377087
0.201624
0.0164613
0.204055
0.0231618
0.203847
0.0487661
0.205371
0.0593285
0.200248
0.103277
0.195885
0.141641
0.179461
0.210077
0.157486
0.302253
0.453122
0.199161
-0.00494232
0.200265
0.0153578
0.202276
0.0211507
0.201108
0.0499344
0.202311
0.0581246
0.195776
0.109813
0.191426
0.145991
0.172881
0.228622
0.153037
0.322097
0.49645
0.198393
-0.00534585
0.198792
0.0149593
0.200243
0.0196998
0.198128
0.0520493
0.198772
0.0574802
0.190837
0.117748
0.186095
0.150733
0.165812
0.248905
0.147497
0.340412
0.538755
0.197521
-0.00487657
0.197225
0.0152551
0.197953
0.0189715
0.194913
0.0550896
0.194758
0.0576349
0.18541
0.127095
0.180022
0.156122
0.157358
0.271569
0.141757
0.356012
0.582713
0.196553
-0.00343965
0.195575
0.016233
0.195416
0.0191307
0.191468
0.0590373
0.190229
0.058874
0.179663
0.137661
0.173222
0.162563
0.150188
0.294604
0.134984
0.371217
0.626227
0.195536
-0.000985774
0.193808
0.0179612
0.192711
0.0202277
0.187703
0.0640453
0.185099
0.061478
0.172926
0.149834
0.164555
0.170934
0.139837
0.319322
0.128925
0.382128
0.677168
0.304457
-0.00343263
0.309104
0.0133148
0.317214
0.012117
0.319484
0.0617759
0.332407
0.0485543
0.333202
0.149039
0.353756
0.15038
0.36028
0.312798
0.413297
0.329111
0.605913
0.484552
0.30469
-0.00611283
0.310871
0.00713378
0.3195
0.00348841
0.32346
0.0578156
0.338055
0.0339596
0.341719
0.145375
0.363472
0.128627
0.380524
0.295746
0.429743
0.279891
0.53837
0.497286
0.305167
-0.0092693
0.313241
-0.000940061
0.321564
-0.0048348
0.328676
0.0507036
0.342958
0.0196777
0.350301
0.138031
0.371493
0.107436
0.395675
0.271565
0.439441
0.236125
0.465294
0.512517
0.306189
-0.0134479
0.315909
-0.0106603
0.323912
-0.0128375
0.335187
0.0394281
0.346797
0.008068
0.358029
0.126799
0.377251
0.0882141
0.40666
0.242155
0.449085
0.1937
0.388601
0.525778
0.307892
-0.0193297
0.318777
-0.0215453
0.327355
-0.0214157
0.342725
0.0240585
0.351194
-0.000401488
0.36677
0.111223
0.383531
0.0714532
0.418429
0.207258
0.455914
0.156214
0.314128
0.530387
0.310199
-0.0275189
0.322176
-0.0335219
0.332284
-0.0315238
0.350163
0.00618017
0.355532
-0.00577139
0.374783
0.0919725
0.389455
0.0567809
0.427513
0.1692
0.460774
0.122953
0.244463
0.530439
0.313264
-0.0387729
0.326388
-0.0466456
0.337467
-0.042603
0.354676
-0.0110285
0.35627
-0.00736565
0.379084
0.0691587
0.392447
0.0434173
0.432841
0.128807
0.462622
0.0931717
0.179372
0.527713
0.316341
-0.0531033
0.327566
-0.0578705
0.334492
-0.0495294
0.344318
-0.0208548
0.342603
-0.00565062
0.368075
0.0436873
0.381485
0.0300066
0.424854
0.0854381
0.454813
0.063213
0.114673
0.519511
0.309615
-0.0607086
0.303963
-0.0522177
0.292734
-0.0383009
0.286816
-0.0149364
0.283697
-0.00253183
0.308797
0.0185876
0.324603
0.0142
0.371696
0.0383456
0.40615
0.0287593
0.0477903
0.473033
0.241302
0.189084
0.150783
0.135847
0.133315
0.151902
0.166102
0.204448
0.233207
0.280997
0.498173
-0.0990342
0.502769
-0.0848951
0.506428
-0.075797
0.509534
-0.06255
0.514461
-0.0504968
0.518874
-0.0335604
0.525242
-0.0187281
0.531124
0.000909219
0.539704
0.0188125
0.0421912
0.498138
-0.0998864
0.498959
-0.085716
0.499142
-0.0759794
0.499419
-0.0628269
0.501089
-0.0521673
0.503073
-0.0355442
0.507476
-0.0231316
0.511868
-0.00348281
0.519423
0.0112583
0.0343901
0.506252
-0.0936212
0.503053
-0.0825172
0.499808
-0.0727345
0.497533
-0.0605518
0.495787
-0.0504208
0.496105
-0.0358628
0.497387
-0.0244129
0.500827
-0.00692299
0.505811
0.00627438
0.0263999
0.514971
-0.0828136
0.506733
-0.0742795
0.499927
-0.0659281
0.495231
-0.0558561
0.491041
-0.0462303
0.489624
-0.0344459
0.488856
-0.0236456
0.491644
-0.00971079
0.495294
0.00262429
0.0185876
0.517845
-0.0702719
0.507114
-0.0635481
0.497948
-0.0567625
0.491093
-0.0490005
0.485631
-0.0407688
0.48286
-0.0316749
0.481499
-0.0222841
0.483451
-0.0116626
0.486876
-0.000801517
0.0113988
0.516636
-0.0564693
0.504587
-0.0514986
0.494343
-0.0465191
0.486327
-0.0409837
0.480337
-0.0347792
0.476792
-0.0281299
0.475277
-0.020769
0.476514
-0.0129001
0.479872
-0.00415956
0.00492881
0.513303
-0.0420592
0.500615
-0.0388106
0.489766
-0.03567
0.481022
-0.0322395
0.474435
-0.0281923
0.470101
-0.0237955
0.467988
-0.0186565
0.468338
-0.0132502
0.47119
-0.007011
-0.000658628
0.503855
-0.0264039
0.48997
-0.0249248
0.477928
-0.0236282
0.467844
-0.0221553
0.45984
-0.020189
0.453915
-0.0178703
0.450235
-0.0149767
0.448847
-0.011862
0.450044
-0.0082079
-0.00458142
0.456547
-0.00991808
0.441755
-0.0101332
0.428478
-0.0103515
0.416688
-0.0103644
0.406525
-0.0100261
0.398039
-0.00938515
0.3915
-0.00843695
0.386967
-0.00732927
0.384767
-0.00600826
-0.00466322
0.271079
0.260946
0.250595
0.24023
0.230204
0.220819
0.212382
0.205053
0.199045
0.00667261
0.0404187
-0.0470913
0.0160144
0.105874
-0.115216
0.0224663
0.150398
-0.15685
0.0249465
0.175031
-0.177511
0.0243372
0.18593
-0.185321
0.0218507
0.188937
-0.186451
0.0184154
0.187538
-0.184102
0.0146697
0.182733
-0.178987
0.0111883
0.173332
-0.169851
0.156116
0.00852305
-0.15345
0.00797029
0.0324484
0.0213653
0.0924793
0.0329176
0.138845
0.0401424
0.167806
0.0434064
0.182666
0.0439522
0.188391
0.0428732
0.188617
0.0408198
0.184787
0.0379977
0.176154
0.159957
0.0341559
0.00848298
0.0239654
0.0252532
0.075709
0.0421542
0.121944
0.0549449
0.155015
0.0629634
0.174648
0.0671888
0.184166
0.0687971
0.187008
0.0684817
0.185102
0.0662637
0.178372
0.164932
0.061289
0.00809355
0.0158719
0.0267458
0.0570568
0.0484981
0.100192
0.0674871
0.136026
0.0813863
0.160748
0.0904037
0.175149
0.0956461
0.181766
0.0979986
0.182749
0.0974759
0.178895
0.169263
0.0931453
0.00691182
0.00896007
0.0252972
0.0386714
0.0501122
0.075377
0.0750843
0.111054
0.0959673
0.139865
0.111322
0.159794
0.121567
0.171521
0.127617
0.1767
0.129939
0.176572
0.171878
0.127324
0.00525195
0.00370812
0.0212221
0.0227013
0.0459746
0.0506244
0.0747613
0.0822674
0.102491
0.112136
0.12575
0.136535
0.143225
0.154046
0.155077
0.164848
0.16181
0.169839
0.170162
0.163526
0.00352434
0.00018378
0.0157508
0.0104749
0.0371613
0.0292139
0.0656552
0.0537735
0.097264
0.0805273
0.127875
0.105924
0.154451
0.12747
0.175393
0.143905
0.190429
0.154803
0.161979
0.198612
0.00206008
-0.0018763
0.0103141
0.00222093
0.0263951
0.0131329
0.050434
0.0297346
0.0806811
0.0502802
0.114107
0.0724978
0.14744
0.0941374
0.177738
0.113607
0.203231
0.12931
0.140878
0.224332
0.000941183
-0.00281748
0.00571397
-0.00255186
0.0161727
0.00267413
0.0335579
0.0123495
0.0579929
0.0258451
0.0883166
0.0421741
0.12243
0.0600245
0.157923
0.0781128
0.191366
0.0958681
0.106659
0.225585
2.80283e-05
-0.00284551
0.00190208
-0.00442591
0.00739777
-0.00282156
0.018037
0.00171028
0.034852
0.00903008
0.0581048
0.0189213
0.0872196
0.0309097
0.121047
0.0442856
0.157779
0.0591364
0.0709028
0.193535
-0.000727031
-0.00211848
-0.000916816
-0.00423612
0.00096495
-0.00470332
0.00623087
-0.00355564
0.0159468
-0.000685891
0.0309753
0.00389283
0.0517004
0.0101846
0.0779309
0.018055
0.10943
0.0276369
0.0408956
0.139438
-0.000655765
-0.00146272
-0.00112555
-0.00376634
-0.000413495
-0.00541538
0.00223643
-0.00620556
0.0075254
-0.00597486
0.0160365
-0.00461832
0.0282909
-0.0020697
0.0445617
0.00178415
0.0648071
0.00739156
0.0165749
0.0891278
0.000163026
-0.00162574
0.0010021
-0.00460542
0.00277325
-0.00718653
0.0056778
-0.0091101
0.00990898
-0.010206
0.0156891
-0.0103985
0.0232845
-0.0096651
0.033014
-0.00794537
0.045382
-0.00497637
5.95991e-05
0.0618972
0.000667277
-0.00229302
0.00212652
-0.00606466
0.00420672
-0.00926672
0.0069007
-0.0118041
0.0102732
-0.0135786
0.0144429
-0.0145681
0.019579
-0.0148012
0.0259207
-0.0142871
0.0338956
-0.0129513
-0.01088
0.0448352
0.000108445
-0.00240146
6.90255e-05
-0.00602524
-0.000159967
-0.00903773
-0.000443602
-0.0115205
-0.000592497
-0.0134297
-0.00038406
-0.0147765
0.000434651
-0.0156199
0.00216875
-0.0160212
0.00523241
-0.016015
-0.0157758
0.0101282
-0.00129871
-0.00110275
-0.00433184
-0.00299212
-0.00835469
-0.00501487
-0.0127926
-0.00708254
-0.0172026
-0.00901969
-0.0212152
-0.0107639
-0.0245126
-0.0123225
-0.02683
-0.0137038
-0.0279562
-0.0148887
-0.0161308
-0.0276012
-0.0032294
0.00212664
-0.00996635
0.00374484
-0.0183801
0.00339883
-0.027427
0.00196439
-0.0365858
0.000139164
-0.0453916
-0.00195815
-0.0536781
-0.00403599
-0.0613001
-0.00608182
-0.0681153
-0.0080735
-0.0101824
-0.0740637
-0.00498678
0.00711343
-0.0148751
0.0136332
-0.0268547
0.0153784
-0.0395534
0.0146631
-0.0523549
0.0129407
-0.0651764
0.0108634
-0.0778736
0.00866119
-0.0903562
0.00640076
-0.102529
0.00409893
0.00174026
-0.114451
-0.00587079
0.0129842
-0.0174313
0.0251937
-0.0313596
0.0293068
-0.0461201
0.0294236
-0.0611372
0.0279578
-0.0762431
0.0259692
-0.0913747
0.0237929
-0.106471
0.0214966
-0.121458
0.0190868
0.0166621
-0.13638
-0.00554103
-0.0169173
-0.0309317
-0.0459728
-0.0613776
-0.0769117
-0.0924743
-0.107981
-0.123343
-0.13863
0.205606
0.0667753
-0.132944
0.222228
0.397709
-0.414331
0.221146
0.402558
-0.401476
0.232828
0.124714
-0.136397
0.23333
-0.0604331
0.0599313
0.218915
-0.0757496
0.0901641
0.205488
-0.0462758
0.0597034
0.200162
-0.024943
0.0302691
0.201934
-0.0196479
0.0178752
-0.017549
0.0121854
0.167753
-0.0118501
0.213091
0.352371
0.231992
0.383657
0.249336
0.107369
0.239904
-0.0510006
0.218929
-0.054775
0.205046
-0.0323929
0.201011
-0.020908
0.203633
-0.0222697
-0.0226135
0.129367
-0.0793197
0.186198
0.295539
0.221605
0.348251
0.240004
0.0889705
0.223951
-0.0349474
0.20454
-0.0353645
0.196873
-0.0247259
0.197848
-0.0218829
0.203001
-0.0274232
-0.0279224
0.0832194
-0.117704
0.140189
0.23857
0.187871
0.300569
0.203376
0.0734654
0.189764
-0.0213352
0.18237
-0.0279711
0.186362
-0.0287178
0.193999
-0.0295194
0.201981
-0.0354057
-0.0335411
0.0254043
-0.13298
0.0777862
0.186188
0.13003
0.248325
0.146858
0.0566374
0.151085
-0.0255624
0.16293
-0.0398161
0.178768
-0.0445557
0.191713
-0.0424647
0.201572
-0.0452641
-0.0391821
-0.0501698
-0.110412
-0.00165316
0.137671
0.0565259
0.190146
0.0942725
0.0188908
0.125098
-0.0563878
0.152968
-0.0676861
0.175996
-0.0675832
0.191485
-0.0579539
0.201953
-0.0557325
-0.0445101
-0.131902
-0.0525729
-0.0855059
0.091275
0.00200605
0.102634
0.0670465
-0.0461497
0.115821
-0.105163
0.151304
-0.103169
0.176763
-0.0930425
0.19267
-0.0738611
0.202895
-0.0659575
-0.0493326
-0.189175
0.0221508
-0.129353
0.0314529
-0.0159297
-0.0107892
0.0607736
-0.122853
0.116104
-0.160493
0.153688
-0.140753
0.179132
-0.118486
0.194508
-0.089237
0.204137
-0.0755869
-0.0536073
-0.210149
0.0959192
-0.13866
-0.0400356
-0.016148
-0.133301
0.0630501
-0.202051
0.119859
-0.217302
0.157412
-0.178306
0.182026
-0.1431
0.196597
-0.103808
0.205542
-0.0845319
-0.0573681
-0.202121
-0.129629
-0.0108892
0.0699475
0.125897
0.162105
0.185338
0.198898
0.20709
0.0493018
0.0353989
-0.0847007
0.010439
0.0388628
-0.0188224
0.0292614
-0.0271783
0.00835587
-0.0105161
-0.0166622
0.0140625
-0.0245786
0.0309201
-0.0168577
0.0386822
-0.00776208
0.0417869
-0.0031047
-0.0012514
0.196933
0.109159
-0.270693
0.0891487
0.146647
0.0142568
0.104153
0.00133541
0.0212773
0.0289064
-0.0442332
0.0662742
-0.0619463
0.0920611
-0.0426446
0.104866
-0.0205667
0.110809
-0.00904811
-0.00399002
0.341911
0.165495
-0.398247
0.208902
0.279656
0.100485
0.21257
0.0714187
0.0503437
0.0926049
-0.0654195
0.121431
-0.0907723
0.142099
-0.0633122
0.15332
-0.0317879
0.159445
-0.0151738
-0.00735268
0.417836
0.174146
-0.426487
0.314927
0.382565
0.204338
0.32316
0.161803
0.0928784
0.167009
-0.070625
0.176463
-0.100226
0.182464
-0.069313
0.18618
-0.0355041
0.189474
-0.0184674
-0.0102432
0.39546
-0.354258
0.363694
0.285378
0.24186
0.231166
0.221104
0.211494
0.206259
0.205667
0.0105922
-0.000161357
-0.0104309
0.0121882
-0.00159599
0.0150988
-0.0029106
0.0194958
-0.004397
0.0258365
-0.0063407
0.0332965
-0.00745998
0.0435999
-0.0103034
0.0551319
-0.0115321
0.0696119
-0.0144799
-0.0150889
0.029195
-0.00089221
-0.0284642
0.0337498
-0.00615075
0.0420202
-0.011181
0.0551413
-0.0175181
0.0735766
-0.024776
0.096937
-0.0308204
0.130101
-0.0434677
0.167119
-0.0485499
0.215424
-0.0627852
-0.0703573
0.0452189
-0.00245353
-0.0436575
0.0524714
-0.0134033
0.0655492
-0.0242588
0.0862166
-0.0381855
0.114303
-0.0528622
0.152198
-0.0687158
0.201099
-0.0923683
0.256761
-0.104212
0.328166
-0.134191
-0.140439
0.0585562
-0.00498336
-0.0560264
0.0680351
-0.0228821
0.0850901
-0.0413138
0.110996
-0.0640918
0.146132
-0.0879983
0.193078
-0.115661
0.246645
-0.145935
0.311374
-0.16894
0.379052
-0.201869
-0.187873
0.0693186
-0.0657789
0.0805924
0.100568
0.129621
0.168947
0.216812
0.269488
0.32488
0.348596
0.0813942
-0.0733653
0.0811905
-0.0892195
0.0728165
-0.0744455
0.0830233
0.063905
-0.0761653
0.0850768
0.0544082
-0.0780072
0.0875041
0.0442423
-0.0798473
0.0900132
0.0335287
-0.0813742
0.0920879
0.022632
-0.0815009
0.0923976
0.012307
-0.0774358
0.0877608
0.00397572
-0.0636588
0.0719901
-0.0314747
0.0354504
0.0899182
-0.0639281
-0.0993554
0.0801089
-0.0646363
0.0696677
-0.0657241
0.0586538
-0.0669933
0.0472199
-0.0684133
0.0355464
-0.0697008
0.0239293
-0.0698837
0.0130305
-0.066537
0.00423392
-0.0548623
-0.0272408
0.0915873
-0.0532966
-0.102219
0.0808477
-0.0538967
0.0699082
-0.0547846
0.0587729
-0.055858
0.0474145
-0.057055
0.035835
-0.0581213
0.0242251
-0.0582737
0.0132284
-0.0555403
0.00429394
-0.0459278
-0.0229468
0.0967675
-0.0423773
-0.107687
0.085692
-0.0428212
0.0743874
-0.04348
0.0627763
-0.044247
0.0508093
-0.0450879
0.0385219
-0.045834
0.0261562
-0.045908
0.0143971
-0.0437813
0.00475215
-0.0362828
-0.0181947
0.0994461
-0.0309962
-0.110827
0.0879246
-0.0312997
0.0761569
-0.0317123
0.0641168
-0.0322068
0.0517943
-0.0327655
0.0392355
-0.0332751
0.0266539
-0.0333264
0.0146902
-0.0318176
0.00485036
-0.026443
-0.0133443
0.102558
-0.0194357
-0.114119
0.0907774
-0.0195189
0.0787457
-0.0196806
0.0664314
-0.0198925
0.0538119
-0.020146
0.0409119
-0.0203751
0.0279262
-0.0203407
0.0154975
-0.0193889
0.00517906
-0.0161246
-0.00816528
0.10466
-0.0076389
-0.116456
0.0926609
-0.00752029
0.0804055
-0.00742517
0.0678645
-0.00735152
0.0550148
-0.00729625
0.0418776
-0.00723789
0.0286392
-0.00710234
0.0159352
-0.00668487
0.00534337
-0.00553278
-0.0028219
0.106336
0.0042806
-0.118256
0.0941809
0.00463491
0.0817574
0.00499831
0.0690381
0.0053678
0.0560017
0.00574016
0.0426699
0.00609393
0.0292258
0.00634177
0.0163015
0.00623941
0.0054889
0.00527983
0.00266699
0.107375
0.0162848
-0.119379
0.0951255
0.0168839
0.0826019
0.017522
0.0697767
0.018193
0.0566281
0.0188887
0.0431756
0.0195464
0.0295988
0.0199185
0.0165293
0.0193089
0.00557461
0.0162345
0.0082416
0.107774
-0.119826
0.0954844
0.0829184
0.0700517
0.0568622
0.0433668
0.0297411
0.0166149
0.00560498
0.0131987
-0.151398
-0.0152507
0.00885253
-0.165505
0.00350228
-0.173637
-0.0019943
-0.178606
-0.00697583
-0.181469
-0.0106754
-0.181621
-0.0120729
-0.176113
-0.0101122
-0.15881
-0.00486117
-0.120467
-0.0519525
0.0356188
-0.148475
-0.0385418
0.029751
-0.159637
0.0226516
-0.166538
0.0152506
-0.171205
0.00809642
-0.174315
0.00178179
-0.175307