/*--------------------------------*- C++ -*----------------------------------*\
  =========                 |
  \\      /  F ield         | OpenFOAM: The Open Source CFD Toolbox
   \\    /   O peration     | Website:  https://openfoam.org
    \\  /    A nd           | Version:  13
     \\/     M anipulation  |
\*---------------------------------------------------------------------------*/
FoamFile
{
    format      ascii;
    class       volVectorField;
    location    "2.95";
    object      U;
}
// * * * * * * * * * * * * * * * * * * * * * * * * * * * * * * * * * * * * * //

dimensions      [0 1 -1 0 0 0 0];

internalField   nonuniform List<vector> 
1800
(
(-0.0305522 0.0237364 1.02974e-20)
(-0.0746656 0.0431753 4.67128e-21)
(-0.0928329 0.0525543 -5.07846e-20)
(-0.0795355 0.0564536 6.42717e-20)
(-0.0274741 0.0578218 1.76483e-19)
(0.0682369 0.0570662 7.76753e-20)
(0.209474 0.0545305 -3.12898e-20)
(0.391417 0.0482672 2.8571e-20)
(0.634505 0.0621842 1.47388e-19)
(0.75046 0.101009 1.85096e-19)
(-0.0453119 0.0336027 9.52381e-21)
(-0.082404 0.055014 -4.26816e-20)
(-0.0672842 0.0544094 4.07024e-22)
(0.00108365 0.0406904 -6.19451e-20)
(0.126181 0.0197301 2.50608e-20)
(0.308298 -0.00525011 1.50536e-19)
(0.541919 -0.0312796 -6.51146e-20)
(0.812931 -0.0598534 2.32628e-20)
(1.12566 -0.0740929 -1.53698e-19)
(1.32412 -0.0880555 1.50072e-19)
(-0.0494195 0.0327512 4.60704e-21)
(-0.0623882 0.0487409 1.72457e-20)
(0.00467682 0.0400095 2.77611e-21)
(0.148378 0.0159789 -1.33646e-20)
(0.364978 -0.0154518 -1.48366e-19)
(0.642495 -0.048463 3.02208e-20)
(0.959489 -0.0789271 5.9352e-20)
(1.29047 -0.103804 -2.34855e-20)
(1.60658 -0.121696 -1.64678e-22)
(1.88987 -0.149711 -1.61008e-21)
(-0.0419439 0.0243012 -8.13363e-21)
(-0.00988412 0.025973 -2.56791e-20)
(0.130778 0.00662211 -2.64523e-20)
(0.369249 -0.0241003 2.6675e-20)
(0.686163 -0.0571754 2.49568e-20)
(1.04836 -0.0863053 1.04342e-20)
(1.4161 -0.108255 -3.48276e-21)
(1.75305 -0.12267 9.8199e-20)
(2.0396 -0.132238 9.53187e-20)
(2.25006 -0.13814 -4.46761e-20)
(-0.0222887 0.0123068 6.28904e-20)
(0.0801868 -0.00292921 5.81431e-20)
(0.317558 -0.0301361 -4.12138e-20)
(0.661808 -0.0591573 -5.07593e-20)
(1.06604 -0.0821512 -1.42288e-19)
(1.47284 -0.0960881 2.2776e-21)
(1.83336 -0.101976 1.99511e-19)
(2.11994 -0.103056 9.41004e-20)
(2.32216 -0.100951 1.47833e-21)
(2.45953 -0.107172 -9.32505e-20)
(0.0127323 -0.00124292 -6.16234e-20)
(0.213046 -0.0297235 -1.36448e-20)
(0.563481 -0.0562027 2.11309e-19)
(1.00466 -0.0722467 -6.51312e-20)
(1.45721 -0.0762383 -1.58208e-19)
(1.85283 -0.0718029 3.35698e-19)
(2.15544 -0.0640639 -3.49884e-19)
(2.35995 -0.0569245 -4.93533e-19)
(2.48456 -0.0528049 4.10186e-19)
(2.54766 -0.052395 1.90871e-21)
(0.0657784 -0.01355 6.69054e-20)
(0.387472 -0.045545 -1.48426e-19)
(0.850799 -0.0589378 -5.22742e-19)
(1.35609 -0.0525411 2.61454e-19)
(1.80538 -0.0355196 5.89204e-19)
(2.14532 -0.0170843 -2.30799e-21)
(2.36948 -0.00254408 -1.28124e-18)
(2.49972 0.00632052 7.30352e-21)
(2.56451 0.0110735 1.54534e-18)
(2.59139 0.00806733 4.25846e-19)
(0.136746 -0.0208242 6.39722e-20)
(0.592834 -0.0417197 3.50527e-19)
(1.14908 -0.0299754 4.49903e-19)
(1.67401 0.00192297 -1.14936e-19)
(2.07999 0.0350504 -5.36053e-19)
(2.34764 0.06 -2.05416e-19)
(2.50042 0.0750239 0)
(2.57453 0.0819611 6.44955e-19)
(2.60222 0.0831131 -1.13871e-20)
(2.60289 0.0791373 -6.14379e-19)
(0.222086 -0.0189316 5.56068e-20)
(0.810502 -0.011679 3.82905e-19)
(1.42636 0.0330808 7.2651e-19)
(1.93301 0.0872248 -7.73892e-19)
(2.27723 0.129123 -6.80871e-19)
(2.47563 0.154357 2.71463e-19)
(2.57153 0.165947 -1.29105e-18)
(2.60672 0.168497 -9.74875e-19)
(2.60985 0.165949 1.2e-18)
(2.5966 0.158166 1.04551e-18)
(0.315407 -0.00454315 -3.5529e-20)
(1.01942 0.0468 3.0534e-19)
(1.66022 0.126634 1.8923e-19)
(2.1257 0.196663 -1.54066e-18)
(2.40564 0.240649 4.64056e-20)
(2.54542 0.261385 3.08494e-18)
(2.59936 0.266517 -1.78888e-18)
(2.60876 0.262947 -1.04912e-18)
(2.5975 0.254802 3.7102e-19)
(2.57518 0.242895 -8.49812e-19)
(-0.0146935 0.259601 2.37936e-19)
(-0.0654966 0.51789 -1.23484e-19)
(-0.131236 0.616883 1.16676e-21)
(-0.202176 0.635414 -3.16666e-20)
(-0.270601 0.621342 2.88687e-21)
(-0.334875 0.59612 2.19869e-19)
(-0.394547 0.566592 1.76618e-19)
(-0.449136 0.534027 -3.59201e-19)
(-0.499635 0.498419 2.0188e-20)
(-0.549378 0.460005 -6.25736e-20)
(-0.0341093 0.291812 -8.41395e-21)
(-0.0872539 0.606822 1.44289e-20)
(-0.142338 0.740802 1.65547e-20)
(-0.197621 0.775007 4.56467e-20)
(-0.250013 0.764847 -1.57669e-19)
(-0.298471 0.737726 2.21446e-19)
(-0.342421 0.703574 -3.2845e-19)
(-0.380981 0.66474 -4.32077e-19)
(-0.414218 0.621391 3.40406e-19)
(-0.445064 0.573736 -1.08716e-19)
(-0.0516173 0.285623 -6.54664e-20)
(-0.107 0.635543 4.2766e-20)
(-0.149043 0.809346 3.02248e-21)
(-0.184036 0.87001 -2.28578e-19)
(-0.215231 0.871736 -7.54646e-20)
(-0.243026 0.84702 8.12099e-19)
(-0.266734 0.810273 -2.94974e-19)
(-0.285354 0.766153 -4.30668e-19)
(-0.297865 0.715667 5.14187e-19)
(-0.30542 0.659102 2.93187e-19)
(-0.0602598 0.242981 -5.18657e-20)
(-0.116903 0.594663 -4.79275e-21)
(-0.14659 0.80649 1.28024e-20)
(-0.161684 0.90516 -5.28227e-20)
(-0.170628 0.931278 2.2607e-19)
(-0.176056 0.917978 -2.78534e-19)
(-0.17819 0.88437 -2.44886e-19)
(-0.176441 0.838829 2.92916e-19)
(-0.169603 0.784032 1.27005e-20)
(-0.15393 0.720873 9.52355e-21)
(-0.056191 0.176533 0)
(-0.11157 0.489338 3.49888e-21)
(-0.133106 0.722016 -4.25644e-20)
(-0.132791 0.86275 1.08548e-19)
(-0.121596 0.927533 3.37856e-19)
(-0.104841 0.94046 -2.67228e-19)
(-0.0845268 0.921339 1.07305e-19)
(-0.060971 0.88246 2.96457e-20)
(-0.0338006 0.82971 0)
(0.00417007 0.765389 2.06742e-20)
(-0.0413202 0.105899 -2.78049e-20)
(-0.0907611 0.345978 7.06916e-20)
(-0.109412 0.566371 3.58076e-20)
(-0.102834 0.732382 -5.60899e-20)
(-0.0798635 0.836322 5.91374e-20)
(-0.046787 0.88668 1.85742e-19)
(-0.00751458 0.896562 -4.93782e-19)
(0.0360066 0.877668 -3.64188e-20)
(0.0814735 0.837684 5.99928e-19)
(0.138523 0.780934 1.16955e-20)
(-0.0225584 0.049199 9.84803e-21)
(-0.0619837 0.206043 1.31244e-19)
(-0.0813687 0.38216 -7.12172e-20)
(-0.0780177 0.540185 -1.19676e-20)
(-0.0552205 0.660584 -6.66689e-20)
(-0.0174465 0.739079 7.18005e-20)
(0.0310076 0.779571 1.6769e-19)
(0.0870592 0.789016 2.07634e-19)
(0.146038 0.773713 -2.18549e-19)
(0.214885 0.736783 -3.01498e-19)
(-0.00746244 0.014503 2.57413e-20)
(-0.0374196 0.101348 -6.69429e-20)
(-0.0593482 0.219874 -1.02719e-19)
(-0.0644 0.341542 3.85105e-20)
(-0.050272 0.447129 -1.42717e-20)
(-0.0183169 0.527401 9.00951e-20)
(0.0282612 0.580385 7.73876e-20)
(0.0859525 0.608446 7.61715e-20)
(0.1502 0.615942 6.14328e-20)
(0.222917 0.594824 -1.68521e-19)
(-0.00216708 0.00157125 1.67847e-20)
(-0.0307071 0.0428637 -9.64913e-20)
(-0.0578646 0.109352 1.48557e-19)
(-0.0725025 0.184026 1.6611e-19)
(-0.0687642 0.254554 -1.19747e-19)
(-0.0453636 0.313538 2.43873e-19)
(-0.00350811 0.358096 -4.10426e-20)
(0.0545973 0.388914 -1.81326e-19)
(0.127305 0.406356 1.82396e-20)
(0.224753 0.38875 -1.20953e-19)
(-0.0117648 0.00823135 -8.19499e-21)
(-0.0493485 0.0294876 -4.39781e-20)
(-0.0806791 0.0589652 -1.53883e-20)
(-0.09601 0.091813 7.5842e-20)
(-0.0877202 0.124279 1.5413e-19)
(-0.0517931 0.153456 -1.61031e-19)
(0.0138779 0.178029 -1.25147e-19)
(0.108833 0.198043 3.77476e-20)
(0.235682 0.21341 2.63126e-20)
(0.389901 0.212901 7.4836e-20)
(-0.796338 0.254945 9.23698e-19)
(-0.707426 -0.209841 -1.94676e-18)
(-0.186573 -0.433938 -3.85586e-19)
(0.231278 -0.451663 1.364e-19)
(0.555448 -0.418661 -2.68008e-20)
(0.747895 -0.323453 -1.52566e-20)
(0.88124 -0.24782 -8.86916e-21)
(0.973664 -0.173454 -2.36465e-21)
(1.02009 -0.135723 1.17267e-20)
(1.06897 -0.0879911 2.80544e-21)
(-0.610972 0.311561 9.60021e-19)
(-0.425862 -0.292675 7.81851e-19)
(-0.012738 -0.568558 -4.7929e-20)
(0.369518 -0.560298 -2.05333e-19)
(0.653592 -0.489195 -2.24214e-19)
(0.814302 -0.36845 0)
(0.923568 -0.277052 -2.06882e-20)
(0.997873 -0.191665 5.18314e-21)
(1.03589 -0.14785 3.78465e-22)
(1.07648 -0.0945578 -5.72262e-21)
(-0.377738 0.343168 -2.96877e-19)
(-0.110227 -0.36442 -4.07545e-19)
(0.228984 -0.674128 2.78839e-19)
(0.540178 -0.653408 7.79322e-20)
(0.772114 -0.549474 1.97237e-20)
(0.895449 -0.405483 -8.78875e-21)
(0.975688 -0.300254 0)
(1.02778 -0.206041 0)
(1.05488 -0.157513 -1.10474e-20)
(1.08512 -0.0998813 0)
(-0.128814 0.353865 -8.68054e-20)
(0.21754 -0.420908 7.93057e-19)
(0.503969 -0.757191 -1.37461e-19)
(0.727895 -0.727063 0)
(0.897751 -0.598055 2.54843e-19)
(0.982313 -0.434228 -4.58797e-20)
(1.03327 -0.316919 0)
(1.06186 -0.215946 4.08434e-20)
(1.07659 -0.164165 0)
(1.09477 -0.103682 5.41384e-21)
(0.112136 0.349934 1.27486e-19)
(0.544532 -0.462595 3.5786e-19)
(0.789154 -0.817624 9.2128e-20)
(0.925063 -0.779676 0)
(1.02385 -0.633453 1.07182e-19)
(1.06733 -0.454906 1.09735e-19)
(1.09092 -0.3275 -1.81224e-21)
(1.09742 -0.221404 -4.40922e-22)
(1.09991 -0.167568 -1.01667e-20)
(1.10511 -0.105768 1.94596e-21)
(0.323209 0.341596 1.1443e-18)
(0.854545 -0.494259 -2.65893e-19)
(1.06867 -0.857635 -4.77778e-20)
(1.12276 -0.812976 3.30418e-19)
(1.14828 -0.654904 -1.90057e-19)
(1.14745 -0.467417 5.74866e-20)
(1.14473 -0.332662 1.09944e-19)
(1.1316 -0.22292 -9.33022e-20)
(1.12328 -0.167842 6.85067e-23)
(1.11561 -0.106092 -1.26698e-20)
(0.479601 0.321134 6.14598e-20)
(1.14118 -0.519248 -3.79995e-20)
(1.32934 -0.880029 -1.31648e-19)
(1.31009 -0.830369 -1.10157e-20)
(1.26822 -0.663678 -1.79586e-19)
(1.22253 -0.471877 -1.07126e-20)
(1.19335 -0.332855 -4.61092e-20)
(1.16245 -0.22109 6.52457e-22)
(1.14517 -0.165346 1.25956e-20)
(1.12563 -0.104749 -9.09326e-22)
(0.589264 0.270781 -6.20021e-19)
(1.40374 -0.540493 -7.24573e-20)
(1.56573 -0.885926 0)
(1.48066 -0.833498 9.66591e-20)
(1.38054 -0.661878 1.53819e-19)
(1.29321 -0.469112 -1.14059e-20)
(1.23741 -0.328497 -1.54029e-19)
(1.1894 -0.216412 3.95386e-20)
(1.1645 -0.160521 -6.40894e-22)
(1.13455 -0.101932 -6.73748e-21)
(0.726991 0.162989 7.05244e-19)
(1.65071 -0.561356 2.49697e-19)
(1.77392 -0.875932 8.42514e-20)
(1.63142 -0.823359 -6.25144e-20)
(1.48306 -0.651194 8.93014e-21)
(1.35978 -0.460237 -1.57774e-19)
(1.2783 -0.320173 5.35489e-20)
(1.21311 -0.209374 -2.15175e-22)
(1.18094 -0.153861 -3.26929e-22)
(1.14194 -0.0978938 8.83536e-21)
(0.954351 0.0287725 -4.44958e-19)
(1.88213 -0.578589 2.98519e-19)
(1.9513 -0.852754 1.56134e-19)
(1.76139 -0.802531 -2.34981e-19)
(1.57472 -0.632883 -1.67697e-19)
(1.42187 -0.445919 -8.71074e-20)
(1.31702 -0.308238 -2.86712e-20)
(1.2348 -0.200323 0)
(1.19489 -0.145849 -1.83896e-20)
(1.14774 -0.0929028 1.3091e-20)
(1.67681 -0.129191 -7.2483e-19)
(2.22241 -0.598686 -6.28889e-19)
(2.16524 -0.810744 -1.76571e-20)
(1.91503 -0.761096 4.07888e-20)
(1.68194 -0.597094 4.10254e-20)
(1.4947 -0.417544 -6.63041e-20)
(1.36287 -0.285086 -4.70852e-20)
(1.26025 -0.183934 2.56527e-20)
(1.20994 -0.132896 -9.69432e-21)
(1.15356 -0.0854518 -6.6309e-21)
(2.31959 -0.223343 6.65516e-20)
(2.50963 -0.622376 -1.20112e-18)
(2.26348 -0.762319 -5.59266e-19)
(1.93695 -0.669619 1.13943e-20)
(1.69367 -0.496988 1.32431e-19)
(1.51289 -0.335084 1.56545e-19)
(1.38431 -0.225508 1.15182e-19)
(1.27618 -0.145881 -1.32979e-20)
(1.22144 -0.107971 3.95591e-20)
(1.15749 -0.0725279 5.25371e-21)
(2.48647 -0.266171 1.26085e-20)
(2.45836 -0.538019 -4.95851e-21)
(2.22729 -0.636954 4.54303e-20)
(1.98432 -0.570922 1.84652e-35)
(1.77432 -0.431182 -3.00132e-20)
(1.58289 -0.288907 -4.76189e-34)
(1.43381 -0.188101 1.26157e-20)
(1.30582 -0.117485 2.64749e-34)
(1.23943 -0.0858869 -9.17812e-22)
(1.16378 -0.0596731 1.63435e-21)
(2.4579 -0.265406 -1.6995e-34)
(2.40782 -0.472087 3.81822e-19)
(2.23793 -0.576286 1.96251e-19)
(2.00574 -0.508967 0)
(1.7759 -0.35365 -8.42761e-20)
(1.569 -0.211931 -8.61336e-20)
(1.41918 -0.126316 -6.91343e-20)
(1.2961 -0.0753788 8.98576e-34)
(1.23574 -0.0565325 -2.04607e-20)
(1.16136 -0.0436264 -2.35105e-21)
(2.41257 -0.264377 8.29909e-21)
(2.36232 -0.423281 2.46533e-21)
(2.21412 -0.497875 0)
(2.00023 -0.421036 0)
(1.78028 -0.273141 0)
(1.5708 -0.147528 0)
(1.41568 -0.0787283 4.08822e-21)
(1.28954 -0.0431255 1.05309e-33)
(1.22965 -0.032818 -1.51587e-21)
(1.15583 -0.0294887 -3.45475e-34)
(2.36945 -0.258018 6.73335e-20)
(2.32101 -0.376598 0)
(2.17432 -0.432257 0)
(1.93942 -0.348209 0)
(1.70249 -0.197942 0)
(1.49619 -0.0793845 0)
(1.35601 -0.0250103 -8.85997e-21)
(1.24688 -0.00691634 3.13162e-20)
(1.19951 -0.00768738 -1.80746e-21)
(1.13613 -0.0149277 -3.63089e-22)
(2.31826 -0.24527 0)
(2.24155 -0.332762 1.07228e-19)
(2.03408 -0.354653 5.22943e-20)
(1.75327 -0.255227 0)
(1.51016 -0.114102 -5.69897e-20)
(1.32975 -0.0173358 -4.74133e-20)
(1.22694 0.0160968 -3.83396e-20)
(1.15377 0.0183318 -1.49017e-20)
(1.12953 0.0099413 1.07832e-20)
(1.08607 -0.00365813 -4.73966e-21)
(2.16664 -0.216344 -2.15267e-21)
(1.99356 -0.262781 5.15823e-22)
(1.67766 -0.245795 -4.67834e-21)
(1.35222 -0.149409 -9.38795e-36)
(1.13762 -0.0398939 1.43426e-20)
(1.02631 0.0249199 -2.49709e-34)
(0.991744 0.0388863 -1.0596e-20)
(0.973984 0.0302767 -2.04055e-20)
(0.981032 0.0179907 -2.02999e-21)
(0.964916 0.00280916 3.92235e-21)
(1.66522 -0.156542 2.03477e-20)
(1.3636 -0.153984 -2.16347e-20)
(0.983089 -0.105761 -4.9933e-21)
(0.701656 -0.040512 0)
(0.588861 0.0101141 6.27472e-21)
(0.584812 0.0349613 7.05953e-21)
(0.627278 0.0350057 -3.18406e-21)
(0.663142 0.024432 4.81789e-21)
(0.695936 0.0145259 -6.90296e-21)
(0.704298 0.0039487 -3.56196e-21)
(0.564663 -0.024323 0)
(0.340673 -0.00648637 0)
(0.164058 4.86448e-05 0)
(0.0713217 0.00121634 0)
(0.0612759 0.00391724 0)
(0.105345 0.00660997 0)
(0.163583 0.00601356 -1.0704e-20)
(0.208847 0.00385464 3.31113e-35)
(0.240084 0.00219024 -2.31331e-21)
(0.254996 0.00056726 -4.11969e-21)
(2.51114 0.217246 8.22347e-19)
(2.54833 0.146084 5.03656e-20)
(2.5655 0.0725691 -8.25068e-20)
(2.58044 0.017482 -2.64451e-19)
(2.58844 -0.0500741 -4.91146e-20)
(2.55392 -0.0786175 -7.5175e-20)
(2.55917 -0.147889 -2.42251e-19)
(2.35597 -0.126634 1.36989e-20)
(2.3172 -0.193642 0)
(1.67501 -0.0711423 1.04672e-20)
(2.43895 0.174843 2.62797e-19)
(2.4301 0.134498 -3.01932e-19)
(2.51664 0.0550372 -6.42358e-20)
(2.46575 0.0287165 -1.29759e-19)
(2.58203 -0.0530851 1.07399e-19)
(2.47182 -0.0646025 1.8626e-19)
(2.62845 -0.147245 -2.40105e-19)
(2.4359 -0.154367 -6.95475e-21)
(2.58977 -0.219351 -2.37714e-20)
(2.29262 -0.232494 8.15612e-20)
(2.38524 0.142136 -1.19268e-19)
(2.34905 0.112362 2.70422e-19)
(2.45883 0.0428414 1.65986e-19)
(2.38823 0.0190194 -2.78866e-19)
(2.51317 -0.0472155 -4.61312e-20)
(2.41667 -0.0719638 3.94316e-19)
(2.54349 -0.127053 7.18733e-20)
(2.44463 -0.163761 -7.95033e-20)
(2.53821 -0.195813 -4.62731e-20)
(2.46064 -0.249274 -5.25678e-20)
(2.32376 0.113062 -3.06068e-19)
(2.31083 0.0807489 -4.85094e-20)
(2.38696 0.0315513 2.63731e-20)
(2.35787 -0.00125823 -1.44625e-20)
(2.42742 -0.0441394 -2.34467e-19)
(2.39537 -0.0819703 -9.0224e-20)
(2.44728 -0.113689 2.26198e-19)
(2.42938 -0.159607 -1.26385e-20)
(2.45515 -0.178533 4.53653e-20)
(2.45859 -0.230726 1.96444e-20)
(2.26886 0.0835369 4.42221e-20)
(2.28569 0.0498467 1.33636e-19)
(2.32687 0.0156334 -2.52074e-20)
(2.33577 -0.0198521 1.98344e-19)
(2.36502 -0.0494998 -5.612e-20)
(2.37237 -0.0877533 -2.45797e-19)
(2.38757 -0.111606 3.87877e-20)
(2.39884 -0.152135 -9.17419e-20)
(2.40228 -0.171508 8.46759e-21)
(2.41815 -0.212895 -7.9821e-21)
(2.22746 0.0514534 -1.69161e-19)
(2.2573 0.0210834 -7.60678e-20)
(2.28351 -0.00485684 -2.1377e-21)
(2.30677 -0.0364836 1.18406e-19)
(2.32292 -0.0602356 2.72071e-19)
(2.34171 -0.09304 -7.27619e-20)
(2.3487 -0.11473 6.68123e-21)
(2.3649 -0.148155 -7.23095e-20)
(2.36487 -0.168609 -1.05406e-19)
(2.37984 -0.202234 -4.44525e-20)
(2.18145 0.0194122 -5.85775e-20)
(2.21255 -0.00529639 -1.29923e-19)
(2.23403 -0.0256907 -1.47236e-19)
(2.2596 -0.0513716 -2.74249e-19)
(2.27301 -0.0710004 6.69662e-20)
(2.29443 -0.0979407 6.51033e-20)
(2.30033 -0.117185 7.46969e-21)
(2.31945 -0.145404 8.15215e-20)
(2.31815 -0.164397 -9.83607e-20)
(2.33751 -0.193789 -5.25812e-20)
(2.0731 -0.00884717 6.2696e-20)
(2.10034 -0.0268029 3.82088e-20)
(2.11332 -0.0413479 2.0448e-20)
(2.13858 -0.0603075 -4.23783e-20)
(2.14396 -0.0746058 -4.0546e-20)
(2.16961 -0.0952535 -3.5526e-20)
(2.16694 -0.109837 -5.05996e-20)
(2.19572 -0.132686 9.26313e-20)
(2.18374 -0.147711 -4.48829e-20)
(2.2191 -0.172817 2.86639e-20)
(1.74991 -0.0287864 -6.22967e-20)
(1.75986 -0.0383582 -6.69821e-21)
(1.75631 -0.0460547 1.17463e-19)
(1.76775 -0.0560737 -1.16579e-20)
(1.75736 -0.0636304 -3.35507e-20)
(1.77383 -0.07519 7.01205e-20)
(1.75419 -0.0832226 -5.07903e-20)
(1.77968 -0.0972567 3.63914e-20)
(1.74658 -0.106263 -6.8185e-21)
(1.78683 -0.123313 -5.73108e-20)
(0.874095 -0.0136512 5.05289e-20)
(0.857438 -0.0132915 4.14077e-20)
(0.839092 -0.0130197 4.07334e-20)
(0.823699 -0.0130451 6.59458e-20)
(0.80469 -0.0135268 -3.36305e-20)
(0.791672 -0.0143746 -4.10605e-20)
(0.769357 -0.01584 1.81896e-20)
(0.760716 -0.0180404 -2.8286e-21)
(0.726734 -0.0194852 4.26639e-21)
(0.733692 -0.0274252 -6.15733e-21)
(1.57862 0.963282 -8.70283e-20)
(1.56207 1.00954 2.73083e-20)
(1.56563 1.06363 -6.51957e-19)
(1.5744 1.1252 2.39599e-19)
(1.58107 1.19019 1.22015e-18)
(1.57704 1.25061 -1.49785e-19)
(1.54035 1.28411 -1.0829e-18)
(1.42044 1.23839 -2.26277e-21)
(1.12721 1.01641 -5.34155e-19)
(0.529586 0.489773 1.20133e-19)
(1.74448 0.932876 0)
(1.73288 0.977565 7.54339e-19)
(1.73269 1.02767 1.66975e-18)
(1.74099 1.0866 -1.02818e-18)
(1.75098 1.15003 -2.39968e-18)
(1.75036 1.20843 -1.57363e-19)
(1.71187 1.23824 -2.01685e-19)
(1.57725 1.1878 7.36626e-19)
(1.24615 0.966009 1.10721e-18)
(0.579973 0.458262 4.37455e-19)
(1.89829 0.891151 6.97789e-20)
(1.89562 0.935667 0)
(1.89663 0.98287 -6.9116e-20)
(1.90548 1.03732 1.04828e-18)
(1.9175 1.09601 5.71724e-20)
(1.91825 1.14913 -2.34353e-18)
(1.8754 1.17251 1.48162e-18)
(1.72309 1.11662 8.77073e-19)
(1.35253 0.897994 -9.49445e-19)
(0.621382 0.417462 -2.80388e-19)
(2.03295 0.842232 -1.913e-19)
(2.04052 0.884602 -1.40456e-19)
(2.04708 0.927998 2.87533e-19)
(2.05894 0.976795 -3.56378e-19)
(2.07304 1.02882 -1.64868e-18)
(2.07349 1.07434 -1.279e-18)
(2.02333 1.08955 1.34521e-18)
(1.85038 1.02634 8.90595e-19)
(1.43789 0.812446 0)
(0.649098 0.367666 0)
(2.15184 0.77592 -9.47298e-19)
(2.16788 0.816038 -1.73284e-18)
(2.18114 0.856057 -6.66141e-19)
(2.19711 0.899697 -3.47124e-20)
(2.21291 0.945226 0)
(2.21132 0.982493 1.40045e-19)
(2.15056 0.987111 1.61774e-19)
(1.95119 0.918249 2.01902e-19)
(1.4949 0.712634 -2.89574e-19)
(0.659513 0.309719 -7.25116e-20)
(2.25609 0.701634 1.13197e-18)
(2.27904 0.73723 -4.27808e-20)
(2.29824 0.772514 -1.32506e-18)
(2.3179 0.810016 0)
(2.3343 0.847021 0)
(2.32715 0.874567 0)
(2.24954 0.870003 1.52002e-18)
(2.01786 0.795314 -1.67863e-18)
(1.51875 0.599422 -1.06382e-18)
(0.649693 0.246348 1.54429e-20)
(2.34682 0.614289 -1.47398e-18)
(2.37464 0.64561 -3.09275e-18)
(2.39819 0.676338 -5.36224e-21)
(2.41986 0.707908 6.24798e-19)
(2.43374 0.737128 -3.85655e-20)
(2.41587 0.754615 1.31788e-18)
(2.31508 0.739889 -7.27736e-19)
(2.04599 0.660184 -1.93216e-18)
(1.50437 0.47766 1.09919e-19)
(0.618361 0.18164 8.45155e-20)
(2.42552 0.523621 -1.15074e-18)
(2.45516 0.549241 1.62634e-20)
(2.4802 0.574367 4.338e-19)
(2.50095 0.599109 -4.18717e-19)
(2.50818 0.619743 6.49894e-19)
(2.47364 0.626681 1.72968e-18)
(2.34196 0.601653 -1.55364e-19)
(2.02931 0.518576 -1.01559e-18)
(1.44753 0.354091 2.31314e-19)
(0.565827 0.120142 4.2197e-20)
(2.48955 0.427728 4.20985e-19)
(2.51941 0.449054 8.38616e-20)
(2.54343 0.468708 -4.32922e-19)
(2.55963 0.486434 -1.01181e-18)
(2.55472 0.498201 7.2135e-20)
(2.49558 0.494757 5.65374e-20)
(2.32394 0.460671 -1.2545e-18)
(1.96208 0.377281 5.32543e-19)
(1.34633 0.236067 1.53662e-19)
(0.494456 0.0663389 -6.5324e-20)
(2.53981 0.334738 7.83455e-19)
(2.56689 0.350986 -1.1665e-18)
(2.58673 0.364481 1.74794e-19)
(2.59353 0.37476 2.30341e-18)
(2.56901 0.377532 1.12126e-18)
(2.47536 0.364409 -2.41723e-18)
(2.25407 0.323485 -2.23871e-18)
(1.83968 0.244001 9.48273e-19)
(1.20181 0.13127 -3.60646e-20)
(0.408796 0.0240127 -9.28316e-20)
(0.541402 0.408158 -1.56728e-19)
(0.500928 0.422118 -1.59997e-19)
(0.455419 0.43699 6.85299e-20)
(0.405494 0.452929 -2.24654e-19)
(0.350824 0.469792 -1.70847e-20)
(0.290566 0.486113 2.08761e-19)
(0.22375 0.495865 3.04953e-20)
(0.150832 0.481791 8.19305e-21)
(0.0788431 0.406503 2.24368e-20)
(0.0162271 0.207558 1.23756e-20)
(0.586802 0.514528 1.26992e-19)
(0.547303 0.535097 1.61071e-19)
(0.503617 0.557161 4.81764e-20)
(0.455927 0.580882 -4.5548e-20)
(0.403581 0.606004 -2.08678e-19)
(0.345459 0.630527 -1.91879e-20)
(0.279872 0.646505 4.46514e-20)
(0.20537 0.631195 4.3566e-20)
(0.125155 0.534832 -1.30222e-19)
(0.0401503 0.274243 -4.51112e-20)
(0.649811 0.613334 -1.00702e-19)
(0.611588 0.639653 -8.64882e-20)
(0.57028 0.66795 9.1204e-20)
(0.525614 0.698705 6.06809e-20)
(0.476652 0.731777 -8.13139e-20)
(0.42195 0.764705 -1.34853e-20)
(0.358735 0.78755 -1.12532e-19)
(0.282661 0.771955 -8.93044e-20)
(0.191023 0.655904 -7.2657e-20)
(0.0742104 0.336736 7.27349e-23)
(0.730088 0.708458 2.50207e-20)
(0.693714 0.741143 -5.95915e-20)
(0.655711 0.775663 -7.62193e-20)
(0.61483 0.812722 -7.06641e-20)
(0.569716 0.852328 -6.57456e-20)
(0.518738 0.891706 -9.17323e-21)
(0.458071 0.919144 -2.97277e-19)
(0.379886 0.901276 6.70109e-20)
(0.273768 0.765475 -3.33355e-19)
(0.116935 0.392404 4.95853e-20)
(0.823157 0.787211 1.2721e-20)
(0.789356 0.824864 1.72973e-20)
(0.755971 0.864904 -5.08499e-20)
(0.720869 0.908387 -2.81162e-19)
(0.681894 0.95508 1.30095e-19)
(0.636608 1.00152 4.88669e-20)
(0.579557 1.03424 3.56699e-20)
(0.498665 1.01515 -1.94346e-19)
(0.374182 0.861788 4.01237e-19)
(0.168189 0.440496 2.9114e-19)
(0.932569 0.865065 -1.0425e-19)
(0.900326 0.907131 -1.9834e-19)
(0.870135 0.950411 1.02263e-20)
(0.839318 0.997403 1.02565e-19)
(0.805695 1.04846 3.83371e-19)
(0.766307 1.09945 2.84791e-19)
(0.713536 1.13469 6.75673e-19)
(0.630022 1.11176 2.76659e-19)
(0.485379 0.940662 1.48542e-19)
(0.224806 0.478184 2.10257e-19)
(1.0478 0.916495 -1.10819e-19)
(1.02179 0.963379 6.45091e-19)
(0.999523 1.0112 4.2192e-19)
(0.976377 1.0625 -5.45454e-19)
(0.949586 1.11787 -2.72263e-19)
(0.916102 1.17313 7.0214e-19)
(0.866707 1.21117 -1.09128e-19)
(0.778494 1.18565 -4.76321e-19)
(0.609284 1.00007 2.94932e-20)
(0.286539 0.504918 2.63056e-19)
(1.16975 0.969186 3.18497e-19)
(1.1437 1.01641 6.04967e-20)
(1.12616 1.06457 -8.00644e-19)
(1.11119 1.11774 1.77224e-19)
(1.094 1.1756 6.16046e-19)
(1.06942 1.23258 -3.37049e-19)
(1.02531 1.26989 -1.06669e-19)
(0.932634 1.23856 -1.9538e-19)
(0.73728 1.03858 1.97734e-20)
(0.349448 0.519398 -3.05382e-19)
(1.30146 0.98638 1.86539e-20)
(1.2861 1.03735 -5.86862e-19)
(1.27584 1.08639 -4.95875e-21)
(1.26634 1.14057 5.01261e-19)
(1.25492 1.20089 -5.20834e-19)
(1.23632 1.26069 1.01759e-18)
(1.19518 1.29883 6.8264e-19)
(1.09522 1.26365 -1.00544e-18)
(0.869709 1.05352 -7.99257e-20)
(0.412588 0.521245 -3.38211e-19)
(1.40439 0.995644 -3.55345e-19)
(1.40098 1.04767 -3.33944e-19)
(1.40853 1.09853 3.09566e-19)
(1.41415 1.15342 8.21169e-19)
(1.41437 1.21305 2.93491e-19)
(1.40441 1.27118 -8.43087e-19)
(1.36678 1.30596 1.10216e-19)
(1.25839 1.2646 2.28374e-19)
(1.00051 1.0463 -3.0738e-19)
(0.473185 0.511218 -2.39808e-19)
(0.994033 0.013166 6.84272e-22)
(1.01162 0.0419759 -1.83401e-20)
(1.02329 0.0516889 -1.45082e-20)
(1.02244 0.0770458 0)
(1.02478 0.0943962 1.76225e-20)
(1.02106 0.125889 2.5425e-20)
(0.998065 0.169239 3.43443e-20)
(0.95459 0.205589 7.65018e-20)
(0.869493 0.270359 -1.16492e-19)
(0.717892 0.338498 -1.75631e-19)
(0.994676 0.0112553 3.79571e-20)
(1.00966 0.0397027 -5.93294e-20)
(1.02281 0.0500819 1.98566e-22)
(1.02052 0.0763425 -1.82635e-20)
(1.02509 0.0948126 8.84278e-21)
(1.02225 0.130313 -1.30162e-20)
(1.00204 0.178656 -7.99304e-20)
(0.965961 0.225004 0)
(0.88382 0.307699 2.42286e-19)
(0.756304 0.408236 -2.61367e-19)
(0.994987 0.00957373 -2.7553e-20)
(1.00855 0.0376364 1.64301e-20)
(1.02238 0.0483309 3.84508e-20)
(1.02043 0.0760243 9.62601e-21)
(1.02574 0.0947241 -2.14074e-20)
(1.02628 0.135279 1.12583e-21)
(1.00662 0.187129 -5.56487e-20)
(0.981911 0.244302 -6.0146e-21)
(0.900948 0.343322 8.52356e-23)
(0.808847 0.475103 7.2648e-19)
(0.99502 0.00803564 -3.08043e-20)
(1.00811 0.0357771 2.31731e-21)
(1.02212 0.0462974 3.1428e-20)
(1.02191 0.076129 2.05139e-20)
(1.0269 0.0939809 -1.07521e-20)
(1.0328 0.140948 -1.52935e-20)
(1.01201 0.194373 8.07795e-20)
(1.00228 0.264057 -1.78741e-21)
(0.920537 0.376042 -2.67709e-19)
(0.87532 0.537722 9.1152e-20)
(0.994842 0.00657598 2.14187e-20)
(1.00815 0.034084 -3.06115e-20)
(1.02228 0.0439007 -2.51593e-20)
(1.02458 0.0766425 1.22062e-20)
(1.02893 0.0925167 0)
(1.04123 0.147302 0)
(1.01897 0.200287 6.81973e-20)
(1.02559 0.284272 4.46341e-22)
(0.945127 0.405698 -1.22267e-19)
(0.951576 0.594224 9.27857e-20)
(0.994524 0.00514699 6.02721e-21)
(1.00846 0.0324673 2.46698e-20)
(1.02315 0.0411163 -6.84492e-20)
(1.02803 0.0774634 -2.36509e-20)
(1.03217 0.0903539 -5.82553e-22)
(1.05114 0.15429 6.47955e-20)
(1.02766 0.20466 1.05101e-19)
(1.0524 0.305527 -6.84934e-22)
(0.971276 0.430063 2.02949e-19)
(1.04466 0.650796 -2.18817e-19)
(0.994115 0.00373055 -2.3258e-20)
(1.0089 0.0307939 1.30705e-20)
(1.02499 0.0379786 -1.8721e-20)
(1.03185 0.0783999 -5.05639e-20)
(1.0371 0.0876236 1.84159e-21)
(1.06174 0.161673 -1.58287e-21)
(1.03947 0.207746 -5.80192e-21)
(1.07949 0.327014 -2.22955e-19)
(1.00811 0.450146 1.49164e-19)
(1.13141 0.69105 -5.42482e-19)
(0.99363 0.00232201 -3.93609e-21)
(1.00942 0.028908 -3.78064e-20)
(1.02794 0.0345619 3.78664e-20)
(1.03577 0.0792428 2.69649e-20)
(1.04399 0.0845059 9.57281e-22)
(1.07276 0.169042 -7.52627e-20)
(1.05423 0.209957 -5.85668e-20)
(1.10913 0.348862 3.98007e-19)
(1.04411 0.467186 1.50674e-20)
(1.24945 0.748871 8.50651e-19)
(0.993065 0.000929621 1.59978e-20)
(1.01006 0.0266627 1.72673e-20)
(1.03198 0.0309727 4.42514e-20)
(1.03977 0.0798656 -2.97439e-20)
(1.05287 0.0810788 -7.82116e-20)
(1.08376 0.176493 1.14358e-21)
(1.07314 0.209406 -8.06422e-20)
(1.13849 0.368663 5.15522e-19)
(1.10066 0.466628 -9.17716e-21)
(1.31917 0.765053 -1.18097e-18)
(0.99243 -0.000376561 3.75378e-22)
(1.0109 0.0239609 2.70524e-20)
(1.03692 0.0275537 1.46207e-20)
(1.04413 0.0798436 -5.97552e-20)
(1.06253 0.0794748 -7.64643e-20)
(1.09415 0.183937 -6.36415e-20)
(1.09297 0.2168 -1.48073e-19)
(1.16414 0.391235 -4.63692e-19)
(1.15917 0.493781 -2.5069e-19)
(1.45812 0.834038 -1.23816e-18)
(0.991746 -0.00259288 -1.17247e-21)
(1.01152 0.0198133 -5.97545e-21)
(1.04431 0.0207216 -1.65832e-20)
(1.05039 0.078735 3.31704e-20)
(1.07491 0.0695041 5.76932e-20)
(1.11444 0.187856 -4.17309e-20)
(1.1144 0.199996 1.42113e-19)
(1.21004 0.400044 -4.28405e-19)
(1.22197 0.431605 -1.91573e-19)
(1.47303 0.824395 6.51157e-19)
(0.991637 -0.00597785 1.66587e-21)
(1.01195 0.0132707 1.19082e-20)
(1.0558 0.00969031 -1.12744e-20)
(1.0549 0.0752293 6.10717e-20)
(1.09578 0.0513793 9.85478e-20)
(1.13234 0.184544 1.22958e-19)
(1.15187 0.17313 3.23046e-20)
(1.23771 0.384084 2.02622e-19)
(1.32217 0.379071 3.112e-19)
(1.49423 0.722511 2.75458e-20)
(0.990911 -0.00948154 -1.53721e-21)
(1.01469 0.00447068 -4.01428e-21)
(1.06845 -0.000972049 3.80637e-21)
(1.05842 0.0689078 4.44849e-21)
(1.12381 0.032898 3.00173e-34)
(1.14207 0.177216 -7.21827e-21)
(1.19554 0.14665 -5.21389e-34)
(1.25503 0.355805 1.91333e-20)
(1.39569 0.32242 -5.7457e-20)
(1.53293 0.631098 -5.76138e-20)
(0.988465 -0.013905 1.43694e-20)
(1.02245 -0.00679826 -4.53938e-35)
(1.07782 -0.0110374 -4.33324e-21)
(1.069 0.0577056 -2.62615e-20)
(1.14998 0.0165115 -4.92012e-20)
(1.15237 0.16644 -4.11732e-20)
(1.23033 0.120954 -6.61996e-34)
(1.27793 0.322966 -7.79803e-20)
(1.4319 0.266766 -1.44198e-19)
(1.57496 0.537375 9.68532e-20)
(0.984105 -0.0199826 0)
(1.03619 -0.019864 3.48786e-35)
(1.08242 -0.02112 0)
(1.09284 0.0403621 0)
(1.16763 0.00318472 0)
(1.17151 0.149762 0)
(1.25202 0.0980752 -4.5775e-34)
(1.30777 0.282742 0)
(1.44972 0.217501 -2.0413e-20)
(1.60991 0.439506 5.73893e-20)
(0.978128 -0.0279495 2.77803e-21)
(1.05497 -0.0330221 3.34668e-21)
(1.0856 -0.031525 -5.41338e-21)
(1.12709 0.0206886 0)
(1.17698 -0.00413953 0)
(1.19683 0.128749 6.2582e-21)
(1.26827 0.0794315 4.19214e-20)
(1.33767 0.236426 -1.36997e-20)
(1.46796 0.17372 -2.9805e-20)
(1.62729 0.347926 2.21588e-19)
(0.971674 -0.042624 -7.97794e-20)
(1.07839 -0.0524005 1.11847e-21)
(1.0903 -0.0487953 -6.02663e-21)
(1.16005 -0.0059237 -1.63621e-20)
(1.16981 -0.0107516 -2.9745e-20)
(1.21372 0.100554 -1.16609e-20)
(1.2733 0.0616253 -3.46059e-20)
(1.35718 0.18604 -3.13393e-20)
(1.47758 0.13473 -5.56268e-20)
(1.6309 0.264457 6.68658e-20)
(0.966706 -0.0499269 -5.97043e-21)
(1.09919 -0.0602468 -1.82647e-20)
(1.07917 -0.0545688 -6.65386e-21)
(1.15359 -0.0204534 -5.15989e-21)
(1.10494 -0.00780989 -4.94439e-35)
(1.19133 0.0711462 6.51776e-21)
(1.21869 0.0456254 -8.72034e-34)
(1.34206 0.134316 -1.32811e-20)
(1.43648 0.0981454 1.84841e-20)
(1.61983 0.184365 2.62834e-20)
(0.96098 -0.0913044 1.96229e-19)
(1.0569 -0.0899972 -4.83293e-21)
(0.966807 -0.0736552 -7.16502e-21)
(0.989683 -0.0338163 1.40446e-20)
(0.888476 -0.00699373 1.64277e-20)
(1.01756 0.0371042 1.40467e-20)
(0.999256 0.0293438 1.49253e-20)
(1.18433 0.0795095 -8.90953e-21)
(1.24223 0.0615306 -2.08897e-20)
(1.4889 0.103987 1.44136e-19)
(0.8287 -0.0461437 8.43519e-21)
(0.73175 -0.0340147 -9.42298e-35)
(0.535384 -0.0178694 -8.33608e-21)
(0.475759 -0.0024208 0)
(0.409191 0.000782669 0)
(0.493151 0.00942703 6.43051e-21)
(0.492064 0.00545595 -5.5808e-36)
(0.63317 0.0175828 -1.28205e-20)
(0.693721 0.0099843 -2.70121e-20)
(0.881158 0.0179642 5.67634e-20)
(1.68229 0.846839 -1.96345e-19)
(1.78335 0.82816 -2.88908e-19)
(1.90154 0.791764 0)
(2.0099 0.748231 1.60509e-19)
(2.11221 0.685857 6.80874e-19)
(2.20199 0.620724 -1.1975e-19)
(2.28371 0.541514 1.74962e-18)
(2.35733 0.464336 -8.58597e-20)
(2.41783 0.378569 -3.83436e-19)
(2.47425 0.299186 3.39042e-19)
(1.70701 0.695106 1.01436e-19)
(1.78174 0.679676 1.15029e-19)
(1.8813 0.64352 -1.461e-20)
(1.96507 0.60547 2.23858e-19)
(2.06256 0.546793 -1.82939e-19)
(2.12716 0.497664 -4.25116e-19)
(2.21418 0.428037 -1.29177e-19)
(2.25916 0.376562 5.80811e-19)
(2.33954 0.301559 -2.25376e-20)
(2.36165 0.252724 -4.97165e-19)
(1.73918 0.578828 9.85967e-20)
(1.80698 0.557202 1.8579e-19)