/*--------------------------------*- C++ -*----------------------------------*\
  =========                 |
  \\      /  F ield         | OpenFOAM: The Open Source CFD Toolbox
   \\    /   O peration     | Website:  https://openfoam.org
    \\  /    A nd           | Version:  13
     \\/     M anipulation  |
\*---------------------------------------------------------------------------*/
FoamFile
{
    format      ascii;
    class       surfaceScalarField;
    location    "0.3575";
    object      phi;
}
// * * * * * * * * * * * * * * * * * * * * * * * * * * * * * * * * * * * * * //

dimensions      [0 3 -1 0 0 0 0];

internalField   nonuniform List<scalar> 
3485
(
0.00466599
-0.0566041
0.0519381
0.0135449
-0.119318
0.110439
0.02343
-0.137972
0.128087
0.033311
-0.141254
0.131373
0.0429405
-0.140161
0.130532
0.0522677
-0.137567
0.12824
0.0612983
-0.134401
0.12537
0.0700521
-0.13111
0.122356
0.078482
-0.127847
0.119417
-0.124176
0.11617
0.0864878
0.00458193
-0.061186
0.0130499
-0.127786
0.0223659
-0.147288
0.0316206
-0.150509
0.0406186
-0.149159
0.0493515
-0.1463
0.05786
-0.142909
0.0661913
-0.139441
0.0744025
-0.136058
-0.132614
0.0828408
0.00446168
-0.0656477
0.012438
-0.135763
0.0210782
-0.155929
0.0295815
-0.159012
0.0377956
-0.157373
0.0457333
-0.154238
0.053443
-0.150619
0.0609721
-0.14697
0.0683691
-0.143456
-0.139927
0.0756823
0.0043014
-0.0699491
0.0117032
-0.143164
0.0195734
-0.163799
0.0272387
-0.166677
0.0345998
-0.164734
0.0416998
-0.161338
0.0486038
-0.157523
0.0553661
-0.153732
0.0620275
-0.150117
-0.146593
0.0686931
0.00408323
-0.0740323
0.0108047
-0.149886
0.0177853
-0.170779
0.0244944
-0.173387
0.0308835
-0.171123
0.0370202
-0.167475
0.0429793
-0.163482
0.0488155
-0.159568
0.0545717
-0.155873
-0.152347
0.0603255
0.00380766
-0.07784
0.0097487
-0.155827
0.015741
-0.176772
0.0214108
-0.179056
0.0267583
-0.176471
0.0318767
-0.172593
0.0368473
-0.168453
0.0417246
-0.164446
0.0465479
-0.160697
-0.157182
0.0513827
0.00345905
-0.0812991
0.00850749
-0.160875
0.0134085
-0.181673
0.0179477
-0.183596
0.022168
-0.180691
0.0261854
-0.17661
0.0300829
-0.17235
0.0339134
-0.168276
0.0377112
-0.164494
-0.160996
0.0415253
0.00303827
-0.0843373
0.00709149
-0.164928
0.0108253
-0.185407
0.0141665
-0.186937
0.0172012
-0.183726
0.0200656
-0.179475
0.0228402
-0.175125
0.0255699
-0.171006
0.0282835
-0.167208
-0.163726
0.0310143
0.00254339
-0.0868807
0.00550894
-0.167894
0.00802213
-0.18792
0.0100958
-0.18901
0.0119003
-0.18553
0.0135716
-0.181146
0.0151812
-0.176735
0.0167652
-0.17259
0.0183449
-0.168788
-0.165322
0.0199401
0.00198107
-0.0888618
0.00379862
-0.169712
0.00504253
-0.189164
0.0057984
-0.189766
0.00636524
-0.186097
0.00682542
-0.181606
0.00724305
-0.177152
0.00765517
-0.173002
0.00807317
-0.169206
0.0085024
-0.165751
0.00470869
-0.0090862
0.00437751
0.0153116
-0.0197372
0.00913423
0.0278039
-0.0231286
0.0106363
0.040716
-0.0239068
0.0109947
0.0536105
-0.0238961
0.0110016
0.0663175
-0.0235732
0.0108661
0.078753
-0.0230967
0.0106613
0.0908806
-0.0225562
0.0104285
0.102692
-0.0220033
0.0101918
-0.0216046
0.114326
0.00997101
0.00471263
-0.0137988
0.0152699
-0.0302944
0.0276911
-0.0355498
0.0405221
-0.0367377
0.0533311
-0.0367051
0.0659518
-0.0361939
0.078303
-0.035448
0.0903514
-0.0346046
0.102092
-0.0337436
-0.0331731
0.11366
0.00472231
-0.0185211
0.0152202
-0.0407924
0.027546
-0.0478756
0.0402662
-0.049458
0.0529572
-0.0493961
0.0654572
-0.0486938
0.0776893
-0.0476801
0.0896236
-0.0465389
0.101259
-0.0453793
-0.0446423
0.112729
0.00473798
-0.0232591
0.0151594
-0.0512138
0.0273601
-0.0600763
0.0399338
-0.0620317
0.0524674
-0.0619297
0.0648055
-0.0610319
0.0768771
-0.0597518
0.088657
-0.0583188
0.10015
-0.0568725
-0.0559731
0.111481
0.00475869
-0.0280178
0.0150823
-0.0615374
0.0271219
-0.0721159
0.039506
-0.0744158
0.051835
-0.0742587
0.0639623
-0.0731593
0.0758249
-0.0716144
0.0874036
-0.0698974
0.0987103
-0.0681792
-0.0671175
0.109855
0.00478155
-0.0327994
0.01498
-0.0717359
0.0268151
-0.083951
0.0389574
-0.0865581
0.0510246
-0.0863259
0.062882
-0.0850166
0.0744767
-0.0832091
0.0857975
-0.0812182
0.0968636
-0.0792454
-0.0780117
0.107758
0.00480122
-0.0376006
0.0148401
-0.0817747
0.0264188
-0.0955298
0.0382573
-0.0983965
0.0499939
-0.0980625
0.0615088
-0.0965315
0.0727616
-0.0944619
0.0837502
-0.0922069
0.0944997
-0.0899949
-0.0885564
0.105044
0.00480784
-0.0424084
0.0146426
-0.0916094
0.0259045
-0.106792
0.0373689
-0.109861
0.0486981
-0.109392
0.059788
-0.107621
0.070612
-0.105286
0.0811765
-0.102771
0.0915078
-0.100326
-0.0985964
0.101548
0.00478938
-0.0471978
0.0143645
-0.101185
0.0252416
-0.117669
0.0362595
-0.120879
0.0471071
-0.120239
0.0576986
-0.118213
0.0680203
-0.115608
0.0780857
-0.112837
0.087913
-0.110153
-0.10792
0.0972366
0.00474031
0.0139952
0.0244136
0.0349077
0.0452002
0.0552275
0.0649902
0.0745091
0.083773
0.0920231
0.159194
-0.125554
0.0806864
0.182701
-0.0912439
0.0677369
0.194233
-0.0677728
0.0562402
0.199819
-0.0511913
0.0456053
0.202207
-0.0384622
0.0360748
0.202779
-0.0283319
0.0277597
0.20228
-0.0200985
0.0205971
0.201116
-0.0132363
0.014401
0.199515
-0.00747105
0.00907189
-0.00137629
0.00334758
0.158029
-0.169923
0.181656
-0.11487
0.193474
-0.0795908
0.199307
-0.0570246
0.201896
-0.0410513
0.202635
-0.0290707
0.20228
-0.0197435
0.201247
-0.0122031
0.199772
-0.00599641
0.000468285
0.156054
-0.213249
0.179705
-0.138521
0.191872
-0.0917573
0.198052
-0.0632049
0.200957
-0.0439566
0.201985
-0.030099
0.201901
-0.0196594
0.20113
-0.0114313
0.199914
-0.00478073
0.00205141
0.153255
-0.255023
0.176849
-0.162115
0.189425
-0.104334
0.196056
-0.0698353
0.199393
-0.0472941
0.200833
-0.0315387
0.201146
-0.0199728
0.200766
-0.0110512
0.199939
-0.00395394
0.00324124
0.149617
-0.294785
0.173095
-0.185593
0.186138
-0.117377
0.193325
-0.0770219
0.197211
-0.0511801
0.199183
-0.0335108
0.200018
-0.0208079
0.200155
-0.0111885
0.199847
-0.0036455
0.00390446
0.145123
-0.332151
0.168453
-0.208923
0.182019
-0.130943
0.18987
-0.084873
0.194421
-0.0557309
0.197045
-0.0361347
0.198522
-0.0222851
0.1993
-0.0119662
0.199636
-0.00398246
0.00391172
0.139752
-0.366858
0.162902
-0.232073
0.177073
-0.145114
0.185703
-0.0935031
0.191036
-0.0610641
0.19443
-0.0395277
0.196667
-0.0245225
0.198205
-0.0135042
0.199309
-0.00508697
0.00313743
0.133464
-0.398774
0.156386
-0.254995
0.1713
-0.160028
0.180834
-0.103038
0.187071
-0.0673011
0.191349
-0.043805
0.194462
-0.0276358
0.196877
-0.0159187
0.198865
-0.00707584
0.00145956
0.126039
-0.427577
0.148822
-0.277777
0.164647
-0.175853
0.175246
-0.113637
0.182527
-0.0745821
0.187813
-0.0490909
0.191916
-0.0317394
0.19532
-0.0193222
0.198307
-0.010063
-0.00123799
0.116156
-0.45171
0.138905
-0.300527
0.156299
-0.193247
0.168524
-0.125862
0.177216
-0.0832741
0.183749
-0.0556241
0.18901
-0.037001
0.193532
-0.0238439
0.197636
-0.0141665
-0.0050705
0.359882
-0.401704
-0.409888
0.332544
-0.273188
0.320636
-0.181338
0.31524
-0.120466
0.312464
-0.0804979
0.310786
-0.0539454
0.309656
-0.0358716
0.308889
-0.0230764
0.308406
-0.0136838
-0.00488587
0.373044
-0.34459
-0.430159
0.34324
-0.243384
0.328654
-0.166753
0.320862
-0.112674
0.316303
-0.0759388
0.313424
-0.0510664
0.311526
-0.0339739
0.310286
-0.0218364
0.309535
-0.0129322
-0.00460973
0.386196
-0.289802
-0.440984
0.3544
-0.211588
0.336624
-0.148977
0.326317
-0.102367
0.320006
-0.0696283
0.315967
-0.047027
0.313323
-0.0313299
0.311622
-0.0201361
0.310608
-0.0119176
-0.00424277
0.395413
-0.238228
-0.446987
0.363092
-0.179267
0.343316
-0.129201
0.331106
-0.0901564
0.323343
-0.0618655
0.31829
-0.0419742
0.314977
-0.0280166
0.312855
-0.0180142
0.311596
-0.0106587
-0.00379173
0.40201
-0.190412
-0.449827
0.369918
-0.147175
0.348872
-0.108155
0.335213
-0.0764974
0.326265
-0.0529177
0.320351
-0.0360605
0.316454
-0.0241198
0.313958
-0.0155173
0.312479
-0.00918007
-0.0032641
0.406644
-0.146248
-0.450808
0.375133
-0.115664
0.353333
-0.0863543
0.338611
-0.0617754
0.328728
-0.0430347
0.32211
-0.0294423
0.317721
-0.0197314
0.314907
-0.0127029
0.313241
-0.0075142
-0.00266985
0.409799
-0.105245
-0.450802
0.378977
-0.0848424
0.356765
-0.0641417
0.341296
-0.0463066
0.330706
-0.0324446
0.323535
-0.0222715
0.318754
-0.0149502
0.315682
-0.00963136
0.313863
-0.0056946
-0.0020203
0.41173
-0.0665874
-0.450388
0.381534
-0.0546466
0.359137
-0.0417439
0.343189
-0.0303594
0.332111
-0.0213661
0.324543
-0.014704
0.319476
-0.00988328
0.316214
-0.0063695
0.31428
-0.00375979
-0.00132913
0.410817
-0.028922
-0.448482
0.381164
-0.0249937
0.358893
-0.0194731
0.342828
-0.0142942
0.331564
-0.0101024
0.323828
-0.00696852
0.318634
-0.00468882
0.315287
-0.00302298
0.313303
-0.00177522
-0.00062105
0.368388
-0.39731
0.343394
0.323921
0.309627
0.299524
0.292556
0.287867
0.284844
0.283069
0.439651
0.00815419
-0.439303
0.439347
0.020244
0.43833
0.0320316
0.436573
0.0432818
0.433919
0.0540369
0.430584
0.0636608
0.425865
0.0734115
0.421105
0.0804428
0.412695
0.0912505
0.089295
0.42235
0.00755221
-0.421748
0.423198
0.019396
0.424245
0.0309845
0.425484
0.0420421
0.426718
0.0528038
0.428122
0.0622568
0.429214
0.0723187
0.430461
0.0791956
0.4311
0.0906121
0.0902363
0.407953
0.0067641
-0.407165
0.409472
0.0178776
0.411675
0.0287811
0.414541
0.0391763
0.417981
0.0493641
0.421943
0.0582949
0.426419
0.0678419
0.431038
0.074577
0.436827
0.084823
0.0860799
0.396695
0.00586182
-0.395793
0.398665
0.0159081
0.401673
0.0257725
0.405672
0.0351779
0.410657
0.0443793
0.416446
0.0525055
0.423253
0.061035
0.43047
0.0673596
0.439238
0.0760557
0.0783306
0.387867
0.0048813
-0.386886
0.390149
0.0136265
0.393712
0.0222089
0.398494
0.0303956
0.404516
0.0383576
0.41157
0.0454513
0.419891
0.0527145
0.428917
0.0583332
0.439547
0.0654264
0.0680506
0.381084
0.00384124
-0.380044
0.383588
0.0111227
0.387537
0.0182604
0.392862
0.0250699
0.399579
0.0316411
0.407499
0.0375309
0.416798
0.0434157
0.427034
0.048097
0.438835
0.0536255
0.0560782
0.376042
0.00275091
-0.374952
0.378711
0.00845394
0.382935
0.0140364
0.388647
0.0193585
0.395834
0.024454
0.404337
0.0290273
0.414259
0.0334941
0.425271
0.0370852
0.437774
0.0411222
0.04305
0.372252
0.00159791
-0.371099
0.375081
0.00562524
0.379546
0.00957162
0.385573
0.0133316
0.393121
0.0169056
0.40205
0.0200977
0.412385
0.02316
0.42388
0.0255897
0.436763
0.0282396
0.0294249
0.366041
0.000407295
-0.36485
0.369054
0.00261143
0.373843
0.00478299
0.380321
0.00685346
0.38841
0.0088168
0.397939
0.0105686
0.408874
0.012225
0.420953
0.0135112
0.434288
0.0149044
0.0152307
0.307805
-0.307398
0.310417
0.3152
0.322053
0.33087
0.341438
0.353663
0.367175
0.382079
0.0813724
0.122681
-0.112115
-0.0919383
0.071508
0.124925
-0.115061
0.0619517
0.127843
-0.118287
0.0524504
0.131253
-0.121752
0.0428818
0.134994
-0.125425
0.033179
0.138954
-0.129251
0.0233347
0.142772
-0.132928
0.013529
0.144452
-0.134647
0.00470372
0.133509
-0.124683
0.0753763
-0.0706726
0.0765417
0.131429
-0.0852898
0.0675202
0.133947
0.0584456
0.136917
0.0493666
0.140332
0.0402488
0.144112
0.0310411
0.148162
0.0217375
0.152076
0.0125179
0.153672
0.00429398
0.141732
0.0796703
0.068942
0.138962
-0.0764743
0.0610402
0.141848
0.0529374
0.14502
0.0447295
0.14854
0.036428
0.152413
0.0280142
0.156576
0.0195074
0.160583
0.0111066
0.162073
0.00370604
0.149133
0.0833763
0.0604924
0.145591
-0.0671221
0.0536047
0.148736
0.0465198
0.152105
0.0392876
0.155772
0.0319199
0.159781
0.0244239
0.164071
0.0168493
0.168157
0.0094215
0.169501
0.0030077
0.155547
0.086384
0.0515699
0.151372
-0.0573503
0.0456424
0.154664
0.0395629
0.158185
0.0333359
0.161999
0.0269649
0.166152
0.0204711
0.170565
0.0139274
0.174701
0.00758602
0.175842
0.00227009
0.160863
0.0886541
0.0422998
0.156261
-0.0471886
0.0373311
0.159632
0.0322525
0.163263
0.0270475
0.167204
0.0217164
0.171483
0.0162918
0.17599
0.0108593
0.180133
0.0056626
0.181039
0.00152289
0.165002
0.090177
0.0327358
0.160208
-0.0366837
0.0287464
0.163622
0.0246824
0.167327
0.0205232
0.171364
0.0162682
0.175738
0.0119523
0.180306
0.00769909
0.184387
0.00373318
0.185005
0.000747275
0.167988
0.0909243
0.0228609
0.163148
-0.0258003
0.0198997
0.166583
0.0168911
0.170336
0.0138201
0.174435
0.0106867
0.178871
0.00754245
0.18345
0.00449587
0.187433
0.00178724
0.187713
-2.22776e-05
0.169798
0.090902
0.0126962
0.165018
-0.014566
0.0108158
0.168463
0.00890786
0.172244
0.00696735
0.176375
0.00501207
0.180827
0.00305308
0.185409
0.00123531
0.189251
-0.000144859
0.189093
-0.000689794
0.170343
0.0902122
0.00234911
-0.00308226
0.0016068
0.000848834
7.17148e-05
-0.000707982
-0.00139601
-0.00191149
-0.00198172
-0.00135044
0.107576
0.0213366
-0.118729
-0.0101836
0.0960951
0.0218882
-0.0104073
0.0842875
0.0224543
-0.0106467
0.072138
0.0230544
-0.0109048
0.0596224
0.0237008
-0.0111853
0.0467175
0.0243944
-0.0114894
0.0334232
0.0250944
-0.0118002
0.0199026
0.0255069
-0.0119864
0.00727283
0.0239077
-0.0112779
0.0140816
-0.00680873
0.106762
0.0324488
-0.117874
0.0953339
0.0333165
0.0835907
0.0341975
0.0715164
0.0351286
0.0590868
0.0361304
0.0462784
0.0372029
0.0330918
0.038281
0.0196907
0.038908
0.0071849
0.0364135
0.0212665
0.105616
0.0434948
-0.116662
0.0942681
0.0446642
0.0826193
0.0458463
0.0706534
0.0470945
0.0583456
0.0484382
0.0456721
0.0498764
0.032634
0.0513191
0.0193973
0.0521447
0.00706547
0.0487453
0.0283319
0.104051
0.0544424
-0.114998
0.0928202
0.0558949
0.0813059
0.0573605
0.0694912
0.0589092
0.0573509
0.0605785
0.0448609
0.0623664
0.0320227
0.0641573
0.0190031
0.0651643
0.00690452
0.0608439
0.0352365
0.101953
0.0652466
-0.112757
0.0908911
0.0669569
0.079568
0.0686836
0.0679642
0.070513
0.0560527
0.07249
0.0438084
0.0746107
0.0312338
0.0767319
0.0185
0.0778981
0.00670069
0.0726433
0.0419371
0.0991642
0.0758365
-0.109754
0.0883461
0.077775
0.0772897
0.07974
0.0659732
0.0818295
0.0543682
0.0840949
0.0424492
0.0865298
0.0302195
0.0889616
0.0178535
0.0902641
0.00643293
0.0840639
0.0483701
0.0956425
0.0860853
-0.105891
0.0852029
0.0882146
0.0745388
0.0904041
0.0636152
0.0927531
0.0524018
0.0953083
0.0408772
0.0980544
0.0290532
0.100786
0.017115
0.102202
0.00613209
0.0950468
0.0545022
0.0908372
0.0958384
-0.10059
0.0809164
0.0981353
0.0707898
0.100531
0.0604208
0.103122
0.0497708
0.105958
0.0388096
0.109016
0.0275474
0.112048
0.016176
0.113574
0.00574921
0.105474
0.0602514
0.0861677
0.104591
-0.0949206
0.0770386
0.107264
0.0675224
0.110047
0.0576665
0.112978
0.0474862
0.116139
0.0369865
0.119515
0.0262006
0.122834
0.0153331
0.124441
0.00541546
0.115391
0.0656668
0.07843
-0.0859542
0.0706337
0.062394
0.0536201
0.0443334
0.0345975
0.0245034
0.0142979
0.00500577
0.200872
0.0149972
-0.0178793
0.203026
0.0217311
-0.0238852
0.202879
0.0267226
-0.0265758
0.203613
0.0288715
-0.029605
0.202946
0.0350484
-0.0343818
0.200589
0.0432377
-0.0408804
0.195078
0.0545187
-0.0490076
0.184321
0.0696134
-0.0588572
0.160808
0.0931736
-0.0696599
0.124212
-0.0821328
0.200713
0.012274
0.202735
0.0197086
0.202536
0.0269225
0.20318
0.0282266
0.202399
0.0358303
0.199885
0.0457513
0.194183
0.0602202
0.183152
0.080645
0.159612
0.116713
0.16595
0.200426
0.00983768
0.202155
0.0179799
0.201814
0.0272637
0.20224
0.0278002
0.201218
0.0368527
0.198431
0.0485379
0.192446
0.0662056
0.181056
0.0920346
0.157611
0.140158
0.206899
0.2
0.00782721
0.201283
0.0166972
0.200724
0.027823
0.2008
0.027724
0.199414
0.0382389
0.196238
0.0517134
0.18987
0.0725743
0.178036
0.103868
0.154809
0.163386
0.246709
0.199432
0.00638479
0.200129
0.0160003
0.199281
0.0286709
0.198871
0.0281341
0.197001
0.0401093
0.19332
0.0553937
0.186462
0.0794323
0.17411
0.11622
0.151218
0.186278
0.285169
0.198711
0.00566375
0.198698
0.0160133
0.197506
0.0298624
0.196467
0.0291735
0.193996
0.0425806
0.189695
0.0596942
0.182235
0.0868923
0.169278
0.129177
0.146854
0.208702
0.32227
0.197824
0.00582945
0.196997
0.0168407
0.195422
0.0314374
0.1936
0.030995
0.190419
0.0457618
0.185383
0.06473
0.177211
0.0950641
0.163539
0.14285
0.14178
0.230461
0.358158
0.196763
0.00705656
0.19504
0.0185633
0.193055
0.0334225
0.190287
0.0337632
0.186295
0.0497537
0.180404
0.0706212
0.17138
0.104088
0.156859
0.157371
0.135715
0.251606
0.393282
0.195518
0.00952859
0.192848
0.0212334
0.19043
0.0358397
0.186534
0.03766
0.181653
0.0546343
0.174819
0.0774555
0.164923
0.113983
0.149942
0.172353
0.129662
0.271886
0.428024
0.194139
0.0133798
0.190469
0.0249032
0.187571
0.0387374
0.18228
0.042951
0.176293
0.060621
0.168028
0.0857212
0.156313
0.125698
0.139331
0.189334
0.117996
0.293221
0.460065
0.3025
0.0128896
0.304457
0.0229469
0.307415
0.0357789
0.308928
0.0414386
0.311025
0.0585236
0.313814
0.0829323
0.31863
0.120882
0.328733
0.179231
0.354211
0.267744
0.404501
0.409775
0.303337
0.0115626
0.305475
0.0208088
0.308852
0.0324017
0.311259
0.039032
0.314664
0.0551187
0.319457
0.0781396
0.327277
0.113062
0.341462
0.165046
0.370345
0.238861
0.34907
0.425776
0.30405
0.00952321
0.306581
0.0182777
0.310277
0.0287059
0.31353
0.0357783
0.318094
0.0505546
0.324612
0.0716218
0.334861
0.102813
0.351937
0.147969
0.382905
0.207893
0.294922
0.437054
0.304702
0.00683186
0.307662
0.0153173
0.311637
0.0247303
0.31564
0.0317754
0.321213
0.0449815
0.329176
0.0636587
0.341322
0.0906675
0.360441
0.12885
0.392089
0.176245
0.243505
0.443506
0.305331
0.00351153
0.308707
0.011941
0.31291
0.0205271
0.317539
0.0271467
0.323961
0.0385595
0.333105
0.0545147
0.346685
0.0770872
0.367187
0.108349
0.3986
0.144831
0.19537
0.446735
0.305973
-0.000450956
0.309725
0.0081887
0.314063
0.0161892
0.319186
0.0220232
0.326299
0.0314467
0.336371
0.044443
0.351003
0.0624552
0.37239
0.0869618
0.403143
0.114078
0.15055
0.447963
0.306638
-0.00507889
0.310729
0.00409803
0.315073
0.0118454
0.320551
0.0165447
0.328192
0.0238054
0.338963
0.0336727
0.354341
0.0470775
0.376254
0.0650488
0.406238
0.0840933
0.108709
0.448079
0.307413
-0.0104818
0.311721
-0.000210252
0.315884
0.00768233
0.321572
0.0108569
0.329587
0.0157904
0.340853
0.0224065
0.356736
0.031195
0.378924
0.0428609
0.40824
0.0547769
0.0693117
0.447638
0.307304
-0.0157753
0.311488
-0.00439415
0.315265
0.00390516
0.321098
0.00502356
0.32934
0.00754824
0.340924
0.0108227
0.357125
0.0149943
0.379418
0.0205675
0.408315
0.0258803
0.0323047
0.445322
0.286235
0.281841
0.285746
0.290769
0.298318
0.30914
0.324135
0.344702
0.370583
0.402887
0.415487
-0.0976504
0.418103
-0.0879057
0.42133
-0.0797019
0.42494
-0.070732
0.428484
-0.0608941
0.431713
-0.0504173
0.434481
-0.0394519
0.436706
-0.0280258
0.438333
-0.0161921
-0.00405227
0.425068
-0.0969427
0.424428
-0.0872652
0.423878
-0.0791522
0.423247
-0.070101
0.422576
-0.0602224
0.421992
-0.0498336
0.421572
-0.0390317
0.421365
-0.0278196
0.421409
-0.0162361
-0.00439048
0.431427
-0.0913158
0.42642
-0.0822587
0.421718
-0.0744502
0.417581
-0.0659639
0.414106
-0.0567474
0.411314
-0.0470415
0.409207
-0.0369247
0.407801
-0.0264136
0.407116
-0.015551
-0.00443966
0.434337
-0.0821471
0.426333
-0.0742552
0.419067
-0.0671838
0.412688
-0.0595848
0.407291
-0.0513506
0.402907
-0.042657
0.399546
-0.0335642
0.397227
-0.0240941
0.395969
-0.0142931
-0.00426385
0.435276
-0.0706881
0.425198
-0.0641774
0.416149
-0.0581345
0.408221
-0.0516565
0.401504
-0.0446337
0.39603
-0.0371834
0.391813
-0.0293471
0.38887
-0.0211507
0.387222
-0.0126457
-0.0039281
0.435076
-0.057801
0.423632
-0.0527338
0.413397
-0.0478992
0.404431
-0.042691
0.396817
-0.0370194
0.390592
-0.0309585
0.385779
-0.024534
0.382402
-0.0177734
0.380485
-0.0107288
-0.0034876
0.434325
-0.0440474
0.422019
-0.0404279
0.411018
-0.0368985
0.401376
-0.0330488
0.393168
-0.0288116
0.38644
-0.0242304
0.381226
-0.0193192
0.377555
-0.0141028
0.375458
-0.0086316
-0.00298185
0.433343
-0.0297528
0.420507
-0.0275915
0.409022
-0.0254138
0.398936
-0.0229627
0.390327
-0.0202025
0.383249
-0.017152
0.377745
-0.0138154
0.37386
-0.0102182
0.371636
-0.00640717
-0.002445
0.430406
-0.0148371
0.417127
-0.014312
0.405219
-0.0135058
0.394691
-0.0124354
0.385626
-0.011137
0.378095
-0.00962106
0.372177
-0.00789752
0.367953
-0.00599449
0.365494
-0.00394792
-0.00180102
0.38805
0.373738
0.360232
0.347797
0.33666
0.327039
0.319141
0.313147
0.309199
0.00511038
0.107267
-0.112378
0.00898273
0.206623
-0.210496
0.0109222
0.231025
-0.232964
0.0117698
0.232444
-0.233292
0.0122709
0.228826
-0.229327
0.0127076
0.224652
-0.225089
0.0132154
0.220818
-0.221326
0.0138805
0.217387
-0.218052
0.0147807
0.213979
-0.214879
0.209543
0.0157849
-0.210547
0.00681448
0.100453
0.0141542
0.199284
0.0198713
0.225308
0.0244754
0.22784
0.0286138
0.224688
0.0326875
0.220579
0.0368955
0.21661
0.0413341
0.212948
0.0460563
0.209257
0.204644
0.0509551
0.0078776
0.0925754
0.018154
0.189007
0.0273479
0.216114
0.0354816
0.219706
0.043052
0.217118
0.0505066
0.213124
0.0581148
0.209002
0.0659859
0.205077
0.0740778
0.201165
0.196447
0.0822754
0.00828201
0.0842934
0.0206776
0.176612
0.0327436
0.204048
0.0438841
0.208566
0.0543845
0.206617
0.0646707
0.202838
0.0750661
0.198606
0.0857319
0.194411
0.096618
0.190279
0.185604
0.107461
0.00814616
0.0761472
0.0217122
0.163046
0.0357699
0.18999
0.0491516
0.195184
0.0618707
0.193898
0.0742567
0.190452
0.086631
0.186232
0.0991988
0.181843
0.111993
0.177484
0.172755
0.124842
0.00765324
0.068494
0.021518
0.149181
0.0365936
0.174914
0.0513255
0.180452
0.065467
0.179756
0.0791971
0.176722
0.0927723
0.172657
0.106393
0.168222
0.120156
0.163721
0.158751
0.13416
0.0070001
0.0614939
0.0205407
0.13564
0.0358008
0.159654
0.0510637
0.165189
0.0658992
0.164921
0.0803268
0.162294
0.094494
0.158489
0.10855
0.154167
0.122574
0.149697
0.144536
0.136789
0.00634134
0.0551525
0.0192373
0.122744
0.0341292
0.144762
0.0493047
0.150014
0.06424
0.149986
0.0788231
0.147711
0.0930822
0.14423
0.107084
0.140165
0.120909
0.135872
0.13082
0.134625
0.00578899
0.0493635
0.0179959
0.110537
0.0322991
0.130459
0.047068
0.135245
0.0617625
0.135291
0.0761952
0.133278
0.0903113
0.130114
0.104112
0.126364
0.117588
0.122396
0.117138
0.13127
0.00538254
0.043981
0.017006
0.098914
0.0307083
0.116757
0.044936
0.121017
0.0591555
0.121072
0.0731267
0.119307
0.0867198
0.116521
0.0998794
0.113205
0.112506
0.10977
0.105439
0.124205
0.00513672
0.0388442
0.0163738
0.0876769
0.0296429
0.103488
0.0434561
0.107204
0.0573139
0.107214
0.0709778
0.105643
0.084306
0.103193
0.0972205
0.10029
0.109723
0.0972672
0.0947354
0.120427
0.00499301
0.0338512
0.0159934
0.0766765
0.0289707
0.0905106
0.0424659
0.0937088
0.0560017
0.0936779
0.0693477
0.0922974
0.0823628
0.0901776
0.0949661
0.0876869
0.107144
0.0850894
0.0833934
0.118486
0.0049046
0.0289466
0.0157676
0.0658136
0.028569
0.0777091
0.0418573
0.0804205
0.0551725
0.0803627
0.0683006
0.0791692
0.0811137
0.0773645
0.0935399
0.0752607
0.10556
0.0730697
0.0718026
0.11715
0.00484572
0.0241009
0.0156332
0.0550261
0.02834
0.0650023
0.0415107
0.0672498
0.0546948
0.0671785
0.0676927
0.0661713
0.0803888
0.0646683
0.0927219
0.0629276
0.104675
0.0611168
0.0601288
0.116349
0.00480356
0.0192974
0.0155504
0.0442792
0.0282106
0.0523421
0.0413187
0.0541417
0.0544279
0.0540693
0.0673481
0.0532512
0.0799735
0.0520429
0.0922507
0.0506503
0.104165
0.0492025
0.048443
0.115851
0.00477164
0.0145257
0.0154941
0.0335568
0.02813
0.0397062
0.0412043
0.0410674
0.0542707
0.0410029
0.0671452
0.0403767
0.0797292
0.0394589
0.0919745
0.0384049
0.103868
0.037309
0.0367597
0.115551
0.00474704
0.00977868
0.0154507
0.0228531
0.02807
0.0270869
0.0411228
0.0280146
0.0541628
0.0279629
0.0670103
0.0275292
0.079571
0.0268983
0.0918005
0.0261754
0.103686
0.0254231
0.0250754
0.115371
0.00472908
0.0050496
0.0154145
0.0121677
0.0280165
0.0144849
0.0410496
0.0149815
0.0540682
0.0149442
0.0668955
0.014702
0.0794402
0.0143536
0.0916605
0.0139551
0.103545
0.013539
0.0133866
0.115233
0.00471672
0.000332874
0.015381
0.00150343
0.0279593
0.00190665
0.0409667
0.00197412
0.0539592
0.00195171
0.066762
0.00189914
0.0792864
0.0018292
0.0914924
0.00174905
0.103369
0.0016627
0.00169985
0.115055
0.00471038
0.015348
0.027891
0.0408599
0.0538132
0.0665784
0.0790689
0.0912465
0.103101
0.114772
0.135942
0.249021
-0.264535
0.148933
0.114043
-0.127034
0.158868
0.0393091
-0.0492437
0.166305
0.00679541
-0.0142322
0.172339
-0.00633255
0.000298582
0.177645
-0.0105842
0.00527825
0.182484
-0.0108908
0.00605101
0.186975
-0.00955229
0.0050617
0.191161
-0.00763878
0.0034532
-0.0051438
0.00131659
0.141486
0.226021
0.156443
0.099086
0.166086
0.0296659
0.172774
0.000107042
0.177903
-0.0114615
0.182195
-0.014876
0.185966
-0.0146616
0.18935
-0.0129367
0.192417
-0.0107058
-0.00785978
0.144923
0.198249
0.161871
0.0821379
0.17191
0.0196264
0.178306
-0.00628909
0.18282
-0.015975
0.186288
-0.0183446
0.189126
-0.0174991
0.191525
-0.0153364
0.193589
-0.0127693
-0.00957253
0.14826
0.166337
0.166887
0.0635113
0.177194
0.0093195
0.183315
-0.0124101
0.187241
-0.0199011
0.189968
-0.0210714
0.191975
-0.0195068
0.193502
-0.0168628
0.194675
-0.0139422
-0.010393
0.151386
0.130802
0.1713
0.0435975
0.181839
-0.00121975
0.187704
-0.0182752
0.191129
-0.0233256
0.193214
-0.0231564
0.194502
-0.0207954
0.19527
-0.017631
0.195669
-0.0143412
-0.0104372
0.154147
0.0922063
0.175081
0.0226637
0.185808
-0.0119465
0.191456
-0.0239241
0.194462
-0.0263314
0.196009
-0.0247035
0.196694
-0.0214797
0.196823
-0.0177608
0.196569
-0.014087
-0.00982524
0.156422
0.0511547
0.178189
0.000897401
0.189057
-0.0228144
0.194543
-0.0294103
0.197221
-0.0290094
0.198339
-0.025822
0.198538
-0.0216786
0.198153
-0.0173755
0.19737
-0.0133045
-0.00868153
0.158132
0.0082558
0.180557
-0.0215277
0.191549
-0.0338055
0.19694
-0.0348013
0.199387
-0.0314569
0.200191
-0.0266256
0.200026
-0.0215144
0.199252
-0.016601
0.198068
-0.0121207
-0.00713335
0.159198
-0.0358868
0.182127
-0.044457
0.193256
-0.0449347
0.198627
-0.0401718
0.200947
-0.0337764
0.201552
-0.0272315
0.20115
-0.0211116
0.200115
-0.0155662
0.19866
-0.0106661
-0.00531129
0.159571
0.182851
0.194157
0.19959
0.201889
0.202417
0.201903
0.200737
0.199143
0.188484
0.0326169
-0.221101
0.169797
0.0186875
0.161406
0.00839108
0.15864
0.00276512
0.158431
0.00020914
0.159169
-0.0007377
0.160099
-0.000929988
0.1609
-0.000800764
0.161442
-0.000542003
-0.000200903
0.2372
0.0923528
-0.296936
0.208841
0.0470466
0.197406
0.0198261
0.193726
0.00644502
0.193386
0.000548823
0.194274
-0.00162563
0.195425
-0.00208041
0.196422
-0.00179822
0.197114
-0.00123357
-0.000466311
0.239935
0.155092
-0.302675
0.210858
0.0761233
0.199663
0.0310217
0.196259
0.00984909
0.19611
0.00069798
0.197112
-0.0026276
0.198331
-0.00330014
0.199372
-0.00283851
0.200091
-0.00195284
-0.000743501
0.234791
0.214223
-0.293922
0.208137
0.102778
0.198433
0.0407255
0.195824
0.0124585
0.196078
0.000443792
0.197277
-0.00382661
0.198588
-0.00461093
0.199668
-0.00391897
0.200404
-0.00268903
-0.00102578
0.229516
-0.279828
0.205259
0.196741
0.194967
0.19571
0.197161
0.198601
0.199744
0.200508
0.0218142
-0.000893596
-0.0209206
0.0260887
-0.00427457
0.0344403
-0.00835157
0.0480561
-0.0136158
0.0678545
-0.0197984
0.09344
-0.0255854
0.12393
-0.0304898
0.156211
-0.0322813
0.190929
-0.0347178
-0.0301722
0.058751
-0.00355042
-0.0560942
0.0691448
-0.0146683
0.0874892
-0.026696
0.113209
-0.039336
0.143997
-0.0505861
0.176542
-0.0581302
0.208609
-0.0625567
0.238611
-0.062284
0.269138
-0.0652439
-0.0579706
0.0840752
-0.0074015
-0.0802242
0.0967759
-0.027369
0.117062
-0.0469818
0.142272
-0.0645466
0.169304
-0.0776183
0.196639
-0.0854645
0.223978
-0.0898963
0.251155
-0.0894611
0.278293
-0.092381
-0.0823529
0.0982483
-0.0116436
-0.0940062
0.110547
-0.0396673
0.128984
-0.0654188
0.151143
-0.0867055
0.175371
-0.101846
0.20078
-0.110874
0.22585
-0.114966
0.250387
-0.113999
0.272855
-0.114849
-0.10342
0.104991
-0.10085
0.116279
0.133136
0.153891
0.176887
0.200173
0.221996
0.242622
0.259043
0.101705
-0.0888418
0.0982283
-0.111091
0.0921148
-0.0919074
0.101497
0.0819562
-0.0950435
0.105202
0.0710126
-0.0982341
0.109178
0.0592651
-0.101569
0.113317
0.0467861
-0.105063
0.117542
0.0336802
-0.108522
0.121628
0.0201889
-0.110602
0.124094
0.00747028
-0.103433
0.116151
-0.0596248
0.0670951
0.105989
-0.078801
-0.11603
0.0953629
-0.0812815
0.0841038
-0.0837844
0.0722791
-0.0864094
0.0599327
-0.0892231
0.0470894
-0.0922196
0.0337821
-0.0952143
0.0201932
-0.0970135
0.00745045
-0.09069
-0.0521744
0.106298
-0.0679409
-0.117158
0.0951105
-0.0700936
0.0835748
-0.0722487
0.0716722
-0.0745068
0.0593681
-0.076919
0.0466242
-0.0794757
0.0334319
-0.082022
0.0199578
-0.0835394
0.00733098
-0.0780632
-0.0448434
0.10758
-0.0568872
-0.118633
0.0962134
-0.0587274
0.084507
-0.0605423
0.0724276
-0.0624274
0.0599429
-0.0644343
0.0470281
-0.0665608
0.0336875
-0.0686814
0.020093
-0.0699449
0.00737788
-0.0653481
-0.0374655
0.108179
-0.0457368
-0.11933
0.0966926
-0.0472407
0.0848656
-0.0487153
0.0726813
-0.0502431
0.0601142
-0.0518672
0.0471388
-0.0535855
0.0337539
-0.0552965
0.0201231
-0.0563141
0.00737752
-0.0526024
-0.030088
0.108537
-0.0345576
-0.119716
0.0970108
-0.0357148
0.085141
-0.0368455
0.0729129
-0.038015
0.0603018
-0.0392561
0.0472827
-0.0405664
0.033855
-0.0418688
0.0201833
-0.0426425
0.00739609
-0.0398152
-0.0226919
0.108674
-0.0233708
-0.11986
0.0971358
-0.024177
0.0852507
-0.0249604
0.0730047
-0.025769
0.0603747
-0.0266261
0.0473374
-0.0275291
0.0338933
-0.0284247
0.0202064
-0.0289556
0.00740072
-0.0270095
-0.0152912
0.108652
-0.0121799
-0.119843
0.0971126
-0.0126371
0.0852269
-0.0130747
0.0729814
-0.0135236
0.0603529
-0.0139976
0.0473182
-0.0144943
0.0338777
-0.0149841
0.0201945
-0.0152724
0.00739366
-0.0142088
-0.0078975
0.108477
-0.000992601
-0.119664
0.0969447
-0.00110512
0.0850705
-0.00120051
0.0728398
-0.00129288
0.0602293
-0.00138707
0.0472159
-0.00148096
0.0337998
-0.00156798
0.0201439
-0.0016165
0.00737271
-0.00143756
-0.000524795
0.10812
-0.119296
0.0966077
0.0847605
0.0725628
0.0599904
0.04702
0.0336519
0.020049
0.00733352
0.017769
-0.207513
-0.0208036
0.0145073
-0.211617
0.0112093
-0.214754
0.00792211
-0.218038
0.00467911
-0.221846
0.00156618
-0.226214
-0.00126721
-0.230458
-0.00309817
-0.231133
-0.00291576
-0.210678
-0.115294
0.0491412
-0.200452
-0.0562017
0.0417888
-0.204265
0.0346393
-0.207604
0.0277292
-0.211128
0.0210117
-0.215128
0.0144464
-0.219649
0.00818124
-0.224193
0.00273947
-0.225692
-0.000635277
-0.207303
-0.115929
0.075963
-0.18968
-0.0867352
0.0652129
-0.193515
0.0548738
-0.197265
0.0449379
-0.201192
0.0353089
-0.205499
0.0259281
-0.210268
0.0168624
-0.215127