/*--------------------------------*- C++ -*----------------------------------*\
  =========                 |
  \\      /  F ield         | OpenFOAM: The Open Source CFD Toolbox
   \\    /   O peration     | Website:  https://openfoam.org
    \\  /    A nd           | Version:  13
     \\/     M anipulation  |
\*---------------------------------------------------------------------------*/
FoamFile
{
    format      ascii;
    class       volScalarField;
    location    "0.815";
    object      strainRateViscosityModel:nu;
}
// * * * * * * * * * * * * * * * * * * * * * * * * * * * * * * * * * * * * * //

dimensions      [0 2 -1 0 0 0 0];

internalField   nonuniform List<scalar> 
1800
(
9.40488
9.1976
9.01007
8.80096
8.57616
8.34416
8.11548
7.89818
7.6242
7.37923
9.58523
9.41878
9.2669
9.09733
8.91118
8.71144
8.50358
8.28868
8.0273
7.70207
9.70219
9.56269
9.42803
9.27096
9.08869
8.87899
8.64092
8.36904
8.03058
7.6106
9.77539
9.65614
9.53324
9.38287
9.20049
8.98172
8.72281
8.41597
8.02877
7.55456
9.82168
9.7183
9.60558
9.46167
9.28071
9.05696
8.78549
8.45889
8.04775
7.55614
9.85185
9.76081
9.6573
9.52059
9.34355
9.11896
8.84034
8.50016
8.07152
7.5702
9.87179
9.78991
9.69398
9.56396
9.39147
9.16769
8.8842
8.53252
8.08735
7.57567
9.88475
9.80924
9.71888
9.59394
9.42494
9.20146
8.91309
8.55005
8.08853
7.56355
9.8926
9.82107
9.73416
9.6122
9.44467
9.21962
8.92483
8.54922
8.07121
7.52871
9.89646
9.82685
9.74153
9.62069
9.45309
9.22573
8.92512
8.53953
8.05038
7.49285
1.80079
1.40523
1.20924
1.31991
1.73039
2.25165
2.49662
2.44894
2.35906
2.33537
3.72994
1.78097
1.49122
1.98115
2.69573
2.9725
2.81711
2.67155
2.68772
2.74111
4.70258
2.5697
2.43537
3.1767
3.59663
3.34614
3.08144
3.11826
3.25832
3.33892
5.26919
3.88162
3.81496
4.21353
4.18061
3.82926
3.72108
3.85495
3.95749
4.0065
6.05584
5.27513
5.11773
5.12134
4.91493
4.65324
4.578
4.61218
4.61251
4.65224
6.95986
6.45985
6.22677
6.03827
5.78827
5.54535
5.38915
5.29329
5.22215
5.27474
7.77173
7.37771
7.11678
6.86031
6.58743
6.32055
6.08723
5.9009
5.77016
5.82374
8.40013
8.05531
7.79202
7.5158
7.22652
6.93123
6.6422
6.3863
6.19223
6.22924
8.84935
8.54538
8.29101
8.01033
7.70572
7.3795
7.03564
6.70112
6.41572
6.42172
9.16164
8.90154
8.66633
8.39668
8.09572
7.76578
7.40646
7.03565
6.70852
6.75239
2.19331
1.72911
1.33176
0.937197
0.619938
0.350097
0.185815
0.138766
0.155128
0.238023
2.52758
1.84818
1.40676
0.932466
0.593731
0.334268
0.174868
0.102687
0.102382
0.180692
2.94814
1.97727
1.4791
0.929817
0.557952
0.306973
0.162658
0.0864155
0.0620751
0.124012
3.44057
2.14721
1.5504
0.932736
0.518527
0.271956
0.145518
0.0741773
0.0562702
0.0652604
3.98284
2.38527
1.62786
0.94178
0.479719
0.232803
0.124566
0.0603892
0.0627332
0.0283662
4.5284
2.69645
1.72418
0.958174
0.444625
0.192382
0.100451
0.0482053
0.0526818
0.0475395
4.99689
3.05622
1.84615
0.980947
0.413384
0.152595
0.0748524
0.0383501
0.0326966
0.106882
5.31274
3.43925
2.01333
1.02375
0.392459
0.116444
0.0498816
0.0265179
0.0386066
0.169845
5.34325
3.72269
2.16299
1.05568
0.369365
0.0836684
0.0303049
0.0198005
0.0954793
0.234028
5.20199
3.98881
2.39856
1.15944
0.38585
0.0670621
0.0104666
0.053849
0.142216
0.288174
4.94436
3.94235
2.4556
1.17339
0.360649
0.0526373
0.028997
0.10736
0.202298
0.350434
5.33037
3.34762
2.13982
0.998671
0.359462
0.139625
0.118027
0.175495
0.275827
0.418743
4.90476
3.04592
2.24855
1.20615
0.591595
0.29499
0.204326
0.245032
0.339255
0.471223
4.54682
3.63236
2.68208
1.64134
0.893115
0.496288
0.339485
0.333078
0.405786
0.514977
5.1143
4.74786
3.34293
2.16451
1.23823
0.730076
0.49678
0.435538
0.474381
0.550218
6.25446
5.66955
4.05709
2.67384
1.59852
0.981647
0.673708
0.552064
0.547609
0.58014
7.26268
6.3737
4.71362
3.15451
1.95718
1.24043
0.85894
0.676668
0.623859
0.606432
8.0001
6.91203
5.25978
3.5889
2.29994
1.50057
1.04957
0.807049
0.703601
0.631733
8.51876
7.33072
5.69729
3.97001
2.62035
1.75371
1.23623
0.934393
0.78055
0.654353
8.931
7.69118
6.04971
4.28303
2.92517
2.02412
1.44712
1.08239
0.875744
0.686792
6.51282
6.43966
6.43043
6.44874
6.48733
6.52992
6.58195
6.71049
6.89516
6.82619
0.260659
1.05708
2.00766
2.92269
3.7036
4.3162
4.73293
4.98242
5.22147
5.72763
3.85081
3.54392
3.2847
3.11147
3.10653
3.25013
3.47233
3.71344
4.16494
4.84475
6.64416
6.62722
6.53713
6.3447
6.04331
5.65792
5.2497
4.89618
4.73959
4.54951
7.69184
7.67653
7.63212
7.54129
7.39613
7.18986
6.92709
6.61954
6.28604
5.65649
8.44951
8.43311
8.39435
8.32771
8.22957
8.09671
7.92836
7.71683
7.42793
6.90784
8.93967
8.92393
8.89028
8.83679
8.76166
8.6629
8.53815
8.37892
8.15467
7.80862
9.27298
9.25981
9.23246
9.18985
9.13052
9.05245
8.95269
8.82481
8.65281
8.4309
9.50446
9.49417
9.47307
9.44024
9.39426
9.33319
9.25424
9.15286
9.02288
8.87534
9.6899
9.68285
9.66852
9.64604
9.61405
9.5707
9.51361
9.43975
9.34638
9.2441
7.24803
7.52617
7.83692
8.08767
8.34481
8.59962
8.84138
9.06158
9.25458
9.46025
7.5831
7.94805
8.24096
8.48112
8.70935
8.92481
9.1223
9.299
9.45391
9.61805
7.49849
7.95737
8.32595
8.6205
8.87575
9.09773
9.28806
9.44952
9.58535
9.72225
7.44688
7.95761
8.37376
8.702
8.97659
9.20596
9.39471
9.54806
9.67131
9.78824
7.45632
7.98066
8.4186
8.7649
9.05054
9.28356
9.46977
9.61591
9.72868
9.83022
7.48241
8.01168
8.46402
8.82147
9.11234
9.34475
9.52606
9.66446
9.76796
9.85764
7.50364
8.03786
8.50277
8.86863
9.16197
9.39189
9.56763
9.6989
9.79479
9.8757
7.51114
8.05246
8.52871
8.90209
9.19746
9.42521
9.5964
9.72212
9.81243
9.88729
7.49836
8.05045
8.53742
8.91898
9.21768
9.44503
9.61371
9.73606
9.82289
9.89404
7.48288
8.04358
8.53592
8.92344
9.22525
9.4533
9.62123
9.74216
9.82746
9.89693
2.55901
2.51545
2.53322
2.74482
2.93063
2.55817
1.70158
1.18302
1.52394
4.20008
2.96573
2.87744
2.7176
2.71519
3.10488
3.43322
2.82474
1.90909
2.12697
5.1374
3.45289
3.40949
3.25166
3.06509
3.26503
3.82402
3.80452
3.16315
3.29092
5.45686
3.94384
3.93309
3.90676
3.79761
3.89044
4.31793
4.58961
4.46871
4.66201
5.91408
4.4967
4.46924
4.54468
4.61641
4.78036
5.11397
5.43843
5.61937
5.8971
6.6318
5.10035
5.05784
5.19752
5.39601
5.65696
5.98045
6.30869
6.59554
6.90103
7.40674
5.653
5.61678
5.81771
6.09035
6.40769
6.74088
7.06857
7.37818
7.67879
8.08659
6.06628
6.05175
6.3149
6.64222
6.99495
7.3398
7.6673
7.97421
8.25897
8.61107
6.26006
6.27903
6.63089
7.02586
7.42012
7.78442
8.11673
8.4167
8.68284
8.98797
6.59992
6.56979
6.95596
7.37947
7.78134
8.14312
8.46654
8.75045
8.99301
9.25186
0.112974
0.155077
0.12267
0.0637434
0.0157314
0.394501
0.931577
1.48454
1.95143
2.43347
0.0795385
0.140547
0.118484
0.0660094
0.0154205
0.386915
0.935588
1.54736
2.03027
2.69938
0.0577908
0.132175
0.116682
0.0692461
0.0242305
0.386972
0.94164
1.59716
2.10068
3.00942
0.0446663
0.12981
0.118451
0.0766038
0.0423242
0.394624
0.947592
1.63412
2.20402
3.39585
0.0381119
0.132544
0.122406
0.0861284
0.0654174
0.404072
0.950697
1.6696
2.38184
3.86598
0.0372156
0.13953
0.126911
0.0951668
0.089228
0.411858
0.954882
1.72692
2.64834
4.36316
0.042192
0.150927
0.130721
0.101553
0.109024
0.415532
0.965309
1.82253
2.98025
4.79394
0.0536893
0.167271
0.13348
0.105462
0.124368
0.424066
1.00602
1.98153
3.34703
5.07862
0.0734883
0.18833
0.135308
0.103055
0.127441
0.423973
1.04288
2.13276
3.6255
5.08178
0.104274
0.210931
0.137762
0.103978
0.142633
0.470746
1.17938
2.39098
3.87531
4.8904
0.160991
0.239472
0.143233
0.101063
0.131202
0.473639
1.24408
2.50396
3.8846
4.67281
0.264087
0.270925
0.133079
0.0759316
0.0695915
0.384214
1.11857
2.30239
3.42948
5.19198
0.428972
0.270123
0.0999088
0.0142493
0.0150227
0.345312
1.14937
2.35113
3.25611
4.9379
0.682232
0.254364
0.0228048
0.0811933
0.101215
0.538974
1.43231
2.6248
3.71547
4.69838
1.06564
0.0476122
0.263771
0.235821
0.314825
0.891215
1.93401
3.20674
4.70724
5.17764
1.51469
0.122447
0.53828
0.416611
0.596434
1.30825
2.47418
3.9173
5.59881
6.22339
2.19503
0.683432
0.855878
0.689438
0.942441
1.73844
2.99232
4.59357
6.30247
7.21636
3.79221
1.70631
1.2747
1.03711
1.31835
2.15035
3.46128
5.16516
6.85409
7.96877
6.86014
3.5757
1.96336
1.42175
1.67963
2.524
3.8734
5.63118
7.29514
8.50724
9.04906
6.38369
2.84305
2.00205
2.11609
2.89669
4.22378
6.01909
7.68651
8.93809
6.62447
6.68751
6.5108
6.38904
6.34869
6.32252
6.30554
6.31733
6.36195
6.47625
5.52808
5.00924
4.7655
4.52448
4.12636
3.54045
2.79856
1.93208
1.04466
0.284223
4.84966
4.23674
3.8273
3.61679
3.43003
3.31058
3.31546
3.45771
3.65543
3.87435
4.71247
4.88596
5.02846
5.33796
5.70213
6.05238
6.33393
6.5214
6.61653
6.64158
5.68796
6.28594
6.61235
6.91136
7.17237
7.38147
7.5318
7.62814
7.6767
7.69239
6.86589
7.38861
7.68443
7.90231
8.07658
8.21483
8.3178
8.38855
8.43054
8.44888
7.7651
8.12049
8.35196
8.5179
8.64796
8.75098
8.82956
8.88582
8.92164
8.93899
8.40453
8.63268
8.80887
8.94093
9.04401
9.12465
9.18596
9.23006
9.25854
9.2726
8.86615
9.01619
9.14761
9.2506
9.33082
9.39283
9.43944
9.47267
9.494
9.50442
9.24868
9.35045
9.44301
9.51631
9.57294
9.61588
9.64748
9.66956
9.68348
9.69012
9.50947
8.98534
8.23589
6.92826
5.59797
0.131167
3.36084
5.96039
7.21409
8.15187
9.46542
8.92156
8.16813
6.89059
5.54939
0.56377
2.62222
5.70602
6.91644
7.91396
9.36568
8.78282
8.02028
6.80962
5.36636
1.60348
1.41357
5.20663
6.30935
7.40331
9.18255
8.54513
7.7745
6.65512
5.18645
2.74004
0.723099
4.23839
5.42158
6.57149
8.86812
8.1736
7.40402
6.37695
5.02653
3.36803
0.970959
2.63163
4.31696
5.39381
8.35053
7.62973
6.87343
5.9173
4.76512
3.44005
1.71925
1.30194
3.0493
3.98815
7.53605
6.89661
6.15556
5.22758
4.29967
3.26955
2.14311
1.17253
1.65627
2.55744
6.32539
6.03758
5.28135
4.2319
3.53345
2.9126
2.11845
1.43523
1.06859
1.23539
4.63171
5.23227
4.47437
2.99959
2.43709
2.27446
1.85603
1.38488
1.12273
0.659168
2.67281
4.53958
4.02166
1.96671
1.39676
1.48834
1.40994
1.21177
1.06408
0.845245
1.27677
3.78902
3.66666
1.33719
0.816162
0.897646
0.971119
0.956328
0.971784
1.01988
0.6135
2.9699
3.08223
0.956471
0.575303
0.639994
0.759473
0.820059
0.844056
0.877032
0.355382
2.1897
2.28545
0.688158
0.492628
0.59537
0.726472
0.810844
0.848631
0.873388
0.265321
1.55078
1.4892
0.521573
0.534635
0.674275
0.787793
0.858826
0.882241
0.892481
0.239651
1.01888
0.8455
0.514382
0.669794
0.803408
0.904625
0.968133
0.98384
0.980731
0.24287
0.492985
0.500029
0.636605
0.817674
0.955175
1.05295
1.11062
1.12114
1.11296
0.176968
0.204035
0.508313
0.756348
0.975002
1.12079
1.21046
1.25747
1.27427
1.2749
0.0451957
0.251971
0.649442
0.92292
1.13624
1.25359
1.32968
1.39956
1.45618
1.478
0.0611579
0.492533
0.822385
1.09604
1.22972
1.33855
1.48918
1.6479
1.73509
1.75058
0.697053
0.865471
1.04053
1.1834
1.32317
1.59722
1.91027
2.07991
2.08151
2.04842
0.36306
0.0805215
0.223884
0.550765
0.794731
0.8915
0.886853
0.838259
0.787713
0.753546
0.462112
0.202379
0.31924
0.521501
0.723984
0.810712
0.808326
0.767414
0.723931
0.704366
0.52579
0.372331
0.440155
0.513758
0.653505
0.730643
0.731525
0.697404
0.660365
0.654716
0.638954
0.588004
0.595637
0.555651
0.587399
0.643511
0.649693
0.624967
0.596027
0.604668
0.806082
0.803645
0.742167
0.63827
0.542186
0.556339
0.56599
0.551644
0.531468
0.554243
1.00966
0.999582
0.875493
0.737758
0.531101
0.474793
0.480935
0.477374
0.46675
0.503415
1.22774
1.17116
0.990424
0.82591
0.55306
0.408986
0.397367
0.402933
0.402189
0.452091
1.45248
1.32533
1.08922
0.888535
0.589843
0.368577
0.319607
0.32934
0.338108
0.400091
1.68498
1.46879
1.17561
0.923792
0.619684
0.354435
0.254295
0.258371
0.274987
0.347239
1.92627
1.60372
1.25506
0.93722
0.630174
0.353885
0.208995
0.193156
0.213585
0.29318
2.00916
0.747534
0.717805
0.965638
1.19816
1.28468
1.25881
1.18
1.10874
1.01044
1.39445
0.483
0.579299
0.874953
1.10999
1.1984
1.17751
1.10561
1.03741
0.951913
0.751606
0.288016
0.481412
0.797971
1.03566
1.12629
1.10975
1.04337
0.978843
0.904589
0.25337
0.17037
0.405809
0.726231
0.960562
1.04994
1.0362
0.975379
0.915106
0.853674
0.435832
0.0327039
0.267411
0.613306
0.864539
0.965589
0.960452
0.906981
0.851573
0.80334
9.35465
9.29006
9.141
8.87311
8.43757
7.77891
6.87137
5.75933
4.58201
3.53712
9.19249
9.09566
8.88112
8.51167
7.94153
7.13648
6.10966
4.95512
3.84479
2.78684
9.02389
8.90027
8.62663
8.16106
7.46178
6.51618
5.37145
4.16866
3.0813
1.94239
8.81633
8.66221
8.32151
7.74794
6.90619
5.81427
4.555
3.29482
2.22583
1.08997
8.58751
8.3794
7.92585
7.17747
6.11254
4.79211
3.35064
2.08512
0.993899
0.30201
1.06021
1.02441
1.01621
1.01972
0.915134
0.799622
1.29337
3.68341
3.85983
1.32292
0.949151
0.933707
0.926098
0.870657
0.718741
0.588451
0.910743
3.142
3.11006
0.647351
0.985914
0.98238
0.965498
0.892708
0.747245
0.58425
0.698115
2.37279
2.34696
0.377395
1.05335
1.06525
1.06109
1.00125
0.889767
0.740464
0.655426
1.55779
1.63505
0.277237
1.18603
1.21019
1.21589
1.16817
1.07699
0.951807
0.789135
0.910319
0.920022
0.246132
1.35127
1.37121
1.37949
1.3544
1.28456
1.15129
0.929895
0.670127
0.358423
0.216791
1.55581
1.55175
1.51934
1.47697
1.42618
1.31992
1.0798
0.754369
0.272545
0.0664248
1.82395
1.81756
1.73497
1.58195
1.44191
1.34529
1.21053
0.902021
0.494524
0.0467844
2.10433
2.15163
2.15012
1.95624
1.61251
1.32293
1.18715
1.05712
0.856799
0.67598
2.31269
2.35949
2.48408
2.5364
2.23424
1.6327
1.18255
1.06662
1.30462
2.04256
8.15168
7.21373
5.96003
3.36033
0.131423
5.5965
6.92777
8.2357
8.98536
9.50956
7.91328
6.91533
5.70501
2.62161
0.563639
5.54554
6.88914
8.16755
8.92161
9.46573
7.40186
6.30746
5.20484
1.41547
1.59976
5.36187
6.80735
8.01941
8.78295
9.36627
6.56884
5.41868
4.23623
0.726271
2.73173
5.18172
6.65228
7.77352
8.54546
9.18358
5.38943
4.31247
2.63265
0.97103
3.35669
5.02057
6.3735
7.40309
8.17434
8.86988
3.97982
3.04147
1.31017
1.71322
3.42678
4.75623
5.91249
6.87255
7.63122
8.35351
2.54108
1.65349
1.18716
2.13287
3.25089
4.28301
5.21885
6.15466
6.89952
7.54138
1.2176
1.08763
1.45171
2.10725
2.88048
3.50308
4.21751
5.2821
6.04358
6.33607
0.671606
1.15289
1.40706
1.84233
2.23203
2.40024
2.98385
4.47942
5.24359
4.65555
0.884823
1.10239
1.24705
1.41263
1.46376
1.36896
1.94328
4.02656
4.56519
2.71656
2.09004
0.543299
1.06116
0.629134
0.660883
0.758487
0.632596
0.300274
0.0619744
0.356487
1.63027
0.236773
0.870032
0.478866
0.566857
0.681307
0.593718
0.356857
0.265846
0.488469
1.3343
0.0583311
0.641906
0.340509
0.478242
0.602054
0.562545
0.459559
0.473219
0.591036
1.09812
0.0146993
0.393945
0.231916
0.393519
0.51853
0.562774
0.626078
0.732737
0.758302
0.848129
0.0891936
0.189666
0.158446
0.315781
0.44209
0.609119
0.805181
0.974942
0.977514
0.635953
0.153921
0.0532348
0.10142
0.24399
0.386363
0.694676
0.975208
1.19426
1.22486
0.463751
0.209217
0.0490853
0.0533442
0.180413
0.365133
0.788475
1.11909
1.38646
1.48105
0.33149
0.210164
0.107286
0.0107947
0.122297
0.373868
0.862416
1.23596
1.55819
1.73598
0.233102
0.195803
0.121932
0.0354338
0.0643901
0.390998
0.906048
1.33115
1.712
1.97712
0.162373
0.174378
0.127259
0.0571409
0.0289242
0.398971
0.925237
1.4124
1.84509
2.20061
9.33657
6.77033
2.66498
1.69946
1.20187
1.12056
0.964722
0.78164
0.796382
2.03314
8.21092
4.63644
2.21505
1.41746
1.06923
1.03565
0.891123
0.650985
0.527948
1.39865
6.12015
3.06395
1.78534
1.2101
0.964278
0.971307
0.832142
0.561234
0.32879
0.74104
4.13318
1.87589
1.49746
1.00359
0.858206
0.904114
0.7758
0.487691
0.228674
0.225151
2.83559
1.06125
1.24632
0.802925
0.755071
0.826527
0.686062
0.356395
0.044431
0.39813
3.5477
4.58915
5.76324
6.87354
7.78045
8.43871
8.87388
9.14148
9.29032
9.35474
2.78094
3.84106
4.95236
6.1079
7.13588
7.94154
8.51189
8.88135
9.09583
9.19255
1.92842
3.07191
4.16219
5.3667
6.51362
7.46063
8.16064
8.62654
8.9003
9.02392
1.05564
2.20313
3.28163
4.54677
5.81005
6.90397
7.74682
8.32105
8.66207
8.8163
0.300523
0.962711
2.06397
3.3375
4.78515
6.10894
7.17548
7.9249
8.37903
8.58742
)
;

boundaryField
{
    left
    {
        type            calculated;
        value           nonuniform List<scalar> 
35
(
0.297882
0.566734
0.98715
1.62619
2.52453
3.69555
5.06612
6.47608
8.1585
9.4418
0.213389
0.133468
0.0810907
0.0492543
0.0326283
0.027404
0.0327699
0.0521837
0.0921294
0.159912
4.93339
4.0616
3.23479
2.51295
1.91712
1.42718
1.03084
0.724689
0.496263
0.330345
9.61573
8.97907
7.92205
6.84777
5.85939
)
;
    }
    right
    {
        type            calculated;
        value           nonuniform List<scalar> 
35
(
1.00998
0.951687
0.904721
0.854688
0.805533
0.757317
0.709809
0.661696
0.613078
0.563959
0.514231
0.46366
0.411884
0.358503
0.302916
0.245029
0.183654
0.121292
0.0575037
0.0218969
0.0432902
0.111921
0.186977
0.257918
0.315588
0.380407
0.448739
0.499587
0.539849
0.570025
0.594012
0.614476
0.635107
0.654943
0.684785
)
;
    }
    down
    {
        type            calculated;
        value           nonuniform List<scalar> 
40
(
9.45431
7.26633
2.89591
1.78864
1.24262
1.14895
0.990212
0.823184
0.897476
2.26036
3.83287
4.88244
6.03395
7.09288
7.94461
8.55502
8.95447
9.19925
9.33565
9.39488
9.39478
9.33536
9.19873
8.9536
8.55369
7.94266
7.08994
6.02876
4.8732
3.8189
2.23228
0.84763
0.761693
0.997588
1.2299
1.31432
1.28577
1.20402
1.13174
1.02937
)
;
    }
    up
    {
        type            calculated;
        value           nonuniform List<scalar> 
40
(
9.0341
7.80882
6.16758
4.3948
3.0334
2.11901
1.5197
1.1315
0.907592
0.6988
9.72927
9.72305
9.71045
9.69064
9.66234
9.62377
9.57263
9.50586
9.42076
9.32814
9.33506
9.42656
9.5104
9.57623
9.62665
9.66461
9.69238
9.71169
9.72379
9.72952
9.27074
7.09622
3.23905
2.15385
2.23541
3.01623
4.34595
6.14874
7.81368
9.04496
)
;
    }
    cylinder
    {
        type            calculated;
        value           nonuniform List<scalar> 
80
(
2.00177
4.57119
5.53845
5.77913
6.30483
7.09054
7.8618
8.47477
8.91246
9.2129
9.44581
9.61871
9.72981
9.79829
9.84096
9.86846
9.8865
9.89817
9.90522
9.90869
9.50039
9.6506
9.74902
9.81046
9.849
9.87389
9.89016
9.90054
9.90657
9.90913
5.32737
6.23402
6.21134
6.3158
6.83451
7.52664
8.1762
8.68599
9.05066
9.3025
0.994298
0.47156
0.264202
0.183217
0.159562
0.16558
0.082849
0.0422785
0.750163
2.43188
9.59446
9.55588
9.46745
9.30187
9.00979
8.51137
7.68626
6.36657
4.38723
2.23879
9.59436
9.55556
9.46683
9.30079
9.00793
8.5082
7.68052
6.3545
4.35816
2.19133
0.95282
0.442282
0.244348
0.170843
0.150279
0.165484
0.160907
0.0839425
0.0433596
0.737176
)
;
    }
    defaultFaces
    {
        type            empty;
    }
}


// ************************************************************************* //
