/*--------------------------------*- C++ -*----------------------------------*\
  =========                 |
  \\      /  F ield         | OpenFOAM: The Open Source CFD Toolbox
   \\    /   O peration     | Website:  https://openfoam.org
    \\  /    A nd           | Version:  13
     \\/     M anipulation  |
\*---------------------------------------------------------------------------*/
FoamFile
{
    format      ascii;
    class       volVectorField;
    location    "0.815";
    object      U;
}
// * * * * * * * * * * * * * * * * * * * * * * * * * * * * * * * * * * * * * //

dimensions      [0 1 -1 0 0 0 0];

internalField   nonuniform List<vector> 
1800
(
(0.0978005 -0.0883283 -4.48857e-20)
(0.286895 -0.24195 -3.41135e-20)
(0.473972 -0.379044 -4.85011e-19)
(0.657692 -0.500159 1.91467e-19)
(0.836612 -0.607173 7.43961e-20)
(1.00992 -0.70138 -3.90521e-20)
(1.17716 -0.783474 5.54988e-20)
(1.33794 -0.853687 1.97469e-19)
(1.4916 -0.912973 5.92291e-19)
(1.63354 -0.966913 8.10084e-19)
(0.11906 -0.0915024 -7.91102e-20)
(0.34429 -0.247709 -7.7061e-19)
(0.563282 -0.384749 3.78143e-21)
(0.775364 -0.504236 1.25741e-19)
(0.979506 -0.608923 -1.26251e-19)
(1.17522 -0.700697 7.65681e-20)
(1.36231 -0.780791 -2.80757e-19)
(1.54078 -0.850103 -5.02972e-20)
(1.71011 -0.910711 -6.93565e-19)
(1.86786 -0.967053 6.2981e-19)
(0.14165 -0.0923227 4.88225e-20)
(0.403679 -0.247731 2.09287e-19)
(0.653754 -0.382117 5.43306e-19)
(0.892178 -0.497904 -1.90255e-19)
(1.11866 -0.598385 -1.4299e-19)
(1.33321 -0.685813 7.5604e-20)
(1.53605 -0.761708 9.82384e-20)
(1.72743 -0.8273 1.94054e-19)
(1.90721 -0.884805 2.73649e-21)
(2.07422 -0.937874 1.5098e-19)
(0.163906 -0.0897207 -4.57189e-20)
(0.461698 -0.23947 -2.0439e-19)
(0.741427 -0.367618 -1.81257e-19)
(1.00451 -0.476976 -1.42292e-19)
(1.25162 -0.571022 1.81302e-19)
(1.48351 -0.652128 -5.70883e-20)
(1.70093 -0.721907 -4.31005e-21)
(1.90453 -0.781624 2.9095e-21)
(2.09455 -0.833368 -1.60481e-19)
(2.27026 -0.880359 -1.05926e-19)
(0.184657 -0.0833563 -1.14035e-19)
(0.515893 -0.221807 8.76385e-20)
(0.823291 -0.33943 1.79835e-19)
(1.10931 -0.439063 2.43298e-19)
(1.37561 -0.524071 -2.85011e-19)
(1.62371 -0.596778 -3.58069e-21)
(1.85494 -0.658767 4.24955e-19)
(2.07043 -0.711263 -1.85055e-19)
(2.27083 -0.756165 -1.23985e-19)
(2.45578 -0.796399 -5.35448e-20)
(0.203189 -0.0735 1.73587e-19)
(0.56447 -0.1952 1.02983e-18)
(0.89679 -0.298074 1.43257e-19)
(1.20351 -0.384735 -5.03129e-19)
(1.48719 -0.458227 -1.75497e-19)
(1.75003 -0.520669 6.37668e-19)
(1.9939 -0.573525 -1.45366e-19)
(2.22036 -0.617901 -4.31562e-19)
(2.43047 -0.655446 -3.16668e-19)
(2.6242 -0.688744 2.61586e-19)
(0.218898 -0.0605912 1.16339e-19)
(0.605744 -0.160701 -7.47583e-19)
(0.959312 -0.24503 -1.08559e-18)
(1.2837 -0.315798 3.83778e-19)
(1.58223 -0.375564 4.49931e-19)
(1.85767 -0.426128 -9.02019e-22)
(2.11239 -0.46874 -6.39654e-19)
(2.34829 -0.504326 2.1931e-19)
(2.56683 -0.534214 -3.64512e-19)
(2.76827 -0.560571 -3.1122e-19)
(0.231235 -0.0451722 -3.42482e-19)
(0.638199 -0.119684 -6.92593e-19)
(1.00849 -0.182294 1.21219e-18)
(1.34677 -0.2347 5.98692e-19)
(1.65693 -0.278852 -2.69751e-19)
(1.94224 -0.316136 -2.11492e-19)
(2.20543 -0.347515 0)
(2.44874 -0.373689 1.16798e-19)
(2.67398 -0.395623 -2.95838e-19)
(2.88171 -0.414971 -7.74216e-20)
(0.239766 -0.0278753 -2.04463e-19)
(0.660651 -0.0737557 5.62377e-19)
(1.04249 -0.112198 1.71005e-19)
(1.39031 -0.144289 -5.12486e-19)
(1.7084 -0.171277 -7.84182e-19)
(2.00037 -0.194053 3.66184e-20)
(2.26924 -0.213246 1.67126e-19)
(2.51752 -0.229294 -5.46831e-19)
(2.74731 -0.242784 -2.89766e-19)
(2.95953 -0.254778 -5.6359e-19)
(0.244259 -0.0094024 4.51402e-19)
(0.672451 -0.024704 3.44144e-19)
(1.0603 -0.0373616 -9.38585e-20)
(1.41303 -0.0477885 -1.29779e-20)
(1.73514 -0.0564623 -3.87502e-19)
(2.03041 -0.0637232 -8.57333e-20)
(2.30205 -0.0698103 -2.90573e-19)
(2.55275 -0.0748906 6.46551e-19)
(2.7848 -0.0791715 1.71001e-19)
(2.99945 -0.0830124 2.22091e-21)
(-0.00234229 -0.0217767 -3.49892e-20)
(0.00858314 -0.0693578 -7.00112e-20)
(0.0248647 -0.12058 -7.33006e-21)
(0.0493003 -0.171335 -3.39715e-20)
(0.0776528 -0.21674 -1.27368e-20)
(0.106486 -0.254879 -3.90074e-19)
(0.135505 -0.288805 -1.95434e-20)
(0.16629 -0.322124 1.19948e-19)
(0.199118 -0.355652 1.09437e-20)
(0.233009 -0.388033 -3.57306e-20)
(0.000850612 -0.0246735 -9.77598e-20)
(0.0149355 -0.0850608 -2.13295e-19)
(0.039345 -0.1604 -5.33741e-20)
(0.0692693 -0.22536 -1.10314e-19)
(0.0994745 -0.275651 -9.62433e-20)
(0.130427 -0.318079 -2.79448e-19)
(0.164439 -0.359076 2.00308e-19)
(0.202101 -0.400495 1.68753e-19)
(0.241604 -0.440429 -2.56885e-19)
(0.281112 -0.476823 8.13951e-20)
(0.00549683 -0.0314802 -8.54142e-20)
(0.0287748 -0.10741 -8.6844e-19)
(0.0628648 -0.196151 -1.30009e-19)
(0.0974519 -0.269034 9.27922e-20)
(0.131801 -0.327278 6.77113e-20)
(0.169628 -0.38035 -4.4853e-19)
(0.212923 -0.432392 3.54609e-20)
(0.259118 -0.481904 3.67031e-19)
(0.305464 -0.526378 -3.86648e-19)
(0.351408 -0.565782 -2.58652e-19)
(0.0113686 -0.0409753 -1.77083e-21)
(0.0466246 -0.130874 1.90082e-19)
(0.0896484 -0.225358 1.60536e-21)
(0.133078 -0.307072 -1.07178e-20)
(0.177782 -0.377913 -3.00138e-20)
(0.227233 -0.443909 8.5968e-20)
(0.281089 -0.505693 7.27521e-20)
(0.335659 -0.560976 -1.36028e-19)
(0.389718 -0.609467 9.20946e-21)
(0.443884 -0.652041 -1.04425e-20)
(0.018509 -0.0507652 0)
(0.0672394 -0.152428 5.5015e-21)
(0.121944 -0.253649 -5.10985e-19)
(0.178697 -0.345498 5.16979e-20)
(0.237807 -0.428604 -9.71294e-21)
(0.300514 -0.505126 5.22233e-21)
(0.365309 -0.574426 -2.52547e-20)
(0.429804 -0.635494 -7.76254e-21)
(0.49394 -0.688908 0)
(0.558132 -0.734926 -2.05821e-20)
(0.0273253 -0.0596468 3.18675e-20)
(0.0918957 -0.172855 -1.54493e-19)
(0.161769 -0.28253 -4.61271e-20)
(0.234632 -0.383901 -5.8303e-20)
(0.309738 -0.47677 4.959e-20)
(0.386739 -0.561559 5.87733e-21)
(0.464245 -0.637735 8.90445e-20)
(0.540939 -0.704986 -2.17562e-20)
(0.61691 -0.763496 -6.96036e-19)
(0.69216 -0.812707 -1.01009e-20)
(0.0379744 -0.0676029 6.78391e-22)
(0.121237 -0.192178 5.55662e-20)
(0.209164 -0.310619 -7.83896e-20)
(0.299928 -0.420182 -1.66874e-20)
(0.392139 -0.520679 -7.29131e-20)
(0.484781 -0.612142 -9.35358e-21)
(0.576705 -0.694346 1.01088e-20)
(0.666946 -0.767173 -2.11396e-19)
(0.755531 -0.830302 3.83394e-19)
(0.842323 -0.882364 9.71384e-19)
(0.0503608 -0.0745999 1.51124e-20)
(0.155129 -0.209609 -1.42235e-19)
(0.263462 -0.335965 -2.13694e-19)
(0.373671 -0.452113 8.8983e-20)
(0.484105 -0.55827 -6.43124e-20)
(0.593548 -0.654624 9.86047e-20)
(0.700948 -0.741288 1.96623e-19)
(0.805414 -0.818317 -1.0898e-19)
(0.907027 -0.885137 -3.0588e-19)
(1.0057 -0.939558 7.25245e-19)
(0.0642895 -0.0803591 -2.65077e-20)
(0.193285 -0.224025 -5.78115e-19)
(0.324297 -0.356559 5.24289e-19)
(0.455684 -0.477231 3.37471e-19)
(0.58574 -0.586747 -8.59112e-20)
(0.713227 -0.685664 3.08609e-19)
(0.837133 -0.774441 -1.59946e-19)
(0.956569 -0.853469 -7.72675e-19)
(1.07174 -0.922052 -4.03662e-19)
(1.18268 -0.977302 4.53606e-19)
(0.0795447 -0.0846655 -7.9818e-20)
(0.235845 -0.234416 -5.44367e-19)
(0.392392 -0.370524 -8.30828e-21)
(0.547542 -0.492795 6.88554e-20)
(0.699595 -0.602464 3.3774e-19)
(0.847394 -0.700436 -1.8538e-19)
(0.990016 -0.787446 -1.69441e-19)
(1.12654 -0.863834 1.88965e-19)
(1.25681 -0.92866 -3.51602e-19)
(1.38008 -0.98037 -5.84529e-19)
(0.402907 -0.532169 9.82524e-19)
(0.68483 -0.618732 -2.40039e-19)
(0.913746 -0.558148 -1.41934e-19)
(1.08775 -0.431779 2.67521e-19)
(1.24043 -0.280739 -2.29874e-19)
(1.36311 -0.140123 -2.99436e-19)
(1.46181 -0.0352221 -2.66617e-19)
(1.52083 0.019204 -3.19204e-20)
(1.5429 0.0338232 -2.58743e-20)
(1.56049 0.0253971 3.00401e-20)
(0.468842 -0.620028 9.64253e-19)
(0.741448 -0.694163 7.09087e-20)
(0.966245 -0.618211 1.09766e-20)
(1.12485 -0.481062 -2.14618e-19)
(1.26577 -0.321175 -7.11358e-19)
(1.38148 -0.172956 0)
(1.48162 -0.0603884 -2.48601e-19)
(1.55827 0.00460249 5.1941e-20)
(1.59739 0.027056 4.55645e-21)
(1.62916 0.0214126 1.9709e-20)
(0.55618 -0.705671 -9.98175e-19)
(0.810734 -0.767127 -7.1095e-20)
(1.02547 -0.676119 1.56193e-19)
(1.16614 -0.528164 -5.40217e-20)
(1.29127 -0.360391 -3.65357e-20)
(1.39748 -0.205677 6.41254e-20)
(1.49339 -0.0874679 0)
(1.57868 -0.0150939 0)
(1.63603 0.0146447 -5.16664e-21)
(1.6894 0.014773 0)
(0.665675 -0.787399 -2.25059e-19)
(0.895553 -0.835677 4.05037e-19)
(1.09187 -0.730812 2.68295e-20)
(1.21236 -0.572092 0)
(1.31788 -0.397487 6.04098e-19)
(1.41219 -0.237235 -1.40823e-19)
(1.50077 -0.114959 0)
(1.58765 -0.0366603 1.36016e-19)
(1.64914 -0.00417619 0)
(1.73793 0.00373955 -3.71473e-20)
(0.795726 -0.864065 -1.48831e-19)
(0.997587 -0.89783 4.55799e-19)
(1.16611 -0.781133 -1.46499e-20)
(1.2637 -0.612019 0)
(1.3463 -0.431636 1.79524e-19)
(1.42609 -0.266869 2.65712e-19)
(1.50565 -0.141675 4.71843e-20)
(1.59053 -0.0584476 6.57993e-21)
(1.64667 -0.0245927 -2.142e-20)
(1.76305 -0.0136773 3.52319e-20)
(0.942245 -0.934913 -1.33304e-18)
(1.11644 -0.952236 -9.43579e-19)
(1.24877 -0.82582 4.75346e-21)
(1.3199 -0.647228 5.76373e-19)
(1.37693 -0.462053 -3.06578e-19)
(1.43929 -0.294004 1.46036e-19)
(1.50889 -0.166789 2.28907e-19)
(1.58798 -0.0795758 -1.87334e-19)
(1.64314 -0.0447385 -1.93754e-21)
(1.74833 -0.0328742 -6.44538e-22)
(1.10011 -0.999571 -2.60988e-19)
(1.24998 -0.99871 2.87026e-19)
(1.3401 -0.863759 3.91127e-21)
(1.38067 -0.677037 -1.76474e-20)
(1.40985 -0.48798 -5.92989e-19)
(1.45179 -0.318087 5.38438e-20)
(1.51041 -0.189738 -9.42304e-20)
(1.58102 -0.0993944 -2.63229e-20)
(1.6403 -0.0629935 4.23241e-21)
(1.70316 -0.045225 -2.35453e-20)
(1.26434 -1.05693 -1.20042e-18)
(1.39472 -1.03786 2.1024e-19)
(1.43909 -0.894362 0)
(1.44502 -0.70102 3.44982e-20)
(1.44437 -0.50892 5.2238e-19)
(1.46325 -0.338654 -1.74872e-21)
(1.50906 -0.210513 -3.18788e-19)
(1.57302 -0.116404 7.11946e-20)
(1.61761 -0.0780597 -1.61861e-21)
(1.6434 -0.0512058 -4.98672e-20)
(1.43202 -1.10357 3.39092e-18)
(1.54804 -1.07059 2.45765e-19)
(1.54554 -0.918334 4.64897e-19)
(1.51321 -0.7196 -3.18021e-20)
(1.48059 -0.525041 -3.44587e-20)
(1.47347 -0.355715 -4.28848e-19)
(1.5031 -0.228308 9.6428e-20)
(1.557 -0.132802 3.08947e-21)
(1.5632 -0.0830176 -2.43327e-20)
(1.57408 -0.0533862 5.98806e-20)
(1.59926 -1.12824 -2.99803e-18)
(1.70186 -1.09577 1.27195e-18)
(1.6539 -0.938323 -2.33415e-19)
(1.58135 -0.736266 -7.89459e-19)
(1.51546 -0.539901 -6.54625e-19)
(1.47976 -0.373072 -2.51917e-19)
(1.4921 -0.246318 -7.15465e-20)
(1.50361 -0.142202 0)
(1.49833 -0.084146 -7.1883e-20)
(1.49862 -0.0540905 1.48197e-19)
(1.8882 -1.17028 -6.71051e-18)
(1.9274 -1.1053 -1.6915e-18)
(1.80481 -0.932507 -5.81005e-20)
(1.67304 -0.728046 1.11726e-19)
(1.56196 -0.535015 1.58588e-19)
(1.48744 -0.374084 -1.00054e-19)
(1.44246 -0.246856 -4.04068e-20)
(1.4186 -0.141448 7.51091e-20)
(1.4061 -0.0827126 -6.32015e-20)
(1.3968 -0.0535762 -6.78677e-20)
(2.28935 -1.13492 4.95922e-19)
(2.17884 -1.05683 -2.91495e-19)
(1.94265 -0.86552 4.90225e-19)
(1.73545 -0.665077 -8.35918e-20)
(1.56141 -0.48147 -7.61317e-21)
(1.42521 -0.334437 -7.40992e-20)
(1.33877 -0.221815 9.32527e-20)
(1.3008 -0.130113 -3.31308e-20)
(1.28169 -0.0771392 2.16149e-19)
(1.26457 -0.0506035 9.80501e-20)
(2.61059 -1.04364 2.27078e-18)
(2.35189 -0.948843 3.25728e-19)
(2.00808 -0.759595 -1.17623e-19)
(1.73216 -0.573126 1.66696e-36)
(1.50456 -0.411217 -2.55969e-20)
(1.33798 -0.287352 1.49973e-33)
(1.23178 -0.192948 -2.10087e-20)
(1.17626 -0.116437 -1.70851e-33)
(1.15029 -0.0696656 6.95581e-21)
(1.12655 -0.0459802 -1.21571e-20)
(2.78701 -0.893999 3.88578e-33)
(2.36935 -0.795677 2.9666e-18)
(1.97341 -0.630569 1.81699e-18)
(1.65316 -0.469524 0)
(1.40598 -0.3352 8.30246e-19)
(1.22888 -0.234071 4.25996e-19)
(1.11222 -0.158275 1.71362e-19)
(1.04539 -0.0984962 -3.01606e-33)
(1.01302 -0.0599975 -5.5463e-20)
(0.983989 -0.0399303 6.88177e-21)
(2.76362 -0.705912 3.8425e-18)
(2.24584 -0.629912 -1.468e-19)
(1.84642 -0.491067 0)
(1.51535 -0.361759 0)
(1.27096 -0.255845 0)
(1.09673 -0.178689 0)
(0.979765 -0.122112 -1.2845e-20)
(0.908114 -0.0781382 -4.29627e-33)
(0.871155 -0.0485708 7.88166e-21)
(0.838286 -0.0327989 5.32482e-34)
(2.55115 -0.517046 3.26552e-18)
(2.02002 -0.462927 0)
(1.6385 -0.353663 0)
(1.32666 -0.256759 0)
(1.10077 -0.179764 0)
(0.941347 -0.12569 0)
(0.832838 -0.0867907 3.30911e-20)
(0.763163 -0.0569944 -9.5195e-20)
(0.724769 -0.0361061 8.78076e-21)
(0.690216 -0.0249937 2.78085e-20)
(2.19011 -0.342715 0)
(1.70261 -0.303517 1.09805e-18)
(1.36125 -0.227615 1.09017e-18)
(1.09126 -0.161993 0)
(0.898302 -0.11236 6.66173e-19)
(0.763786 -0.078786 4.0302e-19)
(0.671226 -0.0550299 2.50643e-19)
(0.609539 -0.037057 8.57943e-20)
(0.573529 -0.0237603 -3.64688e-20)
(0.540198 -0.0171173 -2.61802e-21)
(1.70285 -0.191138 -6.73873e-19)
(1.30018 -0.165596 -2.74173e-19)
(1.02503 -0.121759 1.75652e-19)
(0.815056 -0.0844352 -2.11212e-34)
(0.667659 -0.0580865 -7.71131e-20)
(0.566054 -0.0410808 3.70374e-33)
(0.495382 -0.0291309 4.8754e-20)
(0.446772 -0.0201864 9.89575e-20)
(0.417014 -0.0129321 1.01141e-20)
(0.388398 -0.00992013 -1.42474e-21)
(1.10088 -0.0758221 3.40805e-18)
(0.823155 -0.0626792 -1.86585e-19)
(0.640571 -0.0442946 -5.88973e-19)
(0.506134 -0.0289863 0)
(0.413804 -0.0195675 -6.40131e-19)
(0.350599 -0.0141409 -4.32332e-19)
(0.306032 -0.0103653 -2.04569e-19)
(0.274516 -0.0076082 -1.44631e-19)
(0.254493 -0.00487216 1.81584e-19)
(0.234558 -0.00415278 -3.30736e-20)
(0.397351 -0.00331884 0)
(0.287865 0.0015944 0)
(0.220889 0.00409441 0)
(0.173548 0.00624826 0)
(0.142371 0.00585897 0)
(0.121178 0.00471908 0)
(0.105824 0.00369849 5.5923e-20)
(0.0945295 0.00261705 -2.17693e-34)
(0.0870207 0.00229221 1.26364e-20)
(0.0791724 0.00100786 1.12809e-20)
(3.3671 -0.0863123 5.39217e-19)
(3.32642 -0.265088 -8.41878e-20)
(3.24735 -0.430659 8.52081e-19)
(3.13238 -0.582161 -6.04758e-19)
(2.98634 -0.718129 6.66391e-19)
(2.81524 -0.836388 2.75231e-19)
(2.62661 -0.934067 -1.92749e-18)
(2.42951 -1.00786 -7.74708e-20)
(2.22468 -1.05369 0)
(1.98487 -1.06658 4.26048e-19)
(3.86191 -0.0750607 7.07365e-18)
(3.79859 -0.234216 1.95629e-18)
(3.70428 -0.387315 -4.86731e-18)
(3.58426 -0.531997 -4.49139e-19)
(3.44239 -0.665901 3.55893e-18)
(3.28186 -0.78733 1.92353e-18)
(3.10651 -0.89508 -5.16877e-18)
(2.92205 -0.987719 -1.95221e-18)
(2.7276 -1.06341 2.20318e-18)
(2.49238 -1.12055 8.52199e-19)
(3.83307 -0.0533021 -1.2626e-19)
(3.82024 -0.171569 4.40354e-18)
(3.78546 -0.299765 -1.08815e-18)
(3.72433 -0.430923 -3.44615e-18)
(3.63617 -0.558736 -6.79984e-18)
(3.52371 -0.678809 1.02786e-17)
(3.39117 -0.788802 4.18057e-18)
(3.2435 -0.887997 -3.91182e-18)
(3.08161 -0.978734 -2.90277e-18)
(2.88723 -1.06302 -3.42507e-18)
(3.62866 -0.047287 -4.83934e-18)
(3.61961 -0.144933 -4.35338e-18)
(3.59963 -0.243743 5.47205e-18)
(3.56735 -0.343098 1.91184e-18)
(3.5224 -0.442383 -8.97109e-18)
(3.46416 -0.540814 4.92133e-19)
(3.39182 -0.637054 3.88631e-18)
(3.30511 -0.73044 -1.0539e-18)
(3.20498 -0.823076 1.27677e-18)
(3.08304 -0.914786 2.81777e-19)
(3.34405 -0.0365793 -9.15979e-19)
(3.339 -0.111657 3.00406e-18)
(3.3271 -0.188677 1.61955e-18)
(3.30744 -0.267173 -1.89421e-18)
(3.27986 -0.346072 -2.00133e-18)
(3.24465 -0.42414 -2.43394e-18)
(3.20203 -0.500339 3.79652e-19)
(3.15175 -0.574499 1.39026e-19)
(3.09547 -0.647766 -2.13963e-18)
(3.03285 -0.721314 -2.03429e-18)
(2.96257 -0.0265553 -1.82246e-18)
(2.95981 -0.0798896 -5.8728e-20)
(2.9533 -0.1346 -1.6375e-18)
(2.9424 -0.190904 3.12136e-19)
(2.92675 -0.248551 5.36775e-18)
(2.90629 -0.306931 -3.66748e-19)
(2.88091 -0.365117 4.43381e-20)
(2.85022 -0.422061 -2.60855e-18)
(2.81643 -0.476885 -3.49558e-18)
(2.78599 -0.529868 3.72844e-19)
(2.48713 -0.0175113 -2.89324e-20)
(2.48578 -0.0519353 -8.143e-19)
(2.48259 -0.0872487 -2.6148e-18)
(2.47707 -0.123772 -3.43096e-18)
(2.4688 -0.161534 2.49651e-18)
(2.45744 -0.200268 1.50223e-18)
(2.44261 -0.239354 -1.38505e-18)
(2.4237 -0.277792 1.62448e-18)
(2.40274 -0.314484 -4.29705e-19)
(2.38953 -0.349543 -9.6376e-19)
(1.91464 -0.00968874 7.72441e-19)
(1.91408 -0.0282979 -8.31779e-19)
(1.91278 -0.0474399 -3.27676e-20)
(1.91031 -0.0673593 -3.47247e-20)
(1.90624 -0.0881303 -7.27408e-20)
(1.90013 -0.109615 -2.33191e-18)
(1.89151 -0.131405 -6.78668e-19)
(1.87978 -0.152783 2.62609e-18)
(1.86664 -0.172975 -6.03505e-19)
(1.86191 -0.192208 -1.35114e-18)
(1.23989 -0.00373779 -1.64278e-18)
(1.23967 -0.0106958 -8.48892e-19)
(1.23923 -0.0179013 2.33914e-18)
(1.23823 -0.0254786 -8.89757e-19)
(1.23625 -0.0334753 -6.7411e-19)
(1.2329 -0.0418316 1.352e-18)
(1.22775 -0.05035 -1.29587e-18)
(1.22038 -0.0586655 1.28698e-18)
(1.21202 -0.0663426 -1.21031e-18)
(1.21007 -0.0735084 -4.24827e-18)
(0.454916 -0.000257992 6.63064e-19)
(0.454827 -0.000700542 7.03037e-19)
(0.454692 -0.00115912 7.48164e-19)
(0.454325 -0.00164005 1.35394e-18)
(0.453496 -0.00214017 -6.71972e-19)
(0.451984 -0.00263718 -1.2996e-18)
(0.449568 -0.00309909 6.14706e-19)
(0.445993 -0.00359291 2.48374e-20)
(0.441737 -0.00439221 -4.96533e-20)
(0.44035 -0.00504563 1.1057e-19)
(1.65357 0.997289 -2.85826e-19)
(1.51228 0.941871 1.79924e-20)
(1.3588 0.880754 -2.28745e-19)
(1.19768 0.808443 1.76306e-19)
(1.02957 0.723981 -1.91857e-19)
(0.854824 0.627078 -1.01083e-19)
(0.673759 0.516942 2.31973e-19)
(0.487035 0.392146 -3.04881e-19)
(0.29589 0.250642 3.09879e-19)
(0.101429 0.0916433 2.38696e-19)
(1.88639 0.992201 0)
(1.72968 0.934747 6.39387e-19)
(1.56084 0.872773 3.32618e-19)
(1.38229 0.801856 1.62665e-19)
(1.19453 0.719879 4.31135e-19)
(0.997534 0.625899 -8.68414e-20)
(0.79136 0.518601 -7.85292e-20)
(0.576346 0.395989 8.8743e-20)
(0.353317 0.255174 -1.04514e-18)
(0.122698 0.0943547 -1.66582e-20)
(2.09104 0.959044 1.56801e-19)
(1.92523 0.905072 0)
(1.74614 0.846465 -1.00731e-19)
(1.55494 0.779551 -3.83322e-19)
(1.3517 0.702083 5.37032e-20)
(1.13609 0.61279 3.97075e-19)
(0.907783 0.510088 -6.06845e-19)
(0.666588 0.391637 -2.00884e-19)
(0.412594 0.254044 7.83577e-19)
(0.14525 0.0947346 -1.75924e-19)
(2.28485 0.898358 1.87946e-19)
(2.11045 0.850563 1.19745e-20)
(1.9213 0.797862 2.45248e-20)
(1.71811 0.737001 3.60819e-20)
(1.50058 0.665856 -2.9293e-20)
(1.26792 0.583132 2.73236e-19)
(1.01926 0.487167 -2.0687e-19)
(0.753673 0.37553 -8.55541e-19)
(0.47027 0.244677 0)
(0.167387 0.0916961 0)
(2.46796 0.811821 -1.07083e-18)
(2.28436 0.770837 -6.09234e-19)
(2.08493 0.725062 -1.20685e-19)
(1.87003 0.671522 -6.65695e-20)
(1.6389 0.608295 0)
(1.39031 0.534136 2.40741e-19)
(1.12275 0.447433 2.67766e-19)
(0.834553 0.345834 2.86229e-19)
(0.523838 0.225952 -4.23727e-19)
(0.187907 0.0848977 -8.12314e-20)
(2.634 0.702094 7.66433e-19)
(2.44156 0.668064 -1.39169e-19)
(2.23244 0.629679 -2.21591e-19)
(2.00664 0.584305 0)
(1.76301 0.530278 0)
(1.49988 0.466487 0)
(1.21522 0.391463 -3.89787e-20)
(0.906683 0.303089 3.70272e-19)
(0.571497 0.198348 3.79146e-19)
(0.206082 0.074624 -3.0856e-19)
(2.7758 0.572356 -1.19357e-18)
(2.5755 0.54526 -1.48139e-18)
(2.35786 0.514529 -3.03356e-22)
(2.1226 0.477946 -1.8765e-19)
(1.86818 0.434181 -9.28778e-20)
(1.59258 0.382318 -1.78831e-19)
(1.29332 0.321124 4.5908e-19)
(0.967488 0.248836 2.14862e-19)
(0.611582 0.162966 5.40014e-19)
(0.221314 0.0613401 2.02848e-19)
(2.88707 0.425748 -1.15708e-18)
(2.68027 0.405633 8.4704e-20)
(2.45576 0.38282 1.64527e-19)
(2.21297 0.355611 1.68145e-20)
(1.95004 0.323051 -3.14395e-19)
(1.66465 0.284468 -1.74202e-19)
(1.35397 0.238937 -6.21198e-19)
(1.01463 0.18514 1.18529e-19)
(0.642603 0.121236 5.14735e-20)
(0.233065 0.0456126 -6.26918e-21)
(2.96279 0.265187 1.01365e-19)
(2.7512 0.252354 3.97e-19)
(2.52189 0.237904 -3.3029e-19)
(2.27394 0.22074 3.63006e-19)
(2.00523 0.200297 3.72543e-19)
(1.71322 0.176176 4.91889e-19)
(1.39481 0.147809 -6.3573e-19)
(1.04633 0.114389 -3.2441e-19)
(0.66341 0.0748096 -4.58504e-20)
(0.240916 0.0280951 -3.26989e-19)
(3.00052 0.0935771 5.8181e-19)
(2.78612 0.0887855 -1.8616e-19)
(2.55425 0.0834439 4.79558e-19)
(2.30366 0.07715 -3.1066e-19)
(2.03208 0.0697278 2.66476e-19)
(1.73679 0.0610617 6.054e-19)
(1.41457 0.0509783 3.78879e-19)
(1.06161 0.0392345 3.09337e-19)
(0.673395 0.0255065 2.65858e-19)
(0.244653 0.00950721 5.43607e-19)
(0.239641 0.45225 -4.69271e-19)
(0.204032 0.418522 -1.87843e-19)
(0.168457 0.381428 1.39221e-19)
(0.134918 0.343751 -4.19153e-19)
(0.105178 0.307616 -1.19375e-19)
(0.0782805 0.270362 6.92864e-19)
(0.051906 0.223958 3.35789e-19)
(0.0259834 0.159088 -1.55196e-19)
(0.00706492 0.0797434 1.14866e-19)
(-0.001122 0.0224599 -6.0765e-20)
(0.288664 0.544544 4.11483e-19)
(0.248759 0.507743 4.58498e-19)
(0.20821 0.465687 -1.15837e-20)
(0.167878 0.418646 -1.32833e-19)
(0.131149 0.370504 -3.1366e-19)
(0.100615 0.322891 8.28476e-20)
(0.0734882 0.269557 2.2533e-19)
(0.0459092 0.197084 1.65588e-19)
(0.0183539 0.101971 -5.91331e-19)
(0.00279501 0.0288986 -1.23669e-19)
(0.359652 0.633355 -6.00968e-19)
(0.313789 0.5932 -4.81527e-19)
(0.267995 0.547353 2.5779e-19)
(0.221355 0.494033 1.38385e-19)
(0.17581 0.434253 -6.18154e-21)
(0.136271 0.372021 -1.40208e-19)
(0.10212 0.305732 -2.96183e-20)
(0.0684416 0.22499 -5.54978e-19)
(0.0336809 0.126089 -2.69356e-19)
(0.00764425 0.0378221 -3.90563e-20)
(0.454198 0.718083 5.03376e-19)
(0.400044 0.673878 1.6474e-19)
(0.346354 0.622855 -1.49458e-19)
(0.292222 0.563797 6.32122e-20)
(0.237744 0.495683 -5.96493e-22)
(0.186584 0.420985 1.28495e-21)
(0.140103 0.340744 -1.32474e-19)
(0.0954616 0.250314 3.78198e-19)
(0.0514412 0.147778 -4.19183e-19)
(0.0135859 0.0477273 -6.50445e-20)
(0.57199 0.798031 -2.82171e-19)
(0.507845 0.749925 -8.88806e-20)
(0.443567 0.693065 -1.43605e-20)
(0.37896 0.62733 -7.04552e-20)
(0.313715 0.552055 5.86401e-20)
(0.24966 0.468138 5.28973e-20)
(0.188379 0.376769 -2.79947e-20)
(0.129326 0.276689 -2.82027e-19)
(0.0725306 0.167664 2.18297e-19)
(0.0209221 0.0568493 8.72485e-20)
(0.709408 0.871087 6.43246e-19)
(0.63436 0.819692 3.20659e-19)
(0.558126 0.757512 2.02816e-19)
(0.480853 0.685434 4.82242e-20)
(0.402411 0.603584 1.55256e-19)
(0.32387 0.512404 7.86469e-20)
(0.246468 0.412547 1.4353e-19)
(0.170867 0.30393 5.79467e-20)
(0.0980557 0.18681 -1.58705e-20)
(0.0299994 0.0650348 -1.32878e-20)
(0.86202 0.934976 -1.1978e-19)
(0.775542 0.880767 -8.24471e-19)
(0.686704 0.814128 -7.57469e-20)
(0.595726 0.736872 -5.26969e-20)
(0.502563 0.649659 -1.9851e-20)
(0.408126 0.552734 1.51628e-19)
(0.31348 0.446325 -4.38077e-20)
(0.219711 0.330421 6.49541e-20)
(0.128294 0.205084 -1.44615e-19)
(0.0409052 0.0724954 -1.26983e-21)
(1.02673 0.986115 -8.84579e-19)
(0.928474 0.929705 5.94311e-20)
(0.826661 0.859758 -2.34114e-19)
(0.721467 0.778923 -7.2346e-20)
(0.612771 0.688031 -2.38448e-20)
(0.501459 0.587082 -7.51935e-20)
(0.388528 0.475901 5.62556e-20)
(0.275164 0.354199 6.02957e-20)
(0.162983 0.221559 -9.82096e-21)
(0.0535444 0.0791211 -1.03767e-19)
(1.20391 1.018 1.23818e-19)
(1.09351 0.960991 5.22978e-19)
(0.97826 0.889756 1.55112e-21)
(0.858228 0.80758 -2.94936e-20)
(0.733149 0.715317 1.50787e-19)
(0.603894 0.612559 -3.47193e-19)
(0.471405 0.498756 -2.44343e-19)
(0.336831 0.373211 3.56094e-19)
(0.201772 0.235008 1.44171e-19)
(0.0677021 0.0845325 -3.62047e-20)
(1.4006 1.01551 7.39619e-19)
(1.27807 0.96238 3.23651e-19)
(1.14783 0.895391 5.59422e-20)
(1.01088 0.816422 -1.94831e-19)
(0.867274 0.726534 -1.6426e-20)
(0.717903 0.625344 4.65521e-19)
(0.563585 0.512007 -2.68188e-19)
(0.405341 0.385476 -1.8447e-19)
(0.244705 0.24432 3.35781e-19)
(0.0831137 0.0884406 -6.0353e-21)
(0.977402 0.0988958 8.59532e-21)
(1.14133 0.142484 -1.94145e-21)
(1.21369 0.190673 -2.4042e-20)
(1.32662 0.170185 0)
(1.37942 0.155271 -3.50317e-22)
(1.28012 0.233958 -5.76466e-20)
(1.13021 0.385534 -5.43234e-20)
(0.949838 0.54362 -1.01614e-20)
(0.711917 0.648582 -3.07471e-19)
(0.416667 0.59578 4.21672e-19)
(0.983017 0.0801563 1.99048e-19)
(1.13301 0.114791 -3.19117e-20)
(1.21049 0.160205 1.88705e-21)
(1.31736 0.150786 1.09349e-20)
(1.38341 0.157491 3.28354e-21)
(1.29999 0.268717 -1.64765e-21)
(1.1601 0.435831 9.41232e-21)
(0.994341 0.606788 0)
(0.761712 0.727692 8.0489e-19)
(0.479459 0.687006 -5.69845e-19)
(0.988369 0.0617034 -1.14261e-19)
(1.12941 0.0881112 6.48596e-21)
(1.21036 0.130591 7.82854e-20)
(1.31418 0.130045 1.92161e-20)
(1.38689 0.158776 -2.33051e-20)
(1.31983 0.301489 -3.47862e-20)
(1.19306 0.484656 -1.4441e-20)
(1.04431 0.668378 4.47866e-20)
(0.823199 0.804215 -1.27737e-21)
(0.564479 0.774804 -3.63273e-19)
(0.993192 0.0429327 -8.09752e-20)
(1.13019 0.0620395 1.53566e-20)
(1.21369 0.101642 7.55742e-20)
(1.3174 0.109188 3.14879e-20)
(1.39268 0.159666 -2.39617e-20)
(1.33986 0.332201 -2.79945e-20)
(1.22947 0.531278 8.04211e-20)
(1.10031 0.727243 2.69674e-20)
(0.899906 0.875885 -5.49752e-19)
(0.673677 0.857209 -1.776e-19)
(0.99712 0.0234116 3.62435e-20)
(1.13451 0.0361249 -4.55952e-20)
(1.22001 0.0732371 -6.76509e-20)
(1.32564 0.088958 2.29953e-20)
(1.39986 0.161111 0)
(1.35979 0.361226 0)
(1.26944 0.57502 8.07016e-20)
(1.16351 0.781987 -2.83044e-20)
(0.994622 0.940211 -1.18374e-19)
(0.805085 0.932577 -5.73922e-20)
(0.999689 0.00296735 3.28148e-21)
(1.14133 0.00994603 5.8118e-20)
(1.22836 0.0452788 -2.07569e-19)
(1.33697 0.0698915 -7.75162e-20)
(1.40724 0.163944 -4.76113e-21)
(1.37955 0.388694 1.29916e-19)
(1.3132 0.615008 1.56117e-19)
(1.23546 0.830884 -1.80578e-20)
(1.10775 0.995394 -4.43837e-20)
(0.953747 1.00027 3.15729e-21)
(1.00007 -0.0184877 2.39525e-21)
(1.14974 -0.0168667 3.04475e-20)
(1.23779 0.0177848 -6.56182e-20)
(1.34982 0.0524741 -1.57189e-19)
(1.41395 0.168417 1.16829e-20)
(1.39942 0.414258 7.3129e-21)
(1.36137 0.650115 -5.98839e-20)
(1.31727 0.872282 -1.06597e-19)
(1.23725 1.04116 -3.10441e-20)
(1.11387 1.06043 -9.79537e-19)
(0.997483 -0.0406415 1.50397e-20)
(1.15919 -0.0446104 -1.46217e-19)
(1.24763 -0.00906584 1.32989e-19)
(1.36296 0.0374336 1.03436e-19)
(1.41887 0.174985 4.99307e-21)
(1.41941 0.437438 -1.36341e-19)
(1.41384 0.679303 1.08793e-21)
(1.40827 0.905253 -1.35431e-19)
(1.37929 1.07837 1.10994e-20)
(1.27988 1.11251 2.8831e-18)
(0.992005 -0.0628979 -8.88569e-20)
(1.16963 -0.0734083 8.15894e-20)
(1.2576 -0.035086 1.9161e-19)
(1.37573 0.0248828 -1.15754e-19)
(1.42257 0.183408 -2.30954e-19)
(1.4411 0.457925 9.26001e-21)
(1.47187 0.70244 1.70918e-19)
(1.50843 0.930509 -5.78474e-19)
(1.53083 1.10833 -2.68523e-20)
(1.44837 1.15347 -6.47508e-18)
(0.984605 -0.0857709 4.09472e-21)
(1.18139 -0.103248 1.43449e-19)
(1.26761 -0.0600776 6.19175e-20)
(1.38701 0.0172831 -2.79686e-19)
(1.42289 0.197748 -2.48574e-19)
(1.46206 0.47929 -7.44776e-20)
(1.5311 0.72332 8.37672e-20)
(1.61154 0.9514 -2.0245e-19)
(1.68374 1.13067 -1.08588e-18)
(1.61565 1.17242 -7.95118e-18)
(0.974485 -0.11686 -1.44946e-20)
(1.19584 -0.142861 -3.32495e-20)
(1.27693 -0.093764 -7.77472e-20)
(1.39754 0.00313405 1.45809e-19)
(1.42393 0.197002 2.04878e-19)
(1.49166 0.47472 -6.21804e-20)
(1.61186 0.71267 -1.42013e-19)
(1.75375 0.940522 -1.19925e-18)
(1.9028 1.13265 -1.5988e-18)
(1.89937 1.20875 3.28578e-18)
(0.962076 -0.155574 -4.04218e-19)
(1.21457 -0.192315 1.90092e-20)
(1.281 -0.139728 -5.88841e-20)
(1.39771 -0.0182741 3.42528e-19)
(1.40121 0.174947 3.46789e-19)
(1.4929 0.42956 7.98627e-21)
(1.66792 0.64823 -6.46464e-20)
(1.8806 0.866069 -2.80963e-19)
(2.13955 1.07148 2.80504e-19)
(2.28455 1.16089 -3.23536e-19)
(0.949397 -0.196124 -2.79068e-20)
(1.23994 -0.242186 -5.50217e-20)
(1.28026 -0.184344 3.0906e-20)
(1.39275 -0.0363474 2.69756e-20)
(1.37392 0.164004 1.71663e-33)
(1.46902 0.372021 2.56069e-21)
(1.68003 0.561587 -2.03122e-33)
(1.94884 0.759721 1.85093e-19)
(2.30184 0.95647 -9.30852e-19)
(2.58734 1.0585 -6.29253e-19)
(0.937 -0.242922 1.41035e-18)
(1.27148 -0.282227 -7.76055e-34)
(1.24944 -0.229397 -4.06018e-20)
(1.26931 -0.0373111 -2.28593e-19)
(1.26095 0.145145 -4.45046e-19)
(1.38868 0.302954 -8.80885e-19)
(1.61869 0.460234 -5.05785e-33)
(1.92898 0.631192 -1.73746e-18)
(2.32566 0.802147 -3.17766e-18)
(2.75369 0.90262 1.67509e-18)
(0.927293 -0.300537 0)
(1.31677 -0.327177 -1.61871e-33)
(1.11263 -0.207238 0)
(1.10646 -0.0299897 0)
(1.1183 0.115213 0)
(1.25821 0.233129 0)
(1.48933 0.355541 -8.05307e-33)
(1.81484 0.491628 0)
(2.21337 0.634315 -3.39697e-19)
(2.73494 0.712035 1.25744e-18)
(0.916496 -0.360822 1.16137e-19)
(1.25155 -0.326168 -4.68358e-19)
(0.960059 -0.17427 -5.51077e-20)
(0.933386 -0.0260387 0)
(0.955669 0.0827624 0)
(1.08986 0.16563 6.03407e-20)
(1.30616 0.253969 1.17578e-18)
(1.61586 0.354721 -1.95055e-19)
(1.99666 0.466217 -4.95301e-19)
(2.53243 0.520489 4.67312e-18)
(0.883472 -0.405315 -1.52014e-17)
(1.09208 -0.279962 1.08694e-18)
(0.792682 -0.130597 -7.27638e-20)
(0.74664 -0.0211446 -7.35569e-20)
(0.772525 0.0525635 -5.13065e-19)
(0.889391 0.104612 -7.72965e-19)
(1.0762 0.161315 -1.0478e-18)
(1.34599 0.229034 -1.382e-18)
(1.68759 0.306123 -1.60507e-18)
(2.17992 0.344448 3.61234e-18)
(0.809006 -0.394516 -4.13689e-19)
(0.886456 -0.207589 -1.2165e-18)
(0.605573 -0.0828982 -1.2562e-19)
(0.549447 -0.0153206 -8.42464e-20)
(0.571625 0.0276171 -9.90857e-34)
(0.661487 0.054583 9.36408e-20)
(0.805376 0.0846052 -1.48489e-32)
(1.01618 0.122947 -1.93435e-19)
(1.29246 0.16731 2.98961e-19)
(1.69929 0.192072 7.05779e-19)
(0.664255 -0.288843 3.42549e-17)
(0.618254 -0.108102 -3.14003e-18)
(0.39339 -0.0351287 -2.40649e-19)
(0.339257 -0.00736676 -1.5881e-19)
(0.353615 0.00924957 3.9424e-19)
(0.410395 0.0183687 7.84392e-19)
(0.501154 0.0291979 7.95395e-19)
(0.636717 0.0448871 4.59877e-19)
(0.820751 0.0634569 -1.90451e-19)
(1.10156 0.0762255 3.56945e-18)
(0.336838 -0.0768233 5.5883e-19)
(0.26185 -0.00230479 -6.76606e-33)
(0.144385 0.0190786 -3.04866e-19)
(0.120369 0.00337479 0)
(0.123575 -0.00235362 0)
(0.141825 -0.00541817 9.63403e-20)
(0.172357 -0.00624785 9.36074e-35)
(0.220292 -0.00417731 -1.2357e-19)
(0.288129 -0.00161939 -2.82626e-19)
(0.399011 0.00331823 1.0016e-18)
(2.00206 1.09644 -1.78987e-18)
(2.23907 1.07848 -2.30494e-18)
(2.44208 1.02912 0)
(2.63708 0.952514 -7.58015e-19)
(2.82359 0.852517 -1.78265e-18)
(2.99276 0.732396 -2.24949e-18)
(3.13709 0.595046 -4.75866e-19)
(3.25054 0.4427 1.26927e-18)
(3.32824 0.276966 -3.54789e-18)
(3.36764 0.0986983 1.35668e-18)
(2.49868 1.14201 2.67742e-19)
(2.73057 1.08195 1.39739e-18)
(2.92388 1.00422 1.43923e-19)
(3.10674 0.909818 6.75722e-19)
(3.2806 0.800673 -1.10399e-18)
(3.43997 0.678334 -5.0005e-18)
(3.58096 0.544019 2.46807e-18)
(3.70047 0.399325 1.27035e-17)
(3.79428 0.246327 1.04071e-19)