/*--------------------------------*- C++ -*----------------------------------*\
  =========                 |
  \\      /  F ield         | OpenFOAM: The Open Source CFD Toolbox
   \\    /   O peration     | Website:  https://openfoam.org
    \\  /    A nd           | Version:  13
     \\/     M anipulation  |
\*---------------------------------------------------------------------------*/
FoamFile
{
    format      ascii;
    class       volScalarField;
    location    "35";
    object      p;
}
// * * * * * * * * * * * * * * * * * * * * * * * * * * * * * * * * * * * * * //

dimensions      [0 2 -2 0 0 0 0];

internalField   nonuniform List<scalar> 
440
(
-0.705157
-0.698266
-0.762945
-0.669474
-0.735791
-0.644956
-0.641993
-0.646157
-0.643675
-0.642396
-0.77577
-0.745071
-0.715788
-0.68049
-0.639511
-0.893687
-0.848805
-0.773461
-0.683063
-0.591138
-0.989171
-0.927969
-0.79178
-0.648435
-0.515566
-1.27646
-1.24571
-1.20205
-1.15835
-1.12556
-1.25794
-1.22958
-1.19373
-1.16075
-1.13705
-1.24854
-1.27304
-1.33373
-1.41089
-1.49412
-0.956771
-1.02966
-1.17552
-1.3492
-1.45771
-0.234411
-0.337003
-0.455521
-0.495933
-0.454011
-0.806913
-1.86771
-1.41569
-0.0749799
0.0300656
-0.668707
-1.82689
-1.6813
-0.112869
0.0107248
-0.573719
-1.59365
-1.72151
-0.144488
-0.00368898
-0.434023
-1.30881
-1.65157
-0.174721
-0.0143523
-0.300595
-1.03533
-1.47864
-0.198984
-0.0183468
0.24372
-0.774632
-1.19773
-0.193817
-0.0222262
-0.181916
-0.57319
-0.836153
-0.179595
-0.0314586
-0.0674624
-0.349146
-0.564529
-0.20476
-0.0485577
-0.0255383
-0.264196
-0.440493
-0.18938
-0.0625876
0.0146507
-0.0982974
-0.358969
-0.222735
-0.0728714
-0.284468
-0.416859
-0.56083
-0.720121
-0.783624
-0.054568
-0.184642
-0.252174
-0.291987
-0.288942
0.091847
-0.00990445
-0.0741585
-0.113049
-0.133423
0.186659
0.0941319
0.0212156
-0.020332
-0.0456096
0.231551
0.139404
0.0626918
0.0220117
-0.00205879
0.926387
0.791147
0.619662
0.425337
0.204605
0.548602
0.398655
0.211909
0.000464769
-0.236744
0.168913
0.0134697
-0.181604
-0.404812
-0.612823
-0.150792
-0.312133
-0.507236
-0.718131
-0.876919
-0.373297
-0.528566
-0.707025
-0.892229
-0.994332
2.07807
2.11115
2.14381
2.16378
2.16611
1.90388
1.92628
1.94481
1.94767
1.93003
1.68838
1.68231
1.65539
1.6067
1.53333
1.4377
1.40721
1.34395
1.25089
1.12915
1.18515
1.09652
0.976978
0.833345
0.657097
1.81114
1.80392
1.79172
1.84891
1.954
1.80232
1.79285
1.77634
1.82872
1.87722
1.79451
1.77854
1.75815
1.79558
1.78004
1.78797
1.7618
1.73744
1.75054
1.62813
1.78266
1.744
1.7147
1.70287
1.46534
1.77912
1.71528
1.68431
1.60988
1.28588
1.77964
1.68456
1.66822
1.49649
1.2984
1.78503
1.67034
1.6574
1.43902
1.26927
1.77997
1.64666
1.65374
1.39331
1.25089
1.81942
1.6379
1.65403
1.36777
1.25401
0.896848
0.629818
0.313077
0.0560391
-0.13889
0.842942
0.653745
0.432939
0.247002
0.0733718
0.857982
0.697472
0.527311
0.365532
0.216195
0.897266
0.747435
0.596148
0.4446
0.310527
0.924612
0.779633
0.636454
0.488629
0.358475
-1.95036
-1.75929
-1.553
-1.37991
-1.27469
-2.02999
-1.93968
-1.76837
-1.61331
-1.50451
-1.94691
-1.88917
-1.76355
-1.63441
-1.5206
-1.77976
-1.72699
-1.65575
-1.57154
-1.48294
-1.60694
-1.57697
-1.53801
-1.4942
-1.45032
-1.50939
-1.49829
-1.45792
-1.49013
-1.44356
-1.48517
-1.47451
-1.45004
-1.48255
-1.44303
-1.46639
-1.46188
-1.46208
-1.48045
-1.49495
-1.40643
-1.40162
-1.40099
-1.40934
-1.4319
-1.33168
-1.31657
-1.29545
-1.27361
-1.26649
-1.23318
-1.12452
-0.468428
0.0765334
0.11753
-1.27852
-1.27859
-0.47404
-0.0495366
0.117613
-1.31557
-1.46215
-0.450672
-0.1167
0.116541
-1.18371
-1.64121
-0.469701
-0.0791708
0.100709
-0.94304
-1.76087
-0.93442
-0.0525677
0.0612038
-0.719833
-1.1659
-0.572162
0.172742
0.124205
-1.12109
-1.13346
-0.455374
0.179298
0.122385
-1.21501
-1.42341
-1.42256
-1.32303
-1.0784
-1.23696
-1.44485
-1.43871
-1.37038
-1.30803
1.63921
1.60575
1.55239
1.48043
1.38604
1.84703
1.86311
1.8615
1.84028
1.80005
2.02694
2.05742
2.07823
2.08515
2.07694
2.13431
2.17349
2.21484
2.24815
2.26255
2.1526
2.19148
2.23503
2.27186
2.28918
-0.763452
-0.890656
-1.08992
-1.32552
-1.61838
-0.0950165
-0.252567
-0.461177
-0.713257
-1.04697
0.519737
0.358667
0.164155
-0.0669464
-0.365987
1.01437
0.886819
0.732431
0.545032
0.312766
1.40776
1.31833
1.20151
1.06051
0.892572
1.87007
1.83
1.81479
1.81299
1.81232
1.85532
1.82803
1.81538
1.8337
1.88732
1.84286
1.82466
1.81636
1.85611
1.97251
1.83135
1.81987
1.81187
1.86411
1.99006
1.82077
1.81329
1.80343
1.86189
1.99037
1.92461
1.83399
1.79957
1.73043
1.67642
1.87987
1.82572
1.79567
1.75442
1.68607
1.27975
1.02653
0.591526
-0.0381537
-0.722954
1.37164
1.06519
0.60901
-0.0164277
-0.716166
)
;

boundaryField
{
    left
    {
        type            zeroGradient;
    }
    right
    {
        type            fixedValue;
        value           uniform 0;
    }
    down
    {
        type            zeroGradient;
    }
    up
    {
        type            zeroGradient;
    }
    cylinder
    {
        type            zeroGradient;
    }
    defaultFaces
    {
        type            empty;
    }
}


// ************************************************************************* //
