/*--------------------------------*- C++ -*----------------------------------*\
  =========                 |
  \\      /  F ield         | OpenFOAM: The Open Source CFD Toolbox
   \\    /   O peration     | Website:  https://openfoam.org
    \\  /    A nd           | Version:  13
     \\/     M anipulation  |
\*---------------------------------------------------------------------------*/
FoamFile
{
    format      ascii;
    class       volVectorField;
    location    "35";
    object      U;
}
// * * * * * * * * * * * * * * * * * * * * * * * * * * * * * * * * * * * * * //

dimensions      [0 1 -1 0 0 0 0];

internalField   nonuniform List<vector> 
440
(
(-0.199105 0.163587 -5.88075e-20)
(-0.221736 0.195657 -2.65431e-19)
(-0.0738601 0.0823869 7.65079e-20)
(0.284313 0.0800337 -1.3713e-19)
(0.249334 0.147277 2.29511e-20)
(-0.0704634 0.0460305 1.70899e-20)
(0.0621954 0.0465721 -3.38059e-21)
(0.523098 -0.00998391 9.39387e-21)
(1.03908 -0.0298717 6.66341e-21)
(1.51033 -0.0390345 -1.59959e-20)
(-0.0331444 0.015067 5.52108e-20)
(0.43455 -0.0247997 6.07811e-19)
(1.16482 -0.0121625 -3.10811e-19)
(1.75174 0.0122166 -1.02357e-18)
(2.25069 0.0358048 4.52575e-19)
(0.175183 -0.0400368 -1.61021e-19)
(1.10224 0.00424611 -4.72687e-19)
(1.86873 0.0740708 1.49285e-18)
(2.30473 0.120497 1.65429e-18)
(2.41918 0.133569 -4.48521e-19)
(0.508188 -0.00744733 -2.75452e-19)
(1.63906 0.176239 -5.71362e-19)
(2.19025 0.261488 1.73552e-18)
(2.3377 0.278435 1.89099e-18)
(2.39762 0.257764 6.46612e-19)
(0.0190087 -0.212226 -9.23927e-20)
(0.0831456 -0.447934 -3.09514e-19)
(0.13087 -0.51126 5.43624e-19)
(0.156706 -0.449951 -7.68161e-20)
(0.137337 -0.301121 -6.45408e-19)
(0.103221 -0.307731 1.11493e-19)
(0.286138 -0.592407 3.89211e-19)
(0.355691 -0.614253 4.16176e-20)
(0.373799 -0.481417 4.43208e-20)
(0.297726 -0.257619 -8.88095e-20)
(0.278147 -0.517715 3.53944e-19)
(0.497424 -0.809351 6.33402e-19)
(0.52336 -0.78566 8.22777e-21)
(0.485323 -0.62028 -1.23979e-18)
(0.34751 -0.375354 3.70954e-21)
(0.361737 -0.604953 4.17604e-19)
(0.325829 -0.858306 -6.96068e-19)
(0.15195 -0.839123 1.01074e-18)
(-0.0340026 -0.734641 1.93391e-18)
(-0.199505 -0.516885 -5.44691e-20)
(-0.0488134 -0.12987 8.33157e-20)
(-0.311765 -0.393227 2.17633e-19)
(-0.475434 -0.587755 3.17389e-19)
(-0.587413 -0.636041 1.20514e-19)
(-0.735966 -0.53688 1.0878e-18)
(0.298099 0.806846 1.18157e-18)
(-1.02545 0.842893 3.76216e-19)
(1.28387 -0.767337 1.08013e-18)
(0.978752 -1.03826 -1.37112e-19)
(1.29721 -0.459507 -7.8644e-20)
(0.484885 0.981758 -6.65784e-19)
(-0.150199 0.768062 2.28958e-19)
(1.67251 -0.919389 2.42269e-19)
(1.1833 -1.06053 4.30008e-19)
(1.30094 -0.491801 9.4068e-20)
(0.853177 0.633814 -8.65748e-19)
(0.328948 0.639128 -2.76159e-18)
(1.93649 -1.00444 -1.27911e-19)
(1.40386 -1.00171 2.04299e-19)
(1.26369 -0.467176 4.40321e-21)
(-0.114003 0.633335 2.59413e-19)
(0.573801 0.589888 3.92709e-19)
(2.1105 -1.04557 5.12551e-19)
(1.56042 -0.955083 -1.37264e-19)
(1.25248 -0.435483 4.65834e-20)
(-0.885068 0.0390907 -3.83737e-19)
(1.38645 0.213027 1.87617e-18)
(2.39731 -1.02928 0)
(1.60521 -0.876737 -6.31263e-20)
(1.21077 -0.380058 2.08633e-21)
(0.940057 -0.0681633 -2.41871e-19)
(1.99076 -0.165996 -4.02575e-19)
(2.60724 -0.914894 -1.39873e-20)
(1.75079 -0.721816 7.45298e-20)
(1.22867 -0.323619 -1.36266e-20)
(1.81415 0.172275 -7.06691e-21)
(2.4889 -0.254489 7.41609e-19)
(2.56131 -0.858543 -9.52414e-21)
(1.50994 -0.482967 -1.94662e-20)
(1.04883 -0.164427 0)
(2.03905 0.0329695 -2.56654e-19)
(2.58508 -0.381596 -1.15787e-20)
(2.05102 -0.532172 5.21003e-19)
(1.41626 -0.25968 8.53702e-21)
(1.11874 -0.132837 -4.11253e-20)
(2.06964 0.0127486 5.99174e-20)
(2.39015 -0.287724 1.42279e-19)
(1.5932 -0.405652 -5.29589e-21)
(1.04474 -0.137331 -4.25737e-34)
(0.79974 -0.0430121 2.94401e-20)
(1.5816 -0.0694199 5.66517e-20)
(1.14558 -0.104804 9.6441e-20)
(0.444536 0.0317409 -6.32038e-20)
(0.199011 -0.0227177 -1.93899e-20)
(0.0168107 -0.0277739 9.08354e-21)
(2.32462 0.249337 -8.00174e-19)
(2.47088 0.0834806 -9.75647e-19)
(2.41705 0.07419 7.03804e-19)
(2.50106 -0.0343212 4.9463e-20)
(2.05677 0.0204892 -5.99625e-20)
(2.13623 0.109726 6.80123e-20)
(2.22335 0.116131 -3.69976e-20)
(2.27452 -0.0670353 -1.19275e-19)
(2.28091 -0.0195415 -2.18043e-19)
(2.31666 -0.266437 -4.18843e-21)
(2.09336 0.0242892 7.25391e-20)
(2.10754 0.0950254 8.68609e-20)
(2.19392 -0.0975751 -9.96932e-20)
(2.15358 -0.00649158 3.49005e-20)
(2.24679 -0.19268 1.52099e-20)
(1.99993 -0.00549138 1.08521e-19)
(2.04092 0.0479366 1.43266e-19)
(2.0981 -0.0691242 -1.74049e-20)
(2.09196 -0.00793483 -5.40073e-20)
(2.16273 -0.118049 2.3453e-20)
(1.43904 -0.0127965 1.72726e-19)
(1.48478 -0.0155084 -1.12892e-20)
(1.45701 -0.0201892 1.73911e-20)
(1.49603 -0.0267212 -3.29102e-20)
(1.46016 -0.0267519 -1.9196e-20)
(1.53038 0.853289 1.0083e-18)
(1.49374 0.946495 -3.0593e-19)
(1.49363 1.06786 -1.21692e-18)
(1.42301 1.10504 6.76203e-19)
(0.874391 0.787931 -1.68568e-19)
(1.79798 0.792951 -5.29106e-19)
(1.77371 0.87269 -2.81607e-18)
(1.78109 0.979311 -1.0931e-18)
(1.69051 0.983979 -3.83937e-19)
(1.0243 0.673058 -6.12994e-19)
(2.07936 0.693112 7.11279e-19)
(2.06398 0.754842 1.81816e-19)
(2.04509 0.831697 -2.15661e-18)
(1.90394 0.811819 -5.83316e-19)
(1.10384 0.518428 4.18098e-19)
(2.22852 0.565616 2.18233e-18)
(2.22898 0.614937 1.57894e-18)
(2.21928 0.659564 -1.79928e-18)
(1.99028 0.609657 -1.34104e-18)
(1.06055 0.333772 -2.34532e-19)
(2.38267 0.415107 1.02282e-18)
(2.37823 0.436955 -7.34077e-19)
(2.27814 0.451297 5.29743e-19)
(1.92417 0.387967 4.04073e-19)
(0.863879 0.138859 -3.3386e-19)
(0.579354 0.388925 -7.22086e-19)
(0.489794 0.420844 -5.94129e-19)
(0.370132 0.453568 7.92808e-20)
(0.22949 0.459397 -2.86549e-20)
(0.0556543 0.328667 6.45921e-20)
(0.671223 0.566728 5.11558e-20)
(0.605974 0.622334 -3.22357e-19)
(0.515804 0.687326 1.67318e-19)
(0.38793 0.740687 -7.73161e-20)
(0.164944 0.564738 1.11032e-19)
(0.772584 0.763861 2.06458e-19)
(0.697392 0.840724 3.95519e-19)
(0.635968 0.935533 5.33209e-20)
(0.548224 0.984769 -2.66894e-19)
(0.298101 0.734009 2.15776e-19)
(1.03761 0.856767 1.99209e-19)
(0.987313 0.942182 -5.85435e-19)
(0.932908 1.03985 -1.73315e-18)
(0.845608 1.10453 7.10234e-19)
(0.496957 0.823358 -1.74614e-19)
(1.13922 0.898814 -1.27527e-19)
(1.1559 1.01705 -2.01452e-19)
(1.16996 1.13252 -3.1359e-19)
(1.11267 1.16781 -3.65425e-19)
(0.68329 0.84419 -6.03485e-21)
(1.0069 0.0487342 -8.01869e-20)
(0.99548 0.00524105 -3.01749e-20)
(1.05226 0.118301 -1.41654e-21)
(0.943982 0.109604 -1.90763e-19)
(0.8936 0.229406 2.86211e-19)
(0.993187 0.0478588 4.92269e-20)
(1.01377 -0.00279874 1.13014e-19)
(1.03947 0.130499 9.70193e-20)
(0.968016 0.135827 2.08692e-20)
(0.926646 0.310625 2.30118e-20)
(0.998399 0.0468811 6.47219e-20)
(1.00395 -0.0123946 -4.38923e-21)
(1.07999 0.148323 -3.64558e-21)
(0.914522 0.142162 1.43854e-19)
(1.12609 0.446519 -4.10451e-19)
(0.993016 0.0458828 -3.65515e-22)
(1.02934 -0.0241624 -1.68045e-19)
(1.06717 0.174736 -5.52137e-20)
(0.991456 0.145767 -3.44915e-19)
(1.16791 0.487174 8.46216e-20)
(0.994461 0.0361113 -1.00495e-20)
(1.03674 -0.0207335 5.02411e-20)
(1.10108 0.179268 2.69859e-20)
(0.974026 0.171024 4.29401e-19)
(1.36899 0.623773 -4.0217e-19)
(0.961826 0.0332382 -1.62067e-21)
(1.11551 -0.0457434 9.85112e-20)
(1.05546 0.218062 -6.72414e-20)
(1.19778 0.111735 8.55547e-19)
(1.35029 0.630334 -3.7343e-19)
(0.914241 -0.00186276 -1.52888e-21)
(1.21223 -0.0338642 -7.99304e-20)
(0.931437 0.158661 4.55088e-21)
(1.32445 0.0769636 -3.03913e-19)
(1.35605 0.434102 9.79289e-21)
(0.983632 -0.0255696 -1.42515e-21)
(1.13297 -0.0190828 1.22112e-35)
(0.986321 0.144765 -1.35986e-20)
(1.28136 0.00636531 9.00216e-20)
(1.34384 0.334339 1.42941e-19)
(1.10319 -0.0681037 3.96712e-21)
(0.88939 -0.00974811 -2.85315e-20)
(1.19541 0.0702084 1.7933e-20)
(1.17995 -0.0199227 2.85156e-20)
(1.37522 0.203187 -2.08839e-19)
(0.985274 -0.0237775 -4.23853e-20)
(0.701666 -0.0159804 -5.08876e-21)
(1.01025 -0.00371551 1.88499e-20)
(0.773468 -0.0141804 -1.48468e-20)
(1.03879 0.0671347 -4.69571e-20)
(1.74091 0.662552 2.92215e-19)
(1.85016 0.640455 7.10589e-19)
(2.06955 0.55071 -9.92516e-19)
(2.14786 0.479869 3.74012e-20)
(2.32571 0.319767 4.22056e-19)
(1.6522 0.49025 3.54277e-20)
(1.72462 0.420251 9.15005e-19)
(1.87523 0.415111 9.12271e-20)
(1.95401 0.281746 -8.42991e-19)
(2.0789 0.261684 -2.66297e-19)
(1.62183 0.350556 -1.93073e-19)
(1.72048 0.267033 -1.40347e-19)
(1.8301 0.285573 2.04397e-19)
(1.93172 0.150751 -2.75668e-19)
(2.0014 0.191418 2.5011e-19)
(1.64651 0.20277 3.17986e-19)
(1.70972 0.148538 -2.89776e-21)
(1.81787 0.15892 2.11948e-19)
(1.86901 0.0724481 1.81414e-19)
(1.95262 0.103089 -1.77851e-19)
(1.24932 0.0535558 -3.86367e-20)
(1.30503 0.0361489 2.15876e-19)
(1.37538 0.0261522 9.90367e-20)
(1.39449 0.0068307 -2.09737e-19)
(1.44998 0.000446168 3.62558e-22)
(1.41358 -0.0357188 7.94426e-20)
(2.52284 -0.0134741 -6.21555e-19)
(2.74318 -0.00855608 1.65846e-18)
(2.71418 0.0437723 7.72017e-19)
(2.4553 0.0491302 -5.21737e-19)
(0.950722 0.108771 1.7741e-19)
(2.31508 0.139693 -6.6878e-19)
(2.73393 0.151182 -9.50247e-19)
(2.73414 0.159443 1.2962e-18)
(2.55168 0.159242 -9.55785e-19)
(0.329063 0.113894 -2.21628e-20)
(1.71288 0.234071 7.98092e-19)
(2.47944 0.288233 1.29693e-19)
(2.77901 0.305098 1.37555e-18)
(2.73105 0.271794 7.73814e-19)
(-0.0182821 -0.00111152 2.70831e-19)
(0.798912 0.185618 3.06908e-19)
(1.74048 0.315906 -9.2691e-19)
(2.31265 0.387469 8.90578e-20)
(2.78824 0.429103 8.01085e-19)
(-0.115347 -0.0929333 2.13257e-19)
(0.127293 0.0189213 -2.48474e-19)
(0.824247 0.200046 -1.07998e-19)
(1.40732 0.327067 1.89557e-19)
(2.11177 0.509173 1.05839e-19)
(-0.0975805 -0.114047 2.55227e-20)
(-0.101982 -0.122228 1.58378e-19)
(0.216691 -0.0478523 5.26954e-20)
(0.463168 0.0484428 -7.08735e-20)
(1.33086 0.331032 4.44682e-21)
(-0.0822442 -0.147173 -2.51416e-20)
(-0.133128 -0.270096 -1.05666e-19)
(-0.0291825 -0.279339 1.47271e-20)
(0.0714326 -0.194592 -4.4743e-21)
(0.55555 0.148814 2.41167e-20)
(-0.0748262 -0.204638 -3.01646e-20)
(-0.115046 -0.3702 -1.22759e-21)
(-0.0788902 -0.380581 9.3054e-20)
(-0.00928202 -0.29594 4.74105e-19)
(0.153031 -0.0754324 -4.53663e-20)
(-0.0543286 -0.226782 -9.53954e-21)
(-0.0983051 -0.401092 1.67601e-20)
(-0.0930788 -0.428794 -2.0743e-19)
(-0.0534527 -0.362178 -1.72315e-19)
(0.000130833 -0.221494 7.39526e-20)
(-0.0214546 -0.212177 1.41899e-20)
(-0.0384603 -0.409778 -4.01616e-20)
(-0.0280787 -0.468921 1.70299e-20)
(-0.00452026 -0.419021 -4.80852e-20)
(0.00858594 -0.284216 -2.73815e-19)
(1.62712 0.757003 -7.92338e-20)
(0.987254 0.493846 -5.77563e-19)
(-0.554416 0.0118641 -1.2041e-19)
(0.376607 -0.484828 6.48107e-19)
(1.01591 -0.134204 4.03745e-21)
(1.5628 0.731924 5.67109e-20)
(1.02704 0.738268 1.77962e-18)
(-0.396254 0.0125015 -2.72725e-19)
(0.256421 -0.74515 1.44245e-20)
(1.04904 -0.225333 -1.16886e-20)
(1.48104 0.553422 1.76068e-19)
(0.666259 0.998157 2.24751e-18)
(0.268197 0.108714 1.4932e-19)
(0.421 -0.85366 -1.75083e-19)
(1.07468 -0.312871 1.23048e-20)
(0.775676 0.50598 -6.71929e-19)
(-0.759204 1.04384 -2.68414e-18)
(0.896502 -0.0403093 -5.63408e-19)
(0.755595 -0.921572 1.46902e-20)
(1.1702 -0.383334 -7.19537e-20)
(0.377623 0.672601 -2.69735e-19)
(-1.58574 0.954255 -3.18429e-19)
(1.12367 -0.455472 1.16604e-18)
(0.896884 -0.996838 -9.22693e-20)
(1.26871 -0.432191 -2.01922e-19)
(-0.270979 0.105062 -4.43914e-20)
(-0.48317 -0.191678 0)
(-0.694478 -0.136391 -9.18494e-20)
(0.130541 -0.108479 9.32847e-21)
(0.524123 -0.0264295 -2.49073e-20)
(1.80437 0.677556 0)
(1.14175 0.379442 0)
(-0.156589 -0.0386784 3.31586e-19)
(0.536217 -0.279617 -2.75476e-19)
(0.924456 -0.0862513 1.22788e-20)
(0.779761 0.00729469 -1.37527e-19)
(0.869776 0.000279804 3.50129e-19)
(0.983973 0.0467902 -3.09099e-20)
(0.890171 0.0134949 4.00587e-19)
(1.26688 0.219813 2.41688e-19)
(1.76295 0.0454977 1.33293e-19)
(2.00876 0.0921472 5.24032e-19)
(2.0842 0.187801 -8.90267e-19)
(2.46927 0.276427 3.3376e-19)
(2.48124 0.441256 5.70695e-19)
(0.993414 -0.54448 4.59975e-20)
(0.983904 -0.645367 -2.28987e-19)
(0.983838 -0.755413 -2.11476e-19)
(0.919806 -0.834824 1.2507e-19)
(0.568807 -0.665959 1.5331e-19)
(0.888666 -0.455908 1.03583e-19)
(0.833374 -0.528524 1.14759e-19)
(0.756989 -0.606341 -1.29209e-19)
(0.639898 -0.675339 1.5786e-19)
(0.357666 -0.543661 3.56302e-20)
(0.693181 -0.31942 -1.09337e-19)
(0.601359 -0.365987 -6.30044e-20)
(0.500822 -0.425465 -3.32884e-20)
(0.385719 -0.478817 -6.14413e-20)
(0.183504 -0.382864 -1.4671e-19)
(0.582054 -0.0877655 -4.39148e-19)
(0.497525 -0.110609 -3.50798e-19)
(0.388452 -0.144822 2.8838e-19)
(0.259676 -0.185225 1.40065e-19)
(0.0834514 -0.165771 1.29963e-20)
(0.546961 0.120904 -1.35857e-19)
(0.461533 0.118607 -1.57529e-19)
(0.343348 0.112366 -3.53248e-20)
(0.202441 0.109293 6.15478e-20)
(0.0365369 0.0794569 1.5335e-20)
(2.29292 -0.0225927 1.02948e-18)
(2.5092 -0.100981 3.81496e-19)
(2.60495 -0.196454 -9.59024e-19)
(2.49459 -0.22315 -2.06097e-18)
(1.55583 -0.227249 1.52757e-19)
(2.18392 -0.134811 1.69792e-18)
(2.316 -0.252749 2.2041e-18)
(2.35394 -0.385359 1.82828e-19)
(2.29036 -0.449137 3.16861e-19)
(1.50819 -0.428039 -2.12505e-19)
(1.92775 -0.309943 -4.28112e-18)
(1.9765 -0.435764 4.88688e-19)
(2.01518 -0.572486 1.3635e-18)
(1.97576 -0.660704 -5.52262e-19)
(1.31323 -0.589271 8.77889e-19)
(1.64795 -0.445804 1.05763e-18)
(1.66914 -0.55457 -2.77611e-18)
(1.67472 -0.686846 -3.20926e-18)
(1.6221 -0.788935 1.01316e-18)
(1.0654 -0.674206 6.57143e-19)
(1.35213 -0.516653 2.41946e-19)
(1.30553 -0.6199 3.01016e-19)
(1.29348 -0.752356 -4.93853e-19)
(1.24097 -0.852513 -6.01375e-19)
(0.797944 -0.697446 -5.81665e-21)
(1.05912 0.0524183 6.88103e-21)
(0.942892 0.0438674 1.46375e-21)
(1.13628 0.0703673 9.26033e-21)
(0.837804 -0.0147345 -2.69555e-19)
(1.20422 -0.249126 -2.19241e-20)
(1.06884 0.0551575 -2.30889e-21)
(0.93646 0.0378063 2.44911e-20)
(1.13229 0.0884232 6.8607e-21)
(0.910457 0.0246606 2.28668e-19)
(1.06439 -0.134299 6.27149e-21)
(1.06622 0.052039 -5.4813e-20)
(0.938893 0.029112 2.69866e-23)
(1.11543 0.0918698 -3.46552e-21)
(0.902551 0.0417784 1.18092e-19)
(1.01603 -0.0760849 -2.81455e-19)
(1.04748 0.0508018 6.48361e-20)
(0.962526 0.0210337 2.59151e-21)
(1.07783 0.0981574 1.80063e-20)
(0.939586 0.0675191 -5.15777e-20)
(0.894903 0.034425 5.60683e-20)
(1.02177 0.0485136 1.59391e-20)
(0.988998 0.0151452 -2.34928e-20)
(1.04828 0.105874 2.86795e-20)
(0.956074 0.091606 4.21438e-20)
(0.856994 0.129175 -6.32293e-21)
(0.886441 0.033497 0)
(0.720708 0.0271151 8.06619e-21)
(0.629351 0.0207877 7.10582e-21)
(0.381629 -0.0113196 5.75004e-20)
(0.762562 -0.0631909 -1.86553e-19)
(1.02794 0.0728104 -6.18844e-20)
(0.952928 0.0641045 1.29825e-21)
(1.04988 0.0727596 -6.93722e-20)
(0.84253 -0.0132806 -1.59816e-19)
(1.12308 -0.228091 -1.94717e-19)
(1.0715 -0.0678651 -4.27522e-20)
(1.16387 -0.0377646 6.26114e-19)
(1.27838 0.0378153 3.74551e-19)
(1.13888 0.0647577 2.90843e-20)
(0.892747 0.0354794 0)
(1.4301 -0.34007 4.228e-19)
(1.56081 -0.299254 1.80596e-18)
(1.76572 -0.173337 -1.97394e-18)
(1.86163 -0.0204736 -6.3456e-19)
(1.82236 0.0414138 4.71395e-19)
)
;

boundaryField
{
    left
    {
        type            fixedValue;
        value           uniform (1 0 0);
    }
    right
    {
        type            zeroGradient;
    }
    down
    {
        type            noSlip;
    }
    up
    {
        type            noSlip;
    }
    cylinder
    {
        type            noSlip;
    }
    defaultFaces
    {
        type            empty;
    }
}


// ************************************************************************* //
