# Selection   : all
# Cells       : 440
# Volume      : 7.374263e+01
# Time        	min(p)
3.2           	-1.696030e+00
3.25          	-1.679098e+00
3.3           	-1.662305e+00
