# Selection   : all
# Cells       : 440
# Volume      : 7.374263e+01
# Time        	maxMag(U)
1.7           	2.650355e+00
1.75          	2.645928e+00
1.8           	2.641128e+00
