/*--------------------------------*- C++ -*----------------------------------*\
  =========                 |
  \\      /  F ield         | OpenFOAM: The Open Source CFD Toolbox
   \\    /   O peration     | Website:  https://openfoam.org
    \\  /    A nd           | Version:  13
     \\/     M anipulation  |
\*---------------------------------------------------------------------------*/
FoamFile
{
    format      ascii;
    class       volScalarField;
    location    "0.95";
    object      p;
}
// * * * * * * * * * * * * * * * * * * * * * * * * * * * * * * * * * * * * * //

dimensions      [0 2 -2 0 0 0 0];

internalField   nonuniform List<scalar> 
1800
(
5.75266
7.85976
10.0126
11.441
12.2753
12.6858
12.8167
12.6589
11.4123
7.31958
9.60136
12.0771
14.582
16.266
17.3225
17.9851
18.4397
18.6785
17.9537
15.2755
15.993
18.6177
21.2904
23.1536
24.4138
25.2954
25.9461
26.3293
25.8579
24.0266
24.9875
27.5569
30.2053
32.1198
33.485
34.494
35.2564
35.7082
35.302
33.6171
36.0457
38.4065
40.8588
42.6703
43.9946
44.9908
45.7452
46.1945
45.8442
44.2885
48.7222
50.7747
52.9184
54.5246
55.7155
56.6177
57.3
57.7105
57.4293
56.0698
62.6703
64.3431
66.0988
67.4307
68.4328
69.2023
69.7937
70.1707
69.9955
68.9068
77.5959
78.8374
80.1485
81.1578
81.9337
82.5475
83.0416
83.3964
83.363
82.6266
93.2138
93.9934
94.8249
95.4798
96.0026
96.4401
96.8228
97.1462
97.2564
96.9219
109.242
109.547
109.879
110.153
110.391
110.612
110.829
111.043
111.204
111.231
-0.600687
-0.853927
-0.630922
-0.21602
0.257039
0.725452
1.08514
1.29584
1.441
1.58805
-0.466582
-0.983806
-1.09528
-0.890352
-0.466656
-0.0431587
0.248628
0.490813
0.771362
1.0453
0.539535
-0.430267
-1.26637
-1.43369
-1.10684
-0.802317
-0.590502
-0.285854
0.121676
0.507705
0.934151
-0.209335
-1.41145
-1.75111
-1.53095
-1.37921
-1.2565
-0.952472
-0.495788
0.0119258
0.501686
-0.46796
-1.4113
-1.70328
-1.64656
-1.65921
-1.62505
-1.36471
-0.874203
-0.180381
-0.204804
-0.722778
-1.12497
-1.25512
-1.27636
-1.34324
-1.33748
-1.13053
-0.607067
0.324789
-0.54316
-0.505942
-0.330298
-0.184746
-0.100677
-0.081208
-0.0441569
0.124282
0.700859
1.93026
-0.0623073
0.523795
1.24439
1.74856
2.07781
2.29048
2.43909
2.6547
3.3843
5.04585
1.38298
2.49086
3.73915
4.66051
5.33035
5.82242
6.16201
6.50056
7.48667
9.77356
3.62342
5.26629
7.08442
8.4603
9.48298
10.2431
10.7652
11.2178
12.2784
14.4411
2.30704
2.44628
2.33845
2.09227
1.58649
1.18354
0.869314
0.600215
0.356368
0.141551
1.95928
2.42399
2.23549
2.01044
1.50429
1.10493
0.818222
0.584152
0.364821
0.154124
1.48218
2.39494
2.1349
1.91962
1.43037
1.03973
0.772097
0.563779
0.369462
0.165927
0.857183
2.3121
2.03476
1.81423
1.35598
0.982883
0.733018
0.545827
0.365829
0.176929
0.162299
2.13547
1.92356
1.69199
1.27494
0.929626
0.699585
0.530623
0.356241
0.183789
-0.411353
1.85572
1.78417
1.55162
1.18376
0.876564
0.67002
0.516933
0.361108
0.183761
-0.561706
1.50653
1.60357
1.3909
1.08073
0.821645
0.642366
0.504673
0.363846
0.176198
0.166263
1.1766
1.37278
1.20104
0.96257
0.763118
0.615017
0.492675
0.353753
0.162467
2.42232
1.0398
1.07121
0.957421
0.821137
0.698654
0.587628
0.474983
0.332764
0.142791
6.65699
1.40842
0.713156
0.639761
0.649301
0.628387
0.557743
0.451764
0.306856
0.120667
9.98142
2.57735
0.688579
0.397417
0.474171
0.553151
0.518733
0.417233
0.271569
0.0916548
11.7661
2.57421
0.269657
0.067066
0.365097
0.521661
0.484024
0.371635
0.224678
0.0544574
12.8659
2.78296
0.403222
0.164993
0.480521
0.583297
0.486058
0.34083
0.183589
0.018955
14.1885
4.37209
1.2887
0.738375
0.798968
0.729186
0.529011
0.329292
0.152162
-0.0123936
16.3653
7.1151
2.70686
1.59915
1.24745
0.942725
0.612214
0.340078
0.133907
-0.0367715
19.2545
9.87868
4.33767
2.56203
1.7752
1.20594
0.727633
0.372378
0.130537
-0.0519966
21.758
11.9394
5.85451
3.52082
2.34005
1.49967
0.865193
0.422891
0.141796
-0.0569295
23.037
13.1222
7.05168
4.42063
2.91321
1.8101
1.01755
0.488297
0.166502
-0.0512658
22.9769
13.5014
7.91263
5.26799
3.50248
2.14489
1.19138
0.573003
0.20844
-0.0334876
22.4241
13.7265
8.68415
6.12918
4.12895
2.52386
1.40893
0.694901
0.288873
0.00247667
111.788
97.8419
84.0773
71.0721
59.1329
48.3528
38.7715
30.0949
20.0839
4.97935
112.768
99.4796
85.9789
72.9726
60.9295
50.0487
40.5156
32.2574
23.5924
11.4796
113.299
100.214
87.3342
75.008
63.4694
52.8777
43.4479
35.2592
27.4728
18.3389
114.512
102.771
90.813
78.9826
67.6263
57.0315
47.3987
38.7985
31.0919
23.829
115.089
104.078
93.1573
82.4665
72.1198
62.1957
52.7337
43.8236
36.0058
29.8272
115.438
104.711
94.2049
84.0433
74.3229
65.0937
56.3346
48.0933
41.0519
36.0351
115.67
105.111
94.7997
84.8677
75.4252
66.5449
58.2362
50.5688
44.2148
40.0954
115.77
105.249
94.9827
85.1116
75.7576
67.0119
58.9083
51.515
45.3982
41.4386
115.72
105.034
94.6083
84.5894
75.1105
66.2781
58.1481
50.7788
44.555
40.1022
115.596
104.65
93.9624
83.6851
73.9599
64.9099
56.6152
49.1206
42.6116
37.4168
234.121
229.757
228.188
227.746
227.655
227.906
228.64
230.021
232.173
234.311
225.559
222.539
221.49
221.45
221.675
222.16
223.091
224.698
227.169
229.645
216.046
213.871
213.098
213.222
213.653
214.356
215.481
217.25
219.864
222.462
205.74
203.712
203.008
203.204
203.748
204.577
205.8
207.609
210.178
212.697
194.417
192.507
191.852
192.04
192.572
193.384
194.56
196.254
198.609
200.899
182.051
180.326
179.732
179.874
180.327
181.038
182.073
183.551
185.58
187.546
168.705
167.242
166.749
166.851
167.207
167.78
168.619
169.812
171.439
173.01
154.571
153.455
153.1
153.177
153.433
153.845
154.452
155.314
156.485
157.613
139.963
139.249
139.042
139.091
139.236
139.471
139.821
140.323
141.005
141.661
125.438
125.094
124.954
124.907
124.894
124.916
124.982
125.102
125.279
125.455
246.559
246.797
247.05
247.268
247.567
248.067
248.621
248.957
248.962
248.447
246.63
246.961
247.364
247.671
247.872
248.207
248.632
248.548
247.729
246.708
246.637
247.033
247.478
247.79
247.874
248.004
248.286
247.926
246.538
245.283
246.513
247.015
247.445
247.677
247.61
247.495
247.529
247.106
245.813
244.656
246.021
246.675
247.063
247.168
246.99
246.711
246.534
246.173
245.365
244.577
244.813
245.656
245.991
245.954
245.722
245.436
245.239
245.067
244.828
244.542
242.468
243.564
243.901
243.784
243.572
243.407
243.371
243.502
243.809
244.049
238.584
240.069
240.537
240.47
240.385
240.435
240.672
241.167
241.98
242.719
233.111
235.164
235.872
235.939
236.064
236.409
236.997
237.901
239.206
240.418
227.757
229.621
230.365
230.532
230.838
231.455
232.396
233.748
235.594
237.303
246.938
246.72
246.679
246.492
246.423
246.311
245.937
245.68
245.577
245.723
246.895
246.718
246.674
246.494
246.423
246.323
245.945
245.66
245.382
245.741
246.867
246.714
246.665
246.489
246.415
246.325
245.943
245.603
245.142
245.821
246.848
246.708
246.652
246.477
246.401
246.32
245.929
245.508
244.922
246.005
246.837
246.699
246.636
246.457
246.381
246.304
245.9
245.397
244.787
246.242
246.83
246.687
246.617
246.433
246.355
246.276
245.861
245.304
244.762
246.351
246.829
246.673
246.597
246.406
246.324
246.235
245.824
245.254
244.809
246.019
246.832
246.654
246.575
246.375
246.288
246.191
245.807
245.259
244.831
244.783
246.842
246.631
246.551
246.342
246.251
246.158
245.84
245.336
244.654
242.008
246.859
246.606
246.522
246.307
246.216
246.153
245.944
245.463
243.976
237.292
246.897
246.579
246.48
246.248
246.151
246.081
245.876
245.137
242.445
233.744
247.012
246.557
246.441
246.194
246.094
246.116
246.069
245.336
242.18
231.801
247.253
246.563
246.402
246.114
246.017
246.076
246.057
245.235
241.884
230.535
247.703
246.619
246.372
246.028
245.881
245.812
245.609
244.529
240.477
229.314
248.541
246.685
246.396
245.938
245.671
245.307
244.741
243.225
238.007
227.458
250.379
246.752
246.505
245.868
245.378
244.646
243.657
241.569
235.374
224.914
254.259
247.063
246.66
245.812
245.023
243.932
242.562
239.959
233.313
222.585
262.564
248.2
246.935
245.771
244.649
243.242
241.56
238.67
232.075
221.33
280.124
250.934
247.586
245.807
244.295
242.589
240.651
237.739
231.632
221.359
306.094
254.98
249.091
246.021
244.004
241.968
239.766
236.923
231.361
221.887
236.417
221.068
210.446
201.131
190.971
179.667
167.272
153.899
139.854
125.724
230.029
217.735
208.583
199.862
189.925
178.686
166.34
153.089
139.366
125.892
223.496
214.131
205.952
197.424
187.71
176.87
165.117
152.617
139.599
126.422
218.379
210.872
202.88
194.031
184.188
173.424
161.932
149.989
137.927
126.093
212.982
206.588
198.596
189.503
179.834
169.696
159.146
148.279
137.224
126.131
207.386
202.09
194.83
186.359
177.361
167.906
157.986
147.664
137.044
126.257
203.592
199.151
192.562
184.665
176.132
167.046
157.425
147.35
136.94
126.33
202.31
198.052
191.706
184.093
175.78
166.844
157.325
147.321
136.963
126.394
203.636
198.921
192.471
184.886
176.554
167.538
157.901
147.755
137.24
126.509
206.31
200.875
194.138
186.427
177.931
168.7
158.817
148.414
137.638
126.645
112.192
112.362
112.446
112.297
111.79
111.43
111.245
111.53
111.522
111.273
89.6169
90.0802
90.2989
89.8653
88.4333
87.3469
86.726
87.3877
87.4253
86.8388
68.7738
69.4015
69.6629
68.9962
67.0568
65.345
64.3248
64.8735
65.1779
64.6228
50.656
51.2625
51.4522
50.6291
48.65
46.4839
45.1539
45.1893
45.9277
45.6944
36.0108
36.4193
36.4696
35.5883
33.7964
31.4804
29.8366
29.2714
30.079
30.2667
24.9585
25.0621
24.9401
24.0169
22.4393
20.4099
18.6191
17.6774
17.9325
18.4325
17.0721
16.9218
16.707
15.7161
14.3016
12.7982
11.3107
10.2458
9.90597
10.2724
11.5851
11.4082
11.3598
10.3604
9.04139
8.03951
7.148
6.30522
5.71672
5.63284
7.91095
7.82276
8.11882
7.25092
6.08483
5.4944
5.16577
4.78133
4.2974
3.91754
6.04192
5.83705
6.22258
5.48468
4.61531
4.33945
4.36376
4.35464
4.20215
3.80606
5.2744
5.03766
5.12019
4.42581
3.89368
3.83784
3.98799
4.13096
4.25217
4.30882
4.8468
4.73774
4.46052
3.79423
3.50865
3.59636
3.79992
3.96769
4.0875
4.17375
4.46785
4.42311
3.99137
3.44097
3.32137
3.48467
3.70973
3.88861
4.00663
4.06697
4.013
3.95802
3.55195
3.20088
3.21126
3.41493
3.62807
3.78549
3.88412
3.92543
3.46451
3.37121
3.09837
2.97908
3.09628
3.31334
3.50361
3.64134
3.72267
3.7464
2.81269
2.71875
2.66006
2.75102
2.94805
3.1526
3.31849
3.438
3.50497
3.51839
2.08921
2.10641
2.24206
2.47719
2.7131
2.91176
3.06711
3.18092
3.24731
3.26283
1.41675
1.53512
1.78687
2.08024
2.33652
2.55114
2.72726
2.8662
2.95392
2.98208
0.739981
0.874415
1.14951
1.47918
1.78974
2.06209
2.30016
2.48544
2.5904
2.62807
0.0674168
-0.0179889
0.217796
0.630448
1.05193
1.43519
1.76022
1.97563
2.07888
2.14222
3.66256
3.70615
3.57564
3.24909
2.59689
1.90496
1.30868
0.833307
0.44847
0.0827271
3.73506
3.67952
3.52487
3.23304
2.55742
1.84903
1.2574
0.796816
0.424828
0.0801864
3.7612
3.57299
3.41264
3.17866
2.51336
1.79643
1.20932
0.763103
0.403689
0.0797681
3.7217
3.39613
3.25932
3.07574
2.45596
1.74545
1.16449
0.732306
0.385285
0.0810751
3.6134
3.18751
3.09056
2.9217
2.37329
1.69155
1.12219
0.70439
0.36984
0.0842628
3.44962
2.98954
2.92966
2.73708
2.25902
1.63079
1.08216
0.679716
0.357752
0.089478
3.25605
2.82231
2.78589
2.55401
2.11608
1.55941
1.04369
0.658608
0.349442
0.0967441
3.0491
2.68577
2.65992
2.3968
1.95985
1.47463
1.00532
0.641024
0.345209
0.105943
2.8273
2.57537
2.54741
2.27259
1.8118
1.37767
0.964674
0.626391
0.345162
0.116803
2.58359
2.49382
2.442
2.17524
1.68667
1.27672
0.919459
0.613467
0.34912
0.128877
5.42394
3.97738
3.2784
2.89807
2.41537
1.89031
1.38472
0.927224
0.53991
0.127219
4.6201
3.75689
3.31485
2.95963
2.45641
1.89942
1.37214
0.908326
0.516819
0.11461
3.9501
3.66503
3.3759
3.02945
2.49614
1.90762
1.36102
0.89153
0.499166
0.10374
3.63023
3.66564
3.46166
3.11013
2.53772
1.9156
1.35052
0.876128
0.483848
0.0949618
3.61554
3.70897
3.56376
3.20295
2.58403
1.92383
1.33932
0.860553
0.469021
0.0881274
112.022
88.9555
67.9044
50.1325
36.1175
25.7971
18.6269
13.7513
10.5692
8.75499
111.801
88.3931
67.198
49.398
35.3152
24.7928
17.3231
12.2178
9.07484
7.57457
111.615
87.9127
66.5596
48.6573
34.4039
23.62
15.9027
10.6828
7.53804
6.0799
111.405
87.3389
65.7191
47.5924
33.0791
22.0257
14.131
8.898
5.81238
4.43665
111.151
86.6107
64.5897
46.1191
31.2788
19.9578
11.962
6.92551
4.44244
3.62667
243.772
243.81
243.929
244.101
244.314
244.323
243.818
243.115
243.219
242.996
243.984
244.056
244.17
244.359
244.629
244.804
244.586
243.936
243.679
243.572
244.18
244.228
244.342
244.538
244.824
245.086
245.06
244.552
244.125
244.074
244.422
244.455
244.553
244.727
244.985
245.275
245.381
245.111
244.725
244.657
244.698
244.715
244.797
244.947
245.162
245.428
245.632
245.635
245.469
245.379
244.991
245.003
245.073
245.195
245.369
245.6
245.871
246.114
246.221
246.21
245.265
245.284
245.366
245.502
245.678
245.908
246.21
246.573
246.878
247.001
245.552
245.57
245.666
245.858
246.113
246.414
246.775
247.19
247.556
247.738
245.935
245.964
246.04
246.262
246.634
247.089
247.596
248.117
248.464
248.425
246.328
246.438
246.539
246.729
247.129
247.7
248.304
248.856
249.21
249.005
136.505
136.246
136.223
136.486
136.268
135.87
135.329
135.157
135.228
135.393
160.956
160.359
160.381
161.018
160.365
159.243
157.779
157.322
157.528
157.986
183.2
182.634
182.921
183.444
182.394
180.648
178.68
177.991
178.24
178.863
202.167
201.921
202.64
202.65
201.292
199.095
197.087
196.243
196.421
197.023
217.638
217.813
218.597
218.009
216.341
213.997
212.175
211.273
211.312
211.717
229.519
230
230.23
229.271
227.463
225.406
223.797
222.85
222.717
222.819
237.718
238.054
237.691
236.618
235.126
233.597
232.147
231.13
230.905
230.754
242.373
242.253
241.644
240.811
239.932
238.914
237.56
236.534
236.476
236.298
244.097
243.679
243.186
242.828
242.53
241.944
240.754
239.859
240.145
240.06
244.237
243.811
243.658
243.679
243.751
243.508
242.634
241.873
242.258
242.069
254.848
246.873
247.502
246.286
246.036
245.529
244.998
244.636
244.506
244.545
252.014
246.809
247.315
246.265
246.089
245.592
245.014
244.669
244.583
244.516
250.092
246.816
247.092
246.26
246.145
245.66
245.057
244.763
244.752
244.548
248.904
246.844
246.88
246.279
246.202
245.735
245.138
244.916
244.982
244.654
248.219
246.847
246.741
246.318
246.259
245.818
245.266
245.108
245.224
244.825
247.77
246.806
246.703
246.367
246.312
245.911
245.434
245.297
245.433
245.033
247.456
246.751
246.702
246.412
246.358
246.014
245.611
245.453
245.589
245.244
247.239
246.724
246.694
246.447
246.391
246.12
245.759
245.564
245.688
245.438
247.095
246.718
246.685
246.472
246.407
246.212
245.858
245.633
245.728
245.598
247.001
246.719
246.681
246.485
246.417
246.277
245.912
245.67
245.694
245.693
317.352
253.757
249.911
246.973
246.141
245.569
245.253
244.933
244.24
242.724
295.62
251.368
248.789
246.741
246.059
245.541
245.209
244.903
244.453
243.525
277.179
249.212
248.193
246.568
246.018
245.522
245.159
244.846
244.536
244.198
265.776
247.867
247.868
246.437
246
245.511
245.101
244.764
244.526
244.526
259.005
247.137
247.646
246.329
245.997
245.503
245.033
244.662
244.481
244.559
239.303
237.454
234.238
229.331
222.128
211.774
197.723
179.918
158.842
135.761
240.486
238.95
235.775
230.639
223.137
212.58
198.46
180.626
159.405
135.982
241.999
240.502
237.32
232.067
224.316
213.495
199.204
181.266
159.886
136.168
243.661
242.255
239.127
233.853
225.918
214.825
200.271
182.108
160.46
136.378
244.45
243.613
241.11
236.039
227.997
216.63
201.746
183.238
161.188
136.631
)
;

boundaryField
{
    left
    {
        type            zeroGradient;
    }
    right
    {
        type            fixedValue;
        value           uniform 0;
    }
    down
    {
        type            zeroGradient;
    }
    up
    {
        type            zeroGradient;
    }
    cylinder
    {
        type            zeroGradient;
    }
    defaultFaces
    {
        type            empty;
    }
}


// ************************************************************************* //
