# Selection   : all
# Cells       : 440
# Volume      : 7.374263e+01
# Time        	maxMag(U)
2.8           	2.779761e+00
2.85          	2.788792e+00
2.9           	2.796799e+00
