/*--------------------------------*- C++ -*----------------------------------*\
  =========                 |
  \\      /  F ield         | OpenFOAM: The Open Source CFD Toolbox
   \\    /   O peration     | Website:  https://openfoam.org
    \\  /    A nd           | Version:  13
     \\/     M anipulation  |
\*---------------------------------------------------------------------------*/
FoamFile
{
    format      ascii;
    class       surfaceScalarField;
    location    "5.555";
    object      phi;
}
// * * * * * * * * * * * * * * * * * * * * * * * * * * * * * * * * * * * * * //

dimensions      [0 3 -1 0 0 0 0];

internalField   nonuniform List<scalar> 
823
(
-0.00127562
0.0159851
-0.0147094
0.0119303
0.0142012
-0.0274071
0.0622591
-0.0190175
-0.0313113
0.152604
-0.0742482
-0.0160964
-0.0767228
-0.0456034
0.27493
0.00314459
0.0128405
0.0410271
-0.0236813
0.122262
-0.100253
0.224381
-0.176367
-0.23734
0.384998
0.0194268
-0.00658634
0.0968355
-0.10109
0.206538
-0.209955
0.319297
-0.289126
-0.342311
0.424268
0.0387722
-0.0453586
0.13407
-0.196387
0.226947
-0.302833
0.293333
-0.355511
-0.374726
0.325748
0.0549985
-0.100357
0.134323
-0.275712
0.18703
-0.355539
0.211766
-0.380248
0.225102
-0.388063
-0.0145433
-0.0446425
0.0591858
-0.042791
-0.0567188
0.0849665
-0.0742066
-0.0480754
0.079491
-0.105551
-0.0349716
0.0663165
-0.0207915
-0.136522
0.0517623
-0.0250149
-0.0196276
-0.0640799
-0.0176538
-0.102559
-0.00959644
-0.137058
-0.000472702
0.00919534
-0.167045
-0.0182842
-0.00134335
-0.0465485
0.0106104
-0.0755014
0.0193565
-0.0998389
0.0238648
0.029521
-0.120165
-0.00593505
0.0045917
-0.0134813
0.0181567
-0.0246568
0.0305319
-0.0367261
0.0359341
0.0437006
-0.0509057
-0.0101177
-0.0193681
-0.0201475
-0.000309787
-0.00221257
-0.204396
0.333705
-0.265831
-0.104127
1.04908
-1.14935
0.215653
0.113376
-0.433156
0.39073
-0.84806
0.672983
-0.685855
0.631338
-0.186173
0.352833
0.0050808
0.857823
0.34115
-0.222694
0.484217
-0.991127
-0.723959
-0.0604641
0.293133
0.197662
0.599697
0.504957
-0.529988
0.603528
-1.0897
-0.722777
0.0728891
0.169338
0.375816
0.296769
0.63672
-0.790891
0.713221
-1.1662
-0.698343
0.146514
0.0206116
0.471035
-0.0277522
0.663656
-0.983512
0.73677
-1.23931
-0.685023
0.95208
0.0968071
-1.02828
1.20393
-0.279606
1.32654
-1.10612
1.22883
-1.1416
-0.545704
1.39136
0.0563282
-1.35088
1.51041
-0.398656
1.40315
-0.998864
1.12861
-0.867057
-0.355859
1.45868
-0.0522745
-1.35008
1.48043
-0.420408
1.22477
-0.743205
0.905533
-0.547816
-0.194483
1.40453
-0.0870533
-1.36975
1.30126
-0.317146
0.945326
-0.387267
0.578307
-0.180797
-0.0383383
0.888754
-0.975807
0.571608
0.184341
0.00354355
1.08915
0.18077
-1.04482
1.16171
0.253194
1.24575
0.340224
1.2062
0.424551
0.452852
0.991493
0.110385
-0.921109
1.0577
0.186983
1.16403
0.233896
1.25696
0.331628
0.358929
0.929824
0.0543238
-0.873763
0.995173
0.121635
1.09153
0.137542
1.21625
0.2069
0.225105
0.934013
0.0132461
-0.892935
1.01136
0.0442921
1.10033
0.0485701
1.22874
0.0784835
0.0841015
0.72036
-0.707114
0.764652
0.813222
0.891706
0.130088
0.302055
-0.250784
-0.181359
0.0853675
0.308997
-0.264277
0.0455614
0.319566
-0.27976
0.0139127
0.309349
-0.2777
0.197566
-0.183654
0.0894344
0.338662
-0.126042
0.0545206
0.343911
0.0241665
0.349921
0.0017469
0.331769
0.199313
0.0443595
0.369602
-0.0752996
0.0159338
0.372336
-0.00606229
0.371917
-0.0125698
0.338276
0.186743
-0.0387522
0.383006
0.0253487
-0.0500467
0.383631
-0.0515422
0.373412
-0.0345157
0.32125
0.152228
-0.118664
0.113608
-0.115281
-0.097408
-0.0518707
0.204676
0.100683
-0.259551
-0.0458067
0.148907
0.104801
-0.0490325
0.0923051
0.10884
-0.0522384
0.0376316
0.107947
-0.053274
0.0760225
-0.0383909
0.207883
0.145548
-0.252748
0.159363
0.153321
0.104364
0.163839
0.0448171
0.167494
0.12084
0.141254
0.190966
-0.186673
0.100081
0.194495
0.0600773
0.203842
0.0220636
0.205508
0.142903
0.162733
0.227157
-0.198924
0.120194
0.237035
0.073698
0.250338
0.0286361
0.250569
0.171539
0.0959093
-0.119536
0.0686673
0.0392451
0.0121142
0.405745
0.0569284
-0.0666935
0.426933
0.00124055
-0.0224292
0.408967
0.20051
-0.182543
0.399194
0.152749
-0.142976
0.425917
-0.286275
0.40483
0.0480784
0.421667
-0.0155966
0.397706
0.224471
0.387095
0.163359
0.560265
0.399547
0.0445113
0.41539
-0.0314396
0.374475
0.265386
0.371874
0.16596
0.745466
0.397155
0.0433363
0.398146
-0.0324309
0.36186
0.301672
0.359537
0.168282
0.906079
0.389964
0.0493517
0.383567
-0.0260337
0.338539
0.3467
0.334034
0.172787
1.12058
0.628419
0.0249532
0.633492
-0.031107
0.676361
0.303832
0.790643
0.0585048
0.921207
0.990013
0.642871
-0.0138978
0.615881
-0.00411651
0.720499
0.199214
0.819639
-0.0406353
0.713661
1.02719
0.639749
-0.049626
0.631893
0.003739
0.749289
0.0818181
0.783122
-0.0744687
0.538317
0.958466
0.619625
-0.0652302
0.646945
-0.0235815
0.733873
-0.00510989
0.689566
-0.0301614
0.298943
0.92894
0.53879
0.515209
0.510099
0.479938
0.77888
1.01772
-0.209066
1.00791
-0.116237
1.00494
-0.0723268
1.0091
0.0211904
0.0778877
0.959785
-0.141665
0.924204
-0.0806566
0.891125
-0.0392478
0.905934
0.00638144
0.0627131
0.883792
-0.0669903
0.855099
-0.0519642
0.836434
-0.0205825
0.851651
-0.00883557
0.0406012
0.886056
-0.0241072
0.861205
-0.0271124
0.855902
-0.0152799
0.86169
-0.0146231
0.00935588
0.754773
0.727661
0.712381
0.697758
0.0545736
0.169037
-0.22361
0.0800022
0.360717
-0.386145
0.0800086
0.414873
-0.414879
0.0698606
0.416345
-0.406198
0.383914
0.0573615
-0.371414
0.0822329
0.0868038
0.15941
0.28354
0.194687
0.379595
0.199434
0.411599
0.403441
0.179907
0.0695246
0.0172791
0.195943
0.157122
0.29519
0.280348
0.36012
0.346669
0.399236
0.364324
0.0327254
-0.0154463
0.147033
0.0428142
0.283178
0.144203
0.414276
0.215571
0.297428
0.516084
0.00574468
-0.0211909
0.0639369
-0.015378
0.177664
0.0304752
0.315335
0.0779011
0.147322
0.465441
-0.00214763
-0.0190433
0.0172552
-0.0347808
0.0762524
-0.028522
0.166177
-0.0120233
0.03762
0.275879
0.00350449
-0.0225478
0.0172792
-0.0485555
0.0440466
-0.0552893
0.0804175
-0.0483942
-0.0247781
0.142816
0.0151327
-0.0376805
0.0394053
-0.0728281
0.0634723
-0.0793564
0.0857719
-0.0706938
-0.0552211
0.116215
0.0192786
-0.0569591
0.0400105
-0.09356
0.0550637
-0.0944096
0.0665434
-0.0821735
-0.0664499
0.0777721
0.00222672
-0.00636683
-0.0212855
-0.0371425
-0.0518301
0.380725
0.777968
-0.882814
0.30037
0.591657
-0.511302
0.167523
0.247701
-0.114855
0.168642
-0.092039
0.0909204
-0.21698
0.129262
0.358707
0.562076
0.228779
0.721585
0.0485025
0.427978
0.095296
-0.138832
-0.337415
0.326112
0.35218
0.119737
0.92796
-0.0354894
0.583204
0.0964081
-0.27073
-0.462809
0.174184
0.255768
-0.00965163
1.1118
-0.0345396
0.608092
0.165581
-0.47085
-0.561653
-0.0618926
-0.0994434
0.0754927
0.277625
0.0557843
0.602674
-0.658458
-0.110948
0.166732
-0.0292008
-0.0817473
0.0819108
-0.111112
-0.0690701
0.902614
-1.18275
0.558044
0.361442
0.341251
0.0976701
-0.0155672
-0.082103
0.156708
-0.0590382
0.272019
-0.11531
0.449639
-0.177621
-0.208819
0.217786
-0.175992
0.338655
0.587668
0.926131
0.146628
-0.15024
0.181119
-0.177507
0.112393
-0.156772
0.191007
0.07281
-0.165301
0.204883
0.0297764
-0.166396
0.20943
-0.118451
0.148228
0.18972
-0.10967
-0.23029
0.143872
-0.110925
0.0918218
-0.11325
0.0381017
-0.112676
-0.0803495
0.191134
-0.0587306
-0.242073
0.13923
-0.0590209
0.0866878
-0.0607075
0.0354736
-0.0614622
-0.0448758
0.207045
-0.00626231
-0.259513
0.153758
-0.00573427
0.0984777
-0.00542712
0.0417635
-0.00474799
-0.00311237
0.211958
-0.264026
0.157191
0.0995252
0.0415033
0.0457134
-0.347737
-0.0693907
0.0182211
-0.378705
-0.00639755
-0.39026
-0.0172184
-0.375325
-0.240829
0.133903
-0.3134
-0.16824
0.0880683
-0.332871
0.0433251
-0.345517
0.00918685
-0.341186
-0.231642
0.155659
-0.269982
-0.199077
0.11004
-0.287253
0.0648997
-0.300376
0.0234996
-0.299786
-0.208142
0.174794
-0.231671
-0.213105
0.128275
-0.240734
0.0787448
-0.250846
0.0315193
-0.252561
-0.176623
0.167216
-0.217768
0.117488
0.0715259
0.0283954
0.38999
0.0879295
-0.0819401
0.396972
0.0834924
-0.0904743
0.359715
0.167994
-0.130736
0.309346
0.0213969
0.0289718
-0.247912
0.379751
0.394718
0.0891908
0.408234
0.069977
0.399986
0.176241
0.354156
0.0672273
-0.124046
0.399321
0.0858491
0.414441
0.0548571
0.413584
0.177098
0.378835
0.101976
0.0127159
0.404225
0.077604
0.41944
0.0396423
0.420369
0.176168
0.396606
0.12574
0.149808
0.40689
0.424103
0.417729
0.400493
0.422993
0.0870578
0.33735
0.0856431
0.250656
0.0866944
0.274216
-0.0235603
-0.204295
0.478511
0.515169
0.510338
0.466295
0.471707
0.647163
0.384102
0.0944095
0.299858
0.0842435
0.200996
0.0988625
0.117327
0.0836682
0.0352244
0.523805
0.394944
0.294729
0.210158
)
;

boundaryField
{
    left
    {
        type            calculated;
        value           nonuniform List<scalar> 
17
(
-0.60402
-0.60402
-0.60402
-0.60402
-0.60402
-0.39598
-0.39598
-0.39598
-0.39598
-0.39598
-0.39598
-0.39598
-0.39598
-0.39598
-0.39598
-0.510051
-0.510051
)
;
    }
    right
    {
        type            calculated;
        value           nonuniform List<scalar> 
17
(
0.150981
0.401442
0.25636
0.215731
0.221802
0.264425
0.34731
0.445247
0.522321
0.602346
0.688786
0.723451
1.08951
0.938764
0.744157
0.422163
-0.0347948
)
;
    }
    down
    {
        type            calculated;
        value           uniform 0;
    }
    up
    {
        type            calculated;
        value           uniform 0;
    }
    cylinder
    {
        type            calculated;
        value           uniform 0;
    }
    defaultFaces
    {
        type            empty;
    }
}


// ************************************************************************* //
