/*--------------------------------*- C++ -*----------------------------------*\
  =========                 |
  \\      /  F ield         | OpenFOAM: The Open Source CFD Toolbox
   \\    /   O peration     | Website:  https://openfoam.org
    \\  /    A nd           | Version:  13
     \\/     M anipulation  |
\*---------------------------------------------------------------------------*/
FoamFile
{
    format      ascii;
    class       volScalarField;
    location    "1.65";
    object      p;
}
// * * * * * * * * * * * * * * * * * * * * * * * * * * * * * * * * * * * * * //

dimensions      [0 2 -2 0 0 0 0];

internalField   nonuniform List<scalar> 
1800
(
-1.54194
-1.53234
-1.52257
-1.51475
-1.51176
-1.51401
-1.51849
-1.52041
-1.51385
-1.50575
-1.58963
-1.57954
-1.57015
-1.56264
-1.55819
-1.55561
-1.5512
-1.5409
-1.52228
-1.50017
-1.65562
-1.64461
-1.63489
-1.62659
-1.61869
-1.60813
-1.59127
-1.56573
-1.53159
-1.49245
-1.73725
-1.72499
-1.71373
-1.70241
-1.68747
-1.66505
-1.63295
-1.59135
-1.5421
-1.49004
-1.83166
-1.81785
-1.80354
-1.78587
-1.75942
-1.72125
-1.67174
-1.61366
-1.55085
-1.48783
-1.93399
-1.91868
-1.89909
-1.87082
-1.82846
-1.77169
-1.70417
-1.63093
-1.55615
-1.48366
-2.03706
-2.01986
-1.99214
-1.9489
-1.88711
-1.81028
-1.72528
-1.63816
-1.55303
-1.47275
-2.13121
-2.11129
-2.07239
-2.01087
-1.92773
-1.83124
-1.73034
-1.63111
-1.53681
-1.44914
-2.20531
-2.18137
-2.12897
-2.04723
-1.94295
-1.82863
-1.71409
-1.60469
-1.50277
-1.40915
-2.24832
-2.21911
-2.15203
-2.05002
-1.92676
-1.79763
-1.67225
-1.55484
-1.44677
-1.348
-0.762575
-0.769187
-0.77629
-0.782999
-0.788963
-0.792467
-0.791636
-0.785319
-0.771223
-0.746198
-0.872058
-0.877593
-0.883724
-0.890338
-0.89712
-0.902062
-0.903085
-0.89853
-0.885799
-0.861648
-1.00674
-1.01095
-1.01631
-1.0236
-1.03251
-1.04057
-1.04512
-1.04396
-1.03429
-1.01232
-1.14972
-1.15244
-1.15716
-1.16598
-1.17834
-1.19118
-1.20106
-1.20503
-1.20006
-1.18172
-1.28059
-1.28152
-1.28502
-1.2953
-1.31116
-1.32918
-1.34519
-1.35551
-1.35719
-1.3418
-1.3818
-1.37989
-1.3815
-1.39084
-1.40729
-1.42783
-1.44804
-1.46328
-1.46815
-1.45272
-1.44641
-1.44141
-1.43944
-1.44492
-1.45821
-1.47743
-1.49855
-1.51617
-1.5238
-1.50812
-1.47959
-1.47214
-1.46613
-1.46584
-1.47306
-1.48739
-1.50572
-1.52225
-1.5308
-1.5137
-1.49602
-1.48724
-1.47835
-1.47313
-1.47459
-1.48352
-1.49754
-1.51148
-1.5181
-1.49762
-1.51258
-1.50328
-1.49333
-1.48571
-1.48396
-1.48923
-1.4993
-1.50837
-1.50838
-1.48467
-0.542215
0.0277522
0.0732066
0.112689
0.0972417
0.0752261
0.0556053
0.0383565
0.0224411
0.00757857
-0.628999
0.00659478
0.058777
0.105375
0.0930031
0.0723785
0.0535292
0.036907
0.021596
0.00725729
-0.743685
-0.035822
0.0405593
0.0959809
0.0877282
0.0689896
0.0511631
0.0353069
0.0206796
0.00691218
-0.88171
-0.0908592
0.0189332
0.0841897
0.0813316
0.0650275
0.0484897
0.0335462
0.0196855
0.00654203
-1.03092
-0.155289
-0.00577678
0.0698309
0.0737149
0.0604562
0.0454931
0.031616
0.0186079
0.00614633
-1.17785
-0.228934
-0.0336595
0.0528635
0.0647721
0.0552431
0.0421644
0.0295113
0.0174427
0.00572535
-1.29938
-0.312648
-0.0654433
0.033266
0.054363
0.0493418
0.0385002
0.0272325
0.0161897
0.00528137
-1.37573
-0.403802
-0.101939
0.0110798
0.0423266
0.0426534
0.0344724
0.0247744
0.0148496
0.00481968
-1.40074
-0.494905
-0.142812
-0.0132816
0.0286484
0.0350462
0.0299977
0.022099
0.0134069
0.00434386
-1.38486
-0.579148
-0.1861
-0.0386955
0.0137883
0.0265941
0.0250433
0.0191682
0.0118329
0.00385067
-1.28395
-0.596701
-0.212299
-0.0620876
-0.00341885
0.0154418
0.0181094
0.0149614
0.00955322
0.00316333
-1.08084
-0.558358
-0.226377
-0.0855898
-0.0236723
0.0012941
0.0090135
0.00936207
0.00657363
0.00221466
-0.936968
-0.527657
-0.236893
-0.100366
-0.0381371
-0.010038
0.00118223
0.00435784
0.00385281
0.00134335
-0.824642
-0.49931
-0.249545
-0.120178
-0.0558732
-0.0228503
-0.00712684
-0.000729274
0.001153
0.00046555
-0.740997
-0.480251
-0.262023
-0.13582
-0.0697134
-0.0334917
-0.0144027
-0.00529592
-0.00129356
-0.000330866
-0.677295
-0.468331
-0.276749
-0.153445
-0.084194
-0.0439881
-0.0213235
-0.00952593
-0.00352238
-0.00105386
-0.630796
-0.465531
-0.294613
-0.171505
-0.0974175
-0.0531284
-0.0273005
-0.0131477
-0.00541838
-0.00166355
-0.599855
-0.470463
-0.314469
-0.189617
-0.109576
-0.0610659
-0.032353
-0.0161342
-0.00694733
-0.00213754
-0.58492
-0.480698
-0.330749
-0.202762
-0.11733
-0.0657211
-0.0352623
-0.0178107
-0.00778514
-0.0023696
-0.575772
-0.487101
-0.340314
-0.210935
-0.122463
-0.0688542
-0.037237
-0.0189798
-0.00852575
-0.00257922
-1.17815
-1.24443
-1.29246
-1.3271
-1.34909
-1.36734
-1.38033
-1.40192
-1.41785
-1.45303
-0.98775
-1.05545
-1.10788
-1.14818
-1.17661
-1.19863
-1.2123
-1.2241
-1.23191
-1.24446
-0.838036
-0.90363
-0.956891
-0.998254
-1.02889
-1.04991
-1.0627
-1.0686
-1.07124
-1.07142
-0.716782
-0.780041
-0.83228
-0.873344
-0.904157
-0.924862
-0.937468
-0.942436
-0.942764
-0.939197
-0.619557
-0.680194
-0.730445
-0.770624
-0.800929
-0.821942
-0.834744
-0.840016
-0.839298
-0.833714
-0.541786
-0.599746
-0.647897
-0.686879
-0.716496
-0.737535
-0.750435
-0.755959
-0.755096
-0.748984
-0.480397
-0.536017
-0.582396
-0.620049
-0.648831
-0.669373
-0.68225
-0.687943
-0.68778
-0.68222
-0.434429
-0.488242
-0.533371
-0.569747
-0.597641
-0.617365
-0.630203
-0.635878
-0.636684
-0.631435
-0.406852
-0.460037
-0.504253
-0.539764
-0.567147
-0.586536
-0.599347
-0.604869
-0.606244
-0.600918
-0.393856
-0.447467
-0.492501
-0.529165
-0.55736
-0.577672
-0.590717
-0.596863
-0.597692
-0.591027
0.378261
0.308075
0.227643
0.141468
0.0483096
-0.0542257
-0.166095
-0.281103
-0.37809
-0.425912
0.163949
0.0873773
0.00199007
-0.0914956
-0.194903
-0.309906
-0.435486
-0.56381
-0.670966
-0.722765
-0.0718809
-0.152107
-0.24088
-0.339411
-0.449824
-0.573451
-0.708704
-0.846548
-0.961059
-1.01506
-0.300479
-0.385054
-0.47904
-0.583944
-0.701622
-0.833113
-0.976455
-1.12162
-1.24127
-1.29554
-0.510666
-0.600922
-0.701462
-0.813531
-0.938647
-1.0778
-1.22889
-1.37989
-1.50089
-1.55426
-0.70081
-0.79701
-0.904022
-1.02288
-1.15477
-1.29998
-1.45836
-1.61035
-1.72904
-1.78177
-0.871435
-0.972711
-1.08498
-1.20904
-1.34625
-1.49611
-1.65408
-1.80493
-1.9195
-1.96991
-1.02281
-1.12724
-1.24226
-1.36882
-1.5078
-1.65831
-1.81419
-1.95956
-2.06635
-2.1127
-1.15529
-1.25957
-1.37421
-1.50017
-1.63778
-1.78516
-1.93485
-2.06995
-2.16551
-2.20658
-1.26412
-1.36633
-1.47856
-1.60144
-1.73454
-1.87479
-2.01348
-2.1338
-2.2157
-2.25085
1.78001
1.79459
1.80966
1.82413
1.83714
1.84804
1.85611
1.86134
1.86565
1.87019
1.7046
1.71617
1.72754
1.73768
1.74589
1.75147
1.75376
1.75299
1.75208
1.75348
1.60868
1.61632
1.62285
1.6274
1.62942
1.62822
1.62313
1.61471
1.60709
1.6046
1.49354
1.49673
1.49743
1.49508
1.48941
1.47975
1.46545
1.44749
1.43148
1.42442
1.359
1.35677
1.35072
1.34059
1.32635
1.30728
1.28276
1.25415
1.22863
1.21653
1.20853
1.20071
1.18695
1.16763
1.14321
1.11301
1.07653
1.03567
0.999426
0.981503
1.04218
1.02821
1.00661
0.978073
0.943215
0.90131
0.851968
0.7978
0.749938
0.725869
0.868289
0.847159
0.815608
0.775579
0.728344
0.673249
0.609987
0.541812
0.482018
0.451658
0.691773
0.663249
0.621161
0.568709
0.507805
0.437869
0.358866
0.275072
0.202441
0.165752
0.526952
0.481096
0.421716
0.353601
0.27778
0.192701
0.0981069
-0.000914533
-0.0857873
-0.128314
1.52859
1.49321
1.49981
1.49387
1.4909
1.5022
1.52171
1.55855
1.61797
1.71511
1.52147
1.48733
1.49384
1.48685
1.48257
1.49093
1.50714
1.53763
1.58641
1.66602
1.51489
1.4814
1.48774
1.4794
1.47363
1.47864
1.49108
1.51366
1.54928
1.60537
1.50883
1.47544
1.48154
1.47156
1.46412
1.46531
1.47358
1.4865
1.50692
1.53245
1.50326
1.46952
1.47528
1.46336
1.45404
1.45093
1.45466
1.45596
1.45996
1.44612
1.49819
1.46365
1.46898
1.45483
1.44341
1.43549
1.43434
1.42193
1.40872
1.34562
1.49362
1.45788
1.46264
1.44601
1.43219
1.41905
1.41257
1.38436
1.35336
1.22934
1.48958
1.45223
1.45627
1.43693
1.4204
1.4017
1.38922
1.34344
1.29354
1.09841
1.4861
1.44672
1.44989
1.42763
1.40806
1.38359
1.36415
1.29931
1.22777
0.951097
1.48324
1.44139
1.4435
1.41816
1.39529
1.36488
1.33823
1.25357
1.15856
0.798643
1.48035
1.43519
1.43533
1.40644
1.37848
1.34061
1.3029
1.19736
1.07789
0.652076
1.47875
1.42872
1.42627
1.39365
1.35999
1.31502
1.26486
1.14778
1.00132
0.62181
1.4791
1.42312
1.41759
1.3814
1.34216
1.292
1.22972
1.10774
0.939736
0.604958
1.48202
1.41839
1.40925
1.36976
1.32498
1.27195
1.19794
1.07628
0.889251
0.595942
1.48803
1.41459
1.40099
1.35861
1.30849
1.25482
1.16952
1.05275
0.849806
0.591003
1.4978
1.41173
1.39345
1.34816
1.29315
1.24045
1.14503
1.03633
0.821001
0.586249
1.51104
1.40829
1.38406
1.33664
1.27897
1.22864
1.12451
1.02486
0.801355
0.582537
1.53536
1.4093
1.3781
1.32783
1.26725
1.21938
1.10835
1.0171
0.788761
0.580768
1.54716
1.40066
1.36447
1.31651
1.25814
1.21288
1.09757
1.01274
0.78259
0.581778
1.62208
1.41341
1.36642
1.31254
1.25479
1.20955
1.0925
1.01114
0.779268
0.584666
0.359865
0.183292
-0.0258415
-0.228726
-0.413918
-0.581058
-0.732792
-0.869557
-0.989988
-1.09348
0.305933
0.16594
0.0056923
-0.155886
-0.307853
-0.447798
-0.577279
-0.697164
-0.807074
-0.904734
0.288305
0.169302
0.0398093
-0.0935285
-0.222961
-0.34565
-0.46145
-0.570017
-0.6703
-0.759853
0.298829
0.188451
0.073201
-0.0421166
-0.154805
-0.26367
-0.367951
-0.466941
-0.559098
-0.6428
0.314841
0.211356
0.105742
0.00245655
-0.0980149
-0.196288
-0.291872
-0.383946
-0.470303
-0.549447
0.331753
0.234648
0.136561
0.0415409
-0.050653
-0.141517
-0.230875
-0.317774
-0.399674
-0.475032
0.348134
0.256681
0.164526
0.0752033
-0.0117282
-0.0977932
-0.182866
-0.265818
-0.344147
-0.416322
0.363341
0.276794
0.189388
0.103829
0.0197625
-0.063813
-0.146509
-0.226988
-0.302865
-0.372529
0.377427
0.294985
0.21127
0.127608
0.044035
-0.0393977
-0.121671
-0.201332
-0.276402
-0.345408
0.389716
0.309822
0.227668
0.14355
0.0585654
-0.0260422
-0.108838
-0.188504
-0.26341
-0.332314
-1.24912
-1.21175
-1.13085
-1.02846
-0.924511
-0.829832
-0.748311
-0.680948
-0.628032
-0.590125
-1.28542
-1.25265
-1.18594
-1.09926
-1.0082
-0.923346
-0.849282
-0.787587
-0.739281
-0.705755
-1.25729
-1.22818
-1.1767
-1.10917
-1.03511
-0.963549
-0.899474
-0.845013
-0.801675
-0.771051
-1.17982
-1.15347
-1.11564
-1.06766
-1.01292
-0.957476
-0.905914
-0.860661
-0.823545
-0.796196
-1.07469
-1.05091
-1.02339
-0.991554
-0.954836
-0.915779
-0.877552
-0.842376
-0.812029
-0.787601
-0.964331
-0.943625
-0.922984
-0.901925
-0.878816
-0.853906
-0.828664
-0.804296
-0.782494
-0.764223
-0.865339
-0.848767
-0.832667
-0.817057
-0.80138
-0.785659
-0.770271
-0.755667
-0.74169
-0.728328
-0.785583
-0.77365
-0.761037
-0.74771
-0.734682
-0.723302
-0.714839
-0.709176
-0.707964
-0.709335
-0.725174
-0.71695
-0.706414
-0.692888
-0.67929
-0.669109
-0.665082
-0.66853
-0.677652
-0.69671
-0.689187
-0.682815
-0.671126
-0.65491
-0.63928
-0.62906
-0.628807
-0.642799
-0.669014
-0.723093
-0.691369
-0.683333
-0.670273
-0.652984
-0.636598
-0.627381
-0.62937
-0.644579
-0.671342
-0.698549
-0.724091
-0.714409
-0.703263
-0.692469
-0.685314
-0.685338
-0.694742
-0.713753
-0.74205
-0.769471
-0.761308
-0.753287
-0.74875
-0.750784
-0.760611
-0.77866
-0.804338
-0.835988
-0.871483
-0.900882
-0.777519
-0.77429
-0.776674
-0.788185
-0.808817
-0.837401
-0.872121
-0.911006
-0.951554
-0.982416
-0.763249
-0.764982
-0.77089
-0.784534
-0.805716
-0.832924
-0.864346
-0.89837
-0.933644
-0.957506
-0.72622
-0.730757
-0.737768
-0.748977
-0.764684
-0.783803
-0.805019
-0.827037
-0.846758
-0.857361
-0.684513
-0.690598
-0.697918
-0.706876
-0.717746
-0.729473
-0.740814
-0.750444
-0.75551
-0.751879
-0.655544
-0.662559
-0.670205
-0.678027
-0.68604
-0.69307
-0.69787
-0.699179
-0.694519
-0.680996
-0.654296
-0.661918
-0.669719
-0.677049
-0.68364
-0.688131
-0.689231
-0.685729
-0.675328
-0.655423
-0.688648
-0.695779
-0.703749
-0.710877
-0.716849
-0.720154
-0.719597
-0.713761
-0.700394
-0.676783
-0.898648
-0.506976
-0.174342
0.0300961
0.0858291
0.0806656
0.0654665
0.0478541
0.0289808
0.0100911
-0.975633
-0.427343
-0.094144
0.0662159
0.0941398
0.0820502
0.064869
0.0469837
0.0282968
0.00983686
-1.00601
-0.353736
-0.029401
0.0919687
0.0992145
0.0823814
0.0643089
0.0461901
0.0276728
0.00960051
-0.980142
-0.287251
0.0157615
0.106622
0.101967
0.0826772
0.0637583
0.0454211
0.0270756
0.0093702
-0.888157
-0.217473
0.0465069
0.115342
0.103725
0.082727
0.0631142
0.0446295
0.0264827
0.0091404
-0.761703
-0.138057
0.0681945
0.121001
0.10473
0.082454
0.0623386
0.0437955
0.0258842
0.0089081
-0.62739
-0.06222
0.0818696
0.123941
0.104929
0.0818254
0.0614052
0.0428998
0.0252694
0.00866935
-0.542444
-0.00579601
0.0883016
0.124104
0.104305
0.0808226
0.0602884
0.0419241
0.0246275
0.0084203
-0.499008
0.0251921
0.0885591
0.12207
0.102845
0.0794141
0.0589641
0.0408515
0.0239484
0.00815752
-0.498765
0.0351746
0.0833468
0.118218
0.100506
0.0775608
0.0574102
0.039667
0.0232226
0.00787786
-0.565499
-0.599201
-0.350064
-0.0688697
0.0506017
0.0734639
0.0655139
0.0490204
0.0301349
0.0105863
-0.560888
-0.59946
-0.359542
-0.0710699
0.0520576
0.0738964
0.0654263
0.0488519
0.0299738
0.010522
-0.608595
-0.602431
-0.354591
-0.0667078
0.0553638
0.0744676
0.0652042
0.0486224
0.0297915
0.0104526
-0.701871
-0.59296
-0.32913
-0.05068
0.0620861
0.0757693
0.0651615
0.048449
0.0296233
0.0103768
-0.818277
-0.561115
-0.25091
-0.00907487
0.0759492
0.0793997
0.0657412
0.0484201
0.0294782
0.0103013
-0.554613
-0.666342
-0.735367
-0.767446
-0.772262
-0.7446
-0.729816
-0.680081
-0.649747
-0.605008
-0.554722
-0.667934
-0.734948
-0.765014
-0.76557
-0.735316
-0.723229
-0.664097
-0.649515
-0.597327
-0.556683
-0.670745
-0.736176
-0.765072
-0.760035
-0.736237
-0.71247
-0.672361
-0.659203
-0.628247
-0.562186
-0.677545
-0.742505
-0.770239
-0.761481
-0.744536
-0.708038
-0.697976
-0.683106
-0.707609
-0.572035
-0.689095
-0.754317
-0.780186
-0.77141
-0.752046
-0.716365
-0.714469
-0.702884
-0.791961
1.51947
1.51049
1.49468
1.47511
1.4527
1.42644
1.39566
1.36224
1.33431
1.32174
1.60494
1.60776
1.60395
1.59553
1.58374
1.56813
1.54824
1.52564
1.50686
1.49898
1.68671
1.69425
1.69699
1.6963
1.69306
1.68686
1.67715
1.66486
1.65471
1.65124
1.75661
1.76824
1.77709
1.78362
1.78809
1.79
1.78871
1.78472
1.78147
1.78188
1.81427
1.82905
1.84209
1.8535
1.86329
1.87096
1.87587
1.87823
1.88041
1.88389
1.85521
1.87197
1.88824
1.90366
1.91788
1.93034
1.94036
1.94782
1.95424
1.96024
1.87921
1.8973
1.91562
1.93351
1.95041
1.96572
1.97876
1.98926
1.99828
2.00584
1.88423
1.90271
1.92195
1.94106
1.9593
1.97602
1.99055
2.0025
2.01271
2.02098
1.86973
1.88781
1.90684
1.9258
1.94382
1.96026
1.97444
1.986
1.99584
2.00385
1.8351
1.8519
1.86954
1.88695
1.90323
1.91773
1.92976
1.93907
1.94695
1.95371
-0.424075
-0.467603
-0.524805
-0.596208
-0.682581
-0.783481
-0.89595
-1.00944
-1.10128
-1.14308
-0.213181
-0.26205
-0.323353
-0.397805
-0.486601
-0.590079
-0.707213
-0.827575
-0.926814
-0.971472
0.02917
-0.0244838
-0.0893583
-0.165871
-0.255375
-0.358732
-0.474781
-0.59499
-0.700416
-0.746057
0.28324
0.226538
0.159913
0.083246
-0.0046965
-0.104908
-0.216548
-0.333234
-0.434534
-0.481945
0.529171
0.472162
0.406753
0.333018
0.249828
0.155966
0.0518057
-0.0570014
-0.150452
-0.195925
0.752387
0.698988
0.638659
0.5715
0.496377
0.411935
0.318327
0.220619
0.137153
0.0959522
0.949582
0.903244
0.851186
0.793401
0.728672
0.655596
0.574254
0.489252
0.41702
0.381405
1.12821
1.08996
1.04692
0.99907
0.945038
0.883416
0.814327
0.741999
0.680978
0.651267
1.29619
1.26452
1.22798
1.18775
1.14262
1.09117
1.03347
0.973226
0.92295
0.898995
1.44069
1.41484
1.38303
1.34919
1.31275
1.27207
1.22673
1.17941
1.14022
1.12201
1.64666
1.53339
1.53794
1.5293
1.53616
1.5612
1.58444
1.62226
1.63963
1.61018
1.62923
1.53253
1.53748
1.52942
1.53482
1.55952
1.58409
1.62509
1.6563
1.66211
1.6134
1.53054
1.53585
1.52856
1.5328
1.55692
1.58295
1.62769
1.67241
1.71292
1.59907
1.52764
1.53329
1.52679
1.53008
1.55343
1.58054
1.62786
1.68365
1.75058
1.58609
1.52401
1.52996
1.52419
1.52666
1.54903
1.57669
1.62569
1.69002
1.77796
1.57429
1.51979
1.52599
1.5208
1.52251
1.54367
1.57136
1.6211
1.69142
1.79454
1.56353
1.51508
1.52148
1.51667
1.51761
1.53734
1.56452
1.61396
1.68763
1.8004
1.55367
1.50999
1.51652
1.51186
1.51199
1.53003
1.55615
1.60418
1.67846
1.7956
1.54462
1.5046
1.51121
1.50642
1.50564
1.52174
1.54623
1.59172
1.66386
1.77988
1.53629
1.49899
1.50562
1.50041
1.4986
1.51246
1.53475
1.57653
1.64376
1.75305
1.81141
1.53537
1.52654
1.51913
1.53207
1.5539
1.5677
1.58887
1.54997
1.52442
1.73774
1.52909
1.52698
1.52095
1.53276
1.55479
1.56834
1.59038
1.55403
1.52101
1.71539
1.53407
1.53182
1.52364
1.5339
1.55639
1.57075
1.5946
1.56554
1.52288
1.68911
1.5342
1.53498
1.52619
1.53513
1.55847
1.57506
1.60216
1.58453
1.5336
1.66623
1.53376
1.5371
1.52817
1.53614
1.5605
1.57995
1.61183
1.60905
1.55082
1.32008
1.22853
1.10352
0.940092
0.740633
0.512851
0.268275
0.0232219
-0.204434
-0.399231
1.31418
1.22542
1.1061
0.947856
0.753433
0.529013
0.284873
0.03708
-0.195612
-0.39584
1.32564
1.23274
1.1107
0.953898
0.763233
0.541384
0.297024
0.0465435
-0.190345
-0.39491
1.36038
1.25316
1.11925
0.959547
0.770654
0.550132
0.304909
0.0517718
-0.188812
-0.397344
1.41646
1.28786
1.13384
0.965301
0.774589
0.554363
0.30887
0.0537917
-0.190491
-0.403594
)
;

boundaryField
{
    left
    {
        type            zeroGradient;
    }
    right
    {
        type            fixedValue;
        value           uniform 0;
    }
    down
    {
        type            zeroGradient;
    }
    up
    {
        type            zeroGradient;
    }
    cylinder
    {
        type            zeroGradient;
    }
    defaultFaces
    {
        type            empty;
    }
}


// ************************************************************************* //
