/*--------------------------------*- C++ -*----------------------------------*\
  =========                 |
  \\      /  F ield         | OpenFOAM: The Open Source CFD Toolbox
   \\    /   O peration     | Website:  https://openfoam.org
    \\  /    A nd           | Version:  13
     \\/     M anipulation  |
\*---------------------------------------------------------------------------*/
FoamFile
{
    format      ascii;
    class       surfaceScalarField;
    location    "1.65";
    object      phi;
}
// * * * * * * * * * * * * * * * * * * * * * * * * * * * * * * * * * * * * * //

dimensions      [0 3 -1 0 0 0 0];

internalField   nonuniform List<scalar> 
3485
(
0.000810561
0.00617929
-0.00698985
0.00520858
0.00976836
-0.0141664
0.0142485
0.00534767
-0.0143876
0.0284521
-0.00638485
-0.00781874
0.0478792
-0.0242269
0.0047998
0.0719553
-0.0463873
0.0223112
0.0993281
-0.0705847
0.0432119
0.128147
-0.0944652
0.0656461
0.156442
-0.116028
0.0877331
-0.132889
0.107357
0.181973
0.0011003
0.00507899
0.00658708
0.00428159
0.0178284
-0.00589362
0.0353419
-0.0238984
0.0586406
-0.0475256
0.0861273
-0.073874
0.115434
-0.0998916
0.144074
-0.123105
0.169969
-0.141922
-0.156082
0.193162
0.00184693
0.00323206
0.00932008
-0.00319156
0.0236107
-0.0201843
0.0446578
-0.0449454
0.0708723
-0.0737401
0.0995105
-0.102512
0.127589
-0.12797
0.152724
-0.14824
0.173696
-0.162894
-0.172596
0.19021
0.00282127
0.000410793
0.0126763
-0.0130466
0.0301351
-0.0376431
0.0539388
-0.0687491
0.081162
-0.100963
0.108346
-0.129696
0.132732
-0.152356
0.152855
-0.168362
0.168418
-0.178458
-0.184055
0.179877
0.00385475
-0.00344395
0.0161057
-0.0252975
0.0361086
-0.0576461
0.0610522
-0.0936927
0.0869852
-0.126896
0.110547
-0.153258
0.129883
-0.171692
0.144612
-0.183092
0.155343
-0.189188
-0.191863
0.16315
0.00493398
-0.00837794
0.0191965
-0.03956
0.0405204
-0.07897
0.0646602
-0.117833
0.0874458
-0.149682
0.106356
-0.172168
0.120693
-0.186028
0.13098
-0.19338
0.13823
-0.196438
-0.196924
0.143291
0.00589733
-0.0142753
0.0214372
-0.0550998
0.0425638
-0.100097
0.0642225
-0.139491
0.0828281
-0.168287
0.0969874
-0.186327
0.106945
-0.195986
0.113689
-0.200124
0.11828
-0.201028
-0.200234
0.12159
0.00662629
-0.0209016
0.0224791
-0.0709526
0.0419958
-0.119613
0.0601663
-0.157662
0.0744025
-0.182524
0.0843375
-0.196262
0.0907937
-0.202443
0.0948882
-0.204218
0.0975425
-0.203682
-0.201961
0.0992699
0.00701812
-0.0279197
0.0221754
-0.0861099
0.039073
-0.136511
0.0533546
-0.171943
0.0634903
-0.192659
0.0698367
-0.202609
0.0734705
-0.206076
0.0754441
-0.206192
0.0764838
-0.204722
-0.202456
0.0769784
0.00702089
-0.0349406
0.0206399
-0.0997289
0.0343886
-0.15026
0.0448449
-0.1824
0.0513765
-0.199191
0.0547689
-0.206001
0.056137
-0.207444
0.0563751
-0.20643
0.0560106
-0.204357
0.0552262
-0.201671
-0.00521378
0.0117749
-0.0065611
-0.0152715
0.020434
-0.0103763
-0.0268821
0.0213974
-0.00978684
-0.0382555
0.0185408
-0.00716734
-0.0484985
0.0139418
-0.00369881
-0.0571945
0.00870712
-1.11713e-05
-0.0641502
0.00344443
0.00351131
-0.069377
-0.00147034
0.00669712
-0.0729407
-0.00595159
0.00951535
-0.0101195
-0.0748811
0.0120599
-0.0044153
0.0161902
-0.0133555
0.0293742
-0.0239802
0.0320221
-0.0345885
0.0291491
-0.0442295
0.0235828
-0.0523724
0.01685
-0.0587269
0.00979894
-0.0631024
0.00290519
-0.065618
-0.003436
-0.00935736
-0.0663801
-0.00300822
0.0191984
-0.00986861
0.0362346
-0.0185551
0.0407086
-0.0275706
0.0381646
-0.0359138
0.031926
-0.0429058
0.0238419
-0.0480619
0.0149551
-0.0510673
0.00591062
-0.051791
-0.00271229
-0.0106846
-0.0504638
-0.00106799
0.0202664
-0.00482778
0.0399943
-0.010422
0.0463028
-0.0167468
0.0444894
-0.0228088
0.037988
-0.0278066
0.0288398
-0.031068
0.0182165
-0.0320118
0.00685437
-0.0302996
-0.00442441
-0.0150425
-0.0259417
0.00104478
0.0192216
0.0011188
0.0399203
-0.000377043
0.0477986
-0.00283825
0.0469506
-0.00543325
0.040583
-0.00737099
0.0307775
-0.00792495
0.0187704
-0.00638053
0.00530995
-0.00199826
-0.00880668
-0.0229634
0.0059226
0.00269429
0.0165273
0.0063102
0.0363044
0.00920529
0.0449035
0.011244
0.044912
0.0129173
0.0389096
0.014865
0.0288298
0.0177103
0.0159251
0.0220114
0.0010089
0.0286326
-0.0154279
-0.032883
0.0385522
0.00335923
0.0131681
0.00922877
0.0304349
0.0155369
0.0385955
0.0216461
0.0388027
0.0276627
0.032893
0.0339961
0.0224964
0.0410883
0.00883294
0.0494911
-0.00739392
0.0595119
-0.0254487
-0.0459006
0.0725295
0.00298469
0.0101834
0.00929093
0.0241286
0.0172396
0.0306468
0.0260597
0.0299826
0.0356342
0.0233185
0.046199
0.0119317
0.0581541
-0.00312221
0.0717473
-0.0209871
0.0867196
-0.040421
-0.0630788
0.103898
0.00203709
0.00814631
0.00750208
0.0186636
0.0156427
0.0225061
0.0259909
0.0196345
0.0384705
0.0108389
0.0532748
-0.00287263
0.0705761
-0.0204235
0.0900576
-0.0404686
0.111094
-0.0614573
-0.0846082
0.132623
0.00115645
0.00565372
0.0137722
0.025588
0.0412267
0.0606652
0.0834537
0.108631
0.134907
0.157656
-0.00655199
-0.288614
0.220285
0.0880917
-0.28417
0.189526
0.14477
-0.203812
0.147133
0.177918
-0.148748
0.1156
0.195621
-0.10975
0.0920474
0.204527
-0.0805736
0.0716676
0.208744
-0.0618297
0.0576124
0.210162
-0.0428813
0.0414633
0.210377
-0.0363993
0.0361847
-0.0229575
0.0238546
0.00061249
-0.355606
0.0879437
-0.371501
0.14506
-0.260929
0.178111
-0.181798
0.195869
-0.127508
0.20485
-0.0895545
0.209102
-0.0660813
0.210553
-0.0443323
0.210786
-0.036633
-0.0221051
0.0121753
-0.418246
0.0899031
-0.449229
0.145818
-0.316843
0.178162
-0.214143
0.195778
-0.145124
0.204815
-0.0985908
0.209157
-0.0704234
0.210735
-0.0459109
0.211099
-0.0369965
-0.0214246
0.0320054
-0.476193
0.0965283
-0.513751
0.147953
-0.368268
0.178407
-0.244597
0.195451
-0.162168
0.204444
-0.107584
0.208913
-0.0748917
0.210709
-0.0477073
0.211311
-0.0375983
-0.0210411
0.0583819
-0.528652
0.108371
-0.563741
0.15204
-0.411937
0.179194
-0.271751
0.195035
-0.178009
0.203787
-0.116336
0.208381
-0.0794861
0.210475
-0.0498018
0.21142
-0.0385426
-0.0210781
0.0874015
-0.577501
0.123494
-0.599833
0.157719
-0.446162
0.180633
-0.294666
0.194675
-0.192051
0.202915
-0.124576
0.207588
-0.084159
0.210041
-0.0522541
0.211423
-0.0399252
-0.0216556
0.113582
-0.618554
0.138613
-0.624864
0.163591
-0.47114
0.182308
-0.313382
0.19437
-0.204112
0.201901
-0.132107
0.206579
-0.0888371
0.209422
-0.0550973
0.211323
-0.0418264
-0.0228878
0.134101
-0.648757
0.150814
-0.641577
0.16801
-0.488337
0.183319
-0.328691
0.193823
-0.214617
0.200719
-0.139003
0.205388
-0.0935062
0.208647
-0.0583558
0.21113
-0.0443093
-0.0248798
0.148223
-0.664357
0.158453
-0.651807
0.169999
-0.499883
0.182811
-0.341502
0.192498
-0.224304
0.199165
-0.14567
0.203978
-0.0983198
0.207724
-0.0621018
0.210851
-0.0474358
-0.0277305
0.156441
-0.663141
0.16172
-0.657086
0.169728
-0.507891
0.180646
-0.352421
0.189994
-0.233652
0.196913
-0.152588
0.202187
-0.103594
0.206598
-0.0665132
0.210474
-0.0513113
-0.0315449
0.567111
-0.617003
-0.613249
0.492422
-0.582397
0.425725
-0.441194
0.383643
-0.310338
0.360121
-0.210131
0.346804
-0.139271
0.338559
-0.0953493
0.333566
-0.0615202
0.329992
-0.0477374
-0.0295225
0.573227
-0.518378
-0.671851
0.483271
-0.492441
0.422442
-0.380366
0.385842
-0.273738
0.364014
-0.188303
0.350513
-0.12577
0.341562
-0.0863985
0.335836
-0.0557942
0.331506
-0.0434071
-0.0269844
0.58747
-0.432486
-0.673363
0.511585
-0.416556
0.45146
-0.320241
0.40732
-0.229597
0.377637
-0.15862
0.358605
-0.106738
0.346285
-0.0740788
0.338675
-0.0481843
0.333147
-0.0378789
-0.0238194
0.587138
-0.357875
-0.661748
0.513793
-0.343212
0.455155
-0.261603
0.412062
-0.186504
0.382447
-0.129004
0.362696
-0.0869875
0.349322
-0.0607042
0.340792
-0.0396545
0.334463
-0.0315504
-0.0201449
0.589328
-0.295407
-0.651796
0.522351
-0.276234
0.46481
-0.204062
0.419992
-0.141686
0.38812
-0.0971328
0.366584
-0.0654513
0.3519
-0.0460197
0.342495
-0.0302502
0.335485
-0.0245398
-0.0160367
0.589716
-0.240946
-0.644178
0.525761
-0.212279
0.468499
-0.1468
0.423031
-0.0962174
0.39036
-0.0644624
0.368204
-0.0432952
0.352992
-0.030807
0.343192
-0.0204505
0.335806
-0.0171544
-0.0116395
0.582681
-0.18801
-0.635618
0.518834
-0.148432
0.461998
-0.0899636
0.417591
-0.0518103
0.386084
-0.0329563
0.364903
-0.0221137
0.350312
-0.0162165
0.340871
-0.011009
0.333624
-0.00990715
-0.00721648
0.543649
-0.126012
-0.605647
0.478674
-0.0834567
0.426635
-0.0379242
0.388982
-0.0141581
0.363279
-0.007253
0.346307
-0.00514193
0.334566
-0.00447518
0.326909
-0.00335188
0.320791
-0.00378874
-0.00329585
0.4131
-0.0530872
-0.486025
0.355301
-0.0256574
0.321108
-0.00373105
0.302096
0.00485337
0.290423
0.00441989
0.282674
0.00260752
0.276959
0.00124009
0.273059
0.000547764
0.269491
-0.000221331
-0.000685632
0.138745
-0.191832
0.113087
0.109356
0.11421
0.11863
0.121237
0.122477
0.123025
0.122804
0.546328
0.0465005
-0.537602
0.556738
0.0665685
0.568178
0.0878296
0.581818
0.10795
0.595548
0.129561
0.611592
0.147106
0.623282
0.168188
0.63473
0.178762
0.628436
0.199456
0.19716
0.522409
0.0385956
-0.514504
0.533619
0.0553581
0.545445
0.0760041
0.561196
0.0921991
0.577368
0.113389
0.597231
0.127243
0.617161
0.148257
0.637488
0.158435
0.658979
0.177965
0.184288
0.505407
0.0310205
-0.497832
0.515949
0.0448158
0.527979
0.063974
0.5431
0.0770781
0.560002
0.0964871
0.579225
0.10802
0.60087
0.126612
0.62316
0.136145
0.648779
0.152346
0.159704
0.492847
0.023281
-0.485108
0.502746
0.0349168
0.515204
0.0515165
0.529691
0.0625914
0.546901
0.0792771
0.565691
0.0892296
0.587384
0.104919
0.610113
0.113416
0.635644
0.126814
0.1336
0.482832
0.0155704
-0.475121
0.49239
0.0253581
0.505011
0.038896
0.519349
0.0482536
0.536741
0.0618847
0.55564
0.0703304
0.577377
0.0831824
0.600344
0.0904494
0.625607
0.101551
0.107411
0.473924
0.00816999
-0.466524
0.483297
0.0159856
0.495803
0.0263898
0.510181
0.0338756
0.527658
0.0444075
0.546826
0.0511627
0.568788
0.0612205
0.592137
0.0671003
0.617687
0.076001
0.0809205
0.463448
0.00143735
-0.456715
0.472452
0.00698109
0.484563
0.0142789
0.498823
0.0196154
0.516206
0.0270241
0.535584
0.0317852
0.557846
0.038958
0.581812
0.0431344
0.60817
0.0496432
0.0534725
0.441216
-0.00374739
-0.436031
0.448729
-0.000532611
0.459307
0.00370102
0.472193
0.00672942
0.488314
0.0109028
0.506628
0.0134719
0.528048
0.0175374
0.551504
0.0196794
0.577656
0.023491
0.0254813
0.37363
-0.00463737
-0.37274
0.376509
-0.00341117
0.382142
-0.00193156
0.389816
-0.000944528
0.400361
0.000357844
0.412709
0.00112383
0.427891
0.00235511
0.444784
0.00278669
0.464361
0.00391394
0.00381708
0.183765
-0.188402
0.180354
0.178422
0.177478
0.177835
0.178959
0.181314
0.184101
0.188015
0.0755109
0.145333
-0.13349
-0.0873543
0.0645761
0.147461
-0.136526
0.0544528
0.150024
-0.139901
0.0446197
0.153494
-0.143661
0.0348028
0.157254
-0.147438
0.0250573
0.160246
-0.1505
0.0157634
0.159904
-0.15061
0.00770421
0.150446
-0.142387
0.00205238
0.121372
-0.115721
0.0579143
-0.0558619
0.0728639
0.156077
-0.0836076
0.0622245
0.1581
0.0518972
0.160351
0.0419105
0.163481
0.032146
0.167019
0.022661
0.169731
0.0138434
0.168722
0.00646619
0.157823
0.00156625
0.126272
0.0594805
0.0662984
0.165558
-0.0757791
0.0564374
0.167961
0.0466363
0.170152
0.0371019
0.173015
0.0278605
0.17626
0.0190328
0.178558
0.0110453
0.176709
0.00467032
0.164198
0.000833348
0.130109
0.0603139
0.0565051
0.173879
-0.0648258
0.0477929
0.176674
0.0389585
0.178987
0.0302619
0.181712
0.0218665
0.184656
0.0139902
0.186434
0.00713439
0.183565
0.00211297
0.169219
-0.000183545
0.132406
0.0601303
0.0443554
0.181095
-0.0515718
0.0368592
0.18417
0.0291864
0.18666
0.0215631
0.189335
0.0142371
0.191982
0.00759141
0.19308
0.00214775
0.189009
-0.00101932
0.172387
-0.00134914
0.132736
0.0587812
0.0307546
0.187253
-0.0369128
0.024438
0.190486
0.0179629
0.193135
0.0115306
0.195767
0.0054316
0.198081
0.000141641
0.19837
-0.00332888
0.19248
-0.00432353
0.173381
-0.00258312
0.130995
0.0561981
0.0158141
0.19241
-0.0209708
0.0106211
0.195679
0.00537236
0.198383
0.000256392
0.200883
-0.00433705
0.202674
-0.00777336
0.201806
-0.0092735
0.19398
-0.00788805
0.171996
-0.00379447
0.126902
0.0524036
-9.00388e-05
0.196677
-0.00417753
-0.00421125
0.199801
-0.00824837
0.202421
-0.012003
0.204638
-0.0150327
0.205704
-0.0165789
0.203353
-0.0156382
0.193039
-0.0114971
0.167855
-0.00492637
0.120331
0.0474772
-0.0176137
0.199752
0.014539
-0.0205104
0.202697
-0.023216
0.205126
-0.0254583
0.20688
-0.0266599
0.206906
-0.0259108
0.202603
-0.0221758
0.189304
-0.0149995
0.160678
-0.00590642
0.111238
0.0415708
-0.0362511
0.0343319
-0.0379112
-0.0392151
-0.0397793
-0.0388748
-0.0354623
-0.0285578
-0.0181392
-0.00663026
0.105267
0.036129
-0.117033
-0.0243632
0.0932406
0.0371632
-0.025137
0.0809398
0.0382795
-0.0259787
0.0683384
0.03948
-0.0268786
0.0554177
0.0407478
-0.0278271
0.0422029
0.041958
-0.0287432
0.0288812
0.0426196
-0.0292979
0.0160862
0.0413148
-0.0285198
0.00540124
0.0349027
-0.0242178
0.0179375
-0.0125363
0.104862
0.0479586
-0.116692
0.0928362
0.0491892
0.0805504
0.0505653
0.067978
0.0520524
0.055096
0.0536297
0.0419269
0.0551271
0.0286596
0.0558868
0.0159329
0.0540415
0.00533046
0.0455052
0.023268
0.104176
0.0597437
-0.115961
0.0921546
0.0612102
0.0798889
0.062831
0.0673536
0.0645877
0.0545306
0.0664528
0.0414434
0.0682144
0.0282818
0.0690484
0.0156867
0.0666366
0.00522897
0.0559629
0.0284969
0.102657
0.0715651
-0.114478
0.0907173
0.07315
0.078537
0.0750113
0.0660901
0.0770346
0.0533686
0.0791743
0.0404196
0.0811634
0.0274572
0.0820108
0.0151327
0.0789611
0.00499019
0.0661054
0.0334871
0.100803
0.0832257
-0.112464
0.089
0.0849532
0.0770291
0.0869822
0.0648276
0.0892361
0.052347
0.0916548
0.0396115
0.0938989
0.0268466
0.0947757
0.0147375
0.0910702
0.00483617
0.0760067
0.0383233
0.0974924
0.0949431
-0.10921
0.0857778
0.0966678
0.0739043
0.0988557
0.0618785
0.101262
0.0496912
0.103842
0.0373676
0.106223
0.0251189
0.107024
0.0136182
0.102571
0.00436868
0.0852562
0.042692
0.0941373
0.106125
-0.105319
0.0829672
0.107838
0.0716155
0.110207
0.0599815
0.112896
0.048066
0.115757
0.0359741
0.118314
0.0240032
0.118995
0.0128777
0.113696
0.00406936
0.0940645
0.0467613
0.0875647
0.11713
-0.0985695
0.076756
0.118647
0.0659766
0.120987
0.055113
0.12376
0.044054
0.126816
0.0328196
0.129549
0.0216977
0.130117
0.0114427
0.123951
0.0034955
0.102012
0.0502568
0.0832684
0.126471
-0.0926095
0.0735445
0.12837
0.0632311
0.1313
0.0525395
0.134451
0.0416374
0.137719
0.030675
0.140511
0.0199874
0.140805
0.0103322
0.133607
0.00305934
0.109285
0.0533162
0.0732412
-0.0802606
0.0650856
0.0564853
0.0472752
0.0375562
0.0275674
0.0177618
0.00898176
0.00254573
0.201385
0.00883069
-0.0122258
0.205329
0.021357
-0.0253012
0.209115
0.0380871
-0.0418731
0.211943
0.0583222
-0.0611503
0.211884
0.0731134
-0.0730544
0.210003
0.092083
-0.0902022
0.203031
0.108892
-0.10192
0.19069
0.135074
-0.122733
0.165727
0.180316
-0.155353
0.234385
-0.185691
0.201064
0.00575632
0.204679
0.0177425
0.208182
0.0345837
0.210795
0.0557089
0.210791
0.0731182
0.208711
0.0941629
0.201963
0.11564
0.189312
0.147725
0.164429
0.205199
0.282122
0.200673
0.00307338
0.203881
0.0145338
0.20701
0.0314549
0.209215
0.0535045
0.209169
0.0731642
0.206597
0.0967342
0.200058
0.122179
0.186807
0.160976
0.162351
0.229655
0.328513
0.200205
0.000857794
0.202931
0.0118082
0.205587
0.0287992
0.207219
0.0518724
0.207028
0.0733554
0.203678
0.100084
0.197378
0.128479
0.183012
0.175342
0.159559
0.253108
0.373593
0.199659
-0.000811834
0.201825
0.0096425
0.203898
0.0267261
0.204831
0.0509394
0.204366
0.0738208
0.199969
0.10448
0.193964
0.134484
0.17793
0.191376
0.156045
0.274993
0.417174
0.199033
-0.00185536
0.200564
0.00811145
0.201934
0.0253567
0.20208
0.0507928
0.201175
0.0747267
0.195575
0.11008
0.189873
0.140186
0.171908
0.209341
0.151982
0.29492
0.459946
0.198328
-0.00219387
0.199152
0.00728772
0.19969
0.024819
0.198999
0.0514839
0.197438
0.0762875
0.190659
0.116859
0.184961
0.145883
0.165234
0.229069
0.146959
0.313195
0.501586
0.197545
-0.00174894
0.197595
0.00723784
0.197176
0.0252376
0.195617
0.0530427
0.193152
0.0787532
0.185265
0.124746
0.179262
0.151886
0.157298
0.251033
0.141511
0.328982
0.544527
0.196681
-0.000439681
0.195906
0.00801271
0.19442
0.026723
0.191971
0.0554917
0.188301
0.0824233
0.179578
0.133469
0.172675
0.158789
0.15033
0.273378
0.13509
0.344223
0.587008
0.19577
0.00178036
0.194059
0.0097236
0.191491
0.0292912
0.188022
0.0589603
0.183023
0.0874221
0.173024
0.143468
0.16433
0.167484
0.140106
0.297602
0.129321
0.355008
0.636068
0.304901
-0.00111074
0.309454
0.00517092
0.314951
0.023794
0.32117
0.0527416
0.329089
0.0795026
0.332514
0.140043
0.350894
0.149104
0.354854
0.293641
0.404284
0.305578
0.567329
0.473023
0.305477
-0.00457771
0.310988
-0.000340252
0.317161
0.0176212
0.324919
0.0449836
0.333096
0.0713256
0.340916
0.132223
0.361443
0.128578
0.37371
0.281373
0.419477
0.259811
0.500884
0.485921
0.306238
-0.00880516
0.312906
-0.00700907
0.319984
0.0105441
0.328933
0.0360344
0.336971
0.0632875
0.349216
0.119978
0.368803
0.108991
0.386656
0.26352
0.429138
0.217329
0.426598
0.503424
0.307255
-0.0140502
0.315269
-0.0150232
0.323489
0.00232412
0.332846
0.026678
0.341416
0.0547172
0.356379
0.105015
0.373883
0.0914867
0.397617
0.239786
0.440184
0.174763
0.350275
0.516507
0.30859
-0.0206295
0.318303
-0.0247365
0.327673
-0.00704571
0.336775
0.0175754
0.346275
0.0452173
0.362583
0.0887078
0.378387
0.0756825
0.410407
0.207765
0.447798
0.137372
0.278729
0.519344
0.310303
-0.0289223
0.322014
-0.036448
0.332438
-0.017469
0.34091
0.00910324
0.350961
0.0351666
0.368375
0.0712929
0.382269
0.0617885
0.420798
0.169237
0.45268
0.105489
0.213024
0.518385
0.31271
-0.0396219
0.326275
-0.050013
0.336614
-0.0278083
0.343886
0.00183133
0.353888
0.0251646
0.372001
0.0531806
0.38482
0.0489689
0.427583
0.126474
0.455775
0.0772973
0.152559
0.51624
0.315181
-0.0527924
0.326439
-0.0612709
0.333584
-0.0349539
0.339095
-0.00367943
0.349083
0.0151763
0.367725
0.0345383
0.381515
0.0351788
0.426941
0.0810489
0.453982
0.050256
0.0955167
0.511024
0.308879
-0.0596612
0.301771
-0.0541624
0.295622
-0.0288051
0.297141
-0.00519829
0.307429
0.00488772
0.326382
0.0155853
0.345081
0.0164797
0.390993
0.0351376
0.418995
0.0222536
0.0397615
0.47475
0.242349
0.188187
0.159382
0.154183
0.159071
0.174656
0.191136
0.226273
0.248527
0.288289
0.486643
-0.100974
0.492191
-0.0891556
0.49641
-0.0799983
0.500874
-0.0692896
0.505679
-0.0563771
0.511106
-0.0423398
0.516675
-0.0265394
0.522763
-0.0102653
0.52964
0.00766164
0.0263698
0.488092
-0.103145
0.49019
-0.0912542
0.491016
-0.080824
0.492026
-0.0702998
0.493164
-0.0575147
0.49534
-0.0445159
0.498006
-0.0292059
0.502321
-0.0145796
0.507269
0.00271366
0.0191344
0.498412
-0.0981324
0.495278
-0.0881204
0.492023
-0.0775689
0.488897
-0.0671744
0.48653
-0.0551474
0.48564
-0.0436262
0.485944
-0.0295101
0.488208
-0.0168435
0.491641
-0.000718982
0.0129436
0.505824
-0.0874497
0.496955
-0.079251
0.489756
-0.0703703
0.483803
-0.0612213
0.479295
-0.0506392
0.476447
-0.0407786
0.475528
-0.0285905
0.476548
-0.0178636
0.479724
-0.00389527
0.00756007
0.506471
-0.0745768
0.49519
-0.0679704
0.485762
-0.0609419
0.478152
-0.0536109
0.472518
-0.0450054
0.468657
-0.0369179
0.467093
-0.0270259
0.467408
-0.0181786
0.47029
-0.00677806
0.00272941
0.504451
-0.060642
0.492127
-0.055647
0.481649
-0.0504641
0.473058
-0.0450198
0.466647
-0.0385935
0.462114
-0.0323851
0.459953
-0.0248656
0.459717
-0.0179423
0.462147
-0.00920811
-0.00164733
0.501619
-0.0460211
0.48855
-0.0425773
0.477236
-0.0391505
0.467796
-0.0355794
0.460527
-0.0313246
0.455201
-0.027059
0.452207
-0.0218719
0.451219
-0.0169541
0.452894
-0.0108832
-0.00546852
0.49484
-0.0298373
0.480263
-0.0280001
0.467497
-0.026384
0.456608
-0.0246907
0.447822
-0.0225385
0.44097
-0.020207
0.436378
-0.01728
0.433819
-0.0143951
0.433818
-0.0108826
-0.00768084
0.456584
-0.0116716
0.440255
-0.011671
0.425588
-0.0117169
0.412521
-0.0116229
0.401182
-0.0112001
0.39152
-0.0105452
0.383819
-0.0095788
0.377967
-0.00854285
0.374352
-0.00726732
-0.00606972
0.276617
0.264946
0.253229
0.241606
0.230406
0.219861
0.210282
0.201739
0.194472
0.00763813
0.0419166
-0.0495547
0.0180865
0.112832
-0.12328
0.024984
0.161046
-0.167944
0.027344
0.187062
-0.189422
0.0263596
0.198133
-0.197148
0.0234504
0.20103
-0.198121
0.0196113
0.199631
-0.195792
0.0154806
0.194933
-0.190802
0.0116553
0.185479
-0.181654
0.167532
0.0087491
-0.164626
0.00905573
0.0328609
0.0241087
0.0977787
0.0366742
0.148481
0.0441463
0.17959
0.0472122
0.195067
0.0474118
0.200831
0.0459745
0.201068
0.0435711
0.197336
0.0403697
0.188681
0.171776
0.036125
0.00954542
0.0233155
0.0284776
0.0788465
0.0471003
0.129858
0.0606703
0.16602
0.0687681
0.186969
0.0727556
0.196843
0.0740629
0.199761
0.0734563
0.197943
0.0709425
0.191194
0.177243
0.0654761
0.00898988
0.0143256
0.0300968
0.0577396
0.0543891
0.105566
0.0749634
0.145446
0.0894411
0.172491
0.0984328
0.187852
0.103411
0.194782
0.105448
0.195906
0.104469
0.192173
0.182274
0.0994378
0.00753131
0.00679428
0.0282495
0.0370214
0.0562516
0.0775636
0.0838609
0.117837
0.106179
0.150173
0.121918
0.172113
0.131979
0.184721
0.137628
0.190257
0.13955
0.190252
0.18573
0.136094
0.00557002
0.00122426
0.0233487
0.0192426
0.0513877
0.0495247
0.0838259
0.0853985
0.114399
0.119601
0.139201
0.14731
0.157103
0.16682
0.168811
0.178549
0.175188
0.183875
0.184201
0.176717
0.00357126
-0.002347
0.0168309
0.00598305
0.0408884
0.0254671
0.073313
0.0529739
0.109071
0.0838421
0.142991
0.11339
0.171442
0.138369
0.192752
0.157239
0.207189
0.169438
0.177889
0.213501
0.00168486
-0.00403187
0.00997877
-0.00231086
0.0275555
0.00789035
0.0549532
0.0255762
0.0899806
0.0488147
0.128613
0.0747573
0.166569
0.100414
0.200065
0.123743
0.227147
0.142356
0.156368
0.248668
-0.000174483
-0.00385738
0.00340807
-0.00589341
0.0139918
-0.00269333
0.0335945
0.00597345
0.0624123
0.019997
0.0987329
0.0384367
0.139525
0.0596218
0.181476
0.081792
0.219351
0.104481
0.11985
0.255868
-0.00135802
-0.00249937
-0.000535353
-0.00671608
0.00542614
-0.00865483
0.0183262
-0.00692656
0.0391088
-0.000785619
0.0680195
0.00952594
0.104152
0.0234896
0.146028
0.0399161
0.191681
0.058827
0.0751516
0.23638
-0.000228456
-0.00227091
0.00215274
-0.00909727
0.0084451
-0.0149472
0.01909
-0.0175715
0.0345747
-0.0162703
0.0553257
-0.011225
0.0817563
-0.00294101
0.113511
0.00816093
0.150982
0.0213567
0.038227
0.187906
0.00226207
-0.00453298
0.00880608
-0.0156413
0.0185957
-0.0247368
0.0306794
-0.0296551
0.044637
-0.0302279
0.0605494
-0.0271375
0.078787
-0.0211786
0.0999149
-0.012967
0.124328
-0.00305675
0.0107825
0.151773
0.00402582
-0.00855881
0.0125803
-0.0241957
0.0230536
-0.0352101
0.0341435
-0.0407451
0.0455626
-0.041647
0.0575577
-0.0391326
0.0705274
-0.0341482
0.0847774
-0.027217
0.10021
-0.018489
-0.0074322
0.118424
0.003504
-0.0120628
0.00933005
-0.0300218
0.0149842
-0.0408643
0.0198647
-0.0456256
0.0244311
-0.0462134
0.0295037
-0.0442052
0.0358589
-0.0405034
0.0440854
-0.0354434
0.0545381
-0.0289417
-0.0203776
0.0674835
0.00117515
-0.013238
0.00168817
-0.0305348
0.000554119
-0.0397302
-0.00176319
-0.0433083
-0.0043388
-0.0436377
-0.00626282
-0.0422812
-0.00678555
-0.0399807
-0.0053087
-0.0369203
-0.00128716
-0.0329633
-0.0276453
0.0059805
-0.00134513
-0.0118928
-0.00552373
-0.0263562
-0.0117047
-0.0335493
-0.0188425
-0.0361705
-0.0260738
-0.0364064
-0.0328053
-0.0355498
-0.0386158
-0.0341702
-0.0431491
-0.032387
-0.0460772
-0.0300351
-0.0267896
-0.0469329
-0.00323915
-0.00865368
-0.010442
-0.0191534
-0.0195318
-0.0244594
-0.0291051
-0.0265973
-0.0383879
-0.0271236
-0.0470289
-0.0269088
-0.0548817
-0.0263174
-0.0618366
-0.0254321
-0.0676865
-0.0241852
-0.0223484
-0.0721277
-0.00452715
-0.00412653
-0.0136077
-0.0100729
-0.024371
-0.0136961
-0.0351821
-0.0157862
-0.0452531
-0.0170526
-0.0542887
-0.0178732
-0.0622292
-0.0183769
-0.0690783
-0.018583
-0.0747782
-0.0184853
-0.0179909
-0.0791357
-0.00522474
0.00109821
-0.0152983
6.65796e-07
-0.0268942
-0.00210012
-0.0382714
-0.00440895
-0.0486115
-0.00671249
-0.0576034
-0.0088813
-0.0651827
-0.0107976
-0.0713744
-0.0123912
-0.0761918
-0.013668
-0.0146448
-0.0795379
-0.00546289
-0.0158385
-0.0277254
-0.0393017
-0.049713
-0.0586055
-0.0658918
-0.0715859
-0.0757385
-0.0783235
0.254873
0.337694
-0.40466
0.277401
0.35518
-0.377709
0.250252
0.159903
-0.132753
0.208936
0.0686172
-0.0273012
0.188318
0.0247781
-0.00416071
0.185131
-0.00103513
0.00422259
0.189056
-0.0133528
0.00942793
0.194571
-0.0150348
0.00951951
0.200725
-0.0163328
0.0101785
-0.0128062
0.00720051
0.244785
0.244681
0.264449
0.335517
0.227186
0.197165
0.194826
0.100978
0.18578
0.0338232
0.187557
-0.00281188
0.192373
-0.0181683
0.197333
-0.019995
0.20245
-0.0214498
-0.0172394
0.208892
0.154214
0.216984
0.327425
0.18934
0.224809
0.179739
0.110579
0.183788
0.0297746
0.189774
-0.00879852
0.1952
-0.0235944
0.199605
-0.0244
0.203762
-0.0256062
-0.020591
0.13501
0.086687
0.147203
0.315233
0.153761
0.21825
0.170369
0.0939713
0.183921
0.016223
0.192258
-0.0171358
0.197818
-0.0291541
0.201633
-0.0282149
0.204915
-0.0288879
-0.0229736
0.0485582
0.0441093
0.0889425
0.274848
0.134968
0.172224
0.167831
0.061109
0.185614
-0.00155989
0.194831
-0.0263526
0.200222
-0.0345459
0.203459
-0.0314519
0.205966
-0.0313942
-0.0245078
-0.0082798
0.0054562
0.0633647
0.203204
0.13159
0.103999
0.169212
0.0234865
0.187934
-0.0202814
0.197273
-0.035692
0.202376
-0.0396485
0.205088
-0.034164
0.206926
-0.0332326
-0.0253174
-0.0296725
-0.0369991
0.0643408
0.10919
0.134899
0.0334407
0.171813
-0.0134277
0.190253
-0.0387206
0.199447
-0.0448863
0.20425
-0.0444518
0.206515
-0.0364287
0.207798
-0.0345158
-0.0255287
-0.0260269
-0.0901078
0.0745421
0.00862141
0.139165
-0.0311817
0.174283
-0.0485461
0.192267
-0.0567046
0.201283
-0.0539021
0.205831
-0.0489998
0.207738
-0.0383357
0.20858
-0.0353583
-0.0252694
-0.0169222
-0.152723
0.0831386
-0.0914394
0.14233
-0.0903727
0.176144
-0.0823602
0.193849
-0.0744096
0.202748
-0.0628011
0.207109
-0.0533611
0.208754
-0.039981
0.209272
-0.035876
-0.0246683
-0.0107622
0.0873242
0.144085
0.177325
0.194962
0.203829
0.20808
0.209562
0.209871
0.0137049
0.064371
-0.0780759
-0.00979841
0.0235033
0.00510269
-0.0149011
0.0296849
-0.0245822
0.0443015
-0.0146166
0.04997
-0.00566858
0.0521213
-0.00215126
0.0531211
-0.000999775
0.0538202
-0.000699116
-0.000473944
0.1371
0.209937
-0.282665
0.0618428
0.0987604
0.0700944
-0.0231527
0.100329
-0.0548168
0.119574
-0.0338614
0.127989
-0.014084
0.131957
-0.00611871
0.134208
-0.00325078
0.136025
-0.0025168
-0.00164767
0.295609
0.350903
-0.436575
0.181814
0.212555
0.152596
0.0060656
0.159222
-0.0614424
0.168257
-0.0428964
0.173535
-0.019362
0.177075
-0.00965919
0.179645
-0.00582031
0.182084
-0.0049564
-0.00329954
0.405051
0.428896
-0.483045
0.29797
0.319637
0.238539
0.0654963
0.210563
-0.0334668
0.198764
-0.0310973
0.195892
-0.0164902
0.197104
-0.0108711
0.199237
-0.00795353
0.201852
-0.00757124
-0.00519961
0.439544
-0.415308
0.381472
0.314215
0.253447
0.218189
0.205921
0.204478
0.206044
0.208651
0.0111123
-0.000121196
-0.0109911
0.0126996
-0.0015873
0.015667
-0.00296743
0.0201031
-0.00443605
0.0261341
-0.006031
0.0341574
-0.00802332
0.0427629
-0.00860552
0.0546693
-0.0119064
0.0654926
-0.0108233
-0.0125833
0.0309647
-0.000805622
-0.0302803
0.035657
-0.00627956
0.0444085
-0.0117189
0.0579447
-0.0179723
0.0772828
-0.0253691
0.102256
-0.0329965
0.134857
-0.0412069
0.176191
-0.0532405
0.222225
-0.0568573
-0.0730233
0.0482533
-0.00237252
-0.0466864
0.0558846
-0.0139108
0.0698638
-0.0256981
0.0917813
-0.0398899
0.121985
-0.0555731
0.162618
-0.0736296
0.214839
-0.093427
0.2767
-0.115102
0.352343
-0.1325
-0.157255
0.0627108
-0.00499996
-0.0600834
0.0728215
-0.0240215
0.0910969
-0.0439735
0.119163
-0.0679558
0.156904
-0.0933147
0.207943
-0.124668
0.268179
-0.153663
0.338188
-0.185111
0.421157
-0.215469
-0.219143
0.0743607
-0.0706116
0.0864643
0.107967
0.139449
0.182228
0.234276
0.294114
0.357671
0.398071
0.0846498
-0.0758535
0.0841218
-0.0929181
0.0757876
-0.077019
0.0858812
0.0667013
-0.0788922
0.0879785
0.0570097
-0.0808723
0.0905639
0.0465694
-0.082828
0.0932683
0.03549
-0.0844555
0.0955349
0.0241318
-0.0846186
0.0959768
0.0132502
-0.0803556
0.0912373
0.004337
-0.0658756
0.0747888
-0.0323114
0.0366484
0.0929168
-0.0662273
-0.102543
0.0829071
-0.0670094
0.072187
-0.0681721
0.0608354
-0.0695207
0.0490465
-0.0710391
0.0370188
-0.0724278
0.0250306
-0.0726304
0.01372
-0.069045
0.00450022
-0.0566558
-0.0278112
0.0924398
-0.0554292
-0.103238
0.0815709
-0.0561405
0.070535
-0.0571362
0.059344
-0.0583298
0.0479547
-0.0596498
0.0363357
-0.0608089
0.0246446
-0.0609393
0.0135089
-0.0579094
0.00440279
-0.0475497
-0.0234084
0.0968066
-0.0446034
-0.107632
0.0858218
-0.0451558
0.0746052
-0.0459196
0.06306
-0.0467846
0.0511235
-0.0477133
0.0388277
-0.048513
0.0264147
-0.0485263
0.0145726
-0.0460672
0.00482406
-0.0378012
-0.0185843
0.0982367
-0.033381
-0.109459
0.0868874
-0.0338065
0.0752803
-0.0343125
0.0633933
-0.0348975
0.0512209
-0.0355409
0.03881
-0.0361021
0.0263682
-0.0360846
0.0145269
-0.0342259
0.0047866
-0.0280609
-0.0137977
0.100737
-0.0221223
-0.111996
0.0892226
-0.0222918
0.0774486
-0.0225384
0.0653812
-0.0228302
0.0529952
-0.0231549
0.0403108
-0.0234177
0.0275206
-0.0232943
0.0152665
-0.0219718
0.00509482
-0.0178892
-0.0087029
0.102112
-0.0106244
-0.11361
0.0904183
-0.0105984
0.0784614
-0.0105815
0.0662146
-0.0105834
0.0536565
-0.0105968
0.0408117
-0.0105729
0.027871
-0.0103535
0.0154695
-0.00957034
0.00516357
-0.00758328
-0.00353933
0.103556
0.00094631
-0.115127
0.0917315
0.00122602
0.0796324
0.00151764
0.0672313
0.00181765
0.054509
0.00212546
0.0414923
0.0024438
0.0283723
0.0027665
0.015784
0.00301791
0.00529198
0.00290875
0.00175266
0.104503
0.0126196
-0.116176
0.0925811
0.0131479
0.0803838
0.0137149
0.0678855
0.014316
0.0550656
0.0149453
0.0419464
0.015563
0.0287122
0.0160007
0.0159949
0.0157352
0.00537265
0.013531
0.00712531
0.105057
-0.116801
0.0930678
0.0808041
0.0682415
0.0553596
0.0421795
0.0288823
0.0160977
0.00541095
0.0146217
-0.162423
-0.0168244
0.00989039
-0.176923
0.004073
-0.184985
-0.0019203
-0.189798
-0.00742755
-0.192614
-0.0116496
-0.192926
-0.0134282
-0.187644
-0.0114592
-0.169913
-0.00560781
-0.129131
-0.0551626
0.0388991
-0.159241
-0.0420805
0.0324967
-0.17052
0.0247919
-0.17728
0.0167762
-0.181783