/*--------------------------------*- C++ -*----------------------------------*\
  =========                 |
  \\      /  F ield         | OpenFOAM: The Open Source CFD Toolbox
   \\    /   O peration     | Website:  https://openfoam.org
    \\  /    A nd           | Version:  13
     \\/     M anipulation  |
\*---------------------------------------------------------------------------*/
FoamFile
{
    format      ascii;
    class       volVectorField;
    location    "1.65";
    object      U;
}
// * * * * * * * * * * * * * * * * * * * * * * * * * * * * * * * * * * * * * //

dimensions      [0 1 -1 0 0 0 0];

internalField   nonuniform List<vector> 
1800
(
(-0.0608812 0.0559572 2.71588e-20)
(-0.103272 0.111798 1.24837e-20)
(-0.0599497 0.124531 -5.04559e-20)
(0.0637289 0.0951627 3.05466e-20)
(0.260069 0.0309168 4.75872e-20)
(0.515063 -0.0586797 4.69431e-21)
(0.807701 -0.162323 -1.61165e-21)
(1.1102 -0.269953 -1.588e-20)
(1.40677 -0.364747 -4.36618e-20)
(1.63018 -0.453388 -5.65127e-20)
(-0.0564393 0.044672 1.04187e-20)
(-0.0630887 0.0695608 -1.09538e-19)
(0.0354714 0.0522669 5.39372e-22)
(0.227935 -0.000709362 -8.37578e-20)
(0.497831 -0.0785767 3.72889e-20)
(0.818047 -0.169533 7.07535e-20)
(1.15393 -0.261923 -5.63527e-20)
(1.47172 -0.346769 8.59847e-20)
(1.74589 -0.41361 2.36014e-19)
(1.95219 -0.480292 -1.59145e-19)
(-0.0445218 0.0312147 9.43883e-21)
(0.00247574 0.0276955 3.01349e-20)
(0.17559 -0.0142241 -1.04685e-20)
(0.451852 -0.0829187 -5.27524e-21)
(0.797234 -0.164356 -1.65245e-19)
(1.16648 -0.245819 4.11565e-20)
(1.51489 -0.317894 1.28137e-19)
(1.80986 -0.375614 -1.52417e-20)
(2.03633 -0.417572 -2.47414e-21)
(2.19926 -0.45522 1.47537e-21)
(-0.0212039 0.0147691 -1.13754e-20)
(0.100059 -0.0149959 -3.41341e-20)
(0.363814 -0.0740231 -3.24397e-20)
(0.727558 -0.146834 3.99362e-20)
(1.13301 -0.21897 4.40414e-20)
(1.51996 -0.280551 1.39024e-20)
(1.8451 -0.327246 -8.34153e-21)
(2.0891 -0.359618 2.64865e-19)
(2.25507 -0.377721 2.91427e-19)
(2.34869 -0.393393 -1.38819e-19)
(0.0161822 -0.00336985 7.99336e-20)
(0.232626 -0.0545086 7.24706e-20)
(0.596112 -0.120008 -5.46379e-20)
(1.03621 -0.183733 -6.504e-20)
(1.47156 -0.235806 -2.72993e-19)
(1.84024 -0.272956 3.88135e-21)
(2.11446 -0.296514 4.43845e-19)
(2.29563 -0.30948 1.75193e-19)
(2.40071 -0.314696 -1.2942e-21)
(2.45413 -0.321739 -1.78711e-19)
(0.0689995 -0.0201049 -7.05378e-20)
(0.398125 -0.0829361 -1.46911e-20)
(0.859074 -0.141903 2.85092e-19)
(1.35043 -0.185187 -1.48586e-19)
(1.78064 -0.212411 -2.87385e-19)
(2.10331 -0.2272 6.47449e-19)
(2.31498 -0.233591 -6.03473e-19)
(2.4361 -0.235091 -8.33575e-19)
(2.49443 -0.233196 6.49692e-19)
(2.50953 -0.234231 -2.58335e-22)
(0.13669 -0.0322017 6.75249e-20)
(0.588687 -0.0929826 -1.9039e-19)
(1.13232 -0.132214 -7.97124e-19)
(1.64298 -0.148921 4.40989e-19)
(2.03928 -0.153176 9.66383e-19)
(2.30251 -0.151981 -3.60175e-21)
(2.45344 -0.148994 -1.93524e-18)
(2.52562 -0.145816 1.70428e-20)
(2.54908 -0.14293 2.16633e-18)
(2.54483 -0.144563 5.86942e-19)
(0.21681 -0.0361459 4.94452e-20)
(0.79142 -0.078395 3.52526e-19)
(1.39332 -0.087522 7.44576e-19)
(1.89372 -0.0774813 -8.90673e-20)
(2.23914 -0.0645132 -7.83349e-19)
(2.44172 -0.0544621 -2.96782e-19)
(2.54086 -0.0483305 0)
(2.57624 -0.0453469 8.43475e-19)
(2.57669 -0.0443613 -1.66182e-20)
(2.55745 -0.0474991 -7.75459e-19)
(0.304873 -0.0288474 3.86027e-20)
(0.99085 -0.0360321 5.08385e-19)
(1.62343 -0.00980853 9.69754e-19)
(2.09237 0.0227795 -1.08118e-18)
(2.38119 0.0460477 -9.47627e-19)
(2.52924 0.058443 3.43963e-19)
(2.58771 0.0626841 -1.58476e-18)
(2.59733 0.0621113 -1.19571e-18)
(2.58279 0.0588834 1.43813e-18)
(2.55556 0.0519396 1.24662e-18)
(0.394903 -0.00825722 2.05055e-20)
(1.1721 0.0335419 4.05715e-19)
(1.81047 0.0956324 2.26334e-19)
(2.23592 0.144898 -1.90743e-18)
(2.46992 0.172192 2.81066e-20)
(2.57264 0.182047 3.63128e-18)
(2.60107 0.18126 -2.08649e-18)
(2.59358 0.175213 -1.19026e-18)
(2.57007 0.166715 4.25017e-19)
(2.53793 0.155376 -9.64929e-19)
(-0.0123413 0.115052 1.72737e-19)
(-0.0668898 0.191247 -1.14559e-19)
(-0.129899 0.190821 8.77195e-22)
(-0.190744 0.153764 -2.43362e-20)
(-0.241657 0.101056 6.47914e-23)
(-0.281072 0.0437414 9.78634e-21)
(-0.309538 -0.012038 5.91253e-20)
(-0.328382 -0.0631365 4.04484e-20)
(-0.337326 -0.108875 1.42214e-20)
(-0.331365 -0.150699 -3.78168e-20)
(-0.026909 0.174726 -1.76994e-20)
(-0.0871743 0.30593 4.57831e-21)
(-0.14659 0.321082 2.78355e-21)
(-0.199916 0.277812 1.81389e-20)
(-0.242137 0.208174 -1.68192e-19)
(-0.272598 0.129048 -7.22674e-21)
(-0.291964 0.0496839 -4.52393e-21)
(-0.30134 -0.0248464 -1.13894e-20)
(-0.300585 -0.092533 -2.04067e-19)
(-0.284395 -0.153837 6.03751e-20)
(-0.0471916 0.219354 -1.09182e-19)
(-0.115466 0.400219 3.48917e-20)
(-0.169226 0.434287 1.89668e-20)
(-0.210691 0.390101 -1.11474e-19)
(-0.239014 0.308 -2.67892e-20)
(-0.254969 0.209749 2.06009e-19)
(-0.259417 0.107478 -1.7837e-19)
(-0.253405 0.00852499 1.41813e-19)
(-0.23685 -0.0826905 -2.09337e-19)
(-0.204077 -0.163918 -1.64948e-19)
(-0.0681935 0.241571 -1.40538e-19)
(-0.144571 0.462278 1.00628e-20)
(-0.190397 0.519227 3.90649e-20)
(-0.215735 0.482053 -1.72487e-19)
(-0.224829 0.394885 3.60423e-19)
(-0.220359 0.282804 -6.41923e-20)
(-0.203554 0.160221 -9.88333e-20)
(-0.175273 0.036582 1.03693e-19)
(-0.135947 -0.0806072 4.8104e-20)
(-0.0800345 -0.184071 -8.53002e-21)
(-0.0839711 0.237108 0)
(-0.166813 0.481289 7.34962e-20)
(-0.203472 0.563542 -2.44121e-19)
(-0.209542 0.542468 1.13075e-19)
(-0.195015 0.460109 1.46356e-19)
(-0.16469 0.342867 -2.00126e-19)
(-0.120584 0.206381 8.88081e-20)
(-0.0637177 0.0609018 -1.3402e-19)
(0.00384143 -0.0847856 0)
(0.0891806 -0.215263 -1.5844e-20)
(-0.090245 0.208593 2.56999e-20)
(-0.176505 0.453761 -3.27437e-22)
(-0.205156 0.557269 -9.89943e-20)
(-0.193578 0.557646 1.40668e-19)
(-0.154933 0.48964 -1.0062e-19)
(-0.0965943 0.378174 1.97258e-19)
(-0.0223588 0.238877 -3.03108e-19)
(0.0655979 0.0813539 4.28409e-20)
(0.165391 -0.0864672 -3.98437e-20)
(0.29028 -0.243919 -7.35753e-21)
(-0.0866692 0.166178 4.41851e-21)
(-0.17328 0.388222 7.72116e-21)
(-0.196338 0.500022 6.46506e-20)
(-0.171009 0.518952 1.29494e-20)
(-0.111124 0.468991 -1.00291e-20)
(-0.0256067 0.371014 1.78915e-19)
(0.0799859 0.239602 1.4992e-19)
(0.202658 0.0845148 1.49285e-19)
(0.338086 -0.0885817 3.57544e-20)
(0.510473 -0.262733 2.19404e-19)
(-0.0773478 0.123313 -1.71535e-20)
(-0.160942 0.304626 -2.01681e-20)
(-0.179599 0.406989 3.5588e-20)
(-0.14365 0.43234 -1.45949e-20)
(-0.0650986 0.394498 -2.5039e-20)
(0.0471553 0.309001 -2.33809e-19)
(0.186642 0.188504 -2.38663e-19)
(0.349042 0.0433643 1.12897e-19)
(0.523532 -0.122054 -2.50199e-20)
(0.750676 -0.297051 1.59677e-19)
(-0.0683092 0.0901761 -4.25458e-20)
(-0.145004 0.224955 -1.53232e-19)
(-0.155633 0.302914 9.92024e-20)
(-0.105953 0.319544 1.91294e-20)
(-0.0046947 0.282251 4.17991e-20)
(0.140326 0.202062 -1.62043e-19)
(0.321619 0.0894771 -1.59146e-21)
(0.531157 -0.0448366 2.28032e-19)
(0.749075 -0.194916 -4.06729e-20)
(1.02622 -0.349586 1.17587e-19)
(-0.0632293 0.069121 -9.69613e-21)
(-0.127433 0.16104 -1.27798e-19)
(-0.119512 0.206885 -5.72753e-20)
(-0.0431939 0.203085 6.01755e-20)
(0.0953219 0.15518 -2.77823e-20)
(0.287775 0.0719998 6.73659e-20)
(0.522475 -0.0367065 8.70697e-20)
(0.782796 -0.160148 -2.79011e-20)
(1.04568 -0.287524 -7.1096e-20)
(1.33522 -0.403558 -1.29665e-19)
(-0.237559 -0.355359 4.59088e-19)
(0.212254 -0.331236 -1.45167e-19)
(0.586587 -0.244564 -4.11066e-20)
(0.781236 -0.184638 2.36492e-20)
(0.904225 -0.141448 -1.22363e-20)
(0.972651 -0.107163 -1.01398e-20)
(1.01012 -0.0844725 -1.12191e-20)
(1.03361 -0.0601481 -2.20946e-21)
(1.0449 -0.0520101 1.21612e-20)
(1.05803 -0.0341322 1.99506e-21)
(-0.136068 -0.449814 4.64152e-19)
(0.243694 -0.45863 2.14194e-19)
(0.613133 -0.324945 -3.80616e-21)
(0.798473 -0.232478 -3.20408e-20)
(0.91633 -0.168414 -5.62115e-20)
(0.981571 -0.12221 0)
(1.01697 -0.0931371 -1.24916e-20)
(1.03846 -0.0650411 4.2122e-21)
(1.04884 -0.0552691 2.96144e-22)
(1.06033 -0.0359369 -3.8643e-21)
(0.0249889 -0.539439 -6.57809e-19)
(0.308701 -0.573117 -1.17167e-19)
(0.655699 -0.404276 5.05436e-20)
(0.82401 -0.279093 5.43793e-21)
(0.932537 -0.194642 -1.01525e-21)
(0.992612 -0.136757 4.0577e-21)
(1.02497 -0.101371 0)
(1.04393 -0.0695976 0)
(1.05314 -0.0582084 -5.84147e-21)
(1.06277 -0.0375105 0)
(0.243972 -0.621304 -1.02087e-19)
(0.422296 -0.668763 4.34648e-19)
(0.719966 -0.478167 -1.70161e-20)
(0.86041 -0.322839 0)
(0.953581 -0.219426 6.70869e-20)
(1.00592 -0.150478 -1.24014e-20)
(1.03411 -0.109008 0)
(1.04998 -0.0737272 1.6261e-20)
(1.05779 -0.0607687 0)
(1.06535 -0.0388224 2.29509e-21)
(0.509071 -0.694687 -3.09483e-19)
(0.584997 -0.741684 2.88587e-19)
(0.808035 -0.540728 1.42237e-20)
(0.909635 -0.361258 0)
(0.980383 -0.241703 2.4342e-20)
(1.02177 -0.162931 2.79397e-20)
(1.04441 -0.115857 3.57707e-21)
(1.05659 -0.0773415 3.72908e-22)
(1.06274 -0.0628944 -4.31203e-21)
(1.06802 -0.0398457 1.53642e-21)
(0.802808 -0.760177 -1.88574e-18)
(0.782742 -0.793389 -5.43424e-19)
(0.915199 -0.588175 -9.23256e-21)
(0.971164 -0.392073 1.04908e-19)
(1.01355 -0.26018 -4.46525e-20)
(1.04053 -0.173507 1.62771e-20)
(1.05599 -0.121666 3.05535e-20)
(1.06377 -0.0803388 -3.14489e-20)
(1.06795 -0.0645315 -5.69397e-23)
(1.07077 -0.0405583 -4.02256e-21)
(1.08986 -0.812565 1.73699e-19)
(0.99579 -0.827011 1.5321e-19)
(1.03119 -0.620431 -3.20987e-20)
(1.04059 -0.414632 -3.61918e-21)
(1.05235 -0.274001 -6.79211e-20)
(1.06236 -0.181569 3.12048e-21)
(1.06901 -0.126102 -1.37644e-20)
(1.07157 -0.0825739 -1.92753e-21)
(1.07342 -0.0656103 4.31051e-21)
(1.07357 -0.0409394 -9.25401e-22)
(1.35191 -0.84429 5.47128e-20)
(1.20541 -0.843888 2.4773e-19)
(1.14621 -0.639123 0)
(1.11109 -0.429956 2.05515e-20)
(1.09411 -0.283417 6.01157e-20)
(1.08667 -0.186895 -1.32997e-21)
(1.08346 -0.128908 -4.94242e-20)
(1.08008 -0.0838901 1.31611e-20)
(1.07918 -0.0660433 -2.10844e-22)
(1.07643 -0.0409636 -2.14159e-21)
(1.58256 -0.850332 1.12192e-19)
(1.39666 -0.843585 -6.48744e-19)
(1.25476 -0.645558 1.26265e-19)
(1.17728 -0.439221 -1.47573e-20)
(1.13503 -0.289499 -1.4254e-21)
(1.11179 -0.189979 -5.2648e-20)
(1.09887 -0.1302 1.65958e-20)
(1.08924 -0.0842771 2.069e-22)
(1.08525 -0.0657979 -1.36492e-21)
(1.07936 -0.0406137 1.6894e-21)
(1.7856 -0.831289 -1.31308e-19)
(1.56034 -0.827555 -5.84683e-19)
(1.35425 -0.640309 -1.89906e-20)
(1.23734 -0.442238 -1.28132e-19)
(1.17239 -0.292819 -7.3971e-20)
(1.13553 -0.191544 -3.34726e-20)
(1.11408 -0.130426 -1.15746e-20)
(1.09861 -0.0839385 0)
(1.09146 -0.0649637 -5.76922e-21)
(1.08232 -0.0398933 4.66939e-21)
(2.07783 -0.795627 -7.21811e-19)
(1.7582 -0.781666 4.83645e-20)
(1.4776 -0.612416 -2.56447e-19)
(1.30996 -0.430724 2.24987e-20)
(1.21523 -0.287676 2.24803e-20)
(1.16202 -0.187913 -2.16732e-20)
(1.13132 -0.127086 -1.20961e-20)
(1.10965 -0.0814097 9.48469e-21)
(1.09896 -0.0625877 -4.21591e-21)
(1.08596 -0.0384385 -2.02069e-21)
(2.1232 -0.7187 1.4555e-19)
(1.7314 -0.665235 -1.82826e-19)
(1.45708 -0.496667 6.51231e-20)
(1.31337 -0.350747 -1.73244e-20)
(1.22811 -0.241057 9.19318e-20)
(1.17495 -0.162056 6.7469e-20)
(1.14228 -0.112159 4.44468e-20)
(1.11787 -0.0728043 -4.79911e-21)
(1.1055 -0.0568307 1.52671e-20)
(1.08926 -0.0353156 3.0228e-21)
(2.12037 -0.586974 -1.5354e-19)
(1.81824 -0.56328 -3.32063e-20)
(1.56712 -0.444639 3.02084e-20)
(1.39919 -0.324073 5.71316e-36)
(1.28498 -0.223525 -6.38592e-21)
(1.20898 -0.148927 -1.87895e-34)
(1.16211 -0.102021 1.36566e-21)
(1.12921 -0.0657655 -3.02202e-35)
(1.11289 -0.0511837 7.28531e-23)
(1.09262 -0.0319134 -3.70331e-22)
(2.10277 -0.492397 -4.76091e-34)
(1.82476 -0.472599 6.27642e-20)
(1.58007 -0.358429 -3.3271e-20)
(1.41481 -0.254202 0)
(1.30231 -0.176003 -4.18061e-20)
(1.22436 -0.11941 -3.1052e-20)
(1.17397 -0.0837408 -2.16633e-20)
(1.13723 -0.0548514 1.09951e-34)
(1.11875 -0.0434766 -6.84252e-21)
(1.09529 -0.0275478 1.1978e-22)
(2.08677 -0.405057 -9.64136e-20)
(1.84915 -0.382845 1.11433e-20)
(1.61746 -0.290396 0)
(1.44554 -0.206838 0)
(1.32487 -0.14304 0)
(1.23993 -0.0962599 0)
(1.18442 -0.0671976 6.81425e-22)
(1.14377 -0.0439411 1.31992e-34)
(1.1234 -0.0352027 -1.19994e-22)
(1.09724 -0.0226895 -6.27403e-36)
(2.07483 -0.33341 3.98464e-21)
(1.85918 -0.30381 0)
(1.6336 -0.218403 0)
(1.45785 -0.1478 0)
(1.33377 -0.100409 0)
(1.24636 -0.0677276 0)
(1.18891 -0.0479691 -1.60352e-21)
(1.14643 -0.0317023 1.03955e-20)
(1.12525 -0.0260901 -2.0475e-22)
(1.09734 -0.017327 1.4447e-21)
(2.04741 -0.268813 0)
(1.83629 -0.225803 -1.85803e-21)
(1.61378 -0.148105 -3.2868e-20)
(1.43887 -0.0919893 0)
(1.31783 -0.0601404 -2.21177e-20)
(1.23417 -0.0402454 -1.48812e-20)
(1.17928 -0.0289572 -1.14711e-20)
(1.13825 -0.0193945 -5.75827e-21)
(1.11794 -0.0167606 5.69129e-21)
(1.09003 -0.0117251 -1.46678e-21)
(1.9244 -0.200386 7.64815e-21)
(1.69806 -0.145938 1.32789e-20)
(1.48822 -0.0788445 -1.30677e-20)
(1.33447 -0.0392185 -2.87414e-36)
(1.23399 -0.0233966 5.98143e-21)
(1.16699 -0.0157814 -9.98021e-35)
(1.12325 -0.0120531 -2.09066e-21)
(1.08996 -0.00840467 -3.54636e-21)
(1.07363 -0.00814836 -3.12995e-22)
(1.0492 -0.00634392 6.27725e-22)
(1.49109 -0.118307 -2.91691e-20)
(1.26341 -0.0657819 1.44975e-20)
(1.10688 -0.0169545 2.25211e-20)
(1.02033 0.00424613 0)
(0.973906 0.00583628 1.12293e-20)
(0.944421 0.00339148 6.7866e-21)
(0.924264 0.00122201 2.02655e-21)
(0.907482 0.000276848 2.47962e-21)
(0.899357 -0.00110162 -3.12398e-21)
(0.883682 -0.00178207 -3.01391e-22)
(0.526526 -0.0118419 0)
(0.400845 0.000333577 0)
(0.359817 0.0069846 0)
(0.367667 0.0071105 0)
(0.384894 0.0045995 0)
(0.396812 0.00275863 0)
(0.403248 0.00167676 -2.31811e-21)
(0.405872 0.000988432 6.67679e-36)
(0.40747 0.000483668 -3.9593e-22)
(0.404349 1.55126e-05 -7.64841e-22)
(2.46321 0.133743 9.24152e-19)
(2.48176 0.0452024 5.96278e-20)
(2.50081 -0.0453988 -1.0745e-19)
(2.49213 -0.126921 -3.46736e-19)
(2.4986 -0.215311 -8.38097e-20)
(2.45278 -0.286439 -1.42302e-19)
(2.4576 -0.375485 -4.85257e-19)
(2.33344 -0.427054 9.91828e-20)
(2.34634 -0.51698 0)
(2.04043 -0.522402 1.40722e-19)
(2.36094 0.111447 2.80541e-19)
(2.36969 0.0374638 -3.50524e-19)
(2.40705 -0.0305846 -5.65897e-20)
(2.3888 -0.102915 -1.56525e-19)
(2.42454 -0.17209 1.03854e-19)
(2.3756 -0.24256 2.15901e-19)
(2.4144 -0.31428 -2.38889e-19)
(2.3304 -0.385315 1.22678e-20)
(2.35844 -0.457595 -4.91016e-20)
(2.24797 -0.532078 1.124e-19)
(2.28212 0.0929061 -1.30669e-19)
(2.29354 0.0245134 2.83843e-19)
(2.32397 -0.0226791 1.98626e-19)
(2.31684 -0.0931933 -3.06665e-19)
(2.33862 -0.138808 -2.68502e-21)
(2.31567 -0.212561 3.85135e-19)
(2.32548 -0.256903 4.20747e-20)
(2.2943 -0.337 -4.8754e-20)
(2.28162 -0.378724 -1.6434e-20)
(2.25383 -0.468788 -1.42732e-20)
(2.22054 0.0682297 -3.00144e-19)
(2.24041 0.00869055 -1.8804e-20)
(2.25989 -0.0258271 -2.21623e-20)
(2.26722 -0.0889381 -3.68219e-20)
(2.27322 -0.121132 -1.7175e-19)
(2.27017 -0.187803 -1.16685e-19)
(2.26099 -0.218184 2.22022e-19)
(2.25184 -0.288224 4.65286e-21)
(2.226 -0.318278 3.15553e-20)
(2.21421 -0.391785 2.48303e-20)
(2.17325 0.0423293 5.43964e-20)
(2.19688 -0.00625007 1.16101e-19)
(2.21184 -0.0343226 -4.60031e-20)
(2.22509 -0.086378 2.47239e-19)
(2.22691 -0.112202 -3.45522e-20)
(2.23047 -0.167024 -2.50506e-19)
(2.21902 -0.190905 4.01876e-20)
(2.2142 -0.247074 -1.21859e-19)
(2.19022 -0.270803 8.50931e-20)
(2.17828 -0.327813 5.71787e-20)
(2.13351 0.0162894 -1.62791e-19)
(2.15659 -0.0218607 -8.03418e-20)
(2.17133 -0.0456224 1.67842e-20)
(2.18494 -0.0864566 1.23698e-19)
(2.1884 -0.108236 2.14133e-19)
(2.1929 -0.151094 -7.36649e-20)
(2.18494 -0.170919 6.56704e-21)
(2.18081 -0.214298 -1.45093e-20)
(2.16178 -0.233288 1.35122e-21)
(2.15012 -0.276084 -7.1775e-20)
(2.08762 -0.00817997 -6.10998e-20)
(2.10847 -0.03737 -1.2845e-19)
(2.12262 -0.0566936 -1.24986e-19)
(2.13564 -0.087759 -2.43934e-19)
(2.14011 -0.105306 3.47895e-20)
(2.14627 -0.138116 4.29119e-20)
(2.14035 -0.153577 3.27055e-20)
(2.14092 -0.186996 4.38743e-20)
(2.12385 -0.200426 -8.44766e-20)
(2.12091 -0.233177 -2.45067e-20)
(1.98988 -0.0287302 5.81842e-20)
(2.00535 -0.0490486 4.77786e-20)
(2.01304 -0.0627908 2.12643e-20)
(2.02421 -0.084539 -4.22996e-20)
(2.02287 -0.0966935 -3.90332e-20)
(2.03244 -0.120138 -5.6002e-21)
(2.02063 -0.129975 -3.63545e-20)
(2.03215 -0.154673 3.53756e-20)
(2.00723 -0.161509 -2.10186e-20)
(2.02517 -0.18662 4.83737e-20)
(1.69287 -0.0408255 -4.9293e-20)
(1.69045 -0.0512091 1.04223e-21)
(1.68176 -0.0585972 9.7005e-20)
(1.67804 -0.0691637 -3.73446e-21)
(1.66266 -0.0751804 -2.5413e-20)
(1.66214 -0.0865249 4.95466e-20)
(1.63792 -0.0907297 -2.89303e-20)
(1.64658 -0.103451 1.24814e-20)
(1.6081 -0.104776 1.34781e-20)
(1.63528 -0.119348 2.70257e-20)
(0.844143 -0.015577 4.56897e-20)
(0.819612 -0.0152559 3.49955e-20)
(0.795541 -0.0146985 3.3426e-20)
(0.772106 -0.0144756 5.13812e-20)
(0.74828 -0.0140751 -2.47794e-20)
(0.727175 -0.0141997 -2.48102e-20)
(0.70293 -0.0143261 8.86988e-21)
(0.687406 -0.0149661 -1.70935e-21)
(0.657302 -0.0146807 2.34965e-21)
(0.659137 -0.0188136 -3.09494e-21)
(1.54184 0.916294 -7.98315e-20)
(1.52518 0.962171 2.83822e-20)
(1.52755 1.01546 -6.03365e-19)
(1.5353 1.07628 2.479e-19)
(1.54128 1.14086 1.12812e-18)
(1.53715 1.20173 -1.55518e-19)
(1.502 1.23791 -1.02999e-18)
(1.38729 1.19937 -2.79325e-20)
(1.10512 0.991151 -5.17868e-19)
(0.523373 0.483463 1.35693e-19)
(1.70682 0.883742 0)
(1.69544 0.929061 7.16768e-19)
(1.69439 0.979373 1.58767e-18)
(1.70171 1.03836 -9.67538e-19)
(1.71114 1.1022 -2.26812e-18)
(1.71089 1.16203 -1.59657e-19)
(1.67488 1.19574 -2.03773e-19)
(1.54689 1.15388 7.38085e-19)
(1.22828 0.946269 1.06637e-18)
(0.577264 0.455472 4.48372e-19)
(1.86007 0.845311 7.1692e-20)
(1.85824 0.8902 0)
(1.85892 0.937549 -7.23548e-20)
(1.86695 0.992027 9.88834e-19)
(1.87858 1.05123 5.90043e-20)
(1.88022 1.10626 -2.26271e-18)
(1.84101 1.13445 1.42113e-18)
(1.69711 1.08798 8.64594e-19)
(1.34052 0.883676 -9.32597e-19)
(0.623503 0.418172 -2.98923e-19)
(1.99513 0.793189 -1.74745e-19)
(2.00369 0.836947 -1.31201e-19)
(2.01059 0.881517 2.79671e-19)
(2.02224 0.931305 -3.46792e-19)
(2.0365 0.984846 -1.62205e-18)
(2.03888 1.03335 -1.24753e-18)
(1.99409 1.05447 1.32905e-18)
(1.8316 1.00283 8.52252e-19)
(1.43534 0.803912 0)
(0.65777 0.371503 0)
(2.11606 0.729007 -9.47088e-19)
(2.13319 0.769956 -1.6934e-18)
(2.14703 0.810876 -6.58606e-19)
(2.16325 0.855467 -3.75263e-20)
(2.17996 0.902494 0)
(2.18129 0.943518 1.52751e-19)
(2.12831 0.956122 1.79014e-19)
(1.94286 0.898497 2.23273e-19)
(1.50473 0.707925 -3.25377e-19)
(0.675909 0.316478 -8.17543e-20)
(2.22084 0.650817 1.1314e-18)
(2.24583 0.688056 -4.75127e-20)
(2.26671 0.72488 -1.32875e-18)
(2.28765 0.764228 0)
(2.30609 0.804469 0)
(2.30449 0.835721 0)
(2.23818 0.839393 1.56925e-18)
(2.02392 0.778599 -1.73814e-18)
(1.54348 0.598594 -1.12358e-18)
(0.675464 0.255192 -1.94962e-21)
(2.31369 0.563108 -1.49872e-18)
(2.34371 0.595418 -3.14444e-18)
(2.36971 0.62718 -5.44566e-21)
(2.39403 0.660264 6.30637e-19)
(2.41214 0.69265 -4.39622e-20)
(2.40306 0.715245 1.3534e-18)
(2.31715 0.709911 -7.36597e-19)
(2.06962 0.645263 -2.05722e-18)
(1.5475 0.479378 1.52321e-19)
(0.654965 0.191352 1.09828e-19)
(2.39153 0.466136 -1.19961e-18)
(2.42554 0.492759 1.88225e-20)
(2.45489 0.519174 4.55963e-19)
(2.48035 0.545973 -4.36731e-19)
(2.49473 0.570438 6.68258e-19)
(2.47301 0.584042 1.82253e-18)
(2.36167 0.57026 -2.05505e-19)
(2.07543 0.503625 -1.11225e-18)
(1.51333 0.356291 2.65784e-19)
(0.614427 0.129178 4.82279e-20)
(2.45651 0.364574 4.46088e-19)
(2.49137 0.385882 9.68997e-20)
(2.52129 0.406369 -4.70751e-19)
(2.54482 0.42615 -1.07183e-18)
(2.55111 0.442205 9.48588e-20)
(2.51052 0.446628 8.96187e-20)
(2.36631 0.425465 -1.44288e-18)
(2.03625 0.360013 5.83319e-19)
(1.43861 0.236204 1.75601e-19)
(0.555167 0.072825 -1.16149e-19)
(2.50471 0.259821 8.60826e-19)
(2.53958 0.27614 -1.28176e-18)
(2.56792 0.290593 2.04461e-19)
(2.5859 0.303313 2.5464e-18)
(2.57846 0.311254 1.27065e-18)
(2.51129 0.307502 -2.71987e-18)
(2.32606 0.28141 -2.58559e-18)
(1.94857 0.221437 1.16204e-18)
(1.32379 0.126269 -1.56631e-20)
(0.480391 0.0260696 -3.33678e-20)
(0.527489 0.357467 -1.59758e-19)
(0.487933 0.370452 -1.63842e-19)
(0.443423 0.384387 7.08561e-20)
(0.394552 0.399395 -2.35175e-19)
(0.341023 0.415337 -1.94331e-20)
(0.282033 0.430981 2.21815e-19)
(0.216697 0.441248 3.70229e-20)
(0.145582 0.431152 1.16923e-21)
(0.0756154 0.366996 1.94157e-20)
(0.0153193 0.190167 1.39947e-20)
(0.570128 0.461787 1.33241e-19)
(0.53133 0.481166 1.70468e-19)
(0.488331 0.502064 4.84329e-20)
(0.441361 0.524634 -5.18565e-20)
(0.389867 0.548662 -2.27976e-19)
(0.332817 0.572392 -1.44821e-20)
(0.26866 0.588792 6.91678e-20)
(0.196188 0.577391 3.74954e-20)
(0.118759 0.492377 -1.19585e-19)
(0.0377336 0.255136 -4.12451e-20)
(0.630904 0.559781 -1.14406e-19)
(0.593328 0.584922 -1.02241e-19)
(0.552508 0.612028 1.02937e-19)
(0.508241 0.641506 7.47588e-20)
(0.45972 0.673233 -8.06365e-20)
(0.405651 0.705025 -3.31926e-20)
(0.343519 0.727914 -1.10647e-19)
(0.269441 0.715925 -6.83573e-20)
(0.181233 0.611284 -6.64131e-20)
(0.0701253 0.31643 1.1476e-21)
(0.707705 0.653549 3.94375e-20)
(0.671855 0.684909 -5.18342e-20)
(0.634203 0.718207 -8.79919e-20)
(0.593636 0.754063 -4.51039e-20)
(0.548903 0.79242 -7.27926e-20)
(0.498463 0.830702 -1.7401e-24)
(0.438762 0.858173 -2.67043e-19)
(0.36262 0.843942 4.15332e-20)
(0.260602 0.719771 -3.14263e-19)
(0.111181 0.371616 5.1026e-20)
(0.799036 0.732828 3.27821e-21)
(0.765516 0.769065 1.17331e-20)
(0.732055 0.807703 -5.09492e-20)
(0.696768 0.849766 -2.62929e-19)
(0.657716 0.895047 1.20093e-19)
(0.612601 0.940311 1.84607e-20)
(0.556263 0.973037 6.75868e-20)
(0.477413 0.957677 -1.49223e-19)
(0.357665 0.816192 3.80587e-19)
(0.160824 0.420016 2.79453e-19)
(0.904435 0.809989 -8.14056e-20)
(0.872661 0.850845 -1.72638e-19)
(0.84256 0.893012 4.532e-20)
(0.811592 0.938798 1.02823e-19)
(0.777765 0.988569 3.50208e-19)
(0.738356 1.03852 2.45671e-19)
(0.686202 1.07406 6.1818e-19)
(0.604929 1.05527 2.5947e-19)
(0.465827 0.896404 1.62725e-19)
(0.21613 0.458804 2.13057e-19)
(1.01787 0.86272 -1.1114e-19)
(0.9916 0.90824 5.74985e-19)
(0.968852 0.954935 3.72085e-19)
(0.945246 1.00517 -4.68317e-19)
(0.91807 1.05941 -2.34214e-19)
(0.884395 1.11375 6.57425e-19)
(0.835521 1.1522 -1.09705e-19)
(0.74978 1.13104 -4.32236e-19)
(0.587021 0.957896 -1.54564e-21)
(0.276872 0.487127 2.54832e-19)
(1.13789 0.915637 2.88027e-19)
(1.11193 0.961753 6.14111e-20)
(1.09368 1.00887 -7.63243e-19)
(1.07777 1.06102 1.48624e-19)
(1.05979 1.11797 5.56006e-19)
(1.03481 1.17448 -3.22795e-19)
(0.991239 1.21285 -9.25609e-20)
(0.901423 1.18663 -1.79594e-19)
(0.713453 0.999566 1.8229e-20)
(0.339497 0.503882 -3.12902e-19)
(1.26665 0.9349 2.09754e-20)
(1.25123 0.985143 -5.50637e-19)
(1.24062 1.03361 -4.54961e-21)
(1.23042 1.087 4.61446e-19)
(1.21817 1.1464 -4.71428e-19)
(1.19905 1.20573 9.26094e-19)
(1.15851 1.24512 6.2737e-19)
(1.06193 1.21544 -9.40245e-19)
(0.844929 1.0184 -6.75379e-20)
(0.402906 0.508413 -3.38872e-19)
(1.37048 0.944698 -3.23149e-19)
(1.36562 0.995665 -3.0859e-19)
(1.37186 1.04601 3.01069e-19)
(1.37654 1.10059 7.53644e-19)
(1.37598 1.15998 2.77984e-19)
(1.36565 1.21841 -7.6366e-19)
(1.32898 1.25539 8.12183e-20)
(1.22475 1.22057 2.08508e-19)
(0.976544 1.01587 -2.8393e-19)
(0.464822 0.501543 -2.41436e-19)
(0.959827 0.0160225 1.48137e-21)
(1.03283 0.0338407 -1.90974e-20)
(1.01446 0.0569573 -1.60834e-20)
(1.02316 0.0844585 0)
(1.02986 0.103091 2.23659e-20)
(1.00799 0.128125 3.11187e-20)
(0.984189 0.147961 4.13052e-20)
(0.928278 0.180496 8.79938e-20)
(0.85005 0.23428 -1.27866e-19)
(0.700182 0.292961 -1.92686e-19)
(0.959981 0.0143152 4.07271e-20)
(1.03162 0.0315502 -6.25481e-20)
(1.01329 0.0547434 1.05951e-22)
(1.02263 0.0834465 -2.05899e-20)
(1.03149 0.105915 1.10944e-20)
(1.01215 0.133475 -1.54939e-20)
(0.991136 0.160046 -9.67049e-20)
(0.94186 0.20012 0)
(0.865485 0.270772 2.64034e-19)
(0.736782 0.361534 -2.73546e-19)
(0.959808 0.0128031 -3.1264e-20)
(1.03115 0.0294161 1.74264e-20)
(1.01255 0.0525791 4.42956e-20)
(1.0231 0.0824003 1.10465e-20)
(1.03347 0.108187 -2.64583e-20)
(1.01801 0.138697 1.30232e-21)
(0.998259 0.171162 -6.64755e-20)
(0.959675 0.219554 -5.56131e-21)
(0.883306 0.305912 -7.05542e-24)
(0.787233 0.427492 7.54819e-19)
(0.95934 0.0114139 -3.28648e-20)
(1.03137 0.0273743 2.68224e-21)
(1.0122 0.0504275 3.63349e-20)
(1.02444 0.0813962 2.27219e-20)
(1.03595 0.109846 -1.29986e-20)
(1.02535 0.143979 -1.73613e-20)
(1.00593 0.181054 9.60776e-20)
(0.981356 0.239073 -1.54275e-21)
(0.903734 0.33872 -2.89351e-19)
(0.850968 0.489421 9.14998e-20)
(0.958612 0.0101007 2.31972e-20)
(1.03219 0.0253654 -3.35537e-20)
(1.01225 0.0482683 -2.89038e-20)
(1.0265 0.0804603 1.32979e-20)
(1.03914 0.110867 0)
(1.03382 0.149481 0)
(1.01477 0.18943 8.01289e-20)
(1.00601 0.259039 1.76892e-22)
(0.927857 0.368452 -1.31749e-19)
(0.925961 0.54619 9.73725e-20)
(0.957656 0.00881153 6.44242e-21)
(1.03356 0.0233258 2.76041e-20)
(1.01267 0.0461 -7.6775e-20)
(1.02911 0.0795657 -2.63878e-20)
(1.04328 0.111267 -6.04473e-22)
(1.043 0.15529 7.19866e-20)
(1.02539 0.195974 1.22125e-19)
(1.03325 0.279876 -8.91326e-22)
(0.954653 0.393385 2.17783e-19)
(1.01497 0.601436 -2.24623e-19)
(0.956498 0.00748723 -2.65185e-20)
(1.03542 0.0211901 1.48006e-20)
(1.01347 0.0439369 -2.02027e-20)
(1.03216 0.0786299 -5.54711e-20)
(1.04858 0.111141 1.94318e-21)
(1.05242 0.161245 -1.71889e-21)
(1.03878 0.200744 -6.92763e-21)
(1.06096 0.301003 -2.3748e-19)
(0.990064 0.414182 1.59986e-19)
(1.10233 0.643018 -5.46785e-19)
(0.955123 0.00609528 -3.92575e-21)
(1.03777 0.0188942 -4.3721e-20)
(1.01465 0.0417989 4.08362e-20)
(1.03564 0.0775323 3.00672e-20)
(1.05515 0.110629 1.01807e-21)
(1.0619 0.167024 -8.25994e-20)
(1.05505 0.203987 -6.57755e-20)
(1.09063 0.322419 4.21545e-19)
(1.02586 0.430851 1.50308e-20)
(1.2154 0.698927 8.58909e-19)
(0.953439 0.00461858 1.79766e-20)
(1.0406 0.0163859 2.02381e-20)
(1.01624 0.0397277 4.57759e-20)
(1.03968 0.0761895 -3.28399e-20)
(1.06305 0.109879 -8.76234e-20)
(1.07121 0.172384 1.29768e-21)
(1.0756 0.204713 -8.95745e-20)
(1.11862 0.34206 5.45103e-19)
(1.08216 0.433205 -9.14066e-21)
(1.28648 0.716355 -1.18797e-18)
(0.951269 0.00315523 7.09966e-22)
(1.04399 0.0137074 3.20696e-20)
(1.01824 0.0378577 1.58186e-20)
(1.04446 0.0747532 -6.64116e-20)
(1.07168 0.110176 -8.34123e-20)
(1.0804 0.177193 -6.9137e-20)
(1.09625 0.211588 -1.61582e-19)
(1.14288 0.36373 -4.9105e-19)
(1.1354 0.458054 -2.66656e-19)
(1.42399 0.783519 -1.25913e-18)
(0.947991 0.000695581 -2.12782e-21)
(1.04832 0.00953264 -7.2496e-21)
(1.02183 0.0335905 -1.7099e-20)
(1.05027 0.0702656 3.46003e-20)
(1.08455 0.104515 5.95915e-20)
(1.09461 0.178095 -4.53666e-20)
(1.125 0.197407 1.50066e-19)
(1.18714 0.374098 -4.58742e-19)
(1.20543 0.400646 -2.00207e-19)
(1.4375 0.773303 6.71712e-19)
(0.94638 -0.00344813 3.95647e-21)
(1.05252 0.00330141 1.59776e-20)
(1.02853 0.0260383 -1.05084e-20)
(1.05786 0.0612648 6.63187e-20)
(1.10195 0.0938318 9.61683e-20)
(1.10474 0.170908 1.3315e-19)
(1.16988 0.172939 3.31209e-20)
(1.21175 0.361448 2.25048e-19)
(1.2995 0.352828 3.28635e-19)
(1.45786 0.674991 1.93129e-20)
(0.945208 -0.00818058 -2.5629e-21)
(1.05754 -0.00416011 -4.23773e-21)
(1.03673 0.0178963 2.94945e-21)
(1.06851 0.0506975 5.33246e-21)
(1.1174 0.0837802 2.82471e-34)
(1.11775 0.158185 -7.94977e-21)
(1.20965 0.147598 -5.7049e-34)
(1.22893 0.341602 2.05008e-20)
(1.35941 0.298391 -5.89402e-20)
(1.50533 0.583709 -5.79094e-20)
(0.943819 -0.0140327 1.44725e-20)
(1.06416 -0.0133755 -4.77597e-35)
(1.04633 0.00862338 -3.43836e-21)
(1.08245 0.0392313 -3.01747e-20)
(1.12826 0.073748 -4.45853e-20)
(1.13978 0.140911 -4.33071e-20)
(1.23093 0.124074 -7.12684e-34)
(1.25354 0.316889 -8.71712e-20)
(1.39482 0.243193 -1.53023e-19)
(1.55403 0.488045 9.94256e-20)
(0.942003 -0.0213576 0)
(1.07296 -0.0240727 8.40172e-35)
(1.05823 -0.00301506 0)
(1.09885 0.0270582 0)
(1.13617 0.0621573 0)
(1.16772 0.120993 0)
(1.23629 0.1033 -4.64259e-34)
(1.28627 0.282435 0)
(1.42164 0.193601 -2.14851e-20)
(1.58363 0.392862 5.92781e-20)
(0.939839 -0.0299002 4.04329e-21)
(1.08411 -0.0368118 8.33329e-21)
(1.07258 -0.0139855 -4.49412e-21)
(1.11651 0.0174793 0)
(1.14406 0.0504698 0)
(1.19421 0.100219 6.89183e-21)
(1.23652 0.0850966 3.92214e-20)
(1.31804 0.237708 -1.50771e-20)
(1.44508 0.150868 -3.18199e-20)
(1.59488 0.30621 2.24962e-19)
(0.938496 -0.0441536 -7.61049e-20)
(1.09843 -0.0559003 -2.20661e-21)
(1.08745 -0.0308731 -5.06536e-21)
(1.13016 0.00440765 -1.77188e-20)
(1.14845 0.0364197 -2.25719e-20)
(1.21196 0.0773667 -1.11724e-20)
(1.23589 0.0685003 -3.19689e-20)
(1.34028 0.185801 -3.1801e-20)
(1.46155 0.114013 -5.93641e-20)
(1.59922 0.227661 8.27808e-20)
(0.941617 -0.0505361 -7.79584e-21)
(1.10778 -0.0651765 -1.81522e-20)
(1.08061 -0.0360738 -5.61228e-21)
(1.11771 0.000620308 -5.15782e-21)
(1.1279 0.026246 -3.71445e-36)
(1.20282 0.0549425 7.3936e-21)
(1.21248 0.0528643 -9.35657e-34)
(1.34503 0.129993 -1.48702e-20)
(1.44895 0.0795386 2.03022e-20)
(1.59921 0.154341 2.77574e-20)
(0.946905 -0.0898207 1.93719e-19)
(1.058 -0.0936771 -3.72765e-21)
(0.966904 -0.0550337 -5.94938e-21)
(0.982357 -0.0106187 1.33195e-20)
(0.984897 0.0106607 1.08523e-20)
(1.07003 0.0308341 1.6041e-20)
(1.06983 0.0346203 1.38042e-20)
(1.24709 0.0729311 -9.46826e-21)
(1.30813 0.0474848 -2.21955e-20)
(1.50566 0.0857273 1.44355e-19)
(0.827247 -0.0452565 9.79229e-21)
(0.73452 -0.0350517 -9.3993e-35)
(0.535734 -0.0136536 -7.12336e-21)
(0.514231 -0.00191523 0)
(0.507029 0.00187704 0)
(0.560501 0.00743093 7.54298e-21)
(0.579307 0.00598094 -6.75738e-36)
(0.710932 0.0147778 -1.45588e-20)
(0.760626 0.00724843 -3.01178e-20)
(0.913856 0.0156059 6.03406e-20)
(1.64137 0.802743 -2.00767e-19)
(1.74414 0.780117 -2.99352e-19)
(1.8615 0.746907 0)
(1.9716 0.698177 1.49028e-19)
(2.07497 0.639397 6.53254e-19)
(2.16433 0.568264 -1.34934e-19)
(2.24803 0.490592 1.7609e-18)
(2.31614 0.40587 -8.41062e-20)
(2.37875 0.317108 -4.07469e-19)
(2.4234 0.225994 3.68364e-19)
(1.66783 0.652757 9.97248e-20)
(1.74985 0.630713 1.20559e-19)
(1.84579 0.599405 -1.18088e-20)
(1.93738 0.552995 2.17223e-19)
(2.02543 0.503637 -1.82717e-19)
(2.0978 0.44266 -4.36119e-19)
(2.16946 0.384151 -1.26978e-19)
(2.22249 0.315041 6.03745e-19)
(2.28135 0.251299 -2.37807e-20)
(2.31431 0.178219 -5.2696e-19)