/*--------------------------------*- C++ -*----------------------------------*\
  =========                 |
  \\      /  F ield         | OpenFOAM: The Open Source CFD Toolbox
   \\    /   O peration     | Website:  https://openfoam.org
    \\  /    A nd           | Version:  13
     \\/     M anipulation  |
\*---------------------------------------------------------------------------*/
FoamFile
{
    format      ascii;
    class       volVectorField;
    location    "23";
    object      U;
}
// * * * * * * * * * * * * * * * * * * * * * * * * * * * * * * * * * * * * * //

dimensions      [0 1 -1 0 0 0 0];

internalField   nonuniform List<vector> 
440
(
(-0.195709 0.164452 -3.60263e-20)
(-0.219065 0.201213 -2.76684e-19)
(-0.075567 0.0919216 8.3131e-20)
(0.281753 0.0891553 -1.57833e-19)
(0.248927 0.153581 2.81697e-20)
(-0.0689555 0.0448712 1.53414e-20)
(0.0660541 0.0436633 -8.39719e-21)
(0.527323 -0.0119808 1.08934e-20)
(1.04508 -0.0322727 1.65412e-21)
(1.51925 -0.0421601 -1.75432e-20)
(-0.03234 0.0146166 5.57572e-20)
(0.437424 -0.0256643 6.15834e-19)
(1.16853 -0.0131104 -3.15046e-19)
(1.75538 0.0112644 -1.0344e-18)
(2.25317 0.0349911 4.57171e-19)
(0.176824 -0.0404143 -1.6125e-19)
(1.1061 0.00374574 -4.75905e-19)
(1.87238 0.0732061 1.50296e-18)
(2.3072 0.119329 1.66349e-18)
(2.42033 0.132006 -4.50547e-19)
(0.510369 -0.007415 -2.76036e-19)
(1.64201 0.176006 -5.73241e-19)
(2.19225 0.260779 1.74151e-18)
(2.33904 0.277393 1.89627e-18)
(2.3991 0.256626 6.4813e-19)
(0.0193292 -0.208351 -9.12156e-20)
(0.0880848 -0.445295 -3.14224e-19)
(0.139281 -0.50982 5.48046e-19)
(0.168339 -0.44929 -7.78328e-20)
(0.150265 -0.301947 -6.47109e-19)
(0.106724 -0.313327 1.06287e-19)
(0.2967 -0.602249 3.70008e-19)
(0.368437 -0.62312 4.43807e-20)
(0.388598 -0.486544 4.9173e-20)
(0.311811 -0.258521 -9.87816e-20)
(0.287327 -0.533654 3.90782e-19)
(0.50673 -0.827683 7.5007e-19)
(0.531669 -0.802833 2.26235e-20)
(0.492414 -0.63754 -1.3643e-18)
(0.353725 -0.392608 4.96262e-21)
(0.350167 -0.600292 4.22424e-19)
(0.294482 -0.852498 -7.16587e-19)
(0.110277 -0.835476 1.04891e-18)
(-0.0796687 -0.733649 1.98528e-18)
(-0.242259 -0.514347 -5.29039e-20)
(-0.0567728 -0.117394 7.8951e-20)
(-0.309976 -0.384486 1.97428e-19)
(-0.45769 -0.587434 2.54312e-19)
(-0.562824 -0.638691 1.75882e-19)
(-0.712614 -0.542642 1.17274e-18)
(0.312087 0.824509 1.07589e-18)
(-0.991018 0.828749 3.20297e-19)
(1.32266 -0.806222 1.07665e-18)
(0.978808 -1.05685 -1.38031e-19)
(1.28532 -0.460727 -7.80342e-20)
(0.513624 0.999557 -6.23947e-19)
(-0.106857 0.751459 2.46786e-19)
(1.72925 -0.947021 2.37257e-19)
(1.19471 -1.07175 4.31676e-19)
(1.2898 -0.491646 9.61216e-20)
(0.863669 0.637558 -8.81298e-19)
(0.358485 0.618774 -2.86211e-18)
(1.96369 -1.0317 -1.23047e-19)
(1.38545 -1.00632 1.93333e-19)
(1.2472 -0.463471 4.18883e-21)
(-0.162783 0.641557 3.0796e-19)
(0.627597 0.564154 3.78409e-19)
(2.1402 -1.05997 5.52399e-19)
(1.51964 -0.955125 -1.18599e-19)
(1.22104 -0.434387 2.70488e-20)
(-0.89373 0.0349548 -3.72264e-19)
(1.43705 0.173184 1.80163e-18)
(2.41818 -1.03447 0)
(1.57426 -0.86284 -6.98554e-20)
(1.16838 -0.376016 -3.40207e-21)
(0.957667 -0.0594383 -2.43529e-19)
(2.00379 -0.192835 -3.80929e-19)
(2.59166 -0.91742 -1.38208e-20)
(1.71584 -0.709562 7.24411e-20)
(1.18298 -0.318294 -6.85521e-21)
(1.82652 0.161275 -5.78313e-21)
(2.49624 -0.283172 7.12871e-19)
(2.53437 -0.846906 -9.78953e-21)
(1.46104 -0.45716 -3.4004e-20)
(1.0231 -0.161237 0)
(2.06011 0.028175 -2.53235e-19)
(2.56621 -0.392909 -1.10516e-20)
(2.02304 -0.51881 4.95762e-19)
(1.42895 -0.248341 1.36307e-20)
(1.12887 -0.13427 -4.25081e-20)
(2.07454 0.00548132 6.22002e-20)
(2.38099 -0.298678 1.41731e-19)
(1.55319 -0.398395 -6.2645e-21)
(1.03421 -0.124119 -4.2289e-34)
(0.798513 -0.0397723 2.66808e-20)
(1.57943 -0.0762067 5.74928e-20)
(1.10638 -0.0981669 9.63162e-20)
(0.430055 0.0370243 -5.37473e-20)
(0.206508 -0.0274457 -2.14721e-20)
(0.0234728 -0.0309221 8.78116e-21)
(2.32349 0.247957 -8.00993e-19)
(2.47285 0.0824247 -9.77989e-19)
(2.41567 0.072226 7.0834e-19)
(2.50606 -0.0350131 5.08097e-20)
(2.05887 0.0163129 -6.06356e-20)
(2.13163 0.108556 6.76098e-20)
(2.22484 0.113475 -3.6986e-20)
(2.27024 -0.0678767 -1.19101e-19)
(2.28329 -0.0217864 -2.19395e-19)
(2.3142 -0.266865 -4.06836e-21)
(2.08857 0.0240312 7.20888e-20)
(2.11052 0.0912912 8.71195e-20)
(2.1875 -0.0977738 -1.00125e-19)
(2.15647 -0.00958607 3.4901e-20)
(2.24124 -0.192895 1.43808e-20)
(1.99887 -0.00509055 1.08209e-19)
(2.0436 0.0455433 1.42073e-19)
(2.0954 -0.0690176 -1.73237e-20)
(2.09322 -0.0104737 -5.21946e-20)
(2.15937 -0.118675 2.32726e-20)
(1.44096 -0.0127477 1.71904e-19)
(1.48468 -0.0164505 -1.12582e-20)
(1.45745 -0.019733 1.7557e-20)
(1.49487 -0.0281077 -3.214e-20)
(1.45861 -0.0260571 -1.73498e-20)
(1.52968 0.852103 1.00924e-18)
(1.49319 0.94554 -3.06971e-19)
(1.49323 1.06708 -1.21783e-18)
(1.42254 1.10437 6.76191e-19)
(0.873933 0.787341 -1.68241e-19)
(1.7976 0.79225 -5.29178e-19)
(1.77343 0.871937 -2.81743e-18)
(1.78072 0.978566 -1.09382e-18)
(1.69022 0.98347 -3.8377e-19)
(1.02412 0.672836 -6.12896e-19)
(2.07886 0.691717 7.12191e-19)
(2.06398 0.753884 1.81828e-19)
(2.04527 0.830807 -2.15883e-18)
(1.90421 0.811201 -5.84187e-19)
(1.10427 0.518494 4.18531e-19)
(2.22888 0.564443 2.18451e-18)
(2.22929 0.613918 1.58101e-18)
(2.21981 0.658735 -1.80144e-18)
(1.99124 0.609176 -1.34333e-18)
(1.06171 0.334017 -2.35143e-19)
(2.38274 0.413733 1.02444e-18)
(2.37921 0.435881 -7.35472e-19)
(2.27954 0.450504 5.30663e-19)
(1.92606 0.387602 4.05318e-19)
(0.865835 0.139161 -3.35262e-19)
(0.579675 0.389402 -7.23177e-19)
(0.49017 0.4213 -5.95255e-19)
(0.370522 0.453981 7.94926e-20)
(0.229763 0.459746 -2.88098e-20)
(0.0557432 0.328909 6.45065e-20)
(0.671006 0.567187 5.04202e-20)
(0.605725 0.62275 -3.22557e-19)
(0.51561 0.687736 1.67167e-19)
(0.387856 0.741097 -7.72668e-20)
(0.164951 0.565055 1.10979e-19)
(0.772618 0.764374 2.07164e-19)
(0.697421 0.841178 3.94655e-19)
(0.635994 0.935898 5.34217e-20)
(0.548245 0.985043 -2.6678e-19)
(0.298112 0.734129 2.15818e-19)
(1.03684 0.856942 1.9836e-19)
(0.986658 0.942282 -5.84846e-19)
(0.932506 1.04 -1.73179e-18)
(0.845423 1.1047 7.09803e-19)
(0.49688 0.823336 -1.74199e-19)
(1.13822 0.899387 -1.26551e-19)
(1.15504 1.01743 -2.00442e-19)
(1.16918 1.13271 -3.14137e-19)
(1.11201 1.16772 -3.65803e-19)
(0.682863 0.843772 -6.0347e-21)
(1.00712 0.0484566 -7.98021e-20)
(0.995525 0.00578951 -3.01013e-20)
(1.05184 0.118118 -1.41829e-21)
(0.944259 0.109576 -1.89668e-19)
(0.893757 0.229912 2.86525e-19)
(0.99345 0.0475069 4.89548e-20)
(1.0137 -0.00207798 1.12851e-19)
(1.03888 0.130216 9.67289e-20)
(0.968703 0.135711 2.08775e-20)
(0.926839 0.311298 2.30423e-20)
(0.998712 0.0465058 6.42589e-20)
(1.0035 -0.0115317 -4.38801e-21)
(1.07974 0.147942 -3.59428e-21)
(0.915389 0.141876 1.43376e-19)
(1.12638 0.447397 -4.11554e-19)
(0.993262 0.0454799 -3.72663e-22)
(1.02878 -0.0231464 -1.68006e-19)
(1.06692 0.174001 -5.49007e-20)
(0.993033 0.145474 -3.44278e-19)
(1.16733 0.488344 8.40323e-20)
(0.994684 0.0357902 -9.97508e-21)
(1.0358 -0.0197403 5.02023e-20)
(1.10137 0.178291 2.67961e-20)
(0.975202 0.170969 4.29167e-19)
(1.36831 0.625202 -4.03322e-19)
(0.961841 0.0330126 -1.56952e-21)
(1.11434 -0.044557 9.85112e-20)
(1.05575 0.216594 -6.64752e-20)
(1.19982 0.111317 8.57062e-19)
(1.34969 0.632443 -3.71227e-19)
(0.914795 -0.00188529 -1.53612e-21)
(1.21044 -0.0328069 -8.03215e-20)
(0.933375 0.156422 4.54617e-21)
(1.32488 0.0771055 -3.03566e-19)
(1.35399 0.43793 8.18763e-21)
(0.984053 -0.0253697 -1.38295e-21)
(1.13188 -0.0183107 1.23115e-35)
(0.989963 0.14205 -1.36086e-20)
(1.27694 0.007591 9.02941e-20)
(1.34705 0.338401 1.42389e-19)
(1.10314 -0.0679408 3.99028e-21)
(0.889597 -0.00962636 -2.85897e-20)
(1.19796 0.0690181 1.79209e-20)
(1.17319 -0.0194825 2.83134e-20)
(1.3808 0.205987 -2.08796e-19)
(0.985331 -0.0237472 -4.2405e-20)
(0.701993 -0.0159756 -5.04025e-21)
(1.01095 -0.00403608 1.89321e-20)
(0.769089 -0.0136763 -1.511e-20)
(1.04342 0.0674508 -4.70303e-20)
(1.73979 0.660336 2.90911e-19)
(1.84819 0.639309 7.10081e-19)
(2.06848 0.548389 -9.92212e-19)
(2.14613 0.478591 3.66404e-20)
(2.32552 0.317987 4.22399e-19)
(1.64898 0.486333 3.60321e-20)
(1.7208 0.418729 9.14358e-19)
(1.87363 0.411041 9.20713e-20)
(1.94989 0.280327 -8.42145e-19)
(2.07892 0.25838 -2.65747e-19)
(1.62257 0.346897 -1.93612e-19)
(1.72122 0.266556 -1.40564e-19)
(1.83226 0.281841 2.01623e-19)
(1.93 0.150525 -2.75156e-19)
(2.00435 0.187703 2.49265e-19)
(1.64942 0.20174 3.18754e-19)
(1.71322 0.149355 -2.95447e-21)
(1.82124 0.157503 2.11684e-19)
(1.87048 0.073126 1.80637e-19)
(1.95594 0.101091 -1.77029e-19)
(1.25155 0.0530637 -3.87947e-20)
(1.30913 0.035887 2.16126e-19)
(1.37731 0.0254668 9.87021e-20)
(1.39774 0.0065897 -2.08944e-19)
(1.45082 -0.000378564 3.73091e-22)
(1.41355 -0.035417 7.98834e-20)
(2.52216 -0.0126744 -6.23464e-19)
(2.74223 -0.00768962 1.66438e-18)
(2.71246 0.0445934 7.75908e-19)
(2.45153 0.0495371 -5.24314e-19)
(0.952554 0.109165 1.79709e-19)
(2.31524 0.14106 -6.7327e-19)
(2.73261 0.152945 -9.57871e-19)
(2.73237 0.161183 1.3093e-18)
(2.55108 0.160963 -9.67142e-19)
(0.331797 0.114848 -2.09589e-20)
(1.71619 0.236234 8.07157e-19)
(2.48017 0.291132 1.31035e-19)
(2.7764 0.308558 1.40238e-18)
(2.72386 0.274559 7.90704e-19)
(-0.0163225 0.000189532 2.7073e-19)
(0.805691 0.189 3.08598e-19)
(1.74671 0.320757 -9.43356e-19)
(2.31737 0.392989 9.1562e-20)
(2.7868 0.435028 8.29019e-19)
(-0.11435 -0.0921757 2.13504e-19)
(0.132471 0.0221526 -2.49395e-19)
(0.83216 0.205617 -1.13496e-19)
(1.4179 0.335545 1.96906e-19)
(2.12046 0.517815 1.11522e-19)
(-0.0968579 -0.112967 2.55711e-20)
(-0.098658 -0.118358 1.5856e-19)
(0.2242 -0.0403508 5.48187e-20)
(0.474344 0.059117 -8.05821e-20)
(1.34698 0.345869 3.69579e-21)
(-0.0818616 -0.147025 -2.52739e-20)
(-0.131355 -0.268402 -1.04289e-19)
(-0.0248304 -0.276296 1.66788e-20)
(0.0771245 -0.190436 -3.40055e-21)
(0.568644 0.156862 2.51672e-20)
(-0.0749124 -0.204295 -3.07559e-20)
(-0.115426 -0.367376 -1.04598e-20)
(-0.0787964 -0.376294 1.01117e-19)
(-0.00889313 -0.290116 5.03727e-19)
(0.157005 -0.0676082 -4.75237e-20)
(-0.0541319 -0.223007 -7.57653e-21)
(-0.0994043 -0.394095 3.46328e-21)
(-0.0954508 -0.421176 -1.70609e-19)
(-0.0566718 -0.354214 -1.53202e-19)
(-0.00176492 -0.211345 7.2338e-20)
(-0.0212376 -0.205974 1.49152e-20)
(-0.0373309 -0.401478 -4.26578e-20)
(-0.0254059 -0.461828 1.79009e-20)
(-0.000770142 -0.413696 -4.76199e-20)
(0.0135297 -0.279593 -2.79191e-19)
(1.62651 0.765005 -8.32197e-20)
(0.975585 0.507451 -6.25006e-19)
(-0.574245 -0.00541842 -1.03728e-19)
(0.340038 -0.536945 6.96511e-19)
(1.05211 -0.147981 3.75456e-21)
(1.58375 0.735314 5.40063e-20)
(1.06563 0.751951 1.68978e-18)
(-0.314301 0.00279404 -2.37173e-19)
(0.263297 -0.782847 9.76922e-21)
(1.05805 -0.242588 -1.03297e-20)
(1.47956 0.559403 1.91133e-19)
(0.630487 1.00493 1.98332e-18)
(0.349505 0.0947286 1.48851e-19)
(0.474871 -0.877796 -7.97707e-20)
(1.07776 -0.325847 1.34791e-20)
(0.76465 0.521736 -6.79428e-19)
(-0.833891 1.02853 -2.45444e-18)
(0.929981 -0.0811619 -4.95777e-19)
(0.778145 -0.949293 1.46702e-20)
(1.17107 -0.389112 -7.91052e-20)
(0.403334 0.69293 -2.5729e-19)
(-1.59915 0.941911 -3.14271e-19)
(1.14574 -0.501207 1.2183e-18)
(0.898899 -1.02079 -9.26942e-20)
(1.26327 -0.436008 -2.02572e-19)
(-0.283122 0.103196 -4.23456e-20)
(-0.506065 -0.193442 0)
(-0.720765 -0.137844 -9.52817e-20)
(0.172657 -0.109037 -7.70181e-21)
(0.571563 -0.0252128 -2.70941e-20)
(1.79248 0.680849 0)
(1.12246 0.387626 0)
(-0.23364 -0.0549738 3.15933e-19)
(0.553279 -0.304642 -3.5129e-19)
(0.997453 -0.0880112 1.65874e-20)
(0.777676 0.00737461 -1.36986e-19)
(0.867797 0.000668192 3.51824e-19)
(0.977975 0.0473094 -3.10965e-20)
(0.88383 0.0145617 4.02211e-19)
(1.25378 0.222694 2.41794e-19)
(1.75969 0.0459168 1.32826e-19)
(2.00519 0.0926571 5.28796e-19)
(2.07998 0.191072 -9.11483e-19)
(2.45704 0.27916 3.44985e-19)
(2.47709 0.449612 5.86072e-19)
(0.992971 -0.544124 4.57422e-20)
(0.983433 -0.64499 -2.28924e-19)
(0.983384 -0.755045 -2.11109e-19)
(0.919385 -0.834446 1.24812e-19)
(0.568494 -0.665574 1.53301e-19)
(0.888246 -0.455569 1.03634e-19)
(0.832979 -0.528174 1.15057e-19)
(0.756609 -0.605963 -1.29034e-19)
(0.639537 -0.674914 1.57931e-19)
(0.357433 -0.543291 3.57577e-20)
(0.693005 -0.31898 -1.09309e-19)
(0.601208 -0.365553 -6.30403e-20)
(0.500697 -0.425055 -3.30617e-20)
(0.385592 -0.478429 -6.13391e-20)
(0.183392 -0.382527 -1.46761e-19)
(0.581929 -0.0873705 -4.39113e-19)
(0.497388 -0.110227 -3.50701e-19)
(0.388294 -0.144421 2.88296e-19)
(0.259491 -0.18476 1.4e-19)
(0.0833387 -0.165375 1.29943e-20)
(0.546775 0.121439 -1.35794e-19)
(0.461291 0.119124 -1.57416e-19)
(0.343096 0.112814 -3.52152e-20)
(0.202259 0.109569 6.15044e-20)
(0.0364712 0.0795842 1.53059e-20)
(2.29255 -0.0221886 1.03036e-18)
(2.50795 -0.100514 3.82423e-19)
(2.60349 -0.195979 -9.60295e-19)
(2.4935 -0.222755 -2.06253e-18)
(1.55529 -0.226981 1.53022e-19)
(2.18183 -0.134679 1.6977e-18)
(2.31444 -0.252579 2.2036e-18)
(2.35293 -0.385086 1.82801e-19)
(2.28934 -0.448834 3.16911e-19)
(1.5074 -0.427749 -2.12611e-19)
(1.92713 -0.309736 -4.27746e-18)
(1.97585 -0.435465 4.88119e-19)
(2.01417 -0.572118 1.36295e-18)
(1.97468 -0.660337 -5.51809e-19)
(1.31242 -0.58885 8.77139e-19)
(1.6468 -0.445583 1.05699e-18)
(1.66795 -0.55435 -2.77473e-18)
(1.6738 -0.686638 -3.20697e-18)
(1.6213 -0.788657 1.01214e-18)
(1.06478 -0.67381 6.56823e-19)
(1.35145 -0.516411 2.4148e-19)
(1.30502 -0.619634 3.0102e-19)
(1.29293 -0.752006 -4.93463e-19)
(1.24036 -0.852091 -6.00905e-19)
(0.797482 -0.697018 -5.81061e-21)
(1.05913 0.0523571 6.87082e-21)
(0.942949 0.0439676 1.47427e-21)
(1.13616 0.0704315 9.33826e-21)
(0.837801 -0.0146156 -2.69872e-19)
(1.20364 -0.248815 -2.19624e-20)
(1.06899 0.0550848 -2.30693e-21)
(0.936362 0.037937 2.44227e-20)
(1.13217 0.0884562 7.12353e-21)
(0.910575 0.0248149 2.29279e-19)
(1.06397 -0.134012 6.3511e-21)
(1.06647 0.0519387 -5.47001e-20)
(0.938777 0.0293179 2.23457e-23)
(1.11517 0.0918369 -3.38863e-21)
(0.902773 0.0419519 1.18593e-19)
(1.0158 -0.0756662 -2.81605e-19)
(1.04776 0.0506575 6.46801e-20)
(0.962443 0.0213499 2.59214e-21)
(1.07751 0.0980534 1.79256e-20)
(0.939766 0.0676555 -5.20297e-20)
(0.894855 0.0348563 5.59954e-20)
(1.02201 0.0483073 1.58805e-20)
(0.989011 0.0155948 -2.3469e-20)
(1.04792 0.105722 2.85908e-20)
(0.956291 0.0916698 4.18044e-20)
(0.857095 0.129702 -6.60314e-21)
(0.886463 0.0335043 0)
(0.72076 0.0271212 8.07203e-21)
(0.629122 0.0207857 7.12347e-21)
(0.381534 -0.0113045 5.74934e-20)
(0.76204 -0.0631236 -1.86732e-19)
(1.02783 0.0727729 -6.18581e-20)
(0.953208 0.0641861 1.31948e-21)
(1.04956 0.0728 -6.9477e-20)
(0.842526 -0.0132105 -1.60014e-19)
(1.12235 -0.22788 -1.9494e-19)
(1.07073 -0.0677842 -4.27921e-20)
(1.16301 -0.0377017 6.26033e-19)
(1.27737 0.0378278 3.74411e-19)
(1.13761 0.0647242 2.90445e-20)
(0.891788 0.0354406 0)
(1.42914 -0.339863 4.22773e-19)
(1.55984 -0.299067 1.80519e-18)
(1.76467 -0.173179 -1.97257e-18)
(1.86008 -0.0203412 -6.3444e-19)
(1.82136 0.0415265 4.71521e-19)
)
;

boundaryField
{
    left
    {
        type            fixedValue;
        value           uniform (1 0 0);
    }
    right
    {
        type            zeroGradient;
    }
    down
    {
        type            noSlip;
    }
    up
    {
        type            noSlip;
    }
    cylinder
    {
        type            noSlip;
    }
    defaultFaces
    {
        type            empty;
    }
}


// ************************************************************************* //
