# Selection   : all
# Cells       : 440
# Volume      : 7.374263e+01
# Time        	minMag(U)
8.015         	9.717417e-03
8.06          	9.184351e-03
8.11          	8.591960e-03
