/*--------------------------------*- C++ -*----------------------------------*\
  =========                 |
  \\      /  F ield         | OpenFOAM: The Open Source CFD Toolbox
   \\    /   O peration     | Website:  https://openfoam.org
    \\  /    A nd           | Version:  13
     \\/     M anipulation  |
\*---------------------------------------------------------------------------*/
FoamFile
{
    format      ascii;
    class       surfaceScalarField;
    location    "3";
    object      phi;
}
// * * * * * * * * * * * * * * * * * * * * * * * * * * * * * * * * * * * * * //

dimensions      [0 3 -1 0 0 0 0];

internalField   nonuniform List<scalar> 
3485
(
-0.00179527
0.00387273
-0.00207746
-0.00377664
0.00743539
-0.00545402
-0.00365123
0.00779107
-0.00791648
0.000275044
0.00513276
-0.00905903
0.00936626
-0.000652412
-0.00843881
0.0246053
-0.00951284
-0.00572624
0.046716
-0.0214465
-0.000664193
0.0763875
-0.0359767
0.00630527
0.113699
-0.0527242
0.0154122
-0.0614047
0.0210311
0.154073
-0.000815128
0.00468786
-0.000636681
0.00725694
0.00267396
0.00448043
0.0109109
-0.00310422
0.0254231
-0.0151646
0.0470329
-0.0311226
0.0755713
-0.0499849
0.110088
-0.0704937
0.148727
-0.0913631
-0.107779
0.195101
0.000376545
0.00431131
0.00348651
0.00414697
0.0113104
-0.00334345
0.0255017
-0.0172955
0.0469144
-0.0365773
0.0752441
-0.0594523
0.108988
-0.0837289
0.145734
-0.107239
0.182796
-0.128425
-0.145935
0.220952
0.00131375
0.00299757
0.00731554
-0.00185482
0.0198831
-0.015911
0.0400548
-0.0374672
0.0674022
-0.0639248
0.0999067
-0.0919568
0.134574
-0.118396
0.16834
-0.141005
0.19865
-0.158736
-0.171471
0.224186
0.00236507
0.000632501
0.0114562
-0.010946
0.0287221
-0.0331768
0.0538609
-0.062606
0.0844524
-0.0945163
0.116805
-0.12431
0.147323
-0.148914
0.173478
-0.16716
0.194086
-0.179344
-0.186994
0.20961
0.00360872
-0.00297622
0.0158867
-0.0232239
0.0370645
-0.0543547
0.0647318
-0.0902733
0.0946027
-0.124387
0.122494
-0.152201
0.145727
-0.172147
0.163428
-0.184862
0.176172
-0.192087
-0.195628
0.184806
0.00494783
-0.00792405
0.0199899
-0.038266
0.0432999
-0.0776647
0.0703145
-0.117288
0.0960899
-0.150163
0.117447
-0.173558
0.133421
-0.18812
0.144625
-0.196066
0.152255
-0.199717
-0.200977
0.157604
0.00616968
-0.0140937
0.02294
-0.0550364
0.0460753
-0.1008
0.0698086
-0.141021
0.0899706
-0.170325
0.105
-0.188588
0.115264
-0.198384
0.121938
-0.202741
0.126252
-0.20403
-0.203679
0.128954
0.00706195
-0.0211557
0.0241658
-0.0721403
0.0451137
-0.121748
0.0642823
-0.16019
0.0789124
-0.184955
0.0887633
-0.198438
0.0948507
-0.204472
0.0984435
-0.206334
0.100517
-0.206104
-0.204826
0.101664
0.0074796
-0.0286353
0.0235492
-0.0882098
0.0411043
-0.139303
0.0555019
-0.174587
0.0653102
-0.194763
0.07108
-0.204208
0.0740292
-0.207421
0.0752674
-0.207572
0.0755221
-0.206359
0.0750931
-0.204397
-0.00384753
0.0220887
-0.0182411
-0.0129136
0.0452916
-0.0362256
-0.0248987
0.0550767
-0.0430916
-0.0382501
0.0577423
-0.0443909
-0.0521291
0.0573302
-0.0434511
-0.0661515
0.0557809
-0.0417586
-0.080131
0.0537593
-0.0397798
-0.0939363
0.0514006
-0.0375953
-0.107444
0.0487136
-0.035206
0.0460149
-0.120584
-0.0328747
-0.0011158
0.0232044
-0.00592956
0.0501054
-0.0138331
0.0629803
-0.0235665
0.0674757
-0.0340987
0.0678624
-0.0448079
0.0664902
-0.055367
0.0643184
-0.0655783
0.0616119
-0.0752697
0.058405
0.0549658
-0.0842206
0.00191876
0.0212857
0.00260715
0.049417
0.000405081
0.0651823
-0.00417088
0.0720517
-0.0100371
0.0737286
-0.0163272
0.0727803
-0.0225185
0.0705096
-0.0283238
0.0674173
-0.0335455
0.0636267
0.0592512
-0.0378309
0.00437294
0.0169127
0.010569
0.0432209
0.0149698
0.0607816
0.0167583
0.0702632
0.0165418
0.0739451
0.0152696
0.0740525
0.0136907
0.0720886
0.0122637
0.0688442
0.0112495
0.0646408
0.0595707
0.0109301
0.00553101
0.0113817
0.0158038
0.0329481
0.0263666
0.0502189
0.0350576
0.0615721
0.0415003
0.0675025
0.0462274
0.0693254
0.0499945
0.0683215
0.0534312
0.0654076
0.0569471
0.0611249
0.0554752
0.0610425
0.00516799
0.00621375
0.0166324
0.0214837
0.0307285
0.0361228
0.0447908
0.0475098
0.0574835
0.0548097
0.0685051
0.0583038
0.0781154
0.0587111
0.0867504
0.0567726
0.0947587
0.0531165
0.0477566
0.102477
0.00374764
0.00246611
0.0134244
0.0118069
0.0270386
0.0225086
0.0425064
0.032042
0.058264
0.0390521
0.0734225
0.0431454
0.0876285
0.0445052
0.100837
0.0435643
0.113081
0.040872
0.0362027
0.124635
0.0019377
0.000528416
0.00803376
0.00571081
0.0178761
0.0126663
0.0304982
0.0194199
0.0448094
0.0247408
0.0598998
0.028055
0.0751237
0.0292812
0.0900634
0.0286247
0.104549
0.0263861
0.0215405
0.119211
3.51976e-05
0.000493218
0.00188676
0.00385925
0.00640699
0.00814603
0.0136803
0.0121466
0.0234121
0.0150091
0.0351808
0.0162863
0.0486656
0.0157964
0.063666
0.0136242
0.0803074
0.00974478
0.00289144
0.0989565
-0.00158424
-0.00317902
-0.00294946
0.000138106
0.00670837
0.0172684
0.0324006
0.0523301
0.0774871
0.10141
-0.171788
0.22611
-0.174906
-0.109127
-0.152653
0.0899925
-0.0023852
-0.348656
0.241914
0.0796405
-0.366216
0.28419
0.132962
-0.335903
0.282581
0.166715
-0.258201
0.224448
0.188183
-0.196147
0.17468
0.200785
-0.135996
0.123394
0.20847
-0.104936
0.0972515
-0.0663675
0.0632953
-0.11816
0.26005
-0.0640796
-0.206734
0.0250904
-0.437826
0.0994177
-0.440543
0.146953
-0.383439
0.176015
-0.287262
0.19391
-0.214043
0.204304
-0.14639
0.210646
-0.111278
-0.0688699
-0.0563463
0.278566
-0.00940176
-0.253679
0.0599248
-0.507153
0.12242
-0.503038
0.162929
-0.423948
0.186822
-0.311155
0.200655
-0.227876
0.208413
-0.154147
0.213127
-0.115992
-0.0707421
0.00631737
0.283178
0.042131
-0.289492
0.0969559
-0.561978
0.145946
-0.552028
0.178668
-0.45667
0.19769
-0.330177
0.207748
-0.237933
0.212875
-0.159274
0.215844
-0.118962
-0.0719613
0.0620956
0.282125
0.0913315
-0.318728
0.132843
-0.60349
0.168752
-0.587936
0.193014
-0.480932
0.207396
-0.34456
0.214344
-0.24488
0.217271
-0.162202
0.218634
-0.120325
-0.0725889
0.111112
0.273491
0.134978
-0.342595
0.164602
-0.633114
0.189605
-0.612939
0.205635
-0.496962
0.215432
-0.354357
0.219826
-0.249274
0.221156
-0.163532
0.221273
-0.120443
-0.0727885
0.149691
0.248435
0.170897
-0.363801
0.190688
-0.652905
0.207075
-0.629325
0.216257
-0.506144
0.221802
-0.359902
0.223973
-0.251445
0.224217
-0.163776
0.22354
-0.119766
-0.0728049
0.174313
0.193333
0.198535
-0.388023
0.210907
-0.665276
0.220407
-0.638826
0.224623
-0.51036
0.226692
-0.361971
0.226887
-0.25164
0.226354
-0.163244
0.22528
-0.118692
-0.0729146
0.190017
0.102273
0.218525
-0.41653
0.22482
-0.671572
0.229377
-0.643383
0.230597
-0.511579
0.230268
-0.361642
0.228816
-0.250187
0.227656
-0.162084
0.226442
-0.117477
-0.073367
0.204618
-0.000935583
0.230922
-0.442834
0.232417
-0.673066
0.234661
-0.645628
0.234453
-0.511371
0.232732
-0.359922
0.230025
-0.24748
0.228323
-0.160382
0.227091
-0.116246
-0.0743468
0.602692
-0.115433
-0.488194
0.64897
-0.489113
0.614982
-0.639078
0.553982
-0.584628
0.490984
-0.448372
0.439974
-0.308912
0.401841
-0.209347
0.376646
-0.135187
0.359148
-0.0987484
-0.0649007
0.748091
-0.175188
-0.688336
0.714664
-0.455686
0.636412
-0.560827
0.558717
-0.506933
0.494717
-0.384372
0.445335
-0.25953
0.407383
-0.171395
0.380842
-0.108646
0.361619
-0.0795256
-0.0541881
0.764121
-0.196587
-0.742722
0.704845
-0.39641
0.636107
-0.492088
0.575218
-0.446043
0.516321
-0.325476
0.463053
-0.206262
0.419345
-0.127686
0.388096
-0.0773966
0.365392
-0.0568217
-0.0416225
0.747248
-0.202136
-0.7417
0.701399
-0.35056
0.642164
-0.432854
0.578492
-0.382371
0.514118
-0.261102
0.458144
-0.150288
0.415026
-0.0845681
0.385543
-0.0479138
0.364202
-0.0354811
-0.0292833
0.729417
-0.201858
-0.729695
0.692936
-0.31408
0.638071
-0.377989
0.576109
-0.320409
0.51298
-0.197973
0.456706
-0.0940135
0.412895
-0.0407568
0.383185
-0.0182039
0.362118
-0.0144148
-0.017089
0.713759
-0.197197
-0.71842
0.68183
-0.282151
0.623722
-0.319881
0.553572
-0.250259
0.487357
-0.131759
0.434258
-0.0409137
0.395921
-0.00242047
0.371113
0.00660401
0.353855
0.00284382
-0.00665251
0.692477
-0.183871
-0.705803
0.649846
-0.239519
0.574891
-0.244926
0.493745
-0.169113
0.42906
-0.0670746
0.386526
0.00162105
0.360155
0.0239502
0.344901
0.0218576
0.334586
0.0131587
0.000497729
0.632184
-0.14704
-0.669015
0.559334
-0.166669
0.45994
-0.145532
0.373656
-0.0828295
0.322655
-0.0160731
0.301573
0.022703
0.29495
0.0305725
0.293517
0.0232911
0.292496
0.0141793
0.00323119
0.462262
-0.0737582
-0.535544
0.358366
-0.0627728
0.255023
-0.042189
0.190307
-0.0181128
0.170622
0.00361197
0.177716
0.015609
0.191378
0.0169106
0.202458
0.0122104
0.20923
0.00740771
0.00211644
0.14068
-0.214438
0.0779072
0.0357182
0.0176055
0.0212174
0.0368264
0.053737
0.0659475
0.0733552
0.559203
0.0635242
-0.547634
0.570907
0.0899591
0.586412
0.113449
0.602368
0.141647
0.620045
0.167129
0.636859
0.192796
0.641264
0.219781
0.630484
0.231732
0.568286
0.2573
0.234165
0.538689
0.0519654
-0.52713
0.551858
0.0767896
0.568305
0.097003
0.588651
0.121301
0.610422
0.145357
0.637214
0.166004
0.66106
0.195934
0.683789
0.209003
0.697772
0.243318
0.243601
0.523584
0.0422373
-0.513856
0.537106
0.0632682
0.552603
0.081505
0.572516
0.101388
0.594738
0.123136
0.620474
0.140268
0.650499
0.16591
0.679869
0.179632
0.716426
0.20676
0.217304
0.512116
0.0333519
-0.503231
0.525352
0.0500327
0.540428
0.0664289
0.559249
0.082567
0.581395
0.10099
0.605853
0.11581
0.63618
0.135583
0.666841
0.148971
0.705238
0.168364
0.180843
0.502988
0.0244144
-0.49405
0.515661
0.0373598
0.530785
0.0513049
0.549108
0.0642436
0.571022
0.0790761
0.595368
0.0914644
0.624584
0.106367
0.655562
0.117993
0.691897
0.132028
0.143045
0.495154
0.0154092
-0.486149
0.507315
0.025199
0.52245
0.0361691
0.540582
0.0461118
0.56227
0.0573886
0.586714
0.0670202
0.615129
0.077952
0.646095
0.0870271
0.681023
0.0970998
0.105648
0.48512
0.00681712
-0.476528
0.496677
0.0136422
0.51146
0.021386
0.529287
0.0282844
0.550638
0.0360376
0.575001
0.0426571
0.603008
0.0499458
0.633944
0.056091
0.66853
0.0625134
0.0683754
0.46086
-0.000234183
-0.453809
0.470782
0.00372081
0.484023
0.00814518
0.500353
0.0119542
0.520182
0.016208
0.543162
0.0196773
0.569698
0.0234099
0.599383
0.0264058
0.632624
0.029272
0.031985
0.387692
-0.00305033
-0.384876
0.393033
-0.00161975
0.401359
-0.000180741
0.412255
0.00105757
0.426111
0.00235229
0.442529
0.00325977
0.461799
0.0041394
0.483629
0.00457634
0.507985
0.00491606
0.00442527
0.191512
-0.194562
0.189892
0.189712
0.190769
0.193121
0.196381
0.200521
0.205097
0.210013
0.0733963
0.15004
-0.138151
-0.0852855
0.0624909
0.152217
-0.141312
0.052446
0.154847
-0.144802
0.042715
0.158385
-0.148654
0.0330356
0.162174
-0.152494
0.0234885
0.165096
-0.155549
0.0144862
0.164447
-0.155445
0.00684177
0.1542
-0.146556
0.00169174
0.123668
-0.118518
0.0583592
-0.0566675
0.0695474
0.160649
-0.080156
0.0590919
0.162673
0.0489854
0.164953
0.0392329
0.168138
0.0297246
0.171682
0.0205547
0.174266
0.0121654
0.172837
0.00536211
0.161004
0.0011091
0.127921
0.0594683
0.0625329
0.17009
-0.0719736
0.0527958
0.17241
0.0431816
0.174567
0.0338829
0.177436
0.0249316
0.180633
0.0164868
0.182711
0.00900575
0.180318
0.0033299
0.16668
0.000278876
0.130972
0.0597472
0.0512477
0.178112
-0.05927
0.0428364
0.180821
0.0343396
0.183064
0.0260205
0.185755
0.0180415
0.188612
0.010677
0.190076
0.00452147
0.186473
0.000346667
0.170854
-0.00082247
0.132141
0.0589247
0.0383158
0.185149
-0.0453529
0.0310636
0.188073
0.0236948
0.190433
0.0164561
0.192994
0.00962499
0.195443
0.00356164
0.196139
-0.000969526
0.191004
-0.00287288
0.172758
-0.00207922
0.131348
0.0568455
0.0230984
0.190971
-0.0289207
0.0171432
0.194029
0.0110902
0.196486
0.00516161
0.198923
-0.000290171
0.200895
-0.00459461
0.200443
-0.00697118
0.193381
-0.00662178
0.172408
-0.00341508
0.128141
0.0534304
0.00704
0.196007
-0.0120758
0.0021163
0.198952
-0.00273937
0.201341
-0.00730984
0.203493
-0.0111672
0.204752
-0.0136392
0.202915
-0.0137066
0.193448
-0.0105505
0.169252
-0.00471054
0.122301
0.0487199
-0.0110575
0.199944
0.00712089
-0.0147773
0.202672
-0.0183023
0.204866
-0.0213762
0.206567
-0.0234514
0.206828
-0.023635
0.203099
-0.0208583
0.190672
-0.0145122
0.162906
-0.00588609
0.113675
0.0428338
-0.0306593
0.202798
0.0278046
-0.0331921
0.205205
-0.0353527
0.207027
-0.0367784
0.207993
-0.0367582
0.206807
-0.0342389
0.20058
-0.0281387
0.184571
-0.0182486
0.153016
-0.00681661
0.102243
0.0360172
-0.0524016
0.0508035
-0.0535551
-0.0540998
-0.0535278
-0.0509286
-0.045112
-0.0351279
-0.0214149
-0.00738188
0.107813
0.0403344
-0.119852
-0.0282959
0.0955062
0.0414381
-0.029131
0.082918
0.0426307
-0.0300425
0.0700232
0.0439061
-0.0310113
0.0568045
0.0452451
-0.0320264
0.043287
0.0465034
-0.0329859
0.0296554
0.0471155
-0.033484
0.0165448
0.0454821
-0.0323715
0.00556829
0.0381606
-0.0271841
0.019378
-0.0138097
0.107049
0.0523877
-0.119102
0.0948033
0.0536841
0.0822882
0.0551458
0.0694734
0.056721
0.0563336
0.0583848
0.0428922
0.0599449
0.0293412
0.0606666
0.0163283
0.058495
0.00546949
0.0490193
0.0248475
0.105836
0.0643372
-0.117785
0.0936343
0.0658856
0.0811887
0.0675914
0.0684723
0.0694374
0.0554618
0.0713954
0.0421739
0.0732327
0.0287962
0.0740443
0.0159791
0.0713121
0.00532575
0.0596727
0.0301732
0.103972
0.0763202
-0.115955
0.0918796
0.0779777
0.0795353
0.0799357
0.0669168
0.0820559
0.0540215
0.0842906
0.0408997
0.0863546
0.0277681
0.0871759
0.0152889
0.0837913
0.00503336
0.0699282
0.0352066
0.101503
0.0880814
-0.113264
0.0896061
0.0898746
0.0775453
0.0919965
0.0652474
0.0943538
0.0526603
0.0968777
0.0398134
0.0992015
0.0269443
0.100045
0.0147558
0.0959799
0.00482081
0.0798632
0.0400274
0.0978574
0.0999179
-0.109694
0.0860352
0.101697
0.0740627
0.103969
0.0619531
0.106463
0.0496943
0.109137
0.0373091
0.111587
0.0250163
0.112338
0.0135067
0.107489
0.00429965
0.0890702
0.0443271
0.0939839
0.111095
-0.105161
0.0828111
0.11287
0.0714391
0.115341
0.0597708
0.118132
0.0478201
0.121087
0.0357043
0.123702
0.0237358
0.124306
0.0126597
0.118566
0.00395846
0.0977714
0.0482855
0.0866868
0.122137
-0.0977287
0.0758945
0.123662
0.0651632
0.126072
0.0543558
0.128939
0.0433519
0.132091
0.0321803
0.134874
0.0211512
0.135335
0.0110462
0.128671
0.00331189
0.105506
0.0515974
0.0821424
0.131383
-0.0913884
0.0724583
0.133346
0.062172
0.136358
0.0515237
0.139587
0.0406852
0.14293
0.0298128
0.145746
0.0192627
0.145885
0.00982085
0.138112
0.00283291
0.112494
0.0544303
0.0711079
-0.0778755
0.0631419
0.0546986
0.045632
0.0360675
0.0262646
0.0167051
0.00826155
0.00223715
0.20163
0.006402
-0.0100427
0.205513
0.0272931
-0.0311753
0.208893
0.0344949
-0.0378754
0.211632
0.053006
-0.0557445
0.213372
0.0656754
-0.0674157
0.212442
0.0891866
-0.0882562
0.207444
0.12254
-0.117542
0.195306
0.15262
-0.140482
0.169618
0.206414
-0.180726
0.267444
-0.217678
0.201275
0.00311664
0.204806
0.0237621
0.208012
0.0312893
0.210207
0.0508104
0.211964
0.0639186
0.210329
0.090822
0.205526
0.127342
0.193043
0.165103
0.16763
0.231827
0.315972
0.200866
0.000240001
0.203914
0.0207144
0.206936
0.0282676
0.208431
0.0493152
0.210175
0.0621744
0.207547
0.0934504
0.202932
0.131957
0.189623
0.178412
0.164938
0.256512
0.363124
0.20039
-0.00216026
0.202846
0.0182588
0.205637
0.0254763
0.206293
0.0486593
0.207989
0.0604782
0.20417
0.0972695
0.199739
0.136388
0.185002
0.19315
0.161596
0.279918
0.408765
0.199829
-0.00399936
0.201617
0.0164702
0.2041
0.0229939
0.203823
0.048936
0.205374
0.0589269
0.200248
0.102396
0.19592
0.140716
0.179504
0.209566
0.157538
0.301884
0.453039
0.199169
-0.00517879
0.200251
0.0153883
0.202317
0.0209285
0.201083
0.0501693
0.202315
0.0576954
0.195782
0.108928
0.191458
0.145041
0.172907
0.228117
0.153067
0.321723
0.496412
0.198403
-0.00559183
0.198771
0.0150203
0.200279
0.0194199
0.198103
0.0523455
0.198777
0.0570215
0.190854
0.116851
0.186125
0.14977
0.165824
0.248418
0.147507
0.340041
0.538757
0.19753
-0.00513209
0.197196
0.0153544
0.197987
0.0186287
0.194887
0.0554452
0.194767
0.0571419
0.185441
0.126177
0.180054
0.155157
0.157357
0.271115
0.141747
0.35565
0.582775
0.196561
-0.00370323
0.195539
0.0163766
0.195449
0.0187182
0.191441
0.0594531
0.190244
0.0583392
0.17971
0.136712
0.173254
0.161612
0.150172
0.294197
0.134965
0.370858
0.626352
0.195541
-0.00125473
0.193765
0.0181533
0.192746
0.0197366
0.187674
0.0645251
0.185122
0.0608919
0.172983
0.14885
0.164576
0.17002
0.139812
0.318961
0.12889
0.381779
0.677367
0.30446
-0.00370411
0.30901
0.0136026
0.317282
0.011465
0.319426
0.0623806
0.332321
0.0479968
0.333141
0.148031
0.353637
0.149523
0.360093
0.312505
0.413115
0.328757
0.606165
0.484317
0.304676
-0.00637037
0.310768
0.00751099
0.319586
0.00264746
0.323382
0.0585839
0.337974
0.0334052
0.341728
0.144277
0.363339
0.127911
0.380269
0.295575
0.429567
0.279459
0.538596
0.497135
0.305128
-0.00948768
0.313159
-0.000520577
0.32163
-0.0058236
0.328564
0.0516497
0.342932
0.0190375
0.350394
0.136815
0.371335
0.10697
0.395442
0.271468
0.439299
0.235603
0.465677
0.512218
0.306134
-0.0136119
0.315879
-0.0102653
0.323875
-0.0138198
0.335081
0.0404441
0.346834
0.00728454
0.358164
0.125485
0.377102
0.0880324
0.406437
0.242133
0.448705
0.193335
0.389121
0.525261
0.307851
-0.0194525
0.318805
-0.0212193
0.327207
-0.0222217
0.342655
0.0249956
0.35132
-0.00138042
0.3669
0.109906
0.383405
0.0715273
0.41811
0.207427
0.455384
0.156062
0.3144
0.530105
0.310191
-0.0276335
0.322247
-0.0332745
0.332056
-0.032031
0.35019
0.00686107
0.355728
-0.00691786
0.374824
0.090809
0.389318
0.0570339
0.427201
0.169544
0.460489
0.122774
0.24435
0.530539
0.313282
-0.0389057
0.326457
-0.0464489
0.33723
-0.0428045
0.354836
-0.010745
0.356455
-0.00853698
0.378951
0.0683133
0.392262
0.0437234
0.43271
0.129096
0.462635
0.0928485
0.179161
0.527823
0.316343
-0.0532388
0.327599
-0.0577048
0.334363
-0.0495683
0.344555
-0.0209372
0.342558
-0.00653972
0.367627
0.0432443
0.381142
0.0302084
0.424735
0.0855027
0.454683
0.0629006
0.114639
0.519205
0.309563
-0.0607911
0.303977
-0.0521193
0.292748
-0.0383393
0.286899
-0.0150879
0.283232
-0.00287278
0.308013
0.0184637
0.323969
0.0142523
0.371163
0.038308
0.405421
0.0286428
0.0478704
0.47219
0.241219
0.1891
0.15076
0.135673
0.1328
0.151263
0.165516
0.203824
0.232467
0.280337
0.497958
-0.0989267
0.50254
-0.0847379
0.5062
-0.0756337
0.509277
-0.0623471
0.514195
-0.0502702
0.518603
-0.0333287
0.524965
-0.0184381
0.530871
0.00121488
0.539446
0.0192295
0.0426157
0.497965
-0.0997562
0.498718
-0.085491
0.498874
-0.0757898
0.499104
-0.0625767
0.500798
-0.0519649
0.502779
-0.0353094
0.507227
-0.0228861
0.511673
-0.00323077
0.519263
0.0116393
0.0347485
0.505871
-0.0934086
0.502645
-0.0822659
0.499421
-0.0725651
0.497192
-0.0603482
0.495533
-0.0503059
0.495915
-0.0356915
0.497294
-0.0242643
0.500774
-0.0067107
0.505831
0.00658211
0.0267232
0.514505
-0.0826527
0.506387
-0.0741477
0.499695
-0.0658733
0.495134
-0.0557867
0.491032
-0.0462041
0.48969
-0.0343495
0.48896
-0.0235347
0.491762
-0.00951279
0.49543
0.00291469
0.0189221
0.517712
-0.07026
0.507122
-0.0635578
0.498038
-0.0567897
0.491245
-0.0489939
0.485776
-0.0407348
0.482995
-0.0315688
0.481582
-0.0221212
0.483494
-0.011425
0.486897
-0.000488423
0.011769
0.516791
-0.0565116
0.504752
-0.0515187
0.494469
-0.046507
0.486397
-0.0409219
0.480326
-0.034664
0.476718
-0.0279602
0.475138
-0.0205411
0.476342
-0.0126295
0.479677
-0.00382303
0.0052971
0.51334
-0.0420289
0.500565
-0.0387429
0.489623
-0.0355651
0.480797
-0.0320965
0.474146
-0.028013
0.469774
-0.0235875
0.467647
-0.0184141
0.468007
-0.0129901
0.470895
-0.00671085
-0.000335729
0.50347
-0.0262937
0.489521
-0.0247942
0.477437
-0.0234808
0.467335
-0.0219946
0.45934
-0.0200177
0.453445
-0.0176921
0.449818
-0.0147877
0.448496
-0.0116678
0.449781
-0.00799597
-0.00436394
0.455734
-0.00983765
0.440989
-0.0100497
0.427775
-0.0102667
0.41606
-0.0102798
0.405985
-0.00994232
0.397596
-0.0093026
0.391162
-0.00835384
0.38674
-0.00724641
0.384666
-0.00592149
-0.00457417
0.270499
0.26045
0.250183
0.239903
0.229961
0.220658
0.212304
0.205058
0.199137
0.00668049
0.0405893
-0.0472698
0.0160219
0.106208
-0.11555
0.0224672
0.150779
-0.157224
0.0249405
0.175405
-0.177878
0.0243266
0.18628
-0.185666
0.0218382
0.189261
-0.186772
0.0184026
0.187838
-0.184403
0.014658
0.183017
-0.179273
0.0111793
0.173607
-0.170128
0.156385
0.00851877
-0.153725
0.00798134
0.032608
0.0213782
0.0928114
0.0329226
0.139235
0.0401376
0.16819
0.0433948
0.183023
0.0439381
0.188717
0.0428605
0.188916
0.0408123
0.185065
0.0380002
0.176419
0.160212
0.0341734
0.00849723
0.0241107
0.0252736
0.076035
0.0421652
0.122343
0.0549412
0.155414
0.0629483
0.175016
0.0671688
0.184497
0.0687793
0.187306
0.0684735
0.185371
0.0662726
0.17862
0.165164
0.0613211
0.00811091
0.0159998
0.026777
0.0573689
0.048521
0.100599
0.0674874
0.136447
0.0813639
0.161139
0.0903658
0.175495
0.0956016
0.18207
0.0979555
0.183017
0.0974432
0.179133
0.169474
0.0931331
0.00693192
0.00906791
0.025343
0.0389579
0.0501599
0.0757822
0.0751063
0.111501
0.0959513
0.140294
0.111272
0.160174
0.121497
0.171845
0.127541
0.176973
0.12987
0.176803
0.172068
0.127276
0.00527345
0.00379447
0.0212816
0.0229497
0.0460575
0.0510062
0.0748323
0.0827263
0.102518
0.112609
0.125718
0.136973
0.143139
0.154425
0.154951
0.165161
0.161665
0.17009
0.170361
0.163371
0.00354524
0.000249225
0.0158171
0.0106779
0.0372753
0.029548
0.0657909
0.0542107
0.0973792
0.0810205
0.127931
0.106422
0.154424
0.127931
0.175284
0.144301
0.190247
0.155127
0.162217
0.198392
0.00207757
-0.00182834
0.010379
0.00237649
0.026525
0.0134019
0.0506221
0.0301137
0.0808949
0.0507477
0.114299
0.0730178
0.147562
0.0946683
0.177755
0.114108
0.203132
0.12975
0.14127
0.224079
0.000962969
-0.00279131
0.0057933
-0.00245384
0.0163328
0.00286238
0.0338028
0.0126437
0.0583034
0.0262471
0.0886521
0.0426692
0.122736
0.0605841
0.158144
0.0787002
0.191468
0.0964256
0.107208
0.225529
6.8287e-05
-0.0028596
0.00203194
-0.0044175
0.00763541
-0.00274109
0.018384
0.00189515
0.0352877
0.00934341
0.0585933
0.0193636
0.0877053
0.0314721
0.121459
0.0449464
0.158029
0.0598561
0.0716441
0.193593
-0.000672258
-0.00218734
-0.000771396
-0.00431836
0.00120598
-0.00471847
0.00655891
-0.00345778
0.0163471
-0.000444779
0.0314366
0.00427404
0.0521882
0.0107205
0.0783916
0.018743
0.109789
0.0284589
0.0418035
0.139629
-0.000649975
-0.00153736
-0.00113196
-0.00383637
-0.000456
-0.00539443
0.00214061
-0.00605438
0.00737487
-0.00567904
0.0158225
-0.00417364
0.0280109
-0.00146784
0.0441894
0.00256453
0.0643054
0.00834283
0.0176618
0.0884472
0.000126894
-0.00166426
0.000867424
-0.0045769
0.00249066
-0.00701767
0.00521396
-0.00877769
0.0092486
-0.00971368
0.0148324
-0.00975745
0.0222462
-0.00888161
0.031827
-0.00701632
0.0440714
-0.0039015
0.0012613
0.0604718
0.000649784
-0.00231404
0.00205509
-0.00598221
0.00405453
-0.0090171
0.0066606
-0.0113838
0.00994905
-0.0130021
0.0140484
-0.0138568
0.0191376
-0.0139708
0.0254713
-0.01335
0.0335008
-0.0119311
-0.00979703
0.0445592
0.000143551
-0.00245759
0.000158269
-0.00599693
6.19075e-06
-0.00886503
-0.000173658
-0.0112039
-0.000176141
-0.0129996
0.000228485
-0.0142614
0.00130125
-0.0150436
0.00335467
-0.0154034
0.00678732
-0.0153637
-0.0151242
0.0121145
-0.00122612
-0.00123147
-0.00413213
-0.00309092
-0.00799799
-0.00499916
-0.0122483
-0.00695356
-0.0164458
-0.00880219
-0.0202285
-0.0104787
-0.0232891
-0.011983
-0.025374
-0.0133185
-0.0262761
-0.0144616
-0.0156532
-0.0257471
-0.00315488
0.00192341
-0.00976118
0.00351538
-0.0180202
0.00325989
-0.026899
0.00192516
-0.0358808
0.000179634
-0.0445174
-0.0018421
-0.0526411
-0.00385934
-0.060114
-0.0058455
-0.0668005
-0.0077751
-0.00981765
-0.0726361
-0.00494325
0.00686666
-0.0147655
0.0133376
-0.0266789
0.0151733
-0.0393217
0.014568
-0.0520889
0.0129468
-0.0648956
0.0109647
-0.0776099
0.00885493
-0.0901416
0.00668616
-0.102392
0.00447525
0.00219389
-0.114403
-0.00585183
0.0127185
-0.017389
0.0248748
-0.031306
0.0290903
-0.0460781
0.0293401
-0.0611388
0.0280075
-0.0763259
0.0261517
-0.091579
0.0241081
-0.106836
0.0219431
-0.122022
0.019661
0.0173624
-0.13719
-0.00552262
-0.0168734
-0.0308748
-0.0459256
-0.0613692
-0.0769761
-0.0926478
-0.1083
-0.123845
-0.139357
0.204277
0.0687049
-0.133352
0.220681
0.39908
-0.415484
0.218001
0.410128
-0.407448
0.229603
0.131324
-0.142926
0.231844
-0.0622955
0.0600538
0.219015
-0.0815899
0.0944194
0.205993
-0.0507147
0.0637367
0.200479
-0.0270936
0.0326073
0.202004
-0.0203614
0.0188369
-0.0178032
0.0125203
0.166195
-0.00904256
0.211204
0.35407
0.228643
0.392689
0.246549
0.113418
0.239149
-0.0548955
0.219366
-0.0618067
0.205548
-0.0368971
0.201217
-0.0227621
0.203636
-0.0227805
-0.0228394
0.128743
-0.0773138
0.184462
0.298351
0.218292
0.358859
0.237879
0.0938303
0.223561
-0.0405774
0.204686
-0.0429318
0.196834
-0.0290447
0.197608
-0.0235365
0.202767
-0.0279388
-0.028238
0.083812
-0.116567
0.138227
0.243936
0.184567
0.312519
0.201845
0.0765517
0.189105
-0.027837
0.181582
-0.0354092
0.185434
-0.0328967
0.193193
-0.0312954
0.201474
-0.0362197
-0.0340819
0.0261515
-0.130604
0.0757043
0.194383
0.127406
0.260817
0.14534
0.0586179
0.149429
-0.0319263
0.16097
-0.0469496
0.177028
-0.0489554
0.19047
-0.0447373
0.200872
-0.0466214
-0.0400493
-0.0495431
-0.106808
-0.00390225
0.148743
0.0539787
0.202936
0.0916014
0.0209952
0.122243
-0.062568
0.150183
-0.0748894
0.173815
-0.0725873
0.190039
-0.0609617
0.201176
-0.0577581
-0.0457516
-0.132466
-0.0469777
-0.0889585
0.105235
-0.0020782
0.116056
0.0630763
-0.0441593
0.112253
-0.111744
0.148208
-0.110845
0.174487
-0.0988658
0.19121
-0.0776852
0.202128
-0.0686756
-0.0509559
-0.192033
0.0306519
-0.135197
0.048399
-0.0212661
0.002125
0.0561509
-0.121576
0.112305
-0.167898
0.150612
-0.149152
0.176951
-0.125205
0.193135
-0.0938686
0.203429
-0.07897
-0.0555987
-0.21454
0.108002
-0.145835
-0.0203062
-0.0219236
-0.121786
0.0584034
-0.201903
0.116189
-0.225684
0.154551
-0.187514
0.180041
-0.150695
0.195363
-0.109191
0.20492
-0.0885272
-0.0597026
-0.206262
-0.136576
-0.0164476
0.0658389
0.122736
0.15967
0.183655
0.197858
0.206582
0.0494386
0.035083
-0.0845216
0.010297
0.0391415
-0.0191528
0.0294498
-0.028234
0.0090812
-0.0124153
-0.0158188
0.0123762
-0.0247914
0.0299023
-0.0175261
0.0381437
-0.00824141
0.041468
-0.00332431
-0.00131761
0.197303
0.108041
-0.270261
0.0890249
0.14742
0.0131116
0.105363
-0.00122429
0.0234171
0.0256151
-0.0426581
0.0634021
-0.0625785
0.0901894
-0.0443134
0.10374
-0.0217923
0.110052
-0.00963581
-0.00418135
0.34199
0.163941
-0.397891
0.2086
0.28081
0.0987418
0.215221
0.0681231
0.0540358
0.0892719
-0.0638069
0.118805
-0.0921113
0.140334
-0.0658431
0.15219
-0.0336475
0.158643
-0.016089
-0.0076681
0.417475
0.173032
-0.426566
0.314485
0.3838
0.202122
0.327584
0.15812
0.0980379
0.16405
-0.0697369
0.174726
-0.102787
0.181461
-0.0725778
0.185534
-0.0377205
0.188963
-0.0195186
-0.0106148
0.394659
-0.354979
0.362974
0.283111
0.238223
0.22854
0.220173
0.211332
0.206218
0.205537
0.0106242
-0.000160738
-0.0104635
0.0122219
-0.00159769
0.0151377
-0.00291578
0.0195353
-0.0043976
0.0258789
-0.00634357
0.0333141
-0.00743524
0.0436205
-0.0103064
0.0550727
-0.0114522
0.0695316
-0.0144589
-0.01499
0.0292712
-0.000890012
-0.0285419
0.0338289
-0.00615545
0.0421081
-0.0111949
0.0552261
-0.0175156
0.0736577
-0.0247752
0.09698
-0.0307576
0.130092
-0.0434189
0.166996
-0.0483554
0.215199
-0.0626619
-0.0700519
0.0453242
-0.00244984
-0.0437644
0.0525805
-0.0134117
0.0656674
-0.0242818
0.0863274
-0.0381756
0.114409
-0.0528571
0.152254
-0.0686021
0.201075
-0.0922402
0.256652
-0.103932
0.327895
-0.133905
-0.140047
0.0586792
-0.00497885
-0.0561502
0.0681624
-0.0228949
0.0852231
-0.0413426
0.111126
-0.0640781
0.146244
-0.0879752
0.19315
-0.115508
0.246659
-0.14575
0.311335
-0.168608
0.378953
-0.201523
-0.18766
0.0694512
-0.0659113
0.0807297
0.100708
0.129763
0.169064
0.216927
0.269569
0.32504
0.349046
0.0815037
-0.073593
0.0814148
-0.0893255
0.0729206
-0.0746763
0.0832594
0.0639988
-0.0764005
0.0853224
0.0544888
-0.0782478
0.0877579
0.0443083
-0.0800953
0.0902758
0.0335793
-0.0816328
0.0923618
0.0226668
-0.0817727
0.0926852
0.0123264
-0.0777164
0.0880567
0.00398248
-0.0639184
0.0722623
-0.0316256
0.035608
0.0900542
-0.0641444
-0.0995028
0.0802317
-0.0648538
0.0697762
-0.065945
0.0587472
-0.0672189
0.0472974
-0.0686455
0.0356068
-0.0699423
0.0239716
-0.0701374
0.0130546
-0.0667994
0.00424221
-0.055106
-0.0273834
0.0917648
-0.0534953
-0.102414
0.0810072
-0.0540961
0.0700488
-0.0549867
0.0588938
-0.0560639
0.0475146
-0.0572662
0.0359131
-0.0583407
0.02428
-0.0585043
0.0132601
-0.0557795
0.00430512
-0.046151
-0.0230782
0.0969714
-0.0425519
-0.107915
0.0858724
-0.0429971
0.0745441
-0.0436585
0.0629094
-0.0444291
0.0509185
-0.0452754
0.038607
-0.0460292
0.0262164
-0.0461138
0.0144323
-0.0439954
0.00476472
-0.0364834
-0.0183135
0.0996691
-0.0311447
-0.111076
0.0881219
-0.0314499
0.076329
-0.0318655
0.0642637
-0.0323638
0.051916
-0.0329276
0.0393312
-0.0334444
0.0267224
-0.0335051
0.0147309
-0.0320038
0.00486526
-0.0266178
-0.0134483
0.102783
-0.0195574
-0.11437
0.0909759
-0.0196432
0.0789186
-0.0198082
0.0665788
-0.0200241
0.0539338
-0.0202826
0.0410077
-0.0205183
0.027995
-0.0204923
0.0155384
-0.0195472
0.00519413
-0.0162735
-0.00825413
0.104877
-0.00773587
-0.116698
0.0928537
-0.00762019
0.0805739
-0.00752838
0.0680085
-0.00745863
0.0551341
-0.00740815
0.0419716
-0.00735586
0.028707
-0.00722771
0.0159757
-0.006816
0.00535843
-0.00565624
-0.0028957
0.106536
0.00420599
-0.118478
0.094359
0.00455709
0.0819133
0.00491729
0.0691716
0.00528304
0.0561125
0.00565095
0.0427574
0.00599928
0.0292889
0.00624078
0.0163393
0.0061336
0.00550295
0.00518013
0.00260725
0.107552
0.0162291
-0.119575
0.0952838
0.0168252
0.0827408
0.0174603
0.0698958
0.018128
0.0567271
0.0188197
0.0432537
0.0194727
0.0296551
0.0198394
0.0165629
0.0192258
0.00558701
0.016156
0.00819426
0.107925
-0.119992
0.0956193
0.0830371
0.0701537
0.0569471
0.0434338
0.0297892
0.0166435
0.00561545
0.0132336
-0.151669
-0.0152899
0.0088824
-0.165777
0.00352764
-0.173918
-0.00197307
-0.178902
-0.00695899
-0.181786
-0.010664
-0.181961
-0.012068
-0.176474
-0.0101141
-0.159178
-0.0048657
-0.120798
-0.0521355
0.0356776
-0.14873
-0.0386157
0.0297969
-0.159897
0.0226879
-0.166809
0.0152796
-0.171494
0.00811926
-0.174626
0.00179836
-0.17564
-0.00273273
-0.171943
-0.00439526