/*--------------------------------*- C++ -*----------------------------------*\
  =========                 |
  \\      /  F ield         | OpenFOAM: The Open Source CFD Toolbox
   \\    /   O peration     | Website:  https://openfoam.org
    \\  /    A nd           | Version:  13
     \\/     M anipulation  |
\*---------------------------------------------------------------------------*/
FoamFile
{
    format      ascii;
    class       volVectorField;
    location    "3";
    object      U;
}
// * * * * * * * * * * * * * * * * * * * * * * * * * * * * * * * * * * * * * //

dimensions      [0 1 -1 0 0 0 0];

internalField   nonuniform List<vector> 
1800
(
(-0.0304809 0.0236201 1.02852e-20)
(-0.0746208 0.0424469 4.65202e-21)
(-0.0934 0.0510595 -4.85222e-20)
(-0.0815317 0.0542998 6.37512e-20)
(-0.0316249 0.0555031 1.77216e-19)
(0.0613326 0.055067 7.88811e-20)
(0.199188 0.0532326 -3.33812e-20)
(0.377438 0.0481812 1.40547e-20)
(0.615781 0.0645732 1.38091e-19)
(0.727866 0.104952 1.75611e-19)
(-0.0454376 0.0337085 9.55212e-21)
(-0.0830543 0.0552681 -4.08743e-20)
(-0.0690809 0.0547061 3.95097e-22)
(-0.00262636 0.0411033 -6.09794e-20)
(0.119764 0.0204573 2.47828e-20)
(0.298654 -0.0040277 1.53096e-19)
(0.528882 -0.0293709 -7.13606e-20)
(0.79676 -0.0572091 2.85827e-20)
(1.10726 -0.0699247 -1.44947e-19)
(1.30231 -0.0824013 1.46183e-19)
(-0.0496311 0.032901 4.51229e-21)
(-0.0636972 0.0494225 1.69101e-20)
(0.00142606 0.0412439 2.65941e-21)
(0.142375 0.0178226 -1.32659e-20)
(0.355672 -0.0129428 -1.47365e-19)
(0.629856 -0.0452643 3.04807e-20)
(0.944122 -0.0750338 6.0613e-20)
(1.2734 -0.0992773 -2.35198e-20)
(1.58963 -0.116417 -1.80822e-22)
(1.87211 -0.143596 -1.94095e-21)
(-0.0423631 0.0245098 -8.05085e-21)
(-0.0121461 0.0268806 -2.54318e-20)
(0.125701 0.00830837 -2.62089e-20)
(0.36073 -0.0216216 2.62951e-20)
(0.674271 -0.0539538 2.47556e-20)
(1.034 -0.0824219 1.03187e-20)
(1.40074 -0.103797 -3.45066e-21)
(1.73834 -0.11767 9.71524e-20)
(2.02669 -0.126728 9.36735e-20)
(2.24013 -0.13234 -4.33362e-20)
(-0.023086 0.0126246 6.23371e-20)
(0.0766941 -0.00180989 5.76799e-20)
(0.310542 -0.0281811 -4.08005e-20)
(0.651241 -0.0564377 -5.0269e-20)
(1.05297 -0.0787639 -1.40024e-19)
(1.45902 -0.0921163 2.24768e-21)
(1.82058 -0.0974776 1.9563e-19)
(2.10941 -0.0980803 9.28935e-20)
(2.31449 -0.0956235 1.65974e-21)
(2.45436 -0.101421 -9.16462e-20)
(0.011433 -0.000810916 -6.12291e-20)
(0.208254 -0.0284611 -1.34916e-20)
(0.554902 -0.054179 2.09392e-19)
(0.993242 -0.069578 -6.35809e-20)
(1.44486 -0.0729809 -1.5546e-19)
(1.84147 -0.0679807 3.29009e-19)
(2.14626 -0.0597234 -3.4424e-19)
(2.3533 -0.0521564 -4.85578e-19)
(2.48002 -0.0477217 4.04613e-19)
(2.54481 -0.0471246 1.72083e-21)
(0.0639408 -0.0130805 6.67167e-20)
(0.3816 -0.0443415 -1.47282e-19)
(0.841488 -0.0571062 -5.16044e-19)
(1.34521 -0.0501435 2.57105e-19)
(1.79502 -0.0325299 5.79631e-19)
(2.13679 -0.0135194 -2.27387e-21)
(2.36313 0.0014943 -1.2635e-18)
(2.49523 0.0106826 6.92551e-21)
(2.56142 0.0156076 1.52783e-18)
(2.58926 0.0127161 4.21348e-19)
(0.134448 -0.0204034 6.41023e-20)
(0.586349 -0.0407459 3.49622e-19)
(1.13998 -0.0284985 4.42116e-19)
(1.66455 0.0039669 -1.15313e-19)
(2.0718 0.0377111 -5.28696e-19)
(2.34129 0.0631984 -2.02601e-19)
(2.49578 0.0786067 0)
(2.57122 0.085777 6.38429e-19)
(2.59984 0.0870536 -1.10443e-20)
(2.60123 0.0831531 -6.08622e-19)
(0.219472 -0.0186407 5.58969e-20)
(0.803952 -0.0110511 3.7906e-19)
(1.41812 0.0341413 7.18582e-19)
(1.92516 0.0888802 -7.63919e-19)
(2.27081 0.131379 -6.71972e-19)
(2.47077 0.157079 2.68876e-19)
(2.56794 0.168976 -1.28031e-18)
(2.60402 0.171695 -9.66519e-19)
(2.60777 0.169225 1.19097e-18)
(2.59498 0.161476 1.03785e-18)
(0.312657 -0.00443649 -3.69007e-20)
(1.01326 0.0470529 3.02022e-19)
(1.65312 0.127297 1.87751e-19)
(2.11931 0.197927 -1.52655e-18)
(2.40055 0.242466 4.68706e-20)
(2.54155 0.263605 3.06215e-18)
(2.59639 0.268989 -1.77619e-18)
(2.60641 0.265558 -1.04285e-18)
(2.59559 0.257486 3.68538e-19)
(2.57364 0.245629 -8.44401e-19)
(-0.0145126 0.255889 2.28435e-19)
(-0.064919 0.513343 -1.21074e-19)
(-0.130358 0.613839 1.17236e-21)
(-0.201128 0.634444 -3.04654e-20)
(-0.269523 0.62255 2.93228e-21)
(-0.333876 0.599578 2.20435e-19)
(-0.393685 0.572351 1.73579e-19)
(-0.448489 0.542079 -3.60252e-19)
(-0.499516 0.508718 1.94506e-20)
(-0.550459 0.472502 -6.05501e-20)
(-0.0335702 0.287586 -8.56024e-21)
(-0.0860273 0.601341 1.29458e-20)
(-0.140637 0.736914 1.79013e-20)
(-0.195622 0.773448 4.5624e-20)
(-0.24788 0.765671 -1.51265e-19)
(-0.296304 0.740992 2.22421e-19)
(-0.340262 0.709362 -3.2797e-19)
(-0.378867 0.673098 -4.30713e-19)
(-0.412406 0.632327 3.48082e-19)
(-0.444282 0.587261 -1.11373e-19)
(-0.0506569 0.280824 -6.23641e-20)
(-0.10507 0.628683 4.05119e-20)
(-0.146442 0.803989 2.03347e-21)
(-0.181077 0.867173 -2.26974e-19)
(-0.212128 0.871526 -7.49314e-20)
(-0.23984 0.849467 8.06435e-19)
(-0.263555 0.815476 -2.88901e-19)
(-0.282239 0.774244 -4.33149e-19)
(-0.295 0.726744 5.18984e-19)
(-0.303455 0.673218 2.98844e-19)
(-0.0588832 0.237884 -4.80915e-20)
(-0.114342 0.586397 -5.01408e-21)
(-0.143406 0.799224 1.17215e-20)
(-0.158223 0.900435 -4.80323e-20)
(-0.167109 0.929369 2.1664e-19)
(-0.172641 0.918819 -2.77143e-19)
(-0.175011 0.888019 -2.42006e-19)
(-0.173589 0.845494 2.89423e-19)
(-0.167125 0.793986 1.14437e-20)
(-0.152261 0.73428 9.78134e-21)
(-0.054493 0.17162 0)
(-0.108425 0.480135 1.76418e-21)
(-0.129315 0.712874 -3.72406e-20)
(-0.128817 0.855989 1.06503e-19)
(-0.117684 0.923876 3.357e-19)
(-0.101153 0.939882 -2.63027e-19)
(-0.0811867 0.923702 1.05211e-19)
(-0.0580637 0.887802 3.28692e-20)
(-0.0313466 0.838303 0)
(0.00589706 0.777458 2.10911e-20)
(-0.0394845 0.10162 -2.8437e-20)
(-0.0871693 0.336666 7.10557e-20)
(-0.105074 0.555733 3.77916e-20)
(-0.0983791 0.723194 -5.88217e-20)
(-0.0755947 0.830048 6.11582e-20)
(-0.0428439 0.883787 1.8112e-19)
(-0.0039641 0.897007 -4.85091e-19)
(0.039142 0.881292 -3.7576e-20)
(0.0842012 0.844466 5.92989e-19)
(0.140954 0.790745 1.18249e-20)
(-0.0208216 0.0458569 9.77461e-21)
(-0.0583331 0.19772 1.30995e-19)
(-0.0769112 0.371281 -7.20834e-20)
(-0.073561 0.529214 -1.21525e-20)
(-0.0512096 0.651342 -6.572e-20)
(-0.0140801 0.732575 6.57954e-20)
(0.0336791 0.77618 1.60754e-19)
(0.0890744 0.78875 1.96855e-19)
(0.147499 0.776547 -2.10641e-19)
(0.21632 0.741938 -2.9357e-19)
(-0.00602398 0.0121636 2.58903e-20)
(-0.0342031 0.0948553 -6.61847e-20)
(-0.0554397 0.210458 -1.02587e-19)
(-0.0607081 0.330848 3.84213e-20)
(-0.0474119 0.436722 -1.29665e-20)
(-0.0166422 0.518414 1.00127e-19)
(0.0286027 0.573454 9.14769e-20)
(0.0849313 0.6038 6.40797e-20)
(0.148037 0.613728 5.32146e-20)
(0.220035 0.593803 -1.58831e-19)
(-0.00112695 6.70602e-05 1.72486e-20)
(-0.0283575 0.0384011 -9.29097e-20)
(-0.0551562 0.1024 1.44957e-19)
(-0.0704038 0.175446 1.65116e-19)
(-0.0679628 0.245373 -1.21363e-19)
(-0.0464233 0.304704 2.51428e-19)
(-0.00681197 0.350231 -4.07105e-20)
(0.0487938 0.382311 -2.15383e-19)
(0.119094 0.40116 7.87269e-21)
(0.213908 0.384165 -1.11014e-19)
(-0.0112208 0.00751641 -7.77432e-21)
(-0.0482263 0.0270464 -4.07019e-20)
(-0.0797642 0.0548127 -1.43464e-20)
(-0.0962543 0.086307 7.56773e-20)
(-0.0898061 0.118117 1.55714e-19)
(-0.0563616 0.147417 -1.64239e-19)
(0.00610847 0.172592 -1.33459e-19)
(0.0973974 0.193675 4.72245e-20)
(0.220174 0.210539 1.36492e-20)
(0.370294 0.21096 6.31286e-20)
(-0.805389 0.278345 9.01993e-19)
(-0.731175 -0.1762 -1.97223e-18)
(-0.21491 -0.420833 -4.06342e-19)
(0.214289 -0.454898 1.5247e-19)
(0.543014 -0.432254 -3.06712e-20)
(0.738079 -0.337696 -1.73003e-20)
(0.873907 -0.259856 -9.34319e-21)
(0.968859 -0.182209 -2.26576e-21)
(1.01712 -0.142342 1.18836e-20)
(1.06844 -0.0918561 2.86961e-21)
(-0.618781 0.338702 9.45193e-19)
(-0.44557 -0.255546 7.79426e-19)
(-0.0342261 -0.555968 -4.87512e-20)
(0.357188 -0.565882 -2.25177e-19)
(0.64621 -0.503936 -2.45054e-19)
(0.809331 -0.383309 0)
(0.919935 -0.289604 -2.17876e-20)
(0.995337 -0.200902 5.20661e-21)
(1.03432 -0.15493 3.77724e-22)
(1.07655 -0.0987245 -5.89893e-21)
(-0.385436 0.373621 -2.66753e-19)
(-0.12711 -0.32491 -4.08697e-19)
(0.214613 -0.661903 2.89153e-19)
(0.532697 -0.660585 8.24091e-20)
(0.768862 -0.565365 2.15274e-20)
(0.894767 -0.420886 -1.02162e-20)
(0.975787 -0.313023 0)
(1.02777 -0.21545 0)
(1.05495 -0.164811 -1.15723e-20)
(1.0859 -0.104231 0)
(-0.137736 0.386699 -8.41321e-20)
(0.202392 -0.380246 7.78141e-19)
(0.496089 -0.7451 -1.3877e-19)
(0.726503 -0.735129 0)
(0.898395 -0.614812 2.68847e-19)
(0.9849 -0.450172 -4.82283e-20)
(1.03648 -0.329774 0)
(1.06426 -0.225295 4.30317e-20)
(1.07839 -0.171444 0)
(1.09633 -0.108084 5.70724e-21)
(0.0998514 0.384309 1.43074e-19)
(0.5292 -0.421541 3.47762e-19)
(0.786457 -0.805712 9.26719e-20)
(0.930474 -0.788257 0)
(1.0293 -0.65045 1.12817e-19)
(1.07279 -0.471175 1.14844e-19)
(1.09645 -0.340379 -2.61696e-21)
(1.10177 -0.230576 -5.49468e-22)
(1.10328 -0.174644 -1.06343e-20)
(1.10744 -0.1101 1.97176e-21)
(0.308011 0.376951 1.23129e-18)
(0.837453 -0.452622 -2.41591e-19)
(1.06938 -0.846403 -4.78828e-20)
(1.1339 -0.822336 3.3844e-19)
(1.15912 -0.671678 -1.99344e-19)
(1.15606 -0.483577 5.97879e-20)
(1.15216 -0.345416 1.15015e-19)
(1.13739 -0.231852 -9.75641e-20)
(1.12793 -0.174602 8.15956e-23)
(1.1186 -0.110257 -1.34008e-20)
(0.459726 0.356212 5.71575e-20)
(1.12132 -0.4763 -4.39918e-20)
(1.33269 -0.869715 -1.31472e-19)
(1.3255 -0.840613 -1.11769e-20)
(1.28398 -0.680105 -1.84497e-19)
(1.23464 -0.487524 -1.21842e-20)
(1.20268 -0.345227 -4.80357e-20)
(1.16933 -0.229698 9.90303e-22)
(1.15074 -0.171721 1.31861e-20)
(1.12913 -0.10868 -9.03343e-22)
(0.556541 0.304346 -6.37062e-19)
(1.38187 -0.497806 -8.26104e-20)
(1.57156 -0.8768 0)
(1.49951 -0.84438 9.91896e-20)
(1.40026 -0.677938 1.57504e-19)
(1.30877 -0.483997 -1.22033e-20)
(1.24879 -0.340208 -1.60154e-19)
(1.19727 -0.224562 4.11986e-20)
(1.17074 -0.166451 -6.70266e-22)
(1.13839 -0.105583 -7.07699e-21)
(0.674844 0.194603 7.16735e-19)
(1.62917 -0.522182 2.70834e-19)
(1.78258 -0.868094 7.33364e-20)
(1.65301 -0.834625 -6.38628e-20)
(1.50568 -0.666851 9.76763e-21)
(1.3783 -0.474233 -1.63639e-19)
(1.29183 -0.330989 5.59109e-20)
(1.22205 -0.216898 -2.62866e-22)
(1.18772 -0.159272 -2.10371e-22)
(1.14599 -0.101228 9.34793e-21)
(0.887651 0.0552329 -4.69938e-19)
(1.86375 -0.546129 3.19378e-19)
(1.96333 -0.846547 1.62723e-19)
(1.78509 -0.813994 -2.29009e-19)
(1.59927 -0.64815 -1.69939e-19)
(1.44261 -0.459019 -8.97979e-20)
(1.33251 -0.318012 -2.96059e-20)
(1.24488 -0.207051 0)
(1.20219 -0.150644 -1.92588e-20)
(1.15193 -0.095881 1.36721e-20)
(1.62434 -0.103214 -7.52714e-19)
(2.21555 -0.575966 -6.35195e-19)
(2.18246 -0.807883 3.89731e-21)
(1.94114 -0.77291 3.97484e-20)
(1.7082 -0.612029 4.07475e-20)
(1.51728 -0.42968 -6.88322e-20)
(1.38027 -0.293499 -4.96771e-20)
(1.27168 -0.189474 2.67649e-20)
(1.21791 -0.136759 -1.00574e-20)
(1.15791 -0.0879231 -6.95926e-21)
(2.29805 -0.194965 5.63235e-20)
(2.52618 -0.606081 -1.23055e-18)
(2.29429 -0.765061 -5.98048e-19)
(1.96751 -0.684131 1.54907e-20)
(1.71986 -0.511748 1.26873e-19)
(1.53419 -0.345353 1.598e-19)
(1.40116 -0.231489 1.19593e-19)
(1.28774 -0.149328 -1.39159e-20)
(1.2297 -0.11027 4.13561e-20)
(1.1619 -0.0741909 5.41318e-21)
(2.48529 -0.244323 2.10967e-20)
(2.47979 -0.528906 -2.38453e-21)
(2.25 -0.640744 4.4995e-20)
(2.00666 -0.583143 1.87677e-35)
(1.7973 -0.443511 -3.10299e-20)
(1.60357 -0.297537 -4.87357e-34)
(1.4508 -0.192726 1.34944e-20)
(1.31768 -0.119629 2.91456e-34)
(1.24796 -0.0869515 -1.00135e-21)
(1.16825 -0.0605935 1.78407e-21)
(2.46167 -0.249254 -1.44731e-34)
(2.4247 -0.463823 3.98759e-19)
(2.26044 -0.580176 2.12353e-19)
(2.03103 -0.523047 0)
(1.80115 -0.367464 -8.3173e-20)
(1.58967 -0.219742 -8.89207e-20)
(1.43451 -0.129037 -7.24732e-20)
(1.30607 -0.0757558 9.61981e-34)
(1.24282 -0.056158 -2.15158e-20)
(1.16506 -0.0437292 -2.53605e-21)
(2.4169 -0.252173 1.3516e-20)
(2.37779 -0.417532 1.71555e-21)
(2.23519 -0.503833 0)
(2.02165 -0.434917 0)
(1.80118 -0.285422 0)
(1.58839 -0.153158 0)
(1.42873 -0.0794324 4.32825e-21)
(1.29773 -0.042057 1.12816e-33)
(1.23531 -0.0314034 -1.62997e-21)
(1.15864 -0.0290038 -3.70826e-34)
(2.37481 -0.249814 6.79279e-20)
(2.3348 -0.37267 0)
(2.19435 -0.438474 0)
(1.95906 -0.361917 0)
(1.71889 -0.209735 0)
(1.50793 -0.0840054 0)
(1.36352 -0.024295 -9.34378e-21)
(1.25081 -0.00456977 3.29676e-20)
(1.20204 -0.00532143 -1.93749e-21)
(1.13709 -0.0139243 -5.25468e-22)
(2.32452 -0.239979 0)
(2.25585 -0.330757 1.12673e-19)
(2.05295 -0.361603 6.02938e-20)
(1.76735 -0.267793 0)
(1.51775 -0.123744 -5.66988e-20)
(1.33194 -0.0200708 -4.88713e-20)
(1.22601 0.0179882 -4.03494e-20)
(1.15138 0.0212257 -1.56458e-20)
(1.12744 0.0125281 1.12403e-20)
(1.08417 -0.00251215 -4.9896e-21)
(2.1744 -0.213388 -2.58267e-21)
(2.00886 -0.262799 -8.97234e-23)
(1.69335 -0.251844 -4.01599e-21)
(1.35754 -0.158684 -9.95338e-36)
(1.13301 -0.0462525 1.40558e-20)
(1.0165 0.0236691 -2.50922e-34)
(0.981107 0.0410294 -1.1118e-20)
(0.964594 0.0329167 -2.17413e-20)
(0.973736 0.0201737 -2.16916e-21)
(0.959425 0.00377639 4.17013e-21)
(1.67447 -0.155476 2.23164e-20)
(1.3779 -0.155234 -2.30921e-20)
(0.992237 -0.10938 -6.68241e-21)
(0.697707 -0.0449503 0)
(0.57486 0.00706282 5.17802e-21)
(0.567173 0.0343757 6.22049e-21)
(0.611092 0.0363711 -3.84975e-21)
(0.649961 0.025967 4.93626e-21)
(0.685709 0.0157137 -7.29876e-21)
(0.696456 0.00445957 -3.77628e-21)
(0.571479 -0.024593 0)
(0.347634 -0.0066167 0)
(0.167557 -6.21033e-05 0)
(0.0685088 0.000656447 0)
(0.0520336 0.00317401 0)
(0.0933591 0.00635669 0)
(0.152622 0.00621342 -1.11743e-20)
(0.200081 0.00406644 3.50604e-35)
(0.233404 0.00233879 -2.46578e-21)
(0.249872 0.00062391 -4.38041e-21)
(2.51001 0.220012 8.17087e-19)
(2.54761 0.149276 5.00034e-20)
(2.56444 0.0765934 -8.17893e-20)
(2.57995 0.0219647 -2.6176e-19)
(2.58697 -0.0446 -4.85393e-20)
(2.55307 -0.0730371 -7.42296e-20)
(2.55498 -0.14084 -2.37652e-19)
(2.3507 -0.120965 1.46619e-20)
(2.30237 -0.184918 0)
(1.65849 -0.0684228 1.33229e-20)
(2.43819 0.177675 2.61278e-19)
(2.43042 0.137059 -2.99738e-19)
(2.51599 0.0591923 -6.38079e-20)
(2.46668 0.0321235 -1.28542e-19)
(2.5813 -0.0472259 1.06099e-19)
(2.47312 -0.060537 1.83927e-19)
(2.62695 -0.139362 -2.34679e-19)
(2.43601 -0.150078 -4.58895e-21)
(2.58506 -0.209215 -2.65641e-20)
(2.28622 -0.227899 7.8539e-20)
(2.38576 0.144766 -1.18577e-19)
(2.34941 0.114503 2.68767e-19)
(2.45959 0.0468327 1.6463e-19)
(2.38894 0.0218 -2.76368e-19)
(2.5142 -0.0415796 -4.56462e-20)
(2.41756 -0.0685223 3.88782e-19)
(2.54479 -0.119567 7.00129e-20)
(2.44524 -0.159397 -7.65285e-20)
(2.53934 -0.186388 -4.38648e-20)
(2.4596 -0.243153 -4.92312e-20)
(2.32495 0.115482 -3.04985e-19)
(2.31084 0.0829081 -4.90034e-20)
(2.38824 0.0352324 2.71698e-20)
(2.358 0.00161759 -1.39361e-20)
(2.42894 -0.0390666 -2.33226e-19)
(2.39579 -0.0782294 -8.87862e-20)
(2.44918 -0.107118 2.22696e-19)
(2.43029 -0.154608 -1.25258e-20)
(2.45746 -0.170328 4.42749e-20)
(2.46005 -0.223838 1.89114e-20)
(2.26928 0.0859248 4.36805e-20)
(2.28513 0.052233 1.33523e-19)
(2.32738 0.0190464 -2.43986e-20)
(2.33543 -0.0166835 1.9534e-19)
(2.36586 -0.0449797 -5.62235e-20)
(2.3726 -0.083646 -2.42712e-19)
(2.38892 -0.10589 3.81652e-20)
(2.3999 -0.146831 -8.9259e-20)
(2.40432 -0.164436 6.36657e-21)
(2.42027 -0.206077 -9.48756e-21)
(2.22685 0.0537874 -1.68637e-19)
(2.2564 0.0235341 -7.54749e-20)
(2.28332 -0.0017706 -2.97071e-21)
(2.30643 -0.0333154 1.17232e-19)
(2.32341 -0.0563479 2.71762e-19)
(2.34221 -0.0890383 -7.18431e-20)
(2.35006 -0.109988 6.58461e-21)
(2.36643 -0.143191 -7.30685e-20)
(2.36729 -0.162907 -1.06895e-19)
(2.38257 -0.196167 -4.23971e-20)
(2.18053 0.0214631 -5.81441e-20)
(2.2119 -0.00314212 -1.29237e-19)
(2.23394 -0.023118 -1.47389e-19)
(2.25991 -0.0486808 -2.73506e-19)
(2.27398 -0.0678903 6.79721e-20)
(2.29591 -0.0946519 6.53866e-20)
(2.3025 -0.113527 6.1307e-21)
(2.32223 -0.141482 8.17506e-20)
(2.32167 -0.16017 -9.68906e-20)
(2.3417 -0.189221 -5.25792e-20)
(2.07263 -0.0072921 6.26315e-20)
(2.10045 -0.0251911 3.73466e-20)
(2.11403 -0.0395043 2.02315e-20)
(2.14 -0.0583984 -4.19751e-20)
(2.14602 -0.0724566 -4.01485e-20)
(2.17249 -0.0930042 -3.69309e-20)
(2.17047 -0.10739 -5.05623e-20)
(2.20015 -0.130099 9.40173e-20)
(2.18882 -0.145006 -4.51139e-20)
(2.22513 -0.169951 2.6971e-20)
(1.75033 -0.027914 -6.27939e-20)
(1.76093 -0.0374578 -7.15019e-21)
(1.75805 -0.0450753 1.17989e-19)
(1.77028 -0.0550548 -1.21413e-20)
(1.7606 -0.0625363 -3.37368e-20)
(1.77795 -0.0740363 7.05213e-20)
(1.75899 -0.082009 -5.1363e-20)
(1.78544 -0.0959649 3.71878e-20)
(1.75302 -0.104982 -7.95515e-21)
(1.7942 -0.121943 -6.06118e-20)
(0.875126 -0.0135423 5.0606e-20)
(0.858926 -0.013171 4.15934e-20)
(0.841013 -0.0128753 4.0964e-20)
(0.826139 -0.0129007 6.64562e-20)
(0.807625 -0.0133791 -3.39278e-20)
(0.795201 -0.0142175 -4.18025e-20)
(0.773369 -0.0156668 1.85871e-20)
(0.765417 -0.0178719 -2.80989e-21)
(0.731839 -0.0193058 4.23637e-21)
(0.739546 -0.0272525 -6.12647e-21)
(1.57791 0.963412 -8.69808e-20)
(1.56138 1.00964 2.72203e-20)
(1.56496 1.06371 -6.51533e-19)
(1.57374 1.12525 2.38874e-19)
(1.58041 1.19018 1.21944e-18)
(1.57635 1.25052 -1.49333e-19)
(1.5396 1.28387 -1.08162e-18)
(1.41958 1.23792 -1.76235e-21)
(1.12631 1.01574 -5.33152e-19)
(0.528974 0.48922 1.19673e-19)
(1.74369 0.933082 0)
(1.73209 0.977727 7.5343e-19)
(1.7319 1.02779 1.66777e-18)
(1.7402 1.08667 -1.02724e-18)
(1.75016 1.15004 -2.39733e-18)
(1.74949 1.20832 -1.56961e-19)
(1.7109 1.23795 -2.01184e-19)
(1.57614 1.18726 7.34871e-19)
(1.24498 0.965255 1.10517e-18)
(0.579189 0.457655 4.36104e-19)
(1.89735 0.891432 6.95785e-20)
(1.89466 0.935904 0)
(1.89567 0.983064 -6.8885e-20)
(1.90451 1.03746 1.04725e-18)
(1.9165 1.09608 5.69997e-20)
(1.91717 1.14906 -2.34003e-18)
(1.87418 1.17223 1.47943e-18)
(1.72167 1.11605 8.7519e-19)
(1.35105 0.897194 -9.47346e-19)
(0.620407 0.416821 -2.79298e-19)
(2.03197 0.842595 -1.91168e-19)
(2.03948 0.884912 -1.40326e-19)
(2.04599 0.928258 2.87041e-19)
(2.0578 0.976996 -3.55774e-19)
(2.07184 1.02893 -1.64555e-18)
(2.07217 1.07432 -1.27688e-18)
(2.0218 1.08929 1.34215e-18)
(1.84859 1.02572 8.89123e-19)
(1.43602 0.811551 0)
(0.647881 0.366982 0)
(2.15068 0.776477 -9.44947e-19)
(2.16668 0.81653 -1.72956e-18)
(2.17988 0.856483 -6.64744e-19)
(2.19579 0.900058 -3.45608e-20)
(2.2115 0.945465 0)
(2.20972 0.982517 1.39354e-19)
(2.14867 0.98693 1.60949e-19)
(1.94897 0.917709 2.00872e-19)
(1.4926 0.711762 -2.87929e-19)
(0.658049 0.309047 -7.20865e-20)
(2.25487 0.702307 1.12912e-18)
(2.27772 0.737851 -4.25562e-20)
(2.29682 0.773069 -1.3218e-18)
(2.31638 0.810496 0)
(2.3326 0.847473 0)
(2.3252 0.874791 0)
(2.24723 0.869881 1.5152e-18)
(2.01513 0.794838 -1.6723e-18)
(1.51594 0.59861 -1.05911e-18)
(0.647967 0.245719 1.57549e-20)
(2.34546 0.615267 -1.46942e-18)
(2.37317 0.646521 -3.08312e-18)
(2.39659 0.677182 -5.34573e-21)
(2.4181 0.708655 6.23089e-19)
(2.43175 0.737768 -3.83187e-20)
(2.41355 0.755037 1.31364e-18)
(2.31225 0.739949 -7.25537e-19)
(2.04264 0.659823 -1.92322e-18)
(1.50097 0.476945 1.08468e-19)
(0.616347 0.18108 8.35997e-20)
(2.42413 0.524859 -1.14633e-18)
(2.45358 0.550455 1.61488e-20)
(2.47844 0.575526 4.32082e-19)
(2.49897 0.600175 -4.17172e-19)
(2.50588 0.620658 6.47803e-19)
(2.47086 0.627348 1.72265e-18)
(2.33851 0.601932 -1.53508e-19)
(2.02524 0.518375 -1.01e-18)
(1.44347 0.353519 2.29696e-19)
(0.563524 0.119694 4.19128e-20)
(2.48806 0.429432 4.19174e-19)
(2.51772 0.450713 8.32319e-20)
(2.54149 0.470298 -4.30735e-19)
(2.55739 0.487917 -1.00762e-18)
(2.55202 0.4995 7.12699e-20)
(2.49221 0.495758 5.53992e-20)
(2.31972 0.46123 -1.24564e-18)
(1.95713 0.377305 5.29641e-19)
(1.34155 0.235704 1.52639e-19)
(0.491904 0.0660491 -6.37129e-20)
(2.53827 0.336854 7.79277e-19)
(2.56508 0.353082 -1.16044e-18)
(2.5846 0.366522 1.73432e-19)
(2.59097 0.376693 2.29106e-18)
(2.56582 0.379258 1.11419e-18)
(2.47125 0.365793 -2.40249e-18)
(2.24889 0.324374 -2.22293e-18)
(1.83371 0.244315 9.39698e-19)
(1.19629 0.131185 -3.65635e-20)
(0.40608 0.0239157 -9.43188e-20)
(0.541973 0.407705 -1.57868e-19)
(0.501461 0.421642 -1.60314e-19)
(0.455905 0.436486 6.9004e-20)
(0.405926 0.452392 -2.25932e-19)
(0.351196 0.469217 -1.73944e-20)
(0.290871 0.485495 2.09268e-19)
(0.223981 0.4952 3.08692e-20)
(0.15098 0.481091 7.74876e-21)
(0.0789064 0.405838 2.21946e-20)
(0.0162245 0.207149 1.24494e-20)
(0.587215 0.514185 1.27623e-19)
(0.547687 0.53474 1.61961e-19)
(0.503963 0.556788 4.79849e-20)
(0.456231 0.580487 -4.59624e-20)
(0.403836 0.605581 -2.09305e-19)
(0.34566 0.63007 -1.89147e-20)
(0.280011 0.646011 4.53715e-20)
(0.205439 0.63067 4.33025e-20)
(0.125159 0.534324 -1.29666e-19)
(0.0401221 0.273919 -4.49106e-20)
(0.650073 0.613073 -1.01657e-19)
(0.611827 0.639381 -8.7458e-20)
(0.57049 0.667665 9.16051e-20)
(0.525791 0.698404 6.11244e-20)
(0.476793 0.731455 -8.10971e-20)
(0.422049 0.76436 -1.39242e-20)
(0.358787 0.787178 -1.12277e-19)
(0.282662 0.771557 -8.8856e-20)
(0.19098 0.655507 -7.24467e-20)
(0.0741632 0.336468 9.12384e-23)
(0.730236 0.708287 2.57343e-20)
(0.693846 0.74097 -5.90796e-20)
(0.655823 0.775482 -7.63662e-20)
(0.614919 0.81253 -6.99651e-20)
(0.569776 0.852119 -6.57099e-20)
(0.518765 0.891473 -9.0641e-21)
(0.45806 0.918879 -2.96546e-19)
(0.379834 0.900971 6.67856e-20)
(0.273686 0.765144 -3.32717e-19)
(0.116869 0.392161 4.95239e-20)
(0.82318 0.787078 1.24111e-20)
(0.789373 0.824727 1.71307e-20)
(0.75598 0.864762 -5.07293e-20)
(0.720868 0.908235 -2.80381e-19)
(0.681878 0.954916 1.29776e-19)
(0.636572 1.00134 4.86995e-20)
(0.579495 1.03403 3.56065e-20)
(0.498571 1.0149 -1.94061e-19)
(0.374065 0.861495 4.00589e-19)
(0.168102 0.440258 2.90662e-19)
(0.932473 0.865022 -1.03601e-19)
(0.900218 0.907087 -1.97603e-19)
(0.870019 0.95036 1.02931e-20)
(0.839197 0.997343 1.02341e-19)
(0.805568 1.04839 3.8268e-19)
(0.76617 1.09934 2.84418e-19)
(0.713383 1.13454 6.74765e-19)
(0.629848 1.11154 2.76276e-19)
(0.485194 0.940364 1.48246e-19)
(0.22468 0.477922 2.09921e-19)
(1.04763 0.916463 -1.10523e-19)
(1.02162 0.96334 6.43366e-19)
(0.99935 1.01115 4.21107e-19)
(0.976197 1.06243 -5.44723e-19)
(0.949396 1.11778 -2.71996e-19)
(0.9159 1.17302 7.01173e-19)
(0.86649 1.21101 -1.08916e-19)
(0.778255 1.18541 -4.75879e-19)
(0.60903 0.999728 2.96602e-20)
(0.286363 0.504613 2.62622e-19)
(1.16941 0.969247 3.17722e-19)
(1.14338 1.01646 6.03393e-20)
(1.12585 1.06461 -7.99164e-19)
(1.1109 1.11776 1.77159e-19)
(1.0937 1.17559 6.15474e-19)
(1.06912 1.23252 -3.36549e-19)
(1.02499 1.26974 -1.06641e-19)
(0.932284 1.23829 -1.95198e-19)
(0.736914 1.03818 1.97502e-20)
(0.349198 0.519038 -3.04763e-19)
(1.30104 0.986433 1.85779e-20)
(1.28567 1.03738 -5.85809e-19)
(1.27541 1.0864 -4.95318e-21)
(1.26592 1.14057 5.00768e-19)
(1.25451 1.20085 -5.20516e-19)
(1.2359 1.26061 1.01698e-18)
(1.19474 1.29866 6.82147e-19)
(1.09475 1.26332 -1.00439e-18)
(0.869204 1.05303 -7.99088e-20)
(0.412242 0.520819 -3.37493e-19)
(1.40384 0.995782 -3.54972e-19)
(1.40046 1.04778 -3.33601e-19)
(1.40802 1.0986 3.09006e-19)
(1.41363 1.15346 8.20603e-19)
(1.41385 1.21304 2.93142e-19)
(1.40387 1.27109 -8.42791e-19)
(1.36619 1.30575 1.10523e-19)
(1.25775 1.2642 2.2823e-19)
(0.999823 1.04572 -3.07027e-19)
(0.472718 0.510725 -2.39236e-19)
(0.994438 0.0128592 6.71523e-22)
(1.01143 0.0420105 -1.82357e-20)
(1.02337 0.0517306 -1.43714e-20)
(1.02288 0.0768954 0)
(1.02455 0.093976 1.73705e-20)
(1.02118 0.124641 2.50867e-20)
(0.998265 0.168244 3.38568e-20)
(0.955222 0.205091 7.56653e-20)
(0.870387 0.269945 -1.15525e-19)
(0.718632 0.338142 -1.7314e-19)
(0.995113 0.0109516 3.77182e-20)
(1.00943 0.0397117 -5.8973e-20)
(1.02291 0.0500779 1.99976e-22)
(1.02094 0.0762619 -1.80836e-20)
(1.02483 0.094373 8.72875e-21)
(1.02229 0.12906 -1.28622e-20)
(1.00205 0.177582 -7.87973e-20)
(0.966391 0.224422 0)
(0.884491 0.307264 2.4034e-19)
(0.756854 0.407939 -2.61088e-19)
(0.995453 0.00927222 -2.73338e-20)
(1.00829 0.037629 1.63264e-20)
(1.02246 0.048271 3.80471e-20)
(1.02083 0.0760251 9.54082e-21)
(1.02545 0.0942604 -2.11534e-20)
(1.02624 0.13404 1.12756e-21)
(1.0065 0.18599 -5.49471e-20)
(0.98217 0.24366 -6.0675e-21)
(0.901427 0.342864 9.92193e-23)
(0.809229 0.474863 7.23257e-19)
(0.995511 0.00773637 -3.05636e-20)
(1.00784 0.0357656 2.29885e-21)
(1.02217 0.046174 3.11001e-20)
(1.02229 0.0762217 2.03395e-20)
(1.02658 0.0934864 -1.06306e-20)
(1.03271 0.13973 -1.5145e-20)
(1.01178 0.193179 7.9836e-20)
(1.00241 0.263379 -1.81917e-21)
(0.920838 0.375559 -2.65835e-19)
(0.875565 0.537534 9.06203e-20)
(0.99536 0.00627674 2.12488e-20)
(1.00787 0.0340817 -3.03823e-20)
(1.02229 0.0437096 -2.49074e-20)
(1.02495 0.0768303 1.21083e-20)
(1.02857 0.0919886 0)
(1.0411 0.146103 0)
(1.01866 0.199052 6.74903e-20)
(1.02559 0.283578 4.8358e-22)
(0.945284 0.405203 -1.21526e-19)
(0.951674 0.594077 9.25555e-20)
(0.995076 0.00484218 5.97732e-21)
(1.00817 0.0324872 2.44665e-20)
(1.02311 0.0408556 -6.78288e-20)
(1.02839 0.0777401 -2.34672e-20)
(1.03178 0.0897936 -5.75747e-22)
(1.05097 0.153106 6.42826e-20)
(1.0273 0.203397 1.04101e-19)
(1.05229 0.304838 -6.55406e-22)
(0.971286 0.429563 2.01666e-19)
(1.04466 0.650718 -2.18196e-19)
(0.994711 0.00341782 -2.30405e-20)
(1.00857 0.0308482 1.29525e-20)
(1.02491 0.0376469 -1.85762e-20)
(1.03222 0.0787568 -5.01769e-20)
(1.03667 0.0870327 1.82221e-21)
(1.06155 0.160495 -1.57724e-21)
(1.0391 0.206473 -5.71878e-21)
(1.07928 0.32635 -2.21654e-19)
(1.00801 0.449642 1.48326e-19)
(1.13126 0.691009 -5.4092e-19)
(0.994284 0.00200067 -3.90105e-21)
(1.00904 0.0290071 -3.74356e-20)
(1.02782 0.0341561 3.75772e-20)
(1.03616 0.0796724 2.67605e-20)
(1.04352 0.0838839 9.4806e-22)
(1.07257 0.167859 -7.47345e-20)
(1.05388 0.208691 -5.81229e-20)
(1.10882 0.348238 3.95897e-19)
(1.04391 0.466717 1.49748e-20)
(1.24916 0.748921 8.48388e-19)
(0.993789 0.000601794 1.5827e-20)
(1.00959 0.0268144 1.70861e-20)
(1.03185 0.0304883 4.39669e-20)
(1.04017 0.0803616 -2.95198e-20)
(1.05235 0.0804227 -7.76502e-20)
(1.08359 0.1753 1.12935e-21)
(1.0728 0.208162 -8.0086e-20)
(1.13809 0.368099 5.13059e-19)
(1.10031 0.466144 -9.13281e-21)
(1.31879 0.76516 -1.1778e-18)
(0.993236 -0.000710832 3.69569e-22)
(1.01033 0.0241668 2.67515e-20)
(1.0368 0.0269952 1.45169e-20)
(1.04456 0.0804005 -5.93008e-20)
(1.06195 0.0787563 -7.59724e-20)
(1.09403 0.182717 -6.32654e-20)
(1.09261 0.215639 -1.47195e-19)
(1.16363 0.390766 -4.61784e-19)
(1.15883 0.493359 -2.49594e-19)
(1.45761 0.834227 -1.23494e-18)
(0.992671 -0.00293628 -1.15482e-21)
(1.01081 0.020107 -5.90028e-21)
(1.04418 0.0200241 -1.65084e-20)
(1.05094 0.0794023 3.2912e-20)
(1.07417 0.068777 5.73917e-20)
(1.11442 0.186632 -4.14777e-20)
(1.11406 0.198887 1.41575e-19)
(1.20946 0.39962 -4.26529e-19)
(1.22139 0.431176 -1.90905e-19)
(1.47221 0.824754 6.48914e-19)
(0.992671 -0.00631685 1.57093e-21)
(1.01104 0.013693 1.16773e-20)
(1.05575 0.00875772 -1.12597e-20)
(1.05555 0.0760639 6.05584e-20)
(1.09478 0.0507007 9.82004e-20)
(1.13263 0.183271 1.22282e-19)
(1.15168 0.172104 3.22022e-20)
(1.23691 0.383803 2.01794e-19)
(1.32135 0.3786 3.10764e-19)
(1.49366 0.722801 2.7623e-20)
(0.992003 -0.00978772 -1.51471e-21)
(1.01358 0.00498891 -3.9961e-21)
(1.06867 -0.00214422 3.81309e-21)
(1.05884 0.0699789 4.41835e-21)
(1.12275 0.0321785 2.99476e-34)
(1.14274 0.175773 -7.16785e-21)
(1.19552 0.145884 -5.18132e-34)
(1.25386 0.355664 1.90186e-20)
(1.39537 0.321778 -5.71957e-20)
(1.53218 0.631387 -5.74277e-20)
(0.989497 -0.0141468 1.43957e-20)
(1.02133 -0.00626318 -4.5195e-35)
(1.0783 -0.0123259 -4.33941e-21)
(1.06881 0.0589679 -2.59116e-20)
(1.14931 0.0156526 -4.912e-20)
(1.15324 0.164842 -4.10487e-20)
(1.23039 0.120561 -6.58418e-34)
(1.27679 0.322865 -7.76028e-20)
(1.43162 0.266176 -1.43772e-19)
(1.57274 0.538091 9.65045e-20)
(0.984922 -0.0201511 0)
(1.03538 -0.0194108 3.26646e-35)
(1.08283 -0.0222857 0)
(1.09208 0.0416551 0)
(1.16769 0.0021359 0)
(1.1723 0.14808 0)
(1.25203 0.0980247 -4.56112e-34)
(1.30687 0.282803 0)
(1.44853 0.217232 -2.03019e-20)
(1.60765 0.440143 5.71849e-20)
(0.978614 -0.0280914 2.74449e-21)
(1.05472 -0.0326648 3.15555e-21)
(1.08561 -0.0323678 -5.4103e-21)
(1.12616 0.0217536 0)
(1.17781 -0.00548306 0)
(1.19734 0.127135 6.21853e-21)
(1.26807 0.0796661 4.18999e-20)
(1.33695 0.236801 -1.36207e-20)
(1.46658 0.173576 -2.96409e-20)
(1.62687 0.34792 2.20781e-19)
(0.971796 -0.0427685 -7.98887e-20)
(1.07866 -0.0521378 1.22644e-21)
(1.08972 -0.0492183 -6.01729e-21)
(1.15959 -0.00532282 -1.61219e-20)
(1.17106 -0.012281 -2.97154e-20)
(1.21371 0.0992326 -1.18874e-20)
(1.2725 0.0620107 -3.4646e-20)
(1.35679 0.186499 -3.10721e-20)
(1.47703 0.134382 -5.55697e-20)
(1.63162 0.264077 6.70764e-20)
(0.966523 -0.0501094 -5.92103e-21)
(1.09963 -0.0600222 -1.82319e-20)
(1.07821 -0.0546499 -6.64009e-21)
(1.15421 -0.0203525 -5.1411e-21)
(1.10562 -0.00923884 -4.93292e-35)
(1.19034 0.070313 6.48181e-21)
(1.2168 0.0459773 -8.65321e-34)
(1.34172 0.134535 -1.32047e-20)
(1.43593 0.0976554 1.84025e-20)
(1.61958 0.184159 2.61787e-20)
(0.960682 -0.091469 1.96261e-19)
(1.05707 -0.0898016 -4.84542e-21)
(0.966136 -0.0736662 -7.15034e-21)
(0.990857 -0.0341391 1.39833e-20)
(0.887626 -0.00783563 1.64859e-20)
(1.01528 0.0368353 1.40696e-20)
(0.99644 0.0294892 1.4903e-20)
(1.18297 0.0794333 -8.89092e-21)
(1.23997 0.0612398 -2.07055e-20)
(1.48634 0.104121 1.4341e-19)
(0.828466 -0.0461756 8.39856e-21)
(0.731584 -0.0339732 -9.41207e-35)
(0.53537 -0.0179517 -8.31796e-21)
(0.475909 -0.00245965 0)
(0.40773 0.000760202 0)
(0.491154 0.00944186 6.3903e-21)
(0.489918 0.00546152 -5.5113e-36)
(0.631431 0.017559 -1.27493e-20)
(0.69128 0.00997994 -2.69019e-20)
(0.878693 0.018055 5.65158e-20)
(1.68154 0.847019 -1.95679e-19)
(1.78258 0.828441 -2.88036e-19)
(1.90068 0.792096 0)
(2.00901 0.748673 1.603e-19)
(2.11112 0.686496 6.79663e-19)
(2.20095 0.621448 -1.1911e-19)
(2.28245 0.542598 1.74464e-18)
(2.3563 0.465554 -8.56992e-20)
(2.4166 0.380318 -3.81594e-19)
(2.47331 0.301244 3.37247e-19)
(1.70656 0.695195 1.01064e-19)
(1.7809 0.680047 1.14642e-19)
(1.88042 0.643885 -1.46024e-20)
(1.96388 0.606072 2.23335e-19)
(2.06137 0.547466 -1.82423e-19)
(2.12595 0.49846 -4.23648e-19)
(2.21298 0.42915 -1.28803e-19)
(2.25829 0.377719 5.78628e-19)
(2.33856 0.30337 -2.24304e-20)
(2.36139 0.2545 -4.9469e-19)
(1.73811 0.579129 9.82311e-20)
(1.80539 0.5578 1.85119e-19)