/*--------------------------------*- C++ -*----------------------------------*\
  =========                 |
  \\      /  F ield         | OpenFOAM: The Open Source CFD Toolbox
   \\    /   O peration     | Website:  https://openfoam.org
    \\  /    A nd           | Version:  13
     \\/     M anipulation  |
\*---------------------------------------------------------------------------*/
FoamFile
{
    format      ascii;
    class       volScalarField;
    location    "40";
    object      p;
}
// * * * * * * * * * * * * * * * * * * * * * * * * * * * * * * * * * * * * * //

dimensions      [0 2 -2 0 0 0 0];

internalField   nonuniform List<scalar> 
440
(
-0.567085
-0.552315
-0.559933
-0.514095
-0.571652
-0.610217
-0.59318
-0.572663
-0.545954
-0.526349
-0.712196
-0.680817
-0.644144
-0.598582
-0.546665
-0.839312
-0.792348
-0.710767
-0.612793
-0.51388
-0.931459
-0.869051
-0.728617
-0.582004
-0.446336
-1.16267
-1.17959
-1.21667
-1.27505
-1.35053
-0.992833
-1.0129
-1.05824
-1.1307
-1.21611
-0.794594
-0.788963
-0.779526
-0.761099
-0.737075
-0.626926
-0.620412
-0.604792
-0.573617
-0.526398
-0.505194
-0.500721
-0.483367
-0.434837
-0.381986
-1.3774
-1.45967
-0.985432
0.442663
-0.000298133
-0.995358
-1.25647
-0.886429
0.324646
0.00435864
-0.708462
-1.06774
-0.734921
0.147499
-0.0104716
-0.516563
-1.12093
-0.621299
0.0322641
-0.0853675
-0.371817
-1.21042
-0.538186
-0.00683125
-0.0519973
-0.145336
-1.14206
-0.420142
-0.0584818
-0.0372527
-0.0279487
-0.814105
-0.264496
-0.0751815
-0.0619439
0.0421947
-0.539824
-0.20739
-0.05343
-0.0270286
0.0955981
-0.350103
-0.190579
-0.0729863
-0.0490278
0.178275
-0.227903
-0.215809
-0.0779643
-0.0368694
-0.209812
-0.328682
-0.44944
-0.58859
-0.648437
0.0267022
-0.090694
-0.150642
-0.188584
-0.17582
0.178812
0.0878204
0.0304305
-0.0024342
-0.0220601
0.275406
0.190934
0.124793
0.0909375
0.0654549
0.320721
0.234233
0.168422
0.138581
0.126199
1.02633
0.881181
0.698557
0.496731
0.275741
0.638204
0.483051
0.293371
0.079664
-0.155881
0.252038
0.0936729
-0.103016
-0.326023
-0.537238
-0.0763622
-0.238778
-0.435164
-0.646725
-0.809261
-0.306716
-0.463451
-0.64283
-0.829422
-0.934221
2.12845
2.1604
2.19055
2.20742
2.20674
1.94842
1.97074
1.98863
1.99001
1.97035
1.73318
1.72294
1.69106
1.63761
1.5594
1.48895
1.45621
1.38913
1.29217
1.16791
1.25948
1.16187
1.03389
0.885509
0.707274
1.87871
1.87409
1.85026
1.92277
2.00656
1.86995
1.86373
1.83328
1.9056
1.9256
1.86228
1.85023
1.81326
1.87683
1.82107
1.85588
1.83419
1.79171
1.83209
1.66339
1.85075
1.81751
1.76927
1.78773
1.49503
1.8473
1.79209
1.74042
1.68239
1.30073
1.84798
1.76319
1.73703
1.56943
1.3794
1.85275
1.75094
1.73675
1.50895
1.40685
1.85268
1.72363
1.73445
1.44896
1.41335
1.88893
1.7194
1.7338
1.41433
1.4372
1.00557
0.726673
0.403701
0.130391
-0.0661975
0.922874
0.727018
0.512512
0.322067
0.152771
0.917539
0.749632
0.588566
0.434267
0.297057
0.95951
0.800018
0.652959
0.513589
0.390433
1.00403
0.845347
0.699058
0.560877
0.436046
-1.74789
-1.56785
-1.3672
-1.19927
-1.09596
-1.85244
-1.7593
-1.58674
-1.42901
-1.31642
-1.79452
-1.73344
-1.60285
-1.46691
-1.34389
-1.65187
-1.60198
-1.52456
-1.42504
-1.31478
-1.49795
-1.47464
-1.43412
-1.36998
-1.27539
-1.40241
-1.39675
-1.37291
-1.37829
-1.27298
-1.33414
-1.33616
-1.32488
-1.35145
-1.27214
-1.24692
-1.24326
-1.23688
-1.24661
-1.21635
-1.17756
-1.15956
-1.13747
-1.11815
-1.10229
-1.17818
-1.17034
-1.16571
-1.16999
-1.18411
-0.78379
-0.934568
0.0894432
0.392646
0.0478276
-0.822561
-0.958519
0.0878898
0.464231
0.0447752
-0.929136
-1.14725
-0.35865
0.519381
0.0214618
-1.2159
-1.56799
-0.839329
0.533719
0.0095843
-1.47853
-1.70143
-0.972012
0.509168
0.0040161
-0.48011
-1.06185
0.000491557
0.306099
0.0541227
-0.733168
-0.957735
0.0804162
0.350889
0.0586413
-1.03611
-1.23228
-1.2379
-1.12145
-0.892392
-1.05805
-1.2538
-1.25543
-1.16848
-1.05943
1.69733
1.66903
1.62231
1.55795
1.47253
1.90632
1.92393
1.92545
1.90877
1.87422
2.08407
2.11554
2.13933
2.15032
2.14642
2.19057
2.22965
2.27074
2.30362
2.31799
2.20387
2.24146
2.28324
2.31803
2.33413
-0.608394
-0.729035
-0.916926
-1.14068
-1.40992
0.0309601
-0.11642
-0.312661
-0.550177
-0.855989
0.619484
0.467478
0.284539
0.0681594
-0.205976
1.09239
0.973442
0.829393
0.654508
0.440427
1.47148
1.38767
1.27885
1.14841
0.993746
1.93713
1.8983
1.87711
1.87677
1.87107
1.92243
1.89649
1.87803
1.89804
1.94534
1.91009
1.89346
1.87827
1.92177
2.02956
1.89872
1.88901
1.87313
1.93201
2.04625
1.88824
1.88299
1.86347
1.93254
2.04499
1.99209
1.90269
1.86204
1.79569
1.72772
1.94703
1.89402
1.858
1.81914
1.74444
1.34897
1.1036
0.685174
0.082561
-0.569382
1.43545
1.1392
0.70267
0.103609
-0.563097
)
;

boundaryField
{
    left
    {
        type            zeroGradient;
    }
    right
    {
        type            fixedValue;
        value           uniform 0;
    }
    down
    {
        type            zeroGradient;
    }
    up
    {
        type            zeroGradient;
    }
    cylinder
    {
        type            zeroGradient;
    }
    defaultFaces
    {
        type            empty;
    }
}


// ************************************************************************* //
