/*--------------------------------*- C++ -*----------------------------------*\
  =========                 |
  \\      /  F ield         | OpenFOAM: The Open Source CFD Toolbox
   \\    /   O peration     | Website:  https://openfoam.org
    \\  /    A nd           | Version:  13
     \\/     M anipulation  |
\*---------------------------------------------------------------------------*/
FoamFile
{
    format      ascii;
    class       surfaceScalarField;
    location    "40";
    object      phi;
}
// * * * * * * * * * * * * * * * * * * * * * * * * * * * * * * * * * * * * * //

dimensions      [0 3 -1 0 0 0 0];

internalField   nonuniform List<scalar> 
823
(
-0.00464164
0.0168457
-0.012204
0.00699311
0.0103983
-0.022033
0.0596561
-0.0336105
-0.0190525
0.150449
-0.0929404
0.00214793
-0.123289
-0.00844531
0.282183
0.00583373
0.0110119
0.0527895
-0.0365575
0.143705
-0.124526
0.25579
-0.205025
-0.276052
0.408553
0.0232035
-0.0121916
0.109142
-0.122496
0.220811
-0.236195
0.328557
-0.312772
-0.357189
0.409695
0.0440285
-0.0562201
0.139967
-0.218434
0.223533
-0.319761
0.27463
-0.363868
-0.37807
0.295511
0.0566976
-0.112918
0.126707
-0.288444
0.166497
-0.359552
0.182169
-0.379539
0.190907
-0.386809
0.00842122
-0.0432619
0.0348407
0.0127422
-0.0564739
0.0521529
0.0254807
-0.0560117
0.0432732
0.0523846
-0.0467178
0.0198139
-0.0229766
0.0909316
-0.0155704
-0.0110158
-0.0322462
-0.0348695
-0.0326202
-0.061005
-0.0298762
-0.0787552
-0.0289675
-0.0169081
-0.0848237
-0.00650135
-0.0257448
-0.0195008
-0.0196208
-0.0434545
-0.00592251
-0.0736755
0.00125349
0.0102556
-0.100839
-0.0140591
-0.0116857
-0.0309513
-0.0027285
-0.0468974
0.0100235
-0.0616454
0.0160015
0.0229672
-0.074357
-0.0238898
-0.0486513
-0.0576802
-0.0395308
-0.0250088
0.379508
1.58971
-1.87828
0.414973
0.221162
-0.256628
0.430608
-1.86181
1.84617
0.515187
-0.831609
0.74703
-0.0527079
0.037669
0.316057
1.18883
0.590323
-0.0531037
0.593998
-1.86548
0.547672
-0.785283
-0.0381861
0.238316
0.849671
0.638481
-0.453269
0.620312
-1.84731
0.572403
-0.737375
-0.00145068
0.24595
0.529364
0.60462
-0.811939
0.540369
-1.78306
0.513182
-0.710187
0.00974553
0.295289
0.209066
0.589121
-1.10577
0.518286
-1.71223
0.45179
-0.643691
0.00415611
1.21572
0.101182
-1.10783
1.34929
-1.23935
1.00365
-1.36658
0.757001
-0.39704
0.0277358
1.50435
-0.0253687
-1.3778
1.3288
-1.0638
0.776028
-0.813813
0.583335
-0.204346
-0.0615574
1.44459
-0.130797
-1.33916
1.1653
-0.784514
0.770615
-0.419125
0.678556
-0.112288
-0.117702
1.34527
-0.184845
-1.29123
0.930152
-0.369392
0.646247
-0.135221
0.622059
-0.0881004
-0.075356
0.709138
-0.893983
0.339746
0.204525
0.116425
1.08849
0.146085
-1.04367
1.15042
0.23358
1.25514
0.304973
1.25699
0.406708
0.431338
1.01303
0.0830783
-0.950023
1.07903
0.167577
1.17764
0.206366
1.27486
0.30949
0.328398
0.946084
0.0433873
-0.906393
1.01082
0.102837
1.09276
0.124427
1.21326
0.18899
0.202503
0.898863
0.0127387
-0.868215
0.965491
0.0362096
1.0437
0.0462144
1.16441
0.0682785
0.0756915
0.667589
-0.654851
0.703799
0.750013
0.818292
0.124478
0.295175
-0.244456
-0.175197
0.081731
0.300282
-0.257535
0.0441609
0.310243
-0.272673
0.0138482
0.29985
-0.269537
0.190813
-0.176964
0.0925506
0.331259
-0.128635
0.0579071
0.334926
0.02801
0.34014
0.00506644
0.322793
0.195879
0.0560644
0.362766
-0.0875717
0.0270675
0.363922
0.00316146
0.364046
-0.00770983
0.333664
0.188169
-0.015501
0.37947
-0.00120299
-0.0311595
0.379581
-0.0375171
0.370404
-0.0276301
0.323777
0.160539
-0.0938484
0.0865098
-0.0938068
-0.0829547
-0.0476215
0.203734
0.0994092
-0.257498
-0.0456453
0.149209
0.103158
-0.0486329
0.0931373
0.107386
-0.0513139
0.038148
0.106844
-0.0518548
0.0750874
-0.0369394
0.200064
0.14442
-0.245076
0.15218
0.151043
0.0990291
0.160536
0.0423068
0.163566
0.117394
0.141355
0.189559
-0.186494
0.099493
0.192904
0.0590775
0.200952
0.0214687
0.201175
0.138863
0.153537
0.222734
-0.186712
0.113851
0.23259
0.0696797
0.245123
0.026858
0.243997
0.165721
0.0892777
-0.110999
0.0643328
0.0367835
0.0112436
0.405861
0.0483711
-0.0582529
0.42852
0.00624584
-0.0289045
0.411442
0.198315
-0.181236
0.397838
0.166892
-0.153288
0.434683
-0.294343
0.40481
0.0395411
0.42222
-0.0111649
0.399439
0.221096
0.387743
0.178588
0.57735
0.399704
0.0358167
0.415728
-0.0271888
0.377166
0.259658
0.373231
0.182523
0.764088
0.398621
0.0331754
0.398943
-0.0275112
0.363518
0.295084
0.351842
0.194198
0.929218
0.391957
0.0371975
0.383316
-0.0188699
0.334199
0.344201
0.324483
0.203914
1.1427
0.631216
0.0100018
0.63441
-0.0220637
0.680138
0.298473
0.787285
0.096767
0.956599
0.973388
0.646087
-0.0320649
0.615223
0.00880034
0.701841
0.211855
0.761353
0.0372546
0.74253
0.975422
0.63869
-0.0667348
0.622027
0.0254637
0.719482
0.1144
0.776012
-0.0192758
0.51809
1.00045
0.608348
-0.0710624
0.643315
-0.00950324
0.747356
0.0103593
0.750412
-0.0223324
0.262302
1.0062
0.532958
0.523455
0.533814
0.511482
0.773784
1.00415
-0.205957
0.99972
-0.124208
1.00468
-0.0925295
1.01126
-0.00778455
0.0541013
0.940048
-0.170582
0.928247
-0.112407
0.913551
-0.0778332
0.930075
-0.0243083
0.0341533
0.939063
-0.109193
0.910115
-0.0834585
0.887579
-0.055297
0.888877
-0.0256061
0.0166365
0.938576
-0.0415694
0.891513
-0.0363953
0.862306
-0.0260896
0.853116
-0.0164166
0.00153792
0.732214
0.695819
0.669729
0.653313
0.0488933
0.178
-0.226894
0.0700298
0.365987
-0.387124
0.0684529
0.415482
-0.413905
0.059378
0.412924
-0.403849
0.378084
0.0472366
-0.365942
0.0765907
0.10141
0.14263
0.299948
0.170927
0.387185
0.174875
0.408977
0.390175
0.162783
0.0695585
0.0318511
0.180102
0.189405
0.257642
0.309644
0.296219
0.3704
0.398292
0.288102
0.0374575
-0.00560645
0.149519
0.077343
0.268672
0.190491
0.370597
0.268475
0.344236
0.424653
0.0116935
-0.0172999
0.0790382
0.00999833
0.188192
0.0813379
0.307436
0.149231
0.244523
0.407149
0.00248829
-0.0197882
0.0298342
-0.0173476
0.0964199
0.0147522
0.186679
0.0589719
0.146571
0.28463
0.000539401
-0.0203276
0.00761164
-0.0244198
0.0291178
-0.00675394
0.0648924
0.0231973
0.0780898
0.133374
-0.00312256
-0.0172051
-0.00460299
-0.0229394
-0.00516398
-0.00619294
-0.00468352
0.0227169
0.0630767
0.0103295
0.00350604
-0.0207111
0.0127537
-0.0321871
0.0241463
-0.0175855
0.0320979
0.0147653
0.0591941
0.0359805
0.0141296
0.0340954
0.0597831
0.0943623
0.137986
0.15899
1.20274
-1.0771
0.0730369
0.425184
-0.339231
0.279423
-0.35692
0.150534
0.335065
-0.176447
0.120804
-0.0147649
0.0432218
-0.0417782
1.37789
-0.131072
0.514478
0.316256
-0.804248
0.428044
-0.288235
0.0119739
-0.322313
1.71053
-0.280212
0.472376
0.310854
-1.39531
0.467932
-0.445312
0.0113568
-0.20675
1.95326
-0.0710722
0.336698
0.29174
-1.75813
0.467587
-0.621159
-0.0179045
0.212966
0.293036
0.381081
0.506952
-0.149747
0.6112
-0.461453
-0.15939
0.00964312
-0.0163453
-0.143045
0.113515
-0.129861
-0.0620771
0.654449
-1.12035
0.324861
0.33235
0.323294
0.0901367
-0.0102985
-0.0798382
0.141919
-0.0517819
0.219046
-0.0771278
0.345877
-0.12683
-0.115576
0.208975
-0.172037
0.319976
0.530951
0.828773
0.146646
-0.150267
0.181046
-0.177425
0.112438
-0.156865
0.191073
0.0730971
-0.165496
0.204836
0.0301097
-0.16665
0.209638
-0.118768
0.148878
0.189834
-0.10954
-0.230562
0.143972
-0.111003
0.0920338
-0.113557
0.0383027
-0.112919
-0.0804656
0.192206
-0.058728
-0.243017
0.140277
-0.0590744
0.0873896
-0.0606702
0.0357452
-0.0612745
-0.0447204
0.205089
-0.00623833
-0.257578
0.151896
-0.00588148
0.0969816
-0.00575597
0.0410443
-0.00533716
-0.00367611
0.209392
-0.261275
0.154877
0.0978074
0.0406155
0.0500676
-0.344715
-0.0712951
0.021769
-0.37555
-0.00323083
-0.388906
-0.0151057
-0.375249
-0.241999
0.132682
-0.310998
-0.166398
0.0887869
-0.331656
0.0445743
-0.344693
0.0101512
-0.340826
-0.231848
0.154249
-0.26823
-0.197018
0.10838
-0.285786
0.0636433
-0.299957
0.0230545
-0.300237
-0.208794
0.17252
-0.230369
-0.21038
0.1274
-0.240667
0.0789663
-0.251523
0.0318692
-0.25314
-0.176924
0.167829
-0.217152
0.118235
0.0715486
0.0280464
0.392345
0.0942142
-0.0905799
0.394154
0.0877931
-0.0896015
0.36046
0.152184
-0.11849
0.309344
0.0330424
0.0180729
-0.242695
0.374615
0.399566
0.090628
0.40909
0.0782692
0.397729
0.163545
0.355141
0.0756302
-0.118116
0.404333
0.0822743
0.418352
0.0642509
0.411553
0.170343
0.378248
0.108936
0.017115
0.407671
0.0705832
0.424086
0.0478355
0.420564
0.173866
0.395846
0.133653
0.155383
0.40831
0.427241
0.41987
0.400235
0.417263
0.0927882
0.336121
0.0811421
0.252054
0.0840667
0.267068
-0.015014
-0.203223
0.470291
0.512259
0.5038
0.469377
0.472435
0.643826
0.377647
0.092644
0.295066
0.0825814
0.197967
0.0970992
0.115234
0.0827333
0.0353954
0.519318
0.39152
0.291601
0.207937
)
;

boundaryField
{
    left
    {
        type            calculated;
        value           nonuniform List<scalar> 
17
(
-0.60402
-0.60402
-0.60402
-0.60402
-0.60402
-0.39598
-0.39598
-0.39598
-0.39598
-0.39598
-0.39598
-0.39598
-0.39598
-0.39598
-0.39598
-0.510051
-0.510051
)
;
    }
    right
    {
        type            calculated;
        value           nonuniform List<scalar> 
17
(
0.175592
0.304439
0.306608
0.401306
0.468549
0.496849
0.526717
0.530225
0.53315
0.535668
0.501985
0.45738
0.733421
0.672628
0.7347
0.579714
0.0410688
)
;
    }
    down
    {
        type            calculated;
        value           uniform 0;
    }
    up
    {
        type            calculated;
        value           uniform 0;
    }
    cylinder
    {
        type            calculated;
        value           uniform 0;
    }
    defaultFaces
    {
        type            empty;
    }
}


// ************************************************************************* //
