/*--------------------------------*- C++ -*----------------------------------*\
  =========                 |
  \\      /  F ield         | OpenFOAM: The Open Source CFD Toolbox
   \\    /   O peration     | Website:  https://openfoam.org
    \\  /    A nd           | Version:  13
     \\/     M anipulation  |
\*---------------------------------------------------------------------------*/
FoamFile
{
    format      ascii;
    class       volVectorField;
    location    "40";
    object      U;
}
// * * * * * * * * * * * * * * * * * * * * * * * * * * * * * * * * * * * * * //

dimensions      [0 1 -1 0 0 0 0];

internalField   nonuniform List<vector> 
440
(
(-0.0958821 0.0702421 -5.8686e-20)
(-0.127057 0.0916012 -9.33688e-21)
(0.000921779 0.0554212 1.12021e-19)
(0.378668 0.0750316 3.21573e-20)
(0.365105 0.188196 2.10577e-20)
(-0.0913766 0.0523945 3.0372e-20)
(0.0402212 0.0246742 -1.13232e-19)
(0.513356 -0.0249739 -1.03863e-19)
(1.05174 -0.0517453 5.2404e-20)
(1.55515 -0.0726877 8.88841e-21)
(-0.0241274 0.00915892 4.72702e-20)
(0.477632 -0.0349929 6.79209e-19)
(1.2354 -0.0265265 -4.05057e-19)
(1.8266 -0.00538083 -1.3148e-18)
(2.31921 0.0174053 5.5535e-19)
(0.184465 -0.0418457 -1.66685e-19)
(1.15134 0.00453767 -5.06124e-19)
(1.91396 0.06966 1.61799e-18)
(2.33461 0.110334 1.77408e-18)
(2.41984 0.119248 -4.99657e-19)
(0.536499 -0.00577647 -2.7829e-19)
(1.68174 0.175307 -5.86254e-19)
(2.2195 0.251985 1.78201e-18)
(2.35913 0.263445 1.9356e-18)
(2.44363 0.242351 6.62778e-19)
(0.0398092 -0.276391 -5.67566e-20)
(0.0624005 -0.389743 2.38005e-19)
(0.0687888 -0.354249 -5.56855e-19)
(0.110371 -0.238295 1.35705e-19)
(0.15421 -0.0553124 1.09961e-18)
(0.0486939 -0.2278 -8.05079e-20)
(0.00537191 -0.280622 -3.014e-19)
(-0.0594727 -0.321918 -1.19182e-19)
(-0.118427 -0.330868 -8.87848e-20)
(-0.162568 -0.22171 1.29847e-19)
(0.0618031 -0.160721 4.30821e-19)
(0.0193144 -0.132924 -1.12141e-19)
(-0.0498685 -0.0850844 2.54968e-19)
(-0.120934 -0.0938131 2.85957e-19)
(-0.191245 -0.0785816 3.82365e-21)
(0.0621046 -0.13011 2.86409e-20)
(-0.001441 -0.131957 1.45964e-20)
(-0.080082 -0.0682325 9.07009e-20)
(-0.141837 -0.0305502 -6.9336e-19)
(-0.184658 0.0109782 2.17941e-19)
(-0.0297008 -0.00813942 -3.70704e-20)
(-0.147429 -0.0106033 -5.56393e-20)
(-0.226701 0.0183969 -2.11115e-19)
(-0.205189 0.0483804 3.33585e-19)
(-0.175431 0.113436 7.72362e-19)
(0.88223 1.28775 1.97279e-18)
(0.763307 0.163014 -1.83063e-18)
(1.21129 -1.3464 -1.27253e-19)
(1.07656 -0.557256 -7.14773e-19)
(1.34005 -0.0321787 -1.35589e-20)
(0.110106 0.989355 -2.01433e-18)
(1.09321 0.118681 2.32015e-19)
(1.95671 -1.2404 1.68383e-19)
(1.28025 -0.584791 1.39194e-18)
(1.34712 -0.0523933 5.31633e-20)
(-0.601093 0.638443 -1.15074e-18)
(1.55493 -0.196343 -6.55943e-19)
(2.05846 -1.29178 -9.73385e-20)
(1.46739 -0.544061 1.24653e-18)
(1.35316 -0.0247219 -1.0657e-20)
(-0.756283 0.496697 5.01097e-19)
(1.94768 -0.471658 -2.82047e-20)
(1.92647 -1.22321 4.47788e-19)
(1.32611 -0.492477 -4.63194e-19)
(1.26836 -0.00841593 1.24426e-19)
(-0.323635 0.182101 -1.36387e-19)
(2.20476 -0.657314 -1.4753e-19)
(2.06745 -1.12209 0)
(1.19283 -0.417539 1.67891e-19)
(1.15538 0.00671727 -5.73403e-20)
(1.19974 0.0680558 -2.7096e-19)
(2.60341 -0.687961 -1.10191e-19)
(2.02994 -0.963061 -2.59331e-20)
(1.24767 -0.379982 1.0846e-19)
(1.21436 -0.00219095 3.68348e-21)
(1.96622 0.0482974 -1.79044e-20)
(2.82201 -0.7918 1.06573e-18)
(1.72712 -0.708895 -1.78803e-20)
(0.797465 -0.121838 8.98608e-21)
(1.11381 0.0307283 0)
(2.21713 -0.082653 -1.95101e-19)
(2.41349 -0.528074 -5.81382e-21)
(1.55544 -0.324222 8.62165e-20)
(0.999359 -0.119906 -1.91526e-21)
(1.21641 -0.099273 1.70586e-20)
(2.26909 -0.0886799 1.06387e-19)
(2.06628 -0.452468 2.19328e-19)
(1.0876 -0.20056 -1.96159e-20)
(1.06904 -0.028375 -1.84864e-34)
(0.959912 -0.0576623 1.71703e-20)
(1.50451 -0.125268 1.16075e-19)
(0.761655 0.00641764 7.10377e-20)
(0.394207 0.0219178 1.16773e-20)
(0.304453 -0.0775408 -2.89381e-21)
(0.06806 -0.0301011 -1.07377e-20)
(2.36926 0.245239 -8.39606e-19)
(2.52718 0.0647755 -1.00581e-18)
(2.41644 0.0577468 7.60156e-19)
(2.56009 -0.068558 3.8102e-20)
(2.05537 -0.0110619 -3.79169e-20)
(2.15224 0.126906 5.61548e-20)
(2.34095 0.0973087 -3.71606e-20)
(2.28963 -0.0481999 -1.15588e-19)
(2.37341 -0.0367888 -2.13913e-19)
(2.3466 -0.248281 -2.63487e-21)
(2.07248 0.050959 6.60076e-20)
(2.15015 0.0569388 9.42841e-20)
(2.18067 -0.0626804 -1.10241e-19)
(2.20118 -0.0343834 3.66337e-20)
(2.24329 -0.163409 1.54453e-20)
(1.98006 0.0223751 1.03462e-19)
(2.04947 0.0173817 1.27942e-19)
(2.06862 -0.043333 -1.62232e-20)
(2.12374 -0.0349865 -4.41086e-20)
(2.13378 -0.105297 2.47418e-20)
(1.49776 -0.0162076 1.59151e-19)
(1.49042 -0.0193274 -1.06026e-20)
(1.51254 -0.023038 1.84321e-20)
(1.49722 -0.0334709 -2.37981e-20)
(1.50237 -0.0303876 8.66548e-22)
(1.52368 0.84466 1.07525e-18)
(1.48649 0.939531 -3.40257e-19)
(1.48865 1.06385 -1.26574e-18)
(1.41395 1.09789 6.83728e-19)
(0.862341 0.772898 -1.63229e-19)
(1.8086 0.793855 -5.4586e-19)
(1.77557 0.867516 -2.88466e-18)
(1.77843 0.970375 -1.1088e-18)
(1.68291 0.974032 -3.82026e-19)
(1.01538 0.663601 -6.09454e-19)
(2.09476 0.6807 7.30552e-19)
(2.07376 0.742747 1.8451e-19)
(2.04644 0.820352 -2.1606e-18)
(1.90104 0.800605 -5.8705e-19)
(1.10514 0.513962 4.25748e-19)
(2.26442 0.554336 2.19203e-18)
(2.24421 0.600886 1.58732e-18)
(2.22857 0.647037 -1.81223e-18)
(2.00116 0.600181 -1.35241e-18)
(1.07581 0.335135 -2.41332e-19)
(2.40525 0.405588 1.03754e-18)
(2.40158 0.425306 -7.41228e-19)
(2.29387 0.441295 5.31364e-19)
(1.94734 0.382655 4.1238e-19)
(0.89217 0.144651 -3.43785e-19)
(0.580415 0.4292 -7.00346e-19)
(0.489158 0.463937 -5.6045e-19)
(0.37007 0.498526 7.06193e-20)
(0.230186 0.497151 -2.03173e-20)
(0.0558585 0.348287 6.81699e-20)
(0.684743 0.592832 5.51245e-20)
(0.617889 0.645259 -3.22732e-19)
(0.525455 0.707742 1.71174e-19)
(0.397044 0.766116 -7.93147e-20)
(0.170464 0.586257 1.13622e-19)
(0.765284 0.808046 1.59594e-19)
(0.693383 0.889816 4.21402e-19)
(0.635795 0.983819 7.78216e-20)
(0.549595 1.02126 -2.79804e-19)
(0.300214 0.750631 2.28535e-19)
(1.03538 0.879723 2.10872e-19)
(0.985093 0.96095 -6.45503e-19)
(0.933026 1.05807 -1.80573e-18)
(0.848213 1.11986 7.25189e-19)
(0.497719 0.825229 -1.63954e-19)
(1.11628 0.931794 -1.09146e-19)
(1.14406 1.04758 -1.83469e-19)
(1.16211 1.15603 -3.37671e-19)
(1.10418 1.17767 -3.79776e-19)
(0.675496 0.836993 -6.09699e-21)
(1.00696 0.0403183 -7.94956e-20)
(1.00715 0.0141555 -2.78008e-20)
(1.04757 0.1348 -1.54081e-21)
(0.942196 0.112258 -1.54265e-19)
(0.904872 0.255993 2.86551e-19)
(0.99375 0.0377822 4.84997e-20)
(1.02916 0.00679276 1.07141e-19)
(1.0258 0.150108 1.07103e-19)
(0.974641 0.132497 1.70232e-20)
(0.94147 0.342988 1.2243e-20)
(1.00237 0.035838 6.34111e-20)
(1.01537 -0.00166209 -4.30295e-21)
(1.06361 0.170036 -2.83161e-21)
(0.927714 0.133573 1.32255e-19)
(1.13389 0.478127 -4.31895e-19)
(1.00081 0.0341164 -2.86609e-22)
(1.03568 -0.0125481 -1.59408e-19)
(1.0421 0.197927 -5.5932e-20)
(1.0155 0.124584 -3.29951e-19)
(1.15315 0.540856 8.30182e-20)
(1.00806 0.0242867 -9.59646e-21)
(1.0289 -0.00545806 4.46188e-20)
(1.07216 0.19838 2.58703e-20)
(1.00452 0.153386 4.50995e-19)
(1.37489 0.671526 -4.31433e-19)
(0.985291 0.0223342 -1.7281e-21)
(1.08599 -0.0235635 9.1195e-20)
(1.02012 0.230857 -5.12968e-20)
(1.28012 0.0630952 9.2346e-19)
(1.30151 0.718612 -3.44507e-19)
(0.94356 -0.00964609 -1.36342e-21)
(1.1652 -0.00573464 -7.31939e-20)
(0.905707 0.150627 4.68876e-21)
(1.39226 0.0506461 -3.08522e-19)
(1.2024 0.534167 -4.58933e-20)
(0.989945 -0.0287276 4.41902e-21)
(1.08938 0.0184577 1.28281e-35)
(1.01298 0.116333 2.42459e-21)
(1.32035 0.000231854 1.05104e-19)
(1.33947 0.376845 1.57834e-19)
(1.06408 -0.0595665 3.84057e-21)
(0.908821 0.0101218 -2.77323e-20)
(1.27381 0.0240533 1.94426e-20)
(1.13726 -0.0264453 2.27291e-20)
(1.44159 0.254827 -2.39139e-19)
(0.955274 -0.0214059 -3.90706e-20)
(0.764916 -0.0206693 -2.45834e-21)
(1.01964 -0.0109052 2.21546e-20)
(0.688321 -0.00355472 -2.01297e-20)
(1.08597 0.0847041 -5.34099e-20)
(1.76041 0.643369 2.83249e-19)
(1.86579 0.649317 7.22329e-19)
(2.11362 0.532386 -1.02122e-18)
(2.19341 0.480823 2.14551e-20)
(2.3869 0.307294 4.24851e-19)
(1.69648 0.408588 6.53375e-20)
(1.73538 0.411351 9.1217e-19)
(1.95951 0.350052 1.02787e-19)
(1.96989 0.290858 -8.40962e-19)
(2.19367 0.225077 -2.68603e-19)
(1.6777 0.27476 -2.19187e-19)
(1.7604 0.253115 -1.41081e-19)
(1.88143 0.219181 1.65693e-19)
(1.93138 0.164111 -2.5991e-19)
(2.04332 0.140192 2.38399e-19)
(1.66954 0.18493 3.63431e-19)
(1.74803 0.159008 -1.53654e-21)
(1.82343 0.132088 2.01092e-19)
(1.87324 0.0929299 1.62351e-19)
(1.94743 0.0725289 -1.63898e-19)
(1.28968 0.050425 -4.71607e-20)
(1.37424 0.0312943 2.29987e-19)
(1.40725 0.01788 9.31034e-20)
(1.45711 0.000946822 -1.96402e-19)
(1.46324 -0.00544652 3.68521e-22)
(1.3478 -0.0259232 8.4099e-20)
(2.41801 -0.00980319 -6.00094e-19)
(2.6351 -0.00267632 1.61183e-18)
(2.60123 0.0442322 7.53316e-19)
(2.35665 0.0512939 -5.13379e-19)
(0.921061 0.114353 2.00133e-19)
(2.21402 0.14812 -6.75013e-19)
(2.61817 0.161063 -9.67667e-19)
(2.61628 0.166812 1.33214e-18)
(2.41311 0.160403 -9.92622e-19)
(0.361338 0.125383 -2.0459e-21)
(1.65454 0.24984 8.44132e-19)
(2.37441 0.305294 1.29355e-19)
(2.65165 0.320618 1.47872e-18)
(2.60387 0.28366 8.25928e-19)
(0.0282488 0.0236475 2.47498e-19)
(0.815849 0.21453 2.9834e-19)
(1.6877 0.343396 -1.02608e-18)
(2.21341 0.410079 1.08205e-19)
(2.62734 0.447892 1.0243e-18)
(-0.0766043 -0.0630095 1.92119e-19)
(0.19775 0.0689414 -2.2814e-19)
(0.848807 0.258085 -1.92172e-19)
(1.395 0.39355 3.05682e-19)
(2.00966 0.556556 1.93254e-19)
(-0.0801702 -0.0964102 6.51015e-20)
(-0.0373759 -0.0607351 1.01534e-19)
(0.269628 0.0561142 9.13935e-20)
(0.574318 0.23167 -4.6205e-19)
(1.28692 0.483188 8.54908e-21)
(-0.0661314 -0.115365 -5.02097e-20)
(-0.0831931 -0.132081 -2.68266e-20)
(0.027114 -0.0554957 6.04611e-20)
(0.163811 0.126535 -6.77898e-20)
(0.566829 0.407329 -7.78725e-22)
(-0.0461553 -0.101466 -5.66817e-20)
(-0.0650998 -0.12117 1.39487e-20)
(-0.0233317 -0.0356816 -4.37796e-20)
(0.0225477 0.120827 -1.9402e-19)
(0.150556 0.342259 2.78993e-19)
(-0.021668 -0.0942372 -3.76676e-20)
(-0.0100312 -0.141795 -1.57286e-19)
(0.0413411 -0.0409525 3.1994e-19)
(0.111254 0.15973 3.79107e-19)
(0.19206 0.421929 -2.97514e-20)
(0.00350245 -0.181808 6.92335e-21)
(0.0482095 -0.293313 -1.46368e-20)
(0.102674 -0.220684 -8.62485e-22)
(0.185023 -0.0363154 3.00471e-20)
(0.286626 0.222715 2.65353e-19)
(1.4503 0.733749 -3.02189e-20)
(-0.00558702 0.221783 1.18048e-19)
(0.524058 -0.11652 -1.46289e-19)
(0.890039 -0.0744822 -3.567e-19)
(0.774818 -0.0127995 2.42601e-21)
(1.33934 0.864853 1.54147e-19)
(-1.02622 0.345536 1.21525e-18)
(0.423294 -0.294952 1.06681e-18)
(1.07074 -0.127618 -2.30233e-20)
(1.01416 0.0104374 1.59663e-20)
(0.649586 1.04806 -6.74941e-19)
(-1.89476 0.325453 3.88398e-18)
(0.423879 -0.852491 1.7888e-19)
(1.03173 -0.232639 3.05042e-19)
(1.18429 0.0272815 3.09839e-20)
(0.19038 1.2209 9.82996e-19)
(-0.92966 0.228078 -4.87807e-18)
(0.477451 -1.13327 -7.55519e-19)
(0.914132 -0.355113 1.80181e-20)
(1.25589 0.0133223 -1.56241e-20)
(0.64004 1.3877 1.64621e-19)
(0.484273 0.233208 2.15119e-19)
(0.89626 -1.2041 8.78977e-20)
(1.0224 -0.48832 -8.35959e-20)
(1.33131 -0.0221753 -1.19892e-20)
(-0.245508 0.0717002 -4.56093e-20)
(-0.417214 -0.183754 0)
(-0.14059 -0.0997041 -9.386e-20)
(0.0702496 -0.0664627 6.37215e-20)
(0.344562 -0.0239641 -2.14077e-20)
(1.72022 0.631291 0)
(0.715657 0.200978 0)
(0.652227 -0.0595573 3.16015e-19)
(0.619314 -0.0861379 1.99612e-19)
(0.597248 -0.0495252 1.37894e-20)
(0.746506 0.00662523 -1.30348e-19)
(0.810106 0.00225414 3.48338e-19)
(0.908555 0.0397956 -3.33542e-20)
(0.826439 0.0276611 3.97161e-19)
(1.14378 0.20077 2.22762e-19)
(1.69267 0.0443498 1.26307e-19)
(1.88885 0.0940079 5.3691e-19)
(1.94502 0.192008 -9.57715e-19)
(2.32623 0.277063 4.20933e-19)
(2.266 0.480106 6.97616e-19)
(0.963065 -0.521745 1.78084e-20)
(0.955565 -0.619795 -2.10422e-19)
(0.953216 -0.726028 -1.73767e-19)
(0.887521 -0.803048 1.05005e-19)
(0.548167 -0.640209 1.49093e-19)
(0.858666 -0.427584 1.09828e-19)
(0.803124 -0.497893 1.53631e-19)
(0.728966 -0.574822 -1.05404e-19)
(0.615814 -0.643693 1.57455e-19)
(0.343618 -0.520259 4.42738e-20)
(0.683278 -0.289306 -1.15542e-19)
(0.595688 -0.334987 -6.28139e-20)
(0.495493 -0.391665 1.41942e-20)
(0.376229 -0.441387 -4.64114e-20)
(0.175028 -0.355604 -1.44428e-19)
(0.572565 -0.0578305 -4.37607e-19)
(0.486344 -0.0780149 -3.50431e-19)
(0.374934 -0.107059 2.8555e-19)
(0.245967 -0.142134 1.43673e-19)
(0.0754249 -0.134306 1.28939e-20)
(0.540998 0.15261 -1.36183e-19)
(0.454279 0.150145 -1.55143e-19)
(0.335219 0.143723 -3.92956e-20)
(0.194707 0.141418 5.31105e-20)
(0.0330898 0.102651 1.41736e-20)
(2.17603 -0.0243656 9.80672e-19)
(2.40626 -0.0962551 3.57322e-19)
(2.50399 -0.187681 -9.03055e-19)
(2.39138 -0.214714 -1.91811e-18)
(1.48405 -0.211698 1.5046e-19)
(2.10494 -0.128452 1.58889e-18)
(2.22764 -0.244234 2.08202e-18)
(2.26343 -0.372242 1.74363e-19)
(2.19695 -0.434636 3.05231e-19)
(1.43782 -0.404536 -2.04571e-19)
(1.83192 -0.30013 -4.03014e-18)
(1.88886 -0.422646 4.5103e-19)
(1.93765 -0.555947 1.28441e-18)
(1.89698 -0.639362 -5.05416e-19)
(1.25516 -0.560888 8.04857e-19)
(1.5868 -0.430932 9.84877e-19)
(1.61377 -0.537235 -2.59899e-18)
(1.61567 -0.66483 -2.98895e-18)
(1.55871 -0.761758 9.34338e-19)
(1.01997 -0.64373 6.1915e-19)
(1.29232 -0.498891 2.22513e-19)
(1.24829 -0.599335 2.90218e-19)
(1.24091 -0.729341 -4.6209e-19)
(1.19202 -0.825242 -5.60611e-19)
(0.766549 -0.669964 -5.35389e-21)
(1.06359 0.0500478 6.91765e-21)
(0.949203 0.050323 1.63427e-21)
(1.12279 0.077374 1.04591e-20)
(0.841582 -0.00820883 -2.68088e-19)
(1.14779 -0.227508 -2.21112e-20)
(1.07294 0.0514313 -2.29092e-21)
(0.942789 0.0453837 2.20908e-20)
(1.12305 0.0958405 5.44932e-21)
(0.912974 0.0343166 2.38115e-19)
(1.03662 -0.113659 6.54142e-21)
(1.0699 0.046734 -5.42732e-20)
(0.945348 0.0382183 -1.11305e-22)
(1.10605 0.100646 -5.80187e-21)
(0.911336 0.0510353 1.33832e-19)
(0.99094 -0.0520489 -2.76263e-19)
(1.05033 0.0444602 6.40477e-20)
(0.968066 0.0304739 2.64816e-21)
(1.07322 0.108644 2.03988e-20)
(0.940805 0.0764564 -7.07694e-20)
(0.887782 0.0549934 5.7342e-20)
(1.02285 0.0409376 1.57966e-20)
(0.997842 0.0251907 -2.25214e-20)
(1.04283 0.117916 3.25271e-20)
(0.958801 0.0979888 2.99986e-20)
(0.857398 0.157204 -1.8939e-20)
(0.888458 0.0336167 0)
(0.721548 0.0276612 8.44791e-21)
(0.612286 0.0209612 7.34176e-21)
(0.369277 -0.00918072 5.62335e-20)
(0.724034 -0.0572726 -1.80865e-19)
(1.03186 0.071958 -6.24253e-20)
(0.957947 0.0686923 6.39346e-22)
(1.03308 0.0783443 -6.956e-20)
(0.830252 -0.0108372 -1.58858e-19)
(1.08231 -0.210213 -1.91966e-19)
(1.00763 -0.0691581 -4.19116e-20)
(1.10018 -0.0377863 6.05809e-19)
(1.2067 0.0360395 3.58052e-19)
(1.07351 0.0593024 2.90315e-20)
(0.836426 0.0323523 0)
(1.36631 -0.329286 4.08916e-19)
(1.4899 -0.289623 1.72545e-18)
(1.68253 -0.166091 -1.86351e-18)
(1.78208 -0.0197755 -5.93097e-19)
(1.71674 0.0374816 4.50435e-19)
)
;

boundaryField
{
    left
    {
        type            fixedValue;
        value           uniform (1 0 0);
    }
    right
    {
        type            zeroGradient;
    }
    down
    {
        type            noSlip;
    }
    up
    {
        type            noSlip;
    }
    cylinder
    {
        type            noSlip;
    }
    defaultFaces
    {
        type            empty;
    }
}


// ************************************************************************* //
