/*--------------------------------*- C++ -*----------------------------------*\
  =========                 |
  \\      /  F ield         | OpenFOAM: The Open Source CFD Toolbox
   \\    /   O peration     | Website:  https://openfoam.org
    \\  /    A nd           | Version:  13
     \\/     M anipulation  |
\*---------------------------------------------------------------------------*/
FoamFile
{
    format      ascii;
    class       volVectorField;
    location    "18.6";
    object      U;
}
// * * * * * * * * * * * * * * * * * * * * * * * * * * * * * * * * * * * * * //

dimensions      [0 1 -1 0 0 0 0];

internalField   nonuniform List<vector> 
440
(
(-0.076976 0.0858497 -1.54554e-20)
(-0.0618948 0.158725 8.10439e-21)
(0.121153 0.114754 -3.15218e-20)
(0.537536 0.0639657 1.63078e-19)
(0.740185 0.0196411 -4.4863e-20)
(-0.0133433 0.00759704 1.71358e-22)
(0.175362 -0.0240658 -1.25698e-19)
(0.654181 -0.0703472 -6.18064e-20)
(1.1997 -0.108944 -4.93222e-20)
(1.70327 -0.14893 -6.03618e-20)
(0.0362673 -0.0202651 2.8622e-20)
(0.585678 -0.0882223 8.97191e-19)
(1.35325 -0.0867822 -6.51743e-19)
(1.92446 -0.0691466 -1.98436e-18)
(2.42983 -0.0531781 9.64808e-19)
(0.250224 -0.0583069 -1.6768e-19)
(1.25959 -0.0191954 -6.69252e-19)
(2.02114 0.0437664 2.0815e-18)
(2.43928 0.0827469 2.44149e-18)
(2.48446 0.0947555 -6.55231e-19)
(0.604349 -0.00889407 -3.16705e-19)
(1.79337 0.171248 -7.10575e-19)
(2.33078 0.24383 2.22037e-18)
(2.44408 0.252099 2.31423e-18)
(2.51409 0.22593 7.81284e-19)
(0.0130774 -0.166595 2.06549e-20)
(0.0380047 -0.439686 -1.76058e-19)
(0.000440056 -0.505224 2.80845e-19)
(-0.079456 -0.4525 -6.05164e-20)
(-0.164686 -0.399566 -5.67246e-19)
(0.0304515 -0.13914 3.37156e-20)
(0.0382512 -0.33857 5.82205e-20)
(-0.0506531 -0.319693 7.18969e-20)
(-0.149473 -0.231769 6.23306e-20)
(-0.211846 -0.205696 -1.03167e-19)
(0.0318916 -0.0904782 -3.70631e-19)
(-0.00603883 -0.215685 1.23671e-19)
(-0.11878 -0.190066 -2.57709e-19)
(-0.195308 -0.152495 -2.82529e-19)
(-0.197402 -0.18716 -6.13683e-21)
(-0.0555742 0.045117 9.28851e-20)
(-0.169509 0.0158118 -2.66443e-19)
(-0.251642 -0.000168263 6.59192e-20)
(-0.233436 -0.0582093 1.31528e-18)
(-0.125904 -0.154609 -2.88264e-19)
(-0.122142 0.14725 1.01784e-19)
(-0.160601 0.165726 1.35804e-19)
(-0.0881341 0.0905584 2.66136e-19)
(0.0765421 0.00436033 -2.0756e-19)
(0.259263 -0.0596342 -2.08141e-19)
(-0.573357 -0.381214 -7.44021e-20)
(1.13277 0.724002 -2.15366e-18)
(0.00931644 1.03768 1.82236e-19)
(1.16752 -0.568015 -7.36236e-19)
(1.22645 -0.701976 2.56084e-20)
(-0.423428 -0.588052 1.44202e-18)
(1.57509 0.530274 3.40231e-19)
(0.438119 1.05902 -1.54217e-19)
(1.42887 -0.677404 1.04427e-19)
(1.38253 -0.727041 -6.0873e-20)
(0.142573 -0.865421 9.81712e-19)
(1.37653 0.288371 -1.97858e-18)
(0.514274 1.07093 1.46904e-19)
(1.72326 -0.754252 -2.69038e-19)
(1.54965 -0.732842 5.40227e-20)
(0.943329 -1.04063 -4.2292e-19)
(0.290633 0.20198 5.37712e-20)
(0.357718 1.04292 4.78307e-19)
(1.97731 -0.837675 3.28183e-19)
(1.6844 -0.723192 4.90491e-20)
(1.80113 -1.06054 -5.40201e-19)
(-1.0678 0.184561 7.01298e-19)
(0.828453 0.767638 0)
(2.20731 -0.896726 -5.63595e-19)
(1.74536 -0.70092 -1.07501e-20)
(2.48557 -0.633698 -8.59304e-19)
(-0.0120568 0.129602 3.47818e-20)
(1.56939 0.160737 4.17536e-20)
(2.43048 -0.943714 -4.59876e-19)
(1.75882 -0.655876 1.32909e-20)
(2.17757 -0.645525 8.04093e-20)
(0.959442 0.369095 -3.2413e-19)
(2.21554 -0.0371626 2.18018e-20)
(2.57602 -0.810485 1.10743e-18)
(1.65954 -0.507209 0)
(2.03882 -0.209628 -1.68996e-19)
(1.48608 0.155039 6.88796e-21)
(2.4786 -0.37066 4.68265e-19)
(2.22493 -0.693505 -3.64185e-19)
(1.26179 -0.351045 -9.10951e-21)
(1.83741 -0.188258 -7.94135e-20)
(1.8616 0.0589282 1.26605e-19)
(2.19182 -0.312524 4.7995e-20)
(1.5041 -0.423991 7.89649e-34)
(0.59013 -0.156701 3.91631e-20)
(1.13246 -0.00560787 2.32372e-20)
(1.31816 -0.0702179 4.97919e-21)
(0.932192 -0.139667 -9.52039e-20)
(0.082273 -0.0238758 8.94428e-20)
(-0.32182 0.0012047 -6.50038e-21)
(2.35202 0.224918 -9.89446e-19)
(2.61206 0.0346495 -1.33395e-18)
(2.35235 0.0129405 1.17089e-18)
(2.73117 -0.16763 -2.37111e-20)
(1.93244 -0.101033 -1.14563e-19)
(2.09641 0.141046 4.26085e-20)
(2.45397 0.0287001 -4.4075e-20)
(2.18742 -0.0200461 -1.38948e-19)
(2.4709 -0.168293 -2.79773e-19)
(2.24706 -0.231576 -8.73624e-22)
(2.09195 0.061764 6.77856e-20)
(2.17066 0.038347 1.19095e-19)
(2.18966 -0.0509987 -1.66851e-19)
(2.18986 -0.0770527 4.96144e-20)
(2.25082 -0.172682 7.05205e-20)
(2.01063 0.0180478 1.13156e-19)
(1.94835 0.00888368 1.14184e-19)
(2.11168 -0.0375042 -1.58612e-20)
(2.00507 -0.0567543 1.93925e-20)
(2.16804 -0.0906654 8.2803e-21)
(1.44472 -0.0150712 1.61951e-19)
(1.39674 -0.0079676 -1.1894e-20)
(1.48124 -0.0274897 2.26258e-20)
(1.37802 -0.0148506 -8.66835e-21)
(1.4972 -0.0420987 3.71482e-20)
(1.58151 0.852388 1.10182e-18)
(1.53607 0.949388 -3.25455e-19)
(1.53246 1.07781 -1.31508e-18)
(1.46757 1.12551 7.35483e-19)
(0.909535 0.818831 -1.84449e-19)
(1.85852 0.79608 -5.75243e-19)
(1.83318 0.879591 -2.98516e-18)
(1.84241 0.990679 -1.15801e-18)
(1.75879 1.00626 -4.25055e-19)
(1.08167 0.712048 -6.82124e-19)
(2.15284 0.68767 7.71824e-19)
(2.13699 0.755588 2.03593e-19)
(2.11806 0.843595 -2.30328e-18)
(1.99099 0.832001 -6.48512e-19)
(1.18203 0.554266 4.95229e-19)
(2.31556 0.560014 2.38511e-18)
(2.31515 0.612498 1.74441e-18)
(2.31807 0.66645 -2.02287e-18)
(2.1049 0.625499 -1.52206e-18)
(1.15606 0.363396 -2.88814e-19)
(2.46138 0.402128 1.19281e-18)
(2.4794 0.42674 -8.6668e-19)
(2.38683 0.450303 6.05723e-19)
(2.05633 0.396216 5.02254e-19)
(0.966472 0.156808 -4.28809e-19)
(0.572492 0.427382 -6.74904e-19)
(0.484175 0.460821 -5.36722e-19)
(0.366095 0.494324 6.77966e-20)
(0.227671 0.503088 -1.83035e-20)
(0.0564862 0.367903 8.10443e-20)
(0.672761 0.60383 1.07919e-19)
(0.608905 0.662953 -3.06618e-19)
(0.521206 0.731195 1.85822e-19)
(0.395043 0.784855 -8.56729e-20)
(0.170624 0.599992 1.2144e-19)
(0.785466 0.790129 1.96893e-19)
(0.711807 0.868211 4.45613e-19)
(0.652137 0.966302 6.6249e-20)
(0.566146 1.02055 -2.92812e-19)
(0.310429 0.766088 2.39033e-19)
(1.04275 0.884495 2.35021e-19)
(0.998153 0.972281 -6.67502e-19)
(0.948369 1.07194 -1.88879e-18)
(0.865704 1.13854 7.7062e-19)
(0.513081 0.854703 -1.84265e-19)
(1.15786 0.909296 -1.34808e-19)
(1.17548 1.0326 -2.13004e-19)
(1.19606 1.15477 -3.42707e-19)
(1.14427 1.19639 -3.98501e-19)
(0.706925 0.873824 -6.54934e-21)
(1.02088 0.0537956 -9.92823e-20)
(0.979569 0.032625 -3.85401e-20)
(1.04055 0.107437 -1.41965e-21)
(0.946283 0.141029 -3.28871e-19)
(0.88309 0.258665 3.18632e-19)
(1.01122 0.0520224 6.27746e-20)
(0.98868 0.0311454 1.34372e-19)
(1.03319 0.111889 1.25581e-19)
(0.978146 0.173764 4.20227e-20)
(0.92656 0.335861 -1.94622e-21)
(1.0166 0.0512991 8.53054e-20)
(0.970213 0.0261453 -4.99487e-21)
(1.08479 0.126832 -6.95307e-21)
(0.929619 0.178585 1.68576e-19)
(1.12693 0.469798 -4.74889e-19)
(1.00919 0.0523731 -4.64841e-22)
(0.986231 0.0156846 -1.89441e-19)
(1.09365 0.139386 -6.75867e-20)
(0.999721 0.194942 -4.11616e-19)
(1.15873 0.511792 1.01208e-19)
(1.00213 0.0465934 -1.54476e-20)
(0.993079 0.0150775 5.42484e-20)
(1.14495 0.145619 3.28969e-20)
(0.964783 0.221334 4.80797e-19)
(1.42432 0.635615 -4.54445e-19)
(0.957902 0.0501936 -1.08325e-20)
(1.06432 -0.011067 1.11485e-19)
(1.14993 0.171521 -9.15879e-20)
(1.17398 0.163378 8.54735e-19)
(1.33084 0.652212 -4.08378e-19)
(0.891119 0.0246026 -1.6621e-21)
(1.1683 -0.0333571 -1.1097e-19)
(1.12298 0.111637 4.73837e-21)
(1.222 0.17871 -2.61323e-19)
(1.35625 0.40017 1.58879e-20)
(0.949572 0.0198297 -6.04367e-21)
(1.15996 -0.0654527 1.46224e-35)
(1.09872 0.1203 -5.75243e-20)
(1.19173 0.123076 8.01327e-20)
(1.4974 0.229851 1.6466e-19)
(1.09209 -0.0377586 4.34465e-21)
(1.01392 -0.0657625 -2.47952e-20)
(1.0708 0.0799951 1.7131e-20)
(1.22634 0.055755 3.507e-20)
(1.49653 0.121201 -2.38574e-19)
(1.00796 -0.0256358 -4.27934e-20)
(0.757895 -0.0198246 -3.65867e-21)
(0.861783 0.0143933 2.30948e-20)
(0.935349 -0.00857639 -1.06722e-20)
(1.05174 0.0377974 -5.34591e-20)
(1.80434 0.662947 3.38792e-19)
(1.89902 0.64787 7.88936e-19)
(2.16046 0.537021 -1.11272e-18)
(2.20095 0.479368 3.28522e-20)
(2.43402 0.295988 4.84672e-19)
(1.78032 0.490709 5.48568e-20)
(1.7991 0.422124 1.01855e-18)
(2.05117 0.401251 9.84071e-20)
(1.98132 0.298412 -9.35309e-19)
(2.29499 0.218559 -3.07565e-19)
(1.70708 0.357797 -2.14449e-19)
(1.79784 0.264962 -1.48362e-19)
(1.89716 0.289209 2.55312e-19)
(1.96308 0.169351 -3.01425e-19)
(2.06793 0.164935 2.68803e-19)
(1.61759 0.209708 3.04619e-19)
(1.70978 0.142204 -1.88641e-21)
(1.73773 0.158595 2.19316e-19)
(1.86943 0.0783967 1.88232e-19)
(1.85845 0.0826704 -1.82159e-19)
(1.23895 0.0514568 -3.41422e-20)
(1.27033 0.0291872 2.07222e-19)
(1.32306 0.0280252 1.01938e-19)
(1.37516 0.00229681 -2.23945e-19)
(1.38565 0.00526226 3.52941e-22)
(1.24254 -0.0336674 5.23917e-20)
(2.32055 -0.0461616 -4.63326e-19)
(2.55307 -0.0355542 1.29473e-18)
(2.54902 0.0110978 5.89355e-19)
(2.36992 0.0365718 -3.88034e-19)
(0.76102 0.0904082 8.99269e-20)
(2.09249 0.0847441 -4.74436e-19)
(2.57145 0.088384 -6.43618e-19)
(2.60412 0.103948 8.13039e-19)
(2.37107 0.0955145 -5.30282e-19)
(0.195482 0.0713085 -4.04332e-20)
(1.4232 0.148412 4.95858e-19)
(2.2336 0.180912 8.10007e-20)
(2.64414 0.17959 5.85598e-19)
(2.76266 0.178972 3.26526e-19)
(-0.0790189 -0.0443331 2.2233e-19)
(0.497315 0.0709069 2.2068e-19)
(1.40068 0.160212 -4.94794e-19)
(1.95312 0.211959 3.1848e-20)
(2.60476 0.249828 1.42424e-19)
(-0.135911 -0.112165 1.60748e-19)
(-0.0385566 -0.0732993 -1.75849e-19)
(0.50449 0.0342953 -1.88823e-20)
(1.00443 0.0795698 3.49578e-20)
(1.57801 0.195408 -2.62256e-20)
(-0.102828 -0.109065 3.08539e-20)
(-0.178535 -0.149918 1.1186e-19)
(-0.0344067 -0.152203 7.83108e-20)
(0.154055 -0.130095 -6.30161e-20)
(0.695375 -0.014695 1.31484e-20)
(-0.0564566 -0.0739066 -1.0269e-20)
(-0.149101 -0.168927 -7.52467e-20)
(-0.165451 -0.23857 -4.6193e-20)
(-0.126289 -0.265376 -1.94417e-20)
(0.0640356 -0.16417 -2.61534e-21)
(-0.0244857 -0.0473722 8.47201e-21)
(-0.0786637 -0.18413 2.56818e-19)
(-0.099627 -0.311925 -2.36149e-19)
(-0.0881588 -0.391854 -6.47402e-19)
(-0.0587195 -0.389395 1.50216e-19)
(-0.015571 -0.0778429 -1.89374e-20)
(-0.0240276 -0.297991 -1.20971e-19)
(-0.0052873 -0.47798 3.27516e-19)
(0.0230829 -0.569723 2.38143e-19)
(0.0349988 -0.602244 -5.86199e-20)
(-0.00771237 -0.138659 1.17368e-20)
(0.0109883 -0.424933 -3.47536e-20)
(0.0234558 -0.582622 1.02524e-20)
(0.00924245 -0.611561 3.88206e-21)
(-0.0180231 -0.576024 -9.91117e-20)
(1.49669 0.667041 -2.57927e-20)
(1.67461 0.388796 4.28135e-19)
(0.676852 0.344315 1.08219e-19)
(-0.34218 -0.118846 8.67672e-21)
(0.621887 -0.337759 -3.02671e-20)
(1.19879 0.491556 1.16206e-20)
(1.79642 0.435575 9.73684e-20)
(0.633645 0.554169 8.10027e-19)
(-0.0945908 -0.132556 -7.15266e-21)
(0.639275 -0.462868 1.42785e-19)
(0.931873 0.230173 2.13769e-19)
(1.66766 0.559264 5.33489e-19)
(0.299894 0.764701 -1.57269e-20)
(0.211142 -0.156694 -8.77892e-19)
(0.723901 -0.543087 -2.98824e-20)
(0.577824 -0.130406 1.80659e-19)
(1.51042 0.588814 -4.86842e-19)
(-0.0324265 0.909649 -5.3058e-19)
(0.475522 -0.286022 1.2231e-21)
(0.839548 -0.624281 -5.94786e-20)
(-0.0968898 -0.233944 -1.81828e-20)
(1.1498 0.766333 2.14038e-19)
(-0.205788 1.02178 3.98585e-19)
(0.858226 -0.421861 -4.73034e-20)
(1.02311 -0.668081 -8.38562e-20)
(0.0636254 0.182521 -4.56418e-20)
(-0.29916 -0.168787 0)
(-0.424655 -0.0914392 -2.28561e-21)
(-0.365382 -0.0725144 -7.12908e-21)
(0.323159 -0.0413055 1.23207e-20)
(1.91426 0.59899 0)
(1.31831 0.345665 0)
(0.431613 0.0842062 -5.5104e-20)
(-0.338289 -0.136763 -6.4847e-20)
(0.607588 -0.184988 7.4309e-20)
(0.759079 0.00304872 -1.22407e-19)
(0.79061 -0.00789633 1.00097e-19)
(1.06883 0.0135407 -4.46264e-20)
(0.966845 0.000353379 3.63723e-19)
(1.49355 0.118031 2.51142e-19)
(1.71368 0.0302309 1.14856e-19)
(1.89432 0.0727098 2.1402e-19)
(2.06276 0.0622927 -4.22477e-19)
(2.6297 0.212294 3.97354e-20)
(2.42108 0.170023 2.08626e-19)
(0.930717 -0.497951 1.65868e-20)
(0.919266 -0.590741 -1.72791e-19)
(0.915227 -0.691481 -1.58596e-19)
(0.845903 -0.761349 9.48187e-20)
(0.51262 -0.595169 1.25573e-19)
(0.834168 -0.408978 1.19955e-19)
(0.778326 -0.47516 2.06332e-19)
(0.701585 -0.54571 -7.15974e-20)
(0.58431 -0.605176 1.26736e-19)
(0.317607 -0.476726 3.46043e-20)
(0.656339 -0.271775 -1.51519e-19)
(0.563832 -0.311983 -4.73495e-20)
(0.462885 -0.364069 6.55139e-20)
(0.348923 -0.410336 -3.08026e-20)
(0.158579 -0.322436 -1.12394e-19)
(0.556254 -0.0390562 -4.47217e-19)
(0.472368 -0.0566023 -3.67705e-19)
(0.365118 -0.0854834 2.91324e-19)
(0.238671 -0.121707 1.76358e-19)
(0.0696761 -0.111515 1.38753e-20)
(0.528025 0.163734 -1.72943e-19)
(0.442994 0.166039 -1.76818e-19)
(0.327422 0.166688 -6.93648e-20)
(0.191007 0.170803 3.20436e-20)
(0.0307498 0.130226 1.38574e-20)
(2.1169 -0.0379368 8.39665e-19)
(2.36741 -0.107805 3.09163e-19)
(2.45366 -0.197456 -7.92511e-19)
(2.30914 -0.223211 -1.64236e-18)
(1.39614 -0.204669 1.16584e-19)
(2.08396 -0.126729 1.42013e-18)
(2.18307 -0.239595 1.84878e-18)
(2.19433 -0.363968 1.50472e-19)
(2.11823 -0.42583 2.56236e-19)
(1.36386 -0.383497 -1.69721e-19)
(1.79351 -0.294916 -3.6902e-18)
(1.84399 -0.41308 4.45261e-19)
(1.88812 -0.540201 1.14689e-18)
(1.83224 -0.618048 -4.60647e-19)
(1.19282 -0.531607 7.18013e-19)
(1.56189 -0.418124 8.87113e-19)
(1.57836 -0.516966 -2.30759e-18)
(1.56433 -0.636444 -2.7055e-18)
(1.49635 -0.728384 8.45192e-19)
(0.96518 -0.605992 5.38959e-19)
(1.26656 -0.481841 1.98391e-19)
(1.21077 -0.575731 2.40724e-19)
(1.19641 -0.699467 -4.08336e-19)
(1.14081 -0.78798 -4.94004e-19)
(0.721141 -0.627708 -4.7448e-21)
(1.06682 0.0571948 7.68155e-21)
(0.918488 0.0509796 -4.71353e-21)
(1.13115 0.0713619 -6.58087e-21)
(0.800433 0.000496833 -2.0256e-19)
(1.15401 -0.229022 -8.81659e-21)
(1.07642 0.0611254 -2.57318e-21)
(0.916434 0.0478173 5.18795e-20)
(1.12458 0.0888548 -4.565e-20)
(0.886334 0.0452709 9.84465e-20)
(1.01307 -0.112235 -2.15815e-20)
(1.07465 0.05895 -6.29696e-20)
(0.920293 0.0428913 5.67565e-22)
(1.11077 0.0892821 -1.80243e-20)
(0.880448 0.0674259 9.92204e-21)
(0.982069 -0.0544377 -1.77609e-19)
(1.05604 0.0578747 7.67103e-20)
(0.948642 0.0383199 3.43748e-21)
(1.07014 0.0943736 3.22137e-20)
(0.926358 0.0938404 4.14469e-20)
(0.86907 0.0598676 1.10182e-19)
(1.03263 0.0550202 1.92481e-20)
(0.975391 0.03691 -3.15283e-20)
(1.03919 0.0976532 4.33538e-20)
(0.950766 0.123725 8.9321e-20)
(0.83932 0.152844 -9.85293e-20)
(0.888981 0.033742 0)
(0.705692 0.027527 9.75886e-21)
(0.620141 0.0224883 3.06535e-21)
(0.354789 -0.00775615 3.73585e-20)
(0.70173 -0.0584241 -1.21309e-19)
(1.03456 0.0757275 -6.51328e-20)
(0.929519 0.0682181 -1.59516e-20)
(1.04011 0.0733808 -3.49425e-20)
(0.816082 -0.00148694 -1.09626e-19)
(1.05952 -0.207516 -1.25448e-19)
(0.983063 -0.0646798 -2.853e-20)
(1.0684 -0.0344367 4.89083e-19)
(1.16726 0.0375065 3.09412e-19)
(1.03584 0.0587152 2.19836e-20)
(0.802248 0.0312497 0)
(1.35352 -0.32165 2.88617e-19)
(1.47116 -0.283503 1.46307e-18)
(1.65613 -0.163526 -1.67498e-18)
(1.75219 -0.0218042 -5.28087e-19)
(1.66658 0.0311103 3.80647e-19)
)
;

boundaryField
{
    left
    {
        type            fixedValue;
        value           uniform (1 0 0);
    }
    right
    {
        type            zeroGradient;
    }
    down
    {
        type            noSlip;
    }
    up
    {
        type            noSlip;
    }
    cylinder
    {
        type            noSlip;
    }
    defaultFaces
    {
        type            empty;
    }
}


// ************************************************************************* //
