/*--------------------------------*- C++ -*----------------------------------*\
  =========                 |
  \\      /  F ield         | OpenFOAM: The Open Source CFD Toolbox
   \\    /   O peration     | Website:  https://openfoam.org
    \\  /    A nd           | Version:  13
     \\/     M anipulation  |
\*---------------------------------------------------------------------------*/
FoamFile
{
    format      ascii;
    class       volScalarField;
    location    "1.585";
    object      p;
}
// * * * * * * * * * * * * * * * * * * * * * * * * * * * * * * * * * * * * * //

dimensions      [0 2 -2 0 0 0 0];

internalField   nonuniform List<scalar> 
440
(
-1.37344
-1.35259
-1.35515
-1.34045
-1.28647
-1.49986
-1.47439
-1.44648
-1.38968
-1.30513
-1.67594
-1.63564
-1.55284
-1.43595
-1.30395
-1.82312
-1.76224
-1.61494
-1.44523
-1.28579
-1.8931
-1.79144
-1.58603
-1.38009
-1.19666
-0.548887
-0.555377
-0.562149
-0.55046
-0.515123
-0.744821
-0.748064
-0.755709
-0.743172
-0.690476
-0.993684
-0.996951
-1.00798
-1.02502
-0.937796
-1.18818
-1.18706
-1.20132
-1.2368
-1.14907
-1.28871
-1.27612
-1.28178
-1.30404
-1.2348
-0.186249
-0.00402786
0.0770781
0.0456299
0.0140835
-0.300187
-0.0141668
0.0708711
0.0429716
0.0132208
-0.446164
-0.0334375
0.0623027
0.039702
0.0122869
-0.583594
-0.0659997
0.0502581
0.0355695
0.0112078
-0.696727
-0.109461
0.0349082
0.030421
0.00985439
-0.698187
-0.138181
0.0141351
0.0213466
0.00747913
-0.56783
-0.15675
-0.0275872
-0.000126749
0.00160576
-0.487311
-0.155978
-0.0327372
-0.00537963
-0.000364246
-0.442229
-0.180744
-0.0579488
-0.0184714
-0.00424828
-0.40929
-0.18936
-0.0711079
-0.0253745
-0.00617394
-0.897337
-1.00578
-1.06232
-1.09371
-1.10009
-0.638804
-0.737367
-0.794586
-0.819374
-0.820123
-0.463612
-0.553009
-0.609914
-0.631986
-0.633371
-0.348946
-0.43703
-0.49234
-0.514091
-0.51456
-0.292358
-0.381341
-0.43725
-0.460235
-0.459581
0.383483
0.234995
0.054498
-0.150121
-0.385357
-0.00943907
-0.173968
-0.375459
-0.605269
-0.866612
-0.420261
-0.595457
-0.815449
-1.05613
-1.31431
-0.767854
-0.951203
-1.18485
-1.43429
-1.65256
-1.03461
-1.22367
-1.44876
-1.68614
-1.84829
1.70492
1.72576
1.74563
1.75476
1.74928
1.49924
1.5091
1.51326
1.50132
1.47054
1.23996
1.22574
1.192
1.13675
1.05649
0.959611
0.917282
0.842468
0.738421
0.604517
0.673388
0.578544
0.451023
0.297921
0.113017
1.56155
1.44164
1.53402
1.5302
1.63859
1.54892
1.42678
1.51147
1.49399
1.54213
1.5369
1.41018
1.48684
1.44694
1.41521
1.52564
1.39244
1.46015
1.39083
1.23625
1.51561
1.37379
1.43266
1.32779
1.04224
1.50445
1.34978
1.39518
1.22439
0.826229
1.49504
1.32373
1.36354
1.13234
0.828695
1.49472
1.30421
1.34037
1.07572
0.829891
1.49115
1.28571
1.32508
1.0325
0.838382
1.5186
1.28185
1.31681
1.00554
0.845076
0.394463
0.10723
-0.235825
-0.5219
-0.745466
0.357161
0.155392
-0.0842562
-0.306693
-0.496021
0.376502
0.196407
0.00592158
-0.178394
-0.334092
0.416398
0.245184
0.0740084
-0.0876181
-0.226298
0.439036
0.273028
0.112198
-0.0392568
-0.172357
-1.03689
-0.917378
-0.773175
-0.660563
-0.594829
-1.05471
-1.00211
-0.897236
-0.810155
-0.759616
-0.940573
-0.894172
-0.830288
-0.782905
-0.753477
-0.76589
-0.713432
-0.685754
-0.683286
-0.70833
-0.663431
-0.620996
-0.604976
-0.639183
-0.716642
-0.73843
-0.729005
-0.708299
-0.811733
-0.819137
-0.759825
-0.774467
-0.800091
-0.895809
-0.843215
-0.590224
-0.605522
-0.641136
-0.67369
-0.641337
-0.468552
-0.47814
-0.492458
-0.493218
-0.472761
-0.458123
-0.468173
-0.478837
-0.473596
-0.449171
-0.566079
-0.0933624
0.0696366
0.0490611
0.0172752
-0.495392
-0.0480525
0.079802
0.0571518
0.0180846
-0.33174
-0.0160691
0.082202
0.0504196
0.0163288
-0.189645
-0.00241108
0.0832228
0.0499749
0.0157877
-0.139933
0.000560279
0.080905
0.0477346
0.0148695
-0.40878
-0.253977
0.0173603
0.0428429
0.0182742
-0.538437
-0.158774
0.0783938
0.0725171
0.0239273
-0.56588
-0.717884
-0.773439
-0.724327
-0.546135
-0.576189
-0.733894
-0.753976
-0.731565
-0.707362
1.58468
1.56719
1.53642
1.49305
1.43549
1.71778
1.73837
1.74775
1.7438
1.72726
1.82454
1.85143
1.87113
1.88056
1.87924
1.86299
1.89653
1.93353
1.96513
1.98059
1.82506
1.85527
1.88949
1.91796
1.9305
-0.207865
-0.296397
-0.440011
-0.61334
-0.815279
0.306516
0.189522
0.0353394
-0.153298
-0.390856
0.775539
0.655728
0.511211
0.339007
0.125125
1.1377
1.04689
0.937106
0.801929
0.638924
1.42247
1.3628
1.28265
1.18471
1.0704
1.62924
1.48648
1.60142
1.57939
1.67756
1.61453
1.48162
1.59265
1.58589
1.70116
1.60108
1.47466
1.58376
1.58524
1.74488
1.58773
1.46578
1.57017
1.57637
1.72654
1.57453
1.45471
1.55362
1.55776
1.69801
1.67909
1.49575
1.59978
1.53375
1.5874
1.63982
1.48661
1.59579
1.5519
1.58987
1.31074
1.14346
0.82869
0.34701
-0.185609
1.39269
1.17512
0.842463
0.364674
-0.177099
)
;

boundaryField
{
    left
    {
        type            zeroGradient;
    }
    right
    {
        type            fixedValue;
        value           uniform 0;
    }
    down
    {
        type            zeroGradient;
    }
    up
    {
        type            zeroGradient;
    }
    cylinder
    {
        type            zeroGradient;
    }
    defaultFaces
    {
        type            empty;
    }
}


// ************************************************************************* //
