# Selection   : all
# Cells       : 440
# Volume      : 7.374263e+01
# Time        	maxMag(U)
1             	2.885457e+00
1.05          	2.874606e+00
1.1           	2.858306e+00
