/*--------------------------------*- C++ -*----------------------------------*\
  =========                 |
  \\      /  F ield         | OpenFOAM: The Open Source CFD Toolbox
   \\    /   O peration     | Website:  https://openfoam.org
    \\  /    A nd           | Version:  13
     \\/     M anipulation  |
\*---------------------------------------------------------------------------*/
FoamFile
{
    format      ascii;
    class       volVectorField;
    location    "52.2";
    object      U;
}
// * * * * * * * * * * * * * * * * * * * * * * * * * * * * * * * * * * * * * //

dimensions      [0 1 -1 0 0 0 0];

internalField   nonuniform List<vector> 
440
(
(-0.100178 0.0732939 -6.37662e-20)
(-0.128446 0.09233 -4.25552e-20)
(-0.00490414 0.0462017 1.10912e-19)
(0.358405 0.0688238 -1.26963e-20)
(0.331022 0.177076 2.86728e-20)
(-0.0855734 0.0490225 3.30739e-20)
(0.0454551 0.0223993 -9.95917e-20)
(0.508638 -0.0286186 -9.71173e-20)
(1.03883 -0.0531344 5.53092e-20)
(1.52834 -0.0732834 1.05638e-20)
(-0.0218691 0.0085814 4.94902e-20)
(0.468952 -0.0352345 6.59949e-19)
(1.21403 -0.0261072 -3.92206e-19)
(1.80034 -0.00341475 -1.28671e-18)
(2.2894 0.0205239 5.43595e-19)
(0.183513 -0.0415717 -1.65251e-19)
(1.1337 0.00316254 -4.97495e-19)
(1.89408 0.069567 1.59269e-18)
(2.31852 0.112604 1.7523e-18)
(2.41477 0.122459 -4.9141e-19)
(0.528272 -0.00653221 -2.77354e-19)
(1.66534 0.174343 -5.81981e-19)
(2.20824 0.254683 1.77097e-18)
(2.35265 0.268887 1.92675e-18)
(2.43319 0.249355 6.60488e-19)
(0.0386915 -0.230814 -3.93471e-20)
(0.101351 -0.378758 -1.6278e-20)
(0.138403 -0.365848 -7.43578e-20)
(0.192076 -0.259582 4.0451e-20)
(0.232183 -0.0582943 4.35471e-19)
(0.0937373 -0.30706 -6.95032e-20)
(0.152199 -0.438762 -2.68176e-19)
(0.160669 -0.460195 -7.06564e-20)
(0.183837 -0.430642 -3.09774e-20)
(0.161871 -0.308434 -3.34959e-21)
(0.118866 -0.295409 5.10578e-19)
(0.111223 -0.386597 2.60214e-19)
(0.0517835 -0.382724 2.73754e-19)
(-0.0230536 -0.392263 -9.16456e-19)
(-0.114719 -0.336592 1.82218e-20)
(0.107681 -0.215071 6.64484e-20)
(0.0440865 -0.301464 -4.92156e-20)
(-0.0600095 -0.294012 2.1493e-19)
(-0.161403 -0.280243 -5.87866e-19)
(-0.276336 -0.209392 2.67091e-19)
(-0.0240403 -0.0302098 -3.38214e-20)
(-0.161005 -0.0747117 -4.91012e-20)
(-0.258741 -0.0871237 -2.30773e-19)
(-0.256759 -0.0778787 4.02846e-19)
(-0.283389 -0.0161693 9.88723e-19)
(0.877467 1.30907 9.14938e-19)
(0.561595 0.310472 -2.21191e-18)
(1.5846 -1.27251 -3.91978e-20)
(1.07746 -0.692183 -9.68014e-19)
(1.33373 -0.14659 -4.14574e-20)
(0.690753 1.07093 -1.60433e-18)
(0.757215 0.264425 3.71196e-19)
(1.93163 -1.2526 1.77007e-19)
(1.41986 -0.687456 1.3691e-18)
(1.38084 -0.153985 1.68235e-19)
(-0.196286 0.748607 -1.32612e-18)
(1.27568 0.0682639 -1.12336e-18)
(1.81285 -1.34612 -8.99255e-20)
(1.43455 -0.685516 9.05718e-19)
(1.37224 -0.12078 -2.13799e-21)
(-0.887967 0.534879 6.29821e-19)
(1.81621 -0.153574 7.08361e-20)
(2.0383 -1.20953 6.5715e-19)
(1.30352 -0.643677 -3.8009e-19)
(1.25844 -0.109147 4.5049e-21)
(-0.674922 0.178985 -1.60152e-19)
(2.11407 -0.457016 1.68982e-19)
(2.18914 -1.14744 0)
(1.30311 -0.574496 1.88983e-19)
(1.15525 -0.0875012 -1.46552e-20)
(1.00596 0.0813673 -2.30399e-19)
(2.54228 -0.55768 -1.40838e-19)
(2.15085 -0.961808 -2.43971e-20)
(1.32917 -0.514977 1.02664e-19)
(1.18732 -0.0772628 1.59108e-20)
(1.88168 0.102601 -2.10587e-20)
(2.79604 -0.687697 9.63439e-19)
(2.02358 -0.756208 -1.80373e-20)
(0.895685 -0.232007 -2.06043e-20)
(1.04615 -0.0114255 0)
(2.1974 -0.0222153 -1.77726e-19)
(2.44496 -0.523935 -7.83764e-21)
(1.73071 -0.365156 1.46062e-19)
(1.06713 -0.154443 1.95356e-20)
(1.15415 -0.106118 6.99399e-21)
(2.24001 -0.0391584 1.09069e-19)
(2.17781 -0.439869 2.31365e-19)
(1.19809 -0.255095 -1.95462e-20)
(1.03698 -0.0416089 -2.1919e-34)
(0.916933 -0.0491518 1.70048e-20)
(1.55769 -0.119833 9.42956e-20)
(0.854107 -0.0171406 9.14112e-20)
(0.387769 0.0346978 1.73344e-21)
(0.290426 -0.0659994 -8.00609e-21)
(0.0696892 -0.0333808 -7.54849e-21)
(2.36147 0.250005 -8.31139e-19)
(2.51544 0.0761835 -9.96502e-19)
(2.42043 0.0622414 7.50991e-19)
(2.52751 -0.0548951 3.65149e-20)
(2.05492 -0.0149992 -3.93972e-20)
(2.14732 0.111548 5.95131e-20)
(2.30818 0.103315 -3.68758e-20)
(2.30032 -0.0545425 -1.13694e-19)
(2.34676 -0.0231093 -2.15838e-19)
(2.34948 -0.251298 -2.10991e-21)
(2.07688 0.0344378 6.72455e-20)
(2.13684 0.0634396 9.1319e-20)
(2.18375 -0.0762078 -1.06229e-19)
(2.19105 -0.0228144 3.53719e-20)
(2.24453 -0.170384 1.22366e-20)
(1.97631 0.0128707 1.03924e-19)
(2.04393 0.0258507 1.31739e-19)
(2.06149 -0.0508443 -1.60682e-20)
(2.1114 -0.0220773 -4.55752e-20)
(2.12692 -0.106095 2.34036e-20)
(1.47646 -0.0148297 1.6291e-19)
(1.48344 -0.0189691 -1.05681e-20)
(1.49003 -0.0202125 1.72319e-20)
(1.49601 -0.0323256 -2.60114e-20)
(1.48397 -0.0242863 -5.47162e-21)
(1.52429 0.846544 1.05481e-18)
(1.48903 0.941678 -3.31386e-19)
(1.49047 1.06492 -1.25296e-18)
(1.41659 1.0996 6.81924e-19)
(0.865569 0.776857 -1.6413e-19)
(1.8029 0.791393 -5.40111e-19)
(1.77528 0.868284 -2.86676e-18)
(1.78074 0.973333 -1.10663e-18)
(1.6866 0.977711 -3.82333e-19)
(1.01848 0.666703 -6.09486e-19)
(2.08678 0.685091 7.28095e-19)
(2.07042 0.74827 1.83636e-19)
(2.04685 0.825268 -2.17138e-18)
(1.90234 0.805364 -5.87407e-19)
(1.10419 0.515615 4.22914e-19)
(2.25078 0.556631 2.20568e-18)
(2.23867 0.605123 1.5928e-18)
(2.22634 0.65144 -1.81508e-18)
(1.99739 0.60353 -1.35323e-18)
(1.06966 0.334056 -2.39514e-19)
(2.39863 0.409578 1.03502e-18)
(2.39544 0.430421 -7.41491e-19)
(2.28902 0.445236 5.31277e-19)
(1.93821 0.38393 4.10937e-19)
(0.881856 0.142093 -3.4188e-19)
(0.579227 0.417103 -7.09424e-19)
(0.488172 0.451159 -5.71494e-19)
(0.368869 0.485375 7.30567e-20)
(0.229172 0.485369 -2.26256e-20)
(0.0554804 0.34097 6.63898e-20)
(0.683716 0.584615 4.96522e-20)
(0.617513 0.637811 -3.25757e-19)
(0.52543 0.700268 1.69054e-19)
(0.396305 0.756472 -7.81954e-20)
(0.169227 0.578524 1.12196e-19)
(0.7703 0.793646 1.7938e-19)
(0.697405 0.874229 4.10385e-19)
(0.638729 0.969081 6.78875e-20)
(0.551851 1.01187 -2.75088e-19)
(0.30091 0.748491 2.2398e-19)
(1.03293 0.874125 2.06946e-19)
(0.98359 0.957536 -6.28829e-19)
(0.931845 1.0561 -1.7852e-18)
(0.847283 1.11914 7.225e-19)
(0.497967 0.827026 -1.66851e-19)
(1.12459 0.923062 -1.13124e-19)
(1.14811 1.03983 -1.87061e-19)
(1.16458 1.15069 -3.32476e-19)
(1.10677 1.17587 -3.77898e-19)
(0.67749 0.838747 -6.09892e-21)
(1.0061 0.0422704 -7.91258e-20)
(1.00526 0.010216 -2.78191e-20)
(1.04925 0.131663 -1.49326e-21)
(0.941995 0.10996 -1.62452e-19)
(0.901842 0.247377 2.86951e-19)
(0.992527 0.0401923 4.82571e-20)
(1.02698 0.00229221 1.06756e-19)
(1.02954 0.1468 1.03466e-19)
(0.97102 0.131191 1.77983e-20)
(0.938341 0.333321 1.74053e-20)
(1.00036 0.0384122 6.34509e-20)
(1.01467 -0.00647392 -4.31109e-21)
(1.06685 0.166473 -3.11412e-21)
(0.92367 0.133968 1.34907e-19)
(1.13439 0.466704 -4.25023e-19)
(0.998021 0.0368102 -2.9346e-22)
(1.03654 -0.0176153 -1.60939e-19)
(1.04711 0.19452 -5.5732e-20)
(1.00924 0.127369 -3.31353e-19)
(1.15357 0.523577 8.24057e-20)
(1.00433 0.0267786 -9.6933e-21)
(1.03361 -0.0113769 4.52753e-20)
(1.07668 0.196089 2.61964e-20)
(0.994504 0.156915 4.50055e-19)
(1.37107 0.657309 -4.21558e-19)
(0.979898 0.0240633 -1.87579e-21)
(1.096 -0.0302912 9.19942e-20)
(1.02189 0.231363 -5.49478e-20)
(1.2665 0.0693873 9.21571e-19)
(1.32781 0.691038 -3.49652e-19)
(0.937287 -0.00897712 -1.38541e-21)
(1.17927 -0.0128242 -7.71089e-20)
(0.903682 0.153133 4.78179e-21)
(1.38533 0.049842 -3.07213e-19)
(1.22441 0.519345 -3.22703e-20)
(0.989298 -0.0302166 2.29172e-21)
(1.10044 0.0106209 1.36195e-35)
(1.00162 0.124004 6.93544e-22)
(1.30756 -0.000267653 9.96655e-20)
(1.32573 0.375404 1.52981e-19)
(1.0742 -0.0633696 3.90281e-21)
(0.897646 0.0085279 -2.83929e-20)
(1.259 0.0360063 1.91074e-20)
(1.1443 -0.0280809 2.37881e-20)
(1.43057 0.243818 -2.3066e-19)
(0.961506 -0.0218936 -3.99685e-20)
(0.746031 -0.0192916 -2.33007e-21)
(1.02552 -0.0101771 2.14225e-20)
(0.703344 -0.00675793 -1.87723e-20)
(1.07551 0.0821581 -5.16848e-20)
(1.74583 0.644603 2.82874e-19)
(1.85085 0.641808 7.12455e-19)
(2.09051 0.534648 -1.00535e-18)
(2.1722 0.478222 2.67754e-20)
(2.36741 0.311322 4.28116e-19)
(1.66353 0.429353 5.78162e-20)
(1.71377 0.404153 9.11457e-19)
(1.9247 0.361481 1.00123e-19)
(1.95036 0.271983 -8.36291e-19)
(2.15629 0.229313 -2.656e-19)
(1.66504 0.293416 -2.14529e-19)
(1.75454 0.252132 -1.41799e-19)
(1.87694 0.228595 1.68587e-19)
(1.93351 0.150846 -2.62206e-19)
(2.03625 0.14598 2.39963e-19)
(1.67272 0.18849 3.55074e-19)
(1.74764 0.155127 -2.00424e-21)
(1.83126 0.134218 2.04065e-19)
(1.8736 0.0859139 1.66557e-19)
(1.95076 0.0763143 -1.66963e-19)
(1.2799 0.0521527 -4.52431e-20)
(1.35937 0.0323955 2.28013e-19)
(1.39773 0.0193111 9.46184e-20)
(1.4394 0.00195733 -1.99222e-19)
(1.45436 -0.0049833 3.46281e-22)
(1.37402 -0.0284196 8.42342e-20)
(2.45643 -0.00799646 -6.15892e-19)
(2.6735 -0.00175269 1.65029e-18)
(2.63761 0.0471823 7.7307e-19)
(2.38358 0.0517327 -5.25398e-19)
(0.940378 0.11414 2.00652e-19)
(2.25365 0.150203 -6.89714e-19)
(2.65714 0.16424 -9.89049e-19)
(2.65514 0.169756 1.36614e-18)
(2.45814 0.166115 -1.02032e-18)
(0.361962 0.12521 -5.93199e-21)
(1.68989 0.252839 8.59924e-19)
(2.41725 0.309946 1.3397e-19)
(2.6885 0.328843 1.52818e-18)
(2.63077 0.289173 8.55292e-19)
(0.019975 0.0197443 2.55188e-19)
(0.836556 0.216268 3.05207e-19)
(1.73091 0.351044 -1.03539e-18)
(2.26742 0.419834 1.08753e-19)
(2.67451 0.461362 1.03546e-18)
(-0.0875364 -0.0721844 2.02276e-19)
(0.19341 0.060693 -2.33101e-19)
(0.872107 0.257648 -1.74381e-19)
(1.44162 0.40295 2.92608e-19)
(2.08002 0.573529 1.8762e-19)
(-0.0895977 -0.108913 6.54006e-20)
(-0.0493716 -0.081314 1.06102e-19)
(0.27993 0.0366777 6.54112e-20)
(0.589117 0.210894 -3.60153e-19)
(1.36172 0.485079 7.97811e-21)
(-0.0784894 -0.139121 -5.27216e-20)
(-0.100526 -0.179752 -2.27461e-20)
(0.022439 -0.114736 8.17097e-20)
(0.166352 0.0697963 -6.86383e-20)
(0.626192 0.389434 -8.27457e-21)
(-0.0611754 -0.144986 -6.42228e-20)
(-0.0928857 -0.191114 -1.64718e-20)
(-0.047897 -0.119603 1.81078e-20)
(0.000759596 0.0373975 -3.19082e-20)
(0.155372 0.281144 3.26209e-19)
(-0.0350499 -0.123614 -2.54355e-20)
(-0.0513685 -0.179702 -8.29376e-20)
(-0.0197757 -0.0999095 1.31505e-19)
(0.0352644 0.0729532 3.46959e-19)
(0.106664 0.313127 -2.25258e-21)
(-0.00537568 -0.14508 1.67502e-20)
(0.0204156 -0.261272 -4.57016e-20)
(0.0633075 -0.221121 1.39775e-20)
(0.128558 -0.0664174 -2.2774e-21)
(0.216225 0.179876 4.63633e-21)
(1.52343 0.7168 -2.06604e-21)
(0.259539 0.29949 -1.32296e-19)
(0.212473 -0.10105 -1.92878e-19)
(0.874497 -0.183547 -3.28309e-19)
(0.865179 -0.0194058 -5.74547e-22)
(1.41958 0.802375 1.42969e-19)
(-0.664264 0.484979 1.48328e-18)
(0.145763 -0.21747 7.51228e-19)
(0.956762 -0.297812 -2.12409e-20)
(1.0762 -0.00835379 3.48585e-20)
(0.888454 0.971218 -3.02679e-19)
(-1.84765 0.511252 3.80699e-18)
(0.430812 -0.715964 2.09064e-19)
(0.787286 -0.44474 2.10975e-19)
(1.19022 -0.0188414 3.16993e-20)
(0.370366 1.14225 6.89743e-19)
(-1.38588 0.44903 -5.23906e-18)
(0.594812 -1.01774 -1.06054e-18)
(0.670368 -0.552699 1.8418e-20)
(1.23466 -0.0649859 -2.968e-21)
(0.33607 1.33291 2.05332e-19)
(0.03366 0.426889 -8.68562e-20)
(1.10331 -1.16399 2.91268e-19)
(0.861113 -0.665799 -9.94586e-20)
(1.30944 -0.126561 7.82208e-21)
(-0.257101 0.069057 -3.48343e-20)
(-0.414562 -0.186005 0)
(-0.275019 -0.103916 -1.03692e-19)
(0.10079 -0.0747454 6.07368e-20)
(0.380724 -0.024115 -2.50628e-20)
(1.76266 0.630792 0)
(0.842853 0.249768 0)
(0.448054 -0.0592081 3.06971e-19)
(0.659307 -0.138614 1.87572e-19)
(0.679428 -0.0479968 1.74829e-20)
(0.752093 0.00710389 -1.31457e-19)
(0.829112 0.00300945 3.63342e-19)
(0.911194 0.0433044 -2.92094e-20)
(0.836851 0.0268092 3.92521e-19)
(1.14306 0.21176 2.18223e-19)
(1.70719 0.0454922 1.27671e-19)
(1.92687 0.0963653 5.54917e-19)
(1.97134 0.202071 -9.71515e-19)
(2.34708 0.281179 4.28333e-19)
(2.30899 0.501463 6.97492e-19)
(0.973573 -0.529365 2.61566e-20)
(0.966383 -0.628592 -2.16826e-19)
(0.965553 -0.736308 -1.84351e-19)
(0.900404 -0.814489 1.10719e-19)
(0.556288 -0.649866 1.51194e-19)
(0.86966 -0.437313 1.08325e-19)
(0.81395 -0.508337 1.41605e-19)
(0.738604 -0.585397 -1.13894e-19)
(0.623881 -0.654134 1.58458e-19)
(0.348378 -0.528299 4.17362e-20)
(0.687364 -0.299022 -1.12461e-19)
(0.598532 -0.345255 -6.33161e-20)
(0.498277 -0.403108 -1.56524e-21)
(0.380113 -0.454034 -5.13511e-20)
(0.178145 -0.364836 -1.46107e-19)
(0.575832 -0.0678472 -4.39306e-19)
(0.490012 -0.0889897 -3.50725e-19)
(0.379115 -0.119577 2.86184e-19)
(0.250085 -0.156024 1.41149e-19)
(0.0779203 -0.144437 1.28513e-20)
(0.543564 0.142403 -1.35001e-19)
(0.457165 0.139835 -1.55315e-19)
(0.338131 0.132984 -3.70718e-20)
(0.197151 0.129944 5.65165e-20)
(0.0342199 0.0944059 1.45704e-20)
(2.21643 -0.0221361 1.00322e-18)
(2.44049 -0.09638 3.69345e-19)
(2.53733 -0.188957 -9.29394e-19)
(2.42752 -0.21634 -1.98058e-18)
(1.5105 -0.216696 1.52631e-19)
(2.12976 -0.130539 1.63117e-18)
(2.25688 -0.246956 2.12902e-18)
(2.29508 -0.376602 1.77777e-19)
(2.22983 -0.43947 3.10457e-19)
(1.46286 -0.412727 -2.08389e-19)
(1.86413 -0.303348 -4.11913e-18)
(1.91816 -0.42675 4.63431e-19)
(1.96348 -0.561158 1.31397e-18)
(1.92397 -0.646516 -5.21885e-19)
(1.27546 -0.570689 8.30822e-19)
(1.60752 -0.435921 1.01184e-18)
(1.63324 -0.543214 -2.66457e-18)
(1.63679 -0.672719 -3.06853e-18)
(1.58131 -0.771558 9.62531e-19)
(1.03614 -0.654531 6.33536e-19)
(1.31178 -0.505455 2.29344e-19)
(1.26622 -0.606795 2.94995e-19)
(1.25747 -0.737806 -4.74045e-19)
(1.20831 -0.835346 -5.75888e-19)
(0.77765 -0.680182 -5.52278e-21)
(1.06186 0.0504336 6.89733e-21)
(0.949073 0.0482442 1.7495e-21)
(1.12616 0.0756425 1.06382e-20)
(0.842636 -0.0105738 -2.70297e-19)
(1.16533 -0.234312 -2.24331e-20)
(1.07131 0.0521094 -2.28834e-21)
(0.942429 0.0428614 2.2069e-20)
(1.12551 0.0941199 7.55481e-21)
(0.913366 0.030716 2.38563e-19)
(1.04647 -0.120648 6.94114e-21)
(1.06832 0.0477692 -5.42509e-20)
(0.944971 0.0350814 -8.432e-23)
(1.10828 0.0988891 -4.7193e-21)
(0.909783 0.047181 1.30916e-19)
(0.999642 -0.0590489 -2.79141e-19)
(1.04899 0.0457619 6.39852e-20)
(0.967622 0.0270563 2.61613e-21)
(1.07446 0.106553 1.92552e-20)
(0.940963 0.0727063 -6.712e-20)
(0.890665 0.0487237 5.73003e-20)
(1.02184 0.0425891 1.57682e-20)
(0.99658 0.0213972 -2.2798e-20)
(1.04444 0.115797 3.09424e-20)
(0.957859 0.0943741 3.24339e-20)
(0.858284 0.148496 -1.13041e-20)
(0.887712 0.0335787 0)
(0.722178 0.0275094 8.3007e-21)
(0.616993 0.0208386 7.39099e-21)
(0.373744 -0.00999081 5.70466e-20)
(0.73685 -0.0587431 -1.84185e-19)
(1.03037 0.0720422 -6.22071e-20)
(0.957995 0.0672537 1.26413e-21)
(1.0377 0.0769889 -7.05755e-20)
(0.834746 -0.0120264 -1.60082e-19)
(1.09486 -0.216038 -1.94736e-19)
(1.02811 -0.068885 -4.25788e-20)
(1.12076 -0.0381411 6.155e-19)
(1.23014 0.0364054 3.64862e-19)
(1.0943 0.0610262 2.87726e-20)
(0.854618 0.0333425 0)
(1.38759 -0.333259 4.16205e-19)
(1.51343 -0.292948 1.7593e-18)
(1.71029 -0.168546 -1.90469e-18)
(1.80758 -0.0197748 -6.09377e-19)
(1.75274 0.039482 4.59558e-19)
)
;

boundaryField
{
    left
    {
        type            fixedValue;
        value           uniform (1 0 0);
    }
    right
    {
        type            zeroGradient;
    }
    down
    {
        type            noSlip;
    }
    up
    {
        type            noSlip;
    }
    cylinder
    {
        type            noSlip;
    }
    defaultFaces
    {
        type            empty;
    }
}


// ************************************************************************* //
