/*--------------------------------*- C++ -*----------------------------------*\
  =========                 |
  \\      /  F ield         | OpenFOAM: The Open Source CFD Toolbox
   \\    /   O peration     | Website:  https://openfoam.org
    \\  /    A nd           | Version:  13
     \\/     M anipulation  |
\*---------------------------------------------------------------------------*/
FoamFile
{
    format      ascii;
    class       volScalarField;
    location    "0.595";
    object      p;
}
// * * * * * * * * * * * * * * * * * * * * * * * * * * * * * * * * * * * * * //

dimensions      [0 2 -2 0 0 0 0];

internalField   nonuniform List<scalar> 
1800
(
-1.12573
-1.11859
-1.07984
-1.0039
-0.90714
-0.808834
-0.718371
-0.637929
-0.566863
-0.508816
-1.3202
-1.31198
-1.2671
-1.18044
-1.07156
-0.961824
-0.861248
-0.772353
-0.695424
-0.632315
-1.50513
-1.4954
-1.44365
-1.34583
-1.22488
-1.10388
-0.993149
-0.895114
-0.809547
-0.737011
-1.6756
-1.66382
-1.60468
-1.49586
-1.36388
-1.23314
-1.1139
-1.00832
-0.915928
-0.836978
-1.82566
-1.81121
-1.744
-1.62424
-1.482
-1.34248
-1.21561
-1.10317
-1.00451
-0.919143
-1.95068
-1.93304
-1.85748
-1.7274
-1.57626
-1.42959
-1.29668
-1.17889
-1.07531
-0.985075
-2.04565
-2.02425
-1.94017
-1.80056
-1.64199
-1.48974
-1.35224
-1.23043
-1.12315
-1.02917
-2.10674
-2.08123
-1.98886
-1.84092
-1.67663
-1.52054
-1.38003
-1.25558
-1.14584
-1.04928
-2.13067
-2.10086
-2.00074
-1.84592
-1.67776
-1.51956
-1.3776
-1.25193
-1.141
-1.04303
-2.11534
-2.0813
-1.97424
-1.81431
-1.64418
-1.48559
-1.34368
-1.2181
-1.10713
-1.00878
0.312022
0.318978
0.3302
0.344438
0.357714
0.367539
0.373298
0.375423
0.374622
0.371492
0.263553
0.270336
0.282229
0.298339
0.314445
0.327477
0.336402
0.341481
0.343389
0.342879
0.187462
0.194011
0.206952
0.225944
0.246378
0.264292
0.278028
0.287586
0.293599
0.297084
0.0850489
0.0915383
0.105901
0.12876
0.154959
0.179329
0.199392
0.214819
0.226195
0.234917
-0.0415434
-0.0352361
-0.0189573
0.00876765
0.0420888
0.0743426
0.10208
0.124582
0.142399
0.15742
-0.18998
-0.183625
-0.165022
-0.131485
-0.0898113
-0.0484429
-0.0119135
0.0186395
0.0437486
0.065897
-0.356727
-0.350527
-0.329126
-0.288902
-0.237863
-0.186453
-0.140333
-0.101066
-0.0680901
-0.0383517
-0.5379
-0.53191
-0.507279
-0.459681
-0.398646
-0.336748
-0.28075
-0.232607
-0.191633
-0.15446
-0.730179
-0.723642
-0.694966
-0.639053
-0.567274
-0.494413
-0.428294
-0.371209
-0.322216
-0.278158
-0.92719
-0.920564
-0.887231
-0.821748
-0.737813
-0.652535
-0.574751
-0.506953
-0.448078
-0.396567
0.337776
0.26768
0.209975
0.166069
0.131339
0.102652
0.0774493
0.0542865
0.0322494
0.0107314
0.325477
0.261695
0.20751
0.164731
0.130329
0.101812
0.0767717
0.0537852
0.0319328
0.010609
0.305354
0.251675
0.203341
0.162701
0.129045
0.100874
0.0760765
0.0532967
0.0316317
0.010492
0.276856
0.237735
0.197455
0.159946
0.127471
0.0998285
0.0753551
0.0528144
0.031342
0.0103794
0.239214
0.220065
0.189846
0.156429
0.125589
0.0986652
0.0745994
0.0523319
0.0310603
0.0102707
0.191612
0.198955
0.180521
0.152112
0.123378
0.0973742
0.0738021
0.0518436
0.0307833
0.0101654
0.133352
0.174884
0.169619
0.146988
0.120821
0.0959478
0.0729571
0.0513442
0.030508
0.010064
0.0629635
0.147782
0.157299
0.141098
0.11792
0.0943852
0.0720625
0.0508301
0.0302324
0.00996673
-0.0213646
0.116171
0.14302
0.134197
0.114544
0.0926272
0.0710922
0.0502891
0.0299514
0.0098749
-0.114225
0.0806347
0.127133
0.126402
0.11067
0.0906359
0.0700198
0.0497039
0.0296549
0.00978826
-0.167589
0.0489337
0.108628
0.115338
0.104112
0.0866805
0.0675857
0.0482269
0.028873
0.00958704
-0.182478
0.0163963
0.0825744
0.0978743
0.0931373
0.0798314
0.0632873
0.0455924
0.0274466
0.00913917
-0.180696
-0.00303859
0.0643744
0.0838558
0.0833951
0.0733972
0.0591309
0.0430088
0.0260323
0.0086907
-0.175622
-0.0199147
0.0474751
0.0706275
0.0740476
0.0671422
0.0550609
0.0404685
0.0246325
0.00824085
-0.166533
-0.0316804
0.0335791
0.0589939
0.0654797
0.0612674
0.05119
0.0380353
0.0232817
0.00780211
-0.156707
-0.0404291
0.0218626
0.048775
0.0577499
0.0558713
0.0475977
0.0357617
0.022008
0.00738315
-0.148205
-0.0471613
0.0120081
0.039933
0.0509349
0.0510486
0.0443594
0.0336975
0.0208375
0.00699073
-0.14264
-0.0530995
0.00356011
0.0323861
0.0450954
0.0468914
0.0415524
0.0318962
0.0198003
0.00663832
-0.138011
-0.0583126
-0.00384122
0.02588
0.0400978
0.0433366
0.039145
0.0303374
0.0188693
0.00630131
-0.144537
-0.0647176
-0.00960717
0.0215241
0.0369023
0.0410894
0.03763
0.0293594
0.0182786
0.00608833
-0.843005
-0.876383
-0.886158
-0.87354
-0.840471
-0.78916
-0.723624
-0.644401
-0.558751
-0.465274
-0.66508
-0.698096
-0.71222
-0.70878
-0.688417
-0.654275
-0.608235
-0.55216
-0.492211
-0.429084
-0.528921
-0.561172
-0.577659
-0.579851
-0.567364
-0.544377
-0.51052
-0.469318
-0.424146
-0.375604
-0.424065
-0.455718
-0.473646
-0.479388
-0.472257
-0.456442
-0.430655
-0.399186
-0.363591
-0.325325
-0.344621
-0.375558
-0.394417
-0.402418
-0.399048
-0.387919
-0.367854
-0.343104
-0.314275
-0.283105
-0.284155
-0.314784
-0.334475
-0.344121
-0.343536
-0.335627
-0.319644
-0.299439
-0.27518
-0.248681
-0.239473
-0.270122
-0.290573
-0.30147
-0.302953
-0.297288
-0.284184
-0.267016
-0.245934
-0.22258
-0.207509
-0.238976
-0.260426
-0.272441
-0.275491
-0.271412
-0.260257
-0.245048
-0.226063
-0.205121
-0.191541
-0.222534
-0.244804
-0.258223
-0.262764
-0.259858
-0.249662
-0.234681
-0.2157
-0.192714
-0.18022
-0.213836
-0.238407
-0.25425
-0.261747
-0.261871
-0.255061
-0.242919
-0.225848
-0.2033
0.496735
0.443596
0.382004
0.31541
0.242185
0.159936
0.0684709
-0.026516
-0.105699
-0.140377
0.302115
0.24498
0.179989
0.107467
0.0254823
-0.0678111
-0.171914
-0.279951
-0.369657
-0.408286
0.0910741
0.0295656
-0.0398275
-0.117976
-0.206921
-0.308457
-0.421951
-0.539995
-0.638522
-0.679755
-0.10868
-0.176667
-0.253146
-0.339214
-0.436818
-0.547749
-0.671236
-0.799208
-0.906846
-0.94925
-0.291483
-0.367081
-0.451709
-0.546687
-0.65401
-0.775492
-0.910135
-1.04833
-1.16467
-1.20677
-0.45899
-0.541627
-0.633904
-0.737406
-0.854182
-0.985925
-1.13171
-1.28119
-1.40092
-1.44352
-0.611174
-0.699472
-0.798205
-0.909123
-1.03429
-1.17526
-1.33069
-1.48961
-1.60796
-1.65201
-0.745126
-0.837809
-0.941738
-1.05871
-1.19069
-1.33909
-1.50268
-1.66423
-1.78264
-1.82625
-0.856932
-0.9531
-1.06103
-1.18246
-1.31965
-1.47356
-1.64155
-1.80466
-1.9214
-1.9628
-0.945573
-1.04362
-1.1538
-1.2781
-1.41851
-1.57576
-1.74584
-1.90866
-2.02149
-2.0595
1.67249
1.68685
1.70303
1.71927
1.73451
1.74811
1.75931
1.76767
1.77443
1.77999
1.61963
1.63196
1.64564
1.65903
1.67111
1.68123
1.68861
1.69304
1.69644
1.70013
1.54657
1.55606
1.5662
1.5755
1.58306
1.58817
1.59006
1.58884
1.5874
1.58846
1.45382
1.45979
1.46542
1.46952
1.47131
1.47002
1.46488
1.4564
1.44875
1.44652
1.34228
1.3442
1.34458
1.34253
1.33746
1.32855
1.315
1.29784
1.28271
1.2766
1.21364
1.21115
1.20561
1.19651
1.18354
1.16579
1.14253
1.11534
1.0916
1.08122
1.07047
1.06335
1.05149
1.03476
1.01311
0.985615
0.951585
0.913259
0.879933
0.864895
0.919487
0.906933
0.887223
0.861147
0.82917
0.790323
0.744002
0.693177
0.649343
0.629503
0.765771
0.747778
0.719615
0.683197
0.63968
0.588072
0.527941
0.463182
0.407817
0.382882
0.623723
0.590614
0.546771
0.496193
0.439219
0.373894
0.299575
0.220816
0.154028
0.124193
1.51062
1.41598
1.51991
1.41554
1.44403
1.44942
1.45593
1.48129
1.52551
1.61273
1.50477
1.41079
1.51489
1.40959
1.43742
1.44128
1.44547
1.46708
1.50459
1.57825
1.49939
1.40568
1.51011
1.40303
1.43042
1.43237
1.4335
1.45019
1.47829
1.53204
1.49446
1.40066
1.50557
1.39591
1.42308
1.42268
1.42002
1.43052
1.4466
1.47364
1.48998
1.3958
1.50127
1.38826
1.41542
1.41219
1.40501
1.40793
1.40956
1.40235
1.48596
1.39114
1.49718
1.38013
1.4075
1.40087
1.38843
1.38229
1.36716
1.31754
1.48239
1.38674
1.49323
1.37159
1.39933
1.38865
1.37025
1.35353
1.3191
1.21808
1.47928
1.38268
1.48933
1.36273
1.39094
1.37551
1.35037
1.32151
1.26515
1.1062
1.47664
1.37904
1.48537
1.35371
1.38231
1.36146
1.32881
1.28603
1.20418
0.978746
1.47485
1.37593
1.48116
1.34471
1.37338
1.34657
1.30595
1.2486
1.13904
0.848977
1.47269
1.37247
1.47584
1.33579
1.36056
1.32759
1.27628
1.20102
1.06579
0.727944
1.47265
1.36872
1.47094
1.32742
1.34573
1.30726
1.24548
1.15575
1.00408
0.685427
1.47418
1.36581
1.46691
1.31966
1.33215
1.28842
1.21755
1.11694
0.954896
0.653582
1.47791
1.36403
1.4636
1.31275
1.31991
1.27134
1.1928
1.08428
0.914976
0.631853
1.48416
1.3635
1.46096
1.30683
1.30923
1.25639
1.17161
1.05741
0.883872
0.618999
1.49341
1.36424
1.45893
1.30195
1.30022
1.24375
1.15413
1.03599
0.860658
0.611963
1.50581
1.3659
1.45737
1.29808
1.29301
1.23358
1.1404
1.01966
0.844163
0.609085
1.52588
1.36976
1.45693
1.29528
1.28771
1.22597
1.1304
1.00808
0.833411
0.609742
1.54103
1.36912
1.45373
1.29328
1.28448
1.221
1.12417
1.00111
0.827371
0.613576
1.597
1.37898
1.45611
1.29111
1.28402
1.21835
1.12125
0.997687
0.824901
0.616079
0.46739
0.30067
0.1164
-0.0553082
-0.211099
-0.355264
-0.488416
-0.607188
-0.707445
-0.786317
0.405774
0.277529
0.136767
0.000974563
-0.125411
-0.244121
-0.355232
-0.45585
-0.542888
-0.613127
0.37893
0.274911
0.163752
0.0514991
-0.0563321
-0.158362
-0.254326
-0.342086
-0.418686
-0.481732
0.375163
0.283507
0.18913
0.0924489
-0.00199914
-0.0914607
-0.175731
-0.253449
-0.322016
-0.379313
0.381727
0.297728
0.214275
0.129036
0.0443143
-0.0367894
-0.113507
-0.184743
-0.248277
-0.302128
0.392838
0.314293
0.237833
0.160049
0.0817708
0.00622238
-0.0653334
-0.131978
-0.191835
-0.243019
0.404992
0.330489
0.258719
0.185861
0.111906
0.0400625
-0.0281138
-0.0917861
-0.149313
-0.198971
0.416978
0.345058
0.276375
0.206534
0.135118
0.0654265
-0.000806984
-0.0627541
-0.118847
-0.167435
0.431072
0.360991
0.293438
0.224055
0.152847
0.083205
0.0169137
-0.0451636
-0.101609
-0.150845
0.444757
0.378208
0.311345
0.241228
0.169761
0.0998516
0.0328802
-0.0300677
-0.0874782
-0.13788
-3.16989
-3.11065
-2.95991
-2.76403
-2.57098
-2.40054
-2.25596
-2.1359
-2.03916
-1.96605
-3.25559
-3.20716
-3.07353
-2.88625
-2.6938
-2.52088
-2.37332
-2.25047
-2.15187
-2.07891
-3.24375
-3.20677
-3.09231
-2.91564
-2.72371
-2.54713
-2.39548
-2.2691
-2.16744
-2.09163
-3.13957
-3.11384
-3.01807
-2.85239
-2.66021
-2.47825
-2.32068
-2.18931
-2.0833
-2.00235
-2.95092
-2.93539
-2.85592
-2.70126
-2.50932
-2.32193
-2.15788
-2.02094
-1.9103
-1.82395
-2.68741
-2.67971
-2.61325
-2.47024
-2.28188
-2.09254
-1.92465
-1.784
-1.67015
-1.5816
-2.36255
-2.35993
-2.3039
-2.17428
-1.99596
-1.81217
-1.64682
-1.50742
-1.3935
-1.30609
-2.00035
-1.99856
-1.95029
-1.83593
-1.67483
-1.50564
-1.35117
-1.21966
-1.11123
-1.02864
-1.62709
-1.62426
-1.58235
-1.48483
-1.34662
-1.19979
-1.06431
-0.948
-0.851299
-0.780923
-1.26779
-1.26341
-1.22743
-1.14657
-1.03277
-0.911184
-0.797911
-0.699364
-0.614375
-0.549923
-0.940649
-0.933965
-0.903805
-0.838383
-0.748048
-0.652126
-0.563334
-0.487176
-0.422752
-0.3674
-0.652899
-0.645361
-0.620052
-0.567757
-0.49733
-0.423317
-0.355259
-0.297144
-0.24865
-0.204745
-0.405876
-0.39826
-0.376858
-0.335097
-0.280446
-0.223802
-0.17216
-0.128191
-0.0917778
-0.0583323
-0.198103
-0.190654
-0.172411
-0.139208
-0.0973658
-0.0550203
-0.0171689
0.0145254
0.0402975
0.0636005
-0.0273404
-0.0201455
-0.00441666
0.0219304
0.0535029
0.0842724
0.11082
0.13225
0.148978
0.163386
0.108627
0.115533
0.129372
0.15049
0.174201
0.196049
0.213816
0.227172
0.236665
0.243896
0.211357
0.218252
0.230691
0.24803
0.26604
0.281378
0.292692
0.300054
0.304105
0.305926
0.282187
0.289178
0.30068
0.315544
0.3298
0.340822
0.347831
0.351164
0.351516
0.349653
0.322089
0.329143
0.340155
0.35373
0.366019
0.374759
0.379475
0.380644
0.378991
0.375109
0.331803
0.33885
0.349775
0.363158
0.375144
0.383514
0.387842
0.38864
0.386631
0.382359
-0.0488875
0.110704
0.144051
0.143095
0.128876
0.108407
0.0854737
0.0615565
0.0371749
0.0124974
0.0559574
0.145595
0.158709
0.149242
0.130203
0.107896
0.0844215
0.0605403
0.0364757
0.0122563
0.13933
0.173889
0.170533
0.153387
0.131125
0.107365
0.0834421
0.0596044
0.0358334
0.0120332
0.201799
0.197898
0.180951
0.157321
0.131886
0.106852
0.08254
0.058746
0.0352442
0.0118271
0.249575
0.218965
0.190009
0.160543
0.132436
0.106338
0.081702
0.0579569
0.0347036
0.0116361
0.285818
0.236773
0.197417
0.163067
0.132787
0.105818
0.0809188
0.0572303
0.0342075
0.0114589
0.312224
0.250925
0.203192
0.164939
0.132937
0.105279
0.0801795
0.0565593
0.0337518
0.0112939
0.330038
0.261217
0.207349
0.166174
0.132878
0.104706
0.0794735
0.0559366
0.0333324
0.01114
0.340032
0.267441
0.209875
0.166776
0.1326
0.104086
0.0787901
0.0553551
0.032945
0.0109957
0.342585
0.269597
0.210757
0.166744
0.132092
0.103406
0.0781188
0.0548074
0.0325854
0.0108599
-0.266106
-0.0133505
0.0845317
0.115965
0.117862
0.104952
0.0851692
0.0623335
0.038058
0.0129079
-0.243193
0.00942213
0.0934923
0.119564
0.118995
0.105234
0.0851544
0.0622199
0.0379316
0.0128505
-0.200168
0.0272214
0.10178
0.12337
0.120684
0.105798
0.0852226
0.0621136
0.0377947
0.0127837
-0.158133
0.0507599
0.113496
0.12894
0.123136
0.106731
0.0854532
0.0620741
0.0376882
0.0127276
-0.113961
0.0815669
0.129953
0.136999
0.126632
0.107999
0.0858288
0.0620955
0.0376104
0.0126826
-1.90207
-2.01035
-2.03075
-1.96424
-1.81857
-1.6308
-1.39063
-1.16189
-0.922422
-0.6975
-1.89952
-2.00584
-2.02128
-1.94932
-1.80017
-1.60968
-1.36667
-1.13065
-0.897278
-0.672476
-1.90136
-2.00806
-2.02045
-1.94252
-1.78591
-1.58251
-1.33195
-1.07876
-0.840941
-0.627148
-1.91074
-2.01979
-2.03073
-1.94607
-1.77855
-1.555
-1.29231
-1.02391
-0.788069
-0.589175
-1.92906
-2.04097
-2.05072
-1.95936
-1.78006
-1.53866
-1.26453
-0.990421
-0.749663
-0.538627
1.09969
1.07753
1.04705
1.01158
0.971516
0.924971
0.870675
0.81165
0.760972
0.737141
1.22717
1.22093
1.20681
1.18645
1.16092
1.12917
1.09034
1.047
1.00984
0.992864
1.35189
1.35089
1.34477
1.33424
1.31973
1.30034
1.27519
1.24606
1.22114
1.21033
1.46122
1.4651
1.46633
1.46461
1.45978
1.451
1.43743
1.4202
1.40533
1.39962
1.5535
1.56123
1.56786
1.57268
1.57522
1.57467
1.57021
1.56244
1.55573
1.55436
1.6256
1.63656
1.64767
1.65785
1.66634
1.67243
1.67528
1.67507
1.67475
1.67674
1.67679
1.69021
1.70469
1.71883
1.73173
1.74271
1.75098
1.75635
1.76074
1.76523
1.70704
1.72208
1.73878
1.75553
1.77133
1.78552
1.79732
1.80633
1.81375
1.81984
1.71636
1.73209
1.74981
1.76778
1.78492
1.8006
1.81407
1.82476
1.83358
1.84037
1.70481
1.72033
1.73786
1.75564
1.77258
1.78805
1.8013
1.81177
1.82035
1.82696
-1.76434
-1.83923
-1.93489
-2.05206
-2.19329
-2.3608
-2.55336
-2.75462
-2.91817
-2.98616
-1.48723
-1.56454
-1.65978
-1.77423
-1.91147
-2.07405
-2.26177
-2.46672
-2.63838
-2.71106
-1.15525
-1.23403
-1.32892
-1.44094
-1.57364
-1.73003
-1.91059
-2.10535
-2.28607
-2.35984
-0.793144
-0.872368
-0.96624
-1.07517
-1.20218
-1.35044
-1.52065
-1.70571
-1.87767
-1.95434
-0.427384
-0.506359
-0.597745
-0.701607
-0.820681
-0.958272
-1.11578
-1.28692
-1.4431
-1.51683
-0.0852808
-0.160681
-0.246026
-0.341272
-0.449088
-0.572848
-0.714128
-0.867092
-1.0049
-1.07216
0.219405
0.152729
0.0778326
-0.00518883
-0.0989564
-0.206712
-0.329871
-0.462895
-0.581386
-0.639761
0.49394
0.438494
0.375827
0.306027
0.226456
0.134161
0.0281661
-0.086062
-0.18633
-0.235402
0.753102
0.706366
0.652308
0.592127
0.523347
0.443402
0.351782
0.253853
0.169551
0.129117
0.979318
0.937797
0.887435
0.833401
0.774094
0.706953
0.631099
0.550832
0.482721
0.450637
1.60592
1.46527
1.56683
1.43574
1.48761
1.48529
1.48217
1.48237
1.44693
1.2886
1.59193
1.46117
1.56438
1.43677
1.48488
1.48564
1.48422
1.49276
1.47852
1.37396
1.57929
1.45669
1.56097
1.43732
1.48181
1.48521
1.48696
1.50232
1.50582
1.45954
1.56788
1.45193
1.55679
1.43727
1.47842
1.48388
1.48803
1.50877
1.52646
1.52479
1.5575
1.44699
1.55203
1.43648
1.4747
1.48157
1.48769
1.51262
1.5415
1.57582
1.548
1.44193
1.54688
1.43492
1.47063
1.47832
1.486
1.51384
1.55144
1.61259
1.53928
1.4368
1.5415
1.43255
1.46616
1.47419
1.4829
1.51244
1.55651
1.63625
1.53124
1.43163
1.53601
1.4294
1.46129
1.46921
1.47837
1.50846
1.55658
1.64767
1.52382
1.42642
1.53052
1.42548
1.45598
1.4634
1.47237
1.50194
1.55144
1.64742
1.51696
1.42119
1.52513
1.42085
1.45022
1.4568
1.4649
1.49289
1.5411
1.63575
1.74392
1.47917
1.57132
1.43465
1.4897
1.47817
1.46286
1.43656
1.34742
1.14771
1.68564
1.4732
1.56968
1.43628
1.48864
1.47977
1.46432
1.43995
1.35438
1.15196
1.664
1.47494
1.571
1.4367
1.48887
1.48103
1.46725
1.44639
1.36842
1.16196
1.64094
1.47259
1.57011
1.43645
1.48898
1.48238
1.47132
1.45563
1.38739
1.18193
1.62177
1.46913
1.56861
1.43564
1.48894
1.4837
1.47589
1.46706
1.41142
1.20398
0.793685
0.639499
0.437005
0.172111
-0.142763
-0.482688
-0.825542
-1.15821
-1.46378
-1.71702
0.793048
0.639813
0.444233
0.188897
-0.117188
-0.45424
-0.800659
-1.13952
-1.45194
-1.71159
0.813493
0.655422
0.456554
0.207026
-0.0916563
-0.428486
-0.781121
-1.12685
-1.44525
-1.71026
0.865592
0.689037
0.474786
0.224266
-0.0704766
-0.407916
-0.766985
-1.12017
-1.44464
-1.7152
0.946063
0.740309
0.50064
0.2402
-0.0563355
-0.394995
-0.758614
-1.11853
-1.44991
-1.7276
)
;

boundaryField
{
    left
    {
        type            zeroGradient;
    }
    right
    {
        type            fixedValue;
        value           uniform 0;
    }
    down
    {
        type            zeroGradient;
    }
    up
    {
        type            zeroGradient;
    }
    cylinder
    {
        type            zeroGradient;
    }
    defaultFaces
    {
        type            empty;
    }
}


// ************************************************************************* //
