/*--------------------------------*- C++ -*----------------------------------*\
  =========                 |
  \\      /  F ield         | OpenFOAM: The Open Source CFD Toolbox
   \\    /   O peration     | Website:  https://openfoam.org
    \\  /    A nd           | Version:  13
     \\/     M anipulation  |
\*---------------------------------------------------------------------------*/
FoamFile
{
    format      ascii;
    class       surfaceScalarField;
    location    "0.595";
    object      phi;
}
// * * * * * * * * * * * * * * * * * * * * * * * * * * * * * * * * * * * * * //

dimensions      [0 3 -1 0 0 0 0];

internalField   nonuniform List<scalar> 
3485
(
0.00220312
-0.00529729
0.00309418
0.00870532
-0.0521325
0.0456303
0.0180316
-0.102326
0.0929999
0.0283892
-0.133673
0.123316
0.0387428
-0.146864
0.136511
0.0487248
-0.149547
0.139565
0.0582703
-0.147625
0.13808
0.0673785
-0.14411
0.135002
0.0760263
-0.140114
0.131466
-0.135858
0.127436
0.0844475
0.00267703
-0.00797432
0.00967798
-0.0591335
0.019092
-0.11174
0.0291504
-0.143732
0.0390259
-0.15674
0.0485583
-0.15908
0.0578462
-0.156913
0.0670367
-0.153301
0.0763408
-0.149418
-0.14561
0.0860937
0.00309799
-0.0110723
0.0104619
-0.0664974
0.0197274
-0.121006
0.0291475
-0.153152
0.0380685
-0.165661
0.0464584
-0.16747
0.0544591
-0.164914
0.0621956
-0.161037
0.0697427
-0.156965
-0.152933
0.0770649
0.0035343
-0.0146066
0.0112227
-0.0741857
0.0202953
-0.130078
0.029093
-0.16195
0.0371903
-0.173758
0.0447306
-0.17501
0.0519495
-0.172133
0.0590076
-0.168095
0.0659945
-0.163952
-0.16
0.0730617
0.00387929
-0.0184859
0.0116948
-0.0820013
0.0203227
-0.138706
0.0282267
-0.169854
0.0352078
-0.180739
0.0415583
-0.181361
0.0475773
-0.178152
0.0534431
-0.173961
0.0592524
-0.169761
-0.165799
0.0650519
0.00416697
-0.0226529
0.0119556
-0.0897899
0.0199859
-0.146737
0.0269051
-0.176773
0.0327516
-0.186586
0.0379544
-0.186563
0.0428614
-0.183059
0.0476551
-0.178755
0.0524151
-0.174521
-0.170584
0.0571999
0.00433596
-0.0269888
0.0118706
-0.0973245
0.0190792
-0.153945
0.0248418
-0.182535
0.0294251
-0.191169
0.0333705
-0.190509
0.0370579
-0.186746
0.0406702
-0.182367
0.0442825
-0.178133
-0.174228
0.0479259
0.00438349
-0.0313723
0.0114451
-0.104386
0.0176445
-0.160145
0.0221452
-0.187036
0.0254155
-0.19444
0.0280782
-0.193171
0.0305221
-0.18919
0.0329174
-0.184763
0.0353276
-0.180543
-0.176672
0.0377716
0.00428373
-0.035656
0.0106427
-0.110745
0.0156599
-0.165162
0.0188123
-0.190188
0.0207291
-0.196356
0.0220879
-0.19453
0.0232705
-0.190373
0.0244315
-0.185924
0.0256243
-0.181736
-0.177901
0.0268539
0.00404082
-0.0396969
0.0094948
-0.116199
0.0132073
-0.168874
0.014956
-0.191937
0.0155045
-0.196905
0.0155596
-0.194585
0.0154827
-0.190296
0.0154088
-0.18585
0.0153791
-0.181706
0.0153909
-0.177913
-0.000707078
0.000279725
0.000427353
0.00205292
-0.00726312
0.00450312
0.00968292
-0.016596
0.00896605
0.020832
-0.0230595
0.0119104
0.0337449
-0.0261896
0.0132767
0.0472458
-0.027157
0.0136561
0.0607384
-0.0270492
0.0135566
0.0739743
-0.0265048
0.0132689
0.0868798
-0.0258343
0.0129288
-0.0253488
0.0996183
0.0126104
-0.000617664
0.000897388
0.00227243
-0.0101532
0.00998236
-0.024306
0.0211379
-0.0342151
0.0339987
-0.0390503
0.0474117
-0.04057
0.0607979
-0.0404354
0.0739204
-0.0396274
0.0867134
-0.0386273
-0.0379769
0.0993414
-0.000489777
0.00138717
0.00258593
-0.0132289
0.0104133
-0.0321334
0.0215836
-0.0453854
0.0343768
-0.0518435
0.0476714
-0.0538646
0.0609128
-0.0536768
0.0738791
-0.0525937
0.0865151
-0.0512633
-0.0504483
0.0989865
-0.000309059
0.00169622
0.00301808
-0.0165561
0.011007
-0.0401223
0.0222017
-0.05658
0.0349103
-0.0645522
0.0480546
-0.0670089
0.061113
-0.0667352
0.0738834
-0.0653641
0.0863229
-0.0637028
-0.0627203
0.098595
-8.66219e-05
0.00178285
0.00357998
-0.0202227
0.0117841
-0.0483264
0.0230142
-0.0678101
0.0356212
-0.0771592
0.0485851
-0.0799728
0.061428
-0.079578
0.0739725
-0.0779087
0.0861891
-0.0759193
-0.0747586
0.0982274
0.000201666
0.00158118
0.00428806
-0.0243091
0.012752
-0.0567903
0.0240192
-0.0790774
0.0365
-0.08964
0.0492511
-0.0927239
0.061851
-0.0921779
0.074154
-0.0902117
0.0861411
-0.0879064
-0.0865327
0.0979151
0.000561427
0.00101975
0.00513633
-0.028884
0.0138851
-0.0655391
0.0251687
-0.0903609
0.0374753
-0.101947
0.0499608
-0.105209
0.0622771
-0.104494
0.0743202
-0.102255
0.0860767
-0.0996629
-0.0979838
0.0975278
0.000972291
4.74607e-05
0.00607829
-0.03399
0.0150973
-0.0745581
0.0263308
-0.101594
0.0383664
-0.113982
0.0504777
-0.117321
0.0624028
-0.116419
0.0740869
-0.113939
0.0855146
-0.111091
-0.108913
0.0964443
0.00137565
-0.00132819
0.00698417
-0.0395985
0.0161806
-0.0837545
0.0272212
-0.112635
0.0388091
-0.12557
0.0503419
-0.128853
0.0616368
-0.127714
0.0726739
-0.124976
0.0834157
-0.121832
-0.118864
0.0933658
0.00176598
0.00779783
0.0170432
0.027724
0.0386646
0.0493767
0.0597423
0.0697684
0.0794017
0.0879745
0.154059
-0.155647
0.101206
0.181004
-0.110256
0.0833107
0.194546
-0.0824066
0.0688651
0.201242
-0.0623531
0.0556564
0.204288
-0.0470377
0.0439922
0.205257
-0.0349797
0.0340101
0.205013
-0.0253551
0.0255997
0.204022
-0.0174827
0.0184732
0.202576
-0.0114362
0.0128825
-0.00355218
0.00545166
0.152909
-0.209215
0.180004
-0.137351
0.193836
-0.0962389
0.200786
-0.0693027
0.20403
-0.0502821
0.205159
-0.0361088
0.205048
-0.025244
0.204179
-0.0166136
0.202849
-0.0101057
-0.00177401
0.150973
-0.261201
0.178116
-0.164494
0.192291
-0.110414
0.199587
-0.0765994
0.203142
-0.0538365
0.204552
-0.0375188
0.204702
-0.0253941
0.204084
-0.0159956
0.203001
-0.00902332
-0.000253593
0.148228
-0.310834
0.175328
-0.191594
0.189906
-0.124992
0.197649
-0.0843418
0.201626
-0.0578133
0.203438
-0.0393312
0.203975
-0.0259311
0.203739
-0.0157593
0.203037
-0.00832127
0.000875636
0.144672
-0.357279
0.171631
-0.218553
0.186685
-0.140046
0.194976
-0.0926328
0.19949
-0.0623265
0.201824
-0.0416656
0.202872
-0.0269792
0.203143
-0.0160303
0.20295
-0.00812835
0.00147961
0.140282
-0.399645
0.166997
-0.245268
0.182628
-0.155678
0.191579
-0.101584
0.196744
-0.0674918
0.199718
-0.0446398
0.201398
-0.0286588
0.2023
-0.0169326
0.202744
-0.00857175
0.00142785
0.134985
-0.437102
0.161355
-0.271638
0.177711
-0.172034
0.18746
-0.111332
0.1934
-0.0734325
0.197134
-0.0483731
0.199564
-0.0310887
0.201216
-0.018585
0.202417
-0.00977282
0.000593691
0.128741
-0.469399
0.154574
-0.29747
0.171849
-0.18931
0.182599
-0.122081
0.189461
-0.0802951
0.194076
-0.0529878
0.197375
-0.034388
0.199896
-0.021106
0.201973
-0.0118494
-0.00114584
0.12171
-0.497743
0.146589
-0.32235
0.164854
-0.207575
0.176877
-0.134104
0.184881
-0.0882988
0.190537
-0.0586437
0.194834
-0.0386854
0.198342
-0.0246136
0.201411
-0.0149189
-0.00390976
0.114896
-0.524664
0.138757
-0.346211
0.157182
-0.226
0.170359
-0.147281
0.179639
-0.0975788
0.1865
-0.0655051
0.191941
-0.0441259
0.196557
-0.0292301
0.200734
-0.0190955
-0.00781365
0.379641
-0.463387
-0.440918
0.347545
-0.314114
0.33123
-0.209685
0.323387
-0.139438
0.31929
-0.0934811
0.316846
-0.0630618
0.31523
-0.0425089
0.314128
-0.028129
0.313381
-0.0183477
-0.00749679
0.391782
-0.392583
-0.462586
0.356547
-0.278879
0.338783
-0.191921
0.329223
-0.129878
0.323478
-0.0877358
0.319777
-0.0593607
0.317296
-0.0400282
0.315633
-0.0264664
0.314534
-0.0172486
-0.00704135
0.407805
-0.327072
-0.473317
0.369949
-0.241023
0.348172
-0.170144
0.33552
-0.117225
0.32771
-0.0799259
0.322655
-0.0543059
0.319297
-0.0366706
0.317078
-0.0242469
0.31563
-0.0158006
-0.00644928
0.417944
-0.26643
-0.478586
0.379586
-0.202665
0.355734
-0.146293
0.34094
-0.102431
0.33148
-0.0704652
0.325263
-0.0480894
0.321126
-0.0325334
0.318401
-0.0215218
0.31663
-0.0140296
-0.00572814
0.425085
-0.210744
-0.48077
0.387128
-0.164708
0.361978
-0.121143
0.345561
-0.0860144
0.334757
-0.059661
0.327558
-0.0408897
0.322745
-0.0277205
0.319574
-0.0183509
0.317514
-0.0119703
-0.00489031
0.429998
-0.159568
-0.481173
0.392824
-0.127535
0.366931
-0.0952496
0.349344
-0.0684277
0.337489
-0.0478061
0.329493
-0.032894
0.324118
-0.0223451
0.320572
-0.0148049
0.318267
-0.00966563
-0.00395162
0.433239
-0.112088
-0.480719
0.396941
-0.0912377
0.370668
-0.0689763
0.352279
-0.0500385
0.339643
-0.0351707
0.331032
-0.0242828
0.325213
-0.0165254
0.321368
-0.0109605
0.318863
-0.00716089
-0.00292833
0.434775
-0.0668739
-0.479989
0.399232
-0.0556951
0.372871
-0.0426156
0.354039
-0.0312062
0.340913
-0.0220448
0.331895
-0.015265
0.325777
-0.0104076
0.321727
-0.00691062
0.319081
-0.00451426
-0.00184379
0.427289
-0.0203015
-0.473861
0.392463
-0.0208697
0.366896
-0.0170478
0.348507
-0.0128172
0.335592
-0.00913057
0.326676
-0.00634838
0.320609
-0.00434114
0.316593
-0.00289394
0.313965
-0.00188687
-0.000766205
0.310512
-0.330813
0.289642
0.272594
0.259777
0.250647
0.244298
0.239957
0.237063
0.235176
0.472532
0.0134813
-0.470622
0.473666
0.0257197
0.473904
0.0375332
0.473175
0.0486552
0.470987
0.059388
0.468448
0.0675908
0.462194
0.0793156
0.458773
0.0804856
0.447096
0.0977714
0.0906247
0.453652
0.0116491
-0.45182
0.455562
0.0238094
0.457438
0.0356576
0.459368
0.0467246
0.460746
0.0580104
0.462614
0.0657224
0.462825
0.0791053
0.463919
0.0793917
0.464821
0.0968689
0.0928596
0.437328
0.00979432
-0.435474
0.439815
0.0213224
0.442836
0.0326365
0.446422
0.043139
0.450348
0.0540844
0.454633
0.0614379
0.459486
0.0742515
0.463469
0.0754088
0.469596
0.0907426
0.0891385
0.424829
0.00795974
-0.422994
0.427649
0.0185021
0.431399
0.0288865
0.436012
0.038526
0.441577
0.0485192
0.44749
0.0555252
0.455046
0.0666952
0.461593
0.0688622
0.470863
0.0814731
0.0814151
0.415056
0.00613998
-0.413237
0.418113
0.0154454
0.422381
0.0246184
0.427737
0.0331704
0.434373
0.0418829
0.441559
0.0483393
0.450692
0.0575619
0.459258
0.0602967
0.470454
0.0702771
0.0710985
0.407676
0.00430995
-0.405846
0.410915
0.0122065
0.415542
0.0199915
0.421424
0.0272884
0.428734
0.0345724
0.436842
0.0402315
0.446858
0.0475462
0.456797
0.0503576
0.469114
0.0579593
0.0590397
0.402289
0.00244022
-0.40042
0.405691
0.0088047
0.410596
0.015087
0.416876
0.0210078
0.424631
0.0268178
0.433379
0.031483
0.443886
0.0370399
0.454725
0.039518
0.467626
0.0450584
0.0459471
0.39743
0.000315855
-0.395306
0.401131
0.00510439
0.406444
0.00977368
0.413236
0.0142158
0.421504
0.0185501
0.430878
0.0221089
0.441775
0.026142
0.453252
0.0280416
0.466474
0.0318358
0.032433
0.377636
-0.0016195
-0.3757
0.381817
0.000922508
0.388067
0.00352361
0.396216
0.00606693
0.40616
0.00860623
0.417462
0.0108069
0.430325
0.0132796
0.443785
0.0145812
0.458692
0.0169292
0.0172635
0.238834
-0.240453
0.239756
0.24328
0.249347
0.257953
0.26876
0.28204
0.296621
0.31355
0.077719
0.127704
-0.115575
-0.0898482
0.0665945
0.12962
-0.118495
0.0563808
0.132394
-0.12218
0.0465825
0.136102
-0.126303
0.0368259
0.140234
-0.130478
0.0269855
0.144109
-0.134269
0.0172851
0.145435
-0.135735
0.00854844
0.137445
-0.128708
0.0022972
0.108268
-0.102017
0.0486156
-0.0463184
0.0799298
0.138872
-0.0910983
0.0684617
0.141088
0.057356
0.1435
0.0467473
0.14671
0.0364656
0.150516
0.0263872
0.154188
0.0166896
0.155133
0.00813351
0.146001
0.00212778
0.114274
0.0507434
0.0734211
0.14839
-0.0829388
0.0633904
0.151119
0.053248
0.153642
0.0432425
0.156716
0.0334103
0.160348
0.0237736
0.163824
0.0146107
0.164295
0.0067481
0.153863
0.00152684
0.119495
0.0522702
0.0615648
0.15599
-0.0691649
0.0535629
0.15912
0.0451936
0.162012
0.0366063
0.165303
0.0279221
0.169032
0.0193022
0.172444
0.0111784
0.172419
0.00452257
0.160519
0.000614917
0.123403
0.0528851
0.0487918
0.162039
-0.0548405
0.0424714
0.165441
0.0357425
0.168741
0.0286552
0.17239
0.0213299
0.176358
0.0139955
0.179778
0.00718803
0.179227
0.00197063
0.165737
-0.000348638
0.125722
0.0525365
0.0370805
0.167011
-0.0420532
0.0319311
0.17059
0.0264497
0.174222
0.0206419
0.178198
0.0146067
0.182393
0.00859193
0.185793
0.00321229
0.184606
-0.000554119
0.169503
-0.00124545
0.126414
0.051291
0.0263393
0.171142
-0.0304696
0.0221051
0.174825
0.0176428
0.178684
0.0129482
0.182893
0.00810625
0.187235
0.00337654
0.190523
-0.000673165
0.188656
-0.00263446
0.171464
-0.00203016
0.125809
0.0492609
0.0159537
0.174393
-0.0192049
0.0126359
0.178142
0.00916756
0.182153
0.00555614
0.186504
0.00188598
0.190905
-0.00156577
0.193975
-0.00401798
0.191108
-0.00462648
0.172073
-0.00265975
0.123843
0.0466011
0.00558016
0.176695
-0.00788207
0.00325155
0.180471
0.000842831
0.184561
-0.00163465
0.188982
-0.00409016
0.19336
-0.00620874
0.196093
-0.00734306
0.192243
-0.00646664
0.171196
-0.00322383
0.1206
0.0433773
-0.00483411
0.00361598
-0.00606959
-0.00735804
-0.00867216
-0.00989715
-0.0107088
-0.0104032
-0.00808117
-0.00368043
0.103621
0.0240438
-0.114937
-0.0127277
0.0919852
0.024667
-0.0130314
0.0799938
0.0253394
-0.013348
0.0676217
0.026058
-0.0136859
0.0548583
0.0268143
-0.0140509
0.0417158
0.0275712
-0.0144287
0.0283544
0.0280594
-0.014698
0.0154941
0.0272198
-0.0143596
0.0050113
0.0226638
-0.012181
0.0112702
-0.00625891
0.102849
0.0353447
-0.11415
0.0912444
0.0362719
0.0792982
0.0372856
0.0669859
0.0383702
0.0542964
0.0395038
0.0412426
0.040625
0.0279881
0.0413138
0.015257
0.0399509
0.0049148
0.033006
0.016185
0.10173
0.0466156
-0.113001
0.0901781
0.0478242
0.0783038
0.0491599
0.0660822
0.0505918
0.0535014
0.0520846
0.0405749
0.0535515
0.027472
0.0544168
0.0149234
0.0524995
0.00477872
0.0431507
0.0209637
0.100151
0.0578295
-0.111365
0.088685
0.0592899
0.0769211
0.0609238
0.0648326
0.0626803
0.0524063
0.0645109
0.0396571
0.0663007
0.0267624
0.0673115
0.0144641
0.0647978
0.00459045
0.0530244
0.0255542
0.0979474
0.0689438
-0.109062
0.0866261
0.0706112
0.0750411
0.0725088
0.0631591
0.0745623
0.0509605
0.0767095
0.0384592
0.078802
0.0258426
0.0799281
0.013869
0.0767714
0.00434725
0.0625461
0.0299014
0.0949297
0.0798771
-0.105863
0.0838258
0.0817151
0.072485
0.0838497
0.0608777
0.0861696
0.0489862
0.0886009
0.0368264
0.0909618
0.0245954
0.0921591
0.0130646
0.0883022
0.00401599
0.0715947
0.0339174
0.0911844
0.0904288
-0.101736
0.0805384
0.092361
0.0696648
0.0947233
0.0584913
0.0973431
0.0469931
0.100099
0.0352043
0.102751
0.0233611
0.104002
0.0122769
0.0993863
0.00370911
0.0801625
0.0376265
0.084641
0.100511
-0.0947232
0.0745403
0.102462
0.0643256
0.104938
0.0539203
0.107748
0.0432457
0.110774
0.0322853
0.113711
0.0212591
0.115029
0.0109881
0.109657
0.00319535
0.0879552
0.0408219
0.0823018
0.109179
-0.0909696
0.0731878
0.111576
0.0633803
0.114746
0.0530421
0.118087
0.0423312
0.121485
0.0313765
0.124666
0.020473
0.125932
0.0104648
0.119666
0.00300636
0.0954137
0.0438282
0.0691056
-0.0755013
0.0621861
0.0547512
0.0465344
0.0375415
0.0279386
0.0181359
0.00909361
0.00249014
0.202126
0.012244
-0.01638
0.204763
0.0284203
-0.0310576
0.205309
0.0349881
-0.0355336
0.20626
0.0367633
-0.0377149
0.20537
0.0432514
-0.0423612
0.202885
0.0518775
-0.0493923
0.196781
0.064684
-0.0585799
0.186123
0.0815453
-0.0708874
0.160423
0.109751
-0.084051
0.146592
-0.101106
0.201851
0.00838247
0.204342
0.0259297
0.204837
0.0344927
0.20573
0.0358704
0.204763
0.0442181
0.202142
0.0544986
0.195899
0.0709275
0.184914
0.0925304
0.159261
0.135404
0.191702
0.201454
0.00491863
0.203656
0.0237276
0.204004
0.0341447
0.204695
0.0351794
0.203526
0.0453869
0.200644
0.057381
0.194178
0.0773935
0.182737
0.103971
0.157311
0.16083
0.236012
0.200925
0.0019835
0.202704
0.0219482
0.202817
0.0340318
0.203165
0.0348319
0.201671
0.0468804
0.198405
0.0606475
0.191622
0.0841759
0.179576
0.116018
0.154621
0.185784
0.279269
0.200262
-0.00028838
0.201495
0.0207152
0.20129
0.0342367
0.201153
0.0349689
0.199216
0.048817
0.195445
0.0644186
0.188246
0.0913756
0.175399
0.128864
0.151259
0.209925
0.321466
0.199459
-0.00175739
0.200034
0.0201404
0.199436
0.0348346
0.198673
0.0357319
0.196181
0.0513086
0.191786
0.0688136
0.184056
0.0991051
0.170219
0.142701
0.147242
0.232902
0.362845
0.198507
-0.00227431
0.198328
0.020319
0.197273
0.0358896
0.195742
0.0372626
0.192588
0.0544627
0.187447
0.0739554
0.179045
0.107507
0.164156
0.15759
0.142645
0.254413
0.403753
0.197405
-0.00168903
0.196394
0.0213291
0.194821
0.0374634
0.192381
0.0397018
0.188466
0.0583785
0.182449
0.0799724
0.173172
0.116783
0.157126
0.173637
0.136646
0.274892
0.445676
0.196163
0.000138038
0.194264
0.0232276
0.192095
0.0396324
0.188605
0.0431921
0.183839
0.0631445
0.176859
0.0869529
0.166703
0.126939
0.150477
0.189863
0.131821
0.293548
0.486528
0.194904
0.00322431
0.192002
0.0261294
0.189126
0.0425084
0.184378
0.0479393
0.178574
0.0689495
0.170144
0.0953827
0.158097
0.138985
0.140283
0.207677
0.121383
0.312448
0.53241
0.303445
0.00178934
0.306869
0.0227054
0.31074
0.0386373
0.31335
0.0453299
0.31638
0.0659193
0.319827
0.0919355
0.325375
0.133438
0.336533
0.196519
0.362177
0.286804
0.470252
0.424335
0.304298
-0.000498849
0.308032
0.0189713
0.312467
0.0342024
0.315891
0.0419061
0.320347
0.061464
0.32599
0.0862922
0.334971
0.124457
0.35089
0.180599
0.380495
0.257199
0.406579
0.444168
0.305152
-0.00364044
0.309399
0.0147237
0.314216
0.0293857
0.318436
0.0376866
0.324088
0.0558114
0.33159
0.0787908
0.343263
0.112783
0.361998
0.161864
0.395475
0.223723
0.343347
0.458708
0.30606
-0.00769067
0.310833
0.00995121
0.315933
0.0242852
0.320841
0.0327787
0.327513
0.0491397
0.336569
0.0697347
0.350302
0.0990503
0.371183
0.140983
0.40611
0.188795
0.282713
0.466744
0.307068
-0.0127484
0.31235
0.00466959
0.317596
0.0190389
0.323047
0.0273271
0.330549
0.0416383
0.340865
0.0594188
0.356118
0.0837966
0.378628
0.118474
0.413367
0.154056
0.225626
0.470454
0.308238
-0.0189761
0.313998
-0.00109021
0.319179
0.0138575
0.325002
0.0215048
0.333151
0.0334886
0.344442
0.0481279
0.36078
0.0674588
0.384428
0.0948262
0.418212
0.120272
0.172218
0.471619
0.309642
-0.0266081
0.315815
-0.0072635
0.320663
0.0090099
0.326657
0.0155103
0.335278
0.0248682
0.347279
0.036127
0.364363
0.0503743
0.388728
0.0704619
0.421363
0.0876368
0.122125
0.471457
0.311404
-0.0360017
0.317802
-0.0136613
0.321891
0.0049208
0.327804
0.00959746
0.336736
0.0159359
0.349226
0.0236365
0.366824
0.0327772
0.391572
0.0457132
0.423264
0.0559456
0.0748995
0.470489
0.309626
-0.0436171
0.314604
-0.0186398
0.31784
0.00168441
0.323716
0.00372178
0.332823
0.00682861
0.345638
0.0108215
0.363606
0.0148101
0.388479
0.0208394
0.419852
0.0245732
0.0324553
0.462296
0.258393
0.239753
0.241438
0.245159
0.251988
0.26281
0.27762
0.298459
0.323032
0.355487
0.439331
-0.104845
0.445306
-0.0970728
0.448118
-0.0857511
0.450464
-0.0715109
0.453401
-0.0577777
0.456996
-0.045648
0.460885
-0.034359
0.464622
-0.0229412
0.467857
-0.0111174
0.000850954
0.445324
-0.106001
0.444327
-0.0960758
0.44295
-0.0843748
0.44289
-0.0714505
0.443976
-0.0588641
0.445505
-0.0471771
0.447074
-0.0359281
0.448651
-0.024518
0.450268
-0.0127345
-0.000700416
0.452437
-0.0997308
0.447026
-0.0906644
0.442253
-0.0796019
0.438697
-0.0678942
0.436321
-0.0564879
0.434793
-0.0456498
0.433963
-0.035098
0.433819
-0.0243735
0.434342
-0.0132584
-0.0018316
0.456278
-0.0892645
0.4472
-0.0815867
0.439455
-0.071857
0.43334
-0.0617785
0.428838
-0.0519868
0.42564
-0.0424511
0.423498
-0.0329561
0.422336
-0.0232115
0.422161
-0.013083
-0.00266545
0.457666
-0.0764763
0.446406
-0.0703263
0.436876
-0.0623271
0.42915
-0.0540524
0.423129
-0.0459658
0.418591
-0.0379132
0.415363
-0.0297288
0.413395
-0.0212432
0.412692
-0.0123795
-0.00321048
0.457598
-0.062455
0.445043
-0.0577718
0.434328
-0.0516121
0.425492
-0.0452161
0.418425
-0.038899
0.412979
-0.032467
0.409029
-0.0257789
0.406525
-0.0187394
0.405463
-0.0113173
-0.00359325
0.456705
-0.0477036
0.443378
-0.0444444
0.431921
-0.0401556
0.42239
-0.0356844
0.414668
-0.0311772
0.408641
-0.0264402
0.404222
-0.0213602
0.401378
-0.0158946
0.400111
-0.0100509
-0.00390172
0.455079
-0.0322936
0.441094
-0.0304594
0.429063
-0.0281243
0.419006
-0.0256274
0.410791
-0.0229623
0.404315
-0.0199649
0.399521
-0.0165655
0.396401
-0.0127752
0.394985
-0.0086344
-0.00422297
0.445237
-0.0152344
0.429947
-0.0151699
0.416714
-0.0148907
0.405438
-0.0143514
0.395954
-0.0134789
0.388188
-0.0121982
0.382171
-0.0105484
0.378008
-0.00861224
0.375824
-0.00645048
-0.00409941
0.340253
0.325083
0.310192
0.295841
0.282362
0.270164
0.259615
0.251003
0.244553
0.010213
0.0508121
-0.0610251
0.0215153
0.149955
-0.161257
0.0265858
0.214805
-0.219876
0.0262592
0.242089
-0.241762
0.0231018
0.248334
-0.245177
0.018891
0.246751
-0.24254
0.0143772
0.243103
-0.238589
0.00986436
0.23834
-0.233828
0.00577765
0.229907
-0.22582
0.210259
0.00319083
-0.207672
0.0118725
0.0389396
0.0279117
0.133916
0.0383728
0.204344
0.0428534
0.237608
0.0438679
0.247319
0.0435496
0.247069
0.0428674
0.243785
0.0418857
0.239322
0.0398907
0.231902
0.214628
0.0355209
0.0123202
0.0266193
0.0317726
0.114463
0.0472327
0.188884
0.056765
0.228076
0.0624102
0.241674
0.0664352
0.243045
0.0700802
0.24014
0.0734705
0.235932
0.075301
0.230072
0.218134
0.0717958
0.0115165
0.0151028
0.0322771
0.0937026
0.0513956
0.169765
0.0655354
0.213936
0.0758183
0.231391
0.0842751
0.234588
0.0923057
0.232109
0.100344
0.227894
0.107533
0.222882
0.215656
0.110011
0.00970551
0.00539734
0.0294606
0.0739475
0.0502121
0.149014
0.0677891
0.196359
0.0821795
0.217001
0.0947917
0.221975
0.106908
0.219993
0.11918
0.215621
0.131486
0.210576
0.205081
0.14206
0.00728355
-0.00188621
0.0241554
0.0570756
0.0443739
0.128795
0.063686
0.177047
0.0810432
0.199644
0.0970033
0.206015
0.112449
0.204547
0.128007
0.200063
0.143951
0.194632
0.188609
0.160424
0.00473432
-0.00662054
0.017811
0.0439989
0.035934
0.110672
0.0553516
0.15763
0.074291
0.180704
0.0924647
0.187842
0.110195
0.186817
0.127874
0.182384
0.145721
0.176785
0.169949
0.164381
0.00240963
-0.00903017
0.0117788
0.0346298
0.0271223
0.095329
0.0454108
0.139341
0.0644856
0.161629
0.0833898
0.168938
0.101897
0.16831
0.120072
0.16421
0.138108
0.158748
0.151986
0.156071
0.000691544
-0.00972172
0.00721788
0.0281034
0.0200483
0.0824985
0.0368453
0.122544
0.0553575
0.143117
0.0742583
0.150037
0.0929812
0.149587
0.11138
0.145812
0.129548
0.14058
0.133374
0.14816
-0.00035748
-0.00936424
0.00424181
0.0235041
0.0150705
0.0716699
0.0302411
0.107374
0.0475063
0.125852
0.0653227
0.13222
0.0828494
0.13206
0.0996937
0.128967
0.115511
0.124763
0.11882
0.130065
-0.000816988
-0.00854725
0.00273952
0.0199476
0.0123082
0.0621012
0.0262688
0.093413
0.0424861
0.109635
0.0594338
0.115272
0.0762688
0.115225
0.0926228
0.112613
0.108328
0.109058
0.105655
0.121493
-0.000962573
-0.00758467
0.00214841
0.0168366
0.0110101
0.0532395
0.0241458
0.0802773
0.039532
0.0942485
0.0557107
0.0990938
0.0718723
0.0990636
0.087647
0.0968387
0.102904
0.0938009
0.0917951
0.116764
-0.00099135
-0.00659332
0.00188009
0.0139652
0.0102557
0.0448639
0.0227196
0.0678134
0.0373272
0.0796409
0.0526876
0.0837334
0.0680336
0.0837175
0.0830081
0.0818642
0.0974708
0.0793382
0.0780295
0.111236
-0.000977439
-0.00561589
0.00175064
0.0112371
0.00978471
0.0368298
0.0217366
0.0558615
0.0357172
0.0656603
0.0503929
0.0690577
0.0650349
0.0690756
0.0793013
0.0675977
0.0930482
0.0655913
0.0646766
0.106401
-0.000944655
-0.00467123
0.00170495
0.00858751
0.00951874
0.0290161
0.0211249
0.0442553
0.0346727
0.0521125
0.048874
0.0548565
0.0630362
0.0549134
0.0768414
0.0537925
0.0901634
0.0522693
0.0516286
0.103211
-0.000914902
-0.00375633
0.00169427
0.00597834
0.00937233
0.021338
0.0207622
0.0328654
0.034041
0.0388337
0.0479539
0.0409435
0.0618379
0.0410294
0.0753973
0.0402331
0.0885251
0.0391415
0.0387249
0.101429
-0.000886637
-0.00286969
0.00170539
0.00338631
0.00930569
0.0137377
0.0205699
0.0216012
0.0336948
0.0257088
0.0474483
0.02719
0.0611872
0.0272905
0.0746311
0.0267891
0.0876848
0.0260878
0.0258717
0.100538
-0.000854218
-0.00201547
0.0017406
0.000791492
0.00930431
0.00617397
0.0205011
0.0104044
0.0335418
0.0126681
0.0472095
0.0135223
0.0608742
0.0136258
0.0742654
0.0133979
0.0872946
0.0130586
0.0130289
0.100137
-0.000817276
-0.0011982
0.00180379
-0.00182957
0.00936284
-0.00138508
0.0205267
-0.000759385
0.0335179
-0.000323056
0.0471324
-9.22845e-05
0.0607492
9.06115e-06
0.0741056
4.1508e-05
0.0871177
4.65057e-05
0.000195149
0.0999515
-0.000770846
0.0019027
0.00948368
0.0206347
0.0335884
0.0471522
0.0607178
0.0740282
0.0870035
0.099809
0.137967
0.295087
-0.311562
0.150043
0.12356
-0.135636
0.159637
0.0418036
-0.0513975
0.167301
0.00496443
-0.0126287
0.173697
-0.00911494
0.00271945
0.179376
-0.0132109
0.00753134
0.184585
-0.0131299
0.00792101
0.18942
-0.0114151
0.00658014
0.193944
-0.00938598
0.00486169
-0.00612114
0.00208112
0.139524
0.272327
0.155617
0.107467
0.166432
0.030988
0.173775
-0.00237844
0.179352
-0.0146914
0.18403
-0.0178891
0.188154
-0.0172543
0.191859
-0.01512
0.195237
-0.0127637
-0.00902661
0.14171
0.241853
0.160843
0.0883348
0.172275
0.0195563
0.179381
-0.00948512
0.184362
-0.0196724
0.188223
-0.0217494
0.1914
-0.0204316
0.194096
-0.0178159
0.196443
-0.0151114
-0.0109077
0.14438
0.203874
0.165643
0.0670713
0.17751
0.0076894
0.184427
-0.0164016
0.188864
-0.0241097
0.191989
-0.0248749
0.194325
-0.0227672
0.196127
-0.0196179
0.197561
-0.0165458
-0.0118781
0.147111
0.159975
0.169913
0.0442692
0.182103
-0.00450064
0.188845
-0.0231429
0.192826
-0.0280905
0.195316
-0.0273654
0.196922
-0.0243729
0.197947
-0.0206435
0.198587
-0.0171859
-0.0120558
0.149588
0.111816
0.173583
0.0202738
0.186035
-0.016953
0.192633
-0.0297409
0.196231
-0.0316878
0.198187
-0.0293221
0.199178
-0.0253634
0.199548
-0.0210138
0.199517
-0.0171549
-0.011563
0.15165
0.0607039
0.176594
-0.00467007
0.189269
-0.0296283
0.195762
-0.0362341
0.199058
-0.0349837
0.200588
-0.0308515
0.201082
-0.0258577
0.200922
-0.0208535
0.200346
-0.0165789
-0.0105256
0.153199
0.0076422
0.178893
-0.0303641
0.191765
-0.0425004
0.198205
-0.0426744
0.20129
-0.0380684
0.202504
-0.0320653
0.202625
-0.0259782
0.202061
-0.0202899
0.201069
-0.0155871
-0.00907305
0.154151
-0.0465578
0.180421
-0.0566331
0.193494
-0.0555734
0.199943
-0.049124
0.202912
-0.0410375
0.203926
-0.0330787
0.203797
-0.02585
0.20296
-0.0194528
0.201684
-0.0143108
-0.00733715
0.154458
0.181135
0.194427
0.200959
0.203914
0.204845
0.204595
0.203615
0.202187
0.106404
-0.0041536
-0.102251
0.105006
0.00139816
0.103378
0.00162837
0.103428
-4.98264e-05
0.104448
-0.00101995
0.105648
-0.00120079
0.106717
-0.00106814
0.107547
-0.0008308
0.108125
-0.00057787
-0.000234531
0.231592
0.0648316
-0.300577
0.199658
0.0333317
0.187553
0.0137333
0.184329
0.00317474
0.184565
-0.00125649
0.185972
-0.00260799
0.187542
-0.00263816
0.188873
-0.00216096
0.189863
-0.00156812
-0.00065842
0.251197
0.156191
-0.342557
0.213928
0.0706011
0.200126
0.0275349
0.196331
0.00697031
0.196452
-0.00137814
0.197906
-0.00406171
0.199571
-0.00430325
0.200998
-0.00358812
0.202074
-0.00264393
-0.00112436
0.246422
0.239837
-0.330067
0.212445
0.104578
0.200019
0.0399611
0.196848
0.0101416
0.197295
-0.00182554
0.198914
-0.00568038
0.200666
-0.00605586
0.202137
-0.00505856
0.203235
-0.00374204
-0.0015992
0.241124
-0.312848
0.210065
0.198629
0.196142
0.197036
0.198887
0.200752
0.202274
0.203393
0.011926
0.000651012
-0.012577
0.0122959
-0.000369845
0.0131558
-0.00085996
0.0141205
-0.000964673
0.0158676
-0.00174707
0.0195899
-0.00372229
0.0303982
-0.0108083
0.0456108
-0.0152126
0.073236
-0.0276252
-0.0290148
0.0344265
0.00155974
-0.0353353
0.0373852
-0.00332848
0.044518
-0.00799279
0.0575607
-0.0140074
0.0791549
-0.0233413
0.111519
-0.0360862
0.155671
-0.0549608
0.203606
-0.0631469
0.25745
-0.0814694
-0.0721418
0.0560536
0.00161345
-0.0561073
0.062988
-0.0102629
0.0783924
-0.0233972
0.104816
-0.0404313
0.143177
-0.0617021
0.190966
-0.0838755
0.24044
-0.104434
0.283844
-0.106551
0.318685
-0.11631
-0.096014
0.0756121
0.000114769
-0.0741134
0.0866206
-0.0212715
0.10894
-0.0457165
0.143219
-0.0747101
0.185885
-0.104368
0.229484
-0.127474
0.26484
-0.13979
0.293066
-0.134777
0.313036
-0.13628
-0.113045
0.0917934
-0.0884878
0.106043
0.132122
0.167423
0.205115
0.238065
0.262655
0.283949
0.295829
0.0907575
-0.0880191
0.0970906
-0.099829
0.0819319
-0.0906442
0.0994698
0.0730296
-0.0941421
0.103044
0.0633069
-0.0977632
0.107486
0.0524826
-0.101299
0.112123
0.0406012
-0.104614
0.116495
0.0279687
-0.106564
0.119196
0.0154535
-0.10264
0.115156
0.00505002
-0.0835835
0.093987
-0.0398312
0.0448813
0.104835
-0.0781023
-0.114752
0.0942987
-0.0801081
0.0827035
-0.0825468
0.0701986
-0.0852582
0.0570386
-0.0881392
0.0434206
-0.0909954
0.029588
-0.0927313
0.0162765
-0.0893288
0.00535153
-0.0726585
-0.0344797
0.10148
-0.0667778
-0.112804
0.0899435
-0.068572
0.078174
-0.0707773
0.0661456
-0.0732299
0.0537832
-0.0757768
0.0410208
-0.0782331
0.0279646
-0.0796751
0.0153106
-0.0766748
0.00493926
-0.0622872
-0.0295405
0.103793
-0.055445
-0.115125
0.0922699
-0.0570492
0.0804176
-0.058925
0.0681428
-0.0609551
0.0554038
-0.0630377
0.0422133
-0.0650426
0.028749
-0.0662108
0.0157543
-0.0636801
0.00512311
-0.051656
-0.0244173
0.104346
-0.0440359
-0.115755
0.0926548
-0.0453583
0.0806129
-0.0468831
0.0681845
-0.0485267
0.0553542
-0.0502074
0.0421314
-0.0518198
0.0286729
-0.0527522
0.0156961
-0.0507034
0.00508451
-0.0410443
-0.0193328
0.104636
-0.0326433
-0.116029
0.0929408
-0.0336631
0.0808873
-0.0348295
0.068441
-0.0360805
0.055584
-0.0373504
0.0423246
-0.0385604
0.028821
-0.0392487
0.0157931
-0.0376755
0.00513058
-0.0303818
-0.0142023
0.104736
-0.0212787
-0.116101
0.0930453
-0.0219723
0.0809837
-0.0227679
0.0685224
-0.0236192
0.0556486
-0.0244766
0.0423738
-0.0252855
0.0288555
-0.0257304
0.0158114
-0.0246315
0.00513564
-0.019706
-0.00906662
0.104687
-0.00993004
-0.116036
0.0930043
-0.0102892
0.0809477
-0.0107112
0.0684909
-0.0111625
0.0556226
-0.0116083
0.0423544
-0.0120173
0.0288431
-0.0122191
0.0158057
-0.0115941
0.00513523
-0.00903552
-0.00393139
0.104484
0.00140156
-0.115816
0.0928166
0.00137827
0.0807758
0.00132959
0.0683365
0.0012768
0.0554884
0.00123982
0.0422436
0.00122753
0.0287596
0.00126489
0.0157534
0.00141208
0.00511473
0.00160316
0.00118335
0.104127
-0.115453
0.0924737
0.0804553
0.0680462
0.0552351
0.042034
0.0286009
0.0156534
0.00507556
0.0257441
-0.205612
-0.0278036
0.0197425
-0.219819
0.0123453
-0.22643
0.00468039
-0.230924
-0.00276647
-0.235093
-0.00941587
-0.238527
-0.0138605
-0.237318
-0.0138313
-0.219905
-0.00768039
-0.167408
-0.0687055
0.0547223
-0.201296
-0.0590391
0.0459854
-0.211082
0.0358845
-0.216329
0.0255847
-0.220624
0.0154845
-0.224993