/*--------------------------------*- C++ -*----------------------------------*\
  =========                 |
  \\      /  F ield         | OpenFOAM: The Open Source CFD Toolbox
   \\    /   O peration     | Website:  https://openfoam.org
    \\  /    A nd           | Version:  13
     \\/     M anipulation  |
\*---------------------------------------------------------------------------*/
FoamFile
{
    format      ascii;
    class       volScalarField;
    location    "20.5";
    object      p;
}
// * * * * * * * * * * * * * * * * * * * * * * * * * * * * * * * * * * * * * //

dimensions      [0 2 -2 0 0 0 0];

internalField   nonuniform List<scalar> 
440
(
-1.12781
-1.10973
-1.09975
-1.07747
-1.12848
-1.20744
-1.18424
-1.15846
-1.13102
-1.10771
-1.34475
-1.304
-1.25159
-1.18485
-1.11371
-1.49021
-1.43552
-1.32211
-1.19029
-1.05809
-1.58002
-1.50124
-1.32484
-1.14453
-0.983074
-1.15139
-1.21297
-1.35869
-1.52555
-1.67068
-1.25882
-1.2674
-1.29781
-1.34752
-1.40984
-1.17826
-1.15453
-1.12669
-1.10617
-1.09456
-1.12429
-1.09962
-1.06797
-1.03804
-1.03224
-1.08955
-1.07614
-1.05632
-1.03159
-1.05068
-1.83756
-0.646688
0.680196
0.149489
0.033943
-1.71058
-0.681894
0.552349
0.0828608
0.0497985
-1.19995
-0.7559
0.264641
0.0149447
0.066561
-1.05355
-0.809576
0.0372986
-0.0259957
0.0650554
-1.10269
-0.769509
0.00392875
-0.0194127
0.0319547
-0.970731
-0.524769
0.106427
0.079083
-0.0171562
-0.511929
-0.102254
0.0874415
0.193107
0.0228476
-0.389792
0.0352139
0.188039
0.269226
0.0457083
-0.24352
0.0609954
0.149722
0.226415
0.0273666
-0.131353
-0.00210423
0.210154
0.289119
0.0517656
-0.71336
-0.814392
-0.971467
-1.13152
-1.2991
-0.451427
-0.559904
-0.643435
-0.697342
-0.715421
-0.269132
-0.36516
-0.421508
-0.457207
-0.473253
-0.152558
-0.23835
-0.290001
-0.314712
-0.317808
-0.0949116
-0.178823
-0.224869
-0.23778
-0.218931
0.652322
0.491691
0.286628
0.0594403
-0.186455
0.218257
0.0490309
-0.156518
-0.390669
-0.657752
-0.200622
-0.373886
-0.592281
-0.834304
-1.09145
-0.568448
-0.746305
-0.971398
-1.21107
-1.41337
-0.810469
-0.996651
-1.21037
-1.43345
-1.56945
1.77298
1.80014
1.8225
1.82995
1.82038
1.57032
1.58684
1.59657
1.58837
1.55866
1.35075
1.33348
1.29172
1.22614
1.13339
1.0969
1.05824
0.981891
0.873829
0.736251
0.874841
0.761894
0.61647
0.451089
0.251471
1.57243
1.56442
1.53826
1.60866
1.67152
1.5619
1.55311
1.51714
1.58698
1.57597
1.55246
1.53908
1.49372
1.55284
1.45308
1.5442
1.52327
1.469
1.5031
1.27879
1.53707
1.50641
1.44331
1.45548
1.09151
1.53204
1.48111
1.41192
1.35164
0.884305
1.52731
1.45139
1.40254
1.2197
1.02329
1.53525
1.43713
1.3873
1.17282
1.06239
1.53238
1.40607
1.37602
1.11192
1.09292
1.56709
1.40596
1.37133
1.07672
1.1311
0.616431
0.303894
-0.0387541
-0.342207
-0.527573
0.511805
0.288277
0.0590435
-0.144049
-0.309389
0.497923
0.321068
0.152045
-0.000414351
-0.149838
0.580194
0.408468
0.243794
0.0960404
-0.040805
0.623458
0.445761
0.283427
0.141446
0.012368
-1.22587
-1.11094
-0.96565
-0.847524
-0.776777
-1.31019
-1.25052
-1.13903
-1.04802
-0.991893
-1.25974
-1.21385
-1.14833
-1.0915
-1.05185
-1.14268
-1.1075
-1.06739
-1.0324
-1.00178
-1.04957
-1.03168
-1.01135
-0.991906
-0.987651
-1.02565
-1.02068
-1.00961
-1.00292
-0.958768
-0.942286
-0.94199
-0.938253
-0.944006
-0.941177
-1.04191
-1.07688
-1.12634
-1.16491
-1.18397
-0.759018
-0.796962
-0.874512
-0.965215
-1.02086
-0.585591
-0.726611
-0.954258
-1.16621
-1.30075
-0.961151
0.472336
0.218428
0.328597
0.00241048
-0.918207
0.554871
0.233144
0.328344
-0.00554666
-0.867553
0.653176
0.285527
0.317826
-0.00479352
-0.948299
0.416377
0.463915
0.291085
0.00509618
-1.34304
-0.262977
0.590508
0.227905
0.0206364
-0.509767
0.256352
0.147572
0.313688
0.0116954
-0.827085
0.349064
0.204783
0.334316
0.0159386
-0.734184
-0.97049
-0.997936
-0.980277
-0.767137
-0.752187
-0.969914
-1.0231
-0.979196
-0.972485
1.49943
1.48364
1.4527
1.40798
1.34886
1.67183
1.69315
1.70204
1.69684
1.67778
1.81318
1.84647
1.87428
1.89153
1.89527
1.88912
1.92701
1.96699
1.99948
2.01469
1.87169
1.90586
1.94341
1.97398
1.98713
-0.374851
-0.464451
-0.60363
-0.774252
-0.956487
0.155086
0.0395583
-0.115298
-0.300025
-0.519829
0.630278
0.509201
0.365124
0.19703
-0.00296835
1.00867
0.916096
0.803629
0.668852
0.510672
1.31072
1.24817
1.16743
1.07126
0.959849
1.63728
1.59638
1.58373
1.59851
1.61831
1.62158
1.59281
1.58166
1.6116
1.67146
1.6081
1.588
1.57779
1.62736
1.73252
1.59543
1.5819
1.56894
1.63111
1.73866
1.58349
1.57437
1.55523
1.62524
1.72162
1.69463
1.60456
1.57529
1.53064
1.49322
1.64827
1.59428
1.56921
1.5472
1.51279
1.20955
1.01783
0.681285
0.191072
-0.34786
1.27828
1.04441
0.696303
0.210073
-0.340511
)
;

boundaryField
{
    left
    {
        type            zeroGradient;
    }
    right
    {
        type            fixedValue;
        value           uniform 0;
    }
    down
    {
        type            zeroGradient;
    }
    up
    {
        type            zeroGradient;
    }
    cylinder
    {
        type            zeroGradient;
    }
    defaultFaces
    {
        type            empty;
    }
}


// ************************************************************************* //
