/*--------------------------------*- C++ -*----------------------------------*\
  =========                 |
  \\      /  F ield         | OpenFOAM: The Open Source CFD Toolbox
   \\    /   O peration     | Website:  https://openfoam.org
    \\  /    A nd           | Version:  13
     \\/     M anipulation  |
\*---------------------------------------------------------------------------*/
FoamFile
{
    format      ascii;
    class       volVectorField;
    location    "3.32";
    object      U;
}
// * * * * * * * * * * * * * * * * * * * * * * * * * * * * * * * * * * * * * //

dimensions      [0 1 -1 0 0 0 0];

internalField   nonuniform List<vector> 
440
(
(-0.0687112 0.0427851 -7.88617e-20)
(-0.119267 0.109062 8.36347e-20)
(-0.0311258 0.149751 9.58486e-20)
(0.383203 0.194565 3.97075e-19)
(0.288165 0.393981 -6.48635e-22)
(-0.0929869 0.0439607 2.41628e-20)
(0.0191365 0.0129257 -1.54296e-19)
(0.47595 -0.0182861 -1.15108e-19)
(1.05249 -0.0382508 5.5796e-20)
(1.47555 -0.0117964 7.33765e-21)
(-0.0450444 0.0152865 5.29085e-20)
(0.446579 -0.026295 7.31065e-19)
(1.24161 -0.00753503 -3.85879e-19)
(1.84505 0.0363058 -1.14445e-18)
(2.43379 0.0521204 3.71292e-19)
(0.166702 -0.0408974 -1.79462e-19)
(1.17793 0.0155162 -5.34973e-19)
(1.99344 0.0986871 1.68084e-18)
(2.4766 0.14225 1.81646e-18)
(2.55663 0.172399 -5.03882e-19)
(0.543727 -0.00582397 -2.94327e-19)
(1.77447 0.20389 -6.21493e-19)
(2.3575 0.29259 1.88356e-18)
(2.48949 0.313766 1.99115e-18)
(2.57938 0.28276 6.6059e-19)
(-0.0421449 0.359841 1.43477e-19)
(-0.164349 0.539706 8.9067e-20)
(-0.278873 0.541089 -3.4434e-19)
(-0.37784 0.507217 5.68666e-20)
(-0.4446 0.46498 3.85707e-19)
(-0.0904889 0.439299 -2.80378e-21)
(-0.181401 0.718941 -1.84524e-19)
(-0.244456 0.747696 4.92827e-20)
(-0.298111 0.705163 4.96587e-20)
(-0.320696 0.638728 -9.81064e-20)
(-0.117321 0.360176 -1.32201e-19)
(-0.189469 0.733068 6.02016e-20)
(-0.203997 0.845324 -4.35177e-20)
(-0.189462 0.833558 -5.43046e-19)
(-0.153859 0.770867 7.13273e-21)
(-0.0855761 0.178949 -2.41719e-20)
(-0.154523 0.508241 3.43617e-20)
(-0.153403 0.686867 5.34987e-20)
(-0.0995297 0.745293 2.52665e-19)
(-0.0588393 0.749159 -6.22926e-20)
(-0.0515857 0.0608107 -6.88802e-20)
(-0.135507 0.245185 -8.46693e-20)
(-0.158682 0.407006 -1.14906e-19)
(-0.0740496 0.493474 -9.98864e-20)
(-0.0471871 0.634289 -6.61577e-19)
(-0.620822 0.201308 -1.10881e-18)
(0.0571614 -0.346313 9.54042e-19)
(0.461005 -0.427467 6.2713e-20)
(0.718108 -0.332075 -3.18392e-20)
(0.963902 -0.163829 2.1107e-21)
(-0.209563 0.138745 7.63416e-19)
(0.513491 -0.482739 -2.02282e-19)
(0.744183 -0.508031 9.50293e-20)
(0.879599 -0.390912 1.14129e-19)
(1.01689 -0.19223 1.50612e-20)
(0.376701 0.0399495 -1.12675e-20)
(1.02095 -0.570595 8.58026e-19)
(1.11602 -0.544433 -7.76034e-20)
(1.11153 -0.410004 1.43983e-19)
(1.09822 -0.202871 -3.76951e-21)
(0.913831 -0.0790234 1.22723e-20)
(1.40646 -0.645087 -2.27952e-19)
(1.39916 -0.565055 -3.79476e-20)
(1.32724 -0.397974 -1.38962e-19)
(1.18876 -0.194182 6.27294e-20)
(1.34305 -0.251841 -1.18298e-19)
(1.72877 -0.681819 -2.61699e-19)
(1.58278 -0.568354 0)
(1.46106 -0.372395 1.01978e-19)
(1.25527 -0.172955 2.68504e-20)
(2.10361 -0.286864 -4.15102e-19)
(2.16177 -0.612387 1.16347e-19)
(1.79205 -0.518573 -1.74017e-20)
(1.54549 -0.327352 8.14893e-20)
(1.28973 -0.14204 -6.99065e-20)
(2.47121 -0.380487 2.53428e-20)
(2.21405 -0.572057 3.67298e-19)
(1.67705 -0.365268 -1.33785e-20)
(1.3544 -0.185366 -9.03969e-20)
(1.16696 -0.0791617 0)
(2.3786 -0.271057 -4.31318e-19)
(2.10717 -0.374773 1.0512e-20)
(1.73846 -0.227479 -8.93193e-20)
(1.45397 -0.118022 5.47374e-20)
(1.20264 -0.0566423 -2.32139e-20)
(2.25835 -0.23726 9.62876e-20)
(1.79117 -0.319994 1.45645e-19)
(1.36842 -0.135635 -2.62686e-20)
(1.16151 0.00351514 -4.27023e-34)
(1.01951 0.0121779 2.34626e-20)
(1.44188 -0.0865469 1.58062e-19)
(0.776539 -0.0357502 2.79013e-20)
(0.470788 0.00981114 -5.28551e-21)
(0.459982 0.0150457 -1.00676e-20)
(0.50152 0.00375523 2.20473e-21)
(2.44724 0.301289 -7.91055e-19)
(2.7087 0.0689169 -1.0299e-18)
(2.49676 0.16721 5.7947e-19)
(2.82712 -0.0755791 1.25562e-19)
(2.00998 0.202418 2.61452e-21)
(2.15097 0.229624 7.95499e-20)
(2.52617 0.0161136 -3.80231e-20)
(2.2921 0.0947108 -1.41206e-19)
(2.61485 -0.117215 -2.10752e-19)
(2.39657 -0.100858 -7.84556e-21)
(2.12079 0.125596 8.05352e-20)
(2.27245 0.0198572 8.61075e-20)
(2.24086 0.0152201 -1.0997e-19)
(2.3293 -0.0698039 4.12048e-20)
(2.35043 -0.110766 -6.31101e-21)
(2.07625 0.0572667 1.16551e-19)
(2.10382 0.000987257 1.5533e-19)
(2.17845 -0.00542529 -1.94944e-20)
(2.18621 -0.0574935 -6.19724e-20)
(2.25219 -0.0760339 3.47708e-20)
(1.57248 -0.00930855 1.81476e-19)
(1.53219 -0.0148315 -1.18739e-20)
(1.6069 -0.0210171 2.09613e-20)
(1.54344 -0.0260003 -2.84981e-20)
(1.60865 -0.0374165 1.64344e-21)
(1.60282 0.837494 1.14257e-18)
(1.55348 0.938794 -3.68854e-19)
(1.55172 1.07305 -1.37027e-18)
(1.48199 1.12427 7.44277e-19)
(0.906933 0.810347 -1.71333e-19)
(1.89946 0.815223 -5.83657e-19)
(1.86348 0.893754 -3.06322e-18)
(1.86365 0.999626 -1.18122e-18)
(1.77211 1.01207 -4.13099e-19)
(1.08129 0.711294 -6.75129e-19)
(2.19991 0.681577 7.69521e-19)
(2.18149 0.755339 2.00574e-19)
(2.15405 0.84868 -2.31991e-18)
(2.01755 0.838261 -6.52853e-19)
(1.18935 0.556847 4.78523e-19)
(2.37771 0.584789 2.26117e-18)
(2.36123 0.636058 1.68278e-18)
(2.35496 0.686188 -1.95104e-18)
(2.12998 0.642095 -1.47546e-18)
(1.15876 0.368877 -2.69038e-19)
(2.52586 0.430014 1.10264e-18)
(2.53618 0.452399 -8.04356e-19)
(2.42628 0.480814 5.72839e-19)
(2.07689 0.420996 4.5046e-19)
(0.949341 0.160207 -3.73569e-19)
(0.56927 0.488797 -5.71763e-19)
(0.48159 0.520503 -4.36359e-19)
(0.365659 0.552342 4.81411e-20)
(0.229454 0.561815 -1.62066e-21)
(0.0582864 0.407264 8.58061e-20)
(0.661754 0.663773 1.22362e-19)
(0.598614 0.72624 -2.49662e-19)
(0.513871 0.79749 1.76869e-19)
(0.392871 0.846555 -8.35079e-20)
(0.171975 0.632872 1.17906e-19)
(0.786269 0.845428 1.18375e-19)
(0.712182 0.92197 4.57893e-19)
(0.655734 1.01764 1.21481e-19)
(0.570874 1.05954 -3.09819e-19)
(0.311571 0.776504 2.64278e-19)
(1.04626 0.916679 2.46283e-19)
(1.00012 1.00052 -7.62457e-19)
(0.953614 1.10018 -1.99043e-18)
(0.875416 1.16396 7.91008e-19)
(0.515505 0.858661 -1.57656e-19)
(1.15138 0.956246 -1.00125e-19)
(1.17713 1.0759 -1.75474e-19)
(1.19729 1.19 -3.84061e-19)
(1.14172 1.21343 -4.31875e-19)
(0.698321 0.86657 -6.73349e-21)
(0.955172 0.0300966 -9.54435e-20)
(1.04471 0.0439808 -3.06988e-20)
(1.02922 0.132256 -1.96123e-21)
(0.953028 0.174429 -2.67289e-19)
(0.878835 0.320994 2.97194e-19)
(0.953155 0.0245981 6.33181e-20)
(1.05192 0.0447784 1.13331e-19)
(1.02048 0.135849 1.18631e-19)
(0.993286 0.214434 4.22969e-20)
(0.924954 0.38537 -2.17553e-20)
(0.959018 0.0210373 8.52429e-20)
(1.03768 0.0401016 -4.34012e-21)
(1.06831 0.154143 -3.87464e-21)
(0.936447 0.210001 1.3838e-19)
(1.15677 0.547719 -4.89569e-19)
(0.958688 0.0177004 -1.11559e-21)
(1.04626 0.0354119 -1.55424e-19)
(1.06293 0.168462 -6.30097e-20)
(1.0266 0.228097 -3.76367e-19)
(1.15659 0.57549 8.93663e-20)
(0.960087 0.0128723 -1.73896e-20)
(1.04062 0.0363897 4.20803e-20)
(1.10727 0.176791 2.92632e-20)
(0.990718 0.242373 4.3502e-19)
(1.45274 0.712739 -4.67295e-19)
(0.943975 0.0117206 -1.31269e-20)
(1.07213 0.0178425 9.06708e-20)
(1.10184 0.201067 -7.41961e-20)
(1.17312 0.172632 8.1483e-19)
(1.29937 0.742782 -3.48208e-19)
(0.939978 -0.00675853 -1.89312e-21)
(1.09863 0.00558589 -7.74678e-20)
(1.07977 0.147426 4.11809e-21)
(1.24771 0.181244 -2.48532e-19)
(1.33298 0.480755 -4.24074e-20)
(0.954026 -0.0149779 -2.1e-21)
(1.08613 -0.00183472 1.14435e-35)
(1.10225 0.118753 -2.93148e-20)
(1.26982 0.122426 9.00637e-20)
(1.493 0.323404 1.70184e-19)
(0.979518 -0.0439496 4.57485e-21)
(1.02499 -0.0206027 -2.36035e-20)
(1.14399 0.0474643 1.6809e-20)
(1.22824 0.0645478 2.91565e-20)
(1.57729 0.192631 -2.63833e-19)
(0.912687 -0.0224476 -3.74153e-20)
(0.845848 -0.023741 -2.2613e-21)
(0.882546 0.00450269 2.51261e-20)
(0.899011 0.00599972 -1.63661e-20)
(1.18774 0.0551771 -6.04346e-20)
(1.84411 0.613224 2.88428e-19)
(1.93001 0.658422 7.58484e-19)
(2.21458 0.503687 -1.08318e-18)
(2.26212 0.51251 -2.27971e-20)
(2.50764 0.296758 4.7433e-19)
(1.8046 0.374428 8.76171e-20)
(1.81254 0.425884 9.80376e-19)
(2.06922 0.31134 1.29634e-19)
(2.00445 0.349924 -9.46296e-19)
(2.32855 0.16229 -2.77895e-19)
(1.77381 0.271839 -2.29985e-19)
(1.83655 0.273205 -1.52666e-19)
(1.96931 0.213477 1.42227e-19)
(1.98829 0.214676 -3.00016e-19)
(2.15147 0.115561 2.695e-19)
(1.72028 0.16044 3.55395e-19)
(1.8111 0.151251 -5.66966e-21)
(1.85664 0.119406 2.23187e-19)
(1.94853 0.111679 1.99977e-19)
(1.99142 0.0604794 -1.93866e-19)
(1.34236 0.0426585 -4.29585e-20)
(1.41538 0.0307309 2.35675e-19)
(1.4342 0.0197303 1.0919e-19)
(1.50625 0.00836629 -2.27468e-19)
(1.49649 -0.00163166 1.21154e-22)
(1.10093 -0.0173015 6.22563e-20)
(2.07992 -0.041764 -3.99209e-19)
(2.31053 -0.0329505 1.08432e-18)
(2.28649 0.00491432 4.73605e-19)
(2.1409 0.0327257 -3.3701e-19)
(0.696893 0.0945954 1.13495e-19)
(1.86089 0.0881518 -4.03757e-19)
(2.31079 0.0897534 -5.42156e-19)
(2.37624 0.0952881 6.54129e-19)
(2.11456 0.0832648 -4.1465e-19)
(0.23357 0.0806894 -1.75328e-20)
(1.2519 0.148761 4.23494e-19)
(1.97027 0.165289 5.58858e-20)
(2.33778 0.155059 3.42709e-19)
(2.5209 0.14447 1.07963e-19)
(-0.0168898 -0.0112561 1.74317e-19)
(0.472168 0.0844225 1.74199e-19)
(1.21856 0.151427 -3.70501e-19)
(1.69093 0.173401 1.88431e-20)
(2.22715 0.196618 -3.3474e-22)
(-0.0842957 -0.0690886 1.24926e-19)
(0.0209721 -0.0391131 -1.32344e-19)
(0.42127 0.0354445 -2.38148e-20)
(0.88732 0.0691806 4.29253e-20)
(1.22978 0.110227 -2.38914e-20)
(-0.064994 -0.0672877 1.03718e-20)
(-0.0902412 -0.0949509 6.22547e-20)
(0.0115017 -0.0776323 7.19016e-20)
(0.218087 -0.0321955 -1.19213e-19)
(0.510094 0.0137064 2.29222e-21)
(-0.047496 -0.0833245 -1.94489e-20)
(-0.0809645 -0.160842 -1.77628e-21)
(-0.0666159 -0.183226 1.74613e-20)
(-0.0116202 -0.16175 8.82721e-21)
(0.106847 -0.113442 1.20425e-20)
(-0.04671 -0.102693 -2.8525e-20)
(-0.105208 -0.165522 -2.36022e-19)
(-0.136372 -0.161896 1.76097e-19)
(-0.149554 -0.13038 5.13398e-19)
(-0.128362 -0.0917117 -6.93443e-20)
(-0.0242754 0.000864979 1.81647e-20)
(-0.130147 0.0120932 1.42237e-19)
(-0.230307 0.0232825 -4.17782e-19)
(-0.310909 0.0406551 -3.3435e-19)
(-0.35551 0.0620052 4.40072e-20)
(-0.0111607 0.183243 -5.85424e-21)
(-0.130801 0.278059 2.79223e-20)
(-0.252056 0.285031 -1.55336e-20)
(-0.358679 0.277716 2.55831e-20)
(-0.434134 0.267424 1.76245e-19)
(1.29283 0.397406 -1.58994e-20)
(1.13254 0.0995997 8.17384e-19)
(1.10592 -0.026498 -7.6257e-20)
(0.987923 0.00693282 -1.14352e-19)
(1.0147 0.0197303 8.54518e-22)
(0.91776 0.253869 9.14533e-20)
(0.508043 0.109238 -2.46389e-19)
(0.606727 0.0265962 -2.11155e-19)
(0.696577 -0.00572944 -1.37882e-20)
(0.93212 -0.00789989 -1.84239e-20)
(0.152631 0.22325 6.1439e-20)
(-0.111647 0.109598 -1.91857e-19)
(0.359169 -0.0738495 3.17407e-20)
(0.599617 -0.0854434 1.4574e-19)
(0.910381 -0.0419994 1.75281e-21)
(-0.446078 0.227201 1.9026e-19)
(-0.264851 0.0125119 -9.69557e-19)
(0.326068 -0.181524 2.26157e-20)
(0.602582 -0.165796 3.85952e-21)
(0.917498 -0.0858313 1.37603e-20)
(-0.685879 0.220342 1.23884e-19)
(-0.193199 -0.15409 -5.48695e-20)
(0.346445 -0.31131 6.16053e-21)
(0.638588 -0.250787 -1.45694e-20)
(0.934909 -0.12554 2.37646e-20)
(0.697818 0.110035 -7.19582e-20)
(0.128919 -0.042185 0)
(0.242218 -0.0692734 -3.03902e-20)
(0.36581 -0.0528908 1.97496e-20)
(0.487638 -0.0246811 2.3654e-21)
(1.81307 0.354743 0)
(1.34206 0.197093 0)
(1.35626 0.00260204 3.24078e-19)
(1.27618 -0.0282072 5.34346e-20)
(1.11592 -0.00858308 -2.55099e-21)
(0.689401 9.86827e-05 -1.22163e-19)
(0.735925 -0.00261541 2.72381e-19)
(0.885333 -0.0153633 -1.32651e-20)
(1.04007 0.00888064 2.29502e-19)
(1.28869 0.0467297 1.4602e-19)
(1.56487 0.0214867 1.16658e-19)
(1.66177 0.0694001 2.93589e-19)
(1.86977 0.0309343 -7.43405e-20)
(2.41017 0.153038 -3.15516e-20)
(2.06184 0.0959646 5.11103e-20)
(0.850661 -0.428472 -3.12754e-20)
(0.831009 -0.511907 -1.4492e-19)
(0.815796 -0.60329 -9.11194e-20)
(0.745115 -0.666396 5.54927e-20)
(0.450981 -0.520712 1.16964e-19)
(0.744794 -0.330244 1.14803e-19)
(0.691743 -0.390786 2.39355e-19)
(0.623213 -0.45899 -3.04634e-20)
(0.516932 -0.517568 1.27133e-19)
(0.279284 -0.412629 5.29754e-20)
(0.611678 -0.191373 -1.37233e-19)
(0.530342 -0.226399 -4.65409e-20)
(0.43122 -0.270066 1.30754e-19)
(0.312762 -0.309656 -6.75772e-21)
(0.133921 -0.251913 -1.05862e-19)
(0.522945 0.0318404 -3.93147e-19)
(0.439925 0.0203195 -3.29783e-19)
(0.331518 0.00110839 2.65811e-19)
(0.205834 -0.0276446 1.70288e-19)
(0.0511727 -0.0454277 1.3231e-20)
(0.492648 0.23707 -1.56101e-19)
(0.407912 0.245235 -1.56123e-19)
(0.296658 0.255353 -6.81667e-20)
(0.168961 0.26046 1.38204e-20)
(0.0220585 0.183379 9.57118e-21)
(1.90343 -0.0382239 7.16177e-19)
(2.16432 -0.0986892 2.30293e-19)
(2.22914 -0.176821 -6.32296e-19)
(2.08177 -0.20404 -1.3207e-18)
(1.24766 -0.174277 1.16432e-19)
(1.88922 -0.111038 1.20052e-18)
(1.9687 -0.216359 1.60781e-18)
(1.98743 -0.331413 1.37189e-19)
(1.9053 -0.388544 2.44674e-19)
(1.21529 -0.335583 -1.61383e-19)
(1.61338 -0.262726 -3.09091e-18)
(1.67916 -0.373273 3.19057e-19)
(1.71846 -0.48958 9.74551e-19)
(1.65155 -0.559769 -3.53003e-19)
(1.06716 -0.469559 5.68304e-19)
(1.41784 -0.373552 7.17854e-19)
(1.42926 -0.464838 -1.93636e-18)
(1.40961 -0.574212 -2.18255e-18)
(1.33684 -0.654889 6.58549e-19)
(0.858717 -0.535842 4.71918e-19)
(1.14425 -0.420871 1.40619e-19)
(1.09812 -0.507883 2.28596e-19)
(1.08241 -0.620651 -3.33605e-19)
(1.02345 -0.700631 -4.0086e-19)
(0.644607 -0.554061 -3.66084e-21)
(0.977068 0.0412694 6.17364e-21)
(1.02145 0.0752253 -2.15307e-21)
(1.07547 0.0718147 -6.41698e-21)
(0.791463 0.00150007 -1.89763e-19)
(1.03529 -0.16595 -1.26778e-20)
(0.980342 0.0427883 -2.55411e-21)
(1.00807 0.0692525 4.25037e-20)
(1.09877 0.100003 -3.77142e-20)
(0.861458 0.046828 1.27377e-19)
(0.928639 -0.0558746 -9.44809e-21)
(0.981404 0.0388568 -5.60269e-20)
(0.997896 0.0614075 6.45436e-23)
(1.0985 0.106494 -1.53404e-20)
(0.873507 0.0819835 4.11012e-20)
(0.890878 0.00023913 -1.70184e-19)
(0.972773 0.0376913 7.30399e-20)
(1.01271 0.051391 3.78294e-21)
(1.06681 0.117349 2.90845e-20)
(0.916428 0.115794 1.18487e-20)
(0.822743 0.106905 9.34741e-20)
(0.961565 0.033951 1.78113e-20)
(1.03406 0.0481458 -2.85922e-20)
(1.03466 0.121057 3.90274e-20)
(0.952648 0.154035 6.88763e-20)
(0.807597 0.205578 -1.18832e-19)
(0.875541 0.0333483 0)
(0.751878 0.0304284 1.12784e-20)
(0.545979 0.0190275 2.46853e-21)
(0.44479 -0.00832392 4.22223e-20)
(0.651045 -0.0405197 -1.34271e-19)
(0.96683 0.0635155 -6.02059e-20)
(1.0284 0.0891183 -1.27314e-20)
(0.938542 0.0613853 -3.88498e-20)
(0.848178 -0.00814383 -1.1043e-19)
(0.9745 -0.154312 -1.42044e-19)
(0.88775 -0.0583636 -2.89657e-20)
(0.965539 -0.0259995 4.68588e-19)
(1.04065 0.0384628 2.81554e-19)
(0.914877 0.0498632 3.22425e-20)
(0.705447 0.0256056 0)
(1.22358 -0.282298 2.83035e-19)
(1.32943 -0.252972 1.31926e-18)
(1.48925 -0.141058 -1.44393e-18)
(1.58102 -0.0175342 -4.4138e-19)
(1.47192 0.0252466 3.40502e-19)
)
;

boundaryField
{
    left
    {
        type            fixedValue;
        value           uniform (1 0 0);
    }
    right
    {
        type            zeroGradient;
    }
    down
    {
        type            noSlip;
    }
    up
    {
        type            noSlip;
    }
    cylinder
    {
        type            noSlip;
    }
    defaultFaces
    {
        type            empty;
    }
}


// ************************************************************************* //
