/*--------------------------------*- C++ -*----------------------------------*\
  =========                 |
  \\      /  F ield         | OpenFOAM: The Open Source CFD Toolbox
   \\    /   O peration     | Website:  https://openfoam.org
    \\  /    A nd           | Version:  13
     \\/     M anipulation  |
\*---------------------------------------------------------------------------*/
FoamFile
{
    format      ascii;
    class       volScalarField;
    location    "0.725";
    object      p;
}
// * * * * * * * * * * * * * * * * * * * * * * * * * * * * * * * * * * * * * //

dimensions      [0 2 -2 0 0 0 0];

internalField   nonuniform List<scalar> 
1800
(
5.74724
7.85434
10.0071
11.4356
12.2699
12.6805
12.8114
12.6538
11.4074
7.31508
9.59664
12.0723
14.5773
16.2613
17.3178
17.9805
18.4352
18.6742
17.9496
15.2716
15.9888
18.6136
21.2863
23.1496
24.4097
25.2915
25.9422
26.3255
25.8543
24.0231
24.9839
27.5533
30.2017
32.1162
33.4815
34.4905
35.2529
35.7049
35.2987
33.6139
36.0424
38.4033
40.8555
42.6671
43.9915
44.9876
45.7422
46.1915
45.8413
44.2857
48.7193
50.7718
52.9155
54.5217
55.7127
56.6149
57.2972
57.7078
57.4266
56.0672
62.6677
64.3405
66.0962
67.4281
68.4302
69.1998
69.7912
70.1682
69.9931
68.9043
77.5935
78.835
80.1461
81.1554
81.9313
82.5452
83.0393
83.3941
83.3608
82.6243
93.2116
93.9913
94.8228
95.4777
96.0005
96.4379
96.8207
97.1441
97.2543
96.9199
109.24
109.545
109.877
110.151
110.389
110.61
110.827
111.041
111.202
111.229
-0.605896
-0.85873
-0.635835
-0.221016
0.251788
0.719887
1.07958
1.29047
1.43557
1.58238
-0.477631
-0.993738
-1.10399
-0.898231
-0.474284
-0.0503631
0.242127
0.484574
0.764848
1.03851
0.524607
-0.443699
-1.27725
-1.4435
-1.11653
-0.811095
-0.598048
-0.292946
0.114451
0.500396
0.918292
-0.223858
-1.42329
-1.7622
-1.54203
-1.38904
-1.26477
-0.959983
-0.503112
0.00470889
0.486832
-0.481769
-1.42319
-1.71471
-1.65778
-1.66918
-1.63354
-1.37233
-0.881396
-0.187349
-0.2175
-0.734828
-1.13598
-1.2658
-1.28674
-1.35273
-1.34589
-1.13811
-0.614056
0.318122
-0.553632
-0.516103
-0.339983
-0.19421
-0.109918
-0.0899389
-0.0521993
0.116956
0.694157
1.92392
-0.0709443
0.515278
1.23607
1.74035
2.06971
2.28263
2.43165
2.64778
3.37789
5.03978
1.37573
2.48364
3.73199
4.65339
5.32328
5.81545
6.15523
6.49408
7.48055
9.76772
3.61719
5.26006
7.0782
8.45409
9.47677
10.2369
10.7591
11.2119
12.2727
14.4356
2.30074
2.43998
2.33283
2.08754
1.58356
1.18095
0.859955
0.585942
0.350178
0.133508
1.95227
2.41725
2.22939
2.005
1.50078
1.10188
0.80932
0.569357
0.353923
0.14069
1.47496
2.38817
2.12865
1.91364
1.42623
1.03571
0.763705
0.550863
0.354566
0.146771
0.850228
2.30568
2.02875
1.80806
1.35152
0.977476
0.724579
0.534085
0.349205
0.150454
0.155889
2.1296
1.91807
1.68594
1.27071
0.922833
0.69052
0.519363
0.341971
0.152666
-0.417132
1.85046
1.77937
1.54582
1.18028
0.868977
0.66005
0.505905
0.341265
0.153532
-0.566912
1.50184
1.59951
1.38532
1.07822
0.814006
0.632185
0.4936
0.344809
0.153388
0.161479
1.17239
1.36948
1.1956
0.961003
0.755852
0.605613
0.483166
0.342199
0.149373
2.41778
1.03593
1.06862
0.952092
0.820183
0.691867
0.579339
0.471267
0.330841
0.138197
6.65266
1.40479
0.7111
0.634507
0.648372
0.62095
0.552382
0.453955
0.312693
0.123261
9.97836
2.57486
0.687251
0.392546
0.471885
0.54282
0.515893
0.424274
0.284161
0.101945
11.7634
2.57096
0.265775
0.059041
0.358092
0.509011
0.480176
0.379418
0.242664
0.0720397
12.862
2.77754
0.396273
0.154571
0.471189
0.570249
0.48102
0.348114
0.203509
0.0413522
14.1835
4.36537
1.28121
0.728668
0.790678
0.718208
0.523041
0.334613
0.170988
0.0121387
16.3602
7.1092
2.70126
1.59226
1.24159
0.934855
0.606902
0.343088
0.149286
-0.0125472
19.2502
9.87421
4.33391
2.55746
1.77132
1.20121
0.723981
0.373371
0.14111
-0.029977
21.7542
11.9356
5.85137
3.51723
2.3372
1.49727
0.863326
0.422302
0.147113
-0.0383312
23.0332
13.1185
7.04843
4.41716
2.9107
1.80908
1.01679
0.486186
0.166687
-0.0367277
22.9731
13.4976
7.90916
5.26439
3.49999
2.14442
1.1908
0.56901
0.203473
-0.0234674
22.4203
13.7226
8.68055
6.12547
4.12632
2.52326
1.40757
0.688317
0.27692
0.00715946
111.786
97.8398
84.075
71.0698
59.1303
48.3501
38.7686
30.0918
20.0805
4.97554
112.766
99.4775
85.9766
72.9701
60.9269
50.046
40.5128
32.2545
23.5894
11.4762
113.297
100.212
87.3317
75.0053
63.4665
52.8745
43.4446
35.2557
27.4693
18.3352
114.51
102.769
90.8105
78.9797
67.6231
57.0278
47.3947
38.7943
31.0875
23.8244
115.087
104.075
93.1548
82.4637
72.1167
62.1923
52.7299
43.8195
36.0013
29.8225
115.436
104.709
94.2023
84.0404
74.3198
65.0904
56.331
48.0896
41.048
36.031
115.668
105.109
94.797
84.8648
75.422
66.5415
58.2327
50.5651
44.211
40.0916
115.768
105.247
94.9801
85.1086
75.7544
67.0085
58.9047
51.5112
45.3944
41.4347
115.718
105.032
94.6056
84.5865
75.1073
66.2747
58.1445
50.7751
44.5512
40.0983
115.594
104.647
93.9597
83.6822
73.9567
64.9064
56.6116
49.1168
42.6078
37.4129
234.122
229.758
228.191
227.749
227.657
227.909
228.643
230.024
232.176
234.314
225.559
222.54
221.491
221.451
221.677
222.162
223.093
224.7
227.171
229.647
216.046
213.871
213.098
213.223
213.654
214.357
215.482
217.252
219.866
222.464
205.739
203.712
203.008
203.204
203.748
204.577
205.801
207.609
210.178
212.697
194.416
192.507
191.852
192.04
192.572
193.383
194.56
196.254
198.609
200.899
182.05
180.325
179.731
179.873
180.326
181.037
182.073
183.55
185.58
187.545
168.704
167.241
166.747
166.85
167.206
167.779
168.618
169.811
171.438
173.009
154.57
153.453
153.098
153.176
153.431
153.844
154.451
155.313
156.484
157.612
139.961
139.247
139.04
139.089
139.234
139.469
139.82
140.321
141.003
141.659
125.436
125.092
124.952
124.905
124.892
124.914
124.981
125.1
125.278
125.454
246.554
246.792
247.044
247.262
247.561
248.061
248.613
248.95
248.955
248.442
246.627
246.958
247.361
247.667
247.868
248.203
248.627
248.543
247.726
246.706
246.638
247.033
247.478
247.79
247.873
248.004
248.286
247.925
246.537
245.282
246.516
247.018
247.448
247.68
247.612
247.498
247.533
247.11
245.815
244.658
246.024
246.678
247.067
247.173
246.995
246.717
246.54
246.18
245.371
244.582
244.817
245.66
245.995
245.959
245.728
245.443
245.247
245.075
244.835
244.549
242.471
243.568
243.905
243.789
243.578
243.413
243.379
243.51
243.817
244.057
238.587
240.072
240.541
240.474
240.39
240.441
240.679
241.174
241.987
242.725
233.113
235.167
235.876
235.943
236.068
236.414
237.002
237.907
239.211
240.423
227.759
229.624
230.368
230.535
230.842
231.459
232.4
233.752
235.599
237.307
246.94
246.72
246.681
246.49
246.422
246.305
245.93
245.673
245.572
245.718
246.898
246.719
246.676
246.493
246.421
246.315
245.938
245.656
245.38
245.739
246.871
246.715
246.667
246.488
246.413
246.316
245.939
245.601
245.143
245.822
246.852
246.708
246.655
246.475
246.399
246.312
245.927
245.509
244.925
246.008
246.84
246.698
246.638
246.456
246.379
246.298
245.9
245.4
244.791
246.246
246.834
246.687
246.62
246.432
246.354
246.271
245.863
245.307
244.765
246.354
246.832
246.672
246.6
246.406
246.324
246.233
245.827
245.257
244.812
246.021
246.835
246.654
246.578
246.376
246.29
246.19
245.81
245.26
244.833
244.784
246.844
246.632
246.554
246.343
246.253
246.159
245.843
245.336
244.655
242.008
246.861
246.608
246.525
246.308
246.22
246.155
245.945
245.462
243.976
237.293
246.899
246.581
246.484
246.252
246.155
246.084
245.874
245.134
242.443
233.742
247.015
246.561
246.446
246.201
246.1
246.122
246.071
245.334
242.178
231.8
247.256
246.567
246.408
246.123
246.023
246.084
246.062
245.237
241.885
230.535
247.707
246.622
246.378
246.038
245.886
245.818
245.614
244.534
240.48
229.316
248.545
246.688
246.402
245.946
245.674
245.311
244.743
243.227
238.009
227.46
250.381
246.755
246.509
245.876
245.382
244.648
243.657
241.569
235.375
224.914
254.261
247.066
246.664
245.817
245.027
243.934
242.56
239.957
233.311
222.585
262.566
248.204
246.939
245.775
244.654
243.245
241.558
238.668
232.073
221.329
280.126
250.939
247.59
245.81
244.3
242.592
240.65
237.737
231.63
221.358
306.097
254.985
249.095
246.023
244.009
241.971
239.765
236.92
231.359
221.886
236.417
221.067
210.445
201.13
190.97
179.665
167.27
153.898
139.852
125.723
230.028
217.734
208.582
199.861
189.923
178.685
166.339
153.088
139.364
125.89
223.495
214.131
205.952
197.424
187.709
176.869
165.116
152.616
139.598
126.42
218.38
210.873
202.881
194.031
184.188
173.423
161.931
149.988
137.925
126.091
212.983
206.589
198.596
189.503
179.833
169.696
159.145
148.278
137.222
126.129
207.386
202.089
194.83
186.359
177.36
167.905
157.985
147.663
137.043
126.255
203.591
199.151
192.561
184.664
176.131
167.045
157.424
147.349
136.938
126.328
202.309
198.051
191.705
184.092
175.779
166.843
157.324
147.32
136.962
126.392
203.636
198.92
192.47
184.886
176.553
167.538
157.9
147.754
137.239
126.507
206.309
200.874
194.138
186.427
177.931
168.699
158.816
148.413
137.636
126.643
112.188
112.358
112.442
112.293
111.786
111.426
111.241
111.526
111.518
111.269
89.6127
90.076
90.2947
89.8611
88.4291
87.3426
86.7217
87.3834
87.421
86.8345
68.7694
69.3971
69.6585
68.9917
67.0523
65.3406
64.3203
64.869
65.1734
64.6182
50.6514
51.2579
51.4476
50.6245
48.6454
46.4793
45.1493
45.1847
45.9231
45.6896
36.006
36.4145
36.4648
35.5835
33.7916
31.4756
29.8318
29.2666
30.0741
30.2618
24.9536
25.0571
24.9351
24.0119
22.4343
20.4049
18.6141
17.6725
17.9275
18.4275
17.067
16.9166
16.7019
15.7109
14.2965
12.7931
11.3056
10.2406
9.90087
10.2674
11.5798
11.403
11.3545
10.3552
9.03624
8.03435
7.14272
6.29985
5.7114
5.62761
7.90571
7.8175
8.11356
7.24573
6.07969
5.4892
5.16037
4.77576
4.29183
3.91211
6.03688
5.83196
6.21748
5.47967
4.6103
4.33428
4.35833
4.34902
4.19647
3.8005
5.26976
5.03296
5.11541
4.42107
3.88885
3.83272
3.98256
4.12533
4.24648
4.30316
4.84262
4.73354
4.45624
3.7899
3.50405
3.59139
3.79462
3.96224
4.08201
4.16828
4.4641
4.41937
3.98763
3.43707
3.31708
3.47994
3.7047
3.88346
4.00146
4.06182
4.00967
3.95475
3.54869
3.19732
3.20728
3.41055
3.62346
3.78078
3.87938
3.92071
3.46174
3.36853
3.0954
2.97567
3.09249
3.30931
3.49945
3.63709
3.7184
3.74214
2.81062
2.7165
2.65721
2.74761
2.94435
3.14879
3.31462
3.43409
3.50103
3.51446
2.08739
2.10412
2.23918
2.4739
2.70961
2.90815
3.06343
3.17717
3.24348
3.25896
1.41455
1.53271
1.78416
2.07727
2.3333
2.54771
2.72362
2.86234
2.94991
2.97803
0.737985
0.872803
1.14777
1.47693
1.78692
2.05873
2.2963
2.48128
2.58617
2.62383
0.0655547
-0.0193524
0.216087
0.628042
1.04878
1.43126
1.75574
1.97102
2.07434
2.13761
3.65743
3.70082
3.5702
3.24402
2.59305
1.90406
1.3127
0.840645
0.454541
0.0920825
3.73004
3.67455
3.51963
3.22799
2.5536
1.84814
1.2608
0.80301
0.43156
0.0901856
3.75641
3.56838
3.40778
3.17382
2.5096
1.79546
1.21176
0.767779
0.410966
0.090131
3.71722
3.39191
3.25488
3.0713
2.45233
1.74432
1.16562
0.735093
0.392906
0.0914475
3.60926
3.18356
3.08647
2.91778
2.36992
1.69018
1.12168
0.704949
0.377504
0.0941849
3.44571
2.98569
2.92577
2.73361
2.25602
1.62911
1.07974
0.677761
0.365025
0.0983718
3.25219
2.81835
2.78202
2.55077
2.11347
1.55743
1.03919
0.653931
0.35573
0.103912
3.04503
2.68147
2.65588
2.39352
1.95748
1.47242
0.998709
0.633534
0.349744
0.110577
2.82274
2.57051
2.54298
2.26904
1.80945
1.37534
0.956436
0.616181
0.347026
0.11802
2.57824
2.48823
2.43701
2.17119
1.68414
1.27432
0.910256
0.600882
0.347351
0.125811
5.41871
3.9724
3.27392
2.89434
2.41298
1.89087
1.3906
0.936436
0.541041
0.130875
4.61488
3.75178
3.31014
2.95558
2.45363
1.89967
1.37795
0.917598
0.519448
0.119506
3.94493
3.6598
3.37096
3.0251
2.49302
1.90754
1.36659
0.900752
0.502852
0.109874
3.62507
3.66028
3.45646
3.1055
2.53431
1.91519
1.3557
0.885055
0.488443
0.102278
3.61035
3.70348
3.55831
3.19803
2.58032
1.92308
1.34394
0.868862
0.474438
0.0965709
112.018
88.9508
67.8992
50.1271
36.112
25.7914
18.6212
13.7457
10.5636
8.74948
111.797
88.3885
67.193
49.3927
35.3097
24.7872
17.3175
12.2121
9.06925
7.56907
111.611
87.9082
66.5547
48.6522
34.3986
23.6145
15.8972
10.6772
7.53254
6.0745
111.401
87.3344
65.7144
47.5874
33.0739
22.0204
14.1256
8.8926
5.80707
4.43139
111.147
86.6064
64.5851
46.1143
31.2738
19.9527
11.9568
6.92029
4.43714
3.6213
243.769
243.807
243.927
244.098
244.311
244.32
243.815
243.113
243.217
242.994
243.981
244.053
244.167
244.357
244.627
244.802
244.584
243.933
243.676
243.569
244.178
244.226
244.339
244.536
244.821
245.083
245.057
244.55
244.122
244.072
244.42
244.453
244.551
244.725
244.983
245.272
245.378
245.109
244.722
244.654
244.695
244.713
244.794
244.944
245.159
245.424
245.629
245.631
245.466
245.375
244.987
245
245.069
245.191
245.365
245.596
245.867
246.11
246.216
246.205
245.261
245.28
245.362
245.497
245.674
245.904
246.205
246.568
246.872
246.995
245.547
245.565
245.661
245.853
246.108
246.409
246.77
247.183
247.549
247.73
245.928
245.958
246.034
246.257
246.628
247.082
247.588
248.109
248.454
248.416
246.322
246.432
246.533
246.723
247.123
247.693
248.296
248.847
249.2
248.995
136.501
136.242
136.219
136.482
136.264
135.866
135.325
135.153
135.224
135.389
160.952
160.355
160.377
161.014
160.361
159.239
157.775
157.319
157.524
157.983
183.197
182.631
182.918
183.441
182.39
180.645
178.676
177.987
178.236
178.859
202.164
201.918
202.636
202.647
201.288
199.091
197.084
196.24
196.418
197.02
217.635
217.81
218.594
218.006
216.338
213.994
212.172
211.27
211.309
211.714
229.516
229.997
230.227
229.268
227.46
225.403
223.794
222.847
222.714
222.815
237.715
238.051
237.689
236.615
235.123
233.594
232.144
231.127
230.902
230.751
242.37
242.251
241.641
240.808
239.929
238.911
237.558
236.532
236.473
236.295
244.095
243.676
243.183
242.825
242.527
241.941
240.752
239.856
240.142
240.057
244.234
243.809
243.655
243.676
243.748
243.506
242.632
241.87
242.256
242.066
254.847
246.874
247.501
246.286
246.037
245.53
244.997
244.635
244.504
244.543
252.014
246.81
247.315
246.265
246.09
245.593
245.013
244.668
244.581
244.514
250.091
246.817
247.093
246.26
246.146
245.661
245.056
244.762
244.75
244.546
248.904
246.845
246.88
246.279
246.203
245.735
245.137
244.915
244.98
244.652
248.218
246.848
246.742
246.318
246.26
245.818
245.266
245.107
245.222
244.823
247.77
246.806
246.704
246.367
246.312
245.911
245.433
245.295
245.429
245.029
247.455
246.752
246.703
246.411
246.358
246.014
245.609
245.45
245.584
245.24
247.239
246.723
246.695
246.445
246.391
246.119
245.756
245.559
245.683
245.433
247.095
246.717
246.686
246.469
246.406
246.21
245.854
245.627
245.721
245.592
247.001
246.718
246.683
246.483
246.416
246.274
245.906
245.663
245.687
245.687
317.351
253.757
249.911
246.972
246.142
245.57
245.253
244.932
244.239
242.722
295.619
251.368
248.789
246.74
246.06
245.542
245.208
244.902
244.451
243.523
277.178
249.212
248.192
246.567
246.019
245.523
245.158
244.845
244.533
244.196
265.775
247.867
247.868
246.437
246.001
245.512
245.101
244.762
244.524
244.524
259.004
247.137
247.646
246.328
245.998
245.504
245.032
244.66
244.478
244.557
239.301
237.451
234.236
229.328
222.126
211.771
197.72
179.915
158.839
135.757
240.483
238.948
235.773
230.637
223.134
212.577
198.458
180.624
159.402
135.978
241.996
240.499
237.318
232.065
224.313
213.493
199.201
181.263
159.883
136.165
243.658
242.253
239.125
233.85
225.915
214.822
200.268
182.105
160.457
136.374
244.447
243.61
241.107
236.036
227.994
216.627
201.743
183.234
161.184
136.627
)
;

boundaryField
{
    left
    {
        type            zeroGradient;
    }
    right
    {
        type            fixedValue;
        value           uniform 0;
    }
    down
    {
        type            zeroGradient;
    }
    up
    {
        type            zeroGradient;
    }
    cylinder
    {
        type            zeroGradient;
    }
    defaultFaces
    {
        type            empty;
    }
}


// ************************************************************************* //
