/*--------------------------------*- C++ -*----------------------------------*\
  =========                 |
  \\      /  F ield         | OpenFOAM: The Open Source CFD Toolbox
   \\    /   O peration     | Website:  https://openfoam.org
    \\  /    A nd           | Version:  13
     \\/     M anipulation  |
\*---------------------------------------------------------------------------*/
FoamFile
{
    format      ascii;
    class       surfaceScalarField;
    location    "0.4925";
    object      phi;
}
// * * * * * * * * * * * * * * * * * * * * * * * * * * * * * * * * * * * * * //

dimensions      [0 3 -1 0 0 0 0];

internalField   nonuniform List<scalar> 
3485
(
0.00216601
-0.00483705
0.00267103
0.00869667
-0.0528054
0.0462748
0.0180784
-0.102818
0.0934365
0.028488
-0.133362
0.122953
0.0388839
-0.146225
0.135829
0.0488935
-0.149032
0.139023
0.0584474
-0.147354
0.1378
0.0675451
-0.144026
0.134929
0.0761625
-0.140132
0.131514
-0.135914
0.127537
0.0845394
0.0026436
-0.00748065
0.00966708
-0.0598289
0.0191369
-0.112288
0.0292588
-0.143484
0.0391908
-0.156157
0.0487595
-0.158601
0.0580559
-0.156651
0.0672274
-0.153198
0.0764894
-0.149394
-0.14562
0.0861956
0.00307021
-0.0105509
0.0104533
-0.067212
0.0197772
-0.121612
0.0292747
-0.152982
0.038272
-0.165154
0.04672
-0.167049
0.0547548
-0.164685
0.0625077
-0.160951
0.0700646
-0.156951
-0.15295
0.0773943
0.00350843
-0.0140593
0.0112055
-0.074909
0.0203271
-0.130734
0.0291986
-0.161853
0.0373685
-0.173324
0.0449582
-0.174639
0.052197
-0.171924
0.0592519
-0.168006
0.0662225
-0.163921
-0.159993
0.0732662
0.00385859
-0.0179179
0.0116744
-0.0827248
0.0203432
-0.139402
0.0283191
-0.169829
0.0353748
-0.18038
0.0417782
-0.181042
0.0478204
-0.177967
0.0536858
-0.173871
0.0594814
-0.169717
-0.165774
0.0652617
0.00415016
-0.022068
0.0119279
-0.0905026
0.0199871
-0.147462
0.0269701
-0.176812
0.0328875
-0.186297
0.0381421
-0.186297
0.0430749
-0.182899
0.0478758
-0.178672
0.0526344
-0.174475
-0.170554
0.0574151
0.00432269
-0.0263907
0.0118347
-0.0980146
0.0190582
-0.154685
0.0248723
-0.182626
0.0295181
-0.190943
0.0335091
-0.190288
0.0372182
-0.186608
0.0408346
-0.182289
0.0444418
-0.178083
-0.174189
0.0480759
0.00437526
-0.030766
0.0114067
-0.105046
0.0176093
-0.160888
0.0221499
-0.187167
0.0254768
-0.19427
0.0281838
-0.192995
0.0306523
-0.189077
0.033059
-0.184695
0.0354731
-0.180497
-0.176633
0.0379178
0.00428087
-0.0350469
0.0106082
-0.111373
0.0156129
-0.165892
0.0187934
-0.190347
0.0207567
-0.196233
0.0221535
-0.194391
0.0233592
-0.190283
0.0245335
-0.18587
0.0257341
-0.181697
-0.177867
0.0269679
0.00404218
-0.039089
0.00947088
-0.116802
0.0131537
-0.169575
0.0149239
-0.192118
0.0155069
-0.196816
0.0155937
-0.194478
0.0155409
-0.19023
0.0154844
-0.185813
0.0154693
-0.181682
0.0154948
-0.177893
-0.000749143
0.000337119
0.000412024
0.00208768
-0.00740605
0.00456923
0.00975807
-0.0166519
0.00898154
0.0208336
-0.0229124
0.0118368
0.0336232
-0.0259662
0.0131766
0.0470193
-0.0269778
0.0135817
0.0604494
-0.026952
0.0135219
0.0736607
-0.026477
0.0132657
0.0865663
-0.0258502
0.0129445
-0.0253885
0.0993196
0.0126352
-0.000659728
0.000996847
0.002305
-0.0103708
0.0100551
-0.024402
0.0211413
-0.0339986
0.0338857
-0.0387107
0.0472005
-0.0402926
0.0605292
-0.0402807
0.0736297
-0.0395775
0.0864233
-0.0386439
-0.0380302
0.0990651
-0.000532709
0.00152956
0.0026149
-0.0135184
0.0104817
-0.0322688
0.0215882
-0.0451051
0.0342745
-0.051397
0.0474802
-0.0534983
0.0606708
-0.0534713
0.0736188
-0.0525254
0.0862564
-0.0512815
-0.0505142
0.0987404
-0.000350836
0.00188039
0.00304352
-0.0169127
0.0110706
-0.0402959
0.022209
-0.0562434
0.0348233
-0.0640113
0.0478908
-0.0665657
0.060907
-0.0664875
0.0736637
-0.0652821
0.0861063
-0.063724
-0.0627978
0.0983899
-0.000125884
0.00200628
0.0036016
-0.0206402
0.0118428
-0.0485372
0.0230268
-0.0674274
0.0355551
-0.0765396
0.0484565
-0.0794671
0.0612668
-0.0792978
0.0738023
-0.0778176
0.0860229
-0.0759446
-0.0748455
0.0980705
0.000158363
0.00184791
0.00430302
-0.0247849
0.0128059
-0.0570401
0.0240403
-0.0786618
0.0364606
-0.0889598
0.0491641
-0.0921706
0.0617395
-0.0918732
0.0740349
-0.090113
0.0860227
-0.0879323
-0.0866224
0.0977996
0.000520278
0.00132763
0.00514687
-0.0294115
0.0139359
-0.0658291
0.0252018
-0.0899277
0.0374676
-0.101226
0.0499201
-0.104623
0.0622168
-0.10417
0.0742474
-0.102144
0.0859932
-0.0996782
-0.098064
0.0974348
0.0009285
0.000399134
0.00608022
-0.0345632
0.0151424
-0.0748913
0.0263768
-0.101162
0.0383957
-0.113245
0.050493
-0.11672
0.0624079
-0.116085
0.0740794
-0.113815
0.0854909
-0.11109
-0.10898
0.0964069
0.00134142
-0.000942283
0.00698505
-0.0402068
0.0162283
-0.0841346
0.0272921
-0.112226
0.0388948
-0.124847
0.0504444
-0.12827
0.0617561
-0.127396
0.0728069
-0.124866
0.0835612
-0.121844
-0.118942
0.0935237
0.00172875
0.0077967
0.0170987
0.0278256
0.0388075
0.04956
0.0599639
0.0700266
0.079697
0.0882917
0.153943
-0.155988
0.101365
0.180926
-0.110385
0.0834017
0.194501
-0.0825096
0.0689345
0.201214
-0.0624215
0.055709
0.204267
-0.0470869
0.044034
0.20524
-0.0350162
0.0340425
0.204998
-0.0253828
0.025625
0.204009
-0.0174975
0.0184866
0.202564
-0.0114549
0.0129
-0.0035704
0.00546894
0.152786
-0.209709
0.179926
-0.137526
0.193792
-0.0963754
0.200757
-0.0693868
0.204009
-0.0503391
0.205143
-0.0361498
0.205035
-0.0252743
0.204167
-0.0166296
0.202837
-0.0101254
-0.00179298
0.150838
-0.261807
0.178039
-0.164727
0.192247
-0.110583
0.199559
-0.0766991
0.203121
-0.0539015
0.204536
-0.0375643
0.204688
-0.0254266
0.204072
-0.0160134
0.20299
-0.00904373
-0.000272122
0.148085
-0.311502
0.175253
-0.191895
0.189863
-0.125193
0.197621
-0.0844572
0.201606
-0.0578866
0.203423
-0.0393809
0.203962
-0.025966
0.203727
-0.0157781
0.203025
-0.0083422
0.000856612
0.144524
-0.357955
0.171557
-0.218928
0.186642
-0.140278
0.194949
-0.0927644
0.199471
-0.0624084
0.20181
-0.0417196
0.20286
-0.027016
0.203131
-0.0160494
0.202938
-0.00814965
0.00146012
0.140135
-0.40029
0.166923
-0.245717
0.182583
-0.155938
0.191552
-0.101733
0.196726
-0.0675831
0.199705
-0.0446986
0.201387
-0.0286976
0.20229
-0.0169522
0.202733
-0.00859329
0.0014081
0.134853
-0.437708
0.161285
-0.272149
0.177663
-0.172316
0.187432
-0.111502
0.193383
-0.0735337
0.19712
-0.0484362
0.199553
-0.0311305
0.201207
-0.0186056
0.202407
-0.00979389
0.000574138
0.128655
-0.469957
0.154528
-0.298021
0.171802
-0.189591
0.182569
-0.122269
0.189444
-0.0804088
0.194064
-0.0530558
0.197365
-0.0344311
0.199886
-0.0211274
0.201964
-0.0118716
-0.00116616
0.121679
-0.498112
0.146589
-0.322931
0.164832
-0.207833
0.176857
-0.134294
0.184866
-0.0884173
0.190526
-0.0587157
0.194825
-0.0387308
0.198333
-0.0246353
0.201402
-0.0149406
-0.00392981
0.114882
-0.524702
0.138719
-0.346768
0.157165
-0.22628
0.170345
-0.147474
0.179629
-0.097701
0.186492
-0.0655793
0.191933
-0.0441714
0.19655
-0.0292521
0.200726
-0.0191166
-0.00783338
0.379896
-0.463439
-0.441159
0.34763
-0.314502
0.331282
-0.209933
0.323412
-0.139604
0.319296
-0.0935843
0.316843
-0.0631262
0.31522
-0.0425492
0.314118
-0.0281496
0.31337
-0.0183686
-0.00751487
0.391988
-0.392628
-0.462799
0.35661
-0.279123
0.338819
-0.192141
0.329239
-0.130024
0.323484
-0.087829
0.319776
-0.0594181
0.317292
-0.0400659
0.315627
-0.0264845
0.314526
-0.0172672
-0.00705992
0.407982
-0.327113
-0.473497
0.370041
-0.241182
0.348229
-0.170329
0.335549
-0.117344
0.327723
-0.0800028
0.322658
-0.0543539
0.319295
-0.0367024
0.317072
-0.0242618
0.315621
-0.0158164
-0.00646552
0.418099
-0.266453
-0.478759
0.379683
-0.202766
0.355793
-0.146439
0.340973
-0.102524
0.331497
-0.0705267
0.325271
-0.0481282
0.321127
-0.0325574
0.318397
-0.0215318
0.316621
-0.0140409
-0.00574053
0.425226
-0.210762
-0.480917
0.387232
-0.164773
0.362043
-0.12125
0.345599
-0.0860809
0.334776
-0.0597036
0.327565
-0.0409169
0.322744
-0.0277364
0.319568
-0.0183562
0.317505
-0.0119782
-0.00490051
0.43013
-0.159592
-0.4813
0.392933
-0.127575
0.367
-0.0953163
0.349385
-0.0684664
0.337511
-0.0478293
0.329502
-0.0329083
0.324119
-0.022353
0.320569
-0.014806
0.31826
-0.00966972
-0.00395892
0.43336
-0.112113
-0.480839
0.397045
-0.0912602
0.370733
-0.069004
0.352317
-0.0500501
0.339664
-0.0351772
0.33104
-0.0242842
0.325213
-0.0165254
0.321364
-0.0109576
0.318855
-0.00716012
-0.00293174
0.434862
-0.0668591
-0.480116
0.399295
-0.0556931
0.372901
-0.0426105
0.354048
-0.0311965
0.340907
-0.0220368
0.331881
-0.0152583
0.325758
-0.0104024
0.321705
-0.00690408
0.319055
-0.0045103
-0.00184429
0.427204
-0.0204439
-0.473619
0.392383
-0.0208719
0.366798
-0.0170259
0.348403
-0.0128019
0.335489
-0.00912196
0.326574
-0.00634323
0.320509
-0.00433776
0.316494
-0.00288958
0.313867
-0.00188288
-0.000765132
0.310659
-0.331103
0.289787
0.272761
0.25996
0.250838
0.244494
0.240157
0.237267
0.235384
0.47247
0.0135735
-0.470549
0.47362
0.025818
0.473869
0.0376686
0.473192
0.0487536
0.471031
0.0595756
0.468531
0.0677615
0.462418
0.0793798
0.458947
0.0808647
0.447233
0.0979098
0.0906132
0.453559
0.011718
-0.451704
0.455504
0.0238726
0.457403
0.03577
0.459385
0.0467718
0.4608
0.0581607
0.462693
0.0658683
0.463012
0.0790608
0.464149
0.079728
0.465015
0.0970438
0.0928288
0.437258
0.00984501
-0.435385
0.439769
0.0213618
0.442814
0.0327252
0.446427
0.0431589
0.450387
0.0542003
0.454701
0.0615545
0.45958
0.0741816
0.463621
0.0756869
0.469776
0.0908888
0.0891076
0.424754
0.00798898
-0.422898
0.427596
0.0185201
0.431375
0.0289465
0.436006
0.0385278
0.441606
0.0485999
0.447557
0.0556035
0.455107
0.0666316
0.461726
0.0690685
0.471044
0.0815706
0.0813923
0.414991
0.00615287
-0.413155
0.418062
0.0154483
0.422357
0.0246518
0.427725
0.0331604
0.434393
0.0419314
0.441616
0.0483804
0.450737
0.0575105
0.459366
0.0604403
0.470604
0.0703325
0.071079
0.40761
0.00430912
-0.405767
0.410862
0.0121963
0.415514
0.0200002
0.421409
0.0272657
0.428749
0.0345911
0.436887
0.0402419
0.446896
0.0475016
0.456891
0.050446
0.469242
0.0579807
0.0590208
0.40221
0.00242569
-0.400326
0.405623
0.00878262
0.410551
0.0150727
0.416847
0.0209695
0.424633
0.0268055
0.433412
0.031463
0.443921
0.0369918
0.454811
0.0395564
0.467742
0.0450494
0.0459239
0.397264
0.000305373
-0.395144
0.400969
0.00507759
0.406303
0.00973904
0.413115
0.0141578
0.421418
0.0185021
0.430832
0.0220495
0.441761
0.0260623
0.453298
0.0280196
0.466566
0.0317811
0.0323744
0.377461
-0.00159432
-0.375561
0.381603
0.000935286
0.387811
0.00353142
0.395913
0.00605543
0.40583
0.00858549
0.417113
0.0107662
0.429968
0.013208
0.443457
0.0145303
0.458398
0.0168398
0.0171535
0.239498
-0.241092
0.240433
0.243965
0.25002
0.258605
0.269372
0.28258
0.29711
0.31395
0.0777884
0.127821
-0.115678
-0.0899307
0.0666704
0.12973
-0.118612
0.0564695
0.132486
-0.122285
0.0466736
0.136165
-0.126369
0.0369069
0.140277
-0.130511
0.0270498
0.144153
-0.134296
0.017324
0.145569
-0.135843
0.00854538
0.137786
-0.129007
0.00226519
0.108479
-0.102199
0.0481518
-0.0458866
0.0794152
0.138887
-0.0904817
0.0680865
0.141059
0.0571144
0.143458
0.0466023
0.146677
0.0363808
0.150499
0.0263375
0.154196
0.0166536
0.155253
0.00808782
0.146352
0.00207936
0.114488
0.0502312
0.0728292
0.148259
-0.0822006
0.0629461
0.150942
0.0529291
0.153475
0.0430216
0.156585
0.0332674
0.160253
0.0236928
0.163771
0.0145671
0.164378
0.00670736
0.154211
0.0014829
0.119712
0.0517141
0.0614596
0.155807
-0.0690076
0.0534831
0.158918
0.0451268
0.161831
0.0365575
0.165154
0.0279041
0.168906
0.0193199
0.172355
0.0112139
0.172484
0.00453691
0.160888
0.000596477
0.123653
0.0523106
0.0491353
0.161911
-0.0552397
0.0427393
0.165314
0.035941
0.16863
0.0288086
0.172287
0.0214656
0.176249
0.0141276
0.179693
0.00730064
0.179311
0.00203419
0.166155
-0.000348137
0.126035
0.0519624
0.0375224
0.166963
-0.0425738
0.0322891
0.170548
0.0267357
0.174183
0.0208769
0.178146
0.0148108
0.182315
0.00877701
0.185727
0.00336444
0.184724
-0.000489364
0.170009
-0.00124848
0.126794
0.0507139
0.0266468
0.171138
-0.0308219
0.0223689
0.174825
0.0178713
0.178681
0.0131515
0.182865
0.00829129
0.187176
0.00354197
0.190476
-0.00053153
0.188797
-0.00255484
0.172032
-0.00202007
0.126259
0.0486939
0.0160932
0.1744
-0.0193552
0.0127699
0.178149
0.00930073
0.18215
0.00569062
0.186476
0.00202652
0.19084
-0.00142493
0.193928
-0.00392913
0.191301
-0.0046057
0.172709
-0.00268776
0.124341
0.0460061
0.00559789
0.176688
-0.00788625
0.00328235
0.180464
0.000886985
0.184545
-0.00157733
0.18894
-0.00401925
0.193282
-0.00612282
0.196031
-0.00725284
0.192431
-0.00640725
0.171863
-0.00323694
0.121171
0.0427692
-0.00489313
0.00368842
-0.00611109
-0.00737908
-0.00866906
-0.00986553
-0.0106507
-0.0103368
-0.00804913
-0.00368012
0.10361
0.0240545
-0.114928
-0.0127374
0.0919724
0.0246806
-0.0130425
0.0799784
0.0253549
-0.0133609
0.0676057
0.0260735
-0.0137007
0.0548434
0.0268294
-0.0140671
0.0417019
0.0275875
-0.0144461
0.0283352
0.0280867
-0.01472
0.0154543
0.0272742
-0.0143933
0.00496383
0.0227002
-0.0122098
0.0112069
-0.00624308
0.102844
0.0353563
-0.114146
0.0912364
0.036288
0.0792875
0.0373038
0.0669745
0.0383865
0.0542859
0.039518
0.0412328
0.0406406
0.0279723
0.0413472
0.0152194
0.0400271
0.00486807
0.0330515
0.016075
0.10173
0.0466276
-0.113002
0.0901758
0.0478426
0.0782988
0.0491808
0.0660763
0.0506091
0.053496
0.0520982
0.0405697
0.0535669
0.0274602
0.0544568
0.014889
0.0525983
0.00473378
0.0432067
0.0208088
0.100159
0.0578423
-0.111374
0.088691
0.059311
0.0769242
0.0609476
0.0648342
0.0626991
0.0524077
0.0645247
0.0396579
0.0663167
0.0267551
0.0673595
0.014432
0.0649215
0.00454593
0.0530928
0.0253547
0.0979707
0.0689569
-0.109085
0.0866461
0.0706355
0.0750575
0.0725362
0.0631732
0.0745834
0.0509734
0.0767245
0.0384698
0.0788203
0.025843
0.0799864
0.0138419
0.0769226
0.00430542
0.0626292
0.0296601
0.0949446
0.0798927
-0.10588
0.0838371
0.0817431
0.0724927
0.0838807
0.0608835
0.0861925
0.0489923
0.0886157
0.0368328
0.0909798
0.0245939
0.0922252
0.0130372
0.0884793
0.00397415
0.0716923
0.0336343
0.0912495
0.0904449
-0.101802
0.080598
0.0923945
0.0697177
0.0947609
0.0585382
0.097372
0.0470345
0.100119
0.0352392
0.102775
0.0233808
0.104084
0.0122625
0.0995975
0.00367212
0.0802827
0.0373064
0.0847346
0.100531
-0.0948208
0.0746265
0.102503
0.0644032
0.104984
0.0539879
0.107787
0.0433021
0.110805
0.0323295
0.113748
0.0212833
0.11513
0.0109754
0.109905
0.00315929
0.0880988
0.0404657
0.0822275
0.109214
-0.0909106
0.0731017
0.111628
0.0632934
0.114793
0.0529669
0.118114
0.0422767
0.121495
0.0313443
0.12468
0.0204509
0.126023
0.0104287
0.119928
0.00296164
0.0955658
0.0434273
0.0693544
-0.0758186
0.0623708
0.0548782
0.0466226
0.0376074
0.0279918
0.0181722
0.00909257
0.00245932
0.202121
0.0122568
-0.0163876
0.204747
0.0283308
-0.030957
0.205292
0.0349579
-0.0355031
0.206247
0.036772
-0.037727
0.205358
0.0432675
-0.0423789
0.202873
0.0519022
-0.049417
0.196764
0.0647093
-0.0586002
0.186095
0.0815971
-0.0709277
0.160395
0.109806
-0.0841066
0.146618
-0.101151
0.201848
0.0083984
0.204328
0.0258513
0.204821
0.0344648
0.205717
0.0358759
0.204752
0.0442328
0.202131
0.0545232
0.195883
0.070957
0.184886
0.0925943
0.159238
0.135454
0.191711
0.20145
0.00493787
0.203641
0.0236602
0.203987
0.0341189
0.204682
0.0351817
0.203514
0.0454
0.200632
0.0574056
0.194164
0.0774251
0.182707
0.104051
0.157297
0.160864
0.236006
0.200922
0.0020055
0.202691
0.0218912
0.2028
0.0340095
0.203151
0.034831
0.20166
0.0468913
0.198393
0.0606726
0.191612
0.0842063
0.179543
0.116119
0.154618
0.185789
0.27925
0.200259
-0.000263529
0.201482
0.0206676
0.201273
0.0342187
0.201139
0.0349652
0.199205
0.0488253
0.195433
0.0644443
0.188237
0.0914027
0.175372
0.128984
0.151264
0.209898
0.321429
0.199455
-0.00172829
0.200021
0.0201015
0.19942
0.0348193
0.198659
0.0357259
0.19617
0.0513151
0.191774
0.0688404
0.184048
0.099128
0.1702
0.142832
0.14725
0.232849
0.362798
0.198502
-0.00224018
0.198316
0.0202872
0.197259
0.035876
0.19573
0.0372552
0.192577
0.0544677
0.187434
0.0739837
0.179038
0.107524
0.164143
0.157727
0.142659
0.254333
0.403655
0.197399
-0.00164912
0.196384
0.0213021
0.194807
0.0374525
0.192366
0.0396961
0.188454
0.0583798
0.182437
0.0800013
0.173167
0.116793
0.157122
0.173773
0.13668
0.274775
0.445514
0.196155
0.000185688
0.194254
0.0232033
0.192086
0.0396208
0.188589
0.0431927
0.183828
0.0631407
0.176848
0.0869815
0.166698
0.126943
0.15048
0.18999
0.131805
0.29345
0.486408
0.19489
0.00328551
0.191991
0.0261024
0.189119
0.0424925
0.184362
0.0479501
0.178562
0.0689404
0.17013
0.095414
0.158083
0.138989
0.140249
0.207825
0.121335
0.312364
0.531925
0.303422
0.00187377
0.306858
0.0226662
0.31072
0.0386308
0.313335
0.0453349
0.316365
0.0659104
0.319822
0.0919572
0.325374
0.133437
0.336539
0.196659
0.362436
0.286467
0.469843
0.424518
0.30428
-0.000396513
0.308016
0.0189311
0.312448
0.0341982
0.315877
0.0419065
0.320329
0.0614578
0.325982
0.0863044
0.334951
0.124468
0.350926
0.180684
0.380579
0.256815
0.40647
0.443951
0.305138
-0.00352392
0.309379
0.0146898
0.314197
0.0293797
0.31842
0.0376837
0.324071
0.0558073
0.331578
0.0787976
0.343246
0.1128
0.36202
0.161909
0.395443
0.223393
0.343425
0.458488
0.306046
-0.00756013
0.31081
0.00992605
0.315918
0.0242724
0.320828
0.0327732
0.327498
0.0491373
0.336555
0.06974
0.350288
0.0990671
0.371183
0.141015
0.406046
0.188529
0.282894
0.466578
0.307051
-0.0126007
0.312327
0.00465015
0.317579
0.0190195
0.323032
0.0273205
0.330535
0.0416346
0.340849
0.0594257
0.356105
0.0838111
0.378614
0.118506
0.41329
0.153853
0.225833
0.470351
0.308222
-0.0188121
0.31398
-0.00110874
0.319168
0.0138324
0.324989
0.0214988
0.333138
0.0334859
0.344425
0.0481388
0.360765
0.0674713
0.384411
0.0948593
0.41813
0.120134
0.172414
0.471549
0.309615
-0.0264167
0.315795
-0.00728864
0.320653
0.00897451
0.326646
0.0155057
0.335265
0.024867
0.347263
0.0361409
0.364345
0.0503884
0.388709
0.0704959
0.421281
0.0875619
0.122296
0.471399
0.311364
-0.0357703
0.31777
-0.0136951
0.321873
0.00487156
0.327781
0.00959745
0.33671
0.0159382
0.349197
0.0236539
0.366793
0.032793
0.391548
0.0457405
0.423183
0.0559273
0.0750515
0.470427
0.309576
-0.0433362
0.314522
-0.0186411
0.317756
0.00163781
0.323632
0.00372105
0.332736
0.0068347
0.345552
0.0108377
0.36352
0.0148245
0.388395
0.0208657
0.419738
0.0245844
0.0325445
0.462245
0.258674
0.240033
0.241671
0.245392
0.252227
0.263064
0.277889
0.298754
0.323339
0.355883
0.439055
-0.104467
0.444806
-0.0962331
0.447691
-0.0850857
0.45024
-0.0715564
0.453331
-0.0583306
0.456982
-0.0462248
0.460867
-0.0347065
0.464576
-0.0230647
0.467795
-0.0111055
0.000934951
0.444992
-0.105508
0.444126
-0.0953673
0.44302
-0.0839789
0.443077
-0.0716139
0.444081
-0.059335
0.445473
-0.0476164
0.44695
-0.0361839
0.448495
-0.0246096
0.450124
-0.0127343
-0.000644412
0.452306
-0.0993263
0.447036
-0.0900973
0.442361
-0.0793044
0.438786
-0.0680386
0.436318
-0.056867
0.434712
-0.0460102
0.433845
-0.0353171
0.433696
-0.0244604
0.434227
-0.013266
-0.00180208
0.456206
-0.0889544
0.447268
-0.0811597
0.439622
-0.0716575
0.433494
-0.0619115
0.428901
-0.0522739
0.425605
-0.0427137
0.423403
-0.0331154
0.422221
-0.0232778
0.422049
-0.0130943
-0.00265145
0.457644
-0.0762471
0.446499
-0.0700155
0.437033
-0.0621913
0.429277
-0.0541553
0.423172
-0.046169
0.418555
-0.0380962
0.415281
-0.029842
0.413298
-0.021294
0.412597
-0.0123933
-0.00320947
0.457591
-0.0622896
0.44513
-0.0575542
0.434462
-0.0515231
0.425597
-0.04529
0.418461
-0.0390338
0.412949
-0.0325841
0.408959
-0.0258515
0.406439
-0.0187743
0.405377
-0.0113308
-0.0035993
0.456702
-0.0475932
0.443452
-0.0443042
0.432031
-0.0401015
0.422469
-0.0357278
0.414685
-0.0312499
0.408601
-0.0265001
0.404146
-0.0213966
0.401284
-0.0159124
0.400013
-0.0100604
-0.00391232
0.455065
-0.0322314
0.441151
-0.03039
0.429146
-0.0280963
0.419052
-0.0256339
0.410772
-0.0229701
0.404237
-0.0199647
0.399401
-0.0165607
0.396258
-0.0127697
0.394829
-0.00863143
-0.00422692
0.445237
-0.0152233
0.430015
-0.0151681
0.416806
-0.0148875
0.405503
-0.0143305
0.395973
-0.0134401
0.388165
-0.0121564
0.382116
-0.0105115
0.377925
-0.00857902
0.375713
-0.00641948
-0.00407529
0.34066
0.325492
0.310604
0.296274
0.282834
0.270677
0.260166
0.251587
0.245167
0.0101739
0.050005
-0.0601788
0.0212641
0.150554
-0.161645
0.0261753
0.21554
-0.220451
0.0258643
0.242153
-0.241842
0.0228649
0.247949
-0.24495
0.0188898
0.246214
-0.242239
0.0146512
0.242545
-0.238306
0.0104173
0.237861
-0.233628
0.00651034
0.229766
-0.225859
0.210885
0.00379572
-0.208171
0.0117849
0.0382201
0.0275189
0.13482
0.037726
0.205333
0.0421505
0.237728
0.0432755
0.246824
0.0431484
0.246341
0.0427019
0.242991
0.0420258
0.238538
0.0404512
0.231341
0.214901
0.0364358
0.0121989
0.0260211
0.0313102
0.115709
0.0464724
0.19017
0.0558876
0.228313
0.0615633
0.241148
0.0656718
0.242233
0.0694029
0.23926
0.0729171
0.235023
0.0750842
0.229174
0.217616
0.0723694
0.0113846
0.0146365
0.0318832
0.0952105
0.050784
0.17127
0.0648356
0.214262
0.0751191
0.230865
0.0835822
0.233769
0.0915707
0.231271
0.0995241
0.22707
0.1067
0.221998
0.214658
0.109657
0.00959063
0.00504589
0.0292537
0.0755475
0.049992
0.150531
0.0676216
0.196632
0.0820632
0.216423
0.0946591
0.221174
0.106657
0.219274
0.118707
0.21502
0.130705
0.21
0.204346
0.141017
0.00722689
-0.002181
0.0241943
0.05858
0.0446363
0.130089
0.0641881
0.17708
0.0816963
0.198915
0.0976626
0.205207
0.112961
0.203975
0.128231
0.19975
0.143756
0.194475
0.188513
0.159589
0.00473445
-0.00691545
0.0180551
0.0452594
0.0365574
0.111587
0.0563385
0.157299
0.0755062
0.179747
0.0937284
0.186985
0.111339
0.186364
0.128765
0.182324
0.146252
0.176988
0.170355
0.164411
0.00245701
-0.00937246
0.0121171
0.0355993
0.0278535
0.0958507
0.0464992
0.138653
0.0658051
0.160442
0.0847921
0.167998
0.103257
0.167899
0.121302
0.164279
0.139156
0.159134
0.152588
0.156923
0.000740966
-0.0101134
0.00751044
0.0288298
0.0206249
0.0827362
0.0376501
0.121628
0.0563021
0.141789
0.0752626
0.149038
0.0939875
0.149175
0.112355
0.145912
0.130469
0.141019
0.133978
0.149078
-0.000344033
-0.0097694
0.00441482
0.024071
0.0153876
0.0717633
0.0306243
0.106392
0.0479053
0.124508
0.0657275
0.131215
0.0832719
0.13163
0.100152
0.129031
0.116018
0.125154
0.119346
0.13065
-0.000835335
-0.00893406
0.002809
0.0204266
0.0124162
0.0621561
0.0263217
0.0924861
0.0424621
0.108368
0.0593767
0.114301
0.0762446
0.114762
0.0926893
0.112586
0.108532
0.109311
0.106054
0.121824
-0.00100242
-0.00793165
0.00215559
0.0172686
0.0109985
0.0533133
0.0240078
0.0794767
0.03925
0.0931259
0.0553446
0.0982061
0.0715037
0.0986031
0.087341
0.096749
0.102701
0.0939513
0.092086
0.116669
-0.00104004
-0.00689161
0.00186877
0.0143598
0.0102122
0.0449699
0.0225262
0.0671628
0.0369588
0.0786933
0.0522014
0.0829635
0.0675097
0.0832948
0.0825102
0.0817485
0.0970352
0.0794263
0.0782439
0.110877
-0.0010269
-0.00586471
0.00174431
0.0115886
0.00975668
0.0369575
0.0215649
0.0553545
0.0353686
0.0648896
0.049916
0.0684161
0.0645038
0.068707
0.0787776
0.0674747
0.0925695
0.0656344
0.0648249
0.105988
-0.000992263
-0.00487244
0.00171054
0.00888579
0.00952007
0.029148
0.0209993
0.0438753
0.0343799
0.051509
0.0484533
0.0543427
0.0625533
0.0546069
0.0763528
0.0536752
0.0897057
0.0522815
0.0517235
0.102807
-0.000960712
-0.00391173
0.00171183
0.00621325
0.00940234
0.0214575
0.0206823
0.0325953
0.0338053
0.038386
0.0475934
0.0405546
0.0614101
0.0407902
0.0749528
0.0401325
0.0880975
0.0391368
0.0387817
0.101039
-0.000930521
-0.00298121
0.00173223
0.0035505
0.00935736
0.0138323
0.0205248
0.0214279
0.0335034
0.0254074
0.0471355
0.0269225
0.0608047
0.0271211
0.0742251
0.0267122
0.0872863
0.0260756
0.0259014
0.100167
-0.000896822
-0.00208439
0.00177319
0.000880482
0.00936978
0.00623573
0.0204787
0.010319
0.0333802
0.0125059
0.0469301
0.0133725
0.0605251
0.0135261
0.0738898
0.0133475
0.0869217
0.0130436
0.0130378
0.0997852
-0.000859495
-0.0012249
0.00183888
-0.0018179
0.00943548
-0.00136086
0.0205178
-0.000763297
0.0333754
-0.000351689
0.0468754
-0.000127546
0.0604242
-2.26233e-05
0.0737534
1.8266e-05
0.0867662
3.09101e-05
0.000186399
0.0996176
-0.000812872
0.00193846
0.00955914
0.0206327
0.0334576
0.0469117
0.060411
0.073695
0.0866704
0.099492
0.137987
0.296593
-0.312757
0.150026
0.124303
-0.136341
0.159621
0.0419187
-0.051514
0.167284
0.00501821
-0.0126812
0.173679
-0.0091013
0.00270623
0.179359
-0.0132133
0.00753333
0.184569
-0.0131363
0.0079266
0.189405
-0.0114192
0.00658346
0.19393
-0.00939211
0.00486653
-0.0061276
0.00208637
0.139423
0.27384
0.155614
0.108112
0.16641
0.031122
0.173754
-0.00232531
0.179333
-0.01468
0.184013
-0.0178933
0.188139
-0.0172622
0.191844
-0.0151247
0.195223
-0.0127711
-0.00903438
0.141536
0.243181
0.160808
0.08884
0.172239
0.0196914
0.179356
-0.00944225
0.184342
-0.0196666
0.188205
-0.021756
0.191384
-0.020441
0.194081
-0.0178215
0.19643
-0.0151202
-0.0109168
0.144179
0.20499
0.165592
0.0674265
0.177471
0.00781292
0.184399
-0.0163708
0.188843
-0.0241103
0.191972
-0.0248845
0.194309
-0.0227786
0.196112
-0.0196244
0.197548
-0.0165558
-0.0118885
0.146916
0.160882
0.16985
0.044492
0.182063
-0.00440036
0.188817
-0.0231246
0.192804
-0.0280976
0.195298
-0.0273782
0.196906
-0.0243862
0.197932
-0.020651
0.198574
-0.0171973
-0.0120675
0.149412
0.11251
0.173511
0.0203928
0.185994
-0.0168838
0.192605
-0.0297354
0.196209
-0.0317018
0.198169
-0.0293385
0.199162
-0.0253788
0.199533
-0.0210224
0.199504
-0.0171676
-0.0115759
0.151496
0.0611803
0.176517
-0.00462796
0.189227
-0.029594
0.195734
-0.0362421
0.199036
-0.0350046
0.20057
-0.0308717
0.201066
-0.0258754
0.200907
-0.0208632
0.200332
-0.0165928
-0.0105396
0.153065
0.00790017
0.178815
-0.0303775
0.191722
-0.0425011
0.198177
-0.0426967
0.201268
-0.0380962
0.202486
-0.0320894
0.202609
-0.0259984
0.202047
-0.0203008
0.201056
-0.0156021
-0.00908796
0.154031
-0.0465136
0.180342
-0.0566884
0.19345
-0.0556087
0.199914
-0.0491613
0.20289
-0.0410722
0.203908
-0.0331069
0.203782
-0.0258727
0.202946
-0.019465
0.201671
-0.0143268
-0.0073531
0.154344
0.181057
0.194383
0.20093
0.203892
0.204828
0.20458
0.203602
0.202175
0.106814
-0.00364149
-0.103173
0.105401
0.00141281
0.103787
0.00161444
0.103834
-4.71445e-05
0.104852
-0.00101823
0.106054
-0.00120175
0.107124
-0.00106999
0.107956
-0.000832302
0.108535
-0.000578681
-0.000234884
0.2308
0.064444
-0.298885
0.199376
0.0328367
0.187431
0.0135587
0.184238
0.00314586
0.184485
-0.00126458
0.185895
-0.00261244
0.187466
-0.00264083
0.188796
-0.00216216
0.189786
-0.00156868
-0.000659117
0.25141
0.155443
-0.342409
0.213895
0.0703519
0.200056
0.0273979
0.196251
0.00695025
0.196373
-0.00138588
0.197827
-0.00406678
0.199494
-0.00430739
0.200921
-0.00358973
0.201998
-0.00264537
-0.00112629
0.24705
0.240206
-0.331812
0.212557
0.104845
0.200027
0.0399282
0.196827
0.01015
0.197267
-0.00182597
0.198884
-0.0056842
0.200637
-0.00606057
0.202109
-0.00506092
0.203208
-0.00374514
-0.00160278
0.241751
-0.314303
0.210255
0.198669
0.196138
0.197018
0.198867
0.200733
0.202256
0.203377
0.0117894
0.000649254
-0.0124386
0.0121524
-0.000363058
0.012973
-0.000820601
0.0138538
-0.000880728
0.015597
-0.00174324
0.0195246
-0.00392764
0.0306675
-0.0111428
0.0463666
-0.0156992
0.0742471
-0.0278805
-0.0289254
0.0342485
0.00150083
-0.0351001
0.0373325
-0.00344707
0.044689
-0.0081771
0.0581166
-0.0143083
0.0802389
-0.0238655
0.112972
-0.0366604
0.156928
-0.0550994
0.20398
-0.0627513
0.25648
-0.0803796
-0.0713309
0.0561234
0.00141455
-0.0560372
0.0633612
-0.0106848
0.0791971
-0.0240131
0.106007
-0.0411185
0.144289
-0.0621476
0.191192
-0.083563
0.239378
-0.103285
0.282043
-0.105416
0.317514
-0.115851
-0.0962258
0.0759897
-0.000287177
-0.074288
0.0873327
-0.0220278
0.109869
-0.0465495
0.143868
-0.0751174
0.18565
-0.10393
0.228408
-0.12632
0.263886
-0.138763
0.293193
-0.134724
0.314333
-0.136991
-0.113705
0.0922996
-0.0887911
0.106708
0.132528
0.167067
0.204155
0.237423
0.26307
0.28527
0.297358
0.0911408
-0.0879997
0.0971026
-0.100244
0.0822705
-0.0906483
0.0995186
0.0733088
-0.0941452
0.103107
0.0635299
-0.0977407
0.10752
0.052655
-0.101249
0.112124
0.040727
-0.104556
0.116484
0.0280473
-0.106558
0.119238
0.0154738
-0.102764
0.115337
0.0050276
-0.0835999
0.0940461
-0.0394119
0.0444395
0.104713
-0.0780748
-0.114638
0.0941635
-0.0800988
0.0825614
-0.082543
0.0700643
-0.0852437
0.0569271
-0.0881118
0.0433389
-0.0909676
0.0295292
-0.0927487
0.0162192
-0.0894538
0.00529982
-0.0726806
-0.0341121
0.101451
-0.0667542
-0.112771
0.0899169
-0.0685652
0.0781482
-0.0707743
0.0661194
-0.0732148
0.053757
-0.0757494
0.0409956
-0.0782062
0.0279356
-0.0796887
0.0152647
-0.0767829
0.00489081
-0.0623067
-0.0292213
0.103806
-0.0554303
-0.11513
0.0922854
-0.0570449
0.080433
-0.0589219
0.0681577
-0.0609396
0.0554175
-0.0630092
0.0422231
-0.0650118
0.0287467
-0.0662123
0.0157246
-0.0637607
0.00508036
-0.0516625
-0.0241409
0.104313
-0.0440237
-0.11572
0.0926228
-0.0453545
0.0805803
-0.0468793
0.0681525
-0.0485118
0.055325
-0.0501817
0.0421058
-0.0517926
0.028645
-0.0527515
0.0156505
-0.0507662
0.00503438
-0.0410463
-0.0191065
0.104616
-0.0326334
-0.116006
0.0929197
-0.0336585
0.0808645
-0.0348241
0.0684183
-0.0360656
0.0555633
-0.0373266
0.0423059
-0.0385353
0.0287984
-0.0392439
0.0157517
-0.0377195
0.00508308
-0.0303777
-0.0140235
0.104714
-0.0212696
-0.116078
0.0930221
-0.0219668
0.080959
-0.0227611
0.0684981
-0.0236047
0.0556265
-0.0244551
0.0423539
-0.0252628
0.0288317
-0.0257217
0.0157685
-0.0246563
0.00508664
-0.0196958
-0.00893682
0.104664
-0.00992188
-0.116011
0.0929797
-0.0102829
0.0809219
-0.0107033
0.0684658
-0.0111486
0.0555999
-0.0115892
0.042334
-0.0119968
0.0288188
-0.0122065
0.0157624
-0.0116
0.00508626
-0.00901966
-0.00385056
0.104468
0.00141059
-0.1158
0.092798
0.001387
0.0807547
0.0013401
0.0683149
0.00129118
0.0554683
0.00125739
0.0422253
0.00124624
0.0287369
0.00128193
0.0157112
0.00142571
0.00506628
0.00162522
0.00121572
0.104113
-0.11544
0.0924574
0.0804366
0.0680271
0.0552174
0.0420175
0.0285795
0.0156119
0.00502736
0.0253437
-0.205907
-0.0276073
0.0193265
-0.219842
0.0120561
-0.226357
0.00457135
-0.230821
-0.00270308
-0.234965
-0.00923339
-0.238419
-0.0136585
-0.237417
-0.0137095
-0.2204
-0.00768675
-0.167667
-0.0678656
0.0545831
-0.201446
-0.0590439
0.0458087
-0.211068
0.0357532
-0.216302
0.0255436
-0.220612
0.0155473
-0.224968
0.00611509
-0.228987
-0.00182052