/*--------------------------------*- C++ -*----------------------------------*\
  =========                 |
  \\      /  F ield         | OpenFOAM: The Open Source CFD Toolbox
   \\    /   O peration     | Website:  https://openfoam.org
    \\  /    A nd           | Version:  13
     \\/     M anipulation  |
\*---------------------------------------------------------------------------*/
FoamFile
{
    format      ascii;
    class       volScalarField;
    location    "37.8";
    object      p;
}
// * * * * * * * * * * * * * * * * * * * * * * * * * * * * * * * * * * * * * //

dimensions      [0 2 -2 0 0 0 0];

internalField   nonuniform List<scalar> 
440
(
-1.17934
-1.15813
-1.14862
-1.14067
-1.19879
-1.24141
-1.21609
-1.191
-1.16681
-1.14392
-1.3708
-1.32851
-1.27375
-1.20313
-1.12771
-1.50683
-1.44955
-1.33112
-1.19359
-1.05522
-1.58381
-1.50077
-1.31691
-1.12929
-0.960919
-0.92016
-0.966033
-1.0897
-1.28866
-1.51779
-1.18665
-1.20474
-1.26045
-1.34817
-1.46771
-1.1778
-1.15956
-1.13917
-1.12531
-1.13163
-1.17211
-1.15496
-1.14192
-1.14492
-1.18012
-1.16379
-1.14605
-1.13319
-1.12936
-1.15897
-0.703589
-0.0843243
-0.483541
0.0690106
-0.158785
-0.885143
-0.256179
-0.424049
0.127797
-0.177355
-0.987034
-0.167204
-0.0324361
0.171412
-0.209299
-1.20765
-0.0520814
0.547792
0.203443
-0.209016
-1.28283
-0.0817938
0.722548
0.263863
-0.157136
-0.991804
-0.0268155
0.450264
0.300847
-0.0778977
-0.517741
0.185588
0.198658
0.164212
-0.00264774
-0.320726
0.262719
0.556068
0.179089
0.0189998
-0.156908
0.202447
0.572467
0.23553
0.00845495
-0.0787017
0.170361
0.628199
0.35268
0.037403
-0.676452
-0.797623
-0.964473
-1.12483
-1.30417
-0.395295
-0.517085
-0.608699
-0.669731
-0.709008
-0.206617
-0.313028
-0.368958
-0.405921
-0.42167
-0.0939941
-0.185186
-0.235176
-0.257988
-0.255281
-0.0413561
-0.129036
-0.176142
-0.191176
-0.172703
0.7868
0.624316
0.416898
0.18484
-0.0695409
0.333798
0.160209
-0.0498353
-0.29033
-0.56933
-0.107385
-0.286079
-0.510795
-0.759715
-1.03088
-0.504976
-0.686509
-0.918785
-1.16476
-1.37784
-0.771128
-0.963514
-1.18378
-1.41356
-1.55645
1.97434
2.00145
2.02454
2.0327
2.02344
1.75919
1.77514
1.78403
1.77491
1.74334
1.52715
1.50895
1.46579
1.39837
1.30268
1.25736
1.2188
1.14185
1.03171
0.890066
1.02579
0.91059
0.762993
0.594112
0.388803
1.77519
1.76392
1.74458
1.80995
1.87588
1.76333
1.75094
1.72067
1.78234
1.77082
1.75257
1.73536
1.6947
1.74172
1.64153
1.74304
1.718
1.66663
1.68943
1.45563
1.73481
1.69913
1.63738
1.6334
1.2604
1.72788
1.67235
1.60093
1.52451
1.04502
1.72136
1.64039
1.57927
1.41924
1.17098
1.72781
1.62122
1.55139
1.37244
1.18253
1.72127
1.59316
1.53501
1.3229
1.18698
1.7581
1.59043
1.52586
1.29664
1.19246
0.75012
0.426173
0.063149
-0.264477
-0.475196
0.635802
0.407999
0.161823
-0.0575587
-0.245401
0.623124
0.438001
0.251828
0.0829759
-0.0817175
0.681228
0.500181
0.32741
0.170924
0.0237596
0.704708
0.525578
0.362834
0.2149
0.0739438
-0.690638
-0.585346
-0.448053
-0.337066
-0.27083
-0.742474
-0.689886
-0.587815
-0.50621
-0.45832
-0.669404
-0.626367
-0.570703
-0.52557
-0.49794
-0.536245
-0.502983
-0.468814
-0.444403
-0.428588
-0.440177
-0.421901
-0.403014
-0.393952
-0.417789
-0.388877
-0.381963
-0.367367
-0.367669
-0.351456
-0.381539
-0.381071
-0.378314
-0.38775
-0.397439
-0.352779
-0.356062
-0.366964
-0.388617
-0.408454
-0.348375
-0.345795
-0.348517
-0.348718
-0.33661
-0.338595
-0.374122
-0.468075
-0.598817
-0.666228
-0.500395
0.607575
0.23437
-0.0480384
-0.0598044
-0.441236
0.726323
0.143417
-0.04926
-0.0899097
-0.319939
0.833203
0.0354669
-0.0381077
-0.11238
-0.229587
0.719346
-0.0981727
-0.00820215
-0.13069
-0.387769
0.337928
-0.305533
0.029076
-0.144038
-0.0207207
0.369417
0.244713
-0.0239168
0.0104611
-0.375105
0.432145
0.297911
-0.0042022
-0.02105
-0.232633
-0.447681
-0.456476
-0.446432
-0.230205
-0.248935
-0.442043
-0.480564
-0.433985
-0.45142
1.79676
1.78332
1.75526
1.714
1.65929
1.94562
1.96876
1.97933
1.97589
1.95914
2.0662
2.10035
2.12814
2.14519
2.14906
2.12182
2.16011
2.20029
2.23309
2.24877
2.09089
2.12523
2.16244
2.19243
2.20507
0.0933928
0.0079716
-0.125428
-0.28921
-0.46084
0.580626
0.469857
0.321085
0.143523
-0.066303
1.01599
0.900101
0.761923
0.600544
0.40927
1.35947
1.27186
1.1649
1.03617
0.885533
1.63237
1.5741
1.49759
1.40596
1.30006
1.84543
1.80422
1.8027
1.83093
1.87738
1.82897
1.79912
1.79786
1.83923
1.91557
1.81452
1.79263
1.79157
1.84817
1.96601
1.80074
1.78482
1.78031
1.84542
1.96127
1.78758
1.7755
1.76417
1.83294
1.93531
1.90382
1.81447
1.79839
1.77119
1.77154
1.85706
1.80353
1.79107
1.78712
1.78447
1.53812
1.37279
1.06891
0.616881
0.119096
1.60196
1.39525
1.08051
0.633599
0.126154
)
;

boundaryField
{
    left
    {
        type            zeroGradient;
    }
    right
    {
        type            fixedValue;
        value           uniform 0;
    }
    down
    {
        type            zeroGradient;
    }
    up
    {
        type            zeroGradient;
    }
    cylinder
    {
        type            zeroGradient;
    }
    defaultFaces
    {
        type            empty;
    }
}


// ************************************************************************* //
