/*--------------------------------*- C++ -*----------------------------------*\
  =========                 |
  \\      /  F ield         | OpenFOAM: The Open Source CFD Toolbox
   \\    /   O peration     | Website:  https://openfoam.org
    \\  /    A nd           | Version:  13
     \\/     M anipulation  |
\*---------------------------------------------------------------------------*/
FoamFile
{
    format      ascii;
    class       surfaceScalarField;
    location    "37.8";
    object      phi;
}
// * * * * * * * * * * * * * * * * * * * * * * * * * * * * * * * * * * * * * //

dimensions      [0 3 -1 0 0 0 0];

internalField   nonuniform List<scalar> 
823
(
0.00234781
0.0164478
-0.0187956
0.0314805
0.000692207
-0.0298249
0.106071
-0.0579847
-0.0166058
0.21596
-0.130648
0.0207585
-0.191033
0.0421381
0.364855
0.00952453
0.00692322
0.0716847
-0.0614679
0.181143
-0.167443
0.306152
-0.255656
-0.329841
0.44496
0.0292479
-0.0223247
0.128177
-0.160397
0.244303
-0.28357
0.346315
-0.357668
-0.394096
0.410569
0.0527961
-0.0751208
0.152853
-0.260454
0.229947
-0.360663
0.270512
-0.398233
-0.407853
0.284269
0.0629347
-0.138056
0.129732
-0.327251
0.163305
-0.394236
0.175592
-0.41052
0.184259
-0.41652
-0.0112335
0.0955261
-0.0842926
-0.0423665
0.14646
-0.115327
-0.0706154
0.152954
-0.124705
-0.0872564
0.139746
-0.123105
0.115677
-0.096071
-0.106863
0.0361789
0.0593472
0.0728453
0.109793
0.105566
0.120234
0.136894
0.108417
0.0922156
0.160356
0.0264152
0.032932
0.0644752
0.0717332
0.0995605
0.0851485
0.128787
0.0791906
0.0681453
0.152857
0.0113276
0.0216043
0.0364291
0.0466317
0.068082
0.0534956
0.104121
0.0431516
0.0307748
0.141491
0.00280876
0.0196156
0.0565054
0.120415
0.193328
0.226826
-0.873306
0.550409
0.460868
-1.62917
1.39513
0.456396
1.26
-1.25553
0.386861
0.768194
-0.698659
-0.39235
0.372469
0.28003
-0.99298
0.318645
-1.66778
0.452303
1.12634
0.405973
0.814524
-0.450535
0.0467568
-0.886879
0.0533579
-1.67438
0.344056
0.835645
0.432912
0.725668
-0.554903
0.168152
-0.91354
0.145608
-1.65184
0.36229
0.618964
0.535437
0.552521
-0.657251
0.456621
-1.17683
0.382878
-1.5781
0.425086
0.576756
0.648566
0.329041
-0.734898
1.38025
-1.24659
-1.3105
0.967174
-1.16502
0.813173
0.730757
1.1802
-0.0379901
-0.736822
1.14004
-0.919933
-1.46669
0.558565
-0.583548
0.758405
0.530917
1.17796
-0.457545
-0.67231
1.09443
-0.638738
-1.37562
0.701096
-0.190216
1.0212
0.210815
1.15381
-0.590158
-0.477022
0.934381
-0.310366
-1.26275
0.79879
-0.0546253
1.05042
-0.040817
0.805495
-0.345232
-0.176325
0.49879
-0.809156
0.444165
0.403348
0.058116
1.14967
0.149838
-1.11525
1.23689
0.197051
1.33216
0.315292
1.39961
0.377511
0.453968
1.03412
0.0873287
-0.97161
1.11351
0.117658
1.21714
0.211664
1.33721
0.257441
0.324489
0.977622
0.0372738
-0.927568
1.02801
0.0672756
1.12257
0.117099
1.23434
0.14567
0.183208
0.914989
0.00616014
-0.883875
0.961775
0.0204888
1.04096
0.0379104
1.13981
0.0468263
0.0602629
0.643668
-0.637508
0.664156
0.702067
0.748893
0.147117
0.310191
-0.251781
-0.205527
0.0984061
0.31441
-0.265699
0.0559357
0.325099
-0.282628
0.0198638
0.317618
-0.281546
0.206671
-0.186807
0.107544
0.347372
-0.144724
0.0699723
0.351981
0.0363471
0.358724
0.00959257
0.344373
0.216263
0.0798398
0.386487
-0.118955
0.0450889
0.386732
0.0149158
0.388897
-0.00361738
0.362906
0.212646
-0.00177857
0.402086
-0.0138208
-0.0205199
0.405473
-0.0309712
0.399348
-0.0256308
0.357565
0.187015
-0.0793394
0.0649058
-0.0843862
-0.0792741
-0.0489596
0.198389
0.111645
-0.251489
-0.0585449
0.144515
0.116254
-0.0623806
0.089565
0.121255
-0.0663045
0.0363303
0.121248
-0.0680134
0.086151
-0.0498207
0.193173
0.154044
-0.235572
0.147603
0.161824
0.0959492
0.172909
0.0407167
0.176481
0.126868
0.136521
0.199935
-0.182413
0.0950131
0.203332
0.0563208
0.211601
0.0203552
0.212446
0.147223
0.157593
0.231521
-0.189179
0.11801
0.242915
0.0728717
0.256739
0.028712
0.256606
0.175935
0.084485
-0.104745
0.0617014
0.0358124
0.010872
0.408753
0.0543531
-0.0671264
0.420548
0.0693085
-0.0811032
0.409129
0.187887
-0.176468
0.3948
0.237954
-0.223624
0.512314
-0.369004
0.406224
0.0441089
0.413577
0.0619556
0.399633
0.20183
0.380788
0.256799
0.65753
0.398827
0.0412618
0.407064
0.0537183
0.378181
0.230714
0.373051
0.261929
0.848168
0.393517
0.0437245
0.391749
0.0554863
0.371557
0.250906
0.346338
0.287147
1.00533
0.383344
0.0563598
0.381869
0.0569619
0.341268
0.291507
0.324138
0.304277
1.22472
0.61264
0.0477406
0.643436
0.0261657
0.703704
0.231239
0.777541
0.23044
0.973226
1.02904
0.61852
0.0332411
0.654282
-0.00959621
0.760215
0.125305
0.767272
0.223384
0.735476
1.00502
0.631636
0.00562527
0.681696
-0.0596564
0.752896
0.0541057
0.780324
0.195956
0.482986
1.03281
0.650204
-0.040558
0.659974
-0.0694263
0.691301
0.0227779
0.795582
0.0916758
0.218071
1.0605
0.563462
0.494036
0.516814
0.60849
0.826561
1.06418
-0.240674
1.05316
-0.133699
1.06406
-0.129858
1.06001
-0.00976624
0.00966462
0.957298
-0.192951
0.94905
-0.125451
0.932291
-0.113098
0.950764
-0.0282391
-0.0111818
0.969775
-0.129912
0.948396
-0.104072
0.915686
-0.0803889
0.926016
-0.0385687
-0.0127334
0.989379
-0.0587946
0.937304
-0.0519964
0.897116
-0.0402007
0.884865
-0.0263182
-0.0117432
0.767766
0.71577
0.675569
0.649251
0.0473167
0.136413
-0.183729
0.0721896
0.306903
-0.331776
0.0731163
0.362425
-0.363352
0.0631109
0.366756
-0.356751
0.335982
0.0505162
-0.323387
0.0679309
0.0684816
0.13987
0.234965
0.174981
0.327314
0.179522
0.362216
0.356451
0.159052
0.0558227
0.0126589
0.167299
0.123489
0.261902
0.23271
0.328095
0.296023
0.349825
0.334721
0.025892
-0.013233
0.120473
0.0289076
0.241041
0.112142
0.361121
0.175943
0.248226
0.46272
0.00482725
-0.0180603
0.0505523
-0.0168175
0.147136
0.0155581
0.268092
0.0549875
0.103013
0.413305
-0.00355932
-0.014501
0.006941
-0.0273178
0.04952
-0.0270209
0.120979
-0.0164719
0.0143324
0.20966
-0.00195271
-0.0125483
-0.000305763
-0.0289648
0.0127812
-0.0401078
0.0402152
-0.0439059
-0.0337831
0.0883307
-0.00599051
-0.00655774
-0.0135332
-0.0214221
-0.0197989
-0.0338421
-0.0238886
-0.0398162
-0.0396084
-0.0180633
-0.0244858
0.0179281
-0.06522
0.0193121
-0.121024
0.0219624
-0.185099
0.0242584
0.0186051
-0.243313
-0.0663645
-0.162379
-0.265122
-0.363968
-0.452226
0.35444
0.810273
-0.955053
0.426875
0.191581
-0.264016
0.211837
0.613835
-0.398797
0.0860641
0.120556
0.00521658
-0.403174
0.355569
0.369218
0.529386
0.518223
0.0425766
0.339875
0.792184
0.179107
0.281324
-0.406165
0.256678
0.254644
0.567812
-0.268558
0.413094
0.946903
0.250198
0.444219
-0.393162
0.0724409
-0.0611094
0.624815
-0.820932
0.4548
1.11692
0.313447
0.585572
-0.378367
0.0370738
0.611268
0.472655
0.359568
-0.0271594
0.623671
-0.596511
-0.0955901
0.0684307
-0.111101
0.0155108
-0.00798355
-0.103117
-0.171168
0.711036
-1.04242
0.51545
0.132164
0.0342631
0.0816794
-0.0136207
-0.0680588
0.133663
-0.0519838
0.241218
-0.107555
0.394875
-0.153657
-0.201637
0.187452
-0.150557
0.294521
0.521687
0.83075
0.136326
-0.129822
0.159661
-0.166166
0.103602
-0.134665
0.167389
0.0665074
-0.141046
0.178141
0.0268754
-0.139899
0.179531
-0.0966326
0.123508
0.175591
-0.0914549
-0.213958
0.132725
-0.0917985
0.0843348
-0.0926558
0.0346539
-0.090218
-0.0619786
0.183871
-0.0428082
-0.232517
0.133793
-0.041721
0.0826885
-0.041551
0.0334018
-0.0409314
-0.0285768
0.198553
0.00804107
-0.249403
0.146919
0.00991383
0.0935765
0.0117911
0.0392699
0.0133752
0.0106931
0.200746
-0.25125
0.148279
0.0937658
0.0391277
0.0363773
-0.303769
-0.0559955
0.012972
-0.333346
-0.00802337
-0.342356
-0.0158718
-0.323928
-0.199601
0.116
-0.274708
-0.145061
0.0751602
-0.292506
0.035735
-0.302931
0.00659686
-0.29479
-0.193004
0.133562
-0.236887
-0.171383
0.0937246
-0.252669
0.0544149
-0.263622
0.0189535
-0.259328
-0.174051
0.152065
-0.203603
-0.185348
0.111176
-0.21178
0.0673984
-0.219844
0.0262244
-0.218154
-0.147826
0.149036
-0.192978
0.104645
0.0629416
0.0243184
0.389783
0.104756
-0.0985588
0.385818
0.110644
-0.106679
0.352806
0.160129
-0.127117
0.293698
0.083084
-0.0239761
-0.178077
0.305609
0.398289
0.102446
0.401041
0.107891
0.392504
0.168666
0.34227
0.133318
-0.0497646
0.403837
0.0945891
0.411569
0.100159
0.408138
0.172098
0.368744
0.172711
0.0864623
0.408699
0.0818702
0.417793
0.0910642
0.417058
0.172833
0.388351
0.201418
0.22541
0.410723
0.420684
0.417049
0.394843
0.413527
0.096524
0.324937
0.0885905
0.235188
0.0897489
0.229479
0.00570841
-0.167601
0.397081
0.508016
0.489928
0.45256
0.434292
0.5723
0.31838
0.0787005
0.247684
0.0706964
0.164515
0.0831684
0.0952394
0.0692759
0.0271806
0.458022
0.343371
0.255156
0.179371
)
;

boundaryField
{
    left
    {
        type            calculated;
        value           nonuniform List<scalar> 
17
(
-0.60402
-0.60402
-0.60402
-0.60402
-0.60402
-0.39598
-0.39598
-0.39598
-0.39598
-0.39598
-0.39598
-0.39598
-0.39598
-0.39598
-0.39598
-0.510051
-0.510051
)
;
    }
    right
    {
        type            calculated;
        value           nonuniform List<scalar> 
17
(
0.163185
0.218664
0.133669
0.182098
0.237196
0.298652
0.353671
0.406742
0.464158
0.537281
0.637785
0.726213
1.18213
1.11345
0.958524
0.504799
-0.118209
)
;
    }
    down
    {
        type            calculated;
        value           uniform 0;
    }
    up
    {
        type            calculated;
        value           uniform 0;
    }
    cylinder
    {
        type            calculated;
        value           uniform 0;
    }
    defaultFaces
    {
        type            empty;
    }
}


// ************************************************************************* //
