/*--------------------------------*- C++ -*----------------------------------*\
  =========                 |
  \\      /  F ield         | OpenFOAM: The Open Source CFD Toolbox
   \\    /   O peration     | Website:  https://openfoam.org
    \\  /    A nd           | Version:  13
     \\/     M anipulation  |
\*---------------------------------------------------------------------------*/
FoamFile
{
    format      ascii;
    class       surfaceScalarField;
    location    "0.88";
    object      phi;
}
// * * * * * * * * * * * * * * * * * * * * * * * * * * * * * * * * * * * * * //

dimensions      [0 3 -1 0 0 0 0];

internalField   nonuniform List<scalar> 
3485
(
0.00137167
-0.011258
0.00988629
0.00505116
-0.0319067
0.0282272
0.0107642
-0.0513829
0.0456698
0.0183125
-0.0696769
0.0621286
0.0275453
-0.0868351
0.0776023
0.0383482
-0.102901
0.0920983
0.0506328
-0.117907
0.105622
0.0643558
-0.131871
0.118148
0.0796148
-0.144862
0.129603
-0.156896
0.139505
0.0970057
0.00150034
-0.0127583
0.00544583
-0.0358522
0.0114762
-0.0574132
0.0193235
-0.0775242
0.0287728
-0.0962843
0.0396465
-0.113775
0.0518006
-0.130061
0.065127
-0.145198
0.0795343
-0.159269
-0.172198
0.0948363
0.00147418
-0.0142325
0.00532699
-0.039705
0.0111745
-0.0632607
0.0187208
-0.0850706
0.0277252
-0.105289
0.0379883
-0.124038
0.0493441
-0.141416
0.061653
-0.157507
0.074783
-0.172399
-0.186037
0.0886226
0.00133887
-0.0155713
0.00485903
-0.0432252
0.0102109
-0.0686125
0.017117
-0.0919767
0.0253538
-0.113525
0.03474
-0.133424
0.0451299
-0.151806
0.0564032
-0.16878
0.0684533
-0.184449
-0.198791
0.0812067
0.00116693
-0.0167383
0.00425599
-0.0463142
0.00897313
-0.0733296
0.0150817
-0.0980853
0.0223916
-0.120835
0.0307522
-0.141785
0.0400458
-0.1611
0.0501797
-0.178914
0.0610763
-0.195346
-0.210402
0.0726878
0.000980024
-0.0177183
0.00358795
-0.0489221
0.00758659
-0.0773283
0.0127839
-0.103283
0.019026
-0.127077
0.0261924
-0.148951
0.0341912
-0.169099
0.042953
-0.187676
0.0524228
-0.204816
-0.220549
0.0625696
0.000780725
-0.018499
0.002865
-0.0510064
0.00606896
-0.0805323
0.0102428
-0.107456
0.0152665
-0.132101
0.0210466
-0.154732
0.0275141
-0.175566
0.0346202
-0.194782
0.0423308
-0.212526
-0.228851
0.0506323
0.000569701
-0.0190687
0.00209345
-0.0525302
0.00443785
-0.0828767
0.00749264
-0.110511
0.0111686
-0.135777
0.0153967
-0.15896
0.0201274
-0.180297
0.0253293
-0.199984
0.0309862
-0.218183
-0.234967
0.0371027
0.000352505
-0.0194212
0.00129575
-0.0534734
0.002745
-0.0843259
0.0046283
-0.112395
0.00688642
-0.138035
0.00947301
-0.161546
0.0123552
-0.183179
0.0155141
-0.203143
0.0189446
-0.221614
-0.238684
0.0226613
0.000137792
-0.019559
0.000502454
-0.0538381
0.00105695
-0.0848804
0.00176951
-0.113107
0.00261368
-0.138879
0.00356835
-0.162501
0.00461804
-0.184229
0.00575324
-0.204278
0.00697049
-0.222831
0.00827488
-0.239988
0.000487328
-0.0018686
0.00138127
0.00208605
-0.00625517
0.00465645
0.0054273
-0.0114266
0.00808534
0.0101157
-0.016203
0.0115146
0.0155399
-0.0201961
0.0147718
0.0214366
-0.0235916
0.0176948
0.0279024
-0.0267724
0.0203067
0.0350858
-0.0299675
0.0227841
0.0429715
-0.0331285
0.0252427
-0.0361029
0.0514255
0.0276489
0.00042683
-0.00229543
0.00211036
-0.00793871
0.00543728
-0.0147535
0.00981336
-0.0205791
0.0148838
-0.0252665
0.0207588
-0.0294665
0.0276116
-0.0336252
0.0353902
-0.037746
0.0438826
-0.0416209
-0.0451441
0.0529238
0.000682836
-0.00297827
0.00271674
-0.00997261
0.0057795
-0.0178163
0.00976045
-0.02456
0.014813
-0.0303191
0.0211102
-0.0357637
0.0285828
-0.0410978
0.0369508
-0.046114
0.045995
-0.0506651
-0.0547737
0.0556245
0.000868619
-0.00384689
0.00306149
-0.0121655
0.00607877
-0.0208336
0.0101995
-0.0286807
0.0156971
-0.0358167
0.0225547
-0.0426214
0.03053
-0.0490731
0.0393859
-0.0549699
0.0490274
-0.0603067
-0.0651191
0.0593728
0.000923372
-0.00477026
0.00320108
-0.0144432
0.00651903
-0.0241515
0.0111165
-0.0332782
0.0171344
-0.0418346
0.0244472
-0.0499343
0.032863
-0.0574889
0.0422844
-0.0643913
0.0526487
-0.0706709
-0.0762937
0.0638233
0.000944123
-0.00571438
0.00337307
-0.0168721
0.00709151
-0.0278699
0.0121743
-0.038361
0.0186325
-0.0482928
0.0263548
-0.0576565
0.0352439
-0.066378
0.0452529
-0.0744003
0.0563034
-0.0817214
-0.0882278
0.0682374
0.000980113
-0.0066945
0.00358429
-0.0194763
0.00764145
-0.0319271
0.013107
-0.0438265
0.0199254
-0.0551112
0.0280101
-0.0657413
0.0372991
-0.075667
0.0477465
-0.0848476
0.0592791
-0.0932541
-0.100701
0.0717522
0.00101811
-0.0077126
0.00376794
-0.0222262
0.00807124
-0.0362304
0.0138198
-0.049575
0.0209191
-0.0622105
0.0292803
-0.0741024
0.0388336
-0.0852204
0.0495226
-0.0955365
0.0612884
-0.10502
-0.113444
0.0740312
0.00105469
-0.00876729
0.00393685
-0.0251083
0.00846108
-0.0407546
0.014482
-0.055596
0.0218735
-0.069602
0.0305251
-0.0827541
0.0403416
-0.0950368
0.051234
-0.106429
0.0631216
-0.116908
-0.126322
0.0759995
0.001119
0.00423791
0.0091531
0.0156857
0.023686
0.0330303
0.0436154
0.0553345
0.0680299
0.0812134
0.114327
-0.414632
0.35173
0.168134
-0.471943
0.418136
0.210281
-0.422108
0.379961
0.244167
-0.326915
0.293029
0.270978
-0.214605
0.187794
0.291585
-0.110203
0.0895962
0.305113
-0.0317884
0.0182604
0.31035
0.0109533
-0.0161909
0.31092
0.0251213
-0.0256914
0.020547
-0.0194145
0.115905
-0.477612
0.169688
-0.525727
0.211803
-0.464223
0.245429
-0.36054
0.272387
-0.241564
0.293793
-0.131609
0.310073
-0.0480685
0.31926
0.00176645
0.32307
0.0213108
0.0199676
0.117712
-0.5397
0.17051
-0.578525
0.212214
-0.505928
0.245221
-0.393547
0.272038
-0.268381
0.293753
-0.153323
0.311618
-0.0659339
0.324233
-0.0108477
0.332453
0.0130904
0.0164896
0.120092
-0.600419
0.170876
-0.629308
0.211693
-0.546744
0.243774
-0.425629
0.270178
-0.294785
0.291949
-0.175094
0.310645
-0.0846304
0.325107
-0.0253097
0.337648
0.000549614
0.00819872
0.122992
-0.659587
0.170988
-0.677304
0.210369
-0.586126
0.241278
-0.456537
0.267006
-0.320513
0.288674
-0.196761
0.307912
-0.103868
0.323293
-0.0406907
0.338757
-0.0149144
-0.00488709
0.125851
-0.717201
0.170874
-0.722328
0.208326
-0.623578
0.237872
-0.486083
0.262676
-0.345317
0.284126
-0.218212
0.303688
-0.12343
0.319958
-0.056961
0.335462
-0.030419
-0.0173643
0.127792
-0.77324
0.170349
-0.764885
0.205611
-0.65884
0.233669
-0.514142
0.257328
-0.368976
0.278429
-0.239313
0.298168
-0.143168
0.315428
-0.0742216
0.329305
-0.0442955
-0.0261424
0.127875
-0.827084
0.168929
-0.805939
0.202084
-0.691995
0.228636
-0.540694
0.251011
-0.39135
0.271581
-0.259884
0.291655
-0.163242
0.308361
-0.0909276
0.31904
-0.0549743
-0.0327652
0.125797
-0.876882
0.166206
-0.846348
0.197695
-0.723483
0.222861
-0.56586
0.243834
-0.412323
0.263626
-0.279676
0.283195
-0.18281
0.297424
-0.105156
0.305034
-0.0625842
-0.0392372
0.122115
-0.917784
0.161381
-0.885614
0.19157
-0.753672
0.215636
-0.589926
0.235295
-0.431982
0.25444
-0.298821
0.270894
-0.199265
0.281978
-0.116241
0.289427
-0.0700334
-0.0460525
0.583955
-0.920261
-0.581478
0.561182
-0.862841
0.523943
-0.716433
0.487844
-0.553827
0.460469
-0.404608
0.443783
-0.282136
0.431617
-0.187098
0.425442
-0.110066
0.422145
-0.0667365
-0.0445677
0.682869
-0.871669
-0.731462
0.619674
-0.799645
0.553843
-0.650602
0.496225
-0.496209
0.450523
-0.358906
0.418517
-0.25013
0.398391
-0.166972
0.388877
-0.100551
0.383571
-0.061431
-0.0413641
0.753984
-0.775223
-0.850429
0.655071
-0.700732
0.563326
-0.558857
0.487193
-0.420076
0.429143
-0.300856
0.388861
-0.209848
0.363391
-0.141501
0.350336
-0.0874968
0.343093
-0.0541879
-0.0367683
0.778965
-0.641709
-0.912479
0.653689
-0.575456
0.546172
-0.45134
0.460855
-0.334759
0.39778
-0.23778
0.353953
-0.166021
0.325576
-0.113124
0.309973
-0.0718938
0.301087
-0.0453019
-0.031091
0.752961
-0.492445
-0.902225
0.617527
-0.440022
0.506122
-0.339935
0.420001
-0.248638
0.357354
-0.175134
0.313744
-0.122412
0.284884
-0.0842647
0.267955
-0.0549644
0.257919
-0.0352658
-0.024667
0.685095
-0.345841
-0.831699
0.552685
-0.307612
0.446422
-0.233672
0.365945
-0.168161
0.308187
-0.117375
0.267959
-0.0821837
0.240847
-0.0571525
0.224089
-0.0382067
0.21369
-0.0248669
-0.0179382
0.582615
-0.213864
-0.714592
0.462882
-0.187879
0.369304
-0.140094
0.299921
-0.0987789
0.250853
-0.0683068
0.216676
-0.0480062
0.193264
-0.0337406
0.178163
-0.0231057
0.168391
-0.0150945
-0.0114554
0.448757
-0.105525
-0.557096
0.351175
-0.0902975
0.277051
-0.0659691
0.223519
-0.045247
0.186245
-0.0310335
0.160239
-0.0219994
0.142137
-0.0156392
0.130036
-0.0110047
0.121968
-0.00702646
-0.00584639
0.28659
-0.030221
-0.361894
0.220909
-0.0246157
0.172487
-0.0175471
0.138709
-0.0114693
0.115472
-0.00779625
0.0991071
-0.00563468
0.0875354
-0.00406755
0.0795438
-0.00301314
0.0742714
-0.00175404
-0.0017923
0.101315
-0.131536
0.0766997
0.0591526
0.0476833
0.039887
0.0342524
0.0301848
0.0271717
0.0254176
0.73882
0.0102223
-0.740768
0.733074
0.0284073
0.723436
0.0467414
0.710163
0.0639053
0.69357
0.0791624
0.674077
0.0921812
0.652273
0.10301
0.628714
0.112182
0.60427
0.11928
0.119798
0.845548
0.0133981
-0.848724
0.837321
0.0366344
0.827288
0.0567748
0.816594
0.0745995
0.805251
0.0905051
0.792897
0.104535
0.779284
0.116623
0.764588
0.126878
0.749124
0.134744
0.137459
0.844982
0.0114253
-0.843009
0.848882
0.0327348
0.853019
0.0526378
0.85647
0.0711482
0.858831
0.0881437
0.859918
0.103448
0.859594
0.116947
0.857966
0.128505
0.8553
0.137411
0.14233
0.800213
0.00930441
-0.798092
0.80582
0.027127
0.814418
0.0440405
0.825636
0.0599302
0.839
0.0747793
0.853848
0.0885998
0.869417
0.101379
0.88505
0.112872
0.899935
0.122526
0.129786
0.737865
0.00703871
-0.7356
0.744154
0.0208384
0.754123
0.0340714
0.767503
0.0465501
0.784083
0.0581999
0.80366
0.0690224
0.825988
0.079051
0.850621
0.0882394
0.87654
0.0966058
0.104102
0.653921
0.00485394
-0.651736
0.660203
0.0145561
0.670378
0.0238963
0.684221
0.0327074
0.701525
0.040896
0.722111
0.0484359
0.745805
0.0553567
0.772329
0.0617159
0.801216
0.0677186
0.0736187
0.549112
0.00291607
-0.547174
0.554812
0.00885589
0.564138
0.0145705
0.576905
0.01994
0.592915
0.0248867
0.611968
0.0293826
0.633871
0.033454
0.658406
0.0371801
0.685379
0.0407461
0.0444058
0.422793
0.00137571
-0.421252
0.427413
0.00423594
0.435008
0.00697561
0.445422
0.00952586
0.45847
0.0118388
0.473957
0.0138957
0.491697
0.0157138
0.511527
0.0173497
0.533346
0.0189271
0.0206561
0.273828
0.000366656
-0.272819
0.276915
0.00114943
0.281999
0.00189174
0.288955
0.00256941
0.29763
0.00316447
0.307856
0.00366915
0.319482
0.00408805
0.332395
0.00443667
0.346561
0.00476039
0.00532319
0.100484
-0.100117
0.101633
0.103525
0.106094
0.109259
0.112928
0.117016
0.121453
0.126213
0.0779293
0.159504
-0.142492
-0.094942
0.0630259
0.147461
-0.132557
0.0496171
0.134406
-0.120997
0.0376025
0.120332
-0.108318
0.0270259
0.105171
-0.0945941
0.0179775
0.0888944
-0.079846
0.0105727
0.0714606
-0.0640557
0.00496322
0.0528094
-0.0472
0.00134799
0.0328743
-0.0292591
0.0116389
-0.010291
0.0779393
0.174434
-0.0928688
0.0638701
0.16153
0.0508391
0.147437
0.0389377
0.132234
0.0282758
0.115833
0.0190001
0.0981701
0.0112895
0.0791712
0.00535956
0.0587393
0.00147721
0.0367566
0.0131162
0.0731787
0.187928
-0.0866731
0.0603695
0.174339
0.04835
0.159457
0.0372485
0.143335
0.027203
0.125878
0.0183792
0.106994
0.0109766
0.0865738
0.00523535
0.0644806
0.00144963
0.0405424
0.0145658
0.0667705
0.200353
-0.0791952
0.0550328
0.186077
0.0440492
0.17044
0.0339216
0.153463
0.0247664
0.135033
0.016727
0.115033
0.00998166
0.0933191
0.00475147
0.0697108
0.00130965
0.0439842
0.0158754
0.0593121
0.211657
-0.0706158
0.0487151
0.196674
0.0388673
0.180288
0.0298411
0.162489
0.0217243
0.14315
0.0146295
0.122128
0.00870233
0.0992463
0.00412645
0.0742867
0.00113097
0.0469797
0.0170064
0.0505979
0.221521
-0.0604618
0.0414109
0.205861
0.0329274
0.188772
0.0251972
0.170219
0.0182837
0.150064
0.0122721
0.12814
0.00727495
0.104243
0.00343653
0.0781251
0.000937284
0.0494789
0.0179437
0.0404571
0.229564
-0.0485
0.0330126
0.213305
0.0261764
0.195608
0.0199772
0.176418
0.0144573
0.155583
0.00967743
0.13292
0.00572043
0.1082
0.00269376
0.0811518
0.000731839
0.0514408
0.0186755
0.029054
0.235441
-0.0349316
0.0236512
0.218708
0.0187146
0.200544
0.0142551
0.180878
0.0102962
0.159542
0.00687751
0.136338
0.0040556
0.111022
0.00190427
0.0833031
0.000515283
0.0528298
0.0191908
0.0169174
0.238926
-0.0204019
0.0137418
0.221884
0.0108549
0.203431
0.0082548
0.183478
0.00595148
0.161846
0.00396649
0.138323
0.00233218
0.112657
0.00109066
0.0845446
0.000293242
0.0536272
0.0194841
0.00482785
-0.00589045
0.00388044
0.00303404
0.00228342
0.00162818
0.00107202
0.000621625
0.000285832
7.49723e-05
0.0436729
0.0414156
-0.0525723
-0.0325162
0.0352933
0.038366
-0.0299864
0.0276203
0.0349656
-0.0272927
0.0208815
0.0313494
-0.0246105
0.0150796
0.0277806
-0.0219787
0.00997317
0.0242215
-0.0191151
0.00544335
0.0200851
-0.0155552
0.00197667
0.0144722
-0.0110055
0.000386937
0.00739971
-0.00580996
0.00208921
-0.00170227
0.0437651
0.0505891
-0.0529386
0.0351111
0.0470201
0.0270673
0.0430094
0.0199164
0.0385003
0.0139758
0.0337212
0.00925339
0.0289439
0.00550432
0.0238341
0.00257643
0.0174001
0.000621962
0.00935418
0.00271117
0.0449377
0.0601474
-0.054496
0.0360127
0.0559451
0.027772
0.0512501
0.0203321
0.0459402
0.0140188
0.0400345
0.00909725
0.0338655
0.00551399
0.0274174
0.00289181
0.0200222
0.000809524
0.0114365
0.00352069
0.0473598
0.0703343
-0.0575467
0.0379238
0.0653811
0.0293539
0.05982
0.0216878
0.0536062
0.0150505
0.0466718
0.00970091
0.0392151
0.00576101
0.0313573
0.00295828
0.022825
0.000874817
0.0135199
0.00439551
0.0508251
0.0812602
-0.061751
0.0407218
0.0754844
0.0316052
0.0689367
0.0235375
0.0616739
0.0165418
0.0536675
0.0107446
0.0450123
0.00628099
0.0358209
0.0030609
0.0260451
0.000880159
0.0157007
0.00527567
0.0545237
0.0928566
-0.0661202
0.0438032
0.0862049
0.0341216
0.0786182
0.0255539
0.0702416
0.0181219
0.0610996
0.0118815
0.0512527
0.00692779
0.0407746
0.00327811
0.0296947
0.000908377
0.0180704
0.00618405
0.0575792
0.104938
-0.0696603
0.0464202
0.0973639
0.0363177
0.0887207
0.0273318
0.0792275
0.0194983
0.0689331
0.0128676
0.0578834
0.00751939
0.0461228
0.00352492
0.0336892
0.000959522
0.0206358
0.00714357
0.0596373
0.117264
-0.0719638
0.0482605
0.108741
0.0379187
0.0990625
0.028657
0.0884892
0.0205272
0.077063
0.0135982
0.0648123
0.00796125
0.0517598
0.00372163
0.0379288
0.00100526
0.0233522
0.00814883
0.0614521
0.129718
-0.0739054
0.0499549
0.120238
0.0394062
0.109611
0.0298774
0.0980179
0.0214549
0.0854854
0.0142357
0.0720315
0.00833432
0.0576612
0.00388448
0.0423787
0.00104188
0.0261948
0.00919071
0.0663089
-0.0790831
0.0539895
0.0426033
0.0323036
0.0231949
0.0153804
0.00898584
0.00416455
0.00110024
0.213753
0.0620948
-0.077858
0.23643
0.0903829
-0.11306
0.260969
0.123903
-0.148442
0.277092
0.112172
-0.128296
0.276258
0.109412
-0.108577
0.253245
0.178569
-0.155556
0.218987
0.293635
-0.259376
0.174892
0.412581
-0.368486
0.118441
0.494724
-0.438272
0.461753
-0.395884
0.213103
0.0469813
0.234689
0.0687974
0.258328
0.100265
0.275098
0.0954014
0.275874
0.108635
0.253636
0.200807
0.219194
0.328077
0.174641
0.457134
0.118101
0.551264
0.526915
0.212869
0.032102
0.233606
0.0480609
0.256392
0.0774785
0.273161
0.0786323
0.274265
0.107532
0.252439
0.222632
0.217946
0.36257
0.173327
0.501753
0.117881
0.60671
0.5903
0.212982
0.0171101
0.23318
0.0278631
0.255225
0.0554327
0.271522
0.0623359
0.27175
0.107303
0.24979
0.244593
0.215405
0.396955
0.171343
0.545815
0.118375
0.659678
0.651129
0.21331
0.00178963
0.233258
0.00791526
0.254619
0.0340723
0.269818
0.0471361
0.268243
0.108878
0.245759
0.267078
0.211772
0.430941
0.169109
0.588478
0.119717
0.70907
0.709095
0.213692
-0.0139127
0.233616
-0.012009
0.254245
0.0134432
0.267694
0.0336874
0.263638
0.112934
0.240457
0.290259
0.207304
0.464094
0.166901
0.628881
0.121444
0.754526
0.76442
0.213954
-0.0298773
0.234049
-0.0321036
0.253821
-0.00632912
0.264915
0.0225941
0.257914
0.119934
0.234095
0.314079
0.202282
0.495907
0.164703
0.66646
0.122662
0.796567
0.817421
0.213991
-0.0458784
0.234434
-0.0525468
0.253126
-0.0250207
0.261245
0.0144743
0.250997
0.130183
0.226798
0.338278
0.196756
0.525949
0.162086
0.70113
0.122345
0.836307
0.867803
0.213811
-0.0616995
0.234753
-0.0734885
0.252035
-0.0423027
0.256716
0.00979309
0.243148
0.143751
0.218933
0.362492
0.190839
0.554043
0.158621
0.733347
0.120098
0.87483
0.913996
0.213683
-0.077393
0.234971
-0.0947759
0.25054
-0.0578721
0.250991
0.00934165
0.233839
0.160903
0.209866
0.386465
0.183602
0.580308
0.153438
0.763511
0.116424
0.911844
0.951337
0.331937
-0.10732
0.370564
-0.133403
0.406963
-0.0942705
0.424374
-0.00806943
0.438845
0.146432
0.467405
0.357905
0.50659
0.541123
0.549579
0.720522
0.581374
0.88005
0.946207
0.586504
0.333634
-0.138944
0.373184
-0.172953
0.408342
-0.129428
0.422049
-0.0217771
0.435403
0.133078
0.475896
0.317412
0.534272
0.482747
0.604464
0.650329
0.675403
0.809111
0.888622
0.732988
0.336357
-0.173292
0.375452
-0.212047
0.408753
-0.162729
0.416964
-0.0299885
0.42719
0.122853
0.473901
0.270702
0.546451
0.410196
0.638803
0.557978
0.742285
0.705629
0.78449
0.846416
0.340514
-0.211796
0.373423
-0.244956
0.38418
-0.173485
0.380386
-0.0261943
0.398892
0.104347
0.452852
0.216742
0.534097
0.32895
0.640502
0.451573
0.767076
0.579055
0.647073
0.904493
0.348516
-0.258301
0.356585
-0.253025
0.337453
-0.154354
0.334163
-0.022904
0.358512
0.0799978
0.413995
0.161259
0.497224
0.245721
0.607866
0.340932
0.743731
0.44319
0.495869
0.894935
0.340774
-0.297065
0.321143
-0.233394
0.287847
-0.121059
0.283886
-0.0189428
0.308871
0.0550131
0.361065
0.109065
0.439733
0.167053
0.545748
0.234917
0.678761
0.310176
0.347986
0.826644
0.314273
-0.309327
0.271552
-0.190674
0.233589
-0.0830952
0.228579
-0.0139329
0.251011
0.0325812
0.296144
0.0639313
0.3646
0.0985977
0.458323
0.141194
0.578796
0.189703
0.215105
0.711677
0.273773
-0.28109
0.212874
-0.129776
0.174324
-0.0445449
0.168759
-0.00836763
0.186235
0.0151052
0.220953
0.0292135
0.274167
0.0453832
0.348682
0.0666792
0.44705
0.0913355
0.106139
0.556015
0.214647
-0.193726
0.140473
-0.0556023
0.10936
-0.0134319
0.104075
-0.00308261
0.115345
0.00383489
0.137266
0.00729271
0.171092
0.011557
0.21997
0.0178017
0.286339
0.0249659
0.0304074
0.362071
0.108284
0.0526819
0.03925
0.0361674
0.0400023
0.047295
0.0588519
0.0766536
0.10162
0.132027
0.608659
-0.117096
0.632322
-0.116532
0.655139
-0.10949
0.67629
-0.100346
0.695234
-0.0895591
0.71137
-0.0765985
0.724263
-0.061393
0.73359
-0.0442582
0.739075
-0.0258868
-0.00758338
0.750322
-0.13443
0.765224
-0.131435
0.779426
-0.123692
0.792649
-0.11357
0.804712
-0.101622
0.815848
-0.0877338
0.826403
-0.0719481
0.836392
-0.0542473
0.844841
-0.0343356
-0.0114667
0.851037
-0.139051
0.853479
-0.133877
0.854993
-0.125206
0.855371
-0.113947
0.854522
-0.100774
0.852622
-0.0858333
0.849895
-0.0692219
0.846739
-0.0510906
0.843946
-0.0315429
-0.0105298
0.892549
-0.127107
0.878533
-0.119861
0.863854
-0.110527
0.84929
-0.0993828
0.835446
-0.0869293
0.823019
-0.0734068
0.812635
-0.0588383
0.804756
-0.0432111
0.799744
-0.0265314
-0.0088771
0.870309
-0.10248
0.845548
-0.0951001
0.821944
-0.0869229
0.800489
-0.0779279
0.781654
-0.0680942
0.765714
-0.0574669
0.75289
-0.0460142
0.743403
-0.0337241
0.737523
-0.0206517
-0.00695363
0.796997
-0.0728331
0.768933
-0.0670365
0.743122
-0.0611115
0.720037
-0.0548429
0.699971
-0.0480286
0.683112
-0.0406075
0.669641
-0.0325437
0.659769
-0.0238515
0.653726
-0.0146085
-0.00496381
0.682984
-0.0441392
0.656499
-0.0405524
0.632401
-0.0370128
0.610878
-0.0333203
0.592145
-0.0292955
0.576396
-0.024858
0.563828
-0.0199764
0.554646
-0.0146696
0.549043
-0.00900559
-0.00309478
0.53251
-0.0206337
0.510908
-0.0189508
0.491275
-0.0173796
0.473704
-0.0157489
0.458351
-0.0139423
0.445397
-0.0119047
0.435037
-0.00961622
0.427458
-0.00709086
0.422824
-0.00437155
-0.00152291
0.346789
-0.00535165
0.332647
-0.00480906
0.319753
-0.00448486
0.308137
-0.00413358
0.297909
-0.00371365
0.289215
-0.00321087
0.282219
-0.00262002
0.277075
-0.0019474
0.273913
-0.00120946
-0.000429228
0.126675
0.121866
0.117381
0.113248
0.109534
0.106323
0.103703
0.101756
0.100546
0.000185057
0.0116092
-0.0117943
0.000623737
0.0304465
-0.0308852
0.00123716
0.0462418
-0.0468552
0.00197733
0.0594676
-0.0602078
0.00277662
0.0700217
-0.070821
0.00376954
0.0798892
-0.0808822
0.00396348
0.0772674
-0.0774614
0.00408486
0.0700426
-0.0701639
0.00394498
0.0610798
-0.0609399
0.0499562
0.00350723
-0.0495184
0.000533397
0.0110759
0.00180387
0.0291761
0.00358509
0.0444606
0.00574126
0.0573114
0.00807285
0.0676901
0.0110397
0.0769224
0.011676
0.0766311
0.0120809
0.0696377
0.0117737
0.061387
0.0510785
0.0106513
0.0008355
0.0102404
0.00283184
0.0271797
0.00563913
0.0416533
0.00904159
0.053909
0.0127395
0.0639922
0.0172475
0.0724145
0.0187903
0.0750883
0.0195719
0.068856
0.0193857
0.0615732
0.052435
0.0180293
0.00105598
0.00918437
0.00359702
0.0246387
0.00719366
0.0380566
0.0115559
0.0495468
0.0163567
0.0591914
0.0217479
0.0670233
0.0250729
0.0717633
0.0263552
0.0675737
0.0266035
0.0613249
0.0535668
0.0254717
0.00115146
0.00803291
0.00397935
0.0218108
0.00804179
0.0339942
0.0129971
0.0445915
0.0185518
0.0536366
0.0245578
0.0610173
0.0299525
0.0663687
0.0320904
0.0654358
0.0330117
0.0604036
0.0540916
0.032487
0.0011115
0.00692142
0.00396603
0.0189563
0.00818569
0.0297746
0.0133904
0.0393868
0.0193183
0.0477088
0.0257723
0.0545633
0.0324163
0.0597247
0.0363131
0.061539
0.0381249
0.0585918
0.0537076
0.0385089
0.000926238
0.00599518
0.00357299
0.0163095
0.00771073
0.0256368
0.0128819
0.0342157
0.0187869
0.0418038
0.0253385
0.0480116
0.0323215
0.0527417
0.0382758
0.0555847
0.0415881
0.0552795
0.0521835
0.0431122
0.000567817
0.00542737
0.00278659
0.0140908
0.00665747
0.0217659
0.0116213
0.0292518
0.0172043
0.0362208
0.0234475
0.0417685
0.0302863
0.0459029
0.0371846
0.0486864
0.0425621
0.049902
0.0489244
0.0458212
0.000103735
0.00532363
0.00176843
0.0124261
0.00517549
0.0183589
0.00981461
0.0246127
0.0149566
0.0310788
0.0206209
0.0361042
0.0269034
0.0396204
0.0335873
0.0420025
0.0400856
0.0434037
0.0437956
0.0452145
-0.000175834
0.00549947
0.00108642
0.0111638
0.00385536
0.0155899
0.00788579
0.0205823
0.0125
0.0264645
0.0175705
0.0310337
0.0231767
0.0340142
0.0292493
0.0359299
0.0356362
0.0370167
0.0373686
0.0420631
-2.16978e-05
0.00552117
0.00113904
0.0100031
0.00327635
0.0134526
0.0064115
0.0174471
0.0102927
0.0225833
0.0148344
0.026492
0.0199547
0.0288939
0.0254874
0.0303971
0.0312256
0.0312786
0.0316941
0.0369
0.000376612
0.00514456
0.00153013
0.00884956
0.0031784
0.0118044
0.00548871
0.0151368
0.00870797
0.0193641
0.012894
0.022306
0.0177463
0.0240415
0.0230141
0.0251294
0.0285061
0.0257865
0.0260569
0.0341433
0.000623208
0.00452135
0.00170508
0.00776768
0.00302489
0.0104845
0.00484451
0.0133172
0.00783659
0.016372
0.0119271
0.0182155
0.0166798
0.0192889
0.021855
0.0199541
0.0273205
0.0203211
0.0204025
0.0329748
0.000676519
0.00384483
0.00164201
0.00680218
0.00282208
0.00930449
0.00470657
0.0114327
0.00798396
0.0130946
0.0122174
0.013982
0.0170372
0.0144692
0.0222815
0.0147098
0.0278541
0.0147485
0.0145875
0.033669
0.000664718
0.00318011
0.00155635
0.00591054
0.003002
0.00785883
0.00559527
0.00883946
0.00939301
0.00929685
0.0139214
0.00945359
0.0189712
0.00941941
0.0244429
0.00923806
0.0302687
0.00892273
0.00847928
0.0363769
0.000594896
0.00258521
0.00172368
0.00478175
0.00407948
0.00550302
0.00754621
0.00537272
0.0118082
0.00503488
0.0166652
0.00459655
0.022016
0.00406864
0.0278013
0.00345271
0.0339698
0.00275423
0.00198639
0.0404627
0.00052823
0.00205697
0.00250118
0.00280879
0.00577814
0.00222604
0.00978427
0.00136658
0.0143829
0.000436199
0.0195288
-0.000549312
0.025192
-0.00159451
0.0313295
-0.00268485
0.0378804
-0.00379664
-0.00491775
0.0447845
0.000884942
0.00117202
0.00363643
5.72839e-05
0.00720313
-0.00134066
0.0113936
-0.00282392
0.0161952
-0.00436535
0.0216186
-0.00597269
0.0276219
-0.00759786
0.0341138
-0.0091768
0.0410111
-0.0106939
-0.0121796
0.0482729
0.00150691
-0.000334901
0.00413458
-0.0025704
0.00755731
-0.00476339
0.0117756
-0.00704223
0.0167966
-0.00938637
0.0225405
-0.0117166
0.028839
-0.0138964
0.0355711
-0.0159089
0.0427116
-0.0178344
-0.0197292
0.0502613
0.00104636
0.00313241
0.00645435
0.0109267
0.0163122
0.0222904
0.0287007
0.0355759
0.0429842
0.0509038
0.0514281
0.0837049
-0.098233
0.0773487
-0.00757286
-0.0183477
0.100002
-0.0512543
0.0286007
0.113704
-0.0471776
0.0334754
0.121685
-0.0269017
0.0189213
0.125313
-0.00801924
0.00439109
0.126343
0.00344203
-0.00447189
0.12645
0.00746798
-0.00757504
0.126311
0.00787635
-0.00773698
0.00552708
-0.00609454
0.0586482
0.0592
0.0917353
-0.0406601
0.118944
-0.0784634
0.134988
-0.0632214
0.143734
-0.0356476
0.147397
-0.011682
0.148154
0.00268434
0.147913
0.00770978
0.14743
0.00835916
0.00530669
0.0666824
0.0254924
0.105138
-0.0791157
0.136186
-0.109511
0.155859
-0.0828945
0.165879
-0.0456679
0.169613
-0.015416
0.169994
0.00230427
0.169242
0.00846099
0.16825
0.0093517
0.00557541
0.0755842
-0.0164227
0.117996
-0.121527
0.151941
-0.143457
0.17538
-0.106333
0.187454
-0.0577419
0.191526
-0.0194879
0.191568
0.00226262
0.190257
0.00977168
0.188677
0.010932
0.00641184
0.0846573
-0.0647032
0.12984
-0.16671
0.165956
-0.179573
0.192709
-0.133086
0.207693
-0.0727262
0.212705
-0.0245
0.21261
0.00235831
0.210787
0.0115945
0.208618
0.0131012
0.00783415
0.0931266
-0.117367
0.140334
-0.213917
0.178138
-0.217377
0.207456
-0.162404
0.225737
-0.0910072
0.232611
-0.0313743
0.2328
0.00216923
0.230637
0.0137573
0.227969
0.0157694
0.00979374
0.100328
-0.17291
0.149203
-0.262793
0.188386
-0.25656
0.219541
-0.193559
0.240886
-0.112353
0.250599
-0.0410873
0.251775
0.000994123
0.249594
0.0159383
0.246616
0.018747
0.0121718
0.10591
-0.230548
0.156319
-0.313201
0.196646
-0.296888
0.229071
-0.225984
0.25282
-0.136101
0.265938
-0.0542051
0.269088
-0.00215562
0.267404
0.0176223
0.264424
0.021727
0.0147728
0.109858
-0.290144
0.161715
-0.365058
0.202943
-0.338116
0.23622
-0.259262
0.261588
-0.16147
0.277993
-0.0706101
0.284186
-0.0083481
0.28376
0.0180484
0.28123
0.0242568
0.0173155
0.11249
0.165568
0.207413
0.24118
0.267504
0.28649
0.296403
0.29826
0.296825
0.0132007
0.00607769
-0.0192784
0.0109899
0.00221079
0.0115102
-0.000520275
0.0129345
-0.00142439
0.0136504
-0.000715906
0.0137681
-0.000117655
0.0135427
0.000225386
0.0131759
0.000366787
0.0129131
0.000262798
0.000366396
0.0372493
0.0232146
-0.0543863
0.0314968
0.00796334
0.0340114
-0.00303489
0.0380724
-0.00548541
0.0402482
-0.00289173
0.0406466
-0.000516058
0.0400042
0.000867799
0.039001
0.00136999
0.038065
0.00119881
0.00123097
0.0579671
0.0480941
-0.0828466
0.0508887
0.0150417
0.0559049
-0.00805114
0.0624912
-0.0120717
0.0661639
-0.00656452
0.0669221
-0.00127417
0.0659307
0.00185914
0.0643476
0.00295305
0.0627393
0.00280717
0.00251118
0.0739079
0.0753973
-0.101211
0.0680889
0.0208607
0.0764642
-0.0164265
0.0858088
-0.0214162
0.0911345
-0.0118902
0.0923933
-0.00253294
0.0911586
0.00309385
0.0890619
0.00504969
0.0868534
0.0050157
0.00415474
0.0814007
-0.104237
0.0839136
0.0960876
0.108147
0.115178
0.117036
0.115658
0.113133
0.110411
0.00273369
-0.000172927
-0.00256076
0.00326456
-0.000530876
0.00417681
-0.00091224
0.00548787
-0.00131107
0.0071843
-0.00169642
0.00922888
-0.00204458
0.0115855
-0.00235661
0.0141738
-0.00258834
0.016859
-0.00268516
-0.00241942
0.00778748
-0.000645703
-0.0073147
0.00923438
-0.00197778
0.0117138
-0.00339162
0.0152702
-0.00486748
0.0198845
-0.00631072
0.0254825
-0.0076426
0.0319648
-0.00883896
0.0391563
-0.00977981
0.0467677
-0.0102966
-0.0100379
0.0124781
-0.00138377
-0.0117401
0.0147278
-0.00422749
0.0185607
-0.00722452
0.0240247
-0.0103315
0.0310794
-0.0133654
0.0395863
-0.0161495
0.0493283
-0.018581
0.0600517
-0.0205033
0.071416
-0.0216609
-0.0214685
0.0168075
-0.00234772
-0.0158436
0.0197318
-0.00715174
0.024675
-0.0121678
0.0316516
-0.017308
0.0405502
-0.022264
0.0511064
-0.0267057
0.0629377
-0.0304123
0.0756949
-0.0332604
0.0888617
-0.0348278
-0.033818
0.0207931
-0.0196336
0.0242927
0.0301542
0.0383179
0.0485408
0.060344
0.0730439
0.0856047
0.0959914
0.0314442
-0.0313067
0.0371113
-0.0372488
0.025584
-0.0309037
0.0367639
0.0199257
-0.0300711
0.0357294
0.0146794
-0.028675
0.0339213
0.0100598
-0.0264664
0.031086
0.00620472
-0.0227789
0.026634
0.00311381
-0.0176477
0.0207386
0.00101741
-0.0136221
0.0157185
-8.67489e-05
-0.0101616
0.0112658
-0.00564234
0.0055556
0.0294603
-0.0254435
-0.0353236
0.0237447
-0.025188
0.0182549
-0.0245813
0.013169
-0.0235891
0.00874025
-0.0220376
0.00535035
-0.019389
0.00301972
-0.0153171
0.00139651
-0.0119989
0.000298184
-0.00906327
-0.00534416
0.0294318
-0.0194554
-0.0354199
0.0236278
-0.019384
0.0181106
-0.019064
0.0129973
-0.0184758
0.00849082
-0.0175311
0.00504236
-0.0159405
0.00300391
-0.0132786
0.00164445
-0.0106394
0.0005824
-0.00800121
-0.00476175
0.0313521
-0.0131924
-0.0376151
0.0253236
-0.0133555
0.0196132
-0.0133536
0.0143071
-0.0131698
0.00954426
-0.0127683
0.00564939
-0.0120457
0.00319565
-0.0108248
0.0017603
-0.00920408
0.000726596
-0.0069675
-0.00403515
0.0349541
-0.00653702
-0.0416094
0.0285806
-0.00698202
0.022561
-0.00733399
0.0169616
-0.00757032
0.0118728
-0.0076795
0.00747945
-0.00765224
0.00413363
-0.00747903
0.00199196
-0.0070624
0.000798129
-0.00577366
-0.00323702
0.0392757
0.000571246
-0.046384
0.0324926
-0.000198844
0.0261071
-0.000948459
0.0201938
-0.00165705
0.0148135
-0.00229914
0.0100291
-0.00286784
0.00592439
-0.00337435
0.0026739
-0.00381191
0.000720603
-0.00382035
-0.00251641
0.0431157
0.00808958
-0.0506341
0.0359376
0.0069793
0.0291532
0.00583597
0.0228626
0.00463358
0.0171681
0.00339528
0.0121096
0.00219067
0.00766807
0.00106724
0.00384933
6.8375e-06
0.000979728
-0.000950734
-0.00153667
0.0453961
0.0158954
-0.0532019
0.0379667
0.0144087
0.030911
0.0128917
0.0242649
0.0112797
0.0181717
0.00948848
0.0128179
0.00754442
0.00828277
0.0056024
0.00454139
0.00374823
0.00163234
0.00195832
9.56752e-05
0.0455496
0.0239998
-0.053654
0.0379302
0.0220282
0.0307993
0.0200226
0.0240695
0.0180095
0.017708
0.01585
0.0119089
0.0133435
0.00705008
0.0104613
0.00341858
0.00737974
0.001148
0.00422892
0.00124367
0.044489
-0.0530054
0.0365308
0.0292607
0.0226596
0.0165309
0.0107593
0.00566537
0.00203963