/*--------------------------------*- C++ -*----------------------------------*\
  =========                 |
  \\      /  F ield         | OpenFOAM: The Open Source CFD Toolbox
   \\    /   O peration     | Website:  https://openfoam.org
    \\  /    A nd           | Version:  13
     \\/     M anipulation  |
\*---------------------------------------------------------------------------*/
FoamFile
{
    format      ascii;
    class       volVectorField;
    location    "0.88";
    object      U;
}
// * * * * * * * * * * * * * * * * * * * * * * * * * * * * * * * * * * * * * //

dimensions      [0 1 -1 0 0 0 0];

internalField   nonuniform List<vector> 
1800
(
(0.0978003 -0.0883281 -4.48839e-20)
(0.286895 -0.24195 -3.41123e-20)
(0.473972 -0.379044 -4.85009e-19)
(0.657692 -0.500158 1.91467e-19)
(0.836612 -0.607173 7.43993e-20)
(1.00992 -0.70138 -3.90514e-20)
(1.17716 -0.783475 5.54997e-20)
(1.33794 -0.853689 1.97489e-19)
(1.4916 -0.912975 5.92304e-19)
(1.63354 -0.966917 8.101e-19)
(0.11906 -0.0915023 -7.91096e-20)
(0.34429 -0.247708 -7.7061e-19)
(0.563282 -0.384749 3.78143e-21)
(0.775364 -0.504236 1.25737e-19)
(0.979506 -0.608923 -1.26249e-19)
(1.17522 -0.700697 7.6566e-20)
(1.36232 -0.780792 -2.80748e-19)
(1.54078 -0.850104 -5.03033e-20)
(1.71011 -0.910713 -6.93585e-19)
(1.86786 -0.967056 6.29827e-19)
(0.14165 -0.0923227 4.88225e-20)
(0.403679 -0.247731 2.09287e-19)
(0.653754 -0.382116 5.43304e-19)
(0.892178 -0.497904 -1.90254e-19)
(1.11866 -0.598385 -1.4299e-19)
(1.33321 -0.685813 7.56031e-20)
(1.53605 -0.761708 9.82357e-20)
(1.72743 -0.827301 1.94053e-19)
(1.90721 -0.884807 2.73657e-21)
(2.07422 -0.937876 1.50979e-19)
(0.163906 -0.0897206 -4.57189e-20)
(0.461698 -0.23947 -2.0439e-19)
(0.741427 -0.367618 -1.81257e-19)
(1.00451 -0.476976 -1.42291e-19)
(1.25162 -0.571022 1.81301e-19)
(1.48351 -0.652128 -5.7088e-20)
(1.70093 -0.721907 -4.30998e-21)
(1.90453 -0.781624 2.90715e-21)
(2.09455 -0.833368 -1.60485e-19)
(2.27026 -0.880361 -1.05921e-19)
(0.184657 -0.0833563 -1.14034e-19)
(0.515893 -0.221807 8.76388e-20)
(0.823291 -0.33943 1.79835e-19)
(1.10931 -0.439063 2.43297e-19)
(1.37561 -0.524071 -2.8501e-19)
(1.62371 -0.596778 -3.58069e-21)
(1.85494 -0.658768 4.24952e-19)
(2.07043 -0.711264 -1.85055e-19)
(2.27083 -0.756166 -1.23985e-19)
(2.45578 -0.7964 -5.35413e-20)
(0.203189 -0.0734999 1.73587e-19)
(0.56447 -0.1952 1.02983e-18)
(0.89679 -0.298074 1.43257e-19)
(1.20351 -0.384735 -5.03128e-19)
(1.48719 -0.458227 -1.75496e-19)
(1.75003 -0.520669 6.37666e-19)
(1.9939 -0.573525 -1.45365e-19)
(2.22036 -0.617901 -4.31559e-19)
(2.43047 -0.655446 -3.16671e-19)
(2.6242 -0.688745 2.61586e-19)
(0.218898 -0.0605912 1.16339e-19)
(0.605744 -0.1607 -7.47582e-19)
(0.959312 -0.24503 -1.08559e-18)
(1.2837 -0.315798 3.83777e-19)
(1.58223 -0.375564 4.49929e-19)
(1.85767 -0.426128 -9.02016e-22)
(2.11239 -0.46874 -6.39652e-19)
(2.34829 -0.504326 2.1931e-19)
(2.56683 -0.534214 -3.64518e-19)
(2.76827 -0.560571 -3.11224e-19)
(0.231235 -0.0451722 -3.42481e-19)
(0.638199 -0.119684 -6.92592e-19)
(1.00849 -0.182294 1.21219e-18)
(1.34677 -0.2347 5.98691e-19)
(1.65693 -0.278852 -2.6975e-19)
(1.94224 -0.316136 -2.11492e-19)
(2.20543 -0.347515 0)
(2.44874 -0.37369 1.16797e-19)
(2.67398 -0.395623 -2.95837e-19)
(2.88171 -0.414971 -7.74196e-20)
(0.239766 -0.0278753 -2.04463e-19)
(0.660651 -0.0737557 5.62376e-19)
(1.04249 -0.112198 1.71005e-19)
(1.39031 -0.144289 -5.12485e-19)
(1.7084 -0.171277 -7.84181e-19)
(2.00037 -0.194053 3.66183e-20)
(2.26924 -0.213246 1.67126e-19)
(2.51752 -0.229294 -5.4683e-19)
(2.74731 -0.242785 -2.89766e-19)
(2.95953 -0.254779 -5.6359e-19)
(0.244259 -0.0094024 4.51402e-19)
(0.672451 -0.024704 3.44143e-19)
(1.0603 -0.0373616 -9.38585e-20)
(1.41303 -0.0477885 -1.29777e-20)
(1.73514 -0.0564623 -3.87501e-19)
(2.03041 -0.0637233 -8.57332e-20)
(2.30205 -0.0698103 -2.90573e-19)
(2.55275 -0.0748907 6.46551e-19)
(2.7848 -0.0791716 1.71001e-19)
(2.99945 -0.0830125 2.22052e-21)
(-0.00234178 -0.0217735 -3.52274e-20)
(0.00857609 -0.06936 -6.99441e-20)
(0.0248554 -0.120603 -7.33227e-21)
(0.0492918 -0.171374 -3.3947e-20)
(0.0776435 -0.216785 -1.27381e-20)
(0.106473 -0.254922 -3.90083e-19)
(0.135488 -0.288847 -1.9556e-20)
(0.166271 -0.322167 1.1995e-19)
(0.199099 -0.355698 1.09406e-20)
(0.23299 -0.388083 -3.57149e-20)
(0.00085137 -0.0246691 -9.77617e-20)
(0.0149329 -0.0850565 -2.13522e-19)
(0.0393445 -0.160421 -5.31336e-20)
(0.0692676 -0.225393 -1.10269e-19)
(0.0994675 -0.275685 -9.61596e-20)
(0.130414 -0.318111 -2.79323e-19)
(0.164423 -0.35911 2.00229e-19)
(0.202085 -0.400534 1.68792e-19)
(0.241588 -0.440473 -2.56972e-19)
(0.281094 -0.47687 8.14248e-20)
(0.00549716 -0.0314756 -8.54155e-20)
(0.0287737 -0.107406 -8.68975e-19)
(0.0628674 -0.196166 -1.30155e-19)
(0.0974519 -0.269055 9.26185e-20)
(0.131796 -0.327299 6.76791e-20)
(0.169618 -0.380373 -4.48054e-19)
(0.212913 -0.432421 3.53968e-20)
(0.259108 -0.481939 3.67033e-19)
(0.305453 -0.526417 -3.86709e-19)
(0.351395 -0.565823 -2.58685e-19)
(0.0113685 -0.0409712 -1.77143e-21)
(0.0466244 -0.130871 1.90169e-19)
(0.0896505 -0.225365 1.60327e-21)
(0.133079 -0.307083 -1.07016e-20)
(0.177779 -0.377925 -2.99805e-20)
(0.227228 -0.443926 8.57609e-20)
(0.281084 -0.505716 7.26405e-20)
(0.335654 -0.561004 -1.35989e-19)
(0.389711 -0.609497 9.2102e-21)
(0.443875 -0.652074 -1.04426e-20)
(0.0185088 -0.0507626 0)
(0.0672394 -0.152426 5.51039e-21)
(0.121945 -0.253651 -5.11253e-19)
(0.178698 -0.345503 5.17347e-20)
(0.237806 -0.428611 -9.57101e-21)
(0.300513 -0.505138 5.04698e-21)
(0.365307 -0.574442 -2.52024e-20)
(0.429801 -0.635514 -7.7612e-21)
(0.493937 -0.688931 0)
(0.558128 -0.734952 -2.05812e-20)
(0.027325 -0.0596452 3.18811e-20)
(0.0918955 -0.172854 -1.54567e-19)
(0.161769 -0.28253 -4.618e-20)
(0.234632 -0.383903 -5.82821e-20)
(0.309738 -0.476774 4.95748e-20)
(0.386739 -0.561566 5.98686e-21)
(0.464245 -0.637745 8.88368e-20)
(0.540939 -0.705 -2.17548e-20)
(0.61691 -0.763512 -6.95942e-19)
(0.69216 -0.812727 -1.01e-20)
(0.037974 -0.067602 6.76468e-22)
(0.121237 -0.192176 5.5515e-20)
(0.209164 -0.310619 -7.83632e-20)
(0.299929 -0.420182 -1.66836e-20)
(0.392139 -0.520681 -7.29113e-20)
(0.484781 -0.612146 -9.29521e-21)
(0.576706 -0.694352 1.01756e-20)
(0.666947 -0.767182 -2.11306e-19)
(0.755532 -0.830314 3.83345e-19)
(0.842325 -0.882379 9.71316e-19)
(0.0503605 -0.0745994 1.51064e-20)
(0.155129 -0.209608 -1.42221e-19)
(0.263462 -0.335964 -2.13668e-19)
(0.373671 -0.452113 8.89731e-20)
(0.484105 -0.558271 -6.43094e-20)
(0.593549 -0.654626 9.85556e-20)
(0.700949 -0.741292 1.9655e-19)
(0.805416 -0.818323 -1.08929e-19)
(0.90703 -0.885145 -3.05852e-19)
(1.0057 -0.939569 7.252e-19)
(0.0642893 -0.0803587 -2.65129e-20)
(0.193285 -0.224024 -5.7811e-19)
(0.324297 -0.356558 5.2428e-19)
(0.455684 -0.477231 3.37463e-19)
(0.585741 -0.586748 -8.59085e-20)
(0.713228 -0.685665 3.08581e-19)
(0.837135 -0.774443 -1.59941e-19)
(0.956571 -0.853473 -7.72584e-19)
(1.07174 -0.922058 -4.0364e-19)
(1.18268 -0.97731 4.53577e-19)
(0.0795445 -0.0846653 -7.98166e-20)
(0.235845 -0.234416 -5.44369e-19)
(0.392392 -0.370524 -8.31488e-21)
(0.547542 -0.492795 6.8862e-20)
(0.699596 -0.602464 3.37734e-19)
(0.847394 -0.700436 -1.85375e-19)
(0.990017 -0.787447 -1.69427e-19)
(1.12654 -0.863837 1.88949e-19)
(1.25682 -0.928664 -3.51585e-19)
(1.38008 -0.980376 -5.84502e-19)
(0.402882 -0.532234 9.81987e-19)
(0.684799 -0.618833 -2.39134e-19)
(0.91372 -0.558296 -1.4172e-19)
(1.08776 -0.432006 2.67124e-19)
(1.2405 -0.281025 -2.29638e-19)
(1.36325 -0.140509 -2.99064e-19)
(1.46229 -0.0361888 -2.66476e-19)
(1.52232 0.0180753 -3.19009e-20)
(1.54518 0.0340128 -4.10926e-20)
(1.56454 0.0258841 3.02844e-20)
(0.468816 -0.620089 9.63996e-19)
(0.741411 -0.694262 7.08048e-20)
(0.966206 -0.618362 1.09841e-20)
(1.12483 -0.481301 -2.14278e-19)
(1.2658 -0.321478 -7.10219e-19)
(1.38158 -0.173389 0)
(1.48213 -0.061549 -2.48853e-19)
(1.55994 0.00315251 5.19813e-20)
(1.60005 0.0268935 4.58564e-21)
(1.63449 0.0215624 2.74928e-20)
(0.556158 -0.705727 -9.9824e-19)
(0.810697 -0.767223 -7.11667e-20)
(1.02542 -0.67627 1.56249e-19)
(1.1661 -0.52841 -5.40679e-20)
(1.29126 -0.360708 -3.65718e-20)
(1.39755 -0.206163 6.40189e-20)
(1.49391 -0.0888625 0)
(1.58074 -0.016959 0)
(1.63925 0.0140308 1.01785e-22)
(1.69646 0.0143568 0)
(0.665659 -0.787448 -2.2512e-19)
(0.895521 -0.835767 4.05342e-19)
(1.09183 -0.730957 2.68361e-20)
(1.21232 -0.572338 0)
(1.31782 -0.397812 6.04437e-19)
(1.41222 -0.237772 -1.39976e-19)
(1.5012 -0.116658 0)
(1.59019 -0.0390492 1.38622e-19)
(1.65376 -0.00532429 0)
(1.74693 0.00307446 -4.6508e-20)
(0.795718 -0.864107 -1.48805e-19)
(0.997562 -0.897912 4.56155e-19)
(1.16606 -0.781269 -1.46506e-20)
(1.26365 -0.612259 0)
(1.34622 -0.43196 1.79961e-19)
(1.42611 -0.267434 2.64493e-19)
(1.50585 -0.143755 4.69836e-20)
(1.59373 -0.0614092 6.50939e-21)
(1.65162 -0.026852 -2.06638e-20)
(1.77669 -0.0155147 3.6363e-20)
(0.942243 -0.934949 -1.33362e-18)
(1.11643 -0.952309 -9.44129e-19)
(1.24873 -0.825946 4.75204e-21)
(1.31986 -0.647458 5.7669e-19)
(1.37683 -0.462369 -3.07608e-19)
(1.43935 -0.294559 1.45865e-19)
(1.50882 -0.169269 2.27519e-19)
(1.59113 -0.0833762 -1.87232e-19)
(1.64928 -0.0477081 -1.9454e-21)
(1.75699 -0.0364384 -1.23703e-20)
(1.10011 -0.9996 -2.61141e-19)
(1.24997 -0.998774 2.8719e-19)
(1.34007 -0.863873 3.90198e-21)
(1.38064 -0.677253 -1.76537e-20)
(1.40973 -0.488291 -5.94409e-19)
(1.45195 -0.318582 5.36831e-20)
(1.51022 -0.192635 -9.44801e-20)
(1.58387 -0.103699 -2.60358e-20)
(1.64592 -0.0673047 8.3269e-21)
(1.70726 -0.0482521 -2.38965e-20)
(1.26434 -1.05696 -1.20031e-18)
(1.39472 -1.03791 2.1035e-19)
(1.43907 -0.894464 0)
(1.445 -0.701219 3.4485e-20)
(1.44422 -0.509239 5.23279e-19)
(1.46355 -0.339066 -1.8427e-21)
(1.50888 -0.213754 -3.21297e-19)
(1.57628 -0.121124 7.60962e-20)
(1.6168 -0.0819858 -1.97015e-21)
(1.6446 -0.0541925 -6.08022e-20)
(1.43202 -1.10359 3.39089e-18)
(1.54804 -1.07064 2.45654e-19)
(1.54553 -0.918425 4.65178e-19)
(1.5132 -0.719776 -3.17964e-20)
(1.48041 -0.52538 -3.44742e-20)
(1.47383 -0.35612 -4.28739e-19)
(1.50385 -0.231555 9.82718e-20)
(1.55602 -0.137708 3.11016e-21)
(1.56038 -0.0865828 -2.4239e-20)
(1.57317 -0.0566439 7.21773e-20)
(1.59927 -1.12826 -2.99798e-18)
(1.70187 -1.09581 1.27186e-18)
(1.65389 -0.938402 -2.33586e-19)
(1.58135 -0.736414 -7.89709e-19)
(1.51525 -0.54026 -6.54269e-19)
(1.48017 -0.373526 -2.50463e-19)
(1.4933 -0.249762 -7.30527e-20)
(1.49982 -0.145646 0)
(1.49451 -0.087755 -7.82478e-20)
(1.49615 -0.0575573 1.6124e-19)
(1.88821 -1.17029 -6.71009e-18)
(1.92741 -1.10534 -1.69135e-18)
(1.8048 -0.93258 -5.79372e-20)
(1.67304 -0.728163 1.11653e-19)
(1.56173 -0.53535 1.57907e-19)
(1.4879 -0.374305 -9.89279e-20)
(1.43962 -0.248587 -4.02171e-20)
(1.41504 -0.144456 7.67822e-20)
(1.40177 -0.0864976 -6.56274e-20)
(1.39285 -0.0571931 -7.37246e-20)
(2.28936 -1.13494 4.95968e-19)
(2.17885 -1.05686 -2.92595e-19)
(1.94261 -0.865576 4.87707e-19)
(1.73539 -0.665147 -8.30883e-20)
(1.56106 -0.481708 -1.19812e-20)
(1.4248 -0.334623 -7.57411e-20)
(1.33753 -0.223213 9.19597e-20)
(1.29752 -0.132824 -3.31593e-20)
(1.27733 -0.0807405 2.21173e-19)
(1.25955 -0.0541293 1.0121e-19)
(2.61059 -1.04366 2.27078e-18)
(2.35188 -0.948863 3.25703e-19)
(2.00802 -0.759631 -1.17558e-19)
(1.73204 -0.573171 1.67944e-36)
(1.50425 -0.411391 -2.5635e-20)
(1.33757 -0.287525 1.49559e-33)
(1.2309 -0.193812 -2.14899e-20)
(1.17373 -0.118515 -1.74444e-33)
(1.14629 -0.0728496 7.06349e-21)
(1.12103 -0.0492009 -1.1106e-20)
(2.787 -0.894007 3.88549e-33)
(2.36932 -0.795691 2.96658e-18)
(1.97335 -0.630595 1.81658e-18)
(1.65307 -0.469554 0)
(1.40579 -0.335301 8.29118e-19)
(1.22858 -0.234167 4.24234e-19)
(1.11172 -0.158881 1.71351e-19)
(1.04357 -0.100013 -3.0789e-33)
(1.00963 -0.062593 -5.37771e-20)
(0.978468 -0.0426874 5.78807e-21)
(2.76361 -0.705917 3.84244e-18)
(2.24582 -0.62992 -1.46797e-19)
(1.84638 -0.491082 0)
(1.5153 -0.361772 0)
(1.27086 -0.255893 0)
(1.09653 -0.178741 0)
(0.979472 -0.122491 -1.29038e-20)
(0.906894 -0.0791702 -4.35007e-33)
(0.868477 -0.0505138 8.02185e-21)
(0.833157 -0.0349955 4.01317e-34)
(2.55115 -0.517049 3.26545e-18)
(2.02001 -0.462931 0)
(1.63848 -0.353669 0)
(1.32663 -0.256761 0)
(1.10072 -0.179782 0)
(0.941232 -0.125711 0)
(0.832688 -0.0870185 3.31484e-20)
(0.762386 -0.057645 -9.61457e-20)
(0.722805 -0.0374162 8.91623e-21)
(0.685776 -0.0265983 2.50408e-20)
(2.19011 -0.342716 0)
(1.70261 -0.303518 1.09799e-18)
(1.36124 -0.227618 1.09013e-18)
(1.09125 -0.161992 0)
(0.898279 -0.112364 6.66003e-19)
(0.763727 -0.0787927 4.02375e-19)
(0.671156 -0.0551538 2.49979e-19)
(0.609068 -0.0374246 8.63248e-20)
(0.5722 -0.0245246 -4.07465e-20)
(0.536645 -0.018161 -1.61222e-21)
(1.70285 -0.191138 -6.73875e-19)
(1.30017 -0.165597 -2.74176e-19)
(1.02502 -0.121761 1.75655e-19)
(0.815048 -0.084434 -2.11211e-34)
(0.66765 -0.0580861 -7.71354e-20)
(0.566026 -0.0410822 3.7009e-33)
(0.495354 -0.0291893 4.87499e-20)
(0.446499 -0.0203618 9.89991e-20)
(0.416201 -0.0132857 1.02107e-20)
(0.385842 -0.0104909 -9.3258e-22)
(1.10088 -0.0758223 3.40806e-18)
(0.823154 -0.0626795 -1.86595e-19)
(0.640568 -0.0442953 -5.89009e-19)
(0.50613 -0.0289857 0)
(0.413801 -0.0195665 -6.40159e-19)
(0.350589 -0.0141414 -4.32263e-19)
(0.306023 -0.0103858 -2.04653e-19)
(0.274377 -0.00766872 -1.45479e-19)
(0.254081 -0.00497264 1.86733e-19)
(0.233041 -0.00437416 -3.56232e-20)
(0.397351 -0.00331885 0)
(0.287865 0.00159446 0)
(0.220888 0.00409441 0)
(0.173547 0.0062484 0)
(0.142371 0.00585952 0)
(0.121176 0.00472042 0)
(0.105821 0.0037038 5.58856e-20)
(0.0944825 0.00263202 -2.17582e-34)
(0.0869035 0.00236118 1.27042e-20)
(0.0786899 0.00105947 1.13067e-20)
(3.3671 -0.0863125 5.39217e-19)
(3.32642 -0.265088 -8.41879e-20)
(3.24735 -0.430659 8.52083e-19)
(3.13238 -0.582162 -6.04752e-19)
(2.98634 -0.71813 6.66396e-19)
(2.81524 -0.83639 2.7524e-19)
(2.62661 -0.934069 -1.92745e-18)
(2.42952 -1.00786 -7.74847e-20)
(2.22469 -1.0537 0)
(1.98487 -1.06658 4.26015e-19)
(3.86191 -0.075061 7.07366e-18)
(3.79859 -0.234217 1.95629e-18)
(3.70428 -0.387316 -4.86733e-18)
(3.58426 -0.531998 -4.49144e-19)
(3.44239 -0.665903 3.55895e-18)
(3.28186 -0.787332 1.92355e-18)
(3.10651 -0.895084 -5.16884e-18)
(2.92205 -0.987724 -1.95224e-18)
(2.7276 -1.06342 2.20321e-18)
(2.49238 -1.12055 8.52204e-19)
(3.83307 -0.0533024 -1.2626e-19)
(3.82024 -0.171569 4.40353e-18)
(3.78546 -0.299765 -1.08814e-18)
(3.72433 -0.430924 -3.44615e-18)
(3.63617 -0.558737 -6.79981e-18)
(3.52371 -0.678811 1.02787e-17)
(3.39117 -0.788804 4.18058e-18)
(3.2435 -0.888001 -3.91185e-18)
(3.08161 -0.978739 -2.90279e-18)
(2.88723 -1.06303 -3.42511e-18)
(3.62866 -0.0472873 -4.83934e-18)
(3.61961 -0.144933 -4.35338e-18)
(3.59963 -0.243743 5.47204e-18)
(3.56735 -0.343098 1.91183e-18)
(3.5224 -0.442384 -8.97105e-18)
(3.46415 -0.540815 4.92129e-19)
(3.39182 -0.637055 3.88628e-18)
(3.3051 -0.730443 -1.05389e-18)
(3.20497 -0.823079 1.27676e-18)
(3.08304 -0.91479 2.81779e-19)
(3.34405 -0.0365795 -9.15979e-19)
(3.339 -0.111657 3.00406e-18)
(3.3271 -0.188678 1.61956e-18)
(3.30744 -0.267173 -1.89423e-18)
(3.27986 -0.346072 -2.00133e-18)
(3.24465 -0.42414 -2.43392e-18)
(3.20203 -0.500339 3.79646e-19)
(3.15175 -0.574501 1.39037e-19)
(3.09547 -0.647768 -2.13962e-18)
(3.03284 -0.721317 -2.03427e-18)
(2.96257 -0.0265555 -1.82247e-18)
(2.95981 -0.0798898 -5.87278e-20)
(2.9533 -0.1346 -1.6375e-18)
(2.9424 -0.190904 3.12135e-19)
(2.92675 -0.248551 5.36775e-18)
(2.90629 -0.306931 -3.66745e-19)
(2.88091 -0.365117 4.43376e-20)
(2.85022 -0.422061 -2.60855e-18)
(2.81643 -0.476886 -3.49557e-18)
(2.78599 -0.529869 3.72858e-19)
(2.48713 -0.0175115 -2.89323e-20)
(2.48578 -0.0519354 -8.143e-19)
(2.48259 -0.0872488 -2.6148e-18)
(2.47707 -0.123772 -3.43096e-18)
(2.4688 -0.161534 2.49651e-18)
(2.45744 -0.200268 1.50223e-18)
(2.44261 -0.239354 -1.38505e-18)
(2.4237 -0.277792 1.62448e-18)
(2.40274 -0.314485 -4.29702e-19)
(2.38953 -0.349543 -9.63759e-19)
(1.91464 -0.00968883 7.72441e-19)
(1.91408 -0.0282979 -8.3178e-19)
(1.91278 -0.0474399 -3.27678e-20)
(1.91032 -0.0673593 -3.47244e-20)
(1.90624 -0.0881303 -7.27406e-20)
(1.90013 -0.109615 -2.33191e-18)
(1.89151 -0.131405 -6.78669e-19)
(1.87978 -0.152783 2.62609e-18)
(1.86664 -0.172975 -6.03507e-19)
(1.86191 -0.192208 -1.35114e-18)
(1.23989 -0.00373783 -1.64278e-18)
(1.23967 -0.0106958 -8.48893e-19)
(1.23923 -0.0179013 2.33914e-18)
(1.23823 -0.0254786 -8.89757e-19)
(1.23625 -0.0334753 -6.74111e-19)
(1.2329 -0.0418316 1.35201e-18)
(1.22775 -0.05035 -1.29588e-18)
(1.22038 -0.0586655 1.28698e-18)
(1.21202 -0.0663427 -1.21032e-18)
(1.21007 -0.0735085 -4.24829e-18)
(0.454916 -0.000257996 6.63065e-19)
(0.454827 -0.000700544 7.03038e-19)
(0.454692 -0.00115912 7.48165e-19)
(0.454325 -0.00164005 1.35394e-18)
(0.453496 -0.00214017 -6.71973e-19)
(0.451984 -0.00263717 -1.2996e-18)
(0.449568 -0.00309909 6.14707e-19)
(0.445993 -0.00359291 2.48375e-20)
(0.441737 -0.00439221 -4.96534e-20)
(0.44035 -0.00504563 1.1057e-19)
(1.65357 0.997299 -2.85838e-19)
(1.51228 0.941878 1.79919e-20)
(1.3588 0.88076 -2.28776e-19)
(1.19768 0.808447 1.763e-19)
(1.02957 0.723984 -1.91833e-19)
(0.854825 0.62708 -1.01079e-19)
(0.673759 0.516943 2.3197e-19)
(0.487035 0.392146 -3.04873e-19)
(0.29589 0.250642 3.09879e-19)
(0.101429 0.0916431 2.38691e-19)
(1.8864 0.992208 0)
(1.72969 0.934752 6.39417e-19)
(1.56084 0.872777 3.32659e-19)
(1.38229 0.801858 1.62645e-19)
(1.19453 0.719881 4.31108e-19)
(0.997534 0.6259 -8.68395e-20)
(0.79136 0.518602 -7.85271e-20)
(0.576345 0.395989 8.87377e-20)
(0.353316 0.255174 -1.04514e-18)
(0.122697 0.0943545 -1.6661e-20)
(2.09105 0.959048 1.568e-19)
(1.92524 0.905076 0)
(1.74614 0.846467 -1.0073e-19)
(1.55494 0.779552 -3.83306e-19)
(1.3517 0.702084 5.37026e-20)
(1.13609 0.61279 3.97067e-19)
(0.907783 0.510088 -6.06839e-19)
(0.666588 0.391637 -2.00884e-19)
(0.412594 0.254043 7.83575e-19)
(0.14525 0.0947345 -1.75922e-19)
(2.28485 0.89836 1.87932e-19)
(2.11045 0.850565 1.19703e-20)
(1.9213 0.797864 2.45273e-20)
(1.71811 0.737002 3.60799e-20)
(1.50058 0.665856 -2.92965e-20)
(1.26792 0.583132 2.73233e-19)
(1.01926 0.487167 -2.06869e-19)
(0.753673 0.37553 -8.55536e-19)
(0.470269 0.244677 0)
(0.167387 0.091696 0)
(2.46796 0.811822 -1.07085e-18)
(2.28436 0.770838 -6.09256e-19)
(2.08493 0.725062 -1.20688e-19)
(1.87003 0.671523 -6.65692e-20)
(1.6389 0.608295 0)
(1.39031 0.534136 2.4074e-19)
(1.12275 0.447433 2.67765e-19)
(0.834553 0.345834 2.86228e-19)
(0.523838 0.225952 -4.23725e-19)
(0.187907 0.0848976 -8.1231e-20)
(2.634 0.702095 7.66452e-19)
(2.44156 0.668065 -1.39169e-19)
(2.23244 0.629679 -2.21595e-19)
(2.00664 0.584306 0)
(1.76301 0.530278 0)
(1.49987 0.466487 0)
(1.21522 0.391463 -3.89786e-20)
(0.906683 0.303089 3.70271e-19)
(0.571497 0.198347 3.79146e-19)
(0.206082 0.074624 -3.08559e-19)
(2.7758 0.572356 -1.19359e-18)
(2.5755 0.545261 -1.4814e-18)
(2.35786 0.514529 -3.03366e-22)
(2.1226 0.477946 -1.87649e-19)
(1.86818 0.434181 -9.28776e-20)
(1.59257 0.382318 -1.7883e-19)
(1.29332 0.321124 4.59078e-19)
(0.967487 0.248836 2.14862e-19)
(0.611582 0.162966 5.40012e-19)
(0.221314 0.06134 2.02848e-19)
(2.88707 0.425749 -1.15708e-18)
(2.68027 0.405633 8.47039e-20)
(2.45576 0.38282 1.64527e-19)
(2.21297 0.355611 1.68141e-20)
(1.95004 0.32305 -3.14394e-19)
(1.66465 0.284468 -1.74201e-19)
(1.35397 0.238937 -6.21197e-19)
(1.01463 0.18514 1.18529e-19)
(0.642603 0.121236 5.14733e-20)
(0.233065 0.0456125 -6.26922e-21)
(2.96279 0.265187 1.01366e-19)
(2.7512 0.252354 3.97e-19)
(2.52189 0.237904 -3.3029e-19)
(2.27394 0.22074 3.63005e-19)
(2.00523 0.200297 3.72542e-19)
(1.71322 0.176176 4.91888e-19)
(1.39481 0.147809 -6.35729e-19)
(1.04633 0.114389 -3.2441e-19)
(0.66341 0.0748095 -4.58505e-20)
(0.240916 0.028095 -3.26988e-19)
(3.00052 0.093577 5.8181e-19)
(2.78612 0.0887854 -1.86161e-19)
(2.55425 0.0834438 4.79557e-19)
(2.30366 0.07715 -3.10659e-19)
(2.03208 0.0697277 2.66476e-19)
(1.73679 0.0610617 6.05399e-19)
(1.41457 0.0509783 3.78879e-19)
(1.06161 0.0392345 3.09337e-19)
(0.673395 0.0255065 2.65857e-19)
(0.244653 0.0095072 5.43606e-19)
(0.239663 0.452302 -4.6932e-19)
(0.204052 0.418572 -1.87942e-19)
(0.168473 0.381474 1.39248e-19)
(0.13493 0.343791 -4.19127e-19)
(0.105187 0.307652 -1.19355e-19)
(0.0782889 0.270397 6.92904e-19)
(0.0519146 0.223993 3.35775e-19)
(0.0259901 0.159118 -1.5506e-19)
(0.00706686 0.079756 1.14946e-19)
(-0.00112115 0.0224633 -6.07761e-20)
(0.288674 0.544602 4.11543e-19)
(0.248768 0.5078 4.58587e-19)
(0.208218 0.46574 -1.15458e-20)
(0.167884 0.418694 -1.3289e-19)
(0.131152 0.370545 -3.13846e-19)
(0.100617 0.322927 8.2858e-20)
(0.0734911 0.269589 2.25424e-19)
(0.0459134 0.197112 1.65644e-19)
(0.0183576 0.101991 -5.91446e-19)
(0.00279662 0.0289049 -1.23687e-19)
(0.359649 0.633413 -6.0105e-19)
(0.313787 0.593255 -4.8159e-19)
(0.267995 0.547406 2.57873e-19)
(0.221356 0.494082 1.38465e-19)
(0.17581 0.434297 -6.22226e-21)
(0.136271 0.372057 -1.40275e-19)
(0.10212 0.30576 -2.96757e-20)
(0.0684428 0.225011 -5.54898e-19)
(0.033684 0.126106 -2.69335e-19)
(0.00764603 0.0378292 -3.9053e-20)
(0.454191 0.718138 5.03441e-19)
(0.400038 0.67393 1.64745e-19)
(0.346349 0.622902 -1.49497e-19)
(0.292219 0.56384 6.32109e-20)
(0.237743 0.495721 -6.13047e-22)
(0.186583 0.421015 1.276e-21)
(0.140103 0.340767 -1.32538e-19)
(0.0954621 0.250331 3.7809e-19)
(0.051443 0.14779 -4.19139e-19)
(0.0135875 0.0477328 -6.5021e-20)
(0.571984 0.79808 -2.82181e-19)
(0.50784 0.74997 -8.88784e-20)
(0.443563 0.693105 -1.43658e-20)
(0.378957 0.627364 -7.05208e-20)
(0.313714 0.552084 5.86739e-20)
(0.24966 0.468162 5.29507e-20)
(0.188379 0.376786 -2.80107e-20)
(0.129327 0.276701 -2.8197e-19)
(0.072532 0.167672 2.18274e-19)
(0.0209234 0.0568527 8.72397e-20)
(0.709405 0.871127 6.43222e-19)
(0.634358 0.819728 3.20607e-19)
(0.558124 0.757544 2.02718e-19)
(0.480852 0.68546 4.82284e-20)
(0.402411 0.603605 1.55338e-19)
(0.323871 0.51242 7.87132e-20)
(0.246468 0.412559 1.43595e-19)
(0.170868 0.303938 5.79504e-20)
(0.0980566 0.186815 -1.58388e-20)
(0.0300003 0.0650367 -1.32691e-20)
(0.862022 0.935008 -1.19784e-19)
(0.775543 0.880795 -8.24317e-19)
(0.686705 0.814152 -7.55992e-20)
(0.595727 0.736891 -5.28902e-20)
(0.502564 0.649674 -1.9918e-20)
(0.408127 0.552745 1.51676e-19)
(0.31348 0.446332 -4.38049e-20)
(0.219712 0.330425 6.49427e-20)
(0.128295 0.205087 -1.44618e-19)
(0.0409056 0.0724963 -1.2737e-21)
(1.02674 0.986139 -8.8452e-19)
(0.928477 0.929726 5.94322e-20)
(0.826664 0.859775 -2.34206e-19)
(0.721469 0.778936 -7.22981e-20)
(0.612773 0.688041 -2.37766e-20)
(0.501461 0.587089 -7.51995e-20)
(0.388529 0.475906 5.62479e-20)
(0.275164 0.354202 6.0292e-20)
(0.162983 0.221561 -9.82083e-21)
(0.0535446 0.0791213 -1.03761e-19)
(1.20391 1.01801 1.23816e-19)
(1.09351 0.961006 5.2292e-19)
(0.978263 0.889768 1.55052e-21)
(0.85823 0.807588 -2.94517e-20)
(0.73315 0.715323 1.50753e-19)
(0.603895 0.612563 -3.47154e-19)
(0.471405 0.498758 -2.44327e-19)
(0.336831 0.373212 3.56085e-19)
(0.201772 0.235008 1.44167e-19)
(0.0677021 0.0845325 -3.61998e-20)
(1.4006 1.01552 7.39565e-19)
(1.27807 0.96239 3.23623e-19)
(1.14784 0.895399 5.59526e-20)
(1.01088 0.816427 -1.94787e-19)
(0.867275 0.726538 -1.64211e-20)
(0.717904 0.625347 4.655e-19)
(0.563585 0.512009 -2.68179e-19)
(0.405341 0.385477 -1.84466e-19)
(0.244705 0.24432 3.35776e-19)
(0.0831136 0.0884405 -6.03267e-21)
(0.97762 0.0990239 8.57484e-21)
(1.14074 0.142694 -2.22105e-21)
(1.21359 0.190937 -2.43392e-20)
(1.32648 0.1698 0)
(1.37987 0.155067 -6.46082e-22)
(1.2805 0.233813 -5.90072e-20)
(1.13048 0.385497 -5.451e-20)
(0.949996 0.543649 -9.55568e-21)
(0.712001 0.648641 -3.08369e-19)
(0.416704 0.595839 4.2018e-19)
(0.983382 0.0803537 2.00231e-19)
(1.13229 0.115005 -3.23949e-20)
(1.21057 0.160469 1.88357e-21)
(1.31719 0.150184 1.06206e-20)
(1.38425 0.157315 3.20016e-21)
(1.30042 0.268611 -1.15172e-21)
(1.16037 0.43583 8.15254e-21)
(0.994468 0.606847 0)
(0.761767 0.727767 8.07351e-19)
(0.479475 0.687074 -5.7086e-19)
(0.988949 0.0619748 -1.14716e-19)
(1.12863 0.0883197 6.39547e-21)
(1.21063 0.130842 7.8527e-20)
(1.31401 0.129214 1.9261e-20)
(1.38794 0.158565 -2.33251e-20)
(1.32027 0.30146 -3.47119e-20)
(1.19328 0.484706 -1.61043e-20)
(1.0444 0.668469 4.4861e-20)
(0.82322 0.804306 -1.28644e-21)
(0.564476 0.774877 -3.60564e-19)
(0.994041 0.043262 -8.11323e-20)
(1.12943 0.062246 1.53363e-20)
(1.21411 0.10187 7.55337e-20)
(1.31727 0.108138 3.1724e-20)
(1.3938 0.159459 -2.40196e-20)
(1.34025 0.332285 -2.82972e-20)
(1.22963 0.531387 8.30814e-20)
(1.10035 0.727363 2.69989e-20)
(0.8999 0.875987 -5.51036e-19)
(0.673666 0.857283 -1.77504e-19)
(0.998198 0.0237463 3.60956e-20)
(1.13384 0.0363411 -4.51365e-20)
(1.22052 0.0734293 -6.75059e-20)
(1.32559 0.0877391 2.31698e-20)
(1.40093 0.160923 0)
(1.36011 0.361434 0)
(1.26954 0.575184 8.23971e-20)
(1.16351 0.782126 -2.83236e-20)
(0.994602 0.940316 -1.18501e-19)
(0.805073 0.932646 -5.73768e-20)
(1.0008 0.00324403 3.22879e-21)
(1.14078 0.0101806 5.81393e-20)
(1.22887 0.0454199 -2.07168e-19)
(1.337 0.0685512 -7.77828e-20)
(1.40818 0.163793 -4.73279e-21)
(1.37978 0.38902 1.31868e-19)
(1.31325 0.615217 1.57591e-19)
(1.23544 0.831033 -1.80617e-20)
(1.10773 0.995495 -4.46168e-20)
(0.953741 1.00033 3.26251e-21)
(1.00098 -0.0182692 2.71626e-21)
(1.14928 -0.0166111 3.0719e-20)
(1.23821 0.0178618 -6.55651e-20)
(1.34991 0.0510461 -1.5811e-19)
(1.41471 0.168322 1.16465e-20)
(1.39958 0.414689 7.27912e-21)
(1.36138 0.650351 -5.99884e-20)
(1.31724 0.872431 -1.0591e-19)
(1.23723 1.04125 -3.12861e-20)
(1.11387 1.06049 -9.79395e-19)
(0.998116 -0.0404391 1.51079e-20)
(1.15882 -0.0443373 -1.47206e-19)
(1.24794 -0.00906129 1.33054e-19)
(1.36308 0.0359435 1.03962e-19)
(1.41939 0.174965 4.98614e-21)
(1.41949 0.43795 -1.37831e-19)
(1.41383 0.679547 1.36538e-21)
(1.40824 0.905393 -1.37042e-19)
(1.37928 1.07846 1.1098e-20)
(1.27988 1.11255 2.88303e-18)
(0.992424 -0.0627018 -8.9337e-20)
(1.16938 -0.073125 8.20939e-20)
(1.25779 -0.0351559 1.91997e-19)
(1.37584 0.0233495 -1.16183e-19)
(1.42282 0.183484 -2.32821e-19)
(1.44112 0.458485 9.26091e-21)
(1.47185 0.702675 1.71564e-19)
(1.5084 0.930637 -5.80373e-19)
(1.53082 1.10841 -2.68552e-20)
(1.44838 1.15351 -6.47523e-18)
(0.984884 -0.0855862 4.0893e-21)
(1.18125 -0.102966 1.4436e-19)
(1.26774 -0.0602255 6.21693e-20)
(1.38711 0.0157963 -2.81175e-19)
(1.42287 0.197949 -2.50204e-19)
(1.46203 0.479861 -7.54493e-20)
(1.53108 0.723532 8.49851e-20)
(1.61152 0.951514 -2.00698e-19)
(1.68373 1.13073 -1.08565e-18)
(1.61566 1.17245 -7.95109e-18)
(0.974648 -0.116694 -1.4494e-20)
(1.19586 -0.142589 -3.35139e-20)
(1.27708 -0.0939702 -7.81846e-20)
(1.39767 0.00178473 1.47849e-19)
(1.42354 0.197301 2.06079e-19)
(1.49157 0.475251 -6.28896e-20)
(1.61184 0.712858 -1.42028e-19)
(1.75373 0.940628 -1.19848e-18)
(1.9028 1.1327 -1.59864e-18)
(1.89938 1.20878 3.2857e-18)
(0.962164 -0.155455 -4.03871e-19)
(1.21474 -0.192077 1.96193e-20)
(1.28128 -0.139917 -5.92133e-20)
(1.39786 -0.0195428 3.46067e-19)
(1.40034 0.175238 3.47787e-19)
(1.49267 0.429945 1.0809e-20)
(1.66785 0.648372 -6.40111e-20)
(1.88057 0.866162 -2.78373e-19)
(2.13954 1.07153 2.81602e-19)
(2.28456 1.16091 -3.23572e-19)
(0.949443 -0.196054 -2.79156e-20)
(1.24017 -0.241989 -5.50622e-20)
(1.28071 -0.184626 3.09944e-20)
(1.39296 -0.0374135 2.69814e-20)
(1.37271 0.164388 1.71431e-33)
(1.46864 0.37228 2.562e-21)
(1.67986 0.561684 -2.02797e-33)
(1.94876 0.759787 1.85025e-19)
(2.30182 0.956505 -9.30789e-19)
(2.58734 1.05852 -6.29246e-19)
(0.93702 -0.242893 1.41036e-18)
(1.2717 -0.282089 -7.76299e-34)
(1.24962 -0.229568 -4.07319e-20)
(1.26892 -0.0376825 -2.28639e-19)
(1.26035 0.145315 -4.44338e-19)
(1.38844 0.30313 -8.7922e-19)
(1.61854 0.460313 -5.05456e-33)
(1.9289 0.631243 -1.7372e-18)
(2.32562 0.802173 -3.17772e-18)
(2.75368 0.902635 1.67505e-18)
(0.927305 -0.300531 0)
(1.31687 -0.327111 -1.62099e-33)
(1.11275 -0.207298 0)
(1.10625 -0.0302048 0)
(1.11793 0.115245 0)
(1.25807 0.233222 0)
(1.48922 0.355593 -8.04705e-33)
(1.81478 0.491663 0)
(2.21333 0.634334 -3.39683e-19)
(2.73493 0.712046 1.25741e-18)
(0.916504 -0.360821 1.16139e-19)
(1.25152 -0.326143 -4.68025e-19)
(0.960154 -0.174325 -5.51814e-20)
(0.933223 -0.0261518 0)
(0.955417 0.082771 0)
(1.08977 0.165682 6.02998e-20)
(1.30608 0.254002 1.17524e-18)
(1.61583 0.354741 -1.95055e-19)
(1.99664 0.466227 -4.95303e-19)
(2.53242 0.520494 4.67318e-18)
(0.883477 -0.405313 -1.52013e-17)
(1.09207 -0.279956 1.08658e-18)
(0.792735 -0.130627 -7.27909e-20)
(0.746537 -0.0211956 -7.2896e-20)
(0.772353 0.0525589 -5.13288e-19)
(0.889323 0.104641 -7.73094e-19)
(1.07615 0.161336 -1.04763e-18)
(1.34597 0.229046 -1.38178e-18)
(1.68758 0.306128 -1.60489e-18)
(2.17992 0.34445 3.61218e-18)
(0.809009 -0.394515 -4.13704e-19)
(0.886453 -0.207585 -1.21655e-18)
(0.605603 -0.082913 -1.25605e-19)
(0.549383 -0.0153401 -8.4263e-20)
(0.571514 0.0276106 -9.91642e-34)
(0.661438 0.0545961 9.35958e-20)
(0.805342 0.0846177 -1.48464e-32)
(1.01617 0.122953 -1.93435e-19)
(1.29246 0.167312 2.98969e-19)
(1.69929 0.192072 7.05787e-19)
(0.664257 -0.288842 3.42549e-17)
(0.618254 -0.108101 -3.13994e-18)
(0.393404 -0.035134 -2.4061e-19)
(0.339225 -0.00737029 -1.59255e-19)
(0.353554 0.009245 3.94332e-19)
(0.410365 0.0183722 7.84506e-19)
(0.501134 0.0292031 7.95471e-19)
(0.636711 0.0448893 4.59891e-19)
(0.820749 0.0634576 -1.90467e-19)
(1.10156 0.0762257 3.56949e-18)
(0.336839 -0.0768229 5.58838e-19)
(0.26185 -0.00230488 -6.76608e-33)
(0.144388 0.0190779 -3.04825e-19)
(0.12036 0.00337946 0)
(0.123557 -0.00235517 0)
(0.141814 -0.00541992 9.63135e-20)
(0.17235 -0.00624854 9.36564e-35)
(0.22029 -0.00417787 -1.23569e-19)
(0.288129 -0.00161952 -2.82633e-19)
(0.399011 0.00331819 1.00161e-18)
(2.00207 1.09646 -1.78991e-18)
(2.23908 1.07849 -2.30495e-18)
(2.44209 1.02913 0)
(2.63708 0.952518 -7.57986e-19)
(2.82359 0.85252 -1.78258e-18)
(2.99276 0.732398 -2.24949e-18)
(3.13709 0.595047 -4.75801e-19)
(3.25054 0.442701 1.26927e-18)
(3.32824 0.276966 -3.54789e-18)
(3.36764 0.0986983 1.35668e-18)
(2.49869 1.14203 2.67763e-19)
(2.73057 1.08196 1.39742e-18)
(2.92388 1.00423 1.43926e-19)
(3.10674 0.909823 6.75733e-19)
(3.2806 0.800676 -1.104e-18)
(3.43997 0.678337 -5.00055e-18)
(3.58097 0.54402 2.4681e-18)
(3.70048 0.399326 1.27036e-17)
(3.79428 0.246328 1.04072e-19)
(3.8587 0.087258 -1.07365e-17)