/*--------------------------------*- C++ -*----------------------------------*\
  =========                 |
  \\      /  F ield         | OpenFOAM: The Open Source CFD Toolbox
   \\    /   O peration     | Website:  https://openfoam.org
    \\  /    A nd           | Version:  13
     \\/     M anipulation  |
\*---------------------------------------------------------------------------*/
FoamFile
{
    format      ascii;
    class       surfaceScalarField;
    location    "0.295";
    object      phi;
}
// * * * * * * * * * * * * * * * * * * * * * * * * * * * * * * * * * * * * * //

dimensions      [0 3 -1 0 0 0 0];

internalField   nonuniform List<scalar> 
3485
(
0.00137158
-0.0112585
0.00988695
0.005051
-0.0319077
0.0282283
0.0107642
-0.0513837
0.0456705
0.0183129
-0.0696771
0.0621283
0.0275466
-0.0868341
0.0776004
0.0383511
-0.102899
0.0920941
0.0506379
-0.117902
0.105615
0.0643641
-0.131863
0.118137
0.0796271
-0.14485
0.129587
-0.15688
0.139485
0.0970228
0.00150029
-0.0127588
0.00544577
-0.0358532
0.0114763
-0.0574142
0.019324
-0.0775248
0.028774
-0.0962841
0.039649
-0.113774
0.0518049
-0.130057
0.0651341
-0.145192
0.079545
-0.159261
-0.172187
0.0948518
0.00147415
-0.014233
0.00532697
-0.039706
0.0111746
-0.0632618
0.0187213
-0.0850715
0.0277263
-0.105289
0.0379905
-0.124038
0.0493479
-0.141415
0.0616591
-0.157504
0.0747922
-0.172394
-0.186031
0.0886358
0.00133885
-0.0155718
0.00485906
-0.0432262
0.010211
-0.0686138
0.0171176
-0.091978
0.0253549
-0.113527
0.0347422
-0.133425
0.0451334
-0.151806
0.0564086
-0.168779
0.0684613
-0.184447
-0.198787
0.0812179
0.00116694
-0.0167388
0.00425609
-0.0463153
0.00897344
-0.0733312
0.0150824
-0.098087
0.0223929
-0.120837
0.0307544
-0.141786
0.0400492
-0.161101
0.0501847
-0.178914
0.0610834
-0.195346
-0.210401
0.0726974
0.000980055
-0.0177188
0.00358811
-0.0489234
0.00758701
-0.0773301
0.0127847
-0.103285
0.0190274
-0.12708
0.0261946
-0.148954
0.0341944
-0.169101
0.0429575
-0.187677
0.052429
-0.204817
-0.22055
0.0625778
0.000780773
-0.0184996
0.0028652
-0.0510078
0.00606944
-0.0805343
0.0102437
-0.107459
0.0152679
-0.132104
0.0210487
-0.154735
0.0275171
-0.175569
0.0346243
-0.194785
0.0423362
-0.212529
-0.228853
0.0506392
0.000569761
-0.0190693
0.00209368
-0.0525317
0.00443837
-0.082879
0.00749354
-0.110514
0.01117
-0.13578
0.0153987
-0.158963
0.0201301
-0.1803
0.0253329
-0.199987
0.0309908
-0.218187
-0.234971
0.0371084
0.000352569
-0.0194219
0.00129599
-0.0534752
0.00274549
-0.0843285
0.00462914
-0.112398
0.00688766
-0.138039
0.00947472
-0.16155
0.0123574
-0.183183
0.015517
-0.203147
0.0189481
-0.221618
-0.238688
0.0226655
0.000137858
-0.0195598
0.000502679
-0.05384
0.0010574
-0.0848832
0.00177023
-0.113111
0.00261468
-0.138883
0.00356965
-0.162505
0.00461963
-0.184233
0.0057551
-0.204282
0.00697262
-0.222836
0.00827725
-0.239993
0.000504446
-0.0018796
0.00137516
0.00212285
-0.00624879
0.00463038
0.00545552
-0.0113434
0.00801075
0.0101376
-0.0160873
0.0114052
0.0155702
-0.0200843
0.0146516
0.0214792
-0.0234883
0.0175794
0.0279499
-0.026667
0.0201962
0.0351306
-0.0298513
0.0226706
0.043011
-0.0330009
0.0251205
-0.0359663
0.0514602
0.0275172
0.00042457
-0.00230417
0.00211147
-0.00793569
0.00545401
-0.014686
0.00985988
-0.0204932
0.0149597
-0.0251841
0.0208533
-0.0293819
0.027715
-0.0335286
0.0355001
-0.0376364
0.0440019
-0.0415026
-0.0450193
0.0530548
0.000679967
-0.00298414
0.00271339
-0.00996911
0.00580275
-0.0177753
0.00981603
-0.0245064
0.014894
-0.0302621
0.021209
-0.0356969
0.0286972
-0.0410168
0.0370833
-0.0460225
0.0461478
-0.0505672
-0.0546695
0.055798
0.000867315
-0.00385146
0.00306201
-0.0121638
0.00609934
-0.0208127
0.0102429
-0.02865
0.0157601
-0.0357792
0.0226363
-0.042573
0.0306318
-0.0490124
0.0395094
-0.0549001
0.0491718
-0.0602296
-0.0650349
0.0595373
0.000922174
-0.00477363
0.00320193
-0.0144436
0.00653182
-0.0241426
0.011144
-0.0332622
0.0171767
-0.0418119
0.0245058
-0.0499022
0.0329399
-0.0574464
0.0423794
-0.0643397
0.0527608
-0.070611
-0.0762261
0.063952
0.000943167
-0.0057168
0.00337334
-0.0168737
0.00709792
-0.0278672
0.0121892
-0.0383535
0.018657
-0.0482798
0.026391
-0.0576361
0.0352935
-0.066349
0.0453163
-0.0743625
0.0563804
-0.0816751
-0.0881737
0.068328
0.00097945
-0.00669625
0.00358395
-0.0194782
0.00764374
-0.0319269
0.0131135
-0.0438232
0.0199374
-0.0551037
0.0280295
-0.0657282
0.0373276
-0.0756471
0.0477851
-0.08482
0.0593286
-0.0932186
-0.100658
0.0718128
0.00101761
-0.00771386
0.00376722
-0.0222278
0.00807131
-0.036231
0.0138217
-0.0495735
0.0209239
-0.0622059
0.0292894
-0.0740937
0.0388487
-0.0852064
0.049545
-0.0955163
0.0613193
-0.104993
-0.11341
0.0740712
0.00105431
-0.00876817
0.00393609
-0.0251096
0.0084604
-0.0407553
0.0144821
-0.0555952
0.0218751
-0.069599
0.0305294
-0.082748
0.0403498
-0.0950268
0.0512476
-0.106414
0.0631417
-0.116887
-0.126295
0.0760271
0.00111877
0.00423743
0.00915264
0.0156857
0.0236871
0.0330333
0.0436212
0.0553442
0.0680445
0.0812339
0.114297
-0.413018
0.350181
0.167884
-0.469238
0.415651
0.209452
-0.417915
0.376346
0.242183
-0.321692
0.288962
0.26695
-0.208987
0.18422
0.283709
-0.103834
0.087075
0.292268
-0.0367728
0.0282134
0.295753
-0.0126222
0.00913765
0.296718
-0.0068026
0.00583797
-0.00159468
0.00282844
0.116068
-0.476032
0.169754
-0.522924
0.211456
-0.459617
0.243983
-0.354219
0.268611
-0.233615
0.284858
-0.120082
0.292822
-0.0447368
0.295968
-0.015768
0.296848
-0.0076828
-0.000355308
0.117991
-0.538225
0.170813
-0.575745
0.21232
-0.501124
0.244445
-0.386344
0.26891
-0.258079
0.284695
-0.135866
0.29235
-0.0523918
0.295559
-0.0189778
0.296608
-0.00873114
0.000648126
0.120406
-0.599094
0.17131
-0.626649
0.212138
-0.541952
0.243662
-0.417867
0.267935
-0.282352
0.283489
-0.15142
0.291208
-0.0601115
0.2948
-0.0225696
0.296251
-0.0101821
0.00118029
0.123286
-0.658428
0.171463
-0.674826
0.211015
-0.581504
0.241713
-0.448565
0.265727
-0.306367
0.281326
-0.167019
0.289471
-0.0682561
0.293713
-0.0268122
0.295787
-0.0122558
0.00101727
0.126105
-0.716205
0.171335
-0.720056
0.20905
-0.619219
0.23868
-0.478196
0.26232
-0.330006
0.278224
-0.182924
0.287147
-0.0771792
0.292304
-0.0319687
0.295212
-0.0151642
-6.12406e-05
0.128004
-0.772397
0.170771
-0.762822
0.206333
-0.654781
0.234672
-0.506535
0.257771
-0.353105
0.274187
-0.199339
0.284243
-0.0872359
0.29058
-0.0383055
0.29453
-0.0191136
-0.00226795
0.128052
-0.826377
0.169308
-0.804078
0.202767
-0.688241
0.229696
-0.533464
0.252087
-0.375496
0.26916
-0.216412
0.280738
-0.0988141
0.288543
-0.0461099
0.293732
-0.0243031
-0.00582084
0.125945
-0.876295
0.166547
-0.84468
0.198336
-0.72003
0.22389
-0.559018
0.245399
-0.397005
0.263186
-0.2342
0.276647
-0.112275
0.286194
-0.0556561
0.292811
-0.0309204
-0.0109355
0.12224
-0.917301
0.161688
-0.884128
0.192176
-0.750518
0.216623
-0.583466
0.237277
-0.417659
0.25589
-0.252813
0.27177
-0.128155
0.283391
-0.0672773
0.291496
-0.0390256
-0.017707
0.5838
-0.91968
-0.58142
0.560965
-0.861293
0.52362
-0.713172
0.48701
-0.546856
0.459002
-0.38965
0.447057
-0.240868
0.448637
-0.129735
0.449754
-0.0683947
0.446693
-0.0359639
-0.0163878
0.682705
-0.870999
-0.731386
0.619592
-0.79818
0.554153
-0.647734
0.497891
-0.490594
0.45689
-0.34865
0.437689
-0.221667
0.429613
-0.121659
0.421338
-0.0601194
0.414651
-0.029277
-0.0139148
0.754052
-0.774658
-0.850394
0.65556
-0.699687
0.564803
-0.556977
0.490701
-0.416492
0.435931
-0.29388
0.404108
-0.189844
0.389446
-0.106998
0.381719
-0.0523919
0.376557
-0.024115
-0.0116017
0.779307
-0.641389
-0.912576
0.654499
-0.574879
0.547775
-0.450253
0.463823
-0.332539
0.4029
-0.232957
0.365482
-0.152426
0.347367
-0.0888819
0.338784
-0.0438091
0.333892
-0.0192229
-0.00928339
0.753257
-0.492298
-0.902347
0.618118
-0.439741
0.507207
-0.339342
0.421986
-0.247318
0.360932
-0.171904
0.322005
-0.113499
0.301598
-0.0684749
0.29233
-0.0345406
0.28783
-0.014723
-0.0071157
0.685251
-0.345782
-0.831767
0.552999
-0.307488
0.447033
-0.233376
0.367152
-0.167437
0.310579
-0.115331
0.273792
-0.0767119
0.253171
-0.0478532
0.243538
-0.0249076
0.239263
-0.0104479
-0.00508223
0.582684
-0.213845
-0.714621
0.463028
-0.187833
0.369618
-0.139966
0.300609
-0.0984281
0.252408
-0.0671296
0.220683
-0.0449871
0.20185
-0.0290204
0.192598
-0.0156554
0.188658
-0.00650786
-0.00323682
0.448782
-0.105521
-0.557105
0.351234
-0.0902846
0.277195
-0.0659264
0.22388
-0.0451135
0.187226
-0.0304756
0.162884
-0.0206452
0.147685
-0.0138211
0.139774
-0.00774426
0.136427
-0.00316129
-0.00166301
0.286595
-0.0302216
-0.361895
0.220925
-0.0246145
0.172537
-0.0175385
0.138863
-0.0114396
0.116021
-0.00763326
0.100644
-0.00526881
0.090552
-0.00372882
0.0850199
-0.00221211
0.0827292
-0.000870628
-0.000529934
0.101313
-0.131535
0.0766984
0.0591599
0.0477203
0.0400871
0.0348183
0.0310895
0.0288774
0.0280067
0.738832
0.0102248
-0.74078
0.733085
0.0284129
0.723444
0.0467499
0.710167
0.063916
0.693569
0.0791756
0.674069
0.0921974
0.652257
0.10303
0.628687
0.112206
0.60423
0.119309
0.119833
0.845558
0.013401
-0.848734
0.837328
0.0366429
0.827291
0.056787
0.816592
0.0746149
0.805243
0.0905245
0.792881
0.10456
0.779257
0.116654
0.764548
0.126915
0.749066
0.13479
0.137513
0.845001
0.0114298
-0.84303
0.848903
0.0327413
0.853043
0.0526469
0.856496
0.0711616
0.858857
0.0881637
0.85994
0.103477
0.859608
0.116986
0.857968
0.128555
0.855285
0.137473
0.142404
0.800224
0.00930875
-0.798103
0.805834
0.0271314
0.814435
0.0440452
0.825661
0.0599363
0.839036
0.0747884
0.853898
0.0886145
0.869482
0.101402
0.885129
0.112908
0.900025
0.122576
0.129853
0.737873
0.00704266
-0.735607
0.744163
0.0208417
0.754134
0.0340743
0.767517
0.046553
0.784102
0.0582034
0.803689
0.0690278
0.826031
0.0790599
0.850685
0.0882542
0.876631
0.0966297
0.104137
0.653925
0.00485713
-0.651739
0.660208
0.0145585
0.670384
0.023898
0.684229
0.0327087
0.701535
0.0408972
0.722125
0.0484375
0.745826
0.0553594
0.772359
0.0617206
0.801262
0.0677269
0.0736324
0.549114
0.00291827
-0.547175
0.554815
0.00885742
0.564141
0.0145715
0.576909
0.0199405
0.59292
0.0248869
0.611975
0.0293827
0.63388
0.0334543
0.658419
0.0371809
0.685398
0.040748
0.0444096
0.422792
0.0013769
-0.421251
0.427413
0.00423671
0.435008
0.006976
0.445423
0.00952594
0.458471
0.0118386
0.473959
0.0138954
0.4917
0.0157134
0.511531
0.0173493
0.533352
0.018927
0.0206564
0.273827
0.000367023
-0.272817
0.276914
0.00114965
0.281999
0.00189183
0.288955
0.00256939
0.297629
0.00316434
0.307856
0.00366893
0.319481
0.00408777
0.332394
0.00443636
0.346561
0.00476009
0.00532294
0.100483
-0.100116
0.101633
0.103525
0.106094
0.109258
0.112927
0.117015
0.121451
0.126212
0.0779834
0.159456
-0.142427
-0.0950121
0.0630659
0.147423
-0.132505
0.0496457
0.134378
-0.120958
0.0376219
0.120313
-0.10829
0.0270384
0.105159
-0.0945753
0.0179848
0.0888881
-0.0798346
0.0105765
0.0714584
-0.06405
0.00496477
0.0528099
-0.0471982
0.00134835
0.032876
-0.0292595
0.0116402
-0.0102918
0.0779795
0.1744
-0.0929236
0.0638984
0.161504
0.0508582
0.147419
0.03895
0.132222
0.0282832
0.115826
0.0190042
0.0981672
0.0112914
0.0791712
0.00536022
0.0587411
0.00147731
0.0367589
0.0131175
0.0732084
0.187906
-0.0867146
0.0603898
0.174322
0.0483632
0.159445
0.0372564
0.143328
0.0272074
0.125875
0.0183813
0.106993
0.0109773
0.0865752
0.00523544
0.064483
0.00144958
0.0405447
0.014567
0.0667925
0.20034
-0.0792263
0.0550477
0.186067
0.0440586
0.170434
0.0339271
0.15346
0.0247692
0.135033
0.0167281
0.115034
0.00998188
0.0933213
0.00475136
0.0697135
0.00130955
0.0439865
0.0158766
0.0593283
0.21165
-0.0706385
0.048726
0.196669
0.0388742
0.180286
0.029845
0.162489
0.0217262
0.143151
0.0146303
0.12213
0.0087024
0.0992492
0.00412631
0.0742896
0.00113088
0.046982
0.0170075
0.0506092
0.221519
-0.0604778
0.0414186
0.20586
0.0329322
0.188772
0.0251999
0.170221
0.018285
0.150066
0.0122726
0.128143
0.00727497
0.104247
0.00343641
0.0781281
0.000937211
0.0494812
0.0179447
0.0404646
0.229565
-0.0485108
0.0330176
0.213307
0.0261795
0.195611
0.019979
0.176422
0.0144581
0.155587
0.00967765
0.132923
0.00572037
0.108204
0.00269365
0.0811549
0.000731778
0.051443
0.0186765
0.0290585
0.235444
-0.0349381
0.023654
0.218712
0.0187163
0.200548
0.0142559
0.180882
0.0102965
0.159547
0.00687748
0.136342
0.00405545
0.111026
0.00190414
0.0833062
0.000515226
0.052832
0.0191917
0.0169192
0.23893
-0.0204048
0.0137428
0.221888
0.0108552
0.203436
0.00825478
0.183483
0.00595125
0.16185
0.00396619
0.138327
0.00233192
0.11266
0.0010905
0.0845476
0.000293183
0.0536293
0.0194849
0.00482738
-0.00589031
0.00387977
0.00303328
0.00228266
0.0016275
0.00107147
0.00062125
0.000285629
7.49083e-05
0.0434312
0.0410864
-0.052282
-0.0322355
0.0351022
0.0380497
-0.0297208
0.0274828
0.0346698
-0.0270504
0.0207882
0.0310861
-0.0243916
0.015008
0.0275504
-0.0217702
0.00990276
0.0240093
-0.018904
0.00537544
0.0198805
-0.0153531
0.00193307
0.0142994
-0.0108571
0.000375176
0.00731407
-0.00575618
0.00206466
-0.00168948
0.043772
0.0502562
-0.0529419
0.0351212
0.0467005
0.0270868
0.0427043
0.0199523
0.0382207
0.0140227
0.03348
0.00929147
0.0287405
0.00551252
0.0236594
0.00255584
0.0172561
0.000612037
0.00925788
0.0026767
0.0451553
0.0598403
-0.0547394
0.0362011
0.0556547
0.0279287
0.0509767
0.0204618
0.0456876
0.0141279
0.0398139
0.00918451
0.0336839
0.00556889
0.0272751
0.00291027
0.0199147
0.000810402
0.0113578
0.0034871
0.047676
0.0700665
-0.0579022
0.0381984
0.0651323
0.0295824
0.0595927
0.0218676
0.0534024
0.0151858
0.0464957
0.00979799
0.0390717
0.00582451
0.0312485
0.00299187
0.0227474
0.000884003
0.0134656
0.00437111
0.0511396
0.0810362
-0.0621093
0.0409919
0.07528
0.0318287
0.0687559
0.0237126
0.0615185
0.0166701
0.0535382
0.0108321
0.0449097
0.00633589
0.0357448
0.00309079
0.0259925
0.000889929
0.0156665
0.00526104
0.0547878
0.092675
-0.0664266
0.044025
0.0860428
0.0343015
0.0784794
0.0256929
0.0701271
0.0182227
0.0610085
0.0119491
0.0511833
0.006969
0.0407248
0.00329968
0.0296618
0.000915471
0.0180507
0.00617651
0.0577813
0.104794
-0.0699
0.0465855
0.0972386
0.036448
0.0886169
0.02743
0.0791451
0.0195682
0.0688703
0.0129138
0.0578377
0.0075469
0.0460917
0.00353871
0.03367
0.000963846
0.0206255
0.00714035
0.0597846
0.117152
-0.0721429
0.0483773
0.108646
0.0380078
0.0989865
0.0287221
0.0884308
0.0205722
0.0770202
0.0136271
0.0647828
0.00797789
0.0517409
0.00372958
0.0379183
0.00100758
0.0233475
0.00814793
0.0615576
0.129632
-0.0740373
0.0500361
0.120167
0.0394661
0.109556
0.0299197
0.0979771
0.0214832
0.0854567
0.0142532
0.0720127
0.00834395
0.0576502
0.00388878
0.0423735
0.00104302
0.0261933
0.00919095
0.0663841
-0.0791794
0.0540463
0.0426446
0.0323322
0.0232136
0.0153917
0.00899183
0.00416709
0.00110086
0.215135
0.0567875
-0.0739327
0.235561
0.0942403
-0.114666
0.256927
0.123644
-0.14501
0.267518
0.114874
-0.125465
0.267473
0.116378
-0.116333
0.248159
0.181854
-0.16254
0.215913
0.294117
-0.261872
0.173255
0.41011
-0.367452
0.117672
0.491117
-0.435534
0.458336
-0.392945
0.214274
0.0405029
0.233808
0.0747065
0.254537
0.102915
0.265821
0.10359
0.266906
0.115292
0.248716
0.200045
0.216657
0.326177
0.173585
0.453182
0.117805
0.546897
0.523199
0.213482
0.0250112
0.232568
0.0556202
0.25268
0.0828036
0.264385
0.0918849
0.265705
0.113972
0.248092
0.217658
0.216174
0.358094
0.172922
0.496434
0.118038
0.601781
0.586497
0.212805
0.0101959
0.23182
0.0366052
0.251325
0.0632986
0.263143
0.0800665
0.263957
0.113158
0.246317
0.235299
0.214491
0.38992
0.171534
0.53939
0.11886
0.654455
0.647456
0.21237
-0.00418469
0.231554
0.017422
0.250402
0.0444506
0.261909
0.0685596
0.261579
0.113488
0.243376
0.253502
0.21168
0.421616
0.169751
0.581319
0.120369
0.703836
0.705716
0.212275
-0.0184697
0.231733
-0.00203656
0.249795
0.026389
0.260456
0.0578989
0.258411
0.115533
0.239265
0.272648
0.207894
0.452986
0.16781
0.621403
0.122129
0.749517
0.761418
0.212527
-0.033007
0.23228
-0.0217894
0.249366
0.00930342
0.258605
0.048659
0.254349
0.119789
0.234064
0.292932
0.203351
0.483699
0.165718
0.659036
0.123303
0.791933
0.814821
0.213007
-0.0480246
0.233063
-0.0418447
0.248949
-0.00658302
0.256136
0.0414717
0.249215
0.126711
0.227784
0.314363
0.198095
0.513389
0.163095
0.694036
0.122911
0.832116
0.86559
0.213444
-0.0634787
0.233923
-0.0623242
0.248388
-0.0210479
0.253045
0.0368151
0.243161
0.136595
0.220715
0.336809
0.192272
0.541832
0.159565
0.726743
0.120583
0.871098
0.912136
0.213807
-0.0792954
0.234596
-0.083114
0.247605
-0.0340562
0.248924
0.0354961
0.235586
0.149932
0.212203
0.360192
0.185024
0.569011
0.154287
0.75748
0.116829
0.908556
0.949786
0.332768
-0.110054
0.371655
-0.122
0.406333
-0.068735
0.425647
0.0161821
0.441835
0.133745
0.468457
0.33357
0.506854
0.530614
0.549608
0.714727
0.581212
0.876952
0.944633
0.586365
0.334106
-0.14215
0.374579
-0.162473
0.40983
-0.103986
0.427702
-0.00168975
0.44235
0.119097
0.478471
0.297449
0.535137
0.473948
0.60467
0.645194
0.67528
0.806341
0.887084
0.732828
0.335999
-0.176139
0.376221
-0.202695
0.411997
-0.139762
0.42901
-0.0187029
0.438641
0.109466
0.478843
0.257247
0.548697
0.404093
0.639709
0.554181
0.742528
0.703523
0.783242
0.84637
0.339094
-0.213222
0.374766
-0.238367
0.393442
-0.158437
0.395099
-0.0203597
0.408142
0.096422
0.457427
0.207962
0.536777
0.324744
0.641921
0.449038
0.767743
0.577701
0.646283
0.904702
0.346217
-0.25743
0.356935
-0.249085
0.345033
-0.146535
0.344037
-0.0193641
0.364798
0.0756611
0.417166
0.155594
0.499225
0.242685
0.609022
0.33924
0.744346
0.442377
0.495432
0.895197
0.341404
-0.296824
0.32364
-0.231321
0.293249
-0.116144
0.290841
-0.0169559
0.313391
0.0531114
0.363345
0.10564
0.441069
0.164961
0.546471
0.233838
0.679129
0.309718
0.347766
0.826795
0.314427
-0.30924
0.272828
-0.189721
0.237216
-0.0805331
0.233177
-0.0129168
0.254249
0.0320395
0.297803
0.0620863
0.365469
0.0972955
0.458731
0.140576
0.578979
0.18947
0.215009
0.711737
0.273873
-0.281103
0.213557
-0.129406
0.176498
-0.0434743
0.171588
-0.00800624
0.188474
0.0151537
0.222137
0.0284231
0.274708
0.0447243
0.348891
0.0663935
0.447122
0.0912391
0.106107
0.556023
0.214644
-0.193737
0.140738
-0.0554993
0.110461
-0.0131967
0.105517
-0.00306267
0.116698
0.00397233
0.138015
0.00710677
0.171383
0.0113557
0.220055
0.017722
0.286352
0.0249413
0.0304024
0.362057
0.108273
0.0527736
0.0395769
0.0365142
0.0404866
0.0475933
0.058949
0.0766711
0.101612
0.132015
0.608556
-0.117203
0.632248
-0.116615
0.655089
-0.109555
0.676259
-0.100396
0.695217
-0.0895965
0.711364
-0.0766255
0.724265
-0.0614118
0.733598
-0.0442703
0.739086
-0.025893
-0.00758454
0.750193
-0.134568
0.765127
-0.131549
0.779356
-0.123785
0.792601
-0.113641
0.804681
-0.101677
0.81583
-0.0877739
0.826395
-0.0719769
0.836392
-0.0542673
0.844847
-0.0343481
-0.0114717
0.851024
-0.139222
0.853495
-0.13402
0.85503
-0.12532
0.855421
-0.114032
0.854578
-0.100834
0.852677
-0.0858723
0.849944
-0.0692437
0.846777
-0.0511003
0.843974
-0.0315454
-0.0105281
0.892742
-0.127263
0.878701
-0.119978
0.863991
-0.110609
0.849393
-0.0994348
0.835517
-0.0869587
0.823066
-0.0734207
0.812665
-0.0588427
0.804775
-0.0432103
0.799758
-0.0265282
-0.0088731
0.870504
-0.10257
0.845685
-0.0951595
0.822034
-0.086958
0.800545
-0.077946
0.781688
-0.0681013
0.765735
-0.0574674
0.752903
-0.0460111
0.743413
-0.0337196
0.737531
-0.0206468
-0.0069491
0.797096
-0.072871
0.768994
-0.0670577
0.743157
-0.0611211
0.720057
-0.0548452
0.699982
-0.0480266
0.683118
-0.0406032
0.669645
-0.0325385
0.659772
-0.0238463
0.653729
-0.0146037
-0.00495979
0.683016
-0.0441505
0.656515
-0.0405564
0.632406
-0.0370123
0.610878
-0.0333172
0.592143
-0.029291
0.576393
-0.0248531
0.563826
-0.0199715
0.554645
-0.0146653
0.549043
-0.00900191
-0.00309183
0.532508
-0.0206348
0.510901
-0.0189495
0.491265
-0.0173769
0.473694
-0.0157455
0.458341
-0.0139387
0.445389
-0.0119012
0.435031
-0.00961312
0.427454
-0.00708822
0.422821
-0.0043694
-0.00152125
0.346773
-0.00535084
0.332632
-0.0048078
0.319738
-0.00448338
0.308125
-0.00413206
0.297898
-0.0037122
0.289207
-0.00320957
0.282212
-0.00261891
0.277071
-0.00194649
0.27391
-0.00120875
-0.000428697
0.126664
0.121856
0.117373
0.113241
0.109529
0.106319
0.1037
0.101754
0.100545
0.000185031
0.011607
-0.011792
0.00062365
0.0304411
-0.0308797
0.00123699
0.0462341
-0.0468474
0.00197706
0.0594583
-0.0601984
0.00277623
0.070011
-0.0708102
0.003769
0.0798773
-0.08087
0.0039629
0.0772559
-0.0774498
0.00408424
0.070032
-0.0701533
0.00394435
0.0610703
-0.0609304
0.049948
0.00350663
-0.0495103
0.00053332
0.0110737
0.00180361
0.0291708
0.00358459
0.0444531
0.00574046
0.0573024
0.00807171
0.0676798
0.0110381
0.0769109
0.0116743
0.0766197
0.0120791
0.0696272
0.0117718
0.0613776
0.0510703
0.0106495
0.000835375
0.0102383
0.00283142
0.0271747
0.00563833
0.0416462
0.00904032
0.0539004
0.0127377
0.0639824
0.0172451
0.0724035
0.0187876
0.0750773
0.019569
0.0688458
0.0193827
0.0615639
0.0524268
0.0180263
0.00105582
0.0091825
0.00359648
0.0246341
0.00719261
0.0380501
0.0115542
0.0495388
0.0163543
0.0591823
0.0217448
0.0670131
0.0250694
0.0717527
0.0263515
0.0675637
0.0265996
0.0613158
0.0535586
0.0254677
0.00115127
0.00803123
0.0039787
0.0218067
0.00804055
0.0339882
0.0129951
0.0445842
0.0185492
0.0536283
0.0245543
0.0610079
0.0299485
0.0663585
0.0320861
0.0654261
0.0330072
0.0603947
0.0540836
0.0324822
0.0011113
0.00691993
0.00396536
0.0189526
0.00818435
0.0297693
0.0133883
0.0393803
0.0193154
0.0477012
0.0257687
0.0545547
0.0324122
0.059715
0.0363089
0.0615294
0.0381203
0.0585833
0.0536999
0.038504
0.000926107
0.00599383
0.00357239
0.0163063
0.00770942
0.0256322
0.0128798
0.0342099
0.0187841
0.0417969
0.0253351
0.0480037
0.0323176
0.0527325
0.0382723
0.0555748
0.0415847
0.0552709
0.0521762
0.0431084
0.000567916
0.00542591
0.00278632
0.0140879
0.00665636
0.0217622
0.0116194
0.0292469
0.0172018
0.0362144
0.0234446
0.0417609
0.0302832
0.0458939
0.0371817
0.0486763
0.0425602
0.0498923
0.0489165
0.0458199
0.000104345
0.00532157
0.00176891
0.0124234
0.00517509
0.018356
0.00981312
0.0246089
0.0149548
0.0310728
0.0206192
0.0360964
0.0269021
0.0396111
0.0335862
0.0419921
0.0400853
0.0433932
0.0437863
0.0452155
-0.000174475
0.00549605
0.00108802
0.0111609
0.00385636
0.0155877
0.00788586
0.0205794
0.0125003
0.0264584
0.0175718
0.0310249
0.0231792
0.0340037
0.0292527
0.0359186
0.0356405
0.0370054
0.0373579
0.0420689
-1.93444e-05
0.00551539
0.00114224
0.00999928
0.00327969
0.0134502
0.0064148
0.0174443
0.010298
0.0225752
0.014842
0.0264809
0.0199642
0.0288815
0.0254986
0.0303841
0.0312387
0.0312653
0.0316806
0.0369161
0.000380714
0.00513468
0.0015368
0.0088432
0.00318701
0.0118
0.00549991
0.0151314
0.00872506
0.01935
0.0129162
0.0222898
0.0177722
0.0240254
0.0230432
0.0251132
0.0285387
0.0257697
0.0260394
0.0341799
0.000629397
0.00450528
0.00171655
0.00775604
0.00304112
0.0104754
0.00486699
0.0133055
0.00786631
0.0163507
0.0119622
0.0181939
0.0167187
0.0192689
0.0218971
0.0199347
0.0273655
0.0203013
0.020382
0.0330229
0.000683523
0.00382175
0.0016561
0.00678346
0.00284246
0.00928908
0.00473234
0.0114156
0.00801032
0.0130727
0.0122433
0.0139609
0.0170624
0.0144498
0.0223057
0.0146914
0.0278767
0.0147303
0.0145688
0.0336899
0.000668184
0.00315356
0.00156393
0.00588771
0.00300971
0.00784329
0.00559775
0.00882756
0.00938486
0.00928561
0.0139027
0.00944313
0.0189424
0.00941006
0.024404
0.00922978
0.030219
0.00891534
0.00847186
0.0363159
0.000592551
0.00256101
0.00171047
0.00476977
0.00405047
0.00550329
0.00749958
0.00537844
0.0117425
0.00504267
0.01658
0.00460569
0.0219105
0.00407952
0.0276744
0.00346588
0.0338202
0.00276956
0.00200271
0.0402893
0.000514862
0.00204614
0.00245734
0.00282728
0.00570883
0.0022518
0.00969234
0.00139493
0.0142682
0.000466845
0.0193884
-0.000514561
0.0250224
-0.00155444
0.0311282
-0.00263999
0.0376463
-0.00374856
-0.00486768
0.0445167
0.000849498
0.00119664
0.00357654
0.000100228
0.00712336
-0.00129502
0.0112936
-0.00277529
0.0160694
-0.00430903
0.0214607
-0.00590588
0.0274293
-0.00752295
0.0338869
-0.00909769
0.0407505
-0.0106122
-0.0120948
0.0479776
0.0014931
-0.000296474
0.00411795
-0.00252463
0.00752724
-0.00470431
0.0117201
-0.00696813
0.0167065
-0.00929542
0.0224167
-0.0116161
0.0286879
-0.0137941
0.0353961
-0.0158059
0.0425117
-0.0177277
-0.0196165
0.0500333
0.00107868
0.00318442
0.00649085
0.010928
0.0162841
0.0222473
0.0286495
0.0355141
0.0429069
0.0508076
0.0515571
0.0834539
-0.0980949
0.0774555
-0.00772324
-0.0181751
0.0999195
-0.0508334
0.0283693
0.113429
-0.0463954
0.0328856
0.121312
-0.0264154
0.0185325
0.125084
-0.00842783
0.00465624
0.127041
0.000203783
-0.00216122
0.128828
0.00151716
-0.00330415
0.130963
0.000317825
-0.00245261
-0.00154942
-0.000906464
0.0587258
0.0589079
0.0917015
-0.040699
0.118753
-0.0778845
0.134625
-0.0622675
0.143273
-0.0350641
0.14711
-0.0122649
0.148948
-0.00163321
0.150649
-0.000184483
0.152735
-0.00176776
-0.00379294
0.0666518
0.025279
0.104917
-0.0789647
0.135816
-0.108783
0.155379
-0.0818314
0.165314
-0.0449987
0.16923
-0.0161804
0.170817
-0.00322027
0.172237
-0.00160502
0.174043
-0.00357335
-0.00562368
0.075406
-0.0164371
0.117567
-0.121126
0.151342
-0.142558
0.174721
-0.10521
0.18675
-0.0570283
0.190986
-0.0204161
0.192323
-0.00455691
0.193362
-0.00264468
0.194733
-0.00494408
-0.00689665
0.0843153
-0.0644365
0.129202
-0.166012
0.165095
-0.178451
0.191784
-0.131898
0.206784
-0.0720282
0.211916
-0.0255487
0.213144
-0.00578441
0.213783
-0.00328386
0.214632
-0.00579269
-0.00752547
0.0926387
-0.116786
0.139511
-0.212885
0.177013
-0.215953
0.206184
-0.161069
0.224497
-0.090342
0.231428
-0.0324794
0.232885
-0.00724135
0.233209
-0.00360829
0.233531
-0.0061142
-0.00748838
0.0997523
-0.172021
0.148259
-0.261392
0.187037
-0.254731
0.217876
-0.191908
0.239144
-0.111611
0.248799
-0.0421335
0.25108
-0.00952319
0.251312
-0.00383963
0.251187
-0.00598952
-0.00682813
0.105342
-0.229386
0.155362
-0.311412
0.195169
-0.294538
0.227041
-0.223779
0.250402
-0.134972
0.263176
-0.0549076
0.267094
-0.0134416
0.267631
-0.00437602
0.267271
-0.00563015
-0.00567522
0.109403
-0.288755
0.160884
-0.362893
0.201495
-0.335149
0.233955
-0.256239
0.258408
-0.159425
0.273825
-0.0703242
0.280131
-0.0197473
0.281629
-0.00587449
0.281296
-0.00529716
-0.00419053
0.112233
0.164991
0.206189
0.238911
0.263705
0.280456
0.288922
0.292186
0.292726
0.0132004
0.00607634
-0.0192768
0.0109926
0.00220783
0.0115138
-0.000521251
0.0129094
-0.00139555
0.0136155
-0.000706149
0.013759
-0.000143443
0.0136345
0.000124535
0.0134633
0.000171134
0.0133123
0.000151032
7.44125e-05
0.0372505
0.0232068
-0.0543811
0.0315161
0.00794225
0.0340212
-0.00302636
0.0380047
-0.00537902
0.0401399
-0.00284137
0.0405926
-0.00059612
0.0402497
0.000467476
0.0397762
0.000644589
0.0393944
0.000532886
0.000236662
0.0579797
0.0480661
-0.082839
0.050934
0.0149879
0.0559185
-0.0080109
0.0623838
-0.0118443
0.0659815
-0.00643901
0.0668088
-0.00142345
0.0663002
0.000976141
0.0655729
0.00137193
0.0650165
0.0010893
0.000454378
0.0739387
0.0753334
-0.101206
0.0681663
0.0207604
0.076481
-0.0163256
0.0856623
-0.0210256
0.0908751
-0.0116519
0.0922004
-0.00274868
0.0916086
0.00156792
0.0906963
0.00228431
0.0900337
0.00175193
0.000689866
0.0814672
-0.104229
0.0840523
0.0960959
0.107956
0.114837
0.116744
0.116151
0.115131
0.114431
0.00273318
-0.000172893
-0.00256028
0.00326395
-0.000530771
0.00417601
-0.000912057
0.00548682
-0.00131081
0.00718292
-0.0016961
0.00922715
-0.00204423
0.0115835
-0.0023563
0.0141717
-0.00258822
0.0168569
-0.00268528
-0.00241985
0.00778606
-0.000645582
-0.00731337
0.00923269
-0.00197741
0.0117116
-0.00339098
0.0152674
-0.00486659
0.0198809
-0.00630962
0.0254781
-0.00764141
0.0319597
-0.00883788
0.0391507
-0.00977922
0.0467621
-0.0102967
-0.0100388
0.0124759
-0.00138351
-0.011738
0.0147252
-0.00422672
0.0185575
-0.00722322
0.0240206
-0.0103297
0.0310741
-0.0133632
0.0395799
-0.0161471
0.0493208
-0.0185788
0.0600435
-0.0205019
0.0714077
-0.0216609
-0.0214701
0.0168046
-0.0023473
-0.0158408
0.0197284
-0.00715049
0.0246709
-0.0121657
0.0316463
-0.0173051
0.0405437
-0.0222606
0.0510986
-0.0267021
0.0629288
-0.030409
0.0756857
-0.0332588
0.0888537
-0.0348289
-0.0338225
0.0207896
-0.0196303
0.0242886
0.0301493
0.0383118
0.0485335
0.0603354
0.0730348
0.0855959
0.0959825
0.0315101
-0.0312711
0.0370877
-0.0373267
0.0256399
-0.0308677
0.0367379
0.0199723
-0.0300349
0.0357025
0.014716
-0.0286397
0.0338959
0.0100847
-0.0264342
0.0310656
0.00621874
-0.022756
0.0266219
0.00312438
-0.0176411
0.0207354
0.00102565
-0.013617
0.0157157
-8.14021e-05
-0.010153
0.0112601
-0.00562891
0.00554752
0.029566
-0.0253955
-0.0354416
0.0238387
-0.0251403
0.0183375
-0.0245338
0.0132389
-0.023541
0.00879307
-0.0219884
0.00538293
-0.0193459
0.00304158
-0.0152997
0.00141195
-0.0119873
0.000307041
-0.00904809
-0.00532187
0.0295596
-0.0193963
-0.0355588
0.023745
-0.0193257
0.0182169
-0.0190057
0.0130915
-0.0184155
0.00857004
-0.0174669
0.00510162
-0.0158774
0.00304285
-0.0132409
0.00167046
-0.0106149
0.000596259
-0.00797388
-0.00472561
0.0314454
-0.0131288
-0.0377129
0.0254129
-0.0132933
0.0196983
-0.0132911
0.0143883
-0.0131055
0.00962215
-0.0127008
0.00572234
-0.0119776
0.00324929
-0.0107679
0.00179397
-0.00915962
0.000743635
-0.00692353
-0.00398197
0.0349357
-0.0064845
-0.0415799
0.0285738
-0.00693136
0.0225655
-0.00728279
0.0169779
-0.00751783
0.0119027
-0.00762565
0.00752236
-0.00759719
0.00417584
-0.00742136
0.0020175
-0.00700127
0.000806444
-0.00571247
-0.00317552
0.0390847
0.000588894
-0.0461581
0.0323368
-0.000183394
0.0259856
-0.0009316
0.0201037
-0.00163595
0.0147512
-0.00227309
0.00999124
-0.00283723
0.00590739
-0.00333751
0.00266936
-0.00376323
0.000718713
-0.00376181
-0.0024568
0.0427345
0.00804877
-0.0501944
0.0356147
0.00693649
0.0288893
0.00579379
0.0226554
0.00459789
0.0170092
0.00337313
0.0119876
0.00218437
0.00757778
0.00107234
0.00379482
1.97415e-05
0.000960776
-0.000927759
-0.00149602
0.0448753
0.0157808
-0.0526073
0.0375156
0.0142962
0.0305284
0.012781
0.0239553
0.011171
0.0179381
0.00939034
0.0126517
0.00747085
0.00816529
0.00555873
0.00446176
0.00372328
0.00159043
0.00194358
9.44249e-05
0.0450107
0.0238007
-0.0530306
0.0374671
0.0218398
0.0304017
0.0198464
0.0237338
0.0178389
0.0174456
0.0156785
0.011736
0.0131805
0.0069636
0.0103311
0.00338627
0.00730063
0.00113582
0.00419403
0.00123025
0.0440527