/*--------------------------------*- C++ -*----------------------------------*\
  =========                 |
  \\      /  F ield         | OpenFOAM: The Open Source CFD Toolbox
   \\    /   O peration     | Website:  https://openfoam.org
    \\  /    A nd           | Version:  13
     \\/     M anipulation  |
\*---------------------------------------------------------------------------*/
FoamFile
{
    format      ascii;
    class       surfaceScalarField;
    location    "0.665";
    object      phi;
}
// * * * * * * * * * * * * * * * * * * * * * * * * * * * * * * * * * * * * * //

dimensions      [0 3 -1 0 0 0 0];

internalField   nonuniform List<scalar> 
3485
(
0.00204963
-0.00361555
0.00156592
0.00862557
-0.0566881
0.0501122
0.0180365
-0.109473
0.100062
0.0283406
-0.138491
0.128186
0.0385475
-0.148592
0.138385
0.0483597
-0.149299
0.139487
0.0577382
-0.146479
0.1371
0.0666803
-0.142664
0.133722
0.0751379
-0.138609
0.130152
-0.134358
0.126154
0.0833417
0.00253441
-0.00614997
0.00952784
-0.0636815
0.0189138
-0.118859
0.0288556
-0.148432
0.0385984
-0.158335
0.0480399
-0.15874
0.0572842
-0.155723
0.0664554
-0.151836
0.0757386
-0.147892
-0.144124
0.0855048
0.00295756
-0.00910753
0.0102226
-0.0709466
0.0193358
-0.127972
0.028558
-0.157655
0.0373234
-0.1671
0.0456414
-0.167058
0.0536409
-0.163722
0.0614209
-0.159616
0.0690516
-0.155523
-0.151544
0.0764715
0.0033938
-0.0125013
0.0108849
-0.0784377
0.0196784
-0.136765
0.0281915
-0.166168
0.0360932
-0.175002
0.0435441
-0.174509
0.0507414
-0.17092
0.0578042
-0.166678
0.0647966
-0.162515
-0.158592
0.0718447
0.00374615
-0.0162475
0.011285
-0.0859766
0.0195408
-0.145021
0.0271143
-0.173741
0.0339075
-0.181795
0.0402093
-0.180811
0.0462638
-0.176974
0.0522019
-0.172617
0.0580967
-0.16841
-0.164477
0.0639813
0.00403732
-0.0202848
0.0114734
-0.0934126
0.0190459
-0.152594
0.0255853
-0.180281
0.0312299
-0.18744
0.036383
-0.185964
0.0413234
-0.181915
0.0461811
-0.177474
0.0510113
-0.17324
-0.169322
0.0558562
0.00421886
-0.0245037
0.0113511
-0.100545
0.018052
-0.159295
0.0234172
-0.185646
0.027811
-0.191834
0.0317283
-0.189882
0.0354702
-0.185657
0.039164
-0.181168
0.0428604
-0.176937
-0.173044
0.0465825
0.00427922
-0.0287829
0.010908
-0.107174
0.0165697
-0.164956
0.0206643
-0.18974
0.0237554
-0.194925
0.0263996
-0.192526
0.0289029
-0.18816
0.0313822
-0.183647
0.0338772
-0.179432
-0.175571
0.0364046
0.00419411
-0.032977
0.0101148
-0.113094
0.0145843
-0.169426
0.0173433
-0.192499
0.019098
-0.19668
0.0204467
-0.193874
0.0216891
-0.189402
0.0229284
-0.184887
0.0241974
-0.180701
-0.176881
0.0255072
0.00395959
-0.0369366
0.00898253
-0.118117
0.0121535
-0.172597
0.0135438
-0.19389
0.0139449
-0.197081
0.0139984
-0.193928
0.0139785
-0.189382
0.0139741
-0.184882
0.014009
-0.180736
0.0140904
-0.176963
-0.000827711
0.000489287
0.000338425
0.00246974
-0.00824976
0.00495231
0.0110032
-0.0181206
0.00958717
0.0228574
-0.0241344
0.0122802
0.036129
-0.0266048
0.0133332
0.0497301
-0.0271037
0.0135026
0.0631823
-0.0267539
0.0133017
0.0763172
-0.026115
0.01298
0.0890982
-0.025419
0.012638
-0.0249414
0.101711
0.0123286
-0.00074259
0.00123188
0.00267106
-0.0116634
0.0112585
-0.0267081
0.0230924
-0.0359683
0.0362916
-0.039804
0.0497929
-0.0406049
0.0631341
-0.0400951
0.0761556
-0.0391366
0.0888275
-0.0380909
-0.0374499
0.101336
-0.000617937
0.00184981
0.00296316
-0.0152445
0.0116327
-0.0353777
0.0234441
-0.0477797
0.0365476
-0.0529075
0.0499137
-0.053971
0.0631027
-0.0532841
0.0759671
-0.0520009
0.0884854
-0.0506092
-0.0498091
0.100845
-0.000445797
0.00229561
0.0033662
-0.0190565
0.0121513
-0.0441627
0.0239376
-0.0595661
0.036919
-0.0658889
0.050112
-0.067164
0.0631069
-0.066279
0.0757716
-0.0646656
0.0880948
-0.0629324
-0.0619752
0.100261
-0.000224021
0.00251963
0.00389289
-0.0231734
0.012831
-0.0531008
0.0245893
-0.0713243
0.037421
-0.0787206
0.0504037
-0.0801467
0.0631663
-0.0790417
0.0755962
-0.0770955
0.087693
-0.0750292
-0.0739104
0.0996282
2.68789e-05
0.00249275
0.00454182
-0.0276883
0.0136705
-0.0622295
0.0253917
-0.0830456
0.0380418
-0.0913707
0.0507773
-0.0928822
0.0632769
-0.0915412
0.0754512
-0.0892699
0.0873083
-0.0868862
-0.0855811
0.098979
0.000397087
0.00209566
0.00534193
-0.0326332
0.0146585
-0.071546
0.0263053
-0.0946924
0.0387209
-0.103786
0.0511598
-0.105321
0.0633626
-0.103744
0.0752709
-0.101178
0.0868949
-0.0985102
-0.0969387
0.0982525
0.000809372
0.00128629
0.00622712
-0.0380509
0.0157091
-0.081028
0.0272133
-0.106197
0.0393056
-0.115879
0.0513577
-0.117373
0.0631845
-0.115571
0.0747663
-0.11276
0.0861078
-0.109852
-0.107821
0.0969903
0.0012309
5.53878e-05
0.00708637
-0.0439064
0.016639
-0.0905806
0.0278646
-0.117422
0.0394719
-0.127486
0.0509529
-0.128854
0.0621889
-0.126807
0.0731865
-0.123758
0.0839216
-0.120587
-0.117764
0.0938645
0.00162131
0.00782707
0.0173084
0.0280726
0.0389721
0.0496048
0.059898
0.0698626
0.0794275
0.0878175
0.15489
-0.152333
0.0991542
0.181336
-0.108237
0.0817907
0.194595
-0.0809058
0.067647
0.201132
-0.0612142
0.0546768
0.204089
-0.0461751
0.0432179
0.205008
-0.0343112
0.0333929
0.204732
-0.0248158
0.025092
0.20372
-0.0170397
0.0180509
0.202253
-0.010949
0.0124164
-0.00324118
0.00515287
0.153702
-0.204699
0.180321
-0.134856
0.193874
-0.0944587
0.200668
-0.0680082
0.203826
-0.0493334
0.204906
-0.0353909
0.204765
-0.0246751
0.203877
-0.0161513
0.202527
-0.00959892
-0.00145194
0.151713
-0.255568
0.178412
-0.161555
0.192313
-0.10836
0.19946
-0.0751553
0.202932
-0.0528049
0.204295
-0.0367542
0.204417
-0.0247972
0.203781
-0.0155156
0.202681
-0.0084989
7.87896e-05
0.148913
-0.30422
0.175596
-0.188238
0.189909
-0.122672
0.19751
-0.0827564
0.201409
-0.0567034
0.203177
-0.0385225
0.203688
-0.0253083
0.203435
-0.0152627
0.202717
-0.00778045
0.00121745
0.145304
-0.349896
0.171867
-0.214801
0.186665
-0.137471
0.194825
-0.0909155
0.199265
-0.0611442
0.201559
-0.0408161
0.202583
-0.0263326
0.20284
-0.0155195
0.202633
-0.00757289
0.00183075
0.140875
-0.391792
0.167203
-0.241129
0.182585
-0.152853
0.191413
-0.099743
0.196512
-0.0662434
0.199449
-0.0437537
0.201108
-0.0279916
0.201998
-0.0164087
0.202429
-0.00800445
0.00178567
0.135543
-0.429083
0.161549
-0.267135
0.177654
-0.168959
0.187281
-0.10937
0.19316
-0.072123
0.19686
-0.0474534
0.199272
-0.0304034
0.200914
-0.0180511
0.202105
-0.00919481
0.000959281
0.129204
-0.461296
0.154762
-0.292693
0.171797
-0.185994
0.182415
-0.119987
0.189217
-0.0789249
0.1938
-0.0520373
0.197083
-0.0336858
0.199595
-0.0205636
0.201664
-0.0112639
-0.000773787
0.121915
-0.489347
0.14664
-0.317419
0.164794
-0.204147
0.1767
-0.131892
0.184639
-0.0868638
0.190262
-0.0576605
0.194543
-0.0379671
0.198043
-0.0240634
0.201106
-0.0143265
-0.00353166
0.114647
-0.516176
0.138383
-0.341155
0.156906
-0.22267
0.1701
-0.145087
0.179368
-0.096131
0.186215
-0.0645078
0.191645
-0.0433977
0.196258
-0.0286758
0.200431
-0.0184992
-0.00742914
0.376986
-0.4568
-0.436363
0.345666
-0.309835
0.329929
-0.206933
0.322446
-0.137604
0.318549
-0.0922344
0.316217
-0.0621757
0.314667
-0.0418469
0.313608
-0.0276169
0.312895
-0.0177865
-0.00713177
0.389415
-0.387465
-0.458749
0.355013
-0.275433
0.337639
-0.189558
0.328308
-0.128274
0.322717
-0.0866434
0.319123
-0.0585817
0.316717
-0.039441
0.315107
-0.026007
0.314055
-0.0167344
-0.00670353
0.405287
-0.323087
-0.469665
0.368151
-0.238297
0.346854
-0.168261
0.334509
-0.115929
0.326892
-0.0790256
0.321966
-0.0536564
0.3187
-0.0361743
0.316544
-0.0238515
0.315154
-0.0153439
-0.00614414
0.415517
-0.263407
-0.475197
0.377768
-0.200548
0.354369
-0.144862
0.339882
-0.101442
0.330625
-0.0697691
0.324551
-0.0475823
0.320515
-0.032138
0.317861
-0.0211973
0.316156
-0.0136396
-0.00546337
0.422684
-0.208567
-0.477525
0.385287
-0.163151
0.360575
-0.120149
0.344468
-0.0853355
0.333877
-0.0591777
0.326827
-0.0405325
0.322121
-0.0274322
0.319031
-0.0181073
0.317049
-0.0116572
-0.00467061
0.427591
-0.158142
-0.478016
0.390971
-0.126531
0.365506
-0.0946842
0.34823
-0.0680603
0.336596
-0.0475429
0.328754
-0.0326909
0.32349
-0.0221677
0.320028
-0.0146453
0.317806
-0.00943512
-0.00378182
0.430827
-0.111359
-0.47761
0.395088
-0.0907921
0.36924
-0.0688359
0.35116
-0.0499807
0.338745
-0.035128
0.330291
-0.0242364
0.324588
-0.0164646
0.32083
-0.0108872
0.318412
-0.00701701
-0.00281205
0.432471
-0.0669712
-0.476859
0.397515
-0.0558368
0.371568
-0.0428883
0.353024
-0.0314372
0.340102
-0.0222058
0.331231
-0.0153655
0.325223
-0.0104564
0.321257
-0.00692086
0.3187
-0.00446031
-0.00178566
0.42642
-0.021457
-0.471934
0.392201
-0.0216176
0.36692
-0.0176075
0.348685
-0.0132027
0.335872
-0.00939237
0.32703
-0.00652327
0.321025
-0.00445124
0.31706
-0.00295656
0.3145
-0.00190023
-0.000755397
0.317724
-0.339181
0.296106
0.278499
0.265296
0.255904
0.249381
0.244929
0.241973
0.240073
0.469807
0.0124627
-0.46818
0.470671
0.0246441
0.470647
0.0364282
0.46963
0.0475995
0.467308
0.0581782
0.46439
0.0668997
0.458259
0.0779749
0.454746
0.0799849
0.442777
0.0974738
0.0897563
0.451112
0.0108678
-0.449517
0.45277
0.022986
0.454419
0.0347794
0.456089
0.045929
0.457353
0.0569145
0.458956
0.0652972
0.459112
0.077818
0.46031
0.0787875
0.460984
0.0968001
0.0919904
0.434899
0.00923047
-0.433262
0.437172
0.0207132
0.44
0.0319518
0.443383
0.0425456
0.447138
0.0531594
0.451293
0.0611424
0.455962
0.0731487
0.459892
0.0748579
0.466062
0.0906295
0.0883874
0.422516
0.00758561
-0.420871
0.425144
0.0180848
0.428711
0.0283851
0.433168
0.0380889
0.438536
0.0477908
0.444398
0.0552805
0.451753
0.0657933
0.458226
0.0683858
0.467582
0.081273
0.0807727
0.412817
0.00593794
-0.411169
0.415705
0.015196
0.419806
0.0242843
0.42503
0.0328647
0.431477
0.0413442
0.438632
0.0481259
0.447573
0.0568519
0.456055
0.0599037
0.467295
0.0700334
0.0705427
0.405488
0.00426683
-0.403817
0.408572
0.0121119
0.413041
0.0198154
0.4188
0.0271058
0.425935
0.0342092
0.434
0.0400614
0.443839
0.0470124
0.453702
0.0500411
0.466037
0.0576984
0.0585636
0.400154
0.00255485
-0.398442
0.403403
0.00886308
0.408151
0.0150675
0.4143
0.0209567
0.421888
0.0266219
0.430571
0.0313783
0.440919
0.0366638
0.451685
0.039275
0.464585
0.0447985
0.0455388
0.395682
0.00063612
-0.393763
0.399206
0.00533879
0.404315
0.00995787
0.410911
0.0143617
0.418955
0.018577
0.428178
0.0221555
0.438875
0.0259666
0.450236
0.027914
0.46337
0.0316654
0.0320498
0.378669
-0.00129566
-0.376737
0.382722
0.00128598
0.388784
0.00389543
0.396683
0.00646317
0.406281
0.00897905
0.417233
0.011203
0.429636
0.0135639
0.442701
0.0148491
0.457185
0.0171813
0.0173005
0.24446
-0.245755
0.245746
0.249641
0.256104
0.265083
0.276286
0.28985
0.304699
0.32188
0.0797566
0.127913
-0.115307
-0.0923621
0.0682238
0.129741
-0.118208
0.0576599
0.132531
-0.121967
0.0475701
0.136177
-0.126087
0.0375752
0.140251
-0.130256
0.0275243
0.144218
-0.134167
0.0175956
0.145995
-0.136066
0.00860333
0.138516
-0.129524
0.00221206
0.108207
-0.101816
0.0462684
-0.0440564
0.0804306
0.139121
-0.0916388
0.0689573
0.141214
0.0578752
0.143613
0.0472526
0.146799
0.0369081
0.150596
0.0267234
0.154403
0.0168633
0.155855
0.00810591
0.147273
0.00201376
0.114299
0.0482822
0.0722776
0.148262
-0.0814187
0.0626404
0.150851
0.0528405
0.153413
0.0430775
0.156562
0.0333871
0.160286
0.0238008
0.163989
0.0145882
0.165067
0.00660582
0.155256
0.00136341
0.119542
0.0496456
0.0601358
0.155443
-0.0673171
0.0525402
0.158447
0.0445331
0.16142
0.0362413
0.164854
0.0277787
0.168749
0.0192903
0.172478
0.0111756
0.173182
0.00441738
0.162014
0.000482412
0.123477
0.050128
0.048109
0.161259
-0.053925
0.0419949
0.164561
0.0354671
0.167948
0.0285774
0.171744
0.0214281
0.175898
0.0141992
0.179707
0.0073699
0.180011
0.00201688
0.167367
-0.000460432
0.125954
0.0496676
0.0372858
0.166174
-0.0421999
0.0321737
0.169673
0.0267513
0.17337
0.0210347
0.17746
0.0150971
0.181835
0.00911959
0.185684
0.00361072
0.18552
-0.000396123
0.171374
-0.00132132
0.126879
0.0483462
0.0271317
0.17031
-0.0312678
0.0228768
0.173928
0.0184221
0.177825
0.0137723
0.18211
0.00898509
0.186623
0.00425102
0.190418
5.98709e-05
0.189711
-0.00232402
0.173758
-0.00203446
0.12659
0.0463118
0.0170433
0.173567
-0.0203008
0.0137111
0.17726
0.0102504
0.181286
0.0066684
0.185692
0.00301996
0.190271
-0.000495213
0.193933
-0.00321941
0.192435
-0.00424151
0.17478
-0.00261166
0.12496
0.0437001
0.00679562
0.175824
-0.00905296
0.00449296
0.179563
0.00211887
0.18366
-0.000315505
0.188127
-0.00276221
0.192718
-0.00497453
0.196146
-0.00640197
0.193863
-0.00601033
0.174388
-0.00315808
0.122108
0.0405421
-0.00356415
0.00242606
-0.00473711
-0.00595945
-0.00721527
-0.00842538
-0.00936051
-0.00938723
-0.00759597
-0.00360547
0.103384
0.0237795
-0.114671
-0.0124928
0.0917682
0.0244034
-0.0127876
0.0797855
0.0250792
-0.0130965
0.0674198
0.0257939
-0.0134281
0.054664
0.0265433
-0.0137875
0.0415237
0.0273044
-0.0141641
0.0281352
0.0278397
-0.0144512
0.0152132
0.0270753
-0.0141532
0.00477284
0.022404
-0.0119637
0.0107922
-0.00601936
0.102621
0.0350499
-0.113891
0.0910361
0.0359881
0.0790995
0.0370158
0.0667943
0.0380991
0.0541128
0.0392247
0.0410608
0.0403564
0.0277775
0.0411229
0.014982
0.0398709
0.00467978
0.0327062
0.015472
0.10152
0.0462875
-0.112758
0.0899883
0.0475199
0.0781241
0.04888
0.0659099
0.0503133
0.0533367
0.0517979
0.0404104
0.0532827
0.0272758
0.0542575
0.0146587
0.052488
0.00454808
0.0428168
0.0200201
0.0999696
0.0574656
-0.111148
0.0885243
0.0589652
0.0767711
0.0606332
0.0646905
0.0623939
0.0522715
0.0642169
0.0395204
0.0660339
0.026589
0.0671889
0.0142166
0.0648604
0.00436802
0.0526654
0.0243881
0.0978135
0.0685404
-0.108888
0.0865113
0.0702674
0.0749349
0.0722096
0.0630578
0.0742711
0.0508626
0.076412
0.0383543
0.0785422
0.0256936
0.0798496
0.0136354
0.0769185
0.00412988
0.062171
0.028518
0.094882
0.0794314
-0.105773
0.0837992
0.0813503
0.0724706
0.0835383
0.0608692
0.0858724
0.0489772
0.0883041
0.0367998
0.0907195
0.0245073
0.0921421
0.0128706
0.0885552
0.00381749
0.0712241
0.0323355
0.0910997
0.0899455
-0.101614
0.0804618
0.0919882
0.0695894
0.0944107
0.0584217
0.09704
0.0469343
0.0997916
0.0351455
0.102508
0.0232567
0.104031
0.0120755
0.0997364
0.00350777
0.0797918
0.0358432
0.0850256
0.0999362
-0.0950163
0.0749491
0.102065
0.064719
0.104641
0.05427
0.107489
0.0435332
0.110528
0.0324905
0.113551
0.0213369
0.115184
0.0108941
0.110179
0.00303532
0.0876506
0.0388785
0.0822442
0.108503
-0.0908109
0.0731557
0.111153
0.0633902
0.114406
0.0530949
0.117784
0.042412
0.121211
0.0314504
0.124513
0.0204734
0.126161
0.010331
0.120322
0.00283692
0.0951447
0.0417155
0.0697365
-0.0765409
0.0626815
0.055121
0.0468183
0.0377735
0.0281186
0.0182143
0.00901226
0.0023409
0.202118
0.0129031
-0.017031
0.204604
0.0282616
-0.0307476
0.205029
0.034301
-0.0347262
0.205996
0.0359456
-0.0369124
0.205091
0.0425217
-0.0416174
0.202571
0.0511558
-0.0486351
0.196482
0.0638871
-0.0577986
0.185711
0.0806421
-0.0698713
0.159904
0.108685
-0.0828771
0.144697
-0.099464
0.201849
0.00904358
0.204199
0.0259121
0.204575
0.0339247
0.205479
0.0350412
0.204494
0.0435068
0.201838
0.053812
0.195606
0.070119
0.184521
0.0917275
0.158775
0.134431
0.189581
0.201455
0.0055783
0.203526
0.0238414
0.203758
0.0336924
0.204457
0.0343426
0.203266
0.0446974
0.200352
0.0567258
0.193894
0.0765775
0.182378
0.103244
0.156872
0.159936
0.233695
0.200927
0.00264065
0.202585
0.0221836
0.202588
0.0336893
0.202938
0.0339925
0.20142
0.0462159
0.198129
0.0600173
0.191348
0.0833575
0.179263
0.115329
0.154237
0.184962
0.276785
0.200262
0.000367957
0.201383
0.0210628
0.201078
0.0339945
0.200935
0.0341352
0.198973
0.0481785
0.195186
0.0638038
0.187983
0.0905605
0.175144
0.128168
0.150954
0.209152
0.318851
0.199454
-0.00109635
0.199926
0.0205909
0.199243
0.0346774
0.19846
0.0349186
0.195944
0.0506942
0.191545
0.0682024
0.183809
0.0982969
0.170029
0.141948
0.147054
0.232127
0.360132
0.198497
-0.00160325
0.198222
0.0208653
0.197104
0.0357957
0.195529
0.0364938
0.192359
0.0538642
0.187225
0.0733366
0.17882
0.106702
0.164049
0.156719
0.142579
0.253597
0.401096
0.197386
-0.000999825
0.196284
0.0219675
0.194679
0.0374005
0.192156
0.0390176
0.188243
0.0577773
0.182241
0.0793381
0.172974
0.115969
0.157124
0.17257
0.136687
0.274035
0.442767
0.196135
0.000854915
0.194141
0.0239616
0.191992
0.039549
0.188357
0.0426534
0.183631
0.0625029
0.176671
0.086298
0.166551
0.126089
0.150567
0.188553
0.131852
0.29275
0.483808
0.194852
0.00399299
0.191867
0.0269462
0.189053
0.0423632
0.184097
0.0476095
0.178359
0.0682406
0.169911
0.0947461
0.157872
0.138127
0.140236
0.20619
0.120664
0.312322
0.527931
0.303326
0.00267765
0.306782
0.0234895
0.310422
0.0387229
0.312996
0.0450358
0.315904
0.0653327
0.319348
0.0913022
0.324919
0.132556
0.335991
0.195118
0.360892
0.287421
0.462959
0.425864
0.304217
0.000470432
0.30789
0.0198165
0.312168
0.0344452
0.315504
0.0417
0.31985
0.0609869
0.325453
0.0856988
0.334404
0.123606
0.350115
0.179407
0.379905
0.25763
0.398878
0.443986
0.305098
-0.0026178
0.309209
0.015706
0.313904
0.0297498
0.318015
0.0375892
0.323574
0.0554284
0.331021
0.0782515
0.342616
0.112011
0.361211
0.160812
0.394827
0.224013
0.336495
0.45721
0.306001
-0.00660879
0.310592
0.0111153
0.31559
0.0247516
0.320395
0.0327842
0.326977
0.0488469
0.335967
0.0692608
0.349588
0.0983899
0.37036
0.14004
0.405342
0.189031
0.27715
0.464688
0.306988
-0.0115866
0.312052
0.00605135
0.317202
0.0196015
0.32257
0.0274166
0.329986
0.0414301
0.340228
0.0590195
0.355355
0.0832625
0.377745
0.117651
0.412502
0.154274
0.221411
0.468241
0.308112
-0.0176879
0.313621
0.000541563
0.318724
0.0144986
0.324494
0.0216467
0.332563
0.0333613
0.343772
0.04781
0.359983
0.0670516
0.383486
0.0941481
0.417291
0.120468
0.169261
0.46944
0.309417
-0.0250943
0.31535
-0.00539152
0.320129
0.00971977
0.32612
0.0156554
0.334663
0.0248177
0.346582
0.0358917
0.363545
0.0500884
0.387735
0.0699583
0.420424
0.0877796
0.120325
0.46936
0.311086
-0.0341701
0.317265
-0.0115704
0.321292
0.00569216
0.327287
0.00966042
0.336143
0.0159618
0.348547
0.0234876
0.366022
0.0326137
0.390578
0.0454024
0.422347
0.0560104
0.0741445
0.468528
0.309612
-0.0417715
0.314918
-0.0168769
0.317985
0.00262524
0.324045
0.00360063
0.333046
0.00696045
0.345763
0.0107705
0.363589
0.014788
0.388257
0.0207339
0.419612
0.0246563
0.0323368
0.461419
0.260239
0.243362
0.245987
0.249588
0.256548
0.267319
0.282107
0.30284
0.327497
0.359834
0.439142
-0.105639
0.444024
-0.0965208
0.44612
-0.0835148
0.448286
-0.0694832
0.451345
-0.056984
0.45508
-0.0459357
0.458993
-0.0351804
0.462635
-0.0239424
0.465703
-0.0121213
-5.05851e-05
0.444128
-0.105781
0.44253
-0.0949232
0.441366
-0.0823502
0.441723
-0.0698401
0.442965
-0.0582266
0.444344
-0.0473143
0.445617
-0.0364539
0.44686
-0.0251851
0.44818
-0.0134416
-0.00138755
0.450854
-0.0994253
0.445353
-0.0894215
0.440796
-0.077794
0.437442
-0.0664852
0.435063
-0.0558475
0.433388
-0.04564
0.432359
-0.0354249
0.431998
-0.0248242
0.432307
-0.0137502
-0.00234227
0.454234
-0.0889714
0.445271
-0.0804584
0.437838
-0.0703614
0.432007
-0.0606543
0.427597
-0.051437
0.424308
-0.0423509
0.421983
-0.0331003
0.420614
-0.0234551
0.420237
-0.0133729
-0.00297656
0.455503
-0.0762331
0.44445
-0.0694056
0.435235
-0.0611468
0.427746
-0.0531645
0.421792
-0.0454835
0.417179
-0.0377375
0.413804
-0.0297252
0.411665
-0.0213164
0.410786
-0.0124939
-0.00335964
0.455452
-0.0622448
0.4431
-0.057053
0.432663
-0.0507103
0.424025
-0.0445267
0.417021
-0.0384793
0.411521
-0.0322377
0.407452
-0.0256566
0.404804
-0.018668
0.403588
-0.0112782
-0.00358847
0.454637
-0.0475223
0.441491
-0.0439062
0.430285
-0.039505
0.420927
-0.0351688
0.413261
-0.0308133
0.407193
-0.0261695
0.402674
-0.0211373
0.399699
-0.0156933
0.398287
-0.00986622
-0.00374378
0.453158
-0.0321523
0.439397
-0.0301454
0.427648
-0.0277555
0.41779
-0.025311
0.409662
-0.0226848
0.403182
-0.0196896
0.398325
-0.0162806
0.395113
-0.0124809
0.393582
-0.00833566
-0.00392467
0.444535
-0.0152681
0.429622
-0.0152328
0.416793
-0.0149265
0.405842
-0.0143599
0.396587
-0.0134294
0.388976
-0.0120792
0.383072
-0.0103766
0.378992
-0.00840042
0.376856
-0.00619926
-0.00380612
0.344565
0.329333
0.314406
0.300046
0.286617
0.274538
0.264161
0.255761
0.249561
0.0104302
0.0467767
-0.057207
0.0213256
0.151299
-0.162195
0.0258265
0.218646
-0.223147
0.0253664
0.244547
-0.244087
0.0225216
0.249262
-0.246418
0.0189119
0.246967
-0.243358
0.0150975
0.243199
-0.239385
0.0111879
0.238803
-0.234893
0.00728796
0.231505
-0.227605
0.213628
0.0040928
-0.210433
0.0119716
0.0348052
0.0272378
0.136033
0.0368493
0.209034
0.0410497
0.240347
0.0424595
0.247853
0.0429836
0.246443
0.0433831
0.2428
0.0435959
0.23859
0.0426786
0.232422
0.217866
0.0384407
0.0122082
0.022597
0.0304961
0.117745
0.0446955
0.194835
0.0536513
0.231391
0.059562
0.241942
0.0644397
0.241566
0.0692735
0.237966
0.0741278
0.233736
0.0778266
0.228724
0.219379
0.0763136
0.0111426
0.0114543
0.0305066
0.0983812
0.0480321
0.177309
0.0612476
0.218176
0.0715136
0.231676
0.0806362
0.232443
0.089724
0.228878
0.0991099
0.22435
0.108203
0.219631
0.213745
0.113837
0.00908572
0.00236863
0.0274852
0.0799818
0.046605
0.158189
0.0630341
0.201746
0.0770773
0.217633
0.0900163
0.219504
0.102863
0.216031
0.116106
0.211107
0.129735
0.206002
0.200728
0.142753
0.00652638
-0.00415776
0.0223656
0.0641426
0.0412992
0.139256
0.059515
0.183531
0.0762863
0.200861
0.092171
0.203619
0.107872
0.20033
0.123848
0.19513
0.140339
0.189511
0.183417
0.15765
0.00398564
-0.0081434
0.0165536
0.0515746
0.0340188
0.121791
0.0526563
0.164893
0.0709287
0.182589
0.0886528
0.185895
0.106099
0.182884
0.123558
0.177672
0.141185
0.171884
0.16515
0.159452
0.00185149
-0.00999488
0.0112625
0.0421636
0.0266461
0.106407
0.0446295
0.14691
0.0631562
0.164062
0.0814384
0.167613
0.0993296
0.164992
0.116895
0.160107
0.134319
0.15446
0.147919
0.151549
0.00033357
-0.0103285
0.00736293
0.0351342
0.0208043
0.0929656
0.0377466
0.129968
0.0559223
0.145887
0.0741974
0.149338
0.0921701
0.14702
0.109773
0.142504
0.127078
0.137155
0.130206
0.144791
-0.000469529
-0.00985893
0.00485127
0.0298134
0.0166037
0.0812132
0.0322045
0.114367
0.0492992
0.128792
0.0665274
0.132109
0.083256
0.130291
0.0992383
0.126522
0.114183
0.12221
0.116489
0.127901
-0.000823866
-0.00903506
0.00357165
0.0254179
0.0142311
0.0705537
0.028833
0.0997649
0.0451
0.112525
0.0616739
0.115536
0.0779205
0.114044
0.0936105
0.110832
0.108666
0.107154
0.103947
0.121208
-0.00094276
-0.0080923
0.00300072
0.0214744
0.0129806
0.0605739
0.0268379
0.0859075
0.0423913
0.0969716
0.058329
0.0995978
0.0740365
0.098337
0.0892837
0.0955845
0.10404
0.0923976
0.0904964
0.117491
-0.000991966
-0.00710033
0.00265942
0.0178231
0.012126
0.0511072
0.0253366
0.0726969
0.0401844
0.0821238
0.0554063
0.084376
0.0704089
0.0833344
0.08496
0.0810333
0.098999
0.0783587
0.0770948
0.112401
-0.00100906
-0.00609128
0.00244219
0.0143718
0.0115337
0.0420157
0.0242461
0.0599846
0.0385287
0.0678411
0.0531609
0.0697438
0.0675697
0.0689255
0.0815254
0.0670777
0.0949486
0.0649355
0.0640314
0.108012
-0.00100493
-0.00508634
0.00231588
0.011051
0.0111534
0.0331782
0.0235235
0.0476145
0.0374163
0.0539483
0.0516467
0.0555135
0.0656648
0.0549075
0.0792548
0.0534876
0.0923462
0.0518441
0.0511966
0.105181
-0.000993819
-0.00409252
0.00224282
0.00781435
0.0109151
0.024506
0.0230664
0.0354631
0.0367155
0.0402992
0.0507037
0.0415254
0.0645008
0.0411104
0.0779053
0.0400831
0.0908582
0.0388912
0.0384605
0.103594
-0.000980064
-0.00311246
0.00220902
0.00462526
0.0107812
0.0159338
0.0228016
0.0234428
0.0363089
0.0267918
0.0501621
0.0276722
0.0638447
0.0274277
0.0771648
0.026763
0.0900706
0.0259854
0.0257533
0.102778
-0.00095888
-0.00215358
0.00221284
0.00145354
0.0107313
0.00741529
0.0226767
0.0114974
0.0361027
0.0133659
0.0498801
0.0138947
0.0635025
0.0138054
0.0767842
0.0134813
0.0896777
0.0130919
0.0130476
0.102383
-0.000928295
-0.00122529
0.00225465
-0.0017294
0.0107531
-0.00108313
0.0226553
-0.00040483
0.036028
-6.7982e-06
0.0497533
0.00016942
0.0633325
0.000226181
0.0765852
0.000228587
0.0894669
0.000210218
0.000346243
0.102168
-0.000886863
0.00233605
0.0108401
0.0227154
0.0360418
0.0497139
0.0632418
0.0764504
0.0892986
0.101973
0.137571
0.286586
-0.302949
0.149612
0.12114
-0.133181
0.159417
0.041091
-0.0508957
0.167141
0.00487445
-0.0125987
0.173528
-0.00896962
0.00258226
0.179178
-0.013024
0.00737474
0.184349
-0.012947
0.00777543
0.189147
-0.01125
0.00645229
0.193629
-0.00919152
0.00470959
-0.00599224
0.0019816
0.139708
0.26437
0.15557
0.105278
0.16635
0.0303108
0.17364
-0.00241505
0.179184
-0.0145144
0.183825
-0.0176644
0.187912
-0.0170338
0.191581
-0.0149193
0.194919
-0.0125298
-0.00887111
0.142187
0.234583
0.160942
0.0865233
0.172224
0.0190286
0.179259
-0.00944997
0.18419
-0.0194456
0.18801
-0.0214842
0.19115
-0.0201738
0.193812
-0.017582
0.196124
-0.0148409
-0.010728
0.145006
0.19759
0.165811
0.0657183
0.177487
0.00735202
0.184311
-0.0162735
0.18869
-0.0238244
0.191771
-0.0245653
0.194069
-0.0224722
0.19584
-0.0193525
0.19724
-0.0162414
-0.0116765
0.147797
0.154973
0.170136
0.0433791
0.182107
-0.00461866
0.188737
-0.0229031
0.192649
-0.0277372
0.195092
-0.0270081
0.196661
-0.0240408
0.197656
-0.0203481
0.198265
-0.0168498
-0.0118341
0.150311
0.108256
0.173852
0.0198389
0.186061
-0.0168284
0.19253
-0.0293723
0.196052
-0.0312587
0.197958
-0.0289147
0.198912
-0.0249946
0.199254
-0.02069
0.199194
-0.0167891
-0.011323
0.152414
0.0586204
0.176896
-0.00464317
0.189311
-0.0292437
0.195662
-0.0357235
0.198877
-0.0344728
0.200354
-0.0303923
0.200812
-0.0254527
0.200625
-0.0205028
0.200021
-0.0161854
-0.010269
0.154005
0.00699848
0.179217
-0.0298549
0.191817
-0.0418441
0.198106
-0.0420123
0.201105
-0.0374716
0.202266
-0.0315534
0.202351
-0.0255379
0.201762
-0.0199139
0.200745
-0.0151678
-0.00880115
0.154989
-0.0458223
0.180757
-0.0556226
0.19355
-0.0546378
0.199842
-0.0483044
0.202723
-0.0403524
0.203684
-0.0325139
0.203521
-0.0253754
0.20266
-0.019053
0.20136
-0.0138671
-0.0070511
0.155305
0.181473
0.194483
0.200855
0.20372
0.204599
0.204316
0.203314
0.201863
0.113542
-0.00179652
-0.111745
0.110006
0.0035362
0.107485
0.00252048
0.107203
0.000282023
0.108091
-0.000888037
0.109253
-0.00116229
0.110318
-0.00106487
0.111156
-0.000837695
0.111736
-0.000579852
-0.000231914
0.234068
0.0707552
-0.30662
0.201657
0.0359475
0.189478
0.014699
0.186173
0.00358764
0.18635
-0.0010651
0.187714
-0.00252666
0.189254
-0.00260446
0.190561
-0.00214466
0.191524
-0.00154339
-0.000638161
0.249011
0.156631
-0.334887
0.213493
0.0714662
0.200129
0.028063
0.19644
0.00727663
0.196564
-0.00118922
0.197987
-0.00394996
0.199614
-0.0042317
0.201005
-0.00353582
0.20204
-0.00257849
-0.0010788
0.243813
0.235168
-0.322349
0.211586
0.103693
0.199672
0.0399765
0.196663
0.0102864
0.197134
-0.00166041
0.198728
-0.00554451
0.200444
-0.00594694
0.201876
-0.00496803
0.20293
-0.00363302
-0.0015267
0.238644
-0.306426
0.209156
0.198237
0.195924
0.196846
0.198676
0.200505
0.201989
0.203066
0.0110977
0.0007668
-0.0118645
0.0112031
-0.000105474
0.0117002
-0.000497016
0.0123383
-0.000638158
0.0142102
-0.00187191
0.019059
-0.00484878
0.031867
-0.012808
0.0498159
-0.0179488
0.0806636
-0.0308477
-0.0310818
0.0330404
0.00174239
-0.034016
0.0361002
-0.00316532
0.0438748
-0.00827161
0.0585663
-0.0153297
0.0830228
-0.0263284
0.119066
-0.0408918
0.165899
-0.0596409
0.21507
-0.0671203
0.266919
-0.0826967
-0.0707823
0.0554707
0.00164023
-0.0553685
0.063208
-0.0109027
0.0804354
-0.025499
0.109566
-0.0444601
0.15037
-0.0671324
0.19835
-0.0888723
0.244641
-0.105931
0.282852
-0.105331
0.313003
-0.112848
-0.0926669
0.076339
-0.000268917
-0.0744299
0.0885794
-0.0231431
0.112724
-0.0496434
0.148165
-0.0799017
0.189595
-0.108562
0.229176
-0.128453
0.260004
-0.13676
0.285271
-0.130599
0.304579
-0.132156
-0.110437
0.093393
-0.0895691
0.108691
0.135361
0.169296
0.203486
0.232683
0.255376
0.276327
0.288962
0.0915116
-0.087821
0.0973021
-0.100993
0.0825407
-0.0907069
0.0996777
0.0734553
-0.0943105
0.103396
0.0635726
-0.0979818
0.107865
0.0526405
-0.101544
0.112476
0.0406852
-0.104941
0.116897
0.0279676
-0.107157
0.119875
0.0153299
-0.103506
0.116144
0.00488858
-0.0835358
0.0939772
-0.0380619
0.0429505
0.104322
-0.0779782
-0.114165
0.0937865
-0.080171
0.0822289
-0.0827529
0.0697935
-0.0855465
0.0567154
-0.0884663
0.0431635
-0.0913893
0.0293483
-0.0933418
0.0160039
-0.0901615
0.00513608
-0.072668
-0.0329258
0.10178
-0.0667671
-0.112991
0.0903062
-0.0686968
0.0785544
-0.0710011
0.0664943
-0.0734863
0.0540591
-0.0760311
0.0411949
-0.0785251
0.0280037
-0.0801506
0.0151896
-0.0773474
0.00477194
-0.0622503
-0.0281539
0.103668
-0.0554789
-0.114956
0.0921493
-0.0571781
0.080283
-0.0591348
0.067993
-0.0611963
0.055247
-0.0632851
0.0420511
-0.0653292
0.0285553
-0.0666548
0.0154945
-0.0642867
0.00489711
-0.0516529
-0.0232568
0.104223
-0.0441129
-0.115589
0.0925533
-0.0455085
0.0805194
-0.0471008
0.0680921
-0.048769
0.0552587
-0.0504517
0.0420221
-0.0520926
0.0285172
-0.0531499
0.0154599
-0.0512295
0.00486765
-0.0410606
-0.0183891
0.104467
-0.0327579
-0.115822
0.0927896
-0.0338313
0.0807406
-0.0350518
0.0682932
-0.0363217
0.0554343
-0.0375928
0.0421668
-0.0388251
0.0286267
-0.0396098
0.0155293
-0.0381321
0.00489992
-0.0304312
-0.0134892
0.104533
-0.021426
-0.115865
0.0928612
-0.0221593
0.080806
-0.0229966
0.068347
-0.0238627
0.0554761
-0.0247218
0.0421983
-0.0255474
0.0286482
-0.0260598
0.0155382
-0.025022
0.00490108
-0.0197942
-0.00858811
0.104464
-0.0101075
-0.115783
0.0928005
-0.0104952
0.080751
-0.0109471
0.0682981
-0.0114098
0.0554344
-0.0118582
0.0421656
-0.0122785
0.0286254
-0.0125195
0.0155253
-0.0119219
0.00489713
-0.00916599
-0.00369098
0.104252
0.00119641
-0.115556
0.0926023
0.00115409
0.0805684
0.00108682
0.0681335
0.0010251
0.0552916
0.000983829
0.042048
0.000965028
0.0285369
0.000991568
0.0154697
0.00114526
0.00487447
0.00142926
0.00118349
0.103887
-0.115183
0.0922534
0.0802438
0.0678407
0.055037
0.0418379
0.0283783
0.0153703
0.00483587
0.0256203
-0.207931
-0.0281227
0.0194363
-0.221421
0.0121615
-0.227618
0.00477498
-0.231998
-0.00238092
-0.236202
-0.00889784
-0.239901
-0.0135101
-0.239475
-0.0138762
-0.22278
-0.00792027
-0.168151
-0.0651272
0.0553151
-0.203302
-0.059944
0.0463504
-0.212457
0.0361859
-0.217454
0.0259262
-0.221739
0.0159041
-0.22618
0.00643664
-0.230433
-0.00160603
-0.231432
-0.00614572
-0.218241