/*--------------------------------*- C++ -*----------------------------------*\
  =========                 |
  \\      /  F ield         | OpenFOAM: The Open Source CFD Toolbox
   \\    /   O peration     | Website:  https://openfoam.org
    \\  /    A nd           | Version:  13
     \\/     M anipulation  |
\*---------------------------------------------------------------------------*/
FoamFile
{
    format      ascii;
    class       volVectorField;
    location    "0.66";
    object      U;
}
// * * * * * * * * * * * * * * * * * * * * * * * * * * * * * * * * * * * * * //

dimensions      [0 1 -1 0 0 0 0];

internalField   nonuniform List<vector> 
440
(
(0.218259 -0.176694 -1.81121e-19)
(0.613078 -0.436657 1.07873e-18)
(0.984292 -0.640907 4.23203e-19)
(1.32754 -0.795395 1.24294e-18)
(1.63257 -0.916763 -2.59986e-19)
(0.304892 -0.177683 -5.44477e-19)
(0.819132 -0.428699 -1.01956e-18)
(1.27997 -0.6189 1.14522e-19)
(1.6919 -0.761639 -1.21513e-18)
(2.05374 -0.875117 -1.02099e-18)
(0.384878 -0.152406 -6.98064e-19)
(1.00468 -0.363014 1.58976e-18)
(1.53975 -0.518385 -1.9346e-18)
(2.00471 -0.632633 1.37958e-18)
(2.40594 -0.721479 1.4297e-18)
(0.445866 -0.102745 5.62388e-19)
(1.14609 -0.243083 -1.2995e-18)
(1.73743 -0.344811 -7.50808e-19)
(2.24293 -0.418221 1.9665e-18)
(2.67445 -0.474464 2.50021e-18)
(0.479254 -0.0361582 6.86902e-19)
(1.22363 -0.0847542 1.69138e-19)
(1.84589 -0.119363 2.5313e-18)
(2.37402 -0.143864 -1.06201e-18)
(2.82295 -0.162495 -4.83734e-19)
(-0.000904985 -0.051782 2.74727e-19)
(0.0500774 -0.14461 -3.85188e-19)
(0.106001 -0.222758 1.11018e-18)
(0.17153 -0.292668 -1.76782e-19)
(0.239689 -0.354311 -1.6007e-18)
(0.0137151 -0.0843705 -2.62746e-19)
(0.0892934 -0.227986 -4.25946e-19)
(0.174093 -0.350422 1.10465e-19)
(0.268367 -0.450404 5.96077e-20)
(0.364625 -0.530551 -3.58222e-20)
(0.0433426 -0.114277 7.05551e-20)
(0.165454 -0.303221 5.28273e-19)
(0.296148 -0.467488 9.5042e-20)
(0.432838 -0.598993 1.45834e-18)
(0.56789 -0.697583 -2.49685e-20)
(0.0866178 -0.140994 6.6958e-20)
(0.276369 -0.367829 -3.51442e-20)
(0.469491 -0.563032 2.18147e-19)
(0.661408 -0.718564 -2.03513e-18)
(0.844122 -0.830513 9.57018e-19)
(0.142122 -0.161719 -2.3578e-19)
(0.42008 -0.412848 -4.42522e-19)
(0.691403 -0.621476 -7.70221e-19)
(0.950153 -0.782422 9.53167e-19)
(1.18522 -0.89286 3.45306e-18)
(0.592713 -0.592225 -4.04311e-18)
(0.962773 -0.517445 1.00179e-18)
(1.29517 -0.212548 3.71341e-19)
(1.4929 -0.0346096 -5.94002e-19)
(1.5627 0.00124559 -7.13154e-20)
(0.785376 -0.743718 4.83359e-18)
(1.0437 -0.624162 -3.09272e-19)
(1.31963 -0.285498 -1.42711e-19)
(1.53481 -0.0776315 3.85547e-19)
(1.649 -0.0167108 1.42754e-19)
(1.03643 -0.878282 1.54312e-18)
(1.17821 -0.710263 4.04318e-18)
(1.34222 -0.356586 6.85125e-20)
(1.54483 -0.123251 3.92333e-19)
(1.66058 -0.0383359 -4.92718e-20)
(1.33057 -0.988832 1.21905e-18)
(1.35917 -0.771668 -4.2061e-19)
(1.38679 -0.417662 -7.70126e-19)
(1.52701 -0.162264 -2.88281e-19)
(1.63932 -0.0565773 5.21609e-20)
(1.62989 -1.04757 4.46293e-21)
(1.55553 -0.811404 -1.7133e-18)
(1.44834 -0.466338 0)
(1.49199 -0.211206 2.93215e-19)
(1.54164 -0.0722089 6.24214e-20)
(2.15631 -1.11541 -1.57954e-18)
(1.83429 -0.80085 -4.92209e-19)
(1.55906 -0.456198 -9.82635e-21)
(1.40169 -0.207481 6.9911e-20)
(1.35508 -0.0716791 -2.47995e-19)
(2.63256 -0.889874 -1.61199e-18)
(1.89971 -0.591034 2.97759e-18)
(1.43222 -0.319499 6.43854e-21)
(1.1568 -0.150398 2.08541e-19)
(1.09054 -0.051731 0)
(2.47854 -0.522883 -6.92704e-18)
(1.60531 -0.338937 -1.49116e-19)
(1.14905 -0.178869 1.9802e-18)
(0.892128 -0.0900775 -3.26973e-19)
(0.804898 -0.0333067 -3.67741e-20)
(1.76237 -0.220002 6.83531e-18)
(1.08867 -0.135701 1.24491e-18)
(0.752023 -0.0677826 2.24083e-19)
(0.571731 -0.035796 2.9193e-33)
(0.497386 -0.0146793 -7.53373e-20)
(0.683159 0.000166971 1.55207e-18)
(0.395242 0.0235556 7.1258e-19)
(0.267678 0.0240737 -5.17592e-19)
(0.205678 0.0148557 2.25142e-19)
(0.174803 0.00552434 -7.46698e-20)
(3.58188 -0.168159 1.25618e-17)
(3.41717 -0.50294 -1.04436e-17)
(3.13668 -0.787001 7.10863e-18)
(2.78062 -0.996107 2.32094e-18)
(2.33315 -1.10183 -4.14237e-19)
(3.78453 -0.103587 1.03946e-17)
(3.71746 -0.324461 -6.63896e-19)
(3.57772 -0.551824 -4.26989e-18)
(3.37828 -0.785764 2.68976e-18)
(3.10031 -1.01979 -6.62792e-19)
(3.11483 -0.0605682 3.65446e-18)
(3.09865 -0.181683 -2.51883e-18)
(3.05961 -0.309666 5.01277e-18)
(2.9989 -0.444861 -1.5296e-19)
(2.92433 -0.593632 -4.79051e-18)
(2.19087 -0.0276237 2.78878e-18)
(2.18384 -0.0833679 8.43046e-18)
(2.16463 -0.144002 -6.53262e-19)
(2.13408 -0.207277 -6.60877e-18)
(2.11306 -0.269436 1.94591e-18)
(0.87944 -0.0018424 5.21227e-18)
(0.876491 -0.00523878 -1.1644e-19)
(0.867373 -0.00956754 -4.2577e-20)
(0.850512 -0.0162536 -2.00944e-18)
(0.841161 -0.0229052 -3.60554e-18)
(1.65316 0.94012 2.27654e-18)
(1.34831 0.816726 -7.90656e-20)
(1.00338 0.658651 -3.55093e-20)
(0.627862 0.449472 -1.9625e-19)
(0.225221 0.18229 -1.34047e-19)
(2.07051 0.892529 -1.21866e-18)
(1.71068 0.777737 -1.20378e-18)
(1.29832 0.632583 7.31792e-19)
(0.834036 0.438717 -4.84047e-19)
(0.312136 0.182084 -4.0594e-21)
(2.4186 0.735859 -5.89065e-19)
(2.01967 0.645357 5.25245e-19)
(1.555 0.52876 2.43648e-18)
(1.01753 0.370195 8.08294e-19)
(0.391335 0.155284 5.26051e-19)
(2.68202 0.486723 1.55671e-20)
(2.25239 0.428295 -2.71582e-19)
(1.74743 0.352325 -6.46747e-19)
(1.15476 0.247646 2.05639e-18)
(0.450324 0.104145 -3.26828e-19)
(2.82547 0.173874 -1.17053e-18)
(2.37728 0.152648 -1.60648e-18)
(1.8494 0.125348 -7.28687e-19)
(1.22671 0.0878345 7.96272e-19)
(0.480855 0.0366868 -3.25827e-19)
(0.241259 0.417394 -2.15128e-18)
(0.17103 0.353847 -1.82429e-18)
(0.103493 0.277373 3.17435e-19)
(0.0457949 0.183888 -4.79953e-20)
(-0.00160755 0.0676729 3.4241e-20)
(0.371172 0.595122 -8.00877e-19)
(0.274225 0.510657 -6.73737e-19)
(0.178865 0.39989 1.33526e-20)
(0.0926336 0.259835 -2.60442e-20)
(0.016892 0.0966378 2.6557e-20)
(0.581667 0.754283 2.18609e-18)
(0.446209 0.65029 -1.51421e-19)
(0.307951 0.507611 -1.4503e-19)
(0.174418 0.328793 -2.15503e-19)
(0.0484324 0.124044 1.67215e-19)
(0.862042 0.875355 -1.29469e-18)
(0.679155 0.758679 1.9744e-18)
(0.485276 0.594329 3.01359e-19)
(0.28834 0.3885 1.02461e-19)
(0.0925502 0.149206 -1.18421e-19)
(1.20369 0.925351 -4.41083e-19)
(0.96911 0.811915 -4.5779e-19)
(0.708588 0.645134 3.59743e-19)
(0.43332 0.429186 3.59102e-19)
(0.148459 0.168534 1.8959e-21)
(0.941522 0.167566 -4.48949e-19)
(1.49531 0.13256 5.15252e-20)
(1.33375 0.195956 1.91486e-20)
(1.01457 0.499233 -5.02704e-19)
(0.599408 0.645822 6.01308e-20)
(0.94773 0.0888769 1.68619e-19)
(1.50682 0.106823 3.03159e-19)
(1.36214 0.245668 2.72733e-19)
(1.06108 0.615155 -5.48094e-20)
(0.78485 0.80389 7.56768e-19)
(0.952621 0.0102952 5.80614e-20)
(1.52265 0.0825415 -2.10956e-20)
(1.36206 0.296124 -5.71929e-20)
(1.1651 0.713591 -4.18595e-19)
(1.03723 0.938326 1.03439e-19)
(0.954608 -0.0664672 -1.90592e-20)
(1.52762 0.0619848 -7.26131e-19)
(1.36429 0.347358 8.04945e-20)
(1.32626 0.781256 1.19361e-18)
(1.33494 1.04265 9.46374e-19)
(0.951839 -0.140966 -2.28515e-20)
(1.50663 0.0533721 2.13103e-19)
(1.38442 0.397334 -6.25168e-20)
(1.51009 0.822802 -3.78474e-19)
(1.63613 1.09243 -2.73087e-18)
(0.936536 -0.235297 2.43564e-19)
(1.45813 0.0206795 4.95938e-19)
(1.46235 0.393552 -3.57166e-20)
(1.76714 0.801244 3.10546e-18)
(2.15325 1.1436 -5.51983e-18)
(0.886117 -0.345145 -2.51023e-20)
(1.32168 -0.0291445 -6.45807e-19)
(1.40217 0.282734 7.03292e-21)
(1.84208 0.595543 -3.06952e-18)
(2.59431 0.900747 1.66986e-18)
(0.786951 -0.411795 5.52996e-18)
(1.07894 -0.0908567 6.89223e-35)
(1.13511 0.150275 -2.12636e-18)
(1.57621 0.340335 2.63223e-18)
(2.45658 0.529702 5.03195e-18)
(0.634656 -0.291763 1.50832e-19)
(0.712946 -0.0718682 5.27004e-19)
(0.732319 0.0519826 2.47768e-19)
(1.07534 0.135187 6.22777e-19)
(1.75836 0.220509 -8.64479e-18)
(0.322665 -0.0431358 -4.30754e-18)
(0.293681 0.00567214 2.84373e-19)
(0.265135 -0.0133318 1.11167e-18)
(0.393451 -0.0240324 -7.70235e-19)
(0.686193 -0.000464358 -1.4663e-18)
(2.34867 1.12127 4.69119e-18)
(2.78732 1.0126 3.47355e-18)
(3.14089 0.803404 -5.69244e-18)
(3.41899 0.519612 -1.46164e-17)
(3.58239 0.185884 1.57638e-17)
(3.07882 1.01886 5.00903e-18)
(3.35402 0.79523 2.56337e-17)
(3.55692 0.560669 7.24238e-18)
(3.70108 0.331823 -3.08283e-17)
(3.77792 0.111138 -5.17331e-18)
(2.90568 0.592014 -7.22812e-18)
(2.98596 0.448103 -3.38034e-18)
(3.05217 0.312109 -6.297e-18)
(3.09524 0.181719 -6.88931e-18)
(3.114 0.0584244 6.52285e-18)
(2.10628 0.265894 5.41607e-18)
(2.13013 0.205739 -4.04591e-19)
(2.16254 0.143033 4.87132e-18)
(2.18312 0.0821297 6.28931e-18)
(2.19077 0.0259954 -5.88792e-18)
(0.842547 0.0220546 -5.74701e-19)
(0.851941 0.0156531 3.52118e-18)
(0.868639 0.00913111 2.44323e-18)
(0.877495 0.00479235 -5.16944e-18)
(0.879839 0.00136145 -3.84291e-20)
(0.281985 0.0207604 5.52143e-19)
(0.656782 0.0404734 -7.43615e-19)
(0.973283 0.0440741 -8.18479e-19)
(0.944452 0.0274362 -1.51803e-18)
(0.697959 0.0163887 -6.63741e-19)
(0.245623 0.0554697 7.45779e-19)
(0.591366 0.107093 1.44152e-18)
(0.86481 0.125163 -6.97406e-19)
(0.940079 0.0970149 1.96084e-18)
(0.724284 0.0532506 -2.70091e-18)
(0.185654 0.0742774 4.96263e-19)
(0.476468 0.145919 -1.39887e-18)
(0.707877 0.18479 -9.13937e-19)
(0.85743 0.17544 -1.8103e-18)
(0.741664 0.101248 -2.86242e-18)
(0.123325 0.0774862 -7.72684e-19)
(0.344816 0.160379 -1.37666e-18)
(0.534612 0.214911 4.39918e-18)
(0.677816 0.233347 -3.66703e-19)
(0.713144 0.180054 2.255e-18)
(0.0752832 0.0723761 -6.2302e-19)
(0.230742 0.160123 1.56429e-18)
(0.372323 0.224555 6.12257e-19)
(0.482874 0.257805 -1.29584e-18)
(0.561383 0.258497 -1.74913e-19)
(0.0451518 0.0637804 8.41144e-20)
(0.149959 0.148774 -1.22211e-18)
(0.24776 0.212163 -9.45285e-19)
(0.325471 0.234124 -8.72719e-20)
(0.371265 0.223875 -5.00197e-20)
(0.0264658 0.055705 3.12217e-19)
(0.0950765 0.134314 5.93406e-19)
(0.160895 0.184853 -2.09406e-19)
(0.213776 0.195491 2.59917e-19)
(0.253633 0.18544 1.71634e-19)
(0.0133361 0.0488637 2.49841e-19)
(0.0586382 0.111454 1.32005e-18)
(0.103752 0.121241 -1.24013e-18)
(0.14275 0.107438 -2.78886e-18)
(0.178965 0.0860031 4.0831e-19)
(0.00619767 0.039348 -2.38054e-19)
(0.0426273 0.0489239 -1.80965e-18)
(0.0799149 0.0219173 3.21953e-18)
(0.119993 -0.00986525 1.31438e-18)
(0.161509 -0.0436465 -2.69469e-19)
(0.00995492 0.00181895 2.09846e-19)
(0.0421358 -0.0500451 -4.52182e-19)
(0.0822369 -0.0962125 8.99972e-20)
(0.130936 -0.144174 1.0502e-19)
(0.181648 -0.190393 1.56179e-21)
(0.338725 0.0720174 -7.50256e-20)
(0.613396 -0.0422207 -1.22606e-18)
(0.703444 -0.0132853 2.5419e-19)
(0.714712 0.00686898 4.03965e-19)
(0.697544 0.00393795 1.20545e-20)
(0.302923 -0.0341983 -1.00135e-19)
(0.750011 -0.114815 1.47138e-18)
(0.887456 -0.0228438 9.19605e-19)
(0.913736 0.0105412 7.56067e-20)
(0.901013 0.00670866 -3.47908e-20)
(0.319817 -0.149655 -8.12917e-19)
(0.834888 -0.198122 3.15981e-18)
(1.04917 -0.0419903 -1.8143e-19)
(1.10073 0.013003 -3.57099e-19)
(1.09309 0.00948389 6.99218e-20)
(0.376148 -0.288449 1.1059e-18)
(0.884444 -0.297741 -2.71613e-18)
(1.17207 -0.0826003 -5.35796e-19)
(1.26735 0.0100146 -3.17857e-20)
(1.2708 0.010771 3.52481e-21)
(0.463015 -0.436906 4.99826e-19)
(0.919847 -0.40524 -5.45713e-19)
(1.25074 -0.142608 4.82414e-19)
(1.4027 -0.00368992 1.1641e-19)
(1.42862 0.009046 3.6827e-21)
(0.18297 -0.0449829 9.55e-19)
(0.144934 -0.0052389 0)
(0.162553 0.00096458 1.16355e-19)
(0.161851 -0.000478034 -7.56672e-21)
(0.155538 -0.000812119 -7.17794e-20)
(0.399704 0.0700104 0)
(0.408456 -0.000462144 0)
(0.466542 -0.00408865 4.97421e-20)
(0.467272 0.0035373 -3.44979e-20)
(0.450585 0.00161229 4.75479e-20)
(0.162695 -0.000821304 -3.68477e-19)
(0.186413 -0.00179202 3.10773e-18)
(0.213224 -0.0050205 -6.86311e-19)
(0.229822 -0.0149888 -3.11708e-18)
(0.245716 -0.0170115 -7.97052e-19)
(0.432052 0.0044415 6.09943e-19)
(0.484583 0.0196967 4.11564e-18)
(0.53648 0.0466995 -6.73006e-18)
(0.567651 0.0806195 2.20944e-18)
(0.598341 0.162224 3.79766e-18)
(0.370746 -0.22069 -3.32705e-19)
(0.324377 -0.231669 -9.31551e-20)
(0.248401 -0.212699 -3.31984e-19)
(0.150771 -0.150747 3.88642e-19)
(0.04587 -0.0645763 1.14031e-19)
(0.257494 -0.169814 4.22828e-19)
(0.215066 -0.181891 1.41417e-18)
(0.162386 -0.177204 2.58394e-19)
(0.0967139 -0.135139 2.36518e-19)
(0.0269142 -0.0572001 -1.87511e-20)
(0.193189 -0.0550216 -3.11755e-19)
(0.151621 -0.0775823 -1.05622e-19)
(0.10879 -0.09514 1.63397e-18)
(0.0623211 -0.0973437 2.8575e-19)
(0.0132581 -0.0480464 -3.14139e-19)
(0.178868 0.0867796 -6.36758e-19)
(0.132793 0.0529184 -7.06128e-19)
(0.0878619 0.019189 1.3108e-18)
(0.0495432 -0.0109238 1.6023e-18)
(0.0112359 -0.0299652 1.9903e-19)
(0.189058 0.244254 1.24065e-19)
(0.134569 0.197945 -1.20119e-19)
(0.0820894 0.148123 2.48627e-19)
(0.0383257 0.0970071 6.24144e-19)
(-0.00223388 0.0356281 9.30136e-20)
(0.697956 -0.0163441 1.5316e-18)
(0.944458 -0.0274136 -1.80085e-18)
(0.973092 -0.0442004 2.27008e-18)
(0.656794 -0.040536 3.64647e-19)
(0.282019 -0.0207691 5.36697e-19)
(0.724273 -0.0531441 1.77268e-18)
(0.939936 -0.0970302 7.94687e-18)
(0.864609 -0.125267 1.03369e-18)
(0.591419 -0.107133 1.34954e-18)
(0.245718 -0.055491 -4.78524e-19)
(0.741578 -0.101005 -1.22134e-18)
(0.856827 -0.175279 -2.29665e-18)
(0.7078 -0.184853 2.92454e-18)
(0.476536 -0.145989 -1.08261e-19)
(0.185777 -0.0743133 3.39514e-19)
(0.712611 -0.17988 1.71015e-20)
(0.677122 -0.233303 -7.68659e-18)
(0.53465 -0.215244 -6.00014e-18)
(0.344953 -0.160714 1.0917e-18)
(0.123508 -0.0775902 5.08045e-19)
(0.558998 -0.257014 4.67642e-19)
(0.481868 -0.257254 5.33575e-19)
(0.3724 -0.225287 -8.99751e-19)
(0.231 -0.160995 -8.88401e-19)
(0.0756315 -0.0726334 -5.14473e-21)
(0.72781 0.373154 1.17603e-18)
(0.880046 0.127867 -1.90532e-19)
(0.676649 0.0198913 2.50664e-19)
(0.644492 0.035737 -7.51493e-19)
(0.362642 -0.061973 -1.00706e-19)
(0.827741 0.398155 -1.70755e-19)
(1.08732 0.158062 -5.76874e-19)
(0.868268 0.0384559 8.37156e-19)
(0.8045 0.0986435 1.67526e-18)
(0.340448 0.0539203 1.03145e-19)
(0.892665 0.372808 -2.26331e-18)
(1.26659 0.172239 -3.76849e-20)
(1.03956 0.0626336 2.52037e-19)
(0.908738 0.177833 1.71039e-18)
(0.364939 0.176514 -1.44796e-18)
(0.924864 0.318278 1.50936e-18)
(1.40653 0.174477 1.58919e-20)
(1.17796 0.0998941 -2.18596e-19)
(0.964748 0.276405 -7.80457e-19)
(0.416067 0.323292 -5.9413e-19)
(0.935566 0.245683 1.81304e-19)
(1.48334 0.157848 4.10345e-20)
(1.27432 0.146004 -8.7325e-20)
(0.993617 0.384333 -1.02623e-19)
(0.486452 0.480752 1.36493e-18)
(0.275691 0.0483708 0)
(0.244277 -0.0112808 6.50477e-19)
(0.15749 -0.0159263 1.27036e-19)
(0.1503 0.0055414 -1.09623e-19)
(0.184388 0.0441138 -1.80778e-18)
(0.573473 0.266359 -1.01985e-17)
(0.609259 0.0751963 -2.56591e-18)
(0.444785 0.0133661 5.00803e-19)
(0.42354 0.000294131 -6.53607e-19)
(0.407583 -0.0683393 -6.62047e-19)
(0.245848 0.0169761 -8.69362e-22)
(0.229916 0.0150778 1.92878e-18)
(0.213301 0.0050643 5.24572e-19)
(0.186463 0.00180201 3.23005e-19)
(0.16271 0.000825172 0)
(0.5992 -0.162132 -1.15778e-19)
(0.568197 -0.080336 2.54678e-18)
(0.536585 -0.0464788 -1.37926e-19)
(0.484642 -0.0196438 -2.70569e-19)
(0.432076 -0.00441922 7.60526e-19)
)
;

boundaryField
{
    left
    {
        type            fixedValue;
        value           uniform (1 0 0);
    }
    right
    {
        type            zeroGradient;
    }
    down
    {
        type            noSlip;
    }
    up
    {
        type            noSlip;
    }
    cylinder
    {
        type            noSlip;
    }
    defaultFaces
    {
        type            empty;
    }
}


// ************************************************************************* //
