/*--------------------------------*- C++ -*----------------------------------*\
  =========                 |
  \\      /  F ield         | OpenFOAM: The Open Source CFD Toolbox
   \\    /   O peration     | Website:  https://openfoam.org
    \\  /    A nd           | Version:  13
     \\/     M anipulation  |
\*---------------------------------------------------------------------------*/
FoamFile
{
    format      ascii;
    class       surfaceScalarField;
    location    "0.525";
    object      phi;
}
// * * * * * * * * * * * * * * * * * * * * * * * * * * * * * * * * * * * * * //

dimensions      [0 3 -1 0 0 0 0];

internalField   nonuniform List<scalar> 
3485
(
0.00137165
-0.0112581
0.00988649
0.00505113
-0.031907
0.0282275
0.0107642
-0.051383
0.0456699
0.0183127
-0.0696768
0.0621283
0.0275459
-0.0868345
0.0776014
0.0383494
-0.1029
0.0920965
0.0506348
-0.117905
0.105619
0.064359
-0.131868
0.118144
0.0796195
-0.144858
0.129597
-0.15689
0.139498
0.0970121
0.00150032
-0.0127585
0.0054458
-0.0358525
0.0114762
-0.0574134
0.0193237
-0.0775243
0.0287732
-0.096284
0.0396474
-0.113774
0.0518021
-0.130059
0.0651294
-0.145196
0.0795379
-0.159266
-0.172194
0.0948416
0.00147416
-0.0142326
0.00532695
-0.0397052
0.0111745
-0.0632609
0.0187209
-0.0850707
0.0277255
-0.105289
0.0379889
-0.124038
0.0493452
-0.141416
0.0616549
-0.157505
0.0747859
-0.172397
-0.186035
0.0886268
0.00133885
-0.0155715
0.00485901
-0.0432254
0.0102109
-0.0686128
0.0171171
-0.0919769
0.025354
-0.113526
0.0347406
-0.133424
0.0451308
-0.151806
0.0564048
-0.168779
0.0684557
-0.184448
-0.198789
0.0812101
0.00116693
-0.0167384
0.00425599
-0.0463145
0.00897317
-0.0733299
0.0150818
-0.0980856
0.0223919
-0.120836
0.0307528
-0.141785
0.0400467
-0.1611
0.0501811
-0.178914
0.0610783
-0.195345
-0.210402
0.0726905
0.000980025
-0.0177184
0.00358797
-0.0489224
0.00758666
-0.0773286
0.012784
-0.103283
0.0190263
-0.127078
0.0261929
-0.148952
0.034192
-0.169099
0.0429542
-0.187676
0.0524245
-0.204816
-0.220549
0.0625719
0.000780731
-0.0184991
0.00286504
-0.0510067
0.00606906
-0.0805327
0.010243
-0.107457
0.0152668
-0.132102
0.0210471
-0.154732
0.0275148
-0.175567
0.0346212
-0.194782
0.0423322
-0.212527
-0.228851
0.0506342
0.000569711
-0.0190689
0.0020935
-0.0525305
0.00443796
-0.0828771
0.00749283
-0.110512
0.0111689
-0.135778
0.0153972
-0.15896
0.020128
-0.180297
0.0253302
-0.199984
0.0309874
-0.218184
-0.234968
0.0371042
0.000352517
-0.0194214
0.0012958
-0.0534738
0.0027451
-0.0843264
0.00462848
-0.112395
0.0068867
-0.138036
0.00947341
-0.161547
0.0123557
-0.18318
0.0155148
-0.203143
0.0189455
-0.221615
-0.238685
0.0226624
0.000137805
-0.0195592
0.000502499
-0.0538385
0.00105704
-0.084881
0.00176966
-0.113108
0.0026139
-0.13888
0.00356865
-0.162502
0.00461842
-0.184229
0.0057537
-0.204279
0.00697104
-0.222832
0.00827551
-0.239989
0.000494847
-0.00187227
0.00137742
0.00210552
-0.00625502
0.00464434
0.00544903
-0.0113996
0.00805611
0.0101376
-0.0161602
0.0114716
0.015567
-0.020151
0.0147217
0.0214724
-0.0235493
0.0176438
0.0279458
-0.0267307
0.0202573
0.0351337
-0.0299223
0.0227345
0.0430217
-0.0330785
0.0251904
-0.0360491
0.0514778
0.027593
0.00042781
-0.00230008
0.00211482
-0.00794204
0.0054465
-0.0147313
0.00983288
-0.0205466
0.0149168
-0.0252349
0.0208032
-0.0294356
0.0276628
-0.0335903
0.0354454
-0.0377049
0.0439422
-0.0415753
-0.0450958
0.0529889
0.000682368
-0.00298245
0.00271507
-0.00997474
0.0057855
-0.0178017
0.00977897
-0.0245401
0.0148434
-0.0302993
0.0211487
-0.035741
0.0286268
-0.0410684
0.0370008
-0.0460789
0.0460525
-0.050627
-0.0547335
0.0556902
0.000867554
-0.00385
0.00305926
-0.0121665
0.0060834
-0.0208259
0.0102131
-0.0286698
0.0157181
-0.0358043
0.0225816
-0.0426045
0.0305633
-0.0490501
0.0394272
-0.0549427
0.049077
-0.0602768
-0.0650869
0.0594304
0.000922158
-0.00477216
0.00319954
-0.0144438
0.00652177
-0.0241481
0.0111245
-0.0332725
0.0171469
-0.0418267
0.0244648
-0.0499224
0.0328871
-0.0574725
0.0423158
-0.0643713
0.0526868
-0.0706479
-0.0762679
0.0638679
0.000943309
-0.00571547
0.00337222
-0.0168728
0.00709277
-0.0278687
0.0121783
-0.038358
0.0186394
-0.0482878
0.0263656
-0.0576486
0.0352598
-0.0663667
0.0452742
-0.0743857
0.0563299
-0.0817036
-0.0882071
0.0682692
0.000979669
-0.00669514
0.00358378
-0.0194769
0.00764182
-0.0319267
0.0131087
-0.0438249
0.0199289
-0.055108
0.0280163
-0.065736
0.0373088
-0.0756592
0.04776
-0.0848369
0.0592968
-0.0932404
-0.100685
0.0717742
0.00101786
-0.00771301
0.00376758
-0.0222266
0.00807119
-0.0362303
0.0138204
-0.0495741
0.0209208
-0.0622084
0.0292836
-0.0740988
0.0388393
-0.0852148
0.0495311
-0.0955287
0.0613003
-0.10501
-0.113431
0.0740467
0.00105455
-0.00876756
0.00393661
-0.0251086
0.00846094
-0.0407546
0.0144822
-0.0555954
0.0218744
-0.0696006
0.0305271
-0.0827515
0.0403452
-0.0950329
0.0512397
-0.106423
0.0631299
-0.1169
-0.126312
0.0760108
0.00111893
0.00423779
0.00915307
0.0156859
0.0236867
0.0330318
0.043618
0.0553387
0.0680361
0.0812219
0.114389
-0.413999
0.351088
0.168174
-0.470997
0.417212
0.210224
-0.420796
0.378746
0.243891
-0.325204
0.291537
0.270333
-0.21283
0.186388
0.290276
-0.107912
0.0879682
0.302444
-0.0277977
0.0156304
0.306735
0.00958024
-0.013872
0.307152
0.0149407
-0.0153571
0.0109619
-0.00961672
0.116004
-0.477015
0.169796
-0.52479
0.21186
-0.46286
0.245299
-0.358643
0.271849
-0.23938
0.292329
-0.128391
0.306499
-0.0419671
0.313906
0.00217292
0.317052
0.0117946
0.0108285
0.117829
-0.539154
0.170663
-0.577623
0.212367
-0.504564
0.245253
-0.391529
0.271692
-0.265818
0.292314
-0.149014
0.307076
-0.0567296
0.315787
-0.00653762
0.321371
0.00621037
0.00855106
0.120209
-0.599932
0.171047
-0.628462
0.211907
-0.545425
0.243951
-0.423573
0.270069
-0.291937
0.290747
-0.169691
0.305531
-0.0715138
0.314675
-0.0156812
0.320895
-9.82487e-06
0.00561411
0.123097
-0.659161
0.171159
-0.676524
0.210613
-0.584878
0.241557
-0.454517
0.26712
-0.3175
0.287851
-0.190422
0.30275
-0.0864127
0.312548
-0.025479
0.319566
-0.00702784
0.00194009
0.125942
-0.716834
0.171036
-0.721618
0.208575
-0.622417
0.238205
-0.484147
0.262953
-0.342248
0.283698
-0.211167
0.299005
-0.10172
0.309839
-0.0363135
0.318054
-0.0152422
-0.00290277
0.127869
-0.772929
0.170497
-0.764246
0.205851
-0.65777
0.234021
-0.512317
0.257693
-0.36592
0.278321
-0.231795
0.294364
-0.117762
0.306628
-0.0485774
0.316385
-0.0249995
-0.00931091
0.127941
-0.826823
0.169064
-0.805369
0.202312
-0.691018
0.228991
-0.538996
0.251399
-0.388328
0.271714
-0.25211
0.288797
-0.134845
0.302907
-0.0626872
0.313863
-0.035955
-0.0168199
0.125853
-0.876666
0.166328
-0.845844
0.197908
-0.722598
0.223213
-0.564301
0.244216
-0.409331
0.263894
-0.271789
0.282183
-0.153134
0.298048
-0.0785523
0.307199
-0.0451064
-0.0225115
0.122162
-0.917606
0.16149
-0.885172
0.191767
-0.752876
0.21598
-0.588514
0.235663
-0.429014
0.254588
-0.290713
0.274017
-0.172562
0.288211
-0.0927466
0.294694
-0.0515899
-0.0283023
0.583926
-0.920072
-0.58146
0.561183
-0.862429
0.523991
-0.715684
0.487928
-0.55245
0.460355
-0.401441
0.445735
-0.276093
0.441307
-0.168134
0.43738
-0.08882
0.432923
-0.0471325
-0.0266458
0.682851
-0.871481
-0.731442
0.619724
-0.799302
0.554051
-0.650011
0.496837
-0.495237
0.452343
-0.356948
0.422288
-0.246038
0.407248
-0.153094
0.400567
-0.0821383
0.396036
-0.0426017
-0.0241997
0.754025
-0.775083
-0.850424
0.655234
-0.700511
0.563719
-0.558495
0.48799
-0.419508
0.430681
-0.299638
0.391653
-0.20701
0.370473
-0.131914
0.361118
-0.0727834
0.355878
-0.0373616
-0.0212851
0.779053
-0.641631
-0.912505
0.65388
-0.575338
0.546523
-0.451138
0.46146
-0.334446
0.398869
-0.237047
0.355961
-0.164102
0.330837
-0.10679
0.319068
-0.0610149
0.313187
-0.0314801
-0.0179727
0.753029
-0.492405
-0.902254
0.617653
-0.439962
0.50634
-0.339825
0.420374
-0.248479
0.358044
-0.174717
0.315094
-0.121152
0.288612
-0.0803081
0.275191
-0.0475934
0.268631
-0.0249206
-0.0143556
0.685131
-0.345821
-0.831716
0.552751
-0.307582
0.446542
-0.233616
0.366157
-0.168094
0.308598
-0.117159
0.268845
-0.0813986
0.243397
-0.0548597
0.229504
-0.0337012
0.222567
-0.0179836
-0.0105729
0.582633
-0.213854
-0.7146
0.462917
-0.187866
0.369368
-0.140067
0.300033
-0.0987589
0.251081
-0.0682069
0.217237
-0.0475547
0.194941
-0.0325632
0.181961
-0.0207216
0.175205
-0.011227
-0.00686492
0.448766
-0.105521
-0.557099
0.351193
-0.0902925
0.277084
-0.0659584
0.223572
-0.0452463
0.186362
-0.0309974
0.160589
-0.0217814
0.143185
-0.0151593
0.132478
-0.0100145
0.126663
-0.0054122
-0.00356769
0.286595
-0.0302199
-0.361895
0.220917
-0.0246148
0.172503
-0.0175443
0.138728
-0.0114715
0.11552
-0.00778888
0.0993051
-0.00556679
0.0881038
-0.0039581
0.0808682
-0.00277885
0.0768974
-0.00144134
-0.00112625
0.101316
-0.131536
0.0767016
0.0591572
0.0476857
0.0398969
0.0343301
0.030372
0.0275931
0.0261518
0.738822
0.010223
-0.74077
0.733076
0.0284088
0.723437
0.0467437
0.710163
0.0639082
0.693568
0.0791661
0.674073
0.0921859
0.652267
0.103016
0.628705
0.112189
0.604257
0.119289
0.119809
0.84555
0.0133992
-0.848726
0.837322
0.0366368
0.827287
0.0567781
0.816592
0.0746037
0.805248
0.0905104
0.792891
0.104542
0.779276
0.116632
0.764577
0.126888
0.749108
0.134757
0.137475
0.844986
0.0114265
-0.843013
0.848887
0.0327365
0.853025
0.0526402
0.856476
0.0711518
0.858838
0.088149
0.859924
0.103456
0.859598
0.116958
0.857968
0.128519
0.855298
0.137427
0.14235
0.800215
0.00930542
-0.798094
0.805823
0.0271281
0.814422
0.0440418
0.825641
0.0599319
0.839009
0.0747819
0.85386
0.0886039
0.869433
0.101385
0.88507
0.112882
0.899959
0.122539
0.129803
0.737867
0.00703957
-0.735601
0.744156
0.0208392
0.754125
0.0340722
0.767506
0.046551
0.784087
0.058201
0.803667
0.0690241
0.825998
0.0790538
0.850636
0.0882438
0.876562
0.0966124
0.104111
0.653921
0.0048546
-0.651736
0.660204
0.0145566
0.670379
0.0238967
0.684223
0.0327078
0.701527
0.0408965
0.722115
0.0484366
0.745811
0.0553579
0.772337
0.0617177
0.801227
0.0677215
0.0736231
0.549112
0.00291651
-0.547174
0.554813
0.0088562
0.564139
0.0145708
0.576906
0.0199402
0.592916
0.0248869
0.61197
0.0293829
0.633873
0.0334544
0.65841
0.0371808
0.685384
0.0407472
0.0444076
0.422792
0.00137594
-0.421252
0.427413
0.00423609
0.435008
0.00697568
0.445422
0.00952589
0.45847
0.0118388
0.473957
0.0138957
0.491698
0.0157139
0.511529
0.0173499
0.533348
0.0189274
0.0206567
0.273828
0.000366724
-0.272819
0.276915
0.00114947
0.281999
0.00189175
0.288955
0.0025694
0.297629
0.00316444
0.307856
0.00366912
0.319482
0.00408802
0.332395
0.00443667
0.346562
0.00476043
0.0053233
0.100484
-0.100117
0.101633
0.103525
0.106094
0.109259
0.112928
0.117016
0.121453
0.126213
0.0779407
0.159494
-0.142478
-0.0949567
0.0630343
0.147453
-0.132546
0.0496231
0.1344
-0.120989
0.0376065
0.120328
-0.108312
0.0270285
0.105168
-0.0945903
0.017979
0.0888931
-0.0798437
0.0105734
0.0714602
-0.0640546
0.00496353
0.0528096
-0.0471997
0.00134806
0.0328747
-0.0292592
0.0116392
-0.0102912
0.0779477
0.174427
-0.0928802
0.063876
0.161524
0.050843
0.147433
0.0389402
0.132231
0.0282773
0.115831
0.0190009
0.0981696
0.0112899
0.0791712
0.00535968
0.0587398
0.00147723
0.0367571
0.0131164
0.0731848
0.187924
-0.0866817
0.0603737
0.174336
0.0483527
0.159454
0.0372501
0.143334
0.0272039
0.125877
0.0183796
0.106994
0.0109767
0.0865741
0.00523535
0.0644811
0.00144962
0.0405429
0.0145661
0.066775
0.20035
-0.0792016
0.0550358
0.186075
0.0440511
0.170439
0.0339227
0.153462
0.024767
0.135033
0.0167272
0.115034
0.00998168
0.0933196
0.00475143
0.0697114
0.00130963
0.0439847
0.0158757
0.0593154
0.211655
-0.0706204
0.0487173
0.196673
0.0388686
0.180288
0.0298419
0.162489
0.0217246
0.14315
0.0146297
0.122129
0.00870232
0.0992469
0.00412641
0.0742873
0.00113094
0.0469801
0.0170066
0.0506001
0.22152
-0.060465
0.0414124
0.205861
0.0329284
0.188772
0.0251977
0.17022
0.0182839
0.150064
0.0122722
0.12814
0.00727494
0.104244
0.0034365
0.0781257
0.000937266
0.0494794
0.0179439
0.0404586
0.229564
-0.0485022
0.0330136
0.213306
0.0261769
0.195608
0.0199776
0.176419
0.0144575
0.155584
0.00967746
0.13292
0.00572041
0.108201
0.00269373
0.0811524
0.000731825
0.0514413
0.0186757
0.0290549
0.235442
-0.0349328
0.0236517
0.218709
0.0187149
0.200545
0.0142552
0.180879
0.0102962
0.159543
0.00687749
0.136339
0.00405556
0.111023
0.00190424
0.0833037
0.000515269
0.0528303
0.019191
0.0169177
0.238926
-0.0204024
0.013742
0.221884
0.0108549
0.203432
0.00825477
0.183479
0.00595141
0.161847
0.00396642
0.138324
0.00233212
0.112657
0.00109063
0.0845452
0.000293229
0.0536276
0.0194842
0.00482767
-0.00589031
0.00388024
0.00303385
0.00228324
0.00162802
0.0010719
0.000621545
0.000285789
7.49592e-05
0.0436158
0.0413449
-0.052504
-0.0324567
0.0352479
0.0382981
-0.0299301
0.0275873
0.0349021
-0.0272415
0.0208586
0.0312931
-0.0245644
0.0150618
0.0277314
-0.0219346
0.00995606
0.0241761
-0.0190703
0.00542752
0.0200412
-0.0155126
0.00196695
0.0144351
-0.0109745
0.000384434
0.00738103
-0.00579851
0.00208374
-0.0016993
0.0437633
0.0505173
-0.0529357
0.0351103
0.0469511
0.027069
0.0429434
0.0199223
0.0384398
0.0139846
0.0336692
0.00926057
0.0289001
0.0055054
0.0237963
0.00257179
0.0173687
0.000619809
0.00933301
0.00270355
0.0449844
0.0600812
-0.0545483
0.0360529
0.0558825
0.0278053
0.051191
0.0203597
0.0458854
0.0140421
0.0399867
0.00911605
0.0338262
0.00552586
0.0273865
0.00289583
0.0199988
0.000809717
0.0114191
0.00351327
0.0474295
0.0702769
-0.0576251
0.0379843
0.0653277
0.0294041
0.0597712
0.0217273
0.0535623
0.0150802
0.0466338
0.00972234
0.0391841
0.00577511
0.0313338
0.00296576
0.0228081
0.000876864
0.013508
0.00439013
0.0508944
0.0812124
-0.0618299
0.0407814
0.0754407
0.0316545
0.068898
0.0235762
0.0616406
0.0165702
0.0536398
0.010764
0.0449903
0.00629322
0.0358045
0.00306759
0.0260337
0.000882347
0.0156933
0.00527248
0.0545814
0.092818
-0.066187
0.0438517
0.0861704
0.034161
0.0785887
0.0255844
0.0702172
0.018144
0.0610802
0.0118964
0.0512379
0.00693691
0.040764
0.0032829
0.0296878
0.000909959
0.0180662
0.00618244
0.0576229
0.104907
-0.0697121
0.046456
0.0973373
0.036346
0.0886987
0.0273531
0.07921
0.0195135
0.0689198
0.0128777
0.0578737
0.0075254
0.0461163
0.00352794
0.0336852
0.000960473
0.0206337
0.00714291
0.0596689
0.117241
-0.0720022
0.0482856
0.108721
0.0379378
0.0990465
0.028671
0.0884769
0.0205368
0.077054
0.0136044
0.0648062
0.00796482
0.0517559
0.00372334
0.0379267
0.00100576
0.0233513
0.00814867
0.0614746
0.1297
-0.0739335
0.0499722
0.120223
0.0394189
0.1096
0.0298864
0.0980094
0.0214609
0.0854795
0.0142394
0.0720276
0.00833635
0.0576589
0.00388538
0.0423777
0.00104212
0.0261945
0.00919079
0.0663249
-0.0791036
0.0540015
0.0426121
0.0323096
0.0231988
0.0153827
0.00898708
0.00416507
0.00110037
0.214266
0.060445
-0.0767211
0.236671
0.0898974
-0.112303
0.2607
0.123615
-0.147644
0.27493
0.114135
-0.128365
0.274484
0.110891
-0.110445
0.252133
0.179801
-0.157449
0.21829
0.293836
-0.259993
0.174516
0.41209
-0.368316
0.118263
0.493967
-0.437714
0.461024
-0.395265
0.21362
0.044815
0.234842
0.0686748
0.257962
0.100495
0.27266
0.0994369
0.273747
0.109804
0.252503
0.201046
0.218602
0.327737
0.174392
0.4563
0.118028
0.550331
0.526116
0.213239
0.0295661
0.233624
0.0482896
0.255892
0.0782276
0.270777
0.084552
0.272102
0.108479
0.251425
0.221723
0.217533
0.361629
0.173231
0.500602
0.117913
0.605649
0.589482
0.213057
0.0144993
0.233022
0.0283241
0.254536
0.0567136
0.269275
0.0698128
0.269729
0.108025
0.248988
0.242463
0.215198
0.39542
0.171387
0.544413
0.118483
0.658552
0.65034
0.213064
-0.000574734
0.232944
0.00844407
0.253733
0.0359247
0.267728
0.0558174
0.266501
0.109252
0.245225
0.263739
0.211761
0.428884
0.169257
0.586917
0.119862
0.707947
0.708372
0.213271
-0.0158559
0.233242
-0.0115265
0.253239
0.0159272
0.265795
0.0432612
0.262279
0.112768
0.240212
0.285807
0.207451
0.461645
0.167107
0.627261
0.121595
0.753459
0.76378
0.213593
-0.0314588
0.233741
-0.0316745
0.252812
-0.00314454
0.263275
0.032799
0.257011
0.119032
0.234127
0.308691
0.202534
0.493238
0.164929
0.664865
0.122801
0.795587
0.816869
0.213823
-0.0472919
0.23427
-0.0521218
0.252217
-0.0210916
0.259942
0.0250746
0.250585
0.128388
0.227063
0.332213
0.19706
0.52324
0.162307
0.699618
0.122467
0.835427
0.867334
0.213793
-0.0630951
0.234727
-0.0730561
0.251279
-0.0376434
0.255812
0.0205415
0.243229
0.140972
0.21937
0.356072
0.191155
0.551455
0.158826
0.731948
0.120202
0.874051
0.913603
0.213719
-0.0788245
0.235001
-0.0943378
0.249943
-0.0525859
0.250505
0.0199795
0.234388
0.15709
0.21041
0.38005
0.183908
0.577957
0.153621
0.762235
0.11651
0.911161
0.95101
0.33193
-0.108744
0.370726
-0.133134
0.407015
-0.0888744
0.424991
0.00200322
0.439767
0.142314
0.467623
0.352193
0.506645
0.538935
0.54959
0.719291
0.581342
0.879408
0.945876
0.586475
0.333409
-0.140142
0.373073
-0.172799
0.408504
-0.124306
0.424028
-0.0135201
0.437405
0.128937
0.47653
0.313068
0.534485
0.48098
0.604519
0.649257
0.675382
0.808545
0.888303
0.732956
0.335952
-0.174084
0.374896
-0.211743
0.408817
-0.158227
0.420903
-0.025606
0.430162
0.119678
0.475062
0.268168
0.546973
0.409069
0.639011
0.557219
0.742344
0.705213
0.784237
0.846409
0.339982
-0.212056
0.37299
-0.244751
0.385524
-0.170762
0.383847
-0.0239287
0.400713
0.102812
0.45378
0.215101
0.534657
0.328191
0.640798
0.451078
0.767216
0.578795
0.646917
0.904537
0.348094
-0.25814
0.356193
-0.252849
0.338456
-0.153025
0.336174
-0.0216471
0.359711
0.0792754
0.414601
0.160212
0.49762
0.245172
0.608094
0.340604
0.743854
0.443035
0.495783
0.894988
0.340909
-0.297039
0.321315
-0.233255
0.288537
-0.120247
0.285199
-0.0183089
0.309716
0.0547582
0.361491
0.108437
0.439991
0.166672
0.545887
0.234708
0.678833
0.310088
0.347943
0.826673
0.314291
-0.30932
0.271634
-0.190598
0.234063
-0.0826763
0.229405
-0.0136503
0.251614
0.0325487
0.296454
0.0635971
0.364767
0.0983588
0.458401
0.141075
0.578831
0.189658
0.215086
0.711689
0.273786
-0.281096
0.212929
-0.129741
0.174618
-0.0443655
0.169249
-0.00828091
0.186649
0.0151481
0.221174
0.0290721
0.274271
0.0452615
0.348722
0.0666244
0.447063
0.0913164
0.106133
0.556016
0.214644
-0.193729
0.140493
-0.0555907
0.109517
-0.0133889
0.104316
-0.00308058
0.115595
0.00386988
0.137406
0.00726015
0.171148
0.0115195
0.219986
0.0177866
0.286342
0.0249609
0.0304064
0.362068
0.108281
0.0526904
0.0393015
0.0362209
0.0400908
0.047351
0.0588705
0.0766571
0.101618
0.132024
0.608638
-0.117119
0.632307
-0.11655
0.655129
-0.109504
0.676284
-0.100357
0.69523
-0.0895667
0.711369
-0.0766039
0.724264
-0.0613967
0.733591
-0.0442605
0.739077
-0.0258879
-0.00758343
0.750296
-0.134459
0.765204
-0.131458
0.779412
-0.123711
0.79264
-0.113584
0.804706
-0.101633
0.815844
-0.0877419
0.826401
-0.0719538
0.836392
-0.0542513
0.844842
-0.0343379
-0.0114674
0.851036
-0.139086
0.853484
-0.133906
0.855002
-0.125229
0.855381
-0.113964
0.854534
-0.100786
0.852633
-0.085841
0.849905
-0.0692261
0.846746
-0.0510924
0.843952
-0.0315433
-0.0105293
0.89259
-0.127138
0.878568
-0.119884
0.863881
-0.110543
0.84931
-0.0993929
0.83546
-0.0869349
0.823028
-0.0734093
0.812641
-0.0588391
0.804759
-0.0432108
0.799747
-0.0265307
-0.0088762
0.870348
-0.102498
0.845575
-0.0951116
0.821962
-0.0869296
0.8005
-0.0779312
0.78166
-0.0680954
0.765718
-0.0574668
0.752892
-0.0460135
0.743405
-0.0337232
0.737525
-0.0206507
-0.00695268
0.797016
-0.0728403
0.768945
-0.0670405
0.743128
-0.0611132
0.72004
-0.0548432
0.699973
-0.0480281
0.683113
-0.0406065
0.669642
-0.0325426
0.659769
-0.0238504
0.653726
-0.0146075
-0.00496299
0.68299
-0.0441413
0.656502
-0.040553
0.632401
-0.0370126
0.610878
-0.0333196
0.592144
-0.0292945
0.576395
-0.024857
0.563827
-0.0199754
0.554646
-0.0146688
0.549043
-0.00900485
-0.00309419
0.532509
-0.0206338
0.510906
-0.0189505
0.491273
-0.017379
0.473701
-0.0157482
0.458348
-0.0139416
0.445395
-0.011904
0.435036
-0.00961558
0.427457
-0.00709033
0.422823
-0.00437112
-0.00152258
0.346786
-0.00535148
0.332644
-0.0048088
0.31975
-0.00448455
0.308135
-0.00413327
0.297906
-0.00371335
0.289213
-0.0032106
0.282217
-0.00261979
0.277074
-0.00194721
0.273912
-0.00120932
-0.000429125
0.126673
0.121864
0.11738
0.113246
0.109533
0.106322
0.103703
0.101755
0.100546
0.000185052
0.0116088
-0.0117939
0.000623722
0.0304455
-0.0308842
0.00123713
0.0462403
-0.0468537
0.00197728
0.0594658
-0.060206
0.00277655
0.0700196
-0.0708189
0.00376944
0.079887
-0.0808799
0.00396338
0.0772652
-0.0774592
0.00408474
0.0700405
-0.0701619
0.00394486
0.061078
-0.0609381
0.0499546
0.00350712
-0.0495169
0.000533383
0.0110754
0.00180382
0.0291751
0.003585
0.0444592
0.00574111
0.0573097
0.00807263
0.0676881
0.0110394
0.0769203
0.0116757
0.0766289
0.0120806
0.0696357
0.0117733
0.0613852
0.051077
0.010651
0.000835477
0.01024
0.00283176
0.0271788
0.00563898
0.0416519
0.00904134
0.0539074
0.0127391
0.0639903
0.0172471
0.0724124
0.0187898
0.0750862
0.0195714
0.0688541
0.0193852
0.0615714
0.0524335
0.0180287
0.00105595
0.00918402
0.00359691
0.0246378
0.00719345
0.0380554
0.0115556
0.0495453
0.0163562
0.0591897
0.0217473
0.0670213
0.0250722
0.0717613
0.0263545
0.0675718
0.0266028
0.0613232
0.0535653
0.025471
0.00115142
0.0080326
0.00397921
0.02181
0.00804153
0.0339931
0.0129967
0.0445902
0.0185513
0.053635
0.0245571
0.0610155
0.0299517
0.0663667
0.0320895
0.0654339
0.0330109
0.0604018
0.0540901
0.0324861
0.00111146
0.00692115
0.0039659
0.0189556
0.00818541
0.0297736
0.01339
0.0393856
0.0193177
0.0477073
0.0257716
0.0545616
0.0324155
0.0597229
0.036312
0.0615374
0.0381238
0.05859
0.053706
0.0385078
0.000926225
0.00599492
0.00357291
0.0163089
0.00771055
0.0256359
0.0128816
0.0342146
0.0187865
0.0418024
0.025338
0.0480101
0.0323207
0.0527402
0.0382746
0.0555835
0.0415865
0.0552782
0.0521819
0.0431106
0.000567869
0.00542706
0.00278668
0.0140901
0.00665754
0.0217651
0.0116214
0.0292507
0.0172044
0.0362194
0.0234475
0.041767
0.030286
0.0459017
0.0371837
0.0486858
0.0425603
0.0499016
0.0489235
0.0458186
0.000103913
0.00532314
0.00176878
0.0124252
0.00517599
0.0183579
0.00981528
0.0246114
0.0149575
0.0310772
0.0206217
0.0361028
0.0269038
0.0396197
0.033587
0.0420026
0.0400843
0.0434043
0.0437959
0.0452119
-0.000175378
0.00549852
0.00108725
0.0111626
0.00385647
0.0155886
0.00788725
0.0205807
0.012502
0.0264624
0.0175723
0.0310325
0.0231775
0.0340144
0.029249
0.0359312
0.0356347
0.0370185
0.0373703
0.0420603
-2.0764e-05
0.00551929
0.00114065
0.0100012
0.00327841
0.0134509
0.00641401
0.0174451
0.0102957
0.0225807
0.0148367
0.0264915
0.0199555
0.0288956
0.0254867
0.0304
0.0312231
0.031282
0.0316977
0.0368957
0.000377852
0.00514144
0.00153228
0.00884678
0.00318114
0.011802
0.00549171
0.0151345
0.00870993
0.0193625
0.0128936
0.0223079
0.0177434
0.0240458
0.0230085
0.0251349
0.0284978
0.0257927
0.0260634
0.0341321
0.000624208
0.00451723
0.00170689
0.00776409
0.00302701
0.0104819
0.00484527
0.0133162
0.0078328
0.0163749
0.0119187
0.018222
0.0166672
0.0192973
0.0218383
0.0199638
0.0272994
0.0203316
0.0204136
0.0329493
0.000676539
0.00384068
0.00164201
0.00679861
0.00282026
0.00930365
0.00469863
0.0114379
0.00796809
0.0131054
0.0121948
0.0139952
0.0170082
0.0144839
0.0222464
0.0147257
0.0278126
0.0147654
0.0146051
0.033621
0.00066307
0.00317761
0.00155218
0.00590949
0.00298988
0.00786595
0.00557272
0.008855
0.00936168
0.00931648
0.0138819
0.00947499
0.0189237
0.00944211
0.0243874
0.00926197
0.030205
0.00894782
0.00850529
0.0363048
0.000593296
0.00258431
0.00171202
0.00479076
0.00405442
0.00552354
0.0075112
0.00539822
0.011765
0.00506267
0.016614
0.00462602
0.0219564
0.00409966
0.027733
0.00348542
0.0338922
0.00278862
0.00202214
0.0403753
0.000522949
0.00206136
0.00248121
0.00283248
0.00574858
0.00225616
0.00974772
0.00139907
0.0143399
0.000470477
0.0194788
-0.000512879
0.0251339
-0.00155544
0.0312625
-0.00264315
0.0378039
-0.00375284
-0.00487232
0.0446984
0.00087139
0.00118996
0.00361746
8.63959e-05
0.0071814
-0.00130778
0.0113691
-0.0027886
0.0161664
-0.00432682
0.0215833
-0.00592985
0.027579
-0.00755108
0.0340633
-0.00912751
0.0409535
-0.010643
-0.0121272
0.0482084
0.00150574
-0.000315785
0.00413787
-0.00254575
0.00756197
-0.00473189
0.0117781
-0.00700473
0.0167933
-0.00934207
0.0225306
-0.0116671
0.0288243
-0.0138448
0.0355535
-0.0158567
0.0426916
-0.0177811
-0.0196738
0.0502382
0.00106163
0.00316021
0.00648444
0.0109513
0.0163309
0.0223076
0.02872
0.0355978
0.0430071
0.0509264
0.0513755
0.0837989
-0.0982787
0.0772214
-0.00731607
-0.0185298
0.0998076
-0.0509689
0.0283827
0.113436
-0.0468816
0.0332532
0.121358
-0.0266411
0.0187187
0.124949
-0.0078696
0.00427944
0.126003
0.0032842
-0.00433883
0.126378
0.00637268
-0.00674795
0.126974
0.0055785
-0.00617443
0.00268718
-0.00403698
0.0585623
0.0593686
0.0915735
-0.0403274
0.11871
-0.0781055
0.13467
-0.0628417
0.143355
-0.0353256
0.146973
-0.0114876
0.147741
0.00251635
0.147801
0.00631257
0.148179
0.00520032
0.00159666
0.0665671
0.0257508
0.104943
-0.0787034
0.135914
-0.109076
0.155496
-0.0824241
0.16545
-0.0452798
0.169129
-0.0151667
0.169494
0.00215193
0.169069
0.00673765
0.169044
0.00522451
0.000927856
0.0754441
-0.0160723
0.117775
-0.121034
0.151636
-0.142937
0.174978
-0.105766
0.18698
-0.0572813
0.190981
-0.0191679
0.190966
0.00216625
0.189991
0.00771283
0.189461
0.00575459
0.000787399
0.0845014
-0.064269
0.129604
-0.166136
0.165627
-0.178961
0.192275
-0.132415
0.207179
-0.0721844
0.212098
-0.0240869
0.211887
0.00237728
0.210387
0.00921255
0.209315
0.00682684
0.00122791
0.0929693
-0.116863
0.140097
-0.213264
0.177797
-0.216661
0.206999
-0.161616
0.225186
-0.0903718
0.231938
-0.0308383
0.231927
0.00238789
0.230045
0.0110945
0.228474
0.00839787
0.00224279
0.100187
-0.172352
0.148983
-0.26206
0.188051
-0.255729
0.219071
-0.192636
0.240302
-0.111603
0.249854
-0.0403906
0.250713
0.00152917
0.248731
0.0130769
0.24679
0.0103388
0.00376471
0.105806
-0.229949
0.156138
-0.312392
0.196339
-0.29593
0.228603
-0.2249
0.2522
-0.1352
0.265108
-0.0532981
0.267784
-0.00114754
0.266163
0.014698
0.264086
0.012416
0.00565719
0.109806
-0.289517
0.161596
-0.364182
0.202692
-0.337025
0.235778
-0.257986
0.260934
-0.160356
0.277049
-0.0694133
0.282567
-0.00666535
0.281995
0.0152699
0.280136
0.0142746
0.00771588
0.112497
0.165527
0.207248
0.240798
0.26683
0.285386
0.294351
0.295749
0.294666
0.0131987
0.00607886
-0.0192776
0.0109806
0.00221814
0.0114915
-0.000510912
0.0129061
-0.0014146
0.0136103
-0.000704263
0.0137257
-0.000115364
0.01351
0.000215689
0.0132049
0.000305154
0.0129545
0.000250363
0.000259987
0.0372433
0.0232195
-0.054384
0.0314685
0.0079929
0.0339547
-0.00299704
0.0379869
-0.00544683
0.0401341
-0.00285151
0.0405213
-0.000502561
0.0399071
0.000829917
0.0390307
0.00118164
0.0382376
0.00104346
0.000859164
0.0579546
0.0481077
-0.0828427
0.0508401
0.0151074
0.0558108
-0.00796778
0.0623509
-0.0119869
0.0659811
-0.00648171
0.0667182
-0.00123964
0.065765
0.00178313
0.0643567
0.00259002
0.0630525
0.00234769
0.00172639
0.073889
0.075424
-0.101205
0.0680214
0.020975
0.0763352
-0.0162815
0.0856179
-0.0212697
0.0908888
-0.0117526
0.0921154
-0.00246616
0.090916
0.00298256
0.0890349
0.00447107
0.0872956
0.00408709
0.00280652
0.0813792
-0.104234
0.0838242
0.0959253
0.107909
0.114875
0.116688
0.115332
0.113055
0.110968
0.00273359
-0.000172921
-0.00256067
0.00326445
-0.000530856
0.00417666
-0.000912205
0.00548768
-0.00131102
0.00718405
-0.00169637
0.00922857
-0.00204452
0.0115851
-0.00235655
0.0141734
-0.00258826
0.0168584
-0.00268502
-0.00241919
0.00778721
-0.00064568
-0.00731445
0.00923406
-0.00197771
0.0117134
-0.0033915
0.0152697
-0.00486732
0.0198838
-0.00631053
0.0254817
-0.00764241
0.0319639
-0.00883875
0.0391551
-0.00977949
0.0467661
-0.0102961
-0.0100371
0.0124777
-0.00138372
-0.0117397
0.0147273
-0.00422734
0.0185601
-0.00722428
0.0240239
-0.0103311
0.0310784
-0.013365
0.0395851
-0.0161491
0.0493269
-0.0185805
0.0600498
-0.0205025
0.0714133
-0.0216596
-0.0214665
0.016807
-0.00234764
-0.0158431
0.0197311
-0.0071515
0.0246742
-0.0121674
0.0316506
-0.0173075
0.040549
-0.0222634
0.051105
-0.0267051
0.0629358
-0.0304114
0.075692
-0.0332587
0.0888575
-0.034825
-0.0338144
0.0207924
-0.019633
0.0242919
0.0301533
0.0383167
0.0485394
0.0603422
0.0730414
0.0856013
0.0959881
0.031459
-0.0312988
0.0371062
-0.0372664
0.0255965
-0.0308958
0.0367583
0.0199361
-0.0300631
0.0357235
0.0146876
-0.0286673
0.0339158
0.0100654
-0.0264594
0.0310816
0.00620788
-0.0227739
0.0266315
0.00311616
-0.0176462
0.020738
0.00101921
-0.013621
0.0157179
-8.56017e-05
-0.0101597
0.0112645
-0.00563946
0.00555387
0.0294831
-0.025433
-0.0353489
0.0237649
-0.0251776
0.0182727
-0.0245709
0.013184
-0.0235787
0.00875157
-0.0220269
0.00535732
-0.0193797
0.00302439
-0.0153133
0.00139978
-0.0119964
0.000300045
-0.00905998
-0.00533941
0.0294585
-0.0194426
-0.0354489
0.0236523
-0.0193714
0.0181329
-0.0190514
0.013017
-0.0184628
0.00850744
-0.0175173
0.00505477
-0.015927
0.00301204
-0.0132706
0.00164986
-0.0106342
0.00058527
-0.00799538
-0.00475414
0.0313715
-0.0131787
-0.0376354
0.0253422
-0.0133421
0.0196309
-0.0133401
0.0143241
-0.0131559
0.00956058
-0.0127538
0.00566467
-0.0120311
0.00320682
-0.0108127
0.00176728
-0.00919464
0.000730128
-0.00695822
-0.00402401
0.0349509
-0.00652554
-0.0416041
0.0285798
-0.00697093
0.0225625
-0.0073228
0.0169655
-0.00755888
0.0118795
-0.00766782
0.0074888
-0.00764034
0.00414272
-0.0074666
0.00199741
-0.00704932
0.000799907
-0.00576072
-0.0032241
0.0392375
0.000575627
-0.0463387
0.0324615
-0.000194956
0.026083
-0.00094429
0.0201762
-0.001652
0.0148014
-0.00229308
0.010022
-0.0028609
0.00592155
-0.00336615
0.00267345
-0.00380121
0.000720373
-0.00380763
-0.00250372
0.0430377
0.00808193
-0.050544
0.0358716
0.00697113
0.0290995
0.00582785
0.0228207
0.00462682
0.0171361
0.00339144
0.0120851
0.00219016
0.00764992
0.00106903
0.00383854
1.01787e-05
0.00097617
-0.000945248
-0.00152754
0.045287
0.0158723
-0.0530773
0.0378722
0.014386
0.0308308
0.0128692
0.0242003
0.0112574
0.0181232
0.00946852
0.0127835
0.00752986
0.00825826
0.00559427
0.00452458
0.00374387
0.00162353
0.00195581
9.6e-05
0.0454334
0.0239585
-0.0535197
0.0378303
0.0219891
0.0307134
0.0199861
0.0239969
0.0179739
0.0176513
0.0158141
0.0118716
0.0133096
0.00703111
0.0104347
0.00341086
0.00736412
0.00114478
0.0042219
0.00124079
0.0443915
-0.0528898
0.0364505
0.0291951
0.0226046
0.0164841
0.0107234