/*--------------------------------*- C++ -*----------------------------------*\
  =========                 |
  \\      /  F ield         | OpenFOAM: The Open Source CFD Toolbox
   \\    /   O peration     | Website:  https://openfoam.org
    \\  /    A nd           | Version:  13
     \\/     M anipulation  |
\*---------------------------------------------------------------------------*/
FoamFile
{
    format      ascii;
    class       volScalarField;
    location    "0.525";
    object      strainRateViscosityModel:nu;
}
// * * * * * * * * * * * * * * * * * * * * * * * * * * * * * * * * * * * * * //

dimensions      [0 2 -1 0 0 0 0];

internalField   nonuniform List<scalar> 
1800
(
9.40488
9.19759
9.01004
8.80091
8.5761
8.34408
8.11542
7.89817
7.6243
7.37943
9.58523
9.41878
9.26689
9.09731
8.91114
8.71139
8.50353
8.28865
8.02733
7.70218
9.70219
9.56269
9.42803
9.27095
9.08866
8.87896
8.64088
8.36901
8.03059
7.61067
9.77539
9.65614
9.53324
9.38287
9.20048
8.9817
8.72279
8.41595
8.02879
7.55461
9.82168
9.7183
9.60558
9.46166
9.2807
9.05695
8.78548
8.45888
8.04776
7.55618
9.85185
9.76081
9.6573
9.52059
9.34355
9.11896
8.84034
8.50016
8.07152
7.57022
9.87179
9.78991
9.69399
9.56396
9.39147
9.16769
8.8842
8.53252
8.08736
7.57569
9.88475
9.80925
9.71888
9.59395
9.42495
9.20146
8.9131
8.55005
8.08853
7.56356
9.8926
9.82107
9.73416
9.6122
9.44467
9.21963
8.92484
8.54923
8.07121
7.52872
9.89646
9.82686
9.74153
9.6207
9.4531
9.22574
8.92513
8.53953
8.05038
7.49285
1.7752
1.40522
1.21513
1.32459
1.72976
2.24653
2.49285
2.44909
2.3608
2.33699
3.70168
1.78584
1.49766
1.98153
2.68959
2.96924
2.82043
2.67698
2.69186
2.7441
4.68475
2.57484
2.43983
3.17317
3.5917
3.34888
3.08837
3.12378
3.26168
3.34156
5.26013
3.88501
3.81701
4.21089
4.17949
3.83323
3.7261
3.85821
3.95995
4.00907
6.05237
5.27653
5.11838
5.12021
4.91494
4.65531
4.58035
4.61422
4.61487
4.65489
6.95871
6.46026
6.2269
6.03779
5.78815
5.54594
5.39014
5.29472
5.22414
5.2769
7.77141
7.37777
7.11672
6.86001
6.58715
6.32052
6.08755
5.9017
5.77145
5.82518
8.40005
8.05528
7.79192
7.51557
7.22624
6.93102
6.64218
6.38662
6.19294
6.23014
8.84933
8.54534
8.29092
8.01016
7.70551
7.37929
7.03552
6.70121
6.41611
6.42231
9.16164
8.90152
8.66628
8.39658
8.09559
7.76563
7.40637
7.03568
6.70878
6.75282
2.19421
1.72998
1.33209
0.934478
0.613157
0.334176
0.154637
0.0953581
0.103521
0.154989
2.53003
1.85101
1.40965
0.933121
0.59005
0.318255
0.137988
0.0569607
0.0405234
0.068988
2.95133
1.98125
1.48381
0.933654
0.558736
0.294546
0.121892
0.0372521
0.0201377
0.015214
3.44393
2.15142
1.5559
0.938692
0.523704
0.266126
0.105015
0.028482
0.017317
0.0109471
3.9859
2.38916
1.6333
0.948593
0.487967
0.234347
0.0886403
0.0247924
0.0168044
0.0108542
4.53093
2.6999
1.72919
0.964988
0.454365
0.199885
0.0730233
0.0230552
0.0168004
0.0108129
4.99895
3.05934
1.8507
0.98743
0.423603
0.163454
0.0576796
0.0219692
0.0168023
0.0108928
5.31451
3.44218
2.01758
1.02997
0.402922
0.128544
0.0423762
0.0203924
0.0150998
0.0195204
5.34489
3.72542
2.16696
1.06181
0.38055
0.0952156
0.0288466
0.0174302
0.0178414
0.0942554
5.20352
3.99169
2.40271
1.16565
0.398123
0.0791316
0.0174071
0.0127443
0.0830601
0.181565
4.94603
3.94503
2.4595
1.17933
0.372023
0.0515251
0.0118854
0.0777036
0.176936
0.266757
5.33228
3.35037
2.14115
0.996216
0.350628
0.11358
0.0978942
0.184229
0.270584
0.372813
4.9056
3.04381
2.24234
1.1942
0.577759
0.272794
0.190655
0.254601
0.354212
0.455369
4.5452
3.62781
2.67539
1.6316
0.883076
0.475928
0.320447
0.349484
0.43364
0.528746
5.11278
4.74581
3.34008
2.15998
1.23339
0.7163
0.481705
0.452769
0.511773
0.589297
6.25417
5.66915
4.05694
2.67299
1.59737
0.97362
0.663248
0.571224
0.591197
0.640619
7.26274
6.37384
4.71432
3.15526
1.95794
1.23722
0.855062
0.698115
0.671606
0.683785
8.00017
6.91221
5.2605
3.59001
2.30137
1.50073
1.05164
0.831358
0.753973
0.721745
8.51879
7.33086
5.69785
3.97094
2.62175
1.75591
1.24252
0.960133
0.831025
0.752636
8.93102
7.69126
6.05012
4.28366
2.92651
2.02859
1.45795
1.11032
0.924747
0.789391
6.51283
6.43966
6.43046
6.4488
6.48745
6.5301
6.58222
6.71083
6.8956
6.82675
0.260746
1.0573
2.00799
2.92316
3.70421
4.31697
4.73387
4.98357
5.22284
5.72908
3.85065
3.54369
3.28435
3.11102
3.10607
3.24978
3.47218
3.71355
4.16532
4.84561
6.64426
6.6273
6.53717
6.34465
6.0431
5.65747
5.24894
4.89515
4.73839
4.54834
7.69189
7.67658
7.63216
7.54133
7.39616
7.18986
6.92702
6.61932
6.28561
5.65571
8.44954
8.43314
8.39437
8.32774
8.2296
8.09675
7.9284
7.71686
7.42791
6.90776
8.93969
8.92395
8.8903
8.8368
8.76168
8.66292
8.53818
8.37895
8.1547
7.80866
9.27299
9.25982
9.23246
9.18986
9.13052
9.05246
8.9527
8.82483
8.65283
8.43093
9.50446
9.49417
9.47308
9.44024
9.39426
9.33319
9.25424
9.15287
9.02289
8.87535
9.6899
9.68285
9.66852
9.64604
9.61405
9.5707
9.51361
9.43975
9.34638
9.2441
7.24853
7.52648
7.83701
8.08763
8.34472
8.59953
8.84131
9.06154
9.25457
9.46027
7.58336
7.94816
8.24096
8.48106
8.70928
8.92475
9.12226
9.29898
9.45391
9.61807
7.49866
7.95742
8.32593
8.62045
8.8757
9.09769
9.28803
9.44951
9.58536
9.72227
7.44699
7.95764
8.37374
8.70196
8.97655
9.20594
9.3947
9.54806
9.67131
9.78824
7.45639
7.98067
8.41859
8.76487
9.05052
9.28355
9.46977
9.61591
9.72869
9.83023
7.48245
8.01168
8.464
8.82145
9.11233
9.34474
9.52606
9.66447
9.76796
9.85764
7.50365
8.03786
8.50277
8.86862
9.16197
9.39189
9.56764
9.6989
9.79479
9.8757
7.51115
8.05246
8.52871
8.90208
9.19746
9.42521
9.5964
9.72213
9.81243
9.88729
7.49836
8.05045
8.53742
8.91898
9.21768
9.44503
9.61372
9.73606
9.8229
9.89404
7.48288
8.04359
8.53593
8.92344
9.22526
9.4533
9.62124
9.74217
9.82746
9.89694
2.55106
2.50857
2.52787
2.73836
2.91783
2.54105
1.69044
1.17917
1.52004
4.17611
2.96065
2.87244
2.71414
2.71406
3.10272
3.42436
2.81259
1.90041
2.11896
5.1262
3.45274
3.40856
3.25043
3.06524
3.26639
3.82362
3.79972
3.15472
3.28093
5.45011
3.94759
3.93633
3.90904
3.79928
3.89196
4.31885
4.5884
4.46394
4.65484
5.90838
4.5014
4.47384
4.5485
4.61906
4.7819
5.11464
5.43794
5.61701
5.89334
6.62825
5.10432
5.06174
5.20073
5.39817
5.65806
5.98078
6.30837
6.59444
6.89937
7.40509
5.65587
5.61949
5.81972
6.09155
6.40817
6.74088
7.06827
7.37763
7.67811
8.08599
6.06823
6.05344
6.31596
6.6427
6.99501
7.33963
7.66702
7.9739
8.2587
8.61091
6.26142
6.28007
6.63139
7.02598
7.42
7.78421
8.11651
8.41652
8.68272
8.98794
6.60089
6.57051
6.95624
7.37948
7.78121
8.14296
8.4664
8.75035
8.99297
9.25188
0.106803
0.153885
0.110187
0.0525474
0.0130735
0.370892
0.910516
1.46933
1.9407
2.42506
0.0729581
0.138877
0.106141
0.0523749
0.0138953
0.36088
0.917682
1.53634
2.02415
2.69535
0.0512471
0.131212
0.105211
0.0560963
0.0227689
0.363426
0.930151
1.59182
2.09982
3.01017
0.0385168
0.130595
0.108336
0.0648577
0.0409097
0.37613
0.943761
1.63436
2.20733
3.3996
0.0324205
0.135519
0.113971
0.0760425
0.0646327
0.392065
0.954465
1.67418
2.38723
3.87054
0.0316302
0.144205
0.120368
0.0869067
0.0897137
0.406883
0.965178
1.73393
2.654
4.36737
0.0361859
0.156074
0.126069
0.0953606
0.111298
0.41714
0.980293
1.8302
2.98532
4.79755
0.0472006
0.171957
0.130701
0.101357
0.128675
0.430747
1.02359
1.98885
3.35145
5.08173
0.0672053
0.192413
0.134385
0.101414
0.133324
0.433209
1.06106
2.13929
3.62933
5.0846
0.0989465
0.214737
0.138833
0.10484
0.150112
0.48077
1.19716
2.39708
3.8792
4.89305
0.157061
0.242575
0.146865
0.102754
0.139069
0.47848
1.25852
2.50931
3.8882
4.67545
0.261181
0.272851
0.136781
0.0803503
0.0756392
0.374325
1.12288
2.30563
3.43346
5.19488
0.426157
0.27042
0.108318
0.0177456
0.0146122
0.31851
1.1357
2.34381
3.25412
4.93922
0.678988
0.258014
0.0231752
0.0815383
0.111884
0.519884
1.41848
2.61353
3.70868
4.69593
1.06253
0.0495707
0.25357
0.251025
0.328051
0.881504
1.92706
3.19974
4.70309
5.17482
1.51476
0.115505
0.533813
0.431653
0.611307
1.30407
2.4716
3.91446
5.59742
6.2226
2.19394
0.686022
0.850883
0.70517
0.957356
1.73854
2.99219
4.59277
6.30232
7.21639
3.79175
1.70459
1.27244
1.05105
1.33286
2.15378
3.46288
5.16531
6.85429
7.96888
6.86001
3.57612
1.96255
1.43382
1.69319
2.5298
3.87627
5.63178
7.29534
8.50728
9.04904
6.38398
2.84455
2.01203
2.1282
2.90475
4.2282
6.02002
7.6866
8.93806
6.62555
6.68839
6.5115
6.38958
6.34906
6.32275
6.30567
6.31739
6.36197
6.47627
5.53055
5.0116
4.76751
4.52613
4.1277
3.54149
2.79934
1.9326
1.04497
0.284334
4.85101
4.23725
3.82732
3.61639
3.4293
3.30968
3.3146
3.45705
3.65501
3.87414
4.71059
4.88397
5.02672
5.33667
5.70135
6.05203
6.33385
6.52146
6.61664
6.64169
5.68645
6.28508
6.6119
6.9112
7.17237
7.38153
7.53188
7.62822
7.67676
7.69245
6.86566
7.38857
7.68448
7.90239
8.07667
8.21491
8.31786
8.3886
8.43058
8.44892
7.76519
8.12056
8.35203
8.51796
8.648
8.75102
8.82958
8.88584
8.92166
8.93901
8.4046
8.63271
8.8089
8.94094
9.04402
9.12466
9.18597
9.23007
9.25855
9.2726
8.86615
9.01619
9.14761
9.25059
9.33082
9.39282
9.43943
9.47267
9.494
9.50442
9.24866
9.35042
9.44299
9.51629
9.57293
9.61587
9.64747
9.66956
9.68348
9.69011
9.50942
8.98526
8.23579
6.92815
5.59791
0.131167
3.36079
5.96031
7.21398
8.15176
9.46537
8.92148
8.16802
6.89048
5.54933
0.563761
2.62217
5.70594
6.91632
7.91385
9.36563
8.78273
8.02016
6.8095
5.36629
1.60347
1.41353
5.20657
6.30923
7.40318
9.18248
8.54502
7.77437
6.65499
5.18636
2.74001
0.723065
4.23832
5.42146
6.57134
8.86802
8.17346
7.40386
6.37679
5.02641
3.36799
0.970931
2.63157
4.31687
5.39366
8.35041
7.62957
6.87324
5.91711
4.76498
3.43998
1.71921
1.30187
3.04925
3.98805
7.5359
6.89642
6.15534
5.22739
4.29955
3.26949
2.14303
1.17237
1.65626
2.55745
6.32523
6.03735
5.28111
4.23176
3.53343
2.91263
2.11836
1.43495
1.06838
1.23551
4.63156
5.23199
4.4741
2.99954
2.43721
2.27461
1.85594
1.3845
1.12231
0.659012
2.67265
4.53915
4.02136
1.96687
1.39696
1.48847
1.40979
1.21127
1.06356
0.844729
1.27662
3.78813
3.66622
1.33772
0.816408
0.897543
0.970647
0.955644
0.971109
1.01929
0.6134
2.96817
3.08131
0.957235
0.575404
0.639387
0.758439
0.818973
0.843056
0.876158
0.355321
2.18739
2.28397
0.688506
0.492016
0.593937
0.724759
0.80918
0.847123
0.872048
0.265317
1.54877
1.48764
0.520619
0.532606
0.671888
0.785338
0.85644
0.88001
0.89044
0.239736
1.01865
0.844192
0.51137
0.666493
0.800154
0.901373
0.964926
0.980784
0.977866
0.24305
0.494816
0.497825
0.632814
0.813681
0.951105
1.04893
1.1068
1.11753
1.10948
0.178955
0.203739
0.505227
0.752652
0.970589
1.11641
1.20652
1.25388
1.27064
1.27111
0.0458438
0.249537
0.646913
0.919092
1.13275
1.25091
1.3273
1.39658
1.45241
1.47388
0.058835
0.490699
0.81993
1.09452
1.22963
1.33824
1.48698
1.64387
1.73069
1.74651
0.685323
0.860932
1.04048
1.18653
1.32535
1.59567
1.90547
2.07521
2.07872
2.04661
0.362874
0.0801149
0.222338
0.547498
0.790065
0.885737
0.876559
0.823907
0.780265
0.771348
0.461627
0.201068
0.317063
0.51818
0.719687
0.80529
0.797288
0.750147
0.713365
0.716957
0.52479
0.369947
0.437266
0.510238
0.649537
0.725517
0.719616
0.676912
0.646139
0.66086
0.637104
0.584653
0.591936
0.551693
0.58365
0.638563
0.636747
0.601198
0.577937
0.603137
0.803254
0.799499
0.737681
0.63367
0.538408
0.55135
0.551844
0.524621
0.509257
0.543764
1.00601
0.994926
0.870354
0.73237
0.526931
0.469397
0.465396
0.447292
0.440259
0.482682
1.22364
1.16636
0.984939
0.819728
0.548074
0.402621
0.380149
0.370087
0.371248
0.419987
1.44842
1.32094
1.08394
0.881815
0.58368
0.360516
0.30023
0.294089
0.302599
0.355226
1.68178
1.46556
1.17137
0.917219
0.612313
0.343924
0.231936
0.220863
0.234556
0.289641
1.92495
1.60236
1.25279
0.931932
0.622292
0.340462
0.182589
0.153306
0.167851
0.21957
2.00889
0.746903
0.715542
0.961066
1.19091
1.27624
1.2506
1.17901
1.11363
1.0405
1.39434
0.482632
0.577199
0.870602
1.10329
1.19048
1.16891
1.10198
1.04074
0.981371
0.751688
0.287818
0.479502
0.793877
1.02946
1.11887
1.10078
1.03745
0.980231
0.932534
0.2536
0.17012
0.403929
0.722329
0.954842
1.04305
1.02681
0.966821
0.914004
0.879244
0.435946
0.0327937
0.266081
0.609896
0.859465
0.959381
0.950721
0.895556
0.847273
0.825425
9.35459
9.29
9.14093
8.87301
8.43745
7.77876
6.8712
5.75915
4.5818
3.53689
9.19241
9.09559
8.88102
8.51155
7.94138
7.13631
6.10947
4.95492
3.8446
2.78667
9.02381
8.90019
8.62652
8.16093
7.46161
6.51598
5.37125
4.16847
3.08115
1.94232
8.81624
8.66212
8.3214
7.7478
6.90601
5.81407
4.55482
3.29471
2.22585
1.09017
8.58741
8.37929
7.92572
7.17731
6.11236
4.79195
3.35058
2.08519
0.994135
0.302037
1.06092
1.02519
1.01724
1.02082
0.916007
0.800243
1.29387
3.68205
3.85855
1.32361
0.950009
0.934666
0.927265
0.871862
0.719883
0.5895
0.911861
3.13995
3.10766
0.647865
0.986694
0.983179
0.966388
0.893615
0.748373
0.585794
0.699823
2.36948
2.34274
0.37772
1.05358
1.06536
1.06116
1.0014
0.890336
0.741769
0.657115
1.5533
1.62904
0.277455
1.18504
1.20899
1.21453
1.16683
1.07606
0.9514
0.788855
0.906088
0.914394
0.24636
1.34844
1.36826
1.37642
1.35095
1.28071
1.14746
0.926525
0.6668
0.356347
0.216439
1.55035
1.54632
1.51426
1.47192
1.42025
1.31263
1.07278
0.749491
0.271508
0.0662561
1.81548
1.80869
1.72633
1.5748
1.43618
1.33908
1.20235
0.894482
0.490914
0.0466735
2.09437
2.14082
2.13763
1.94377
1.60349
1.31795
1.18288
1.05017
0.848684
0.671412
2.3034
2.35047
2.4738
2.52215
2.21816
1.62163
1.17808
1.06426
1.29805
2.02093
8.15157
7.21362
5.95995
3.36028
0.131424
5.59645
6.92766
8.23559
8.98528
9.50952
7.91316
6.91521
5.70494
2.62157
0.563632
5.54548
6.88903
8.16744
8.92153
9.46568
7.40173
6.30735
5.20478
1.41541
1.59976
5.3618
6.80723
8.01929
8.78286
9.36622
6.5687
5.41857
4.23615
0.726226
2.73173
5.18163
6.65214
7.77339
8.54535
9.18351
5.38928
4.31236
2.63249
0.97105
3.35668
5.02046
6.37334
7.40293
8.1742
8.86978
3.97962
3.04125
1.31002
1.71339
3.42674
4.75609
5.9123
6.87235
7.63104
8.35338
2.54071
1.65307
1.18734
2.1331
3.25082
4.28281
5.21862
6.1544
6.89927
7.54124
1.21696
1.08764
1.45216
2.10748
2.88036
3.50288
4.2173
5.28173
6.04321
6.336
0.67153
1.15332
1.40758
1.84263
2.23203
2.40027
2.98378
4.47884
5.24302
4.65579
0.885437
1.10293
1.24779
1.41328
1.4642
1.36931
1.94342
4.0256
4.56436
2.71721
2.08924
0.543241
1.05916
0.634308
0.668815
0.760273
0.632376
0.299718
0.0629265
0.356783
1.62921
0.237352
0.867144
0.484421
0.574955
0.68244
0.592426
0.356308
0.266705
0.488977
1.3332
0.0578422
0.638881
0.346592
0.486101
0.602268
0.560324
0.459348
0.47357
0.591591
1.09649
0.0149649
0.390275
0.238835
0.40078
0.517793
0.560123
0.625673
0.731614
0.758353
0.845706
0.0908462
0.187942
0.164161
0.321806
0.440368
0.606443
0.803353
0.971842
0.976226
0.633282
0.155489
0.0510248
0.107892
0.248316
0.38404
0.691302
0.970682
1.18865
1.22145
0.46076
0.209837
0.0511052
0.0497061
0.183027
0.362028
0.782572
1.11096
1.37799
1.47495
0.327917
0.211342
0.104076
0.0104158
0.121551
0.368818
0.85207
1.22396
1.54691
1.72714
0.228648
0.197004
0.113303
0.0378382
0.0599791
0.381718
0.890483
1.31593
1.69879
1.96645
0.156968
0.174406
0.115876
0.0500244
0.023449
0.383569
0.905458
1.3958
1.83187
2.18995
9.33656
6.77029
2.66585
1.70271
1.20714
1.12544
0.96999
0.784808
0.797862
2.03342
8.2109
4.63637
2.21546
1.421
1.07535
1.04022
0.895468
0.653676
0.529181
1.3987
6.12006
3.06388
1.78541
1.21401
0.971028
0.975397
0.835546
0.563297
0.329805
0.740925
4.13288
1.87579
1.49689
1.00779
0.86556
0.907623
0.77815
0.489096
0.229519
0.224425
2.83502
1.06134
1.24513
0.8077
0.762731
0.829073
0.687026
0.356671
0.0444336
0.397788
3.54771
4.58904
5.76306
6.87335
7.78029
8.43858
8.87379
9.14141
9.29026
9.35468
2.78084
3.8409
4.95216
6.10769
7.13569
7.94139
8.51177
8.88125
9.09575
9.19248
1.9283
3.07175
4.162
5.36649
6.51344
7.46047
8.1605
8.62644
8.90021
9.02384
1.05491
2.20269
3.28135
4.54657
5.80987
6.9038
7.74668
8.32093
8.66197
8.81621
0.300265
0.961963
2.06352
3.33721
4.78497
6.10878
7.17534
7.92477
8.37892
8.58732
)
;

boundaryField
{
    left
    {
        type            calculated;
        value           nonuniform List<scalar> 
35
(
0.299464
0.570641
0.99054
1.62681
2.52411
3.69496
5.06576
6.47612
8.15853
9.4418
0.204839
0.125381
0.0750879
0.046296
0.0321635
0.0277403
0.0321903
0.0500446
0.0897603
0.158945
4.93337
4.0613
3.23414
2.51229
1.91638
1.42587
1.02861
0.720934
0.49046
0.322731
9.61572
8.97909
7.92211
6.84788
5.85948
)
;
    }
    right
    {
        type            calculated;
        value           nonuniform List<scalar> 
35
(
1.04014
0.981467
0.933283
0.88113
0.828745
0.776308
0.723553
0.668873
0.612342
0.553908
0.49343
0.430881
0.365658
0.298886
0.226768
0.15952
0.0695961
0.014475
0.0105917
0.0105558
0.0105038
0.010634
0.0210325
0.105778
0.201488
0.290948
0.398215
0.480989
0.55265
0.609828
0.656386
0.694159
0.727134
0.754391
0.787557
)
;
    }
    down
    {
        type            calculated;
        value           nonuniform List<scalar> 
40
(
9.4543
7.26628
2.89671
1.79167
1.24755
1.15392
0.995794
0.826481
0.898913
2.2606
3.83287
4.88232
6.03377
7.09269
7.94446
8.5549
8.95438
9.19918
9.33558
9.39482
9.39473
9.3353
9.19866
8.95351
8.55357
7.94253
7.08979
6.02859
4.873
3.81866
2.23199
0.846977
0.759373
0.992914
1.22244
1.30567
1.27757
1.20379
1.13689
1.05937
)
;
    }
    up
    {
        type            calculated;
        value           nonuniform List<scalar> 
40
(
9.03411
7.80888
6.16794
4.39529
3.03445
2.12363
1.5309
1.15862
0.953835
0.801109
9.72927
9.72305
9.71045
9.69064
9.66234
9.62377
9.57263
9.50586
9.42075
9.32814
9.33502
9.42653
9.51037
9.57621
9.62664
9.6646
9.69238
9.71168
9.72379
9.72951
9.27072
7.09646
3.24032
2.16289
2.247
3.02473
4.35052
6.14959
7.81371
9.04491
)
;
    }
    cylinder
    {
        type            calculated;
        value           nonuniform List<scalar> 
80
(
1.96588
4.5306
5.51341
5.7659
6.29968
7.08888
7.86137
8.47468
8.91244
9.21291
9.44582
9.61872
9.72982
9.7983
9.84096
9.86846
9.8865
9.89817
9.90522
9.90869
9.50042
9.65063
9.74904
9.81047
9.849
9.87389
9.89016
9.90055
9.90657
9.90913
5.29797
6.22376
6.20698
6.31139
6.83139
7.52513
8.17568
8.68588
9.05067
9.30253
0.9949
0.471918
0.264396
0.183348
0.159827
0.165749
0.0829562
0.0421248
0.746613
2.40342
9.59442
9.55584
9.4674
9.30181
9.0097
8.51126
7.68616
6.3666
4.38773
2.2396
9.59432
9.55552
9.46678
9.30072
9.00784
8.50808
7.68039
6.35437
4.35805
2.1912
0.952686
0.442169
0.244262
0.170804
0.150312
0.165496
0.162325
0.0847014
0.0433801
0.722557
)
;
    }
    defaultFaces
    {
        type            empty;
    }
}


// ************************************************************************* //
