/*--------------------------------*- C++ -*----------------------------------*\
  =========                 |
  \\      /  F ield         | OpenFOAM: The Open Source CFD Toolbox
   \\    /   O peration     | Website:  https://openfoam.org
    \\  /    A nd           | Version:  13
     \\/     M anipulation  |
\*---------------------------------------------------------------------------*/
FoamFile
{
    format      ascii;
    class       volVectorField;
    location    "0.525";
    object      U;
}
// * * * * * * * * * * * * * * * * * * * * * * * * * * * * * * * * * * * * * //

dimensions      [0 1 -1 0 0 0 0];

internalField   nonuniform List<vector> 
1800
(
(0.097802 -0.0883297 -4.49123e-20)
(0.286897 -0.241953 -3.41309e-20)
(0.473973 -0.379045 -4.85054e-19)
(0.65769 -0.500156 1.91481e-19)
(0.836607 -0.607165 7.43757e-20)
(1.00991 -0.701365 -3.90485e-20)
(1.17714 -0.783449 5.54774e-20)
(1.33792 -0.85365 1.97136e-19)
(1.49157 -0.91292 5.92096e-19)
(1.6335 -0.966844 8.0987e-19)
(0.119062 -0.0915036 -7.91213e-20)
(0.344293 -0.247711 -7.70623e-19)
(0.563284 -0.384751 3.78157e-21)
(0.775364 -0.504236 1.25791e-19)
(0.979502 -0.608918 -1.26284e-19)
(1.17521 -0.700688 7.66291e-20)
(1.3623 -0.780775 -2.80934e-19)
(1.54076 -0.850078 -5.01895e-20)
(1.71008 -0.910675 -6.93259e-19)
(1.86783 -0.967004 6.29577e-19)
(0.141652 -0.0923237 4.88233e-20)
(0.403682 -0.247733 2.09291e-19)
(0.653756 -0.382118 5.43348e-19)
(0.892178 -0.497905 -1.90275e-19)
(1.11865 -0.598383 -1.43011e-19)
(1.33321 -0.685808 7.56249e-20)
(1.53605 -0.761697 9.82925e-20)
(1.72742 -0.827284 1.94079e-19)
(1.90719 -0.884781 2.73526e-21)
(2.07419 -0.937841 1.50987e-19)
(0.163907 -0.0897214 -4.57195e-20)
(0.4617 -0.239471 -2.04394e-19)
(0.74143 -0.367619 -1.81263e-19)
(1.00451 -0.476977 -1.42306e-19)
(1.25162 -0.571021 1.81322e-19)
(1.48351 -0.652124 -5.70934e-20)
(1.70092 -0.7219 -4.31145e-21)
(1.90453 -0.781613 2.95665e-21)
(2.09454 -0.833352 -1.60404e-19)
(2.27024 -0.880337 -1.0599e-19)
(0.184659 -0.0833569 -1.14044e-19)
(0.515896 -0.221808 8.76354e-20)
(0.823294 -0.339432 1.79848e-19)
(1.10931 -0.439064 2.43314e-19)
(1.37561 -0.524071 -2.85037e-19)
(1.62371 -0.596776 -3.58079e-21)
(1.85494 -0.658763 4.25008e-19)
(2.07042 -0.711256 -1.85051e-19)
(2.27083 -0.756155 -1.23991e-19)
(2.45577 -0.796384 -5.3595e-20)
(0.203191 -0.0735004 1.73595e-19)
(0.564473 -0.195201 1.02987e-18)
(0.896794 -0.298075 1.43257e-19)
(1.20352 -0.384736 -5.03155e-19)
(1.48719 -0.458227 -1.75511e-19)
(1.75003 -0.520668 6.37716e-19)
(1.9939 -0.573523 -1.45393e-19)
(2.22036 -0.617896 -4.31621e-19)
(2.43047 -0.655439 -3.16618e-19)
(2.62419 -0.688734 2.61592e-19)
(0.218899 -0.0605916 1.16342e-19)
(0.605748 -0.160701 -7.47605e-19)
(0.959317 -0.245031 -1.08563e-18)
(1.28371 -0.315799 3.83796e-19)
(1.58223 -0.375564 4.4996e-19)
(1.85768 -0.426128 -9.0211e-22)
(2.11239 -0.468738 -6.39714e-19)
(2.34829 -0.504323 2.19318e-19)
(2.56683 -0.534209 -3.6441e-19)
(2.76828 -0.560564 -3.11175e-19)
(0.231237 -0.0451725 -3.42492e-19)
(0.638202 -0.119685 -6.92614e-19)
(1.00849 -0.182295 1.21223e-18)
(1.34678 -0.2347 5.98711e-19)
(1.65694 -0.278853 -2.69766e-19)
(1.94225 -0.316135 -2.11501e-19)
(2.20544 -0.347514 0)
(2.44875 -0.373687 1.16813e-19)
(2.67399 -0.39562 -2.95845e-19)
(2.88172 -0.414966 -7.74527e-20)
(0.239767 -0.0278755 -2.04469e-19)
(0.660655 -0.073756 5.62397e-19)
(1.04249 -0.112199 1.71016e-19)
(1.39032 -0.144289 -5.12505e-19)
(1.70841 -0.171277 -7.84209e-19)
(2.00038 -0.194053 3.66211e-20)
(2.26925 -0.213244 1.67122e-19)
(2.51753 -0.229292 -5.46852e-19)
(2.74732 -0.242782 -2.89759e-19)
(2.95954 -0.254775 -5.63587e-19)
(0.244261 -0.00940245 4.51416e-19)
(0.672456 -0.024704 3.44158e-19)
(1.06031 -0.0373615 -9.38602e-20)
(1.41304 -0.0477882 -1.29828e-20)
(1.73515 -0.0564617 -3.87512e-19)
(2.03042 -0.0637224 -8.57319e-20)
(2.30206 -0.0698091 -2.90582e-19)
(2.55276 -0.074889 6.46566e-19)
(2.78481 -0.0791696 1.71004e-19)
(2.99946 -0.0830102 2.226e-21)
(-0.00234949 -0.0218162 -3.17956e-20)
(0.00867174 -0.0693225 -7.13911e-20)
(0.0249747 -0.120264 -7.29099e-21)
(0.0493863 -0.170804 -3.43082e-20)
(0.0777392 -0.216144 -1.27115e-20)
(0.106611 -0.25431 -3.89807e-19)
(0.135673 -0.288266 -1.93111e-20)
(0.166477 -0.32157 1.19896e-19)
(0.199306 -0.355051 1.10006e-20)
(0.233198 -0.387385 -3.60068e-20)
(0.000839459 -0.024728 -9.77508e-20)
(0.0149677 -0.0851031 -2.1029e-19)
(0.0393426 -0.160096 -5.63796e-20)
(0.0692766 -0.224894 -1.10753e-19)
(0.0995475 -0.275187 -9.74626e-20)
(0.130571 -0.31764 -2.80849e-19)
(0.164617 -0.358615 2.01134e-19)
(0.20228 -0.399968 1.68005e-19)
(0.241782 -0.439838 -2.55657e-19)
(0.281305 -0.476191 8.09711e-20)
(0.00549008 -0.0315327 -8.54261e-20)
(0.0287844 -0.107438 -8.61233e-19)
(0.0628243 -0.195934 -1.28065e-19)
(0.0974452 -0.268729 9.47039e-20)
(0.131867 -0.326975 6.80273e-20)
(0.169744 -0.380018 -4.53904e-19)
(0.213043 -0.431984 3.60523e-20)
(0.259233 -0.481416 3.66781e-19)
(0.305596 -0.525844 -3.857e-19)
(0.351567 -0.565218 -2.58154e-19)
(0.0113676 -0.0410213 -1.80425e-21)
(0.0466239 -0.130886 1.88943e-19)
(0.0896163 -0.225238 1.66236e-21)
(0.133071 -0.306899 -1.10451e-20)
(0.177819 -0.377716 -3.02192e-20)
(0.22729 -0.443653 8.85171e-20)
(0.281139 -0.505354 7.40564e-20)
(0.335719 -0.560578 -1.36387e-19)
(0.389804 -0.609031 9.21377e-21)
(0.443991 -0.651574 -1.04404e-20)
(0.0185098 -0.0507935 0)
(0.0672358 -0.152434 5.42251e-21)
(0.121924 -0.253593 -5.07564e-19)
(0.178688 -0.345404 5.11746e-20)
(0.237816 -0.428476 -1.16545e-20)
(0.300527 -0.504942 7.44834e-21)
(0.365321 -0.574178 -2.58851e-20)
(0.429828 -0.635196 -7.81365e-21)
(0.49398 -0.688568 0)
(0.558182 -0.734549 -2.05905e-20)
(0.0273276 -0.0596625 3.17089e-20)
(0.0918941 -0.172863 -1.53571e-19)
(0.161758 -0.282507 -4.54603e-20)
(0.234622 -0.383853 -5.85102e-20)
(0.309732 -0.476691 4.97328e-20)
(0.386732 -0.561438 4.43707e-21)
(0.464236 -0.637565 9.17e-20)
(0.540934 -0.70477 -2.17581e-20)
(0.616908 -0.763236 -6.9711e-19)
(0.692159 -0.81241 -1.01112e-20)
(0.037977 -0.0676116 7.00308e-22)
(0.121237 -0.192184 5.61882e-20)
(0.209159 -0.310612 -7.87109e-20)
(0.29992 -0.420157 -1.67323e-20)
(0.392127 -0.520632 -7.28906e-20)
(0.484764 -0.612065 -1.01546e-20)
(0.576684 -0.694232 9.20746e-21)
(0.666921 -0.767019 -2.12553e-19)
(0.755502 -0.830108 3.84002e-19)
(0.842291 -0.882135 9.72159e-19)
(0.0503633 -0.074605 1.51838e-20)
(0.15513 -0.209614 -1.4241e-19)
(0.26346 -0.335963 -2.14017e-19)
(0.373664 -0.4521 8.91014e-20)
(0.484092 -0.558242 -6.43271e-20)
(0.593529 -0.654575 9.93046e-20)
(0.700923 -0.741212 1.97613e-19)
(0.805382 -0.818209 -1.09659e-19)
(0.906988 -0.884996 -3.06224e-19)
(1.00565 -0.939385 7.25778e-19)
(0.0642915 -0.0803621 -2.64427e-20)
(0.193287 -0.224029 -5.78182e-19)
(0.324295 -0.356559 5.24428e-19)
(0.455679 -0.477224 3.37599e-19)
(0.585729 -0.58673 -8.59725e-20)
(0.71321 -0.685632 3.09012e-19)
(0.837109 -0.774389 -1.60009e-19)
(0.956538 -0.853394 -7.7389e-19)
(1.0717 -0.92195 -4.03932e-19)
(1.18263 -0.977174 4.53959e-19)
(0.0795463 -0.0846675 -7.98366e-20)
(0.235847 -0.234419 -5.44347e-19)
(0.392392 -0.370524 -8.22194e-21)
(0.547539 -0.492791 6.87743e-20)
(0.699588 -0.602453 3.37839e-19)
(0.84738 -0.700414 -1.8548e-19)
(0.989996 -0.78741 -1.69655e-19)
(1.12651 -0.863782 1.89187e-19)
(1.25678 -0.928588 -3.51813e-19)
(1.38003 -0.980277 -5.84858e-19)
(0.403129 -0.53135 9.92613e-19)
(0.685045 -0.617534 -2.6099e-19)
(0.913753 -0.556541 -1.47512e-19)
(1.08708 -0.429793 2.77134e-19)
(1.23854 -0.278839 -2.34619e-19)
(1.35907 -0.137801 -2.98102e-19)
(1.45264 -0.0317498 -2.58954e-19)
(1.50697 0.0152815 -3.16388e-20)
(1.52774 0.0199343 5.50763e-20)
(1.54445 0.0124852 3.18967e-20)
(0.46912 -0.619233 9.70666e-19)
(0.741805 -0.692954 7.44824e-20)
(0.966526 -0.616501 1.09022e-20)
(1.12466 -0.478802 -2.24599e-19)
(1.26445 -0.318766 -7.45633e-19)
(1.37752 -0.169618 0)
(1.47069 -0.0546364 -2.37343e-19)
(1.53783 0.00194119 5.28894e-20)
(1.5731 0.0123578 4.46341e-21)
(1.60191 0.00867081 -3.85407e-20)
(0.556442 -0.704933 -9.98356e-19)
(0.811145 -0.765948 -7.13147e-20)
(1.02592 -0.674377 1.57606e-19)
(1.16637 -0.525696 -5.34045e-20)
(1.29068 -0.357453 -3.57568e-20)
(1.39401 -0.201052 6.49437e-20)
(1.48179 -0.0784337 0)
(1.54977 -0.0140079 0)
(1.58873 0.000934268 -4.87419e-20)
(1.63455 0.00171881 0)
(0.665867 -0.786738 -2.24535e-19)
(0.895935 -0.834563 4.01939e-19)
(1.09238 -0.729107 2.68777e-20)
(1.21286 -0.569523 0)
(1.31801 -0.394094 6.21846e-19)
(1.40946 -0.231181 -1.54223e-19)
(1.48986 -0.101587 0)
(1.5515 -0.0296362 1.41771e-19)
(1.5889 -0.0103667 0)
(1.63549 -0.00547085 1.8946e-20)
(0.79583 -0.863486 -1.4911e-19)
(0.997892 -0.896805 4.51818e-19)
(1.16658 -0.77952 -1.47321e-20)
(1.26429 -0.60947 0)
(1.34697 -0.427943 1.80046e-19)
(1.42406 -0.259459 2.86593e-19)
(1.49615 -0.12319 4.82474e-20)
(1.55012 -0.0443601 6.90963e-21)
(1.58685 -0.0214523 -2.94153e-20)
(1.6325 -0.0120592 3.03222e-20)
(0.942271 -0.934417 -1.32697e-18)
(1.11666 -0.95131 -9.37563e-19)
(1.24918 -0.824329 4.80265e-21)
(1.32048 -0.644791 5.69125e-19)
(1.37789 -0.45825 -2.99874e-19)
(1.4377 -0.285495 1.50153e-19)
(1.50064 -0.14308 2.46999e-19)
(1.54794 -0.0586316 -1.89077e-19)
(1.58471 -0.0324795 -1.83431e-21)
(1.63076 -0.018644 2.20088e-20)
(1.10008 -0.999152 -2.59253e-19)
(1.25012 -0.997883 2.85378e-19)
(1.34043 -0.862399 4.03311e-21)
(1.38117 -0.674762 -1.74035e-20)
(1.41089 -0.48422 -5.7784e-19)
(1.45026 -0.308809 5.40893e-20)
(1.50287 -0.161365 -9.50855e-20)
(1.54541 -0.0726196 -2.87638e-20)
(1.58274 -0.0434551 1.75869e-21)
(1.63022 -0.0251173 -2.16224e-20)
(1.26427 -1.05658 -1.20153e-18)
(1.39479 -1.03713 2.09163e-19)
(1.43934 -0.893132 0)
(1.44544 -0.698924 3.39631e-20)
(1.44537 -0.505268 5.08632e-19)
(1.46135 -0.328905 -1.04795e-21)
(1.5021 -0.178189 -2.93608e-19)
(1.54211 -0.0865166 4.75519e-20)
(1.58103 -0.0537833 1.55338e-22)
(1.62303 -0.0318944 1.26091e-20)
(1.43193 -1.10329 3.39106e-18)
(1.54805 -1.06995 2.46907e-19)
(1.54574 -0.917232 4.62269e-19)
(1.51354 -0.717682 -3.15367e-20)
(1.4815 -0.521471 -3.40227e-20)
(1.47083 -0.34564 -4.15521e-19)
(1.49716 -0.193856 7.94053e-20)
(1.53679 -0.0995158 3.14832e-21)
(1.57328 -0.0626639 -2.62844e-20)
(1.58019 -0.0358839 -2.29446e-20)
(1.59917 -1.12802 -2.99859e-18)
(1.70183 -1.09522 1.27326e-18)
(1.65405 -0.937347 -2.30896e-19)
(1.58162 -0.73452 -7.82564e-19)
(1.51633 -0.536387 -6.50808e-19)
(1.47647 -0.362595 -2.5498e-19)
(1.48616 -0.210604 -5.65828e-20)
(1.52361 -0.113159 0)
(1.52463 -0.0658305 -2.38095e-20)
(1.51757 -0.0362608 7.51412e-20)
(1.88811 -1.17006 -6.71575e-18)
(1.92735 -1.1048 -1.69357e-18)
(1.80495 -0.931603 -5.86823e-20)
(1.67326 -0.726431 1.12466e-19)
(1.56268 -0.531731 1.65203e-19)
(1.48427 -0.367133 -1.10119e-19)
(1.46495 -0.220544 -3.57634e-20)
(1.45512 -0.117052 5.60369e-20)
(1.43917 -0.0627518 -4.7181e-20)
(1.42792 -0.0345433 -3.54106e-20)
(2.28926 -1.13469 4.95305e-19)
(2.17883 -1.05638 -2.78106e-19)
(1.94298 -0.864792 5.19265e-19)
(1.73632 -0.663898 -9.12909e-20)
(1.56437 -0.479109 4.83686e-20)
(1.43175 -0.329156 -4.48165e-20)
(1.36019 -0.204165 9.66835e-20)
(1.33338 -0.108049 -3.1497e-20)
(1.31826 -0.0561535 1.78035e-19)
(1.30322 -0.0319591 8.00319e-20)
(2.61058 -1.04346 2.2709e-18)
(2.35215 -0.94857 3.26066e-19)
(2.00886 -0.759118 -1.18318e-19)
(1.73376 -0.572299 1.46852e-36)
(1.50805 -0.409343 -2.54896e-20)
(1.3429 -0.283061 1.50367e-33)
(1.24599 -0.17957 -1.6291e-20)
(1.20569 -0.0978091 -1.57372e-33)
(1.18583 -0.0502571 6.95222e-21)
(1.16878 -0.0285698 -1.91065e-20)
(2.78713 -0.893884 3.89013e-33)
(2.36975 -0.795478 2.96619e-18)
(1.97422 -0.630213 1.8208e-18)
(1.65449 -0.46892 0)
(1.40854 -0.333974 8.4375e-19)
(1.23248 -0.23117 4.40125e-19)
(1.12178 -0.149484 1.57847e-19)
(1.06862 -0.0842285 -2.66234e-33)
(1.04512 -0.0433062 -6.21932e-20)
(1.02618 -0.0246846 1.42744e-20)
(2.76376 -0.705835 3.84343e-18)
(2.24611 -0.629787 -1.46868e-19)
(1.84694 -0.490856 0)
(1.51616 -0.361444 0)
(1.27257 -0.25516 0)
(1.09915 -0.176726 0)
(0.985851 -0.116272 -1.22777e-20)
(0.92547 -0.0680406 -3.96289e-33)
(0.898164 -0.0354474 7.39618e-21)
(0.877721 -0.0203162 1.43291e-33)
(2.55123 -0.517009 3.2665e-18)
(2.02017 -0.462877 0)
(1.63878 -0.353574 0)
(1.32709 -0.256637 0)
(1.10171 -0.179415 0)
(0.942907 -0.12445 0)
(0.836712 -0.0832646 3.2727e-20)
(0.775358 -0.0504942 -7.48005e-20)
(0.745986 -0.0268146 8.14091e-21)
(0.724722 -0.0156125 4.1971e-20)
(2.19015 -0.342702 0)
(1.70268 -0.3035 1.09908e-18)
(1.3614 -0.227582 1.0915e-18)
(1.09149 -0.16196 0)
(0.898814 -0.112197 6.70726e-19)
(0.764738 -0.0780548 4.10292e-19)
(0.673639 -0.0531042 2.50174e-19)
(0.617656 -0.0333554 7.38979e-20)
(0.588943 -0.0180484 -5.70184e-21)
(0.5682 -0.0108305 -5.58584e-21)
(1.70287 -0.191133 -6.73846e-19)
(1.30021 -0.16559 -2.74119e-19)
(1.02511 -0.121746 1.75591e-19)
(0.815167 -0.0844344 -2.11705e-34)
(0.667911 -0.0580205 -7.6948e-20)
(0.566615 -0.0407022 3.73108e-33)
(0.496875 -0.0282607 4.92956e-20)
(0.451804 -0.0184454 9.74956e-20)
(0.427122 -0.010101 9.42153e-21)
(0.408866 -0.0063756 -5.66355e-21)
(1.10089 -0.0758199 3.40793e-18)
(0.82317 -0.0626773 -1.86416e-19)
(0.64061 -0.0442896 -5.8859e-19)
(0.506181 -0.0289915 0)
(0.413904 -0.0195485 -6.40045e-19)
(0.35089 -0.0139922 -4.32015e-19)
(0.306849 -0.0100972 -1.99394e-19)
(0.277177 -0.00705096 -1.3335e-19)
(0.259992 -0.00396205 1.43253e-19)
(0.246924 -0.00272991 -1.65437e-20)
(0.397353 -0.00331876 0)
(0.287868 0.00159349 0)
(0.220899 0.0040938 0)
(0.173558 0.00624239 0)
(0.142393 0.00584245 0)
(0.121282 0.00469299 0)
(0.10612 0.00359077 5.66986e-20)
(0.0953512 0.00240676 -2.14634e-34)
(0.0886455 0.00179588 1.19426e-20)
(0.0832099 0.000691421 1.20966e-20)
(3.36711 -0.0863097 5.39203e-19)
(3.32642 -0.265083 -8.4188e-20)
(3.24735 -0.430651 8.52075e-19)
(3.13238 -0.582149 -6.04816e-19)
(2.98634 -0.718112 6.66347e-19)
(2.81523 -0.836363 2.75131e-19)
(2.62659 -0.934031 -1.92789e-18)
(2.42949 -1.00781 -7.73197e-20)
(2.22465 -1.05362 0)
(1.98482 -1.06648 4.26427e-19)
(3.86192 -0.0750565 7.07357e-18)
(3.79859 -0.234207 1.95635e-18)
(3.70428 -0.387302 -4.8671e-18)
(3.58425 -0.531979 -4.49027e-19)
(3.44238 -0.665877 3.55857e-18)
(3.28184 -0.787295 1.92319e-18)
(3.10648 -0.895032 -5.16787e-18)
(2.92201 -0.987652 -1.95184e-18)
(2.72755 -1.06332 2.20282e-18)
(2.49232 -1.12042 8.52107e-19)
(3.83309 -0.0532973 -1.26246e-19)
(3.82026 -0.17156 4.40375e-18)
(3.78548 -0.299754 -1.08836e-18)
(3.72436 -0.43091 -3.44616e-18)
(3.6362 -0.558719 -6.8005e-18)
(3.52373 -0.678784 1.02785e-17)
(3.39119 -0.788765 4.18054e-18)
(3.24351 -0.887945 -3.91152e-18)
(3.08161 -0.978659 -2.90253e-18)
(2.88722 -1.06292 -3.42465e-18)
(3.62867 -0.0472821 -4.83942e-18)
(3.61962 -0.144927 -4.35351e-18)
(3.59965 -0.243735 5.47232e-18)
(3.56737 -0.343087 1.91198e-18)
(3.52243 -0.442367 -8.9719e-18)
(3.46419 -0.540792 4.92261e-19)
(3.39187 -0.637025 3.88668e-18)
(3.30517 -0.730403 -1.0541e-18)
(3.20505 -0.823029 1.27694e-18)
(3.08312 -0.914728 2.81744e-19)
(3.34405 -0.0365751 -9.15995e-19)
(3.339 -0.111653 3.00411e-18)
(3.32711 -0.188674 1.61957e-18)
(3.30745 -0.26717 -1.89414e-18)
(3.27987 -0.346067 -2.00141e-18)
(3.24467 -0.424132 -2.43431e-18)
(3.20206 -0.500325 3.7973e-19)
(3.15179 -0.574478 1.38918e-19)
(3.09553 -0.647735 -2.13995e-18)
(3.03293 -0.721273 -2.03466e-18)
(2.96257 -0.0265518 -1.8225e-18)
(2.95981 -0.0798868 -5.87246e-20)
(2.95331 -0.134597 -1.63753e-18)
(2.9424 -0.190902 3.12139e-19)
(2.92676 -0.248549 5.36784e-18)
(2.9063 -0.306928 -3.66778e-19)
(2.88093 -0.365113 4.43441e-20)
(2.85025 -0.422055 -2.60864e-18)
(2.81646 -0.476875 -3.49583e-18)
(2.78604 -0.529851 3.72675e-19)
(2.48713 -0.0175088 -2.89319e-20)
(2.48578 -0.0519333 -8.14318e-19)
(2.48259 -0.0872472 -2.61486e-18)
(2.47708 -0.12377 -3.43103e-18)
(2.4688 -0.161533 2.49655e-18)
(2.45745 -0.200267 1.50225e-18)
(2.44262 -0.239352 -1.38506e-18)
(2.42371 -0.277789 1.62448e-18)
(2.40276 -0.31448 -4.29748e-19)
(2.38955 -0.349536 -9.63792e-19)
(1.91464 -0.00968718 7.7246e-19)
(1.91408 -0.0282968 -8.31798e-19)
(1.91278 -0.0474392 -3.27679e-20)
(1.91032 -0.0673588 -3.47267e-20)
(1.90624 -0.0881299 -7.27434e-20)
(1.90013 -0.109614 -2.33194e-18)
(1.89151 -0.131404 -6.78674e-19)
(1.87979 -0.152781 2.62608e-18)
(1.86664 -0.172973 -6.03489e-19)
(1.86192 -0.192204 -1.35109e-18)
(1.23988 -0.00373712 -1.64282e-18)
(1.23967 -0.0106953 -8.4891e-19)
(1.23923 -0.0179011 2.3392e-18)
(1.23823 -0.0254785 -8.89774e-19)
(1.23625 -0.0334753 -6.74124e-19)
(1.2329 -0.0418316 1.35203e-18)
(1.22775 -0.0503499 -1.29589e-18)
(1.22038 -0.0586652 1.28698e-18)
(1.21202 -0.066342 -1.2103e-18)
(1.21008 -0.0735073 -4.24817e-18)
(0.454916 -0.000257933 6.63082e-19)
(0.454827 -0.000700506 7.03055e-19)
(0.454692 -0.00115911 7.48183e-19)
(0.454324 -0.00164006 1.35397e-18)
(0.453495 -0.0021402 -6.71986e-19)
(0.451983 -0.00263721 -1.29961e-18)
(0.449567 -0.00309913 6.14711e-19)
(0.445992 -0.00359295 2.48367e-20)
(0.441736 -0.00439223 -4.96524e-20)
(0.44035 -0.00504563 1.1057e-19)
(1.6535 0.997153 -2.85656e-19)
(1.51223 0.941765 1.80028e-20)
(1.35876 0.880676 -2.28265e-19)
(1.19765 0.808389 1.76407e-19)
(1.02956 0.723946 -1.92242e-19)
(0.854817 0.627058 -1.01146e-19)
(0.673757 0.516933 2.32014e-19)
(0.487037 0.392144 -3.04999e-19)
(0.295893 0.250644 3.0988e-19)
(0.101431 0.0916452 2.38771e-19)
(1.88634 0.992106 0)
(1.72964 0.934675 6.38941e-19)
(1.56081 0.872722 3.31994e-19)
(1.38227 0.801822 1.62983e-19)
(1.19452 0.719859 4.3158e-19)
(0.997529 0.625889 -8.68734e-20)
(0.79136 0.518598 -7.85636e-20)
(0.576349 0.395991 8.88304e-20)
(0.353321 0.255177 -1.04523e-18)
(0.1227 0.0943568 -1.66126e-20)
(2.09101 0.95898 1.56807e-19)
(1.92521 0.905026 0)
(1.74612 0.846433 -1.00749e-19)
(1.55492 0.779531 -3.83575e-19)
(1.35169 0.702072 5.37143e-20)
(1.13609 0.612785 3.97216e-19)
(0.907786 0.510089 -6.06952e-19)
(0.666593 0.39164 -2.00875e-19)
(0.412599 0.254047 7.83611e-19)
(0.145253 0.0947365 -1.75968e-19)
(2.28482 0.898317 1.88147e-19)
(2.11043 0.850534 1.20401e-20)
(1.92129 0.797843 2.44831e-20)
(1.71811 0.73699 3.61162e-20)
(1.50058 0.665851 -2.92317e-20)
(1.26793 0.583131 2.73298e-19)
(1.01927 0.48717 -2.06889e-19)
(0.753679 0.375533 -8.55622e-19)
(0.470275 0.24468 0)
(0.16739 0.0916976 0)
(2.46795 0.811796 -1.07058e-18)
(2.28435 0.77082 -6.08896e-19)
(2.08493 0.725051 -1.20634e-19)
(1.87003 0.671517 -6.65756e-20)
(1.63891 0.608293 0)
(1.39031 0.534137 2.40766e-19)
(1.12276 0.447436 2.67794e-19)
(0.83456 0.345838 2.86259e-19)
(0.523844 0.225955 -4.23771e-19)
(0.18791 0.0848989 -8.12397e-20)
(2.634 0.70208 7.66178e-19)
(2.44156 0.668055 -1.39178e-19)
(2.23244 0.629674 -2.21529e-19)
(2.00665 0.584303 0)
(1.76301 0.530279 0)
(1.49988 0.466489 0)
(1.21523 0.391466 -3.89828e-20)
(0.90669 0.303092 3.70279e-19)
(0.571503 0.19835 3.79141e-19)
(0.206085 0.0746249 -3.08576e-19)
(2.7758 0.572348 -1.1934e-18)
(2.57551 0.545256 -1.48122e-18)
(2.35787 0.514527 -3.03167e-22)
(2.12261 0.477946 -1.87675e-19)
(1.86819 0.434182 -9.28826e-20)
(1.59258 0.38232 -1.78852e-19)
(1.29333 0.321126 4.59107e-19)
(0.967495 0.248838 2.14862e-19)
(0.611588 0.162968 5.40042e-19)
(0.221316 0.0613408 2.02859e-19)
(2.88708 0.425745 -1.15702e-18)
(2.68027 0.405631 8.47071e-20)
(2.45577 0.38282 1.64524e-19)
(2.21298 0.355612 1.68212e-20)
(1.95005 0.323052 -3.14415e-19)
(1.66466 0.28447 -1.74221e-19)
(1.35398 0.238939 -6.21224e-19)
(1.01464 0.185142 1.1853e-19)
(0.642609 0.121238 5.14786e-20)
(0.233067 0.045613 -6.2687e-21)
(2.9628 0.265186 1.0135e-19)
(2.75122 0.252354 3.97011e-19)
(2.5219 0.237905 -3.30295e-19)
(2.27395 0.220741 3.63028e-19)
(2.00524 0.200298 3.72555e-19)
(1.71323 0.176178 4.91906e-19)
(1.39482 0.14781 -6.35751e-19)
(1.04634 0.11439 -3.2442e-19)
(0.663416 0.0748103 -4.58503e-20)
(0.240918 0.0280953 -3.27001e-19)
(3.00053 0.0935782 5.81808e-19)
(2.78613 0.0887868 -1.86151e-19)
(2.55426 0.0834452 4.79569e-19)
(2.30367 0.0771514 -3.1068e-19)
(2.03209 0.069729 2.6648e-19)
(1.7368 0.0610628 6.05423e-19)
(1.41458 0.0509792 3.7889e-19)
(1.06162 0.0392351 3.0935e-19)
(0.6734 0.0255068 2.65865e-19)
(0.244655 0.0095073 5.43623e-19)
(0.239344 0.451476 -4.68291e-19)
(0.203773 0.417781 -1.86229e-19)
(0.16825 0.380752 1.38782e-19)
(0.134771 0.343155 -4.19698e-19)
(0.105071 0.307077 -1.19732e-19)
(0.0781723 0.269826 6.92226e-19)
(0.0517862 0.223413 3.3594e-19)
(0.0258898 0.15864 -1.57269e-19)
(0.00704086 0.0795763 1.13572e-19)
(-0.00113554 0.022417 -6.06124e-20)
(0.288559 0.543697 4.10521e-19)
(0.248658 0.506923 4.57053e-19)
(0.208116 0.464904 -1.21286e-20)
(0.167812 0.417942 -1.32088e-19)
(0.131123 0.369902 -3.11314e-19)
(0.1006 0.32237 8.27301e-20)
(0.0734519 0.26908 2.23993e-19)
(0.0458478 0.196674 1.64571e-19)
(0.0183035 0.10171 -5.89197e-19)
(0.00277148 0.0288153 -1.23382e-19)
(0.359705 0.632514 -5.99877e-19)
(0.31383 0.592397 -4.80634e-19)
(0.268014 0.546589 2.56651e-19)
(0.221358 0.493322 1.37452e-19)
(0.175816 0.433635 -5.60641e-21)
(0.136282 0.371512 -1.3939e-19)
(0.102123 0.305326 -2.87937e-20)
(0.0684242 0.224675 -5.55679e-19)
(0.0336392 0.125859 -2.69481e-19)
(0.00761929 0.0377291 -3.90933e-20)
(0.454309 0.717297 5.02566e-19)
(0.400139 0.673144 1.6469e-19)
(0.346428 0.622177 -1.48995e-19)
(0.292268 0.563182 6.35159e-20)
(0.237768 0.495147 -4.7892e-22)
(0.186595 0.420548 1.47989e-21)
(0.140107 0.340411 -1.31514e-19)
(0.0954544 0.250075 3.79459e-19)
(0.0514156 0.147613 -4.19605e-19)
(0.0135641 0.0476555 -6.53469e-20)
(0.572074 0.797341 -2.82085e-19)
(0.507918 0.749293 -8.89366e-20)
(0.443626 0.692499 -1.42894e-20)
(0.379001 0.626838 -6.94258e-20)
(0.313736 0.551642 5.81073e-20)
(0.249666 0.467809 5.1993e-20)
(0.188376 0.376523 -2.76549e-20)
(0.129317 0.276519 -2.82613e-19)
(0.0725126 0.167555 2.18562e-19)
(0.0209048 0.0568048 8.73668e-20)
(0.709437 0.870518 6.43685e-19)
(0.634384 0.81918 3.21475e-19)
(0.558144 0.757068 2.04343e-19)
(0.480864 0.685063 4.81685e-20)
(0.402414 0.603285 1.54025e-19)
(0.323866 0.512175 7.76443e-20)
(0.24646 0.412382 1.42575e-19)
(0.170856 0.30382 5.78814e-20)
(0.0980427 0.186745 -1.62369e-20)
(0.029988 0.0650113 -1.35144e-20)
(0.862001 0.934527 -1.19714e-19)
(0.775524 0.880372 -8.26824e-19)
(0.686687 0.813797 -7.79477e-20)
(0.595711 0.736606 -4.98318e-20)
(0.502549 0.649454 -1.88615e-20)
(0.408113 0.552583 1.50942e-19)
(0.313468 0.446221 -4.38551e-20)
(0.219701 0.330356 6.5136e-20)
(0.128286 0.205049 -1.44614e-19)
(0.0408991 0.072485 -1.20927e-21)
(1.02668 0.985771 -8.85477e-19)
(0.928429 0.929411 5.94164e-20)
(0.826624 0.85952 -2.32771e-19)
(0.721437 0.778738 -7.3049e-20)
(0.612748 0.687895 -2.48295e-20)
(0.501442 0.586987 -7.51152e-20)
(0.388516 0.475839 5.63676e-20)
(0.275156 0.354164 6.03493e-20)
(0.162978 0.221543 -9.82308e-21)
(0.0535422 0.0791177 -1.03865e-19)
(1.20384 1.01774 1.23844e-19)
(1.09345 0.960779 5.23819e-19)
(0.978216 0.88959 1.55969e-21)
(0.858194 0.807455 -3.00942e-20)
(0.733124 0.715228 1.5127e-19)
(0.603877 0.6125 -3.47761e-19)
(0.471395 0.49872 -2.44557e-19)
(0.336826 0.373193 3.56216e-19)
(0.20177 0.235001 1.44232e-19)
(0.0677021 0.0845324 -3.62821e-20)
(1.40053 1.01533 7.40382e-19)
(1.27801 0.96223 3.24048e-19)
(1.14779 0.895277 5.58053e-20)
(1.01085 0.816339 -1.95469e-19)
(0.867254 0.726478 -1.6493e-20)
(0.717891 0.625309 4.65844e-19)
(0.563579 0.511988 -2.68334e-19)
(0.405339 0.385468 -1.84524e-19)
(0.244706 0.244319 3.35849e-19)
(0.083115 0.0884419 -6.07723e-21)
(0.974656 0.097189 8.91627e-21)
(1.14722 0.141832 8.16908e-22)
(1.21191 0.190144 -2.30442e-20)
(1.32131 0.171203 0)
(1.36834 0.156666 3.62386e-21)
(1.27424 0.235941 -4.17653e-20)
(1.12628 0.386112 -5.70483e-20)
(0.947668 0.543215 -2.23425e-20)
(0.710799 0.647738 -2.9302e-19)
(0.416182 0.594905 4.44151e-19)
(0.978722 0.077742 1.89996e-19)
(1.13991 0.114602 -2.92094e-20)
(1.20707 0.160394 1.94209e-21)
(1.31301 0.154193 1.26518e-20)
(1.36915 0.158816 3.8031e-21)
(1.29385 0.269736 -3.94574e-21)
(1.15648 0.435791 3.69825e-20)
(0.992693 0.605946 0)
(0.761036 0.726604 7.70043e-19)
(0.479285 0.686019 -5.55248e-19)
(0.981999 0.0585956 -1.12774e-19)
(1.13663 0.0884395 7.49647e-21)
(1.20552 0.131467 7.71614e-20)
(1.3107 0.13603 1.95101e-20)
(1.3719 0.159932 -2.14121e-20)
(1.31403 0.301079 -3.52577e-20)
(1.19009 0.483851 9.17703e-21)
(1.0433 0.667099 4.39972e-20)
(0.822981 0.802927 -1.16901e-21)
(0.564553 0.773755 -3.98953e-19)
(0.984497 0.0394149 -8.23057e-20)
(1.13689 0.0627735 1.57547e-20)
(1.20779 0.103185 7.43885e-20)
(1.31424 0.1174 2.851e-20)
(1.3781 0.160514 -2.26631e-20)
(1.33471 0.330207 -2.26385e-20)
(1.22732 0.529685 4.88203e-20)
(1.09991 0.725596 2.66361e-20)
(0.900039 0.87447 -5.34077e-19)
(0.673858 0.856165 -1.78722e-19)
(0.986586 0.0200402 3.86422e-20)
(1.14022 0.0370611 -4.83276e-20)
(1.21359 0.0754548 -6.63878e-20)
(1.32227 0.0987833 2.02927e-20)
(1.38652 0.161588 0)
(1.35553 0.35769 0)
(1.2681 0.572717 6.25013e-20)
(1.16359 0.780086 -2.81027e-20)
(0.994936 0.938764 -1.1709e-19)
(0.805252 0.931604 -5.74465e-20)
(0.988724 0.000235881 3.7191e-21)
(1.14612 0.0109229 5.65708e-20)
(1.22216 0.0482199 -2.02946e-19)
(1.33329 0.0808315 -7.37591e-20)
(1.3958 0.163878 -5.1891e-21)
(1.37633 0.383743 1.07168e-19)
(1.31256 0.612145 1.42045e-19)
(1.23582 0.828865 -1.80188e-20)
(1.1081 0.994006 -4.09782e-20)
(0.953842 0.999407 1.60023e-21)
(0.990561 -0.0204995 6.90663e-22)
(1.15395 -0.015918 2.67959e-20)
(1.23259 0.0215229 -6.38951e-20)
(1.34612 0.0641682 -1.45617e-19)
(1.40493 0.167603 1.23566e-20)
(1.39728 0.408097 7.60658e-21)
(1.36122 0.646897 -5.86715e-20)
(1.31773 0.870273 -1.16497e-19)
(1.23753 1.03988 -2.77305e-20)
(1.11389 1.0597 -9.81525e-19)
(0.990571 -0.0423275 1.47997e-20)
(1.16304 -0.043707 -1.33496e-19)
(1.24397 -0.0044715 1.28226e-19)
(1.35964 0.0495897 9.77253e-20)
(1.4127 0.173256 5.18185e-21)
(1.41825 0.430377 -1.20306e-19)
(1.41395 0.675967 -3.68432e-21)
(1.40872 0.903349 -1.13518e-19)
(1.37949 1.07724 1.11249e-20)
(1.27982 1.11189 2.88422e-18)
(0.987479 -0.0645562 -8.48806e-20)
(1.17302 -0.0725552 7.56916e-20)
(1.25563 -0.0296539 1.85085e-19)
(1.37315 0.0372328 -1.0978e-19)
(1.41953 0.180613 -2.05282e-19)
(1.44074 0.450346 9.2457e-21)
(1.47207 0.699216 1.61427e-19)
(1.5088 0.928763 -5.52572e-19)
(1.53094 1.10734 -2.68162e-20)
(1.44827 1.15296 -6.47307e-18)
(0.981789 -0.0874578 4.15296e-21)
(1.18399 -0.102408 1.34342e-19)
(1.26707 -0.0538903 5.88664e-20)
(1.38537 0.0292135 -2.64283e-19)
(1.4231 0.193667 -2.26893e-19)
(1.4623 0.471626 -6.4949e-20)
(1.53131 0.720385 6.58993e-20)
(1.61184 0.949836 -2.27638e-19)
(1.68377 1.12982 -1.08918e-18)
(1.61552 1.17202 -7.95249e-18)
(0.973171 -0.118637 -1.45041e-20)
(1.19703 -0.142102 -3.07818e-20)
(1.27746 -0.0870252 -7.26587e-20)
(1.39729 0.0140298 1.2401e-19)
(1.4283 0.192036 1.89418e-19)
(1.49272 0.467533 -5.50779e-20)
(1.6121 0.710016 -1.38771e-19)
(1.75397 0.939053 -1.21288e-18)
(1.90278 1.13188 -1.60127e-18)
(1.89923 1.20837 3.28715e-18)
(0.961754 -0.157179 -4.09377e-19)
(1.21365 -0.191732 1.17718e-20)
(1.28168 -0.133409 -5.41978e-20)
(1.39923 -0.00765006 3.05327e-19)
(1.41128 0.170457 3.35206e-19)
(1.4957 0.424056 -3.00663e-20)
(1.66879 0.646116 -7.31359e-20)
(1.88098 0.864755 -3.14124e-19)
(2.13955 1.07075 2.66964e-19)
(2.28441 1.16049 -3.23093e-19)
(0.949527 -0.19729 -2.78401e-20)
(1.23727 -0.241805 -5.43256e-20)
(1.28006 -0.177399 3.00808e-20)
(1.39552 -0.0282248 2.73577e-20)
(1.38881 0.158316 1.74269e-33)
(1.4741 0.368245 2.48361e-21)
(1.68221 0.560114 -2.07088e-33)
(1.94981 0.758771 1.85925e-19)
(2.3022 0.955967 -9.31633e-19)
(2.58732 1.05818 -6.29356e-19)
(0.937247 -0.243447 1.4195e-18)
(1.26759 -0.281862 -7.69845e-34)
(1.25168 -0.224747 -3.95587e-20)
(1.27715 -0.0342775 -2.26471e-19)
(1.26961 0.142164 -4.50796e-19)
(1.39232 0.300263 -8.97989e-19)
(1.62094 0.459006 -5.09686e-33)
(1.93021 0.630445 -1.73907e-18)
(2.3263 0.801765 -3.17607e-18)
(2.75389 0.902403 1.67566e-18)
(0.927328 -0.300519 0)
(1.3137 -0.326415 -1.65139e-33)
(1.11445 -0.205602 0)
(1.1118 -0.0283065 0)
(1.12389 0.114144 0)
(1.2604 0.231565 0)
(1.49091 0.354709 -8.13612e-33)
(1.81576 0.491098 0)
(2.21388 0.634041 -3.39916e-19)
(2.73519 0.711883 1.2579e-18)
(0.916419 -0.360707 1.16047e-19)
(1.25238 -0.326273 -4.68124e-19)
(0.960987 -0.173046 -5.48699e-20)
(0.937324 -0.0250659 0)
(0.959462 0.0823161 0)
(1.09137 0.164715 6.09901e-20)
(1.30724 0.253438 1.18453e-18)
(1.61643 0.354407 -1.95082e-19)
(1.99696 0.466072 -4.95306e-19)
(2.53258 0.520407 4.67244e-18)
(0.883439 -0.4053 -1.52013e-17)
(1.09223 -0.279736 1.08647e-18)
(0.793265 -0.129897 -7.27009e-20)
(0.749237 -0.0206907 -8.00158e-20)
(0.77512 0.0524633 -5.08261e-19)
(0.890497 0.104091 -7.71788e-19)
(1.07695 0.160971 -1.05117e-18)
(1.34633 0.228859 -1.38581e-18)
(1.68775 0.306056 -1.60788e-18)
(2.17999 0.34442 3.61473e-18)
(0.808978 -0.394513 -4.13605e-19)
(0.8866 -0.207544 -1.21642e-18)
(0.60582 -0.0825841 -1.25842e-19)
(0.551048 -0.0151344 -8.39e-20)
(0.573306 0.0276501 -9.69142e-34)
(0.662287 0.0543332 9.44563e-20)
(0.805871 0.0844079 -1.48892e-32)
(1.01637 0.122857 -1.93424e-19)
(1.29253 0.167281 2.98843e-19)
(1.69931 0.192063 7.05679e-19)
(0.664237 -0.288846 3.42558e-17)
(0.618284 -0.108067 -3.14039e-18)
(0.393479 -0.0350256 -2.41008e-19)
(0.34008 -0.00733363 -1.53436e-19)
(0.354557 0.00930699 3.91736e-19)
(0.410899 0.0182911 7.82783e-19)
(0.501441 0.0291179 7.94394e-19)
(0.636805 0.0448544 4.59766e-19)
(0.820774 0.0634473 -1.90186e-19)
(1.10155 0.0762237 3.5689e-18)
(0.336831 -0.076826 5.58791e-19)
(0.261858 -0.00230653 -6.76628e-33)
(0.144417 0.0190564 -3.05211e-19)
(0.120593 0.00331135 0)
(0.123858 -0.00231757 0)
(0.142015 -0.00539328 9.68801e-20)
(0.172464 -0.00623493 9.28582e-35)
(0.220318 -0.00416884 -1.23578e-19)
(0.288131 -0.00161719 -2.82502e-19)
(0.399003 0.0033188 1.00143e-18)
(2.00198 1.09626 -1.78936e-18)
(2.23901 1.07835 -2.30484e-18)
(2.44204 1.02903 0)
(2.63705 0.95245 -7.5839e-19)
(2.82357 0.852475 -1.7836e-18)
(2.99275 0.73237 -2.24946e-18)
(3.13708 0.59503 -4.76655e-19)
(3.25055 0.442692 1.2693e-18)
(3.32825 0.276963 -3.54789e-18)
(3.36765 0.0986989 1.35668e-18)
(2.49859 1.14179 2.67481e-19)
(2.73049 1.08179 1.39699e-18)
(2.92382 1.0041 1.43871e-19)
(3.10669 0.909735 6.75641e-19)
(3.28057 0.800616 -1.10384e-18)
(3.43995 0.678297 -4.99982e-18)
(3.58095 0.543995 2.46759e-18)
(3.70047 0.39931 1.27027e-17)