/*--------------------------------*- C++ -*----------------------------------*\
  =========                 |
  \\      /  F ield         | OpenFOAM: The Open Source CFD Toolbox
   \\    /   O peration     | Website:  https://openfoam.org
    \\  /    A nd           | Version:  13
     \\/     M anipulation  |
\*---------------------------------------------------------------------------*/
FoamFile
{
    format      ascii;
    class       volScalarField;
    location    "0.18";
    object      strainRateViscosityModel:nu;
}
// * * * * * * * * * * * * * * * * * * * * * * * * * * * * * * * * * * * * * //

dimensions      [0 2 -1 0 0 0 0];

internalField   nonuniform List<scalar> 
1800
(
9.40515
9.19784
9.01018
8.80086
8.57575
8.34332
8.11409
7.89604
7.6212
7.37514
9.58531
9.41887
9.26694
9.09727
8.91097
8.711
8.50283
8.2875
8.02557
7.69952
9.70221
9.56272
9.42804
9.27093
9.08858
8.87875
8.64047
8.36829
8.02944
7.60886
9.77539
9.65614
9.53323
9.38285
9.20043
8.98158
8.72255
8.41552
8.02808
7.55349
9.82167
9.71829
9.60557
9.46164
9.28066
9.05687
8.78534
8.45864
8.04737
7.55555
9.85184
9.7608
9.65728
9.52056
9.34351
9.11891
8.84027
8.50004
8.07135
7.56994
9.87178
9.7899
9.69397
9.56393
9.39144
9.16766
8.88417
8.53249
8.08733
7.57564
9.88474
9.80923
9.71886
9.59392
9.42492
9.20144
8.91309
8.55007
8.0886
7.56367
9.89259
9.82106
9.73415
9.61218
9.44464
9.21961
8.92484
8.54928
8.07134
7.52892
9.89646
9.82685
9.74151
9.62067
9.45307
9.22572
8.92514
8.5396
8.05054
7.49313
1.93385
1.34692
1.13377
1.29753
1.77042
2.2771
2.45545
2.38337
2.31464
2.30713
3.81948
1.71429
1.4723
2.04313
2.74939
2.93139
2.74438
2.63671
2.68259
2.74237
4.71907
2.54902
2.46302
3.22353
3.58358
3.29424
3.06575
3.1363
3.27473
3.34604
5.27237
3.889
3.83572
4.21886
4.16515
3.8293
3.74443
3.87436
3.95973
4.0016
6.06364
5.28582
5.12719
5.12453
4.92094
4.6692
4.59183
4.61253
4.60467
4.64463
6.96773
6.46777
6.23304
6.0435
5.79572
5.55333
5.39139
5.28909
5.21589
5.26949
7.77729
7.38266
7.12072
6.86376
6.59096
6.32281
6.0864
5.89733
5.76508
5.81861
8.40335
8.05808
7.79418
7.51741
7.22754
6.93106
6.64025
6.38259
6.18689
6.22357
8.85097
8.54678
8.29202
8.01083
7.70555
7.37833
7.03318
6.6972
6.41023
6.41593
9.16236
8.90217
8.66671
8.39667
8.09516
7.76444
7.4041
7.03201
6.7035
6.74714
2.17378
1.71074
1.30449
0.866834
0.450201
0.121885
0.026486
0.0129857
0.0108443
0.010066
2.52317
1.84891
1.40563
0.897232
0.456162
0.122997
0.0270012
0.0131332
0.0109421
0.0100861
2.94953
1.99331
1.50223
0.933153
0.465282
0.128065
0.0280725
0.0133199
0.0110466
0.0101086
3.44275
2.17158
1.59174
0.971892
0.476648
0.135458
0.0294147
0.0135358
0.0111543
0.010132
3.98465
2.41096
1.67993
1.01037
0.488454
0.143928
0.0309477
0.0137746
0.0112587
0.0101546
4.52798
2.71938
1.78075
1.04876
0.499192
0.152182
0.0326433
0.0140362
0.0113549
0.0101747
4.99326
3.07586
1.90373
1.08669
0.50594
0.157781
0.0342509
0.0143133
0.0114382
0.0101909
5.30694
3.45706
2.0719
1.14083
0.514303
0.161078
0.0358132
0.0146276
0.0115095
0.0102021
5.33679
3.73995
2.22162
1.1791
0.509569
0.155466
0.0359156
0.0148043
0.01154
0.0102061
5.19413
4.00735
2.46312
1.29339
0.539909
0.161185
0.0392852
0.015557
0.0116087
0.0101988
4.94316
3.97104
2.53289
1.3147
0.507
0.133317
0.0337229
0.0135341
0.0104633
0.0100009
5.34643
3.40824
2.22774
1.07989
0.334108
0.0416343
0.011175
0.0177908
0.0309877
0.0507259
4.92618
3.06847
2.21597
1.0846
0.346836
0.0844721
0.138031
0.235829
0.28989
0.330436
4.54185
3.58624
2.58155
1.48626
0.683934
0.381897
0.414699
0.477239
0.511385
0.535862
5.09845
4.71421
3.27377
2.06106
1.081
0.628925
0.591342
0.64634
0.683125
0.710262
6.25091
5.65904
4.03035
2.62321
1.50764
0.942165
0.81942
0.829983
0.851134
0.868147
7.26381
6.3737
4.7081
3.13626
1.91829
1.25551
1.03694
0.99225
0.992294
0.998105
8.00107
6.91349
5.26045
3.58798
2.30313
1.5692
1.2597
1.14965
1.12013
1.10956
8.51886
7.3308
5.69786
3.97691
2.65132
1.85897
1.46356
1.28615
1.2239
1.19636
8.93052
7.68932
6.04845
4.29718
2.98555
2.1659
1.68751
1.43289
1.32914
1.27722
6.51334
6.43995
6.43052
6.44858
6.48687
6.52907
6.58055
6.70826
6.89197
6.82153
0.26133
1.05805
2.00898
2.92458
3.70618
4.31953
4.73707
4.98747
5.228
5.73386
3.84939
3.54291
3.28353
3.11009
3.10564
3.25071
3.47526
3.71939
4.17425
4.85774
6.64512
6.62796
6.53751
6.3444
6.04177
5.65451
5.24414
4.88902
4.73211
4.54429
7.69235
7.67704
7.63266
7.54186
7.39665
7.19007
6.9265
6.61746
6.28172
5.64858
8.44981
8.4334
8.39466
8.32808
8.23004
8.0973
7.92905
7.71748
7.42825
6.90731
8.93982
8.92407
8.89043
8.83695
8.76187
8.66319
8.53856
8.37949
8.15542
7.80961
9.27304
9.25986
9.23252
9.18991
9.13059
9.05254
8.95283
8.82502
8.65313
8.43142
9.50447
9.49418
9.47309
9.44025
9.39427
9.3332
9.25424
9.15287
9.0229
8.87538
9.6899
9.68285
9.66852
9.64603
9.61404
9.57068
9.51356
9.43968
9.34625
9.24391
7.25105
7.52775
7.8367
8.08655
8.3434
8.59834
8.84044
9.06105
9.25445
9.46047
7.58448
7.9483
8.24024
8.48004
8.70827
8.92393
9.12171
9.2987
9.45386
9.6182
7.49932
7.9573
8.32521
8.61959
8.87492
9.0971
9.28765
9.44932
9.58532
9.72233
7.44752
7.95752
8.37319
8.70133
8.97599
9.20553
9.39444
9.54794
9.67128
9.78828
7.45681
7.98061
8.41821
8.76444
9.05014
9.28327
9.4696
9.61583
9.72866
9.83024
7.48277
8.01166
8.46377
8.82118
9.11209
9.34456
9.52595
9.66441
9.76795
9.85765
7.50393
8.03787
8.50263
8.86845
9.16182
9.39178
9.56756
9.69886
9.79478
9.8757
7.51143
8.05254
8.52867
8.902
9.19737
9.42513
9.59635
9.7221
9.81242
9.88729
7.49868
8.05059
8.53744
8.91895
9.21763
9.44498
9.61368
9.73604
9.82289
9.89404
7.4832
8.04376
8.53599
8.92345
9.22523
9.45327
9.62121
9.74215
9.82745
9.89693
2.49433
2.45458
2.46029
2.62987
2.78628
2.4523
1.65268
1.14206
1.44482
4.03288
2.92664
2.84877
2.70289
2.68613
3.02403
3.32713
2.75159
1.85746
2.0448
5.02572
3.4421
3.40104
3.25988
3.08652
3.26296
3.77908
3.74832
3.10609
3.21038
5.3767
3.96523
3.9491
3.9239
3.8262
3.91543
4.31583
4.56352
4.4269
4.60436
5.85445
4.53478
4.50295
4.57065
4.63963
4.80061
5.12177
5.42992
5.59691
5.86514
6.59687
5.1361
5.09154
5.22325
5.4134
5.66807
5.98507
6.30563
6.58541
6.8866
7.39099
5.67901
5.64097
5.83516
6.10043
6.41214
6.74155
7.06623
7.37346
7.673
8.0812
6.08327
6.06635
6.32387
6.64605
6.99526
7.33827
7.66494
7.97162
8.25672
8.60982
6.27118
6.28726
6.63453
7.02617
7.41855
7.78221
8.11463
8.41508
8.68191
8.98795
6.60733
6.57482
6.95732
7.37864
7.77955
8.14122
8.465
8.74947
8.99263
9.2521
0.083632
0.10619
0.0336586
0.015219
0.0134959
0.192918
0.745395
1.34374
1.84985
2.35709
0.0546691
0.107364
0.0353693
0.0178588
0.0180537
0.207893
0.783243
1.44453
1.96886
2.65914
0.0372659
0.112835
0.0389891
0.0233917
0.0280258
0.238538
0.836232
1.54157
2.08494
3.00979
0.0275472
0.121581
0.0444015
0.0321167
0.0445818
0.281469
0.897826
1.62804
2.22729
3.42634
0.0226076
0.133116
0.0514431
0.0438864
0.0674606
0.3315
0.960477
1.70762
2.42824
3.90801
0.0208304
0.147252
0.0599101
0.0581077
0.0950108
0.383428
1.02116
1.79653
2.70188
4.40328
0.0216203
0.163982
0.0694717
0.073493
0.123241
0.430486
1.07772
1.90867
3.03165
4.82799
0.0251638
0.183114
0.0803143
0.0889304
0.151134
0.476442
1.14939
2.07304
3.39396
5.10745
0.0343905
0.204111
0.0913224
0.101067
0.16749
0.499521
1.19884
2.22191
3.66752
5.1077
0.0565056
0.225534
0.103582
0.113335
0.196796
0.563494
1.33956
2.47911
3.91764
4.91403
0.10852
0.256183
0.126505
0.122235
0.193397
0.550459
1.3796
2.58757
3.92719
4.69856
0.210061
0.298029
0.134758
0.113951
0.134593
0.388727
1.17685
2.37171
3.48578
5.22641
0.37337
0.31858
0.138288
0.0529024
0.0264317
0.214886
1.02768
2.30753
3.25409
4.96233
0.62838
0.319247
0.0366435
0.0653143
0.12279
0.338344
1.22255
2.49044
3.63408
4.67573
0.99865
0.122838
0.201181
0.40639
0.480895
0.794241
1.80112
3.10517
4.64578
5.14127
1.49568
0.0615561
0.570548
0.62427
0.778526
1.26003
2.40341
3.86986
5.57417
6.21151
2.16562
0.669083
0.896709
0.935358
1.15373
1.75128
2.97051
4.57878
6.29762
7.21633
3.778
1.66477
1.33432
1.27874
1.53349
2.21067
3.47395
5.16635
6.85561
7.9703
6.85671
3.5609
2.02125
1.64298
1.89126
2.62044
3.91068
5.63984
7.2972
8.50779
9.04869
6.38489
2.91866
2.18857
2.31118
3.02713
4.28801
6.03346
7.68728
8.93762
6.63284
6.69467
6.51665
6.3938
6.35221
6.3249
6.30705
6.31829
6.36259
6.4768
5.55484
5.03569
4.78816
4.54353
4.14209
3.55297
2.80798
1.93855
1.04866
0.285849
4.87019
4.24735
3.83139
3.61473
3.42309
3.30063
3.30503
3.44912
3.64965
3.87124
4.693
4.863
5.00732
5.3215
5.6916
6.0471
6.33228
6.5217
6.61759
6.64271
5.66774
6.27387
6.6056
6.90846
7.17177
7.38193
7.53261
7.62895
7.6774
7.69298
6.86204
7.38758
7.68473
7.90317
8.07753
8.21567
8.31847
8.38909
8.43097
8.44923
7.7661
8.12148
8.35287
8.51864
8.64852
8.7514
8.82987
8.88607
8.92184
8.93916
8.4054
8.63323
8.80926
8.9412
9.0442
9.12479
9.18606
9.23014
9.25861
9.27265
8.86629
9.01623
9.14761
9.25058
9.3308
9.39281
9.43942
9.47267
9.494
9.50443
9.24832
9.35014
9.44278
9.51613
9.57281
9.61579
9.64742
9.66952
9.68346
9.6901
9.50932
8.9851
8.23557
6.92803
5.59823
0.131318
3.36043
5.96017
7.21359
8.15148
9.46526
8.92131
8.16779
6.89033
5.54955
0.56407
2.6218
5.70588
6.91594
7.91355
9.36551
8.78254
8.01991
6.8093
5.36643
1.60392
1.41322
5.20662
6.30892
7.40286
9.18234
8.54481
7.77408
6.65473
5.18643
2.74044
0.722891
4.23842
5.42133
6.57103
8.86786
8.1732
7.40352
6.37649
5.02643
3.36814
0.970783
2.63144
4.31688
5.39344
8.35023
7.62918
6.87279
5.91658
4.76479
3.44038
1.71945
1.30191
3.04908
3.98778
7.53589
6.8957
6.15491
5.22645
4.29747
3.26909
2.14473
1.174
1.65577
2.55661
6.3262
6.03528
5.28114
4.23281
3.52928
2.90747
2.11963
1.43923
1.07003
1.2332
4.63719
5.22627
4.47127
3.00465
2.43691
2.26706
1.85363
1.3895
1.12684
0.659253
2.68417
4.53191
4.01038
1.96874
1.40003
1.4871
1.40937
1.21645
1.06882
0.848783
1.28736
3.78732
3.65474
1.33299
0.817626
0.903223
0.978969
0.964506
0.978045
1.02385
0.621175
2.97712
3.07855
0.953587
0.579612
0.653266
0.777293
0.836768
0.857858
0.888386
0.360518
2.19454
2.28574
0.695759
0.50836
0.618308
0.751468
0.834741
0.869716
0.892084
0.268543
1.53855
1.47998
0.543146
0.564495
0.703396
0.815823
0.885893
0.907444
0.915853
0.241618
0.981677
0.828021
0.544164
0.699631
0.830427
0.929626
0.99165
1.00565
1.00147
0.242125
0.45257
0.493162
0.649794
0.834193
0.971772
1.06669
1.12131
1.13066
1.12273
0.160349
0.194889
0.503143
0.752838
0.973778
1.11542
1.20076
1.24841
1.26843
1.27074
0.0408149
0.253767
0.637016
0.907205
1.10635
1.21676
1.30033
1.38183
1.44191
1.46191
0.0699294
0.488924
0.805901
1.05015
1.17121
1.29934
1.47485
1.63762
1.71241
1.71985
0.715712
0.872028
0.994016
1.11055
1.28522
1.60335
1.91512
2.05109
2.03625
2.00508
0.3633
0.0710351
0.231769
0.558088
0.778203
0.853422
0.873367
0.892074
0.909377
0.928743
0.469394
0.221896
0.317472
0.51668
0.695516
0.757999
0.775351
0.795319
0.814201
0.832659
0.540419
0.388964
0.4352
0.495293
0.610858
0.660061
0.673923
0.693408
0.71291
0.72932
0.658012
0.600105
0.587958
0.524072
0.527158
0.553178
0.565153
0.584958
0.605063
0.619022
0.821347
0.80075
0.726381
0.595515
0.462001
0.443782
0.451226
0.471014
0.491411
0.502786
1.01264
0.979766
0.84601
0.68092
0.430901
0.338002
0.333682
0.350118
0.368361
0.376247
1.21438
1.13516
0.944828
0.7501
0.431565
0.247292
0.216839
0.231184
0.249997
0.25727
1.42408
1.27911
1.03137
0.794433
0.441526
0.185483
0.102984
0.0864142
0.0905991
0.0840899
1.64787
1.42224
1.11564
0.821226
0.446116
0.147784
0.0436125
0.0212564
0.0171928
0.0133936
1.89216
1.56762
1.20611
0.84257
0.447425
0.128184
0.0284145
0.0133163
0.0109478
0.0100812
2.0101
0.745629
0.737335
0.988976
1.21389
1.30709
1.33039
1.33236
1.32738
1.33214
1.39526
0.481888
0.600898
0.89722
1.1204
1.21092
1.23653
1.24457
1.24649
1.25558
0.751787
0.285762
0.503894
0.818568
1.04097
1.12866
1.15478
1.16689
1.17368
1.18598
0.253974
0.178662
0.427536
0.743735
0.959376
1.04038
1.06454
1.07961
1.09072
1.10602
0.43193
0.0323758
0.28717
0.627633
0.857002
0.942076
0.967245
0.985842
1.00133
1.01982
9.35461
9.29
9.14091
8.87295
8.4373
7.77847
6.87078
5.75878
4.5818
3.53733
9.19244
9.0956
8.88102
8.51151
7.94127
7.13611
6.10914
4.95459
3.84449
2.78687
9.02382
8.90018
8.6265
8.16087
7.4615
6.51575
5.37079
4.1679
3.08064
1.94203
8.81619
8.66206
8.32131
7.74767
6.90582
5.81374
4.55422
3.29393
2.22495
1.0888
8.58726
8.37912
7.92551
7.17705
6.11207
4.79149
3.34976
2.08353
0.990279
0.299811
1.06247
1.02845
1.02308
1.02884
0.924214
0.806132
1.29667
3.66654
3.84853
1.33423
0.956065
0.942312
0.937515
0.883856
0.731294
0.598188
0.919153
3.12516
3.09491
0.655263
0.996277
0.99369
0.978431
0.906127
0.761688
0.600989
0.715922
2.35121
2.3181
0.382281
1.06212
1.07358
1.06968
1.01048
0.902029
0.759392
0.679269
1.52669
1.58512
0.280175
1.18423
1.20638
1.21112
1.165
1.07865
0.958394
0.797059
0.878702
0.866
0.248555
1.33136
1.3491
1.35443
1.32676
1.25772
1.1279
0.908214
0.644412
0.338126
0.210833
1.51096
1.50784
1.47562
1.42671
1.3656
1.25463
1.02475
0.715081
0.26464
0.0632303
1.74627
1.74201
1.66859
1.52375
1.37872
1.26648
1.12527
0.838947
0.465733
0.0468255
2.00241
2.04227
2.03969
1.86787
1.55103
1.26436
1.11024
0.973944
0.794667
0.646259
2.21986
2.25713
2.35652
2.39627
2.12675
1.57385
1.13538
1.00103
1.20867
1.94115
8.15129
7.21324
5.95981
3.35992
0.131575
5.59677
6.92753
8.23538
8.98512
9.50942
7.91286
6.91483
5.70488
2.62117
0.563959
5.54569
6.88887
8.16721
8.92136
9.46557
7.4014
6.30703
5.20482
1.41505
1.60028
5.36189
6.80701
8.01902
8.78267
9.3661
6.56836
5.41841
4.23612
0.726055
2.73229
5.18163
6.65183
7.77306
8.54513
9.18338
5.38898
4.31232
2.63198
0.971174
3.35704
5.02039
6.37294
7.40251
8.17391
8.86965
3.97934
3.04096
1.30948
1.71432
3.42732
4.75588
5.91172
6.87176
7.63057
8.35333
2.54004
1.65193
1.18834
2.13539
3.25098
4.28153
5.21802
6.15364
6.89829
7.54157
1.21474
1.08771
1.45537
2.10948
2.87783
3.50144
4.21906
5.28072
6.04045
6.33782
0.670442
1.15546
1.41093
1.84268
2.22971
2.40365
2.98941
4.47402
5.23612
4.66276
0.886503
1.10512
1.25119
1.41573
1.46779
1.37599
1.94785
4.01264
4.5543
2.72943
2.07309
0.527636
1.04006
0.742027
0.767727
0.772295
0.624028
0.299075
0.0635056
0.358522
1.60789
0.245536
0.834104
0.582924
0.664094
0.683473
0.571891
0.35022
0.278313
0.495133
1.31629
0.0315456
0.594577
0.432951
0.558052
0.587927
0.527835
0.451745
0.479508
0.601587
1.05634
0.0309569
0.345223
0.300045
0.449689
0.487004
0.51931
0.611872
0.725609
0.766803
0.800648
0.113249
0.115634
0.205542
0.338222
0.393337
0.558954
0.771761
0.944575
0.973546
0.587478
0.166742
0.0202537
0.0414308
0.234119
0.322281
0.627155
0.910025
1.13495
1.19844
0.416957
0.168201
0.049017
0.0134142
0.102449
0.284628
0.683458
1.01551
1.2956
1.42555
0.288408
0.147971
0.0410999
0.0222041
0.0300401
0.251995
0.710547
1.09659
1.44012
1.65122
0.194611
0.125277
0.0371008
0.0177857
0.0150189
0.21721
0.717821
1.16954
1.57982
1.87444
0.128555
0.111296
0.0339473
0.0151628
0.0125993
0.19586
0.725026
1.25013
1.71828
2.10116
9.33636
6.76771
2.69679
1.80779
1.31825
1.19653
1.01995
0.813003
0.799354
2.03527
8.21054
4.63077
2.23724
1.52975
1.19217
1.10339
0.934646
0.677442
0.527568
1.40005
6.11802
3.05582
1.80305
1.32596
1.0883
1.02848
0.8643
0.582413
0.325988
0.741298
4.12616
1.86348
1.50306
1.12009
0.981375
0.949306
0.795626
0.503955
0.227977
0.224856
2.82229
1.05291
1.24157
0.919623
0.869427
0.854043
0.691041
0.364115
0.0443681
0.39686
3.5479
4.58888
5.76268
6.87297
7.78003
8.43843
8.87372
9.14138
9.29026
9.35469
2.78108
3.84101
4.95206
6.10752
7.13555
7.9413
8.51173
8.88124
9.09576
9.1925
1.92793
3.07152
4.16175
5.36626
6.51329
7.46038
8.16045
8.62641
8.90021
9.02384
1.05362
2.20196
3.28077
4.54616
5.80961
6.90362
7.74655
8.32085
8.66191
8.81616
0.298093
0.959287
2.0624
3.33661
4.78454
6.10846
7.17506
7.92456
8.37875
8.58717
)
;

boundaryField
{
    left
    {
        type            calculated;
        value           nonuniform List<scalar> 
35
(
0.277644
0.543848
0.979223
1.62918
2.5334
3.69535
5.05876
6.47481
8.15828
9.44173
0.209472
0.147369
0.112401
0.0938238
0.0846788
0.0814929
0.0830907
0.0903492
0.110352
0.157969
4.93046
4.05041
3.22031
2.50282
1.90154
1.39883
0.997777
0.692159
0.468047
0.311815
9.61567
8.97924
7.9227
6.84867
5.8592
)
;
    }
    right
    {
        type            calculated;
        value           nonuniform List<scalar> 
35
(
1.33218
1.25582
1.1864
1.10659
1.0204
0.928923
0.832119
0.72764
0.615961
0.498392
0.370883
0.251594
0.0804182
0.012774
0.0100317
0.010021
0.0100263
0.0100324
0.0100389
0.0100455
0.0100517
0.0100572
0.0100616
0.0100642
0.0100624
0.0100134
0.0565959
0.345934
0.551381
0.72373
0.878375
1.00492
1.11326
1.19772
1.27611
)
;
    }
    down
    {
        type            calculated;
        value           nonuniform List<scalar> 
40
(
9.45411
7.26357
2.92374
1.89312
1.35648
1.22751
1.04938
0.856007
0.900825
2.26226
3.8328
4.88197
6.03328
7.09225
7.94416
8.55474
8.9543
9.19915
9.33558
9.39483
9.39474
9.3353
9.19864
8.95344
8.55341
7.94222
7.08932
6.02817
4.87295
3.81911
2.23327
0.845586
0.780389
1.02114
1.24693
1.33912
1.36033
1.35969
1.35213
1.35544
)
;
    }
    up
    {
        type            calculated;
        value           nonuniform List<scalar> 
40
(
9.03354
7.80646
6.16496
4.40777
3.09655
2.26406
1.75482
1.47304
1.35702
1.29917
9.72926
9.72305
9.71045
9.69064
9.66233
9.62375
9.57258
9.50578
9.42062
9.32793
9.33462
9.42621
9.51013
9.57604
9.62651
9.66452
9.69232
9.71164
9.72376
9.7295
9.27045
7.09693
3.30105
2.32483
2.42353
3.1526
4.4132
6.16206
7.81356
9.04428
)
;
    }
    cylinder
    {
        type            calculated;
        value           nonuniform List<scalar> 
80
(
2.2174
4.73979
5.58148
5.78529
6.31211
7.09825
7.86745
8.47807
8.91411
9.21363
9.44607
9.61879
9.72983
9.7983
9.84095
9.86845
9.88649
9.89816
9.90522
9.90869
9.50069
9.65078
9.74912
9.81051
9.84902
9.8739
9.89017
9.90055
9.90657
9.90913
5.15596
6.14144
6.14795
6.26311
6.80153
7.51164
8.17137
8.68516
9.0509
9.30288
1.0037
0.477255
0.267518
0.185352
0.162729
0.165919
0.0825194
0.0395594
0.720841
2.33204
9.59433
9.55575
9.46729
9.30169
9.0096
8.51129
7.6869
6.37017
4.3992
2.25373
9.59423
9.55543
9.46668
9.3006
9.00769
8.50796
7.68065
6.35664
4.36754
2.20429
0.961569
0.448139
0.248279
0.173516
0.152675
0.168688
0.151432
0.0808209
0.0430841
0.742907
)
;
    }
    defaultFaces
    {
        type            empty;
    }
}


// ************************************************************************* //
