/*--------------------------------*- C++ -*----------------------------------*\
  =========                 |
  \\      /  F ield         | OpenFOAM: The Open Source CFD Toolbox
   \\    /   O peration     | Website:  https://openfoam.org
    \\  /    A nd           | Version:  13
     \\/     M anipulation  |
\*---------------------------------------------------------------------------*/
FoamFile
{
    format      ascii;
    class       volVectorField;
    location    "0.8";
    object      U;
}
// * * * * * * * * * * * * * * * * * * * * * * * * * * * * * * * * * * * * * //

dimensions      [0 1 -1 0 0 0 0];

internalField   nonuniform List<vector>
1800
(
(0.0925540625648 -0.0858417031335 -2.76906243861e-16)
(0.501893882113 -0.426851259767 -2.32190571363e-17)
(0.948250093806 -0.763191776458 -9.22373858146e-18)
(1.25685312141 -0.970138255336 -8.60726638395e-18)
(1.41534959482 -1.04814190539 8.94616587409e-18)
(1.47874947072 -1.04609186238 1.44726666214e-17)
(1.49570802826 -1.0063493702 -1.61784036338e-17)
(1.49302245598 -0.953296714868 -8.13371303133e-18)
(1.48342517417 -0.894988355499 2.72190556363e-18)
(1.4515053744 -0.845525605706 1.39732913017e-17)
(0.126084195195 -0.0995207898913 -4.98663948752e-19)
(0.605897961748 -0.437739590136 -9.0709964442e-18)
(1.10317965413 -0.75568111512 -3.61160634021e-19)
(1.43393848591 -0.944723734994 7.73366771616e-20)
(1.59494740515 -1.01136702669 -2.03586437658e-18)
(1.65224101898 -1.00400087243 1.58250835052e-18)
(1.66123523426 -0.962470479567 -1.24253037803e-18)
(1.6518028317 -0.909059197471 7.84988949938e-19)
(1.63690658166 -0.852786074055 3.21255060977e-20)
(1.61319405831 -0.808852132806 -3.08332252009e-19)
(0.166331092173 -0.111111099192 -1.33412574643e-19)
(0.718439277788 -0.437601858232 6.7795465656e-19)
(1.26125911042 -0.728970193863 5.2859640304e-20)
(1.60773608714 -0.895765953108 1.54901641338e-19)
(1.76641577057 -0.950276634805 -1.46682231192e-18)
(1.81436778347 -0.939064367806 3.80406848235e-19)
(1.81266075272 -0.898708615524 6.26600671436e-19)
(1.79290709355 -0.849328033318 -7.52419145048e-20)
(1.76825410519 -0.798958952424 -5.16470909896e-21)
(1.73460393484 -0.758517180074 -3.21104545278e-20)
(0.213124013835 -0.119035443647 -1.33770773838e-20)
(0.837532630479 -0.423982136941 -1.01205181432e-19)
(1.41915274733 -0.681262704967 -2.32449370572e-19)
(1.77496631832 -0.822299942005 6.57627108147e-20)
(1.92789453972 -0.863983050503 3.83584064562e-19)
(1.96588241259 -0.849260825465 3.47246596419e-20)
(1.95458623352 -0.810194677673 -2.47082382167e-20)
(1.92675664051 -0.763844108817 5.60742110568e-19)
(1.89529260312 -0.716985571705 4.66184506147e-19)
(1.8588574958 -0.680741728094 -1.57743356284e-19)
(0.265915629458 -0.121981585775 1.09719972225e-19)
(0.960400498184 -0.395825574709 1.6279368206e-19)
(1.57228465479 -0.613396414786 -7.63828469836e-20)
(1.92993505466 -0.727230979039 -8.91622774927e-20)
(2.07305207284 -0.757256421381 -1.15677749382e-18)
(2.09960012233 -0.741272182845 1.04581573751e-20)
(2.07859003361 -0.706157895732 9.5381251508e-19)
(2.04295912582 -0.665864125784 3.23185798924e-19)
(2.00504168338 -0.626088157015 1.97134733433e-20)
(1.96437733821 -0.595101552471 -2.0737922679e-19)
(0.32337066188 -0.118275665257 -7.56235382936e-20)
(1.08314007666 -0.351305605389 2.31801329351e-19)
(1.71570094011 -0.52484022827 9.4546482519e-19)
(2.06826171609 -0.611077061759 -7.60439991354e-19)
(2.19859416689 -0.630731463215 -8.42076744577e-19)
(2.21341983663 -0.614853403254 1.44836805653e-18)
(2.1835879019 -0.584601402905 -1.04972989305e-18)
(2.14135436329 -0.550738250555 -1.17323974845e-18)
(2.098160502 -0.517711177253 8.41885800522e-19)
(2.05452007432 -0.492519882311 -2.7686259302e-20)
(0.383812730707 -0.106765002058 1.03424390157e-19)
(1.20168059853 -0.290276657451 -5.63520186782e-19)
(1.8447732358 -0.417624100318 -2.54467703658e-18)
(2.1857584965 -0.477647345127 1.27241127959e-18)
(2.30102493576 -0.489328995591 2.13464990873e-18)
(2.30434454567 -0.475685735915 -6.30931341062e-21)
(2.26685582594 -0.452000914656 -2.83987683159e-18)
(2.2193875522 -0.425970214984 3.63620434932e-21)
(2.17227024646 -0.400930290609 2.55587377687e-18)
(2.12631178749 -0.382124985989 6.70392763664e-19)
(0.44481083432 -0.0864578550881 -1.36335800838e-20)
(1.31115108369 -0.212845596188 4.44131077968e-19)
(1.95465254265 -0.293602786148 2.0008517016e-18)
(2.2787136786 -0.329812751263 -6.17853541282e-20)
(2.37776378735 -0.336032855485 -1.37826079889e-18)
(2.37039700815 -0.326325692002 -4.37561081501e-19)
(2.32663247931 -0.310235628788 0)
(2.2752726806 -0.292669474035 9.96671037091e-19)
(2.22538568811 -0.275962401616 3.1522437314e-21)
(2.17801275174 -0.264009719243 -8.14149354503e-19)
(0.503666926856 -0.0570515973566 2.05267121163e-21)
(1.40705108242 -0.120527571666 9.68755771647e-19)
(2.04147656875 -0.15607944177 1.81945372133e-18)
(2.34470216392 -0.171837060287 -1.89961120804e-18)
(2.42732149199 -0.175292650705 -1.41770772855e-18)
(2.41064026009 -0.171114507679 4.43291246163e-19)
(2.36226138475 -0.163498408584 -1.87223060098e-18)
(2.30850490205 -0.154896738443 -1.29363448172e-18)
(2.25718493408 -0.146776337309 1.52090584835e-18)
(2.20923811422 -0.141776790629 1.29314506125e-18)
(0.557521666961 -0.0189029848648 1.24581151054e-19)
(1.48505948583 -0.01546502463 6.69580265821e-19)
(2.10204922869 -0.00850439170095 3.44641768832e-19)
(2.38194935801 -0.00778570446626 -2.76658172434e-18)
(2.44876795823 -0.010943907363 2.78626640066e-20)
(2.42447443695 -0.0135697693028 4.22335924666e-18)
(2.37316110992 -0.0149255064576 -2.26050425387e-18)
(2.31844111671 -0.015467536255 -1.25125677205e-18)
(2.26687999014 -0.0159216591779 4.17919663164e-19)
(2.21926421946 -0.0177659836519 -9.41941300917e-19)
(-0.00151273836293 -0.0106412424529 9.65073481519e-20)
(0.00419024983782 -0.0772965680198 6.81783670521e-20)
(0.0405016634346 -0.153843955459 -1.87168497512e-21)
(0.0944067083363 -0.208132846818 -7.94125501032e-21)
(0.156437951388 -0.235199465989 -2.73412349341e-21)
(0.21994553113 -0.243335848862 -7.97194800126e-20)
(0.280861444557 -0.241329163207 2.6123792231e-21)
(0.337430866571 -0.234848899788 6.65844266089e-21)
(0.389208862705 -0.22689434611 2.86595684581e-21)
(0.436586307984 -0.220070872698 -7.23032041348e-21)
(-0.000611425797502 -0.010070848332 3.30116769144e-20)
(0.0157417034297 -0.115469245807 8.02432733038e-20)
(0.0651635126864 -0.242524744386 -1.09673472094e-19)
(0.128502253516 -0.333383175398 -5.24376370006e-20)
(0.194950411598 -0.377819090302 -7.22715854117e-20)
(0.259487741299 -0.38960921895 -1.15490769156e-19)
(0.31967671262 -0.383912779307 6.68782034582e-20)
(0.374752721658 -0.37059432323 1.52801062872e-20)
(0.42467625566 -0.354951911429 -2.68928275993e-20)
(0.471024510089 -0.342522434225 -1.49791912912e-21)
(0.000469746644412 -0.0106195979321 -3.56385366608e-20)
(0.0339959044726 -0.15402024734 1.77536425546e-19)
(0.104920716821 -0.32911128339 7.1428071898e-20)
(0.18379063206 -0.454135460605 2.91809820844e-19)
(0.257550281491 -0.514400239188 5.85137004936e-20)
(0.323790271034 -0.529101992664 -3.77927088241e-19)
(0.382784747277 -0.519491541874 -6.58980712272e-21)
(0.435412638068 -0.499404678225 1.31514476157e-19)
(0.482318113263 -0.476337470594 -7.58691878599e-20)
(0.527092109711 -0.458436578509 -2.29452037528e-20)
(0.00212756245733 -0.0126775098002 -1.07946894816e-19)
(0.0595205658524 -0.192818447122 -2.98443297704e-20)
(0.159972683752 -0.412271790114 3.0326110636e-20)
(0.259955554332 -0.56795956417 -1.2877640187e-19)
(0.343546713567 -0.641871944624 4.85379347942e-20)
(0.411939455764 -0.658477051519 2.21277881458e-19)
(0.469165487927 -0.644688171806 7.81320258485e-20)
(0.518366237911 -0.617975412246 -3.75621242795e-20)
(0.561133532957 -0.587880092942 2.0333774598e-20)
(0.603802853966 -0.564675824365 -3.1249792615e-21)
(0.00492473460483 -0.0166637120548 0)
(0.0930624835886 -0.231740917149 8.34123070188e-20)
(0.230492687807 -0.490659837465 2.35583558695e-19)
(0.356408600506 -0.672457598928 -2.66830622004e-19)
(0.451813787167 -0.757227489859 -5.97122678373e-19)
(0.522523247538 -0.774510806269 2.28999110115e-19)
(0.577301735178 -0.756290382935 -4.13132539231e-20)
(0.622111342782 -0.723206962175 -9.6852923896e-20)
(0.659733881123 -0.686627722292 0)
(0.699789996513 -0.658293324069 -9.9144625583e-21)
(0.00961380463001 -0.0229660948153 3.89704829962e-20)
(0.135536627814 -0.270549515903 1.03453242838e-19)
(0.316556541285 -0.562847595816 2.87854225364e-20)
(0.47218273738 -0.765246892175 2.32671015094e-19)
(0.580658746703 -0.857593634537 -1.85186568384e-19)
(0.653483943971 -0.874210267273 -3.22075028758e-19)
(0.705035708731 -0.851398054745 5.80523345642e-19)
(0.74454521019 -0.812381303109 5.24018779702e-20)
(0.776209259895 -0.770011939228 -3.69691039588e-19)
(0.813101268722 -0.736648676953 -7.61581638026e-21)
(0.0171369546324 -0.0318599611591 5.58959504244e-21)
(0.187925023617 -0.308764527122 4.30263147153e-20)
(0.417991401789 -0.627253782451 1.35988996288e-19)
(0.605781941221 -0.844027316307 2.58006936267e-20)
(0.727692125504 -0.940404085971 3.16206919675e-19)
(0.802005554172 -0.955086899404 -4.29025851432e-19)
(0.849442063937 -0.92778933082 -4.39424535224e-19)
(0.882811878106 -0.883625455261 -3.90048285702e-19)
(0.9079517034 -0.836380460522 2.85778271254e-19)
(0.940697005267 -0.797956066575 3.16152390524e-19)
(0.0285024365125 -0.0433306164479 -1.22293866673e-19)
(0.250919021686 -0.345448444408 3.85983064034e-20)
(0.533894307025 -0.682035979267 2.97066450602e-19)
(0.754700720795 -0.906560998217 -1.70080987895e-19)
(0.889384394436 -1.00347078931 3.27254534168e-19)
(0.964100699038 -1.01530908887 8.29274672254e-19)
(1.00644038842 -0.98418638914 6.03671014625e-19)
(1.03287235888 -0.936353678085 -4.63053090857e-19)
(1.0510910891 -0.885630927294 -2.25950416061e-19)
(1.07728724783 -0.842209840213 3.22601846019e-19)
(0.0444801459356 -0.0568265092835 -2.1274267324e-19)
(0.3244133623 -0.378929754071 -3.31670259389e-19)
(0.662120937319 -0.724824192364 5.42675691499e-19)
(0.914883443507 -0.950272756685 6.80039669169e-19)
(1.06037120832 -1.04427621853 -7.30717512882e-19)
(1.13362439484 -1.05254201423 8.59871075929e-19)
(1.16938276208 -1.01855004534 1.31314682531e-19)
(1.18770790542 -0.968886233035 -1.08668711127e-18)
(1.19820643467 -0.916247811118 -2.65159201428e-19)
(1.21285715971 -0.868431633247 3.49136993516e-19)
(0.0655881279478 -0.0713319291308 5.26480386205e-20)
(0.407986924861 -0.406809346816 -3.38740750979e-19)
(0.800511487701 -0.752675993712 -3.99649237749e-19)
(1.08265994006 -0.97213585145 7.0668290771e-19)
(1.23590111365 -1.05967183371 5.93097635871e-19)
(1.30496586532 -1.06326801132 -7.62191839467e-19)
(1.33170756147 -1.02653836559 -6.48599653776e-19)
(1.33969943296 -0.97551027122 3.90231518747e-19)
(1.34038493707 -0.920765192118 -4.0176279252e-19)
(1.33622810935 -0.869943250518 -2.48090095129e-19)
(0.614460370717 -0.178403500234 2.9387346122e-20)
(0.797318138504 -0.13481558258 -5.39611363855e-20)
(0.8880810366 -0.105541000551 8.08103174845e-21)
(0.93972618287 -0.0826131483994 8.32572523096e-21)
(0.97009801944 -0.0640522898795 -3.83500072312e-21)
(0.988067883725 -0.04887463114 -8.90314772346e-22)
(0.99909688174 -0.0364537031656 -2.58929963079e-21)
(1.00605172673 -0.0261199115124 -2.98858338343e-21)
(1.01027027464 -0.0181486629265 5.98761047312e-21)
(1.01321903584 -0.00769713165656 2.82666788305e-21)
(0.632269539976 -0.254904176461 9.28729258405e-20)
(0.809561396668 -0.174715165948 9.11731432515e-21)
(0.896596478428 -0.12731033667 4.0857094284e-21)
(0.946224990036 -0.0947379736538 -3.36335551905e-21)
(0.975229955917 -0.0710946996551 -7.44504912815e-21)
(0.992188546183 -0.0530865176086 0)
(1.00243001705 -0.0390220171916 -2.80328630676e-21)
(1.0087782123 -0.0276912191599 3.3804648292e-21)
(1.01258994353 -0.0191197540569 4.61886798834e-22)
(1.01516796164 -0.00808592560161 -3.21649705326e-21)
(0.66063542672 -0.328638911137 -5.86612563136e-20)
(0.827174447805 -0.213742708798 -3.50135693325e-20)
(0.907900971304 -0.148796997503 1.35036750417e-20)
(0.95419762211 -0.106731353645 -8.41642118003e-21)
(0.981155827155 -0.0780232162591 -3.72808413007e-21)
(0.996767974642 -0.0571897082242 5.86372105911e-21)
(1.00604104775 -0.0414896687081 0)
(1.0116831358 -0.0291759639376 0)
(1.01502555676 -0.0200199469989 -1.24083538627e-21)
(1.01720995124 -0.00844061813193 0)
(0.699751698947 -0.398060448806 -3.02412579751e-20)
(0.84987699332 -0.251384837703 6.56289929978e-20)
(0.921939637586 -0.169744147441 7.68468498182e-21)
(0.963631785215 -0.118467938588 0)
(0.98787210158 -0.0847647010512 1.41248943166e-20)
(1.00179833898 -0.0611397668475 -1.69845113952e-21)
(1.0099204941 -0.0438289533779 0)
(1.0147569057 -0.0305570052043 1.84090834588e-21)
(1.01756390758 -0.0208376520761 0)
(1.01931231374 -0.00875652246867 3.20427751121e-22)
(0.749792873766 -0.461595406833 -3.32919432685e-20)
(0.877313280027 -0.287211979651 9.28514712034e-20)
(0.9386327271 -0.189911822825 -4.11520498859e-21)
(0.974500902536 -0.129825178311 0)
(0.995371770383 -0.0912500675844 2.30646720937e-21)
(1.00726846509 -0.0648938198517 3.15051640352e-21)
(1.01405148819 -0.0460128206061 5.77018025512e-21)
(1.01799411937 -0.0318167505135 1.10549242985e-21)
(1.02021811534 -0.0215617259505 -1.6669990862e-21)
(1.02149242915 -0.00902900923398 2.62817696504e-21)
(0.810585495306 -0.517529373189 -6.39054459373e-19)
(0.9089672002 -0.320805657217 -1.68600503065e-19)
(0.957846936965 -0.209128341009 1.61605215058e-21)
(0.986762977317 -0.140703282854 2.44816428201e-20)
(1.00363413084 -0.097418754301 -3.40727664401e-21)
(1.01316605359 -0.0684127084845 2.99815251459e-21)
(1.01843558462 -0.0480150255221 8.36795105788e-22)
(1.02134172983 -0.0329375447563 -5.10015429819e-21)
(1.02292323253 -0.0221806884728 -2.15459037478e-22)
(1.02371824929 -0.00925361740572 6.87626150236e-22)
(0.881306599407 -0.564083913566 -5.92595122384e-21)
(0.943740613275 -0.351247011947 6.49352194907e-20)
(0.979186434581 -0.227130788659 2.99589517176e-21)
(1.00030310652 -0.150992377121 -6.82533797292e-22)
(1.01261985701 -0.103214031816 -1.77601472707e-20)
(1.01946570546 -0.0716609480538 5.06807017817e-21)
(1.02302802552 -0.049811542379 -1.76879514577e-21)
(1.02482987623 -0.0339029564842 -4.25407081219e-21)
(1.02569960519 -0.0226837315072 5.20148442625e-22)
(1.02597305284 -0.00942613234644 -1.84189432172e-21)
(0.961854787802 -0.601377898659 2.75545882472e-19)
(0.98013698989 -0.37811436707 7.22975122255e-20)
(1.00149556946 -0.243676373958 0)
(1.01465663034 -0.160511985327 -1.01319109309e-21)
(1.02215279137 -0.108536653024 1.41274217276e-20)
(1.02607314729 -0.0745867317439 1.29745273274e-21)
(1.02781424728 -0.0513747551633 -9.73148778143e-21)
(1.02840001707 -0.034696566468 2.73634440139e-21)
(1.02851776317 -0.023061394881 -1.32732547177e-23)
(1.02824744888 -0.00954351152087 -4.01578975957e-23)
(1.05583315875 -0.632789796831 -4.12271974537e-19)
(1.02066090733 -0.40375720959 -1.87977020967e-19)
(1.02439704743 -0.260400537492 4.28355919612e-20)
(1.0291624136 -0.170014464813 2.19999935085e-22)
(1.03179656294 -0.113668897207 -2.06589114088e-21)
(1.03278640081 -0.0772761680885 -9.76619173887e-21)
(1.03265664056 -0.0527219770926 2.07128122696e-21)
(1.03201477622 -0.0353153582439 5.2827743387e-22)
(1.03135717251 -0.0233067706083 -3.21048587328e-21)
(1.03052980774 -0.00960542716065 -3.15212603987e-21)
(1.16353449444 -0.655290945785 2.89774012898e-19)
(1.07493341097 -0.42441416192 -1.84251721415e-19)
(1.05246768402 -0.276731780377 -3.02183414495e-20)
(1.04539173951 -0.180128074666 -3.15967914436e-20)
(1.04199063541 -0.119239709104 -1.69555516505e-20)
(1.03967403956 -0.080121623483 -8.19318330435e-21)
(1.0375885837 -0.0540540314535 -4.38648853127e-21)
(1.03565272939 -0.035845744811 0)
(1.03418078712 -0.0234538767983 3.41063147969e-22)
(1.03282226589 -0.00960743840489 1.57025972225e-21)
(1.32166932828 -0.639039541352 4.69166960577e-19)
(1.17503811624 -0.425825426726 1.26335073408e-19)
(1.10962097935 -0.279051265707 -9.03108928548e-20)
(1.07827972648 -0.182082285073 5.52729512508e-21)
(1.06128003391 -0.120281952684 6.96048338475e-21)
(1.05153919165 -0.0804225250272 -3.13442141364e-21)
(1.04525883497 -0.0539241710675 1.72868583324e-21)
(1.04087929568 -0.0355398545007 3.57172315902e-21)
(1.0379792385 -0.0231177747482 -2.78626522495e-21)
(1.03574894415 -0.00945107182907 3.45679456598e-22)
(1.37445083629 -0.523969372644 -8.26403859209e-21)
(1.20873365364 -0.361550048744 1.27835003848e-19)
(1.13744184544 -0.245985342233 9.76953243113e-20)
(1.10078571239 -0.166013433432 -1.172829992e-20)
(1.07762920184 -0.111892730124 4.56442507113e-20)
(1.06291348597 -0.0755591565987 2.92662871678e-20)
(1.05318580847 -0.0508820037789 2.02306907249e-20)
(1.04652670238 -0.0335920895828 -1.94846833826e-21)
(1.04223080952 -0.0218701539327 7.10021265812e-21)
(1.03903923115 -0.00893449179005 3.67283620481e-21)
(1.43252293627 -0.449217189485 -1.36103617057e-19)
(1.26147759774 -0.323201528624 -1.03239108977e-20)
(1.17390016299 -0.223724726236 4.81492106149e-21)
(1.12539394332 -0.152730033786 1.88124774644e-37)
(1.09416934098 -0.103616235721 1.22291807041e-21)
(1.07406431055 -0.0701644277976 -8.06386881637e-35)
(1.06084263664 -0.0472778707449 -3.18043970927e-21)
(1.0519293924 -0.0311974046935 -2.19729355662e-34)
(1.04626296662 -0.0203004692338 8.88006448183e-22)
(1.04211256064 -0.0082903897259 -2.62161574558e-21)
(1.46777423877 -0.368903666022 -2.04612357435e-34)
(1.29819241711 -0.274807886227 -3.40819624053e-20)
(1.20262254223 -0.194663829397 -3.42312958334e-20)
(1.14620940416 -0.135260463873 0)
(1.10875825924 -0.0927434684724 -1.94650727459e-20)
(1.08413019968 -0.0631244528746 -1.33262151997e-20)
(1.06782264805 -0.0426196995797 -7.340687966e-21)
(1.056871407 -0.0281350997796 -2.87271857329e-34)
(1.049945556 -0.0183127116737 -2.18719716607e-21)
(1.0449183967 -0.0074813455926 2.51544556862e-21)
(1.49017039185 -0.296593682185 -8.12283611525e-20)
(1.32632425969 -0.228104721829 4.18527340092e-21)
(1.22611315436 -0.164547237936 0)
(1.16373226444 -0.11585907245 0)
(1.12134389813 -0.0801311092233 0)
(1.09294696755 -0.0547956911883 0)
(1.07399151171 -0.03707582544 -6.67294683077e-22)
(1.06125879478 -0.024492490894 -3.2204098653e-34)
(1.05321491528 -0.0159526590213 8.05312641439e-22)
(1.04738614117 -0.00652214811919 3.03373754253e-34)
(1.50383547075 -0.23011681074 -3.01033913071e-20)
(1.34716572777 -0.181659815995 0)
(1.24462653737 -0.13315777076 0)
(1.17796613719 -0.0948256355078 0)
(1.13177026272 -0.066088235838 0)
(1.10034189867 -0.0453910674369 0)
(1.07921710712 -0.0307795895034 1.16397988833e-21)
(1.06497839899 -0.0203507744909 4.89435734172e-21)
(1.0560035059 -0.0132670485651 7.67299498322e-22)
(1.04947971611 -0.00542931785248 3.21891325798e-21)
(1.51171185375 -0.168871767821 0)
(1.36192860617 -0.136089095768 -1.03602946097e-20)
(1.25848544397 -0.101044463196 -1.46732971741e-20)
(1.18890359636 -0.0726238597201 0)
(1.1399099358 -0.0509451250522 -9.425220618e-21)
(1.10619012259 -0.0351279123793 -6.70602099585e-21)
(1.08336307482 -0.0238703266499 -3.4876925861e-21)
(1.06795051908 -0.0157972963393 -2.9193042084e-21)
(1.05821041937 -0.0103084832821 4.07672319033e-21)
(1.05112004115 -0.00422319383557 1.63199793864e-21)
(1.51433113071 -0.111800641433 7.99243791237e-21)
(1.36981047499 -0.0914633404736 6.0858733176e-21)
(1.266450758 -0.0683534837361 -3.27289898566e-21)
(1.19527581343 -0.0494256091595 3.23623364226e-36)
(1.14460990621 -0.0348377791443 1.69243546019e-22)
(1.10941939749 -0.0240947431801 -5.42981946424e-35)
(1.0854566287 -0.0164010598703 9.61768008087e-22)
(1.06923684954 -0.0108626207265 3.66159255358e-21)
(1.05898467541 -0.00708835464312 6.49527858938e-22)
(1.05150355787 -0.00289965320102 -2.12941164304e-21)
(1.48624733523 -0.0529362177577 -3.89073315587e-20)
(1.34501304092 -0.0489787165496 9.91377536393e-21)
(1.2449131272 -0.0379825054274 1.14037259408e-20)
(1.17554636151 -0.0278937842024 0)
(1.12592170409 -0.019812523288 6.71925879434e-21)
(1.09127559067 -0.0137551769143 4.73730416206e-21)
(1.06759748163 -0.00938200632878 4.0932146159e-21)
(1.05155734068 -0.00622131604879 2.08950835824e-21)
(1.04141027781 -0.00406053701629 -1.84805890384e-21)
(1.03399458233 -0.00165632798987 2.52250117256e-21)
(1.07846788446 -0.0013652102719 0)
(0.996002393814 -0.00591006112899 0)
(0.93035280732 -0.00554647471651 0)
(0.882633033512 -0.00430270130668 0)
(0.847724445537 -0.00310911768375 0)
(0.823131969561 -0.00218107044501 0)
(0.806229543214 -0.00149764063381 8.19492355262e-22)
(0.794726250567 -0.00100243040334 -4.55503586337e-36)
(0.787392900858 -0.000639487460938 6.56185376163e-22)
(0.782073875611 -0.000247934931144 1.98589796719e-21)
(2.13448597123 -0.018526725763 8.7001487702e-19)
(2.12651769386 -0.125471140448 5.98453832605e-20)
(2.10100137172 -0.23051757517 -1.26479459472e-19)
(2.05763708324 -0.331738075144 -3.44821459458e-19)
(1.99932561486 -0.42624664042 -1.16957382061e-19)
(1.92181562446 -0.516300193867 -1.76446858967e-19)
(1.84230181098 -0.586658962099 -4.30373800759e-19)
(1.72629896632 -0.668493785635 1.34883899202e-19)
(1.65098905863 -0.692318323298 0)
(1.49132382318 -0.775440958091 4.31719636513e-20)
(2.04811604553 -0.0136027549877 2.26080476883e-19)
(2.04181236878 -0.0937427507312 -3.32245455712e-19)
(2.02286306475 -0.17282388905 -1.10216378792e-20)
(1.98809870172 -0.25080022481 -1.35844761481e-19)
(1.94650339867 -0.321793514872 2.7043905043e-20)
(1.88199247399 -0.398685372143 1.2702198487e-19)
(1.82923215541 -0.445066147184 5.2610023274e-21)
(1.73291818966 -0.530983158296 8.95908030188e-20)
(1.67892140903 -0.536844247085 -1.10919408803e-19)
(1.56867007214 -0.626356133432 2.56871203943e-20)
(1.97397653848 -0.0098771257641 -1.14532228734e-19)
(1.96922518389 -0.0734489380348 2.16926945455e-19)
(1.95498050206 -0.135747923444 1.87084720852e-19)
(1.92685137704 -0.198024746277 -2.30954656946e-19)
(1.8952283029 -0.252633578058 8.88410617791e-20)
(1.84280286469 -0.317008769761 1.41052099358e-19)
(1.80165548296 -0.349139627384 -5.55108660049e-20)
(1.72776315991 -0.425700190519 6.75613141615e-20)
(1.67936432595 -0.427855050844 7.0428096588e-20)
(1.59857989799 -0.505686559413 9.26390226207e-20)
(1.91701103349 -0.0103759930662 -2.07933601175e-19)
(1.91337216478 -0.0591102978095 3.35389814558e-20)
(1.90161496544 -0.106796436285 -9.02635602185e-20)
(1.8783299916 -0.155362439887 -5.9499334606e-20)
(1.85174641704 -0.197397291899 4.26414681978e-21)
(1.80934530055 -0.249331200062 -1.01783107063e-19)
(1.77303511854 -0.27400464027 9.03827600319e-20)
(1.71609700774 -0.336953054925 2.62892489852e-20)
(1.67139332532 -0.33971846232 -1.12116198975e-20)
(1.60987167317 -0.403278644643 9.53417504761e-21)
(1.87259583241 -0.00952040416255 5.06627355147e-20)
(1.86970706607 -0.0466493397155 5.88760180473e-20)
(1.85953931733 -0.082908618407 -5.64002835007e-20)
(1.84000735533 -0.12007223438 2.19301916465e-19)
(1.81642203494 -0.152205700802 7.74119959823e-21)
(1.78158250385 -0.192277161899 -1.41765827842e-19)
(1.74831111395 -0.211884755724 2.14118936643e-20)
(1.70288629657 -0.260494608707 -8.51198931796e-20)
(1.66227828497 -0.264274060823 1.05281426898e-19)
(1.61299754809 -0.313338586214 7.63414096952e-20)
(1.83894146642 -0.0100537689036 -1.10746106866e-19)
(1.83670596484 -0.037201529357 -5.80926863837e-20)
(1.82764596226 -0.0636874859813 2.88619319545e-20)
(1.81080360437 -0.090928239548 8.10527587748e-20)
(1.7891691207 -0.114719792349 6.10668513503e-20)
(1.75952082692 -0.144233408785 -4.14352030474e-20)
(1.72852389137 -0.159598477779 3.2899317634e-21)
(1.6903091997 -0.195441649843 4.4243515791e-20)
(1.65309422292 -0.19978242658 8.6732295731e-20)
(1.6110441645 -0.23638437089 -5.07779257522e-20)
(1.81416697959 -0.0109107713044 -4.30647176647e-20)
(1.81259702908 -0.0294440166937 -8.27836289156e-20)
(1.80443526982 -0.0474487673309 -6.17767924369e-20)
(1.78953295067 -0.0660174006407 -1.16427447766e-19)
(1.76934221489 -0.0824606920291 -1.04549732488e-20)
(1.7430847823 -0.102853035237 1.4311635572e-21)
(1.713759957 -0.114129174214 4.11550907354e-20)
(1.67982112069 -0.139265270816 -9.39631512974e-21)
(1.64521651765 -0.143387365422 -3.35077540385e-20)
(1.60721057713 -0.169633394934 6.97357848236e-21)
(1.79058719677 -0.011332100977 3.8418758311e-20)
(1.79037982562 -0.0221317450801 3.08350762869e-20)
(1.78388009813 -0.0325519917622 1.24954330407e-20)
(1.77134121384 -0.0432170082614 -2.24019713722e-20)
(1.75327561709 -0.0526743710609 -1.83815547393e-20)
(1.73012492514 -0.0649151006037 2.52558327884e-20)
(1.70281547822 -0.0717938311454 -5.00371207744e-21)
(1.67178096594 -0.0881969002112 -3.43473801353e-20)
(1.63927360974 -0.0910233055723 7.30373644644e-21)
(1.60366339337 -0.109860366288 4.48551014822e-20)
(1.70009502992 -0.0172950430271 -3.38205754809e-20)
(1.70051158097 -0.0199523783671 3.87812828621e-22)
(1.69788626914 -0.022038140591 5.07453597575e-20)
(1.69182897737 -0.0241337557884 -1.62715038228e-22)
(1.68165346437 -0.0253918255464 -5.79635639226e-21)
(1.66811764092 -0.0286730948091 5.31719801948e-22)
(1.64986508968 -0.0286821847981 1.2604970211e-20)
(1.62981519323 -0.0356979097503 -2.22053826711e-20)
(1.603410659 -0.0348598665518 2.98206553981e-20)
(1.58103519698 -0.0447441249687 1.00603168843e-19)
(1.10285549797 -0.00993150693985 3.24740971493e-20)
(1.09258567591 -0.00734453448547 2.23055602871e-20)
(1.08528697144 -0.00468004517005 1.88524205367e-20)
(1.08134258961 -0.00211454567817 2.31781020949e-20)
(1.07996530171 0.000432961436589 -6.22659871767e-21)
(1.08227736812 0.00252279434156 -2.39401270495e-22)
(1.08379466006 0.00519629552705 -5.73436663468e-21)
(1.0922870638 0.00529233072593 1.99206065063e-21)
(1.08953765694 0.00856500460472 -3.3184590785e-21)
(1.10684450196 0.00565945097171 3.87739526751e-21)
(1.37500801864 0.756764854524 -5.48068472136e-20)
(1.36066357443 0.803806411493 2.46365585717e-20)
(1.36577555693 0.858633489644 -4.63102215252e-19)
(1.37759303953 0.920734396179 2.16128516326e-19)
(1.3889698836 0.986924606152 8.74992389355e-19)
(1.39375550668 1.05305728877 -1.37705567227e-19)
(1.37315821642 1.10293541473 -8.48466085157e-19)
(1.27578079861 1.08403046606 -4.14741751148e-20)
(1.01156528863 0.89779709354 -4.35928642471e-19)
(0.475981933456 0.4373333062 1.42918776986e-19)
(1.54018628581 0.721884177117 0)
(1.53221654655 0.770875458887 5.4937817107e-19)
(1.53286169169 0.82364230471 1.24441494096e-18)
(1.54120965637 0.884130039867 -7.53491732763e-19)
(1.55366286614 0.950279146843 -1.80498974423e-18)
(1.5624757315 1.0172097365 -1.40795935441e-19)
(1.543995795 1.06769515469 -1.80183662343e-19)
(1.43734607555 1.04888124152 6.55655100818e-19)
(1.13842895518 0.865197433091 9.03703420135e-19)
(0.532900942427 0.417817279222 3.96983242758e-19)
(1.68609263098 0.692680406925 6.51887255241e-20)
(1.69067002909 0.740956601196 0)
(1.69538319539 0.790428514285 -6.74776887635e-20)
(1.70505120155 0.84605314012 7.60920531084e-19)
(1.7196351179 0.907475085166 5.35468155316e-20)
(1.73138158351 0.970453397747 -1.88131611156e-18)
(1.71311533848 1.01759214389 1.19834817851e-18)
(1.59512294167 0.996841039416 7.68936663206e-19)
(1.26007562629 0.817633723978 -8.16357605627e-19)
(0.585880823682 0.390347184257 -2.84906682158e-19)
(1.80579512338 0.658381354412 -1.16842624745e-19)
(1.82206028503 0.702423201153 -9.55048303262e-20)
(1.8360895908 0.747127243402 2.25424799622e-19)
(1.85304998742 0.797009716184 -2.83095709e-19)
(1.87375502463 0.852452419365 -1.36593252928e-18)
(1.89028055305 0.909671928263 -1.05612182821e-18)
(1.87224289292 0.951294152833 1.16853501724e-18)
(1.74157613246 0.926924779822 7.51949880554e-19)
(1.36923393624 0.75357806216 0)
(0.62994037057 0.353278295763 0)
(1.90445051308 0.606790409227 -7.87841176561e-19)
(1.93033575262 0.645382441858 -1.37750687811e-18)
(1.95479814829 0.685010725111 -5.50377694933e-19)
(1.98151885443 0.729232665141 -3.49127008744e-20)
(2.01071730574 0.778490676877 0)
(2.03345117482 0.829193542781 1.46494239328e-19)
(2.01550174757 0.864195267136 1.74017449474e-19)
(1.87048344115 0.835593803482 2.21430733992e-19)
(1.45968000166 0.671050488336 -3.3409220367e-19)
(0.660730975849 0.306520864586 -8.42127175218e-20)
(1.99003102307 0.533797080771 9.51387464605e-19)
(2.02320977069 0.567168913925 -4.39812932025e-20)
(2.05663955952 0.601949303042 -1.13873813297e-18)
(2.09260237857 0.640641975326 0)
(2.13021243618 0.683518232579 0)
(2.15872140995 0.727165838968 0)
(2.13943700691 0.755024141459 1.4845237389e-18)
(1.97768242073 0.722592533127 -1.76661804477e-18)
(1.5272046641 0.571475313393 -1.1458359734e-18)
(0.675827686628 0.252718436291 -3.20027682319e-20)
(2.06552597737 0.442724571122 -1.28914824459e-18)
(2.10385503812 0.470919604659 -2.71839288019e-18)
(2.14411782942 0.500498762006 -4.77079063617e-21)
(2.18750917065 0.533179558606 5.60737625635e-19)
(2.23194736077 0.569066860127 -4.22386867335e-20)
(2.26449321333 0.60496172631 1.28837935131e-18)
(2.24145619935 0.625655049004 -7.34528357625e-19)
(2.0601212025 0.591168634296 -2.21162347526e-18)
(1.56794390377 0.459958048237 1.78105515536e-19)
(0.676790694885 0.196349182134 1.29800527544e-19)
(2.12894036791 0.338579414287 -1.0491000251e-18)
(2.1709927756 0.360932290734 1.70200128021e-20)
(2.2162607813 0.384381326502 4.12821564606e-19)
(2.26509392844 0.410144755532 -4.04668270075e-19)
(2.31428253305 0.438235867059 6.37034215143e-19)
(2.34857070092 0.465657177205 1.83863641588e-18)
(2.3190980353 0.47895559061 -2.32667486558e-19)
(2.11383874048 0.449142720506 -1.24093578295e-18)
(1.58312305749 0.341797177681 2.98014887631e-19)
(0.665334054549 0.137099304257 5.58264237265e-20)
(2.17702705142 0.225137980137 4.01948795514e-19)
(2.22185425922 0.241046640652 8.53839402699e-20)
(2.2706415168 0.257482095361 -4.41656370216e-19)
(2.32313930842 0.275541465845 -1.03862685533e-18)
(2.3751165074 0.294974562812 9.75774511197e-20)
(2.40859335525 0.313074258934 1.01060267322e-19)
(2.36874737124 0.322075449698 -1.69309238493e-18)
(2.13868126202 0.299489992685 6.9163551337e-19)
(1.57457817818 0.219880185738 2.13528261568e-19)
(0.640438462876 0.0798267087446 -1.79143112873e-19)
(2.20770603605 0.105257296811 7.95540039532e-19)
(2.25438812009 0.113958662131 -1.22289090849e-18)