# Forces      
# CofR        : (0.000000e+00 0.000000e+00 0.000000e+00)
# Time        forces(pressure viscous)	moments(pressure viscous)
4.205         	((9.043778e+00 -2.593233e-01 5.254707e-19) (1.172433e+00 2.059693e-01 -9.548106e-17)) ((1.966973e-19 -3.534991e-19 -1.903831e-08) (-6.873570e-17 6.267614e-17 -1.704580e-02))
4.21          	((9.821629e+00 -1.655614e+00 6.569180e-19) (1.174063e+00 2.027486e-01 1.314363e-18)) ((1.143295e-19 -4.380378e-19 -6.786532e-07) (4.473584e-18 8.201439e-20 -1.708161e-02))
