/*--------------------------------*- C++ -*----------------------------------*\
  =========                 |
  \\      /  F ield         | OpenFOAM: The Open Source CFD Toolbox
   \\    /   O peration     | Website:  https://openfoam.org
    \\  /    A nd           | Version:  13
     \\/     M anipulation  |
\*---------------------------------------------------------------------------*/
FoamFile
{
    format      ascii;
    class       volScalarField;
    location    "2.99";
    object      p;
}
// * * * * * * * * * * * * * * * * * * * * * * * * * * * * * * * * * * * * * //

dimensions      [0 2 -2 0 0 0 0];

internalField   nonuniform List<scalar> 
440
(
-1.34498
-1.31971
-1.30862
-1.29874
-1.40543
-1.38301
-1.35564
-1.33105
-1.314
-1.31937
-1.50654
-1.47063
-1.43173
-1.38784
-1.34514
-1.65167
-1.60128
-1.51188
-1.40542
-1.29764
-1.75713
-1.68934
-1.53448
-1.37333
-1.22782
-1.06551
-1.06831
-1.08384
-1.11023
-1.13118
-1.26176
-1.26115
-1.2801
-1.31689
-1.35549
-1.38586
-1.38413
-1.39613
-1.42815
-1.47327
-1.41328
-1.402
-1.39735
-1.40976
-1.44439
-1.36366
-1.34284
-1.32164
-1.31664
-1.35737
-1.09794
-0.377887
-0.0585985
0.0312139
0.0267135
-1.26554
-0.486161
-0.0741033
0.0268502
0.0271153
-1.372
-0.559015
-0.0997975
0.0173943
0.0253955
-1.4276
-0.61209
-0.134608
0.00107442
0.0202383
-1.46473
-0.669298
-0.175601
-0.0209544
0.0118847
-1.30794
-0.653481
-0.204429
-0.0502242
-0.00132961
-0.977276
-0.557521
-0.21941
-0.0811957
-0.0180644
-0.838711
-0.527689
-0.249522
-0.0921406
-0.0185098
-0.693868
-0.49809
-0.292345
-0.128445
-0.0313745
-0.578535
-0.471755
-0.313376
-0.142458
-0.0327203
-0.982251
-1.09511
-1.27678
-1.44109
-1.59978
-0.722698
-0.855704
-0.959186
-1.02986
-1.06677
-0.551249
-0.671381
-0.746571
-0.806232
-0.844364
-0.443425
-0.552619
-0.626091
-0.676337
-0.70506
-0.393472
-0.500748
-0.571532
-0.61147
-0.618868
0.39828
0.240916
0.0425412
-0.181923
-0.434537
-0.0282185
-0.198127
-0.4072
-0.645124
-0.918192
-0.442578
-0.619637
-0.841773
-1.0896
-1.33812
-0.813634
-0.992074
-1.21134
-1.44709
-1.63432
-1.05951
-1.23563
-1.43717
-1.64711
-1.76467
1.5876
1.61178
1.63375
1.64209
1.63399
1.3874
1.39985
1.40323
1.38824
1.35114
1.16282
1.14687
1.10601
1.04003
0.946655
0.900592
0.858637
0.778828
0.665798
0.520023
0.658808
0.550572
0.40705
0.237044
0.032319
1.42729
1.36044
1.39134
1.42421
1.50339
1.41599
1.34804
1.37157
1.39545
1.40785
1.4056
1.33331
1.34998
1.35365
1.28597
1.39604
1.3173
1.32544
1.30285
1.11305
1.38754
1.30017
1.29944
1.24358
0.927483
1.37878
1.2759
1.2652
1.14984
0.731288
1.37093
1.24616
1.24028
1.06154
0.775612
1.37356
1.23087
1.22179
1.00332
0.756299
1.36916
1.20866
1.20836
0.957684
0.740388
1.40122
1.20466
1.19975
0.930867
0.735784
0.37612
0.0717755
-0.272901
-0.588475
-0.78961
0.292942
0.087054
-0.146966
-0.367911
-0.557537
0.296706
0.124836
-0.0626994
-0.240309
-0.413248
0.328205
0.169664
0.00211949
-0.156932
-0.314309
0.352708
0.199597
0.0407754
-0.113171
-0.265085
-1.20341
-1.098
-0.964512
-0.858361
-0.796095
-1.27048
-1.21723
-1.11936
-1.04331
-1.00269
-1.20613
-1.16411
-1.1115
-1.07433
-1.05838
-1.07971
-1.0481
-1.01497
-0.993182
-0.982957
-0.984113
-0.966179
-0.948453
-0.932132
-0.949577
-0.921702
-0.911614
-0.898645
-0.88668
-0.872677
-0.926867
-0.923545
-0.924038
-0.929989
-0.935896
-0.892549
-0.898717
-0.912103
-0.930509
-0.942954
-0.859513
-0.868636
-0.885557
-0.903883
-0.913908
-0.92298
-0.928819
-0.943949
-0.962605
-0.973597
-0.928893
-0.320184
-0.122845
-0.0178951
0.0120267
-0.9031
-0.253899
-0.119538
-0.00491492
0.0174323
-0.879764
-0.219276
-0.084423
0.0137733
0.019934
-0.887464
-0.219796
-0.0674689
0.0248011
0.0228949
-0.959896
-0.270766
-0.0562979
0.0308422
0.0251256
-0.681202
-0.45784
-0.233629
-0.044333
0.00925517
-0.851623
-0.418005
-0.199034
-0.0259931
0.0180736
-0.759479
-0.992724
-1.05016
-1.02491
-0.871434
-0.775421
-0.991524
-1.05885
-1.00277
-1.00258
1.38091
1.3676
1.3402
1.30018
1.24766
1.53615
1.55661
1.5663
1.56346
1.54824
1.6602
1.69117
1.71801
1.73518
1.73956
1.71898
1.75382
1.79145
1.82286
1.8381
1.69601
1.72787
1.76273
1.7907
1.80226
-0.412782
-0.494303
-0.622466
-0.781791
-0.953173
0.0983135
-0.00935427
-0.153862
-0.327546
-0.535449
0.553492
0.440574
0.306811
0.150368
-0.0367813
0.915159
0.8307
0.728207
0.604649
0.459182
1.20293
1.14724
1.07464
0.987458
0.886833
1.49266
1.39852
1.43881
1.44561
1.49121
1.47736
1.39437
1.43446
1.45265
1.53174
1.4641
1.38851
1.42936
1.46201
1.58123
1.45129
1.38095
1.41999
1.45958
1.58122
1.43901
1.37164
1.40705
1.44722
1.55794
1.54687
1.40739
1.42992
1.38625
1.37222
1.50323
1.39589
1.42736
1.40076
1.39108
1.09488
0.917359
0.59938
0.130052
-0.389896
1.16943
0.94592
0.615093
0.148974
-0.381892
)
;

boundaryField
{
    left
    {
        type            zeroGradient;
    }
    right
    {
        type            fixedValue;
        value           uniform 0;
    }
    down
    {
        type            zeroGradient;
    }
    up
    {
        type            zeroGradient;
    }
    cylinder
    {
        type            zeroGradient;
    }
    defaultFaces
    {
        type            empty;
    }
}


// ************************************************************************* //
