/*--------------------------------*- C++ -*----------------------------------*\
  =========                 |
  \\      /  F ield         | OpenFOAM: The Open Source CFD Toolbox
   \\    /   O peration     | Website:  https://openfoam.org
    \\  /    A nd           | Version:  13
     \\/     M anipulation  |
\*---------------------------------------------------------------------------*/
FoamFile
{
    format      ascii;
    class       volScalarField;
    location    "0.555";
    object      p;
}
// * * * * * * * * * * * * * * * * * * * * * * * * * * * * * * * * * * * * * //

dimensions      [0 2 -2 0 0 0 0];

internalField   nonuniform List<scalar> 
1800
(
5.747
7.85412
10.0069
11.4354
12.2698
12.6805
12.8116
12.6544
11.4086
7.31692
9.5973
12.073
14.578
16.262
17.3187
17.9815
18.4363
18.6756
17.9514
15.2739
15.9902
18.615
21.2877
23.151
24.4113
25.2931
25.944
26.3275
25.8565
24.0257
24.9858
27.5552
30.2037
32.1182
33.4835
34.4927
35.2552
35.7073
35.3013
33.6168
36.0448
38.4056
40.8579
42.6695
43.994
44.9902
45.7448
46.1942
45.8441
44.2886
48.7219
50.7745
52.9182
54.5245
55.7155
56.6178
57.3001
57.7107
57.4296
56.0703
62.6706
64.3434
66.0991
67.4311
68.4332
69.2028
69.7943
70.1713
69.9962
68.9076
77.5966
78.8382
80.1493
81.1586
81.9346
82.5484
83.0426
83.3974
83.3641
82.6277
93.2149
93.9946
94.8261
95.4811
96.0039
96.4414
96.8241
97.1475
97.2578
96.9233
109.244
109.549
109.88
110.155
110.393
110.614
110.831
111.044
111.205
111.233
-0.598115
-0.850146
-0.627799
-0.213541
0.258296
0.725377
1.0849
1.29613
1.44103
1.58722
-0.483452
-0.997009
-1.10457
-0.897273
-0.473198
-0.0487072
0.245083
0.487906
0.767397
1.04032
0.509266
-0.455601
-1.28337
-1.44737
-1.12049
-0.813362
-0.5979
-0.292053
0.11486
0.500502
0.900224
-0.238962
-1.43244
-1.76978
-1.54972
-1.39417
-1.26669
-0.960469
-0.503359
0.00458698
0.470194
-0.496194
-1.43345
-1.72389
-1.66644
-1.67517
-1.6364
-1.37347
-0.881724
-0.187282
-0.230199
-0.746214
-1.14512
-1.27414
-1.29434
-1.35831
-1.34913
-1.13959
-0.614321
0.31849
-0.562211
-0.524075
-0.346918
-0.200593
-0.115709
-0.0945208
-0.0552091
0.115544
0.694105
1.92463
-0.0762173
0.510239
1.23146
1.73606
2.06578
2.27936
2.42937
2.64673
3.37804
5.04069
1.3728
2.48079
3.72931
4.65087
5.32095
5.81346
6.15382
6.49349
7.48085
9.76874
3.61583
5.25873
7.07693
8.45289
9.47565
10.2359
10.7585
11.2118
12.2733
14.437
2.30387
2.44275
2.33677
2.09381
1.59372
1.19009
0.857873
0.586557
0.358767
0.135811
1.95323
2.41825
2.2312
2.00859
1.50897
1.11106
0.809394
0.569263
0.357356
0.138004
1.4749
2.38846
2.12914
1.91484
1.43168
1.04301
0.7658
0.551638
0.351199
0.136446
0.850332
2.30635
2.0291
1.80791
1.35461
0.981478
0.727448
0.53497
0.343319
0.133234
0.156857
2.13126
1.91929
1.68566
1.27273
0.923537
0.692791
0.519407
0.337032
0.130806
-0.415128
1.85321
1.78195
1.54633
1.18267
0.867651
0.661059
0.505544
0.333147
0.13075
-0.564019
1.50554
1.60349
1.38704
1.08199
0.812368
0.632353
0.493836
0.332088
0.132917
0.164952
1.17683
1.37472
1.19865
0.96665
0.755304
0.60652
0.48453
0.333679
0.13602
2.42149
1.04086
1.07489
0.956452
0.827714
0.692938
0.582623
0.47768
0.332379
0.13555
6.65657
1.41014
0.718217
0.640004
0.656741
0.622772
0.559554
0.468621
0.324043
0.127198
9.98477
2.58251
0.69625
0.399446
0.479043
0.541685
0.52874
0.447181
0.304232
0.113298
11.7703
2.57718
0.270313
0.0587453
0.355502
0.502677
0.49457
0.405803
0.268803
0.0902357
12.8665
2.77914
0.394344
0.147609
0.463388
0.561536
0.492535
0.373545
0.233204
0.0647615
14.1852
4.36385
1.27742
0.721387
0.784541
0.711473
0.530967
0.356233
0.200544
0.0386107
16.3617
7.10918
2.70117
1.59004
1.24076
0.932806
0.611596
0.359112
0.175614
0.0146773
19.2534
9.87747
4.33826
2.56042
1.77562
1.2046
0.727273
0.383427
0.162042
-0.00402081
21.7586
11.9406
5.85777
3.52306
2.34491
1.50503
0.866168
0.426881
0.161639
-0.015149
23.0379
13.1237
7.05503
4.42397
2.92014
1.81929
1.01907
0.485961
0.174654
-0.0172803
22.9777
13.5026
7.91541
5.27129
3.50996
2.15527
1.19168
0.564233
0.204728
-0.00856156
22.4248
13.7275
8.68652
6.13209
4.13585
2.53331
1.40578
0.678367
0.269382
0.0162754
111.789
97.8433
84.0785
71.0733
59.1339
48.3537
38.7722
30.0955
20.0842
4.97889
112.769
99.481
85.9801
72.9736
60.9306
50.0498
40.5169
32.259
23.5941
11.4807
113.301
100.215
87.335
75.0085
63.4697
52.8777
43.4479
35.2594
27.4732
18.3391
114.513
102.773
90.8138
78.9828
67.6259
57.0304
47.3971
38.7966
31.0897
23.8266
115.09
104.079
93.1584
82.4672
72.1202
62.1956
52.733
43.8222
36.0036
29.8244
115.44
104.713
94.2059
84.0441
74.3235
65.0941
56.3348
48.0934
41.0517
36.0346
115.671
105.112
94.8007
84.8685
75.4257
66.5453
58.2365
50.569
44.2151
40.0958
115.772
105.25
94.9837
85.1123
75.7582
67.0123
58.9085
51.5152
45.3985
41.439
115.721
105.035
94.6093
84.5902
75.111
66.2785
58.1484
50.779
44.5553
40.1025
115.598
104.651
93.9634
83.6859
73.9604
64.9103
56.6156
49.1208
42.6119
37.4171
234.128
229.766
228.199
227.758
227.667
227.919
228.653
230.034
232.186
234.325
225.565
222.547
221.498
221.459
221.685
222.17
223.101
224.709
227.18
229.656
216.051
213.877
213.104
213.229
213.661
214.364
215.489
217.259
219.873
222.471
205.744
203.717
203.014
203.21
203.754
204.583
205.807
207.615
210.184
212.704
194.421
192.512
191.857
192.045
192.577
193.389
194.566
196.26
198.614
200.905
182.054
180.329
179.736
179.878
180.331
181.042
182.078
183.555
185.585
187.55
168.708
167.245
166.752
166.854
167.211
167.783
168.622
169.816
171.443
173.014
154.574
153.457
153.102
153.18
153.436
153.848
154.455
155.317
156.488
157.616
139.965
139.251
139.044
139.093
139.238
139.473
139.824
140.325
141.007
141.663
125.44
125.096
124.956
124.908
124.896
124.918
124.984
125.104
125.281
125.457
246.544
246.781
247.032
247.249
247.548
248.047
248.597
248.933
248.94
248.429
246.624
246.954
247.356
247.66
247.86
248.194
248.616
248.532
247.72
246.702
246.64
247.036
247.48
247.791
247.874
248.004
248.285
247.925
246.538
245.283
246.523
247.025
247.455
247.686
247.62
247.506
247.543
247.12
245.824
244.665
246.033
246.687
247.077
247.184
247.007
246.731
246.556
246.197
245.387
244.595
244.825
245.669
246.006
245.972
245.743
245.46
245.265
245.094
244.854
244.566
242.479
243.577
243.916
243.802
243.593
243.43
243.396
243.528
243.835
244.075
238.595
240.081
240.552
240.487
240.404
240.456
240.695
241.19
242.003
242.742
233.121
235.176
235.886
235.954
236.081
236.427
237.016
237.921
239.225
240.437
227.766
229.632
230.378
230.545
230.853
231.47
232.412
233.764
235.611
237.319
246.949
246.725
246.689
246.491
246.419
246.291
245.916
245.662
245.564
245.71
246.91
246.724
246.685
246.494
246.418
246.298
245.927
245.649
245.378
245.737
246.883
246.72
246.676
246.49
246.409
246.3
245.933
245.601
245.148
245.826
246.864
246.713
246.664
246.477
246.396
246.298
245.927
245.515
244.934
246.016
246.852
246.703
246.648
246.459
246.377
246.288
245.906
245.41
244.802
246.255
246.845
246.691
246.63
246.436
246.354
246.265
245.873
245.318
244.775
246.362
246.843
246.677
246.61
246.41
246.326
246.231
245.837
245.266
244.82
246.027
246.846
246.66
246.588
246.382
246.294
246.191
245.819
245.266
244.839
244.789
246.855
246.639
246.565
246.35
246.26
246.162
245.849
245.339
244.659
242.012
246.872
246.616
246.536
246.316
246.229
246.161
245.949
245.462
243.979
237.296
246.909
246.591
246.497
246.262
246.168
246.091
245.873
245.129
242.442
233.742
247.025
246.573
246.461
246.219
246.115
246.136
246.075
245.332
242.177
231.798
247.268
246.58
246.427
246.144
246.038
246.102
246.077
245.244
241.889
230.537
247.723
246.636
246.4
246.062
245.899
245.833
245.629
244.546
240.49
229.322
248.562
246.703
246.422
245.968
245.686
245.321
244.752
243.235
238.018
227.467
250.395
246.771
246.527
245.895
245.395
244.656
243.659
241.571
235.378
224.918
254.274
247.081
246.68
245.834
245.042
243.942
242.558
239.955
233.311
222.586
262.579
248.219
246.953
245.788
244.67
243.253
241.556
238.664
232.071
221.329
280.14
250.955
247.602
245.82
244.317
242.602
240.647
237.732
231.628
221.359
306.11
255.001
249.107
246.031
244.027
241.981
239.763
236.916
231.357
221.886
236.421
221.071
210.448
201.134
190.973
179.669
167.274
153.902
139.856
125.726
230.031
217.736
208.584
199.863
189.926
178.688
166.342
153.091
139.368
125.894
223.498
214.133
205.955
197.428
187.714
176.873
165.12
152.62
139.602
126.424
218.386
210.879
202.886
194.037
184.193
173.428
161.935
149.992
137.929
126.095
212.989
206.595
198.601
189.507
179.837
169.699
159.148
148.281
137.225
126.133
207.389
202.092
194.832
186.362
177.363
167.908
157.989
147.666
137.046
126.259
203.593
199.153
192.563
184.667
176.134
167.048
157.427
147.353
136.942
126.332
202.311
198.053
191.707
184.095
175.782
166.846
157.327
147.324
136.965
126.396
203.637
198.922
192.473
184.888
176.556
167.541
157.903
147.757
137.242
126.511
206.311
200.876
194.14
186.429
177.934
168.702
158.82
148.416
137.64
126.647
112.189
112.359
112.443
112.294
111.787
111.426
111.242
111.526
111.519
111.27
89.6143
90.0776
90.2962
89.8626
88.4307
87.3443
86.7234
87.385
87.4227
86.8361
68.7718
69.3995
69.6608
68.994
67.0547
65.343
64.3227
64.8715
65.1759
64.6207
50.6546
51.261
51.4506
50.6275
48.6484
46.4824
45.1524
45.1878
45.9262
45.6928
36.0098
36.4182
36.4684
35.5871
33.7953
31.4794
29.8356
29.2704
30.078
30.2657
24.9579
25.0613
24.9392
24.0161
22.4386
20.4092
18.6184
17.6768
17.9319
18.4319
17.0717
16.9213
16.7064
15.7155
14.3012
12.7979
11.3103
10.2454
9.90567
10.2722
11.5848
11.4079
11.3593
10.3601
9.04129
8.03943
7.14765
6.30467
5.71629
5.63263
7.91103
7.82272
8.11869
7.25099
6.0851
5.49453
5.16541
4.78055
4.29661
3.91708
6.04268
5.83764
6.22302
5.48538
4.61611
4.33984
4.36348
4.35383
4.20118
3.80538
5.2763
5.03937
5.12156
4.42735
3.89502
3.83843
3.98775
4.13019
4.2512
4.30791
4.85009
4.74089
4.46333
3.79692
3.51065
3.59734
3.80001
3.96734
4.08702
4.1733
4.47247
4.42766
3.99579
3.44493
3.32424
3.48632
3.71053
3.88902
4.00693
4.0673
4.01897
3.96407
3.55791
3.20599
3.21515
3.41762
3.63005
3.78712
3.88561
3.92694
3.47232
3.37914
3.10546
2.98492
3.10096
3.31721
3.50698
3.64439
3.72559
3.74933
2.82285
2.72832
2.66789
2.75716
2.95324
3.15735
3.32296
3.44228
3.50914
3.52254
2.10064
2.11641
2.25017
2.48392
2.71911
2.91735
3.07244
3.18601
3.25213
3.26751
1.42764
1.54525
1.79583
2.08817
2.34357
2.55753
2.73299
2.87124
2.95848
2.9865
0.752093
0.887523
1.16187
1.48968
1.7983
2.06889
2.30537
2.48965
2.59441
2.6321
0.0803331
-0.00354076
0.230818
0.640899
1.05976
1.44034
1.76347
1.97842
2.08194
2.14505
3.66283
3.7058
3.57498
3.24896
2.59981
1.91493
1.32601
0.855114
0.460124
0.106526
3.73562
3.68003
3.52465
3.23297
2.5604
1.8587
1.27321
0.817116
0.439224
0.106136
3.76234
3.57452
3.41331
3.17904
2.51642
1.80549
1.22282
0.781247
0.420721
0.107218
3.72372
3.39887
3.26112
3.07701
2.4592
1.75359
1.17488
0.747627
0.404646
0.109219
3.61652
3.19132
3.09352
2.92424
2.37694
1.69854
1.12872
0.716263
0.390988
0.112083
3.45372
2.99401
2.93359
2.74104
2.2634
1.63654
1.08425
0.687574
0.379835
0.115724
3.26064
2.82687
2.7904
2.5592
2.12151
1.56411
1.04107
0.661981
0.371231
0.119938
3.05342
2.68961
2.66432
2.40272
1.96653
1.47882
0.998143
0.639608
0.365065
0.124396
2.83027
2.57749
2.55072
2.27833
1.81959
1.38218
0.95409
0.6202
0.36115
0.128727
2.5839
2.49326
2.44315
2.17953
1.69487
1.28228
0.907304
0.602966
0.359194
0.132593
5.42391
3.97794
3.28019
2.90113
2.42124
1.90315
1.40442
0.948055
0.535108
0.135056
4.62013
3.75717
3.31605
2.96194
2.4616
1.91187
1.39236
0.930187
0.516493
0.125723
3.95026
3.66502
3.37652
3.03108
2.50067
1.91956
1.38122
0.914275
0.502153
0.118236
3.63044
3.6653
3.46163
3.11108
2.54163
1.9269
1.37023
0.899287
0.489867
0.112757
3.61569
3.7083
3.56311
3.2032
2.58729
1.93437
1.35805
0.883489
0.478011
0.109151
112.019
88.9525
67.9017
50.1303
36.1157
25.7956
18.6257
13.7503
10.5684
8.75432
111.798
88.3902
67.1955
49.3959
35.3135
24.7914
17.3219
12.2167
9.07399
7.57393
111.612
87.9099
66.5572
48.6553
34.4023
23.6187
15.9016
10.6819
7.5374
6.07954
111.402
87.3361
65.7169
47.5906
33.0777
22.0246
14.1301
8.89745
5.81218
4.43666
111.147
86.6081
64.5876
46.1175
31.2776
19.957
11.9616
6.92536
4.44229
3.62645
243.765
243.802
243.922
244.093
244.306
244.316
243.811
243.11
243.213
242.989
243.977
244.049
244.163
244.352
244.622
244.797
244.579
243.929
243.672
243.564
244.173
244.222
244.335
244.531
244.816
245.078
245.052
244.545
244.117
244.066
244.416
244.448
244.546
244.72
244.977
245.266
245.372
245.102
244.716
244.648
244.689
244.707
244.789
244.938
245.152
245.417
245.621
245.623
245.458
245.367
244.98
244.993
245.062
245.184
245.357
245.587
245.858
246.099
246.205
246.194
245.252
245.27
245.353
245.487
245.664
245.894
246.194
246.555
246.858
246.98
245.536
245.554
245.65
245.842
246.096
246.396
246.756
247.168
247.532
247.712
245.915
245.944
246.022
246.244
246.615
247.066
247.571
248.089
248.432
248.394
246.308
246.417
246.519
246.709
247.109
247.677
248.277
248.826
249.177
248.972
136.501
136.242
136.219
136.482
136.264
135.866
135.325
135.153
135.224
135.389
160.951
160.354
160.376
161.014
160.361
159.238
157.774
157.318
157.524
157.982
183.195
182.629
182.916
183.439
182.389
180.643
178.675
177.986
178.235
178.857
202.161
201.916
202.634
202.644
201.286
199.089
197.082
196.238
196.415
197.018
217.632
217.807
218.591
218.003
216.335
213.991
212.17
211.267
211.306
211.711
229.512
229.994
230.224
229.264
227.456
225.4
223.79
222.844
222.711
222.812
237.711
238.047
237.684
236.611
235.119
233.591
232.14
231.123
230.898
230.747
242.366
242.246
241.636
240.803
239.924
238.907
237.553
236.528
236.468
236.291
244.09
243.671
243.178
242.82
242.523
241.937
240.747
239.852
240.137
240.052
244.229
243.803
243.65
243.671
243.743
243.501
242.628
241.866
242.251
242.062
254.848
246.878
247.504
246.29
246.042
245.535
244.997
244.633
244.502
244.539
252.014
246.814
247.317
246.27
246.094
245.598
245.014
244.666
244.579
244.51
250.092
246.821
247.095
246.267
246.15
245.665
245.057
244.76
244.748
244.542
248.906
246.85
246.884
246.286
246.208
245.739
245.138
244.915
244.977
244.648
248.221
246.852
246.746
246.325
246.264
245.821
245.267
245.106
245.217
244.818
247.773
246.81
246.709
246.374
246.316
245.914
245.434
245.292
245.422
245.023
247.458
246.755
246.708
246.417
246.361
246.016
245.608
245.444
245.575
245.231
247.243
246.727
246.7
246.449
246.392
246.119
245.751
245.55
245.671
245.422
247.102
246.721
246.693
246.471
246.405
246.207
245.845
245.615
245.708
245.579
247.01
246.723
246.691
246.484
246.414
246.265
245.893
245.65
245.675
245.675
317.352
253.761
249.913
246.973
246.146
245.577
245.254
244.931
244.236
242.718
295.62
251.372
248.791
246.741
246.064
245.548
245.209
244.9
244.448
243.519
277.178
249.216
248.195
246.569
246.023
245.529
245.159
244.843
244.53
244.192
265.776
247.871
247.871
246.439
246.005
245.517
245.101
244.76
244.521
244.52
259.004
247.141
247.648
246.331
246.003
245.509
245.032
244.657
244.475
244.553
239.297
237.447
234.232
229.324
222.122
211.768
197.718
179.914
158.838
135.757
240.479
238.943
235.769
230.633
223.131
212.574
198.455
180.622
159.401
135.978
241.992
240.495
237.314
232.061
224.31
213.49
199.199
181.262
159.882
136.165
243.654
242.249
239.121
233.846
225.912
214.819
200.266
182.103
160.456
136.374
244.443
243.606
241.104
236.033
227.99
216.624
201.741
183.233
161.183
136.627
)
;

boundaryField
{
    left
    {
        type            zeroGradient;
    }
    right
    {
        type            fixedValue;
        value           uniform 0;
    }
    down
    {
        type            zeroGradient;
    }
    up
    {
        type            zeroGradient;
    }
    cylinder
    {
        type            zeroGradient;
    }
    defaultFaces
    {
        type            empty;
    }
}


// ************************************************************************* //
