/*--------------------------------*- C++ -*----------------------------------*\
  =========                 |
  \\      /  F ield         | OpenFOAM: The Open Source CFD Toolbox
   \\    /   O peration     | Website:  https://openfoam.org
    \\  /    A nd           | Version:  13
     \\/     M anipulation  |
\*---------------------------------------------------------------------------*/
FoamFile
{
    format      ascii;
    class       volVectorField;
    location    "35.1";
    object      U;
}
// * * * * * * * * * * * * * * * * * * * * * * * * * * * * * * * * * * * * * //

dimensions      [0 1 -1 0 0 0 0];

internalField   nonuniform List<vector> 
440
(
(-0.21894 0.182127 -4.50741e-20)
(-0.240536 0.213887 -2.82713e-19)
(-0.0791538 0.0850754 6.8684e-20)
(0.288025 0.0721747 -1.10775e-19)
(0.265371 0.132128 1.1141e-20)
(-0.0677447 0.0464004 1.56019e-20)
(0.0656017 0.0541835 1.40832e-20)
(0.525322 -0.00202989 2.65599e-20)
(1.03932 -0.0219991 -3.53248e-21)
(1.50948 -0.0313862 -2.2954e-20)
(-0.034764 0.0159181 5.32549e-20)
(0.428969 -0.0233957 6.01746e-19)
(1.1578 -0.0106901 -3.06012e-19)
(1.74518 0.0134762 -9.97316e-19)
(2.2481 0.0360149 4.54708e-19)
(0.174482 -0.0400008 -1.59815e-19)
(1.09861 0.00455879 -4.70138e-19)
(1.86595 0.0750894 1.4807e-18)
(2.30458 0.121995 1.65032e-18)
(2.42013 0.136174 -4.4612e-19)
(0.506015 -0.00751942 -2.75065e-19)
(1.63612 0.176861 -5.7062e-19)
(2.18856 0.263094 1.73475e-18)
(2.33632 0.280883 1.88822e-18)
(2.39589 0.260314 6.45687e-19)
(0.0193213 -0.225874 -1.03524e-19)
(0.083661 -0.478091 -3.11479e-19)
(0.131578 -0.551364 5.46744e-19)
(0.152618 -0.493444 -7.34729e-20)
(0.122381 -0.34948 -6.40443e-19)
(0.102537 -0.311888 1.30456e-19)
(0.287124 -0.611738 4.72301e-19)
(0.351819 -0.637709 3.80555e-20)
(0.356017 -0.498048 3.4558e-20)
(0.268595 -0.261767 -6.17756e-20)
(0.282065 -0.52417 3.0531e-19)
(0.507568 -0.828202 4.80274e-19)
(0.524451 -0.796099 -2.39332e-20)
(0.472983 -0.613181 -9.16159e-19)
(0.327626 -0.348842 -1.48526e-21)
(0.390304 -0.638202 4.29655e-19)
(0.362972 -0.891283 -7.05288e-19)
(0.187572 -0.849205 9.64609e-19)
(0.00112696 -0.731564 1.86453e-18)
(-0.161181 -0.514613 -4.92888e-20)
(-0.0543073 -0.143014 1.35249e-19)
(-0.330896 -0.429666 3.14983e-19)
(-0.509166 -0.629333 5.03463e-19)
(-0.631756 -0.66339 4.57928e-21)
(-0.76537 -0.550894 9.98949e-19)
(0.243848 0.654787 1.91445e-18)
(-1.2548 0.914852 4.49699e-19)
(1.27553 -0.616435 1.18463e-18)
(0.965148 -1.06241 4.66377e-20)
(1.27307 -0.502524 -6.44491e-20)
(0.365852 0.890979 -7.73998e-19)
(-0.415724 0.838819 1.89383e-19)
(1.63387 -0.800124 2.42821e-19)
(1.21716 -1.07238 2.71025e-19)
(1.28453 -0.53159 9.25508e-20)
(0.807631 0.579755 -8.23087e-19)
(0.193048 0.687183 -2.4747e-18)
(1.87223 -0.928583 -1.3112e-19)
(1.44028 -1.02048 1.16132e-19)
(1.2669 -0.502098 5.97708e-21)
(-0.0319378 0.596839 1.84456e-19)
(0.39248 0.653614 4.18816e-19)
(2.09341 -0.99253 3.89014e-19)
(1.58308 -0.980742 -1.026e-19)
(1.26574 -0.469393 5.03654e-20)
(-0.813298 0.0238601 -3.94524e-19)
(1.17232 0.294318 2.08308e-18)
(2.41815 -0.988041 0)
(1.67162 -0.894315 -8.60355e-20)
(1.23567 -0.411422 5.44588e-21)
(0.99446 -0.0919749 -2.06971e-19)
(1.8927 -0.120923 -4.36466e-19)
(2.61336 -0.920504 -1.27883e-20)
(1.83459 -0.741886 7.32433e-20)
(1.26314 -0.347464 -3.16659e-20)
(1.82841 0.169306 -3.2384e-21)
(2.44242 -0.180916 7.3205e-19)
(2.57815 -0.860882 -7.82763e-21)
(1.59583 -0.516477 6.92688e-21)
(1.07479 -0.180647 0)
(2.00435 0.0204718 -2.17491e-19)
(2.60024 -0.347507 -1.21461e-20)
(2.0959 -0.558067 5.74259e-19)
(1.45339 -0.282224 -3.15978e-21)
(1.12175 -0.13587 -4.36016e-20)
(2.04638 0.0120271 4.65142e-20)
(2.39936 -0.259089 1.34889e-19)
(1.65309 -0.417636 -2.15414e-21)
(1.05314 -0.156595 -4.25517e-34)
(0.784476 -0.0444373 3.32305e-20)
(1.57001 -0.0616446 7.35858e-20)
(1.18594 -0.116506 9.53144e-20)
(0.461303 0.0257997 -7.71951e-20)
(0.181959 -0.016564 -1.66956e-20)
(0.00291585 -0.0254503 1.08615e-20)
(2.32446 0.252995 -7.99842e-19)
(2.47302 0.0843966 -9.82484e-19)
(2.41342 0.0762953 7.13392e-19)
(2.50355 -0.0351709 4.46977e-20)
(2.04775 0.0209483 -6.58675e-20)
(2.13756 0.114411 6.80765e-20)
(2.22633 0.119985 -3.72608e-20)
(2.27039 -0.0646921 -1.20517e-19)
(2.28345 -0.017532 -2.19437e-19)
(2.31047 -0.2691 -4.31568e-21)
(2.09334 0.0265874 7.29757e-20)
(2.10434 0.100879 8.68311e-20)
(2.19616 -0.0947221 -1.01067e-19)
(2.14953 -0.00341788 3.52683e-20)
(2.24905 -0.19098 2.06914e-20)
(2.00262 -0.00544463 1.0918e-19)
(2.0363 0.0513256 1.44313e-19)
(2.1055 -0.0682903 -1.76009e-20)
(2.08872 -0.00614335 -5.79241e-20)
(2.17302 -0.116666 2.4429e-20)
(1.43668 -0.0125117 1.73719e-19)
(1.48484 -0.0141558 -1.13765e-20)
(1.45802 -0.0207956 1.74688e-20)
(1.49618 -0.0249951 -3.36071e-20)
(1.46431 -0.0284091 -1.98012e-20)
(1.53262 0.853897 1.00623e-18)
(1.49587 0.946955 -3.03221e-19)
(1.49535 1.06806 -1.21475e-18)
(1.42495 1.10576 6.76559e-19)
(0.87631 0.789837 -1.69478e-19)
(1.79912 0.793407 -5.29202e-19)
(1.77513 0.873776 -2.8139e-18)
(1.78272 0.980546 -1.09223e-18)
(1.69253 0.985305 -3.85105e-19)
(1.02641 0.674858 -6.1475e-19)
(2.08177 0.694426 7.10362e-19)
(2.06591 0.756034 1.82224e-19)
(2.04706 0.833132 -2.15689e-18)
(1.90622 0.813365 -5.83708e-19)
(1.10563 0.519594 4.19126e-19)
(2.22849 0.567908 2.18184e-18)
(2.2297 0.617245 1.57874e-18)
(2.2203 0.661696 -1.8003e-18)
(1.99131 0.611363 -1.34055e-18)
(1.06096 0.334272 -2.34759e-19)
(2.38528 0.417444 1.02316e-18)
(2.37978 0.438857 -7.35025e-19)
(2.27907 0.453007 5.29702e-19)
(1.92423 0.389049 4.04319e-19)
(0.862835 0.138675 -3.33694e-19)
(0.579642 0.387278 -7.23218e-19)
(0.49033 0.419033 -5.96197e-19)
(0.37069 0.451591 7.98706e-20)
(0.229866 0.457951 -2.91508e-20)
(0.0557934 0.328526 6.4742e-20)
(0.67058 0.565676 5.22882e-20)
(0.605501 0.62166 -3.22495e-19)
(0.515559 0.687184 1.67832e-19)
(0.387805 0.740878 -7.75512e-20)
(0.164956 0.565212 1.11369e-19)
(0.771523 0.76217 2.05913e-19)
(0.696332 0.838906 3.96691e-19)
(0.635039 0.933987 5.31162e-20)
(0.547688 0.98392 -2.67217e-19)
(0.298071 0.733915 2.15937e-19)
(1.03821 0.855713 2.00398e-19)
(0.987642 0.941353 -5.86494e-19)
(0.932858 1.03903 -1.73595e-18)
(0.845389 1.10377 7.1127e-19)
(0.496975 0.823222 -1.75165e-19)
(1.14226 0.896778 -1.29315e-19)
(1.15794 1.01514 -2.03313e-19)
(1.1714 1.13086 -3.12881e-19)
(1.11374 1.16693 -3.65163e-19)
(0.684113 0.844792 -6.03938e-21)
(1.00742 0.049518 -8.08589e-20)
(0.993958 0.00555422 -3.0507e-20)
(1.05216 0.116586 -1.41018e-21)
(0.944239 0.110378 -1.98074e-19)
(0.892665 0.228448 2.87187e-19)
(0.993814 0.0487447 4.97285e-20)
(1.01162 -0.00228491 1.13811e-19)
(1.04012 0.128224 9.72875e-20)
(0.968251 0.137341 2.17916e-20)
(0.925681 0.308668 2.3246e-20)
(0.998764 0.0478745 6.54863e-20)
(1.00175 -0.011816 -4.41734e-21)
(1.08148 0.145739 -3.81934e-21)
(0.914028 0.143983 1.46227e-19)
(1.12453 0.445076 -4.09001e-19)
(0.992995 0.0470036 -3.72891e-22)
(1.02732 -0.0236347 -1.69074e-19)
(1.0699 0.171625 -5.55094e-20)
(0.989218 0.149065 -3.50377e-19)
(1.16952 0.484567 8.52968e-20)
(0.993706 0.0373694 -1.02784e-20)
(1.03569 -0.0205293 5.0819e-20)
(1.10455 0.176619 2.72945e-20)
(0.972202 0.173436 4.31589e-19)
(1.3728 0.620192 -4.0094e-19)
(0.959866 0.0347558 -1.90821e-21)
(1.11593 -0.0463701 9.97986e-20)
(1.06247 0.214869 -6.9391e-20)
(1.18952 0.1177 8.45396e-19)
(1.34775 0.626194 -3.7665e-19)
(0.911103 -0.000365916 -1.54541e-21)
(1.21468 -0.0362822 -8.09291e-20)
(0.939565 0.158323 4.51708e-21)
(1.31243 0.083832 -3.00583e-19)
(1.37147 0.42353 1.44174e-20)
(0.982063 -0.0238205 -1.86821e-21)
(1.13712 -0.023558 1.21647e-35)
(0.986691 0.146935 -1.64171e-20)
(1.27831 0.00939488 8.94578e-20)
(1.35472 0.325528 1.43235e-19)
(1.10581 -0.0676689 3.98505e-21)
(0.892271 -0.013329 -2.84956e-20)
(1.18535 0.0738703 1.77954e-20)
(1.18707 -0.017546 2.91047e-20)
(1.36992 0.197229 -2.07879e-19)
(0.988343 -0.0240261 -4.25982e-20)
(0.698926 -0.0156865 -5.20814e-21)
(1.00431 -0.0025007 1.85837e-20)
(0.785042 -0.0147203 -1.43595e-20)
(1.03364 0.0649064 -4.66624e-20)
(1.74051 0.664284 2.95074e-19)
(1.85204 0.640613 7.12377e-19)
(2.07154 0.552334 -9.94674e-19)
(2.14962 0.482123 3.72332e-20)
(2.3285 0.321526 4.23734e-19)
(1.65703 0.492491 3.49263e-20)
(1.73342 0.419966 9.17502e-19)
(1.87723 0.418574 9.04693e-20)
(1.9596 0.28445 -8.47024e-19)
(2.0806 0.265446 -2.67774e-19)
(1.62046 0.356919 -1.91774e-19)
(1.71897 0.267701 -1.40057e-19)
(1.82364 0.291608 2.09067e-19)
(1.92993 0.151691 -2.77735e-19)
(1.99577 0.197282 2.51829e-19)
(1.64092 0.205609 3.14355e-19)
(1.703 0.146968 -2.8409e-21)
(1.81092 0.162012 2.13114e-19)
(1.86632 0.0715106 1.83595e-19)
(1.94675 0.106712 -1.79395e-19)
(1.24634 0.0531434 -3.79834e-20)
(1.29772 0.0358452 2.14872e-19)
(1.37221 0.0268774 9.99529e-20)
(1.38898 0.00730246 -2.11569e-19)
(1.44898 0.00171442 3.58964e-22)
(1.41258 -0.0365261 7.82816e-20)
(2.52391 -0.0152459 -6.17246e-19)
(2.74481 -0.0101579 1.64834e-18)
(2.7182 0.0421653 7.66467e-19)
(2.46115 0.0486105 -5.17599e-19)
(0.945539 0.107552 1.72487e-19)
(2.31496 0.136783 -6.60308e-19)
(2.73751 0.147548 -9.37411e-19)
(2.73754 0.156677 1.27498e-18)
(2.55559 0.156047 -9.3606e-19)
(0.321004 0.111348 -2.363e-20)
(1.70627 0.229299 7.83478e-19)
(2.4789 0.282787 1.27785e-19)
(2.78648 0.298281 1.33853e-18)
(2.74354 0.26753 7.54268e-19)
(-0.0241691 -0.00456103 2.70716e-19)
(0.784413 0.178908 3.05108e-19)
(1.72933 0.306892 -9.09473e-19)
(2.30453 0.378652 8.62881e-20)
(2.79561 0.418937 7.67884e-19)
(-0.118136 -0.094691 2.11599e-19)
(0.115679 0.0140325 -2.49972e-19)
(0.809279 0.191219 -1.05678e-19)
(1.38757 0.312279 1.79982e-19)
(2.09685 0.495609 9.62291e-20)
(-0.0970228 -0.112351 2.11102e-20)
(-0.109006 -0.122898 1.65664e-19)
(0.200882 -0.0566373 5.79149e-20)
(0.435363 0.0265544 -5.5085e-20)
(1.29729 0.298625 4.87829e-21)
(-0.078462 -0.137235 -2.12475e-20)
(-0.135468 -0.26349 -1.18013e-19)
(-0.0398689 -0.281809 8.34624e-22)
(0.0538026 -0.212032 -1.30101e-21)
(0.520316 0.11943 2.49488e-20)
(-0.0698415 -0.192722 -2.12715e-20)
(-0.109884 -0.36917 7.15489e-20)
(-0.0764536 -0.394197 4.61392e-20)
(-0.00727229 -0.325967 3.40291e-19)
(0.143711 -0.116302 -5.35966e-20)
(-0.052047 -0.226868 -6.06196e-21)
(-0.0908371 -0.419976 2.30712e-20)
(-0.0816076 -0.466551 -2.26118e-19)
(-0.0378896 -0.41794 -3.21769e-19)
(0.0142379 -0.295038 9.77901e-20)
(-0.0210643 -0.22362 1.35353e-20)
(-0.0347224 -0.439898 -3.56533e-20)
(-0.0227204 -0.514578 1.44226e-20)
(-0.000640777 -0.47872 -4.85927e-20)
(0.00545827 -0.359386 -2.40808e-19)
(1.62974 0.759539 -9.28393e-20)
(1.01792 0.506308 -4.96715e-19)
(-0.593979 0.0404729 -8.12206e-20)
(0.280062 -0.4969 7.41385e-19)
(1.00263 -0.158542 4.20327e-21)
(1.5272 0.759022 5.28282e-20)
(1.04684 0.751116 1.71164e-18)
(-0.451601 0.0452695 -9.2479e-20)
(0.215105 -0.763737 1.7298e-20)
(1.0262 -0.261119 -4.31225e-21)
(1.52662 0.542427 -8.45323e-21)
(1.02238 1.00491 2.16981e-18)
(0.170603 0.15658 1.23997e-19)
(0.464848 -0.873258 -3.13507e-19)
(1.06145 -0.350296 8.21555e-21)
(0.892199 0.407246 -6.35855e-19)
(-0.196614 1.12232 -2.757e-18)
(0.76634 0.0991829 -1.99651e-19)
(0.789456 -0.946973 1.48402e-20)
(1.16761 -0.418819 -8.12902e-20)
(0.358084 0.537198 -3.83359e-19)
(-1.40086 1.05065 -2.9268e-19)
(1.08916 -0.272438 9.69772e-19)
(0.866491 -1.02453 -8.08676e-20)
(1.25221 -0.468759 -1.78088e-19)
(-0.272212 0.111633 -4.88379e-20)
(-0.491011 -0.191928 0)
(-0.724902 -0.136888 -8.49949e-20)
(0.109422 -0.112242 6.20478e-21)
(0.530566 -0.0276488 -2.25752e-20)
(1.80754 0.686583 0)
(1.16657 0.385784 0)
(-0.194291 -0.0330503 3.00581e-19)
(0.467316 -0.285089 -3.13502e-19)
(0.927804 -0.0966409 8.50216e-21)
(0.78301 0.00719161 -1.38024e-19)
(0.869808 -0.00048213 3.35157e-19)
(0.998017 0.0466048 -3.40933e-20)
(0.894653 0.0112717 4.03851e-19)
(1.29144 0.217728 2.47262e-19)
(1.76866 0.0450427 1.33525e-19)
(2.01316 0.0913413 5.07566e-19)
(2.09681 0.181042 -8.79888e-19)
(2.48757 0.275326 3.19595e-19)
(2.49818 0.425498 5.5265e-19)
(0.993581 -0.544818 4.71054e-20)
(0.983733 -0.645681 -2.28675e-19)
(0.983566 -0.755726 -2.12781e-19)
(0.919599 -0.835026 1.25733e-19)
(0.568494 -0.665745 1.52821e-19)
(0.888984 -0.456281 1.03636e-19)
(0.83376 -0.528885 1.14953e-19)
(0.757456 -0.606693 -1.2892e-19)
(0.640288 -0.675699 1.57051e-19)
(0.357651 -0.543532 3.51593e-20)
(0.692807 -0.320314 -1.10146e-19)
(0.600748 -0.366776 -6.25726e-20)
(0.500173 -0.426164 -3.36374e-20)
(0.385321 -0.479429 -6.16008e-20)
(0.18332 -0.382955 -1.45877e-19)
(0.582117 -0.0883793 -4.39743e-19)
(0.497738 -0.111232 -3.51578e-19)
(0.388859 -0.145664 2.8904e-19)
(0.260141 -0.186392 1.41311e-19)
(0.0836523 -0.166376 1.30756e-20)
(0.546605 0.119985 -1.36905e-19)
(0.461245 0.117804 -1.58283e-19)
(0.343216 0.111794 -3.59237e-20)
(0.202521 0.108921 6.13469e-20)
(0.0365646 0.0793722 1.53725e-20)
(2.29501 -0.0232564 1.0266e-18)
(2.51159 -0.101728 3.80179e-19)
(2.60783 -0.197409 -9.56788e-19)
(2.49641 -0.223884 -2.05626e-18)
(1.55584 -0.227766 1.51787e-19)
(2.18707 -0.134956 1.69627e-18)
(2.31878 -0.252986 2.20178e-18)
(2.35545 -0.385679 1.82482e-19)
(2.29175 -0.449558 3.15945e-19)
(1.50872 -0.428366 -2.11769e-19)
(1.92997 -0.31018 -4.28136e-18)
(1.97821 -0.436075 4.89926e-19)
(2.01689 -0.57287 1.36242e-18)
(1.97723 -0.661053 -5.52597e-19)
(1.31378 -0.589625 8.78055e-19)
(1.64979 -0.445952 1.05705e-18)
(1.67061 -0.554612 -2.77371e-18)
(1.67574 -0.686753 -3.20889e-18)
(1.62286 -0.788927 1.01346e-18)
(1.06556 -0.674254 6.5625e-19)
(1.35384 -0.51678 2.42059e-19)
(1.30686 -0.619963 3.00014e-19)
(1.29445 -0.752404 -4.93631e-19)
(1.24157 -0.852539 -6.0108e-19)
(0.797845 -0.697244 -5.8173e-21)
(1.05909 0.0527522 6.90509e-21)
(0.941529 0.0436432 1.25423e-21)
(1.13717 0.0698646 8.62643e-21)
(0.836299 -0.0147573 -2.67498e-19)
(1.20648 -0.250078 -2.151e-20)
(1.06883 0.0556299 -2.31952e-21)
(0.935257 0.0376021 2.55089e-20)
(1.13278 0.0878501 5.07344e-21)
(0.909495 0.0245857 2.24135e-19)
(1.06481 -0.134989 5.39002e-21)
(1.06628 0.0526595 -5.51373e-20)
(0.937706 0.028933 5.26947e-23)
(1.116 0.0910298 -3.82303e-21)
(0.90137 0.0419445 1.13573e-19)
(1.01655 -0.0771744 -2.78785e-19)
(1.04759 0.0515029 6.53138e-20)
(0.961568 0.0209547 2.61008e-21)
(1.07795 0.0971372 1.83489e-20)
(0.939076 0.0677507 -4.71798e-20)
(0.894644 0.0336473 5.76598e-20)
(1.02211 0.0492841 1.60614e-20)
(0.987784 0.0151837 -2.37922e-20)
(1.04836 0.104549 2.89417e-20)
(0.955827 0.0922398 4.46304e-20)
(0.856339 0.127956 -7.5608e-21)
(0.886404 0.0334943 0)
(0.72011 0.0270883 8.09401e-21)
(0.630333 0.0208271 6.95393e-21)
(0.381634 -0.0113187 5.70835e-20)
(0.763438 -0.0635848 -1.85032e-19)
(1.02793 0.0729689 -6.19561e-20)
(0.95169 0.0639169 7.90997e-22)
(1.05088 0.0723536 -6.8143e-20)
(0.842448 -0.0131306 -1.58358e-19)
(1.12452 -0.228704 -1.92838e-19)
(1.07348 -0.0678356 -4.23727e-20)
(1.16568 -0.037718 6.23601e-19)
(1.28029 0.0379298 3.73773e-19)
(1.14076 0.0649743 2.89955e-20)
(0.893839 0.0356018 0)
(1.43231 -0.34018 4.19658e-19)
(1.56306 -0.299366 1.80143e-18)
(1.76806 -0.173516 -1.97256e-18)
(1.86432 -0.0205639 -6.33895e-19)
(1.82443 0.0412719 4.70001e-19)
)
;

boundaryField
{
    left
    {
        type            fixedValue;
        value           uniform (1 0 0);
    }
    right
    {
        type            zeroGradient;
    }
    down
    {
        type            noSlip;
    }
    up
    {
        type            noSlip;
    }
    cylinder
    {
        type            noSlip;
    }
    defaultFaces
    {
        type            empty;
    }
}


// ************************************************************************* //
