/*--------------------------------*- C++ -*----------------------------------*\
  =========                 |
  \\      /  F ield         | OpenFOAM: The Open Source CFD Toolbox
   \\    /   O peration     | Website:  https://openfoam.org
    \\  /    A nd           | Version:  13
     \\/     M anipulation  |
\*---------------------------------------------------------------------------*/
FoamFile
{
    format      ascii;
    class       surfaceScalarField;
    location    "1.35";
    object      phi;
}
// * * * * * * * * * * * * * * * * * * * * * * * * * * * * * * * * * * * * * //

dimensions      [0 3 -1 0 0 0 0];

internalField   nonuniform List<scalar> 
3485
(
0.00188853
0.00679225
-0.00868078
0.00831761
0.00785389
-0.014283
0.0195849
-0.00176023
-0.00950701
0.0356127
-0.019885
0.00385715
0.0557654
-0.043718
0.0235653
0.0787186
-0.0700231
0.0470698
0.102607
-0.0956072
0.071719
0.125543
-0.11799
0.0950539
0.146018
-0.135687
0.115211
-0.148167
0.130841
0.163344
0.00209851
0.00469374
0.00963095
0.000321451
0.0230794
-0.0152087
0.0420582
-0.0388638
0.0651383
-0.0667981
0.0900578
-0.0949425
0.114428
-0.119978
0.136422
-0.139983
0.155139
-0.154404
-0.163996
0.170969
0.00265835
0.00203539
0.0117809
-0.0088011
0.027634
-0.0310618
0.0490386
-0.0602684
0.0734941
-0.0912536
0.098024
-0.119472
0.1202
-0.142154
0.138652
-0.158435
0.153122
-0.168874
-0.174674
0.163801
0.00346001
-0.00142462
0.014453
-0.0197941
0.0324734
-0.0490821
0.0551895
-0.0829845
0.0792058
-0.11527
0.101487
-0.141754
0.120232
-0.160899
0.134957
-0.173161
0.146036
-0.179952
-0.182983
0.154344
0.00434475
-0.00576937
0.0170925
-0.0325419
0.0364955
-0.0684851
0.0590266
-0.105516
0.0809396
-0.137183
0.0997313
-0.160545
0.114467
-0.175634
0.125371
-0.184065
0.133271
-0.187852
-0.188773
0.139061
0.0052114
-0.0109808
0.0192626
-0.0465931
0.0389635
-0.088186
0.0599632
-0.126515
0.0788165
-0.156036
0.0938763
-0.175605
0.105033
-0.186791
0.113011
-0.192043
0.118735
-0.193576
-0.193018
0.122981
0.00592331
-0.0169041
0.0205839
-0.0612537
0.0394419
-0.107044
0.0579102
-0.144984
0.0732233
-0.171349
0.0845914
-0.186973
0.0924818
-0.194681
0.0978298
-0.197391
0.101542
-0.197289
-0.195762
0.104285
0.0064076
-0.0233117
0.020909
-0.0757551
0.0380043
-0.124139
0.0534197
-0.160399
0.0652206
-0.18315
0.0733379
-0.195091
0.0785975
-0.199941
0.0819842
-0.200778
0.084264
-0.199568
-0.197375
0.0858777
0.00660291
-0.0299146
0.0202011
-0.0893534
0.0348991
-0.138837
0.0470435
-0.172544
0.0555119
-0.191619
0.0607383
-0.200317
0.0636985
-0.202901
0.0653004
-0.20238
0.0661574
-0.200425
-0.197787
0.0665691
0.00648351
-0.0363981
0.0186106
-0.10148
0.0305911
-0.150818
0.0395511
-0.181504
0.0450526
-0.19712
0.0478443
-0.203109
0.0489225
-0.203979
0.0490719
-0.202529
0.0487482
-0.200102
0.0481092
-0.197148
-0.0046725
0.007556
-0.0028835
-0.0132816
0.012539
-0.00392993
-0.0227194
0.0119904
-0.00255269
-0.0312602
0.00841262
0.000128259
-0.0379632
0.00324045
0.00346252
-0.042377
-0.00262635
0.00704018
-0.0443152
-0.0085787
0.0105169
-0.0438073
-0.0141042
0.0135963
-0.0410973
-0.018733
0.0160231
-0.0221136
-0.036612
0.0176283
-0.00417476
0.0117308
-0.0120326
0.0203968
-0.0207734
0.0207313
-0.0287704
0.0164096
-0.0351074
0.00957747
-0.03922
0.00148619
-0.0409332
-0.00686543
-0.0401418
-0.0148957
-0.0369913
-0.0218835
-0.0271837
-0.0319211
-0.00333134
0.0150621
-0.0099092
0.0269747
-0.0174342
0.0282563
-0.0244402
0.0234155
-0.0300238
0.0151611
-0.0336313
0.00509369
-0.034882
-0.00561481
-0.0336025
-0.0161751
-0.0297499
-0.0257361
-0.0332821
-0.0236515
-0.00211052
0.0171726
-0.00675093
0.0316151
-0.0123369
0.0338423
-0.0176468
0.0287254
-0.0218224
0.0193367
-0.0242585
0.00752976
-0.0245078
-0.00536548
-0.0222525
-0.0184304
-0.0172503
-0.0307383
-0.04102
-0.00951245
-0.000629552
0.0178022
-0.00273713
0.0337227
-0.00559851
0.0367037
-0.00832722
0.0314541
-0.0101468
0.0211563
-0.0104454
0.00782838
-0.00875922
-0.00705171
-0.00467716
-0.0225124
0.00221062
-0.0376261
-0.0509091
0.0120997
0.000809194
0.016993
0.00145399
0.0330779
0.00178234
0.0363753
0.00232544
0.030911
0.00373419
0.0197476
0.0065654
0.00499716
0.0112751
-0.0117614
0.0181928
-0.0294302
0.0275604
-0.0469936
-0.0636018
0.0402532
0.00183553
0.0151575
0.004844
0.0300694
0.00831574
0.0329036
0.0123946
0.0268322
0.0175289
0.0146133
0.0241782
-0.00165211
0.0327438
-0.020327
0.0433018
-0.0399882
0.0557333
-0.0594252
-0.0787422
0.0708737
0.00226818
0.0128893
0.00685052
0.0254871
0.0128645
0.0268896
0.0202196
0.0194771
0.029146
0.00568679
0.040013
-0.012519
0.0528911
-0.0332051
0.0675654
-0.0546626
0.0834188
-0.0752785
-0.0958599
0.100536
0.00221816
0.0106711
0.00759806
0.0201072
0.0154957
0.0189919
0.0257515
0.00922132
0.0384973
-0.00705893
0.0536612
-0.027683
0.0709273
-0.0504712
0.0895702
-0.0733055
0.108579
-0.0942869
-0.113943
0.126662
0.00199033
0.00781456
0.0172995
0.030378
0.0468843
0.0662712
0.0875189
0.109267
0.130191
0.147089
0.0534344
-0.290299
0.200252
0.12774
-0.226125
0.151819
0.168271
-0.163006
0.122476
0.19006
-0.120114
0.0983242
0.201341
-0.0898707
0.0785897
0.206824
-0.0669146
0.0614318
0.209176
-0.0510376
0.0486861
0.209616
-0.0356408
0.035201
0.209243
-0.0300965
0.0304691
-0.0176917
0.0189233
0.0544814
-0.376701
0.126965
-0.298608
0.167814
-0.203856
0.189901
-0.142201
0.201382
-0.101351
0.206994
-0.0725263
0.209419
-0.0534633
0.209923
-0.0361444
0.209599
-0.0297721
-0.0165282
0.0570541
-0.457407
0.125989
-0.367543
0.166861
-0.244728
0.189201
-0.164541
0.200912
-0.113063
0.206722
-0.0783361
0.209317
-0.0560589
0.209998
-0.0368255
0.209844
-0.0296181
-0.0155649
0.0632894
-0.530209
0.125817
-0.430071
0.165725
-0.284636
0.188028
-0.186843
0.199944
-0.124979
0.206011
-0.084403
0.208871
-0.0589189
0.209842
-0.0377971
0.209979
-0.0297544
-0.0149322
0.0743028
-0.592412
0.127688
-0.483457
0.164865
-0.321812
0.186519
-0.208497
0.198509
-0.136968
0.204866
-0.0907609
0.208081
-0.0621334
0.209455
-0.039171
0.209999
-0.0302987
-0.0147588
0.0896966
-0.641855
0.132207
-0.525967
0.164762
-0.354368
0.184916
-0.228651
0.196689
-0.148742
0.203312
-0.0973836
0.206954
-0.0657753
0.208837
-0.0410542
0.209904
-0.0313655
-0.0151712
0.106678
-0.677659
0.13848
-0.557769
0.165466
-0.381354
0.183447
-0.246632
0.194632
-0.159926
0.201408
-0.10416
0.20551
-0.0698775
0.207994
-0.0435383
0.209691
-0.0330624
-0.0162928
0.122048
-0.699171
0.144465
-0.580187
0.166199
-0.403088
0.182025
-0.262458
0.192445
-0.170346
0.199247
-0.110961
0.203797
-0.0744283
0.206945
-0.0466862
0.209365
-0.0354819
-0.0182406
0.133932
-0.70644
0.148364
-0.594619
0.165771
-0.420495
0.180073
-0.276759
0.189997
-0.180271
0.196861
-0.117825
0.201867
-0.0794339
0.205723
-0.0505424
0.208937
-0.0386966
-0.0211223
0.141675
-0.701026
0.149867
-0.602811
0.163732
-0.43436
0.176996
-0.290023
0.186898
-0.190173
0.194098
-0.125025
0.199686
-0.085022
0.204333
-0.0551892
0.208419
-0.0427824
-0.0250386
0.529222
-0.628465
-0.601784
0.450049
-0.523639
0.394486
-0.378797
0.364035
-0.259571
0.3477
-0.173837
0.338333
-0.115659
0.332493
-0.079182
0.328927
-0.0516224
0.326332
-0.0401875
-0.0235965
0.526143
-0.521139
-0.633469
0.443945
-0.441441
0.394725
-0.329576
0.367495
-0.232342
0.351764
-0.158106
0.341953
-0.105848
0.33535
-0.0725788
0.331041
-0.0473134
0.327741
-0.0368879
-0.021727
0.541602
-0.430339
-0.632402
0.469841
-0.369681
0.418052
-0.277787
0.383616
-0.197905
0.361724
-0.136215
0.347942
-0.0920654
0.338997
-0.0636341
0.333352
-0.0416684
0.329154
-0.0326899
-0.0193867
0.542326
-0.349319
-0.623346
0.474811
-0.302166
0.424597
-0.227573
0.390013
-0.163321
0.367068
-0.113271
0.351961
-0.0769586
0.341806
-0.0534789
0.335273
-0.0351354
0.330366
-0.0277827
-0.0166323
0.545298
-0.279311
-0.615307
0.482768
-0.239635
0.433138
-0.177942
0.396981
-0.127165
0.372133
-0.0884222
0.355486
-0.0603117
0.34418
-0.0421731
0.336873
-0.0278283
0.331361
-0.0222705
-0.0135156
0.547266
-0.217228
-0.609349
0.4875
-0.17987
0.438168
-0.12861
0.40116
-0.0901561
0.37526
-0.0625227
0.357727
-0.0427789
0.345704
-0.0301503
0.337893
-0.0200173
0.331953
-0.0163299
-0.0101177
0.545227
-0.15891
-0.603544
0.48628
-0.120923
0.437295
-0.0796249
0.400435
-0.0532963
0.374622
-0.0367097
0.357125
-0.0252826
0.345045
-0.0180697
0.337161
-0.0121338
0.331088
-0.0102568
-0.00658722
0.521232
-0.0989857
-0.581156
0.463655
-0.0633473
0.417963
-0.0339329
0.384599
-0.0199319
0.361627
-0.0137381
0.346171
-0.00982597
0.335443
-0.00734188
0.328397
-0.00508794
0.322832
-0.00469156
-0.00326456
0.418532
-0.0392795
-0.478239
0.372177
-0.0169915
0.341197
-0.00295382
0.320543
0.000722657
0.30648
0.000324631
0.296873
-0.000218664
0.290036
-0.000504573
0.285454
-0.000506253
0.281589
-0.000826772
-0.000806738
0.159985
-0.199264
0.142993
0.140039
0.140762
0.141087
0.140868
0.140363
0.139857
0.13903
0.531685
0.0407971
-0.524373
0.540844
0.0574096
0.549874
0.0768476
0.561588
0.092572
0.571976
0.112593
0.585982
0.125054
0.595019
0.145308
0.60772
0.151099
0.605903
0.172785
0.167463
0.509008
0.0336399
-0.501851
0.518944
0.0474739
0.528833
0.0669586
0.542109
0.0792966
0.554976
0.0997252
0.57107
0.10896
0.5869
0.129478
0.603351
0.134649
0.622005
0.154131
0.156
0.49429
0.0264914
-0.487142
0.50354
0.0382239
0.514149
0.0563504
0.526683
0.0667617
0.541013
0.085396
0.556368
0.0936047
0.574407
0.111439
0.59198
0.117075
0.61306
0.133051
0.136658
0.483548
0.0193465
-0.476403
0.492128
0.029644
0.503183
0.0452955
0.51522
0.0547243
0.530145
0.0704711
0.54537
0.0783799
0.563722
0.0930876
0.581804
0.0989931
0.602651
0.112204
0.115963
0.474483
0.0124005
-0.467537
0.482767
0.0213605
0.493911
0.0341511
0.506022
0.0426136
0.521109
0.0553841
0.53673
0.0627581
0.555072
0.0747458
0.573608
0.0804575
0.594381
0.0914308
0.0950373
0.466117
0.00578971
-0.459506
0.47431
0.0131676
0.485369
0.0230922
0.497766
0.0302159
0.51295
0.040201
0.529137
0.0465704
0.547741
0.0561416
0.566925
0.0612745
0.588094
0.0702614
0.0737825
0.456319
-0.000185652
-0.450344
0.464266
0.00522132
0.475038
0.0123195
0.487576
0.0176783
0.502848
0.0249294
0.519622
0.0297964
0.538798
0.0369648
0.558965
0.0411081
0.581143
0.0480831
0.0513815
0.435562
-0.00469798
-0.43105
0.442183
-0.00139985
0.451647
0.00285549
0.463198
0.00612821
0.477676
0.0104513
0.49406
0.0134123
0.51319
0.017835
0.533853
0.0204441
0.556981
0.0249555
0.0272065
0.371084
-0.00500482
-0.370777
0.373355
-0.00367092
0.378275
-0.00206465
0.385293
-0.000888915
0.395116
0.000627783
0.40684
0.00168818
0.421431
0.003244
0.437802
0.00407311
0.457062
0.00569596
0.00602968
0.18453
-0.189535
0.180859
0.178794
0.177905
0.178533
0.180221
0.183465
0.187539
0.193234
0.0757998
0.142879
-0.130964
-0.0877152
0.0648268
0.144878
-0.133905
0.0546728
0.147349
-0.137195
0.0448172
0.150729
-0.140873
0.0349811
0.154407
-0.144571
0.0252149
0.157338
-0.147572
0.0158947
0.15701
-0.14769
0.00779888
0.147759
-0.139663
0.00209765
0.119287
-0.113586
0.0570235
-0.0549258
0.073115
0.153655
-0.0838914
0.0624375
0.155556
0.0520804
0.157706
0.0420736
0.160736
0.0322957
0.164185
0.0227987
0.166835
0.0139641
0.165845
0.00655764
0.155165
0.00161325
0.124231
0.0586367
0.0663508
0.163077
-0.0757723
0.0565267
0.16538
0.0467474
0.167486
0.0372257
0.170258
0.0279934
0.173417
0.0191702
0.175658
0.0111759
0.173839
0.00477741
0.161564
0.000892979
0.128116
0.0595297
0.0562653
0.171213
-0.0644008
0.0476981
0.173947
0.0389721
0.176212
0.0303506
0.178879
0.0220038
0.181764
0.0141598
0.183502
0.00731484
0.180684
0.00227805
0.166601
-0.00010738
0.130501
0.0594223
0.0439143
0.178121
-0.0508224
0.0366712
0.18119
0.0291961
0.183687
0.0217194
0.186356
0.0144928
0.188991
0.00789169
0.190103
0.00247946
0.186096
-0.000774905
0.169855
-0.00121917
0.130946
0.0582032
0.0304762
0.18392
-0.0362759
0.0244651
0.187201
0.0182371
0.189915
0.0119901
0.192603
0.0060273
0.194953
0.000814926
0.195316
-0.00273948
0.189651
-0.00386242
0.170978
-0.00237067
0.129454
0.0558325
0.0160447
0.188684
-0.0208084
0.0111838
0.192062
0.00619926
0.194899
0.00127072
0.197531
-0.00323365
0.199458
-0.00667439
0.198756
-0.00826811
0.191244
-0.0071656
0.169875
-0.00348578
0.125774
0.0523467
0.00123485
0.192601
-0.00515224
-0.00259525
0.195892
-0.00641173
0.198716
-0.0100275
0.201147
-0.0130143
0.202445
-0.0146627
0.200405
-0.0140244
0.190606
-0.0104111
0.166262
-0.00450219
0.119865
0.0478445
-0.0148413
0.195391
0.0120516
-0.0175016
0.198552
-0.0200393
0.201253
-0.0222096
0.203318
-0.0234818
0.203717
-0.0230137
0.199937
-0.0198439
0.187436
-0.0135251
0.159943
-0.00538763
0.111728
0.0424569
-0.0313025
0.0295457
-0.0328517
-0.0341275
-0.034789
-0.0341811
-0.0313643
-0.0254317
-0.016306
-0.00605879
0.104953
0.0337721
-0.116672
-0.0220541
0.0929743
0.0347398
-0.0227607
0.0807189
0.0357823
-0.0235268
0.0681603
0.0369004
-0.0243419
0.0552788
0.0380773
-0.0251958
0.0420985
0.0391992
-0.026019
0.0288072
0.0398193
-0.026528
0.0160405
0.0386324
-0.0258657
0.00538324
0.0327058
-0.0220485
0.0168798
-0.0114965
0.1045
0.0455497
-0.116277
0.092519
0.0467206
0.0802768
0.0480245
0.0677474
0.0494298
0.0549086
0.050916
0.0417831
0.0523248
0.0285591
0.0530432
0.0158743
0.0513173
0.00530911
0.043271
0.0221889
0.103879
0.0572817
-0.115611
0.0919121
0.0586878
0.0796968
0.0602398
0.0672063
0.0619203
0.0544216
0.0637007
0.0413671
0.0653794
0.0282334
0.0661769
0.0156613
0.0638893
0.00522105
0.0537113
0.0274099
0.102354
0.0690432
-0.114116
0.0904695
0.0705726
0.0783476
0.0723618
0.0659591
0.0743088
0.0532898
0.07637
0.0403804
0.0782888
0.0274426
0.0791147
0.0151303
0.0762016
0.00499166
0.0638499
0.0324016
0.100468
0.0806729
-0.112098
0.0886954
0.0823453
0.0767521
0.084305
0.0645828
0.0864781
0.0521428
0.08881
0.0394545
0.0909771
0.0267393
0.0918299
0.0146784
0.0882625
0.00481733
0.073711
0.0372189
0.0972955
0.0923332
-0.108956
0.0856212
0.0940197
0.0737796
0.0961466
0.0617758
0.098482
0.0496064
0.100979
0.037304
0.10328
0.0250818
0.104052
0.013607
0.0997373
0.00437142
0.0829465
0.0415903
0.094142
0.103485
-0.105294
0.0829951
0.105167
0.071664
0.107478
0.0600469
0.110099
0.0481415
0.112885
0.0360528
0.115368
0.0240787
0.116026
0.0129397
0.110876
0.00410225
0.091784
0.0456926
0.0875022
0.11445
-0.0984663
0.0767309
0.115938
0.065988
0.118221
0.055158
0.120929
0.0441263
0.123917
0.0329075
0.126587
0.0217862
0.127147
0.0115138
0.121149
0.00353109
0.0997667
0.0492237
0.0835987
0.123874
-0.0930232
0.0738148
0.125722
0.0634607
0.128575
0.0527435
0.131646
0.0418247
0.134835
0.0308464
0.137565
0.0201342
0.13786
0.0104385
0.130844
0.00310905
0.107096
0.0523327
0.0735048
-0.0805945
0.0653214
0.0567008
0.0474736
0.0377383
0.0277318
0.0179016
0.00908283
0.00259312
0.201451
0.00776153
-0.011223
0.205655
0.0217087
-0.0259129
0.209189
0.0406419
-0.0441754
0.211378
0.057369
-0.0595577
0.210932
0.0690261
-0.0685808
0.208919
0.0835717
-0.0815582
0.201826
0.0987573
-0.091665
0.190061
0.124148
-0.112383
0.165189
0.164887
-0.140015
0.216315
-0.167797
0.201128
0.00462334
0.205007
0.0178295
0.208304
0.0373453
0.210367
0.0553056
0.209974
0.0694192
0.207812
0.0857337
0.200878
0.105691
0.188763
0.136263
0.163917
0.189733
0.263954
0.200735
0.0018781
0.204198
0.014367
0.207139
0.034404
0.208898
0.0535462
0.208448
0.0698698
0.205883
0.0882979
0.199093
0.112482
0.186351
0.149005
0.161859
0.214225
0.310202
0.200267
-0.000398811
0.203219
0.0114143
0.205689
0.0319342
0.206991
0.0522448
0.206365
0.0704955
0.203159
0.0915035
0.196513
0.119128
0.182715
0.162803
0.159098
0.237843
0.355183
0.199719
-0.00212795
0.202068
0.00906504
0.20395
0.0300528
0.204667
0.0515271
0.203731
0.071432
0.199674
0.0955598
0.193168
0.125634
0.177665
0.178306
0.155631
0.259877
0.398716
0.199089
-0.00322751
0.200742
0.00741268
0.201917
0.0288774
0.201954
0.0514907
0.200543
0.0728431
0.195469
0.100634
0.189086
0.132017
0.171663
0.195729
0.151612
0.279928
0.441373
0.198378
-0.0036158
0.199242
0.00654901
0.199596
0.0285234
0.198878
0.0522087
0.196797
0.074924
0.190664
0.106766
0.184196
0.138485
0.165017
0.214908
0.146737
0.298208
0.482815
0.197585
-0.00321094
0.197578
0.00655599
0.197002
0.0290992
0.19547
0.0537411
0.192502
0.0778921
0.185371
0.113897
0.178503
0.145353
0.157178
0.236233
0.141285
0.314102
0.525634
0.196708
-0.00192899
0.195775
0.00748852
0.194172
0.030703
0.191766
0.0561466
0.187668
0.0819902
0.179746
0.121819
0.171824
0.153275
0.150263
0.257794
0.13532
0.329045
0.56793
0.195783
0.000277358
0.193825
0.00944727
0.191179
0.0333487
0.187744
0.0595816
0.182433
0.0873009
0.17329
0.130962
0.163586
0.162979
0.140322
0.281058
0.129386
0.339981
0.616722
0.304863
-0.00257518
0.309068
0.00524221
0.314554
0.0278627
0.320622
0.0535135
0.326957
0.0809655
0.331468
0.126451
0.34631
0.148137
0.350265
0.277102
0.398564
0.291683
0.548497
0.466788
0.30546
-0.00602515
0.310528
0.000173939
0.316747
0.0216439
0.323996
0.046265
0.331036
0.073925
0.339892
0.117595
0.355659
0.132371
0.367802
0.264959
0.41579
0.243695
0.482225
0.482063
0.306233
-0.0102475
0.312407
-0.00600033
0.319451
0.0146002
0.327511
0.0382045
0.335283
0.0661533
0.347401
0.105477
0.362222
0.11755
0.38181
0.245372
0.427715
0.19779
0.412202
0.497738
0.30725
-0.0154872
0.314722
-0.0134721
0.322593
0.00672912
0.330966
0.0298315
0.33985
0.0572694
0.353395
0.0919313
0.368349
0.102596
0.394536
0.219184
0.436922
0.155405
0.34283
0.506294
0.308589
-0.0220661
0.317655
-0.0225383
0.326154
-0.0017701
0.334429
0.0215574
0.344354
0.0473444
0.358429
0.0778557
0.374377
0.0866487
0.406701
0.18686
0.441159
0.120946
0.276424
0.507565
0.31029
-0.0303463
0.321165
-0.0334134
0.330221
-0.0108256
0.337999
0.013779
0.348419
0.0369245
0.363152
0.0631233
0.379475
0.070325
0.416296
0.150039
0.4438
0.0934427
0.212946
0.507278
0.312613
-0.0409491
0.325296
-0.0460963
0.333889
-0.0194187
0.340761
0.00690711
0.351173
0.0265124
0.366625
0.0476711
0.382873
0.0540772
0.422065
0.110847
0.446027
0.0694813
0.15281
0.506162
0.314651
-0.0535901
0.325809
-0.0572541
0.332416
-0.0260254
0.338043
0.00127935
0.348378
0.016178
0.364498
0.0315511
0.381554
0.0370216
0.42204
0.07036
0.445207
0.0463149
0.0956354
0.502382
0.308012
-0.0595923
0.302636
-0.0518775
0.2997
-0.0230901
0.303409
-0.00242958
0.314078
0.00550961
0.331144
0.0144846
0.351526
0.0166402
0.391213
0.0306722
0.416584
0.0209444
0.0399053
0.472314
0.242418
0.19054
0.16745
0.165021
0.17053
0.185015
0.201655
0.232327
0.253272
0.293177
0.48068
-0.101607
0.486073
-0.0892853
0.489711
-0.0794101
0.493183
-0.0678727
0.496942
-0.0545811
0.501351
-0.0406847
0.505966
-0.0254237
0.511288
-0.0104744
0.517252
0.00608815
0.0224245
0.483387
-0.102931
0.48397
-0.0898688
0.483149
-0.078589
0.482629
-0.0673524
0.482709
-0.0546613
0.484074
-0.04205
0.486405
-0.0277545
0.490359
-0.0144281
0.49511
0.00133671
0.0156834
0.490658
-0.0958506
0.485686
-0.0848977
0.481164
-0.0740664
0.477371
-0.0635596
0.474945
-0.0522349
0.474245
-0.0413499
0.475034
-0.0285437
0.477593
-0.016987
0.481243
-0.00231346
0.00978426
0.494561
-0.0841182
0.485308
-0.0756441
0.478228
-0.0669866
0.472815
-0.0581467
0.469044
-0.0484642
0.466959
-0.0392648
0.466678
-0.0282626
0.468049
-0.0183581
0.471354
-0.00561873
0.00473535
0.494906
-0.0714591
0.484261
-0.0649987
0.475675
-0.0584008
0.469013
-0.0514845
0.464189
-0.0436403
0.461028
-0.0361045
0.459868
-0.0271023
0.46039
-0.0188801
0.463148
-0.0083766
0.000346015
0.494121
-0.0583023
0.482699
-0.0535768
0.4731
-0.0488017
0.465344
-0.0437286
0.459567
-0.0378634
0.455541
-0.0320785
0.453617
-0.0251779
0.45345
-0.0187133
0.455664
-0.0105899
-0.00349646
0.492396
-0.0445355
0.480227
-0.0414082
0.469725
-0.0382993
0.461013
-0.035017
0.454292
-0.0311429
0.44938
-0.0271659
0.446567
-0.0223656
0.445581
-0.017727
0.446999
-0.0120083
-0.00684104
0.487272
-0.0294256
0.473629
-0.0277655
0.461677
-0.0263478
0.451485
-0.0248243
0.443202
-0.0228598
0.43669
-0.0206539
0.43221
-0.017886
0.429594
-0.015111
0.429313
-0.0117273
-0.0085778
0.454734
-0.0118454
0.438889
-0.0119203
0.424581
-0.01204
0.411756
-0.0119992
0.400515
-0.0116192
0.390843
-0.0109815
0.382988
-0.0100313
0.376872
-0.00899494
0.372865
-0.00772007
-0.00649051
0.281332
0.269411
0.257371
0.245372
0.233753
0.222772
0.21274
0.203745
0.196025
0.00809767
0.0446985
-0.0527962
0.0188145
0.120153
-0.13087
0.0255769
0.170394
-0.177157
0.0275982
0.196657
-0.198678
0.0262662
0.207314
-0.205982
0.0230812
0.209789
-0.206604
0.0190499
0.20815
-0.204119
0.0148013
0.203348
-0.199099
0.0109422
0.193753
-0.189893
0.175312
0.00813235
-0.172502
0.00961852
0.03508
0.0251702
0.104602
0.0377312
0.157833
0.0448723
0.189515
0.0475399
0.204646
0.0474239
0.209905
0.045799
0.209775
0.0433403
0.205806
0.0402355
0.196857
0.179272
0.0362755
0.0101734
0.0249066
0.0298934
0.0848815
0.0487205
0.139006
0.0620031
0.176233
0.069649
0.197
0.0732595
0.206295
0.074362
0.208673
0.0737282
0.20644
0.0713079
0.199278
0.184647
0.0659332
0.00963259
0.015274
0.0318478
0.0626663
0.0566632
0.114191
0.0770034
0.155893
0.090855
0.183149
0.0991792
0.19797
0.103621
0.204231
0.105277
0.204783
0.104078
0.200477
0.189711
0.0990133
0.00814813
0.0071259
0.0302747
0.0405396
0.0593638
0.085102
0.0870645
0.128192
0.108683
0.161531
0.123472
0.183181
0.13273
0.194974
0.137877
0.199636
0.139524
0.19883
0.193314
0.135921
0.00609639
0.00102952
0.0254166
0.0212194
0.0552392
0.0552794
0.088608
0.0948233
0.118833
0.131306
0.142343
0.15967
0.158638
0.178679
0.168845
0.189429
0.173985
0.19369
0.193131
0.174168
0.00392882
-0.00289931
0.0185999
0.00654831
0.044948
0.0289313
0.0795541
0.0602171
0.116334
0.0945261
0.14969
0.126314
0.17628
0.152088
0.195197
0.170512
0.207344
0.181544
0.188359
0.212117
0.00175344
-0.00465274
0.0111601
-0.00285834
0.0311783
0.00891316
0.0618064
0.029589
0.0997297
0.0566028
0.13986
0.0861838
0.177347
0.114602
0.208436
0.139423
0.231965
0.158015
0.172023
0.248301
-0.000103672
-0.00454907
0.00485656
-0.00781858
0.0182948
-0.00452509
0.0417821
0.00610162
0.0748059
0.023579
0.11464
0.0463501
0.157311
0.0719308
0.198782
0.0979519
0.234253
0.122543
0.140673
0.265603
-0.000402283
-0.00414679
0.00323838
-0.0114592
0.0132077
-0.0144944
0.0306665
-0.0113572
0.0561669
-0.0019214
0.0893237
0.0131933
0.128587
0.0326674
0.171672
0.054867
0.21592
0.0782949
0.100545
0.256049
0.00165513
-0.00580192
0.00808458
-0.0178887
0.0190232
-0.0254331
0.0341244
-0.0264584
0.0535883
-0.0213852
0.0780574
-0.0112759
0.107787
0.00293744
0.141761
0.0208935
0.179751
0.0403051
0.0656546
0.214641
0.00437935
-0.0101813
0.0142386
-0.027748
0.0268784
-0.0380728
0.0410242
-0.0406042
0.0565134
-0.0368744
0.0737933
-0.0285558
0.0935731
-0.0168424
0.11705
-0.00258332
0.14284
0.0145155
0.0371543
0.17134
0.00535712
-0.0155384
0.0146952
-0.037086
0.0246504
-0.0480281
0.0343959
-0.0503496
0.0442773
-0.0467558
0.0549539
-0.0392323
0.0669793
-0.0288679
0.0805086
-0.0161126
0.0961832
-0.00115918
0.0168288
0.116509
0.0033023
-0.0188407
0.00718465
-0.0409684
0.0096824
-0.0505258
0.011052
-0.0517192
0.0122144
-0.0479183
0.0140627
-0.0410806
0.0173204
-0.0321255
0.0226945
-0.0214867
0.0310314
-0.00949609
0.00312619
0.044734
-0.000165336
-0.0186754
-0.00278507
-0.0383487
-0.00754551
-0.0457654
-0.0133406
-0.0459241
-0.0190991
-0.0421598
-0.0239276
-0.0362521
-0.026979
-0.0290741
-0.0273148
-0.021151
-0.0238853
-0.0129256
-0.00481908
-0.01594
-0.00275802
-0.0159173
-0.00938788
-0.0317188
-0.0178847
-0.0372685
-0.0267659
-0.037043
-0.0350782
-0.0338475
-0.0421681
-0.0291621
-0.0474828
-0.0237595
-0.0504972
-0.0181366
-0.0507495
-0.0126732
-0.00752973
-0.0480388
-0.00416094
-0.0117564
-0.0125839
-0.0232959
-0.0224096
-0.0274429
-0.0319437
-0.0275088
-0.0402879
-0.0255033
-0.0469739
-0.0224762
-0.0517496
-0.0189838
-0.0545004
-0.0153858
-0.0552357
-0.0119379
-0.00869243
-0.054073
-0.00477007
-0.00698632
-0.0138283
-0.0142377
-0.0239505
-0.0173206
-0.0333502
-0.0181091
-0.0411256
-0.017728
-0.0468668
-0.0167349
-0.0504528
-0.0153978
-0.0519647
-0.0138738
-0.0516325
-0.0122701
-0.0105807
-0.0497443
-0.00495627
-0.00203005
-0.0141181
-0.00507582
-0.0241655
-0.0072732
-0.03329
-0.00898462
-0.0405789
-0.0104391
-0.0456194
-0.0116944
-0.0483051
-0.0127122
-0.0487541
-0.0134247
-0.047255
-0.0137692
-0.0136787
-0.0441569
-0.00491355
-0.0139193
-0.0237452
-0.0326015
-0.0395781
-0.0442324
-0.0464277
-0.0462562
-0.0440023
-0.0400528
0.260791
0.446377
-0.492526
0.251978
0.321105
-0.312292
0.207348
0.156994
-0.112365
0.182965
0.0629713
-0.0385881
0.178752
0.0114231
-0.00721019
0.182393
-0.00958574
0.00594553
0.1881
-0.0161948
0.0104873
0.193904
-0.0154964
0.0096921
0.199839
-0.0154278
0.00949298
-0.0113147
0.0060724
0.232372
0.385344
0.214736
0.338741
0.18447
0.18726
0.177949
0.0694925
0.18127
0.00810186
0.186411
-0.0147261
0.191752
-0.0215363
0.196605
-0.020349
0.201386
-0.0202093
-0.0153645
0.172274
0.329579
0.163442
0.347574
0.165024
0.185677
0.175631
0.0588856
0.183988
-0.00025509
0.190078
-0.0208162
0.194977
-0.0264349
0.198951
-0.024323
0.202678
-0.0239361
-0.0183246
0.0982826
0.276031
0.121986
0.32387
0.155825
0.151838
0.176506
0.0382039
0.187239
-0.0109881
0.193513
-0.02709
0.197894
-0.0308154
0.20106
-0.0274894
0.203845
-0.0267212
-0.0203132
0.0443605
0.21573
0.104797
0.263434
0.155104
0.101531
0.179046
0.0142612
0.190458
-0.0223998
0.19663
-0.0332615
0.200499
-0.0346847
0.20295
-0.0299411
0.204913
-0.0286837
-0.0214537
0.023134
0.144557
0.10625
0.180318
0.158027
0.0497546
0.18197
-0.00968173
0.193415
-0.0338445
0.199377
-0.0392241
0.202784
-0.0380919
0.204623
-0.03178
0.205885
-0.0299455
-0.0218723
0.0246311
0.0658532
0.114195
0.0907534
0.16162
0.00232952
0.184672
-0.0327331
0.19598
-0.0451522
0.201725
-0.04497
0.204742
-0.0411085
0.206076
-0.0331135
0.20676
-0.0306298
-0.0216973
0.0354507
-0.0193418
0.121373
0.00483093
0.164693
-0.0409905
0.186912
-0.0549514
0.198086
-0.0563264
0.203656
-0.0505398
0.206365
-0.043818
0.207304
-0.0340524
0.207536
-0.0308614
-0.0210593
0.0454883
-0.108987
0.125753
-0.0754338
0.166834
-0.0820719
0.188579
-0.0766962
0.199693
-0.0674397
0.205153
-0.0560008
0.207647
-0.046312
0.208305
-0.0347099
0.208209
-0.0307659
-0.0200903
0.0512126
0.127598
0.168002
0.18963
0.20078
0.206211
0.208585
0.209076
0.208779
0.00202068
0.0615409
-0.0635615
-0.000286091
0.00230677
0.0259792
-0.0262653
0.0448982
-0.018919
0.0529389
-0.00804075
0.0559977
-0.00305876
0.0574749
-0.00147719
0.0583307
-0.00085577
0.058982
-0.000651304
-0.000406295
0.117716
0.208036
-0.264211
0.0788047
0.0412181
0.102688
-0.0501484
0.12374
-0.039971
0.133674
-0.0179745
0.138297
-0.00768259
0.141157
-0.00433627
0.143114
-0.00281321
0.144779
-0.002316
-0.0014136
0.27648
0.367798
-0.436242
0.189186
0.128513
0.172144
-0.0331063
0.174137
-0.041964
0.177486
-0.0213237
0.1804
-0.0105962
0.183216
-0.00715242
0.185552
-0.00514931
0.187774
-0.00453843
-0.00281076
0.393269
0.480041
-0.505512
0.290155
0.231626
0.231619
0.02543
0.205689
-0.0160336
0.19753
-0.013165
0.196948
-0.0100142
0.198994
-0.00919853
0.20131
-0.0074655
0.203754
-0.00698245
-0.00440377
0.449095
-0.46158
0.368428
0.281494
0.226872
0.206497
0.202428
0.203717
0.205943
0.208454
0.0115655
-4.6669e-05
-0.0115188
0.0130863
-0.00152079
0.0159958
-0.00290953
0.020012
-0.00401615
0.0259119
-0.00589991
0.0321567
-0.00624478
0.0402933
-0.00813663
0.0483032
-0.00800991
0.0565712
-0.008268
-0.00699033
0.0323135
-0.000568486
-0.0317917
0.0369489
-0.00615613
0.045612
-0.0115727
0.0586574
-0.0170615
0.0776546
-0.0248971
0.100331
-0.0289216
0.131613
-0.039418
0.168139
-0.0445362
0.210663
-0.0507922
-0.060538
0.050436
-0.0019536
-0.0490509
0.0580835
-0.0138036
0.0720886
-0.0255778
0.093738
-0.0387109
0.123951
-0.0551099
0.163111
-0.0680818
0.214766
-0.0910728
0.275239
-0.105009
0.34913
-0.124684
-0.14765
0.0656045
-0.00444214
-0.0631159
0.075807
-0.0240061
0.0942819
-0.0440527
0.122515
-0.066944
0.160318
-0.092913
0.211978
-0.119742
0.272202
-0.151297
0.345022
-0.177829
0.431122
-0.210784
-0.22204
0.0778072
-0.074117
0.0900766
0.111957
0.144026
0.187035
0.241461
0.30228
0.372752
0.427571
0.0875379
-0.0788635
0.0873592
-0.0960336
0.0784251
-0.0801015
0.0892143
0.0690929
-0.0821007
0.0914328
0.0591372
-0.0842298
0.0941855
0.0484044
-0.0863625
0.0970954
0.0369955
-0.0881995
0.0996084
0.0252579
-0.0885664
0.100304
0.0139449
-0.0843443
0.0956573
0.00460054
-0.0693669
0.0787112
-0.0341338
0.0387343
0.0955723
-0.0690142
-0.105422
0.085338
-0.0698672
0.0743704
-0.0711331
0.0627523
-0.0726116
0.0506824
-0.0742927
0.0383521
-0.0758692
0.0260242
-0.0762386
0.0143325
-0.0726525
0.00473316
-0.0597676
-0.0294006
0.0945555
-0.0579878
-0.105582
0.083478
-0.0587897
0.0722391
-0.0598942
0.0608465
-0.0612191
0.0492452
-0.0626914
0.0373908
-0.0640147
0.0254307
-0.0642785
0.0139927
-0.0612145
0.00458458
-0.0503594
-0.0248161
0.0985154
-0.047009
-0.109494
0.0873709
-0.0476452
0.0759886
-0.0485119
0.0642641
-0.0494946
0.0521333
-0.0505606
0.0396309
-0.0515122
0.0270001
-0.0516477
0.0149282
-0.0491426
0.00495759
-0.0403888
-0.0198585
0.0993455
-0.0356474
-0.110707
0.0878749
-0.0361746
0.0761426
-0.0367796
0.0641302
-0.0374822
0.0518341
-0.0382644
0.0392988
-0.038977
0.0267252
-0.0390742
0.0147414
-0.0371588
0.00486405
-0.0305115
-0.0149944
0.101655
-0.0243509
-0.112952
0.0900852
-0.0246048
0.0782528
-0.0249472
0.066119
-0.0253483
0.053652
-0.0257974
0.0408639
-0.0261889
0.0279404
-0.0261506
0.0155266
-0.0247449
0.00519324
-0.0201782
-0.00980119
0.102559
-0.0128286
-0.114082
0.0908444
-0.0128899
0.078861
-0.0129638
0.0665817
-0.013069
0.0539826
-0.0131983
0.0410853
-0.0132916
0.0280774
-0.0131427
0.0155946
-0.0122622
0.00520754
-0.00979107
-0.00459365
0.103715
-0.00128054
-0.115263
0.0919008
-0.00107542
0.0798051
-0.000868132
0.0673999
-0.000663791
0.0546651
-0.000463564
0.0416266
-0.000253137
0.0284722
1.1762e-05
0.0158431
0.000366915
0.00531215
0.000739843
0.000718498
0.104426
0.0103581
-0.116065
0.0925359
0.0108146
0.0803655
0.0113023
0.0678883
0.0118134
0.0550826
0.0123421
0.0419693
0.0128602
0.0287349
0.0132461
0.0160091
0.0130927
0.00537629
0.0113727
0.00609479
0.104844
-0.11654
0.0928979
0.0806734
0.0681449
0.0552912
0.0421325
0.0288506
0.0160776
0.00540174
0.016221
-0.170371
-0.0183527
0.0113754
-0.185048
0.00534224
-0.193066
-0.000929186
-0.197847
-0.00677044
-0.200763
-0.0113806
-0.201372
-0.013539
-0.196519
-0.0118338
-0.178862
-0.00592515
-0.136779
-0.0587213
0.0415717
-0.167028
-0.0449147
0.0348309
-0.178307
0.0267383