/*--------------------------------*- C++ -*----------------------------------*\
  =========                 |
  \\      /  F ield         | OpenFOAM: The Open Source CFD Toolbox
   \\    /   O peration     | Website:  https://openfoam.org
    \\  /    A nd           | Version:  13
     \\/     M anipulation  |
\*---------------------------------------------------------------------------*/
FoamFile
{
    format      ascii;
    class       volVectorField;
    location    "1.35";
    object      U;
}
// * * * * * * * * * * * * * * * * * * * * * * * * * * * * * * * * * * * * * //

dimensions      [0 1 -1 0 0 0 0];

internalField   nonuniform List<vector> 
1800
(
(-0.0705152 0.067439 4.64998e-20)
(-0.0874433 0.114339 2.13691e-20)
(0.0101118 0.0922194 -8.89364e-21)
(0.201958 0.0139293 7.13174e-21)
(0.464375 -0.102062 6.58221e-20)
(0.767095 -0.236513 5.63148e-20)
(1.07631 -0.371096 -6.24354e-20)
(1.36019 -0.492494 -3.39648e-19)
(1.60362 -0.586463 -2.59149e-19)
(1.76595 -0.663896 -2.46472e-19)
(-0.056418 0.0466694 1.67471e-20)
(-0.0266857 0.055889 -1.10857e-19)
(0.131317 0.00663823 4.3713e-22)
(0.390098 -0.0857083 -1.03323e-19)
(0.714092 -0.201386 4.72633e-20)
(1.0596 -0.321116 2.01194e-19)
(1.38451 -0.429467 -2.6132e-19)
(1.6588 -0.5173 2.3371e-19)
(1.86805 -0.578029 5.58358e-19)
(2.01114 -0.633423 -3.3324e-19)
(-0.0352336 0.0264412 9.96169e-21)
(0.0586986 0.00154577 3.1256e-20)
(0.29333 -0.0703062 -2.47289e-20)
(0.626749 -0.169898 -7.29541e-21)
(1.00471 -0.276837 -2.55168e-19)
(1.37074 -0.374601 8.14419e-20)
(1.68251 -0.453584 2.39732e-19)
(1.91941 -0.510874 -2.02231e-20)
(2.08232 -0.547573 -3.94754e-21)
(2.17967 -0.57441 -6.03195e-21)
(-0.00361035 0.00594808 -1.15716e-20)
(0.172892 -0.0474738 -3.54946e-20)
(0.495164 -0.132973 -3.74955e-20)
(0.89912 -0.228706 4.55222e-20)
(1.31044 -0.316958 7.50171e-20)
(1.66877 -0.387418 1.65122e-20)
(1.94303 -0.437094 -1.22147e-20)
(2.12952 -0.467982 3.66276e-19)
(2.24204 -0.481599 3.80783e-19)
(2.29499 -0.493558 -1.66987e-19)
(0.0408744 -0.013916 8.61291e-20)
(0.316392 -0.0875223 7.78371e-20)
(0.72846 -0.174744 -5.99252e-20)
(1.18647 -0.255007 -7.00736e-20)
(1.60383 -0.318133 -3.76528e-19)
(1.92994 -0.361687 4.96578e-21)
(2.15333 -0.38783 5.7498e-19)
(2.28763 -0.400477 2.18195e-19)
(2.35623 -0.403702 1.6061e-21)
(2.38012 -0.406788 -2.04542e-19)
(0.0988255 -0.0306323 -7.30125e-20)
(0.484824 -0.112495 -1.02328e-20)
(0.978478 -0.18816 3.33017e-19)
(1.46627 -0.244043 -2.0623e-19)
(1.86447 -0.280438 -3.62038e-19)
(2.14356 -0.301003 8.01087e-19)
(2.31361 -0.309927 -7.15244e-19)
(2.4016 -0.311288 -9.56621e-19)
(2.43573 -0.307414 7.31817e-19)
(2.43497 -0.306572 -5.47088e-21)
(0.168915 -0.0412341 6.59478e-20)
(0.669458 -0.116689 -2.12899e-19)
(1.22796 -0.16882 -9.4756e-19)
(1.72041 -0.196624 5.32713e-19)
(2.08156 -0.209648 1.14023e-18)
(2.30803 -0.213998 -4.13977e-21)
(2.42857 -0.213509 -2.17728e-18)
(2.47853 -0.210534 1.71271e-20)
(2.48681 -0.206537 2.35389e-18)
(2.47123 -0.206227 6.33729e-19)
(0.24817 -0.042723 4.169e-20)
(0.858539 -0.0956397 3.48287e-19)
(1.46018 -0.115549 8.72362e-19)
(1.93621 -0.11602 -7.93446e-20)
(2.2504 -0.111131 -8.77054e-19)
(2.42536 -0.105804 -3.27619e-19)
(2.50381 -0.10153 0)
(2.52486 -0.0983619 9.0139e-19)
(2.51535 -0.0959922 -1.46564e-20)
(2.48944 -0.0975552 -8.11893e-19)
(0.332414 -0.0327238 3.11524e-20)
(1.03987 -0.0478298 5.51144e-19)
(1.66246 -0.0314814 1.052e-18)
(2.10728 -0.00871306 -1.18364e-18)
(2.37166 0.00758641 -1.03004e-18)
(2.50054 0.0162077 3.65719e-19)
(2.54551 0.0191198 -1.66951e-18)
(2.54571 0.0187685 -1.24879e-18)
(2.52436 0.0165587 1.49488e-18)
(2.49188 0.0109791 1.29163e-18)
(0.416423 -0.0097788 4.00892e-20)
(1.20211 0.0254219 4.33112e-19)
(1.82595 0.0782701 2.3548e-19)
(2.23092 0.119074 -2.00424e-18)
(2.44741 0.140967 2.38984e-20)
(2.53756 0.148258 3.76604e-18)
(2.5573 0.14687 -2.15349e-18)
(2.54345 0.141384 -1.22291e-18)
(2.51496 0.134064 4.3346e-19)
(2.47909 0.124185 -9.82473e-19)
(-0.00984535 0.0656104 1.03213e-19)
(-0.0570703 0.10191 -7.12225e-20)
(-0.109087 0.0877231 2.64072e-22)
(-0.156028 0.046429 -1.47648e-20)
(-0.190537 -0.00849247 -1.58812e-21)
(-0.210867 -0.0686719 -9.81537e-20)
(-0.217407 -0.128023 -8.29376e-21)
(-0.211687 -0.181505 1.86144e-19)
(-0.195585 -0.22472 8.17302e-21)
(-0.168357 -0.254818 -1.92146e-20)
(-0.0205539 0.120154 -1.28958e-20)
(-0.0715875 0.20071 8.1879e-21)
(-0.119573 0.19345 -1.69096e-20)
(-0.158857 0.138491 -5.29928e-21)
(-0.184456 0.0593609 -1.23441e-19)
(-0.195558 -0.0300529 -1.17794e-19)
(-0.193065 -0.120388 1.46318e-19)
(-0.178747 -0.203951 1.65995e-19)
(-0.154499 -0.273714 -3.21621e-19)
(-0.120495 -0.323963 8.74728e-20)
(-0.0376159 0.165188 -8.91747e-20)
(-0.0958131 0.285969 4.47278e-20)
(-0.138506 0.287503 2.70099e-20)
(-0.166353 0.222708 9.62989e-21)
(-0.178108 0.123365 1.04571e-20)
(-0.174793 0.00804173 -1.88851e-19)
(-0.15796 -0.1111 -5.02701e-20)
(-0.129617 -0.224139 3.57408e-19)
(-0.0919281 -0.3215 -4.23438e-19)
(-0.0457412 -0.393512 -2.53497e-19)
(-0.0577429 0.195823 -1.32007e-19)
(-0.124387 0.350279 5.25488e-21)
(-0.159914 0.363011 3.70064e-20)
(-0.172309 0.293887 -1.64076e-19)
(-0.165023 0.180309 2.68065e-19)
(-0.141272 0.0444424 9.14258e-20)
(-0.103701 -0.0993698 3.43659e-20)
(-0.054943 -0.239832 -5.86274e-20)
(0.00243631 -0.365461 4.16135e-20)
(0.0682286 -0.461967 -1.23284e-20)
(-0.0766463 0.208149 0)
(-0.150993 0.386239 8.16002e-20)
(-0.177397 0.411884 -1.91104e-19)
(-0.170594 0.344735 3.74743e-20)
(-0.139049 0.224341 -7.4149e-20)
(-0.0885895 0.0750671 -3.5712e-20)
(-0.0231831 -0.087204 1.96922e-20)
(0.0536672 -0.250411 -1.53136e-19)
(0.13737 -0.403106 0)
(0.231344 -0.525667 -2.79911e-20)
(-0.0902618 0.20134 3.81867e-20)
(-0.170107 0.389027 -3.17027e-21)
(-0.186128 0.426635 -1.14422e-19)
(-0.157666 0.366299 2.03004e-19)
(-0.0979028 0.245843 -1.57078e-19)
(-0.0154547 0.0904221 5.00901e-20)
(0.0840746 -0.0827547 1.16183e-19)
(0.195714 -0.261021 6.38586e-20)
(0.314384 -0.433603 -6.38137e-19)
(0.44855 -0.579625 -1.56558e-20)
(-0.0962895 0.179256 2.5362e-21)
(-0.177932 0.360163 -4.2539e-20)
(-0.182989 0.404276 1.30875e-19)
(-0.13263 0.351541 2.533e-20)
(-0.042681 0.235237 7.22841e-20)
(0.0758588 0.0797417 5.60498e-20)
(0.214862 -0.0968546 -7.83184e-20)
(0.366678 -0.280767 -1.85003e-19)
(0.522008 -0.462274 3.66711e-19)
(0.701681 -0.624257 6.45404e-19)
(-0.0951694 0.149077 -4.9894e-20)
(-0.173536 0.307646 2.5429e-20)
(-0.165639 0.348646 1.55076e-19)
(-0.0920249 0.299555 -6.74347e-20)
(0.0302919 0.187647 3.02368e-20)
(0.188258 0.0354366 -1.08026e-19)
(0.370429 -0.138829 -3.11284e-20)
(0.565045 -0.31973 -1.7974e-19)
(0.755723 -0.49723 -2.39318e-19)
(0.976997 -0.657818 4.97486e-19)
(-0.0892356 0.118089 -8.44546e-20)
(-0.157327 0.243231 -1.21331e-19)
(-0.13118 0.270436 1.1246e-20)
(-0.0296566 0.217761 -6.23626e-20)
(0.130031 0.107357 3.3526e-20)
(0.332044 -0.040485 -1.18446e-19)
(0.559909 -0.207669 4.43411e-20)
(0.795753 -0.377482 -3.8479e-19)
(1.01675 -0.538454 -2.53485e-19)
(1.2604 -0.676935 3.94998e-19)
(-0.0808395 0.0906707 2.71883e-21)
(-0.129359 0.177083 -1.29027e-19)
(-0.0748725 0.181945 -8.9563e-20)
(0.0645639 0.118584 7.15635e-20)
(0.270416 0.00599741 -7.51803e-20)
(0.521817 -0.136741 1.06319e-20)
(0.794764 -0.291105 -7.02058e-20)
(1.06324 -0.441116 1.53334e-19)
(1.30468 -0.573125 -3.05858e-19)
(1.53319 -0.675383 -3.3077e-19)
(0.0266906 -0.343454 2.8873e-19)
(0.474645 -0.263517 -2.26559e-19)
(0.713558 -0.199219 -2.93218e-20)
(0.861109 -0.152885 2.51966e-20)
(0.943499 -0.118349 -1.2289e-20)
(0.989346 -0.0905938 -1.03511e-20)
(1.01542 -0.0707836 -1.11113e-20)
(1.03217 -0.0507638 -2.14228e-21)
(1.04079 -0.0436508 1.16675e-20)
(1.05062 -0.0270325 1.99389e-21)
(0.0860786 -0.466573 3.00114e-19)
(0.497454 -0.366257 1.43248e-19)
(0.731204 -0.257276 -2.0767e-21)
(0.873626 -0.185483 -2.51046e-20)
(0.953 -0.136644 -4.97818e-20)
(0.996683 -0.100998 0)
(1.02113 -0.0769225 -1.16556e-20)
(1.03635 -0.0543312 3.97845e-21)
(1.0442 -0.0461175 2.95776e-22)
(1.05276 -0.0283822 -3.68094e-21)
(0.182193 -0.582056 -4.93907e-19)
(0.534579 -0.464728 -8.06375e-20)
(0.757527 -0.314826 4.23468e-20)
(0.890515 -0.217713 -1.75079e-21)
(0.964862 -0.154593 -1.57682e-21)
(1.00533 -0.111086 3.80742e-21)
(1.02758 -0.0827555 0)
(1.04095 -0.0576474 0)
(1.04787 -0.0483375 -5.1621e-21)
(1.05501 -0.0295586 0)
(0.325023 -0.686042 -7.71643e-20)
(0.594918 -0.554693 2.79469e-19)
(0.794583 -0.370572 -1.01626e-20)
(0.912422 -0.249078 0)
(0.979179 -0.171942 5.23108e-20)
(1.01528 -0.120704 -1.02071e-20)
(1.03474 -0.0881887 0)
(1.04594 -0.0606567 1.37645e-20)
(1.05178 -0.0502715 0)
(1.05736 -0.0305413 1.95191e-21)
(0.515052 -0.774042 -2.533e-19)
(0.686024 -0.630619 2.04841e-19)
(0.844916 -0.421785 8.75528e-21)
(0.940375 -0.278601 0)
(0.996174 -0.188347 1.72073e-20)
(1.02651 -0.129698 2.18246e-20)
(1.04259 -0.0931376 3.44571e-21)
(1.0513 -0.0633093 4.2414e-22)
(1.05589 -0.0518832 -3.70176e-21)
(1.05978 -0.0313124 1.58102e-21)
(0.743858 -0.843758 -1.63195e-18)
(0.809416 -0.689146 -3.92825e-19)
(0.9105 -0.465068 -5.86677e-21)
(0.975736 -0.304686 7.0092e-20)
(1.01635 -0.203187 -2.96593e-20)
(1.03913 -0.137841 1.23337e-20)
(1.05108 -0.0975093 2.36172e-20)
(1.05698 -0.0655596 -2.53142e-20)
(1.06017 -0.0531402 -7.36858e-23)
(1.06226 -0.0318578 -3.1068e-21)
(0.994816 -0.893199 1.8451e-19)
(0.957308 -0.730934 1.18746e-19)
(0.990076 -0.498669 -2.09928e-20)
(1.01929 -0.32593 -2.34627e-21)
(1.04045 -0.215634 -4.74976e-20)
(1.05342 -0.144752 3.13623e-21)
(1.06027 -0.101149 -1.04778e-20)
(1.06298 -0.0673438 -2.06421e-21)
(1.06459 -0.0540071 3.41567e-21)
(1.06477 -0.0321667 -9.8866e-22)
(1.24631 -0.919221 1.66874e-19)
(1.11595 -0.75738 1.86619e-19)
(1.07767 -0.523095 0)
(1.06952 -0.342211 1.15633e-20)
(1.06874 -0.225258 4.13819e-20)
(1.0698 -0.150087 -6.18735e-22)
(1.07036 -0.103875 -3.71892e-20)
(1.06936 -0.0685764 1.0229e-20)
(1.06914 -0.0544375 -1.62448e-22)
(1.06729 -0.0322277 -1.64312e-21)
(1.47999 -0.916632 -1.46859e-19)
(1.27232 -0.767241 -4.99647e-19)
(1.16559 -0.53877 1.07013e-19)
(1.12204 -0.354248 -8.90844e-21)
(1.09997 -0.232388 -1.58218e-21)
(1.08825 -0.153899 -3.73148e-20)
(1.08156 -0.105675 1.20977e-20)
(1.07625 -0.0692447 2.35753e-22)
(1.07386 -0.0544195 -1.52581e-21)
(1.06985 -0.0320356 7.64493e-22)
(1.68465 -0.88718 8.0538e-20)
(1.41608 -0.759724 -4.64203e-19)
(1.24878 -0.544327 -3.00688e-20)
(1.17198 -0.361855 -9.58602e-20)
(1.13105 -0.23732 -5.28294e-20)
(1.10753 -0.156398 -2.43363e-20)
(1.09354 -0.106666 -8.91893e-21)
(1.08364 -0.0694126 0)
(1.0788 -0.0540001 -4.22109e-21)
(1.07245 -0.0315894 3.70615e-21)
(1.94818 -0.828803 -2.72285e-19)
(1.597 -0.721742 7.33256e-20)
(1.35518 -0.529632 -2.19821e-19)
(1.23222 -0.358297 1.72373e-20)
(1.16739 -0.235646 1.70699e-20)
(1.13055 -0.154534 -1.5451e-20)
(1.1084 -0.104681 -8.19135e-21)
(1.09308 -0.0678082 7.45987e-21)
(1.08509 -0.0523746 -3.5635e-21)
(1.07576 -0.0306045 -1.43208e-21)
(1.94682 -0.717667 9.62912e-20)
(1.56844 -0.588219 -9.06267e-20)
(1.35011 -0.424854 8.03119e-20)
(1.24229 -0.296002 -1.60609e-20)
(1.1809 -0.201931 7.50848e-20)
(1.14313 -0.13614 5.29645e-20)
(1.11887 -0.0939991 3.52628e-20)
(1.1009 -0.0615648 -3.80593e-21)
(1.09106 -0.0481314 1.24152e-20)
(1.07901 -0.0283456 2.84769e-21)
(1.96008 -0.586528 -1.65747e-19)
(1.65563 -0.508345 -2.70573e-20)
(1.44048 -0.388163 2.18935e-20)
(1.30813 -0.276649 3.74938e-36)
(1.22262 -0.188506 -3.88535e-21)
(1.16797 -0.125903 -1.44439e-34)
(1.13383 -0.0861261 3.52249e-22)
(1.11 -0.0560593 -5.99369e-35)
(1.09722 -0.0437173 2.0247e-22)
(1.08213 -0.0258 -7.03213e-22)
(1.94783 -0.484242 -4.1791e-34)
(1.67044 -0.41557 3.0862e-20)
(1.46326 -0.310109 -3.30626e-20)
(1.33134 -0.221565 0)
(1.243 -0.153952 -3.2996e-20)
(1.18354 -0.10503 -2.3881e-20)
(1.14491 -0.0731439 -1.6395e-20)
(1.11736 -0.0480945 2.6437e-35)
(1.10248 -0.0379054 -5.356e-21)
(1.08477 -0.0225785 5.02186e-22)
(1.94019 -0.388776 -1.01731e-19)
(1.69614 -0.335778 9.41774e-21)
(1.49546 -0.253578 0)
(1.35803 -0.182634 0)
(1.26308 -0.126917 0)
(1.19757 -0.0862935 0)
(1.15441 -0.0600713 3.42231e-22)
(1.12351 -0.0395221 3.49955e-35)
(1.10686 -0.0313966 5.21204e-23)
(1.08687 -0.018904 4.5225e-35)
(1.9354 -0.307675 -1.31627e-20)
(1.71242 -0.260221 0)
(1.51535 -0.190469 0)
(1.37405 -0.135146 0)
(1.27535 -0.0941167 0)
(1.20643 -0.0644444 0)
(1.16053 -0.0452843 -8.73717e-22)
(1.12743 -0.0299787 8.31566e-21)
(1.10962 -0.0241887 -1.39511e-23)
(1.08789 -0.0148116 1.66275e-21)
(1.92308 -0.234132 0)
(1.71019 -0.187501 -6.37915e-21)
(1.5146 -0.130075 -2.50699e-20)
(1.37184 -0.0893739 0)
(1.27324 -0.0617279 -1.64503e-20)
(1.20454 -0.0423468 -1.14955e-20)
(1.15851 -0.0300384 -8.69178e-21)
(1.12504 -0.020044 -4.69995e-21)
(1.10706 -0.0165961 5.02336e-21)
(1.08459 -0.0104409 -9.00315e-22)
(1.84185 -0.161921 8.96779e-21)
(1.63226 -0.114472 1.24751e-20)
(1.44671 -0.0700466 -1.02513e-20)
(1.3145 -0.0450017 -1.93197e-36)
(1.22618 -0.0308821 3.91136e-21)
(1.16561 -0.0213729 -7.82394e-35)
(1.1249 -0.0154261 -1.23658e-21)
(1.09504 -0.0104464 -1.80306e-21)
(1.0789 -0.00910435 -1.11379e-22)
(1.05794 -0.00603283 1.32377e-22)
(1.48811 -0.0892249 -3.90213e-20)
(1.3051 -0.0461014 1.62178e-20)
(1.17024 -0.0144287 2.03754e-20)
(1.08512 -0.00378366 0)
(1.03167 -0.00255078 8.92366e-21)
(0.994759 -0.00256226 6.14533e-21)
(0.969236 -0.00252714 2.69877e-21)
(0.95004 -0.00201785 2.44748e-21)
(0.939386 -0.00244847 -2.91811e-21)
(0.924244 -0.00205454 2.47683e-22)
(0.579408 -0.00706161 0)
(0.492449 0.00219564 0)
(0.463517 0.0062615 0)
(0.462364 0.00526775 0)
(0.465498 0.00320723 0)
(0.465955 0.00187321 0)
(0.464979 0.00110617 -1.43248e-21)
(0.463221 0.000631826 4.04383e-36)
(0.461936 0.000267367 -1.75753e-22)
(0.457679 -1.87169e-05 -2.78975e-22)
(2.39994 0.106844 9.34094e-19)
(2.41348 0.00727798 6.13196e-20)
(2.42545 -0.0891076 -1.15205e-19)
(2.4102 -0.185211 -3.62726e-19)
(2.40573 -0.277091 -9.7278e-20)
(2.35689 -0.369183 -1.6494e-19)
(2.34439 -0.454651 -5.35174e-19)
(2.24021 -0.543749 1.3448e-19)
(2.23017 -0.613498 0)
(2.01249 -0.698382 1.68135e-19)
(2.2997 0.0903077 2.75708e-19)
(2.31032 0.0041538 -3.55673e-19)
(2.33423 -0.0637854 -4.74898e-20)
(2.31908 -0.154205 -1.57609e-19)
(2.33096 -0.216543 8.75314e-20)
(2.29033 -0.313855 2.03658e-19)
(2.29215 -0.368223 -1.81006e-19)
(2.22854 -0.475958 4.03766e-20)
(2.21265 -0.517289 -7.78266e-20)
(2.1372 -0.635389 9.35686e-20)
(2.23109 0.0723044 -1.30778e-19)
(2.24384 -0.00502573 2.76419e-19)
(2.26353 -0.0528741 2.02946e-19)
(2.25745 -0.13636 -2.97865e-19)
(2.26038 -0.177592 2.48607e-20)
(2.2396 -0.268725 3.28101e-19)
(2.22373 -0.302827 1.26492e-20)
(2.19528 -0.402849 -1.15256e-20)
(2.15752 -0.427692 1.38476e-20)
(2.12865 -0.53626 2.52031e-20)
(2.17997 0.0490151 -2.87582e-19)
(2.19669 -0.0158501 -6.22108e-21)
(2.20997 -0.0524835 -4.13588e-20)
(2.21244 -0.122552 -4.47492e-20)
(2.20739 -0.154448 -1.27047e-19)
(2.19865 -0.229363 -1.1811e-19)
(2.17458 -0.256495 1.91009e-19)
(2.15797 -0.336071 1.30713e-20)
(2.11681 -0.356637 1.77426e-20)
(2.09477 -0.440852 2.15473e-20)
(2.13811 0.0261927 5.58344e-20)
(2.15655 -0.0255504 1.05696e-19)
(2.16693 -0.0558015 -5.06621e-20)
(2.1732 -0.110782 2.49575e-19)
(2.16713 -0.137829 -2.36711e-20)
(2.16198 -0.195413 -2.28549e-19)
(2.13963 -0.218796 3.61355e-20)
(2.12399 -0.278948 -1.1797e-19)
(2.08783 -0.296181 1.02631e-19)
(2.06382 -0.359423 7.18579e-20)
(2.10062 0.00358524 -1.55911e-19)
(2.11887 -0.0361836 -7.81437e-20)
(2.12903 -0.0612781 2.02616e-20)
(2.13619 -0.10271 1.17118e-19)
(2.13244 -0.125356 1.79683e-19)
(2.12805 -0.167992 -6.68762e-20)
(2.11051 -0.187197 5.77854e-21)
(2.09492 -0.230885 7.42685e-21)
(2.06507 -0.244143 3.76236e-20)
(2.04074 -0.289238 -6.91027e-20)
(2.05753 -0.0175372 -5.93807e-20)
(2.07407 -0.0469777 -1.22406e-19)
(2.08395 -0.0666745 -1.14835e-19)
(2.09096 -0.0968473 -2.21479e-19)
(2.08944 -0.114268 2.50826e-20)
(2.08676 -0.144928 3.26861e-20)
(2.07349 -0.158756 3.57359e-20)
(2.06193 -0.189605 2.6421e-20)
(2.03681 -0.197569 -6.76189e-20)
(2.01936 -0.229046 -1.20793e-20)
(1.96638 -0.0349074 5.56403e-20)
(1.9776 -0.0545499 4.53913e-20)
(1.98232 -0.0678913 1.97912e-20)
(1.98758 -0.0877808 -3.86296e-20)
(1.98295 -0.0989274 -3.46976e-20)
(1.984 -0.119191 -2.63859e-22)
(1.96928 -0.126685 -2.79329e-20)
(1.96892 -0.147092 1.45448e-20)
(1.94222 -0.149092 -1.04907e-20)
(1.94536 -0.17023 4.66747e-20)
(1.68297 -0.0440445 -4.76005e-20)
(1.67729 -0.0535877 3.54009e-22)
(1.6666 -0.0600221 9.0912e-20)
(1.65922 -0.0688834 -4.0388e-21)
(1.64279 -0.0733187 -2.21425e-20)
(1.63806 -0.0820297 4.02364e-20)
(1.6153 -0.0837604 -2.03827e-20)
(1.6186 -0.0928343 4.55349e-21)
(1.58569 -0.09072 1.67614e-20)
(1.60572 -0.101262 4.92024e-20)
(0.848376 -0.0158846 4.4195e-20)
(0.822274 -0.0152202 3.3667e-20)
(0.797318 -0.0143302 3.17865e-20)
(0.773528 -0.0136679 4.79231e-20)
(0.75034 -0.0127724 -2.19306e-20)
(0.730719 -0.0123572 -2.13334e-20)
(0.709287 -0.0117802 6.26335e-21)
(0.697189 -0.0118043 -8.8637e-22)
(0.673072 -0.0105506 1.06286e-21)
(0.679109 -0.0138398 -1.55483e-21)
(1.51962 0.893652 -7.57915e-20)
(1.50214 0.939007 2.83509e-20)
(1.50355 0.991713 -5.75773e-19)
(1.51043 1.05191 2.47182e-19)
(1.51566 1.11586 1.07464e-18)
(1.51098 1.17624 -1.55249e-19)
(1.47591 1.21255 -9.92041e-19)
(1.36298 1.17583 -3.78454e-20)
(1.08608 0.972888 -5.01335e-19)
(0.515053 0.475641 1.40446e-19)
(1.68349 0.863741 0)
(1.67109 0.908401 6.90202e-19)
(1.6689 0.95807 1.52912e-18)
(1.67518 1.01637 -9.27458e-19)
(1.68374 1.07957 -2.17826e-18)
(1.68292 1.13893 -1.57806e-19)
(1.64707 1.17277 -2.00939e-19)
(1.52111 1.13262 7.24648e-19)
(1.20833 0.929935 1.02661e-18)
(0.568798 0.448681 4.42746e-19)
(1.83464 0.828156 7.12839e-20)
(1.83199 0.872212 0)
(1.83174 0.918804 -7.23682e-20)
(1.83878 0.972515 9.47204e-19)
(1.84951 1.031 5.86135e-20)
(1.85058 1.0855 -2.18843e-18)
(1.81161 1.1138 1.36909e-18)
(1.67004 1.06894 8.41263e-19)
(1.31985 0.869195 -9.03213e-19)
(0.615082 0.412409 -2.99138e-19)
(1.96659 0.77892 -1.64947e-19)
(1.97471 0.821577 -1.25061e-19)
(1.98109 0.865202 2.70942e-19)
(1.99208 0.914107 -3.36093e-19)
(2.00567 0.966865 -1.57831e-18)
(2.00763 1.01484 -1.20945e-18)
(1.96333 1.03601 1.29276e-18)
(1.80353 0.985905 8.17208e-19)
(1.41444 0.791262 0)
(0.649679 0.36673 0)
(2.08305 0.716798 -9.25763e-19)
(2.10047 0.756449 -1.64664e-18)
(2.1145 0.796289 -6.42377e-19)
(2.13066 0.839945 -3.74746e-20)
(2.14716 0.88619 0)
(2.14847 0.926618 1.53427e-19)
(2.09621 0.939376 1.79883e-19)
(1.91424 0.883296 2.24596e-19)
(1.48418 0.696818 -3.28263e-19)
(0.668576 0.312838 -8.25858e-20)
(2.18323 0.639196 1.10996e-18)
(2.20908 0.675067 -4.72673e-20)
(2.23083 0.710781 -1.3033e-18)
(2.25245 0.749147 0)
(2.27133 0.788628 0)
(2.2702 0.819919 0)
(2.20554 0.823757 1.54184e-18)
(1.99597 0.764463 -1.71231e-18)
(1.52447 0.589113 -1.10713e-18)
(0.669838 0.252775 -7.84362e-21)
(2.27117 0.550923 -1.47931e-18)
(2.30276 0.581796 -3.10295e-18)
(2.33037 0.612462 -5.37191e-21)
(2.3561 0.644718 6.20872e-19)
(2.37545 0.676394 -4.41805e-20)
(2.36785 0.698907 1.33738e-18)
(2.28498 0.694329 -7.23124e-19)
(2.04344 0.632087 -2.03814e-18)
(1.53176 0.471446 1.60903e-19)
(0.652224 0.190162 1.14325e-19)
(2.34463 0.451206 -1.19009e-18)
(2.38065 0.47658 1.8723e-20)
(2.41232 0.502016 4.53465e-19)
(2.44012 0.528057 -4.34458e-19)
(2.45684 0.552049 6.63408e-19)
(2.43798 0.565903 1.81633e-18)
(2.33147 0.553666 -2.13819e-19)
(2.05348 0.490696 -1.11172e-18)
(1.50364 0.34954 2.6821e-19)
(0.616083 0.128986 4.85766e-20)
(2.4055 0.346342 4.45742e-19)
(2.4429 0.366238 9.65781e-20)
(2.47587 0.385649 -4.72305e-19)
(2.50268 0.404673 -1.07549e-18)
(2.51263 0.420477 9.7902e-20)
(2.47691 0.425669 9.55542e-20)
(2.34032 0.407032 -1.46813e-18)
(2.02183 0.346672 5.85123e-19)
(1.43834 0.230124 1.77493e-19)
(0.562661 0.0731128 -1.28538e-19)
(2.44959 0.235127 8.66431e-19)
(2.48761 0.250187 -1.29504e-18)
(2.5199 0.263703 2.07169e-19)
(2.54246 0.275905 2.58821e-18)
(2.54069 0.284086 1.29758e-18)
(2.48149 0.281985 -2.77637e-18)
(2.30807 0.259811 -2.65089e-18)
(1.94639 0.206657 1.20534e-18)
(1.33692 0.11989 -8.82936e-21)
(0.494831 0.0259819 -1.31763e-20)
(0.524623 0.328408 -1.67778e-19)
(0.48536 0.340537 -1.66763e-19)
(0.44104 0.353545 7.51769e-20)
(0.392301 0.367516 -2.49039e-19)
(0.338898 0.382307 -2.28996e-20)
(0.280046 0.396819 2.3117e-19)
(0.214883 0.406534 4.30062e-20)
(0.144024 0.397884 -5.83346e-21)
(0.0744149 0.339769 1.58749e-20)
(0.0147982 0.17708 1.53944e-20)
(0.564645 0.432445 1.39325e-19)
(0.526105 0.450935 1.80014e-19)
(0.483212 0.470888 4.68942e-20)
(0.436273 0.492418 -5.78794e-20)
(0.384813 0.515307 -2.41344e-19)
(0.327846 0.537936 -9.99655e-21)
(0.263887 0.553817 8.66331e-20)
(0.191876 0.54387 3.22679e-20)
(0.115356 0.464887 -1.09383e-19)
(0.0361664 0.241862 -3.75101e-20)
(0.623262 0.530442 -1.25983e-19)
(0.585997 0.554723 -1.15575e-19)
(0.54528 0.580923 1.11111e-19)
(0.500996 0.609383 8.47774e-20)
(0.452422 0.639957 -7.8407e-20)
(0.398313 0.670604 -4.62884e-20)
(0.336272 0.69292 -1.0741e-19)
(0.262682 0.682342 -5.41173e-20)
(0.175768 0.583715 -6.13841e-20)
(0.0675286 0.303109 1.86213e-21)
(0.697442 0.623907 4.99868e-20)
(0.661852 0.654329 -4.46053e-20)
(0.624252 0.686724 -9.43822e-20)
(0.583666 0.721657 -2.71333e-20)
(0.53892 0.759029 -7.58876e-20)
(0.488486 0.796372 5.50546e-21)
(0.428916 0.823477 -2.45429e-19)
(0.353385 0.810817 2.65695e-20)
(0.253113 0.692675 -2.99061e-19)
(0.107605 0.358545 5.12695e-20)
(0.786415 0.704093 -2.84748e-21)
(0.752968 0.739422 8.04817e-21)
(0.719299 0.777115 -4.99486e-20)
(0.683703 0.818167 -2.47723e-19)
(0.644399 0.862405 1.12593e-19)
(0.599179 0.906731 2.37166e-21)
(0.543028 0.939091 8.27729e-20)
(0.465072 0.925204 -1.2423e-19)
(0.347748 0.789542 3.64865e-19)
(0.156135 0.407138 2.69689e-19)
(0.889642 0.781066 -6.67755e-20)
(0.858059 0.821125 -1.55144e-19)
(0.827838 0.862544 6.27266e-20)
(0.796552 0.907483 1.01108e-19)
(0.762332 0.956276 3.28335e-19)
(0.722604 1.00529 2.23544e-19)
(0.670476 1.04047 5.82458e-19)
(0.590126 1.02316 2.47749e-19)
(0.453848 0.870132 1.67209e-19)
(0.210427 0.446195 2.11554e-19)
(1.00184 0.834765 -1.09071e-19)
(0.975554 0.879389 5.29294e-19)
(0.952518 0.925282 3.41386e-19)
(0.92852 0.974682 -4.24116e-19)
(0.9009 1.02799 -2.12964e-19)
(0.866799 1.08141 6.27134e-19)
(0.81781 1.1195 -1.08305e-19)
(0.732966 1.09988 -4.06166e-19)
(0.573341 0.932616 -1.60599e-20)
(0.270355 0.475196 2.47055e-19)
(1.11884 0.888342 2.69183e-19)
(1.09302 0.933764 6.06485e-20)
(1.07458 0.980254 -7.33685e-19)
(1.05837 1.0317 1.33941e-19)
(1.04004 1.08786 5.21345e-19)
(1.01474 1.14357 -3.11614e-19)
(0.971146 1.18169 -8.51136e-20)
(0.882412 1.15706 -1.70024e-19)
(0.698079 0.975773 1.72488e-20)
(0.332282 0.492869 -3.11915e-19)
(1.24751 0.908299 2.15898e-20)
(1.23155 0.957829 -5.25241e-19)
(1.22025 1.00573 -4.30413e-21)
(1.20935 1.05851 4.37764e-19)
(1.19648 1.11725 -4.43982e-19)
(1.17689 1.176 8.74664e-19)
(1.13635 1.2154 5.95164e-19)
(1.04106 1.18753 -8.98599e-19)
(0.8282 0.996276 -6.10066e-20)
(0.395203 0.498425 -3.33715e-19)
(1.3494 0.92037 -3.05526e-19)
(1.34411 0.970531 -2.93785e-19)
(1.34962 1.02026 2.92805e-19)
(1.35355 1.0742 7.14483e-19)
(1.35229 1.1329 2.67332e-19)
(1.34142 1.19076 -7.19533e-19)
(1.30478 1.22779 6.8119e-20)
(1.20208 1.19481 1.96925e-19)
(0.958576 0.995658 -2.68897e-19)
(0.456755 0.492653 -2.37936e-19)
(0.940599 0.0145528 1.9205e-21)
(1.0483 0.0345381 -1.8801e-20)
(1.00785 0.0603413 -1.58545e-20)
(1.02535 0.0827231 0)
(1.02651 0.097146 2.24426e-20)
(1.0018 0.116208 3.08888e-20)
(0.97849 0.13378 4.09253e-20)
(0.922068 0.165691 8.69255e-20)
(0.848283 0.212935 -1.25656e-19)
(0.69591 0.267944 -1.81093e-19)
(0.940654 0.0127032 4.01662e-20)
(1.04709 0.0319213 -6.18293e-20)
(1.00674 0.0584073 6.81514e-23)
(1.02535 0.0825548 -2.02619e-20)
(1.02852 0.100507 1.1152e-20)
(1.0063 0.121729 -1.536e-20)
(0.985408 0.146098 -9.62738e-20)
(0.93502 0.184567 0)
(0.862584 0.249372 2.59378e-19)
(0.730074 0.336395 -2.75314e-19)
(0.940419 0.0110578 -3.16712e-20)
(1.04663 0.029461 1.72542e-20)
(1.00594 0.0564711 4.4048e-20)
(1.02615 0.0822139 1.11976e-20)
(1.03088 0.103337 -2.65828e-20)
(1.01218 0.127059 1.29224e-21)
(0.992698 0.157561 -6.6377e-20)
(0.952039 0.203334 -5.65503e-21)
(0.879298 0.284609 5.46832e-23)
(0.778166 0.402261 7.40572e-19)
(0.939921 0.00955641 -3.17515e-20)
(1.04681 0.0271171 2.71005e-21)
(1.00539 0.0545271 3.61211e-20)
(1.02766 0.0817532 2.23877e-20)
(1.03372 0.105593 -1.29788e-20)
(1.01929 0.132323 -1.71457e-20)
(1.00071 0.167936 9.63172e-20)
(0.97273 0.222202 -1.62398e-21)
(0.898716 0.317698 -2.85367e-19)
(0.83965 0.464137 8.74464e-20)
(0.939192 0.00815382 2.24843e-20)
(1.04758 0.0248489 -3.34082e-20)
(1.00509 0.0525718 -2.86502e-20)
(1.0298 0.0811893 1.30102e-20)
(1.03719 0.10726 0)
(1.02736 0.137609 0)
(1.00998 0.176988 8.06709e-20)
(0.996315 0.241566 2.89055e-22)
(0.92165 0.34772 -1.30572e-19)
(0.912836 0.521254 9.72342e-20)
(0.938267 0.00679553 6.14024e-21)
(1.04885 0.022613 2.75536e-20)
(1.00499 0.0506067 -7.5499e-20)
(1.03247 0.0805022 -2.64859e-20)
(1.04143 0.10836 -5.37848e-22)
(1.03611 0.142967 7.08459e-20)
(1.0211 0.184455 1.235e-19)
(1.02211 0.261841 -7.87984e-22)
(0.947857 0.37317 2.14646e-19)
(0.99924 0.57616 -2.21844e-19)
(0.937172 0.00543257 -2.62243e-20)
(1.05058 0.0203692 1.47555e-20)
(1.0051 0.0486369 -1.96242e-20)
(1.03561 0.0796366 -5.51377e-20)
(1.04658 0.108965 1.77055e-21)
(1.04523 0.148298 -1.65982e-21)
(1.0348 0.190334 -7.03294e-21)
(1.04851 0.282507 -2.34513e-19)
(0.981917 0.394205 1.58248e-19)
(1.08616 0.618612 -5.35772e-19)
(0.935886 0.00403635 -3.43861e-21)
(1.05274 0.0180675 -4.36377e-20)
(1.00544 0.0466614 3.96759e-20)
(1.03925 0.0785119 3.03244e-20)
(1.05271 0.109176 9.41416e-22)
(1.05457 0.153373 -8.14837e-20)
(1.05126 0.194742 -6.64919e-20)
(1.07634 0.303439 4.16126e-19)
(1.01737 0.411272 1.42122e-20)
(1.1957 0.674062 8.44422e-19)
(0.934275 0.00260607 1.71442e-20)
(1.05539 0.0156682 2.01421e-20)
(1.0061 0.0446961 4.38807e-20)
(1.04353 0.0770741 -3.30363e-20)
(1.05984 0.109111 -8.67612e-20)
(1.06406 0.157891 1.34557e-21)
(1.07146 0.197151 -9.05349e-20)
(1.10208 0.322683 5.39355e-19)
(1.07316 0.414114 -8.74761e-21)
(1.26959 0.69214 -1.16786e-18)
(0.932041 0.0012617 8.94992e-22)
(1.05875 0.0132537 3.18328e-20)
(1.00714 0.0428832 1.53883e-20)
(1.04864 0.0755497 -6.7055e-20)
(1.06754 0.109597 -8.22642e-20)
(1.07356 0.162088 -6.81728e-20)
(1.09109 0.204828 -1.62844e-19)
(1.12536 0.343445 -4.88613e-19)
(1.12595 0.438244 -2.64037e-19)
(1.40309 0.759592 -1.24464e-18)
(0.928415 -0.00110084 -2.64156e-21)
(1.06338 0.00941426 -7.18783e-21)
(1.00952 0.0386999 -1.64548e-20)
(1.05487 0.0710229 3.32582e-20)
(1.07928 0.105294 5.85675e-20)
(1.08759 0.161843 -4.51615e-20)
(1.12186 0.193797 1.4928e-19)
(1.16539 0.353092 -4.56904e-19)
(1.19546 0.384331 -1.97627e-19)
(1.41273 0.749878 6.67146e-19)
(0.926853 -0.00526698 4.24458e-21)
(1.06775 0.00363637 1.59306e-20)
(1.01557 0.0310718 -9.82897e-21)
(1.0629 0.0623815 6.46754e-20)
(1.09388 0.0965677 9.41827e-20)
(1.10082 0.153079 1.3306e-19)
(1.16384 0.174648 3.2163e-20)
(1.18432 0.341044 2.28221e-19)
(1.28668 0.33492 3.34249e-19)
(1.45016 0.650198 1.55445e-20)
(0.925763 -0.00998637 -3.07012e-21)
(1.07286 -0.00322656 -4.1737e-21)
(1.02346 0.0228644 2.59597e-21)
(1.07293 0.0527391 5.74887e-21)
(1.10689 0.0874152 2.74283e-34)
(1.11785 0.139585 -8.02696e-21)
(1.19504 0.155595 -5.73326e-34)
(1.20372 0.320784 2.02206e-20)
(1.35176 0.275417 -5.77701e-20)
(1.50404 0.560966 -5.69359e-20)
(0.92455 -0.0158392 1.50242e-20)
(1.07942 -0.0117765 -4.68909e-35)
(1.03283 0.0137983 -3.05311e-21)
(1.08448 0.0425078 -2.89019e-20)
(1.11764 0.0771735 -4.25455e-20)
(1.13969 0.123249 -4.42752e-20)
(1.20963 0.137173 -7.11077e-34)
(1.23779 0.292503 -8.99105e-20)
(1.39049 0.218036 -1.55687e-19)
(1.53622 0.474427 9.81964e-20)
(0.923055 -0.0231383 0)
(1.08809 -0.0217801 8.55549e-35)
(1.04421 0.00257747 0)
(1.09701 0.0316366 0)
(1.12721 0.0651606 0)
(1.16242 0.105873 0)
(1.21456 0.11795 -4.54075e-34)
(1.2792 0.255467 0)
(1.41068 0.170774 -2.11914e-20)
(1.5496 0.388316 5.82644e-20)
(0.921295 -0.0317715 4.56771e-21)
(1.0989 -0.0336818 8.5585e-21)
(1.05768 -0.00669918 -4.02249e-21)
(1.11045 0.022597 0)
(1.13678 0.0527413 0)
(1.18197 0.0881507 6.88994e-21)
(1.21848 0.0977444 3.70939e-20)
(1.314 0.211744 -1.51772e-20)
(1.42304 0.133075 -3.12428e-20)
(1.55697 0.305748 2.20959e-19)
(0.920105 -0.0457952 -7.43086e-20)
(1.11271 -0.0513506 -2.48672e-21)
(1.07211 -0.0213515 -4.47718e-21)
(1.1211 0.0110848 -1.55697e-20)
(1.14358 0.0387316 -1.99152e-20)
(1.19516 0.0690004 -1.2067e-20)
(1.22271 0.0772885 -2.96819e-20)
(1.33612 0.16364 -3.4156e-20)
(1.43253 0.10164 -5.90623e-20)
(1.56279 0.228055 7.8813e-20)
(0.922768 -0.0522509 -8.46882e-21)
(1.11996 -0.0601621 -1.76145e-20)
(1.06962 -0.0250336 -4.96146e-21)
(1.11415 0.00687453 -5.30517e-21)
(1.13236 0.0273554 1.35805e-35)
(1.18908 0.0495989 7.41146e-21)
(1.21124 0.0571179 -9.43221e-34)
(1.34152 0.113063 -1.51157e-20)
(1.42329 0.0724049 1.9723e-20)
(1.56624 0.154651 2.71309e-20)
(0.928884 -0.0900175 1.9102e-19)
(1.06734 -0.0883842 -3.23822e-21)
(0.968437 -0.0432044 -5.18849e-21)
(1.00097 -0.00417722 1.17891e-20)
(1.01539 0.0120927 9.25672e-21)
(1.07879 0.0288662 1.65909e-20)
(1.09899 0.0351753 1.23745e-20)
(1.25573 0.0632893 -8.45447e-21)
(1.30378 0.0444797 -2.03696e-20)
(1.4941 0.0857566 1.41046e-19)
(0.818477 -0.0450607 1.02584e-20)
(0.741636 -0.0348954 -9.14982e-35)
(0.547818 -0.0116962 -6.294e-21)
(0.550283 -0.00162564 0)
(0.548392 0.00203865 0)
(0.591468 0.00660453 7.56966e-21)
(0.62147 0.00595291 -7.37271e-36)
(0.73511 0.0128401 -1.49262e-20)
(0.778255 0.00710596 -2.9116e-20)
(0.928012 0.0157813 5.86201e-20)
(1.62037 0.782589 -1.9952e-19)
(1.72291 0.762625 -2.99708e-19)
(1.83762 0.732355 0)
(1.94372 0.686863 1.42392e-19)
(2.04114 0.630198 6.35427e-19)
(2.12507 0.559626 -1.32527e-19)
(2.20261 0.481461 1.74085e-18)
(2.26646 0.393633 -8.42337e-20)
(2.32421 0.302108 -4.0295e-19)
(2.36497 0.20403 3.67642e-19)
(1.65281 0.63662 9.70242e-20)
(1.73026 0.619173 1.20737e-19)
(1.81946 0.591348 -1.08465e-20)
(1.90408 0.548773 2.12469e-19)
(1.98428 0.5002 -1.79538e-19)
(2.05191 0.439485 -4.28463e-19)
(2.11804 0.379183 -1.26998e-19)
(2.17066 0.306974 5.94691e-19)
(2.22514 0.240194 -2.36823e-20)
(2.26002 0.160075 -5.20141e-19)