# Selection   : all
# Cells       : 440
# Volume      : 7.374263e+01
# Time        	minMag(U)
4.715         	5.713025e-03
4.76          	2.877575e-03
4.81          	6.252188e-03
