/*--------------------------------*- C++ -*----------------------------------*\
  =========                 |
  \\      /  F ield         | OpenFOAM: The Open Source CFD Toolbox
   \\    /   O peration     | Website:  https://openfoam.org
    \\  /    A nd           | Version:  13
     \\/     M anipulation  |
\*---------------------------------------------------------------------------*/
FoamFile
{
    format      ascii;
    class       volVectorField;
    location    "0.8";
    object      U;
}
// * * * * * * * * * * * * * * * * * * * * * * * * * * * * * * * * * * * * * //

dimensions      [0 1 -1 0 0 0 0];

internalField   nonuniform List<vector>
1800
(
(-0.00508120881015 -0.0118566177718 -1.97000109644e-16)
(0.54341035395 -0.463713249271 3.15862024737e-17)
(1.05598446719 -0.862281887565 2.03833213649e-18)
(1.33341979714 -1.0468495863 3.59281270052e-18)
(1.44590701894 -1.08574003427 -4.13478871294e-18)
(1.48034168778 -1.05729514375 -2.9379581576e-18)
(1.48390941795 -1.00530700289 1.31749121884e-18)
(1.47621183746 -0.948440026735 8.20833402806e-19)
(1.46516828865 -0.889780458101 -6.99594745735e-20)
(1.43194980258 -0.841636420162 2.28903233747e-18)
(0.0163885560467 -0.029054325466 1.78165040187e-20)
(0.648983530887 -0.468493091036 -5.21027934913e-19)
(1.21703810773 -0.846126513927 -1.65617676739e-19)
(1.51308143179 -1.01549104308 -7.32621868373e-19)
(1.62456077238 -1.04673606556 2.1330160343e-19)
(1.65136875525 -1.01540733319 1.25850687376e-18)
(1.64665225978 -0.962430145491 -7.76992063409e-19)
(1.63221621241 -0.904631094834 5.00076615317e-19)
(1.61573620238 -0.846676156056 8.13971065616e-19)
(1.59185505924 -0.803299184119 -3.83278990439e-19)
(0.0452152533413 -0.0458691336458 -1.01324048315e-20)
(0.761060458591 -0.461406153945 1.02844002634e-19)
(1.37846338526 -0.809141599863 3.5530453766e-19)
(1.68781630413 -0.959738733772 -3.10299903736e-19)
(1.79503737435 -0.983607001511 -1.52441551032e-18)
(1.81229781605 -0.95171414421 3.38576599968e-19)
(1.79754727559 -0.90149501971 5.94955578827e-19)
(1.77368719771 -0.848273460002 -7.75948851701e-20)
(1.74850081553 -0.796469580819 -4.99055454928e-21)
(1.71582821206 -0.755853211778 -3.43394619647e-20)
(0.081516735342 -0.0605829956444 1.18643543294e-20)
(0.877501112144 -0.440456515364 -9.06185045404e-20)
(1.53666744783 -0.750163348483 -2.85129651417e-19)
(1.85404107921 -0.878835039345 7.10589729341e-20)
(1.95478813388 -0.895071845273 3.9436258544e-19)
(1.96236260456 -0.863176707463 3.68091680962e-20)
(1.93847482339 -0.815956074539 -2.42243573607e-20)
(1.90669380224 -0.766441727703 5.46841084036e-19)
(1.87447289708 -0.718422212558 4.51935831442e-19)
(1.83841285923 -0.682244931214 -1.49231239035e-19)
(0.125025628845 -0.0716797676308 8.90759557976e-20)
(0.995628533337 -0.404994516837 1.55497738784e-19)
(1.68730887201 -0.67048340995 -8.38703596753e-20)
(2.00664330122 -0.775741939231 -9.83058816965e-20)
(2.09842511401 -0.785522860669 -1.19210379548e-18)
(2.0959325532 -0.755708093172 1.06365399343e-20)
(2.06338211779 -0.713818439276 9.30183677575e-19)
(2.02439205098 -0.670588438688 3.23288306353e-19)
(1.98603353863 -0.629382425118 2.31890100175e-20)
(1.94606422148 -0.598042754813 -1.99733359356e-19)
(0.174698333833 -0.0773480364793 -8.10947909332e-20)
(1.11185980846 -0.353939676595 1.76458771911e-19)
(1.82588703625 -0.570609223314 1.12152111476e-18)
(2.14128492082 -0.651831841629 -8.21073303975e-19)
(2.22228074252 -0.656369909644 -8.66179319361e-19)
(2.20994891874 -0.629997443075 1.43824395714e-18)
(2.16969857757 -0.594499297138 -1.0387241286e-18)
(2.12453701233 -0.558264843563 -1.14377896382e-18)
(2.08098161272 -0.524036853586 8.30436500882e-19)
(2.03788417855 -0.498406275758 -3.2216894509e-20)
(0.22901920486 -0.0761231528535 -2.46484519732e-20)
(1.22241727489 -0.287421501646 -5.02916515296e-19)
(1.94818893948 -0.452758194305 -2.98738724329e-18)
(2.25412838494 -0.510632370173 1.36400618021e-18)
(2.32304965623 -0.511858155166 2.18853498718e-18)
(2.30158981695 -0.490643189844 -6.3304195872e-21)
(2.25490378593 -0.462927732341 -2.81064975219e-18)
(2.20491432916 -0.434857558682 -2.79488775373e-21)
(2.1574568273 -0.408601173319 2.52104867425e-18)
(2.11193454104 -0.389215252609 6.64047327514e-19)
(0.285780854069 -0.0667644933116 5.98126612493e-20)
(1.3231126227 -0.206015202856 4.36542570598e-19)
(2.05010505061 -0.319324519984 2.30013153515e-18)
(2.34175852144 -0.35543064281 -8.2827891213e-20)
(2.39808949231 -0.355501796228 -1.40956415732e-18)
(2.36861758487 -0.340824095016 -4.34592971271e-19)
(2.31694989162 -0.321819719863 0)
(2.26345607722 -0.30259948499 9.88032272105e-19)
(2.21325081291 -0.284783164525 1.05569475129e-20)
(2.16611939672 -0.272181352421 -8.02501886748e-19)
(0.342289218726 -0.048630675525 8.80520817872e-21)
(1.40998621611 -0.111362005382 8.75929751423e-19)
(2.12821593067 -0.173669875379 2.06936094056e-18)
(2.40177778895 -0.190367680724 -1.99058277762e-18)
(2.44588157639 -0.191651203196 -1.42993966843e-18)
(2.40983919033 -0.184622696671 4.45837511697e-19)
(2.35474812169 -0.175008464564 -1.87834830435e-18)
(2.29916309953 -0.165094328883 -1.27596526803e-18)
(2.24746628601 -0.155987293356 1.51908658531e-18)
(2.19959771152 -0.15033588449 1.29317688435e-18)
(0.395566557811 -0.0218018760078 4.4058505556e-20)
(1.47952914219 -0.0058249626995 6.04009703757e-19)
(2.17958431735 -0.0193796866608 3.89519029924e-19)
(2.43272320014 -0.0197388060339 -2.8966946269e-18)
(2.46566126019 -0.0245533061535 4.04335291609e-20)
(2.42465451652 -0.0257229440278 4.25541715651e-18)
(2.3676492723 -0.0258457231693 -2.2548069088e-18)
(2.31128236912 -0.0254394797928 -1.26795139916e-18)
(2.25926803934 -0.0250950422314 4.12865027146e-19)
(2.21164906431 -0.0263258622372 -9.38334580666e-19)
(-0.00574473845948 0.00288600097803 1.08890956386e-19)
(-0.00413841171572 -0.0904420082156 6.56990384909e-20)
(0.0427394968107 -0.179195143 -1.62676708352e-21)
(0.104414117404 -0.226648888039 -8.81674988085e-21)
(0.170706527379 -0.243168417556 -2.01200008319e-21)
(0.235534786251 -0.243863233421 -4.28238773198e-20)
(0.295994169648 -0.237970380773 1.59000073351e-20)
(0.351389991553 -0.229876092503 -2.80920497781e-20)
(0.401627567129 -0.221429088944 3.18029885471e-21)
(0.449306542476 -0.214572975957 -8.37500288357e-21)
(-0.00789774639989 0.0160319793867 3.50540219293e-20)
(0.00948991798822 -0.135906466687 7.99363615794e-20)
(0.0717145428248 -0.285985300886 -1.02740916097e-19)
(0.141337835287 -0.366020428312 -4.5589900696e-20)
(0.210043765374 -0.392407097526 -7.5969835653e-20)
(0.274590789785 -0.391251109535 -8.09858313308e-20)
(0.333667714281 -0.378721757125 2.96145493723e-20)
(0.387327903132 -0.36251380139 -2.07433039623e-20)
(0.435671216055 -0.345914610237 2.86076994879e-21)
(0.482378508818 -0.333332524587 -8.40919376073e-21)
(-0.0120089820263 0.0272448475876 -4.13285898176e-20)
(0.0310573224586 -0.181239895797 1.72516105447e-19)
(0.118644320903 -0.389382010476 7.11470032788e-20)
(0.201522541469 -0.499813109633 2.71718509649e-19)
(0.274300796803 -0.535051583895 4.95707249643e-20)
(0.338411714986 -0.531739672265 -2.81412325427e-19)
(0.395223039968 -0.512634454488 -3.05486418081e-20)
(0.446023712141 -0.488541480768 8.91576333365e-20)
(0.491258754308 -0.464151235921 -3.59824777266e-20)
(0.536472837024 -0.446010936639 -4.70580064804e-21)
(-0.017449071789 0.0357765625567 -1.13120492545e-19)
(0.0610631393775 -0.226107488975 -2.64400403116e-20)
(0.183364771576 -0.487521737008 3.2065932362e-20)
(0.284314397634 -0.625180142831 -1.34548090696e-19)
(0.362547615504 -0.667836995463 6.92108454873e-20)
(0.425937574774 -0.661975295154 1.89312677264e-19)
(0.479560828294 -0.636418774669 5.29601331113e-20)
(0.526396838341 -0.604789454951 -1.16272175144e-20)
(0.567388446493 -0.573122794529 2.13594459268e-20)
(0.610584640019 -0.549637285934 -2.54337018931e-21)
(-0.0233703341722 0.0409105201914 0)
(0.100115209624 -0.270135536418 8.84993062237e-20)
(0.26554921585 -0.57854377128 2.5774950523e-19)
(0.388673715913 -0.739322678174 -2.7553114331e-19)
(0.473379014618 -0.787588714355 -5.76884004802e-19)
(0.535615878347 -0.778737170089 1.96199557015e-19)
(0.585117572287 -0.746949547515 -2.73853111669e-20)
(0.626947471913 -0.70828789945 -1.00088540643e-19)
(0.662686962331 -0.670023874434 0)
(0.703349767541 -0.641420546993 -8.85509837161e-21)
(-0.0287048154463 0.0420203861135 5.48287120706e-20)
(0.148869632263 -0.312819194016 8.49727520919e-20)
(0.364624982481 -0.660562718741 4.19643679461e-20)
(0.513087872885 -0.839532712122 2.41729581906e-19)
(0.604807555411 -0.89131382699 -1.91417032839e-19)
(0.665298649614 -0.879055591472 -2.92179457088e-19)
(0.709769292458 -0.841409494139 5.10653828672e-19)
(0.745666178956 -0.796399375512 5.48583529705e-20)
(0.775365785484 -0.752368260169 -3.02690276632e-19)
(0.812951540798 -0.718828292656 -7.08181630841e-21)
(-0.0321957390269 0.0386948608563 -3.39831467551e-21)
(0.207928339909 -0.353402458506 7.31619469449e-21)
(0.479661705172 -0.731640489901 1.32491082321e-19)
(0.655468110386 -0.923281508041 2.61414529274e-20)
(0.754181917253 -0.976369154883 3.22340824925e-19)
(0.812169296656 -0.960432430666 -4.02938983225e-19)
(0.850758721111 -0.917545325677 -4.07304243703e-19)
(0.879968314996 -0.867136657416 -3.43060842031e-19)
(0.90313027737 -0.818300896922 2.52277466703e-19)
(0.936857419728 -0.779831384009 2.74236459536e-19)
(-0.0325236211911 0.0308916197324 -1.28231747287e-19)
(0.277566616699 -0.390742009125 6.1250038124e-20)
(0.609074969262 -0.789774393434 2.98227011186e-19)
(0.812901905636 -0.988314596126 -1.77411802029e-19)
(0.917978509928 -1.04065088491 3.35833975687e-19)
(0.972571716143 -1.0211507548 7.93225965724e-19)
(1.00455495206 -0.97412892951 5.46830908605e-19)
(1.02653553443 -0.919845525454 -4.30529768808e-19)
(1.04300495596 -0.867470162264 -2.05035763814e-19)
(1.07105705712 -0.823903997962 2.96481396231e-19)
(-0.0286133371626 0.0191380730438 -1.79367725561e-19)
(0.357280631977 -0.423113547373 -2.81348572844e-19)
(0.750140415306 -0.832672826116 6.7452054985e-19)
(0.98107440626 -1.03234318536 7.62671622344e-19)
(1.09103191556 -1.08214692028 -7.50501271189e-19)
(1.14095077878 -1.05961507131 8.2467054453e-19)
(1.16544851172 -1.01015451336 1.38029093819e-19)
(1.17957643469 -0.954287147328 -9.93909877777e-19)
(1.18925464106 -0.90002532431 -2.45488125351e-19)
(1.20704707866 -0.851557340298 3.35974236647e-19)
(-0.0197434927709 0.00451007625392 8.94735124147e-20)
(0.446030477855 -0.448188569474 -3.06313624448e-19)
(0.899676738257 -0.857636246045 -4.47605477002e-19)
(1.15525133818 -1.05262078 7.71925405494e-19)
(1.26755404912 -1.09798431957 6.07606819443e-19)
(1.31049426668 -1.07270773834 -7.45289768082e-19)
(1.32526473212 -1.02206078129 -6.15016767209e-19)
(1.32937717941 -0.966152003387 3.6645280954e-19)
(1.33025964434 -0.910467012916 -3.84651753695e-19)
(1.32851144547 -0.859117311909 -2.28624707746e-19)
(0.620902489811 -0.174242132942 3.88477428414e-20)
(0.799721457674 -0.133040265743 -7.72205714477e-20)
(0.888052684196 -0.103924138088 5.69606828872e-21)
(0.939050324117 -0.0812341117297 1.33055801859e-20)
(0.969017232595 -0.0629315819136 -6.28631066342e-21)
(0.986734598445 -0.0479627936872 -3.16276424786e-21)
(0.997605834129 -0.0356837640416 -4.83894851545e-21)
(1.00443842785 -0.0254678563194 -3.15636984603e-21)
(1.00856181738 -0.0173525680562 7.92042132117e-21)
(1.01134834615 -0.00714917374307 2.95778990335e-21)
(0.638675945045 -0.247944652303 1.05843297784e-19)
(0.811577439074 -0.172737198377 1.69046251994e-20)
(0.896523303335 -0.125478822667 4.62419834177e-21)
(0.945476861736 -0.0931981222335 -7.74349101401e-21)
(0.974079592641 -0.0698740813823 -1.72973839338e-20)
(0.990802037208 -0.0521102821956 0)
(1.00090659811 -0.0382087523528 -5.06883806209e-21)
(1.00715102695 -0.0270081347196 3.90130933423e-21)
(1.01088206589 -0.0182881106404 4.78783011111e-22)
(1.01332702061 -0.00751307034692 -3.61162677101e-21)
(0.66693909542 -0.319148482702 -6.07038209625e-20)
(0.828575106107 -0.21152721366 -4.18618536611e-20)
(0.90778421784 -0.146728891301 1.88383683198e-20)
(0.953365411955 -0.105027858126 -9.25496468499e-21)
(0.979925631648 -0.0767047369721 -3.9303804328e-21)
(0.995323927046 -0.0561533349441 6.2378216641e-21)
(1.00447991066 -0.0406379331938 0)
(1.01004026307 -0.0284667138875 0)
(1.01330921128 -0.0191580471338 -2.18886603785e-21)
(1.01537641142 -0.00784673726862 0)
(0.705776163893 -0.386467095788 -3.32127085643e-20)
(0.850485648517 -0.248826730256 7.90905149019e-20)
(0.921760577721 -0.167404749123 8.67947326534e-21)
(0.962701380912 -0.116596044663 0)
(0.986552939697 -0.0833510651813 2.33480249349e-20)
(1.00029006019 -0.0600484279899 -3.6214372547e-21)
(1.00831950021 -0.0429443505939 0)
(1.01309343767 -0.0298266215901 4.43930438173e-21)
(1.01585229264 -0.0199517717526 0)
(1.01752021557 -0.00814582231994 6.23419857124e-22)
(0.755269918149 -0.448548755916 -3.03970071015e-20)
(0.877042347115 -0.284102827363 1.05676689565e-19)
(0.9383398798 -0.187245906 -4.69017890219e-21)
(0.973454134469 -0.127779299196 0)
(0.993949024425 -0.0897449047414 5.20961481386e-21)
(1.00569065766 -0.0637538521736 7.13577864286e-21)
(1.01241059104 -0.0451013762738 5.99044936425e-21)
(1.01630082709 -0.0310707977253 1.09365693199e-21)
(1.01849023996 -0.0206582904854 -2.24128918206e-21)
(1.0197169577 -0.00840599967478 2.69913793713e-21)
(0.815239991703 -0.504020960841 -6.84239221577e-19)
(0.907912785553 -0.316883717256 -1.88140169171e-19)
(0.957370612431 -0.206044128156 1.88402792841e-21)
(0.985576821383 -0.13846541494 3.3927171514e-20)
(1.00210016125 -0.0958250212537 -8.1114800073e-21)
(1.01150510655 -0.0672306336241 5.10418254253e-21)
(1.01673527376 -0.0470834028829 5.24729323983e-21)
(1.01963094034 -0.0321820311125 -9.49228257884e-21)
(1.02120043387 -0.021266723114 -2.10882344728e-22)
(1.02198023805 -0.00862294251977 1.31692088424e-22)
(0.884785227628 -0.551313010779 -1.99427331803e-20)
(0.94234615094 -0.34628893543 7.22577076838e-20)
(0.978528522429 -0.223570368929 3.69762743473e-21)
(0.998974634124 -0.148553333832 -9.49934222044e-22)
(1.0109658706 -0.101538923721 -2.48394446617e-20)
(1.01772093611 -0.0704454632321 5.37056043222e-21)
(1.02129547834 -0.0488673599684 -3.5742346568e-21)
(1.02308712461 -0.0331444715262 -4.29574387134e-21)
(1.02398007207 -0.0217666534535 1.11118253653e-21)
(1.02425243017 -0.00879250445273 -1.87071170493e-21)
(0.962588530892 -0.589626568381 3.00609517554e-19)
(0.97864815276 -0.37183101655 8.26968043033e-20)
(1.00073800245 -0.23946813706 0)
(1.01325789688 -0.15783998949 -4.34395504733e-22)
(1.02040887135 -0.106790711851 1.9777550416e-20)
(1.02426445295 -0.0733519517228 1.14082630354e-21)
(1.0260136471 -0.0504290118286 -1.56704627689e-20)
(1.0266460653 -0.0339433726237 4.37262572371e-21)
(1.02679967204 -0.0221492403274 -4.15646525108e-23)
(1.02657236297 -0.00891209386867 -3.12732276299e-22)
(1.0510315424 -0.621975261526 -4.36772515896e-19)
(1.01679221144 -0.396882651008 -2.18423365569e-19)
(1.02268956563 -0.255446769021 5.19174686222e-20)
(1.02746069437 -0.166994722454 -1.87920761252e-22)
(1.02992382648 -0.111796731622 -2.31422624224e-21)
(1.03090707941 -0.0760016589623 -1.50856595455e-20)
(1.03082210579 -0.0517700156585 3.96570650987e-21)
(1.0302446032 -0.0345698110387 5.30005200703e-22)
(1.02963433791 -0.0224063242706 -3.22452561479e-21)
(1.02888617548 -0.00898072987944 -2.78331202232e-21)
(1.15606362376 -0.645500497883 3.04324353052e-19)
(1.06732362957 -0.418033451995 -2.19839309257e-19)
(1.04842748768 -0.272091168962 -3.98622399304e-20)
(1.04263644176 -0.177199609708 -4.18568280737e-20)
(1.03965836449 -0.117403435498 -2.36891608181e-20)
(1.03758841764 -0.0788669285525 -1.15964589431e-20)
(1.03564909725 -0.0531169418219 -5.59441602857e-21)
(1.03384689255 -0.0351163519798 0)
(1.03245847886 -0.0225707111749 -3.97219583808e-22)
(1.0312017541 -0.00899233474105 2.07798310925e-21)
(1.31099620691 -0.631909590057 5.08634149505e-19)
(1.16724348052 -0.418516547174 1.64153179246e-19)
(1.1044333389 -0.273905774076 -1.12343838151e-19)
(1.0747106745 -0.178907596026 7.27567212618e-21)
(1.05854529425 -0.118356536703 9.08567073045e-21)
(1.04923691879 -0.0791507906132 -5.27113402074e-21)
(1.04321644741 -0.053000108437 3.10885177149e-22)
(1.03902127593 -0.034832707529 4.54086564689e-21)
(1.03625294296 -0.0222653210547 -3.16371299273e-21)
(1.03417954251 -0.00885322158407 8.99526349263e-23)
(1.36355381914 -0.518766245941 -1.31916757652e-20)
(1.20216922596 -0.357291719672 1.55749791738e-19)
(1.13354138995 -0.242766251804 1.17438652716e-19)
(1.09760746413 -0.16379475136 -1.40421777271e-20)
(1.07489536546 -0.110408330949 5.51055727791e-20)
(1.060556556 -0.0745166492677 3.58278128058e-20)
(1.05110378438 -0.050091759604 2.45372519135e-20)
(1.0446557531 -0.0329688156211 -2.42140738432e-21)
(1.04049796133 -0.0210876249457 8.59291562727e-21)
(1.03752312124 -0.00837775491689 3.85530712245e-21)
(1.42142672452 -0.444997206903 -1.41208420939e-19)
(1.25317452198 -0.318305417254 -1.07720875748e-20)
(1.16890355079 -0.220240255926 5.72509877804e-21)
(1.12164095697 -0.150564205235 4.22499767785e-37)
(1.09113502977 -0.102252238869 8.19733204333e-22)
(1.07155683546 -0.069243708504 -9.83547989603e-35)
(1.05867893511 -0.0465878503713 -2.93610961374e-21)
(1.05002073584 -0.0306509659517 -2.13925880119e-34)
(1.04454191233 -0.0195949943547 8.55280428188e-22)
(1.0406587327 -0.00778132396876 -2.54643129984e-21)
(1.45724477999 -0.366357682 -2.00978247776e-34)
(1.28977202713 -0.27146113335 -4.10012788553e-20)
(1.19732446734 -0.192241486245 -4.1327204751e-20)
(1.14217356038 -0.133661208536 0)
(1.10553057995 -0.0916855056646 -2.32851774642e-20)
(1.08151368053 -0.0623968577616 -1.6003717458e-20)
(1.06560480588 -0.042064307313 -9.30321124147e-21)
(1.05495597816 -0.0276858818119 -2.63544429386e-34)
(1.0482341073 -0.0177028364813 -2.8648733999e-21)
(1.04350892475 -0.00703166555626 2.41737726539e-21)
(1.48001425167 -0.294978959888 -8.77021472552e-20)
(1.3178112151 -0.225559968616 4.53974403456e-21)
(1.22055291219 -0.162803958498 0)
(1.15949203313 -0.114725312711 0)
(1.11799018472 -0.0793753641456 0)
(1.09023254221 -0.0542736013462 0)
(1.07172648255 -0.0366679655645 -5.77264068151e-22)
(1.05933114577 -0.0241518287316 -2.94677195817e-34)
(1.0515199613 -0.0154524986611 7.55040839227e-22)
(1.04604522405 -0.00614163286859 2.89232131665e-34)
(1.49399016062 -0.229230701202 -3.72630193031e-20)
(1.33865765355 -0.180023923073 0)
(1.23886845655 -0.132122624477 0)
(1.17359058745 -0.0941785193422 0)
(1.12832057749 -0.0656558169613 0)
(1.09758649251 -0.0450893133117 0)
(1.076933623 -0.0305300545609 9.69842151277e-22)
(1.06306057268 -0.0201272520787 5.74626910126e-21)
(1.05432457025 -0.0128883626925 7.09901840515e-22)
(1.04819594076 -0.00512670721993 3.22396297176e-21)
(1.50209912241 -0.16855582903 0)
(1.35347325912 -0.135338895052 -1.307487259e-20)
(1.25265331635 -0.100700811247 -1.67751121458e-20)
(1.18449178539 -0.0724645283184 0)
(1.13644859818 -0.0508454310415 -1.07776832125e-20)
(1.10344668109 -0.0350546260188 -7.69826690083e-21)
(1.08109777224 -0.0237856742239 -4.38911750205e-21)
(1.066057196 -0.0156963013457 -3.36780561307e-21)
(1.05657439624 -0.0100603320887 4.50676102723e-21)
(1.04989854659 -0.00400561014876 1.40582575106e-21)
(1.50536285267 -0.111821449784 9.13539311807e-21)
(1.36216507926 -0.0914647851816 7.07532901441e-21)
(1.26128017382 -0.0686881488625 -4.01044168226e-21)
(1.19144159905 -0.0497767503731 2.92329967552e-36)
(1.14164208611 -0.0351004386881 5.96949458828e-22)
(1.1070975596 -0.0242749624016 -6.13672384473e-35)
(1.08360367128 -0.0165003137271 7.38611288464e-22)
(1.067736904 -0.0108978069908 3.16449863783e-21)
(1.05772064474 -0.00698558592183 5.86796091022e-22)
(1.05065496158 -0.00277727369459 -1.96831017898e-21)
(1.4843325488 -0.0557304422573 -4.50839576215e-20)
(1.3450837892 -0.05061154151 1.22272791529e-20)
(1.24677970353 -0.0391750667643 1.30880890951e-20)
(1.17801547223 -0.0287586321334 0)
(1.12864456527 -0.0204127736378 7.7587779005e-21)
(1.09423003537 -0.0141660305166 5.49515937097e-21)
(1.07069352622 -0.00964711140839 4.38451237251e-21)
(1.0548112453 -0.00637864189861 2.43051774489e-21)
(1.04477324885 -0.00409035692158 -2.29171734747e-21)
(1.03767999449 -0.00162304242908 2.41004077021e-21)
(1.11112789981 -0.00315203498134 0)
(1.02272972202 -0.00701685071803 0)
(0.953988527757 -0.00624494207718 0)
(0.904058763097 -0.00476455509441 0)
(0.867596111551 -0.00342668591833 0)
(0.841962386486 -0.00240022210459 0)
(0.824342077741 -0.00164527499901 5.74340021703e-22)
(0.812383758246 -0.00109739924102 -3.6107029714e-36)
(0.804786287143 -0.000690615679536 5.8057742776e-22)
(0.79943191723 -0.000262475846271 1.80606199459e-21)
(2.12711347906 -0.026169189355 8.63992335021e-19)
(2.1176327269 -0.132659969287 5.99521558566e-20)
(2.09033866055 -0.23692763089 -1.30093820027e-19)
(2.04536687458 -0.336780839079 -3.3752394868e-19)
(1.98486054735 -0.430123273231 -1.19889279843e-19)
(1.90728058119 -0.516722184495 -1.76186266798e-19)
(1.82405205879 -0.587274227458 -4.09713280942e-19)
(1.71142541463 -0.664085756043 1.33181853299e-19)
(1.63424093586 -0.683582260488 0)
(1.4680021641 -0.77230621799 3.37612826554e-20)
(2.04090036456 -0.0192006228102 2.13738527376e-19)
(2.03310629884 -0.0988561170772 -3.34297541268e-19)
(2.01216864521 -0.177557540926 8.7730307756e-22)
(1.97679845417 -0.254328010688 -1.32697976064e-19)
(1.93238300825 -0.325998055699 1.3404066367e-20)
(1.86939699517 -0.398243150418 1.14778443585e-19)
(1.81258393363 -0.448486694759 3.49022139477e-20)
(1.71808402714 -0.528812464232 9.85635989615e-20)
(1.66666774609 -0.529144548286 -1.20111747072e-19)
(1.5494558964 -0.624286637938 2.18114555433e-20)
(1.9670566726 -0.014263412446 -1.14073185458e-19)
(1.96118697762 -0.0775471605415 2.03887411644e-19)
(1.94510417805 -0.139676626704 1.89520900323e-19)
(1.9167731495 -0.20062058364 -2.19509472677e-19)
(1.88242685959 -0.25656746773 1.0852787117e-19)
(1.83146440204 -0.316077399411 1.02830863363e-19)
(1.78754053187 -0.353222723404 -7.06482321428e-20)
(1.71384324673 -0.424672957877 8.3540634408e-20)
(1.66768486345 -0.422382583201 8.40687286684e-20)
(1.58219683893 -0.50648328382 1.07938961777e-19)
(1.91031394639 -0.0131759255541 -1.84899527507e-19)
(1.90563144702 -0.0616821219875 5.42168100864e-20)
(1.89226392598 -0.109446873606 -1.15431880929e-19)
(1.86873754056 -0.156954686742 -6.80308860224e-20)
(1.84001131843 -0.200483324784 4.15757974562e-20)
(1.79840720331 -0.248336132679 -1.03877114787e-19)
(1.76040374703 -0.277596846357 7.34491486942e-20)
(1.70305284255 -0.336271554847 3.05567521525e-20)
(1.6600143585 -0.335986277066 -1.77065984159e-20)
(1.59586211003 -0.404424306315 8.25101914981e-21)
(1.86602599135 -0.0112391512731 5.58824499556e-20)
(1.86216685571 -0.0482128153429 4.22427584178e-20)
(1.85066943517 -0.0845932854761 -6.52620610315e-20)
(1.83073208849 -0.120948223902 2.29696056856e-19)
(1.80557040351 -0.154319056308 1.7910875788e-20)
(1.77098597016 -0.191335389059 -1.30260433351e-19)
(1.73668517129 -0.21452986072 1.95887942257e-20)
(1.69085165302 -0.259812367394 -8.53692012225e-20)
(1.65116613052 -0.261728031936 1.17335221051e-19)
(1.60033148652 -0.314442095537 8.53224822802e-20)
(1.83247108054 -0.0105738878249 -9.98969080692e-20)
(1.82928259557 -0.0376563909002 -5.75631881633e-20)
(1.81909575467 -0.0643132393194 3.82672623716e-20)
(1.80165253832 -0.0910615992481 7.86044454134e-20)
(1.77884941186 -0.115824502337 3.00960820351e-20)
(1.74910044951 -0.143307373312 -3.90726224345e-20)
(1.71734780793 -0.161338485491 3.0236790335e-21)
(1.67890187997 -0.194855082382 5.81616553701e-20)
(1.64203916783 -0.198224645936 1.092537095e-19)
(1.59915426979 -0.237409678204 -5.29389758782e-20)
(1.80799141956 -0.0103422545215 -4.28200634942e-20)
(1.80539804394 -0.0288664842366 -7.74511974733e-20)
(1.79618313492 -0.0470724212215 -4.5563886315e-20)
(1.78049537724 -0.0654243974384 -9.46440264942e-20)
(1.75933163629 -0.0826229484394 -2.50812629647e-20)
(1.73271179314 -0.101803880569 -7.5360825863e-21)
(1.70270072079 -0.115000105041 4.82264007189e-20)
(1.66872350462 -0.138676168095 -1.91612090091e-20)
(1.63403360645 -0.142417006264 -3.05011232754e-20)
(1.59566285571 -0.170514949127 1.19668626951e-20)
(1.78734865814 -0.0100425634561 3.34346955291e-20)
(1.78584002298 -0.0208771192909 3.59119248607e-20)
(1.77800466991 -0.0314281519163 1.25334837068e-20)
(1.76420821541 -0.0420573509918 -2.1710048561e-20)
(1.74482069973 -0.0521508751278 -1.73918937289e-20)
(1.72071875604 -0.0637886157841 3.85296036324e-20)
(1.69228407227 -0.0720599966658 -5.37376413937e-22)
(1.66106268026 -0.0875042827281 -5.07829020279e-20)
(1.62790748727 -0.0903969448756 1.21893451863e-20)
(1.59190818597 -0.110312102163 4.98264954052e-20)
(1.71467671369 -0.0142133585906 -2.13336200815e-20)
(1.71470457933 -0.0167257795295 6.27405188176e-21)
(1.71100724824 -0.018900997472 3.57705554388e-20)
(1.70316929515 -0.0211186410852 3.92551781716e-21)
(1.69073891434 -0.0231080636428 -7.89094232759e-22)
(1.67467935675 -0.0264881563038 -1.09022328693e-20)
(1.65357936703 -0.0280605318685 2.24183596986e-20)
(1.63084909918 -0.0353384913974 -3.12554103799e-20)
(1.60220665147 -0.0350933870415 3.55521643905e-20)
(1.57560161292 -0.0471216314396 1.1909571438e-19)
(1.12428507856 -0.00839427250176 2.90526733253e-20)
(1.11636908717 -0.00554926078707 1.79813775247e-20)
(1.11149105726 -0.00272969552835 1.42030570479e-20)
(1.11001920468 -4.55925629578e-05 1.46637214687e-20)
(1.11106484295 0.00245393528382 -7.15815038012e-22)
(1.1153259022 0.00449210779305 6.53181255663e-21)
(1.11865292938 0.00659477278132 -9.85947665359e-21)
(1.12789610542 0.00640078714196 3.17042804649e-21)
(1.12568982604 0.00944384696543 -5.00505182111e-21)
(1.1426738313 0.00475686216793 5.59299023721e-21)
(1.3831346354 0.75089333779 -5.56883596456e-20)
(1.36703517541 0.802378315577 2.34552846612e-20)
(1.37178241525 0.858505336541 -4.84661377007e-19)
(1.38234235583 0.92113951216 2.07512881023e-19)
(1.39266986253 0.988244193357 9.11298625089e-19)
(1.3988418323 1.05674593659 -1.32197096276e-19)
(1.38370357146 1.11359635243 -8.80199632461e-19)
(1.28716040325 1.10227974686 -2.03624313508e-20)
(0.984095495981 0.886698352766 -4.17900941593e-19)
(0.398328524427 0.35872092211 1.69675862413e-19)
(1.54867339118 0.724749638923 0)
(1.54063071816 0.774234611787 5.5940870426e-19)
(1.54117103807 0.826632625357 1.26710201727e-18)
(1.54870111752 0.88720530831 -7.70568510767e-19)
(1.56051383884 0.953807921654 -1.84390397905e-18)
(1.57093443783 1.02268856508 -1.3854724557e-19)
(1.55863843434 1.08000376826 -1.78803364504e-19)
(1.45322418226 1.06912474191 6.60386871443e-19)
(1.10949163529 0.856763896282 8.53016071501e-19)
(0.443731597672 0.339878275509 3.54600224333e-19)
(1.68798049847 0.703064538659 6.30181890613e-20)
(1.69269716108 0.749020525938 0)
(1.69856100912 0.797234578905 -6.48666728593e-20)
(1.70972766449 0.852488448099 7.79087295228e-19)
(1.72575518928 0.913865459846 5.20644353301e-20)
(1.74079649343 0.978283173792 -1.91793595365e-18)
(1.73064685415 1.0318038845 1.25064545785e-18)
(1.61498806191 1.01885222056 7.95250382105e-19)
(1.22923712961 0.811960647869 -7.67164155767e-19)
(0.484599051268 0.31431086099 -2.76766942427e-19)
(1.80075034408 0.66778691332 -1.27809271014e-19)
(1.81697397806 0.70932099597 -1.00403227695e-19)
(1.8331343581 0.753143501683 2.27568560195e-19)
(1.85321088277 0.802894972248 -2.86435452895e-19)
(1.87717280343 0.858366609175 -1.37516821817e-18)
(1.89903040422 0.916970094204 -1.08051862546e-18)
(1.89174732158 0.964865792711 1.2062703121e-18)
(1.76518222454 0.948581200335 8.19132866513e-19)
(1.33654048921 0.749949790938 0)
(0.516331701186 0.280427143139 0)
(1.89681026757 0.610090772539 -7.82248292947e-19)
(1.92248252171 0.6474152943 -1.39633001724e-18)
(1.94907648021 0.687081771055 -5.52971549281e-19)
(1.97912792107 0.73167557267 -3.28994566085e-20)
(2.01221345938 0.781247987852 0)
(2.04174022924 0.833496796801 1.38580256282e-19)
(2.03722996123 0.874876724947 1.6496214191e-19)
(1.89845974113 0.855171627267 2.13549547104e-19)
(1.42619331083 0.669318682303 -3.23242242039e-19)
(0.535591175308 0.238657512507 -8.04487123595e-20)
(1.98326416901 0.531424025918 9.5332402451e-19)
(2.01607090059 0.56461250313 -4.05539427968e-20)
(2.05108771341 0.599958780101 -1.14225917895e-18)
(2.08977084458 0.639213675634 0)
(2.13112128532 0.682500839731 0)
(2.16740593414 0.727760371615 0)
(2.16416201466 0.76192737566 1.53478369906e-18)
(2.01105341554 0.73928699232 -1.87662851956e-18)
(1.49499266663 0.572173589415 -1.07197886224e-18)
(0.540777489572 0.191675937758 -8.89829049617e-20)
(2.06023471993 0.437002335053 -1.28206870193e-18)
(2.0981804831 0.465424852041 -2.71099639455e-18)
(2.1395398161 0.495550521455 -4.78906993778e-21)
(2.18496914254 0.528635203096 5.68094943635e-19)
(2.23292123863 0.5648392995 -3.98251905856e-20)
(2.27419930961 0.602282525927 1.30893293966e-18)
(2.26986564962 0.629036073942 -7.76009707222e-19)
(2.10041772294 0.60409139452 -2.37879918512e-18)
(1.54015442395 0.462864818244 1.77672023741e-19)
(0.532158890481 0.143622201226 1.21843157054e-19)
(2.12430131964 0.331244107216 -1.0355333846e-18)
(2.16613137075 0.353803332613 1.51364471114e-20)
(2.21218538674 0.377502743851 4.10434032638e-19)
(2.26263203505 0.4033819011 -4.06998318241e-19)
(2.31541981118 0.431611691359 6.50468445086e-19)
(2.35977260877 0.460630285743 1.85801812697e-18)
(2.35216057236 0.479260534255 -2.17432024897e-19)
(2.16267696512 0.455305500652 -1.38623651871e-18)
(1.56054575402 0.347605618713 2.72572738416e-19)
(0.511908971761 0.0968474715636 1.25023938205e-20)
(2.17195802748 0.217140482227 4.00959922894e-19)
(2.21679265535 0.232965077492 7.63596562939e-20)
(2.26625973983 0.249223140046 -4.34444027949e-19)
(2.32018048185 0.266939240387 -1.05273772211e-18)
(2.37612078648 0.28621494381 8.61975404576e-20)
(2.42150540452 0.305895785742 8.4872454265e-20)
(2.40807680597 0.319393589477 -1.69353145793e-18)
(2.19641558526 0.298244373602 7.87473836492e-19)
(1.55664696894 0.227714918299 1.95902572395e-19)
(0.481843943586 0.0533666283913 -1.2063573259e-19)
(2.2016866644 0.0969315378981 7.88253800164e-19)