# Selection   : all
# Cells       : 440
# Volume      : 7.374263e+01
# Time        	minMag(U)
0             	0.000000e+00
0.05          	7.175060e-02
0.1           	5.053494e-02
0.15          	3.411727e-02
0.2           	2.162807e-02
