# Selection   : all
# Cells       : 1800
# Volume      : 7.372328e+01
# Time        	minMag(U)
0.55          	5.454589e-03
0.575         	3.700752e-03
0.6           	3.140255e-03
