/*--------------------------------*- C++ -*----------------------------------*\
  =========                 |
  \\      /  F ield         | OpenFOAM: The Open Source CFD Toolbox
   \\    /   O peration     | Website:  https://openfoam.org
    \\  /    A nd           | Version:  13
     \\/     M anipulation  |
\*---------------------------------------------------------------------------*/
FoamFile
{
    format      ascii;
    class       volVectorField;
    location    "3.6";
    object      U;
}
// * * * * * * * * * * * * * * * * * * * * * * * * * * * * * * * * * * * * * //

dimensions      [0 1 -1 0 0 0 0];

internalField   nonuniform List<vector> 
1800
(
(-0.0318989 0.0252637 1.3065e-20)
(-0.0770885 0.0429711 5.80411e-21)
(-0.10083 0.0475934 -1.89077e-20)
(-0.0999732 0.0471479 3.74804e-20)
(-0.0688477 0.0462594 1.30405e-19)
(-0.0025132 0.0468661 6.83721e-20)
(0.101816 0.0502451 -3.64372e-20)
(0.241062 0.0556878 -3.80042e-20)
(0.426752 0.0924653 8.68782e-20)
(0.513866 0.130371 1.01942e-19)
(-0.0462785 0.0347245 1.00113e-20)
(-0.0886274 0.0598472 -2.26725e-20)
(-0.0854717 0.0620822 2.4336e-22)
(-0.0371968 0.0513588 -4.93179e-20)
(0.0592 0.0343593 2.06455e-20)
(0.205403 0.0146938 1.29339e-19)
(0.399736 -0.00503687 -8.04134e-20)
(0.632718 -0.0266913 4.8545e-20)
(0.912889 -0.0247874 -1.18071e-19)
(1.07539 -0.0253685 1.30403e-19)
(-0.0502163 0.0334633 3.52449e-21)
(-0.0743541 0.0555882 1.29186e-20)
(-0.0288248 0.0539624 -8.44248e-22)
(0.0835328 0.0377163 -9.83252e-21)
(0.261459 0.0145209 -1.16775e-19)
(0.498308 -0.0103724 2.50856e-20)
(0.779702 -0.0329641 5.35602e-20)
(1.08518 -0.0512165 -2.07925e-20)
(1.39698 -0.0603325 -1.06624e-22)
(1.66107 -0.0785703 -2.39621e-21)
(-0.0447396 0.0255601 -7.16179e-21)
(-0.0322183 0.0344752 -2.28189e-20)
(0.0763133 0.0241756 -2.27937e-20)
(0.273861 0.00301298 2.21786e-20)
(0.548417 -0.0210861 1.93347e-20)
(0.876467 -0.0422136 8.66084e-21)
(1.22569 -0.0572489 -2.69503e-21)
(1.56335 -0.0652281 7.48444e-20)
(1.86528 -0.0685513 6.60127e-20)
(2.10536 -0.0710594 -2.72076e-20)
(-0.0294542 0.0150546 5.59278e-20)
(0.043322 0.00833909 5.20947e-20)
(0.239128 -0.00936274 -3.61763e-20)
(0.538819 -0.0294217 -4.45485e-20)
(0.907935 -0.0444683 -1.11932e-19)
(1.29871 -0.0513823 1.85342e-21)
(1.66457 -0.0508902 1.46701e-19)
(1.97288 -0.0459662 7.51792e-20)
(2.20685 -0.0393769 2.69544e-21)
(2.37482 -0.0399952 -7.14486e-20)
(-0.000361371 0.00298744 -5.62022e-20)
(0.160088 -0.0164466 -1.12062e-20)
(0.463939 -0.0342746 1.87247e-19)
(0.866202 -0.0428979 -4.77466e-20)
(1.3005 -0.040097 -1.25019e-19)
(1.70124 -0.029032 2.54164e-19)
(2.02563 -0.0149799 -2.77629e-19)
(2.25878 -0.00240959 -3.91824e-19)
(2.40947 0.00591982 3.35829e-19)
(2.49386 0.00902408 7.87062e-22)
(0.0460948 -0.00861493 6.38514e-20)
(0.319957 -0.0324199 -1.3481e-19)
(0.738343 -0.0387886 -4.45022e-19)
(1.2181 -0.0261749 2.10956e-19)
(1.66709 -0.00251299 4.74599e-19)
(2.02483 0.0227084 -1.8866e-21)
(2.27353 0.0431693 -1.05792e-18)
(2.42627 0.0563809 3.49316e-21)
(2.50845 0.0636287 1.31603e-18)
(2.54739 0.0623589 3.65965e-19)
(0.110945 -0.0161904 6.34045e-20)
(0.515286 -0.0309441 3.33859e-19)
(1.03438 -0.0138772 3.61681e-19)
(1.54841 0.0240285 -1.16057e-19)
(1.96505 0.0641348 -4.46438e-19)
(2.25288 0.0955826 -1.70966e-19)
(2.42589 0.115523 0)
(2.51622 0.125587 5.61182e-19)
(2.55555 0.128493 -8.16286e-21)
(2.56504 0.125633 -5.40533e-19)
(0.191529 -0.0156214 5.72911e-20)
(0.728968 -0.00491115 3.37054e-19)
(1.31805 0.0440662 6.28973e-19)
(1.82409 0.104558 -6.52502e-19)
(2.18262 0.153443 -5.72439e-19)
(2.39897 0.184456 2.38309e-19)
(2.51037 0.200035 -1.15013e-18)
(2.5568 0.204954 -8.67381e-19)
(2.56767 0.203623 1.07969e-18)
(2.55985 0.196507 9.42649e-19)
(0.282004 -0.00334009 -4.84929e-20)
(0.939494 0.0488583 2.65428e-19)
(1.56272 0.132487 1.6971e-19)
(2.03288 0.209104 -1.35912e-18)
(2.32693 0.259693 5.00975e-20)
(2.48126 0.285514 2.78343e-18)
(2.54645 0.293969 -1.62149e-18)
(2.56359 0.292311 -9.62702e-19)
(2.55773 0.28521 3.38462e-19)
(2.53982 0.274026 -7.77468e-19)
(-0.0121665 0.157178 6.1705e-20)
(-0.0638714 0.345061 -8.48403e-20)
(-0.131528 0.436255 1.31205e-21)
(-0.205542 0.470466 -9.42577e-21)
(-0.278348 0.478779 3.42454e-21)
(-0.348075 0.477476 2.06407e-19)
(-0.413923 0.472348 1.05275e-19)
(-0.475576 0.464695 -3.0666e-19)
(-0.535508 0.454826 5.73501e-21)
(-0.598911 0.443411 -2.02692e-20)
(-0.0247404 0.197034 -1.32822e-20)
(-0.073981 0.441203 -1.27818e-20)
(-0.12934 0.566361 3.79526e-20)
(-0.187556 0.616955 4.19584e-20)
(-0.244491 0.630875 -6.05286e-20)
(-0.298558 0.629914 2.06771e-19)
(-0.348785 0.622877 -2.78029e-19)
(-0.394395 0.61212 -3.45839e-19)
(-0.436737 0.598039 3.49577e-19)
(-0.48078 0.581189 -1.08592e-19)
(-0.0365056 0.199681 -3.07196e-20)
(-0.0824481 0.476154 6.07325e-21)
(-0.121691 0.637953 -8.95602e-21)
(-0.158084 0.714868 -1.89605e-19)
(-0.19296 0.74227 -6.09478e-20)
(-0.225687 0.74584 6.49515e-19)
(-0.255265 0.738644 -1.95705e-19)
(-0.280606 0.725475 -3.90612e-19)
(-0.301435 0.707576 4.66853e-19)
(-0.320811 0.685433 2.78866e-19)
(-0.0412341 0.167689 -1.6745e-20)
(-0.0837097 0.441696 -5.21964e-21)
(-0.108347 0.633971 2.72573e-21)
(-0.123783 0.74593 -7.76072e-21)
(-0.135824 0.7984 1.14776e-19)
(-0.146049 0.815034 -2.21181e-19)
(-0.154251 0.812681 -1.80281e-19)
(-0.159605 0.800159 2.12842e-19)
(-0.160928 0.780757 -6.27996e-22)
(-0.155817 0.755262 9.31682e-21)
(-0.0358464 0.115081 0)
(-0.0734679 0.348593 -7.88138e-21)
(-0.0883943 0.549857 1.11157e-20)
(-0.0883587 0.695233 6.72838e-20)
(-0.080786 0.783917 2.46586e-19)
(-0.069431 0.827933 -1.795e-19)
(-0.0556765 0.841634 6.89851e-20)
(-0.0395651 0.836352 5.03079e-20)
(-0.0205248 0.818923 0)
(0.00733698 0.792229 1.88236e-20)
(-0.0225652 0.0605847 -2.70196e-20)
(-0.0520567 0.227107 6.53378e-20)
(-0.0626511 0.404884 4.61732e-20)
(-0.0565539 0.560808 -6.05417e-20)
(-0.0386016 0.678477 5.86119e-20)
(-0.0126681 0.755841 1.02198e-19)
(0.0185746 0.798399 -3.04499e-19)
(0.0537457 0.813976 -3.75242e-20)
(0.0910112 0.809229 3.92882e-19)
(0.139332 0.787092 9.55013e-21)
(-0.00745321 0.0192893 7.83491e-21)
(-0.0269671 0.116088 1.08368e-19)
(-0.0373404 0.24604 -6.15689e-20)
(-0.0344928 0.380369 -1.0415e-20)
(-0.0183644 0.498877 -3.89678e-20)
(0.00946359 0.591533 -1.45646e-22)
(0.0467945 0.655953 6.56472e-20)
(0.0917229 0.694347 6.60571e-20)
(0.141464 0.71081 -1.02589e-19)
(0.200897 0.701126 -1.54411e-19)
(0.00323224 -0.00313533 2.03949e-20)
(-0.00968724 0.0408234 -4.75106e-20)
(-0.0237404 0.119127 -7.59773e-20)
(-0.0302482 0.212196 2.69336e-20)
(-0.0249186 0.304141 3.99804e-21)
(-0.0065258 0.384217 1.62955e-19)
(0.0242942 0.446917 1.83503e-19)
(0.0660396 0.49084 -4.36934e-20)
(0.118463 0.517828 -1.22909e-20)
(0.17677 0.509573 -5.33312e-20)
(0.00441095 -0.0077963 1.76137e-20)
(-0.0126313 0.00635305 -4.61577e-20)
(-0.035759 0.0434943 9.5016e-20)
(-0.0548753 0.0931805 1.25651e-19)
(-0.0632397 0.146729 -1.12605e-19)
(-0.0578065 0.196808 2.59134e-19)
(-0.0374268 0.238612 -2.7713e-20)
(-0.00197525 0.26986 -4.21707e-19)
(0.0507253 0.288425 -6.33305e-20)
(0.116069 0.273658 -8.78381e-21)
(-0.0102598 0.00573097 -1.28492e-21)
(-0.0442726 0.0136091 -1.33813e-20)
(-0.0778784 0.0257957 -1.25923e-20)
(-0.103107 0.0426054 5.96522e-20)
(-0.11304 0.062886 1.21878e-19)
(-0.10346 0.0840574 -1.74474e-19)
(-0.0711481 0.104966 -1.88855e-19)
(-0.014857 0.124663 1.22118e-19)
(0.0667395 0.141546 -1.14311e-19)
(0.165124 0.144613 -6.58833e-20)
(-0.922517 0.382171 2.45871e-19)
(-1.09716 0.282125 -1.49971e-18)
(-0.529052 -0.0077444 -5.60906e-19)
(-0.00425652 -0.328088 3.79115e-19)
(0.415527 -0.52954 -1.04831e-19)
(0.646695 -0.503266 -7.03254e-20)
(0.812233 -0.432091 -2.6398e-20)
(0.921957 -0.320257 1.1042e-21)
(0.981749 -0.256178 1.64063e-20)
(1.06023 -0.160238 3.66867e-21)
(-0.724027 0.483039 4.72764e-19)
(-0.815334 0.243 5.76433e-19)
(-0.321228 -0.168903 -4.25478e-20)
(0.177112 -0.466637 -4.39829e-19)
(0.563852 -0.61901 -5.6884e-19)
(0.767547 -0.560588 0)
(0.906075 -0.467318 -4.27381e-20)
(0.986162 -0.341737 4.22862e-21)
(1.02785 -0.271755 1.98212e-22)
(1.08216 -0.170084 -9.3041e-21)
(-0.467669 0.552766 6.03025e-20)
(-0.467851 0.210296 -3.51866e-19)
(-0.0322381 -0.297088 4.33296e-19)
(0.406364 -0.586215 1.14231e-19)
(0.736758 -0.696147 4.43083e-20)
(0.898794 -0.609128 -3.75491e-20)
(1.00339 -0.49518 0)
(1.05316 -0.357129 0)
(1.07727 -0.281648 -2.03782e-20)
(1.10608 -0.176532 0)
(-0.197855 0.590865 -3.63383e-20)
(-0.108324 0.176737 4.82269e-19)
(0.28281 -0.392618 -1.11317e-19)
(0.659997 -0.685202 0)
(0.9237 -0.757933 4.36897e-19)
(1.03618 -0.646304 -8.0299e-20)
(1.10058 -0.51466 0)
(1.11859 -0.366558 7.44335e-20)
(1.12627 -0.286111 0)
(1.13032 -0.179536 1.12578e-20)
(0.0435465 0.604579 2.28207e-19)
(0.228956 0.148731 2.00702e-19)
(0.602387 -0.463901 7.03415e-20)
(0.918898 -0.763731 0)
(1.11224 -0.804603 1.76246e-19)
(1.17361 -0.671449 1.79416e-19)
(1.19582 -0.525 -2.04483e-20)
(1.18038 -0.369952 -2.86185e-21)
(1.17208 -0.285588 -1.69634e-20)
(1.15327 -0.179296 2.08384e-21)
(0.249534 0.598064 1.69436e-18)
(0.52652 0.131732 5.84006e-20)
(0.909658 -0.515478 -3.4182e-20)
(1.17356 -0.822108 4.20961e-19)
(1.29494 -0.837236 -2.97459e-19)
(1.30494 -0.685558 8.48032e-20)
(1.28697 -0.526412 1.8674e-19)
(1.23793 -0.367229 -1.56924e-19)
(1.21338 -0.28044 3.41517e-22)
(1.17374 -0.176114 -2.54093e-20)
(0.40628 0.564541 3.54029e-20)
(0.780104 0.11748 -1.20639e-19)
(1.19847 -0.550603 -8.72516e-20)
(1.41558 -0.860487 -1.1753e-20)
(1.46753 -0.856594 -2.10982e-19)
(1.42651 -0.690051 -3.8526e-20)
(1.3719 -0.519962 -7.41377e-20)
(1.29109 -0.358613 8.73987e-21)
(1.24994 -0.270915 2.16375e-20)
(1.19116 -0.170273 -6.16494e-22)
(0.466943 0.487778 -6.82422e-19)
(0.990339 0.0991699 -2.37981e-19)
(1.46588 -0.572969 0)
(1.63737 -0.87895 1.099e-19)
(1.62527 -0.863057 1.64297e-19)
(1.53617 -0.686188 -2.38206e-20)
(1.44892 -0.507117 -2.38547e-19)
(1.33972 -0.344782 6.64393e-20)
(1.28215 -0.2573 -1.11679e-21)
(1.20547 -0.16202 -1.24907e-20)
(0.411609 0.35322 7.36853e-19)
(1.18584 0.0557701 6.78347e-19)
(1.7142 -0.585789 -9.36232e-20)
(1.83471 -0.878523 -6.62578e-20)
(1.76467 -0.856639 2.15837e-20)
(1.63276 -0.674806 -2.11682e-19)
(1.51687 -0.489315 8.68452e-20)
(1.38347 -0.32682 -1.29099e-21)
(1.31045 -0.240139 2.61146e-21)
(1.21696 -0.151611 1.81069e-20)
(0.355777 0.168779 -4.40501e-19)
(1.40993 -0.0168331 6.32306e-19)
(1.94521 -0.594576 2.00676e-19)
(2.00487 -0.864842 -8.26779e-20)
(1.88424 -0.839511 -1.36581e-19)
(1.71618 -0.656931 -1.0257e-19)
(1.57538 -0.46778 -3.8167e-20)
(1.42192 -0.305983 0)
(1.335 -0.220261 -3.41652e-20)
(1.22602 -0.139375 2.35605e-20)
(1.06776 0.0582046 -4.0677e-19)
(1.87002 -0.177948 -5.11112e-19)
(2.24907 -0.629208 3.64758e-19)
(2.20677 -0.838716 1.0836e-20)
(2.02189 -0.8046 1.48547e-20)
(1.80903 -0.62434 -8.81025e-20)
(1.63715 -0.433146 -8.45232e-20)
(1.46202 -0.274387 4.30598e-20)
(1.36009 -0.190943 -1.57996e-20)
(1.23501 -0.121903 -1.27826e-20)
(1.98108 0.0353899 -2.00779e-20)
(2.48924 -0.293972 -1.08608e-18)
(2.59234 -0.662121 -1.02645e-18)
(2.33939 -0.798078 8.75658e-20)
(2.06462 -0.719707 -6.9244e-20)
(1.82526 -0.528355 1.45958e-19)
(1.64611 -0.346144 1.65364e-19)
(1.46847 -0.208151 -2.31815e-20)
(1.36827 -0.140496 7.17886e-20)
(1.23702 -0.0941342 7.92773e-21)
(2.37072 -0.0437011 7.75205e-20)
(2.64863 -0.330101 2.29992e-20)
(2.54092 -0.595932 2.46279e-20)
(2.28302 -0.687528 1.8744e-35)
(2.07932 -0.62637 -3.93454e-20)
(1.8734 -0.458972 -5.07189e-34)
(1.68986 -0.289825 2.56644e-20)
(1.49461 -0.163009 7.46035e-34)
(1.38287 -0.100315 -2.58389e-21)
(1.23997 -0.0689215 4.58247e-21)
(2.46104 -0.087809 5.31238e-35)
(2.57591 -0.307015 4.44715e-19)
(2.4976 -0.534481 3.93771e-19)
(2.32447 -0.634547 0)
(2.12134 -0.570038 -6.9079e-21)
(1.87926 -0.385033 -1.02788e-19)
(1.6655 -0.208708 -1.1977e-19)
(1.45979 -0.0964232 1.99879e-33)
(1.35125 -0.0485744 -4.1214e-20)
(1.21953 -0.0394089 -5.92893e-21)
(2.43912 -0.120852 5.48653e-20)
(2.50284 -0.293753 -5.64376e-21)
(2.46153 -0.494442 0)
(2.29262 -0.565803 0)
(2.06645 -0.477361 0)
(1.81716 -0.292557 0)
(1.60811 -0.13131 7.07098e-21)
(1.41136 -0.0404201 2.31628e-33)
(1.31146 -0.00730451 -3.75123e-21)
(1.19306 -0.0154166 -8.40386e-34)
(2.40457 -0.145101 7.01508e-20)
(2.44305 -0.282644 0)
(2.40929 -0.446442 0)
(2.21705 -0.495124 0)
(1.94329 -0.392068 0)
(1.66694 -0.207924 0)
(1.46216 -0.0588929 -1.43713e-20)
(1.29408 0.0126855 6.05997e-20)
(1.22171 0.0314754 -4.32016e-21)
(1.1372 0.00670824 -3.00643e-21)
(2.36094 -0.160499 0)
(2.37383 -0.269035 1.49553e-19)
(2.28521 -0.391946 1.44783e-19)
(1.99011 -0.400573 0)
(1.64586 -0.27826 -2.03355e-20)
(1.36883 -0.111972 -5.24594e-20)
(1.20461 0.00503512 -5.83691e-20)
(1.09745 0.0491658 -2.71401e-20)
(1.07279 0.0525276 2.03794e-20)
(1.03888 0.0191081 -1.01184e-20)
(2.23543 -0.159134 -6.22427e-21)
(2.16985 -0.235915 -5.25874e-21)
(1.93163 -0.29507 1.63087e-21)
(1.50833 -0.261099 -2.14519e-35)
(1.13173 -0.150435 6.04865e-21)
(0.908029 -0.0328293 -1.85537e-34)
(0.831289 0.040001 -1.57233e-20)
(0.815026 0.0600329 -4.04926e-20)
(0.848675 0.0532078 -4.65375e-21)
(0.868022 0.021007 8.85462e-21)
(1.77671 -0.130196 3.80404e-20)
(1.5718 -0.158633 -3.67066e-20)
(1.18487 -0.143283 -2.49501e-20)
(0.749254 -0.0942632 0)
(0.475704 -0.0408165 -6.92423e-21)
(0.375439 0.0052599 -7.79641e-21)
(0.397984 0.0354878 -1.65674e-20)
(0.459375 0.0416514 3.46577e-21)
(0.532324 0.0336363 -1.21458e-20)
(0.583876 0.0134324 -7.7371e-21)
(0.667819 -0.0266738 0)
(0.459825 -0.00991352 0)
(0.252064 0.000689129 0)
(0.0974334 -0.00304993 0)
(0.00295875 -0.00516688 0)
(-0.0260075 -0.000934938 0)
(0.0126686 0.0046321 -1.51054e-20)
(0.0758477 0.00631567 6.01502e-35)
(0.135174 0.00479799 -5.0852e-21)
(0.178331 0.00177533 -9.25751e-21)
(2.48199 0.248656 7.51798e-19)
(2.52048 0.183972 4.54607e-20)
(2.53693 0.11892 -7.23838e-20)
(2.55443 0.0709096 -2.29693e-19)
(2.55462 0.0134648 -4.0308e-20)
(2.52291 -0.0119054 -6.09645e-20)
(2.48999 -0.0663526 -1.89796e-19)
(2.26855 -0.0589307 2.25306e-20)
(2.1217 -0.0983768 0)
(1.46537 -0.0416736 4.64496e-20)
(2.40771 0.208847 2.43338e-19)
(2.41657 0.164545 -2.71984e-19)
(2.48545 0.104179 -6.03942e-20)
(2.4609 0.0693619 -1.1457e-19)
(2.54856 0.0153035 9.3903e-20)
(2.47319 -0.0152566 1.6112e-19)
(2.58349 -0.0573672 -1.88643e-19)
(2.42399 -0.100323 1.31496e-20)
(2.50299 -0.108422 -4.46143e-20)
(2.2064 -0.172698 5.46381e-20)
(2.3608 0.177178 -1.09143e-19)
(2.33838 0.134709 2.49013e-19)
(2.43681 0.0929807 1.46766e-19)
(2.38539 0.0490788 -2.48263e-19)
(2.49374 0.020861 -4.28249e-20)
(2.41894 -0.0326616 3.34257e-19)
(2.52577 -0.0396889 5.37011e-20)
(2.44462 -0.11086 -5.21391e-20)
(2.51626 -0.0896046 -2.44059e-20)
(2.43878 -0.174937 -2.28439e-20)
(2.3132 0.144823 -2.92153e-19)
(2.30053 0.0996505 -5.6927e-20)
(2.38053 0.076785 3.84961e-20)
(2.35317 0.0256932 -7.38376e-21)
(2.42547 0.0161872 -2.20167e-19)
(2.39561 -0.0433345 -7.31672e-20)
(2.45042 -0.0373253 1.86752e-19)
(2.43397 -0.103631 -1.17685e-20)
(2.46294 -0.0849227 3.4292e-20)
(2.46466 -0.151345 1.23521e-20)
(2.26497 0.110517 3.64312e-20)
(2.27723 0.0690219 1.32661e-19)
(2.32619 0.0540977 -1.48412e-20)
(2.33188 0.00820257 1.6047e-19)
(2.36825 0.0018006 -5.68413e-20)
(2.37458 -0.0474165 -2.09212e-19)
(2.39591 -0.0461824 3.17585e-20)
(2.40875 -0.0956311 -6.52523e-20)
(2.41695 -0.0901925 -1.12761e-20)
(2.43685 -0.136585 -2.0882e-20)
(2.22055 0.0746164 -1.61987e-19)
(2.24752 0.0419906 -6.79349e-20)
(2.27935 0.0278499 -1.21517e-20)
(2.30147 -0.00660216 1.03319e-19)
(2.32332 -0.0166332 2.65198e-19)
(2.34324 -0.0517627 -6.13823e-20)
(2.35562 -0.0588231 5.53387e-21)
(2.37516 -0.0931902 -7.76759e-20)
(2.38019 -0.098784 -1.14993e-19)
(2.40044 -0.131434 -2.38753e-20)
(2.168 0.0399619 -5.21672e-20)
(2.19951 0.0160733 -1.20208e-19)
(2.22534 0.00235398 -1.47832e-19)
(2.25305 -0.022073 -2.61801e-19)
(2.27174 -0.0342196 7.78429e-20)
(2.29693 -0.0591239 6.69391e-20)
(2.30858 -0.0704554 -7.51249e-21)
(2.33283 -0.0957903 8.0678e-20)
(2.33759 -0.106629 -7.87562e-20)
(2.36333 -0.132354 -4.94398e-20)
(2.05652 0.00817149 6.13803e-20)
(2.08787 -0.00835824 2.67416e-20)
(2.10613 -0.0191951 1.72974e-20)
(2.13743 -0.0360987 -3.65145e-20)
(2.14933 -0.046362 -3.47211e-20)
(2.18248 -0.064306 -5.21265e-20)
(2.18725 -0.0746898 -4.8309e-20)
(2.22453 -0.0943784 1.04024e-19)
(2.22077 -0.105191 -4.48023e-20)
(2.26526 -0.127133 9.02874e-21)
(1.73943 -0.0177358 -6.84553e-20)
(1.7568 -0.0263671 -1.30053e-20)
(1.76053 -0.0324834 1.2341e-19)
(1.78157 -0.0412572 -1.78307e-20)
(1.7795 -0.0471084 -3.52846e-20)
(1.80741 -0.0569834 7.33521e-20)
(1.79711 -0.0633936 -5.59697e-20)
(1.83509 -0.0753118 4.40003e-20)
(1.81274 -0.0832113 -1.90524e-20)
(1.86507 -0.0979139 -8.86697e-20)
(0.879051 -0.0118622 5.1183e-20)
(0.868431 -0.0113254 4.3604e-20)
(0.85635 -0.01088 4.34914e-20)
(0.84849 -0.010741 7.20853e-20)
(0.836559 -0.0109787 -3.68236e-20)
(0.832622 -0.0115742 -4.95001e-20)
(0.817703 -0.0126991 2.24624e-20)
(0.819957 -0.0147108 -2.47221e-21)
(0.793256 -0.0158795 3.6858e-21)
(0.811938 -0.0231858 -5.51746e-21)
(1.56111 0.957902 -8.451e-20)
(1.54516 1.00375 2.62347e-20)
(1.5488 1.05732 -6.33644e-19)
(1.55743 1.11816 2.30536e-19)
(1.56382 1.18219 1.18878e-18)
(1.55929 1.24126 -1.44171e-19)
(1.52182 1.27282 -1.05231e-18)
(1.40124 1.22477 8.36524e-23)
(1.10911 1.00184 -5.15455e-19)
(0.518891 0.480037 1.16231e-19)
(1.72454 0.928386 0)
(1.71334 0.972643 7.31217e-19)
(1.71327 1.02228 1.62005e-18)
(1.72141 1.0805 -1.00012e-18)
(1.73098 1.14292 -2.33501e-18)
(1.72958 1.19978 -1.51567e-19)
(1.68988 1.22725 -1.94288e-19)
(1.5541 1.17395 7.09462e-19)
(1.22407 0.950883 1.06617e-18)
(0.566878 0.448081 4.18138e-19)
(1.87511 0.889147 6.6929e-20)
(1.87268 0.932985 0)
(1.87394 0.979537 -6.60802e-20)
(1.88275 1.0331 1.01932e-18)
(1.89429 1.0905 5.4784e-20)
(1.89396 1.14169 -2.27161e-18)
(1.84934 1.16232 1.43563e-18)
(1.69533 1.10304 8.44e-19)
(1.32584 0.882628 -9.09933e-19)
(0.60555 0.407017 -2.66207e-19)
(2.00819 0.841215 -1.85838e-19)
(2.01527 0.882978 -1.36472e-19)
(2.02161 0.925797 2.77963e-19)
(2.03314 0.973799 -3.44745e-19)
(2.04644 1.02457 -1.59247e-18)
(2.04532 1.0681 -1.23775e-18)
(1.99274 1.08013 1.29511e-18)
(1.81709 1.01291 8.57321e-19)
(1.40569 0.796917 0)
(0.630157 0.357087 0)
(2.12453 0.778407 -9.08479e-19)
(2.14001 0.817552 -1.66968e-18)
(2.15281 0.856698 -6.41082e-19)
(2.16816 0.899312 -3.28023e-20)
(2.18278 0.943161 0)
(2.17895 0.9776 1.31455e-19)
(2.11456 0.979177 1.51315e-19)
(1.91154 0.906188 1.88477e-19)
(1.45685 0.697593 -2.69134e-19)
(0.63742 0.299544 -6.72546e-20)
(2.22726 0.706114 1.08414e-18)
(2.24899 0.740957 -4.00956e-20)
(2.26721 0.775446 -1.27077e-18)
(2.28574 0.811969 0)
(2.30016 0.847647 0)
(2.28974 0.872278 0)
(2.20729 0.863707 1.44333e-18)
(1.97134 0.784488 -1.58438e-18)
(1.47421 0.585485 -9.96248e-19)
(0.624394 0.237031 1.78409e-20)
(2.31612 0.623213 -1.40308e-18)
(2.34246 0.653448 -2.944e-18)
(2.36444 0.68321 -5.10659e-21)
(2.38426 0.713542 5.96784e-19)
(2.39527 0.741024 -3.55431e-20)
(2.37295 0.755406 1.25061e-18)
(2.26586 0.736144 -6.91452e-19)
(1.99151 0.651271 -1.80403e-18)
(1.45265 0.465478 9.35025e-20)
(0.589872 0.173629 7.37593e-20)
(2.39335 0.536245 -1.08681e-18)
(2.4209 0.561338 1.49257e-20)
(2.44381 0.585609 4.08924e-19)
(2.46188 0.609022 -3.95709e-19)
(2.46504 0.627564 6.1663e-19)
(2.42432 0.631049 1.62543e-18)
(2.28457 0.601049 -1.33927e-19)
(1.96569 0.512282 -9.37245e-19)
(1.38813 0.344368 2.0993e-19)
(0.534468 0.113953 3.84398e-20)
(2.45594 0.446128 3.94865e-19)
(2.48323 0.466751 7.64422e-20)
(2.50438 0.485428 -4.03138e-19)
(2.5168 0.501632 -9.50158e-19)
(2.50614 0.510922 6.22314e-20)
(2.43858 0.503526 4.40841e-20)
(2.2568 0.463906 -1.1375e-18)
(1.88806 0.374353 4.91028e-19)
(1.27908 0.229596 1.39897e-19)
(0.461006 0.0624551 -4.75141e-20)
(2.50493 0.358647 7.26251e-19)
(2.52888 0.374404 -1.0823e-18)
(2.54489 0.387019 1.58072e-19)
(2.5463 0.395706 2.13144e-18)
(2.5137 0.395687 1.02627e-18)
(2.40884 0.378115 -2.21399e-18)
(2.17523 0.331115 -2.02606e-18)
(1.75417 0.245154 8.38472e-19)
(1.12729 0.128785 -4.04905e-20)
(0.374525 0.0226952 -1.06461e-19)
(0.548387 0.390927 -1.77138e-19)
(0.507461 0.404365 -1.67021e-19)
(0.461366 0.418649 7.71876e-20)
(0.410746 0.433927 -2.49048e-19)
(0.355293 0.450061 -2.27302e-20)
(0.294162 0.465638 2.20943e-19)
(0.226372 0.474843 3.81098e-20)
(0.152382 0.461057 -4.10747e-22)
(0.0793327 0.388469 1.80369e-20)
(0.0160272 0.19779 1.39148e-20)
(0.590574 0.498639 1.39542e-19)
(0.550745 0.518831 1.78684e-19)
(0.506605 0.540465 4.53113e-20)
(0.458367 0.563691 -5.39352e-20)
(0.405393 0.588255 -2.24087e-19)
(0.346567 0.612203 -1.37934e-20)
(0.280205 0.627782 6.1814e-20)
(0.204917 0.612813 3.8194e-20)
(0.124119 0.518895 -1.19558e-19)
(0.0392669 0.265605 -4.12682e-20)
(0.650674 0.598559 -1.20131e-19)
(0.612216 0.624578 -1.06415e-19)
(0.570568 0.652527 1.00711e-19)
(0.52548 0.68288 7.12249e-20)
(0.476032 0.715503 -7.79255e-20)
(0.420788 0.747988 -2.49341e-20)
(0.357004 0.770566 -1.08377e-19)
(0.280435 0.755353 -7.79769e-20)
(0.188664 0.641503 -6.82222e-20)
(0.0727431 0.328857 5.85297e-22)
(0.728361 0.694838 4.00842e-20)
(0.691826 0.727332 -4.96616e-20)
(0.653584 0.76161 -8.13153e-20)
(0.6124 0.798367 -5.41097e-20)
(0.566924 0.837605 -6.68327e-20)
(0.515538 0.876583 -5.50007e-21)
(0.454463 0.903725 -2.8001e-19)
(0.376014 0.886079 5.83214e-20)
(0.270156 0.7521 -3.20228e-19)
(0.114883 0.384909 4.90149e-20)
(0.819102 0.774403 5.58557e-21)
(0.785226 0.811891 1.34376e-20)
(0.751702 0.851721 -4.90385e-20)
(0.716399 0.894937 -2.6555e-19)
(0.677172 0.941309 1.23269e-19)
(0.6316 0.987398 4.0331e-20)
(0.574284 1.01981 4.0922e-20)
(0.493306 1.00083 -1.81496e-19)
(0.369351 0.848976 3.87764e-19)
(0.165495 0.433107 2.81886e-19)
(0.926291 0.853304 -8.91928e-20)
(0.894037 0.895253 -1.81512e-19)
(0.863801 0.938363 1.87169e-20)
(0.832888 0.985114 9.92923e-20)
(0.799111 1.03584 3.66382e-19)
(0.75952 1.0864 2.7151e-19)
(0.706558 1.12119 6.51191e-19)
(0.623063 1.09807 2.67764e-19)
(0.479165 0.928092 1.46873e-19)
(0.221345 0.470697 2.05856e-19)
(1.03945 0.905535 -1.06408e-19)
(1.01343 0.952275 6.05748e-19)
(0.99111 0.999904 4.00417e-19)
(0.967884 1.05096 -5.19949e-19)
(0.940995 1.10601 -2.60997e-19)
(0.907387 1.16082 6.79264e-19)
(0.857873 1.19827 -1.06135e-19)
(0.769747 1.17225 -4.61447e-19)
(0.60145 0.98739 2.60368e-20)
(0.282134 0.497126 2.55138e-19)
(1.15955 0.959267 3.00797e-19)
(1.13367 1.00633 5.83937e-20)
(1.11615 1.05427 -7.71612e-19)
(1.10108 1.10711 1.70636e-19)
(1.08371 1.16452 5.96106e-19)
(1.05893 1.22089 -3.27037e-19)
(1.01461 1.25737 -1.03625e-19)
(0.921947 1.22519 -1.89777e-19)
(0.727591 1.02557 1.91453e-20)
(0.343913 0.511194 -2.97703e-19)
(1.28886 0.977539 1.80641e-20)
(1.27357 1.02833 -5.64854e-19)
(1.26338 1.07716 -4.79603e-21)
(1.25389 1.13103 4.86001e-19)
(1.24239 1.19083 -5.06157e-19)
(1.2236 1.24984 9.90285e-19)
(1.18218 1.28682 6.64499e-19)
(1.08213 1.2503 -9.77357e-19)
(0.857685 1.04006 -7.72833e-20)
(0.405632 0.512543 -3.27727e-19)
(1.3907 0.988062 -3.42176e-19)
(1.38723 1.03972 -3.22786e-19)
(1.39452 1.09018 2.99459e-19)
(1.39985 1.14462 7.97951e-19)
(1.39979 1.20362 2.85079e-19)
(1.38946 1.26079 -8.22332e-19)
(1.3513 1.29412 1.08894e-19)
(1.24256 1.251 2.223e-19)
(0.985753 1.03224 -2.97481e-19)
(0.464541 0.501981 -2.31532e-19)
(0.997205 0.0098511 5.74709e-22)
(1.01045 0.0399579 -1.69504e-20)
(1.02246 0.0504718 -1.2741e-20)
(1.02867 0.0741291 0)
(1.02445 0.0909166 1.45896e-20)
(1.02232 0.111842 2.13023e-20)
(0.999895 0.150122 2.81923e-20)
(0.959922 0.190079 6.56698e-20)
(0.879369 0.255464 -1.03852e-19)
(0.726892 0.323561 -1.39697e-19)
(0.998324 0.00795683 3.48414e-20)
(1.00794 0.0376564 -5.46465e-20)
(1.02191 0.0479931 2.08863e-22)
(1.02649 0.0739087 -1.597e-20)
(1.02433 0.0912806 7.45679e-21)
(1.02283 0.116419 -1.11181e-20)
(1.00163 0.158945 -6.57721e-20)
(0.968441 0.20853 0)
(0.890148 0.292263 2.16682e-19)
(0.7617 0.393891 -2.60766e-19)
(0.99898 0.0062875 -2.49866e-20)
(1.00659 0.0357087 1.50663e-20)
(1.02126 0.0452511 3.33941e-20)
(1.02608 0.0742367 8.59415e-21)
(1.0245 0.091062 -1.82705e-20)
(1.02617 0.121688 1.20186e-21)
(1.00437 0.166982 -4.69981e-20)
(0.981987 0.227222 -6.82075e-21)
(0.904186 0.327416 2.92984e-22)
(0.811068 0.461376 6.82175e-19)
(0.999264 0.00472917 -2.78883e-20)
(1.00614 0.034111 2.09035e-21)
(1.02065 0.0421785 2.73537e-20)
(1.02721 0.0751017 1.82973e-20)
(1.02514 0.0901387 -9.25036e-21)
(1.03199 0.127702 -1.34669e-20)
(1.00824 0.173884 6.92222e-20)
(1.00038 0.246699 -2.26636e-21)
(0.921013 0.359772 -2.43447e-19)
(0.874778 0.524554 8.26441e-20)
(0.999319 0.00319024 1.92413e-20)
(1.00628 0.0328069 -2.76541e-20)
(1.02034 0.0387649 -2.20315e-20)
(1.02952 0.0763856 1.09157e-20)
(1.02663 0.0885085 0)
(1.0397 0.13437 0)
(1.01405 0.179554 5.95945e-20)
(1.02196 0.26686 1.00134e-21)
(0.943241 0.389278 -1.12993e-19)
(0.948444 0.581662 9.02019e-20)
(0.999298 0.00162586 5.38951e-21)
(1.00667 0.0316941 2.20777e-20)
(1.02065 0.0350305 -6.0654e-20)
(1.03267 0.0779164 -2.12881e-20)
(1.02934 0.0862266 -4.97761e-22)
(1.04888 0.141598 5.86488e-20)
(1.02193 0.183776 9.28525e-20)
(1.0473 0.288258 -2.5124e-22)
(0.96725 0.413675 1.86472e-19)
(1.0392 0.638944 -2.10131e-19)
(0.999316 2.74841e-05 -2.06105e-20)
(1.00703 0.0306358 1.15722e-20)
(1.02188 0.0310147 -1.68548e-20)
(1.03628 0.0794918 -4.55089e-20)
(1.03373 0.0834236 1.6063e-21)
(1.0588 0.149093 -1.53716e-21)
(1.03331 0.186817 -4.62973e-21)
(1.0731 0.31011 -2.05244e-19)
(1.00217 0.433991 1.38792e-19)
(1.12377 0.679979 -5.18245e-19)
(0.999432 -0.00159348 -3.47931e-21)
(1.00721 0.0294729 -3.3161e-20)
(1.02426 0.0267638 3.4148e-20)
(1.0401 0.0809065 2.43504e-20)
(1.04007 0.080273 8.47384e-22)
(1.0692 0.156411 -6.89892e-20)
(1.04801 0.189039 -5.29795e-20)
(1.10151 0.332464 3.69341e-19)
(1.03676 0.45152 1.35331e-20)
(1.23929 0.738701 8.16417e-19)
(0.999646 -0.00320332 1.39038e-20)
(1.00725 0.0280511 1.50141e-20)
(1.02777 0.022349 4.04346e-20)
(1.04416 0.0820365 -2.68486e-20)
(1.04829 0.0768291 -7.1349e-20)
(1.07975 0.163718 9.4794e-22)
(1.06699 0.188662 -7.37715e-20)
(1.12976 0.352975 4.82642e-19)
(1.09169 0.451412 -8.43979e-21)
(1.30735 0.755787 -1.13269e-18)
(0.999946 -0.00473685 3.20367e-22)
(1.00728 0.0262128 2.33221e-20)
(1.03213 0.018202 1.33059e-20)
(1.04892 0.0825586 -5.39664e-20)
(1.05709 0.0749527 -7.03735e-20)
(1.08999 0.170525 -5.92919e-20)
(1.08648 0.196437 -1.36887e-19)
(1.15387 0.376644 -4.38876e-19)
(1.14864 0.479748 -2.37619e-19)
(1.44326 0.826252 -1.19204e-18)
(1.00059 -0.00731669 -9.99975e-22)
(1.00686 0.0235085 -5.05227e-21)
(1.03851 0.0100421 -1.55636e-20)
(1.05652 0.0821687 2.96648e-20)
(1.06788 0.0655121 5.36169e-20)
(1.1103 0.174525 -3.8713e-20)
(1.10868 0.18039 1.35707e-19)
(1.19883 0.386618 -4.05363e-19)
(1.20968 0.418107 -1.83312e-19)
(1.45798 0.817057 6.23445e-19)
(1.00189 -0.0110982 6.52016e-22)
(1.00526 0.0192216 9.14657e-21)
(1.04965 -0.00321781 -1.09286e-20)
(1.06319 0.0792939 5.45763e-20)
(1.08583 0.0489621 9.25561e-20)
(1.12906 0.171317 1.15137e-19)
(1.14875 0.15449 3.12614e-20)
(1.22634 0.372204 1.9522e-19)
(1.30785 0.366435 3.06594e-19)
(1.47487 0.71754 2.63795e-20)
(1.00223 -0.0146932 -1.30279e-21)
(1.00499 0.012553 -3.76103e-21)
(1.06491 -0.0164473 3.81055e-21)
(1.06592 0.0742704 4.10245e-21)
(1.1116 0.0319779 2.84211e-34)
(1.14043 0.16242 -6.62298e-21)
(1.19683 0.129493 -4.75966e-34)
(1.24151 0.346737 1.75839e-20)
(1.38168 0.311052 -5.37107e-20)
(1.51335 0.626154 -5.48044e-20)
(0.999374 -0.0186693 1.47329e-20)
(1.01094 0.00241902 -4.26066e-35)
(1.07881 -0.0281485 -4.33137e-21)
(1.07044 0.0646897 -2.28748e-20)
(1.13865 0.0163113 -4.71009e-20)
(1.15315 0.148986 -3.91856e-20)
(1.2347 0.106451 -6.16707e-34)
(1.26256 0.317141 -7.52931e-20)
(1.42065 0.256198 -1.41062e-19)
(1.55327 0.533674 9.20591e-20)
(0.992243 -0.0238366 0)
(1.02674 -0.0113435 8.61513e-36)
(1.08639 -0.0375043 0)
(1.08547 0.0487094 0)
(1.16097 0.00238484 0)
(1.17509 0.12972 0)
(1.25573 0.086695 -4.41597e-34)
(1.29471 0.279872 0)
(1.43737 0.209068 -1.89948e-20)
(1.58019 0.439606 5.44775e-20)
(0.981578 -0.0311087 2.42034e-21)
(1.05122 -0.0264301 1.10835e-21)
(1.0887 -0.0446637 -5.374e-21)
(1.11336 0.0294145 0)
(1.17728 -0.00806346 0)
(1.20271 0.107279 5.9051e-21)
(1.26799 0.070902 4.25114e-20)
(1.32791 0.236835 -1.2668e-20)
(1.45168 0.169503 -2.77018e-20)
(1.59858 0.349225 2.09768e-19)
(0.970144 -0.0451632 -8.12479e-20)
(1.08108 -0.0486016 2.27155e-21)
(1.08777 -0.0562939 -5.95215e-21)
(1.14765 0.000998002 -1.41133e-20)
(1.17625 -0.0187906 -2.89773e-20)
(1.21968 0.0804507 -1.38085e-20)
(1.26394 0.0559399 -3.59819e-20)
(1.34722 0.189096 -2.88384e-20)
(1.46044 0.133144 -5.30599e-20)
(1.61501 0.263493 6.56223e-20)
(0.961928 -0.0523991 -5.4523e-21)
(1.10479 -0.0584287 -1.77122e-20)
(1.06926 -0.0567658 -6.52545e-21)
(1.1518 -0.0166893 -4.90522e-21)
(1.11186 -0.0181856 -4.44977e-35)
(1.18959 0.0558859 6.27912e-21)
(1.19339 0.042928 -8.05136e-34)
(1.32662 0.137523 -1.2146e-20)
(1.41683 0.0961468 1.72621e-20)
(1.60784 0.182087 2.48891e-20)
(0.956397 -0.0933823 1.96952e-19)
(1.05888 -0.0887966 -4.98666e-21)
(0.956361 -0.0733979 -7.01916e-21)
(0.997267 -0.0349829 1.30752e-20)
(0.886539 -0.0151138 1.6372e-20)
(0.998574 0.030118 1.49279e-20)
(0.960231 0.0289395 1.50841e-20)
(1.1591 0.0800859 -8.86727e-21)
(1.21195 0.0590376 -1.88411e-20)
(1.45925 0.103311 1.34777e-19)
(0.826087 -0.0465663 8.05817e-21)
(0.728877 -0.0336012 -9.27799e-35)
(0.532828 -0.0184911 -8.13787e-21)
(0.476982 -0.00299658 0)
(0.398656 0.000363423 0)
(0.472307 0.00909775 6.20357e-21)
(0.463195 0.00545155 -4.69887e-36)
(0.6098 0.01734 -1.16964e-20)
(0.665394 0.00965046 -2.53721e-20)
(0.8503 0.0184831 5.37107e-20)
(1.66261 0.843223 -1.87596e-19)
(1.7628 0.82516 -2.77194e-19)
(1.87877 0.791268 0)
(1.98675 0.748452 1.54817e-19)
(2.08633 0.690225 6.5451e-19)
(2.17614 0.626283 -1.1262e-19)
(2.25523 0.552505 1.66662e-18)
(2.32927 0.477409 -8.24158e-20)
(2.38832 0.39792 -3.59253e-19)
(2.44535 0.323074 3.15018e-19)
(1.68823 0.692805 9.61505e-20)
(1.76149 0.678451 1.10123e-19)
(1.85962 0.645004 -1.39832e-20)
(1.94261 0.60756 2.14192e-19)
(2.03663 0.553906 -1.74594e-19)
(2.10291 0.504143 -4.04072e-19)
(2.18446 0.441946 -1.22535e-19)
(2.23527 0.388834 5.50181e-19)
(2.30827 0.32412 -2.09983e-20)