/*--------------------------------*- C++ -*----------------------------------*\
  =========                 |
  \\      /  F ield         | OpenFOAM: The Open Source CFD Toolbox
   \\    /   O peration     | Website:  https://openfoam.org
    \\  /    A nd           | Version:  13
     \\/     M anipulation  |
\*---------------------------------------------------------------------------*/
FoamFile
{
    format      ascii;
    class       volScalarField;
    location    "0.125";
    object      strainRateViscosityModel:nu;
}
// * * * * * * * * * * * * * * * * * * * * * * * * * * * * * * * * * * * * * //

dimensions      [0 2 -1 0 0 0 0];

internalField   nonuniform List<scalar> 
440
(
9.41944
8.97017
8.54439
8.03911
7.57652
9.68991
9.35841
8.9822
8.47977
7.87299
9.80073
9.53095
9.15906
8.58533
7.84788
9.84963
9.61825
9.25882
8.64789
7.86643
9.86919
9.65613
9.30606
8.6812
7.90916
1.35045
1.75302
1.98497
2.22507
2.29379
3.45375
3.30319
3.27654
3.35886
3.43013
5.9242
5.29127
4.92135
4.69093
4.71209
7.77923
7.00466
6.42266
5.88737
5.79875
8.82195
8.15394
7.55198
6.90831
6.85316
1.82335
0.710661
0.184662
0.023308
0.0104568
2.6049
0.85212
0.185969
0.0264194
0.0106223
3.5044
1.16831
0.199168
0.0290141
0.0107712
4.07989
1.51961
0.249849
0.0297098
0.0108373
4.57998
1.86404
0.373863
0.0359167
0.0108859
4.27235
1.93052
0.368627
0.0257915
0.0100368
3.74126
1.60479
0.247994
0.0991702
0.146585
4.90665
3.03898
1.16211
0.847313
0.867917
7.01487
4.22676
1.95879
1.34042
1.25036
8.27004
5.05613
2.66388
1.846
1.57858
2.84762
3.68009
4.6152
5.4983
6.1362
3.68563
3.69866
3.77377
3.85489
3.37071
8.22729
8.08742
7.80022
7.38561
6.34328
9.05312
8.99271
8.85978
8.623
8.16279
9.60666
9.56988
9.48687
9.33771
9.11807
7.49998
8.01064
8.55831
9.01055
9.46436
7.79278
8.45071
8.9865
9.37764
9.70865
7.77849
8.55863
9.15913
9.54066
9.80942
7.81625
8.62754
9.25735
9.62273
9.85359
7.89152
8.67381
9.30542
9.65747
9.87035
2.40952
2.3482
2.16151
2.03574
2.00248
3.42359
3.37401
3.42333
3.65194
4.18384
4.63392
4.65632
5.0481
5.59265
6.42463
5.69356
5.83435
6.50389
7.18998
8.03697
6.75566
6.84416
7.582
8.24361
8.93571
0.0754056
0.0370418
0.14757
0.628594
1.92925
0.0603834
0.0545653
0.153177
0.743488
2.64287
0.0516944
0.0809765
0.163386
1.05597
3.47647
0.0438998
0.119648
0.205828
1.43865
3.99351
0.0485162
0.166199
0.326792
1.81265
4.40482
0.0926576
0.237745
0.352081
1.98148
4.17821
0.265159
0.203109
0.111736
1.56168
3.85955
0.468264
0.568948
0.787519
2.84488
4.86426
2.14698
1.34132
1.73938
4.11773
6.96327
5.01653
2.93855
2.68247
5.05419
8.27755
5.95918
5.27852
4.41122
3.5159
2.782
3.51715
3.98152
3.96165
3.87024
3.76236
6.30914
7.34925
7.77929
8.06888
8.2195
8.12438
8.60204
8.85067
8.98922
9.05232
9.1162
9.33737
9.48717
9.57038
9.60689
9.31067
7.9165
1.39864
3.62951
7.73642
9.08158
7.44035
3.20565
1.64027
6.78828
8.39815
6.57641
4.20653
1.0052
4.14423
6.81606
5.09137
3.45031
1.709
1.03547
4.51017
3.13703
2.03307
1.38722
0.467155
2.6201
1.62486
1.0307
0.853485
0.973754
1.45985
0.797261
0.649526
0.709284
0.778583
0.71715
0.446205
0.678584
0.8468
0.920027
0.236068
0.555566
0.89206
1.07204
1.13255
0.214999
0.909184
1.23213
1.4725
1.53137
0.199262
0.379888
0.713441
0.858611
0.917212
0.473757
0.480038
0.502779
0.621408
0.680291
0.685914
0.582797
0.28039
0.252805
0.255242
0.991149
0.667998
0.184349
0.0518345
0.0255241
1.3072
0.683195
0.172203
0.0228142
0.0105097
1.13794
0.936682
1.23498
1.38108
1.43944
0.256279
0.533096
0.931194
1.11035
1.18251
9.19098
8.83837
7.75825
5.73228
3.56312
8.58702
7.72247
5.84996
3.48821
0.850177
1.00091
0.908099
1.06032
1.63104
2.67549
0.895488
0.852078
0.773041
0.848064
1.50789
1.11069
1.06087
0.896092
0.587344
0.662189
1.3469
1.30432
1.10341
0.763443
0.179293
1.73922
1.68857
1.44651
1.15579
0.627258
7.73595
3.62649
1.39989
7.91473
9.31082
6.78451
1.64014
3.20222
7.43722
9.08223
4.13122
1.01223
4.19281
6.57187
8.39984
1.0335
1.713
3.43038
5.08264
6.82264
0.480515
1.38681
2.01404
3.12191
4.53223
1.17914
0.807575
0.648156
0.443602
0.184059
0.494019
0.521027
0.469808
0.498767
0.560575
0.264736
0.0774469
0.283043
0.563515
0.835833
0.168658
0.0204903
0.17168
0.619336
1.16729
0.104605
0.0298161
0.138918
0.618226
1.46847
5.44618
2.68742
1.23418
1.03415
1.17177
2.79124
1.34197
0.884548
0.594793
0.236336
3.57188
5.73761
7.75947
8.8389
9.19113
0.831358
3.46967
5.84366
7.72111
8.58687
)
;

boundaryField
{
    left
    {
        type            calculated;
        value           nonuniform List<scalar> 
17
(
0.39173
0.848026
1.96846
3.85455
6.57217
0.373486
0.325192
0.30235
0.289593
0.301351
2.88204
1.85873
1.10478
0.681989
0.470929
6.96831
4.54718
)
;
    }
    right
    {
        type            calculated;
        value           nonuniform List<scalar> 
17
(
1.44056
1.18076
0.911671
0.671944
0.246261
0.0228312
0.010205
0.0101481
0.0101942
0.0102314
0.0102423
0.0102449
0.0101246
0.165562
0.901052
1.26779
1.57323
)
;
    }
    down
    {
        type            calculated;
        value           nonuniform List<scalar> 
20
(
5.9645
3.18792
1.33798
1.12283
1.86379
4.26796
6.3838
8.13075
9.01553
9.3091
9.30893
9.01488
8.12916
6.37956
4.26014
1.8392
1.0132
1.30586
1.4511
1.50501
)
;
    }
    up
    {
        type            calculated;
        value           nonuniform List<scalar> 
20
(
8.54455
5.37985
2.88249
1.98203
1.66451
9.69558
9.66609
9.59843
9.47383
9.29251
9.29536
9.4759
9.59992
9.66713
9.69597
5.67198
3.49151
2.92731
5.40841
8.56233
)
;
    }
    cylinder
    {
        type            calculated;
        value           nonuniform List<scalar> 
40
(
1.45144
3.65901
6.1452
7.96776
8.95771
9.50488
9.74568
9.84077
9.88145
9.89747
9.54769
9.76287
9.84854
9.88495
9.89849
2.22939
4.44906
6.66748
8.22959
9.07032
3.06909
1.84618
1.0112
0.307011
0.671297
9.5189
9.33168
8.74196
7.27053
4.99402
9.51873
9.33092
8.73977
7.2621
4.96591
2.99635
1.75632
1.01224
0.544205
0.119812
)
;
    }
    defaultFaces
    {
        type            empty;
    }
}


// ************************************************************************* //
