/*--------------------------------*- C++ -*----------------------------------*\
  =========                 |
  \\      /  F ield         | OpenFOAM: The Open Source CFD Toolbox
   \\    /   O peration     | Website:  https://openfoam.org
    \\  /    A nd           | Version:  13
     \\/     M anipulation  |
\*---------------------------------------------------------------------------*/
FoamFile
{
    format      ascii;
    class       volVectorField;
    location    "0.27";
    object      U;
}
// * * * * * * * * * * * * * * * * * * * * * * * * * * * * * * * * * * * * * //

dimensions      [0 1 -1 0 0 0 0];

internalField   nonuniform List<vector> 
440
(
(0.218267 -0.176701 -1.8109e-19)
(0.613085 -0.436662 1.07906e-18)
(0.984288 -0.640893 4.23536e-19)
(1.32751 -0.795346 1.24157e-18)
(1.63252 -0.916654 -2.6006e-19)
(0.304902 -0.177689 -5.44577e-19)
(0.819149 -0.428709 -1.01973e-18)
(1.27999 -0.618905 1.14457e-19)
(1.69191 -0.761627 -1.21529e-18)
(2.05374 -0.875072 -1.021e-18)
(0.38489 -0.152411 -6.98118e-19)
(1.0047 -0.363021 1.59003e-18)
(1.53979 -0.51839 -1.9349e-18)
(2.00475 -0.63263 1.37852e-18)
(2.40598 -0.721459 1.43047e-18)
(0.445883 -0.102749 5.62419e-19)
(1.14613 -0.243089 -1.29962e-18)
(1.73749 -0.344816 -7.50772e-19)
(2.243 -0.418221 1.9668e-18)
(2.67452 -0.474457 2.50011e-18)
(0.479275 -0.0361595 6.8696e-19)
(1.22368 -0.0847563 1.69155e-19)
(1.84596 -0.119365 2.53146e-18)
(2.37409 -0.143866 -1.06212e-18)
(2.82303 -0.162496 -4.83793e-19)
(-0.000950183 -0.051401 2.87373e-19)
(0.050037 -0.143929 -3.68488e-19)
(0.105803 -0.222004 1.08556e-18)
(0.171189 -0.291945 -1.7444e-19)
(0.239207 -0.353618 -1.58597e-18)
(0.0136713 -0.084145 -2.64495e-19)
(0.0893824 -0.227444 -4.35085e-19)
(0.174229 -0.34965 1.12636e-19)
(0.268556 -0.449523 6.12443e-20)
(0.364871 -0.529591 -3.95587e-20)
(0.0433103 -0.114199 6.71409e-20)
(0.165496 -0.302975 5.23408e-19)
(0.296245 -0.467056 9.31743e-20)
(0.432994 -0.598405 1.45937e-18)
(0.5681 -0.696874 -2.49659e-20)
(0.0866107 -0.140992 6.66726e-20)
(0.276379 -0.367776 -3.34945e-20)
(0.469507 -0.56289 2.16585e-19)
(0.661429 -0.718319 -2.0413e-18)
(0.844145 -0.830183 9.5845e-19)
(0.142128 -0.16173 -2.36144e-19)
(0.420084 -0.412849 -4.43205e-19)
(0.691394 -0.621442 -7.71848e-19)
(0.950126 -0.782336 9.55194e-19)
(1.18518 -0.892724 3.46141e-18)
(0.591588 -0.591674 -4.20418e-18)
(0.955669 -0.513689 1.20626e-18)
(1.27317 -0.209558 3.49635e-19)
(1.40636 -0.0627931 -6.59121e-19)
(1.45022 -0.0162744 -1.03058e-19)
(0.785858 -0.742343 4.9124e-18)
(1.04148 -0.617567 -3.42758e-19)
(1.30552 -0.270327 -1.42519e-19)
(1.42526 -0.08545 4.26682e-19)
(1.45617 -0.0227678 1.83508e-19)
(1.03694 -0.876893 1.53789e-18)
(1.17794 -0.701679 4.09816e-18)
(1.3385 -0.326768 6.66293e-20)
(1.43908 -0.105566 4.71514e-19)
(1.46316 -0.0287288 -6.10273e-20)
(1.3307 -0.98796 1.24099e-18)
(1.35725 -0.763594 -4.18745e-19)
(1.38898 -0.374863 -7.74207e-19)
(1.448 -0.12219 -3.03224e-19)
(1.47125 -0.0336332 1.9526e-20)
(1.62995 -1.04714 -8.19421e-21)
(1.55141 -0.805629 -1.65489e-18)
(1.44876 -0.418751 0)
(1.4491 -0.146412 2.61157e-19)
(1.47836 -0.0395048 3.1437e-20)
(2.15617 -1.11451 -1.57852e-18)
(1.82803 -0.798423 -4.93701e-19)
(1.56199 -0.424651 -1.02442e-20)
(1.46172 -0.153571 2.32444e-20)
(1.44771 -0.0377047 -9.5989e-20)
(2.63373 -0.889155 -1.6132e-18)
(1.90311 -0.590093 2.92412e-18)
(1.45814 -0.29689 4.40844e-21)
(1.2492 -0.113949 2.40885e-19)
(1.20227 -0.0299311 0)
(2.47942 -0.522423 -6.936e-18)
(1.60702 -0.337488 -1.49677e-19)
(1.15473 -0.167035 2.04403e-18)
(0.9416 -0.0703829 -2.97803e-19)
(0.894544 -0.0181057 -6.24961e-20)
(1.76247 -0.219959 6.83892e-18)
(1.08893 -0.135545 1.29252e-18)
(0.752843 -0.0646403 2.25172e-19)
(0.598254 -0.0298644 2.80853e-33)
(0.555426 -0.00845318 -1.09234e-19)
(0.683096 0.000131767 1.55674e-18)
(0.395223 0.023432 7.20325e-19)
(0.267733 0.0234363 -5.09503e-19)
(0.213175 0.0114425 1.86308e-19)
(0.193019 0.00361906 -4.71823e-20)
(3.58195 -0.168162 1.2561e-17)
(3.41723 -0.502911 -1.04426e-17)
(3.13672 -0.78694 7.10776e-18)
(2.78058 -0.995986 2.31977e-18)
(2.33302 -1.10159 -4.14986e-19)
(3.78466 -0.103593 1.03955e-17)
(3.71763 -0.324466 -6.63979e-19)
(3.57794 -0.551829 -4.2707e-18)
(3.37854 -0.785747 2.69119e-18)
(3.10062 -1.01973 -6.62792e-19)
(3.11488 -0.060564 3.65433e-18)
(3.09871 -0.181712 -2.51852e-18)
(3.05968 -0.309705 5.01244e-18)
(2.99903 -0.444875 -1.52677e-19)
(2.92458 -0.593591 -4.79019e-18)
(2.19088 -0.0276232 2.78864e-18)
(2.18385 -0.0833953 8.42978e-18)
(2.16461 -0.144059 -6.53231e-19)
(2.13404 -0.207358 -6.60675e-18)
(2.11302 -0.269522 1.94571e-18)
(0.879438 -0.00184241 5.21215e-18)
(0.876484 -0.00524152 -1.16422e-19)
(0.867351 -0.00957391 -4.26148e-20)
(0.850464 -0.0162661 -2.00883e-18)
(0.84109 -0.0229282 -3.60347e-18)
(1.65293 0.939669 2.26672e-18)
(1.3482 0.81652 -7.5855e-20)
(1.00337 0.658613 -3.29244e-20)
(0.627909 0.449516 -1.9648e-19)
(0.225266 0.182333 -1.34494e-19)
(2.07039 0.892367 -1.21695e-18)
(1.71062 0.777696 -1.19615e-18)
(1.29832 0.632608 7.33391e-19)
(0.834074 0.438763 -4.84529e-19)
(0.312172 0.182111 -4.20122e-21)
(2.41858 0.735797 -5.90999e-19)
(2.01967 0.645348 5.25265e-19)
(1.55502 0.528777 2.43765e-18)
(1.01757 0.370218 8.08486e-19)
(0.391358 0.155295 5.2621e-19)
(2.68206 0.486697 1.37172e-20)
(2.25243 0.428291 -2.72125e-19)
(1.74748 0.352332 -6.46732e-19)
(1.1548 0.247655 2.05666e-18)
(0.450343 0.104149 -3.26865e-19)
(2.82554 0.173862 -1.17091e-18)
(2.37735 0.152645 -1.60656e-18)
(1.84946 0.125349 -7.28763e-19)
(1.22676 0.0878373 7.96334e-19)
(0.480876 0.0366883 -3.25846e-19)
(0.239173 0.414717 -2.11389e-18)
(0.169492 0.351346 -1.79301e-18)
(0.102486 0.275154 3.08093e-19)
(0.0452836 0.18221 -3.74951e-20)
(-0.00180629 0.0669 3.34787e-20)
(0.370796 0.591395 -8.0755e-19)
(0.27392 0.507382 -6.5098e-19)
(0.178618 0.397231 2.81413e-21)
(0.0924294 0.258056 -2.19636e-20)
(0.0166473 0.0959139 2.29734e-20)
(0.581812 0.750913 2.17186e-18)
(0.446287 0.647581 -1.60209e-19)
(0.307928 0.505668 -1.43499e-19)
(0.174299 0.327631 -2.13957e-19)
(0.0482248 0.12363 1.69038e-19)
(0.86206 0.873218 -1.30161e-18)
(0.679197 0.75713 1.99257e-18)
(0.48529 0.593375 3.26184e-19)
(0.288306 0.388021 9.96937e-20)
(0.0924617 0.149082 -1.17943e-19)
(1.20355 0.924344 -4.42924e-19)
(0.969069 0.811277 -4.59303e-19)
(0.708609 0.644836 3.63324e-19)
(0.433362 0.429108 3.61136e-19)
(0.148474 0.168554 1.90018e-21)
(0.904411 0.155153 -3.82413e-19)
(1.45618 0.143087 5.65145e-20)
(1.27268 0.201329 2.31378e-20)
(0.998604 0.50273 -3.94833e-19)
(0.594502 0.642878 -2.42658e-20)
(0.900066 0.0850856 1.69699e-19)
(1.4575 0.126599 2.55765e-19)
(1.29648 0.240524 1.35151e-19)
(1.05434 0.612563 -9.87281e-20)
(0.783865 0.798618 7.72239e-19)
(0.896114 0.0178667 1.42648e-20)
(1.47143 0.108039 -1.92659e-20)
(1.30809 0.2809 -5.83415e-20)
(1.16733 0.702491 -5.01117e-19)
(1.03757 0.932019 1.75928e-19)
(0.89475 -0.0467697 -2.32211e-20)
(1.48911 0.0892736 -5.63058e-19)
(1.33367 0.320321 1.17311e-19)
(1.33069 0.765532 1.24473e-18)
(1.33475 1.03726 9.36342e-19)
(0.895533 -0.109597 -3.36135e-21)
(1.50445 0.074829 1.34145e-19)
(1.37177 0.361399 -6.86854e-20)
(1.51402 0.807352 -4.1464e-19)
(1.63529 1.08888 -2.76267e-18)
(0.896676 -0.201616 2.27538e-19)
(1.51126 0.0431467 4.0922e-19)
(1.46401 0.362985 -1.31928e-20)
(1.76993 0.789793 2.91799e-18)
(2.15171 1.14111 -5.52315e-18)
(0.872115 -0.330329 -2.68514e-20)
(1.4146 -0.0195514 -6.2262e-19)
(1.43987 0.263382 8.40771e-21)
(1.85237 0.588255 -3.02849e-18)
(2.59585 0.899727 1.66408e-18)
(0.782865 -0.410841 5.37526e-18)
(1.11857 -0.0827413 6.6075e-35)
(1.1487 0.143426 -2.17687e-18)
(1.58071 0.335107 2.69782e-18)
(2.45799 0.528911 5.03312e-18)
(0.632345 -0.290633 1.4995e-19)
(0.728087 -0.069603 5.22133e-19)
(0.739803 0.051401 2.55759e-19)
(1.0767 0.13367 6.25953e-19)
(1.75845 0.220389 -8.63729e-18)
(0.321825 -0.0432951 -4.3007e-18)
(0.296867 0.00457269 2.7849e-19)
(0.267667 -0.012481 1.09243e-18)
(0.39385 -0.0239693 -7.75067e-19)
(0.686049 -0.000365016 -1.46404e-18)
(2.34821 1.1205 4.68279e-18)
(2.78708 1.01222 3.46618e-18)
(3.14079 0.803211 -5.68535e-18)
(3.41898 0.519515 -1.46122e-17)
(3.58244 0.18584 1.57616e-17)
(3.07942 1.01868 5.00726e-18)
(3.35453 0.795156 2.565e-17)
(3.55734 0.560645 7.24478e-18)
(3.70138 0.331813 -3.08369e-17)
(3.7781 0.111124 -5.17383e-18)
(2.90618 0.591863 -7.23294e-18)
(2.98621 0.448069 -3.38152e-18)
(3.05229 0.312149 -6.30264e-18)
(3.0953 0.181781 -6.88936e-18)
(3.11405 0.0584674 6.52247e-18)
(2.1062 0.266018 5.40942e-18)
(2.13005 0.205875 -4.0501e-19)
(2.16249 0.143138 4.86991e-18)
(2.1831 0.0821936 6.28849e-18)
(2.19077 0.0260245 -5.88742e-18)
(0.84241 0.0220956 -5.73951e-19)
(0.85184 0.0156766 3.5191e-18)
(0.86858 0.00914367 2.44246e-18)
(0.877468 0.00479883 -5.16875e-18)
(0.879831 0.00136414 -3.84243e-20)
(0.281897 0.0207545 5.51964e-19)
(0.656601 0.0404622 -7.43358e-19)
(0.973047 0.0440623 -8.18638e-19)
(0.94423 0.0274284 -1.51793e-18)
(0.697773 0.0163836 -6.63698e-19)
(0.245544 0.055454 7.45423e-19)
(0.591199 0.107063 1.44153e-18)
(0.864593 0.125129 -6.96928e-19)
(0.939865 0.096988 1.96036e-18)
(0.724099 0.053231 -2.70086e-18)
(0.185591 0.0742565 4.96008e-19)
(0.476329 0.145879 -1.39937e-18)
(0.707691 0.18474 -9.13745e-19)
(0.857224 0.175388 -1.81062e-18)
(0.7415 0.101204 -2.86197e-18)
(0.123285 0.0774679 -7.72722e-19)
(0.344713 0.160345 -1.37658e-18)
(0.534468 0.214855 4.39715e-18)
(0.67761 0.233263 -3.6647e-19)
(0.713 0.179985 2.25138e-18)
(0.0752637 0.0723661 -6.23401e-19)
(0.230673 0.160106 1.56354e-18)
(0.372206 0.224489 6.08868e-19)
(0.482666 0.257616 -1.29357e-18)
(0.56105 0.258232 -1.75635e-19)
(0.0451463 0.0637941 8.26998e-20)
(0.149937 0.148782 -1.21806e-18)
(0.24768 0.212026 -9.36079e-19)
(0.325239 0.233732 -9.89491e-20)
(0.370978 0.22335 -5.0546e-20)
(0.0264077 0.0556946 3.12011e-19)
(0.0951174 0.134112 5.86919e-19)
(0.160921 0.184092 -2.14632e-19)
(0.21375 0.194305 2.60297e-19)
(0.253666 0.184011 1.72422e-19)
(0.0131921 0.0486664 2.47394e-19)
(0.0586393 0.110635 1.32172e-18)
(0.103668 0.119867 -1.24259e-18)
(0.142636 0.105937 -2.7823e-18)
(0.178865 0.0843936 4.09744e-19)
(0.00608971 0.0390891 -2.36501e-19)
(0.0421947 0.0481026 -1.79315e-18)
(0.0791938 0.0210741 3.20267e-18)
(0.119024 -0.0106797 1.31943e-18)
(0.16026 -0.0444696 -2.69587e-19)
(0.00976191 0.00231909 2.06886e-19)
(0.0415745 -0.0498025 -4.46582e-19)
(0.0813647 -0.0960528 8.9074e-20)
(0.129732 -0.144074 1.06266e-19)
(0.180091 -0.190341 5.51095e-21)
(0.338986 0.0702645 -8.2086e-20)
(0.618011 -0.0420648 -1.21882e-18)
(0.704446 -0.0147471 2.56046e-19)
(0.726794 1.72394e-07 3.78421e-19)
(0.729475 0.000167073 1.77251e-20)
(0.303947 -0.036612 -9.99268e-20)
(0.754005 -0.114698 1.43054e-18)
(0.887638 -0.0256506 9.25162e-19)
(0.927445 -0.00102545 7.83473e-20)
(0.93841 0.000346896 -4.62699e-20)
(0.319293 -0.151533 -7.94856e-19)
(0.834848 -0.197699 3.03853e-18)
(1.04604 -0.046394 -1.85165e-19)
(1.11133 -0.00394172 -3.49773e-19)
(1.12918 0.000180209 8.86295e-20)
(0.373208 -0.289432 1.08882e-18)
(0.879198 -0.296426 -2.57469e-18)
(1.15979 -0.0892967 -5.15981e-19)
(1.26893 -0.0138768 -3.5304e-20)
(1.29926 -0.00181635 -1.15608e-20)
(0.459779 -0.43722 5.09279e-19)
(0.911217 -0.402889 -5.64873e-19)
(1.22887 -0.147344 4.46231e-19)
(1.37016 -0.0363362 1.3454e-19)
(1.42274 -0.00823532 -4.27426e-20)
(0.183018 -0.0448857 9.54381e-19)
(0.145875 -0.0050668 0)
(0.163023 0.00130991 1.18463e-19)
(0.164932 0.000244964 1.80101e-20)
(0.163134 -0.000160853 -8.13649e-20)
(0.400643 0.0698236 0)
(0.411641 -0.000653022 0)
(0.467629 -0.00472375 7.02527e-20)
(0.476049 0.000703502 3.07712e-20)
(0.472828 0.000150975 2.5295e-20)
(0.162645 -0.000821079 -3.68364e-19)
(0.186356 -0.00179218 3.10716e-18)
(0.21316 -0.0050216 -6.866e-19)
(0.229759 -0.0149894 -3.11644e-18)
(0.245655 -0.0169868 -7.96896e-19)
(0.431929 0.00444022 6.09786e-19)
(0.48445 0.0196901 4.11532e-18)
(0.536349 0.0466742 -6.73168e-18)
(0.567577 0.0805522 2.20861e-18)
(0.598366 0.162173 3.79316e-18)
(0.370535 -0.219859 -3.36325e-19)
(0.324086 -0.23092 -8.99236e-20)
(0.248272 -0.212286 -3.16489e-19)
(0.150747 -0.150685 3.83707e-19)
(0.0458437 -0.0645983 1.14398e-19)
(0.25778 -0.167668 4.19963e-19)
(0.215133 -0.179902 1.41561e-18)
(0.162386 -0.175625 2.69512e-19)
(0.096758 -0.134503 2.34975e-19)
(0.0267797 -0.0571114 -1.76777e-20)
(0.193054 -0.0527287 -3.09017e-19)
(0.151451 -0.0752977 -1.01873e-19)
(0.108576 -0.0928542 1.63211e-18)
(0.0622807 -0.0954644 2.90714e-19)
(0.0130402 -0.0475479 -3.0837e-19)
(0.176848 0.0878289 -6.35362e-19)
(0.131235 0.0541085 -7.06927e-19)
(0.0867084 0.0206405 1.29924e-18)
(0.0487905 -0.00919588 1.58945e-18)
(0.0111809 -0.0289683 1.98508e-19)
(0.185772 0.243359 1.23865e-19)
(0.132062 0.197179 -1.1963e-19)
(0.0803246 0.147552 2.48233e-19)
(0.0372119 0.0966219 6.08422e-19)
(-0.00261555 0.0353953 8.76726e-20)
(0.69777 -0.0163387 1.53113e-18)
(0.944236 -0.027405 -1.80065e-18)
(0.972855 -0.0441875 2.26953e-18)
(0.656613 -0.0405246 3.6433e-19)
(0.281931 -0.0207632 5.36525e-19)
(0.724091 -0.0531214 1.77176e-18)
(0.939724 -0.0970009 7.94628e-18)
(0.864388 -0.125232 1.03351e-18)
(0.591251 -0.107102 1.34918e-18)
(0.245639 -0.0554751 -4.78364e-19)
(0.74143 -0.100948 -1.22273e-18)
(0.856615 -0.175214 -2.29491e-18)
(0.707608 -0.184797 2.92383e-18)
(0.476395 -0.145948 -1.08454e-19)
(0.185714 -0.0742925 3.39605e-19)
(0.712506 -0.179788 2.292e-20)
(0.676877 -0.233179 -7.6797e-18)
(0.534494 -0.21517 -5.99367e-18)
(0.344847 -0.160681 1.09112e-18)
(0.123467 -0.0775741 5.08045e-19)
(0.558609 -0.256592 4.7322e-19)
(0.481587 -0.256911 5.32588e-19)
(0.372256 -0.225144 -8.96361e-19)
(0.230928 -0.160972 -8.86962e-19)
(0.0756114 -0.0726293 -5.13943e-21)
(0.725184 0.372178 1.16866e-18)
(0.894925 0.123638 -1.90405e-19)
(0.688749 0.0197865 2.63954e-19)
(0.65044 0.0392324 -7.65688e-19)
(0.363636 -0.0602784 -1.01511e-19)
(0.823474 0.396498 -1.66772e-19)
(1.11255 0.15063 -5.24739e-19)
(0.880272 0.0394587 8.22005e-19)
(0.808093 0.10476 1.67134e-18)
(0.342043 0.0563498 1.06608e-19)
(0.884093 0.36874 -2.1021e-18)
(1.307 0.162838 -3.73674e-20)
(1.04564 0.067162 2.23529e-19)
(0.906815 0.185584 1.56299e-18)
(0.364126 0.178485 -1.34697e-18)
(0.904506 0.305442 1.3239e-18)
(1.45934 0.161981 2.5146e-20)
(1.16351 0.108853 -1.71901e-19)
(0.955555 0.283874 -4.69922e-19)
(0.411139 0.323793 -5.36447e-19)
(0.906917 0.229055 1.43578e-19)
(1.46941 0.153909 -6.76818e-21)
(1.23061 0.155892 -3.69055e-20)
(0.977593 0.390367 -4.29576e-21)
(0.479165 0.479661 1.35646e-18)
(0.275166 0.0483755 0)
(0.245555 -0.0106122 6.37589e-19)
(0.160166 -0.0157224 1.2879e-19)
(0.152022 0.00521762 -1.31941e-19)
(0.184529 0.0439016 -1.80791e-18)
(0.571891 0.265948 -1.01889e-17)
(0.61509 0.0740699 -2.50997e-18)
(0.453625 0.0123402 5.11562e-19)
(0.428671 0.00163495 -6.72958e-19)
(0.408809 -0.0679759 -6.63544e-19)
(0.245805 0.0169348 -1.18907e-21)
(0.229858 0.0150745 1.92818e-18)
(0.213237 0.00506394 5.23813e-19)
(0.186406 0.00180185 3.23173e-19)
(0.162661 0.000824914 0)
(0.599335 -0.162027 -1.06476e-19)
(0.568171 -0.0802299 2.55184e-18)
(0.536463 -0.0464449 -1.35098e-19)
(0.48451 -0.0196369 -2.69787e-19)
(0.431953 -0.00441804 7.6024e-19)
)
;

boundaryField
{
    left
    {
        type            fixedValue;
        value           uniform (1 0 0);
    }
    right
    {
        type            zeroGradient;
    }
    down
    {
        type            noSlip;
    }
    up
    {
        type            noSlip;
    }
    cylinder
    {
        type            noSlip;
    }
    defaultFaces
    {
        type            empty;
    }
}


// ************************************************************************* //
