/*--------------------------------*- C++ -*----------------------------------*\
  =========                 |
  \\      /  F ield         | OpenFOAM: The Open Source CFD Toolbox
   \\    /   O peration     | Website:  https://openfoam.org
    \\  /    A nd           | Version:  13
     \\/     M anipulation  |
\*---------------------------------------------------------------------------*/
FoamFile
{
    format      ascii;
    class       volVectorField;
    location    "56.8";
    object      U;
}
// * * * * * * * * * * * * * * * * * * * * * * * * * * * * * * * * * * * * * //

dimensions      [0 1 -1 0 0 0 0];

internalField   nonuniform List<vector> 
440
(
(-0.0906307 0.0638048 -7.05873e-20)
(-0.108709 0.0782901 5.73742e-20)
(0.0741136 0.0469282 1.35367e-19)
(0.536358 0.0265899 3.64113e-20)
(0.632365 0.114015 1.71483e-20)
(-0.0982484 0.0556241 4.52622e-20)
(0.0897242 0.00671486 -1.42107e-19)
(0.659053 -0.0536412 -1.33329e-19)
(1.247 -0.0905062 7.3252e-20)
(1.80729 -0.122882 1.72718e-20)
(-0.0130518 0.00155835 5.59189e-20)
(0.608125 -0.0585892 8.47974e-19)
(1.44208 -0.0637305 -5.43771e-19)
(2.04582 -0.0502077 -1.72397e-18)
(2.51049 -0.047769 7.27763e-19)
(0.228282 -0.0512801 -1.82472e-19)
(1.3214 -0.00448894 -6.11967e-19)
(2.09076 0.0484865 2.00497e-18)
(2.46884 0.0724658 2.19417e-18)
(2.49525 0.0766868 -6.19547e-19)
(0.620019 -0.00258642 -3.19321e-19)
(1.83183 0.175415 -6.88509e-19)
(2.34847 0.236592 2.10281e-18)
(2.46848 0.239387 2.24e-18)
(2.56063 0.212783 7.4864e-19)
(-0.036013 0.626761 2.39215e-19)
(-0.188203 0.899935 4.99752e-19)
(-0.316271 0.824787 -9.34185e-19)
(-0.402953 0.740893 1.24565e-19)
(-0.428958 0.702354 8.32767e-19)
(-0.0581012 0.460045 -3.65207e-20)
(-0.054332 0.958687 -1.80837e-19)
(-0.0539278 1.05976 -3.23811e-20)
(-0.0454453 0.980869 -3.29302e-20)
(-0.0113279 0.837022 6.00507e-20)
(-0.0493023 0.169651 1.01668e-19)
(-0.053301 0.589391 -2.33089e-19)
(-0.0248891 0.825944 8.9556e-20)
(0.0257996 0.890578 4.47142e-20)
(0.0977306 0.842915 2.79938e-21)
(-0.0212075 0.0356668 -4.08099e-20)
(-0.0697747 0.245106 9.46333e-20)
(-0.0670243 0.456974 -7.46781e-21)
(-0.0144512 0.579888 -1.39694e-19)
(0.026719 0.667011 -1.44179e-21)
(-0.0439503 0.0327508 -4.74841e-20)
(-0.12798 0.112225 -6.5389e-20)
(-0.142051 0.205051 -1.68878e-19)
(-0.0163473 0.268664 5.12041e-20)
(0.059204 0.388128 -2.96074e-19)
(-0.561332 0.554345 1.41925e-18)
(1.84606 -0.97925 2.12852e-18)
(1.15865 -0.770612 4.14846e-19)
(1.40978 0.421137 -6.56088e-19)
(1.15609 0.165636 3.87184e-20)
(0.159898 0.260449 -1.03653e-18)
(1.92233 -1.22231 -3.29898e-19)
(1.43669 -0.775809 1.4522e-19)
(1.44804 0.402067 8.60565e-19)
(1.22029 0.184036 -6.14681e-20)
(0.274547 0.0552325 -3.1577e-19)
(1.53288 -1.38354 1.31071e-18)
(1.21159 -0.766214 -9.61492e-20)
(1.3684 0.459889 4.99676e-19)
(1.2273 0.216907 1.21416e-21)
(0.79225 0.0904306 1.31994e-19)
(1.73341 -1.32981 -1.57949e-19)
(1.09813 -0.839318 6.78922e-20)
(1.13441 0.426722 1.46121e-19)
(1.23475 0.211458 -9.19541e-21)
(1.51698 -0.194692 -1.70622e-19)
(2.20593 -1.24458 7.43338e-19)
(1.11989 -0.757928 0)
(0.698474 0.431854 -3.393e-19)
(1.29355 0.166193 2.92945e-20)
(2.1731 -0.264719 -5.22882e-19)
(2.66048 -0.974586 -2.60657e-20)
(1.35826 -0.667498 -1.58513e-20)
(0.753371 0.327684 -1.34079e-19)
(1.48075 0.033231 -9.61659e-20)
(2.34292 -0.479776 3.33633e-20)
(2.45233 -0.928269 8.89978e-19)
(0.633419 -0.198174 -9.42547e-21)
(0.913968 0.376981 2.68318e-19)
(1.58716 -0.0668598 0)
(2.18585 -0.391437 -3.70505e-19)
(2.12336 -0.403628 8.78406e-21)
(0.588334 -0.0627187 -3.64996e-20)
(1.39263 0.0170979 -7.89044e-20)
(1.60922 -0.201743 4.04885e-21)
(2.17006 -0.343477 7.03699e-20)
(1.4389 -0.292664 9.18966e-20)
(0.807339 0.0775597 -1.70866e-20)
(1.48957 -0.0799338 -4.50464e-35)
(1.10983 -0.144308 -1.25332e-20)
(1.1537 -0.0853844 1.70546e-19)
(0.415239 0.0561077 -2.12511e-20)
(0.626441 -0.0557708 -2.78497e-20)
(0.473705 -0.105873 2.05941e-20)
(0.0404116 -0.0209721 -1.18069e-20)
(2.39087 0.22078 -9.23635e-19)
(2.63242 -0.00254611 -1.15245e-18)
(2.42888 0.0170132 8.92338e-19)
(2.7827 -0.175825 5.38252e-20)
(2.15341 -0.0309882 -1.50015e-20)
(2.05696 0.153465 4.64632e-20)
(2.42435 -0.0305615 -3.89314e-20)
(2.19355 -0.0334498 -1.28309e-19)
(2.46576 -0.196512 -2.21359e-19)
(2.33032 -0.252847 -5.10168e-21)
(2.08981 0.0703215 6.44192e-20)
(2.21178 -0.0264211 1.09322e-19)
(2.20342 -0.0743936 -1.4681e-19)
(2.22687 -0.151323 4.70154e-20)
(2.27314 -0.220471 3.05992e-20)
(2.09616 0.00544829 1.08343e-19)
(2.11789 -0.057403 1.06441e-19)
(2.16296 -0.0784709 -1.74647e-20)
(2.15758 -0.137297 -4.17413e-21)
(2.18231 -0.16595 2.67763e-20)
(1.57331 -0.0296453 1.46851e-19)
(1.49999 -0.0298638 -1.28121e-20)
(1.54206 -0.0468057 2.75471e-20)
(1.43435 -0.0430691 -9.12131e-21)
(1.47555 -0.0701382 3.67996e-20)
(1.5603 0.822622 1.14475e-18)
(1.52544 0.929006 -3.79438e-19)
(1.53404 1.06615 -1.37302e-18)
(1.46266 1.11392 7.35133e-19)
(0.891876 0.794604 -1.67916e-19)
(1.86892 0.809298 -5.79096e-19)
(1.83225 0.882751 -3.05926e-18)
(1.83461 0.986101 -1.17776e-18)
(1.74486 0.996937 -4.07524e-19)
(1.06187 0.695217 -6.65223e-19)
(2.15681 0.66151 7.6631e-19)
(2.14771 0.737114 1.97666e-19)
(2.1275 0.829339 -2.31104e-18)
(1.98941 0.817729 -6.51047e-19)
(1.17508 0.543267 4.80373e-19)
(2.34871 0.556984 2.29985e-18)
(2.32643 0.60384 1.71288e-18)
(2.3205 0.656632 -1.98283e-18)
(2.11168 0.61708 -1.51666e-18)
(1.15964 0.360683 -2.78963e-19)
(2.47038 0.386156 1.17886e-18)
(2.50232 0.41317 -8.30824e-19)
(2.4121 0.440905 6.03215e-19)
(2.07732 0.390093 4.78137e-19)
(0.985158 0.162633 -4.10342e-19)
(0.57472 0.489383 -6.38202e-19)
(0.481302 0.526833 -4.78272e-19)
(0.361944 0.563339 5.09045e-20)
(0.225188 0.561493 -1.71559e-21)
(0.0553118 0.394315 8.13513e-20)
(0.681346 0.643855 8.73994e-20)
(0.616808 0.69911 -2.88136e-19)
(0.527277 0.763695 1.75603e-19)
(0.402178 0.821776 -8.22353e-20)
(0.175589 0.622824 1.16789e-19)
(0.774593 0.858851 1.09125e-19)
(0.703816 0.943045 4.54072e-19)
(0.649117 1.0364 1.18851e-19)
(0.563316 1.06471 -3.05174e-19)
(0.307415 0.774661 2.57921e-19)
(1.04947 0.904001 2.32456e-19)
(0.999225 0.984597 -7.39346e-19)
(0.95274 1.08615 -1.94858e-18)
(0.87375 1.154 7.70547e-19)
(0.513012 0.850463 -1.5587e-19)
(1.13098 0.975525 -9.31822e-20)
(1.16486 1.09063 -1.68812e-19)
(1.18391 1.19583 -3.80879e-19)
(1.12694 1.21021 -4.23449e-19)
(0.689023 0.857483 -6.60502e-21)
(1.01566 0.0381017 -8.66276e-20)
(1.00668 0.0406156 -2.82255e-20)
(1.03666 0.143199 -1.38869e-21)
(0.940482 0.142208 -1.84035e-19)
(0.90803 0.300385 2.92877e-19)
(1.0055 0.0336889 5.3898e-20)
(1.02498 0.0380511 1.07765e-19)
(1.01459 0.155496 1.17117e-19)
(0.986407 0.166059 2.57264e-20)
(0.934622 0.383378 -8.83464e-21)
(1.01621 0.031568 7.16529e-20)
(1.00444 0.0305071 -4.27246e-21)
(1.05914 0.1768 -4.06746e-21)
(0.929582 0.162931 1.31457e-19)
(1.15456 0.527858 -4.72631e-19)
(1.01636 0.0295354 -2.49629e-22)
(1.01593 0.0241838 -1.53071e-19)
(1.03799 0.200034 -5.84761e-20)
(1.03959 0.153481 -3.42727e-19)
(1.17082 0.58784 8.25047e-20)
(1.02266 0.022271 -1.11452e-20)
(0.997128 0.0305206 4.27564e-20)
(1.0873 0.19482 2.67639e-20)
(1.02077 0.180772 4.29067e-19)
(1.38703 0.712985 -4.66881e-19)
(1.00028 0.0261442 -5.61962e-21)
(1.03601 0.00894581 9.20738e-20)
(1.05482 0.223878 -5.11029e-20)
(1.27691 0.0946844 9.7125e-19)
(1.30897 0.784055 -3.32589e-19)
(0.956513 -0.00083952 -1.26379e-21)
(1.09694 0.0209124 -8.00119e-20)
(0.976673 0.133006 5.35359e-21)
(1.43255 0.0736214 -3.41821e-19)
(1.33075 0.571732 -8.03572e-20)
(0.975843 -0.00216351 5.69283e-21)
(1.06412 0.0290287 1.31475e-35)
(1.1175 0.0615787 -1.65975e-20)
(1.38167 0.0228765 1.05767e-19)
(1.36187 0.412963 1.69888e-19)
(1.02427 -0.0320776 3.71816e-21)
(1.01267 -0.0102256 -2.40877e-20)
(1.27636 -0.0193976 2.13623e-20)
(1.08046 0.0261446 1.98477e-20)
(1.47134 0.310935 -2.52029e-19)
(0.944594 -0.0214568 -3.72553e-20)
(0.854574 -0.0273957 -1.07904e-21)
(0.926969 -0.0046714 2.69827e-20)
(0.683181 0.0117045 -2.21598e-20)
(1.18662 0.0815001 -5.75912e-20)
(1.79982 0.581244 2.79725e-19)
(1.90479 0.646513 7.25342e-19)
(2.16246 0.476917 -1.04706e-18)
(2.22621 0.482543 2.43735e-20)
(2.43918 0.254712 4.36302e-19)
(1.77105 0.368368 8.94288e-20)
(1.77062 0.441401 9.80305e-19)
(2.02048 0.304762 1.08939e-19)
(1.93617 0.330242 -8.52751e-19)
(2.26165 0.140736 -2.72622e-19)
(1.70364 0.303879 -2.2288e-19)
(1.77398 0.306816 -1.41959e-19)
(1.92624 0.223879 2.38944e-19)
(1.94529 0.203989 -2.69088e-19)
(2.11191 0.0987619 2.46129e-19)
(1.69878 0.187712 3.91497e-19)
(1.82 0.166082 1.68262e-21)
(1.88746 0.104912 2.08563e-19)
(1.98094 0.0865231 1.64032e-19)
(2.02948 0.0220753 -1.64045e-19)
(1.39079 0.0389724 -5.16358e-20)
(1.49291 0.020279 2.43836e-19)
(1.50361 0.00606051 9.88391e-20)
(1.56711 -0.00894151 -1.96916e-19)
(1.52667 -0.0157311 6.44564e-22)
(1.16098 -0.0162567 7.31425e-20)
(2.15982 -0.0305984 -4.6204e-19)
(2.38437 -0.0209507 1.25927e-18)
(2.36516 0.017559 5.6815e-19)
(2.18004 0.0387447 -3.99771e-19)
(0.761056 0.103731 1.52414e-19)
(1.94591 0.111144 -4.91547e-19)
(2.38108 0.116578 -6.90674e-19)
(2.40885 0.1223 8.98367e-19)
(2.17816 0.107964 -6.32235e-19)
(0.286881 0.101106 8.74398e-22)
(1.36794 0.188078 5.768e-19)
(2.073 0.219213 7.86462e-20)
(2.42392 0.215848 7.71419e-19)
(2.49767 0.200947 3.9491e-19)
(0.0153278 0.0111486 1.98989e-19)
(0.5824 0.138905 2.18862e-19)
(1.34995 0.221903 -6.14351e-19)
(1.82543 0.261844 5.38005e-20)
(2.35142 0.288355 4.29627e-19)
(-0.0496939 -0.0378441 1.02441e-19)
(0.112689 0.0277784 -1.48351e-19)
(0.580162 0.132944 -1.25357e-19)
(1.04129 0.193232 1.23367e-19)
(1.49765 0.292074 6.47358e-20)
(-0.0630701 -0.0768646 2.55843e-20)
(-0.0730049 -0.0893057 7.79943e-20)
(0.0714743 -0.0396443 1.19533e-19)
(0.286001 0.0539106 -4.07265e-19)
(0.693561 0.151653 2.27689e-21)
(-0.0185617 -0.0289879 1.83565e-21)
(-0.00632216 -0.0338902 -5.96417e-20)
(0.0465468 0.0158115 -5.54778e-20)
(0.128545 0.104041 8.57067e-20)
(0.305058 0.242632 7.2391e-20)
(-0.0385464 -0.180948 1.87185e-20)
(0.0222277 -0.276959 -4.94168e-19)
(0.0803211 -0.225914 3.44718e-19)
(0.103809 -0.132139 2.68843e-19)
(0.139891 -0.0187917 -1.9737e-20)
(-0.0961746 -0.339841 1.34587e-19)
(-0.171782 -0.238538 7.7493e-19)
(-0.181329 0.0781089 -1.72023e-18)
(-0.219382 0.28072 -1.14213e-18)
(-0.218634 0.400909 1.53545e-19)
(-0.112091 0.126715 -1.09313e-19)
(-0.456168 0.257035 3.37499e-19)
(-0.660955 0.372788 -9.50617e-20)
(-0.761253 0.432989 -2.48402e-20)
(-0.799962 0.472535 4.45511e-19)
(1.09783 0.720419 -6.31891e-20)
(0.373128 -0.0505884 9.00546e-19)
(1.35314 0.0695272 -6.65362e-20)
(0.617964 0.122345 4.90373e-20)
(0.489493 -0.0727619 -3.24881e-21)
(1.05687 0.822958 1.9652e-19)
(-0.197029 -0.170684 -3.18702e-19)
(1.44142 0.0418876 -4.39275e-19)
(0.938567 0.214914 1.83513e-20)
(0.675407 -0.0384566 -9.28902e-21)
(0.848078 0.720797 -4.14998e-19)
(-0.938189 -0.244605 -4.38269e-19)
(1.5171 -0.157064 -2.93904e-21)
(1.23109 0.29708 -3.7376e-19)
(0.872697 0.0108178 9.52565e-21)
(0.0376071 0.984062 8.45411e-19)
(-0.795425 -0.467195 -5.01001e-18)
(1.32925 -0.485765 2.79295e-20)
(1.40869 0.382684 -1.6247e-20)
(1.03347 0.0722141 3.62714e-20)
(-0.840512 0.754548 7.01415e-20)
(0.627625 -0.858722 -6.85902e-19)
(0.991334 -0.764786 1.43891e-19)
(1.49537 0.371511 5.31971e-20)
(1.14594 0.123538 8.44749e-20)
(-0.00983717 0.147028 -1.37703e-19)
(-0.313645 -0.146164 0)
(0.156775 -0.0906413 -2.10137e-20)
(-0.0723181 -0.0427353 3.67933e-20)
(0.302971 -0.0242207 -1.28097e-20)
(1.56133 0.581214 0)
(0.77064 0.0924635 0)
(1.14927 0.0286816 2.71359e-19)
(0.28966 -0.0073788 4.04614e-20)
(0.44855 -0.0835463 2.61614e-20)
(0.703222 0.00198367 -1.27928e-19)
(0.72364 -0.00256917 2.4802e-19)
(0.927894 0.00761494 -4.99199e-20)
(0.863269 0.0165088 3.29546e-19)
(1.26022 0.113176 2.23972e-19)
(1.58457 0.0297677 1.2189e-19)
(1.69893 0.073884 3.55565e-19)
(1.86564 0.0856347 -5.92067e-19)
(2.30903 0.217255 1.5894e-19)
(2.13791 0.228719 3.77154e-19)
(0.892744 -0.468608 -2.31315e-20)
(0.879139 -0.556928 -1.6869e-19)
(0.867574 -0.652405 -1.14518e-19)
(0.797271 -0.719203 6.99819e-20)
(0.487081 -0.565653 1.30375e-19)
(0.787793 -0.369417 1.18229e-19)
(0.733333 -0.434017 2.22442e-19)
(0.662638 -0.505662 -5.48478e-20)
(0.554115 -0.567613 1.43091e-19)
(0.304457 -0.455287 5.38766e-20)
(0.646192 -0.228279 -1.35932e-19)
(0.56164 -0.267751 -5.57633e-20)
(0.461078 -0.316188 9.68072e-20)
(0.340382 -0.359505 -1.93176e-20)
(0.150972 -0.292359 -1.26776e-19)
(0.548226 0.00383231 -4.29311e-19)
(0.461915 -0.0102994 -3.51419e-19)
(0.350767 -0.0317951 2.82952e-19)
(0.223162 -0.0618268 1.64116e-19)
(0.0606223 -0.0738679 1.34578e-20)
(0.52374 0.209532 -1.49768e-19)
(0.437358 0.211481 -1.59363e-19)
(0.319985 0.213012 -5.7634e-20)
(0.182206 0.219708 3.13081e-20)
(0.0264268 0.161322 1.20579e-20)
(1.96281 -0.0365226 8.07921e-19)
(2.21171 -0.099668 2.70368e-19)
(2.29471 -0.180973 -7.14587e-19)
(2.15566 -0.206976 -1.48158e-18)
(1.30306 -0.181312 1.28651e-19)
(1.92999 -0.120454 1.32334e-18)
(2.02963 -0.228686 1.76279e-18)
(2.05523 -0.346526 1.4917e-19)
(1.97804 -0.403263 2.64189e-19)
(1.26844 -0.351133 -1.74611e-19)
(1.6597 -0.278337 -3.40631e-18)
(1.72723 -0.393585 3.67513e-19)
(1.77598 -0.51558 1.07746e-18)
(1.71824 -0.586867 -3.98965e-19)
(1.11633 -0.49347 6.3506e-19)
(1.45018 -0.399431 8.16424e-19)
(1.47351 -0.497299 -2.17541e-18)
(1.46728 -0.612946 -2.47103e-18)
(1.40252 -0.695395 7.49465e-19)
(0.906356 -0.569323 5.18307e-19)
(1.17801 -0.455956 1.71895e-19)
(1.14251 -0.548866 2.51879e-19)
(1.13598 -0.667305 -3.76727e-19)
(1.08177 -0.750035 -4.53573e-19)
(0.687095 -0.5954 -4.19833e-21)
(1.07298 0.0518495 7.2318e-21)
(0.93577 0.06146 -8.27018e-22)
(1.10839 0.0845289 6.21547e-21)
(0.814256 0.010632 -2.41964e-19)
(1.06073 -0.191931 -1.71204e-20)
(1.082 0.0531238 -2.38617e-21)
(0.932383 0.0593306 3.07302e-20)
(1.11029 0.103011 -1.26877e-20)
(0.895081 0.0591685 1.87493e-19)
(0.971603 -0.0778276 -2.49438e-21)
(1.07911 0.0480459 -5.68974e-20)
(0.935907 0.0559154 -2.52947e-23)
(1.09725 0.106688 -1.22695e-20)
(0.898532 0.0820196 1.03667e-19)
(0.940715 -0.0158738 -2.26991e-19)
(1.05853 0.0451603 6.80582e-20)
(0.962234 0.0508288 2.96833e-21)
(1.06563 0.115686 2.58508e-20)
(0.928313 0.10685 -4.45396e-20)
(0.861624 0.091579 7.53932e-20)
(1.03094 0.0404768 1.69019e-20)
(0.995193 0.0485211 -2.41162e-20)
(1.03425 0.124036 3.83944e-20)
(0.953863 0.132577 4.14068e-20)
(0.84166 0.194765 -6.98348e-20)
(0.891978 0.0339536 0)
(0.710644 0.0284031 9.5406e-21)
(0.590169 0.022433 6.26464e-21)
(0.335894 -0.00540047 4.44072e-20)
(0.642988 -0.050636 -1.50592e-19)
(1.03974 0.0735804 -6.43391e-20)
(0.944906 0.0759912 -7.67123e-21)
(1.01003 0.0837496 -5.57805e-20)
(0.796763 0.00292652 -1.42461e-19)
(1.00126 -0.179083 -1.62429e-19)
(0.887121 -0.0652963 -3.55742e-20)
(0.974148 -0.0319525 5.22447e-19)
(1.0615 0.0349665 3.0788e-19)
(0.942261 0.0500508 3.21506e-20)
(0.733493 0.0266042 0)
(1.23964 -0.304463 3.39617e-19)
(1.35239 -0.269136 1.46621e-18)
(1.52148 -0.151675 -1.58112e-18)
(1.61683 -0.0213798 -4.87922e-19)
(1.52474 0.0261067 3.7951e-19)
)
;

boundaryField
{
    left
    {
        type            fixedValue;
        value           uniform (1 0 0);
    }
    right
    {
        type            zeroGradient;
    }
    down
    {
        type            noSlip;
    }
    up
    {
        type            noSlip;
    }
    cylinder
    {
        type            noSlip;
    }
    defaultFaces
    {
        type            empty;
    }
}


// ************************************************************************* //
