/*--------------------------------*- C++ -*----------------------------------*\
  =========                 |
  \\      /  F ield         | OpenFOAM: The Open Source CFD Toolbox
   \\    /   O peration     | Website:  https://openfoam.org
    \\  /    A nd           | Version:  13
     \\/     M anipulation  |
\*---------------------------------------------------------------------------*/
FoamFile
{
    format      ascii;
    class       volScalarField;
    location    "72.9";
    object      p;
}
// * * * * * * * * * * * * * * * * * * * * * * * * * * * * * * * * * * * * * //

dimensions      [0 2 -2 0 0 0 0];

internalField   nonuniform List<scalar> 
440
(
-1.28491
-1.26937
-1.26405
-1.25999
-1.28609
-1.34467
-1.32364
-1.29781
-1.26615
-1.22866
-1.47669
-1.43618
-1.37618
-1.29421
-1.2004
-1.60056
-1.54168
-1.42004
-1.27353
-1.12571
-1.66762
-1.58335
-1.39728
-1.20488
-1.03026
-0.67431
-0.672982
-0.675932
-0.685059
-0.691851
-0.939097
-0.957657
-1.00037
-1.07272
-1.15421
-1.16428
-1.18456
-1.23012
-1.30848
-1.42129
-1.23336
-1.23508
-1.2433
-1.26393
-1.30635
-1.24349
-1.23439
-1.22728
-1.22431
-1.22227
-0.583789
0.382536
-0.759099
-0.586548
-0.213914
-0.890965
0.588637
-0.957386
-0.70746
-0.2141
-1.2406
0.455327
-1.10936
-0.652972
-0.20323
-1.29026
0.282691
-1.03103
-0.538572
-0.18009
-1.15045
0.405801
-0.518295
-0.492347
-0.152277
-0.814816
0.745845
0.285343
-0.534451
-0.128952
-0.373776
0.439653
0.295516
-0.390572
-0.109009
-0.206021
0.54446
0.526999
-0.12087
-0.0969117
-0.0944421
0.432955
0.56243
0.0436595
-0.0931178
-0.0607652
0.484637
0.634677
0.204174
-0.0741746
-0.734123
-0.848858
-0.998355
-1.13337
-1.27856
-0.429356
-0.545403
-0.616822
-0.657862
-0.658957
-0.229302
-0.326971
-0.373734
-0.395093
-0.3889
-0.111876
-0.19626
-0.242929
-0.256317
-0.242751
-0.0585413
-0.140904
-0.185675
-0.197107
-0.174599
0.691517
0.535316
0.337965
0.113308
-0.139311
0.240963
0.0717712
-0.134428
-0.371023
-0.646126
-0.196381
-0.374389
-0.598015
-0.846276
-1.10891
-0.580936
-0.766528
-0.997015
-1.24391
-1.45149
-0.848603
-1.04053
-1.26074
-1.49085
-1.63121
1.94277
1.9713
1.99767
2.01015
2.0052
1.7322
1.74901
1.75886
1.75103
1.72117
1.48922
1.47654
1.44008
1.37929
1.29035
1.21182
1.17389
1.09967
0.992543
0.85229
0.95652
0.849147
0.709291
0.54482
0.342934
1.72809
1.71269
1.70389
1.75809
1.84124
1.71645
1.69885
1.6812
1.72675
1.74096
1.70586
1.68243
1.65616
1.68345
1.61323
1.69648
1.66405
1.62847
1.63035
1.43131
1.68836
1.64423
1.59931
1.57185
1.24019
1.68104
1.616
1.5621
1.46996
1.02557
1.67441
1.57821
1.53127
1.37906
1.08355
1.68177
1.55481
1.5007
1.32735
1.05084
1.67039
1.5315
1.4812
1.29153
1.00925
1.71014
1.52683
1.47288
1.27388
0.986412
0.665372
0.33621
-0.0224759
-0.342144
-0.548631
0.578673
0.35741
0.114907
-0.102931
-0.287829
0.578753
0.406426
0.222288
0.052512
-0.108991
0.609124
0.457264
0.300067
0.148921
0.00308625
0.624672
0.484986
0.339505
0.193742
0.0527406
-0.853717
-0.736199
-0.588145
-0.467467
-0.395695
-0.887753
-0.833733
-0.723118
-0.633246
-0.579296
-0.796286
-0.75112
-0.689637
-0.63745
-0.602536
-0.644689
-0.608003
-0.571448
-0.54349
-0.524327
-0.533629
-0.514416
-0.49075
-0.480996
-0.504284
-0.477811
-0.471734
-0.449805
-0.458718
-0.438299
-0.462272
-0.458976
-0.448548
-0.445856
-0.437541
-0.472191
-0.467704
-0.457321
-0.440137
-0.425675
-0.500042
-0.492051
-0.48105
-0.464843
-0.431176
-0.542972
-0.536198
-0.524383
-0.508479
-0.490881
-0.494995
-0.120901
-0.00646656
-0.460429
-0.0358784
-0.450438
-0.0931706
-0.0925987
-0.449694
-0.0942079
-0.329841
-0.0759632
-0.203944
-0.456558
-0.148992
-0.374108
-0.054586
-0.357299
-0.486982
-0.188523
-0.463459
0.00285157
-0.548434
-0.456252
-0.20684
0.0104342
-0.249416
0.00115195
-0.429041
0.0587018
-0.392325
-0.229837
0.0664473
-0.436592
0.0208445
-0.355671
-0.566156
-0.55699
-0.528744
-0.293193
-0.372678
-0.559164
-0.579988
-0.521346
-0.527936
1.76491
1.74744
1.71427
1.66682
1.60432
1.91218
1.93466
1.94295
1.93578
1.91428
2.03328
2.06696
2.09271
2.1068
2.10773
2.08914
2.12805
2.16888
2.20247
2.21851
2.06047
2.09633
2.13549
2.16752
2.18159
-0.0159901
-0.109041
-0.255183
-0.432572
-0.627293
0.495512
0.375146
0.21397
0.0202234
-0.215843
0.953627
0.828024
0.678031
0.501739
0.287224
1.31484
1.21959
1.10316
0.961824
0.793939
1.60103
1.53652
1.45102
1.34821
1.22885
1.79812
1.75553
1.75939
1.78874
1.8417
1.78169
1.75021
1.75396
1.79634
1.87892
1.76723
1.74332
1.74827
1.80398
1.93098
1.75345
1.735
1.73745
1.799
1.92509
1.74036
1.72498
1.7223
1.78374
1.90044
1.85601
1.76543
1.75488
1.72816
1.74311
1.8096
1.75476
1.74732
1.74579
1.74954
1.50178
1.33151
1.01392
0.537361
0.0119867
1.57057
1.35524
1.02467
0.553983
0.0193502
)
;

boundaryField
{
    left
    {
        type            zeroGradient;
    }
    right
    {
        type            fixedValue;
        value           uniform 0;
    }
    down
    {
        type            zeroGradient;
    }
    up
    {
        type            zeroGradient;
    }
    cylinder
    {
        type            zeroGradient;
    }
    defaultFaces
    {
        type            empty;
    }
}


// ************************************************************************* //
