/*--------------------------------*- C++ -*----------------------------------*\
  =========                 |
  \\      /  F ield         | OpenFOAM: The Open Source CFD Toolbox
   \\    /   O peration     | Website:  https://openfoam.org
    \\  /    A nd           | Version:  13
     \\/     M anipulation  |
\*---------------------------------------------------------------------------*/
FoamFile
{
    format      ascii;
    class       volVectorField;
    location    "2.45";
    object      U;
}
// * * * * * * * * * * * * * * * * * * * * * * * * * * * * * * * * * * * * * //

dimensions      [0 1 -1 0 0 0 0];

internalField   nonuniform List<vector> 
1800
(
(-0.0342252 0.0282134 9.23244e-21)
(-0.0799809 0.0587503 4.18285e-21)
(-0.0899905 0.0777811 -7.14191e-20)
(-0.0574348 0.0864279 6.9205e-20)
(0.0239163 0.0852843 1.51355e-19)
(0.156802 0.0745139 4.78704e-20)
(0.340649 0.0560659 -2.33894e-21)
(0.566466 0.028862 1.62568e-19)
(0.853754 0.00901604 2.08187e-19)
(1.02868 0.00823113 2.3234e-19)
(-0.0451819 0.0336526 7.76004e-21)
(-0.0769612 0.0559751 -6.80509e-20)
(-0.0471931 0.0562956 5.47169e-22)
(0.0459407 0.0408706 -6.6605e-20)
(0.204739 0.014372 2.56237e-20)
(0.425727 -0.0197375 1.08751e-19)
(0.697777 -0.0577818 -2.06257e-21)
(1.00171 -0.0989777 -2.14869e-20)
(1.33017 -0.132421 -1.89444e-19)
(1.5661 -0.167255 1.45004e-19)
(-0.0470164 0.0311468 6.13898e-21)
(-0.0472228 0.0420587 2.22981e-20)
(0.0430413 0.0276882 7.93576e-21)
(0.219238 -0.00343786 -1.52193e-20)
(0.473448 -0.0433472 -1.53946e-19)
(0.786705 -0.0856037 2.7e-20)
(1.13007 -0.125457 4.88058e-20)
(1.47317 -0.15922 -2.00471e-20)
(1.782 -0.186093 -2.07085e-22)
(2.0593 -0.222632 2.61128e-21)
(-0.03672 0.0216782 -9.32719e-21)
(0.0168559 0.0154442 -2.93371e-20)
(0.189773 -0.0126391 -2.99669e-20)
(0.466253 -0.0523783 3.01147e-20)
(0.818096 -0.0940346 2.80824e-20)
(1.20274 -0.130857 1.13235e-20)
(1.57511 -0.159481 -4.01129e-21)
(1.89857 -0.179987 1.17951e-19)
(2.15923 -0.194695 1.24695e-19)
(2.33487 -0.204256 -6.44201e-20)
(-0.0126712 0.00840129 6.82574e-20)
(0.120653 -0.0161057 6.33795e-20)
(0.396848 -0.0527824 -4.51793e-20)
(0.777825 -0.0903559 -5.53363e-20)
(1.20467 -0.120719 -1.7042e-19)
(1.61358 -0.140997 2.61718e-21)
(1.95747 -0.15245 2.4764e-19)
(2.21603 -0.158312 1.08824e-19)
(2.3867 -0.159826 -4.24345e-22)
(2.49747 -0.169468 -1.12502e-19)
(0.0278861 -0.00627883 -6.51765e-20)
(0.267126 -0.0441951 -1.28069e-20)
(0.6575 -0.0792654 2.33747e-19)
(1.12553 -0.102493 -8.51238e-20)
(1.58265 -0.112939 -1.90312e-19)
(1.96276 -0.11453 4.12147e-19)
(2.23899 -0.112108 -4.12357e-19)
(2.41583 -0.109208 -5.79889e-19)
(2.5179 -0.107912 4.70357e-19)
(2.56366 -0.109267 3.2022e-21)
(0.0865989 -0.0189134 6.8895e-20)
(0.452031 -0.0591848 -1.62614e-19)
(0.949772 -0.0796619 -6.01814e-19)
(1.46716 -0.0796724 3.11318e-19)
(1.90617 -0.0692083 6.94702e-19)
(2.22348 -0.0569016 -2.6715e-21)
(2.42317 -0.0472146 -1.46521e-18)
(2.53315 -0.0415063 1.09343e-20)
(2.58308 -0.0384673 1.7197e-18)
(2.59971 -0.0424622 4.7043e-19)
(0.162162 -0.0255298 6.14105e-20)
(0.662199 -0.052653 3.58146e-19)
(1.24273 -0.0467407 5.3811e-19)
(1.76685 -0.0214322 -1.0972e-19)
(2.1558 0.00479845 -6.13148e-19)
(2.40183 0.0239675 -2.34055e-19)
(2.53558 0.0349823 0)
(2.59552 0.0395237 7.07966e-19)
(2.61342 0.0394608 -1.4386e-20)
(2.60679 0.0347389 -6.67826e-19)
(0.25027 -0.0221276 5.17679e-20)
(0.878444 -0.0188625 4.24776e-19)
(1.50796 0.0205616 8.10143e-19)
(2.00637 0.0676623 -8.77291e-19)
(2.3329 0.102787 -7.70711e-19)
(2.51351 0.122921 2.96566e-19)
(2.59557 0.13125 -1.39256e-18)
(2.62123 0.132036 -1.0524e-18)
(2.61784 0.12864 1.28181e-18)
(2.59974 0.12045 1.11415e-18)
(0.34421 -0.00572375 -1.97446e-20)
(1.08104 0.043407 3.40033e-19)
(1.72739 0.117882 2.03867e-19)
(2.18189 0.180734 -1.67936e-18)
(2.44624 0.218454 4.12056e-20)
(2.57243 0.234786 3.29653e-18)
(2.61665 0.237247 -1.90455e-18)
(2.61952 0.232214 -1.10436e-18)
(2.60355 0.223285 3.92859e-19)
(2.57732 0.21086 -8.96465e-19)
(-0.0156482 0.254537 2.89696e-19)
(-0.0708963 0.480897 -1.43661e-19)
(-0.139603 0.551982 1.19723e-21)
(-0.211998 0.55018 -3.85566e-20)
(-0.280442 0.519413 2.33728e-21)
(-0.343607 0.477259 1.94387e-19)
(-0.401644 0.428939 1.82756e-19)
(-0.454156 0.375826 -2.98585e-19)
(-0.498819 0.318767 2.4182e-20)
(-0.532463 0.259127 -7.18179e-20)
(-0.0363632 0.296804 -1.03455e-20)
(-0.0957913 0.583242 1.98137e-20)
(-0.155622 0.68577 1.04178e-20)
(-0.214171 0.695476 4.44626e-20)
(-0.26807 0.66541 -2.04723e-19)
(-0.316801 0.618888 1.91427e-19)
(-0.360552 0.563478 -2.98684e-19)
(-0.399049 0.50112 -3.91766e-19)
(-0.42962 0.432743 1.96744e-19)
(-0.44683 0.359813 -5.8858e-20)
(-0.0569086 0.304271 -9.6591e-20)
(-0.120787 0.633993 5.42796e-20)
(-0.168866 0.773332 1.10975e-20)
(-0.208004 0.803903 -2.36224e-19)
(-0.241545 0.781668 -7.5342e-20)
(-0.269848 0.735483 8.01086e-19)
(-0.293078 0.676327 -3.32981e-19)
(-0.311237 0.607344 -3.56635e-19)
(-0.32216 0.529532 3.82474e-19)
(-0.317862 0.444253 1.78598e-19)
(-0.070221 0.275126 -9.18842e-20)
(-0.137549 0.62108 4.39102e-22)
(-0.174267 0.797815 2.44089e-20)
(-0.193518 0.859114 -1.04066e-19)
(-0.203894 0.85466 3.16141e-19)
(-0.208117 0.816229 -2.6977e-19)
(-0.206643 0.759018 -2.56697e-19)
(-0.199464 0.68835 3.11529e-19)
(-0.186746 0.605146 2.6268e-20)
(-0.159529 0.510843 5.5381e-21)
(-0.0716244 0.21844 0)
(-0.140941 0.545889 2.53458e-20)
(-0.17019 0.749878 -1.11219e-19)
(-0.173822 0.847231 1.23505e-19)
(-0.163773 0.870448 3.27626e-19)
(-0.145503 0.848363 -2.90595e-19)
(-0.121098 0.799103 1.22102e-19)
(-0.0911262 0.731257 -1.35068e-20)
(-0.0562747 0.646995 0)
(-0.00524609 0.548712 1.31757e-20)
(-0.0610143 0.150516 -1.54845e-20)
(-0.128155 0.425807 5.54554e-20)
(-0.154567 0.634892 3.56728e-21)
(-0.149984 0.762772 -1.22299e-20)
(-0.125935 0.819647 2.45661e-20)
(-0.0895925 0.824334 2.23909e-19)
(-0.0449727 0.793379 -5.47852e-19)
(0.00596756 0.737699 -1.73863e-20)
(0.0606442 0.66178 6.13099e-19)
(0.130054 0.570012 8.64051e-21)
(-0.0433144 0.0886018 9.43796e-21)
(-0.103008 0.291463 1.15973e-19)
(-0.129627 0.476692 -4.99629e-20)
(-0.124782 0.613795 -7.90371e-21)
(-0.095817 0.695528 -7.01168e-20)
(-0.0494357 0.72844 1.36583e-19)
(0.00908946 0.72306 2.28261e-19)
(0.076244 0.689051 3.04561e-19)
(0.147381 0.631743 -2.77506e-19)
(0.228409 0.556914 -3.40615e-19)
(-0.0262596 0.0445893 2.13603e-20)
(-0.0766061 0.17565 -6.81356e-20)
(-0.104797 0.315441 -9.32985e-20)
(-0.105038 0.433904 3.60428e-20)
(-0.079092 0.516953 -3.09372e-20)
(-0.0314252 0.562914 -4.49982e-20)
(0.032866 0.576266 -9.68581e-20)
(0.109685 0.563576 2.03757e-19)
(0.193995 0.529066 1.48032e-19)
(0.289552 0.471839 -2.56935e-19)
(-0.017461 0.022575 8.58306e-21)
(-0.0631397 0.0991343 -1.29552e-19)
(-0.093773 0.188703 1.66161e-19)
(-0.0996771 0.270337 1.53804e-19)
(-0.0781154 0.332337 -7.63926e-20)
(-0.0304092 0.370865 1.11333e-19)
(0.0405251 0.387117 -4.2034e-20)
(0.132361 0.38482 2.3159e-19)
(0.241728 0.364756 1.28754e-19)
(0.384086 0.316928 -2.1505e-19)
(-0.0215593 0.0204372 -1.24027e-20)
(-0.0688319 0.065312 -7.21758e-20)
(-0.0975783 0.113056 -2.10617e-20)
(-0.0979588 0.154765 7.40459e-20)
(-0.0642737 0.185187 1.24162e-19)
(0.00566646 0.201922 -8.33667e-20)
(0.112173 0.205303 -5.61559e-21)
(0.253309 0.19689 -6.6406e-20)
(0.429537 0.177157 1.37693e-19)
(0.638946 0.14924 1.57566e-19)
(-0.665651 -0.0455696 9.58661e-19)
(-0.476257 -0.437611 -1.31659e-18)
(0.11368 -0.426334 -1.87751e-19)
(0.427089 -0.354224 3.51564e-20)
(0.701619 -0.278112 -1.11273e-20)
(0.85733 -0.202131 -8.70802e-21)
(0.952833 -0.154473 -8.87919e-21)
(1.01316 -0.108184 -2.64665e-21)
(1.04085 -0.0878856 1.16241e-20)
(1.06985 -0.0594458 2.3268e-21)
(-0.492482 -0.0295654 9.95284e-19)
(-0.280345 -0.556335 6.55183e-19)
(0.217515 -0.558156 -3.34978e-20)
(0.502531 -0.4424 -9.04801e-20)
(0.747038 -0.336154 -9.91458e-20)
(0.884749 -0.237709 0)
(0.970165 -0.175679 -1.51119e-20)
(1.02359 -0.120241 4.8839e-21)
(1.04849 -0.0953904 3.5093e-22)
(1.07381 -0.0634254 -4.59784e-21)
(-0.253061 -0.0320875 -5.9196e-19)
(-0.0129343 -0.648954 -3.23434e-19)
(0.382086 -0.669059 1.72036e-19)
(0.6137 -0.520599 4.09557e-20)
(0.812378 -0.386952 5.12768e-21)
(0.922829 -0.26901 7.98517e-22)
(0.992792 -0.194457 0)
(1.03649 -0.130945 0)
(1.05738 -0.101988 -7.86653e-21)
(1.07819 -0.0668626 0)
(0.0204439 -0.0464875 -1.08103e-19)
(0.283275 -0.715389 7.73697e-19)
(0.584839 -0.756047 -1.00506e-19)
(0.749636 -0.58489 0)
(0.894222 -0.427885 1.49067e-19)
(0.971086 -0.294253 -2.68647e-20)
(1.0209 -0.209742 0)
(1.05201 -0.139745 2.61197e-20)
(1.06756 -0.107391 0)
(1.08298 -0.0696373 3.54336e-21)
(0.313207 -0.0703738 -6.19907e-20)
(0.589564 -0.761926 3.70737e-19)
(0.79869 -0.81965 6.90951e-20)
(0.893202 -0.634389 0)
(0.983467 -0.458406 6.27702e-20)
(1.02594 -0.312626 6.63414e-20)
(1.05349 -0.220768 2.71411e-21)
(1.07 -0.14614 1.74594e-22)
(1.07899 -0.111313 -6.84256e-21)
(1.08815 -0.071629 1.70933e-21)
(0.585377 -0.0976883 7.52753e-20)
(0.891934 -0.791039 -4.30906e-19)
(1.01235 -0.860211 -3.68731e-20)
(1.03315 -0.669321 2.59323e-19)
(1.07081 -0.479433 -1.16252e-19)
(1.0819 -0.324508 3.74703e-20)
(1.08826 -0.227379 6.83664e-20)
(1.08973 -0.149844 -5.96883e-20)
(1.09149 -0.113522 -1.14856e-23)
(1.09364 -0.072731 -7.64139e-21)
(0.826206 -0.129806 1.28684e-19)
(1.18011 -0.807439 2.88016e-20)
(1.21899 -0.880497 -1.05015e-19)
(1.16587 -0.69033 -8.83661e-21)
(1.15155 -0.492145 -1.37277e-19)
(1.13427 -0.33094 -8.37605e-22)
(1.12233 -0.230023 -3.01333e-20)
(1.10996 -0.150891 -1.26763e-21)
(1.1046 -0.113901 8.09333e-21)
(1.09935 -0.0728694 -9.15761e-22)
(1.05214 -0.184361 -3.32557e-19)
(1.44706 -0.813857 5.9509e-20)
(1.41183 -0.882809 0)
(1.28999 -0.698498 6.64829e-20)
(1.22547 -0.497615 1.18479e-19)
(1.18108 -0.333046 -5.5364e-21)
(1.15339 -0.229511 -1.03922e-19)
(1.12922 -0.149641 2.62676e-20)
(1.11761 -0.112508 -4.13584e-22)
(1.10505 -0.0720271 -4.2138e-21)
(1.28515 -0.263514 4.13982e-19)
(1.68822 -0.808215 -1.46773e-19)
(1.58518 -0.868001 1.28266e-19)
(1.40392 -0.6946 -4.38772e-20)
(1.29398 -0.496676 2.3277e-21)
(1.22299 -0.331774 -1.07781e-19)
(1.18063 -0.22679 3.52033e-20)
(1.1464 -0.146742 6.89988e-23)
(1.12968 -0.10965 -9.96205e-22)
(1.11041 -0.0702808 5.03219e-21)
(1.53985 -0.335778 -3.1156e-19)
(1.89984 -0.788911 -1.18439e-19)
(1.73548 -0.839409 8.6892e-20)
(1.50667 -0.679312 -2.24912e-19)
(1.35828 -0.489144 -1.33472e-19)
(1.26184 -0.327241 -6.233e-20)
(1.20471 -0.222448 -2.08094e-20)
(1.1612 -0.142896 0)
(1.14017 -0.105856 -1.18812e-20)
(1.11506 -0.0678117 8.69132e-21)
(2.07399 -0.433624 -8.48751e-19)
(2.16586 -0.75091 -3.70001e-19)
(1.91496 -0.78423 -1.766e-19)
(1.63326 -0.641388 3.90823e-20)
(1.43863 -0.465609 3.61737e-20)
(1.30958 -0.312197 -4.36192e-20)
(1.23252 -0.211129 -2.77391e-20)
(1.17724 -0.13497 1.73032e-20)
(1.1511 -0.0992241 -6.91957e-21)
(1.11988 -0.0638576 -4.2249e-21)
(2.41904 -0.487069 1.43596e-19)
(2.26798 -0.71226 -7.3745e-19)
(1.92629 -0.688419 -2.2154e-19)
(1.64008 -0.533911 -1.27875e-20)
(1.45767 -0.379047 1.35813e-19)
(1.33137 -0.254171 1.15627e-19)
(1.25039 -0.174858 7.79637e-20)
(1.18862 -0.113743 -8.68553e-21)
(1.15958 -0.0856075 2.65644e-20)
(1.12334 -0.0566134 4.0598e-21)
(2.43966 -0.445071 -6.11195e-20)
(2.24311 -0.586804 -2.61955e-20)
(1.98588 -0.575648 4.6512e-20)
(1.74499 -0.464529 1.38127e-35)
(1.55146 -0.336337 -1.88072e-20)
(1.3972 -0.223676 -3.47752e-34)
(1.29147 -0.151078 6.03897e-21)
(1.21126 -0.0971506 8.6137e-35)
(1.17295 -0.0731727 -3.56576e-22)
(1.1283 -0.0492211 5.80666e-22)
(2.38736 -0.390798 -3.80845e-34)
(2.22569 -0.517289 2.24224e-19)
(1.99307 -0.503893 5.36164e-20)
(1.74612 -0.382434 0)
(1.54638 -0.256994 -7.22416e-20)
(1.39475 -0.162572 -5.8695e-20)
(1.29391 -0.10881 -4.34396e-20)
(1.21517 -0.0708064 4.46391e-34)
(1.17771 -0.0555858 -1.29464e-20)
(1.13009 -0.0395608 -1.04066e-21)
(2.33261 -0.348362 -3.7143e-20)
(2.19751 -0.443037 8.50995e-21)
(2.00475 -0.415813 0)
(1.77935 -0.302981 0)
(1.57477 -0.19546 0)
(1.41119 -0.11931 0)
(1.30246 -0.0778831 2.16625e-21)
(1.21886 -0.0499064 5.21054e-34)
(1.18003 -0.0399682 -7.31394e-22)
(1.12995 -0.0301186 -1.65693e-34)
(2.28711 -0.309431 5.36557e-20)
(2.17353 -0.384447 0)
(1.98096 -0.346968 0)
(1.74971 -0.228955 0)
(1.54449 -0.125081 0)
(1.38607 -0.0644671 0)
(1.28418 -0.0393416 -4.83159e-21)
(1.20595 -0.0254252 1.94058e-20)
(1.17103 -0.0228738 -9.04462e-22)
(1.12278 -0.0200279 6.81142e-22)
(2.23601 -0.276697 0)
(2.09815 -0.325025 5.76925e-20)
(1.87208 -0.266598 -1.33702e-20)
(1.63216 -0.148518 0)
(1.43906 -0.0586918 -4.83702e-20)
(1.30329 -0.0177763 -3.14993e-20)
(1.2231 -0.00769425 -2.32333e-20)
(1.16145 -0.00513876 -9.61467e-21)
(1.13622 -0.00810855 7.83638e-21)
(1.09539 -0.0107596 -3.04365e-21)
(2.0827 -0.231414 1.66864e-21)
(1.85768 -0.243836 6.37047e-21)
(1.57182 -0.172979 -1.14207e-20)
(1.33866 -0.0711619 -6.25808e-36)
(1.19269 -0.00495108 1.3293e-20)
(1.11165 0.0158803 -1.9881e-34)
(1.07409 0.0136952 -6.00019e-21)
(1.04334 0.00806381 -1.07624e-20)
(1.03458 0.00186043 -1.05806e-21)
(1.00819 -0.00368266 2.1692e-21)
(1.58213 -0.158112 2.37164e-21)
(1.25959 -0.13236 -7.98133e-21)
(0.960256 -0.0648957 1.14923e-20)
(0.797017 -0.00423928 0)
(0.748781 0.025115 1.36824e-20)
(0.75137 0.0270694 1.01131e-20)
(0.768222 0.0190679 1.45466e-22)
(0.774963 0.0113264 3.42473e-21)
(0.784307 0.00559743 -4.31273e-21)
(0.77622 0.000428243 -1.95342e-21)
(0.515691 -0.0206117 0)
(0.303971 -0.00530478 0)
(0.174882 0.00294254 0)
(0.146414 0.00633531 0)
(0.178257 0.00761123 0)
(0.22451 0.00590706 0)
(0.262957 0.00381901 -6.35039e-21)
(0.28624 0.00219116 1.82296e-35)
(0.301125 0.001178 -1.2299e-21)
(0.305073 0.000205293 -2.29776e-21)
(2.50942 0.184741 8.64916e-19)
(2.54088 0.109709 5.35359e-20)
(2.56382 0.0278563 -8.92901e-20)
(2.5713 -0.0311789 -2.89972e-19)
(2.58943 -0.108444 -5.61684e-20)
(2.54944 -0.139219 -8.8241e-20)
(2.58106 -0.222194 -3.02485e-19)
(2.3967 -0.195738 1.77865e-20)
(2.43224 -0.291602 0)
(1.85097 -0.137824 1.93272e-20)
(2.43031 0.1439 2.74011e-19)
(2.42137 0.100031 -3.20168e-19)
(2.50612 0.0124683 -6.64805e-20)
(2.45445 -0.0143793 -1.40523e-19)
(2.56762 -0.110116 1.15523e-19)
(2.45928 -0.115254 2.05912e-19)
(2.6135 -0.222429 -2.78367e-19)
(2.43459 -0.210347 -2.17769e-20)
(2.59577 -0.318497 -6.69098e-21)
(2.34784 -0.299457 1.08725e-19)
(2.36939 0.113654 -1.24471e-19)
(2.35016 0.0776587 2.82288e-19)
(2.43957 0.00357675 1.7822e-19)
(2.38808 -0.0221361 -2.98605e-19)
(2.48784 -0.0994665 -4.32119e-20)
(2.41285 -0.119167 4.30412e-19)
(2.51158 -0.194735 7.99973e-20)
(2.43706 -0.219246 -9.59387e-20)
(2.5038 -0.281801 -5.90352e-20)
(2.45692 -0.322324 -7.13582e-20)
(2.31126 0.0842716 -3.11971e-19)
(2.31608 0.0461984 -4.18679e-20)
(2.36977 -0.00569786 1.45549e-20)
(2.35923 -0.0408987 -2.10969e-20)
(2.40391 -0.0911048 -2.32637e-19)
(2.38901 -0.127277 -1.03672e-19)
(2.41674 -0.171719 2.48842e-19)
(2.41216 -0.213637 -1.07824e-20)
(2.41705 -0.249651 5.07181e-20)
(2.42896 -0.299645 2.54227e-20)
(2.26209 0.0554345 4.85973e-20)
(2.28556 0.0186259 1.31752e-19)
(2.31257 -0.0180479 -3.32511e-20)
(2.32783 -0.0550147 2.23768e-19)
(2.34206 -0.0893975 -5.2083e-20)
(2.35429 -0.127691 -2.6496e-19)
(2.35519 -0.158446 4.28349e-20)
(2.3689 -0.198829 -1.11358e-19)
(2.35899 -0.226537 3.34967e-20)
(2.37461 -0.269353 1.18554e-20)
(2.2201 0.0268372 -1.70835e-19)
(2.24738 -0.00446256 -7.98001e-20)
(2.26589 -0.0327977 5.39796e-21)
(2.28621 -0.0646608 1.25472e-19)
(2.29423 -0.0917241 2.64281e-19)
(2.30962 -0.124396 -7.78296e-20)
(2.30846 -0.149961 7.19631e-21)
(2.32056 -0.183552 -5.88987e-20)
(2.31216 -0.207936 -8.00252e-20)
(2.32215 -0.242718 -6.02769e-20)
(2.16867 0.000438637 -6.10286e-20)
(2.19387 -0.0243674 -1.32951e-19)
(2.20966 -0.0466188 -1.42637e-19)
(2.22898 -0.071845 -2.72599e-19)
(2.2367 -0.0939161 5.64103e-20)
(2.25157 -0.120001 5.9814e-20)
(2.25192 -0.141964 1.86743e-20)
(2.264 -0.169142 7.39975e-20)
(2.25736 -0.190687 -1.03877e-19)
(2.26894 -0.219034 -4.79481e-20)
(2.05508 -0.02135 6.22312e-20)
(2.07631 -0.0393832 4.38682e-20)
(2.08352 -0.0547383 2.16297e-20)
(2.10273 -0.0735137 -4.44049e-20)
(2.10229 -0.0890767 -4.22611e-20)
(2.1217 -0.109186 -2.29337e-20)
(2.11343 -0.125157 -4.83456e-20)
(2.13558 -0.147052 7.55743e-20)
(2.11849 -0.163103 -3.96996e-20)
(2.14673 -0.186826 4.10202e-20)
(1.73062 -0.0350495 -5.78348e-20)
(1.73493 -0.0447634 -3.14084e-21)
(1.72633 -0.0527013 1.1107e-19)
(1.73199 -0.0629028 -7.77796e-21)
(1.71624 -0.0707042 -3.12329e-20)
(1.72712 -0.0824974 6.46165e-20)
(1.70187 -0.0905342 -4.41329e-20)
(1.72205 -0.104697 2.81336e-20)
(1.68324 -0.112965 2.83553e-21)
(1.71893 -0.129951 -2.55321e-20)
(0.859638 -0.0144674 4.9338e-20)
(0.839424 -0.0142061 3.93459e-20)
(0.818025 -0.0140379 3.82395e-20)
(0.798775 -0.014038 6.05615e-20)
(0.776396 -0.014542 -3.05033e-20)
(0.75916 -0.015373 -3.40942e-20)
(0.733723 -0.0168212 1.44364e-20)
(0.720541 -0.0187093 -2.83626e-21)
(0.684406 -0.0201185 4.232e-21)
(0.686804 -0.0272331 -5.98417e-21)
(1.5772 0.956362 -8.61151e-20)
(1.56072 1.00271 2.80287e-20)
(1.56403 1.05675 -6.45628e-19)
(1.57258 1.11831 2.45342e-19)
(1.57917 1.18345 1.20904e-18)
(1.57529 1.24439 -1.53409e-19)
(1.53921 1.2791 -1.08216e-18)
(1.42063 1.23563 -9.20878e-21)
(1.12933 1.01676 -5.3764e-19)
(0.532307 0.492156 1.25211e-19)
(1.74307 0.924788 0)
(1.73165 0.969888 7.53233e-19)
(1.73142 1.0203 1.66756e-18)
(1.73969 1.0795 -1.02397e-18)
(1.74976 1.14336 -2.39257e-18)
(1.74953 1.20256 -1.6001e-19)
(1.71201 1.23394 -2.04893e-19)
(1.57921 1.18618 7.47057e-19)
(1.25034 0.967591 1.1131e-18)
(0.584139 0.461402 4.46986e-19)
(1.89728 0.883661 7.11009e-20)
(1.895 0.928377 0)
(1.89612 0.975773 -7.08444e-20)
(1.90502 1.03044 1.04518e-18)
(1.91726 1.08955 5.83966e-20)
(1.91864 1.14359 -2.35163e-18)
(1.87722 1.16875 1.48571e-18)
(1.72724 1.11579 8.86236e-19)
(1.35916 0.900524 -9.59267e-19)
(0.627278 0.421242 -2.89404e-19)
(2.03182 0.833378 -1.90059e-19)
(2.04005 0.87619 -1.40028e-19)
(2.04714 0.920016 2.89256e-19)
(2.05938 0.969255 -3.58417e-19)
(2.07399 1.02196 -1.66211e-18)
(2.07555 1.06858 -1.28631e-18)
(2.02739 1.08584 1.36196e-18)
(1.85774 1.02651 8.94659e-19)
(1.44807 0.816186 0)
(0.657288 0.372066 0)
(2.15163 0.766228 -9.60693e-19)
(2.16838 0.806701 -1.74773e-18)
(2.18226 0.847144 -6.73761e-19)
(2.19884 0.89132 -3.59338e-20)
(2.21549 0.937639 0)
(2.21529 0.976544 1.45675e-19)
(2.1577 0.982969 1.68987e-19)
(1.9625 0.917882 2.10775e-19)
(1.50919 0.71694 -3.04009e-19)
(0.670208 0.314491 -7.62583e-20)
(2.25556 0.690025 1.14939e-18)
(2.27994 0.726068 -4.45694e-20)
(2.30035 0.761817 -1.34624e-18)
(2.32109 0.799986 0)
(2.3388 0.838377 0)
(2.33409 0.867542 0)
(2.26095 0.865272 1.55789e-18)
(2.0341 0.794904 -1.72349e-18)
(1.53837 0.603736 -1.10036e-18)
(0.663433 0.251221 1.15761e-20)
(2.34718 0.600079 -1.50448e-18)
(2.3764 0.631942 -3.15888e-18)
(2.40148 0.663214 -5.47341e-21)
(2.42475 0.695501 6.36683e-19)
(2.44081 0.726075 -4.06856e-20)
(2.42665 0.745658 1.35112e-18)
(2.33145 0.73418 -7.42424e-19)
(2.06869 0.659455 -2.00222e-18)
(1.53058 0.4818 1.24459e-19)
(0.63567 0.186338 9.34901e-20)
(2.42568 0.506391 -1.18399e-18)
(2.45769 0.532243 1.7306e-20)
(2.48492 0.557934 4.47485e-19)
(2.50799 0.583557 -4.3088e-19)
(2.51843 0.60573 6.66267e-19)
(2.48905 0.615255 1.78758e-18)
(2.36476 0.594303 -1.73093e-19)
(2.06017 0.516874 -1.06356e-18)
(1.4816 0.357553 2.46056e-19)
(0.586938 0.124162 4.47708e-20)
(2.49088 0.406091 4.35126e-19)
(2.52312 0.427742 8.96968e-20)
(2.54982 0.448059 -4.51487e-19)
(2.56924 0.466865 -1.04565e-18)
(2.56897 0.480502 8.05161e-20)
(2.51704 0.480209 6.78288e-20)
(2.35519 0.450971 -1.33555e-18)
(2.00306 0.373912 5.58162e-19)
(1.38941 0.238085 1.63146e-19)
(0.51915 0.0690636 -8.2127e-20)
(2.5415 0.308674 8.18773e-19)
(2.57181 0.325194 -1.21764e-18)
(2.5951 0.339299 1.87212e-19)
(2.6064 0.350733 2.41029e-18)
(2.58862 0.355673 1.18466e-18)
(2.50495 0.346258 -2.55012e-18)
(2.29631 0.310908 -2.38585e-18)
(1.89289 0.238299 1.03182e-18)
(1.25446 0.131002 -3.03377e-20)
(0.436264 0.024924 -7.58294e-20)
(0.535811 0.403163 -1.5055e-19)
(0.495706 0.417133 -1.58662e-19)
(0.450639 0.432056 6.60678e-20)
(0.401207 0.448093 -2.18563e-19)
(0.347076 0.46511 -1.5598e-20)
(0.287415 0.481675 2.07495e-19)
(0.221277 0.491872 2.91989e-20)
(0.149142 0.478653 9.80781e-21)
(0.0779778 0.404791 2.34148e-20)
(0.0161091 0.207486 1.2159e-20)
(0.581766 0.50853 1.24234e-19)
(0.542544 0.529024 1.57227e-19)
(0.499187 0.551048 4.92994e-20)
(0.451874 0.574775 -4.4002e-20)
(0.399961 0.599966 -2.07636e-19)
(0.342346 0.624659 -2.01042e-20)
(0.277365 0.641014 4.38738e-20)
(0.203594 0.626528 4.42231e-20)
(0.124189 0.53173 -1.31893e-19)
(0.0399672 0.273396 -4.5713e-20)
(0.645377 0.606728 -9.72259e-20)
(0.607376 0.632963 -8.31601e-20)
(0.56631 0.661195 9.05029e-20)
(0.521903 0.691899 6.00511e-20)
(0.473235 0.724947 -8.24408e-20)
(0.418893 0.757923 -1.36768e-20)
(0.356146 0.781017 -1.13699e-19)
(0.280697 0.766167 -8.89432e-20)
(0.18984 0.651787 -7.29721e-20)
(0.0738949 0.335367 1.14161e-22)
(0.725933 0.701052 2.302e-20)
(0.689735 0.733597 -6.14205e-20)
(0.651907 0.768018 -7.70416e-20)
(0.611218 0.805016 -7.10659e-20)
(0.566327 0.844596 -6.6942e-20)
(0.515626 0.884021 -8.50595e-21)
(0.455333 0.911731 -2.97173e-19)
(0.377697 0.894698 6.47074e-20)
(0.272355 0.760775 -3.34248e-19)
(0.116493 0.390818 5.01303e-20)
(0.819539 0.779664 1.3139e-20)
(0.785832 0.817178 1.74586e-20)
(0.752508 0.857102 -5.15695e-20)
(0.717472 0.900489 -2.83083e-19)
(0.678597 0.947115 1.30502e-19)
(0.633467 0.993559 4.53969e-20)
(0.576672 1.02651 4.06906e-20)
(0.496241 1.00828 -1.89468e-19)
(0.37255 0.856948 4.02025e-19)
(0.167662 0.438975 2.92239e-19)
(0.928975 0.856869 -1.04817e-19)
(0.89684 0.898806 -1.99058e-19)
(0.866701 0.942001 1.48097e-20)
(0.835914 0.988935 1.03928e-19)
(0.802339 1.03998 3.8264e-19)
(0.763059 1.09107 2.81252e-19)
(0.710523 1.12674 6.72608e-19)
(0.627491 1.10494 2.76426e-19)
(0.483723 0.936134 1.52413e-19)
(0.224344 0.477018 2.12695e-19)
(1.04467 0.908518 -1.12672e-19)
(1.01859 0.955316 6.45206e-19)
(0.996231 1.0031 4.19577e-19)
(0.973015 1.05438 -5.38656e-19)
(0.946183 1.10975 -2.68357e-19)
(0.912721 1.16511 7.01542e-19)
(0.863507 1.20357 -1.10496e-19)
(0.775808 1.17926 -4.7264e-19)
(0.607631 0.996093 2.4009e-20)
(0.28623 0.504239 2.64523e-19)
(1.16715 0.960671 3.18971e-19)
(1.14111 1.00782 6.16253e-20)
(1.12341 1.05596 -8.04342e-19)
(1.10825 1.10916 1.73278e-19)
(1.09092 1.16715 6.10496e-19)
(1.06632 1.22444 -3.38027e-19)
(1.0224 1.26248 -1.04726e-19)
(0.930332 1.23273 -1.94169e-19)
(0.736142 1.03546 1.96895e-20)
(0.34958 0.519407 -3.10293e-19)
(1.29872 0.97853 1.9474e-20)
(1.28337 1.02962 -5.88382e-19)
(1.27308 1.07877 -4.93341e-21)
(1.2635 1.13301 4.98356e-19)
(1.25197 1.19338 -5.15322e-19)
(1.23335 1.25343 1.00748e-18)
(1.19247 1.29232 6.773e-19)
(1.09328 1.25882 -1.00206e-18)
(0.869179 1.05148 -7.81773e-20)
(0.4133 0.522015 -3.4273e-19)
(1.40325 0.987072 -3.52427e-19)
(1.39929 1.03913 -3.31992e-19)
(1.40643 1.09019 3.11791e-19)
(1.41182 1.14537 8.14092e-19)
(1.41192 1.20537 2.93276e-19)
(1.40201 1.26408 -8.32849e-19)
(1.36477 1.29999 1.03975e-19)
(1.25741 1.26072 2.26283e-19)
(1.00116 1.04543 -3.06045e-19)
(0.474794 0.5128 -2.43516e-19)
(0.987461 0.0159844 8.65102e-22)
(1.01479 0.0395311 -1.89972e-20)
(1.02134 0.0512172 -1.55329e-20)
(1.01976 0.0793488 0)
(1.02818 0.100149 1.98477e-20)
(1.01872 0.136106 2.83156e-20)
(0.994915 0.171605 3.82374e-20)
(0.946191 0.203914 8.30104e-20)
(0.860427 0.267301 -1.23742e-19)
(0.710703 0.33365 -1.92589e-19)
(0.987834 0.0141076 3.97581e-20)
(1.01328 0.0375611 -6.16766e-20)
(1.0206 0.049656 1.75584e-22)
(1.01818 0.0779067 -1.96805e-20)
(1.02884 0.10112 9.85982e-21)
(1.021 0.140772 -1.42953e-20)
(1.00055 0.182035 -8.90852e-20)
(0.959175 0.224006 0)
(0.876325 0.304548 2.56809e-19)
(0.750039 0.402771 -2.6456e-19)
(0.987888 0.0124474 -2.9305e-20)
(1.01247 0.0357348 1.71113e-20)
(1.02019 0.0480655 4.16753e-20)
(1.01826 0.0767269 1.03479e-20)
(1.02983 0.101606 -2.36609e-20)
(1.02583 0.145718 1.15074e-21)
(1.00642 0.191414 -6.13929e-20)
(0.976542 0.243833 -5.62111e-21)
(0.89478 0.34015 -1.37126e-23)
(0.803358 0.469105 7.48901e-19)
(0.987655 0.0109306 -3.24472e-20)
(1.01227 0.0340126 2.49149e-21)
(1.02016 0.0463067 3.4079e-20)
(1.01975 0.0758762 2.19102e-20)
(1.03135 0.101479 -1.18111e-20)
(1.03288 0.151211 -1.64836e-20)
(1.0128 0.199465 8.85728e-20)
(0.998059 0.263893 -1.55662e-21)
(0.915695 0.372956 -2.81997e-19)
(0.870297 0.531229 9.42628e-20)
(0.987177 0.00950581 2.26731e-20)
(1.01256 0.0323318 -3.22678e-20)
(1.02066 0.0442932 -2.71935e-20)
(1.02229 0.0753814 1.29524e-20)
(1.03371 0.100657 0)
(1.04163 0.157351 0)
(1.02041 0.20602 7.40531e-20)
(1.02249 0.284277 1.78449e-22)
(0.941212 0.402617 -1.28095e-19)
(0.947316 0.587493 9.47366e-20)
(0.98649 0.00813044 6.38426e-21)
(1.01323 0.0306016 2.62221e-20)
(1.02186 0.0419964 -7.33164e-20)
(1.0255 0.0752054 -2.50984e-20)
(1.0373 0.0991357 -6.39825e-22)
(1.05157 0.164131 6.90489e-20)
(1.02956 0.210843 1.13314e-19)
(1.0502 0.305505 -8.97578e-22)
(0.968473 0.427051 2.12932e-19)
(1.04044 0.643443 -2.23163e-19)
(0.985621 0.00676809 -2.49883e-20)
(1.01424 0.0287061 1.39689e-20)
(1.02388 0.0394474 -1.97839e-20)
(1.02906 0.0752016 -5.34524e-20)
(1.04254 0.0970382 2.00709e-21)
(1.06197 0.171329 -1.64829e-21)
(1.04161 0.214138 -6.41902e-21)
(1.07823 0.3268 -2.32535e-19)
(1.00596 0.447266 1.55928e-19)
(1.12824 0.683632 -5.52142e-19)
(0.984573 0.00539726 -4.14705e-21)
(1.01556 0.0265204 -4.079e-20)
(1.02677 0.0367211 3.99822e-20)
(1.03276 0.075162 2.85516e-20)
(1.04966 0.0945688 1.037e-21)
(1.07254 0.178562 -7.96576e-20)
(1.05646 0.216271 -6.20832e-20)
(1.10882 0.348322 4.13591e-19)
(1.04267 0.464058 1.56214e-20)
(1.24599 0.740691 8.64797e-19)
(0.983335 0.00399612 1.72874e-20)
(1.01722 0.023933 1.87665e-20)
(1.03047 0.0339176 4.61186e-20)
(1.03662 0.074955 -3.14265e-20)
(1.05874 0.0918438 -8.3093e-20)
(1.08284 0.185829 1.23892e-21)
(1.07557 0.215493 -8.50177e-20)
(1.13897 0.36774 5.33945e-19)
(1.09993 0.464272 -9.43869e-21)
(1.31656 0.756742 -1.20068e-18)
(0.981902 0.00263688 4.52801e-22)
(1.01924 0.0209114 2.95976e-20)
(1.03485 0.0312747 1.54011e-20)
(1.04082 0.0742719 -6.32505e-20)
(1.06874 0.0910827 -8.05747e-20)
(1.09248 0.192945 -6.68328e-20)
(1.09587 0.221953 -1.54763e-19)
(1.16523 0.389672 -4.78777e-19)
(1.15787 0.490612 -2.60104e-19)
(1.45715 0.824771 -1.26009e-18)
(0.980048 0.000362222 -1.401e-21)
(1.02148 0.0162676 -6.62083e-21)
(1.04154 0.0258458 -1.70756e-20)
(1.04625 0.0717064 3.4808e-20)
(1.08237 0.081919 5.96974e-20)
(1.11065 0.196577 -4.37856e-20)
(1.11809 0.204758 1.46387e-19)
(1.21254 0.398331 -4.44192e-19)
(1.22326 0.429812 -1.96846e-19)
(1.47039 0.814684 6.68417e-19)
(0.979018 -0.00325587 2.50314e-21)
(1.0239 0.00911123 1.39142e-20)
(1.05136 0.0170698 -1.12125e-20)
(1.05088 0.0656957 6.47905e-20)
(1.10478 0.0648647 9.96031e-20)
(1.12364 0.193446 1.28581e-19)
(1.15684 0.17669 3.31576e-20)
(1.24242 0.382329 2.10519e-19)
(1.32159 0.379496 3.17152e-19)
(1.49473 0.71265 2.54383e-20)
(0.977913 -0.00728854 -1.80825e-21)
(1.02815 0.000132416 -4.16526e-21)
(1.06141 0.00842499 3.62859e-21)
(1.05789 0.0565723 4.74621e-21)
(1.13064 0.0487267 2.98842e-34)
(1.12986 0.186467 -7.61657e-21)
(1.20082 0.147304 -5.45672e-34)
(1.26129 0.355233 2.00954e-20)
(1.39382 0.322917 -5.93861e-20)
(1.54425 0.620076 -5.8672e-20)
(0.976041 -0.0124286 1.43325e-20)
(1.03548 -0.0107304 -4.70085e-35)
(1.06978 -0.000855329 -4.15673e-21)
(1.07333 0.0437628 -2.92091e-20)
(1.15032 0.0353583 -4.82106e-20)
(1.14116 0.175109 -4.16178e-20)
(1.23452 0.118106 -6.91054e-34)
(1.28515 0.322786 -8.21877e-20)
(1.43504 0.266284 -1.47494e-19)
(1.58247 0.529373 9.89982e-20)
(0.973311 -0.0191647 0)
(1.04609 -0.0229355 5.64171e-35)
(1.07721 -0.012194 0)
(1.09911 0.0274033 0)
(1.16009 0.0245101 0)
(1.16487 0.15727 0)
(1.25473 0.091881 -4.72728e-34)
(1.31485 0.281973 0)
(1.45403 0.219089 -2.12706e-20)
(1.60001 0.438016 5.86301e-20)
(0.969801 -0.0272866 3.16063e-21)
(1.05999 -0.0358163 5.32412e-21)
(1.08611 -0.0251451 -5.31704e-21)
(1.13051 0.0120438 0)
(1.1636 0.0179461 0)
(1.19591 0.13412 6.65805e-21)
(1.26912 0.0710462 4.21887e-20)
(1.33971 0.235924 -1.42669e-20)
(1.46544 0.179342 -3.09892e-20)
(1.61145 0.349065 2.28171e-19)
(0.966439 -0.0417682 -7.89398e-20)
(1.07862 -0.0551972 -4.58946e-23)
(1.09651 -0.04514 -5.9897e-21)
(1.15598 -0.00825868 -1.86313e-20)
(1.15648 0.0101094 -2.87035e-20)
(1.21945 0.103463 -9.99201e-21)
(1.27423 0.0542121 -3.43114e-20)
(1.35115 0.187446 -3.19652e-20)
(1.47159 0.14202 -5.44835e-20)
(1.62499 0.263214 6.60282e-20)
(0.965111 -0.0485572 -6.54119e-21)
(1.09674 -0.0634615 -1.84167e-20)
(1.08685 -0.0529052 -6.65077e-21)
(1.14054 -0.0170166 -5.26084e-21)
(1.10429 0.00880313 -4.62292e-35)
(1.2057 0.0716752 6.9575e-21)
(1.22736 0.0415418 -9.20998e-34)
(1.33713 0.137176 -1.37463e-20)
(1.44222 0.103029 1.91501e-20)
(1.63055 0.179404 2.7294e-20)
(0.962284 -0.0898909 1.96106e-19)
(1.05541 -0.0927566 -4.70696e-21)
(0.969981 -0.0719371 -7.1616e-21)
(0.976201 -0.0276048 1.45367e-20)
(0.909488 0.00158809 1.50345e-20)
(1.04269 0.0365495 1.4393e-20)
(1.02201 0.0288653 1.50762e-20)
(1.19912 0.0818619 -9.711e-21)
(1.2723 0.0621355 -2.26444e-20)
(1.51634 0.0982781 1.48312e-19)
(0.830852 -0.0458308 8.86266e-21)
(0.732658 -0.034466 -9.49914e-35)
(0.533649 -0.0167559 -8.36296e-21)
(0.476887 -0.00208598 0)
(0.432604 0.00122297 0)
(0.514657 0.00897214 6.95212e-21)
(0.513902 0.00553346 -6.04053e-36)
(0.654857 0.0176811 -1.32398e-20)
(0.722116 0.00947071 -2.81331e-20)
(0.902575 0.0166672 5.93308e-20)
(1.67947 0.840563 -2.01275e-19)
(1.78153 0.820044 -2.95243e-19)
(1.89964 0.784538 0)
(2.00788 0.738931 1.60452e-19)
(2.11059 0.676065 6.85559e-19)
(2.1988 0.608553 -1.24886e-19)
(2.28201 0.526622 1.78057e-18)
(2.35273 0.446959 -8.62782e-20)
(2.41608 0.356411 -3.97848e-19)
(2.46839 0.273568 3.53473e-19)
(1.70584 0.689733 1.03757e-19)
(1.78339 0.670963 1.17988e-19)
(1.87943 0.637208 -1.4401e-20)
(1.96488 0.594883 2.263e-19)
(2.05722 0.538222 -1.85967e-19)
(2.12361 0.483718 -4.34885e-19)
(2.20634 0.414314 -1.30669e-19)
(2.25324 0.357153 5.97689e-19)
(2.33103 0.280148 -2.31911e-20)
(2.35443 0.22633 -5.15511e-19)
(1.73959 0.573509 1.01536e-19)
(1.80695 0.549599 1.90552e-19)