/*--------------------------------*- C++ -*----------------------------------*\
  =========                 |
  \\      /  F ield         | OpenFOAM: The Open Source CFD Toolbox
   \\    /   O peration     | Website:  https://openfoam.org
    \\  /    A nd           | Version:  13
     \\/     M anipulation  |
\*---------------------------------------------------------------------------*/
FoamFile
{
    format      ascii;
    class       volScalarField;
    location    "65.2";
    object      p;
}
// * * * * * * * * * * * * * * * * * * * * * * * * * * * * * * * * * * * * * //

dimensions      [0 2 -2 0 0 0 0];

internalField   nonuniform List<scalar> 
440
(
-0.748575
-0.75055
-0.822009
-0.747007
-0.816333
-0.698137
-0.700129
-0.713308
-0.718384
-0.719014
-0.809383
-0.779368
-0.75356
-0.722324
-0.684357
-0.92477
-0.880225
-0.807373
-0.719657
-0.628699
-1.01716
-0.955863
-0.82056
-0.678039
-0.546115
-1.30693
-1.28015
-1.24495
-1.21513
-1.20355
-1.24855
-1.21144
-1.16156
-1.11437
-1.07484
-1.20968
-1.21372
-1.23239
-1.258
-1.2843
-1.03808
-1.10408
-1.22825
-1.35438
-1.41178
-0.247332
-0.415535
-0.614971
-0.70358
-0.679567
-0.859644
-1.75246
-1.00251
-0.393734
0.0426338
-0.512536
-1.70247
-1.3605
-0.358417
0.0226386
-0.371605
-1.57697
-1.56229
-0.346696
0.00334636
-0.245145
-1.34009
-1.63266
-0.351787
-0.0106621
-0.173348
-0.989363
-1.57852
-0.359985
-0.0207143
0.278908
-0.604291
-1.40009
-0.341135
-0.0370183
-0.206288
-0.513973
-1.0052
-0.310313
-0.0601062
-0.053013
-0.243263
-0.645143
-0.289116
-0.0817334
-0.106941
-0.17879
-0.485006
-0.273731
-0.0914296
-0.0255148
-0.0305267
-0.33256
-0.286049
-0.106286
-0.316451
-0.452645
-0.602018
-0.761937
-0.834679
-0.0823772
-0.213389
-0.286182
-0.327753
-0.336102
0.0671631
-0.0370427
-0.104379
-0.141691
-0.157954
0.163069
0.0667513
-0.00798066
-0.0554235
-0.0874747
0.207826
0.112719
0.0340121
-0.011229
-0.0357172
0.914994
0.781265
0.611802
0.418451
0.196874
0.532439
0.382956
0.19643
-0.0148547
-0.253988
0.149547
-0.00571868
-0.201402
-0.424881
-0.634153
-0.17521
-0.336329
-0.53141
-0.742372
-0.901181
-0.400265
-0.555701
-0.734068
-0.919251
-1.02077
2.09186
2.12507
2.15816
2.17865
2.18134
1.91567
1.93793
1.95651
1.95951
1.94188
1.69754
1.69119
1.66416
1.61546
1.54193
1.44415
1.41317
1.34945
1.25584
1.13345
1.18586
1.09773
0.978428
0.83438
0.657527
1.8213
1.81301
1.80363
1.85735
1.96826
1.81217
1.80165
1.78789
1.835
1.89048
1.80403
1.78698
1.76938
1.79938
1.7943
1.79715
1.76979
1.74819
1.75266
1.6435
1.79141
1.75178
1.72483
1.70171
1.48052
1.7874
1.72186
1.69312
1.60956
1.30201
1.78737
1.68962
1.67271
1.50346
1.30483
1.79377
1.67484
1.65756
1.44405
1.2573
1.78688
1.65203
1.65178
1.40268
1.22398
1.82678
1.64288
1.65211
1.37964
1.21725
0.884627
0.613088
0.292862
0.0312037
-0.165614
0.829585
0.636286
0.414113
0.225897
0.0498731
0.844061
0.684351
0.513082
0.349036
0.195018
0.884697
0.738173
0.585299
0.429398
0.289889
0.909259
0.767958
0.623609
0.471222
0.337675
-1.8677
-1.68151
-1.47997
-1.31093
-1.20903
-1.93564
-1.8508
-1.68635
-1.53974
-1.4385
-1.84512
-1.78942
-1.6728
-1.55446
-1.45292
-1.6737
-1.62171
-1.55487
-1.47949
-1.40266
-1.50071
-1.47086
-1.43152
-1.39245
-1.36454
-1.40718
-1.39583
-1.35092
-1.38195
-1.34312
-1.38605
-1.37302
-1.34281
-1.36325
-1.32974
-1.39515
-1.38169
-1.36454
-1.35535
-1.35072
-1.40037
-1.39421
-1.39073
-1.39821
-1.4312
-1.36695
-1.35717
-1.34664
-1.3445
-1.36407
-1.1956
-0.962144
-0.619513
-0.15343
0.131322
-1.23115
-1.08975
-0.711006
-0.327144
0.140618
-1.23137
-1.30014
-0.763566
-0.470067
0.134748
-1.31585
-1.55758
-0.626952
-0.495498
0.104375
-1.17239
-1.72943
-0.579682
-0.44858
0.0648196
-0.624949
-1.03761
-0.694
-0.0534474
0.123054
-1.0433
-1.00588
-0.603945
-0.0423394
0.124713
-1.15135
-1.36853
-1.3601
-1.27161
-1.01347
-1.17311
-1.38474
-1.37968
-1.30936
-1.25636
1.67278
1.63939
1.58599
1.51397
1.41957
1.87505
1.89129
1.88974
1.86858
1.82844
2.05035
2.0809
2.1015
2.10809
2.09958
2.15357
2.19288
2.23442
2.26806
2.28273
2.16906
2.20815
2.25189
2.28886
2.30625
-0.702833
-0.828444
-1.02527
-1.25879
-1.54823
-0.0387608
-0.195453
-0.403259
-0.654403
-0.987215
0.56966
0.40882
0.214851
-0.0154829
-0.314087
1.05849
0.9316
0.777757
0.590742
0.358849
1.44674
1.35756
1.24083
1.09983
0.932055
1.88158
1.84109
1.82941
1.83089
1.83681
1.86663
1.83875
1.82926
1.85006
1.90873
1.85393
1.83498
1.82967
1.87078
1.99165
1.84212
1.8298
1.82465
1.87687
2.00691
1.83123
1.82278
1.81572
1.87261
2.00577
1.93636
1.84551
1.81519
1.74993
1.7061
1.89152
1.83711
1.81096
1.77334
1.71345
1.3196
1.07158
0.642193
0.0179253
-0.66325
1.41115
1.10957
0.65915
0.0393628
-0.656102
)
;

boundaryField
{
    left
    {
        type            zeroGradient;
    }
    right
    {
        type            fixedValue;
        value           uniform 0;
    }
    down
    {
        type            zeroGradient;
    }
    up
    {
        type            zeroGradient;
    }
    cylinder
    {
        type            zeroGradient;
    }
    defaultFaces
    {
        type            empty;
    }
}


// ************************************************************************* //
