/*--------------------------------*- C++ -*----------------------------------*\
  =========                 |
  \\      /  F ield         | OpenFOAM: The Open Source CFD Toolbox
   \\    /   O peration     | Website:  https://openfoam.org
    \\  /    A nd           | Version:  13
     \\/     M anipulation  |
\*---------------------------------------------------------------------------*/
FoamFile
{
    format      ascii;
    class       surfaceScalarField;
    location    "0.725";
    object      phi;
}
// * * * * * * * * * * * * * * * * * * * * * * * * * * * * * * * * * * * * * //

dimensions      [0 3 -1 0 0 0 0];

internalField   nonuniform List<scalar> 
823
(
0.0113779
-0.0505542
0.0391763
0.038759
-0.133435
0.106054
0.0788326
-0.205877
0.165804
0.130172
-0.26887
0.21753
-0.323258
0.259415
0.194016
0.0107031
-0.0612573
0.0361433
-0.158876
0.0726484
-0.242382
0.117973
-0.314194
-0.3756
0.170314
0.00837705
-0.0696344
0.0282851
-0.178784
0.0567257
-0.270823
0.0918105
-0.349279
-0.41605
0.132261
0.00529927
-0.0749336
0.0179956
-0.19148
0.0362296
-0.289057
0.0588839
-0.371933
-0.442414
0.0852483
0.00196197
-0.0768956
0.00663003
-0.196148
0.0132897
-0.295717
0.0215219
-0.380165
0.0310622
-0.451955
0.00663548
-0.0107572
0.00412162
0.0221626
-0.0309201
0.0153929
0.0453592
-0.048514
0.0253174
0.0745016
-0.0639549
0.0348125
-0.0770462
0.108151
0.0433972
0.00574685
-0.0165042
0.0214583
-0.0466316
0.0466565
-0.0737122
0.0796883
-0.0969866
-0.116105
0.118747
0.00639063
-0.0228948
0.0236464
-0.0638874
0.0512127
-0.101279
0.0878806
-0.133654
-0.160123
0.131899
0.00753574
-0.0304306
0.0270853
-0.083437
0.0573112
-0.131504
0.0970127
-0.173356
-0.2079
0.144789
0.00874569
0.031363
0.0656624
0.109837
0.161351
0.322496
-0.957858
0.743513
0.474503
-0.822929
0.670922
0.574196
-0.354871
0.255177
0.615561
-0.0668669
0.0255024
0.00386933
-0.00841152
0.330293
-1.1694
0.471
-0.963635
0.576008
-0.459879
0.637791
-0.12865
-0.0172094
0.336457
-1.37396
0.460904
-1.08808
0.563336
-0.562311
0.634585
-0.199899
-0.049743
0.337379
-1.56655
0.447942
-1.19865
0.54063
-0.655
0.614423
-0.273691
-0.0886851
0.327704
-1.7329
0.428085
-1.29903
0.508689
-0.735603
0.574338
-0.33934
-0.122036
1.19774
-1.59035
-1.3403
1.00779
-1.10908
0.888906
-0.616715
0.835245
-0.28568
-0.100196
1.32979
-1.13304
-1.7871
0.981948
-0.761238
0.773597
-0.408363
0.682688
-0.194771
-0.0708971
1.18943
-0.607654
-1.71482
0.816266
-0.388071
0.610427
-0.202524
0.514918
-0.0992621
-0.0377799
0.822364
-0.185289
-1.24473
0.545339
-0.111046
0.39635
-0.0535344
0.324041
-0.0269538
-0.0111494
0.306716
-0.492004
0.19567
0.142136
0.115182
1.56259
0.04625
-1.57778
1.52169
0.126156
1.46266
0.191287
1.39633
0.236642
0.250049
1.67586
0.0356512
-1.66526
1.69932
0.102695
1.73081
0.159796
1.76528
0.202171
0.228233
1.38797
0.0184773
-1.37079
1.43705
0.0536079
1.51387
0.0829774
1.61015
0.105893
0.123569
0.977699
0.00531448
-0.964536
1.01588
0.0154232
1.07582
0.0230447
1.15388
0.0278276
0.0327218
0.392987
-0.387673
0.40841
0.431455
0.459283
0.128771
0.327626
-0.264668
-0.191728
0.0781583
0.273214
-0.222602
0.0385244
0.209793
-0.170159
0.0113401
0.136443
-0.109259
0.051953
-0.0406129
0.115952
0.378906
-0.167231
0.0714977
0.317668
0.0356187
0.245672
0.0105612
0.161501
0.0625142
0.0888493
0.418274
-0.128218
0.0548109
0.351707
0.0272878
0.273195
0.008065
0.180723
0.0705792
0.0552408
0.443533
-0.0804998
0.0337631
0.373184
0.0166551
0.290303
0.0048643
0.192514
0.0754435
0.0174805
-0.0259022
0.0104998
0.00508592
0.00145207
0.0726436
0.087343
-0.10728
-0.0527069
0.0428925
0.0737205
-0.0439693
0.0197372
0.056949
-0.0337937
0.00513815
0.0368152
-0.0222161
0.0132977
-0.00815956
0.0760176
0.125922
-0.114597
0.0437168
0.106021
0.0196407
0.0810251
0.0050894
0.0513665
0.0183872
0.0843844
0.168572
-0.127035
0.049079
0.141327
0.0227282
0.107376
0.00617177
0.067923
0.024559
0.0940506
0.214687
-0.140166
0.055766
0.179611
0.0265237
0.136618
0.00742748
0.0870192
0.0319865
0.107398
-0.157379
0.0644068
0.0308661
0.00862641
0.513312
0.175693
-0.293025
0.562793
0.161001
-0.210482
0.497008
0.313454
-0.247669
0.334992
0.803122
-0.641106
1.04151
-0.813799
0.513791
0.0578819
0.560667
0.114125
0.487711
0.38641
0.331384
0.95945
1.2583
0.513989
-0.0601278
0.547414
0.0807001
0.46708
0.466744
0.328081
1.09845
1.45935
0.510365
-0.174513
0.5259
0.0651658
0.441951
0.550693
0.323845
1.21656
1.64302
0.499022
-0.277556
0.494571
0.0696165
0.412652
0.632612
0.312005
1.3172
1.79765
0.764084
-0.437619
0.844338
-0.0106375
0.956352
0.520597
1.16944
1.10411
1.61952
1.34757
0.707004
-0.540602
0.78163
-0.0852639
0.954512
0.347716
1.2977
0.76093
1.14346
1.77376
0.602245
-0.538826
0.632983
-0.116002
0.803507
0.177191
1.17251
0.391931
0.612036
1.70393
0.448457
-0.383263
0.405441
-0.0729862
0.536052
0.0465806
0.816004
0.111979
0.186913
1.24113
0.220757
0.147771
0.194351
0.306331
0.493243
1.40259
-0.246754
1.46574
-0.230383
1.523
-0.18547
1.56316
-0.120661
-0.0405269
1.75266
-0.225654
1.71974
-0.197463
1.69062
-0.156349
1.67083
-0.10088
-0.0349536
1.60147
-0.123191
1.50876
-0.104754
1.43456
-0.0821486
1.38705
-0.0533722
-0.0186951
1.15107
-0.0331332
1.0743
-0.0279886
1.0153
-0.0231436
0.977571
-0.015645
-0.00566012
0.46011
0.432122
0.408978
0.393333
0.00250153
0.0430085
-0.04551
0.00732832
0.101056
-0.105883
0.0160959
0.148402
-0.15717
0.0165793
0.151916
-0.1524
0.114033
0.0148149
-0.112269
0.00682878
0.0361797
0.0201789
0.0877058
0.0409599
0.127621
0.0482574
0.144619
0.116387
0.0459039
0.00880982
0.0273699
0.0270782
0.0694374
0.0521534
0.102546
0.0730955
0.123677
0.114041
0.0754419
0.00780173
0.0195682
0.0255149
0.0517243
0.0497508
0.0783099
0.0774342
0.0959933
0.0992478
0.092227
0.00509906
0.0144691
0.0179737
0.0388496
0.0367677
0.0595159
0.060011
0.07275
0.0767482
0.0825106
0.00342376
0.0110453
0.0125803
0.029693
0.0274437
0.0446525
0.0470586
0.0531351
0.0561545
0.0676523
0.00222243
0.0088229
0.0089305
0.0229849
0.0222685
0.0313145
0.0410206
0.0343829
0.0347687
0.0624065
0.00167484
0.00714806
0.0101343
0.0145255
0.0261962
0.0152526
0.0467557
0.0138233
0.0115149
0.0700094
0.00375215
0.00339589
0.0175582
0.000719367
0.0369012
-0.00409051
0.059928
-0.00920362
-0.0144004
0.0858431
0.00751739
0.0236296
0.0448564
0.0704653
0.099462
0.153836
0.0197705
-0.105954
0.243423
-0.130376
0.0407879
0.264767
-0.0380372
0.0166931
0.269678
0.0040061
-0.00891712
-0.00128929
-0.0048171
0.214833
-0.132656
0.325351
-0.240894
0.351483
-0.064169
0.353864
0.0016244
-0.00378
0.260185
-0.322832
0.391513
-0.372222
0.433727
-0.106382
0.434749
0.000602333
-0.00157609
0.293458
-0.530448
0.438902
-0.517665
0.502825
-0.170305
0.508686
-0.00525889
0.00393767
0.312527
0.465784
0.550656
0.570899
0.0706741
0.0386722
-0.109346
0.0786543
-0.00798013
0.0829793
-0.00432508
0.080353
0.00262629
0.00119855
0.194113
-0.261395
0.226921
0.239289
0.232998
0.0207328
-0.00433168
-0.0164011
0.0342836
-0.0135508
0.0567629
-0.0224793
0.0856232
-0.0288603
-0.0237232
0.0539257
-0.0434425
0.0862788
0.139241
0.202608
0.0478284
-0.0551502
0.0763552
-0.0690334
0.0275566
-0.0521704
0.0724422
0.0123373
-0.0443809
0.0596002
0.00331807
-0.0300418
0.0390611
-0.011261
0.0145791
0.0453819
-0.0322697
-0.0682625
0.0249557
-0.0317443
0.00981999
-0.0292451
0.00218926
-0.0224111
-0.00907171
0.0560548
-0.00668781
-0.0816368
0.0331192
-0.00880872
0.0142736
-0.0103995
0.00258714
-0.0107246
-0.00648456
0.0701149
0.0215606
-0.0983633
0.0448376
0.0164687
0.0233678
0.0110703
0.00692188
0.00572134
0.000437321
0.0744408
-0.105587
0.0469404
0.0242171
0.00772227
0.0165859
-0.114032
-0.0148233
0.0160951
-0.151909
0.007307
-0.148382
0.00248926
-0.101065
-0.0430208
0.0482732
-0.116376
-0.0459285
0.0409337
-0.14457
0.0201649
-0.127613
0.00682158
-0.0877217
-0.0361992
0.0731269
-0.11397
-0.0755329
0.0521256
-0.123568
0.0270665
-0.102554
0.00880674
-0.069462
-0.0273925
0.0773416
-0.0989723
-0.0923395
0.049623
-0.0958496
0.0254346
-0.0783652
0.00777603
-0.0518034
-0.0196164
0.059952
-0.0825691
0.0365447
0.0177797
0.00503736
0.341908
0.583372
-0.529301
0.280512
0.22511
-0.163714
0.247393
0.054978
-0.0218589
0.165295
0.113518
-0.0314209
-0.000968124
0.0972295
0.407747
0.571605
0.371334
0.261524
0.335581
0.090731
0.233544
0.215555
0.164314
0.459766
0.507818
0.451346
0.269944
0.409208
0.132869
0.283765
0.340997
0.366442
0.495101
0.408697
0.514431
0.250613
0.461459
0.185842
0.3179
0.484556
0.58598
0.511651
0.551783
0.489956
0.333406
0.158667
0.351384
0.0847709
0.0738963
0.0799898
0.0047812
0.0724285
0.00756129
-0.0369707
0.109399
0.332134
0.242317
0.225239
0.201379
0.261638
0.085673
0.0237261
0.0567948
0.0288782
0.0342947
0.0225001
0.0207363
0.0135583
0.00433518
0.202795
0.139334
0.0863008
0.0539306
)
;

boundaryField
{
    left
    {
        type            calculated;
        value           nonuniform List<scalar> 
17
(
-0.60402
-0.60402
-0.60402
-0.60402
-0.60402
-0.39598
-0.39598
-0.39598
-0.39598
-0.39598
-0.39598
-0.39598
-0.39598
-0.39598
-0.39598
-0.510051
-0.510051
)
;
    }
    right
    {
        type            calculated;
        value           nonuniform List<scalar> 
17
(
0.0791545
0.229379
0.275785
0.356355
0.432545
0.503172
0.566425
0.620103
0.65887
0.667118
0.653365
0.607689
0.813404
0.65339
0.481801
0.297411
0.104033
)
;
    }
    down
    {
        type            calculated;
        value           uniform 0;
    }
    up
    {
        type            calculated;
        value           uniform 0;
    }
    cylinder
    {
        type            calculated;
        value           uniform 0;
    }
    defaultFaces
    {
        type            empty;
    }
}


// ************************************************************************* //
