/*--------------------------------*- C++ -*----------------------------------*\
  =========                 |
  \\      /  F ield         | OpenFOAM: The Open Source CFD Toolbox
   \\    /   O peration     | Website:  https://openfoam.org
    \\  /    A nd           | Version:  13
     \\/     M anipulation  |
\*---------------------------------------------------------------------------*/
FoamFile
{
    format      ascii;
    class       volScalarField;
    location    "0.725";
    object      strainRateViscosityModel:nu;
}
// * * * * * * * * * * * * * * * * * * * * * * * * * * * * * * * * * * * * * //

dimensions      [0 2 -1 0 0 0 0];

internalField   nonuniform List<scalar> 
440
(
9.41955
8.96973
8.5445
8.04238
7.58621
9.68996
9.35817
8.98177
8.48003
7.87556
9.80074
9.53084
9.15876
8.58508
7.84825
9.84962
9.61817
9.25861
8.64755
7.86606
9.86917
9.65606
9.30591
8.68094
7.90878
1.3067
1.79087
2.05031
2.30048
2.36454
3.3855
3.30245
3.31687
3.42521
3.49592
5.89242
5.27148
4.92797
4.72801
4.75772
7.76962
6.99346
6.42036
5.90484
5.82729
8.82068
8.15136
7.55209
6.91821
6.8716
1.85179
0.846388
0.419942
0.157145
0.150857
2.61657
0.909203
0.366843
0.123967
0.0411504
3.51258
1.14864
0.304265
0.0830842
0.0138877
4.09171
1.43619
0.277413
0.048751
0.0403568
4.60428
1.75351
0.323852
0.0116804
0.148395
4.22958
1.74079
0.300197
0.0643106
0.278965
3.71131
1.82424
0.627434
0.312926
0.418088
4.91955
3.20857
1.23959
0.556067
0.541017
7.00945
4.28869
1.91664
0.899989
0.665704
8.27283
5.07666
2.49622
1.3054
0.843173
2.84825
3.6826
4.61974
5.50564
6.14893
3.68374
3.69662
3.7722
3.85217
3.36786
8.2265
8.08654
7.79931
7.38541
6.34639
9.0529
8.99237
8.85903
8.62149
8.16016
9.60671
9.56995
9.48702
9.33805
9.1188
7.50325
8.01244
8.55944
9.01088
9.46418
7.794
8.45165
8.98714
9.37787
9.70864
7.77899
8.55905
9.15942
9.54077
9.80944
7.81627
8.62755
9.25739
9.62275
9.85359
7.89134
8.67366
9.30535
9.65743
9.87034
2.53162
2.47268
2.27282
2.11855
2.04744
3.47972
3.43172
3.47218
3.69204
4.24473
4.63633
4.65946
5.04961
5.59904
6.45099
5.684
5.826
6.49746
7.18784
8.04104
6.75332
6.84175
7.58037
8.24272
8.93538
0.208056
0.0598639
0.280261
0.867564
2.02556
0.178521
0.0754935
0.225392
0.886475
2.66015
0.158425
0.0793035
0.169797
1.08103
3.44121
0.146899
0.0647634
0.157433
1.38746
3.94283
0.151243
0.0710699
0.251269
1.73605
4.36507
0.202269
0.109119
0.270906
1.86977
4.10119
0.333982
0.127233
0.27377
1.81123
3.86136
0.664555
0.248871
0.775118
3.03696
4.90799
2.27431
0.816464
1.5095
4.1623
6.96072
5.05685
2.53876
2.4209
5.03806
8.27912
5.94715
5.26616
4.40239
3.51042
2.77982
3.52225
3.99104
3.97091
3.87632
3.76364
6.321
7.35232
7.77903
8.0677
8.21848
8.12123
8.59994
8.84944
8.98862
9.05203
9.11693
9.33781
9.48741
9.57051
9.60696
9.31087
7.91686
1.39866
3.63021
7.73681
9.08186
7.44081
3.20598
1.64076
6.78905
8.3987
6.57772
4.20851
1.00357
4.14773
6.81568
5.09477
3.45531
1.70064
1.03874
4.50385
3.14534
2.03882
1.37792
0.459981
2.59726
1.61867
1.00247
0.796927
0.926531
1.45626
0.779118
0.579764
0.612965
0.685677
0.801448
0.406026
0.590694
0.759458
0.832736
0.305662
0.507906
0.88547
1.05109
1.1125
0.162501
0.935328
1.28132
1.51756
1.57202
0.190414
0.362458
0.708884
0.775615
0.730027
0.395728
0.500848
0.577984
0.634633
0.618643
0.614413
0.647616
0.464028
0.490665
0.503442
0.966435
0.796183
0.416778
0.35095
0.384178
1.3312
0.846449
0.422386
0.232794
0.266564
1.10564
0.857924
1.12206
1.10718
0.998284
0.283826
0.471657
0.864612
0.918807
0.845127
9.19117
8.83866
7.75882
5.73023
3.5597
8.5873
7.72292
5.85161
3.49152
0.86607
0.964685
0.858431
1.02692
1.6202
2.65823
0.813425
0.767481
0.703982
0.824589
1.52649
1.05958
1.01084
0.847622
0.553077
0.744159
1.3839
1.34687
1.14898
0.797525
0.228291
1.85506
1.80839
1.55638
1.23862
0.598056
7.73634
3.62714
1.39995
7.9151
9.31102
6.78524
1.64055
3.20264
7.43771
9.0825
4.13428
1.01087
4.19437
6.57312
8.40027
1.03676
1.70545
3.43368
5.08564
6.82217
0.476122
1.37632
2.01479
3.12763
4.52671
1.31166
0.542833
0.550681
0.453455
0.17598
0.677475
0.292339
0.468015
0.519757
0.48596
0.398939
0.156154
0.380867
0.621233
0.804286
0.28945
0.070839
0.340733
0.772948
1.22325
0.245124
0.0445794
0.319017
0.856725
1.58745
5.48119
2.46054
1.03534
0.961282
1.14177
2.88761
1.08801
0.724374
0.55571
0.252049
3.56825
5.7358
7.76
8.83919
9.19132
0.843527
3.47212
5.845
7.72154
8.58715
)
;

boundaryField
{
    left
    {
        type            calculated;
        value           nonuniform List<scalar> 
17
(
0.455932
1.12104
2.18513
3.91017
6.5804
0.303596
0.188015
0.137558
0.142811
0.212795
2.95918
2.06149
1.33781
0.818231
0.498315
6.97878
4.57972
)
;
    }
    right
    {
        type            calculated;
        value           nonuniform List<scalar> 
17
(
0.998577
0.84659
0.732161
0.621543
0.505829
0.383599
0.260184
0.138218
0.0327491
0.0127466
0.0499554
0.192719
0.342262
0.473462
0.575991
0.679381
0.835012
)
;
    }
    down
    {
        type            calculated;
        value           nonuniform List<scalar> 
20
(
5.99508
2.99964
1.14486
1.04383
1.85301
4.27034
6.38388
8.13145
9.01581
9.30927
9.3091
9.01517
8.12996
6.37983
4.26412
1.83165
0.932536
1.18849
1.16411
1.04559
)
;
    }
    up
    {
        type            calculated;
        value           nonuniform List<scalar> 
20
(
8.54861
5.40463
2.72571
1.4549
0.908766
9.69562
9.66615
9.59857
9.47421
9.2934
9.29639
9.47646
9.60018
9.66726
9.69603
5.70481
3.14909
2.6609
5.39383
8.56551
)
;
    }
    cylinder
    {
        type            calculated;
        value           nonuniform List<scalar> 
40
(
1.3726
3.59039
6.11877
7.96039
8.95707
9.50512
9.74577
9.84079
9.88145
9.89745
9.54744
9.76283
9.84855
9.88495
9.89848
2.28574
4.52231
6.69787
8.23406
9.06987
3.04373
1.85037
1.09385
0.445731
0.605463
9.51905
9.33189
8.74233
7.26978
4.98622
9.51888
9.33115
8.74027
7.26154
4.95763
2.96584
1.73324
1.07391
0.667986
0.103578
)
;
    }
    defaultFaces
    {
        type            empty;
    }
}


// ************************************************************************* //
