/*--------------------------------*- C++ -*----------------------------------*\
  =========                 |
  \\      /  F ield         | OpenFOAM: The Open Source CFD Toolbox
   \\    /   O peration     | Website:  https://openfoam.org
    \\  /    A nd           | Version:  13
     \\/     M anipulation  |
\*---------------------------------------------------------------------------*/
FoamFile
{
    format      ascii;
    class       volVectorField;
    location    "31";
    object      U;
}
// * * * * * * * * * * * * * * * * * * * * * * * * * * * * * * * * * * * * * //

dimensions      [0 1 -1 0 0 0 0];

internalField   nonuniform List<vector> 
440
(
(-0.0605331 0.0548771 -6.03156e-20)
(-0.0224998 0.0801839 2.96621e-20)
(0.196807 0.0402878 2.75667e-20)
(0.621792 -0.00541558 8.15711e-20)
(0.907468 -0.0644485 -5.3505e-21)
(-0.035477 0.0187151 4.29174e-20)
(0.207735 -0.0526812 -1.3747e-19)
(0.766295 -0.123826 -1.27934e-19)
(1.33966 -0.175615 2.57641e-20)
(1.88097 -0.22066 -2.29795e-20)
(0.0421008 -0.0221584 4.75958e-20)
(0.68511 -0.100805 9.78563e-19)
(1.49557 -0.111807 -7.45272e-19)
(2.07024 -0.101858 -2.34851e-18)
(2.50863 -0.0980795 1.08762e-18)
(0.283824 -0.064204 -1.78385e-19)
(1.3735 -0.0279044 -7.29719e-19)
(2.12623 0.0198733 2.33853e-18)
(2.4958 0.0449635 2.69155e-18)
(2.50934 0.0464799 -7.34522e-19)
(0.660164 -0.00595086 -3.40134e-19)
(1.87447 0.165779 -7.66064e-19)
(2.38581 0.226283 2.39262e-18)
(2.49059 0.227377 2.49248e-18)
(2.57355 0.202909 8.39784e-19)
(-0.0261908 0.0684374 1.69374e-19)
(-0.113326 -0.0259894 -1.78314e-20)
(-0.235195 -0.050451 -1.31324e-19)
(-0.374688 -0.0380795 8.12487e-21)
(-0.488541 -0.0681213 -1.12585e-19)
(-0.0620083 0.213103 -5.85129e-20)
(-0.133028 0.228965 -4.4217e-19)
(-0.222798 0.252465 1.10458e-19)
(-0.312231 0.265898 1.19988e-19)
(-0.346422 0.195473 -2.45661e-19)
(-0.0810347 0.229248 -3.88674e-19)
(-0.0994555 0.304116 4.9728e-19)
(-0.108241 0.341256 -1.70532e-19)
(-0.0790716 0.362505 -1.46017e-18)
(-0.0126591 0.30505 1.55912e-20)
(-0.0790288 0.158599 2.71141e-21)
(-0.0958431 0.248617 -4.22461e-20)
(-0.0617368 0.25726 5.74398e-20)
(0.0404771 0.215362 5.96656e-19)
(0.180701 0.112926 -1.14464e-19)
(-0.0744133 0.096795 1.75024e-21)
(-0.0909911 0.157627 -1.08061e-20)
(-0.0106236 0.126676 -1.90131e-20)
(0.18055 0.0444661 1.27341e-20)
(0.397466 -0.0318187 7.53809e-20)
(-0.816117 -0.494219 -1.27949e-18)
(1.33263 -0.0373949 -2.46602e-18)
(0.108065 1.2266 5.52991e-19)
(0.984952 -0.135897 -1.14049e-18)
(1.17784 -0.657882 3.47252e-20)
(0.0409372 -0.80448 2.41036e-18)
(1.59427 -0.202899 9.90267e-20)
(0.222672 1.2936 -1.31216e-19)
(1.25756 -0.27437 4.31196e-19)
(1.37298 -0.681569 -1.3861e-19)
(1.37784 -1.11406 8.38076e-19)
(1.3014 -0.344312 1.1607e-18)
(0.818411 1.28308 1.15646e-19)
(1.49314 -0.352781 -5.68176e-19)
(1.53852 -0.700683 5.15733e-20)
(2.01599 -1.20099 -3.45887e-20)
(0.121091 -0.335641 -1.34833e-20)
(0.759828 1.26734 6.37838e-19)
(1.72522 -0.431395 3.11612e-19)
(1.6605 -0.706067 -1.43025e-19)
(2.01546 -1.09674 -4.56726e-19)
(-0.940819 -0.27161 1.22854e-18)
(0.284495 1.07664 0)
(2.05869 -0.520109 -1.65839e-20)
(1.78257 -0.690138 -6.98739e-20)
(2.47341 -0.815582 -7.72936e-19)
(0.528656 -0.17826 6.69791e-21)
(0.7544 0.439387 4.89327e-20)
(2.42078 -0.716777 -1.1803e-19)
(1.86963 -0.66582 1.35332e-19)
(2.24406 -0.755473 7.51782e-20)
(0.901545 0.177307 -6.78684e-19)
(1.52298 0.316584 1.86201e-20)
(2.54481 -0.71658 8.12967e-19)
(1.76573 -0.532788 0)
(2.16166 -0.316085 -4.56989e-19)
(1.17245 0.0998257 1.57687e-20)
(2.14367 -0.108137 3.8029e-19)
(2.31175 -0.710462 -4.00338e-19)
(1.32327 -0.41163 1.66921e-20)
(1.84897 -0.256283 -5.05587e-20)
(1.50789 0.0581595 9.5992e-20)
(2.12525 -0.172399 2.93951e-20)
(1.65287 -0.426214 1.19524e-33)
(0.617423 -0.189797 2.10588e-20)
(1.04144 -0.0118505 3.89589e-20)
(1.09464 -0.0303956 2.35364e-20)
(1.00052 -0.140951 -4.94612e-20)
(0.188781 -0.0512971 1.01267e-19)
(-0.315255 0.00239284 -1.94271e-20)
(2.38339 0.209835 -1.07842e-18)
(2.66874 -0.016099 -1.39897e-18)
(2.3709 -0.0213981 1.24863e-18)
(2.7677 -0.262048 -2.45319e-20)
(2.04388 -0.140913 -8.20899e-20)
(2.11868 0.15772 3.66824e-20)
(2.47948 -0.0302045 -4.54948e-20)
(2.22693 -0.025207 -1.44858e-19)
(2.47581 -0.23739 -2.6582e-19)
(2.28848 -0.266599 -3.77572e-21)
(2.09628 0.0644195 6.62699e-20)
(2.20816 0.00127447 1.29288e-19)
(2.18719 -0.069482 -1.86727e-19)
(2.22274 -0.121038 5.65106e-20)
(2.22406 -0.218401 7.93645e-20)
(2.01847 0.0189041 1.11307e-19)
(1.96103 -0.0162344 9.8902e-20)
(2.09977 -0.0498366 -1.56355e-20)
(2.00685 -0.0883762 3.85129e-20)
(2.13516 -0.116755 8.43394e-21)
(1.45067 -0.0171978 1.54366e-19)
(1.37157 -0.0129411 -1.22175e-20)
(1.46984 -0.0332456 2.43812e-20)
(1.33768 -0.0208631 -2.98283e-21)
(1.46084 -0.0513869 4.68793e-20)
(1.6171 0.85376 1.16351e-18)
(1.56293 0.951641 -3.5398e-19)
(1.55745 1.0839 -1.38518e-18)
(1.49176 1.1357 7.66958e-19)
(0.92355 0.829172 -1.86895e-19)
(1.89292 0.810649 -6.03769e-19)
(1.86196 0.890322 -3.11923e-18)
(1.87067 1.00105 -1.20236e-18)
(1.78882 1.01825 -4.39667e-19)
(1.10289 0.726083 -7.11107e-19)
(2.19639 0.689435 8.16595e-19)
(2.17785 0.758872 2.11569e-19)
(2.15629 0.849775 -2.39195e-18)
(2.03003 0.839181 -6.824e-19)
(1.2131 0.566521 5.2404e-19)
(2.36822 0.561155 2.49356e-18)
(2.35416 0.609599 1.82434e-18)
(2.35853 0.666606 -2.11949e-18)
(2.15459 0.628299 -1.61504e-18)
(1.19633 0.373811 -3.09861e-19)
(2.49963 0.389577 1.2731e-18)
(2.53025 0.416833 -9.13048e-19)
(2.44252 0.442869 6.41547e-19)
(2.11858 0.392839 5.38276e-19)
(1.01921 0.166171 -4.69115e-19)
(0.574349 0.459913 -6.45076e-19)
(0.485626 0.495044 -5.00916e-19)
(0.367636 0.5306 5.9633e-20)
(0.229379 0.541154 -1.00691e-20)
(0.0574855 0.396634 8.9009e-20)
(0.675687 0.638289 1.28344e-19)
(0.611942 0.699545 -2.91757e-19)
(0.525303 0.769186 1.91837e-19)
(0.400557 0.822197 -8.90274e-20)
(0.174793 0.626472 1.25631e-19)
(0.790901 0.818532 1.65379e-19)
(0.716438 0.897996 4.75441e-19)
(0.658613 0.997752 9.07486e-20)
(0.574769 1.05061 -3.11217e-19)
(0.316337 0.785861 2.58287e-19)
(1.06122 0.911866 2.48373e-19)
(1.01635 0.998902 -7.19465e-19)
(0.965323 1.09811 -1.98335e-18)
(0.882383 1.16415 8.04269e-19)
(0.522966 0.872125 -1.81283e-19)
(1.1516 0.935121 -1.26189e-19)
(1.17922 1.06124 -2.05919e-19)
(1.20597 1.18324 -3.67363e-19)
(1.15675 1.219 -4.22895e-19)
(0.714971 0.886665 -6.84751e-21)
(1.02353 0.051906 -1.03819e-19)
(0.981167 0.0433861 -3.90601e-20)
(1.03649 0.111999 -1.43682e-21)
(0.949033 0.152223 -3.35461e-19)
(0.887075 0.281568 3.24179e-19)
(1.01484 0.0492275 6.59569e-20)
(0.989829 0.0434158 1.36229e-19)
(1.02913 0.116135 1.36288e-19)
(0.984407 0.183469 4.53781e-20)
(0.933988 0.360476 -1.55986e-20)
(1.02158 0.0481144 8.99238e-20)
(0.969059 0.0383861 -5.03321e-21)
(1.08172 0.13198 -7.36071e-21)
(0.937567 0.185396 1.65829e-19)
(1.14507 0.49906 -5.06083e-19)
(1.01583 0.048797 -4.45631e-22)
(0.981444 0.0301722 -1.87895e-19)
(1.09105 0.142514 -7.18896e-20)
(1.01975 0.198452 -4.13538e-19)
(1.16153 0.541256 1.04143e-19)
(1.01039 0.0437895 -1.63107e-20)
(0.98336 0.0286605 5.21268e-20)
(1.14846 0.145952 3.44323e-20)
(0.978076 0.227592 4.78138e-19)
(1.43747 0.670375 -4.80358e-19)
(0.970434 0.047937 -1.3254e-20)
(1.04387 0.00315182 1.09018e-19)
(1.15563 0.171608 -9.43848e-20)
(1.19536 0.160622 8.67054e-19)
(1.31453 0.687895 -4.04883e-19)
(0.905716 0.024794 -1.57882e-21)
(1.13482 -0.0183695 -1.10256e-19)
(1.15051 0.100358 4.79036e-21)
(1.27101 0.187952 -2.54242e-19)
(1.27258 0.418074 -6.09194e-21)
(0.949965 0.0262991 -7.33678e-21)
(1.14522 -0.0594376 1.49816e-35)
(1.14428 0.0959501 -6.11738e-20)
(1.19578 0.156341 7.68874e-20)
(1.47711 0.246649 1.72564e-19)
(1.07916 -0.0303412 4.19466e-21)
(1.0393 -0.0699487 -2.45659e-20)
(1.07829 0.0655499 1.69346e-20)
(1.19557 0.085023 3.39402e-20)
(1.56015 0.127202 -2.58046e-19)
(1.00196 -0.0252366 -4.28831e-20)
(0.78716 -0.022175 -2.76406e-21)
(0.830676 0.0158319 2.51225e-20)
(0.944896 -0.000719547 -1.02451e-20)
(1.11297 0.0318218 -5.88432e-20)
(1.87438 0.660114 3.40507e-19)
(1.93121 0.666481 8.26174e-19)
(2.23317 0.540276 -1.17573e-18)
(2.23733 0.48573 4.69364e-20)
(2.50525 0.285645 4.97132e-19)
(1.80509 0.455017 6.49147e-20)
(1.783 0.436254 1.03474e-18)
(2.09254 0.368143 1.01196e-19)
(1.97892 0.321657 -9.66718e-19)
(2.34412 0.177156 -3.15517e-19)
(1.72222 0.313883 -2.22623e-19)
(1.80446 0.2598 -1.51188e-19)
(1.9302 0.246071 2.41819e-19)
(1.9667 0.178464 -3.04933e-19)
(2.11066 0.125289 2.7156e-19)
(1.64954 0.17695 3.20943e-19)
(1.75336 0.138422 -3.46317e-21)
(1.7619 0.131531 2.16996e-19)
(1.89339 0.0851383 1.84739e-19)
(1.87722 0.057513 -1.79828e-19)
(1.26158 0.0427728 -3.6069e-20)
(1.30274 0.0261421 2.11516e-19)
(1.32398 0.0211428 9.97531e-20)
(1.38962 0.00257549 -2.16932e-19)
(1.37237 -0.000757714 4.89823e-22)
(1.15973 -0.0271219 4.93077e-20)
(2.20203 -0.0490719 -4.17429e-19)
(2.4381 -0.037399 1.18279e-18)
(2.43198 0.00628413 5.35409e-19)
(2.26783 0.0334334 -3.54616e-19)
(0.704019 0.0886939 8.43431e-20)
(1.97468 0.0779511 -4.32365e-19)
(2.4542 0.0813898 -5.77979e-19)
(2.50227 0.0948154 7.16115e-19)
(2.25784 0.0855306 -4.53455e-19)
(0.184912 0.0674369 -3.49613e-20)
(1.31947 0.13747 4.49083e-19)
(2.10747 0.16419 7.0072e-20)
(2.51817 0.160036 4.61435e-19)
(2.66944 0.160469 2.4697e-19)
(-0.068939 -0.0397434 2.02301e-19)
(0.445951 0.0609747 1.98809e-19)
(1.29461 0.14061 -4.26656e-19)
(1.82407 0.184728 2.45272e-20)
(2.4613 0.22012 6.86436e-20)
(-0.12089 -0.0988038 1.3605e-19)
(-0.0411791 -0.0728292 -1.55825e-19)
(0.440651 0.0157782 -2.06666e-20)
(0.91872 0.0501737 1.14931e-20)
(1.42753 0.144063 -3.74883e-20)
(-0.0922202 -0.0976613 1.67322e-20)
(-0.166828 -0.145632 8.96517e-20)
(-0.0547307 -0.156273 6.46221e-20)
(0.126067 -0.138236 -5.97192e-20)
(0.582983 -0.0526077 7.72555e-21)
(-0.0497354 -0.0649268 -5.00577e-21)
(-0.137151 -0.152692 -4.63906e-20)
(-0.162955 -0.221357 -3.02495e-20)
(-0.133267 -0.252524 -7.35409e-21)
(0.0241281 -0.181079 -5.58846e-22)
(-0.0201041 -0.0356334 8.79811e-21)
(-0.0757536 -0.151525 1.71563e-19)
(-0.10946 -0.271024 -1.57611e-19)
(-0.120677 -0.354684 -4.7945e-19)
(-0.10019 -0.367769 1.25539e-19)
(-0.0124128 -0.0436555 -1.75573e-20)
(-0.0426627 -0.209708 -1.08018e-19)
(-0.0570831 -0.356638 3.04664e-19)
(-0.071291 -0.437713 2.99241e-19)
(-0.0769138 -0.463853 -7.4431e-20)
(-0.0127605 -0.0385254 7.88443e-21)
(-0.0606854 -0.212505 -2.53701e-20)
(-0.118633 -0.315955 6.86389e-21)
(-0.193772 -0.332145 3.39015e-20)
(-0.267117 -0.31613 1.32971e-20)
(1.46423 0.609978 -2.19287e-20)
(1.61963 0.355043 6.28895e-19)
(0.874182 0.370632 1.0589e-19)
(-0.28727 -0.0787452 4.73373e-20)
(0.515601 -0.348847 -4.13421e-20)
(1.10597 0.426156 2.95236e-20)
(1.75311 0.37001 -1.16461e-19)
(1.08603 0.561579 6.51476e-19)
(-0.00497279 -0.0311575 -6.57759e-22)
(0.536441 -0.439901 2.05895e-19)
(0.591042 0.158126 1.6375e-19)
(1.722 0.384796 -1.34934e-19)
(0.990196 0.778075 -2.99261e-20)
(0.217485 0.0320689 -7.07171e-20)
(0.646786 -0.50618 -3.08032e-20)
(-0.0027963 -0.156558 2.83967e-19)
(1.6798 0.270775 6.30089e-19)
(0.809479 0.938264 -5.25269e-19)
(0.459749 0.0412996 1.59802e-21)
(0.811141 -0.567869 -9.77722e-20)
(-0.662352 -0.306004 1.13052e-19)
(1.47442 0.15995 5.20378e-19)
(0.48557 1.12469 5.49694e-19)
(0.736052 0.0218057 -1.97357e-20)
(1.00475 -0.606038 -1.02914e-19)
(0.136145 0.187525 -4.64837e-20)
(-0.271485 -0.160574 0)
(-0.350686 -0.0913687 7.25742e-21)
(-0.415728 -0.0626678 3.45038e-21)
(0.317683 -0.0432116 1.02848e-20)
(1.87216 0.557839 0)
(1.31963 0.327877 0)
(0.543509 0.108943 -4.11835e-20)
(-0.435666 -0.117678 -6.78431e-20)
(0.560318 -0.201078 1.12592e-19)
(0.720971 0.00186499 -1.1477e-19)
(0.747894 -0.00746194 8.97508e-20)
(1.01998 0.00519898 -4.5078e-20)
(0.950965 0.00184776 3.35557e-19)
(1.44787 0.0962034 2.34352e-19)
(1.63745 0.0264436 1.07472e-19)
(1.79525 0.0673302 1.84343e-19)
(1.97988 0.0442841 -3.37577e-19)
(2.55202 0.193256 4.00845e-21)
(2.30234 0.129446 1.66299e-19)
(0.896593 -0.470878 -6.1215e-21)
(0.882793 -0.558955 -1.50776e-19)
(0.875214 -0.654734 -1.25711e-19)
(0.803721 -0.720108 7.61163e-20)
(0.483495 -0.559033 1.16791e-19)
(0.802269 -0.378738 1.26546e-19)
(0.746531 -0.441841 2.48755e-19)
(0.670395 -0.509083 -4.42673e-20)
(0.553865 -0.564525 1.19689e-19)
(0.297491 -0.442726 3.96224e-20)
(0.639273 -0.239778 -1.63589e-19)
(0.547674 -0.276642 -4.35763e-20)
(0.445858 -0.324216 1.09979e-19)
(0.330499 -0.366657 -1.65145e-20)
(0.145735 -0.288319 -1.02557e-19)
(0.544793 -0.00672738 -4.44726e-19)
(0.459828 -0.0210518 -3.68417e-19)
(0.351685 -0.0457749 2.88352e-19)
(0.225671 -0.0786928 1.85736e-19)
(0.0614763 -0.0789943 1.41166e-20)
(0.521515 0.198194 -1.82688e-19)
(0.436016 0.203064 -1.80905e-19)
(0.320725 0.206825 -8.0103e-20)
(0.185275 0.212581 1.94164e-20)
(0.0273748 0.160342 1.23124e-20)
(2.01677 -0.0397507 7.69207e-19)
(2.27121 -0.106196 2.79674e-19)
(2.34879 -0.190523 -7.2362e-19)
(2.19664 -0.217005 -1.47e-18)
(1.31225 -0.189464 1.07708e-19)
(1.9939 -0.122276 1.29904e-18)
(2.08614 -0.231002 1.69831e-18)
(2.09679 -0.350502 1.38355e-19)
(2.01499 -0.409644 2.36578e-19)
(1.28362 -0.358 -1.56127e-19)
(1.71141 -0.283602 -3.3841e-18)
(1.76529 -0.397808 4.07281e-19)
(1.80731 -0.519339 1.05019e-18)
(1.74439 -0.592092 -4.12217e-19)
(1.12542 -0.498948 6.39686e-19)
(1.49462 -0.40207 8.06946e-19)
(1.5102 -0.496908 -2.10256e-18)
(1.49407 -0.611169 -2.45546e-18)
(1.42258 -0.696387 7.57139e-19)
(0.910946 -0.57029 4.90788e-19)
(1.21079 -0.460836 1.7262e-19)
(1.15828 -0.550851 2.2182e-19)
(1.14343 -0.668823 -3.66965e-19)
(1.0854 -0.750956 -4.43137e-19)
(0.68189 -0.591544 -4.20253e-21)
(1.07033 0.0574992 7.85831e-21)
(0.91496 0.0557924 -6.21337e-21)
(1.12455 0.0756248 -8.57591e-21)
(0.792042 0.0105172 -1.78763e-19)
(1.11121 -0.210764 -6.12598e-21)
(1.07976 0.0612039 -2.62425e-21)
(0.913775 0.0538496 5.72872e-20)
(1.11915 0.0927838 -5.56584e-20)
(0.881033 0.0564534 8.61872e-20)
(0.984209 -0.093571 -2.67584e-20)
(1.07797 0.0586929 -6.45046e-20)
(0.918039 0.0504034 6.21788e-22)
(1.10627 0.0930242 -2.17829e-20)
(0.878288 0.0807049 -6.65366e-21)
(0.960571 -0.0357605 -1.49544e-19)
(1.05899 0.0572705 7.90373e-20)
(0.947475 0.0468639 3.65433e-21)
(1.06648 0.0983801 3.56713e-20)
(0.92382 0.106725 5.25867e-20)
(0.860357 0.0790239 1.22579e-19)
(1.03537 0.0538371 1.99582e-20)
(0.975695 0.0466891 -3.2733e-20)
(1.03539 0.101394 4.7711e-20)
(0.951494 0.136453 9.32736e-20)
(0.836011 0.175495 -1.28033e-19)
(0.890421 0.0338771 0)
(0.702041 0.0279897 1.03672e-20)
(0.608971 0.0231391 2.38425e-21)
(0.339422 -0.00604603 3.81776e-20)
(0.663147 -0.0543287 -1.05552e-19)
(1.03762 0.0761707 -6.60938e-20)
(0.925806 0.0715522 -2.07785e-20)
(1.02959 0.0767151 -2.55299e-20)
(0.800757 0.00525769 -9.08843e-20)
(1.01988 -0.191998 -1.10728e-19)
(0.923515 -0.0625143 -2.52828e-20)
(1.00557 -0.0317774 4.46984e-19)
(1.09515 0.0369362 2.84609e-19)
(0.967803 0.0541955 2.18253e-20)
(0.749933 0.028274 0)
(1.2923 -0.30943 2.52282e-19)
(1.40419 -0.273126 1.33563e-18)
(1.57808 -0.156211 -1.53617e-18)
(1.6679 -0.0215956 -4.80601e-19)
(1.57458 0.0271039 3.49166e-19)
)
;

boundaryField
{
    left
    {
        type            fixedValue;
        value           uniform (1 0 0);
    }
    right
    {
        type            zeroGradient;
    }
    down
    {
        type            noSlip;
    }
    up
    {
        type            noSlip;
    }
    cylinder
    {
        type            noSlip;
    }
    defaultFaces
    {
        type            empty;
    }
}


// ************************************************************************* //
