/*--------------------------------*- C++ -*----------------------------------*\
  =========                 |
  \\      /  F ield         | OpenFOAM: The Open Source CFD Toolbox
   \\    /   O peration     | Website:  https://openfoam.org
    \\  /    A nd           | Version:  13
     \\/     M anipulation  |
\*---------------------------------------------------------------------------*/
FoamFile
{
    format      ascii;
    class       volScalarField;
    location    "0.51";
    object      p;
}
// * * * * * * * * * * * * * * * * * * * * * * * * * * * * * * * * * * * * * //

dimensions      [0 2 -2 0 0 0 0];

internalField   nonuniform List<scalar> 
1800
(
5.74988
7.85701
10.0099
11.4383
12.2728
12.6835
12.8147
12.6577
11.4121
7.32074
9.60058
12.0763
14.5813
16.2654
17.322
17.9849
18.4398
18.6792
17.9552
15.278
15.9938
18.6186
21.2913
23.1547
24.415
25.2969
25.9478
26.3314
25.8605
24.0299
24.9897
27.5591
30.2076
32.1221
33.4875
34.4966
35.2592
35.7113
35.3054
33.621
36.0488
38.4097
40.862
42.6736
43.9981
44.9943
45.7489
46.1984
45.8483
44.293
48.7261
50.7787
52.9224
54.5287
55.7197
56.622
57.3043
57.715
57.4339
56.0747
62.6749
64.3477
66.1035
67.4354
68.4375
69.2072
69.7987
70.1757
70.0006
68.912
77.601
78.8426
80.1537
81.163
81.939
82.5529
83.047
83.4019
83.3685
82.6322
93.2194
93.9991
94.8307
95.4856
96.0084
96.4459
96.8287
97.1521
97.2623
96.9279
109.249
109.553
109.885
110.16
110.397
110.618
110.835
111.049
111.21
111.238
-0.590649
-0.842353
-0.620346
-0.206449
0.264855
0.731384
1.09076
1.30211
1.44693
1.59284
-0.482016
-0.994493
-1.10096
-0.893078
-0.469066
-0.044453
0.249822
0.492768
0.771883
1.04445
0.5062
-0.457158
-1.28238
-1.44544
-1.11868
-0.810926
-0.594491
-0.288382
0.118265
0.50374
0.895726
-0.242156
-1.433
-1.76966
-1.54969
-1.3931
-1.26427
-0.957487
-0.500323
0.00764982
0.466143
-0.499279
-1.43469
-1.72464
-1.66698
-1.67454
-1.63445
-1.3708
-0.878752
-0.184164
-0.23264
-0.748087
-1.146
-1.27465
-1.2945
-1.35758
-1.34739
-1.13711
-0.611339
0.321725
-0.562911
-0.524513
-0.346895
-0.200313
-0.115148
-0.0934136
-0.0534114
0.118028
0.697163
1.928
-0.0755041
0.511052
1.23246
1.73721
2.06711
2.28099
2.43144
2.64935
3.38117
5.04413
1.37452
2.48255
3.73114
4.65278
5.32295
5.81562
6.15624
6.49627
7.48403
9.77222
3.61823
5.26114
7.07937
8.45537
9.47817
10.2385
10.7612
11.2148
12.2766
14.4406
2.30868
2.44735
2.34191
2.10009
1.60173
1.19704
0.861504
0.592342
0.36519
0.137981
1.9569
2.42187
2.23515
2.01346
1.51595
1.11815
0.814098
0.574538
0.361585
0.138291
1.47799
2.39163
2.1323
1.91842
1.43717
1.04929
0.771468
0.556574
0.353321
0.134593
0.853427
2.30962
2.03206
1.81071
1.35871
0.986391
0.733356
0.539322
0.344803
0.130588
0.160308
2.13496
1.92259
1.68838
1.276
0.927193
0.69829
0.523355
0.337963
0.127846
-0.411232
1.85742
1.78586
1.5495
1.18579
0.870553
0.666001
0.509372
0.333514
0.127279
-0.559744
1.51018
1.60805
1.391
1.08556
0.815149
0.636961
0.497698
0.331567
0.128927
0.169469
1.18181
1.37982
1.20353
0.971073
0.758566
0.611252
0.488523
0.332413
0.131969
2.4261
1.04608
1.08042
0.962273
0.833121
0.697055
0.58808
0.482066
0.333424
0.13459
6.66125
1.41557
0.724145
0.646644
0.662725
0.627615
0.56613
0.475639
0.328572
0.128973
9.99057
2.58904
0.703268
0.406992
0.484952
0.546125
0.537514
0.458184
0.311821
0.11618
11.7764
2.58319
0.275483
0.0627337
0.356873
0.504827
0.505055
0.418767
0.278343
0.0956039
12.8715
2.78301
0.3964
0.147976
0.462263
0.562258
0.502073
0.386398
0.244441
0.0717309
14.1889
4.36611
1.27833
0.721108
0.784151
0.712433
0.538865
0.367717
0.212219
0.046838
16.3653
7.11203
2.7037
1.59191
1.24297
0.93522
0.617241
0.368358
0.186641
0.0234884
19.2578
9.88189
4.34301
2.56478
1.78047
1.209
0.731313
0.390099
0.171572
0.0047565
21.7636
11.9459
5.8637
3.52894
2.35162
1.51113
0.86913
0.431047
0.1692
-0.00693774
23.0429
13.1292
7.06119
4.43046
2.92783
1.8263
1.02118
0.487904
0.180081
-0.0100194
22.9827
13.508
7.92147
5.2779
3.51796
2.16238
1.19279
0.56415
0.207884
-0.00259837
22.4298
13.7328
8.69246
6.13856
4.1436
2.53993
1.40546
0.676119
0.269538
0.020439
111.794
97.8479
84.0831
71.0778
59.1385
48.3583
38.7769
30.1002
20.0888
4.98335
112.774
99.4856
85.9847
72.9782
60.9352
50.0546
40.5217
32.264
23.5993
11.4856
113.305
100.22
87.3395
75.013
63.4741
52.8822
43.4525
35.264
27.478
18.3439
114.518
102.777
90.8183
78.9871
67.6301
57.0345
47.4011
38.8005
31.0937
23.8305
115.095
104.084
93.163
82.4718
72.1247
62.2001
52.7373
43.8263
36.0076
29.8281
115.444
104.717
94.2105
84.0487
74.3282
65.0988
56.3395
48.0981
41.0564
36.0391
115.676
105.117
94.8053
84.8731
75.4304
66.55
58.2412
50.5738
44.22
40.1007
115.776
105.255
94.9884
85.1169
75.7628
67.017
58.9133
51.52
45.4033
41.4439
115.726
105.04
94.614
84.5949
75.1157
66.2832
58.1532
50.7838
44.5601
40.1074
115.602
104.656
93.968
83.6906
73.9651
64.915
56.6203
49.1256
42.6168
37.422
234.134
229.772
228.206
227.765
227.675
227.927
228.661
230.042
232.194
234.333
225.57
222.553
221.505
221.466
221.692
222.177
223.108
224.716
227.187
229.663
216.056
213.883
213.11
213.235
213.667
214.37
215.496
217.265
219.88
222.478
205.749
203.723
203.019
203.215
203.76
204.589
205.813
207.621
210.19
212.71
194.426
192.517
191.862
192.05
192.583
193.394
194.571
196.265
198.62
200.911
182.059
180.335
179.741
179.883
180.336
181.047
182.083
183.561
185.59
187.555
168.713
167.25
166.757
166.859
167.216
167.788
168.627
169.821
171.448
173.019
154.578
153.462
153.107
153.185
153.441
153.853
154.46
155.322
156.493
157.621
139.97
139.256
139.049
139.098
139.243
139.478
139.828
140.33
141.012
141.668
125.444
125.101
124.96
124.913
124.901
124.923
124.989
125.109
125.286
125.462
246.542
246.779
247.029
247.246
247.544
248.043
248.592
248.928
248.936
248.426
246.625
246.955
247.356
247.66
247.859
248.193
248.614
248.53
247.72
246.704
246.645
247.04
247.484
247.794
247.877
248.007
248.288
247.927
246.541
245.287
246.53
247.031
247.461
247.693
247.626
247.514
247.55
247.128
245.831
244.671
246.04
246.695
247.085
247.192
247.016
246.741
246.567
246.208
245.397
244.605
244.833
245.677
246.015
245.981
245.753
245.471
245.277
245.106
244.866
244.578
242.486
243.584
243.924
243.811
243.604
243.441
243.408
243.54
243.847
244.087
238.601
240.088
240.56
240.496
240.414
240.467
240.705
241.201
242.014
242.753
233.128
235.183
235.894
235.963
236.09
236.437
237.025
237.931
239.235
240.447
227.772
229.639
230.385
230.554
230.861
231.479
232.421
233.772
235.62
237.328
246.958
246.731
246.697
246.496
246.421
246.287
245.913
245.66
245.563
245.709
246.919
246.731
246.693
246.499
246.419
246.293
245.926
245.65
245.38
245.739
246.892
246.726
246.684
246.494
246.411
246.295
245.934
245.604
245.153
245.831
246.873
246.719
246.671
246.482
246.397
246.295
245.931
245.521
244.941
246.023
246.861
246.709
246.656
246.464
246.379
246.286
245.912
245.417
244.81
246.262
246.854
246.697
246.638
246.441
246.357
246.266
245.88
245.326
244.783
246.369
246.852
246.683
246.618
246.416
246.33
246.233
245.845
245.273
244.827
246.033
246.855
246.667
246.597
246.388
246.299
246.195
245.827
245.272
244.845
244.794
246.864
246.646
246.574
246.358
246.266
246.166
245.855
245.343
244.664
242.017
246.88
246.623
246.546
246.324
246.237
246.166
245.954
245.465
243.983
237.3
246.917
246.599
246.507
246.272
246.176
246.098
245.875
245.129
242.444
233.745
247.033
246.582
246.472
246.229
246.125
246.145
246.081
245.334
242.179
231.801
247.278
246.59
246.439
246.156
246.048
246.112
246.086
245.251
241.895
230.54
247.734
246.647
246.413
246.075
245.908
245.843
245.64
244.554
240.497
229.327
248.575
246.715
246.436
245.981
245.695
245.329
244.759
243.242
238.025
227.473
250.405
246.783
246.54
245.906
245.405
244.663
243.663
241.574
235.383
224.923
254.284
247.092
246.691
245.844
245.052
243.948
242.561
239.957
233.313
222.59
262.589
248.23
246.963
245.797
244.681
243.26
241.557
238.664
232.073
221.332
280.15
250.965
247.611
245.828
244.329
242.609
240.649
237.733
231.629
221.362
306.12
255.012
249.115
246.038
244.039
241.989
239.765
236.917
231.358
221.889
236.426
221.075
210.453
201.138
190.978
179.674
167.279
153.906
139.861
125.731
230.035
217.74
208.588
199.868
189.931
178.693
166.347
153.096
139.372
125.898
223.503
214.138
205.959
197.433
187.718
176.878
165.125
152.625
139.607
126.429
218.392
210.884
202.892
194.042
184.199
173.433
161.94
149.997
137.933
126.099
212.995
206.601
198.607
189.512
179.842
169.704
159.153
148.286
137.23
126.138
207.393
202.097
194.837
186.366
177.368
167.913
157.993
147.671
137.051
126.263
203.596
199.157
192.567
184.671
176.138
167.052
157.432
147.357
136.946
126.336
202.314
198.057
191.711
184.099
175.787
166.85
157.331
147.328
136.97
126.401
203.641
198.926
192.477
184.892
176.56
167.545
157.908
147.762
137.247
126.515
206.315
200.88
194.144
186.433
177.938
168.706
158.824
148.42
137.644
126.652
112.192
112.362
112.446
112.297
111.791
111.43
111.245
111.53
111.522
111.273
89.6182
90.0815
90.3001
89.8665
88.4346
87.3482
86.7273
87.3889
87.4266
86.84
68.7761
69.4037
69.665
68.9982
67.0589
65.3473
64.3271
64.8758
65.1802
64.625
50.6593
51.2657
51.4552
50.6321
48.653
46.4871
45.1571
45.1925
45.9309
45.6975
36.0148
36.4232
36.4734
35.592
33.8002
31.4844
29.8407
29.2754
30.083
30.2707
24.9632
25.0666
24.9444
24.0213
22.4438
20.4145
18.6238
17.6822
17.9373
18.4373
17.0772
16.9267
16.7118
15.721
14.3067
12.8034
11.3159
10.2509
9.91123
10.2778
11.5906
11.4135
11.365
10.3657
9.04698
8.04514
7.15335
6.31034
5.72197
5.63834
7.9169
7.82853
8.12442
7.25677
6.09097
5.50039
5.17119
4.78625
4.30231
3.92283
6.04871
5.8436
6.22889
5.49133
4.62212
4.34579
4.36931
4.35956
4.20688
3.81111
5.28257
5.04558
5.12764
4.4335
3.90116
3.84443
3.99358
4.13591
4.25688
4.31359
4.85671
4.74744
4.46974
3.80332
3.51693
3.60341
3.80589
3.97311
4.09275
4.17903
4.47947
4.4346
4.00262
3.45166
3.33072
3.49253
3.71653
3.89492
4.01279
4.07316
4.02638
3.97144
3.5652
3.21308
3.22194
3.4241
3.63633
3.79329
3.89173
3.93306
3.48027
3.38707
3.11319
2.99235
3.10807
3.32406
3.51367
3.65097
3.73211
3.75585
2.83156
2.73685
2.67598
2.76481
2.9606
3.16454
3.33004
3.44928
3.5161
3.52949
2.10994
2.12531
2.25851
2.49183
2.72677
2.92486
3.07988
3.19337
3.25942
3.27475
1.43706
1.55442
1.80454
2.09649
2.3516
2.56537
2.74065
2.87871
2.96581
2.99379
0.762113
0.897735
1.17172
1.49886
1.80687
2.07693
2.31293
2.49692
2.60162
2.63933
0.0907183
0.00727457
0.241083
0.650252
1.06822
1.44793
1.77043
1.98523
2.08884
2.15189
3.66864
3.71146
3.58062
3.25451
2.60614
1.92214
1.33329
0.861815
0.463573
0.112615
3.74148
3.68581
3.53034
3.23853
2.56673
1.86568
1.28022
0.824027
0.443595
0.112703
3.76829
3.58055
3.41914
3.18467
2.52271
1.81215
1.22944
0.788333
0.426014
0.114099
3.72989
3.40527
3.26721
3.08278
2.46545
1.75982
1.18098
0.754843
0.410814
0.116229
3.62303
3.19812
3.09998
2.93027
2.38317
1.70431
1.13419
0.723552
0.397934
0.119013
3.46061
3.00117
2.94047
2.74749
2.26972
1.64187
1.08903
0.694859
0.387394
0.122343
3.26784
2.83422
2.79764
2.56621
2.12811
1.56914
1.04514
0.669157
0.379167
0.126003
3.06069
2.69687
2.6717
2.41025
1.97366
1.48383
1.00161
0.646561
0.373078
0.129654
2.8372
2.58423
2.55781
2.28605
1.82741
1.38757
0.957144
0.626823
0.368933
0.132993
2.58995
2.49904
2.44945
2.18685
1.70313
1.28844
0.910369
0.609226
0.366399
0.135671
5.42963
3.98378
3.28633
2.90722
2.42798
1.91084
1.41133
0.952411
0.533494
0.137367
4.62587
3.76299
3.32207
2.96791
2.46828
1.9196
1.39962
0.935128
0.516139
0.128831
3.95604
3.6708
3.38242
3.03693
2.50728
1.92726
1.38868
0.919782
0.502789
0.12216
3.63623
3.67103
3.4674
3.11681
2.54814
1.93452
1.37779
0.905302
0.491442
0.11746
3.62147
3.71395
3.56875
3.2088
2.5937
1.94183
1.36556
0.889939
0.480548
0.114603
112.022
88.9564
67.906
50.135
36.1208
25.8009
18.6311
13.7558
10.5739
8.75993
111.802
88.3941
67.1998
49.4006
35.3185
24.7966
17.3274
12.2223
9.07958
7.57957
111.616
87.9138
66.5616
48.66
34.4074
23.6239
15.907
10.6874
7.54304
6.08525
111.405
87.3401
65.7212
47.5953
33.0827
22.0299
14.1356
8.90307
5.81791
4.44244
111.151
86.612
64.592
46.1222
31.2826
19.9623
11.9671
6.93106
4.44805
3.63223
243.765
243.803
243.922
244.094
244.307
244.316
243.812
243.111
243.214
242.99
243.978
244.05
244.163
244.352
244.623
244.798
244.58
243.93
243.672
243.565
244.174
244.223
244.335
244.532
244.817
245.079
245.052
244.546
244.117
244.066
244.416
244.449
244.547
244.72
244.977
245.266
245.372
245.102
244.715
244.647
244.69
244.707
244.789
244.937
245.152
245.416
245.62
245.622
245.457
245.365
244.979
244.992
245.061
245.183
245.356
245.586
245.856
246.097
246.203
246.191
245.25
245.269
245.351
245.485
245.661
245.892
246.192
246.552
246.854
246.976
245.533
245.551
245.648
245.839
246.093
246.392
246.752
247.163
247.526
247.706
245.911
245.941
246.018
246.241
246.611
247.061
247.565
248.082
248.424
248.386
246.304
246.413
246.514
246.706
247.105
247.672
248.27
248.819
249.169
248.964
136.504
136.245
136.222
136.485
136.267
135.869
135.328
135.156
135.227
135.392
160.954
160.357
160.379
161.016
160.363
159.241
157.777
157.321
157.526
157.984
183.198
182.631
182.918
183.441
182.391
180.645
178.677
177.988
178.237
178.86
202.163
201.917
202.636
202.646
201.288
199.091
197.084
196.24
196.417
197.019
217.634
217.808
218.592
218.005
216.337
213.992
212.171
211.268
211.308
211.712
229.513
229.995
230.225
229.265
227.457
225.401
223.791
222.845
222.712
222.813
237.712
238.048
237.685
236.611
235.12
233.592
232.141
231.124
230.899
230.747
242.367
242.247
241.637
240.803
239.925
238.908
237.554
236.528
236.469
236.291
244.091
243.672
243.178
242.82
242.523
241.937
240.748
239.853
240.138
240.053
244.23
243.804
243.65
243.672
243.744
243.502
242.629
241.867
242.252
242.062
254.852
246.883
247.508
246.296
246.047
245.541
245
244.634
244.503
244.54
252.018
246.82
247.322
246.276
246.1
245.603
245.017
244.668
244.58
244.511
250.097
246.827
247.1
246.274
246.155
245.67
245.06
244.763
244.749
244.544
248.911
246.855
246.889
246.294
246.213
245.744
245.142
244.917
244.978
244.649
248.227
246.858
246.752
246.333
246.269
245.826
245.27
245.108
245.217
244.818
247.778
246.815
246.716
246.382
246.321
245.918
245.437
245.293
245.422
245.023
247.464
246.76
246.714
246.424
246.365
246.019
245.611
245.443
245.573
245.229
247.249
246.732
246.707
246.455
246.395
246.122
245.752
245.548
245.668
245.419
247.109
246.726
246.7
246.477
246.407
246.208
245.843
245.612
245.704
245.575
247.017
246.729
246.699
246.489
246.416
246.264
245.89
245.647
245.672
245.672
317.356
253.767
249.917
246.977
246.151
245.583
245.257
244.933
244.237
242.719
295.623
251.377
248.796
246.745
246.069
245.554
245.213
244.903
244.45
243.52
277.182
249.222
248.2
246.573
246.029
245.535
245.162
244.845
244.532
244.193
265.779
247.877
247.876
246.444
246.01
245.523
245.104
244.762
244.522
244.521
259.008
247.147
247.653
246.337
246.008
245.515
245.035
244.659
244.476
244.554
239.298
237.448
234.233
229.325
222.123
211.77
197.72
179.916
158.84
135.76
240.48
238.944
235.77
230.634
223.132
212.576
198.457
180.624
159.404
135.981
241.993
240.496
237.314
232.062
224.311
213.491
199.2
181.264
159.885
136.168
243.655
242.25
239.122
233.847
225.913
214.82
200.268
182.105
160.459
136.377
244.444
243.607
241.104
236.034
227.991
216.625
201.743
183.235
161.186
136.63
)
;

boundaryField
{
    left
    {
        type            zeroGradient;
    }
    right
    {
        type            fixedValue;
        value           uniform 0;
    }
    down
    {
        type            zeroGradient;
    }
    up
    {
        type            zeroGradient;
    }
    cylinder
    {
        type            zeroGradient;
    }
    defaultFaces
    {
        type            empty;
    }
}


// ************************************************************************* //
