/*--------------------------------*- C++ -*----------------------------------*\
  =========                 |
  \\      /  F ield         | OpenFOAM: The Open Source CFD Toolbox
   \\    /   O peration     | Website:  https://openfoam.org
    \\  /    A nd           | Version:  13
     \\/     M anipulation  |
\*---------------------------------------------------------------------------*/
FoamFile
{
    format      ascii;
    class       surfaceScalarField;
    location    "0.51";
    object      phi;
}
// * * * * * * * * * * * * * * * * * * * * * * * * * * * * * * * * * * * * * //

dimensions      [0 3 -1 0 0 0 0];

internalField   nonuniform List<scalar> 
3485
(
0.00137164
-0.0112582
0.00988651
0.00505113
-0.031907
0.0282275
0.0107642
-0.051383
0.0456699
0.0183128
-0.0696768
0.0621282
0.027546
-0.0868345
0.0776013
0.0383496
-0.1029
0.0920964
0.0506351
-0.117904
0.105619
0.0643594
-0.131868
0.118144
0.07962
-0.144857
0.129597
-0.15689
0.139497
0.0970128
0.00150032
-0.0127585
0.0054458
-0.0358525
0.0114762
-0.0574134
0.0193237
-0.0775243
0.0287732
-0.096284
0.0396475
-0.113774
0.0518022
-0.130059
0.0651297
-0.145195
0.0795384
-0.159266
-0.172194
0.0948422
0.00147416
-0.0142326
0.00532695
-0.0397053
0.0111745
-0.0632609
0.0187209
-0.0850707
0.0277255
-0.105289
0.037989
-0.124038
0.0493454
-0.141415
0.0616551
-0.157505
0.0747863
-0.172397
-0.186035
0.0886272
0.00133885
-0.0155715
0.00485901
-0.0432254
0.0102109
-0.0686128
0.0171171
-0.091977
0.0253541
-0.113526
0.0347407
-0.133424
0.045131
-0.151806
0.0564049
-0.168779
0.0684559
-0.184448
-0.198789
0.0812105
0.00116693
-0.0167384
0.00425599
-0.0463145
0.00897318
-0.07333
0.0150818
-0.0980856
0.0223919
-0.120836
0.0307528
-0.141785
0.0400468
-0.1611
0.0501813
-0.178914
0.0610786
-0.195345
-0.210401
0.0726908
0.000980025
-0.0177184
0.00358797
-0.0489224
0.00758668
-0.0773287
0.0127841
-0.103283
0.0190263
-0.127078
0.026193
-0.148952
0.0341921
-0.169099
0.0429543
-0.187676
0.0524247
-0.204816
-0.220549
0.0625722
0.000780732
-0.0184992
0.00286504
-0.0510067
0.00606907
-0.0805327
0.010243
-0.107457
0.0152668
-0.132102
0.0210472
-0.154732
0.0275149
-0.175567
0.0346214
-0.194782
0.0423324
-0.212527
-0.228851
0.0506344
0.000569713
-0.0190689
0.0020935
-0.0525305
0.00443797
-0.0828772
0.00749286
-0.110512
0.011169
-0.135778
0.0153972
-0.15896
0.0201281
-0.180297
0.0253303
-0.199984
0.0309875
-0.218184
-0.234968
0.0371044
0.000352518
-0.0194214
0.0012958
-0.0534738
0.00274511
-0.0843265
0.0046285
-0.112395
0.00688673
-0.138036
0.00947346
-0.161547
0.0123558
-0.18318
0.0155149
-0.203144
0.0189456
-0.221615
-0.238685
0.0226625
0.000137807
-0.0195592
0.000502505
-0.0538385
0.00105705
-0.084881
0.00176968
-0.113108
0.00261393
-0.13888
0.00356868
-0.162502
0.00461846
-0.18423
0.00575375
-0.204279
0.0069711
-0.222832
0.00827558
-0.239989
0.000495529
-0.00187259
0.00137706
0.00210726
-0.00625497
0.00464323
0.00545084
-0.0113971
0.00805347
0.0101393
-0.0161561
0.0114677
0.0155689
-0.0201467
0.0147171
0.021475
-0.0235453
0.0176392
0.027949
-0.0267269
0.0202528
0.0351372
-0.0299182
0.02273
0.0430253
-0.0330739
0.0251857
-0.0360442
0.0514815
0.027588
0.000427909
-0.0023005
0.00211523
-0.00794229
0.00544727
-0.0147291
0.00983453
-0.0205434
0.0149197
-0.0252319
0.0208071
-0.0294327
0.0276672
-0.033587
0.0354501
-0.0377011
0.0439472
-0.041571
-0.0450913
0.0529943
0.000682323
-0.00298282
0.00271491
-0.00997488
0.00578605
-0.0178002
0.00978071
-0.024538
0.0148462
-0.0302974
0.0211523
-0.0357388
0.0286309
-0.0410656
0.0370053
-0.0460755
0.0460577
-0.0506234
-0.0547297
0.0556961
0.000867456
-0.00385028
0.00305906
-0.0121665
0.00608387
-0.0208251
0.0102145
-0.0286686
0.0157201
-0.035803
0.0225842
-0.0426029
0.0305665
-0.0490479
0.0394311
-0.0549401
0.0490817
-0.060274
-0.0650838
0.0594358
0.000922048
-0.00477233
0.00319941
-0.0144439
0.00652207
-0.0241477
0.0111253
-0.0332719
0.0171481
-0.0418259
0.0244665
-0.0499212
0.0328895
-0.0574709
0.0423188
-0.0643694
0.0526905
-0.0706457
-0.0762654
0.0638721
0.000943236
-0.00571556
0.00337215
-0.0168728
0.00709292
-0.0278685
0.0121787
-0.0383576
0.0186401
-0.0482873
0.0263667
-0.0576478
0.0352614
-0.0663656
0.0452763
-0.0743843
0.0563325
-0.0817019
-0.0882051
0.0682722
0.00097963
-0.00669519
0.00358374
-0.0194769
0.00764188
-0.0319266
0.0131089
-0.0438247
0.0199293
-0.0551077
0.028017
-0.0657355
0.0373097
-0.0756584
0.0477613
-0.0848359
0.0592985
-0.0932391
-0.100683
0.0717764
0.00101784
-0.00771304
0.00376756
-0.0222266
0.00807121
-0.0362303
0.0138205
-0.049574
0.020921
-0.0622082
0.029284
-0.0740984
0.0388399
-0.0852143
0.049532
-0.0955279
0.0613015
-0.105009
-0.11343
0.0740482
0.00105454
-0.00876758
0.00393659
-0.0251086
0.00846095
-0.0407546
0.0144823
-0.0555953
0.0218745
-0.0696004
0.0305274
-0.0827512
0.0403456
-0.0950325
0.0512404
-0.106423
0.0631308
-0.116899
-0.126311
0.076012
0.00111893
0.00423779
0.00915308
0.015686
0.0236868
0.0330319
0.0436183
0.0553392
0.0680367
0.0812228
0.114392
-0.413942
0.351031
0.168174
-0.470912
0.417131
0.210211
-0.42068
0.378642
0.243852
-0.325069
0.291428
0.270246
-0.212704
0.18631
0.290109
-0.107743
0.0878803
0.302171
-0.0278084
0.0157465
0.306483
0.00882255
-0.013135
0.306948
0.0138516
-0.0143162
0.0101683
-0.00883832
0.116012
-0.476959
0.169804
-0.524704
0.21186
-0.462736
0.245275
-0.358484
0.271771
-0.2392
0.292135
-0.128107
0.306092
-0.0417653
0.31338
0.00153555
0.316584
0.0106471
0.00995754
0.117839
-0.539103
0.170675
-0.57754
0.212377
-0.504438
0.245247
-0.391354
0.271633
-0.265586
0.292118
-0.148593
0.306555
-0.0562028
0.31492
-0.00682874
0.320206
0.00536083
0.0078904
0.12022
-0.599886
0.171062
-0.628383
0.211925
-0.545301
0.243961
-0.42339
0.270036
-0.291661
0.290565
-0.169122
0.304983
-0.0706204
0.313737
-0.0155825
0.319559
-0.00046146
0.00528462
0.123107
-0.659121
0.171175
-0.676451
0.210635
-0.584761
0.241579
-0.454334
0.267114
-0.317195
0.287693
-0.189701
0.302228
-0.0851552
0.311648
-0.0250024
0.318271
-0.00708467
0.00194819
0.125951
-0.716799
0.171051
-0.721551
0.208597
-0.622307
0.238234
-0.483971
0.26297
-0.341931
0.283571
-0.210302
0.298536
-0.100121
0.309017
-0.0354831
0.316819
-0.0148871
-0.00253361
0.127876
-0.7729
0.170511
-0.764186
0.205873
-0.657669
0.234052
-0.512151
0.257728
-0.365607
0.278233
-0.230807
0.293974
-0.115861
0.305906
-0.0474156
0.315229
-0.0242097
-0.0085508
0.127947
-0.826798
0.169076
-0.805315
0.202332
-0.690925
0.229021
-0.538839
0.251443
-0.38803
0.271672
-0.251035
0.288515
-0.132704
0.302301
-0.0612017
0.313026
-0.0349348
-0.0159222
0.125859
-0.876645
0.166339
-0.845796
0.197927
-0.722513
0.22324
-0.564152
0.244263
-0.409052
0.263909
-0.270682
0.282034
-0.15083
0.297738
-0.0769056
0.307078
-0.0442741
-0.021825
0.122167
-0.917589
0.1615
-0.885129
0.191786
-0.752799
0.216005
-0.58837
0.235709
-0.428757
0.254659
-0.289632
0.274107
-0.170278
0.288472
-0.0912701
0.295029
-0.0508316
-0.0275249
0.583923
-0.920053
-0.581458
0.561182
-0.862388
0.523993
-0.71561
0.487919
-0.552296
0.460315
-0.401153
0.445867
-0.275183
0.442029
-0.166441
0.438262
-0.0875029
0.433636
-0.0462058
-0.0258696
0.682849
-0.871462
-0.73144
0.619728
-0.799267
0.554068
-0.64995
0.49689
-0.495119
0.452508
-0.35677
0.422774
-0.245449
0.408089
-0.151756
0.401466
-0.0808796
0.396922
-0.0416624
-0.0234308
0.754029
-0.775068
-0.850423
0.655249
-0.700487
0.563756
-0.558457
0.488072
-0.419435
0.430821
-0.299519
0.391972
-0.206599
0.371169
-0.130953
0.362001
-0.0717121
0.356805
-0.0364662
-0.0205702
0.779062
-0.641623
-0.912508
0.6539
-0.575325
0.546559
-0.451116
0.461526
-0.334402
0.398975
-0.236968
0.356198
-0.163822
0.331385
-0.106141
0.319849
-0.0601762
0.314085
-0.0307014
-0.0173465
0.753036
-0.492401
-0.902257
0.617666
-0.439955
0.506364
-0.339813
0.420417
-0.248455
0.358116
-0.174667
0.315258
-0.120965
0.289016
-0.0798987
0.27584
-0.047
0.269444
-0.0243051
-0.0138466
0.685135
-0.345819
-0.831717
0.552758
-0.307579
0.446555
-0.23361
0.366182
-0.168082
0.308644
-0.117128
0.268959
-0.0812805
0.243684
-0.0546236
0.23001
-0.033326
0.223257
-0.0175517
-0.0101969
0.582635
-0.213853
-0.714601
0.46292
-0.187865
0.369375
-0.140064
0.300047
-0.0987543
0.251109
-0.0681903
0.217315
-0.0474866
0.195136
-0.032445
0.182328
-0.0205183
0.175747
-0.0109704
-0.00662276
0.448767
-0.10552
-0.5571
0.351195
-0.0902921
0.277088
-0.0659575
0.223579
-0.0452452
0.186378
-0.0309899
0.160641
-0.0217488
0.14331
-0.015114
0.13272
-0.0099292
0.127047
-0.00529709
-0.00344359
0.286595
-0.0302199
-0.361895
0.220918
-0.0246148
0.172504
-0.0175441
0.138731
-0.0114715
0.115528
-0.0077868
0.0993357
-0.005557
0.0881712
-0.00394947
0.0810014
-0.00275934
0.0771194
-0.00141516
-0.00108855
0.101316
-0.131536
0.0767017
0.0591576
0.0476861
0.0398993
0.0343423
0.0303928
0.0276335
0.0262183
0.738823
0.0102231
-0.74077
0.733076
0.028409
0.723437
0.046744
0.710163
0.0639085
0.693568
0.0791665
0.674073
0.0921864
0.652267
0.103017
0.628704
0.11219
0.604256
0.11929
0.119811
0.84555
0.0133993
-0.848726
0.837322
0.0366371
0.827287
0.0567785
0.816592
0.0746041
0.805247
0.090511
0.792891
0.104543
0.779275
0.116633
0.764576
0.126889
0.749107
0.134759
0.137477
0.844987
0.0114266
-0.843014
0.848887
0.0327367
0.853025
0.0526405
0.856477
0.0711521
0.858839
0.0881496
0.859925
0.103456
0.859599
0.116959
0.857968
0.12852
0.855298
0.137429
0.142352
0.800215
0.00930554
-0.798094
0.805823
0.0271282
0.814422
0.0440419
0.825642
0.0599321
0.83901
0.0747821
0.853862
0.0886043
0.869435
0.101385
0.885072
0.112883
0.899961
0.12254
0.129805
0.737867
0.00703967
-0.735601
0.744156
0.0208393
0.754126
0.0340723
0.767507
0.0465511
0.784088
0.0582012
0.803668
0.0690243
0.825999
0.0790541
0.850637
0.0882442
0.876564
0.0966131
0.104112
0.653921
0.00485468
-0.651736
0.660204
0.0145567
0.67038
0.0238968
0.684223
0.0327079
0.701527
0.0408965
0.722115
0.0484367
0.745811
0.055358
0.772337
0.0617179
0.801229
0.0677218
0.0736235
0.549112
0.00291656
-0.547174
0.554813
0.00885624
0.564139
0.0145708
0.576906
0.0199402
0.592916
0.0248869
0.61197
0.0293829
0.633873
0.0334545
0.65841
0.0371809
0.685385
0.0407474
0.0444078
0.422792
0.00137596
-0.421252
0.427413
0.0042361
0.435008
0.00697569
0.445422
0.00952589
0.45847
0.0118388
0.473957
0.0138957
0.491698
0.0157139
0.511529
0.0173499
0.533349
0.0189275
0.0206567
0.273828
0.000366732
-0.272819
0.276915
0.00114948
0.281999
0.00189176
0.288955
0.0025694
0.297629
0.00316444
0.307856
0.00366911
0.319482
0.00408802
0.332395
0.00443667
0.346562
0.00476044
0.00532331
0.100484
-0.100117
0.101633
0.103525
0.106094
0.109259
0.112928
0.117016
0.121453
0.126213
0.0779419
0.159493
-0.142477
-0.0949583
0.0630352
0.147452
-0.132545
0.0496238
0.1344
-0.120988
0.037607
0.120328
-0.108311
0.0270288
0.105168
-0.0945898
0.0179792
0.088893
-0.0798434
0.0105735
0.0714601
-0.0640545
0.00496357
0.0528096
-0.0471996
0.00134807
0.0328747
-0.0292592
0.0116393
-0.0102912
0.0779486
0.174426
-0.0928815
0.0638766
0.161524
0.0508435
0.147433
0.0389405
0.132231
0.0282775
0.115831
0.019001
0.0981695
0.0112899
0.0791712
0.0053597
0.0587398
0.00147723
0.0367572
0.0131165
0.0731855
0.187923
-0.0866827
0.0603741
0.174335
0.048353
0.159454
0.0372503
0.143334
0.027204
0.125877
0.0183797
0.106994
0.0109767
0.0865742
0.00523536
0.0644812
0.00144961
0.0405429
0.0145661
0.0667755
0.20035
-0.0792023
0.0550362
0.186075
0.0440513
0.170439
0.0339228
0.153462
0.024767
0.135033
0.0167272
0.115034
0.00998169
0.0933196
0.00475143
0.0697114
0.00130963
0.0439847
0.0158757
0.0593158
0.211655
-0.0706209
0.0487176
0.196673
0.0388688
0.180288
0.0298419
0.162489
0.0217247
0.14315
0.0146297
0.122129
0.00870233
0.099247
0.00412641
0.0742874
0.00113094
0.0469802
0.0170067
0.0506004
0.22152
-0.0604654
0.0414126
0.205861
0.0329285
0.188772
0.0251978
0.17022
0.018284
0.150064
0.0122722
0.12814
0.00727494
0.104244
0.0034365
0.0781258
0.000937264
0.0494794
0.0179439
0.0404587
0.229564
-0.0485024
0.0330137
0.213306
0.026177
0.195609
0.0199776
0.176419
0.0144575
0.155584
0.00967746
0.13292
0.00572041
0.108201
0.00269373
0.0811525
0.000731823
0.0514413
0.0186757
0.029055
0.235442
-0.034933
0.0236517
0.218709
0.018715
0.200545
0.0142553
0.180879
0.0102962
0.159543
0.00687749
0.136339
0.00405555
0.111023
0.00190423
0.0833038
0.000515268
0.0528303
0.019191
0.0169177
0.238927
-0.0204024
0.013742
0.221885
0.0108549
0.203432
0.00825477
0.183479
0.0059514
0.161847
0.00396641
0.138324
0.00233212
0.112658
0.00109062
0.0845453
0.000293228
0.0536277
0.0194842
0.00482766
-0.0058903
0.00388022
0.00303382
0.00228322
0.001628
0.00107188
0.000621536
0.000285785
7.49578e-05
0.0436101
0.041337
-0.0524971
-0.03245
0.0352434
0.0382905
-0.0299238
0.0275841
0.0348951
-0.0272358
0.0208565
0.0312868
-0.0245592
0.0150601
0.027726
-0.0219296
0.00995436
0.024171
-0.0190652
0.00542587
0.0200362
-0.0155077
0.00196593
0.014431
-0.010971
0.000384166
0.00737907
-0.0057973
0.00208319
-0.00169902
0.0437636
0.0505094
-0.0529359
0.0351106
0.0469434
0.0270696
0.0429361
0.0199233
0.0384331
0.0139858
0.0336635
0.0092615
0.0288953
0.00550557
0.0237921
0.00257127
0.0173653
0.000619575
0.00933077
0.00270277
0.0449897
0.060074
-0.0545543
0.0360575
0.0558756
0.0278091
0.0511845
0.0203628
0.0458794
0.0140448
0.0399815
0.00911818
0.0338219
0.00552717
0.0273832
0.00289625
0.0199962
0.000809732
0.0114173
0.0035125
0.0474371
0.0702706
-0.0576337
0.0379909
0.0653218
0.0294096
0.0597658
0.0217316
0.0535575
0.0150835
0.0466296
0.00972468
0.0391807
0.00577663
0.0313312
0.00296654
0.0228063
0.000877074
0.0135068
0.00438957
0.0509019
0.0812071
-0.0618384
0.0407878
0.0754359
0.0316598
0.0688938
0.0235804
0.061637
0.0165732
0.0536367
0.0107661
0.0449879
0.00629453
0.0358027
0.00306829
0.0260325
0.000882572
0.0156925
0.00527215
0.0545876
0.0928138
-0.0661943
0.0438569
0.0861666
0.0341653
0.0785854
0.0255877
0.0702145
0.0181464
0.0610781
0.011898
0.0512363
0.00693788
0.0407628
0.00328341
0.029687
0.000910122
0.0180658
0.00618227
0.0576276
0.104904
-0.0697177
0.0464599
0.0973344
0.036349
0.0886963
0.0273554
0.0792081
0.0195151
0.0689184
0.0128788
0.0578727
0.00752604
0.0461155
0.00352826
0.0336848
0.000960573
0.0206334
0.00714284
0.0596723
0.117238
-0.0720064
0.0482883
0.108718
0.0379399
0.0990447
0.0286725
0.0884755
0.0205379
0.077053
0.0136051
0.0648055
0.0079652
0.0517554
0.00372352
0.0379264
0.00100581
0.0233512
0.00814865
0.0614771
0.129698
-0.0739366
0.0499741
0.120221
0.0394203
0.109598
0.0298874
0.0980084
0.0214616
0.0854788
0.0142398
0.0720272
0.00833657
0.0576587
0.00388548
0.0423775
0.00104214
0.0261945
0.0091908
0.0663266
-0.0791059
0.0540028
0.042613
0.0323103
0.0231992
0.015383
0.00898722
0.00416513
0.00110038
0.214309
0.060293
-0.0766121
0.236662
0.0899558
-0.112309
0.260613
0.123649
-0.1476
0.274672
0.1142
-0.128259
0.274266
0.111031
-0.110625
0.25201
0.179909
-0.157653
0.218216
0.293856
-0.260061
0.174476
0.412035
-0.368296
0.118244
0.493883
-0.437651
0.460943
-0.395196
0.21366
0.0446233
0.234828
0.0687875
0.257875
0.100602
0.272406
0.0996694
0.273519
0.109917
0.252384
0.201045
0.218542
0.327698
0.174367
0.45621
0.118021
0.550229
0.526029
0.213263
0.02935
0.233602
0.0484488
0.255804
0.0783995
0.270541
0.0849326
0.271884
0.108574
0.251322
0.221607
0.217491
0.361529
0.173222
0.500479
0.117918
0.605534
0.589392
0.213056
0.0142835
0.232989
0.0285166
0.25444
0.0569476
0.269056
0.0703175
0.269531
0.108098
0.248907
0.242231
0.215178
0.395258
0.171393
0.544264
0.118495
0.658431
0.650253
0.213039
-0.000765927
0.232899
0.00865658
0.253626
0.0362209
0.267525
0.0564188
0.266334
0.109289
0.245171
0.263393
0.21176
0.428669
0.169273
0.586752
0.119878
0.707826
0.708293
0.213231
-0.0160072
0.233193
-0.011305
0.253125
0.0162883
0.265612
0.0439319
0.262151
0.112751
0.240187
0.285357
0.207466
0.46139
0.167129
0.627089
0.121611
0.753344
0.76371
0.213554
-0.0315716
0.233698
-0.0314487
0.252701
-0.00271445
0.263118
0.0335142
0.256926
0.118943
0.234129
0.308153
0.20256
0.492959
0.164953
0.664696
0.122816
0.795481
0.816808
0.213801
-0.0473827
0.234242
-0.0518897
0.252117
-0.0205894
0.259819
0.0258121
0.250547
0.128215
0.227089
0.331611
0.197093
0.522956
0.162331
0.699457
0.12248
0.835331
0.867283
0.213789
-0.0631819
0.234716
-0.0728166
0.251196
-0.0370694
0.255729
0.021279
0.243237
0.140707
0.219414
0.355434
0.191189
0.551181
0.158848
0.731798
0.120213
0.873966
0.913559
0.213726
-0.078918
0.235001
-0.094092
0.24988
-0.0519484
0.250465
0.020694
0.23444
0.156733
0.210466
0.379408
0.183941
0.577706
0.15364
0.762099
0.11652
0.911087
0.950973
0.331947
-0.108855
0.370766
-0.132911
0.407021
-0.0882034
0.425055
0.00265995
0.439851
0.141936
0.467647
0.351612
0.506652
0.538701
0.549591
0.71916
0.581339
0.879339
0.94584
0.586472
0.333408
-0.140252
0.373108
-0.172612
0.408572
-0.123667
0.424197
-0.0129645
0.43759
0.128542
0.476593
0.312609
0.534507
0.480788
0.604525
0.649142
0.67538
0.808484
0.888268
0.732952
0.335926
-0.174168
0.374899
-0.211585
0.40891
-0.157678
0.421247
-0.0253014
0.430452
0.119338
0.47518
0.26788
0.547027
0.408941
0.639033
0.557136
0.74235
0.705167
0.784209
0.846408
0.339931
-0.212089
0.372994
-0.244647
0.385735
-0.170419
0.384206
-0.0237719
0.400915
0.102628
0.453881
0.214915
0.534718
0.328104
0.640831
0.451023
0.767232
0.578765
0.646899
0.904542
0.348038
-0.258117
0.356176
-0.252786
0.338615
-0.152858
0.3364
-0.0215564
0.359846
0.0791816
0.414669
0.160092
0.497664
0.245109
0.60812
0.340567
0.743868
0.443017
0.495774
0.894994
0.340927
-0.297033
0.32136
-0.233219
0.288646
-0.120144
0.285351
-0.0182609
0.309812
0.0547203
0.361539
0.108364
0.44002
0.166628
0.545903
0.234685
0.678841
0.310079
0.347938
0.826677
0.314295
-0.309318
0.271657
-0.190581
0.234136
-0.0826234
0.229503
-0.0136274
0.251683
0.0325399
0.29649
0.0635578
0.364786
0.0983316
0.45841
0.141061
0.578835
0.189653
0.215084
0.71169
0.273788
-0.281096
0.212941
-0.129734
0.174661
-0.0443433
0.169307
-0.00827348
0.186697
0.0151509
0.221199
0.0290551
0.274283
0.0452477
0.348726
0.0666183
0.447065
0.0913143
0.106132
0.556017
0.214644
-0.193729
0.140498
-0.0555887
0.109539
-0.0133839
0.104346
-0.00308051
0.115623
0.00387342
0.137422
0.00725605
0.171155
0.0115153
0.219988
0.0177849
0.286342
0.0249604
0.0304063
0.362068
0.108281
0.0526922
0.0393083
0.0362278
0.0401012
0.0473572
0.0588725
0.0766575
0.101618
0.132024
0.608635
-0.117121
0.632305
-0.116552
0.655128
-0.109505
0.676283
-0.100358
0.69523
-0.0895676
0.711369
-0.0766045
0.724264
-0.0613972
0.733592
-0.0442608
0.739077
-0.025888
-0.00758344
0.750293
-0.134462
0.765202
-0.131461
0.77941
-0.123713
0.792639
-0.113586
0.804705
-0.101634
0.815844
-0.0877428
0.826401
-0.0719545
0.836392
-0.0542517
0.844842
-0.0343382
-0.0114675
0.851036
-0.139089
0.853484
-0.133909
0.855003
-0.125232
0.855382
-0.113966
0.854535
-0.100787
0.852634
-0.0858418
0.849906
-0.0692266
0.846747
-0.0510926
0.843952
-0.0315434
-0.0105292
0.892594
-0.127142
0.878572
-0.119887
0.863885
-0.110545
0.849313
-0.099394
0.835461
-0.0869356
0.823029
-0.0734097
0.812642
-0.0588391
0.80476
-0.0432108
0.799747
-0.0265306
-0.0088761
0.870352
-0.1025
0.845578
-0.0951129
0.821964
-0.0869304
0.800501
-0.0779316
0.781661
-0.0680956
0.765718
-0.0574669
0.752893
-0.0460134
0.743405
-0.0337231
0.737525
-0.0206506
-0.00695258
0.797018
-0.0728412
0.768946
-0.067041
0.743129
-0.0611135
0.720041
-0.0548433
0.699973
-0.0480281
0.683113
-0.0406064
0.669642
-0.0325425
0.659769
-0.0238503
0.653726
-0.0146074
-0.0049629
0.68299
-0.0441416
0.656502
-0.0405531
0.632402
-0.0370126
0.610878
-0.0333195
0.592144
-0.0292944
0.576395
-0.0248569
0.563827
-0.0199753
0.554646
-0.0146687
0.549043
-0.00900477
-0.00309412
0.532509
-0.0206339
0.510906
-0.0189504
0.491273
-0.0173789
0.473701
-0.0157481
0.458348
-0.0139415
0.445395
-0.0119039
0.435036
-0.00961551
0.427457
-0.00709027
0.422823
-0.00437107
-0.00152254
0.346785
-0.00535146
0.332644
-0.00480877
0.319749
-0.00448452
0.308134
-0.00413323
0.297906
-0.00371332
0.289213
-0.00321057
0.282217
-0.00261976
0.277074
-0.00194719
0.273912
-0.00120931
-0.000429113
0.126673
0.121864
0.117379
0.113246
0.109533
0.106322
0.103703
0.101755
0.100546
0.000185052
0.0116088
-0.0117938
0.00062372
0.0304454
-0.030884
0.00123713
0.0462401
-0.0468535
0.00197727
0.0594656
-0.0602058
0.00277654
0.0700194
-0.0708186
0.00376943
0.0798867
-0.0808796
0.00396336
0.0772649
-0.0774589
0.00408473
0.0700403
-0.0701616
0.00394485
0.0610778
-0.0609379
0.0499544
0.0035071
-0.0495167
0.000533381
0.0110754
0.00180382
0.0291749
0.00358498
0.044459
0.00574109
0.0573095
0.0080726
0.0676879
0.0110393
0.07692
0.0116756
0.0766286
0.0120805
0.0696354
0.0117733
0.061385
0.0510768
0.0106509
0.000835474
0.0102399
0.00283175
0.0271787
0.00563896
0.0416518
0.00904131
0.0539072
0.0127391
0.0639901
0.017247
0.0724121
0.0187897
0.0750859
0.0195713
0.0688538
0.0193851
0.0615712
0.0524333
0.0180286
0.00105595
0.00918397
0.0035969
0.0246377
0.00719342
0.0380552
0.0115555
0.0495451
0.0163562
0.0591895
0.0217472
0.0670211
0.0250721
0.071761
0.0263544
0.0675715
0.0266027
0.0613229
0.0535651
0.0254709
0.00115142
0.00803256
0.00397919
0.0218099
0.0080415
0.0339929
0.0129966
0.04459
0.0185512
0.0536348
0.024557
0.0610153
0.0299516
0.0663665
0.0320894
0.0654336
0.0330108
0.0604016
0.0540899
0.032486
0.00111145
0.00692111
0.00396588
0.0189555
0.00818538
0.0297734
0.0133899
0.0393854
0.0193176
0.0477071
0.0257716
0.0545614
0.0324153
0.0597227
0.0363118
0.0615371
0.0381236
0.0585898
0.0537058
0.0385077
0.000926222
0.00599489
0.0035729
0.0163088
0.00771052
0.0256358
0.0128815
0.0342144
0.0187864
0.0418022
0.0253379
0.0480099
0.0323206
0.05274
0.0382745
0.0555833
0.0415863
0.055278
0.0521817
0.0431104
0.000567873
0.00542702
0.00278668
0.01409
0.00665753
0.021765
0.0116214
0.0292506
0.0172044
0.0362192
0.0234474
0.0417668
0.0302859
0.0459015
0.0371836
0.0486856
0.0425602
0.0499014
0.0489234
0.0458185
0.000103932
0.00532309
0.00176881
0.0124252
0.00517602
0.0183578
0.00981531
0.0246113
0.0149575
0.031077
0.0206218
0.0361026
0.0269038
0.0396195
0.0335869
0.0420025
0.0400842
0.0434042
0.0437958
0.0452117
-0.000175332
0.00549842
0.00108732
0.0111625
0.00385656
0.0155885
0.00788735
0.0205805
0.0125021
0.0264622
0.0175724
0.0310323
0.0231776
0.0340143
0.029249
0.0359311
0.0356347
0.0370184
0.0373703
0.0420603
-2.0675e-05
0.00551909
0.00114079
0.010001
0.00327858
0.0134507
0.00641422
0.0174449
0.010296
0.0225804
0.014837
0.0264914
0.0199557
0.0288955
0.0254868
0.0304
0.0312231
0.0312821
0.0316978
0.0368956
0.00037798
0.00514111
0.00153249
0.00884652
0.00318141
0.0118018
0.00549203
0.0151343
0.00871026
0.0193622
0.0128938
0.0223078
0.0177435
0.0240459
0.0230085
0.025135
0.0284976
0.0257929
0.0260636
0.0341318
0.000624342
0.00451677
0.00170714
0.00776372
0.00302733
0.0104816
0.00484558
0.013316
0.0078329
0.0163748
0.0119186
0.0182221
0.0166668
0.0192976
0.0218377
0.0199642
0.0272985
0.020332
0.020414
0.0329482
0.000676617
0.00384015
0.00164217
0.00679816
0.00282037
0.00930342
0.0046984
0.011438
0.00796736
0.0131059
0.0121936
0.0139959
0.0170066
0.0144846
0.0222444
0.0147265
0.0278101
0.0147663
0.014606
0.0336181
0.000663
0.00317715
0.00155199
0.00590916
0.00298918
0.00786623
0.00557129
0.00885587
0.00935956
0.00931761
0.0138792
0.00947624
0.0189203
0.00944345
0.0243834
0.00926339
0.0302003
0.00894931
0.00850683
0.0362994
0.000593165
0.00258398
0.00171112
0.0047912
0.00405248
0.00552486
0.00750842
0.00539992
0.0117615
0.00506454
0.0166097
0.00462801
0.0219514
0.00410176
0.0277271
0.00348764
0.0338855
0.00279096
0.00202457
0.0403677
0.000522466
0.00206151
0.00247944
0.00283421
0.0057459
0.00225839
0.00974433
0.00140148
0.0143358
0.000473028
0.019474
-0.000510164
0.0251283
-0.00155252
0.0312559
-0.00264
0.0377964
-0.00374953
-0.00486889
0.0446899
0.000870144
0.00119135
0.00361557
8.87723e-05
0.00717909
-0.00130514
0.0113664
-0.00278578
0.0161631
-0.00432373
0.0215793
-0.00592639
0.0275741
-0.00754727
0.0340576
-0.00912348
0.0409469
-0.0106389
-0.0121229
0.0482009
0.00150547
-0.000314126
0.00413785
-0.00254362
0.0075619
-0.00472919
0.0117777
-0.00700154
0.0167922
-0.00933827
0.0225286
-0.0116628
0.0288217
-0.0138403
0.0355504
-0.0158522
0.042688
-0.0177765
-0.019669
0.0502341
0.00106292
0.00316253
0.0064868
0.0109529
0.0163318
0.0223081
0.0287206
0.0355984
0.0430076
0.0509267
0.0513735
0.0838013
-0.0982792
0.0772147
-0.00730318
-0.0185381
0.0997959
-0.0509498
0.0283686
0.11342
-0.0468607
0.0332366
0.121342
-0.0266356
0.0187138
0.124933
-0.0078753
0.00428396
0.126004
0.00322356
-0.0042948
0.126424
0.00621692
-0.00663666
0.12709
0.00535567
-0.00602135
0.00246114
-0.00387199
0.0585576
0.0593754
0.0915632
-0.0403089
0.118695
-0.0780814
0.134651
-0.0628168
0.143335
-0.0353197
0.146954
-0.0114942
0.147741
0.00243662
0.147854
0.00610415
0.148313
0.00489692
0.00130417
0.0665593
0.0257643
0.104929
-0.0786782
0.135894
-0.109047
0.155473
-0.082396
0.165427
-0.0452739
0.169107
-0.0151737
0.169492
0.00205127
0.169127
0.00646891
0.169193
0.00483139
0.000565221
0.0754332
-0.0160508
0.117757
-0.121002
0.151612
-0.142902
0.174951
-0.105735
0.186953
-0.0572757
0.190953
-0.0191742
0.190961
0.00204374
0.190053
0.00737702
0.189619
0.00526479
0.000352975
0.0844877
-0.0642391
0.129582
-0.166096
0.165598
-0.178918
0.192243
-0.13238
0.207147
-0.0721792
0.212064
-0.024091
0.211874
0.00223348
0.210446
0.00880451
0.209475
0.00623599
0.000722208
0.0929539
-0.116825
0.140073
-0.213215
0.177765
-0.21661
0.206961
-0.161576
0.225147
-0.0903661
0.231895
-0.0308384
0.231903
0.00222555
0.230096
0.0106113
0.228627
0.00770472
0.00166857
0.100172
-0.172307
0.148959
-0.262002
0.188017
-0.255667
0.219027
-0.192586
0.240254
-0.111593
0.2498
-0.0403842
0.250671
0.00135409
0.248764
0.0125184
0.246923
0.00954562
0.00312717
0.105793
-0.229899
0.156116
-0.312326
0.196304
-0.295855
0.228554
-0.224836
0.25214
-0.135179
0.265036
-0.0532796
0.267715
-0.00132527
0.266165
0.0140685
0.264182
0.011529
0.00496346
0.109798
-0.289463
0.161579
-0.364108
0.20266
-0.336936
0.235726
-0.257902
0.260861
-0.160313
0.276952
-0.0693713
0.282456
-0.00682852
0.281947
0.0145766
0.280172
0.0133042
0.00697668
0.112495
0.165518
0.207224
0.24075
0.266747
0.285256
0.294174
0.295616
0.294604
0.0131986
0.00607888
-0.0192775
0.0109801
0.00221852
0.0114906
-0.000510539
0.0129043
-0.00141369
0.0136083
-0.000704002
0.0137244
-0.000116106
0.0135109
0.000213481
0.0132113
0.000299677
0.0129631
0.000248148
0.00025087
0.0372431
0.0232196
-0.0543838
0.0314673
0.00799428
0.0339519
-0.00299512
0.0379818
-0.00544359
0.0401284
-0.00285061
0.0405169
-0.000504599
0.0399089
0.000821467
0.0390464
0.00116216
0.0382682
0.00102636
0.000828045
0.0579541
0.0481079
-0.0828424
0.050838
0.0151104
0.055806
-0.0079631
0.0623426
-0.0119802
0.0659719
-0.00647983
0.0667103
-0.00124306
0.0657667
0.00176508
0.0643806
0.00254835
0.0631063
0.00230064
0.00166177
0.0738885
0.0754244
-0.101205
0.0680188
0.0209801
0.0763284
-0.0162727
0.0856066
-0.0212584
0.0908762
-0.0117494
0.0921037
-0.00247055
0.0909164
0.00295243
0.0890659
0.0043988
0.0873719
0.00399467
0.00269704
0.0813788
-0.104234
0.0838207
0.0959164
0.107895
0.114859
0.116672
0.11533
0.113093
0.111066
0.00273358
-0.00017292
-0.00256066
0.00326443
-0.000530854
0.00417664
-0.000912201
0.00548765
-0.00131102
0.00718402
-0.00169636
0.00922853
-0.00204452
0.0115851
-0.00235654
0.0141733
-0.00258826
0.0168583
-0.00268502
-0.00241918
0.00778717
-0.000645677
-0.00731441
0.00923402
-0.0019777
0.0117133
-0.00339149
0.0152696
-0.0048673
0.0198837
-0.0063105
0.0254816
-0.00764238
0.0319638
-0.00883872
0.039155
-0.00977947
0.046766
-0.010296
-0.0100371
0.0124777
-0.00138371
-0.0117396
0.0147273
-0.00422733
0.01856
-0.00722425
0.0240238
-0.0103311
0.0310783
-0.013365
0.039585
-0.0161491
0.0493267
-0.0185804
0.0600496
-0.0205024
0.0714131
-0.0216595
-0.0214664
0.0168069
-0.00234763
-0.015843
0.0197311
-0.00715147
0.0246741
-0.0121673
0.0316504
-0.0173074
0.0405489
-0.0222634
0.0511048
-0.026705
0.0629356
-0.0304113
0.0756917
-0.0332586
0.0888571
-0.0348249
-0.0338143
0.0207924
-0.0196329
0.0242918
0.0301531
0.0383166
0.0485392
0.060342
0.0730411
0.085601
0.0959878
0.0314606
-0.0312979
0.0371056
-0.0372683
0.0255979
-0.0308949
0.0367576
0.0199373
-0.0300623
0.0357229
0.0146885
-0.0286664
0.0339152
0.010066
-0.0264586
0.0310811
0.00620824
-0.0227734
0.0266312
0.00311643
-0.0176461
0.0207379
0.00101942
-0.0136208
0.0157179
-8.54689e-05
-0.0101595
0.0112644
-0.00563913
0.00555367
0.0294855
-0.0254318
-0.0353517
0.0237671
-0.0251764
0.0182746
-0.0245698
0.0131857
-0.0235775
0.00875282
-0.0220257
0.00535811
-0.0193786
0.00302492
-0.0153129
0.00140016
-0.0119961
0.000300259
-0.0090596
-0.00533887
0.0294614
-0.0194412
-0.035452
0.023655
-0.01937
0.0181353
-0.01905
0.0130192
-0.0184614
0.00850926
-0.0175158
0.00505614
-0.0159255
0.00301295
-0.0132697
0.00165047
-0.0106336
0.000585595
-0.00799472
-0.00475327
0.0313735
-0.0131772
-0.0376375
0.0253441
-0.0133406
0.0196328
-0.0133387
0.0143259
-0.0131545
0.00956231
-0.0127522
0.00566631
-0.0120295
0.00320804
-0.0108114
0.00176805
-0.0091936
0.000730519
-0.00695718
-0.00402275
0.0349503
-0.00652435
-0.0416031
0.0285795
-0.00696978
0.0225624
-0.00732165
0.0169657
-0.0075577
0.0118801
-0.00766661
0.0074897
-0.00763911
0.00414363
-0.00746531
0.00199797
-0.00704793
0.000800094
-0.00575929
-0.00322265
0.0392328
0.000575988
-0.0463332
0.0324577
-0.000194654
0.0260801
-0.000943957
0.0201739
-0.00165156
0.0147999
-0.00229253
0.010021
-0.00286025
0.00592108
-0.00336536
0.0026733
-0.00380014
0.00072032
-0.00380631
-0.00250232
0.0430286
0.00808092
-0.0505336
0.035864
0.00697005
0.0290932
0.00582677
0.0228158
0.00462591
0.0171324
0.00339085
0.0120822
0.00218996
0.00764776
0.00106908
0.00383723
1.04041e-05
0.00097571
-0.000944779
-0.0015266
0.0452747
0.0158695
-0.0530633
0.0378616
0.0143832
0.0308218
0.0128665
0.024193
0.0112547
0.0181178
0.0094661
0.0127797
0.00752807
0.00825554
0.0055932
0.00452272
0.00374324
0.00162254
0.00195541
9.5939e-05
0.0454208
0.0239538
-0.053505
0.0378195
0.0219846
0.0307041
0.0199819
0.023989
0.0179698
0.0176452
0.01581
0.0118676
0.0133056
0.00702919
0.0104316
0.00341018
0.00736225
0.00114452
0.00422108
0.00124046
0.0443813
-0.0528775
0.0364421
0.0291882
0.0225989
0.0164792
0.0107196
0.00564351