/*--------------------------------*- C++ -*----------------------------------*\
  =========                 |
  \\      /  F ield         | OpenFOAM: The Open Source CFD Toolbox
   \\    /   O peration     | Website:  https://openfoam.org
    \\  /    A nd           | Version:  13
     \\/     M anipulation  |
\*---------------------------------------------------------------------------*/
FoamFile
{
    format      ascii;
    class       volVectorField;
    location    "0.51";
    object      U;
}
// * * * * * * * * * * * * * * * * * * * * * * * * * * * * * * * * * * * * * //

dimensions      [0 1 -1 0 0 0 0];

internalField   nonuniform List<vector> 
1800
(
(0.0978021 -0.0883299 -4.49146e-20)
(0.286897 -0.241953 -3.41324e-20)
(0.473973 -0.379045 -4.85058e-19)
(0.65769 -0.500156 1.91482e-19)
(0.836607 -0.607164 7.43754e-20)
(1.00991 -0.701363 -3.90472e-20)
(1.17714 -0.783446 5.54746e-20)
(1.33791 -0.853646 1.97104e-19)
(1.49156 -0.912915 5.92077e-19)
(1.63349 -0.966836 8.09847e-19)
(0.119062 -0.0915037 -7.91222e-20)
(0.344293 -0.247711 -7.70625e-19)
(0.563284 -0.384751 3.78158e-21)
(0.775364 -0.504235 1.25795e-19)
(0.979502 -0.608918 -1.26287e-19)
(1.17521 -0.700687 7.66355e-20)
(1.3623 -0.780773 -2.8095e-19)
(1.54076 -0.850075 -5.01792e-20)
(1.71008 -0.910671 -6.93229e-19)
(1.86783 -0.966998 6.29552e-19)
(0.141652 -0.0923238 4.88234e-20)
(0.403682 -0.247733 2.09291e-19)
(0.653757 -0.382118 5.43352e-19)
(0.892178 -0.497905 -1.90276e-19)
(1.11865 -0.598383 -1.43014e-19)
(1.33321 -0.685807 7.56269e-20)
(1.53605 -0.761696 9.82975e-20)
(1.72742 -0.827282 1.94081e-19)
(1.90719 -0.884779 2.73514e-21)
(2.07419 -0.937837 1.50987e-19)
(0.163908 -0.0897215 -4.57195e-20)
(0.4617 -0.239471 -2.04394e-19)
(0.74143 -0.36762 -1.81264e-19)
(1.00451 -0.476977 -1.42307e-19)
(1.25162 -0.571021 1.81323e-19)
(1.48351 -0.652124 -5.70938e-20)
(1.70092 -0.7219 -4.31158e-21)
(1.90453 -0.781612 2.96096e-21)
(2.09454 -0.83335 -1.60396e-19)
(2.27024 -0.880334 -1.05997e-19)
(0.184659 -0.083357 -1.14045e-19)
(0.515896 -0.221808 8.76353e-20)
(0.823295 -0.339432 1.79848e-19)
(1.10931 -0.439064 2.43316e-19)
(1.37562 -0.524071 -2.85039e-19)
(1.62371 -0.596776 -3.5808e-21)
(1.85494 -0.658763 4.25013e-19)
(2.07042 -0.711256 -1.8505e-19)
(2.27083 -0.756154 -1.23992e-19)
(2.45577 -0.796383 -5.36005e-20)
(0.203191 -0.0735005 1.73596e-19)
(0.564473 -0.195201 1.02987e-18)
(0.896794 -0.298075 1.43257e-19)
(1.20352 -0.384736 -5.03157e-19)
(1.48719 -0.458227 -1.75512e-19)
(1.75003 -0.520668 6.3772e-19)
(1.9939 -0.573522 -1.45395e-19)
(2.22036 -0.617896 -4.31626e-19)
(2.43047 -0.655438 -3.16613e-19)
(2.62419 -0.688733 2.61593e-19)
(0.2189 -0.0605916 1.16342e-19)
(0.605748 -0.160701 -7.47607e-19)
(0.959317 -0.245031 -1.08563e-18)
(1.28371 -0.315799 3.83798e-19)
(1.58223 -0.375564 4.49963e-19)
(1.85768 -0.426128 -9.02118e-22)
(2.11239 -0.468738 -6.39719e-19)
(2.34829 -0.504323 2.19319e-19)
(2.56683 -0.534209 -3.644e-19)
(2.76828 -0.560564 -3.11169e-19)
(0.231237 -0.0451725 -3.42493e-19)
(0.638203 -0.119685 -6.92616e-19)
(1.00849 -0.182295 1.21224e-18)
(1.34678 -0.2347 5.98713e-19)
(1.65694 -0.278853 -2.69767e-19)
(1.94225 -0.316135 -2.11502e-19)
(2.20544 -0.347514 0)
(2.44875 -0.373687 1.16814e-19)
(2.67399 -0.395619 -2.95846e-19)
(2.88172 -0.414966 -7.74563e-20)
(0.239768 -0.0278755 -2.04469e-19)
(0.660656 -0.0737561 5.62399e-19)
(1.04249 -0.112199 1.71017e-19)
(1.39032 -0.144289 -5.12507e-19)
(1.70841 -0.171277 -7.84211e-19)
(2.00038 -0.194053 3.66213e-20)
(2.26925 -0.213244 1.67122e-19)
(2.51753 -0.229292 -5.46854e-19)
(2.74732 -0.242782 -2.89758e-19)
(2.95954 -0.254775 -5.63586e-19)
(0.244261 -0.00940246 4.51417e-19)
(0.672456 -0.024704 3.44159e-19)
(1.06031 -0.0373615 -9.38603e-20)
(1.41304 -0.0477881 -1.29834e-20)
(1.73515 -0.0564616 -3.87513e-19)
(2.03042 -0.0637223 -8.57319e-20)
(2.30206 -0.0698089 -2.90583e-19)
(2.55277 -0.0748889 6.46568e-19)
(2.78481 -0.0791694 1.71005e-19)
(2.99946 -0.08301 2.22659e-21)
(-0.00235015 -0.0218197 -3.14727e-20)
(0.00868036 -0.0693185 -7.15707e-20)
(0.024985 -0.120233 -7.28617e-21)
(0.0493934 -0.170751 -3.43427e-20)
(0.0777454 -0.216084 -1.2708e-20)
(0.10662 -0.254253 -3.89757e-19)
(0.135686 -0.288213 -1.92804e-20)
(0.166492 -0.321515 1.1989e-19)
(0.19932 -0.354992 1.10074e-20)
(0.233212 -0.387322 -3.60395e-20)
(0.000838324 -0.0247333 -9.77549e-20)
(0.014971 -0.085107 -2.10001e-19)
(0.039342 -0.160064 -5.66556e-20)
(0.0692765 -0.224846 -1.10782e-19)
(0.0995537 -0.275139 -9.75933e-20)
(0.130585 -0.317596 -2.80967e-19)
(0.164634 -0.358568 2.01201e-19)
(0.202296 -0.399915 1.67914e-19)
(0.241798 -0.439779 -2.55525e-19)
(0.281322 -0.476128 8.09245e-20)
(0.0054893 -0.0315378 -8.54315e-20)
(0.0287853 -0.10744 -8.60495e-19)
(0.0628199 -0.19591 -1.27866e-19)
(0.0974442 -0.268697 9.48663e-20)
(0.131873 -0.326943 6.805e-20)
(0.169756 -0.379984 -4.54376e-19)
(0.213054 -0.431942 3.60953e-20)
(0.259244 -0.481366 3.66735e-19)
(0.305609 -0.52579 -3.85589e-19)
(0.351582 -0.565161 -2.58094e-19)
(0.0113674 -0.0410257 -1.81105e-21)
(0.0466237 -0.130887 1.88826e-19)
(0.0896128 -0.225225 1.66993e-21)
(0.13307 -0.30688 -1.10852e-20)
(0.177823 -0.377695 -3.02214e-20)
(0.227296 -0.443626 8.87602e-20)
(0.281144 -0.505319 7.41767e-20)
(0.335725 -0.560537 -1.36411e-19)
(0.389813 -0.608986 9.21485e-21)
(0.444001 -0.651526 -1.044e-20)
(0.0185098 -0.0507962 0)
(0.0672353 -0.152435 5.41677e-21)
(0.121922 -0.253586 -5.07214e-19)
(0.178687 -0.345394 5.11215e-20)
(0.237817 -0.428462 -1.18501e-20)
(0.300529 -0.504922 7.66829e-21)
(0.365322 -0.574152 -2.59453e-20)
(0.42983 -0.635165 -7.81989e-21)
(0.493984 -0.688533 0)
(0.558187 -0.73451 -2.0591e-20)
(0.0273278 -0.059664 3.16934e-20)
(0.0918939 -0.172863 -1.53476e-19)
(0.161757 -0.282505 -4.53924e-20)
(0.234621 -0.383847 -5.85274e-20)
(0.309731 -0.476682 4.97444e-20)
(0.386731 -0.561424 4.29105e-21)
(0.464235 -0.637547 9.19617e-20)
(0.540934 -0.704747 -2.17577e-20)
(0.616908 -0.763209 -6.97207e-19)
(0.692159 -0.812379 -1.01121e-20)
(0.0379773 -0.0676124 7.02506e-22)
(0.121237 -0.192185 5.62514e-20)
(0.209159 -0.310611 -7.87424e-20)
(0.299919 -0.420154 -1.67366e-20)
(0.392126 -0.520626 -7.28855e-20)
(0.484763 -0.612056 -1.02379e-20)
(0.576682 -0.69422 9.11558e-21)
(0.666918 -0.767003 -2.12667e-19)
(0.7555 -0.830088 3.84061e-19)
(0.842288 -0.882111 9.7223e-19)
(0.0503635 -0.0746054 1.51906e-20)
(0.15513 -0.209615 -1.42428e-19)
(0.263459 -0.335963 -2.14048e-19)
(0.373663 -0.452098 8.91123e-20)
(0.484091 -0.558238 -6.43265e-20)
(0.593527 -0.654569 9.93796e-20)
(0.70092 -0.741204 1.97715e-19)
(0.805379 -0.818198 -1.09728e-19)
(0.906984 -0.884981 -3.06258e-19)
(1.00565 -0.939367 7.25829e-19)
(0.0642917 -0.0803624 -2.64367e-20)
(0.193287 -0.224029 -5.7819e-19)
(0.324295 -0.356559 5.24444e-19)
(0.455678 -0.477223 3.37614e-19)
(0.585728 -0.586727 -8.59816e-20)
(0.713208 -0.685628 3.09056e-19)
(0.837107 -0.774384 -1.60014e-19)
(0.956535 -0.853386 -7.74016e-19)
(1.07169 -0.92194 -4.0396e-19)
(1.18263 -0.97716 4.53995e-19)
(0.0795465 -0.0846677 -7.98383e-20)
(0.235847 -0.234419 -5.44347e-19)
(0.392392 -0.370524 -8.2147e-21)
(0.547538 -0.49279 6.87683e-20)
(0.699587 -0.602451 3.37849e-19)
(0.847379 -0.700411 -1.85492e-19)
(0.989994 -0.787406 -1.6968e-19)
(1.12651 -0.863776 1.89212e-19)
(1.25677 -0.92858 -3.51837e-19)
(1.38003 -0.980267 -5.84892e-19)
(0.403144 -0.53127 9.93853e-19)
(0.685053 -0.617418 -2.6371e-19)
(0.913731 -0.556388 -1.48247e-19)
(1.08697 -0.429626 2.7835e-19)
(1.23828 -0.278701 -2.35225e-19)
(1.35849 -0.137626 -2.97739e-19)
(1.45153 -0.0318631 -2.57792e-19)
(1.50568 0.0142144 -3.16598e-20)
(1.52671 0.0184724 6.17037e-20)
(1.5435 0.0114308 3.2185e-20)
(0.469144 -0.619155 9.71525e-19)
(0.741833 -0.692835 7.49888e-20)
(0.966539 -0.616334 1.08951e-20)
(1.12461 -0.4786 -2.259e-19)
(1.26425 -0.318558 -7.50178e-19)
(1.37693 -0.169313 0)
(1.46934 -0.0545121 -2.35928e-19)
(1.53551 0.000914283 5.32577e-20)
(1.57032 0.0106325 4.47268e-21)
(1.59994 0.00742183 -4.24048e-20)
(0.556467 -0.704859 -9.98434e-19)
(0.811182 -0.76583 -7.14053e-20)
(1.02595 -0.674203 1.57871e-19)
(1.16637 -0.525464 -5.3339e-20)
(1.29056 -0.357171 -3.56684e-20)
(1.39348 -0.200577 6.49824e-20)
(1.48037 -0.0779466 0)
(1.54629 -0.0146778 0)
(1.58356 -0.000428888 -5.18633e-20)
(1.62761 0.000616534 0)
(0.665886 -0.786671 -2.24496e-19)
(0.895971 -0.834451 4.01659e-19)
(1.09242 -0.728935 2.68863e-20)
(1.2129 -0.569275 0)
(1.31797 -0.393744 6.24834e-19)
(1.40902 -0.230509 -1.55492e-19)
(1.48841 -0.100635 0)
(1.54756 -0.0297204 1.43189e-19)
(1.58335 -0.0112046 0)
(1.62707 -0.00601529 1.97849e-20)
(0.79584 -0.863427 -1.4913e-19)
(0.997921 -0.896702 4.51414e-19)
(1.16663 -0.779356 -1.47431e-20)
(1.26435 -0.609219 0)
(1.34699 -0.427544 1.80448e-19)
(1.42373 -0.258584 2.88491e-19)
(1.49468 -0.121727 4.8314e-20)
(1.5462 -0.0439064 6.94213e-21)
(1.58151 -0.0217624 -2.92706e-20)
(1.62426 -0.0121876 3.02499e-20)
(0.942273 -0.934366 -1.32638e-18)
(1.11668 -0.951217 -9.36939e-19)
(1.24921 -0.824176 4.80807e-21)
(1.32054 -0.644549 5.68081e-19)
(1.37794 -0.457826 -2.99556e-19)
(1.43747 -0.284427 1.50534e-19)
(1.49916 -0.141144 2.48647e-19)
(1.54426 -0.0577007 -1.89444e-19)
(1.57972 -0.0322181 -1.83147e-21)
(1.62271 -0.0183172 2.00753e-20)
(1.10008 -0.999109 -2.59091e-19)
(1.25013 -0.997799 2.85211e-19)
(1.34046 -0.862259 4.04181e-21)
(1.38122 -0.674536 -1.7365e-20)
(1.41094 -0.483798 -5.76359e-19)
(1.4501 -0.307573 5.40174e-20)
(1.50148 -0.159025 -9.52606e-20)
(1.54211 -0.0712558 -2.89475e-20)
(1.57816 -0.0426546 2.82983e-21)
(1.62242 -0.0243379 -2.15282e-20)
(1.26426 -1.05655 -1.20163e-18)
(1.3948 -1.03705 2.09053e-19)
(1.43936 -0.893005 0)
(1.44548 -0.698715 3.38553e-20)
(1.4454 -0.504865 5.06995e-19)
(1.46121 -0.32754 -1.00425e-21)
(1.50091 -0.175529 -2.92105e-19)
(1.53937 -0.0847671 4.73482e-20)
(1.57681 -0.0526273 1.81222e-22)
(1.61812 -0.0306596 1.46263e-20)
(1.43192 -1.10326 3.39106e-18)
(1.54805 -1.06989 2.47037e-19)
(1.54576 -0.917118 4.62001e-19)
(1.51358 -0.717486 -3.14818e-20)
(1.4815 -0.521094 -3.39611e-20)
(1.47066 -0.344199 -4.13436e-19)
(1.49638 -0.19098 7.83279e-20)
(1.5347 -0.0975725 3.17112e-21)
(1.5713 -0.0612618 -2.65059e-20)
(1.58065 -0.0347405 -2.88588e-20)
(1.59916 -1.12799 -2.99865e-18)
(1.70183 -1.09517 1.27342e-18)
(1.65406 -0.937245 -2.30551e-19)
(1.58166 -0.734334 -7.81478e-19)
(1.5163 -0.536037 -6.49806e-19)
(1.47627 -0.361109 -2.54391e-19)
(1.48589 -0.20761 -5.55176e-20)
(1.5232 -0.111022 0)
(1.52681 -0.0648531 -2.01962e-20)
(1.5188 -0.0354444 7.05837e-20)
(1.8881 -1.17004 -6.71629e-18)
(1.92734 -1.10475 -1.69385e-18)
(1.80495 -0.931507 -5.85849e-20)
(1.6733 -0.726242 1.12522e-19)
(1.5626 -0.531415 1.6578e-19)
(1.48416 -0.365943 -1.10775e-19)
(1.46637 -0.217899 -3.49455e-20)
(1.45832 -0.115273 5.38816e-20)
(1.44157 -0.0617294 -4.61327e-20)
(1.43028 -0.0335479 -3.39551e-20)
(2.28925 -1.13466 4.95247e-19)
(2.17883 -1.05633 -2.76737e-19)
(1.943 -0.864712 5.22317e-19)
(1.73642 -0.663749 -9.22362e-20)
(1.56459 -0.478888 5.45335e-20)
(1.43264 -0.32835 -4.13794e-20)
(1.36284 -0.20234 9.56741e-20)
(1.3362 -0.106464 -3.11969e-20)
(1.32126 -0.0549396 1.74945e-19)
(1.30618 -0.0309861 7.87191e-20)
(2.61058 -1.04344 2.2709e-18)
(2.35217 -0.94854 3.261e-19)
(2.00893 -0.759066 -1.18383e-19)
(1.73393 -0.57219 1.44305e-36)
(1.50841 -0.409151 -2.55093e-20)
(1.34346 -0.282436 1.501e-33)
(1.24773 -0.178129 -1.59178e-20)
(1.20851 -0.0963277 -1.57362e-33)
(1.18882 -0.0490893 7.00243e-21)
(1.17202 -0.0276293 -1.95823e-20)
(2.78714 -0.893871 3.8906e-33)
(2.36979 -0.795456 2.96606e-18)
(1.97431 -0.630173 1.82109e-18)
(1.65464 -0.468839 0)
(1.40883 -0.333838 8.45264e-19)
(1.23288 -0.230745 4.40985e-19)
(1.12304 -0.148545 1.55961e-19)
(1.07098 -0.0830373 -2.64786e-33)
(1.04793 -0.0422444 -6.2152e-20)
(1.02944 -0.0238373 1.47991e-20)
(2.76377 -0.705826 3.84353e-18)
(2.24614 -0.629772 -1.46877e-19)
(1.847 -0.490832 0)
(1.51625 -0.361399 0)
(1.27276 -0.255076 0)
(1.09942 -0.176433 0)
(0.986691 -0.115635 -1.22278e-20)
(0.92733 -0.0671578 -3.94503e-33)
(0.900613 -0.0345703 7.399e-21)
(0.880791 -0.0196013 1.49831e-33)
(2.55124 -0.517005 3.26661e-18)
(2.02018 -0.462871 0)
(1.63881 -0.353564 0)
(1.32715 -0.256616 0)
(1.10183 -0.179367 0)
(0.943086 -0.124262 0)
(0.837275 -0.0828799 3.26967e-20)
(0.776729 -0.0499075 -7.26639e-20)
(0.747984 -0.0261634 8.12238e-21)
(0.727436 -0.0150587 4.26413e-20)
(2.19015 -0.342701 0)
(1.70269 -0.303499 1.09921e-18)
(1.36142 -0.227578 1.09172e-18)
(1.09151 -0.161952 0)
(0.898883 -0.11217 6.71345e-19)
(0.764853 -0.0779427 4.10938e-19)
(0.674005 -0.0528958 2.49632e-19)
(0.618603 -0.0330121 7.25951e-20)
(0.590451 -0.0176283 -3.63613e-21)
(0.57043 -0.0104482 -5.49861e-21)
(1.70287 -0.191132 -6.73842e-19)
(1.30022 -0.165589 -2.74112e-19)
(1.02512 -0.121745 1.75582e-19)
(0.815179 -0.0844324 -2.11786e-34)
(0.667948 -0.0580073 -7.69436e-20)
(0.566689 -0.0406445 3.73311e-33)
(0.497107 -0.0281694 4.9354e-20)
(0.452406 -0.0182803 9.72891e-20)
(0.428148 -0.00988063 9.37897e-21)
(0.410518 -0.00615359 -6.04643e-21)
(1.10089 -0.0758198 3.40791e-18)
(0.823172 -0.0626772 -1.86397e-19)
(0.640614 -0.0442893 -5.88559e-19)
(0.506185 -0.0289915 0)
(0.413921 -0.0195438 -6.40037e-19)
(0.350932 -0.0139703 -4.31893e-19)
(0.306978 -0.0100716 -1.98658e-19)
(0.2775 -0.0069978 -1.32213e-19)
(0.260569 -0.00388491 1.40432e-19)
(0.247936 -0.00263783 -1.54068e-20)
(0.397353 -0.00331875 0)
(0.287869 0.0015934 0)
(0.2209 0.00409368 0)
(0.173559 0.00624148 0)
(0.142398 0.00584025 0)
(0.121299 0.00468946 0)
(0.106165 0.00357679 5.67727e-20)
(0.0954483 0.00238583 -2.14114e-34)
(0.0888209 0.00175976 1.18869e-20)
(0.0835473 0.000671347 1.22439e-20)
(3.36711 -0.0863094 5.39202e-19)
(3.32643 -0.265082 -8.41877e-20)
(3.24736 -0.43065 8.52073e-19)
(3.13238 -0.582148 -6.04825e-19)
(2.98634 -0.71811 6.6634e-19)
(2.81523 -0.83636 2.75117e-19)
(2.62659 -0.934027 -1.92794e-18)
(2.42948 -1.0078 -7.73004e-20)
(2.22464 -1.05361 0)
(1.98481 -1.06647 4.26467e-19)
(3.86192 -0.0750561 7.07356e-18)
(3.79859 -0.234206 1.95635e-18)
(3.70428 -0.3873 -4.86708e-18)
(3.58425 -0.531977 -4.49018e-19)
(3.44238 -0.665874 3.55852e-18)
(3.28184 -0.787292 1.92315e-18)
(3.10648 -0.895027 -5.16776e-18)
(2.92201 -0.987644 -1.95179e-18)
(2.72755 -1.06331 2.20278e-18)
(2.49232 -1.12041 8.52099e-19)
(3.83309 -0.0532969 -1.26245e-19)
(3.82026 -0.171559 4.40377e-18)
(3.78548 -0.299753 -1.08838e-18)
(3.72436 -0.430909 -3.44616e-18)
(3.6362 -0.558717 -6.80055e-18)
(3.52373 -0.678781 1.02785e-17)
(3.39119 -0.788761 4.18053e-18)
(3.24351 -0.887939 -3.91147e-18)
(3.08161 -0.978651 -2.90249e-18)
(2.88722 -1.06291 -3.42459e-18)
(3.62867 -0.0472815 -4.83942e-18)
(3.61962 -0.144927 -4.35352e-18)
(3.59965 -0.243734 5.47233e-18)
(3.56737 -0.343086 1.91198e-18)
(3.52243 -0.442365 -8.97197e-18)
(3.4642 -0.54079 4.92269e-19)
(3.39188 -0.637022 3.88672e-18)
(3.30518 -0.730399 -1.05412e-18)
(3.20506 -0.823024 1.27696e-18)
(3.08313 -0.914721 2.8174e-19)
(3.34406 -0.0365746 -9.15994e-19)
(3.339 -0.111653 3.00411e-18)
(3.32711 -0.188674 1.61957e-18)
(3.30745 -0.267169 -1.89412e-18)
(3.27988 -0.346067 -2.00141e-18)
(3.24467 -0.424131 -2.43435e-18)
(3.20206 -0.500324 3.79738e-19)
(3.1518 -0.574476 1.38902e-19)
(3.09554 -0.647732 -2.13998e-18)
(3.03294 -0.721268 -2.0347e-18)
(2.96257 -0.0265514 -1.8225e-18)
(2.95981 -0.0798865 -5.87248e-20)
(2.95331 -0.134597 -1.63753e-18)
(2.94241 -0.190901 3.12141e-19)
(2.92676 -0.248549 5.36784e-18)
(2.9063 -0.306928 -3.66782e-19)
(2.88093 -0.365113 4.43448e-20)
(2.85025 -0.422054 -2.60865e-18)
(2.81646 -0.476874 -3.49585e-18)
(2.78604 -0.529849 3.72654e-19)
(2.48713 -0.0175085 -2.89319e-20)
(2.48578 -0.0519331 -8.14318e-19)
(2.48259 -0.0872471 -2.61486e-18)
(2.47708 -0.12377 -3.43103e-18)
(2.4688 -0.161533 2.49655e-18)
(2.45745 -0.200267 1.50224e-18)
(2.44262 -0.239352 -1.38505e-18)
(2.42371 -0.277789 1.62447e-18)
(2.40276 -0.314479 -4.29753e-19)
(2.38955 -0.349535 -9.63794e-19)
(1.91464 -0.00968699 7.7246e-19)
(1.91408 -0.0282966 -8.31797e-19)
(1.91278 -0.0474391 -3.27676e-20)
(1.91032 -0.0673587 -3.47271e-20)
(1.90624 -0.0881299 -7.27437e-20)
(1.90013 -0.109614 -2.33193e-18)
(1.89151 -0.131404 -6.78673e-19)
(1.87979 -0.152781 2.62607e-18)
(1.86664 -0.172973 -6.03485e-19)
(1.86192 -0.192204 -1.35109e-18)
(1.23988 -0.00373704 -1.64282e-18)
(1.23967 -0.0106953 -8.48909e-19)
(1.23923 -0.017901 2.3392e-18)
(1.23823 -0.0254785 -8.89773e-19)
(1.23625 -0.0334753 -6.74124e-19)
(1.2329 -0.0418316 1.35203e-18)
(1.22775 -0.0503499 -1.29589e-18)
(1.22038 -0.0586652 1.28698e-18)
(1.21202 -0.0663419 -1.2103e-18)
(1.21008 -0.0735072 -4.24815e-18)
(0.454916 -0.000257926 6.63082e-19)
(0.454827 -0.000700502 7.03055e-19)
(0.454692 -0.00115911 7.48183e-19)
(0.454324 -0.00164006 1.35397e-18)
(0.453495 -0.0021402 -6.71985e-19)
(0.451983 -0.00263721 -1.29961e-18)
(0.449567 -0.00309914 6.14711e-19)
(0.445992 -0.00359295 2.48367e-20)
(0.441736 -0.00439223 -4.96523e-20)
(0.44035 -0.00504563 1.1057e-19)
(1.65349 0.997136 -2.85636e-19)
(1.51222 0.941752 1.80037e-20)
(1.35875 0.880667 -2.28212e-19)
(1.19765 0.808382 1.76417e-19)
(1.02956 0.723942 -1.92284e-19)
(0.854816 0.627055 -1.01152e-19)
(0.673757 0.516931 2.32019e-19)
(0.487037 0.392144 -3.05012e-19)
(0.295894 0.250644 3.0988e-19)
(0.101432 0.0916454 2.38779e-19)
(1.88633 0.992095 0)
(1.72964 0.934667 6.38891e-19)
(1.5608 0.872716 3.31925e-19)
(1.38226 0.801818 1.63017e-19)
(1.19452 0.719856 4.31627e-19)
(0.997529 0.625887 -8.68766e-20)
(0.791361 0.518598 -7.85671e-20)
(0.57635 0.395991 8.88392e-20)
(0.353322 0.255178 -1.04523e-18)
(0.122701 0.094357 -1.6608e-20)
(2.091 0.958973 1.56807e-19)
(1.9252 0.905021 0)
(1.74612 0.846429 -1.00751e-19)
(1.55492 0.779528 -3.83601e-19)
(1.35169 0.702071 5.37154e-20)
(1.13609 0.612785 3.97231e-19)
(0.907786 0.510089 -6.06963e-19)
(0.666594 0.391641 -2.00875e-19)
(0.4126 0.254047 7.83615e-19)
(0.145253 0.0947367 -1.75973e-19)
(2.28482 0.898312 1.88171e-19)
(2.11043 0.850531 1.20473e-20)
(1.92129 0.797841 2.44787e-20)
(1.7181 0.736989 3.61197e-20)
(1.50058 0.66585 -2.92253e-20)
(1.26793 0.583131 2.73304e-19)
(1.01927 0.48717 -2.06891e-19)
(0.75368 0.375534 -8.5563e-19)
(0.470275 0.244681 0)
(0.16739 0.0916978 0)
(2.46795 0.811793 -1.07055e-18)
(2.28435 0.770818 -6.08858e-19)
(2.08493 0.72505 -1.20629e-19)
(1.87003 0.671516 -6.65762e-20)
(1.63891 0.608293 0)
(1.39031 0.534137 2.40768e-19)
(1.12276 0.447436 2.67797e-19)
(0.834561 0.345838 2.86262e-19)
(0.523844 0.225955 -4.23776e-19)
(0.18791 0.0848991 -8.12405e-20)
(2.634 0.702078 7.66147e-19)
(2.44156 0.668054 -1.39179e-19)
(2.23244 0.629673 -2.21522e-19)
(2.00665 0.584303 0)
(1.76302 0.530279 0)
(1.49988 0.466489 0)
(1.21523 0.391466 -3.89832e-20)
(0.906691 0.303092 3.7028e-19)
(0.571503 0.19835 3.79141e-19)
(0.206085 0.074625 -3.08577e-19)
(2.7758 0.572347 -1.19337e-18)
(2.57551 0.545255 -1.4812e-18)
(2.35787 0.514527 -3.03149e-22)
(2.12261 0.477946 -1.87677e-19)
(1.86819 0.434183 -9.2883e-20)
(1.59259 0.38232 -1.78854e-19)
(1.29333 0.321127 4.59109e-19)
(0.967496 0.248839 2.14862e-19)
(0.611588 0.162968 5.40044e-19)
(0.221316 0.0613408 2.0286e-19)
(2.88708 0.425745 -1.15702e-18)
(2.68028 0.405631 8.47073e-20)
(2.45577 0.38282 1.64523e-19)
(2.21298 0.355612 1.68218e-20)
(1.95005 0.323052 -3.14417e-19)
(1.66466 0.28447 -1.74223e-19)
(1.35398 0.238939 -6.21227e-19)
(1.01464 0.185142 1.1853e-19)
(0.642609 0.121238 5.14791e-20)
(0.233068 0.0456131 -6.26865e-21)
(2.96281 0.265186 1.01348e-19)
(2.75122 0.252354 3.97012e-19)
(2.5219 0.237905 -3.30295e-19)
(2.27395 0.220741 3.6303e-19)
(2.00525 0.200298 3.72556e-19)
(1.71323 0.176178 4.91907e-19)
(1.39482 0.14781 -6.35753e-19)
(1.04634 0.114391 -3.24421e-19)
(0.663416 0.0748104 -4.58503e-20)
(0.240918 0.0280954 -3.27002e-19)
(3.00053 0.0935783 5.81807e-19)
(2.78613 0.088787 -1.8615e-19)
(2.55426 0.0834454 4.7957e-19)
(2.30368 0.0771515 -3.10682e-19)
(2.03209 0.0697292 2.6648e-19)
(1.7368 0.061063 6.05425e-19)
(1.41458 0.0509793 3.78891e-19)
(1.06162 0.0392352 3.09352e-19)
(0.673401 0.0255069 2.65866e-19)
(0.244656 0.00950732 5.43624e-19)
(0.239312 0.451383 -4.68144e-19)
(0.203744 0.417693 -1.86022e-19)
(0.168227 0.380671 1.38723e-19)
(0.134755 0.343084 -4.19762e-19)
(0.10506 0.307013 -1.19776e-19)
(0.0781606 0.269761 6.92149e-19)
(0.0517727 0.223347 3.35957e-19)
(0.0258791 0.158586 -1.57522e-19)
(0.00703829 0.0795576 1.1341e-19)
(-0.00113723 0.0224125 -6.05947e-20)
(0.288548 0.543597 4.10394e-19)
(0.248648 0.506826 4.56864e-19)
(0.208106 0.464811 -1.21914e-20)
(0.167806 0.417859 -1.32004e-19)
(0.131121 0.369831 -3.11061e-19)
(0.100599 0.322309 8.27185e-20)
(0.073448 0.269023 2.23843e-19)
(0.0458405 0.196625 1.64438e-19)
(0.0182978 0.10168 -5.88916e-19)
(0.00276869 0.0288061 -1.23347e-19)
(0.359712 0.632415 -5.99742e-19)
(0.313835 0.592303 -4.80523e-19)
(0.268017 0.546499 2.56518e-19)
(0.221359 0.493238 1.37354e-19)
(0.175817 0.433563 -5.54023e-21)
(0.136283 0.371453 -1.39303e-19)
(0.102123 0.305279 -2.86981e-20)
(0.068422 0.224639 -5.55733e-19)
(0.0336345 0.125832 -2.69485e-19)
(0.00761641 0.0377187 -3.90969e-20)
(0.454322 0.717205 5.02469e-19)
(0.40015 0.673058 1.64683e-19)
(0.346436 0.622097 -1.48943e-19)
(0.292273 0.56311 6.35647e-20)
(0.237771 0.495085 -4.71339e-22)
(0.186596 0.420497 1.50587e-21)
(0.140107 0.340372 -1.314e-19)
(0.0954534 0.250047 3.7959e-19)
(0.0514126 0.147594 -4.19643e-19)
(0.0135616 0.0476475 -6.53799e-20)
(0.572083 0.79726 -2.82074e-19)
(0.507926 0.749218 -8.89431e-20)
(0.443632 0.692433 -1.42811e-20)
(0.379005 0.62678 -6.93017e-20)
(0.313738 0.551594 5.80429e-20)
(0.249666 0.467771 5.18826e-20)
(0.188376 0.376495 -2.76118e-20)
(0.129315 0.2765 -2.8267e-19)
(0.0725104 0.167542 2.18589e-19)
(0.0209028 0.0567998 8.738e-20)
(0.70944 0.870451 6.43734e-19)
(0.634387 0.819119 3.21571e-19)
(0.558146 0.757016 2.04521e-19)
(0.480865 0.685019 4.81617e-20)
(0.402414 0.60325 1.5388e-19)
(0.323866 0.512148 7.75268e-20)
(0.246458 0.412362 1.42464e-19)
(0.170855 0.303808 5.7873e-20)
(0.0980411 0.186738 -1.62763e-20)
(0.0299867 0.0650086 -1.35393e-20)
(0.861998 0.934474 -1.19706e-19)
(0.775521 0.880325 -8.27099e-19)
(0.686685 0.813758 -7.82053e-20)
(0.595709 0.736574 -4.94971e-20)
(0.502547 0.64943 -1.87465e-20)
(0.408112 0.552565 1.50862e-19)
(0.313467 0.446209 -4.38604e-20)
(0.2197 0.330348 6.51578e-20)
(0.128285 0.205045 -1.44615e-19)
(0.0408984 0.0724838 -1.20239e-21)
(1.02667 0.985731 -8.85581e-19)
(0.928424 0.929377 5.94144e-20)
(0.826619 0.859492 -2.32612e-19)
(0.721433 0.778716 -7.31307e-20)
(0.612745 0.687879 -2.49439e-20)
(0.50144 0.586975 -7.51057e-20)
(0.388515 0.475832 5.63804e-20)
(0.275155 0.35416 6.03556e-20)
(0.162978 0.221541 -9.82333e-21)
(0.0535419 0.0791173 -1.03876e-19)
(1.20383 1.01771 1.23847e-19)
(1.09345 0.960754 5.23919e-19)
(0.978211 0.88957 1.5607e-21)
(0.85819 0.80744 -3.01648e-20)
(0.733121 0.715218 1.51326e-19)
(0.603875 0.612493 -3.47826e-19)
(0.471393 0.498716 -2.44582e-19)
(0.336826 0.373191 3.56231e-19)
(0.20177 0.235001 1.44239e-19)
(0.0677021 0.0845324 -3.62905e-20)
(1.40052 1.0153 7.40473e-19)
(1.27801 0.962212 3.24096e-19)
(1.14779 0.895263 5.57876e-20)
(1.01084 0.816329 -1.95543e-19)
(0.867251 0.726471 -1.65011e-20)
(0.717889 0.625304 4.6588e-19)
(0.563578 0.511986 -2.6835e-19)
(0.405339 0.385467 -1.8453e-19)
(0.244706 0.244318 3.35857e-19)
(0.0831151 0.088442 -6.08163e-21)
(0.974355 0.0970137 8.95187e-21)
(1.14777 0.141874 9.82812e-22)
(1.21154 0.190131 -2.31245e-20)
(1.32044 0.171153 0)
(1.36685 0.156824 3.98233e-21)
(1.27356 0.236161 -4.04995e-20)
(1.12583 0.386179 -5.76801e-20)
(0.947426 0.543167 -2.3908e-20)
(0.710675 0.647637 -2.91286e-19)
(0.416128 0.594801 4.46773e-19)
(0.978277 0.0775009 1.89452e-19)
(1.14054 0.11472 -2.92931e-20)
(1.20659 0.160488 1.9483e-21)
(1.31227 0.154375 1.2675e-20)
(1.36753 0.158982 3.78798e-21)
(1.29317 0.269825 -3.88256e-21)
(1.15607 0.435783 4.04247e-20)
(0.992513 0.605847 0)
(0.760963 0.726476 7.66108e-19)
(0.479267 0.685902 -5.53552e-19)
(0.98138 0.0582973 -1.12857e-19)
(1.13725 0.0886325 7.60252e-21)
(1.20496 0.131656 7.71386e-20)
(1.31008 0.136453 1.9583e-20)
(1.3703 0.160068 -2.10445e-20)
(1.31339 0.301002 -3.52906e-20)
(1.18977 0.483756 1.16863e-20)
(1.0432 0.666952 4.39224e-20)
(0.822959 0.802776 -1.15767e-21)
(0.564563 0.773632 -4.02923e-19)
(0.983704 0.0390927 -8.25786e-20)
(1.13745 0.0630224 1.57987e-20)
(1.20717 0.10346 7.41516e-20)
(1.31368 0.118015 2.81742e-20)
(1.3766 0.16062 -2.24762e-20)
(1.33415 0.329965 -2.20373e-20)
(1.22708 0.529504 4.56807e-20)
(1.09987 0.725409 2.66032e-20)
(0.900056 0.874306 -5.32382e-19)
(0.673879 0.856043 -1.78841e-19)
(0.985661 0.0197443 3.89528e-20)
(1.14069 0.0373423 -4.83985e-20)
(1.21295 0.0758085 -6.6077e-20)
(1.32172 0.0995393 1.99767e-20)
(1.38517 0.161655 0)
(1.35506 0.357292 0)
(1.26796 0.572458 6.07293e-20)
(1.1636 0.779871 -2.80814e-20)
(0.994973 0.938597 -1.16948e-19)
(0.805271 0.931491 -5.74553e-20)
(0.987747 -3.29869e-06 3.76106e-21)
(1.14651 0.0112184 5.63319e-20)
(1.22153 0.0486516 -2.0192e-19)
(1.33275 0.0816857 -7.33352e-20)
(1.39466 0.163887 -5.24216e-21)
(1.37597 0.383204 1.04903e-19)
(1.31249 0.611825 1.40685e-19)
(1.23586 0.828636 -1.80139e-20)
(1.10814 0.993846 -4.06126e-20)
(0.953852 0.999306 1.43326e-21)
(0.989658 -0.0206679 7.29155e-22)
(1.15431 -0.0156162 2.6406e-20)
(1.23203 0.0220362 -6.3571e-20)
(1.3456 0.0650862 -1.4433e-19)
(1.40403 0.167532 1.24488e-20)
(1.39703 0.407436 7.63418e-21)
(1.3612 0.646537 -5.85457e-20)
(1.31779 0.870044 -1.17555e-19)
(1.23756 1.03974 -2.73695e-20)
(1.11389 1.05961 -9.81736e-19)
(0.989868 -0.0424455 1.48321e-20)
(1.16341 -0.0434012 -1.32096e-19)
(1.24356 -0.00386985 1.27442e-19)
(1.35917 0.0505392 9.70861e-20)
(1.41208 0.173088 5.21101e-21)
(1.41812 0.429624 -1.18709e-19)
(1.41397 0.675592 -4.1819e-21)
(1.40877 0.903132 -1.11157e-19)
(1.37951 1.07711 1.1128e-20)
(1.27981 1.11182 2.88432e-18)
(0.987001 -0.0646673 -8.46917e-20)
(1.17338 -0.0722484 7.50451e-20)
(1.25539 -0.0289629 1.84199e-19)
(1.37277 0.0381858 -1.08945e-19)
(1.41922 0.180337 -2.02617e-19)
(1.4407 0.44954 9.24425e-21)
(1.47209 0.698852 1.60442e-19)
(1.50885 0.928563 -5.49757e-19)
(1.53095 1.10723 -2.68123e-20)
(1.44826 1.1529 -6.47281e-18)
(0.981488 -0.0875784 4.15811e-21)
(1.18432 -0.1021 1.33446e-19)
(1.26698 -0.0531223 5.85298e-20)
(1.38512 0.0301203 -2.61939e-19)
(1.42311 0.193263 -2.24615e-19)
(1.46234 0.470806 -6.40718e-20)
(1.53134 0.72005 6.39931e-20)
(1.61188 0.949657 -2.30442e-19)
(1.68377 1.12972 -1.08956e-18)
(1.61551 1.17197 -7.95262e-18)
(0.973034 -0.118783 -1.45037e-20)
(1.19726 -0.141805 -3.05776e-20)
(1.27753 -0.0861925 -7.22127e-20)
(1.39722 0.0149264 1.22632e-19)
(1.42871 0.19155 1.87807e-19)
(1.49285 0.466753 -5.44547e-20)
(1.61213 0.709711 -1.38299e-19)
(1.75399 0.938884 -1.21453e-18)
(1.90277 1.13179 -1.60156e-18)
(1.89922 1.20833 3.28728e-18)
(0.961734 -0.157333 -4.09804e-19)
(1.21368 -0.191473 1.1153e-20)
(1.28191 -0.1326 -5.37814e-20)
(1.39943 -0.00674802 3.0339e-19)
(1.41222 0.17001 3.34014e-19)
(1.49601 0.423432 -3.39299e-20)
(1.66888 0.645869 -7.40351e-20)
(1.88102 0.864604 -3.17684e-19)
(2.13955 1.07067 2.65479e-19)
(2.28439 1.16044 -3.23044e-19)
(0.949559 -0.197417 -2.78326e-20)
(1.23707 -0.241597 -5.42411e-20)
(1.28029 -0.176549 3.00156e-20)
(1.39596 -0.0276408 2.7421e-20)
(1.3903 0.157727 1.74453e-33)
(1.47466 0.367811 2.47397e-21)
(1.68245 0.55994 -2.07476e-33)
(1.94993 0.758661 1.86013e-19)
(2.30224 0.955908 -9.31717e-19)
(2.58731 1.05814 -6.29365e-19)
(0.93729 -0.24351 1.42092e-18)
(1.26719 -0.281697 -7.68995e-34)
(1.25217 -0.224119 -3.94816e-20)
(1.27811 -0.0340376 -2.26094e-19)
(1.27061 0.141809 -4.51214e-19)
(1.39275 0.299946 -8.99466e-19)
(1.62119 0.458859 -5.10077e-33)
(1.93035 0.630358 -1.73916e-18)
(2.32638 0.801719 -3.17586e-18)
(2.75392 0.902377 1.67572e-18)
(0.927336 -0.300516 0)
(1.31329 -0.326232 -1.65834e-33)
(1.11484 -0.20538 0)
(1.1125 -0.0281794 0)
(1.12454 0.113995 0)
(1.26067 0.231373 0)
(1.49109 0.354607 -8.14547e-33)
(1.81587 0.491035 0)
(2.21394 0.634008 -3.39941e-19)
(2.73522 0.711865 1.25795e-18)
(0.91641 -0.36069 1.16032e-19)
(1.2525 -0.326271 -4.67831e-19)
(0.961212 -0.172886 -5.48812e-20)
(0.93784 -0.024984 0)
(0.959912 0.0822506 0)
(1.09156 0.164602 6.10658e-20)
(1.30737 0.253373 1.18559e-18)
(1.6165 0.35437 -1.95086e-19)
(1.997 0.466055 -4.95307e-19)
(2.5326 0.520397 4.67236e-18)
(0.883436 -0.405296 -1.52013e-17)
(1.09225 -0.279696 1.08611e-18)
(0.793401 -0.129804 -7.2707e-20)
(0.749584 -0.0206503 -8.06107e-20)
(0.775429 0.0524438 -5.07646e-19)
(0.890632 0.104026 -7.7168e-19)
(1.07703 0.160929 -1.05162e-18)
(1.34637 0.228838 -1.38628e-18)
(1.68777 0.306048 -1.60822e-18)
(2.17999 0.344416 3.61502e-18)
(0.808975 -0.394512 -4.136e-19)
(0.88662 -0.207534 -1.21644e-18)
(0.605883 -0.082543 -1.25864e-19)
(0.551263 -0.0151165 -8.38563e-20)
(0.573507 0.0276505 -9.6621e-34)
(0.662385 0.0543019 9.45562e-20)
(0.80593 0.0843841 -1.48941e-32)
(1.01639 0.122847 -1.93423e-19)
(1.29254 0.167278 2.98829e-19)
(1.69931 0.192062 7.05667e-19)
(0.664235 -0.288846 3.4256e-17)
(0.618287 -0.108061 -3.14038e-18)
(0.393504 -0.0350124 -2.41036e-19)
(0.340191 -0.0073303 -1.52864e-19)
(0.35467 0.0093129 3.91393e-19)
(0.410961 0.0182812 7.82591e-19)
(0.501475 0.0291083 7.94281e-19)
(0.636815 0.0448505 4.59757e-19)
(0.820777 0.0634463 -1.90153e-19)
(1.10155 0.0762235 3.56884e-18)
(0.33683 -0.0768262 5.58789e-19)
(0.26186 -0.00230684 -6.76634e-33)
(0.144425 0.0190522 -3.05237e-19)
(0.120624 0.00330423 0)
(0.123892 -0.00231289 0)
(0.142039 -0.0053903 9.6948e-20)
(0.172477 -0.0062333 9.27686e-35)
(0.220321 -0.00416783 -1.23579e-19)
(0.288131 -0.00161691 -2.82487e-19)
(0.399003 0.00331887 1.00141e-18)
(2.00197 1.09624 -1.7893e-18)
(2.239 1.07833 -2.30482e-18)
(2.44203 1.02902 0)
(2.63704 0.952442 -7.58438e-19)
(2.82356 0.85247 -1.78373e-18)
(2.99275 0.732367 -2.24945e-18)
(3.13708 0.595028 -4.76767e-19)
(3.25055 0.442691 1.2693e-18)
(3.32825 0.276962 -3.54788e-18)
(3.36765 0.0986989 1.35668e-18)
(2.49858 1.14177 2.67445e-19)
(2.73048 1.08177 1.39694e-18)
(2.92381 1.00409 1.43866e-19)
(3.10669 0.909725 6.75621e-19)
(3.28057 0.80061 -1.10382e-18)
(3.43995 0.678292 -4.99973e-18)
(3.58095 0.543992 2.46753e-18)
(3.70047 0.399308 1.27026e-17)