/*--------------------------------*- C++ -*----------------------------------*\
  =========                 |
  \\      /  F ield         | OpenFOAM: The Open Source CFD Toolbox
   \\    /   O peration     | Website:  https://openfoam.org
    \\  /    A nd           | Version:  13
     \\/     M anipulation  |
\*---------------------------------------------------------------------------*/
FoamFile
{
    format      ascii;
    class       volScalarField;
    location    "2.285";
    object      p;
}
// * * * * * * * * * * * * * * * * * * * * * * * * * * * * * * * * * * * * * //

dimensions      [0 2 -2 0 0 0 0];

internalField   nonuniform List<scalar> 
440
(
-1.4239
-1.39282
-1.38069
-1.39716
-1.45593
-1.49604
-1.4635
-1.44314
-1.42951
-1.42225
-1.64895
-1.60914
-1.55993
-1.49692
-1.42709
-1.80984
-1.75933
-1.65043
-1.52062
-1.3922
-1.91588
-1.83953
-1.66592
-1.48549
-1.32216
-0.97531
-0.981414
-0.997372
-1.01361
-1.01493
-1.17602
-1.18391
-1.20804
-1.2386
-1.25488
-1.37366
-1.37852
-1.40188
-1.44237
-1.47309
-1.45513
-1.448
-1.45386
-1.48509
-1.50708
-1.4269
-1.4036
-1.38354
-1.40458
-1.41393
-0.785019
-0.0421819
0.0495117
0.0423716
0.0176771
-0.95589
-0.0870768
0.0452836
0.0407384
0.0170654
-1.16783
-0.146374
0.0360001
0.0372684
0.0160701
-1.33521
-0.221409
0.0182565
0.031066
0.0143035
-1.39233
-0.312963
-0.0102076
0.0211188
0.0113545
-1.24773
-0.357258
-0.0463841
0.00287399
0.00567345
-0.93829
-0.344987
-0.0919593
-0.0309273
-0.00629607
-0.79382
-0.346424
-0.105458
-0.0340942
-0.00736014
-0.670673
-0.360365
-0.152075
-0.0592217
-0.0147314
-0.582639
-0.360511
-0.172396
-0.0673769
-0.0163153
-1.0451
-1.15672
-1.28279
-1.38766
-1.50609
-0.774466
-0.900461
-0.993411
-1.05274
-1.08128
-0.599076
-0.712326
-0.783678
-0.832286
-0.855664
-0.482426
-0.586021
-0.652235
-0.694993
-0.710643
-0.426815
-0.528081
-0.593192
-0.628433
-0.628612
0.266021
0.107038
-0.0877154
-0.30832
-0.566206
-0.144789
-0.318577
-0.534374
-0.779171
-1.05784
-0.55705
-0.742002
-0.971186
-1.22843
-1.47999
-0.910177
-1.10028
-1.33157
-1.5804
-1.77964
-1.16225
-1.34833
-1.56312
-1.78651
-1.9197
1.59805
1.61846
1.63652
1.64186
1.6314
1.39233
1.40011
1.39826
1.37769
1.33639
1.14279
1.12336
1.08064
1.01361
0.919544
0.85552
0.807934
0.723749
0.606525
0.455494
0.565049
0.460881
0.320686
0.151546
-0.0547574
1.44061
1.35532
1.40987
1.42765
1.5323
1.42821
1.34098
1.3882
1.39241
1.44062
1.41656
1.32468
1.36447
1.34489
1.32103
1.40572
1.30722
1.33824
1.2884
1.14274
1.39606
1.28869
1.31042
1.22512
0.952
1.38543
1.26389
1.27355
1.12617
0.748652
1.37605
1.23601
1.24252
1.02914
0.737106
1.37616
1.21745
1.21962
0.96987
0.717306
1.37213
1.19566
1.20349
0.926462
0.708368
1.40159
1.19126
1.19434
0.899844
0.709844
0.271674
-0.0194733
-0.362748
-0.659425
-0.872578
0.239253
0.0384515
-0.197679
-0.41785
-0.614723
0.268254
0.0915661
-0.0992771
-0.288803
-0.460776
0.30824
0.143441
-0.0279017
-0.197858
-0.353228
0.334733
0.175246
0.0122626
-0.149409
-0.298468
-1.02978
-0.928985
-0.800275
-0.698991
-0.639564
-1.07784
-1.0288
-0.935894
-0.866015
-0.832027
-1.00254
-0.959964
-0.91036
-0.878876
-0.871172
-0.866969
-0.831473
-0.795527
-0.776224
-0.775167
-0.766041
-0.738975
-0.716488
-0.702644
-0.751945
-0.746009
-0.726801
-0.703465
-0.703312
-0.710494
-0.817414
-0.816178
-0.823939
-0.844081
-0.862235
-0.765589
-0.776877
-0.799184
-0.82631
-0.841298
-0.768955
-0.779625
-0.796122
-0.809642
-0.810021
-0.838582
-0.846777
-0.861857
-0.873223
-0.869399
-0.812067
-0.216061
-0.0105904
0.0323937
0.0167768
-0.791224
-0.14891
0.00378155
0.0385421
0.02101
-0.71107
-0.0792315
0.0253854
0.0395123
0.0183512
-0.669128
-0.0362892
0.0400726
0.0419588
0.0186745
-0.690537
-0.0226403
0.048343
0.0425488
0.0180456
-0.541087
-0.37841
-0.101693
0.0131489
0.0165488
-0.720345
-0.332922
-0.0477445
0.0459781
0.0274787
-0.60634
-0.834809
-0.867042
-0.863399
-0.687325
-0.621201
-0.826917
-0.878614
-0.825952
-0.852878
1.45442
1.44238
1.41697
1.37978
1.3311
1.59634
1.61765
1.62814
1.62619
1.61248
1.70727
1.73747
1.76219
1.7772
1.78054
1.75342
1.78806
1.8258
1.85767
1.87333
1.71877
1.74981
1.78463
1.81303
1.82472
-0.272188
-0.350511
-0.475436
-0.631036
-0.799186
0.224543
0.118687
-0.0228981
-0.193885
-0.399269
0.665165
0.554856
0.423416
0.268912
0.0835945
1.01092
0.928163
0.828094
0.707295
0.564956
1.28448
1.23232
1.16325
1.07899
0.980833
1.50946
1.3986
1.46971
1.47095
1.54789
1.49399
1.39393
1.46291
1.4768
1.57954
1.48019
1.38724
1.45538
1.47954
1.62136
1.46663
1.37867
1.44328
1.4726
1.61285
1.45344
1.36798
1.42807
1.4552
1.58682
1.56256
1.4079
1.46482
1.41988
1.44177
1.5203
1.39727
1.46156
1.4354
1.45653
1.1787
1.01429
0.710634
0.255825
-0.251767
1.25379
1.04269
0.725855
0.2744
-0.243133
)
;

boundaryField
{
    left
    {
        type            zeroGradient;
    }
    right
    {
        type            fixedValue;
        value           uniform 0;
    }
    down
    {
        type            zeroGradient;
    }
    up
    {
        type            zeroGradient;
    }
    cylinder
    {
        type            zeroGradient;
    }
    defaultFaces
    {
        type            empty;
    }
}


// ************************************************************************* //
