/*--------------------------------*- C++ -*----------------------------------*\
  =========                 |
  \\      /  F ield         | OpenFOAM: The Open Source CFD Toolbox
   \\    /   O peration     | Website:  https://openfoam.org
    \\  /    A nd           | Version:  13
     \\/     M anipulation  |
\*---------------------------------------------------------------------------*/
FoamFile
{
    format      ascii;
    class       volVectorField;
    location    "55.9";
    object      U;
}
// * * * * * * * * * * * * * * * * * * * * * * * * * * * * * * * * * * * * * //

dimensions      [0 1 -1 0 0 0 0];

internalField   nonuniform List<vector> 
440
(
(-0.0871075 0.0650886 -8.2642e-20)
(-0.0876582 0.0937003 7.66075e-20)
(0.133216 0.0669358 7.36038e-20)
(0.605044 0.0448351 1.90944e-19)
(0.840642 0.0358993 9.1215e-21)
(-0.0809623 0.0447115 3.69178e-20)
(0.145344 -0.0130438 -1.58888e-19)
(0.754477 -0.0783981 -1.24814e-19)
(1.36506 -0.126069 4.51821e-20)
(1.96209 -0.161628 -9.92264e-21)
(0.0137341 -0.0109372 4.90162e-20)
(0.697777 -0.0792954 9.5877e-19)
(1.55589 -0.0889346 -6.47936e-19)
(2.16817 -0.0725397 -1.94622e-18)
(2.59108 -0.0784071 8.60215e-19)
(0.274825 -0.0607907 -1.84996e-19)
(1.43084 -0.0137941 -7.10364e-19)
(2.20268 0.0359502 2.26577e-18)
(2.55685 0.053503 2.52311e-18)
(2.58717 0.0566133 -6.84133e-19)
(0.689149 -0.000411118 -3.4552e-19)
(1.94034 0.176426 -7.62569e-19)
(2.4437 0.230311 2.35093e-18)
(2.56 0.228937 2.4312e-18)
(2.64644 0.198949 8.10845e-19)
(-0.0300079 0.737532 5.53822e-19)
(-0.097577 1.04696 9.29059e-19)
(-0.142171 1.06332 -2.57534e-18)
(-0.152717 0.98398 5.77529e-19)
(-0.147719 0.838383 4.02888e-18)
(-0.0655529 0.526599 -6.40748e-20)
(-0.0308048 0.952899 -3.44724e-19)
(0.0228795 1.04399 -4.26541e-20)
(0.120763 0.970457 -6.29763e-20)
(0.133327 0.827137 1.54367e-19)
(-0.0715398 0.237534 1.17158e-19)
(-0.0779569 0.586018 -2.90498e-19)
(-0.0350976 0.717747 1.04793e-19)
(0.0693359 0.698415 -5.73059e-20)
(0.0978683 0.615635 5.37109e-21)
(-0.0598435 0.110305 -4.46087e-20)
(-0.106645 0.320808 7.63692e-20)
(-0.080729 0.445916 2.75482e-20)
(0.00725929 0.488052 2.28434e-19)
(0.0635242 0.488102 -9.04007e-20)
(-0.0694654 0.0730656 -6.55676e-20)
(-0.138418 0.179852 -8.30795e-20)
(-0.106401 0.242847 -1.4237e-19)
(0.0508023 0.248774 5.62013e-20)
(0.203254 0.2775 -1.27495e-19)
(0.738846 -0.436593 -1.12496e-18)
(0.0687606 -1.24148 1.78978e-18)
(1.55693 0.617764 -3.34662e-19)
(0.857659 0.60778 1.0949e-19)
(1.00653 -0.150983 -2.34857e-21)
(1.61737 -0.398825 1.7872e-18)
(-0.268853 -1.22219 -8.70347e-20)
(1.57109 0.427782 -4.87159e-20)
(0.816854 0.66147 -1.24034e-19)
(1.13189 -0.159903 1.08156e-19)
(1.28075 -0.464261 7.24483e-19)
(-0.00165741 -1.20974 2.4914e-20)
(1.07734 0.3223 2.04077e-20)
(0.642737 0.670921 -1.76362e-19)
(1.2856 -0.22425 2.69072e-21)
(1.47971 -0.435 -1.8957e-19)
(1.55686 -1.24706 -4.11778e-19)
(0.646267 0.162431 4.03919e-19)
(0.769984 0.582851 3.27448e-19)
(1.53013 -0.298184 9.49597e-20)
(1.79473 -0.68757 -2.52407e-19)
(2.5832 -1.17639 -5.6296e-19)
(0.658507 0.252756 0)
(1.16588 0.489126 -2.93333e-19)
(1.77397 -0.34994 -6.54437e-20)
(2.14568 -0.716382 -6.62673e-19)
(2.38955 -1.01072 1.5878e-19)
(0.769821 0.231778 -1.5659e-20)
(1.68947 0.26801 -1.01353e-19)
(1.94302 -0.406503 3.48848e-19)
(2.60155 -0.72976 5.99147e-20)
(1.38816 -0.644938 7.84953e-19)
(0.241729 0.508431 -3.57378e-21)
(1.89848 0.0451443 -9.10553e-20)
(1.85046 -0.393139 0)
(2.33404 -0.447931 -6.04212e-19)
(1.49424 -0.238412 1.83488e-20)
(0.714148 0.175705 4.15142e-19)
(2.17757 -0.340181 1.07926e-21)
(1.64132 -0.396206 1.81676e-20)
(2.01111 -0.362079 3.84541e-20)
(1.12053 -0.0831953 3.02912e-20)
(1.40236 0.111283 -5.08577e-21)
(1.81931 -0.28714 6.74795e-34)
(0.914677 -0.207443 -2.9493e-20)
(1.03267 -0.0449787 1.18921e-19)
(0.539271 0.0153847 -2.51602e-20)
(0.924329 -0.107854 -8.28594e-20)
(0.437465 -0.0999505 6.27189e-20)
(-0.151833 -0.00962907 -2.65531e-20)
(2.4744 0.214223 -9.8806e-19)
(2.72004 -0.0303219 -1.31224e-18)
(2.54159 0.0165839 1.05746e-18)
(2.83989 -0.246085 4.30541e-20)
(2.28146 -0.0459483 -3.36787e-20)
(2.14727 0.148713 5.27344e-20)
(2.44281 -0.0903077 -4.33039e-20)
(2.29509 -0.0121938 -1.50084e-19)
(2.54062 -0.259231 -2.38823e-19)
(2.39002 -0.239204 -8.38283e-21)
(2.11437 0.0368543 7.04348e-20)
(2.23545 -0.0619505 1.15247e-19)
(2.19907 -0.0877401 -1.72357e-19)
(2.27452 -0.176699 5.57611e-20)
(2.26582 -0.235899 4.71327e-20)
(2.06462 -0.0114495 1.12327e-19)
(2.04664 -0.0644851 1.06371e-19)
(2.10845 -0.0758473 -1.69357e-20)
(2.0692 -0.136441 2.20641e-20)
(2.12619 -0.151497 2.02234e-20)
(1.49098 -0.0250375 1.58228e-19)
(1.39692 -0.0219253 -1.25428e-20)
(1.4658 -0.0415663 2.58734e-20)
(1.33474 -0.0318989 -4.81453e-21)
(1.41713 -0.0653091 4.50296e-20)
(1.609 0.836425 1.19046e-18)
(1.56039 0.940479 -3.89773e-19)
(1.56574 1.0805 -1.44123e-18)
(1.49895 1.13405 7.79428e-19)
(0.920408 0.820515 -1.80073e-19)
(1.91238 0.815798 -6.1446e-19)
(1.87519 0.891498 -3.2048e-18)
(1.87726 0.997264 -1.23309e-18)
(1.79378 1.01499 -4.37117e-19)
(1.10308 0.723443 -7.1852e-19)
(2.21689 0.661814 8.19413e-19)
(2.20074 0.739678 2.12738e-19)
(2.18143 0.838633 -2.42242e-18)
(2.05275 0.831063 -7.01799e-19)
(1.22993 0.567839 5.33589e-19)
(2.41792 0.553586 2.4679e-18)
(2.39351 0.602872 1.82445e-18)
(2.38792 0.659842 -2.14027e-18)
(2.19076 0.625908 -1.64575e-18)
(1.22672 0.381137 -3.16733e-19)
(2.54495 0.373479 1.27977e-18)
(2.57638 0.404171 -9.19338e-19)
(2.49525 0.438313 6.46669e-19)
(2.1734 0.394225 5.41333e-19)
(1.06141 0.176785 -4.77482e-19)
(0.572886 0.507571 -6.08164e-19)
(0.480811 0.544411 -4.45078e-19)
(0.362305 0.579973 4.45947e-20)
(0.2265 0.58291 4.87338e-21)
(0.0562956 0.419007 9.32607e-20)
(0.687651 0.671877 1.28069e-19)
(0.626175 0.732748 -2.80959e-19)
(0.53953 0.80159 1.90559e-19)
(0.413523 0.859951 -8.90698e-20)
(0.18179 0.653611 1.25841e-19)
(0.778002 0.868251 8.66538e-20)
(0.70416 0.952889 5.05266e-19)
(0.652726 1.05321 1.34695e-19)
(0.573231 1.0907 -3.29706e-19)
(0.316275 0.800793 2.80032e-19)
(1.0753 0.930133 2.5208e-19)
(1.02591 1.01152 -7.74736e-19)
(0.975074 1.11155 -2.05441e-18)
(0.894653 1.18103 8.18127e-19)
(0.527878 0.876739 -1.65416e-19)
(1.13492 0.983111 -1.03471e-19)
(1.1773 1.10581 -1.82434e-19)
(1.20458 1.21769 -3.9749e-19)
(1.15253 1.23603 -4.46159e-19)
(0.70912 0.883766 -7.0226e-21)
(1.02335 0.0440564 -1.04046e-19)
(0.994791 0.054178 -3.4624e-20)
(1.02953 0.134317 -1.42568e-21)
(0.946154 0.157545 -2.8255e-19)
(0.899731 0.316994 3.1773e-19)
(1.01514 0.0395945 6.60055e-20)
(1.00728 0.0546875 1.2488e-19)
(1.01489 0.142596 1.41201e-19)
(0.990043 0.184384 4.08552e-20)
(0.936871 0.392857 -2.39839e-20)
(1.025 0.037546 9.01848e-20)
(0.984241 0.0491434 -4.72487e-21)
(1.06331 0.162647 -6.71876e-21)
(0.938005 0.178171 1.54572e-19)
(1.17432 0.544819 -5.12911e-19)
(1.02332 0.0364273 -2.60091e-22)
(0.99133 0.0444598 -1.72278e-19)
(1.05793 0.176976 -7.15672e-20)
(1.05324 0.179794 -3.90212e-19)
(1.16126 0.592461 9.75215e-20)
(1.02353 0.0316072 -1.55303e-20)
(0.97798 0.0456035 4.6844e-20)
(1.1209 0.172886 3.34781e-20)
(1.01229 0.209583 4.81723e-19)
(1.42938 0.726377 -4.90513e-19)
(0.993139 0.0369561 -1.31446e-20)
(1.01918 0.0206803 9.73537e-20)
(1.11024 0.200608 -7.96955e-20)
(1.27148 0.118877 9.69196e-19)
(1.30468 0.775046 -3.72565e-19)
(0.938969 0.0157324 -1.25166e-21)
(1.08296 0.0163869 -9.10382e-20)
(1.08822 0.101888 5.52125e-21)
(1.43745 0.135854 -2.78815e-19)
(1.21295 0.540183 -6.76808e-20)
(0.958032 0.024038 -1.87777e-21)
(1.09444 -0.0126183 1.56837e-35)
(1.18548 0.0453064 -4.87992e-20)
(1.30949 0.123449 8.54185e-20)
(1.35381 0.395691 1.89524e-19)
(1.03731 -0.0202561 3.76457e-21)
(1.07116 -0.0510705 -2.72252e-20)
(1.17226 0.00650197 1.96258e-20)
(1.08568 0.0946273 2.28134e-20)
(1.60256 0.249499 -2.84067e-19)
(0.970573 -0.0231217 -3.94159e-20)
(0.857764 -0.0266614 -9.67736e-22)
(0.829537 0.00834547 2.91927e-20)
(0.824603 0.0146205 -1.67636e-20)
(1.24876 0.0504519 -6.60262e-20)
(1.87062 0.600656 2.96902e-19)
(1.9352 0.650121 7.72404e-19)
(2.23563 0.481462 -1.12774e-18)
(2.27184 0.472926 2.21121e-20)
(2.52938 0.241007 5.07326e-19)
(1.72769 0.34744 9.04513e-20)
(1.74391 0.40109 1.04331e-18)
(2.00841 0.25961 1.26877e-19)
(1.97088 0.294345 -9.38181e-19)
(2.26319 0.0853984 -2.92189e-19)
(1.73028 0.272249 -2.39147e-19)
(1.81965 0.247469 -1.56486e-19)
(1.96353 0.175977 2.10615e-19)
(1.99187 0.149364 -2.95979e-19)
(2.13653 0.0540045 2.6745e-19)
(1.75566 0.14091 4.13925e-19)
(1.87519 0.113248 -3.36951e-21)
(1.89939 0.0701163 2.30094e-19)
(1.98949 0.0504939 1.89419e-19)
(1.99081 0.00126409 -1.8007e-19)
(1.38589 0.0244252 -5.00908e-20)
(1.46348 0.0115547 2.59157e-19)
(1.44488 0.00460924 1.10795e-19)
(1.49307 -0.00747953 -2.15699e-19)
(1.43221 -0.0113989 5.12768e-22)
(1.0703 -0.0165291 5.51477e-20)
(2.05315 -0.0446427 -3.84664e-19)
(2.28849 -0.03368 1.08341e-18)
(2.27484 0.00438839 4.84484e-19)
(2.11654 0.0312849 -3.34885e-19)
(0.666837 0.0913903 1.01261e-19)
(1.83344 0.0835819 -4.00162e-19)
(2.2942 0.0866314 -5.3833e-19)
(2.35195 0.0951601 6.62848e-19)
(2.10673 0.08309 -4.22836e-19)
(0.210056 0.0742867 -1.91523e-20)
(1.22469 0.14194 4.22284e-19)
(1.95254 0.163463 5.89132e-20)
(2.33837 0.155203 4.03983e-19)
(2.49135 0.151232 1.91023e-19)
(-0.0298319 -0.0180005 1.74555e-19)
(0.445313 0.0766248 1.75864e-19)
(1.20143 0.146643 -3.89265e-19)
(1.68463 0.181364 2.28731e-20)
(2.26355 0.209817 6.00801e-20)
(-0.0882935 -0.0717274 1.12172e-19)
(0.00403606 -0.045765 -1.32528e-19)
(0.415343 0.027296 -3.07277e-20)
(0.869113 0.056334 1.14362e-20)
(1.2698 0.118405 -3.28465e-20)
(-0.0692763 -0.0723411 4.11861e-23)
(-0.114354 -0.109233 6.69125e-20)
(-0.0179349 -0.108009 6.15115e-20)
(0.168018 -0.0766521 -1.20778e-19)
(0.519252 -0.0201968 -1.34813e-21)
(-0.042363 -0.0679735 -5.78998e-21)
(-0.0953591 -0.143589 -1.33854e-20)
(-0.100972 -0.190822 -8.65276e-21)
(-0.0622202 -0.200251 4.55728e-20)
(0.0683488 -0.14622 3.81712e-20)
(-0.0296799 -0.0624948 -5.62933e-21)
(-0.0811939 -0.14792 -3.03655e-19)
(-0.122385 -0.210302 3.26074e-19)
(-0.160892 -0.235141 8.89389e-19)
(-0.157463 -0.218669 -1.1557e-19)
(-0.0313807 -0.0216515 -4.59486e-21)
(-0.176404 -0.0388359 7.82101e-21)
(-0.329203 0.00994582 5.53343e-21)
(-0.492493 0.102997 -9.96749e-20)
(-0.614486 0.151917 -1.39265e-19)
(-0.0493453 0.389392 -4.74858e-20)
(-0.335085 0.574093 2.30376e-19)
(-0.623073 0.692175 -1.25324e-19)
(-0.867615 0.704997 2.25562e-19)
(-0.960451 0.609408 1.16891e-18)
(1.30918 0.615864 5.97991e-21)
(1.28254 0.0708835 1.31087e-18)
(1.25641 0.299499 1.62819e-19)
(0.164554 0.0826343 1.19333e-19)
(0.360783 -0.206914 -1.76192e-20)
(1.088 0.501563 1.45512e-19)
(1.16933 0.0189891 -7.6728e-19)
(1.52603 0.445543 7.47038e-19)
(0.518265 0.175308 8.19103e-21)
(0.472806 -0.205621 6.08589e-20)
(0.298341 0.278244 5.4296e-19)
(0.906834 -0.118952 4.18782e-19)
(1.7103 0.544949 -1.01497e-19)
(0.734487 0.306564 1.26565e-19)
(0.617824 -0.192657 -5.74601e-21)
(-0.910403 0.200592 2.62727e-19)
(0.902915 -0.442189 -5.94568e-18)
(1.7792 0.622876 -3.32534e-19)
(0.856898 0.419815 3.88701e-22)
(0.764323 -0.171003 -3.68214e-21)
(-0.866869 -0.197894 2.60489e-19)
(0.64017 -1.03183 -1.19176e-18)
(1.7546 0.599578 1.95447e-19)
(0.916808 0.534422 -9.77324e-21)
(0.895718 -0.148551 4.16204e-21)
(0.181158 0.172559 -1.0348e-19)
(-0.252887 -0.139243 0)
(-0.0273163 -0.0889586 3.17837e-20)
(-0.244861 -0.0500905 1.80962e-20)
(0.289895 -0.030104 -4.92199e-21)
(1.64436 0.528792 0)
(1.16209 0.185818 0)
(0.927057 0.0957586 -6.7339e-20)
(-0.139361 -0.0401307 -2.87787e-20)
(0.42653 -0.144412 6.80667e-20)
(0.673755 0.000633982 -1.14004e-19)
(0.694202 -0.00496206 1.45112e-19)
(0.932657 -0.00408664 -4.96811e-20)
(0.908282 0.00883356 2.85297e-19)
(1.33003 0.0758166 2.05159e-19)
(1.5329 0.0233731 1.07312e-19)
(1.64905 0.0642649 2.16818e-19)
(1.8504 0.0352704 -3.31738e-19)
(2.36957 0.183757 -1.26666e-20)
(2.12373 0.102608 1.50572e-19)
(0.858508 -0.440951 -3.49578e-20)
(0.842022 -0.52407 -1.36506e-19)
(0.828487 -0.614192 -8.92136e-20)
(0.755284 -0.675257 5.54442e-20)
(0.453666 -0.523247 1.13237e-19)
(0.760286 -0.342789 1.28555e-19)
(0.705253 -0.403356 2.75475e-19)
(0.632488 -0.469024 -2.33137e-20)
(0.521039 -0.52308 1.22034e-19)
(0.279087 -0.412524 4.96984e-20)
(0.623394 -0.200744 -1.63347e-19)
(0.535998 -0.235507 -4.47927e-20)
(0.433987 -0.278933 1.46172e-19)
(0.315154 -0.317935 -4.66605e-21)
(0.134564 -0.254717 -1.02267e-19)
(0.53422 0.0313856 -4.34063e-19)
(0.447843 0.0201928 -3.60547e-19)
(0.337531 0.000754074 2.8133e-19)
(0.210772 -0.0280312 1.82783e-19)
(0.0522953 -0.0439178 1.36308e-20)
(0.513723 0.238978 -1.75624e-19)
(0.427256 0.245543 -1.73083e-19)
(0.311527 0.252404 -8.01106e-20)
(0.176784 0.260639 1.15292e-20)
(0.0233521 0.192318 1.05751e-20)
(1.88639 -0.0404741 7.10018e-19)
(2.14072 -0.10172 2.43271e-19)
(2.21029 -0.179266 -6.45305e-19)
(2.0567 -0.20559 -1.29531e-18)
(1.21761 -0.169997 1.06749e-19)
(1.86655 -0.117084 1.18394e-18)
(1.95506 -0.221089 1.56937e-18)
(1.97216 -0.334843 1.30184e-19)
(1.88622 -0.389189 2.27507e-19)
(1.19042 -0.327927 -1.49528e-19)
(1.59991 -0.269349 -3.07425e-18)
(1.6638 -0.379781 3.50839e-19)
(1.70575 -0.495388 9.60543e-19)
(1.63795 -0.561502 -3.57184e-19)
(1.04895 -0.461808 5.58907e-19)
(1.40178 -0.383605 7.28031e-19)
(1.41951 -0.475529 -1.92223e-18)
(1.40584 -0.584706 -2.20368e-18)
(1.33399 -0.66121 6.64197e-19)
(0.850607 -0.531773 4.52953e-19)
(1.13613 -0.436182 1.45732e-19)
(1.09524 -0.523474 2.14979e-19)
(1.08356 -0.635283 -3.28698e-19)
(1.02445 -0.710573 -3.9566e-19)
(0.641975 -0.554599 -3.65314e-21)
(1.0755 0.0555632 7.88457e-21)
(0.919792 0.0638438 -5.48663e-21)
(1.10897 0.0840188 -5.22757e-21)
(0.792285 0.0215377 -1.88619e-19)
(1.04309 -0.182705 -8.07056e-21)
(1.08464 0.0579866 -2.59734e-21)
(0.918902 0.063201 5.12845e-20)
(1.10786 0.101869 -5.08335e-20)
(0.880147 0.0688557 1.0597e-19)
(0.946884 -0.067173 -2.17382e-20)
(1.08236 0.0540031 -6.38632e-20)
(0.923515 0.0614283 4.09369e-22)
(1.09635 0.103749 -2.30388e-20)
(0.882423 0.0954455 2.04685e-20)
(0.928057 -0.00636385 -1.55162e-19)
(1.06223 0.0515529 7.81726e-20)
(0.952968 0.0583362 3.52399e-21)
(1.061 0.111555 3.66477e-20)
(0.92084 0.119963 2.34414e-20)
(0.850702 0.105616 1.14103e-19)
(1.0366 0.0469641 1.98781e-20)
(0.985125 0.0584102 -2.99221e-20)
(1.02922 0.11803 5.01372e-20)
(0.950919 0.147076 7.67365e-20)
(0.83408 0.206819 -1.2881e-19)
(0.892584 0.0340778 0)
(0.70152 0.0286256 1.06047e-20)
(0.588316 0.0234911 3.30952e-21)
(0.321152 -0.00508448 3.8293e-20)
(0.61204 -0.0485585 -1.08577e-19)
(1.04189 0.0756521 -6.66742e-20)
(0.929688 0.0772207 -2.03873e-20)
(1.00796 0.0833326 -2.8656e-20)
(0.781504 0.0112192 -9.98299e-20)
(0.96807 -0.169834 -1.17596e-19)
(0.843217 -0.0613382 -2.63994e-20)
(0.923748 -0.0289951 4.35302e-19)
(1.00269 0.0350627 2.68459e-19)
(0.885019 0.0475247 2.62451e-20)
(0.68814 0.0244711 0)
(1.20225 -0.293791 2.51471e-19)
(1.30823 -0.259906 1.25785e-18)
(1.46777 -0.14654 -1.40973e-18)
(1.55379 -0.0216078 -4.34423e-19)
(1.4547 0.0222071 3.29021e-19)
)
;

boundaryField
{
    left
    {
        type            fixedValue;
        value           uniform (1 0 0);
    }
    right
    {
        type            zeroGradient;
    }
    down
    {
        type            noSlip;
    }
    up
    {
        type            noSlip;
    }
    cylinder
    {
        type            noSlip;
    }
    defaultFaces
    {
        type            empty;
    }
}


// ************************************************************************* //
