# Forces      
# CofR        : (0.000000e+00 0.000000e+00 0.000000e+00)
# Time        forces(pressure viscous)	moments(pressure viscous)
5.615         	((9.117901e+00 -6.410184e-01 3.972985e-19) (1.241009e+00 2.546739e-02 9.790097e-19)) ((-4.124993e-20 -2.948780e-19 -5.830867e-07) (4.067231e-18 7.971215e-20 -5.950591e-02))
5.62          	((9.091874e+00 -6.226237e-01 3.974733e-19) (1.241176e+00 2.512707e-02 9.781734e-19)) ((-4.067446e-20 -2.949407e-19 -5.741292e-07) (4.068558e-18 8.136235e-20 -5.967103e-02))
5.625         	((9.097441e+00 -6.246582e-01 3.970116e-19) (1.241346e+00 2.478553e-02 9.773793e-19)) ((-4.107714e-20 -2.943952e-19 -5.759251e-07) (4.069724e-18 8.300071e-20 -5.983583e-02))
5.63          	((9.103670e+00 -6.269485e-01 3.965168e-19) (1.241520e+00 2.444243e-02 9.765499e-19)) ((-4.148724e-20 -2.939039e-19 -5.779530e-07) (4.070861e-18 8.464709e-20 -6.000032e-02))
5.635         	((9.108777e+00 -6.283786e-01 3.960973e-19) (1.241698e+00 2.409882e-02 9.756959e-19)) ((-4.183753e-20 -2.934707e-19 -5.796606e-07) (4.071987e-18 8.631015e-20 -6.016450e-02))
5.64          	((9.112954e+00 -6.292272e-01 3.957303e-19) (1.241877e+00 2.375540e-02 9.748187e-19)) ((-4.214153e-20 -2.930808e-19 -5.810968e-07) (4.073101e-18 8.799090e-20 -6.032838e-02))
5.645         	((9.116477e+00 -6.295724e-01 3.954117e-19) (1.242058e+00 2.341277e-02 9.739196e-19)) ((-4.240643e-20 -2.927279e-19 -5.823218e-07) (4.074203e-18 8.968961e-20 -6.049197e-02))
5.65          	((9.119519e+00 -6.295386e-01 3.951373e-19) (1.242239e+00 2.307136e-02 9.729993e-19)) ((-4.263811e-20 -2.924088e-19 -5.833916e-07) (4.075294e-18 9.140604e-20 -6.065528e-02))
5.655         	((9.122164e+00 -6.292613e-01 3.949061e-19) (1.242420e+00 2.273145e-02 9.720582e-19)) ((-4.283943e-20 -2.921224e-19 -5.843528e-07) (4.076373e-18 9.314005e-20 -6.081830e-02))
5.66          	((9.124676e+00 -6.286483e-01 3.947221e-19) (1.242601e+00 2.239340e-02 9.710968e-19)) ((-4.301323e-20 -2.918776e-19 -5.852346e-07) (4.077440e-18 9.489208e-20 -6.098104e-02))
5.665         	((9.126949e+00 -6.279445e-01 3.945960e-19) (1.242782e+00 2.205731e-02 9.701142e-19)) ((-4.315425e-20 -2.916784e-19 -5.860837e-07) (4.078494e-18 9.666241e-20 -6.114351e-02))
5.67          	((9.129131e+00 -6.271487e-01 3.945512e-19) (1.242962e+00 2.172324e-02 9.691090e-19)) ((-4.325479e-20 -2.915472e-19 -5.869416e-07) (4.079535e-18 9.845224e-20 -6.130571e-02))
5.675         	((9.131339e+00 -6.263399e-01 3.946379e-19) (1.243142e+00 2.139119e-02 9.680789e-19)) ((-4.329466e-20 -2.915272e-19 -5.878781e-07) (4.080563e-18 1.002635e-19 -6.146764e-02))
5.68          	((9.133789e+00 -6.256630e-01 3.949800e-19) (1.243321e+00 2.106094e-02 9.670194e-19)) ((-4.322200e-20 -2.917243e-19 -5.890394e-07) (4.081574e-18 1.020999e-19 -6.162931e-02))
5.685         	((9.137126e+00 -6.255221e-01 3.959899e-19) (1.243501e+00 2.073184e-02 9.659206e-19)) ((-4.286146e-20 -2.924889e-19 -5.908720e-07) (4.082567e-18 1.039696e-19 -6.179071e-02))
5.69          	((9.145714e+00 -6.285018e-01 4.006422e-19) (1.243689e+00 2.040010e-02 9.647471e-19)) ((-4.093010e-20 -2.963421e-19 -5.962899e-07) (4.083537e-18 1.059005e-19 -6.195183e-02))
5.695         	((9.136142e+00 -6.218452e-01 3.924612e-19) (1.243863e+00 2.007735e-02 9.635956e-19)) ((-4.460143e-20 -2.893612e-19 -5.900537e-07) (4.084480e-18 1.078253e-19 -6.211271e-02))
5.7           	((9.130881e+00 -6.150874e-01 3.889516e-19) (1.244027e+00 1.976438e-02 9.626187e-19)) ((-4.601486e-20 -2.862253e-19 -5.855788e-07) (4.085537e-18 1.096202e-19 -6.227335e-02))
5.705         	((9.129962e+00 -6.100386e-01 3.888373e-19) (1.244189e+00 1.945941e-02 9.618261e-19)) ((-4.590794e-20 -2.859354e-19 -5.840206e-07) (4.086717e-18 1.112772e-19 -6.243376e-02))
5.71          	((9.130486e+00 -6.078485e-01 3.883263e-19) (1.244348e+00 1.915841e-02 9.610888e-19)) ((-4.619331e-20 -2.854080e-19 -5.842953e-07) (4.087913e-18 1.128897e-19 -6.259396e-02))
5.715         	((9.131043e+00 -6.057105e-01 3.878237e-19) (1.244506e+00 1.886105e-02 9.603537e-19)) ((-4.648251e-20 -2.848919e-19 -5.845742e-07) (4.089104e-18 1.145005e-19 -6.275393e-02))
