/*--------------------------------*- C++ -*----------------------------------*\
  =========                 |
  \\      /  F ield         | OpenFOAM: The Open Source CFD Toolbox
   \\    /   O peration     | Website:  https://openfoam.org
    \\  /    A nd           | Version:  13
     \\/     M anipulation  |
\*---------------------------------------------------------------------------*/
FoamFile
{
    format      ascii;
    class       surfaceScalarField;
    location    "8.415";
    object      phi;
}
// * * * * * * * * * * * * * * * * * * * * * * * * * * * * * * * * * * * * * //

dimensions      [0 3 -1 0 0 0 0];

internalField   nonuniform List<scalar> 
823
(
0.00105427
0.0139785
-0.0150328
0.0265811
0.00254795
-0.0280748
0.0963565
-0.046992
-0.0227834
0.201363
-0.116609
0.011603
-0.153926
0.00833877
0.34695
0.00647125
0.00750727
0.061591
-0.0525718
0.165073
-0.150474
0.283044
-0.23458
-0.307521
0.436638
0.0265018
-0.0189945
0.12125
-0.14732
0.238409
-0.267634
0.347334
-0.343504
-0.384754
0.424567
0.0498623
-0.0688569
0.149802
-0.247259
0.230691
-0.348524
0.275823
-0.388636
-0.399181
0.29025
0.0615546
-0.130411
0.130636
-0.316341
0.167379
-0.385266
0.181494
-0.402751
0.191539
-0.409227
-0.0187781
0.0761373
-0.0573592
-0.0546585
0.112902
-0.0770221
-0.0924227
0.113358
-0.0755939
-0.127846
0.104133
-0.0687092
0.0917142
-0.161286
-0.0582741
0.0120162
0.0641211
0.0140814
0.110837
0.00991291
0.117527
0.00576896
0.108277
0.0916665
0.00581673
0.0261748
0.0379463
0.0566865
0.0803256
0.0821452
0.0920681
0.104365
0.0860573
0.0735567
0.122474
0.0205244
0.0174219
0.0559622
0.0448877
0.0928631
0.0551671
0.131636
0.0472849
0.0433932
0.161799
0.00238913
0.0192021
0.0515858
0.110474
0.162206
-0.232767
0.0175765
0.0539038
0.0961816
-1.57634
1.24739
0.326417
-0.453455
0.22322
0.206952
1.02915
-0.909685
0.266408
-0.329298
0.0405711
-0.0171778
0.207962
-1.74373
0.249406
-0.494899
0.19108
1.08748
0.134014
0.349267
-0.24397
0.447032
-1.8415
0.284841
-0.332708
0.244317
1.128
-0.0333594
0.443767
-0.525939
0.50621
-1.90394
0.286672
-0.11317
0.304645
1.11003
-0.248043
0.408392
-0.772125
0.330309
-1.82586
0.153054
0.0640849
0.401204
0.861877
-0.483547
1.30791
-0.832081
-1.24796
0.860614
-1.37856
0.537573
0.387126
1.0082
0.391252
-0.65087
1.36797
-0.746293
-1.45376
0.785742
-0.796327
0.766536
0.406333
1.26012
-0.102327
-0.642654
1.23723
-0.591177
-1.39234
0.788699
-0.347799
0.960736
0.234296
1.2531
-0.394691
-0.484379
1.04403
-0.313451
-1.32175
0.792786
-0.096559
1.0162
0.0108799
0.939882
-0.318372
-0.208789
0.540743
-0.854194
0.444184
0.455063
0.136691
1.1306
0.160936
-1.09999
1.21851
0.202336
1.31627
0.326806
1.36607
0.386843
0.465059
1.03411
0.101296
-0.974475
1.1118
0.124646
1.21389
0.224725
1.3286
0.272129
0.339899
0.986523
0.0476111
-0.932838
1.04056
0.0706103
1.13602
0.129262
1.25211
0.156041
0.199667
0.947716
0.00855822
-0.908663
0.997574
0.0207528
1.08454
0.0422973
1.1894
0.0511832
0.0673109
0.67265
-0.664092
0.693403
0.7357
0.786883
0.140196
0.308057
-0.252182
-0.196071
0.0934872
0.313177
-0.266468
0.052409
0.323972
-0.282894
0.0181174
0.315126
-0.280835
0.203308
-0.185191
0.10128
0.344589
-0.137812
0.065178
0.349279
0.0333079
0.355842
0.00807547
0.340359
0.211384
0.0722171
0.381108
-0.108735
0.0390984
0.382398
0.0108841
0.384056
-0.00506088
0.356304
0.206323
-0.00932055
0.396898
-0.00646983
-0.026148
0.399225
-0.0344432
0.392352
-0.0269087
0.348769
0.179414
-0.0849911
0.0726625
-0.0885165
-0.081431
-0.0490027
0.194806
0.112993
-0.248167
-0.0596312
0.141161
0.117567
-0.0639221
0.0871138
0.122444
-0.0683972
0.0352021
0.122162
-0.0702505
0.0865795
-0.0513773
0.196225
0.156092
-0.239324
0.149732
0.16406
0.0973451
0.174831
0.0413967
0.178111
0.127976
0.133488
0.200993
-0.17839
0.0931634
0.204385
0.0550533
0.212941
0.0196246
0.213539
0.147601
0.156111
0.233095
-0.188212
0.116436
0.24406
0.0716609
0.257717
0.0280359
0.257164
0.175637
0.0808107
-0.0998984
0.0584019
0.0332247
0.00955421
0.405542
0.0736951
-0.083257
0.421796
0.0431495
-0.0594042
0.408184
0.202928
-0.189316
0.396053
0.221584
-0.209453
0.516935
-0.369049
0.40271
0.0669643
0.415158
0.0307023
0.399688
0.218398
0.386185
0.235087
0.663796
0.396422
0.0665214
0.409684
0.0174407
0.379396
0.248686
0.374774
0.239708
0.86018
0.393251
0.06925
0.395775
0.0149171
0.371779
0.272681
0.355773
0.255715
1.02774
0.385495
0.0797346
0.387023
0.0133893
0.344084
0.315619
0.325661
0.274138
1.2535
0.622801
0.0609536
0.655451
-0.01926
0.707987
0.263083
0.803978
0.178147
1.04253
1.01495
0.637927
0.0270468
0.65828
-0.0396124
0.75002
0.171342
0.780506
0.147661
0.804745
1.01829
0.646252
-0.0151843
0.665907
-0.0592676
0.739366
0.0978831
0.761228
0.125799
0.550554
1.01542
0.642563
-0.0537269
0.64194
-0.0586447
0.699697
0.0401258
0.766033
0.0594629
0.26122
1.05537
0.550294
0.491649
0.531775
0.591238
0.852458
1.0542
-0.235317
1.04176
-0.125377
1.05294
-0.11991
1.04683
-0.000361042
0.0194961
0.970442
-0.187467
0.953517
-0.108451
0.938285
-0.104678
0.950063
-0.0121393
-0.00491571
0.951411
-0.123458
0.935461
-0.0925011
0.90938
-0.0785973
0.925581
-0.0283404
-0.012172
0.989098
-0.05719
0.946794
-0.0501966
0.91062
-0.0424239
0.907242
-0.0249625
-0.0135932
0.795268
0.745071
0.702647
0.677685
0.0477055
0.135584
-0.18329
0.0733564
0.305574
-0.331225
0.0748136
0.36154
-0.362997
0.0645501
0.366398
-0.356134
0.335147
0.0527251
-0.323322
0.0679419
0.0676423
0.14122
0.232296
0.177814
0.324946
0.183034
0.361178
0.358253
0.159927
0.0551439
0.0124984
0.167508
0.119932
0.26401
0.228444
0.334477
0.290711
0.346652
0.346078
0.0253434
-0.012845
0.118844
0.0264309
0.240437
0.106852
0.360639
0.170509
0.23517
0.47212
0.00445767
-0.0173027
0.0475036
-0.016615
0.140712
0.0136438
0.257949
0.053271
0.0923787
0.400741
-0.00641905
-0.0108836
-0.00093535
-0.0220987
0.0359669
-0.0232584
0.103445
-0.0142066
0.00677936
0.189044
-0.00442104
-0.00646256
-0.0057999
-0.0207199
0.00317025
-0.0322286
0.0267084
-0.0377448
-0.0349161
0.0684039
-0.00491657
-0.001546
-0.0106067
-0.0150298
-0.0179847
-0.0248505
-0.0263044
-0.0294251
-0.0314837
-0.0297368
-0.0213866
0.0198406
-0.0561832
0.0197669
-0.097744
0.0167102
-0.141425
0.0142558
0.00902539
-0.181934
-0.0375186
-0.0947738
-0.153658
-0.208111
-0.25736
0.409852
0.389868
-0.610676
0.544431
0.202738
-0.337316
0.50917
0.201891
-0.166631
0.356569
0.230689
-0.0780884
0.0773289
0.00690926
0.319657
0.138615
0.530445
-0.00805094
0.543589
0.188747
0.366981
0.407298
0.180071
0.0861912
0.022687
0.436207
-0.358067
0.516449
0.108505
0.337377
0.58637
0.271993
-0.118613
-0.0406334
0.331769
-0.808449
0.459919
-0.0196459
0.290102
0.756187
0.32719
-0.244089
0.194854
0.398428
0.244931
0.166621
0.456324
-0.622945
-0.0249701
0.191591
-0.0175037
-0.00746642
0.0656702
-0.0831739
-0.0671431
0.87327
-1.02762
0.727545
0.553448
0.392185
0.0836182
-0.0153944
-0.0682238
0.134664
-0.0510456
0.246892
-0.112228
0.418092
-0.1712
-0.204853
0.188082
-0.150751
0.296964
0.530814
0.831734
0.138732
-0.129657
0.15977
-0.168845
0.105451
-0.134237
0.167518
0.0676196
-0.140378
0.178209
0.0273007
-0.139311
0.17963
-0.0965404
0.123841
0.17595
-0.0906736
-0.214933
0.13266
-0.0909476
0.0842027
-0.0919203
0.0346361
-0.0897442
-0.0619043
0.186244
-0.0420109
-0.234907
0.136085
-0.0407885
0.0845236
-0.0403588
0.0342731
-0.0394936
-0.0276312
0.198716
0.0091294
-0.249856
0.146935
0.010992
0.0936468
0.0129293
0.0393889
0.0147644
0.0117576
0.203504
-0.254006
0.150574
0.0951058
0.0396197
0.0351764
-0.303266
-0.0552321
0.0123424
-0.333301
-0.00861638
-0.342038
-0.0161777
-0.323664
-0.199467
0.115532
-0.274111
-0.144687
0.0741839
-0.291952
0.0350627
-0.302917
0.0062584
-0.29486
-0.193209
0.132476
-0.236544
-0.170043
0.0934171
-0.252894
0.0542842
-0.263784
0.0188559
-0.259431
-0.174353
0.152359
-0.203553
-0.18535
0.111164
-0.211699
0.0671523
-0.219772
0.026018
-0.218297
-0.148335
0.148905
-0.192688
0.104724
0.0631613
0.0244939
0.386405
0.110879
-0.101304
0.386134
0.0990884
-0.0988166
0.353241
0.163624
-0.130732
0.295681
0.0798208
-0.0222605
-0.173149
0.299985
0.394938
0.11192
0.400246
0.0937802
0.391056
0.172814
0.343729
0.127148
-0.0443538
0.401455
0.106444
0.410896
0.08434
0.40552
0.17819
0.369359
0.163309
0.0900983
0.406761
0.0956624
0.418321
0.0727806
0.413999
0.182511
0.388062
0.189247
0.228304
0.408385
0.421761
0.414957
0.39475
0.413671
0.0963796
0.327418
0.0862536
0.235004
0.0924137
0.230265
0.00473889
-0.165266
0.395532
0.505126
0.492563
0.454245
0.436724
0.571443
0.317156
0.0783753
0.246858
0.070298
0.164238
0.0826206
0.0952786
0.0689592
0.0270548
0.45713
0.342078
0.254656
0.178929
)
;

boundaryField
{
    left
    {
        type            calculated;
        value           nonuniform List<scalar> 
17
(
-0.60402
-0.60402
-0.60402
-0.60402
-0.60402
-0.39598
-0.39598
-0.39598
-0.39598
-0.39598
-0.39598
-0.39598
-0.39598
-0.39598
-0.39598
-0.510051
-0.510051
)
;
    }
    right
    {
        type            calculated;
        value           nonuniform List<scalar> 
17
(
0.132813
0.331952
0.272331
0.264239
0.245455
0.234905
0.242823
0.269842
0.323473
0.41169
0.519329
0.636709
1.17552
1.2519
1.09483
0.664292
-0.0720974
)
;
    }
    down
    {
        type            calculated;
        value           uniform 0;
    }
    up
    {
        type            calculated;
        value           uniform 0;
    }
    cylinder
    {
        type            calculated;
        value           uniform 0;
    }
    defaultFaces
    {
        type            empty;
    }
}


// ************************************************************************* //
