# Selection   : all
# Cells       : 440
# Volume      : 7.374263e+01
# Time        	maxMag(U)
2.6           	2.734622e+00
2.65          	2.747015e+00
2.7           	2.758734e+00
