/*--------------------------------*- C++ -*----------------------------------*\
  =========                 |
  \\      /  F ield         | OpenFOAM: The Open Source CFD Toolbox
   \\    /   O peration     | Website:  https://openfoam.org
    \\  /    A nd           | Version:  13
     \\/     M anipulation  |
\*---------------------------------------------------------------------------*/
FoamFile
{
    format      ascii;
    class       surfaceScalarField;
    location    "0.235";
    object      phi;
}
// * * * * * * * * * * * * * * * * * * * * * * * * * * * * * * * * * * * * * //

dimensions      [0 3 -1 0 0 0 0];

internalField   nonuniform List<scalar> 
3485
(
0.00320888
-0.027926
0.0247171
0.0108587
-0.0870667
0.0794169
0.0205002
-0.124674
0.115032
0.0305875
-0.141157
0.13107
0.0404871
-0.145341
0.135441
0.0500281
-0.144096
0.134556
0.0591804
-0.140954
0.131801
0.0679116
-0.137337
0.128606
0.0761483
-0.133638
0.125401
-0.129721
0.121874
0.0839946
0.00340421
-0.0313302
0.0110336
-0.0946961
0.020327
-0.133967
0.029857
-0.150687
0.0391396
-0.154623
0.0481235
-0.15308
0.0568801
-0.14971
0.0655042
-0.145961
0.0741466
-0.14228
-0.138715
0.0831411
0.00357415
-0.0349043
0.0110974
-0.102219
0.0199067
-0.142777
0.0286976
-0.159478
0.0371155
-0.163041
0.0451786
-0.161143
0.0529742
-0.157506
0.0605694
-0.153556
0.0680031
-0.149714
-0.145999
0.0752869
0.00373082
-0.0386352
0.0110843
-0.109573
0.0193356
-0.151028
0.0273398
-0.167483
0.0348943
-0.170596
0.0421073
-0.168357
0.0491064
-0.164505
0.0559723
-0.160422
0.062759
-0.1565
-0.152844
0.0696037
0.00382909
-0.0424642
0.0108835
-0.116627
0.018425
-0.158569
0.0254885
-0.174546
0.03202
-0.177127
0.0382023
-0.174539
0.0441876
-0.17049
0.0500611
-0.166295
0.055877
-0.162316
-0.158663
0.061696
0.0038653
-0.0463295
0.010493
-0.123255
0.0172009
-0.165277
0.0232291
-0.180574
0.0286719
-0.18257
0.0337804
-0.179647
0.0387256
-0.175435
0.0435924
-0.171162
0.0484245
-0.167148
-0.16351
0.0532714
0.00381144
-0.050141
0.00985901
-0.129302
0.0155925
-0.171011
0.0204727
-0.185454
0.0247356
-0.186833
0.0286861
-0.183598
0.0325054
-0.179255
0.0362752
-0.174932
0.0400335
-0.170907
-0.167278
0.0438024
0.00365654
-0.0537975
0.00897362
-0.13462
0.0136083
-0.175645
0.0172551
-0.189101
0.0202794
-0.189857
0.0230227
-0.186341
0.0256659
-0.181898
0.0282825
-0.177549
0.0309018
-0.173526
-0.169903
0.0335259
0.00338851
-0.057186
0.00782762
-0.139059
0.0112514
-0.179069
0.0136016
-0.191451
0.0153457
-0.191601
0.0168456
-0.187841
0.0182761
-0.183329
0.0197005
-0.178973
0.0211405
-0.174966
-0.171345
0.0225827
0.00300996
-0.060196
0.00643809
-0.142487
0.00857165
-0.181203
0.00959278
-0.192473
0.0100356
-0.192044
0.0102781
-0.188084
0.0104764
-0.183527
0.0106845
-0.179181
0.010925
-0.175207
0.0111736
-0.171593
0.00168615
-0.00395471
0.00226857
0.00847768
-0.013878
0.00708651
0.0190455
-0.0208727
0.0103049
0.0315322
-0.0243301
0.0118434
0.044683
-0.0254804
0.0123297
0.0578614
-0.0254829
0.0123044
0.0708013
-0.0250142
0.0120743
0.0834134
-0.024393
0.011781
0.0956823
-0.0237501
0.0114812
-0.0232885
0.107763
0.0112076
0.00173973
-0.00569444
0.00857764
-0.0207159
0.0191439
-0.031439
0.0315853
-0.0367714
0.044663
-0.0385582
0.0577559
-0.0385757
0.0706072
-0.0378655
0.0831331
-0.036919
0.0953229
-0.0359399
-0.0352954
0.10733
0.00181747
-0.00751191
0.00872628
-0.0276248
0.0192963
-0.0420091
0.0316788
-0.0491539
0.0446579
-0.0515373
0.057633
-0.0515508
0.070361
-0.0505935
0.0827653
-0.0493233
0.0948411
-0.0480157
-0.0471924
0.106738
0.00192432
-0.00943623
0.008932
-0.0346324
0.0195096
-0.0525867
0.0318144
-0.0614587
0.0446629
-0.0643857
0.0574822
-0.0643702
0.0700472
-0.0631585
0.0822908
-0.0615668
0.0942158
-0.0599408
-0.0589407
0.105964
0.00206397
-0.0115002
0.00919895
-0.0417674
0.0197837
-0.0631714
0.0319858
-0.0736608
0.0446648
-0.0770648
0.0572852
-0.0769905
0.0696444
-0.0755177
0.0816875
-0.0736098
0.0934252
-0.0716786
-0.0704984
0.104983
0.00223703
-0.0137372
0.0095225
-0.0490529
0.0201049
-0.0737538
0.0321691
-0.085725
0.0446312
-0.0895269
0.0570033
-0.0893626
0.0691119
-0.0876264
0.0809164
-0.0854143
0.0924342
-0.0831963
-0.0818186
0.103754
0.00243918
-0.0161764
0.00988501
-0.0564987
0.0204391
-0.0843079
0.0323139
-0.0975998
0.0444974
-0.10171
0.0565609
-0.101426
0.0683677
-0.0994332
0.0798955
-0.0969421
0.0911637
-0.0944646
-0.0928373
0.102182
0.00265572
-0.0188321
0.0102438
-0.0640868
0.0207135
-0.0947776
0.0323191
-0.109205
0.0441354
-0.113527
0.0558038
-0.113095
0.0672304
-0.11086
0.078414
-0.108126
0.0893676
-0.105418
-0.103411
0.0999415
0.00285655
-0.0216887
0.0105223
-0.0717526
0.0208028
-0.105058
0.0320089
-0.120411
0.0433132
-0.124831
0.0544324
-0.124214
0.0653164
-0.121744
0.0759826
-0.118792
0.0864204
-0.115856
-0.113206
0.0962148
0.0030284
0.0106927
0.020667
0.0313256
0.0419356
0.0522774
0.062335
0.0721486
0.0816935
0.0903625
0.156773
-0.139174
0.0901642
0.18205
-0.100333
0.0750566
0.194687
-0.0746624
0.0620247
0.200751
-0.0562688
0.0502049
0.203372
-0.0422989
0.0396784
0.204071
-0.0312622
0.0305624
0.203649
-0.0223742
0.0227965
0.202537
-0.0150516
0.0161639
0.200986
-0.00911878
0.0106692
-0.00226004
0.0042088
0.155762
-0.187606
0.18108
-0.125651
0.19396
-0.0875421
0.200268
-0.0625768
0.203086
-0.0451173
0.203947
-0.0321233
0.203663
-0.0220898
0.202676
-0.0140653
0.201247
-0.00768942
-0.000435328
0.154014
-0.234882
0.17924
-0.150877
0.192393
-0.100695
0.199038
-0.0692226
0.202168
-0.048247
0.203313
-0.0332684
0.203295
-0.0220712
0.202565
-0.0133359
0.20139
-0.00651404
0.00113031
0.151489
-0.280407
0.176514
-0.175902
0.189984
-0.114165
0.197066
-0.0763044
0.200621
-0.0518027
0.202173
-0.0348198
0.202547
-0.0224451
0.202204
-0.012993
0.201414
-0.0057242
0.00230272
0.148154
-0.323579
0.172894
-0.200642
0.186736
-0.128006
0.194354
-0.0839232
0.198452
-0.0559006
0.200532
-0.036899
0.201422
-0.023336
0.201593
-0.0131635
0.201318
-0.00544929
0.00294947
0.143965
-0.363789
0.168367
-0.225044
0.182653
-0.142292
0.190914
-0.0921841
0.195672
-0.0606579
0.198398
-0.0396258
0.199928
-0.0248658
0.200736
-0.0139714
0.201103
-0.00581566
0.00294059
0.138808
-0.400415
0.16289
-0.249127
0.177736
-0.157138
0.186756
-0.101204
0.192292
-0.0661942
0.195785
-0.0431188
0.198072
-0.0271532
0.199638
-0.0155369
0.200768
-0.00694589
0.00214952
0.132615
-0.433088
0.15633
-0.272842
0.171933
-0.172741
0.181874
-0.111145
0.188322
-0.0726425
0.192702
-0.0474989
0.195864
-0.0303149
0.198303
-0.017976
0.200315
-0.00895818
0.000453842
0.125138
-0.462011
0.148406
-0.29611
0.165042
-0.189377
0.176176
-0.122278
0.183733
-0.080199
0.189147
-0.0529135
0.193308
-0.0344759
0.196737
-0.0214048
0.199746
-0.0119673
-0.00226437
0.117368
-0.489017
0.140122
-0.318863
0.157637
-0.206893
0.169907
-0.134548
0.178625
-0.0889164
0.185166
-0.0594552
0.190428
-0.0397378
0.194951
-0.0259273
0.199063
-0.01608
-0.00611804
0.367315
-0.43335
-0.422982
0.338769
-0.290317
0.324971
-0.193095
0.318691
-0.128268
0.315453
-0.0856782
0.313485
-0.0574873
0.312156
-0.0384092
0.311246
-0.0250173
0.310649
-0.0154829
-0.00587776
0.380284
-0.370176
-0.443459
0.349287
-0.25932
0.333215
-0.177022
0.324563
-0.119616
0.319474
-0.0805892
0.316235
-0.0542489
0.314084
-0.0362577
0.31266
-0.0235932
0.311761
-0.0145837
-0.00552987
0.394602
-0.309799
-0.454978
0.360845
-0.225563
0.341497
-0.157674
0.330213
-0.108332
0.323294
-0.07367
0.318845
-0.0498001
0.315913
-0.0333259
0.314
-0.0216804
0.312811
-0.0133939
-0.00507594
0.404339
-0.253365
-0.460773
0.369714
-0.190938
0.348417
-0.136377
0.335173
-0.0950882
0.326737
-0.0652341
0.321229
-0.0442925
0.317594
-0.0296909
0.315234
-0.0193201
0.313775
-0.0119344
-0.00452216
0.411361
-0.201282
-0.463444
0.376755
-0.156332
0.354164
-0.113787
0.339423
-0.0803468
0.329747
-0.0555585
0.323339
-0.0378837
0.31909
-0.0254425
0.316334
-0.0165639
0.314633
-0.0102332
-0.00387771
0.416299
-0.153334
-0.464248
0.382184
-0.122217
0.358782
-0.0903849
0.342934
-0.064499
0.33228
-0.044904
0.325132
-0.0307361
0.32037
-0.0206798
0.317277
-0.013471
0.315367
-0.00832386
-0.00315415
0.419651
-0.1089
-0.464085
0.386203
-0.0887687
0.362325
-0.0665071
0.345693
-0.0478666
0.3343
-0.0335111
0.326576
-0.0230123
0.321404
-0.0155078
0.31804
-0.0101072
0.315961
-0.00624455
-0.00236489
0.421579
-0.0669206
-0.463558
0.388775
-0.0559646
0.364678
-0.0424104
0.347553
-0.0307423
0.335662
-0.0216192
0.327534
-0.0148848
0.32207
-0.0100438
0.318511
-0.0065482
0.316307
-0.00404063
-0.00152668
0.418217
-0.0248904
-0.460247
0.386129
-0.0238762
0.36238
-0.0186615
0.345325
-0.0136876
0.33338
-0.00967413
0.325173
-0.00667774
0.319641
-0.00451192
0.316037
-0.00294433
0.313807
-0.00181068
-0.00067805
0.342728
-0.367619
0.318852
0.30019
0.286503
0.276829
0.270151
0.265639
0.262695
0.260884
0.455502
0.0100448
-0.454374
0.455825
0.0222596
0.455313
0.0340383
0.45391
0.0452052
0.451378
0.0558035
0.448162
0.0649121
0.442561
0.0752047
0.438357
0.0794907
0.427231
0.0942675
0.0882432
0.43708
0.0090705
-0.436105
0.438242
0.0210977
0.439496
0.0327843
0.440827
0.0438742
0.441964
0.0546661
0.443268
0.0636086
0.443748
0.0747245
0.444785
0.0784537
0.445684
0.0933686
0.0904682
0.421761
0.00789587
-0.420587
0.423625
0.0192342
0.42611
0.0302993
0.429191
0.0407931
0.432766
0.0510914
0.436771
0.059603
0.441338
0.0701578
0.445482
0.0743097
0.451349
0.0875015
0.0868387
0.40987
0.0066576
-0.408632
0.412141
0.016963
0.415407
0.0270334
0.419608
0.0365925
0.424751
0.0459484
0.430534
0.0538199
0.437545
0.0631469
0.444229
0.0676255
0.453197
0.078533
0.0792625
0.400561
0.00537049
-0.399274
0.403126
0.0143979
0.406935
0.0232244
0.411915
0.0316131
0.418105
0.0397584
0.425176
0.0467487
0.433729
0.0545938
0.442386
0.0589684
0.453278
0.0676413
0.069097
0.393479
0.00403657
-0.392145
0.396253
0.0116237
0.400437
0.0190401
0.405957
0.026093
0.41284
0.0328755
0.42081
0.038779
0.430319
0.0450845
0.440314
0.0489736
0.452351
0.0556039
0.0572004
0.388286
0.00264826
-0.386898
0.391225
0.00868525
0.395683
0.0145812
0.401588
0.0201881
0.408934
0.0255302
0.417502
0.0302109
0.427585
0.0350016
0.438438
0.0381207
0.451136
0.0429054
0.0442514
0.384224
0.00112354
-0.382699
0.387371
0.00553836
0.392124
0.00982777
0.398402
0.0139103
0.406152
0.0177804
0.415186
0.0211767
0.425637
0.0245505
0.437011
0.0267467
0.450025
0.0298911
0.030719
0.372857
-0.000411622
-0.371322
0.376448
0.00194792
0.381878
0.00439775
0.389052
0.00673557
0.397853
0.00898
0.408036
0.0109933
0.419605
0.0129814
0.432055
0.0142965
0.445827
0.0161195
0.0162989
0.274868
-0.275279
0.276816
0.281213
0.287949
0.296929
0.307922
0.320904
0.3352
0.35132
0.0786976
0.125356
-0.113901
-0.0901533
0.0682226
0.127678
-0.117203
0.0584023
0.130555
-0.120735
0.048854
0.134087
-0.124538
0.0392924
0.138015
-0.128454
0.0295982
0.142031
-0.132337
0.0198608
0.144896
-0.135159
0.010605
0.141825
-0.132569
0.00320806
0.120195
-0.112798
0.0593615
-0.0561534
0.077297
0.135259
-0.0872002
0.0672503
0.137725
0.0573211
0.140484
0.0475757
0.143832
0.0379266
0.147665
0.0283037
0.151654
0.0187946
0.154406
0.00990275
0.150716
0.00292806
0.127169
0.0622895
0.070144
0.14362
-0.0785049
0.061389
0.14648
0.0524768
0.149396
0.0435249
0.152784
0.0345523
0.156637
0.0255686
0.160638
0.0167211
0.163253
0.00856218
0.158875
0.00236939
0.133362
0.0646589
0.0600374
0.150548
-0.0669655
0.0527766
0.153741
0.045233
0.15694
0.0374822
0.160535
0.0295809
0.164538
0.0215982
0.168621
0.0137515
0.1711
0.00666323
0.165964
0.00158873
0.138437
0.0662476
0.049587
0.156352
-0.0553908
0.0435616
0.159766
0.0372591
0.163242
0.0307087
0.167085
0.0239613
0.171286
0.0171104
0.175471
0.0104251
0.177785
0.00457651
0.171812
0.000750911
0.142262
0.0669986
0.0396065
0.161269
-0.0445237
0.0345588
0.164814
0.0293042
0.168497
0.0238461
0.172543
0.0182186
0.176913
0.01252
0.18117
0.00704648
0.183259
0.00251796
0.176341
-8.60896e-05
0.144866
0.0669125
0.0298222
0.165338
-0.0338912
0.0256892
0.168947
0.0214213
0.172765
0.0170126
0.176952
0.0124884
0.181437
0.00795081
0.185708
0.00371174
0.187498
0.000384395
0.179668
-0.000764832
0.146015
0.0661476
0.0198965
0.168457
-0.0230149
0.0167474
0.172096
0.0135063
0.176006
0.0101702
0.180288
0.00676293
0.184845
0.00339879
0.189072
0.000389125
0.190507
-0.00144077
0.181498
-0.00140612
0.145981
0.0647415
0.00975243
0.170543
-0.0118386
0.00766281
0.174186
0.00551498
0.178154
0.00331628
0.182487
0.00109284
0.187068
-0.00103743
0.191202
-0.00266775
0.192138
-0.00317681
0.182007
-0.00200582
0.14481
0.0627357
-0.000386394
-0.00066386
-0.00140715
-0.0024344
-0.00347448
-0.00448992
-0.00533194
-0.00566685
-0.00486269
-0.0025397
0.106394
0.0227196
-0.117723
-0.0113909
0.0947116
0.0233276
-0.0116448
0.0826818
0.0239459
-0.0119161
0.0702905
0.0245992
-0.0122078
0.0575217
0.0252939
-0.0125252
0.0443648
0.0260212
-0.0128643
0.0308862
0.0266421
-0.0131635
0.0175442
0.0264376
-0.0130956
0.00597756
0.0231465
-0.0115799
0.0122768
-0.00629928
0.105513
0.0340117
-0.116805
0.0938831
0.0349571
0.0819193
0.0359098
0.0696063
0.0369121
0.056928
0.0379722
0.0438734
0.0390759
0.0305104
0.040005
0.0173002
0.0396478
0.00587605
0.0345707
0.0181529
0.104244
0.0452458
-0.115478
0.092701
0.0464998
0.0808392
0.0477716
0.0686432
0.0491081
0.0560963
0.0505191
0.0431879
0.0519844
0.0299887
0.0532042
0.0169633
0.0526732
0.00573422
0.0457998
0.0238871
0.102507
0.0563882
-0.113649
0.0910906
0.0579159
0.0793746
0.0594876
0.0673427
0.06114
0.0549774
0.0628843
0.0422687
0.0646931
0.0292917
0.0661812
0.0165175
0.0654474
0.00554727
0.0567701
0.0294344
0.100196
0.0674027
-0.11121
0.0889578
0.0691538
0.0774471
0.0709983
0.0656435
0.0729436
0.0535257
0.0750021
0.0410827
0.0771361
0.0283953
0.0788685
0.0159464
0.0778963
0.00532416
0.0673923
0.0347585
0.0971659
0.0782329
-0.107996
0.0861727
0.0801471
0.0749375
0.0822334
0.0634366
0.0844446
0.0516453
0.0867933
0.0395512
0.0892302
0.0272399
0.0911798
0.0152043
0.089932
0.00501585
0.0775808
0.0397744
0.0933598
0.0887398
-0.103867
0.0827799
0.090727
0.0719784
0.0930349
0.0609056
0.0955174
0.0495306
0.0981683
0.0378483
0.100913
0.025963
0.103065
0.0143905
0.101504
0.00468577
0.0872855
0.0444602
0.0877588
0.0987297
-0.0977487
0.0777547
0.100731
0.0675869
0.103203
0.0571818
0.105922
0.0464806
0.10887
0.0354613
0.111932
0.0242296
0.114297
0.0133153
0.112419
0.004252
0.0963488
0.0487122
0.0840061
0.107633
-0.0929097
0.0748606
0.109877
0.0651871
0.112876
0.0550798
0.11603
0.0446297
0.11932
0.033894
0.122667
0.0230152
0.125176
0.012537
0.122897
0.00394828
0.104938
0.0526604
0.0735057
-0.0797729
0.0661789
0.0583206
0.0498119
0.0406778
0.0310083
0.0210249
0.0113531
0.00349296
0.201444
0.0139095
-0.0173633
0.203928
0.024963
-0.0274473
0.204104
0.0304682
-0.0306441
0.205005
0.0323672
-0.0332684
0.204482
0.0384654
-0.0379425
0.202184
0.0470139
-0.0447163
0.19668
0.0589408
-0.0534362
0.185954
0.0749893
-0.0642631
0.162078
0.100221
-0.0763452
0.135549
-0.0911945
0.201227
0.0106725
0.20358
0.0226099
0.2037
0.0303477
0.204529
0.0315387
0.203901
0.0390931
0.20145
0.0494649
0.195752
0.0646385
0.184723
0.0860189
0.160753
0.124191
0.179497
0.200883
0.00777893
0.202951
0.0205425
0.20292
0.030378
0.203543
0.0309166
0.202676
0.0399595
0.199947
0.0521937
0.193954
0.0706315
0.182523
0.0974507
0.158434
0.14828
0.222453
0.200408
0.00536029
0.202045
0.0189063
0.201775
0.0306477
0.202057
0.030635
0.200819
0.0411969
0.197687
0.0553254
0.191284
0.0770354
0.179341
0.109393
0.155032
0.17259
0.263836
0.199795
0.00355493
0.200866
0.0178353
0.200278
0.031236
0.200083
0.0308295
0.198345
0.0429356
0.194685
0.0589854
0.187739
0.0839808
0.17518
0.121952
0.150842
0.196927
0.303468
0.199036
0.00250921
0.199423
0.0174476
0.198447
0.0322126
0.197637
0.0316392
0.195271
0.0453011
0.190956
0.0633011
0.183319
0.0916169
0.170033
0.135238
0.146252
0.220708
0.341724
0.19812
0.00237869
0.197725
0.0178432
0.1963
0.0336371
0.194733
0.0332068
0.191621
0.0484128
0.186519
0.0684027
0.178048
0.100089
0.163857
0.149428
0.141245
0.24332
0.379103
0.19704
0.00332827
0.195784
0.019099
0.193861
0.0355609
0.191388
0.0356792
0.187421
0.0523804
0.181403
0.0744198
0.171995
0.109498
0.156674
0.164749
0.135294
0.264699
0.416649
0.195794
0.00552368
0.193628
0.0212653
0.191151
0.038038
0.187621
0.0392089
0.182697
0.0573045
0.175653
0.0814643
0.16531
0.119841
0.149423
0.180636
0.129751
0.284372
0.45349
0.194502
0.00901143
0.191282
0.024485
0.188227
0.0410937
0.183417
0.0440186
0.177533
0.0631889
0.169337
0.0896598
0.157452
0.131726
0.13988
0.198208
0.11906
0.305192
0.492777
0.303123
0.0078986
0.305436
0.0221718
0.309112
0.0374182
0.310755
0.0423754
0.313176
0.0607679
0.316007
0.086829
0.320699
0.127034
0.330419
0.188487
0.356047
0.279564
0.433232
0.415592
0.303908
0.00600129
0.306562
0.0195173
0.310611
0.0333694
0.313222
0.0397646
0.316927
0.0570624
0.321929
0.0818266
0.329996
0.118967
0.344544
0.173939
0.37472
0.249389
0.374281
0.433671
0.304647
0.0033643
0.307818
0.016347
0.312117
0.02907
0.31563
0.0362513
0.320471
0.0522217
0.327293
0.0750046
0.338014
0.108246
0.355785
0.156167
0.388445
0.216728
0.315934
0.446793
0.305393
-1.81991e-05
0.309067
0.0126729
0.313602
0.0245345
0.317879
0.0319743
0.32374
0.0463608
0.332105
0.0666398
0.344894
0.0954571
0.364987
0.136074
0.398427
0.183289
0.260149
0.454212
0.30618
-0.00418801
0.310319
0.0085335
0.315028
0.0198257
0.319918
0.0270841
0.326652
0.0396276
0.336282
0.057009
0.350637
0.0811027
0.372341
0.11437
0.405468
0.150162
0.207807
0.45781
0.307073
-0.00925064
0.311602
0.0040046
0.316366
0.0150614
0.321706
0.0217444
0.329148
0.0321858
0.339778
0.0463785
0.355284
0.065597
0.378023
0.0916303
0.410351
0.117834
0.159079
0.459079
0.308119
-0.0153595
0.312941
-0.000817543
0.317587
0.0104155
0.323201
0.0161305
0.331184
0.0242026
0.342566
0.0349962
0.358889
0.0492743
0.38223
0.0682894
0.413649
0.0864153
0.113621
0.459107
0.309381
-0.0227301
0.31434
-0.00577632
0.318595
0.00616025
0.324293
0.010432
0.332659
0.0158364
0.344572
0.0230841
0.361452
0.0323941
0.3851
0.0446411
0.415715
0.0558006
0.0709019
0.458434
0.308856
-0.0295761
0.313106
-0.0100258
0.316813
0.00245275
0.322514
0.00473075
0.33111
0.0072413
0.343363
0.0108306
0.360612
0.0151454
0.384381
0.0208721
0.414519
0.0256622
0.0317849
0.453636
0.272434
0.262408
0.264861
0.269592
0.276833
0.287664
0.302809
0.323681
0.349343
0.381128
0.429132
-0.103693
0.432869
-0.0909373
0.435023
-0.0806588
0.437657
-0.0695995
0.44089
-0.0586238
0.444317
-0.0479511
0.447595
-0.0371695
0.450444
-0.0258633
0.452737
-0.0141325
-0.00229995
0.433936
-0.103958
0.433769
-0.0907698
0.43296
-0.0798499
0.432851
-0.0694903
0.433229
-0.059002
0.433692
-0.0484141
0.434122
-0.0376
0.434645
-0.0263856
0.435328
-0.0148158
-0.0030773
0.440475
-0.0976407
0.435733
-0.0860278
0.431406
-0.0755222
0.427722
-0.0658064
0.424867
-0.0561477
0.422716
-0.0462629
0.421209
-0.0360934
0.420372
-0.0255483
0.420184
-0.0146279
-0.00347978
0.443922
-0.0873509
0.435623
-0.0777283
0.428566
-0.0684652
0.422577
-0.0598182
0.417713
-0.0512836
0.413912
-0.0424618
0.411099
-0.0332801
0.409267
-0.0237162
0.408434
-0.0137947
-0.00367773
0.445278
-0.0748193
0.434716
-0.0671663
0.425759
-0.0595082
0.418155
-0.0522145
0.411853
-0.0449816
0.406831
-0.0374392
0.403058
-0.0295076
0.400536
-0.0211938
0.399281
-0.0125398
-0.00367107
0.445288
-0.0610282
0.433332
-0.05521
0.423087
-0.0492632
0.414369
-0.0434965
0.407094
-0.0377064
0.401247
-0.0315921
0.396822
-0.0250831
0.393826
-0.0181976
0.392269
-0.0109827
-0.00354701
0.444596
-0.0465168
0.431796
-0.0424103
0.420733
-0.0382003
0.411294
-0.0340573
0.403387
-0.0297992
0.396998
-0.0252039
0.392139
-0.020224
0.388826
-0.0148841
0.387079
-0.00923569
-0.00336589
0.443431
-0.0315142
0.43007
-0.0290493
0.418494
-0.0266245
0.408588
-0.0241508
0.400252
-0.0214631
0.393483
-0.0184354
0.388309
-0.0150502
0.384764
-0.0113388
0.382882
-0.00735397
-0.00318282
0.437558
-0.015436
0.423451
-0.0149422
0.411172
-0.0143454
0.400527
-0.0135059
0.391429
-0.012365
0.383907
-0.0109133
0.378044
-0.00918717
0.373941
-0.00723575
0.371688
-0.00510093
-0.00281717
0.365692
0.35075
0.336405
0.322899
0.310534
0.29962
0.290433
0.283197
0.278097
0.00797466
0.0737771
-0.0817518
0.0154626
0.177382
-0.18487
0.0186275
0.225463
-0.228627
0.0187906
0.239623
-0.239786
0.0176314
0.240075
-0.238916
0.0160959
0.236725
-0.23519
0.0145126
0.232884
-0.2313
0.0129432
0.229015
-0.227446
0.0114001
0.223825
-0.222282
0.212788
0.00995925
-0.211347
0.00954818
0.0642289
0.0209229
0.166007
0.0285113
0.217874
0.0328479
0.235287
0.0356475
0.237276
0.0380488
0.234324
0.0405015
0.230431
0.043002
0.226515
0.0450512
0.221776
0.212692
0.045147
0.0101279
0.054101
0.0243983
0.151737
0.0359837
0.206289
0.0444361
0.226834
0.051194
0.230518
0.0574761
0.228042
0.063878
0.224029
0.0704788
0.219914
0.0766902
0.215565
0.209137
0.0802449
0.00970293
0.0443981
0.025502
0.135938
0.0401432
0.191648
0.0522076
0.21477
0.0625975
0.220128
0.0724182
0.218221
0.0823455
0.214102
0.0926119
0.209647
0.102938
0.205239
0.200362
0.111713
0.00850412
0.035894
0.0243721
0.12007
0.0408021
0.175218
0.0555917
0.19998
0.0689678
0.206752
0.0817313
0.205458
0.0945098
0.201323
0.107626
0.196531
0.121105
0.19176
0.186945
0.134522
0.00689052
0.0290034
0.0216298
0.105331
0.038525
0.158322
0.0549167
0.183588
0.0703647
0.191304
0.0852411
0.190581
0.0999959
0.186569
0.114932
0.181595
0.130208
0.176484
0.17106
0.146093
0.00524494
0.0237585
0.0182044
0.0923712
0.034534
0.141993
0.0514576
0.166665
0.0680046
0.174757
0.0841059
0.17448
0.0999623
0.170712
0.115776
0.165782
0.131659
0.1606
0.15472
0.148
0.00384563
0.0199129
0.0149323
0.0812846
0.0301199
0.126805
0.0467429
0.150042
0.0634886
0.158011
0.0799228
0.158046
0.0959972
0.154638
0.111777
0.150002
0.127374
0.145003
0.139275
0.142819
0.00285301
0.0170599
0.0123997
0.0717378
0.0263705
0.112834
0.0423127
0.1341
0.0587632
0.141561
0.0750724
0.141736
0.0910363
0.138674
0.106654
0.134384
0.122029
0.129628
0.1236
0.137703
0.00223995
0.0148199
0.0106841
0.0632937
0.0235767
0.0999418
0.0386556
0.119021
0.0544017
0.125815
0.0700193
0.126119
0.085137
0.123556
0.0995705
0.119951
0.113096
0.116102
0.111209
0.125487
0.0019385
0.0128814
0.00972784
0.0555043
0.0218692
0.0878005
0.0362588
0.104631
0.0514255
0.110648
0.0665845
0.11096
0.0813942
0.108747
0.095755
0.10559
0.109661
0.102196
0.0991788
0.121691
0.00181873
0.0110627
0.00925755
0.0480655
0.020921
0.076137
0.0348074
0.0907448
0.0495036
0.0959518
0.0642487
0.0962147
0.0787006
0.0942946
0.0927325
0.0915583
0.106324
0.0886051
0.0866458
0.118857
0.00175514
0.00930754
0.00896901
0.0408516
0.0202815
0.0648246
0.033743
0.0772832
0.0479817
0.0817131
0.0622592
0.0819373
0.0762396
0.0803142
0.0897917
0.0780062
0.102878
0.0755187
0.0741095
0.115414
0.00170795
0.00759959
0.00875827
0.0338013
0.0198087
0.0537742
0.0329386
0.0641532
0.0468073
0.0678445
0.0607003
0.0680442
0.0742952
0.0667193
0.0874647
0.0648367
0.100168
0.062815
0.0617564
0.112521
0.00167336
0.00592623
0.00860798
0.0268667
0.0194773
0.0429049
0.0323785
0.051252
0.0459933
0.0542297
0.059628
0.0544095
0.0729739
0.0533735
0.0859129
0.0518976
0.0984112
0.0503167
0.0495307
0.110637
0.00164864
0.00427758
0.0085031
0.0200122
0.019252
0.032156
0.0320052
0.0384988
0.0454594
0.0407754
0.0589363
0.0409326
0.0721389
0.0401709
0.0849576
0.0390789
0.0973652
0.0379091
0.0373604
0.109536
0.0016331
0.00264449
0.00843456
0.0132108
0.0191054
0.0214851
0.0317652
0.025839
0.0451215
0.0274191
0.0585061
0.0275481
0.0716301
0.0270469
0.0843898
0.0263192
0.0967617
0.0255372
0.025208
0.108914
0.00162765
0.00101684
0.00839874
0.00643968
0.0190206
0.0108632
0.0316208
0.0132389
0.0449155
0.0141244
0.0582437
0.0142199
0.071322
0.0139685
0.0840509
0.0135903
0.0964086
0.0131796
0.013059
0.108558
0.00163327
-0.000616435
0.00839441
-0.000321458
0.0189863
0.000271357
0.0315446
0.000680562
0.0447937
0.000875388
0.0580787
0.000934835
0.0711212
0.000925997
0.0838246
0.000886884
0.0961685
0.000835708
0.000916971
0.108311
0.00165213
0.00841718
0.0189934
0.0315173
0.0447224
0.0579617
0.070962
0.0836298
0.0959467
0.108071
0.138177
0.268919
-0.285404
0.150227
0.117012
-0.129062
0.159692
0.0401673
-0.0496331
0.166992
0.0056302
-0.0129302
0.173109
-0.00795069
0.00183414
0.178551
-0.0120281
0.00658597
0.183543
-0.0120484
0.00705634
0.188181
-0.0104598
0.00582241
0.192509
-0.00842597
0.00409745
-0.00555971
0.00164243
0.141436
0.246339
0.156441
0.102007
0.16636
0.0302491
0.173336
-0.00134626
0.178657
-0.0132716
0.183126
-0.0164974
0.187054
-0.0159762
0.19058
-0.013986
0.193781
-0.0116268
-0.00835675
0.144423
0.217331
0.161865
0.0845645
0.17226
0.0198537
0.17893
-0.00801565
0.183649
-0.0179911
0.18728
-0.0201281
0.19026
-0.0189566
0.192787
-0.0165122
0.19497
-0.0138101
-0.0101404
0.147282
0.18257
0.166713
0.0651333
0.177556
0.00901083
0.183987
-0.0144465
0.188126
-0.0221294
0.191011
-0.0230132
0.193151
-0.0210968
0.194791
-0.0181523
0.196071
-0.0150904
-0.0110229
0.15009
0.143117
0.171008
0.0442153
0.182204
-0.00218493
0.188423
-0.0206654
0.192065
-0.0257722
0.194304
-0.0252521
0.195715
-0.0225079
0.196586
-0.0190227
0.197081
-0.0155858
-0.0111209
0.152482
0.100171
0.17468
0.0220172
0.186174
-0.0136788
0.192217
-0.0267082
0.195447
-0.0290025
0.197144
-0.026949
0.197941
-0.0233054
0.198163
-0.0192441
0.197995
-0.0154183
-0.0105555
0.154426
0.0546587
0.177679
-0.00123597
0.189429
-0.0254288
0.195342
-0.0326207
0.198249
-0.03191
0.199514
-0.0282132
0.199817
-0.0236091
0.199514
-0.0189408
0.198809
-0.0147133
-0.00945196
0.155881
0.00733558
0.179952
-0.0253077
0.191935
-0.0374112
0.197775
-0.0384606
0.200455
-0.0345906
0.201401
-0.0291584
0.201333
-0.0235416
0.200632
-0.0182398
0.199518
-0.0135993
-0.00793858
0.156784
-0.041138
0.181461
-0.049985
0.193661
-0.0496104
0.199496
-0.0442964
0.202051
-0.0371451
0.202794
-0.0299016
0.202481
-0.0232284
0.201512
-0.0172706
0.200119
-0.0122071
-0.00614648
0.157098
0.182169
0.194584
0.200492
0.203025
0.203686
0.203254
0.202148
0.20061
0.149801
0.0147234
-0.164525
0.1388
0.0110011
0.13343
0.00537003
0.131931
0.00149914
0.132292
-0.000361075
0.13328
-0.000987467
0.134304
-0.00102393
0.135137
-0.000833179
0.135708
-0.00057127
-0.000220446
0.235371
0.0833502
-0.303998
0.205194
0.0411784
0.193453
0.017111
0.19003
0.0049217
0.190024
-0.000354801
0.191208
-0.00217173
0.192591
-0.0024069
0.193763
-0.00200544
0.194597
-0.00140509
-0.000555888
0.244025
0.157309
-0.317984
0.212028
0.0731759
0.199781
0.029358
0.19631
0.00839258
0.196382
-0.000426766
0.197651
-0.00344022
0.19911
-0.00386686
0.200344
-0.00323907
0.201226
-0.00228674
-0.000913244
0.239066
0.225094
-0.306851
0.209806
0.102436
0.198933
0.0402313
0.196195
0.0111305
0.196621
-0.000852819
0.198079
-0.00489753
0.199621
-0.00540936
0.200892
-0.00451002
0.20179
-0.00318456
-0.00127574
0.233195
-0.293505
0.206569
0.197167
0.195368
0.196349
0.198037
0.199684
0.200997
0.20191
0.0158364
2.62033e-05
-0.0158626
0.0178409
-0.00200458
0.0219174
-0.00407642
0.0285314
-0.00661405
0.0387765
-0.010245
0.0535309
-0.0147544
0.0750651
-0.0215342
0.100293
-0.0252282
0.133534
-0.0332409
-0.0309906
0.0446211
-0.000701522
-0.0438934
0.0511179
-0.00850131
0.0639309
-0.0168894
0.0840621
-0.0267453
0.112132
-0.038315
0.147417
-0.0500389
0.188291
-0.0624091
0.228902
-0.0658383
0.270401
-0.07474
-0.0645877
0.0686177
-0.00261865
-0.0667006
0.0788728
-0.0187564
0.0979718
-0.0359885
0.125946
-0.0547192
0.160954
-0.0733238
0.199296
-0.0883804
0.235908
-0.0990215
0.267698
-0.0976276
0.295739
-0.102781
-0.086833
0.0867509
-0.00576246
-0.0836071
0.0993696
-0.0313751
0.121339
-0.0579573
0.150839
-0.0842192
0.183803
-0.106288
0.215717
-0.120294
0.242725
-0.12603
0.267025
-0.121928
0.287993
-0.123749
-0.105691
0.0993077
-0.0951109
0.11308
0.135367
0.162861
0.191095
0.216894
0.238864
0.259755
0.273709
0.0958409
-0.0897325
0.0980422
-0.104151
0.0867925
-0.0922216
0.10127
0.0772959
-0.0955439
0.105041
0.066952
-0.0989566
0.109301
0.0556594
-0.102389
0.113682
0.0434702
-0.105828
0.118017
0.0305651
-0.108674
0.121579
0.0175112
-0.107742
0.120796
0.00602434
-0.0934438
0.104931
-0.048206
0.0542303
0.105087
-0.0794121
-0.115407
0.0944247
-0.0815596
0.0829559
-0.084075
0.0707756
-0.0867764
0.0580329
-0.0896463
0.0448235
-0.0926187
0.0312608
-0.0951109
0.0178158
-0.0942966
0.00611886
-0.0817469
-0.0420871
0.104174
-0.0681547
-0.115431
0.0927823
-0.070168
0.0811101
-0.0724028
0.0691
-0.0747663
0.0566905
-0.0772367
0.0438371
-0.0797654
0.0305913
-0.0818651
0.0174108
-0.0811161
0.0059393
-0.0702754
-0.0361478
0.105983
-0.0567931
-0.117344
0.0944443
-0.0586294
0.0825714
-0.0605299
0.0703098
-0.0625047
0.0576246
-0.0645516
0.0445033
-0.0666441
0.0310208
-0.0683826
0.0176483
-0.0677436
0.00603289
-0.05866
-0.0301149
0.106719
-0.0454095
-0.118103
0.0950467
-0.0469571
0.0830234
-0.0485067
0.0706276
-0.0501088
0.0578391
-0.0517631
0.0446444
-0.0534494
0.0311089
-0.0548471
0.0176907
-0.0543254
0.00603105
-0.0470003
-0.0240839
0.107172
-0.0340396
-0.118542
0.0954677
-0.0352531
0.0834012
-0.0364402
0.0709551
-0.0376627
0.0581117
-0.0389196
0.044859
-0.0401968
0.0312631
-0.0412512
0.0177821
-0.0408445
0.0060675
-0.0352857
-0.0180164
0.107415
-0.0226733
-0.118781
0.0956895
-0.0235277
0.0835963
-0.024347
0.0711205
-0.0251869
0.0582466
-0.0260458
0.0449644
-0.0269145
0.0313393
-0.0276262
0.0178295
-0.0273346
0.00609049
-0.0235467
-0.0119259
0.107474
-0.0113089
-0.118838
0.0957374
-0.0117915
0.0836341
-0.0122438
0.0711498
-0.0127025
0.0582694
-0.0131654
0.0449824
-0.0136275
0.0313542
-0.013998
0.0178421
-0.0138224
0.00609772
-0.0118024
-0.00582814
0.107329
2.20006e-05
-0.11866
0.0955966
-5.90352e-05
0.0835013
-0.000148483
0.0710287
-0.000229951
0.0581636
-0.00030033
0.0448955
-0.000359316
0.0312896
-0.000392168
0.0178023
-0.00033515
0.00608243
-8.2463e-05
0.00025429
0.106949
-0.118318
0.0952452
0.0831806
0.0707429
0.0579174
0.0446938
0.0311381
0.0177073
0.00604499
0.0217025
-0.208405
-0.0246444
0.0168684
-0.217448
0.011528
-0.222105
0.00616244
-0.225935
0.000925387
-0.229953
-0.00396779
-0.234023
-0.00776899
-0.235985
-0.00883374
-0.227563
-0.00566116
-0.188043
-0.0874129
0.0524982
-0.202532
-0.0583721
0.0442328
-0.209183
0.0354621
-0.213335
0.0267707
-0.217243
0.0182892
-0.221471
0.0101426
-0.225876
0.00282255
-0.228665
-0.00230368
-0.222437
-0.00300296
-0.187343
-0.0904159
0.0786228
-0.192672