/*--------------------------------*- C++ -*----------------------------------*\
  =========                 |
  \\      /  F ield         | OpenFOAM: The Open Source CFD Toolbox
   \\    /   O peration     | Website:  https://openfoam.org
    \\  /    A nd           | Version:  13
     \\/     M anipulation  |
\*---------------------------------------------------------------------------*/
FoamFile
{
    format      ascii;
    class       volVectorField;
    location    "0.235";
    object      U;
}
// * * * * * * * * * * * * * * * * * * * * * * * * * * * * * * * * * * * * * //

dimensions      [0 1 -1 0 0 0 0];

internalField   nonuniform List<vector> 
1800
(
(0.24266 -0.222758 1.29671e-19)
(0.79231 -0.678659 5.87654e-20)
(1.16733 -0.949173 -5.6747e-19)
(1.35213 -1.04972 5.34735e-19)
(1.42327 -1.05165 1.21791e-18)
(1.44248 -1.01083 5.09358e-19)
(1.44173 -0.956557 -2.60774e-19)
(1.43394 -0.901088 -6.5953e-19)
(1.42447 -0.845757 -3.46396e-19)
(1.396 -0.798439 -2.8256e-19)
(0.292035 -0.228487 3.12762e-20)
(0.919482 -0.672173 -6.27352e-19)
(1.33199 -0.927473 5.87212e-21)
(1.5257 -1.01828 -4.33758e-19)
(1.59263 -1.01573 1.03674e-19)
(1.60364 -0.973516 1.1797e-18)
(1.59457 -0.919002 -8.46428e-19)
(1.57982 -0.863133 4.28091e-19)
(1.5643 -0.8084 7.04043e-19)
(1.54122 -0.765869 -3.60318e-19)
(0.34559 -0.228959 3.21818e-20)
(1.04936 -0.649409 1.82409e-19)
(1.495 -0.883349 4.51686e-19)
(1.69417 -0.962627 -3.10185e-19)
(1.75492 -0.956318 -1.44699e-18)
(1.75662 -0.914779 3.18969e-19)
(1.73825 -0.863 5.58266e-19)
(1.71489 -0.810941 -6.29289e-20)
(1.69144 -0.761063 -4.69002e-21)
(1.66113 -0.720961 -2.78853e-20)
(0.402628 -0.223168 -3.77222e-20)
(1.1792 -0.609351 -2.02767e-19)
(1.65258 -0.816406 -3.27775e-19)
(1.85383 -0.882677 5.90115e-20)
(1.90718 -0.873036 3.83031e-19)
(1.89972 -0.833063 3.15879e-20)
(1.87283 -0.784664 -2.27649e-20)
(1.84199 -0.736296 5.13888e-19)
(1.81183 -0.690081 4.27744e-19)
(1.77798 -0.654087 -1.46545e-19)
(0.462174 -0.21035 1.27892e-19)
(1.3059 -0.552046 2.6461e-19)
(1.80049 -0.728061 -7.08428e-20)
(2.00003 -0.780962 -8.04814e-20)
(2.04464 -0.769308 -1.14435e-18)
(2.02803 -0.732758 9.7782e-21)
(1.99321 -0.689728 8.86963e-19)
(1.95559 -0.647165 2.95419e-19)
(1.91953 -0.607008 1.64487e-20)
(1.88195 -0.575612 -1.92765e-19)
(0.522738 -0.189664 -6.88048e-20)
(1.4258 -0.477462 5.57499e-19)
(1.93444 -0.619411 1.22086e-18)
(2.1287 -0.659156 -8.40243e-19)
(2.16372 -0.646761 -8.31213e-19)
(2.13847 -0.614965 1.37723e-18)
(2.09661 -0.578396 -9.78196e-19)
(2.05314 -0.542482 -1.09476e-18)
(2.01203 -0.508837 7.79469e-19)
(1.97137 -0.482874 -2.26488e-20)
(0.58255 -0.160636 2.07772e-19)
(1.53523 -0.386565 -9.75155e-19)
(2.05048 -0.492888 -3.29713e-18)
(2.23625 -0.520532 1.36888e-18)
(2.26129 -0.509031 2.10339e-18)
(2.22824 -0.483476 -5.98844e-21)
(2.18053 -0.454616 -2.66383e-18)
(2.13241 -0.426426 6.87579e-21)
(2.08739 -0.400215 2.3859e-18)
(2.0443 -0.380239 6.24348e-19)
(0.639451 -0.123083 -7.58005e-20)
(1.63036 -0.280813 6.21573e-19)
(2.14487 -0.351272 2.54422e-18)
(2.31957 -0.368413 -5.06627e-20)
(2.33477 -0.359424 -1.35515e-18)
(2.29506 -0.341329 -4.18962e-19)
(2.24284 -0.321069 0)
(2.19128 -0.301317 9.35721e-19)
(2.14344 -0.283087 -2.11158e-21)
(2.09864 -0.269644 -7.66412e-19)
(0.691104 -0.0773081 -7.4656e-21)
(1.70765 -0.1625 1.45652e-18)
(2.21462 -0.198148 2.22023e-18)
(2.37641 -0.20679 -1.99455e-18)
(2.38245 -0.201861 -1.39993e-18)
(2.33752 -0.192207 4.22495e-19)
(2.28222 -0.181203 -1.76096e-18)
(2.22853 -0.170382 -1.22665e-18)
(2.17903 -0.160468 1.42635e-18)
(2.13333 -0.15381 1.21005e-18)
(0.735154 -0.0241179 1.89411e-19)
(1.76411 -0.0345714 9.52108e-19)
(2.25751 -0.03747 4.1023e-19)
(2.40534 -0.0397665 -2.86541e-18)
(2.40335 -0.0402371 2.07626e-20)
(2.35477 -0.0396727 4.0242e-18)
(2.29785 -0.038287 -2.14252e-18)
(2.24331 -0.0366477 -1.16768e-18)
(2.19328 -0.0351535 3.97362e-19)
(2.14752 -0.0353115 -8.87207e-19)
(0.00171694 -0.0388651 1.16932e-19)
(0.029003 -0.130162 1.09766e-19)
(0.084714 -0.192046 -1.92377e-21)
(0.149345 -0.220884 -6.76103e-21)
(0.214845 -0.2286 -1.80716e-21)
(0.277135 -0.226012 -3.88995e-20)
(0.334573 -0.219359 1.05314e-20)
(0.386927 -0.211543 -2.05038e-20)
(0.434422 -0.203732 2.19811e-21)
(0.477858 -0.197464 -5.68955e-21)
(0.00730742 -0.0598693 6.26101e-20)
(0.0497337 -0.212098 1.12316e-19)
(0.115957 -0.31607 -1.17232e-19)
(0.185221 -0.363396 -4.54159e-20)
(0.2516 -0.37411 -6.37636e-20)
(0.313038 -0.366973 -7.27216e-20)
(0.368975 -0.352902 2.84305e-20)
(0.419667 -0.336984 -1.40863e-20)
(0.465446 -0.321292 2.07448e-22)
(0.507928 -0.309493 -6.89423e-21)
(0.0163528 -0.0809074 -1.06417e-20)
(0.0838357 -0.291737 2.55632e-19)
(0.167514 -0.435515 7.89656e-20)
(0.244511 -0.5 2.73021e-19)
(0.312384 -0.513197 4.62317e-20)
(0.372413 -0.501468 -2.57849e-19)
(0.425853 -0.480169 -2.39198e-20)
(0.473777 -0.456441 8.12406e-20)
(0.516703 -0.433243 -3.54637e-20)
(0.55767 -0.416116 -5.23096e-21)
(0.0290466 -0.101867 -1.06462e-19)
(0.131218 -0.367761 -5.3191e-20)
(0.238825 -0.547985 2.88145e-20)
(0.326329 -0.627705 -1.19681e-19)
(0.396142 -0.642665 5.41428e-20)
(0.454133 -0.626314 1.72017e-19)
(0.504074 -0.598085 4.91252e-20)
(0.548149 -0.566977 -1.25693e-20)
(0.58715 -0.536813 1.86987e-20)
(0.62604 -0.51462 -2.26525e-21)
(0.0456506 -0.122635 0)
(0.191706 -0.438862 8.21986e-20)
(0.329048 -0.651126 3.71293e-19)
(0.429368 -0.743593 -2.79272e-19)
(0.501344 -0.75942 -5.35642e-19)
(0.556596 -0.738453 1.80339e-19)
(0.602048 -0.703719 -2.56327e-20)
(0.641252 -0.66582 -8.84917e-20)
(0.675366 -0.629395 0)
(0.711623 -0.60244 -7.85838e-21)
(0.0664916 -0.143055 1.41884e-20)
(0.265003 -0.503697 2.16523e-19)
(0.437006 -0.742627 9.68923e-20)
(0.551841 -0.844871 2.14044e-19)
(0.625923 -0.860548 -1.7047e-19)
(0.677665 -0.835051 -2.67831e-19)
(0.717686 -0.794394 4.62049e-19)
(0.751102 -0.750464 4.84358e-20)
(0.779529 -0.708627 -2.71269e-19)
(0.812565 -0.6772 -6.26482e-21)
(0.0919344 -0.16286 1.91785e-20)
(0.350627 -0.560842 2.29182e-19)
(0.561119 -0.820245 8.36303e-20)
(0.691439 -0.928957 2.13193e-20)
(0.767244 -0.943452 2.94073e-19)
(0.814644 -0.913661 -3.69257e-19)
(0.848373 -0.867867 -3.67081e-19)
(0.875229 -0.818874 -3.09299e-19)
(0.89739 -0.772595 2.25093e-19)
(0.926444 -0.736865 2.43815e-19)
(0.122297 -0.181593 -1.19878e-19)
(0.447743 -0.608738 -6.57307e-20)
(0.699245 -0.881827 2.27496e-19)
(0.845191 -0.993577 -1.57313e-19)
(0.921999 -1.00601 3.08017e-19)
(0.9642 -0.972445 7.30632e-19)
(0.990911 -0.922652 5.02328e-19)
(1.01062 -0.86996 -3.86484e-19)
(1.02619 -0.820412 -1.83603e-19)
(1.04978 -0.780388 2.63853e-19)
(0.157668 -0.198491 -2.59239e-19)
(0.55491 -0.645618 -7.01329e-19)
(0.848401 -0.925242 8.48895e-19)
(1.00913 -1.03662 7.8579e-19)
(1.08575 -1.0463 -7.05442e-19)
(1.12172 -1.00978 7.70861e-19)
(1.14065 -0.957516 1.18606e-19)
(1.15263 -0.90299 -9.11545e-19)
(1.16136 -0.851562 -2.21778e-19)
(1.17608 -0.807305 2.97238e-19)
(0.197847 -0.212532 1.37453e-20)
(0.670271 -0.669509 -6.28546e-19)
(1.00525 -0.94829 -4.54023e-19)
(1.17898 -1.05589 7.47628e-19)
(1.25359 -1.06209 5.91048e-19)
(1.28173 -1.02328 -6.92482e-19)
(1.29138 -0.969809 -5.68131e-19)
(1.29417 -0.914875 3.36144e-19)
(1.29485 -0.862063 -3.45153e-19)
(1.2938 -0.814309 -2.12147e-19)
(0.630703 -0.160413 1.06487e-20)
(0.806898 -0.123062 -2.26742e-20)
(0.889465 -0.0962647 1.12185e-20)
(0.937689 -0.0753425 4.87202e-21)
(0.965877 -0.0583766 -2.08302e-21)
(0.982546 -0.0444113 1.15645e-21)
(0.992738 -0.0328645 -7.01115e-22)
(0.999078 -0.0231848 -3.28634e-21)
(1.00286 -0.0152559 4.80016e-21)
(1.00529 -0.00600963 3.14312e-21)
(0.648234 -0.22972 7.8971e-20)
(0.817641 -0.160301 -2.99681e-21)
(0.897276 -0.116382 4.02571e-21)
(0.943626 -0.0865071 7.22553e-22)
(0.970584 -0.0648464 1.81872e-21)
(0.986355 -0.0482693 0)
(0.995854 -0.035204 -7.25657e-22)
(1.00167 -0.0245982 3.33507e-21)
(1.00509 -0.0160867 5.19737e-22)
(1.00724 -0.00631782 -3.22487e-21)
(0.676518 -0.296807 -4.36655e-20)
(0.833155 -0.196717 -2.27796e-20)
(0.907699 -0.136244 8.05628e-21)
(0.950922 -0.0975672 -8.7122e-21)
(0.976021 -0.0712276 -4.03253e-21)
(0.990586 -0.0520409 6.31394e-21)
(0.999226 -0.0374626 0)
(1.00442 -0.025943 0)
(1.00744 -0.0168643 -2.49912e-22)
(1.00927 -0.00660274 0)
(0.715459 -0.360405 -2.84043e-20)
(0.853312 -0.231762 3.93844e-20)
(0.920656 -0.155607 8.22479e-21)
(0.959561 -0.108409 0)
(0.982186 -0.0774562 4.62347e-21)
(0.995233 -0.0556876 4.56365e-22)
(1.00285 -0.0396164 0)
(1.00734 -0.0272039 -1.2115e-21)
(1.00989 -0.0175793 0)
(1.01137 -0.0068608 -9.21673e-23)
(0.764893 -0.419287 -2.55389e-20)
(0.877975 -0.264959 6.63658e-20)
(0.936041 -0.174244 -4.70746e-21)
(0.96952 -0.118925 0)
(0.989068 -0.0834719 -1.2584e-21)
(1.00029 -0.0591722 -1.6604e-21)
(1.00671 -0.0416416 6.43489e-21)
(1.01039 -0.0283657 1.31113e-21)
(1.01243 -0.0182222 -1.15754e-21)
(1.01354 -0.0070883 2.99315e-21)
(0.824402 -0.472189 -5.90777e-19)
(0.906976 -0.295954 -1.26736e-19)
(0.953728 -0.191979 2.04235e-21)
(0.98076 -0.129017 1.3895e-20)
(0.996655 -0.0892203 2.7693e-21)
(1.00573 -0.0624598 5.50611e-22)
(1.01079 -0.0435148 -5.2073e-21)
(1.01357 -0.0294127 2.38124e-22)
(1.01505 -0.0187832 -2.60048e-22)
(1.01577 -0.00728144 1.72492e-21)
(0.892963 -0.517634 -1.11786e-20)
(0.939845 -0.324256 5.21691e-20)
(0.973507 -0.208655 4.47507e-21)
(0.993214 -0.138603 -3.44124e-22)
(1.00492 -0.0946561 -1.02079e-20)
(1.01155 -0.0655202 5.47319e-21)
(1.01507 -0.0452147 5.47278e-22)
(1.01687 -0.0303302 -4.93235e-21)
(1.01773 -0.0192529 -2.75247e-22)
(1.01803 -0.00743637 -2.13023e-21)
(0.969101 -0.55476 2.48332e-19)
(0.975298 -0.349325 6.28905e-20)
(0.994679 -0.223988 0)
(1.00662 -0.14753 -2.69749e-21)
(1.01376 -0.099705 7.75089e-21)
(1.01769 -0.0683158 1.75029e-21)
(1.01954 -0.0467202 -2.48874e-21)
(1.02025 -0.0311046 7.25748e-22)
(1.02046 -0.0196229 2.83471e-23)
(1.02031 -0.00755039 4.00073e-22)
(1.05294 -0.585286 -3.61835e-19)
(1.01262 -0.372764 -1.71657e-19)
(1.01603 -0.238895 3.37029e-20)
(1.02021 -0.156124 1.37902e-21)
(1.0228 -0.104449 -2.04348e-21)
(1.02398 -0.0708511 -3.01066e-21)
(1.0241 -0.0480188 -5.51474e-22)
(1.02369 -0.031724 6.17655e-22)
(1.0232 -0.0198852 -3.75661e-21)
(1.0226 -0.00762326 -4.33231e-21)
(1.14614 -0.608212 2.47476e-19)
(1.05619 -0.394037 -1.68477e-19)
(1.03851 -0.254689 -2.47139e-20)
(1.03373 -0.165554 -1.93767e-20)
(1.03165 -0.109562 -8.68365e-21)
(1.03016 -0.073444 -4.07881e-21)
(1.02862 -0.0492355 -3.17829e-21)
(1.02711 -0.0322251 0)
(1.02593 -0.0200461 1.64783e-21)
(1.02489 -0.00764269 1.00022e-21)
(1.29121 -0.592566 3.89235e-19)
(1.14722 -0.392002 1.12615e-19)
(1.08947 -0.255675 -6.9215e-20)
(1.06298 -0.166961 3.29325e-21)
(1.04899 -0.110415 4.47046e-21)
(1.04095 -0.0737199 -1.065e-22)
(1.03569 -0.0491519 4.36444e-21)
(1.03201 -0.0319904 2.54135e-21)
(1.02958 -0.0197963 -2.61929e-21)
(1.02781 -0.00752734 8.61042e-22)
(1.3429 -0.494596 -5.96857e-21)
(1.18488 -0.340293 1.13965e-19)
(1.11969 -0.230229 8.64575e-20)
(1.08559 -0.154686 -9.89833e-21)
(1.06476 -0.103901 3.69375e-20)
(1.05174 -0.0698557 2.29615e-20)
(1.04318 -0.0466836 1.63104e-20)
(1.03739 -0.0303919 -1.46112e-21)
(1.0337 -0.0188 5.68473e-21)
(1.03113 -0.00713739 3.98784e-21)
(1.39574 -0.423562 -1.16492e-19)
(1.23238 -0.302654 -9.14689e-21)
(1.15311 -0.209117 3.43735e-21)
(1.10841 -0.142515 -2.71781e-37)
(1.08018 -0.0964743 2.15173e-21)
(1.06219 -0.0650766 -6.4268e-35)
(1.0504 -0.0435182 -4.12767e-21)
(1.04254 -0.0283129 -2.67043e-34)
(1.03761 -0.0174982 1.10137e-21)
(1.03426 -0.00663703 -3.23444e-21)
(1.4289 -0.349877 -1.79322e-34)
(1.26743 -0.25919 -2.82658e-20)
(1.18039 -0.183396 -3.065e-20)
(1.1281 -0.127058 0)
(1.09394 -0.0868293 -1.63968e-20)
(1.07168 -0.0588367 -1.08715e-20)
(1.05701 -0.0394084 -5.05793e-21)
(1.04729 -0.0256408 -3.77741e-34)
(1.04122 -0.015842 -1.26142e-21)
(1.03712 -0.00600695 3.15467e-21)
(1.44991 -0.282406 -6.58965e-20)
(1.29429 -0.216078 3.57187e-21)
(1.20271 -0.155973 0)
(1.14478 -0.109536 0)
(1.10588 -0.0754851 0)
(1.08005 -0.0513759 0)
(1.06289 -0.0344755 -9.31374e-22)
(1.05151 -0.0224406 -4.24527e-34)
(1.04442 -0.0138654 1.03628e-21)
(1.03966 -0.00525743 3.85163e-34)
(1.46274 -0.220242 -2.0824e-20)
(1.31429 -0.173252 0)
(1.22038 -0.127244 0)
(1.15841 -0.0904046 0)
(1.11585 -0.0627638 0)
(1.08713 -0.0428936 0)
(1.0679 -0.0288385 1.68947e-21)
(1.05512 -0.0187823 3.94589e-21)
(1.04717 -0.0116074 1.00558e-21)
(1.04183 -0.00440153 3.69878e-21)
(1.47015 -0.162914 0)
(1.32859 -0.131162 -8.77893e-21)
(1.23377 -0.0977192 -1.29651e-20)
(1.16904 -0.0700952 0)
(1.12376 -0.0489694 -8.18957e-21)
(1.09281 -0.0335876 -5.69914e-21)
(1.07195 -0.0226221 -2.18921e-21)
(1.05805 -0.0147426 -2.39475e-21)
(1.0494 -0.00911193 3.6768e-21)
(1.04358 -0.00345511 2.46288e-21)
(1.4734 -0.109408 5.68033e-21)
(1.33743 -0.089828 4.87275e-21)
(1.24258 -0.0676222 -2.26187e-21)
(1.1762 -0.0488564 3.96673e-36)
(1.12911 -0.0342945 -5.14314e-22)
(1.09662 -0.023588 -4.67837e-35)
(1.0746 -0.0159087 1.51302e-21)
(1.0599 -0.0103708 5.1822e-21)
(1.05074 -0.00640312 8.80382e-22)
(1.04456 -0.00242124 -2.85226e-21)
(1.4598 -0.0578385 -2.64245e-20)
(1.32794 -0.0512759 8.39796e-21)
(1.23492 -0.0395187 9.70461e-21)
(1.16894 -0.0288547 0)
(1.12174 -0.0203653 5.7597e-21)
(1.08897 -0.0140467 4.01754e-21)
(1.06668 -0.00948589 4.13173e-21)
(1.05179 -0.00618595 1.73262e-21)
(1.0425 -0.00381495 -1.12255e-21)
(1.03625 -0.00143783 3.15932e-21)
(1.18931 -0.00638481 0)
(1.09415 -0.00852009 0)
(1.02214 -0.00713979 0)
(0.969443 -0.0053369 0)
(0.931282 -0.00379714 0)
(0.904629 -0.00263298 0)
(0.886433 -0.00178331 1.38949e-21)
(0.874252 -0.00116667 -7.0218e-36)
(0.866651 -0.000704439 9.12591e-22)
(0.861579 -0.000254213 2.73618e-21)
(2.06735 -0.0331272 8.22207e-19)
(2.05585 -0.134906 5.59736e-20)
(2.02717 -0.234251 -1.14982e-19)
(1.98174 -0.32905 -3.25206e-19)
(1.92137 -0.417415 -1.05331e-19)
(1.84577 -0.49849 -1.61197e-19)
(1.76286 -0.56587 -4.0137e-19)
(1.65759 -0.633943 1.21781e-19)
(1.57565 -0.658687 0)
(1.42673 -0.735184 4.22659e-20)
(1.98339 -0.0244825 2.25965e-19)
(1.97428 -0.100992 -3.10481e-19)
(1.95251 -0.17629 -2.09319e-20)
(1.91754 -0.249202 -1.29125e-19)
(1.87306 -0.317468 3.68014e-20)
(1.81339 -0.384075 1.26008e-19)
(1.75523 -0.434176 -1.84233e-20)
(1.66941 -0.502164 7.4015e-20)
(1.61357 -0.511871 -9.41212e-20)
(1.50546 -0.593419 2.47551e-20)
(1.9129 -0.018559 -1.0842e-19)
(1.90591 -0.0791374 2.16574e-19)
(1.88896 -0.138555 1.72441e-19)
(1.86104 -0.196389 -2.25695e-19)
(1.82631 -0.25014 6.22525e-20)
(1.77829 -0.304739 1.63831e-19)
(1.73296 -0.343275 -3.56064e-20)
(1.66572 -0.403264 4.7024e-20)
(1.61763 -0.410175 5.42544e-20)
(1.53841 -0.481955 7.18737e-20)
(1.85833 -0.0157934 -2.19884e-19)
(1.85267 -0.0624434 1.0363e-20)
(1.83863 -0.10835 -5.85597e-20)
(1.81551 -0.153514 -4.63318e-20)
(1.78666 -0.195558 -3.58672e-20)
(1.7474 -0.239357 -9.12106e-20)
(1.70897 -0.270013 9.93134e-20)
(1.65611 -0.319286 1.94386e-20)
(1.613 -0.326344 -4.6693e-21)
(1.55339 -0.384696 9.3078e-21)
(1.81568 -0.0128633 4.25883e-20)
(1.81095 -0.0485364 7.336e-20)
(1.79894 -0.083648 -4.32046e-20)
(1.77931 -0.118339 1.91977e-19)
(1.75432 -0.150735 -4.48856e-21)
(1.72151 -0.18475 -1.42387e-19)
(1.68759 -0.209049 2.13111e-20)
(1.64487 -0.24735 -7.60575e-20)
(1.60604 -0.254663 8.21894e-20)
(1.55894 -0.29975 5.77449e-20)
(1.7832 -0.0110754 -1.166e-19)
(1.77918 -0.0374272 -5.53663e-20)
(1.76857 -0.0633904 1.64255e-20)
(1.75138 -0.0891436 7.81332e-20)
(1.72899 -0.113374 9.32845e-20)
(1.70062 -0.13886 -4.06696e-20)
(1.66981 -0.157709 3.2828e-21)
(1.63372 -0.18636 2.36723e-20)
(1.59818 -0.193469 5.23906e-20)
(1.55882 -0.227136 -4.12236e-20)
(1.75935 -0.00979447 -4.09474e-20)
(1.75591 -0.0281145 -8.41779e-20)
(1.74631 -0.0461638 -7.70332e-20)
(1.73082 -0.0641463 -1.35144e-19)
(1.71021 -0.0812413 8.53279e-21)
(1.68476 -0.0993004 1.24454e-20)
(1.65606 -0.113159 2.77553e-20)
(1.62408 -0.133653 3.41167e-21)
(1.59096 -0.139894 -3.30806e-20)
(1.5562 -0.164157 -1.41512e-22)
(1.74045 -0.00861886 4.21001e-20)
(1.73785 -0.0197607 2.48276e-20)
(1.72941 -0.030691 1.19855e-20)
(1.7155 -0.0415876 -2.21629e-20)
(1.69652 -0.0520799 -1.85583e-20)
(1.67328 -0.0634026 5.81588e-21)
(1.64619 -0.0723814 -1.04087e-20)
(1.61674 -0.0859317 -1.0402e-20)
(1.58524 -0.0905493 3.37093e-22)
(1.55301 -0.10766 3.0381e-20)
(1.68855 -0.0104621 -4.14926e-20)
(1.68718 -0.0142207 -4.24255e-21)
(1.68178 -0.0177464 6.61168e-20)
(1.67219 -0.0212835 -6.91186e-21)
(1.65822 -0.0246904 -1.08985e-20)
(1.64072 -0.0289594 1.14765e-20)
(1.61891 -0.0320192 9.89161e-22)
(1.59546 -0.0388312 -9.70963e-21)
(1.56725 -0.0403094 1.4664e-20)
(1.54168 -0.0509291 5.62149e-20)
(1.24705 -0.0057557 3.77957e-20)
(1.24095 -0.00401588 2.81871e-20)
(1.23621 -0.00230557 2.5391e-20)
(1.23302 -0.000720555 3.56169e-20)
(1.23079 0.000691916 -1.22136e-20)
(1.22998 0.00175647 -1.38507e-20)
(1.22781 0.00280568 6.87801e-22)
(1.22913 0.00228536 2.45166e-21)
(1.22149 0.00398443 -3.95811e-21)
(1.22884 -0.000298273 4.28204e-21)
(1.36547 0.734228 -5.19913e-20)
(1.35621 0.782472 2.52319e-20)
(1.36169 0.83635 -4.22496e-19)
(1.37097 0.896332 2.20586e-19)
(1.3803 0.960573 7.95781e-19)
(1.38704 1.02738 -1.4034e-19)
(1.37973 1.08842 -8.22636e-19)
(1.31671 1.10477 -4.03992e-20)
(1.09345 0.964864 -4.82687e-19)
(0.53158 0.490057 1.09749e-19)
(1.51557 0.709573 0)
(1.51399 0.756418 5.23071e-19)
(1.51837 0.807496 1.16869e-18)
(1.52769 0.86543 -6.96993e-19)
(1.54031 0.928727 -1.68032e-18)
(1.55252 0.995294 -1.3989e-19)
(1.55019 1.05622 -1.79712e-19)
(1.48447 1.07243 6.67398e-19)
(1.23434 0.934142 1.04433e-18)
(0.598372 0.470976 4.42173e-19)
(1.64494 0.683958 6.40696e-20)
(1.65412 0.72806 0)
(1.66436 0.775345 -6.69763e-20)
(1.6785 0.82854 7.12144e-19)
(1.69651 0.887228 5.29373e-20)
(1.71466 0.949735 -1.80493e-18)
(1.7169 1.00705 1.17606e-18)
(1.64755 1.02077 7.94322e-19)
(1.36957 0.885254 -9.50635e-19)
(0.660822 0.441905 -2.91761e-19)
(1.75395 0.643803 -1.10134e-19)
(1.77276 0.684051 -8.96995e-20)
(1.79203 0.727173 2.15504e-19)
(1.81451 0.775379 -2.70886e-19)
(1.84042 0.82877 -1.31611e-18)
(1.86598 0.885954 -1.02339e-18)
(1.87325 0.93798 1.16427e-18)
(1.79969 0.947874 8.07953e-19)
(1.49314 0.816717 0)
(0.714827 0.401871 0)
(1.84907 0.58346 -7.66297e-19)
(1.87583 0.619685 -1.31449e-18)
(1.90393 0.658608 -5.27954e-19)
(1.93521 0.701828 -3.48684e-20)
(1.96961 0.749611 0)
(2.00293 0.800723 1.45724e-19)
(2.01492 0.846432 1.72977e-19)
(1.93605 0.852023 2.22356e-19)
(1.60021 0.728067 -3.39744e-19)
(0.7573 0.351512 -8.60826e-20)
(1.93437 0.504766 9.11544e-19)
(1.96724 0.536753 -4.5431e-20)
(2.00256 0.571097 -1.08819e-18)
(2.04143 0.608894 0)
(2.08339 0.650448 0)
(2.12353 0.694653 0)
(2.13893 0.733149 1.49583e-18)
(2.05287 0.734424 -1.89468e-18)
(1.68755 0.621417 -1.37333e-18)
(0.786258 0.293036 2.86388e-20)
(2.00907 0.412115 -1.23436e-18)
(2.04648 0.439169 -2.59043e-18)
(2.08732 0.468024 -4.52663e-21)
(2.13217 0.499512 5.2944e-19)
(2.18023 0.53394 -4.25941e-20)
(2.22562 0.570316 1.24811e-18)
(2.24241 0.601159 -7.36927e-19)
(2.14784 0.597907 -2.42433e-18)
(1.75194 0.500658 1.71162e-19)
(0.801366 0.230352 1.3262e-19)
(2.07007 0.309222 -1.00648e-18)
(2.11092 0.330368 1.8133e-20)
(2.1559 0.352668 3.94603e-19)
(2.20525 0.376892 -3.84184e-19)
(2.25784 0.403296 6.01075e-19)
(2.30677 0.431103 1.76817e-18)
(2.32331 0.452912 -2.35154e-19)
(2.21708 0.448245 -1.41739e-18)
(1.79138 0.371426 3.75789e-19)
(0.803492 0.164713 7.25018e-20)
(2.11448 0.19877 3.79188e-19)
(2.15787 0.213232 8.9107e-20)
(2.20584 0.228101 -4.25127e-19)
(2.25834 0.244222 -9.7882e-19)
(2.31398 0.261824 1.00913e-19)
(2.36471 0.279964 1.06996e-19)
(2.37836 0.294138 -1.72215e-18)
(2.25856 0.290091 8.1258e-19)
(1.80672 0.236291 2.83048e-19)
(0.792651 0.0988425 -2.1019e-19)
(2.14075 0.0831854 7.60482e-19)
(2.18578 0.0901459 -1.16376e-18)
(2.23539 0.0969669 1.92759e-19)
(2.28961 0.104501 2.46152e-18)
(2.34669 0.112794 1.30798e-18)
(2.39726 0.121581 -3.04907e-18)
(2.40585 0.128523 -3.37532e-18)
(2.27227 0.126692 1.8793e-18)
(1.79754 0.0996039 -3.10338e-21)
(0.769537 0.0351773 1.78882e-20)
(0.521897 0.193037 -1.9487e-19)
(0.487563 0.199689 -1.75591e-19)
(0.445127 0.206946 1.065e-19)
(0.396929 0.214777 -3.54333e-19)
(0.34406 0.223211 -4.89761e-20)
(0.285923 0.232191 2.97441e-19)
(0.221297 0.240511 8.57274e-20)
(0.149718 0.241654 -5.58229e-20)
(0.0767597 0.214464 -9.71252e-21)
(0.0133801 0.115859 2.62311e-20)
(0.548286 0.292756 1.57563e-19)
(0.51477 0.306106 2.28733e-19)
(0.473678 0.320879 3.48803e-20)
(0.427059 0.336845 -1.00719e-19)
(0.3759 0.353972 -3.32729e-19)
(0.319603 0.372186 2.08534e-20)
(0.256712 0.389417 2.00974e-19)
(0.185654 0.394336 -1.68914e-21)
(0.108903 0.350771 -4.32213e-20)
(0.0307747 0.188164 -1.31322e-20)
(0.591709 0.388261 -1.72684e-19)
(0.55966 0.408076 -1.86897e-19)
(0.520903 0.429987 1.61626e-19)
(0.476977 0.453665 1.50322e-19)
(0.428699 0.47905 -6.21444e-20)
(0.375468 0.506042 -1.2829e-19)
(0.315438 0.531717 -8.5231e-20)
(0.245126 0.540094 2.86316e-20)
(0.161802 0.480533 -3.19725e-20)
(0.0590689 0.25655 5.81768e-21)
(0.651097 0.477365 9.56927e-20)
(0.621136 0.503316 -2.76856e-21)
(0.585641 0.531817 -1.31097e-19)
(0.545462 0.562597 8.78838e-20)
(0.501179 0.595617 -9.29099e-20)
(0.452194 0.630736 3.77437e-20)
(0.396115 0.66419 -1.17624e-19)
(0.326766 0.675603 -4.95235e-20)
(0.234097 0.600761 -2.14337e-19)
(0.0973915 0.319314 5.02077e-20)
(0.724988 0.558066 -3.048e-20)
(0.697692 0.589723 -1.16628e-20)
(0.666326 0.624116 -4.24253e-20)
(0.6309 0.661219 -1.47149e-19)
(0.591688 0.701071 6.43257e-20)
(0.54807 0.743472 -8.88921e-20)
(0.496965 0.78384 1.57289e-19)
(0.428827 0.797703 -6.40523e-21)
(0.324071 0.708578 2.81865e-19)
(0.144695 0.374949 2.18151e-19)
(0.811444 0.628569 2.39898e-21)
(0.787266 0.665245 -5.7805e-20)
(0.760722 0.704543 1.62158e-19)
(0.730904 0.746954 8.74366e-20)
(0.697731 0.792661 1.8848e-19)
(0.660528 0.841359 9.2408e-20)
(0.615346 0.887631 3.79327e-19)
(0.548644 0.903222 1.86039e-19)
(0.429537 0.800862 1.68721e-19)
(0.199758 0.421675 1.91039e-19)
(0.908293 0.686993 -9.29904e-20)
(0.888113 0.728034 2.66072e-19)
(0.867503 0.771288 1.53629e-19)
(0.844408 0.817888 -1.56556e-19)
(0.81827 0.868281 -8.8136e-20)
(0.788343 0.922092 4.42031e-19)
(0.749708 0.973132 -9.57055e-20)
(0.684299 0.989769 -2.90556e-19)
(0.548427 0.875539 -4.51411e-20)
(0.261132 0.458263 2.14682e-19)
(1.00886 0.732867 1.53638e-19)
(0.992269 0.77668 5.28658e-20)
(0.978175 0.822299 -5.23332e-19)
(0.963142 0.871883 4.59746e-20)
(0.945785 0.925908 3.13981e-19)
(0.924941 0.98368 -2.40477e-19)
(0.894346 1.03816 -5.12057e-20)
(0.830741 1.05482 -1.31544e-19)
(0.676434 0.930084 1.45111e-20)
(0.32642 0.48338 -2.78262e-19)
(1.12411 0.756426 2.26547e-20)
(1.1144 0.803335 -3.5262e-19)
(1.1076 0.85056 -2.71283e-21)
(1.09959 0.902105 2.87535e-19)
(1.08933 0.959096 -2.83319e-19)
(1.076 1.02047 5.94497e-19)
(1.05212 1.07825 4.4029e-19)
(0.98875 1.09547 -7.36738e-19)
(0.812963 0.963334 -5.33826e-20)
(0.394725 0.497074 -3.03508e-19)
(1.20605 0.771176 -1.96351e-19)
(1.20815 0.819474 -1.9923e-19)
(1.21803 0.868216 2.27618e-19)
(1.22561 0.920893 4.88976e-19)
(1.22885 0.978575 2.01537e-19)
(1.2274 1.04051 -5.02599e-19)
(1.21287 1.09849 2.68938e-20)
(1.15058 1.11405 1.63839e-19)
(0.952256 0.975647 -2.52275e-19)
(0.463415 0.49929 -2.21687e-19)
(0.74204 0.0228788 1.41119e-20)
(1.18635 0.0381665 -1.99439e-20)
(0.916708 0.0438115 -7.24393e-21)
(1.01658 0.0471118 0)
(0.990915 0.0545565 1.99372e-20)
(0.97024 0.0651692 2.44101e-20)
(0.945259 0.0794735 3.11374e-20)
(0.896972 0.0980645 6.3202e-20)
(0.831927 0.12389 -9.25526e-20)
(0.66107 0.158656 -1.03897e-19)
(0.741643 0.0204196 3.79525e-20)
(1.18649 0.0381736 -6.75088e-20)
(0.917313 0.0461763 -9.52866e-22)
(1.01836 0.0487776 -1.11896e-20)
(0.993557 0.0581241 9.92187e-21)
(0.97405 0.0711532 -1.25986e-20)
(0.950312 0.0898367 -7.80379e-20)
(0.9045 0.115588 0)
(0.841204 0.159272 2.01232e-19)
(0.682092 0.22186 -2.4597e-19)
(0.741043 0.0180248 -5.19091e-20)
(1.1868 0.0380428 1.85939e-20)
(0.917804 0.0483049 3.15922e-20)
(1.02055 0.0502372 1.59271e-20)
(0.996563 0.0615053 -2.3917e-20)
(0.978537 0.0769779 3.41599e-22)
(0.956451 0.100022 -5.56857e-20)
(0.91474 0.133011 -4.97599e-21)
(0.854222 0.194021 2.76891e-22)
(0.715794 0.283042 6.1599e-19)
(0.740232 0.0158142 -1.18795e-20)
(1.18722 0.0377755 3.97801e-21)
(0.918194 0.0501455 2.72902e-20)
(1.02316 0.0514819 1.49531e-20)
(0.999943 0.06468 -1.17622e-20)
(0.983704 0.0825994 -1.45248e-20)
(0.963741 0.10994 8.34654e-20)
(0.927589 0.150201 -1.47552e-21)
(0.871152 0.227851 -2.49951e-19)
(0.761496 0.340944 6.53202e-20)
(0.739204 0.0138575 9.98664e-21)
(1.1877 0.0373539 -3.81034e-20)
(0.918505 0.0516428 -2.12801e-20)
(1.0262 0.0525085 6.63911e-21)
(1.0037 0.06763 0)
(0.989548 0.0879779 0)
(0.972253 0.119524 7.13466e-20)
(0.942934 0.167015 2.53744e-22)
(0.892182 0.260353 -1.2108e-19)
(0.818336 0.394574 8.97488e-20)
(0.737946 0.0122292 -4.43912e-22)
(1.18813 0.0367495 3.21643e-20)
(0.918767 0.0527404 -4.58206e-20)
(1.02969 0.0533208 -3.29654e-20)
(1.00783 0.0703377 -2.87389e-22)
(0.996065 0.0930799 5.94073e-20)
(0.982048 0.128737 1.11513e-19)
(0.960611 0.183294 -7.74485e-22)
(0.917609 0.290754 2.00776e-19)
(0.88526 0.443742 -1.96551e-19)
(0.736443 0.0110202 -2.42275e-20)
(1.18844 0.0359215 1.67672e-20)
(0.91902 0.0533822 -6.99255e-21)
(1.03365 0.0539318 -5.51214e-20)
(1.01231 0.0727838 9.02895e-22)
(1.00326 0.0978764 -1.12227e-21)
(0.993166 0.137545 -6.66961e-21)
(0.980379 0.19895 -1.9678e-19)
(0.947894 0.317792 1.51352e-19)
(0.960301 0.487416 -4.59154e-19)
(0.734674 0.0103179 8.82299e-21)
(1.18852 0.0348014 -4.96466e-20)
(0.919319 0.0535136 1.85876e-20)
(1.03807 0.0543624 4.23318e-20)
(1.01714 0.0749388 4.65214e-22)
(1.01113 0.102327 -6.93811e-20)
(1.00564 0.145846 -6.13051e-20)
(1.00196 0.214041 3.54346e-19)
(0.983525 0.341573 1.10694e-20)
(1.0417 0.529999 7.40353e-19)
(0.732611 0.010232 -1.30968e-21)
(1.18835 0.0333162 2.20468e-20)
(0.919742 0.053061 8.24542e-21)
(1.04295 0.0546292 -4.43829e-20)
(1.02224 0.0767541 -7.44024e-20)
(1.01962 0.106317 1.50589e-21)
(1.01938 0.153161 -8.4376e-20)
(1.02533 0.22678 4.60426e-19)
(1.02691 0.355784 -7.11653e-21)
(1.1252 0.554612 -1.00878e-18)
(0.730278 0.0109776 6.05356e-21)
(1.18861 0.0316949 3.29468e-20)
(0.920187 0.051988 1.19612e-20)
(1.04829 0.0547766 -9.70814e-20)
(1.02729 0.0783894 -7.00796e-20)
(1.02766 0.11056 -5.88778e-20)
(1.03151 0.162049 -1.51228e-19)
(1.04378 0.244303 -4.30974e-19)
(1.06404 0.381465 -2.49107e-19)
(1.20749 0.609886 -1.10407e-18)
(0.729638 0.0110282 -1.70094e-20)
(1.19106 0.0292234 -6.80889e-21)
(0.921861 0.0491811 -1.03527e-20)
(1.05434 0.0539541 6.26183e-21)
(1.03617 0.0775271 5.14052e-20)
(1.04211 0.110405 -4.07176e-20)
(1.0551 0.16198 1.357e-19)
(1.08211 0.242045 -4.26785e-19)
(1.12958 0.363392 -1.79437e-19)
(1.24742 0.591665 5.87811e-19)
(0.73007 0.00878582 1.30484e-20)
(1.19495 0.0260626 1.28203e-20)
(0.92612 0.0441347 1.30178e-21)
(1.05971 0.0512914 4.18129e-20)
(1.04648 0.0735786 7.99951e-20)
(1.05761 0.105356 1.18824e-19)
(1.07887 0.153754 2.85231e-20)
(1.1191 0.226649 2.24556e-19)
(1.18075 0.331055 2.90126e-19)
(1.32043 0.508569 -7.53024e-21)
(0.730271 0.00594462 -1.7167e-20)
(1.19908 0.0224605 -4.06931e-21)
(0.930675 0.0389299 -6.26061e-21)
(1.06518 0.0474586 1.73403e-20)
(1.05637 0.0682337 2.20675e-34)
(1.07218 0.0979368 -8.19141e-21)
(1.1004 0.141914 -5.40478e-34)
(1.15088 0.206242 1.90872e-20)
(1.21985 0.291275 -5.35951e-20)
(1.37579 0.433555 -4.62523e-20)
(0.730537 0.00226292 3.15321e-20)
(1.20318 0.0181892 -4.39298e-35)
(0.935202 0.03343 5.97062e-21)
(1.07053 0.0425868 -1.64971e-20)
(1.06549 0.06155 -3.17474e-20)
(1.08537 0.0884475 -3.96585e-20)
(1.11936 0.127204 -6.70378e-34)
(1.17729 0.182535 -9.67713e-20)
(1.25107 0.249829 -1.33484e-19)
(1.4123 0.360961 8.52091e-20)
(0.730936 -0.00241033 0)
(1.20738 0.0133095 9.99423e-36)
(0.939631 0.0276663 0)
(1.07558 0.0368559 0)
(1.07365 0.0536834 0)
(1.09693 0.0772056 0)
(1.13559 0.110241 -4.00727e-34)
(1.19858 0.156412 0)
(1.27586 0.208213 -2.04134e-20)
(1.43401 0.292814 5.17898e-20)
(0.731543 -0.00809565 1.87689e-20)
(1.21192 0.00792153 -2.76456e-21)
(0.943943 0.0217573 5.28949e-21)
(1.08015 0.0304598 0)
(1.08069 0.0448286 0)
(1.10669 0.0645491 6.9305e-21)
(1.149 0.0915881 2.78976e-20)
(1.21525 0.128641 -1.41924e-20)
(1.29494 0.16732 -3.02204e-20)
(1.44605 0.22926 1.95631e-19)
(0.73244 -0.0154437 -5.49157e-20)
(1.21702 0.0019925 4.52429e-21)
(0.94812 0.0158672 4.91591e-21)
(1.08411 0.0236029 -5.21248e-21)
(1.08649 0.0351906 -1.07376e-20)
(1.11455 0.0507968 -8.58594e-21)
(1.15958 0.0717056 -2.08943e-20)
(1.2278 0.0998453 -3.96652e-20)
(1.30897 0.12749 -5.36256e-20)
(1.45221 0.170266 7.96939e-20)
(0.733636 -0.0214667 -2.65283e-20)
(1.22292 -0.00391666 -1.4782e-20)
(0.95196 0.0105272 4.39797e-21)
(1.08704 0.0164854 -1.29056e-20)
(1.09068 0.0249487 5.75222e-35)
(1.12021 0.036217 7.47285e-21)
(1.16715 0.0509114 -9.65583e-34)
(1.23652 0.0703544 -1.4367e-20)
(1.31837 0.0885036 1.89354e-20)
(1.45498 0.114491 2.58362e-20)
(0.732634 -0.0391939 1.7559e-19)
(1.21961 -0.011219 -1.05651e-20)
(0.947069 0.00400803 4.24322e-21)
(1.08066 0.010146 2.67285e-21)
(1.08504 0.014905 3.21522e-21)
(1.11557 0.0219505 1.3774e-20)
(1.16376 0.030765 7.76812e-21)
(1.23381 0.0423009 -5.36183e-21)
(1.31556 0.0524948 -2.19434e-20)
(1.44873 0.0656361 1.37532e-19)
(0.673261 -0.0267837 2.29544e-20)
(1.04121 -0.012004 -7.25038e-35)
(0.782446 0.00274874 3.46742e-21)
(0.907433 0.0011011 0)
(0.906535 0.00306173 0)
(0.933652 0.00455472 7.70754e-21)
(0.976312 0.00632491 -9.22984e-36)
(1.0373 0.00883981 -1.42643e-20)
(1.10931 0.0107312 -2.76999e-20)
(1.21801 0.0127339 5.63522e-20)
(1.44491 0.62151 -1.71578e-19)
(1.53647 0.612412 -2.76634e-19)
(1.63388 0.596387 0)
(1.7237 0.563383 9.93445e-20)
(1.80487 0.509822 4.80882e-19)
(1.8792 0.438817 -1.33355e-19)
(1.9452 0.35565 1.41689e-18)
(1.99925 0.264576 -6.22306e-20)
(2.03863 0.168108 -3.4672e-19)
(2.06152 0.0688482 3.11729e-19)
(1.48564 0.509941 6.65622e-20)
(1.5513 0.502192 1.09598e-19)
(1.62943 0.4813 -4.87742e-21)
(1.70708 0.444678 1.67039e-19)
(1.77672 0.395291 -1.46759e-19)
(1.83788 0.336573 -3.68703e-19)
(1.89022 0.271171 -9.0571e-20)
(1.93205 0.201015 5.1511e-19)
(1.96205 0.127605 -1.98235e-20)
(1.97926 0.0520649 -4.35169e-19)
(1.51803 0.406495 9.6837e-20)