/*--------------------------------*- C++ -*----------------------------------*\
  =========                 |
  \\      /  F ield         | OpenFOAM: The Open Source CFD Toolbox
   \\    /   O peration     | Website:  https://openfoam.org
    \\  /    A nd           | Version:  13
     \\/     M anipulation  |
\*---------------------------------------------------------------------------*/
FoamFile
{
    format      ascii;
    class       volScalarField;
    location    "0.925";
    object      p;
}
// * * * * * * * * * * * * * * * * * * * * * * * * * * * * * * * * * * * * * //

dimensions      [0 2 -2 0 0 0 0];

internalField   nonuniform List<scalar> 
440
(
7.828
10.5844
12.9468
13.1283
10.1518
20.7178
24.1011
27.0965
27.7969
25.9086
41.2542
44.2855
46.9886
47.7812
46.6201
67.387
69.4848
71.3982
72.0549
71.3673
96.6633
97.4802
98.2772
98.6773
98.6437
-0.450082
-0.550264
-0.0788895
0.482505
0.825749
-1.67105
-2.33884
-2.08077
-1.38624
-0.748763
-2.01482
-2.89822
-2.82355
-2.07175
-0.955541
-0.675549
-0.808871
-0.405914
0.555427
2.41866
3.08614
4.39738
5.82591
7.25606
9.50459
2.088
2.26718
1.33545
0.680927
0.239936
1.06216
2.08164
1.21882
0.622149
0.236407
-0.0905964
1.67091
1.09072
0.576441
0.228664
-0.4026
1.06521
0.880838
0.544745
0.214767
1.50313
0.473911
0.597056
0.485837
0.187535
4.37265
0.245355
0.346678
0.411947
0.140809
6.7192
0.71034
0.449683
0.407191
0.0769663
9.98378
2.44786
1.09292
0.540609
0.0436007
13.8719
4.74602
2.13555
0.823945
0.0553164
16.6077
7.1071
3.4552
1.31424
0.162641
100.688
75.8391
53.3233
33.1481
12.345
102.383
78.9418
57.5367
39.0568
23.4829
104.284
82.7013
62.4745
45.2344
32.8878
105.167
85.0202
66.502
51.1827
40.6562
105.086
84.7428
66.3279
51.2503
40.8957
219.867
216.385
216.089
218.204
220.937
202.688
200.22
200.479
203.219
206.511
180.539
178.766
179.13
181.552
184.431
154.74
153.398
153.603
155.196
157.093
126.86
126.146
126.086
126.546
127.138
235.598
236.03
236.674
237.104
236.852
236.158
236.797
237.357
237.338
236.387
234.934
235.91
236.326
236.053
235.067
230.045
231.643
232.204
232.338
232.247
221.564
223.426
224.435
225.642
226.996
235.711
234.733
234.894
234.149
234.281
235.675
234.716
234.842
234.102
234.799
235.663
234.674
234.776
234.209
235.306
235.664
234.607
234.765
234.458
234.891
235.671
234.518
234.832
234.656
232.206
235.688
234.37
234.878
234.429
228.724
235.888
234.23
234.767
233.93
226.353
236.798
234
234.143
232.249
223.332
240.848
233.977
232.966
229.793
219.662
249.82
234.705
231.743
227.249
216.912
217.761
196.234
175.026
151.732
126.446
207.364
191.368
172.323
150.42
126.65
198.876
186.196
168.614
148.087
126.333
191.744
180.784
165.099
146.261
125.919
191.527
180.764
165.354
146.66
126.149
96.3953
95.5184
95.0707
94.3038
94.1472
57.3131
55.3662
53.6608
51.7389
50.973
29.482
27.1388
24.376
22.0768
20.7522
15.0299
12.6133
10.1477
8.12747
7.15688
9.2001
7.31232
5.92556
4.95032
4.3631
5.96939
4.86745
4.28805
4.19971
4.28808
4.05995
3.60088
3.52939
3.68556
3.83938
2.74989
2.73718
2.97183
3.27596
3.43456
1.65001
1.95482
2.40727
2.75836
2.90323
0.605995
1.00205
1.57504
1.97778
2.15246
3.60918
3.17581
2.06215
0.94968
0.268609
3.66263
3.00378
1.96998
0.894053
0.25842
3.46265
2.74083
1.8409
0.843575
0.251479
3.1421
2.49655
1.67781
0.793372
0.247603
2.72762
2.351
1.49475
0.739062
0.244018
4.47651
3.1581
1.97493
0.994746
0.304826
3.7403
3.25382
2.06409
0.986372
0.28291
94.9028
54.1431
27.505
14.4811
9.46071
93.6816
51.1336
22.9814
9.46532
5.25491
232.146
232.227
232.176
231.659
230.581
232.733
232.906
233.135
233.173
232.797
233.296
233.469
233.856
234.254
234.424
233.899
234.051
234.455
235.06
235.48
234.649
234.885
235.391
236.008
236.27
141.98
141.788
140.96
140.45
139.538
185.215
184.406
182.428
180.661
178.684
215.515
214.145
211.796
208.981
206.607
229.153
228.145
226.095
223.597
221.151
232.001
231.387
230.415
229.031
227.132
238.823
234.448
234.525
233.516
232.898
237.118
234.49
234.614
233.683
232.915
236.349
234.58
234.718
233.907
233.246
235.975
234.663
234.822
234.112
233.628
235.793
234.716
234.89
234.199
233.947
252.265
235.787
234.881
233.453
231.981
243.171
234.693
234.463
233.396
232.702
226.938
221.864
208.756
182.038
141.229
231.135
226.892
213.309
185.062
142.453
)
;

boundaryField
{
    left
    {
        type            zeroGradient;
    }
    right
    {
        type            fixedValue;
        value           uniform 0;
    }
    down
    {
        type            zeroGradient;
    }
    up
    {
        type            zeroGradient;
    }
    cylinder
    {
        type            zeroGradient;
    }
    defaultFaces
    {
        type            empty;
    }
}


// ************************************************************************* //
