/*--------------------------------*- C++ -*----------------------------------*\
  =========                 |
  \\      /  F ield         | OpenFOAM: The Open Source CFD Toolbox
   \\    /   O peration     | Website:  https://openfoam.org
    \\  /    A nd           | Version:  13
     \\/     M anipulation  |
\*---------------------------------------------------------------------------*/
FoamFile
{
    format      ascii;
    class       surfaceScalarField;
    location    "66.3";
    object      phi;
}
// * * * * * * * * * * * * * * * * * * * * * * * * * * * * * * * * * * * * * //

dimensions      [0 3 -1 0 0 0 0];

internalField   nonuniform List<scalar> 
823
(
0.0174394
0.0130453
-0.0304848
0.0481798
0.0061471
-0.0368875
0.103775
-0.041605
-0.0139899
0.186503
-0.108577
0.025849
-0.154621
0.050362
0.290762
0.0129948
5.05933e-05
0.0687564
-0.0496146
0.163711
-0.136559
0.271986
-0.216853
-0.290823
0.408188
0.0203746
-0.020324
0.104639
-0.133879
0.215341
-0.247261
0.321156
-0.322668
-0.36708
0.397413
0.0433024
-0.0636264
0.139332
-0.229909
0.224086
-0.332015
0.276597
-0.375179
-0.385877
0.295394
0.0569561
-0.120583
0.128187
-0.301139
0.168175
-0.372003
0.182465
-0.389468
0.19077
-0.394182
0.0107902
-0.0371111
0.0263209
0.0214465
-0.0863391
0.0756829
0.0165594
-0.0923934
0.0972805
-0.00287322
-0.0766603
0.096093
-0.0606756
-0.0288912
0.0866936
0.00295983
-0.0400709
-0.00853975
-0.0748395
-0.0343141
-0.0666191
-0.0615407
-0.0494338
-0.0418728
-0.0803435
-0.0130926
-0.0269783
-0.048361
-0.0395712
-0.0869915
-0.0279885
-0.114028
-0.0223973
-0.0286718
-0.127229
-0.042122
0.0151437
-0.099451
0.0177578
-0.141149
0.0137091
-0.16291
-0.000636226
-0.0180618
-0.17352
-0.0153411
-0.0344708
-0.0347516
-0.00953883
0.0227613
0.220016
-0.574085
0.325177
0.393361
1.21595
-1.38929
0.364515
1.29793
-1.26909
0.457288
-1.17999
1.08721
-1.03502
1.01667
0.297292
-0.95172
0.567401
0.94584
0.468057
1.39728
0.532855
-1.24479
-1.04163
0.186446
-1.26539
0.420145
0.71214
0.477834
1.33959
0.603118
-1.37007
-1.04551
-0.00985162
-1.42906
0.191959
0.51033
0.521222
1.01033
0.644249
-1.4931
-1.04783
-0.0643728
-1.34193
0.0769071
0.36905
0.636546
0.450689
0.669072
-1.52562
-1.03892
0.727705
-0.900731
-1.1689
0.612191
0.484564
1.27363
-0.210752
1.17986
-1.43185
-0.865591
0.986577
-0.547876
-1.33943
1.10051
0.37063
1.45166
-0.561902
1.18731
-1.16751
-0.607351
1.07779
-0.296021
-1.32965
1.31956
0.128863
1.37133
-0.61367
0.992821
-0.788999
-0.351169
1.11889
-0.137122
-1.27779
1.29777
-0.0500235
1.07597
-0.391865
0.615932
-0.328962
-0.105998
0.733129
-0.870251
0.683105
0.291241
-0.0377209
1.09308
0.144214
-1.04652
1.16042
0.228048
1.26459
0.293243
1.27382
0.398966
0.395675
1.01829
0.0844609
-0.958533
1.08317
0.16316
1.16598
0.210435
1.2725
0.292452
0.328739
0.953116
0.0438709
-0.912526
1.01395
0.102321
1.09341
0.130975
1.21077
0.175092
0.209865
0.889832
0.0116813
-0.857643
0.954795
0.0373583
1.03815
0.0476177
1.14764
0.0656029
0.0797194
0.639952
-0.628271
0.677311
0.724928
0.790531
0.132352
0.300813
-0.249822
-0.183344
0.08761
0.307089
-0.262346
0.0478406
0.317749
-0.277979
0.0153984
0.309943
-0.277501
0.201612
-0.186214
0.099976
0.338081
-0.137243
0.0637798
0.343285
0.0313561
0.350172
0.00601507
0.335284
0.207627
0.0577276
0.36899
-0.0886369
0.0280607
0.372952
0.00307392
0.375159
-0.00861548
0.346974
0.199012
-0.0156057
0.38587
-0.00127453
-0.0316519
0.388998
-0.0388217
0.382329
-0.029226
0.337378
0.169786
-0.0952971
0.0869847
-0.0957671
-0.0854417
-0.0492031
0.202483
0.0982997
-0.255167
-0.0456157
0.148498
0.102669
-0.0486837
0.0926327
0.107543
-0.0516777
0.0378378
0.107861
-0.0530658
0.0771911
-0.0393533
0.195159
0.142881
-0.23974
0.148487
0.149341
0.0966253
0.159404
0.0411259
0.16336
0.118317
0.151522
0.188404
-0.197045
0.107979
0.192884
0.0655326
0.20185
0.0249844
0.203908
0.143301
0.155671
0.222747
-0.190014
0.115766
0.23279
0.0711108
0.246505
0.0275613
0.247458
0.170863
0.106425
-0.1335
0.0768684
0.0453944
0.015351
0.40553
0.0688425
-0.0783932
0.419827
0.0301003
-0.0443968
0.415789
0.148748
-0.14471
0.390805
0.213505
-0.188521
0.422091
-0.286453
0.402702
0.0621205
0.414215
0.0185868
0.405716
0.157247
0.375434
0.243787
0.557785
0.396277
0.061823
0.409796
0.00506747
0.385293
0.18175
0.362794
0.266286
0.723534
0.392902
0.0649004
0.398445
-0.000474894
0.371339
0.208856
0.335545
0.30208
0.869065
0.385826
0.075054
0.388697
-0.00334605
0.340174
0.257379
0.310509
0.331745
1.04607
0.621957
0.0571175
0.663479
-0.0448685
0.686763
0.234095
0.737307
0.281201
0.789075
0.994307
0.637255
0.0238827
0.679111
-0.0867247
0.704979
0.208227
0.760222
0.225957
0.51254
1.03676
0.651574
-0.0236706
0.662521
-0.0976721
0.694534
0.176214
0.795767
0.124725
0.290636
1.01767
0.643455
-0.0631052
0.609984
-0.0642014
0.707383
0.0788155
0.802387
0.0297213
0.13225
0.960772
0.540915
0.476714
0.555529
0.585251
0.717501
1.01733
-0.20637
1.01297
-0.132877
1.00863
-0.0843046
1.01577
-0.00841304
0.056237
0.975867
-0.14548
0.960728
-0.117738
0.930063
-0.0536397
0.94786
-0.0262095
0.0455633
0.954606
-0.0824157
0.919607
-0.0827388
0.894299
-0.0283319
0.897866
-0.0297762
0.0309035
0.909407
-0.0310509
0.862215
-0.0355472
0.847189
-0.0133055
0.835699
-0.0182866
0.00896032
0.68645
0.650903
0.637597
0.619311
0.0544579
0.160859
-0.215317
0.0791749
0.353175
-0.377892
0.0783222
0.40892
-0.408067
0.0679995
0.411234
-0.400911
0.379568
0.0541105
-0.365679
0.0823706
0.0784883
0.159554
0.275992
0.193751
0.374722
0.197417
0.407568
0.39785
0.179135
0.068592
0.00989635
0.195678
0.148906
0.29443
0.27597
0.355107
0.346891
0.399639
0.353318
0.0317862
-0.0218899
0.146629
0.0340633
0.282039
0.14056
0.414658
0.214271
0.30693
0.507368
0.00480532
-0.0266952
0.0615497
-0.0226811
0.176354
0.0257561
0.318609
0.0720161
0.153503
0.472036
-0.00624397
-0.0204512
0.00819547
-0.0371205
0.0659896
-0.0320381
0.159452
-0.0214461
0.0367554
0.2762
-0.00789812
-0.0125531
-0.0108111
-0.0342075
0.00524578
-0.048095
0.0365069
-0.0527072
-0.0310398
0.104302
-0.00189924
-0.0106539
0.00253257
-0.0386393
0.0155393
-0.0611017
0.0344438
-0.0716117
-0.070635
0.074039
0.0065757
-0.0172296
0.0253377
-0.0574013
0.0493185
-0.0850825
0.0727847
-0.0950779
-0.0947718
0.0969214
0.00909128
0.0273728
0.0395709
0.040586
0.0325078
0.41382
0.939908
-1.07753
0.323778
0.665557
-0.575515
0.0099274
0.731753
-0.417903
0.075549
-0.373889
0.308268
-0.7161
0.518424
0.447526
0.596684
0.287803
0.825281
0.0176924
1.00186
0.14431
-0.500507
-0.847665
0.471272
0.199451
0.189055
1.1075
0.00539601
1.18552
0.210622
-0.705733
-0.936793
0.425139
-0.128767
0.178583
1.35405
0.0766841
1.28742
0.286831
-0.91588
-0.990765
0.228918
0.193678
0.212011
0.383345
-0.0909172
0.714245
-0.623327
-0.233419
0.142501
-0.223587
-0.00983205
-0.00346519
-0.220121
-0.215722
0.830619
-1.1939
0.397606
-0.0301288
0.0580173
0.0923934
-0.0131925
-0.0792009
0.152164
-0.0597706
0.261299
-0.109135
0.4214
-0.160101
-0.201927
0.212982
-0.172064
0.332345
0.576528
0.923795
0.143678
-0.146594
0.177825
-0.174909
0.109925
-0.152618
0.186371
0.0714782
-0.160604
0.199051
0.0294549
-0.160611
0.202634
-0.112282
0.141737
0.187234
-0.106954
-0.226874
0.14224
-0.107624
0.0906558
-0.10902
0.0375196
-0.107474
-0.0747629
0.184487
-0.0562735
-0.235168
0.132998
-0.0561346
0.0817513
-0.0577731
0.0329841
-0.0587071
-0.0417788
0.202028
-0.00528637
-0.253015
0.150275
-0.00438164
0.0962707
-0.00376909
0.0406828
-0.00311922
-0.00109598
0.205146
-0.256048
0.152081
0.0966343
0.0404493
0.0447166
-0.342641
-0.067754
0.0167914
-0.372986
-0.00728654
-0.383989
-0.0175763
-0.367602
-0.232893
0.132449
-0.309459
-0.165631
0.087688
-0.328225
0.0427641
-0.339065
0.00878833
-0.333627
-0.224105
0.153485
-0.266273
-0.196671
0.107482
-0.282222
0.0630917
-0.294674
0.0226624
-0.293197
-0.201442
0.173458
-0.228162
-0.211569
0.127988
-0.236753
0.0791305
-0.245816
0.0319038
-0.245971
-0.169539
0.168286
-0.218622
0.117904
0.0711379
0.0278013
0.388067
0.106843
-0.0989302
0.389023
0.0868579
-0.0878136
0.356967
0.14124
-0.109184
0.307181
0.044207
0.00557898
-0.249487
0.381759
0.396214
0.106609
0.403284
0.0797882
0.396163
0.14836
0.349705
0.0906651
-0.126656
0.401649
0.100939
0.413012
0.0684251
0.410842
0.150531
0.373014
0.128493
0.0111897
0.406533
0.0903858
0.418159
0.0567984
0.421781
0.146909
0.390201
0.160073
0.148376
0.407972
0.420374
0.422573
0.394125
0.414288
0.0957629
0.33451
0.0797786
0.253729
0.0807803
0.261781
-0.00805196
-0.205476
0.467257
0.506884
0.498849
0.470445
0.467972
0.644255
0.373707
0.0935494
0.29092
0.0827871
0.19464
0.0962804
0.112982
0.0816583
0.0337807
0.519183
0.390401
0.29001
0.206037
)
;

boundaryField
{
    left
    {
        type            calculated;
        value           nonuniform List<scalar> 
17
(
-0.60402
-0.60402
-0.60402
-0.60402
-0.60402
-0.39598
-0.39598
-0.39598
-0.39598
-0.39598
-0.39598
-0.39598
-0.39598
-0.39598
-0.39598
-0.510051
-0.510051
)
;
    }
    right
    {
        type            calculated;
        value           nonuniform List<scalar> 
17
(
0.212257
0.36072
0.273224
0.275876
0.29975
0.340804
0.409255
0.475638
0.539463
0.606992
0.646569
0.660169
1.00653
0.929073
0.736638
0.370762
-0.143719
)
;
    }
    down
    {
        type            calculated;
        value           uniform 0;
    }
    up
    {
        type            calculated;
        value           uniform 0;
    }
    cylinder
    {
        type            calculated;
        value           uniform 0;
    }
    defaultFaces
    {
        type            empty;
    }
}


// ************************************************************************* //
