/*--------------------------------*- C++ -*----------------------------------*\
  =========                 |
  \\      /  F ield         | OpenFOAM: The Open Source CFD Toolbox
   \\    /   O peration     | Website:  https://openfoam.org
    \\  /    A nd           | Version:  13
     \\/     M anipulation  |
\*---------------------------------------------------------------------------*/
FoamFile
{
    format      ascii;
    class       surfaceScalarField;
    location    "0.285";
    object      phi;
}
// * * * * * * * * * * * * * * * * * * * * * * * * * * * * * * * * * * * * * //

dimensions      [0 3 -1 0 0 0 0];

internalField   nonuniform List<scalar> 
3485
(
0.00137157
-0.0112585
0.00988698
0.00505096
-0.0319078
0.0282284
0.0107641
-0.0513838
0.0456707
0.0183128
-0.0696772
0.0621285
0.0275464
-0.0868343
0.0776007
0.0383509
-0.102899
0.0920944
0.0506376
-0.117902
0.105615
0.0643637
-0.131863
0.118137
0.0796266
-0.14485
0.129587
-0.15688
0.139485
0.0970223
0.00150029
-0.0127588
0.00544575
-0.0358532
0.0114762
-0.0574143
0.0193239
-0.0775249
0.0287739
-0.0962843
0.0396489
-0.113774
0.0518048
-0.130058
0.0651338
-0.145193
0.0795447
-0.159261
-0.172187
0.0948515
0.00147415
-0.014233
0.00532696
-0.039706
0.0111746
-0.0632619
0.0187212
-0.0850716
0.0277263
-0.105289
0.0379904
-0.124038
0.0493478
-0.141415
0.061659
-0.157504
0.0747921
-0.172394
-0.186031
0.0886357
0.00133885
-0.0155718
0.00485906
-0.0432262
0.0102111
-0.0686139
0.0171176
-0.0919781
0.0253549
-0.113527
0.0347422
-0.133425
0.0451334
-0.151806
0.0564087
-0.168779
0.0684613
-0.184447
-0.198787
0.081218
0.00116694
-0.0167388
0.00425609
-0.0463154
0.00897345
-0.0733312
0.0150824
-0.0980871
0.0223929
-0.120837
0.0307544
-0.141787
0.0400493
-0.161101
0.0501848
-0.178914
0.0610835
-0.195346
-0.210401
0.0726975
0.000980058
-0.0177188
0.00358811
-0.0489234
0.00758703
-0.0773301
0.0127847
-0.103285
0.0190274
-0.12708
0.0261946
-0.148954
0.0341945
-0.169101
0.0429576
-0.187678
0.0524292
-0.204817
-0.22055
0.062578
0.000780777
-0.0184996
0.00286522
-0.0510079
0.00606947
-0.0805344
0.0102438
-0.107459
0.015268
-0.132104
0.0210488
-0.154735
0.0275172
-0.175569
0.0346244
-0.194785
0.0423364
-0.212529
-0.228853
0.0506394
0.000569765
-0.0190694
0.0020937
-0.0525318
0.00443839
-0.0828791
0.00749358
-0.110514
0.0111701
-0.135781
0.0153988
-0.158963
0.0201302
-0.180301
0.025333
-0.199988
0.0309909
-0.218187
-0.234971
0.0371086
0.000352574
-0.0194219
0.001296
-0.0534752
0.00274552
-0.0843286
0.00462918
-0.112398
0.00688773
-0.138039
0.00947481
-0.161551
0.0123575
-0.183183
0.0155171
-0.203147
0.0189482
-0.221618
-0.238688
0.0226657
0.000137863
-0.0195598
0.000502695
-0.0538401
0.00105743
-0.0848834
0.00177027
-0.113111
0.00261474
-0.138884
0.00356972
-0.162506
0.00461971
-0.184233
0.00575519
-0.204283
0.00697271
-0.222836
0.00827734
-0.239993
0.000503062
-0.00187808
0.00137502
0.00211853
-0.00624472
0.00462925
0.00545096
-0.0113422
0.00800977
0.0101342
-0.0160897
0.0114065
0.0155663
-0.0200873
0.0146552
0.0214726
-0.0234896
0.0175833
0.0279405
-0.0266669
0.0201989
0.0351195
-0.0298513
0.0226723
0.0429991
-0.0330016
0.025122
-0.0359674
0.0514476
0.0275189
0.000423714
-0.0023018
0.00211032
-0.00793132
0.0054548
-0.0146867
0.0098608
-0.0204957
0.0149584
-0.0251849
0.0208498
-0.0293809
0.0277108
-0.0335279
0.0354965
-0.037637
0.0439986
-0.0415038
-0.0450203
0.0530516
0.000680199
-0.002982
0.00271533
-0.00996646
0.00580527
-0.0177766
0.00981728
-0.0245077
0.0148939
-0.0302616
0.021209
-0.035696
0.0286983
-0.0410172
0.0370851
-0.0460238
0.0461497
-0.0505684
-0.0546702
0.0557996
0.000868104
-0.0038501
0.00306434
-0.0121627
0.00610121
-0.0208135
0.0102441
-0.0286506
0.0157616
-0.035779
0.0226387
-0.0425732
0.0306348
-0.0490133
0.0395122
-0.0549012
0.0491743
-0.0602305
-0.0650355
0.0595396
0.000922902
-0.00477301
0.00320344
-0.0144432
0.00653302
-0.0241431
0.0111452
-0.0332627
0.0171784
-0.0418122
0.024508
-0.0499028
0.0329419
-0.0574473
0.0423812
-0.0643405
0.0527625
-0.0706117
-0.0762267
0.0639537
0.000943584
-0.00571659
0.0033741
-0.0168737
0.00709859
-0.0278676
0.0121899
-0.038354
0.018658
-0.0482803
0.026392
-0.0576368
0.0352944
-0.0663497
0.0453172
-0.0743632
0.0563813
-0.0816758
-0.0881744
0.0683289
0.000979634
-0.00669622
0.00358427
-0.0194784
0.007644
-0.0319273
0.0131137
-0.0438237
0.0199376
-0.0551043
0.0280297
-0.0657288
0.0373277
-0.0756477
0.0477851
-0.0848207
0.0593285
-0.0932192
-0.100659
0.0718127
0.00101767
-0.00771389
0.0037673
-0.022228
0.00807131
-0.0362313
0.0138216
-0.049574
0.0209237
-0.0622064
0.0292891
-0.0740942
0.0388483
-0.0852069
0.0495445
-0.0955168
0.0613186
-0.104993
-0.11341
0.0740704
0.00105432
-0.00876821
0.00393607
-0.0251098
0.00846029
-0.0407556
0.0144818
-0.0555955
0.0218748
-0.0695994
0.0305289
-0.0827483
0.0403492
-0.0950272
0.0512468
-0.106414
0.0631408
-0.116887
-0.126295
0.0760259
0.00111876
0.00423738
0.00915252
0.0156855
0.0236868
0.0330328
0.0436207
0.0553435
0.0680437
0.0812329
0.114275
-0.413019
0.350192
0.167839
-0.46917
0.415605
0.209361
-0.417723
0.376201
0.242008
-0.321399
0.288753
0.266623
-0.208586
0.18397
0.283055
-0.103592
0.0871598
0.291274
-0.037743
0.0295244
0.294552
-0.0139714
0.0106935
0.295378
-0.00777068
0.00694463
-0.00198931
0.00331943
0.116058
-0.476026
0.169729
-0.522841
0.211392
-0.459387
0.243831
-0.353839
0.268284
-0.233039
0.284154
-0.119461
0.29176
-0.0453491
0.294714
-0.0169256
0.295455
-0.00851129
-0.000659684
0.11799
-0.538216
0.170804
-0.575655
0.212284
-0.500867
0.24433
-0.385884
0.268604
-0.257313
0.284001
-0.134859
0.29132
-0.0526677
0.294346
-0.0199524
0.295257
-0.00942222
0.000425457
0.12041
-0.599087
0.171313
-0.626558
0.212129
-0.541683
0.243588
-0.417343
0.267666
-0.281391
0.282838
-0.150031
0.29024
-0.0600694
0.293639
-0.0233517
0.294947
-0.0107298
0.00103706
0.123291
-0.658424
0.171472
-0.674739
0.211023
-0.581234
0.24168
-0.448
0.265512
-0.305223
0.280741
-0.16526
0.288576
-0.067904
0.292608
-0.0273834
0.294527
-0.0126496
0.000955949
0.126109
-0.716203
0.171344
-0.719974
0.209068
-0.618958
0.238682
-0.477613
0.262169
-0.328711
0.277724
-0.180815
0.286335
-0.0765148
0.291256
-0.0323045
0.293996
-0.0153892
-3.40314e-05
0.128006
-0.772397
0.170779
-0.762747
0.206355
-0.654534
0.2347
-0.505958
0.257692
-0.351704
0.273789
-0.196912
0.283522
-0.0862479
0.289592
-0.0383748
0.293354
-0.0191509
-0.00214152
0.128052
-0.826378
0.169314
-0.80401
0.202789
-0.688008
0.229739
-0.532908
0.25208
-0.374045
0.26888
-0.213711
0.280117
-0.0974852
0.287617
-0.0458743
0.292595
-0.0241292
-0.00558016
0.125944
-0.876297
0.166552
-0.844618
0.198355
-0.719811
0.22394
-0.558493
0.245461
-0.395567
0.263039
-0.231289
0.276141
-0.110587
0.285335
-0.0550684
0.291712
-0.0305061
-0.0105607
0.122239
-0.917303
0.161692
-0.884071
0.192193
-0.750312
0.216676
-0.582976
0.237405
-0.416296
0.255896
-0.24978
0.271401
-0.126092
0.282627
-0.0662947
0.290514
-0.0383922
-0.0172237
0.583785
-0.919669
-0.581418
0.560925
-0.861212
0.523546
-0.712933
0.486889
-0.546319
0.458908
-0.388315
0.446975
-0.237846
0.448336
-0.127453
0.44945
-0.0674086
0.446744
-0.0356868
-0.0161158
0.682683
-0.870971
-0.731381
0.619555
-0.798084
0.55412
-0.647497
0.497923
-0.490121
0.457195
-0.347587
0.438665
-0.219317
0.43101
-0.119798
0.422799
-0.0591981
0.415964
-0.0288516
-0.0135906
0.754044
-0.774625
-0.85039
0.655571
-0.69961
0.564885
-0.556812
0.490944
-0.416179
0.436513
-0.293157
0.405359
-0.188163
0.39087
-0.105308
0.38307
-0.0513984
0.377862
-0.0236437
-0.0112951
0.779325
-0.64137
-0.91258
0.65455
-0.574835
0.547892
-0.450155
0.464045
-0.332332
0.403323
-0.232434
0.366429
-0.15127
0.34869
-0.087569
0.340197
-0.0429048
0.335308
-0.0187554
-0.00899818
0.753276
-0.492291
-0.902354
0.618161
-0.43972
0.507292
-0.339286
0.422144
-0.247184
0.36125
-0.17154
0.322729
-0.112749
0.302712
-0.0675523
0.2936
-0.0337925
0.28915
-0.0143053
-0.00687066
0.68526
-0.345781
-0.831771
0.553021
-0.30748
0.447082
-0.233348
0.367253
-0.167354
0.310805
-0.115093
0.274318
-0.0762618
0.254047
-0.0472815
0.244622
-0.0243668
0.240436
-0.0101196
-0.00489047
0.582687
-0.213846
-0.714622
0.463037
-0.18783
0.369642
-0.139954
0.300671
-0.0983823
0.252567
-0.0669885
0.221055
-0.0447505
0.202494
-0.02872
0.193449
-0.0153221
0.189619
-0.006289
-0.00310605
0.448782
-0.105522
-0.557105
0.351236
-0.0902844
0.277205
-0.0659223
0.223915
-0.0450926
0.187334
-0.0304072
0.163131
-0.0205481
0.148114
-0.0137028
0.140377
-0.00758468
0.137138
-0.00305
-0.00159237
0.286594
-0.030222
-0.361894
0.220924
-0.0246147
0.172539
-0.0175377
0.13888
-0.0114337
0.116086
-0.0076129
0.100785
-0.00524734
0.0907896
-0.00370691
0.0853738
-0.0021689
0.0831633
-0.000839468
-0.000506913
0.101312
-0.131534
0.0766974
0.0591597
0.047726
0.0401131
0.0348657
0.0311588
0.0289899
0.0281505
0.738833
0.0102249
-0.740781
0.733086
0.0284131
0.723444
0.0467502
0.710167
0.0639164
0.693569
0.079176
0.674069
0.0921978
0.652257
0.10303
0.628686
0.112206
0.604229
0.119309
0.119833
0.845558
0.0134009
-0.848734
0.837328
0.0366432
0.827291
0.0567874
0.816592
0.0746155
0.805243
0.0905251
0.79288
0.10456
0.779256
0.116655
0.764546
0.126916
0.749063
0.134791
0.137515
0.845003
0.01143
-0.843032
0.848904
0.0327416
0.853044
0.0526473
0.856498
0.0711621
0.858858
0.0881645
0.859941
0.103478
0.859608
0.116988
0.857967
0.128557
0.855282
0.137475
0.142407
0.800224
0.00930898
-0.798103
0.805834
0.0271316
0.814436
0.0440453
0.825662
0.0599364
0.839038
0.0747887
0.853901
0.0886151
0.869485
0.101403
0.885133
0.11291
0.900029
0.122579
0.129857
0.737874
0.0070429
-0.735608
0.744163
0.0208419
0.754134
0.0340744
0.767518
0.046553
0.784103
0.0582034
0.80369
0.0690278
0.826033
0.07906
0.850688
0.0882547
0.876637
0.0966306
0.104139
0.653925
0.00485734
-0.65174
0.660208
0.0145586
0.670385
0.0238981
0.684229
0.0327087
0.701535
0.0408971
0.722126
0.0484373
0.745827
0.0553592
0.772361
0.0617205
0.801264
0.0677269
0.0736327
0.549114
0.00291843
-0.547175
0.554815
0.0088575
0.564141
0.0145715
0.57691
0.0199405
0.59292
0.0248868
0.611975
0.0293826
0.63388
0.0334541
0.658419
0.0371807
0.685399
0.0407477
0.0444094
0.422792
0.00137698
-0.421251
0.427413
0.00423676
0.435008
0.00697602
0.445423
0.00952592
0.458471
0.0118385
0.473959
0.0138953
0.491699
0.0157133
0.511531
0.0173492
0.533352
0.0189268
0.0206562
0.273827
0.00036705
-0.272817
0.276914
0.00114967
0.281998
0.00189184
0.288955
0.00256938
0.297629
0.00316432
0.307856
0.0036689
0.319481
0.00408773
0.332394
0.0044363
0.346561
0.00476
0.00532284
0.100483
-0.100116
0.101633
0.103525
0.106094
0.109258
0.112927
0.117015
0.121451
0.126211
0.0779868
0.159452
-0.142423
-0.0950165
0.0630685
0.14742
-0.132502
0.0496475
0.134377
-0.120956
0.0376231
0.120312
-0.108288
0.0270391
0.105158
-0.0945741
0.0179853
0.0888877
-0.0798339
0.0105767
0.0714583
-0.0640497
0.00496487
0.0528099
-0.0471981
0.00134837
0.0328761
-0.0292596
0.0116402
-0.0102919
0.077982
0.174397
-0.0929272
0.0639002
0.161502
0.0508594
0.147417
0.0389507
0.132221
0.0282837
0.115825
0.0190044
0.098167
0.0112915
0.0791712
0.00536025
0.0587412
0.00147731
0.036759
0.0131175
0.0732103
0.187904
-0.0867173
0.060391
0.174321
0.048364
0.159444
0.0372569
0.143328
0.0272076
0.125874
0.0183814
0.106993
0.0109773
0.0865752
0.00523544
0.0644831
0.00144957
0.0405449
0.0145671
0.066794
0.200339
-0.0792283
0.0550486
0.186067
0.0440592
0.170434
0.0339274
0.15346
0.0247694
0.135032
0.0167281
0.115034
0.00998188
0.0933214
0.00475135
0.0697136
0.00130954
0.0439867
0.0158767
0.0593293
0.211649
-0.07064
0.0487267
0.196669
0.0388746
0.180286
0.0298453
0.162489
0.0217263
0.143151
0.0146303
0.122131
0.0087024
0.0992493
0.0041263
0.0742897
0.00113087
0.0469821
0.0170075
0.05061
0.221518
-0.0604789
0.0414191
0.20586
0.0329325
0.188772
0.0252001
0.170221
0.0182851
0.150066
0.0122726
0.128143
0.00727496
0.104247
0.0034364
0.0781283
0.000937205
0.0494813
0.0179447
0.0404651
0.229565
-0.0485115
0.033018
0.213307
0.0261797
0.195611
0.0199791
0.176422
0.0144582
0.155587
0.00967766
0.132924
0.00572037
0.108204
0.00269364
0.081155
0.000731774
0.0514432
0.0186765
0.0290588
0.235444
-0.0349386
0.0236542
0.218712
0.0187164
0.200549
0.014256
0.180882
0.0102965
0.159547
0.00687747
0.136343
0.00405544
0.111026
0.00190413
0.0833063
0.000515222
0.0528321
0.0191917
0.0169194
0.23893
-0.020405
0.0137429
0.221888
0.0108553
0.203436
0.00825479
0.183483
0.00595124
0.16185
0.00396617
0.138328
0.0023319
0.112661
0.00109049
0.0845477
0.000293179
0.0536294
0.0194849
0.00482739
-0.00589035
0.00387975
0.00303325
0.00228262
0.00162746
0.00107144
0.000621225
0.000285615
7.49037e-05
0.0434148
0.0410656
-0.0522625
-0.0322179
0.035089
0.03803
-0.0297041
0.0274726
0.0346513
-0.0270349
0.0207808
0.0310692
-0.0243774
0.0150025
0.0275353
-0.021757
0.00989832
0.0239958
-0.0188916
0.00537159
0.0198683
-0.0153416
0.00193034
0.0142893
-0.010848
0.00037438
0.00730754
-0.00575158
0.00206254
-0.00168816
0.0437718
0.0502349
-0.0529411
0.0351216
0.0466802
0.0270877
0.0426852
0.0199538
0.038203
0.0140248
0.0334644
0.00929345
0.0287271
0.00551328
0.0236485
0.00255506
0.0172475
0.000611492
0.00925111
0.00267404
0.0451683
0.0598203
-0.0547538
0.0362126
0.055636
0.0279386
0.0509592
0.0204701
0.0456716
0.0141347
0.0397998
0.00918978
0.033672
0.00557237
0.0272659
0.00291185
0.019908
0.000810585
0.0113524
0.00348462
0.0476956
0.0700491
-0.0579244
0.0382155
0.0651161
0.0295968
0.0595779
0.0218792
0.0533892
0.0151945
0.0464844
0.00980422
0.0390624
0.00582862
0.0312415
0.00299425
0.0227424
0.000884712
0.0134619
0.00436933
0.0511598
0.0810216
-0.0621323
0.0410092
0.0752667
0.031843
0.0687441
0.0237239
0.0615083
0.0166785
0.0535298
0.0108379
0.044903
0.00633953
0.0357398
0.00309287
0.025989
0.000890644
0.0156641
0.00525998
0.0548051
0.0926631
-0.0664466
0.0440395
0.0860322
0.0343132
0.0784704
0.025702
0.0701196
0.0182293
0.0610025
0.0119536
0.0511787
0.00697178
0.0407216
0.00330118
0.0296596
0.000915983
0.0180493
0.00617596
0.0577946
0.104784
-0.0699157
0.0465964
0.0972304
0.0364566
0.0886102
0.0274365
0.0791397
0.0195729
0.0688662
0.0129169
0.0578347
0.00754877
0.0460897
0.00353967
0.0336687
0.000964158
0.0206249
0.00714012
0.0597942
0.117145
-0.0721547
0.048385
0.10864
0.0380136
0.0989815
0.0287264
0.088427
0.0205752
0.0770174
0.013629
0.0647808
0.00797903
0.0517397
0.00373013
0.0379176
0.00100775
0.0233472
0.00814787
0.0615644
0.129626
-0.0740458
0.0500413
0.120163
0.03947
0.109553
0.0299225
0.0979745
0.021485
0.0854548
0.0142544
0.0720115
0.0083446
0.0576495
0.00388908
0.0423732
0.0010431
0.0261932
0.00919097
0.066389
-0.0791855
0.05405
0.0426473
0.032334
0.0232148
0.0153924
0.00899222
0.00416726
0.0011009
0.215169
0.0565739
-0.0737527
0.235433
0.0947035
-0.114968
0.256578
0.123554
-0.144699
0.266971
0.114913
-0.125307
0.266903
0.116898
-0.11683
0.247822
0.181928
-0.162847
0.215711
0.294107
-0.261996
0.173146
0.409929
-0.367365
0.117621
0.490876
-0.43535
0.458115
-0.392756
0.214286
0.0402777
0.233697
0.0752925
0.254225
0.103027
0.265319
0.103819
0.266361
0.115857
0.248392
0.199897
0.216489
0.326011
0.173513
0.452905
0.117784
0.546606
0.522957
0.213468
0.0247994
0.232465
0.0562961
0.252392
0.0830992
0.263908
0.0923024
0.265198
0.114567
0.247801
0.217294
0.216053
0.357759
0.172891
0.496066
0.118046
0.601451
0.586249
0.212771
0.0100186
0.231716
0.0373502
0.251049
0.0637664
0.262679
0.0806729
0.263497
0.113749
0.246077
0.234714
0.214422
0.389414
0.171541
0.538947
0.11889
0.654103
0.647214
0.212319
-0.00431109
0.231443
0.0182262
0.250128
0.0450823
0.261458
0.0693421
0.26118
0.114028
0.243203
0.25269
0.211663
0.420954
0.169788
0.580822
0.12041
0.70348
0.705492
0.21221
-0.0185317
0.231614
-0.00117785
0.249517
0.0271797
0.260033
0.0588262
0.258087
0.115974
0.239166
0.271612
0.207923
0.452197
0.167866
0.620879
0.122174
0.749173
0.761219
0.212454
-0.0329958
0.232156
-0.0208799
0.249084
0.0102511
0.258226
0.0496851
0.254114
0.120085
0.234041
0.291685
0.203414
0.482824
0.165783
0.65851
0.123345
0.791611
0.814649
0.212938
-0.0479445
0.232944
-0.0408849
0.248672
-0.0054774
0.255814
0.0425427
0.249076
0.126823
0.22783
0.312931
0.198179
0.512475
0.163161
0.693528
0.122949
0.831822
0.865443
0.213399
-0.0633541
0.233823
-0.0613087
0.248129
-0.0197832
0.252795
0.0378768
0.243122
0.136496
0.220819
0.335234
0.192367
0.540927
0.159628
0.726267
0.120615
0.870835
0.912012
0.213798
-0.0791624
0.234524
-0.0820346
0.24738
-0.032639
0.24876
0.0364968
0.235647
0.149609
0.212351
0.35853
0.185121
0.568157
0.154344
0.757044
0.116856
0.908323
0.949683
0.332843
-0.109995
0.371678
-0.120869
0.406192
-0.0671534
0.425613
0.0170764
0.441953
0.133269
0.468524
0.331959
0.506864
0.529818
0.549602
0.714306
0.581197
0.876727
0.944526
0.586355
0.334204
-0.14219
0.374693
-0.161358
0.409857
-0.102318
0.427883
-0.000949843
0.442691
0.11846
0.478626
0.296025
0.535181
0.473262
0.604674
0.644813
0.675267
0.806135
0.886976
0.732816
0.336062
-0.176242
0.376376
-0.201672
0.412211
-0.138153
0.429492
-0.0182305
0.439297
0.108655
0.479163
0.256159
0.54884
0.403585
0.639764
0.553888
0.742539
0.70336
0.78315
0.846365
0.339081
-0.213312
0.375005
-0.237596
0.39416
-0.157307
0.396054
-0.0201243
0.408865
0.0958442
0.457776
0.207248
0.536973
0.324388
0.642022
0.448839
0.767789
0.577593
0.646224
0.904715
0.346075
-0.257377
0.35711
-0.248631
0.345691
-0.145888
0.344761
-0.0191948
0.3653
0.0753057
0.417418
0.155129
0.499378
0.242429
0.60911
0.339106
0.744392
0.442312
0.495399
0.895217
0.341436
-0.296803
0.323899
-0.231094
0.29374
-0.115729
0.291389
-0.0168438
0.31376
0.0529348
0.36353
0.10536
0.441173
0.164785
0.546527
0.233752
0.679157
0.309682
0.34775
0.826806
0.314441
-0.309234
0.272967
-0.189619
0.237549
-0.0803114
0.233555
-0.0128499
0.254514
0.0319758
0.297938
0.0619355
0.365537
0.0971866
0.458763
0.140526
0.578993
0.189452
0.215002
0.711741
0.27388
-0.281104
0.213628
-0.129367
0.176699
-0.043382
0.171828
-0.0079786
0.188657
0.0151462
0.222233
0.0283592
0.274751
0.0446694
0.348907
0.0663703
0.447127
0.0912316
0.106105
0.556024
0.214644
-0.193738
0.140766
-0.0554892
0.110561
-0.013177
0.105642
-0.00305976
0.116809
0.0039797
0.138076
0.00709219
0.171406
0.011339
0.220061
0.0177155
0.286353
0.0249395
0.0304021
0.362056
0.108272
0.0527828
0.0396058
0.036546
0.0405257
0.0476179
0.0589568
0.0766723
0.101612
0.132014
0.608549
-0.11721
0.632242
-0.116621
0.655085
-0.10956
0.676256
-0.1004
0.695215
-0.0895991
0.711364
-0.0766273
0.724265
-0.0614131
0.733598
-0.0442711
0.739086
-0.0258935
-0.00758471
0.750183
-0.134577
0.765119
-0.131557
0.77935
-0.123791
0.792597
-0.113646
0.804679
-0.101681
0.815828
-0.0877767
0.826394
-0.0719789
0.836391
-0.0542687
0.844847
-0.0343491
-0.0114722
0.851022
-0.139234
0.853495
-0.13403
0.855032
-0.125328
0.855424
-0.114038
0.854582
-0.100839
0.852681
-0.0858752
0.849947
-0.0692453
0.846779
-0.051101
0.843976
-0.0315456
-0.010528
0.892755
-0.127274
0.878713
-0.119987
0.864
-0.110615
0.849401
-0.0994387
0.835523
-0.0869608
0.823069
-0.0734217
0.812667
-0.058843
0.804776
-0.0432102
0.799758
-0.026528
-0.00887285
0.870519
-0.102576
0.845696
-0.0951639
0.822041
-0.0869606
0.80055
-0.0779473
0.78169
-0.0681018
0.765736
-0.0574674
0.752904
-0.0460109
0.743413
-0.0337192
0.737532
-0.0206465
-0.00694879
0.797103
-0.0728738
0.768999
-0.0670592
0.74316
-0.0611218
0.720058
-0.0548453
0.699983
-0.0480264
0.683118
-0.0406028
0.669645
-0.0325381
0.659772
-0.0238459
0.653729
-0.0146034
-0.0049595
0.683019
-0.0441513
0.656516
-0.0405566
0.632407
-0.0370123
0.610878
-0.0333169
0.592142
-0.0292906
0.576392
-0.0248527
0.563825
-0.0199712
0.554644
-0.014665
0.549043
-0.00900163
-0.00309162
0.532507
-0.0206348
0.5109
-0.0189493
0.491264
-0.0173767
0.473693
-0.0157453
0.458341
-0.0139384
0.445389
-0.011901
0.435031
-0.00961288
0.427454
-0.00708802
0.422821
-0.00436924
-0.00152113
0.346772
-0.00535076
0.33263
-0.00480769
0.319737
-0.00448326
0.308124
-0.00413194
0.297897
-0.00371209
0.289206
-0.00320947
0.282212
-0.00261882
0.27707
-0.00194642
0.27391
-0.0012087
-0.000428657
0.126663
0.121855
0.117372
0.11324
0.109528
0.106319
0.1037
0.101753
0.100545
0.000185029
0.0116069
-0.0117919
0.000623644
0.0304408
-0.0308794
0.00123698
0.0462336
-0.046847
0.00197704
0.0594578
-0.0601978
0.00277621
0.0700104
-0.0708096
0.00376898
0.0798767
-0.0808694
0.00396287
0.0772553
-0.0774492
0.00408421
0.0700314
-0.0701528
0.00394432
0.0610698
-0.0609299
0.0499476
0.0035066
-0.0495099
0.000533315
0.0110736
0.0018036
0.0291705
0.00358456
0.0444527
0.00574042
0.0573019
0.00807164
0.0676792
0.011038
0.0769103
0.0116742
0.0766192
0.012079
0.0696266
0.0117717
0.0613771
0.0510699
0.0106494
0.000835368
0.0102382
0.0028314
0.0271745
0.00563828
0.0416458
0.00904025
0.0539
0.0127376
0.0639819
0.017245
0.0724029
0.0187874
0.0750767
0.0195688
0.0688452
0.0193825
0.0615634
0.0524263
0.0180261
0.00105581
0.0091824
0.00359644
0.0246338
0.00719254
0.0380497
0.0115541
0.0495384
0.0163542
0.0591818
0.0217446
0.0670126
0.0250692
0.0717521
0.0263513
0.0675632
0.0265993
0.0613153
0.0535582
0.0254675
0.00115126
0.00803114
0.00397866
0.0218064
0.00804048
0.0339879
0.012995
0.0445838
0.018549
0.0536278
0.0245541
0.0610074
0.0299483
0.066358
0.0320859
0.0654256
0.0330069
0.0603943
0.0540831
0.032482
0.00111129
0.00691986
0.00396531
0.0189524
0.00818427
0.029769
0.0133882
0.0393799
0.0193152
0.0477008
0.0257685
0.0545542
0.032412
0.0597145
0.0363087
0.0615289
0.0381201
0.0585829
0.0536995
0.0385038
0.00092609
0.00599377
0.00357233
0.0163062
0.00770931
0.025632
0.0128796
0.0342096
0.0187839
0.0417966
0.0253348
0.0480033
0.0323173
0.0527319
0.0382722
0.055574
0.0415847
0.0552703
0.0521758
0.0431084
0.000567898
0.00542587
0.00278623
0.0140878
0.00665618
0.021762
0.0116191
0.0292467
0.0172015
0.0362142
0.0234442
0.0417605
0.0302829
0.0458933
0.0371815
0.0486754
0.0425605
0.0498914
0.0489159
0.0458204
0.000104338
0.00532154
0.00176881
0.0124234
0.00517484
0.018356
0.00981268
0.0246089
0.0149542
0.0310726
0.0206187
0.036096
0.0269017
0.0396103
0.0335861
0.0419909
0.0400856
0.0433919
0.0437852
0.0452163
-0.000174497
0.00549603
0.00108789
0.011161
0.00385604
0.0155879
0.00788531
0.0205796
0.0124996
0.0264584
0.0175713
0.0310243
0.0231791
0.0340025
0.0292531
0.0359169
0.0356413
0.0370037
0.0373563
0.0420702
-1.94166e-05
0.00551545
0.00114201
0.00999955
0.00327931
0.0134506
0.00641423
0.0174447
0.0102974
0.0225752
0.0148419
0.0264798
0.0199648
0.0288796
0.0254999
0.0303818
0.0312408
0.0312628
0.0316781
0.036919
0.000380761
0.00513469
0.00153682
0.00884348
0.00318704
0.0118003
0.00550015
0.0151316
0.00872636
0.019349
0.0129188
0.0222873
0.0177762
0.0240222
0.0230484
0.0251096
0.0285453
0.0257659
0.0260354
0.0341879
0.000629807
0.00450488
0.00171732
0.00775597
0.00304235
0.0104753
0.00486948
0.0133044
0.00787129
0.0163472
0.0119694
0.0181892
0.0167279
0.0192637
0.0219081
0.0199293
0.0273784
0.0202956
0.0203761
0.0330377
0.000684398
0.00382048
0.00165788
0.00678248
0.00284569
0.0092875
0.00473841
0.0114117
0.00801926
0.0130663
0.0122546
0.0139539
0.0170758
0.0144425
0.0223212
0.0146839
0.0278943
0.0147226
0.0145609
0.0337095
0.000669186
0.00315129
0.00156638
0.00588528
0.00301501
0.00783886
0.00560605
0.00882066
0.00939492
0.00927744
0.0139143
0.00943453
0.0189556
0.00940124
0.0244187
0.00922078
0.0302351
0.00890614
0.00846243
0.0363336
0.000592766
0.00255852
0.00171286
0.00476517
0.00405555
0.00549617
0.00750592
0.00537028
0.0117493
0.00503405
0.016587
0.00459681
0.0219178
0.00407046
0.027682
0.0034566
0.0338281
0.00276001
0.00199289
0.0402976
0.000514893
0.00204362
0.00245862
0.00282144
0.00571022
0.00224456
0.0096932
0.00138729
0.0142681
0.000459132
0.0193873
-0.00052235
0.0250202
-0.00156252
0.0311253
-0.00264845
0.0376426
-0.00375729
-0.00487657
0.0445121
0.000849554
0.00119406
0.00357542
9.55526e-05
0.0071204
-0.00130042
0.0112884
-0.00278074
0.0160621
-0.00431453
0.0214517
-0.00591192
0.0274188
-0.00752968
0.033875
-0.00910468
0.0407367
-0.010619
-0.0121015
0.0479616
0.00149201
-0.000297958
0.00411435
-0.00252679
0.00752048
-0.00470655
0.0117103
-0.00697059
0.0166949
-0.00929908
0.0224041
-0.0116211
0.0286738
-0.0137994
0.0353797
-0.0158106
0.0424925
-0.0177318
-0.0196203
0.0500113
0.00107706
0.00317951
0.00648271
0.0109186
0.0162747
0.0222368
0.0286364
0.0354981
0.0428883
0.0507869
0.0515916
0.0833993
-0.0980719
0.0775111
-0.00781604
-0.0181036
0.0999641
-0.050856
0.028403
0.11346
-0.0463587
0.0328626
0.121334
-0.0263703
0.0184968
0.125139
-0.00852776
0.00472225
0.127191
-0.000118208
-0.0019336
0.129085
0.00114053
-0.00303463
0.131307
7.47169e-07
-0.00222248
-0.00174748
-0.000759246
0.0587659
0.0588212
0.0917513
-0.0408015
0.118797
-0.0779014
0.134656
-0.0622184
0.143296
-0.0350097
0.147173
-0.012405
0.149123
-0.00206749
0.150945
-0.00068127
0.153123
-0.0021777
-0.00404124
0.0666886
0.0251703
0.104954
-0.0790674
0.13585
-0.108797
0.155409
-0.0817775
0.165335
-0.0449356
0.169296
-0.0163657
0.17101
-0.00378164
0.172562
-0.0022337
0.174464
-0.00407877
-0.00591971
0.0754324
-0.0165526
0.117585
-0.121221
0.151358
-0.14257
0.17474
-0.10516
0.186766
-0.0569608
0.191049
-0.0206489
0.192525
-0.00525778
0.193705
-0.00341366
0.195171
-0.00554473
-0.00723619
0.0843252
-0.0645442
0.129197
-0.166092
0.165085
-0.178458
0.191781
-0.131855
0.206785
-0.071965
0.211965
-0.0258283
0.213341
-0.00663391
0.214125
-0.00419847
0.215067
-0.00648674
-0.00790339
0.0926295
-0.116876
0.139482
-0.212945
0.176972
-0.215948
0.206145
-0.161028
0.22447
-0.0902896
0.231443
-0.0328019
0.233053
-0.00824355
0.233524
-0.0046696
0.233935
-0.00689758
-0.00789867
0.0997253
-0.172089
0.148208
-0.261428
0.186965
-0.254705
0.217793
-0.191856
0.239067
-0.111564
0.248754
-0.0424887
0.25119
-0.0106798
0.25157
-0.00504984
0.251533
-0.00686063
-0.00726616
0.105303
-0.229431
0.155296
-0.311421
0.195071
-0.294481
0.226912
-0.223697
0.250253
-0.134904
0.263029
-0.0552648
0.267085
-0.0147363
0.26776
-0.00572467
0.267478
-0.00657859
-0.00613348
0.109362
-0.288781
0.160814
-0.362873
0.201384
-0.335051
0.23379
-0.256103
0.258177
-0.159292
0.273524
-0.0706118
0.27995
-0.0211622
0.281623
-0.00739697
0.281377
-0.00633296
-0.00466779
0.112198
0.16493
0.20608
0.23873
0.263409
0.279957
0.288319
0.291616
0.292228
0.0132007
0.00607607
-0.0192768
0.0109952
0.00220557
0.0115185
-0.000523385
0.0129139
-0.00139535
0.0136195
-0.00070565
0.0137664
-0.000146867
0.0136504
0.000116
0.0134892
0.000161216
0.0133467
0.000142469
6.51308e-05
0.0372516
0.0232055
-0.0543811
0.031525
0.0079321
0.0340367
-0.00303501
0.0380182
-0.00537688
0.0401503
-0.00283773
0.0406122
-0.00060877
0.0402962
0.000432052
0.0398541
0.000603254
0.0395004
0.000496217
0.000205931
0.0579833
0.0480614
-0.0828391
0.0509511
0.0149642
0.0559448
-0.00802875
0.0624059
-0.0118379
0.0659971
-0.00642888
0.0668386
-0.00145033
0.0663756
0.000895122
0.0657019
0.00127702
0.0651928
0.00100526
0.000392421
0.073945
0.0753232
-0.101207
0.0681915
0.0207177
0.0765178
-0.0163551
0.0856922
-0.0210123
0.0908944
-0.0116311
0.0922376
-0.00279353
0.0917101
0.00142269
0.090874
0.00211314
0.0902766
0.00160268
0.000588483
0.08148
-0.104229
0.084094
0.0961418
0.107992
0.114858
0.116787
0.116276
0.115355
0.114735
0.00273315
-0.000172891
-0.00256026
0.00326391
-0.000530765
0.00417596
-0.000912047
0.00548676
-0.0013108
0.00718284
-0.00169608
0.00922705
-0.00204421
0.0115833
-0.00235629
0.0141716
-0.00258823
0.0168569
-0.00268532
-0.00241994
0.00778598
-0.000645575
-0.0073133
0.0092326
-0.00197739
0.0117115
-0.00339095
0.0152672
-0.00486653
0.0198807
-0.00630955
0.0254778
-0.00764133
0.0319594
-0.00883782
0.0391504
-0.00977924
0.0467619
-0.0102969
-0.0100391
0.0124758
-0.0013835
-0.0117379
0.0147251
-0.00422668
0.0185573
-0.00722315
0.0240203
-0.0103296
0.0310738
-0.0133631
0.0395795
-0.016147
0.0493204
-0.0185787
0.0600431
-0.020502
0.0714075
-0.0216613
-0.0214708
0.0168045
-0.00234728
-0.0158407
0.0197282
-0.00715042
0.0246706
-0.0121656
0.031646
-0.017305
0.0405434
-0.0222604
0.0510982
-0.0267018
0.0629284
-0.0304089
0.0756855
-0.0332591
0.0888539
-0.0348297
-0.0338237
0.0207894
-0.0196301
0.0242884
0.030149
0.0383115
0.048533
0.060335
0.0730345
0.0855958
0.0959824
0.0315139
-0.0312692
0.0370865
-0.0373311
0.0256431
-0.0308656
0.0367364
0.0199749
-0.0300328
0.035701
0.0147181
-0.0286376
0.0338945
0.010086
-0.0264323
0.0310644
0.00621943
-0.0227548
0.0266213
0.0031249
-0.0176408
0.0207353
0.00102606
-0.0136168
0.0157156
-8.11166e-05
-0.0101526
0.0112598
-0.00562818
0.00554707
0.029573
-0.0253927
-0.0354495
0.0238448
-0.0251375
0.0183429
-0.0245309
0.0132433
-0.023538
0.0087964
-0.0219854
0.00538489
-0.0193432
0.00304286
-0.0152988
0.00141284
-0.0119868
0.000307562
-0.00904731
-0.00532062
0.0295691
-0.0193925
-0.0355693
0.0237536
-0.019322
0.0182247
-0.0190019
0.0130983
-0.0184116
0.00857564
-0.0174627
0.00510566
-0.0158732
0.00304542
-0.0132385
0.00167216
-0.0106135
0.000597163
-0.00797231
-0.00472345
0.0314537
-0.0131244
-0.0377217
0.0254207
-0.013289
0.0197056
-0.0132868
0.014395
-0.013101
0.0096283
-0.012696
0.00572784
-0.0119728
0.00325321
-0.0107639
0.00179637
-0.00915664
0.000744837
-0.00692077
-0.00397861
0.034937
-0.0064806
-0.0415808
0.0285756
-0.00692756
0.0225677
-0.00727894
0.0169806
-0.00751386
0.0119061
-0.00762153
0.00752632
-0.00759295
0.00417942
-0.00741696
0.00201958
-0.00699679
0.000807088
-0.00570828
-0.00317152
0.0390741
0.000590745
-0.0461455
0.0323282
-0.000181642
0.025979
-0.000929755
0.0200991
-0.00163387
0.0147483
-0.00227072
0.00998982
-0.00283451
0.00590716
-0.00333429
0.00266961
-0.00375923
0.000718711
-0.00375737
-0.0024528
0.0427104
0.00804683
-0.0501665
0.0355943
0.00693452
0.0288725
0.005792
0.0226422
0.00459652
0.016999
0.00337247
0.0119799
0.00218457
0.00757229
0.00107333
0.00379168
2.13972e-05
0.000959765
-0.000925442
-0.00149303
0.0448408
0.0157738
-0.0525678
0.0374859
0.0142895
0.0305033
0.0127746
0.0239349
0.011165
0.0179222
0.00938513
0.0126399
0.0074669
0.00815691
0.0055563
0.00445629
0.00372202
0.00158777
0.00194309
9.47469e-05
0.044974
0.0237882
-0.0529884
0.0374356
0.0218279
0.0303749
0.0198353
0.0237114
0.0178284
0.017428
0.0156686
0.0117236
0.0131713
0.00695628
0.0103236
0.00338279
0.00729552
0.00113454
0.00419135
0.00122929
0.0440229
-0.0524527