# Selection   : all
# Cells       : 440
# Volume      : 7.374263e+01
# Time        	min(p)
2.3           	-1.922670e+00
2.35          	-1.888947e+00
2.4           	-1.887570e+00
