# Selection   : all
# Cells       : 440
# Volume      : 7.374263e+01
# Time        	max(p)
7.615         	2.477420e+00
7.66          	2.461894e+00
7.71          	2.439173e+00
