/*--------------------------------*- C++ -*----------------------------------*\
  =========                 |
  \\      /  F ield         | OpenFOAM: The Open Source CFD Toolbox
   \\    /   O peration     | Website:  https://openfoam.org
    \\  /    A nd           | Version:  13
     \\/     M anipulation  |
\*---------------------------------------------------------------------------*/
FoamFile
{
    format      ascii;
    class       surfaceScalarField;
    location    "57.2";
    object      phi;
}
// * * * * * * * * * * * * * * * * * * * * * * * * * * * * * * * * * * * * * //

dimensions      [0 3 -1 0 0 0 0];

internalField   nonuniform List<scalar> 
823
(
-0.00544987
0.0180818
-0.012632
0.00986142
0.00771724
-0.0230285
0.0710361
-0.0427143
-0.0184604
0.170198
-0.107632
0.00847067
-0.148925
0.00519056
0.313932
0.00674269
0.0113391
0.0591877
-0.0447277
0.158052
-0.141578
0.276014
-0.225595
-0.299398
0.426488
0.0257595
-0.0144204
0.117407
-0.136375
0.230905
-0.255076
0.336452
-0.331142
-0.371959
0.409013
0.0477566
-0.062177
0.145745
-0.234364
0.226483
-0.335814
0.272407
-0.377066
-0.388417
0.288865
0.0595888
-0.121766
0.128465
-0.30324
0.165533
-0.372883
0.179214
-0.390747
0.187263
-0.396466
-0.0444869
0.040154
0.00433289
-0.115332
0.0766973
-0.00585174
-0.181061
0.0791668
-0.0134386
-0.233564
0.07906
-0.0265563
0.0830532
-0.273376
-0.0432412
0.00587309
0.0342809
-0.00484511
0.0874155
-0.033356
0.107678
-0.0639498
0.109654
0.105279
-0.0861758
0.0228189
0.0114621
0.0588345
0.0513999
0.0871299
0.0793822
0.106274
0.0905093
0.0911269
0.120427
0.00916894
0.00229314
0.0375712
0.0229976
0.0746208
0.0423326
0.117149
0.0479816
0.0540399
0.154236
-0.0103388
-0.0103697
0.0135025
0.0699548
0.129185
0.129311
0.955395
-1.35808
0.547323
-1.10504
0.687029
0.578176
-1.58897
1.55812
0.554571
0.200034
-0.176429
0.283845
-0.229669
0.139438
0.729781
0.375513
-1.34112
0.484374
-1.69783
0.549175
0.135234
0.320726
0.318689
0.53152
0.440324
-1.46275
0.454739
-1.71225
0.522662
0.0673109
0.337604
0.450063
0.235692
0.564123
-1.57681
0.490518
-1.63864
0.484324
0.0735045
0.331688
0.49618
-0.131303
0.563718
-1.64435
0.441854
-1.51678
0.39893
0.116429
0.262058
1.41873
-0.354075
-1.19596
1.3209
-1.54652
0.817377
-1.01325
0.642741
0.291066
0.119642
1.4864
-0.450154
-1.39032
1.04868
-1.10881
0.516428
-0.481001
0.61741
0.190083
-0.090997
1.35999
-0.466589
-1.34356
0.936155
-0.684968
0.589841
-0.134688
0.785086
-0.00516081
-0.18869
1.17635
-0.331089
-1.31185
0.740593
-0.249212
0.623334
-0.0174288
0.731941
-0.113768
-0.114512
0.542009
-0.873098
0.292796
0.275368
0.1616
1.09914
0.148001
-1.05988
1.17246
0.215544
1.27894
0.30254
1.31352
0.391908
0.43149
1.00675
0.0953129
-0.954057
1.07927
0.14302
1.17115
0.210656
1.28294
0.280122
0.324111
0.954701
0.0502263
-0.909615
1.014
0.0837198
1.09845
0.126206
1.21499
0.163585
0.195541
0.926857
0.0111928
-0.887823
0.984753
0.0258239
1.06962
0.0413367
1.18015
0.0530558
0.0638438
0.689038
-0.677845
0.714861
0.756198
0.809254
0.137665
0.297881
-0.243758
-0.191787
0.0921507
0.302592
-0.257077
0.0519465
0.312689
-0.272485
0.0180447
0.303301
-0.269399
0.19406
-0.176015
0.103252
0.333792
-0.139163
0.0668176
0.339026
0.0343719
0.345135
0.0085628
0.32911
0.202623
0.0684435
0.36929
-0.103942
0.0365659
0.370903
0.00932279
0.372378
-0.00565425
0.344087
0.196969
-0.00726791
0.38579
-0.00923236
-0.0249486
0.388584
-0.0339314
0.381361
-0.0266306
0.336786
0.170338
-0.0884337
0.0777577
-0.0905966
-0.0821187
-0.0485722
0.200562
0.10481
-0.254174
-0.0511977
0.146356
0.108676
-0.0544702
0.090808
0.113138
-0.0575901
0.0369055
0.112518
-0.0586154
0.0787517
-0.0418462
0.193605
0.148515
-0.237309
0.146847
0.155434
0.0950986
0.164886
0.0403921
0.167224
0.119144
0.136565
0.192645
-0.180694
0.0960172
0.195981
0.0569938
0.20391
0.0205227
0.203696
0.139666
0.151517
0.224447
-0.183319
0.113176
0.234322
0.0697864
0.2473
0.0271912
0.246291
0.166858
0.0802066
-0.099518
0.0574513
0.032266
0.00915759
0.407658
0.0428899
-0.0545684
0.427412
0.0321323
-0.0518866
0.409383
0.206306
-0.188277
0.39804
0.194044
-0.182701
0.477033
-0.333167
0.406224
0.0326455
0.420143
0.0182133
0.398536
0.227914
0.387226
0.205353
0.62695
0.4003
0.0283251
0.413288
0.00522537
0.375278
0.265924
0.37324
0.207392
0.819495
0.397882
0.0264227
0.394722
0.00838528
0.363363
0.297283
0.354962
0.215793
0.991137
0.389062
0.0333405
0.379364
0.0180834
0.335979
0.340667
0.324629
0.227143
1.21625
0.62401
0.013351
0.630214
0.0118793
0.683796
0.287085
0.788237
0.122702
1.02191
0.982575
0.635139
-0.0177676
0.611591
0.0354274
0.717877
0.180799
0.79081
0.0497685
0.77849
1.03423
0.628892
-0.0426387
0.633106
0.0312125
0.753594
0.0603122
0.800999
0.00236288
0.558916
1.02057
0.617378
-0.0559964
0.668189
-0.0195988
0.744172
-0.0156706
0.742026
0.00450907
0.293053
1.00789
0.548024
0.528425
0.512755
0.517264
0.810316
1.02329
-0.232499
1.01188
-0.127756
1.02106
-0.113119
1.01656
-0.00473391
0.0344381
0.98318
-0.181449
0.958445
-0.10302
0.932377
-0.0870511
0.936626
-0.00898329
0.0170068
0.947138
-0.108014
0.918498
-0.0743805
0.890283
-0.0588362
0.898209
-0.0169091
0.00560128
0.942749
-0.0428724
0.904414
-0.0360456
0.876401
-0.0308238
0.876355
-0.0168629
-0.00586672
0.767444
0.731398
0.700574
0.683711
0.0470302
0.161865
-0.208895
0.0694022
0.340042
-0.362415
0.069048
0.39097
-0.390615
0.0599796
0.390528
-0.381459
0.357319
0.0479789
-0.345318
0.0708134
0.0910513
0.137613
0.273243
0.167951
0.360631
0.171817
0.386662
0.37202
0.157116
0.0621887
0.0288627
0.169929
0.165503
0.252871
0.277689
0.301852
0.337682
0.374159
0.299712
0.0314585
-0.00259583
0.132779
0.0641823
0.248991
0.161476
0.356233
0.23044
0.303987
0.426405
0.00839305
-0.0109889
0.064145
0.00843041
0.16224
0.0633815
0.274183
0.118497
0.188284
0.389886
-0.00041515
-0.0105737
0.0153563
-0.00734103
0.0637243
0.0150134
0.134482
0.0477394
0.103038
0.219728
-0.00232594
-0.00824779
-0.00132697
-0.00834
0.00551891
0.00816755
0.0217573
0.031501
0.0677697
0.0570258
0.0147196
-0.0229674
0.0334
-0.0270204
0.0445897
-0.00302212
0.0451139
0.0309768
0.0647841
0.0480995
0.0186165
-0.0415839
0.0331385
-0.0415424
0.0414262
-0.0113098
0.0526742
0.0197288
0.048403
0.0690553
-0.037251
-0.0846451
-0.109394
-0.116221
-0.111059
0.0964292
1.24835
-1.12505
0.193611
-0.0161444
-0.0810378
0.361775
-0.237575
0.0694114
0.274694
0.161872
-0.0747911
-0.0252724
0.0665459
-0.0866889
1.39206
0.0712061
-0.174039
0.450399
-0.616768
0.377739
0.234532
0.0364216
-0.22504
1.6652
-0.0280077
-0.371072
0.509485
-1.15426
0.476528
0.267489
0.111348
0.0108991
1.72336
0.101051
-0.461223
0.462947
-1.51616
0.523129
0.207308
0.174915
0.254215
0.48002
0.521982
0.552861
-0.121205
0.622493
-0.501288
-0.0709609
-0.0502438
0.0318496
-0.102811
0.087332
-0.0554824
-0.0724663
0.554233
-1.05679
0.422952
0.389553
0.259279
0.0865662
-0.0117303
-0.0748359
0.137039
-0.0504729
0.225097
-0.0880579
0.357235
-0.132138
-0.144052
0.198392
-0.162143
0.305034
0.516689
0.810956
0.141888
-0.141472
0.171744
-0.172159
0.108054
-0.147444
0.181278
0.069461
-0.15535
0.193944
0.0281734
-0.156028
0.197315
-0.110622
0.138795
0.182643
-0.101637
-0.222478
0.138193
-0.102994
0.0881806
-0.105338
0.0365938
-0.104441
-0.074028
0.190819
-0.0520995
-0.240357
0.139839
-0.0520139
0.087306
-0.0528054
0.0356423
-0.0527772
-0.0383857
0.202772
-0.000256947
-0.254615
0.150144
0.00061455
0.0958941
0.00144423
0.0405635
0.0025534
0.00217782
0.205732
-0.257187
0.151876
0.0957304
0.0396684
0.0435154
-0.325133
-0.0637008
0.0178421
-0.355786
-0.00496799
-0.367805
-0.0150006
-0.352382
-0.223896
0.124822
-0.293546
-0.156409
0.0824134
-0.313377
0.0405133
-0.325905
0.00866039
-0.320529
-0.215235
0.1435
-0.2532
-0.183846
0.100812
-0.27069
0.0589531
-0.284046
0.0210073
-0.282583
-0.194228
0.161671
-0.217696
-0.197175
0.118784
-0.227802
0.0727406
-0.238003
0.0288007
-0.238643
-0.165427
0.158543
-0.204496
0.112019
0.0679599
0.0266319
0.392672
0.0947261
-0.0914182
0.391612
0.100679
-0.0996195
0.357345
0.159535
-0.125268
0.301163
0.054715
0.00146685
-0.208338
0.337342
0.400229
0.0904764
0.40694
0.0939688
0.396096
0.170379
0.349832
0.100979
-0.0809841
0.405121
0.0813349
0.416682
0.0824074
0.410586
0.176476
0.3745
0.137064
0.0531593
0.408741
0.0685737
0.422964
0.0681838
0.418976
0.180464
0.393081
0.16296
0.191625
0.409985
0.426282
0.418469
0.398728
0.416485
0.093566
0.330863
0.0856224
0.243037
0.0878255
0.249975
-0.00693761
-0.185098
0.435073
0.512199
0.498202
0.460759
0.455288
0.607532
0.349912
0.0851608
0.273316
0.076596
0.182866
0.0904495
0.106321
0.0765452
0.0314852
0.488197
0.367618
0.274222
0.194359
)
;

boundaryField
{
    left
    {
        type            calculated;
        value           nonuniform List<scalar> 
17
(
-0.60402
-0.60402
-0.60402
-0.60402
-0.60402
-0.39598
-0.39598
-0.39598
-0.39598
-0.39598
-0.39598
-0.39598
-0.39598
-0.39598
-0.39598
-0.510051
-0.510051
)
;
    }
    right
    {
        type            calculated;
        value           nonuniform List<scalar> 
17
(
0.159798
0.253359
0.233421
0.316045
0.401601
0.459562
0.498106
0.500395
0.512294
0.505784
0.49024
0.468559
0.785156
0.828049
0.882779
0.657764
0.0470875
)
;
    }
    down
    {
        type            calculated;
        value           uniform 0;
    }
    up
    {
        type            calculated;
        value           uniform 0;
    }
    cylinder
    {
        type            calculated;
        value           uniform 0;
    }
    defaultFaces
    {
        type            empty;
    }
}


// ************************************************************************* //
