/*--------------------------------*- C++ -*----------------------------------*\
  =========                 |
  \\      /  F ield         | OpenFOAM: The Open Source CFD Toolbox
   \\    /   O peration     | Website:  https://openfoam.org
    \\  /    A nd           | Version:  13
     \\/     M anipulation  |
\*---------------------------------------------------------------------------*/
FoamFile
{
    format      ascii;
    class       volVectorField;
    location    "0.16";
    object      U;
}
// * * * * * * * * * * * * * * * * * * * * * * * * * * * * * * * * * * * * * //

dimensions      [0 1 -1 0 0 0 0];

internalField   nonuniform List<vector> 
1800
(
(0.365639 -0.332118 1.23492e-19)
(0.98211 -0.842439 5.50831e-20)
(1.2864 -1.04779 -6.99397e-19)
(1.39047 -1.07789 5.60684e-19)
(1.41519 -1.03868 1.17762e-18)
(1.41505 -0.980742 4.76797e-19)
(1.4082 -0.921972 -2.41142e-19)
(1.39963 -0.867143 -6.16581e-19)
(1.39131 -0.81451 -3.21902e-19)
(1.36568 -0.768406 -2.61022e-19)
(0.428507 -0.331786 9.31332e-21)
(1.1251 -0.825581 -8.79072e-19)
(1.45632 -1.01905 6.94962e-21)
(1.56093 -1.04463 -4.29576e-19)
(1.57782 -1.00448 9.487e-20)
(1.56848 -0.946843 1.11495e-18)
(1.55309 -0.888386 -7.98424e-19)
(1.53723 -0.833123 4.02075e-19)
(1.52213 -0.780393 6.63459e-19)
(1.49947 -0.73898 -3.38451e-19)
(0.493719 -0.323647 5.31326e-20)
(1.26737 -0.78903 2.52241e-19)
(1.62222 -0.96612 5.63052e-19)
(1.7258 -0.986959 -3.28446e-19)
(1.73442 -0.947307 -1.40791e-18)
(1.71584 -0.89211 3.03457e-19)
(1.69188 -0.836632 5.26156e-19)
(1.66827 -0.784592 -5.53267e-20)
(1.64618 -0.735737 -4.4222e-21)
(1.61792 -0.696076 -2.44266e-20)
(0.560156 -0.307138 -5.96423e-20)
(1.4057 -0.732687 -2.76208e-19)
(1.78006 -0.889449 -3.81547e-19)
(1.88104 -0.905413 5.30018e-20)
(1.88124 -0.867365 3.77273e-19)
(1.85386 -0.815896 2.88407e-20)
(1.82189 -0.764488 -2.15465e-20)
(1.79111 -0.716284 4.86063e-19)
(1.76244 -0.671124 4.05986e-19)
(1.7303 -0.635441 -1.41453e-19)
(0.626478 -0.281896 1.44347e-19)
(1.53667 -0.657199 3.37597e-19)
(1.92569 -0.790624 -6.51766e-20)
(2.02247 -0.802105 -7.21564e-20)
(2.01429 -0.767063 -1.12014e-18)
(1.97873 -0.720945 9.23797e-21)
(1.9395 -0.675204 8.46671e-19)
(1.90232 -0.632415 2.76575e-19)
(1.86791 -0.592634 1.33075e-20)
(1.83225 -0.561241 -1.85054e-19)
(0.69103 -0.24767 -6.28127e-20)
(1.65671 -0.563569 7.98804e-19)
(2.05514 -0.67157 1.37227e-18)
(2.14626 -0.679247 -8.74716e-19)
(2.12997 -0.648519 -8.133e-19)
(2.08707 -0.609101 1.32695e-18)
(2.04151 -0.570234 -9.31269e-19)
(1.99875 -0.533933 -1.04919e-18)
(1.9594 -0.500366 7.40377e-19)
(1.92064 -0.474129 -1.80458e-20)
(0.751939 -0.204503 3.06532e-19)
(1.7623 -0.453457 -1.27917e-18)
(2.16475 -0.534961 -3.7215e-18)
(2.24904 -0.539822 1.40502e-18)
(2.22521 -0.514689 2.05872e-18)
(2.17607 -0.483209 -5.74822e-21)
(2.1253 -0.452304 -2.54883e-18)
(2.07804 -0.423464 1.07517e-20)
(2.03474 -0.396936 2.28003e-18)
(1.99349 -0.376448 5.94951e-19)
(0.807166 -0.152791 -1.34281e-19)
(1.85013 -0.329095 7.49622e-19)
(2.25135 -0.384 2.85613e-18)
(2.32798 -0.387245 -3.8013e-20)
(2.29747 -0.368865 -1.32628e-18)
(2.24338 -0.346349 -4.06089e-19)
(2.18869 -0.324257 0)
(2.13807 -0.303632 8.9645e-19)
(2.09186 -0.284764 -7.5832e-21)
(2.04879 -0.270581 -7.3719e-19)
(0.854613 -0.0933255 -1.54776e-20)
(1.91722 -0.19329 1.8231e-18)
(2.31241 -0.222459 2.44482e-18)
(2.38092 -0.225359 -2.02858e-18)
(2.34489 -0.21468 -1.38047e-18)
(2.2873 -0.201898 4.06968e-19)
(2.23005 -0.189228 -1.68266e-18)
(2.1773 -0.177344 -1.18556e-18)
(2.12928 -0.166545 1.36265e-18)
(2.08513 -0.159002 1.15387e-18)
(0.892261 -0.0272784 2.50962e-19)
(1.96126 -0.0495161 1.16684e-18)
(2.34618 -0.0545787 4.46317e-19)
(2.40648 -0.0581769 -2.89119e-18)
(2.36636 -0.0559417 1.26224e-20)
(2.30682 -0.0533222 3.87575e-18)
(2.24835 -0.0504376 -2.06296e-18)
(2.19468 -0.0476237 -1.1069e-18)
(2.14591 -0.0450977 3.84466e-19)
(2.10149 -0.0443181 -8.51272e-19)
(0.00474096 -0.060952 1.29097e-19)
(0.0477943 -0.163206 1.3908e-19)
(0.114023 -0.210714 -1.9951e-21)
(0.18341 -0.223018 -5.77902e-21)
(0.249607 -0.220528 -1.35383e-21)
(0.310332 -0.213349 -2.13769e-20)
(0.365369 -0.205248 1.22448e-20)
(0.415184 -0.197381 -2.86411e-20)
(0.460276 -0.190009 1.70075e-21)
(0.50115 -0.184209 -4.43188e-21)
(0.0141637 -0.0993006 8.32701e-20)
(0.0743402 -0.273439 1.34542e-19)
(0.148496 -0.353645 -1.22962e-19)
(0.219462 -0.372334 -4.17748e-20)
(0.28473 -0.365081 -5.73809e-20)
(0.343819 -0.349725 -5.31134e-20)
(0.397123 -0.332942 1.32242e-20)
(0.4453 -0.316773 -2.33663e-20)
(0.488816 -0.301677 9.33698e-21)
(0.528781 -0.2905 -8.41764e-21)
(0.0297199 -0.136785 8.27675e-21)
(0.11855 -0.379653 3.1062e-19)
(0.206021 -0.490675 8.3626e-20)
(0.279701 -0.515168 2.61763e-19)
(0.343451 -0.503198 3.97157e-20)
(0.399818 -0.479947 -2.01423e-19)
(0.450224 -0.454838 -2.92322e-20)
(0.495645 -0.430732 6.03861e-20)
(0.536501 -0.408313 -2.05863e-20)
(0.574989 -0.391985 9.74386e-22)
(0.0514204 -0.172874 -1.04352e-19)
(0.179898 -0.479757 -7.00559e-20)
(0.285635 -0.618834 2.73987e-20)
(0.362979 -0.648298 -1.12339e-19)
(0.424568 -0.631694 5.46996e-20)
(0.477128 -0.600966 1.46597e-19)
(0.523499 -0.568048 3.65188e-20)
(0.565086 -0.536531 -3.18632e-21)
(0.602264 -0.507366 1.74549e-20)
(0.6387 -0.486182 -1.88388e-21)
(0.0792656 -0.20703 0)
(0.257606 -0.571685 8.02621e-20)
(0.385951 -0.735224 4.54453e-19)
(0.467664 -0.768595 -2.81937e-19)
(0.526395 -0.747494 -4.94512e-19)
(0.574086 -0.709859 1.5467e-19)
(0.615341 -0.669818 -1.87204e-20)
(0.652079 -0.631584 -8.25418e-20)
(0.684656 -0.596416 0)
(0.718448 -0.570732 -6.84858e-21)
(0.113229 -0.238673 -6.77037e-21)
(0.350608 -0.653401 2.99081e-19)
(0.505126 -0.837068 1.38708e-19)
(0.591616 -0.873103 1.99695e-19)
(0.646744 -0.847717 -1.59303e-19)
(0.688554 -0.803902 -2.3704e-19)
(0.723699 -0.757595 4.00876e-19)
(0.754673 -0.713499 4.53666e-20)
(0.781844 -0.673217 -2.25005e-19)
(0.812357 -0.643408 -5.54694e-21)
(0.153218 -0.267141 3.07461e-20)
(0.457496 -0.722912 3.6676e-19)
(0.640843 -0.921783 4.93781e-20)
(0.732181 -0.959132 1.84196e-20)
(0.782932 -0.929775 2.7611e-19)
(0.817935 -0.88067 -3.33072e-19)
(0.84611 -0.829114 -3.2663e-19)
(0.870543 -0.78015 -2.68167e-19)
(0.891663 -0.73573 1.94033e-19)
(0.918171 -0.70209 2.073e-19)
(0.19901 -0.291656 -1.16831e-19)
(0.576484 -0.778304 -1.43757e-19)
(0.790306 -0.987062 1.79957e-19)
(0.886217 -1.02438 -1.46781e-19)
(0.931818 -0.991528 2.90888e-19)
(0.959233 -0.938222 6.68228e-19)
(0.979774 -0.882626 4.47734e-19)
(0.997097 -0.829972 -3.44e-19)
(1.01177 -0.782435 -1.61027e-19)
(1.03324 -0.745002 2.31848e-19)
(0.250162 -0.311307 -2.99373e-19)
(0.705329 -0.817766 -9.71951e-19)
(0.950178 -1.03093 1.02433e-18)
(1.05 -1.067 8.27898e-19)
(1.08965 -1.03133 -6.77157e-19)
(1.10882 -0.975192 7.14597e-19)
(1.12127 -0.917095 1.08281e-19)
(1.13114 -0.862357 -8.19619e-19)
(1.13932 -0.812843 -1.98369e-19)
(1.15349 -0.771337 2.66349e-19)
(0.305964 -0.325093 -2.19104e-20)
(0.841386 -0.839611 -8.39605e-19)
(1.11667 -1.05163 -4.79063e-19)
(1.21924 -1.08531 7.53792e-19)
(1.25189 -1.04761 5.79631e-19)
(1.26187 -0.990074 -6.46188e-19)
(1.26531 -0.931167 -5.22128e-19)
(1.26687 -0.876139 3.06652e-19)
(1.26808 -0.825416 -3.12477e-19)
(1.269 -0.779892 -1.93991e-19)
(0.639198 -0.149787 -3.54045e-21)
(0.812537 -0.115809 4.33935e-21)
(0.89021 -0.0906143 1.40164e-20)
(0.93639 -0.0709482 1.21311e-21)
(0.963265 -0.0549558 -2.50914e-22)
(0.979156 -0.0417267 3.14502e-21)
(0.988842 -0.0307129 1.16498e-21)
(0.994811 -0.0214233 -3.44759e-21)
(0.998322 -0.013566 3.49985e-21)
(1.00047 -0.00505364 3.32535e-21)
(0.65658 -0.21522 6.68866e-20)
(0.822392 -0.151346 -1.29936e-20)
(0.897568 -0.109706 3.84793e-21)
(0.941978 -0.0815294 4.66488e-21)
(0.967713 -0.0610775 1.06913e-20)
(0.982775 -0.0453696 0)
(0.991825 -0.0329135 1.26705e-21)
(0.997315 -0.0227408 3.17319e-21)
(1.0005 -0.0143138 5.54897e-22)
(1.0024 -0.00531567 -3.13142e-21)
(0.684893 -0.278697 -3.43834e-20)
(0.836684 -0.186106 -1.27106e-20)
(0.90742 -0.128568 2.92902e-21)
(0.94885 -0.0920247 -8.72239e-21)
(0.972852 -0.0671268 -4.19821e-21)
(0.986794 -0.0489397 6.53476e-21)
(0.995052 -0.035045 0)
(0.999979 -0.024 0)
(1.00279 -0.0150185 6.6241e-22)
(1.00442 -0.00556044 0)
(0.723885 -0.339081 -2.66259e-20)
(0.855372 -0.219542 1.80423e-20)
(0.919678 -0.146972 8.33702e-21)
(0.956995 -0.102329 0)
(0.97868 -0.0730456 -4.181e-21)
(0.991208 -0.0524023 2.4081e-21)
(0.998516 -0.0370857 0)
(1.00279 -0.0251873 -3.9373e-21)
(1.00519 -0.0156721 0)
(1.00652 -0.00578499 -4.47597e-22)
(0.773197 -0.395312 -2.19158e-20)
(0.878439 -0.251172 4.43515e-20)
(0.934231 -0.164703 -4.96786e-21)
(0.966388 -0.112342 0)
(0.985188 -0.0787791 -4.4213e-21)
(0.996006 -0.0557236 -5.93071e-21)
(1.00221 -0.0390138 6.83667e-21)
(1.00574 -0.0262885 1.45424e-21)
(1.00767 -0.016266 -6.68902e-22)
(1.00869 -0.00598616 3.22342e-21)
(0.832241 -0.446319 -5.55177e-19)
(0.90589 -0.280687 -9.13711e-20)
(0.950957 -0.18159 2.27191e-21)
(0.976995 -0.121973 4.28784e-21)
(0.992364 -0.0842776 8.16007e-21)
(1.00118 -0.0588714 -1.63449e-21)
(1.00611 -0.0408078 -1.04074e-20)
(1.00882 -0.0272893 4.9482e-21)
(1.01023 -0.0167914 -2.91489e-22)
(1.0109 -0.00616053 2.56551e-21)
(0.899925 -0.490798 -1.11359e-20)
(0.937588 -0.307891 4.08239e-20)
(0.969741 -0.197538 5.34665e-21)
(0.98877 -0.131158 -4.59669e-23)
(1.00019 -0.0895017 -3.33769e-21)
(1.0067 -0.0618183 5.68235e-21)
(1.0102 -0.0424478 2.5636e-21)
(1.012 -0.0281758 -5.38434e-21)
(1.01285 -0.0172395 -9.60353e-22)
(1.01316 -0.0063045 -2.31886e-21)
(0.974255 -0.527494 2.24853e-19)
(0.972584 -0.332216 5.38798e-20)
(0.990209 -0.212282 0)
(1.00157 -0.139774 -4.015e-21)
(1.0086 -0.0943952 2.04365e-21)
(1.01256 -0.0645351 2.09894e-21)
(1.01448 -0.043916 3.87417e-21)
(1.01526 -0.0289361 -1.03771e-21)
(1.01551 -0.0176029 6.35032e-23)
(1.01544 -0.00641527 7.65416e-22)
(1.05306 -0.556985 -3.21616e-19)
(1.00874 -0.354434 -1.54829e-19)
(1.01094 -0.226185 2.55883e-20)
(1.01469 -0.147869 2.2815e-21)
(1.01729 -0.0989202 -1.97448e-21)
(1.0186 -0.0669809 2.86417e-21)
(1.01886 -0.0451847 -2.79099e-21)
(1.01859 -0.0295538 6.78115e-22)
(1.01819 -0.0178727 -4.12431e-21)
(1.01772 -0.00649325 -5.22304e-21)
(1.13734 -0.579555 2.14996e-19)
(1.04611 -0.376256 -1.5172e-19)
(1.03046 -0.241542 -1.92393e-20)
(1.02674 -0.156814 -8.79251e-21)
(1.02539 -0.103716 -1.47527e-21)
(1.02437 -0.0693973 -4.72349e-22)
(1.02314 -0.0463186 -2.06986e-21)
(1.02188 -0.0300297 0)
(1.02086 -0.018037 2.71264e-21)
(1.02 -0.0065212 4.90251e-22)
(1.27502 -0.56326 3.23518e-19)
(1.13114 -0.371982 9.58049e-20)
(1.07766 -0.241737 -5.085e-20)
(1.05383 -0.157904 1.41361e-21)
(1.04158 -0.10446 2.30589e-21)
(1.03452 -0.0696589 2.44808e-21)
(1.02985 -0.0462612 6.49253e-21)
(1.02657 -0.0298357 1.61215e-21)
(1.02441 -0.0178352 -2.41591e-21)
(1.02291 -0.00642746 1.27199e-21)
(1.32574 -0.476534 -2.82855e-21)
(1.17106 -0.327509 9.89211e-20)
(1.10908 -0.220786 7.48591e-20)
(1.07636 -0.147857 -8.18418e-21)
(1.05694 -0.0990544 2.89973e-20)
(1.04494 -0.066388 1.72189e-20)
(1.03707 -0.0441338 1.26628e-20)
(1.03179 -0.0284445 -1.01965e-21)
(1.02845 -0.0169851 4.37059e-21)
(1.02624 -0.00610911 4.15847e-21)
(1.37491 -0.407636 -1.02328e-19)
(1.21559 -0.290453 -8.33966e-21)
(1.14085 -0.200567 2.31115e-21)
(1.0982 -0.13644 -6.33549e-37)
(1.07172 -0.092166 2.8756e-21)
(1.05497 -0.0619834 -4.91458e-35)
(1.04402 -0.0412295 -4.82956e-21)
(1.03679 -0.0265522 -3.00584e-34)
(1.03229 -0.0158381 1.25403e-21)
(1.02938 -0.00568965 -3.66818e-21)
(1.40636 -0.337906 -1.64278e-34)
(1.24953 -0.249757 -2.30493e-20)
(1.16724 -0.176696 -2.67033e-20)
(1.11723 -0.122126 0)
(1.08499 -0.0832369 -1.34877e-20)
(1.06412 -0.0562144 -8.60729e-21)
(1.05041 -0.0374426 -3.05855e-21)
(1.0414 -0.0241102 -4.44771e-34)
(1.03584 -0.0143737 -4.73793e-22)
(1.03227 -0.00516033 3.61171e-21)
(1.42625 -0.273412 -5.41942e-20)
(1.27557 -0.20882 3.10341e-21)
(1.18884 -0.150844 0)
(1.13341 -0.105704 0)
(1.09654 -0.0726402 0)
(1.07221 -0.0492665 0)
(1.0561 -0.0328703 -1.13165e-21)
(1.04552 -0.0211717 -5.00539e-34)
(1.039 -0.0126195 1.20496e-21)
(1.03484 -0.00452906 4.44016e-34)
(1.43839 -0.21393 -1.28527e-20)
(1.29501 -0.168145 0)
(1.20601 -0.123655 0)
(1.1467 -0.0876789 0)
(1.10625 -0.0606947 0)
(1.0791 -0.0413283 0)
(1.06098 -0.0276226 2.09107e-21)
(1.04906 -0.0177999 3.10607e-21)
(1.04173 -0.0106095 1.18086e-21)
(1.03705 -0.00380692 4.02367e-21)
(1.44538 -0.159073 0)
(1.30897 -0.128122 -7.12635e-21)
(1.21909 -0.0956329 -1.13731e-20)
(1.15712 -0.0684721 0)
(1.114 -0.0476913 -7.0641e-21)
(1.08466 -0.032587 -4.7991e-21)
(1.06496 -0.0218161 -1.10464e-21)
(1.05195 -0.0140655 -1.93579e-21)
(1.04395 -0.00838332 3.3054e-21)
(1.03885 -0.00300728 3.07982e-21)
(1.44881 -0.107859 3.87259e-21)
(1.31815 -0.0887796 3.85981e-21)
(1.2282 -0.0670599 -1.4278e-21)
(1.16457 -0.0483806 4.53205e-36)
(1.1196 -0.0338583 -1.07215e-21)
(1.0887 -0.023198 -4.01417e-35)
(1.06783 -0.0155503 1.93818e-21)
(1.05402 -0.0100286 6.32963e-21)
(1.04552 -0.00597215 1.05181e-21)
(1.04009 -0.00213738 -3.38079e-21)
(1.44251 -0.060276 -1.68179e-20)
(1.31636 -0.0523167 7.11011e-21)
(1.22749 -0.0401944 8.39198e-21)
(1.16356 -0.0292429 0)
(1.11792 -0.0205601 4.96614e-21)
(1.08634 -0.0141216 3.4174e-21)
(1.06494 -0.00947707 4.12956e-21)
(1.05076 -0.0061138 1.4344e-21)
(1.04203 -0.0036388 -5.49836e-22)
(1.03646 -0.00130018 3.62165e-21)
(1.25465 -0.00927579 0)
(1.15265 -0.00995564 0)
(1.07733 -0.00801141 0)
(1.02196 -0.00590351 0)
(0.982089 -0.00417275 0)
(0.954361 -0.00287678 0)
(0.935511 -0.00193471 1.83028e-21)
(0.923013 -0.00125053 -8.89398e-36)
(0.915314 -0.000733303 1.10381e-21)
(0.910422 -0.000253969 3.2865e-21)
(2.02442 -0.0402838 7.9204e-19)
(2.01097 -0.138733 5.33366e-20)
(1.98075 -0.234411 -1.06308e-19)
(1.93445 -0.325317 -3.13965e-19)
(1.87356 -0.409756 -9.67721e-20)
(1.79915 -0.485998 -1.51135e-19)
(1.71537 -0.551466 -3.87915e-19)
(1.61657 -0.611299 1.13621e-19)
(1.52987 -0.638907 0)
(1.39067 -0.709806 4.45814e-20)
(1.94191 -0.0298557 2.28798e-19)
(1.93139 -0.104073 -2.95287e-19)
(1.90849 -0.176873 -3.06357e-20)
(1.87353 -0.246901 -1.2545e-19)
(1.8282 -0.312825 4.68818e-20)
(1.7713 -0.37419 1.28653e-19)
(1.71071 -0.425925 -4.23268e-20)
(1.63207 -0.482382 6.13093e-20)
(1.57353 -0.497429 -8.06282e-20)
(1.46906 -0.572603 2.53215e-20)
(1.87384 -0.0228922 -1.04423e-19)
(1.86568 -0.0815455 2.19635e-19)
(1.84762 -0.13898 1.61999e-19)
(1.81983 -0.19443 -2.25124e-19)
(1.78402 -0.246862 3.94498e-20)
(1.73858 -0.296698 1.89022e-19)
(1.69109 -0.338348 -1.82601e-20)
(1.6288 -0.387503 2.92609e-20)
(1.57988 -0.400145 3.99554e-20)
(1.50319 -0.466518 5.38185e-20)
(1.82079 -0.0184441 -2.33707e-19)
(1.81409 -0.0637907 -1.04183e-20)
(1.79915 -0.108397 -3.09227e-20)
(1.77617 -0.151783 -3.53214e-20)
(1.74656 -0.193074 -7.21559e-20)
(1.70929 -0.232932 -8.3632e-20)
(1.66976 -0.266448 1.09728e-19)
(1.62013 -0.306785 1.38202e-20)
(1.57749 -0.318667 1.37623e-21)
(1.51997 -0.372392 9.50743e-21)
(1.7793 -0.01451 3.58757e-20)
(1.77364 -0.0492693 8.73042e-20)
(1.76089 -0.0835039 -3.21149e-20)
(1.7413 -0.116924 1.71017e-19)
(1.71593 -0.148885 -1.52376e-20)
(1.68451 -0.179986 -1.45736e-19)
(1.65035 -0.20649 2.17158e-20)
(1.60981 -0.238125 -7.00571e-20)
(1.57186 -0.249172 6.37509e-20)
(1.52672 -0.290671 4.29579e-20)
(1.74758 -0.0115651 -1.23318e-19)
(1.74266 -0.0374233 -5.36983e-20)
(1.73142 -0.0629367 5.69957e-21)
(1.71419 -0.0879448 7.68091e-20)
(1.69171 -0.112011 1.22687e-19)
(1.66432 -0.135574 -4.07521e-20)
(1.6338 -0.15603 3.34605e-21)
(1.59936 -0.180053 6.53718e-21)
(1.56484 -0.189881 2.37435e-20)
(1.52757 -0.220879 -3.42776e-20)
(1.72421 -0.00920552 -3.96441e-20)
(1.71985 -0.0274147 -8.6522e-20)
(1.70967 -0.0454112 -9.14328e-20)
(1.69404 -0.063136 -1.53255e-19)
(1.67353 -0.0803327 2.49544e-20)
(1.64879 -0.0973055 2.20907e-20)
(1.62071 -0.112356 1.70252e-20)
(1.59016 -0.129854 1.43516e-20)
(1.55807 -0.13801 -3.35565e-20)
(1.52566 -0.160404 -6.19622e-21)
(1.70729 -0.00724491 4.59009e-20)
(1.7035 -0.0186102 1.95501e-20)
(1.69422 -0.0298305 1.16482e-20)
(1.67984 -0.0409488 -2.21938e-20)
(1.66075 -0.0518733 -1.8912e-20)
(1.63781 -0.0628271 -1.06218e-20)
(1.61131 -0.0727894 -1.50563e-20)
(1.5831 -0.0845189 9.4773e-21)
(1.55248 -0.0905423 -5.4347e-21)
(1.5228 -0.106157 1.93004e-20)
(1.67598 -0.00674114 -4.99521e-20)
(1.67343 -0.011349 -8.85901e-21)
(1.66634 -0.0158928 8.03068e-20)
(1.65478 -0.0204831 -1.2578e-20)
(1.6389 -0.0251576 -1.55906e-20)
(1.61944 -0.0301784 2.16405e-20)
(1.59613 -0.0348983 -9.19142e-21)
(1.57135 -0.041376 8.65753e-22)
(1.54255 -0.0444149 2.88965e-21)
(1.51645 -0.0548277 2.18118e-20)
(1.33992 -0.00325813 4.22172e-20)
(1.33596 -0.00221938 3.32618e-20)
(1.33222 -0.00125247 3.10587e-20)
(1.32875 -0.000422569 4.62827e-20)
(1.32513 0.000182695 -1.76181e-20)
(1.32147 0.000490761 -2.48504e-20)
(1.3161 0.000540248 6.02726e-21)
(1.31208 -0.000291282 2.50056e-21)
(1.30085 0.000292792 -4.00458e-21)
(1.30126 -0.00440827 4.13106e-21)
(1.35706 0.722044 -5.0265e-20)
(1.35201 0.769741 2.59227e-20)
(1.35787 0.822153 -3.88312e-19)
(1.36563 0.880211 2.2574e-19)
(1.37375 0.94269 7.30875e-19)
(1.38136 1.00916 -1.43507e-19)
(1.38196 1.07609 -7.97285e-19)
(1.34342 1.11608 -4.4521e-20)
(1.15829 1.0161 -5.20256e-19)
(0.586772 0.543409 7.98569e-20)
(1.49547 0.702508 0)
(1.49836 0.746992 5.03296e-19)
(1.50545 0.796579 1.11056e-18)
(1.51591 0.852604 -6.53969e-19)
(1.52909 0.913738 -1.58536e-18)
(1.54334 0.979362 -1.39631e-19)
(1.55085 1.04566 -1.79613e-19)
(1.51429 1.08523 6.74665e-19)
(1.30933 0.986008 1.15686e-18)
(0.662774 0.524366 4.84145e-19)
(1.61494 0.675617 6.35944e-20)
(1.62712 0.717044 0)
(1.64098 0.763178 -6.70003e-20)
(1.65812 0.814957 6.75953e-19)
(1.67838 0.871844 5.27542e-20)
(1.7002 0.933543 -1.74561e-18)
(1.71491 0.996224 1.15112e-18)
(1.68005 1.03311 8.07307e-19)
(1.45461 0.935344 -1.05882e-18)
(0.734334 0.493669 -2.98225e-19)
(1.71926 0.629924 -1.03339e-19)
(1.73975 0.66843 -8.47689e-20)
(1.76212 0.711074 2.08386e-19)
(1.78764 0.758455 -2.61997e-19)
(1.81622 0.810551 -1.28033e-18)
(1.84647 0.86728 -9.96e-19)
(1.86878 0.924923 1.15424e-18)
(1.83536 0.957955 8.35366e-19)
(1.58899 0.863115 0)
(0.797984 0.450899 0)
(1.81376 0.564977 -7.53115e-19)
(1.84117 0.600335 -1.26716e-18)
(1.87117 0.63913 -5.12186e-19)
(1.90449 0.681773 -3.5328e-20)
(1.94106 0.728522 0)
(1.97948 0.779412 1.46987e-19)
(2.00891 0.830923 1.74257e-19)
(1.97608 0.859472 2.24672e-19)
(1.70827 0.769778 -3.45025e-19)
(0.851138 0.397022 -8.85078e-20)
(1.89923 0.484702 8.83785e-19)
(1.93203 0.516073 -4.72974e-20)
(1.96813 0.550134 -1.05285e-18)
(2.00794 0.587219 0)
(2.0514 0.62772 0)
(2.09694 0.671717 0)
(2.1323 0.715952 1.49277e-18)
(2.09871 0.73961 -1.95398e-18)
(1.80919 0.65775 -1.56313e-18)
(0.892126 0.334032 9.45629e-20)
(1.97304 0.392699 -1.19905e-18)
(2.00999 0.419011 -2.50586e-18)
(2.05085 0.447243 -4.35647e-21)
(2.09585 0.477766 5.06076e-19)
(2.14493 0.511013 -4.34442e-20)
(2.19623 0.54701 1.21482e-18)
(2.236 0.582835 -7.34166e-19)
(2.20002 0.601337 -2.51529e-18)
(1.88929 0.530423 1.70035e-19)
(0.919281 0.264354 1.35432e-19)
(2.03211 0.291572 -9.81562e-19)
(2.07225 0.311842 1.93611e-20)
(2.11674 0.333254 3.82849e-19)
(2.16573 0.356325 -3.69501e-19)
(2.21915 0.381448 5.72588e-19)
(2.27477 0.408537 1.72043e-18)
(2.31719 0.435243 -2.40723e-19)
(2.27797 0.447525 -1.51715e-18)
(1.94535 0.391884 4.4462e-19)
(0.932236 0.191974 9.10626e-20)
(2.07403 0.183557 3.64585e-19)
(2.11652 0.197064 9.3999e-20)
(2.16364 0.210901 -4.15428e-19)
(2.21548 0.22578 -9.32755e-19)
(2.27195 0.242115 1.05883e-19)
(2.3305 0.259719 1.14795e-19)
(2.37408 0.275521 -1.74277e-18)
(2.32883 0.283948 8.77861e-19)
(1.97557 0.247116 3.36007e-19)
(0.931932 0.117572 -2.43117e-19)
(2.09749 0.070734 7.36637e-19)
(2.14141 0.0768807 -1.11548e-18)
(2.18994 0.0826856 1.95088e-19)
(2.24335 0.0890298 2.35726e-18)
(2.30156 0.0959088 1.26778e-18)
(2.36148 0.103386 -2.95904e-18)
(2.4042 0.110257 -3.38939e-18)
(2.35152 0.1155 2.03107e-18)
(1.98098 0.0983538 -9.97254e-21)
(0.918403 0.0437357 -1.25446e-20)
(0.525955 0.183125 -2.04625e-19)
(0.492886 0.189464 -1.85652e-19)
(0.450934 0.19638 1.16679e-19)
(0.402935 0.203846 -3.91886e-19)
(0.350438 0.21191 -5.6331e-20)
(0.292797 0.220637 3.32519e-19)
(0.22872 0.229494 1.01911e-19)
(0.157434 0.233942 -7.26921e-20)
(0.083106 0.214077 -1.67827e-20)
(0.0145428 0.119973 3.1902e-20)
(0.551423 0.282126 1.65816e-19)
(0.519211 0.295158 2.46384e-19)
(0.478605 0.309498 3.50462e-20)
(0.432158 0.324966 -1.13784e-19)
(0.381341 0.34161 -3.70203e-19)
(0.325546 0.359596 2.84367e-20)
(0.263379 0.378019 2.42015e-19)
(0.193222 0.388861 -1.02381e-20)
(0.116094 0.357304 -3.00674e-20)
(0.032931 0.198995 -8.10839e-21)
(0.593823 0.376968 -1.85066e-19)
(0.563148 0.396435 -2.06363e-19)
(0.524884 0.417813 1.78704e-19)
(0.481083 0.440866 1.70818e-19)
(0.433101 0.465665 -6.24059e-20)
(0.380393 0.492462 -1.54334e-19)
(0.321394 0.519986 -8.54359e-20)
(0.253031 0.536861 5.17698e-20)
(0.170948 0.493887 -2.68475e-20)
(0.0631742 0.273955 7.12318e-21)
(0.652032 0.465457 1.06021e-19)
(0.623556 0.491001 4.22991e-21)
(0.588585 0.518863 -1.4427e-19)
(0.548486 0.548907 1.15472e-19)
(0.504454 0.581254 -1.01389e-19)
(0.456041 0.616221 4.73291e-20)
(0.401438 0.652176 -9.23375e-20)
(0.335494 0.674579 -7.15523e-20)
(0.246251 0.620756 -2.06853e-19)
(0.104404 0.343153 5.22614e-20)
(0.724549 0.545505 -3.56728e-20)
(0.698906 0.576678 -1.5513e-20)
(0.668127 0.610319 -4.27938e-20)
(0.63273 0.646589 -1.32803e-19)
(0.593712 0.685701 5.66023e-20)
(0.550732 0.728011 -1.15704e-19)
(0.501666 0.771523 1.85066e-19)
(0.438764 0.798772 2.26629e-20)
(0.340397 0.734828 2.78581e-19)
(0.155713 0.404935 2.20529e-19)
(0.809564 0.615149 1.13306e-20)
(0.787295 0.651344 -4.48881e-20)
(0.761478 0.689871 1.86341e-19)
(0.731683 0.731433 8.83497e-20)
(0.698664 0.776379 1.65741e-19)
(0.662182 0.825064 6.48005e-20)
(0.619703 0.875122 3.45556e-19)
(0.56042 0.906408 1.79853e-19)
(0.451389 0.833082 1.7197e-19)
(0.21592 0.45745 1.91499e-19)
(0.904827 0.672821 -9.39301e-20)
(0.886598 0.713362 2.42929e-19)
(0.866616 0.755756 1.27686e-19)
(0.843367 0.801491 -1.07794e-19)
(0.817296 0.851139 -6.32678e-20)
(0.788265 0.905035 4.16638e-19)
(0.753253 0.960457 -9.70756e-20)
(0.697981 0.994882 -2.76252e-19)
(0.576704 0.913079 -4.04363e-20)
(0.283344 0.499198 2.24989e-19)
(1.00603 0.716783 1.4989e-19)
(0.991997 0.760331 5.39742e-20)
(0.978572 0.80527 -5.0813e-19)
(0.962987 0.854079 2.78041e-20)
(0.945144 0.907417 2.76683e-19)
(0.924852 0.965446 -2.33422e-19)
(0.898448 1.02505 -4.38194e-20)
(0.84773 1.06168 -1.27911e-19)
(0.712866 0.972497 1.5329e-20)
(0.355887 0.528961 -2.73523e-19)
(1.11692 0.742948 2.40102e-20)
(1.10895 0.789305 -3.44209e-19)
(1.10285 0.835674 -2.51209e-21)
(1.09484 0.886355 2.64133e-19)
(1.08482 0.942353 -2.52678e-19)
(1.0729 1.00355 5.40462e-19)
(1.05484 1.0664 4.13909e-19)
(1.00814 1.10471 -7.27034e-19)
(0.857741 1.00997 -6.17e-20)
(0.432021 0.546361 -3.15373e-19)
(1.20392 0.754116 -1.79574e-19)
(1.2072 0.802521 -1.84021e-19)
(1.21574 0.850301 2.22852e-19)
(1.22124 0.902012 4.43595e-19)
(1.22337 0.959039 1.91687e-19)
(1.22292 1.02144 -4.5609e-19)
(1.21525 1.08552 1.32416e-20)
(1.17344 1.12403 1.61972e-19)
(1.00668 1.02492 -2.7879e-19)
(0.509356 0.551102 -2.34067e-19)
(0.698764 0.0239435 2.1323e-20)
(1.20443 0.0354758 -2.26688e-20)
(0.912677 0.0402351 -1.83643e-21)
(1.00502 0.0437834 0)
(0.985877 0.051251 2.24605e-20)
(0.967069 0.0616567 2.58599e-20)
(0.941844 0.0754394 3.26499e-20)
(0.895005 0.0931818 6.59472e-20)
(0.829804 0.117578 -9.60221e-20)
(0.657629 0.150102 -1.06265e-19)
(0.698448 0.0218625 4.04087e-20)
(1.20477 0.035764 -7.85602e-20)
(0.913423 0.0428699 -1.78511e-21)
(1.00685 0.0455575 -9.39588e-21)
(0.988524 0.0547497 1.0551e-20)
(0.97076 0.0675243 -1.37046e-20)
(0.946722 0.085512 -8.26682e-20)
(0.902102 0.11064 0)
(0.838665 0.152031 2.09904e-19)
(0.677576 0.212117 -2.49341e-19)
(0.69794 0.0197841 -6.65866e-20)
(1.20523 0.0359078 2.06429e-20)
(0.914038 0.0452752 2.90996e-20)
(1.00904 0.047143 1.84775e-20)
(0.991547 0.0580852 -2.52872e-20)
(0.975103 0.073253 -2.71567e-22)
(0.952708 0.0954443 -5.90185e-20)
(0.91177 0.127965 -5.24083e-21)
(0.851316 0.185772 2.96821e-22)
(0.709954 0.2723 6.28767e-19)
(0.697232 0.0178503 -3.4966e-21)
(1.20579 0.0359076 6.60194e-21)
(0.914537 0.0473936 2.75011e-20)
(1.01159 0.0485251 1.31315e-20)
(0.994954 0.0612367 -1.34928e-20)
(0.980103 0.078799 -1.61076e-20)
(0.959844 0.105153 8.8574e-20)
(0.923896 0.145011 -1.58579e-21)
(0.867948 0.218443 -2.60225e-19)
(0.754094 0.329468 6.62731e-20)
(0.696312 0.0161504 5.1274e-21)
(1.20637 0.0357472 -4.4833e-20)
(0.914939 0.0491652 -2.19735e-20)
(1.01454 0.0496967 4.57418e-21)
(0.998748 0.0641854 0)
(0.985759 0.0841225 0)
(0.968175 0.114573 7.56212e-20)
(0.938366 0.161651 3.23671e-22)
(0.888776 0.249928 -1.2773e-19)
(0.809093 0.382374 9.17742e-20)
(0.69516 0.0147732 -3.51982e-21)
(1.20688 0.035398 3.9628e-20)
(0.915273 0.0505281 -4.09643e-20)
(1.0179 0.0506611 -3.64674e-20)
(1.00292 0.0669134 -1.11065e-21)
(0.992073 0.0891891 6.4862e-20)
(0.977741 0.12366 1.18087e-19)
(0.955115 0.177741 -7.88617e-22)
(0.91396 0.27998 2.13367e-19)
(0.873915 0.430229 -1.97686e-19)
(0.693752 0.0138201 -2.66235e-20)
(1.20723 0.0348165 1.9444e-20)
(0.91558 0.0514197 -1.90053e-21)
(1.02169 0.0514349 -5.67548e-20)
(1.00747 0.0694009 2.82799e-21)
(0.999047 0.0939704 -1.11432e-21)
(0.988568 0.132382 -7.06201e-21)
(0.974042 0.193164 -2.05619e-19)
(0.943736 0.307423 1.61166e-19)
(0.946989 0.472513 -4.58442e-19)
(0.692055 0.0133905 1.53054e-20)
(1.20731 0.033933 -6.17929e-20)
(0.915914 0.0517782 1.28195e-20)
(1.02593 0.0520484 4.856e-20)
(1.01236 0.0716169 1.24195e-21)
(1.00668 0.0984276 -7.50794e-20)
(1.00068 0.140667 -6.46993e-20)
(0.994934 0.207921 3.69825e-19)
(0.978548 0.331669 1.05735e-20)
(1.02648 0.511503 7.39011e-19)
(0.69003 0.0136266 -8.27237e-21)
(1.20705 0.0326711 2.79077e-20)
(0.916354 0.0515284 -8.93624e-21)
(1.03063 0.0525261 -5.08833e-20)
(1.01754 0.0734914 -8.66866e-20)
(1.01492 0.102412 1.65698e-21)
(1.01398 0.148012 -8.90563e-20)
(1.01769 0.220396 4.80252e-19)
(1.01995 0.34735 -6.84243e-21)
(1.11011 0.536466 -1.01139e-18)
(0.687714 0.0146933 9.15716e-21)
(1.207 0.0312215 4.23045e-20)
(0.916845 0.0506104 1.46503e-20)
(1.03569 0.0528694 -1.14775e-19)
(1.0226 0.0751184 -7.9749e-20)
(1.02257 0.106534 -6.30302e-20)
(1.02541 0.156605 -1.59571e-19)
(1.03529 0.236971 -4.51396e-19)
(1.05399 0.372801 -2.60224e-19)
(1.18477 0.585105 -1.12918e-18)
(0.688296 0.0150261 -2.56802e-20)
(1.20891 0.0291132 -8.6662e-21)
(0.918767 0.0479807 -1.13217e-20)
(1.04143 0.0523921 -2.41229e-21)
(1.03133 0.0744724 5.40724e-20)
(1.03673 0.106521 -4.33513e-20)
(1.04867 0.156671 1.43665e-19)
(1.07396 0.234805 -4.49139e-19)
(1.11816 0.357486 -1.86418e-19)
(1.24927 0.560548 6.10996e-19)
(0.688818 0.0131507 2.14796e-20)
(1.21262 0.0265834 1.48538e-20)
(0.922951 0.0433122 7.72647e-21)
(1.0465 0.0501243 3.99597e-20)
(1.04121 0.0709793 8.23676e-20)
(1.05182 0.101916 1.25563e-19)
(1.07192 0.149116 3.01148e-20)
(1.10986 0.220494 2.38093e-19)
(1.1683 0.324771 3.07981e-19)
(1.31853 0.485572 -1.5116e-20)
(0.689081 0.0106697 -2.56998e-20)
(1.21639 0.0235996 -5.98778e-21)
(0.927301 0.0385169 -1.39072e-20)
(1.0517 0.04662 2.26976e-20)
(1.05067 0.0660598 2.24359e-34)
(1.06601 0.0949064 -8.75854e-21)
(1.09306 0.137847 -5.63226e-34)
(1.14068 0.200762 2.00598e-20)
(1.20819 0.285988 -5.43694e-20)
(1.36739 0.412887 -4.55272e-20)
(0.68939 0.0073901 4.18911e-20)
(1.21999 0.0199852 -6.21958e-35)
(0.93153 0.0334512 1.36411e-20)
(1.05677 0.0420685 -1.6318e-20)
(1.05939 0.0598033 -3.22054e-20)
(1.07885 0.0858638 -4.13634e-20)
(1.11166 0.123764 -7.01378e-34)
(1.16634 0.177731 -1.02753e-19)
(1.23999 0.245688 -1.38198e-19)
(1.39944 0.343691 8.50221e-20)
(0.689806 0.00327013 0)
(1.22355 0.0158035 6.02541e-36)
(0.93556 0.0281197 0)
(1.06152 0.0366442 0)
(1.06717 0.0523573 0)
(1.0901 0.0750952 0)
(1.12756 0.107454 -4.20037e-34)
(1.18715 0.152342 0)
(1.26487 0.205232 -2.0972e-20)
(1.41879 0.279036 5.1888e-20)
(0.690381 -0.00160801 2.75663e-20)
(1.22723 0.011145 -3.7301e-21)
(0.939354 0.0225982 1.29428e-20)
(1.0658 0.0305242 0)
(1.07387 0.043907 0)
(1.0996 0.0629229 7.43832e-21)
(1.14067 0.0894529 2.91597e-20)
(1.20355 0.125391 -1.48606e-20)
(1.28377 0.165362 -3.11979e-20)
(1.42979 0.218942 1.94497e-19)
(0.691162 -0.00776143 -4.57103e-20)
(1.23115 0.00607779 5.30624e-21)
(0.94288 0.0170207 1.25395e-20)
(1.06946 0.0238912 -5.06993e-21)
(1.07936 0.0346519 -1.07384e-20)
(1.10725 0.0496546 -8.47378e-21)
(1.15102 0.0702116 -2.17296e-20)
(1.21598 0.0974855 -4.1617e-20)
(1.29756 0.126388 -5.55011e-20)
(1.43559 0.16327 8.56403e-20)
(0.692244 -0.0135564 -3.80427e-20)
(1.23563 0.000658562 -1.84441e-20)
(0.946048 0.0115989 1.18076e-20)
(1.07228 0.0169247 -1.63051e-20)
(1.08348 0.0247848 8.92626e-35)
(1.11291 0.0355652 8.02522e-21)
(1.15856 0.0500721 -1.01371e-33)
(1.2248 0.0689737 -1.50333e-20)
(1.30692 0.0881665 1.96919e-20)
(1.43828 0.110914 2.62244e-20)
(0.692075 -0.0268938 1.82515e-19)
(1.23551 -0.00459871 -1.13231e-20)
(0.944741 0.00575351 1.17224e-20)
(1.07005 0.0104853 2.42384e-21)
(1.08202 0.0151092 3.51619e-21)
(1.11245 0.021763 1.44189e-20)
(1.15931 0.0305352 8.1132e-21)
(1.22625 0.0418072 -5.56322e-21)
(1.30834 0.052795 -2.27988e-20)
(1.43524 0.0645527 1.37671e-19)
(0.645613 -0.0200231 3.16134e-20)
(1.10273 -0.00808248 -8.09295e-35)
(0.825172 0.00309939 1.10239e-20)
(0.944725 0.00158479 0)
(0.953279 0.00319313 0)
(0.981054 0.00464723 8.26166e-21)
(1.02381 0.00650021 -9.65236e-36)
(1.08423 0.00896771 -1.493e-20)
(1.15833 0.011162 -2.8938e-20)
(1.26679 0.0129658 5.76681e-20)
(1.42591 0.615287 -1.77442e-19)
(1.51086 0.614667 -2.8009e-19)
(1.60435 0.596772 0)
(1.69217 0.555471 9.38191e-20)
(1.77321 0.495018 4.56514e-19)
(1.84746 0.421442 -1.43599e-19)
(1.91207 0.338822 1.36018e-18)
(1.96385 0.249585 -5.3384e-20)
(2.00064 0.155481 -3.50474e-19)
(2.02097 0.0586031 3.07213e-19)
(1.46533 0.508434 6.55031e-20)
(1.52947 0.503156 1.11823e-19)
(1.60848 0.477101 -3.07852e-21)
(1.6846 0.434298 1.59282e-19)
(1.75157 0.381651 -1.43907e-19)
(1.8099 0.322475 -3.71806e-19)
(1.85903 0.258189 -7.84163e-20)
(1.89758 0.189746 5.23567e-19)
(1.92468 0.118153 -1.88743e-20)
(1.93963 0.0445643 -4.36007e-19)
(1.49577 0.406473 9.95946e-20)