# Selection   : all
# Cells       : 440
# Volume      : 7.374263e+01
# Time        	minMag(U)
8.915         	1.063446e-02
8.96          	8.262433e-03
9.01          	5.699216e-03
