/*--------------------------------*- C++ -*----------------------------------*\
  =========                 |
  \\      /  F ield         | OpenFOAM: The Open Source CFD Toolbox
   \\    /   O peration     | Website:  https://openfoam.org
    \\  /    A nd           | Version:  13
     \\/     M anipulation  |
\*---------------------------------------------------------------------------*/
FoamFile
{
    format      ascii;
    class       surfaceScalarField;
    location    "0.365";
    object      phi;
}
// * * * * * * * * * * * * * * * * * * * * * * * * * * * * * * * * * * * * * //

dimensions      [0 3 -1 0 0 0 0];

internalField   nonuniform List<scalar> 
3485
(
0.00450529
-0.0536635
0.0491582
0.0132956
-0.117027
0.108237
0.0231855
-0.137381
0.127491
0.0330992
-0.141397
0.131483
0.0427607
-0.140523
0.130862
0.0521127
-0.137999
0.128647
0.0611579
-0.134856
0.125811
0.0699108
-0.131565
0.122812
0.078318
-0.128281
0.119873
-0.124596
0.116614
0.0862992
0.00444728
-0.0581108
0.012853
-0.125433
0.0221852
-0.146714
0.0314755
-0.150687
0.0405057
-0.149554
0.0492643
-0.146758
0.0577936
-0.143386
0.0661437
-0.139915
0.0743812
-0.136518
-0.133069
0.0828542
0.00435479
-0.0624656
0.0122945
-0.133373
0.02096
-0.155379
0.0294985
-0.159226
0.0377407
-0.157796
0.0456991
-0.154716
0.0534241
-0.151111
0.0609657
-0.147456
0.0683739
-0.143926
-0.140388
0.0756936
0.00422475
-0.0666903
0.0116161
-0.140764
0.0195205
-0.163284
0.0272208
-0.166926
0.0346075
-0.165183
0.0417252
-0.161834
0.048642
-0.158028
0.0554146
-0.154229
0.0620855
-0.150597
-0.147066
0.0687634
0.00403775
-0.0707281
0.0107732
-0.1475
0.017795
-0.170305
0.0245372
-0.173668
0.0309475
-0.171593
0.0370974
-0.167984
0.043065
-0.163995
0.0489072
-0.160071
0.0546694
-0.15636
-0.152826
0.0604293
0.00379252
-0.0745206
0.00976972
-0.153477
0.0158087
-0.176344
0.0215086
-0.179368
0.0268728
-0.176957
0.0320003
-0.173111
0.036976
-0.168971
0.0418569
-0.164952
0.046684
-0.161187
-0.157664
0.0515224
0.00347243
-0.077993
0.00857597
-0.15858
0.0135272
-0.181295
0.0180917
-0.183933
0.0223234
-0.181189
0.026345
-0.177133
0.0302434
-0.172869
0.0340733
-0.168782
0.037871
-0.164984
-0.161477
0.0416838
0.00307749
-0.0810705
0.00720276
-0.162706
0.0109892
-0.185082
0.0143497
-0.187293
0.0173911
-0.18423
0.0202556
-0.179998
0.0230274
-0.175641
0.0257536
-0.171508
0.0284639
-0.167695
-0.164203
0.0311897
0.00260501
-0.0836755
0.00565947
-0.16576
0.00822247
-0.187645
0.0103097
-0.18938
0.0121168
-0.186037
0.0137838
-0.181664
0.0153866
-0.177244
0.0169638
-0.173085
0.0185373
-0.169268
-0.16579
0.0201239
0.00206392
-0.0857395
0.00398491
-0.167681
0.00526632
-0.188926
0.00604019
-0.190154
0.00660321
-0.1866
0.00705651
-0.182118
0.00746183
-0.177649
0.00786308
-0.173486
0.00827178
-0.169677
0.00869064
-0.166208
0.00440259
-0.00857972
0.00417713
0.0147313
-0.0193389
0.00901015
0.0271193
-0.0230388
0.0106508
0.0400088
-0.0239591
0.0110696
0.0529103
-0.0239979
0.0110964
0.0656371
-0.0236948
0.010968
0.0780989
-0.0232273
0.0107654
0.0902562
-0.0226892
0.010532
0.102098
-0.0221347
0.0102927
-0.0217342
0.113763
0.0100689
0.00441144
-0.0129912
0.0147012
-0.0296286
0.0270227
-0.0353603
0.0398338
-0.0367702
0.0526515
-0.0368155
0.0652928
-0.0363361
0.0776708
-0.0356054
0.0897486
-0.0347671
0.101519
-0.0339049
-0.0333337
0.113118
0.00442788
-0.017419
0.0146678
-0.0398685
0.0269003
-0.0475928
0.0396048
-0.0494747
0.0523069
-0.0495176
0.064829
-0.0488582
0.0770885
-0.0478649
0.0890522
-0.0467308
0.100718
-0.0455703
-0.0448332
0.112217
0.00445242
-0.0218715
0.0146287
-0.0500448
0.0267448
-0.0597089
0.0393082
-0.0620381
0.0518564
-0.0620658
0.0642186
-0.0612204
0.0763187
-0.059965
0.0881283
-0.0585404
0.0996509
-0.0570929
-0.0561936
0.111011
0.00448443
-0.0263559
0.0145792
-0.0601396
0.0265454
-0.071675
0.0389261
-0.0744187
0.0512741
-0.0744139
0.0634284
-0.0733747
0.0753208
-0.0718575
0.0869298
-0.0701494
0.0982661
-0.0684292
-0.0673672
0.10944
0.00452124
-0.0308771
0.0145109
-0.0701293
0.0262859
-0.08345
0.0384332
-0.086566
0.0505248
-0.0865055
0.0624126
-0.0852625
0.0740394
-0.0834842
0.0853916
-0.0815016
0.0964879
-0.0795255
-0.0782899
0.107411
0.00455745
-0.0354346
0.0144106
-0.0799824
0.0259444
-0.0949839
0.0377972
-0.0984188
0.0495646
-0.098273
0.0611144
-0.0968123
0.0724026
-0.0947724
0.0834253
-0.0925243
0.0942068
-0.0903071
-0.0888629
0.10478
0.00458277
-0.0400174
0.0142566
-0.0896562
0.0254892
-0.106216
0.0369777
-0.109907
0.0483447
-0.10964
0.0594757
-0.107943
0.0703412
-0.105638
0.0809465
-0.10313
0.0913169
-0.100677
-0.0989339
0.101388
0.00458451
-0.0446019
0.0140235
-0.0990952
0.0248853
-0.117078
0.0359348
-0.120957
0.0468257
-0.120531
0.0574639
-0.118581
0.0678349
-0.116009
0.0779525
-0.113247
0.0878328
-0.110558
-0.108297
0.0971956
0.00455634
0.0136982
0.0241113
0.0346378
0.0449689
0.0550348
0.0648371
0.0744016
0.0837174
0.092035
0.158928
-0.126605
0.0814397
0.182604
-0.0920049
0.0683292
0.194226
-0.0683246
0.0567024
0.199857
-0.0515994
0.0459688
0.20227
-0.0387709
0.0363576
0.202858
-0.0285679
0.0279803
0.202369
-0.0202825
0.0207714
0.201211
-0.0133824
0.0145406
0.199615
-0.00760063
0.00919608
-0.00144474
0.00341364
0.157777
-0.171263
0.181564
-0.115792
0.19347
-0.0802302
0.199347
-0.0574767
0.201962
-0.0413853
0.202716
-0.0293217
0.20237
-0.0199367
0.201343
-0.0123554
0.199873
-0.00613107
0.000397578
0.155824
-0.21487
0.179622
-0.13959
0.191872
-0.0924806
0.198095
-0.0636999
0.201025
-0.0443153
0.202068
-0.0303645
0.201993
-0.0198615
0.201227
-0.0115894
0.200016
-0.00492015
0.00197857
0.153053
-0.256912
0.176776
-0.163313
0.189431
-0.105135
0.196102
-0.0703716
0.199463
-0.0476764
0.200917
-0.0318181
0.201239
-0.0201834
0.200864
-0.0112149
0.200042
-0.00409786
0.0031663
0.149452
-0.296925
0.173035
-0.186896
0.18615
-0.11825
0.193375
-0.0775973
0.197284
-0.0515848
0.199269
-0.0338033
0.200112
-0.0210264
0.200254
-0.0113573
0.19995
-0.00379364
0.00382745
0.144999
-0.334513
0.168409
-0.210306
0.182037
-0.131877
0.189924
-0.0854849
0.194496
-0.0561566
0.197132
-0.0364396
0.198617
-0.022511
0.199399
-0.0121397
0.19974
-0.00413452
0.00383264
0.139666
-0.3694
0.162872
-0.233512
0.177097
-0.146102
0.185761
-0.0941488
0.191114
-0.0615095
0.194519
-0.0398442
0.196763
-0.0247554
0.198305
-0.0136821
0.199414
-0.00524266
0.00305621
0.133412
-0.401423
0.15637
-0.256471
0.17133
-0.161062
0.180896
-0.103714
0.187151
-0.0677649
0.191439
-0.0441325
0.194559
-0.0278752
0.196978
-0.0161006
0.19897
-0.0072349
0.00137612
0.125967
-0.430194
0.148783
-0.279287
0.164666
-0.176945
0.175303
-0.114351
0.182606
-0.0750672
0.187903
-0.0494302
0.192014
-0.0319856
0.195421
-0.0195081
0.198412
-0.0102253
-0.00132385
0.116227
-0.454386
0.138951
-0.302012
0.156352
-0.194346
0.168593
-0.126592
0.177299
-0.0837732
0.183841
-0.0559728
0.189109
-0.0372529
0.193634
-0.0240334
0.19774
-0.0143317
-0.00515898
0.360537
-0.404049
-0.410874
0.333069
-0.274544
0.320998
-0.182275
0.315518
-0.121112
0.312695
-0.0809509
0.31099
-0.0542677
0.309844
-0.036107
0.309066
-0.0232548
0.308575
-0.0138406
-0.00497037
0.373671
-0.346509
-0.431211
0.343716
-0.244589
0.329017
-0.167576
0.321156
-0.11325
0.316551
-0.0763456
0.313641
-0.051358
0.311722
-0.0341885
0.310468
-0.0220002
0.309705
-0.0130776
-0.00468867
0.3869
-0.29133
-0.442079
0.354927
-0.212616
0.337024
-0.149673
0.326636
-0.102862
0.320271
-0.0699813
0.316196
-0.0472823
0.313527
-0.0315194
0.311808
-0.020282
0.31078
-0.0120488
-0.00431463
0.396146
-0.239404
-0.448073
0.363643
-0.180113
0.34374
-0.12977
0.331444
-0.090566
0.323622
-0.0621598
0.318529
-0.042189
0.315187
-0.0281774
0.313044
-0.0181393
0.311769
-0.0107732
-0.00385506
0.402766
-0.191274
-0.450896
0.370488
-0.147834
0.349314
-0.108595
0.335566
-0.0768178
0.326556
-0.0531499
0.320598
-0.0362314
0.31667
-0.0242492
0.31415
-0.0156195
0.312652
-0.00927544
-0.0033176
0.407415
-0.146829
-0.45186
0.375717
-0.116136
0.353788
-0.0866666
0.338975
-0.0620042
0.329027
-0.0432021
0.322362
-0.0295669
0.317941
-0.0198274
0.315101
-0.0127802
0.313414
-0.00758863
-0.0027124
0.410578
-0.105567
-0.45184
0.379569
-0.0851273
0.357228
-0.0643258
0.341667
-0.0464427
0.33101
-0.0325456
0.323792
-0.0223484
0.318976
-0.0150113
0.315878
-0.00968245
0.314036
-0.00574661
-0.00205099
0.412502
-0.0666553
-0.451414
0.382121
-0.0547462
0.359596
-0.0418013
0.343557
-0.0304035
0.332413
-0.0214009
0.324797
-0.014733
0.319695
-0.00990901
0.316406
-0.00639385
0.314448
-0.00378849
-0.00134735
0.411422
-0.0287002
-0.449377
0.381599
-0.0249231
0.359217
-0.0194198
0.343074
-0.0142597
0.331753
-0.0100805
0.323976
-0.00695608
0.318751
-0.00468351
0.31538
-0.00302331
0.313374
-0.00178218
-0.000627277
0.366609
-0.395309
0.341686
0.322266
0.308007
0.297926
0.29097
0.286287
0.283263
0.281481
0.440872
0.00829659
-0.440478
0.440602
0.0203932
0.439611
0.0321816
0.437873
0.0434215
0.43522
0.0541749
0.431885
0.0637642
0.42713
0.0735186
0.422384
0.0804396
0.413735
0.0915035
0.0891601
0.423489
0.00766868
-0.422861
0.42436
0.0195219
0.425421
0.0311207
0.42667
0.0421728
0.427898
0.052947
0.429295
0.062367
0.43036
0.0724536
0.4316
0.0791995
0.432245
0.0908591
0.0901942
0.409035
0.0068519
-0.408218
0.410578
0.0179785
0.412802
0.0288972
0.415683
0.0392913
0.419133
0.0494975
0.423098
0.0584018
0.427574
0.0679779
0.432165
0.0746085
0.437967
0.0850572
0.0860814
0.397728
0.00592439
-0.396801
0.39972
0.0159868
0.402747
0.0258698
0.406759
0.0352796
0.411755
0.0445013
0.417547
0.0526105
0.424359
0.0611652
0.431552
0.0674162
0.44035
0.076259
0.0783586
0.388866
0.00492103
-0.387863
0.391168
0.013685
0.39475
0.0222882
0.399545
0.0304844
0.40558
0.0384667
0.412638
0.0455524
0.420967
0.0528358
0.429977
0.0584062
0.440636
0.0656
0.0680983
0.382062
0.00385968
-0.381
0.384585
0.0111622
0.388551
0.0183222
0.393889
0.0251459
0.400618
0.0317375
0.408543
0.0376272
0.417851
0.0435285
0.428077
0.04818
0.439902
0.0537753
0.0561396
0.377007
0.00274859
-0.375896
0.379695
0.00847441
0.383936
0.0140809
0.38966
0.0194214
0.39686
0.0245381
0.405369
0.0291181
0.415297
0.0336003
0.426303
0.0371745
0.438823
0.0412553
0.0431227
0.373193
0.00157405
-0.372019
0.376042
0.00562502
0.380527
0.00959607
0.386571
0.0133778
0.394134
0.016975
0.403072
0.0201802
0.413413
0.0232597
0.424904
0.0256829
0.437798
0.0283613
0.0295067
0.366682
0.00036169
-0.365469
0.369727
0.00257946
0.37455
0.00477319
0.381064
0.00686395
0.389191
0.00884851
0.398754
0.0106173
0.409721
0.0122927
0.421818
0.0135857
0.435174
0.0150047
0.0153039
0.30544
-0.305078
0.308019
0.312793
0.319657
0.328505
0.339122
0.351415
0.365001
0.380006
0.0811502
0.122915
-0.112278
-0.0917869
0.0712465
0.125161
-0.115257
0.061682
0.128064
-0.1185
0.0521791
0.131483
-0.12198
0.0426051
0.135242
-0.125668
0.0328936
0.139217
-0.129505
0.0230436
0.143007
-0.133157
0.0132599
0.144397
-0.134614
0.00454073
0.132421
-0.123702
0.0735337
-0.068993
0.0765602
0.131736
-0.0853814
0.0674773
0.134244
0.0583483
0.137193
0.0492205
0.140611
0.0400589
0.144403
0.0308132
0.148462
0.0214822
0.152338
0.0122692
0.15361
0.00414011
0.14055
0.0776738
0.0689452
0.139304
-0.0765137
0.0610022
0.142187
0.0528523
0.145343
0.0445966
0.148866
0.0362506
0.152749
0.0277973
0.156916
0.0192603
0.160875
0.0108638
0.162007
0.00355675
0.147857
0.0812306
0.0604424
0.145948
-0.0670856
0.0535283
0.149101
0.0464064
0.152465
0.0391346
0.156138
0.0317293
0.160155
0.0241988
0.164446
0.0165978
0.168476
0.00917806
0.169426
0.00286123
0.154174
0.0840918
0.0514821
0.151744
-0.057278
0.0455309
0.155052
0.0394203
0.158576
0.0331606
0.162398
0.0267577
0.166557
0.0202336
0.17097
0.0136676
0.175042
0.00734024
0.175754
0.00212511
0.159389
0.0862169
0.0421738
0.156651
-0.0470809
0.0371839
0.160042
0.0320799
0.16368
0.0268483
0.16763
0.0214904
0.171915
0.0160399
0.176421
0.0105878
0.180494
0.00541108
0.18093
0.001373
0.163427
0.0875899
0.0325747
0.160616
-0.0365403
0.0285672
0.164049
0.0244826
0.167764
0.0203015
0.171811
0.016024
0.176193
0.0116877
0.180757
0.00742127
0.184761
0.00347597
0.184876
0.000585017
0.166318
0.088175
0.0226755
0.163573
-0.0256318
0.0196986
0.167026
0.016672
0.170791
0.0135816
0.174901
0.0104284
0.179346
0.00726676
0.183919
0.00422071
0.187807
0.00154509
0.187551
-0.000166823
0.16803
0.0880081
0.0124977
0.165458
-0.0143827
0.0106029
0.168921
0.00867778
0.172716
0.00671674
0.176862
0.00474241
0.18132
0.00276333
0.185898
0.000924353
0.189646
-0.000421374
0.188897
-0.000809364
0.168418
0.0871988
0.00215473
-0.00290566
0.00139873
0.000628204
-0.000158712
-0.000956165
-0.00165874
-0.00216711
-0.00219626
-0.00145932
0.107429
0.0214437
-0.118594
-0.0102783
0.0959322
0.0220009
-0.0105045
0.0841075
0.0225711
-0.0107465
0.0719396
0.0231754
-0.0110075
0.0594051
0.0238256
-0.0112911
0.0464807
0.0245227
-0.0115983
0.0331693
0.0252216
-0.0119103
0.0196546
0.0255962
-0.0120815
0.00711895
0.0238355
-0.0112998
0.0138472
-0.00672825
0.106612
0.0325686
-0.117737
0.0951681
0.0334447
0.0834077
0.0343315
0.0713153
0.0352678
0.0588669
0.036274
0.0460393
0.0373503
0.0328359
0.0384251
0.0194411
0.038991
0.00703
0.0362466
0.0208772
0.105462
0.0436281
-0.116521
0.0940983
0.0448079
0.0824325
0.0459973
0.0704485
0.0472518
0.0581221
0.0486004
0.0454298
0.0500426
0.0323754
0.0514795
0.0191456
0.0522208
0.00690879
0.0484834
0.027786
0.103891
0.0545903
-0.114854
0.0926452
0.0560541
0.081114
0.0575285
0.0692814
0.0590844
0.0571228
0.0607589
0.0446145
0.062551
0.0317606
0.0643333
0.0187497
0.0652318
0.00674725
0.0604858
0.0345332
0.101787
0.0654107
-0.112608
0.0907096
0.0671318
0.0793697
0.0688684
0.0677484
0.0707056
0.0558192
0.0726882
0.043557
0.0748131
0.0309678
0.0769226
0.018244
0.0779556
0.00654223
0.0721875
0.0410755
0.0989879
0.0760195
-0.109597
0.0881537
0.077966
0.0770803
0.0799418
0.0657465
0.0820394
0.0541246
0.0843102
0.0421889
0.0867487
0.0299461
0.0891654
0.0175926
0.0903091
0.00627225
0.0835079
0.0473477
0.0954583
0.0862898
-0.105729
0.0850036
0.0884208
0.0743242
0.0906211
0.0633849
0.0929787
0.0521553
0.0955398
0.0406142
0.0982898
0.0287771
0.101002
0.016852
0.102234
0.00597041
0.0943895
0.0533181
0.0906162
0.0960715
-0.100398
0.08068
0.098357
0.070541
0.10076
0.0601607
0.103359
0.0494995
0.106201
0.038527
0.109262
0.027257
0.112272
0.0159044
0.113587
0.0055843
0.10471
0.0589024
0.0859671
0.104851
-0.0947462
0.0768326
0.107491
0.0673006
0.110292
0.0574256
0.113234
0.0472272
0.116399
0.0367112
0.119778
0.0259143
0.123069
0.0150641
0.124437
0.00525206
0.114522
0.0641545
0.0779975
-0.085425
0.070232
0.0620243
0.0532783
0.04401
0.0342832
0.0241952
0.0140185
0.00483852
0.20092
0.0149387
-0.0178687
0.203076
0.0220217
-0.0241774
0.202949
0.0270296
-0.0269026
0.203701
0.0291534
-0.0299063
0.203033
0.0353487
-0.03468
0.200669
0.0435672
-0.0412034
0.195142
0.0549035
-0.0493765
0.184385
0.070067
-0.0593096
0.16082
0.0937653
-0.0702003
0.125078
-0.0828525
0.200757
0.0121718
0.202781
0.019997
0.202602
0.0272094
0.203266
0.0284887
0.202483
0.0361318
0.199963
0.0460871
0.194246
0.0606205
0.18321
0.0811034
0.159612
0.117363
0.166953
0.200465
0.00969656
0.202198
0.018264
0.201877
0.0275303
0.202323
0.0280426
0.2013
0.0371552
0.198507
0.0488801
0.192506
0.0666214
0.181106
0.0925033
0.157593
0.140876
0.208025
0.200035
0.00765163
0.201325
0.016974
0.200786
0.0280694
0.20088
0.0279478
0.199493
0.0385426
0.196311
0.0520624
0.189927
0.0730057
0.178077
0.104353
0.154771
0.164182
0.247943
0.199462
0.00617938
0.200171
0.016265
0.199342
0.0288985
0.198949
0.0283406
0.197077
0.0404145
0.193389
0.0557503
0.186515
0.07988
0.174136
0.116732
0.151163
0.187155
0.286498
0.198736
0.00543333
0.198742
0.0162585
0.197566
0.030075
0.196543
0.0293638
0.194069
0.0428877
0.18976
0.0600593
0.182283
0.0873576
0.169287
0.129728
0.146788
0.209654
0.323689
0.197844
0.00557929
0.197047
0.0170554
0.195479
0.0316432
0.193674
0.0311688
0.19049
0.0460712
0.185445
0.0651048
0.177253
0.0955497
0.163527
0.143454
0.141705
0.231476
0.359665
0.196776
0.00679291
0.1951
0.0187313
0.193106
0.0336373
0.190358
0.0339168
0.186364
0.050066
0.180462
0.0710067
0.171414
0.104597
0.156826
0.158042
0.135634
0.252668
0.394901
0.195524
0.00925907
0.192925
0.0213304
0.190471
0.0360912
0.186604
0.0377834
0.181719
0.0549512
0.174872
0.0778532
0.16495
0.11452
0.149903
0.173089
0.129615
0.272956
0.429769
0.194149
0.0130998
0.190561
0.0249186
0.187599
0.0390532
0.182352
0.0430306
0.176365
0.0609373
0.168095
0.0861241
0.156359
0.126256
0.139316
0.190132
0.118001
0.294271
0.462346
0.302567
0.0125431
0.304506
0.0229792
0.307573
0.035987
0.309064
0.0415396
0.3112
0.0588012
0.314004
0.0833198
0.318827
0.121433
0.328926
0.180032
0.354476
0.268721
0.406491
0.41033
0.303383
0.0111704
0.305555
0.0208068
0.309004
0.0325379
0.311413
0.0391306
0.314856
0.055359
0.319679
0.0784962
0.327538
0.113574
0.341795
0.165776
0.370805
0.239711
0.350844
0.426453
0.304089
0.00909119
0.306681
0.018215
0.31043
0.0287891
0.313701
0.0358596
0.3183
0.0507598
0.324856
0.0719405
0.335158
0.103272
0.352315
0.148619
0.383418
0.208607
0.296403
0.437859
0.304746
0.00635536
0.307777
0.0151842
0.3118
0.0247664
0.315826
0.0318335
0.321434
0.0451514
0.329441
0.0639336
0.341651
0.0910624
0.360859
0.129411
0.392652
0.176815
0.244695
0.44436
0.305387
0.0029784
0.308837
0.0117347
0.313084
0.020519
0.317738
0.0271798
0.324196
0.0386932
0.333388
0.0547411
0.347039
0.0774114
0.36764
0.10881
0.399193
0.145262
0.19628
0.447608
0.30605
-0.00106154
0.309872
0.00791263
0.314251
0.0161403
0.319398
0.0220331
0.326547
0.0315442
0.33667
0.0446176
0.351377
0.0627045
0.37287
0.0873172
0.403752
0.11438
0.151195
0.448837
0.30675
-0.00580173
0.310895
0.00376844
0.315278
0.0117572
0.320774
0.0165369
0.328451
0.0238673
0.339275
0.0337932
0.35473
0.0472496
0.376752
0.0652947
0.406852
0.0842803
0.109101
0.448946
0.307579
-0.0113704
0.311906
-0.000558788
0.316106
0.0075571
0.321801
0.010842
0.32985
0.0158179
0.341172
0.0224718
0.357133
0.0312885
0.379432
0.0429963
0.408851
0.0548613
0.0694606
0.448491
0.307496
-0.0168563
0.311584
-0.00464703
0.315424
0.00371754
0.321243
0.00502328
0.329519
0.00754159
0.34116
0.0108312
0.357441
0.0150071
0.379845
0.0205922
0.40884
0.0258667
0.0322828
0.446017
0.285154
0.280507
0.284224
0.289248
0.296789
0.30762
0.322627
0.34322
0.369086
0.401369
0.416566
-0.0980222
0.419152
-0.0879682
0.422304
-0.0796653
0.425887
-0.0706688
0.429441
-0.0608322
0.432702
-0.0503412
0.435513
-0.0393517
0.437788
-0.0279067
0.439468
-0.0160623
-0.00391539
0.42578
-0.0973489
0.425155
-0.0873432
0.424647
-0.0791576
0.424087
-0.0701094
0.423479
-0.0602233
0.422946
-0.0498089
0.422572
-0.0389778
0.422409
-0.0277432
0.42249
-0.0161437
-0.00428628
0.432175
-0.0916651
0.42721
-0.082378
0.422541
-0.0744895
0.418433
-0.0660012
0.414986
-0.0567759
0.412225
-0.0470479
0.410154
-0.0369066
0.408785
-0.0263746
0.408136
-0.0154949
-0.00436805
0.435122
-0.0824279
0.427131
-0.0743863
0.419887
-0.0672458
0.41353
-0.0596444
0.408157
-0.0514023
0.403798
-0.0426893
0.400467
-0.0335751
0.398177
-0.0240855
0.396949
-0.0142666
-0.00421986
0.43609
-0.0709098
0.42601
-0.0643063
0.416975
-0.0582106
0.40906
-0.0517303
0.40236
-0.0447015
0.396906
-0.0372358
0.392713
-0.0293819
0.389796
-0.021168
0.388174
-0.0126451
-0.00390874
0.435903
-0.0579762
0.42445
-0.0528532
0.414223
-0.0479833
0.405268
-0.0427752
0.397666
-0.0371001
0.391459
-0.0310281
0.386667
-0.0245897
0.383312
-0.0178135
0.381418
-0.0107514
-0.00349075
0.435154
-0.0441845
0.422837
-0.0405354
0.411841
-0.0369875
0.402207
-0.0331418
0.394011
-0.0289042
0.387299
-0.024316
0.382104
-0.0193943
0.378455
-0.0141644
0.37638
-0.00867639
-0.00300687
0.434161
-0.0298548
0.421309
-0.0276834
0.409828
-0.0255066
0.39975
-0.0230634
0.391151
-0.0203056
0.384087
-0.0172519
0.378601
-0.0139083
0.374737
-0.0102998
0.372533
-0.00647303
-0.00249216
0.431041
-0.014878
0.41773
-0.0143726
0.405811
-0.0135879
0.395277
-0.012529
0.386206
-0.0112348
0.378674
-0.00971951
0.372759
-0.00799334
0.368543
-0.00608376
0.366096
-0.0040269
-0.00186519
0.386491
0.372119
0.358531
0.346002
0.334767
0.325047
0.317054
0.31097
0.306943
0.00534004
0.103565
-0.108905
0.00941949
0.204453
-0.208533
0.0113816
0.231079
-0.233041
0.0121807
0.233235
-0.234034
0.0125969
0.229748
-0.230164
0.0129481
0.22557
-0.225921
0.0133758
0.221718
-0.222145
0.013961
0.218268
-0.218854
0.0147562
0.214833
-0.215628
0.210203
0.0155505
-0.210997
0.00700783
0.0965572
0.0145534
0.196908
0.0203295
0.225303
0.0248917
0.228673
0.0289642
0.225675
0.0329691
0.221565
0.0371118
0.217575
0.0414912
0.213889
0.0461504
0.210174
0.205502
0.0508508
0.00801632
0.0885409
0.0184795
0.186444
0.02776
0.216023
0.0358898
0.220543
0.0434258
0.218139
0.0508381
0.214153
0.0584015
0.210011
0.0662294
0.206061
0.074288
0.202115
0.197379
0.0824113
0.00834146
0.0801994
0.0208978
0.173888
0.0330816
0.203839
0.0442729
0.209352
0.0547902
0.207622
0.0650794
0.203863
0.0754705
0.19962
0.0861272
0.195404
0.0970048
0.191238
0.186528
0.107856
0.00811217
0.0720872
0.0218003
0.1602
0.036007
0.189632
0.0495001
0.195859
0.0622958
0.194826
0.0747368
0.191422
0.0871536
0.187203
0.099756
0.182802
0.112578
0.178416
0.173653
0.125453
0.00752844
0.0645588
0.0214604
0.146268
0.0367007
0.174392
0.0515924
0.180967
0.0658609
0.180558
0.0796893
0.177594
0.0933445
0.173548
0.107035
0.169112
0.120861
0.164589
0.159599
0.134915
0.00680071
0.0577581
0.0203408
0.132728
0.0357546
0.158978
0.0511981
0.165524
0.0661894
0.165567
0.0807433
0.16304
0.0950167
0.159275
0.109167
0.154961
0.123281
0.150476
0.145296
0.137584
0.00608917
0.0516689
0.0189122
0.119905
0.0339195
0.143971
0.0492641
0.150179
0.0643576
0.150473
0.0790762
0.148322
0.0934537
0.144897
0.107564
0.140851
0.121496
0.136544
0.131476
0.135315
0.00550526
0.0461637
0.0175745
0.107835
0.0319418
0.129603
0.0468481
0.135273
0.0616857
0.135636
0.0762504
0.133757
0.0904885
0.130659
0.104407
0.126932
0.118006
0.122945
0.117659
0.131823
0.00508245
0.0410812
0.0165181
0.0963998
0.0302337
0.115888
0.0445593
0.120947
0.0588952
0.1213
0.0729808
0.119671
0.086679
0.116961
0.0999256
0.113686
0.112605
0.110266
0.105916
0.124348
0.00483051
0.0362507
0.0158474
0.0853829
0.0290916
0.102644
0.0429703
0.107068
0.0569241
0.107346
0.070697
0.105898
0.0841438
0.103514
0.0971891
0.10064
0.109837
0.0976177
0.0950563
0.120697
0.0046857
0.031565
0.0154471
0.0746216
0.0283739
0.0897167
0.04191
0.0935324
0.0555223
0.0937335
0.0689624
0.0924582
0.082083
0.0903936
0.094799
0.0879244
0.107093
0.0853239
0.0836191
0.11853
0.00459644
0.0269685
0.0152071
0.0640109
0.0279383
0.0769856
0.0412449
0.0802258
0.0546125
0.0803659
0.067809
0.0792617
0.0806984
0.0775042
0.0932029
0.0754199
0.105298
0.0732287
0.0719653
0.116952
0.0045363
0.0224322
0.0150614
0.0534858
0.0276835
0.0643635
0.0408554
0.0670538
0.0540733
0.067148
0.0671195
0.0662156
0.0798707
0.064753
0.0922599
0.0630307
0.104266
0.0612231
0.0602436
0.115987
0.00449273
0.0179395
0.0149696
0.0430089
0.027535
0.0517981
0.040633
0.0539558
0.0537637
0.0540173
0.0667193
0.05326
0.079387
0.0520854
0.0917082
0.0507094
0.103665
0.0492666
0.0485163
0.115392
0.00445965
0.0134799
0.0149066
0.032562
0.0274411
0.0392636
0.0404982
0.0408987
0.0535785
0.0409369
0.0664807
0.0403577
0.0790994
0.0394667
0.091382
0.0384268
0.103312
0.0373363
0.0367955
0.115033
0.00443441
0.00904546
0.014859
0.0221374
0.0273728
0.0267498
0.0404042
0.0278673
0.0534537
0.0278874
0.0663244
0.0274871
0.0789155
0.0268756
0.0911785
0.0261637
0.103098
0.0254165
0.0250761
0.114818
0.00441653
0.00462893
0.0148212
0.0117327
0.0273155
0.0142554
0.0403249
0.014858
0.0533507
0.0148616
0.0661987
0.0146391
0.0787715
0.0143028
0.0910233
0.0139119
0.102939
0.0135003
0.0133537
0.114662
0.00440516
0.000223761
0.0147889
0.00134905
0.0272591
0.00178522
0.0402419
0.00187514
0.0532405
0.00186302
0.066063
0.00181661
0.0786143
0.00175156
0.0908507
0.00167551
0.102758
0.00159262
0.00163423
0.114478
0.00440089
0.0147601
0.0271961
0.0401408
0.0531002
0.0658848
0.0784018
0.0906093
0.102495
0.114198
0.136124
0.250536
-0.265963
0.149005
0.114366
-0.127247
0.158902
0.0394026
-0.0492991
0.166338
0.00673877
-0.0141746
0.17238
-0.00641666
0.000374596
0.1777
-0.0106676
0.0053479
0.182552
-0.010964
0.00611151
0.187054
-0.00961394
0.0051119
0.19125
-0.00769479
0.00349846
-0.00517413
0.00134036
0.141487
0.227579
0.156439
0.0994136
0.166095
0.0297462
0.172808
2.65513e-05
0.177948
-0.0115567
0.182253
-0.014973
0.186036
-0.0147471
0.189431
-0.0130092
0.192508
-0.0107717
-0.00789599
0.144885
0.199645
0.161853
0.0824464
0.171918
0.0196805
0.178332
-0.00638749
0.182866
-0.0160907
0.186349
-0.0184559
0.189199
-0.0175965
0.191608
-0.015419
0.193681
-0.0128444
-0.009614
0.148159
0.167473
0.166844
0.0637614
0.177197
0.00932784
0.183343
-0.0125342
0.187289
-0.0200368
0.190031
-0.0211976
0.192051
-0.019616
0.193587
-0.0169548
0.194768
-0.0140259
-0.0104392
0.151234
0.131632
0.171238
0.0437573
0.181836
-0.00127006
0.187733
-0.0184313
0.191179
-0.0234832
0.19328
-0.023298
0.19458
-0.0209161
0.195357
-0.0177321
0.195764
-0.0144327
-0.0104876
0.153952
0.0927128
0.175003
0.0227059
0.1858
-0.012067
0.191486
-0.0241169
0.194515
-0.0265124
0.196078
-0.0248607
0.196773
-0.0216118
0.196912
-0.0178705
0.196665
-0.014186
-0.00987941
0.156194
0.0513367
0.1781
0.00079946
0.189047
-0.0230136
0.194573
-0.0296431
0.197276
-0.0292149
0.19841
-0.025995
0.19862
-0.0218217
0.198243
-0.0174932
0.197467
-0.0134104
-0.00873911
0.15788
0.00811848
0.180462
-0.0217824
0.191538
-0.0340894
0.196971
-0.0350764
0.199444
-0.0316878
0.200263
-0.0268146
0.20011
-0.0216681
0.199343
-0.0167264
0.198166
-0.0122331
-0.00719402
0.158932
-0.036336
0.182028
-0.0448784
0.193246
-0.0453069
0.19866
-0.0404907
0.201006
-0.0340332
0.201627
-0.0274364
0.201235
-0.0212758
0.200208
-0.0156989
0.198759
-0.0107845
-0.00537477
0.159301
0.182752
0.194148
0.199626
0.20195
0.202494
0.20199
0.200831
0.199243
0.185678
0.0313046
-0.216982
0.167502
0.0181759
0.159318
0.00818346
0.15664
0.00267865
0.156465
0.000174525
0.157216
-0.000750892
0.15815
-0.000934216
0.158953
-0.000802221
0.159497
-0.000544044
-0.000202539
0.237039
0.0916196
-0.297354
0.20862
0.0465956
0.197175
0.0196279
0.193509
0.00634436
0.193187
0.000497274
0.194091
-0.00165488
0.195255
-0.00209837
0.196264
-0.00181091
0.196965
-0.00124533
-0.000472886
0.240264
0.155079
-0.303723
0.210955
0.0759042
0.199684
0.0308987
0.196271
0.0097579
0.19613
0.000637621
0.197147
-0.00267116
0.198381
-0.00333241
0.199433
-0.0028637
0.200164
-0.00197567
-0.000755724
0.235171
0.214903
-0.294995
0.208272
0.102803
0.198481
0.0406897
0.195857
0.0123823
0.196117
0.000377757
0.19733
-0.0038842
0.198655
-0.00465747
0.199748
-0.0039568
0.200496
-0.00272314
-0.00104378
0.229846
-0.280906
0.205402
0.196793
0.195001
0.195753
0.197217
0.198671
0.199826
0.200601
0.021119
-0.000803589
-0.0203154
0.0251486
-0.00402961
0.0330379
-0.00788924
0.0459432
-0.0129054
0.0648893
-0.0189461
0.0896932
-0.0248039
0.119684
-0.0299912
0.151738
-0.0320535
0.186631
-0.034893
-0.0303515
0.0572749
-0.0033073
-0.0547711
0.0673682
-0.014123
0.0853451
-0.0258661
0.110847
-0.0384076
0.141815
-0.0499134
0.174961
-0.0579506
0.207833
-0.0628627
0.238452
-0.0626729
0.269413
-0.0658539
-0.0582925
0.0827023
-0.00705544
-0.0789542
0.0953567
-0.0267774
0.115818
-0.0463276
0.141554
-0.0641436
0.169311
-0.0776699
0.19722
-0.0858601
0.224828
-0.0904706
0.252099
-0.0899441
0.279352
-0.0931066
-0.0826641
0.0974809
-0.0113068
-0.0932295
0.109985
-0.0392819
0.128858
-0.0652004
0.151537
-0.0868221
0.176131
-0.102264
0.201716
-0.111445
0.226868
-0.115623
0.251522
-0.114598
0.274029
-0.115614
-0.10363
0.104828
-0.100584
0.116397
0.133608
0.154641
0.17783
0.2013
0.223261
0.243979
0.260188
0.101257
-0.0889351
0.0982466
-0.110568
0.0916905
-0.0919565
0.101523
0.0815762
-0.095111
0.105225
0.0706777
-0.0983114
0.10921
0.0589627
-0.101646
0.113361
0.0465008
-0.105137
0.117599
0.0334009
-0.108573
0.121673
0.0199278
-0.110463
0.123937
0.00730541
-0.10258
0.115202
-0.0582997
0.0656051
0.105869
-0.0788574
-0.115947
0.0952358
-0.0813235
0.0839557
-0.0838309
0.0721038
-0.0864595
0.0597308
-0.0892733
0.0468629
-0.0922687
0.0335346
-0.0952445
0.0199478
-0.0968766
0.00729286
-0.0899248
-0.0510068
0.106137
-0.0679599
-0.117034
0.0949254
-0.0701124
0.0833701
-0.0722755
0.0714499
-0.0745393
0.0591298
-0.0769532
0.0463706
-0.0795096
0.0331656
-0.0820395
0.0197011
-0.0834121
0.00716989
-0.0773936
-0.0438369
0.107445
-0.056881
-0.118523
0.0960603
-0.0587281
0.0843356
-0.0605509
0.0722369
-0.0624406
0.059732
-0.0644483
0.046796
-0.0665736
0.0334362
-0.0686797
0.0198453
-0.0698212
0.00722087
-0.0647691
-0.036616
0.108042
-0.0457107
-0.119213
0.0965375
-0.0472234
0.0846909
-0.0487043
0.0724861
-0.0502358
0.0598983
-0.0518604
0.0469022
-0.0535776
0.0334992
-0.0552766
0.0198735
-0.0561955
0.00722037
-0.052116
-0.0293957
0.108399
-0.034515
-0.119595
0.0968564
-0.0356807
0.0849681
-0.036816
0.0727202
-0.0379879
0.0600886
-0.0392288
0.0470487
-0.0405377
0.0336024
-0.0418303
0.0199349
-0.042528
0.00723951
-0.0394206
-0.0221562
0.108534
-0.0233138
-0.119735
0.0969801
-0.0241267
0.085077
-0.0249129
0.0728117
-0.0257226
0.0601616
-0.0265787
0.0471037
-0.0274799
0.0336412
-0.0283678
0.0199584
-0.0288452
0.00724537
-0.0267076
-0.0149108
0.108511
-0.01211
-0.119715
0.0969554
-0.0125711
0.0850521
-0.0130096
0.0727877
-0.0134581
0.0601394
-0.0139304
0.0470845
-0.014425
0.0336259
-0.0149092
0.0199474
-0.0151667
0.00723971
-0.014
-0.00767108
0.108333
-0.000910449
-0.119533
0.0967859
-0.00102354
0.0848944
-0.00111806
0.072645
-0.00120876
0.0600151
-0.00130052
0.0469818
-0.0013917
0.033548
-0.00147529
0.0198972
-0.00151588
0.00721925
-0.00132206
-0.000451832
0.107975
-0.119164
0.0964473
0.0845827
0.0723665
0.0597749
0.0467849
0.0333994
0.019802
0.00718008
0.0179292
-0.207877
-0.0210496
0.0145472
-0.212246
0.0111405
-0.215447
0.00775133
-0.218756
0.00440505
-0.222575
0.00118008
-0.226939
-0.0017624
-0.231092
-0.003589
-0.231215
-0.00318031
-0.208941
-0.112085
0.0493857
-0.200829
-0.0564333
0.0419328
-0.204793
0.0346655
-0.20818
0.0276405
-0.211731
0.020809
-0.215743
0.0141319
-0.220262
0.00778806
-0.224748
0.00232647
-0.225753
-0.000883063
-0.205732
-0.112968
0.0762357
-0.190058
-0.0870065
0.0653988
-0.193956
0.0549517
-0.197733
0.044906
-0.201685
0.0351687
-0.206006