/*--------------------------------*- C++ -*----------------------------------*\
  =========                 |
  \\      /  F ield         | OpenFOAM: The Open Source CFD Toolbox
   \\    /   O peration     | Website:  https://openfoam.org
    \\  /    A nd           | Version:  13
     \\/     M anipulation  |
\*---------------------------------------------------------------------------*/
FoamFile
{
    format      ascii;
    class       surfaceScalarField;
    location    "0.585";
    object      phi;
}
// * * * * * * * * * * * * * * * * * * * * * * * * * * * * * * * * * * * * * //

dimensions      [0 3 -1 0 0 0 0];

internalField   nonuniform List<scalar> 
3485
(
0.00216014
-0.00489749
0.00273736
0.00868345
-0.0535995
0.0470762
0.0180336
-0.104628
0.0952781
0.028372
-0.135284
0.124946
0.0386766
-0.147486
0.137182
0.0486021
-0.149503
0.139578
0.0580925
-0.147261
0.137771
0.0671466
-0.143631
0.134577
0.0757331
-0.139607
0.13102
-0.135352
0.127
0.0840845
0.00263549
-0.00753299
0.00963051
-0.0605945
0.0190307
-0.114029
0.0290477
-0.145301
0.038877
-0.157315
0.0483777
-0.159004
0.057651
-0.156535
0.0668369
-0.152817
0.0761385
-0.148908
-0.145112
0.0858986
0.00305485
-0.0105878
0.0103821
-0.0679217
0.0195917
-0.123238
0.0289411
-0.15465
0.0378053
-0.16618
0.0461666
-0.167365
0.0541632
-0.164531
0.0619117
-0.160565
0.069484
-0.156481
-0.152463
0.0768357
0.00348996
-0.0140778
0.0111101
-0.0755419
0.0200857
-0.132214
0.028784
-0.163349
0.0368115
-0.174207
0.0443184
-0.174872
0.0515285
-0.171741
0.0585884
-0.167625
0.0655779
-0.16347
-0.159526
0.0726406
0.00383607
-0.0179139
0.0115579
-0.0832637
0.0200582
-0.140714
0.027847
-0.171138
0.03476
-0.18112
0.0410902
-0.181202
0.0471194
-0.177771
0.0530094
-0.173515
0.0588483
-0.169309
-0.165356
0.0646779
0.00412392
-0.0220378
0.0117947
-0.0909345
0.0196698
-0.148589
0.0264576
-0.177925
0.0322313
-0.186894
0.0374132
-0.186384
0.0423292
-0.182686
0.0471436
-0.17833
0.0519269
-0.174092
-0.170161
0.0567321
0.00429607
-0.0263339
0.0116977
-0.0983362
0.0187355
-0.155627
0.0243616
-0.183551
0.0288767
-0.191409
0.0328091
-0.190317
0.036513
-0.18639
0.0401526
-0.181969
0.0437935
-0.177733
-0.173832
0.0474644
0.00434681
-0.0306807
0.0112662
-0.105256
0.0172857
-0.161646
0.0216479
-0.187914
0.0248535
-0.194615
0.0275065
-0.19297
0.0299685
-0.188852
0.0323914
-0.184392
0.0348301
-0.180172
-0.176304
0.0373024
0.0042509
-0.0349316
0.0104664
-0.111471
0.0153014
-0.166481
0.018321
-0.190933
0.0201792
-0.196473
0.0215319
-0.194322
0.022733
-0.190054
0.0239195
-0.185578
0.0251379
-0.181391
-0.177561
0.0263946
0.00400999
-0.0389416
0.00932273
-0.116784
0.0128564
-0.170015
0.0144834
-0.19256
0.01498
-0.196969
0.0150325
-0.194375
0.0149733
-0.189995
0.0149222
-0.185527
0.0149135
-0.181382
0.0149472
-0.177594
-0.000732472
0.000322765
0.000409707
0.0022025
-0.00758157
0.0046466
0.0101244
-0.0170883
0.00916643
0.0215089
-0.0234198
0.0120353
0.0345474
-0.0263393
0.0133008
0.0480878
-0.0271495
0.013609
0.0615704
-0.0269558
0.0134732
0.0747736
-0.0263751
0.0131719
0.0876369
-0.0256931
0.0128299
-0.0252085
0.100332
0.0125138
-0.000644692
0.000967457
0.00241591
-0.0106422
0.0104094
-0.0250819
0.0217915
-0.0348019
0.0347711
-0.0393189
0.0482193
-0.0405976
0.0615937
-0.0403302
0.0746833
-0.0394647
0.0874352
-0.0384449
-0.0377949
0.100022
-0.000517249
0.00148471
0.00272262
-0.013882
0.0108222
-0.0331815
0.0222068
-0.0461865
0.0351092
-0.0522213
0.048433
-0.0539214
0.0616598
-0.053557
0.0745927
-0.0523976
0.0871886
-0.0510408
-0.0502269
0.0996206
-0.000339273
0.00182398
0.00314519
-0.0173665
0.0113915
-0.0414278
0.0227843
-0.0575792
0.0355893
-0.0650264
0.0487548
-0.0670869
0.0617945
-0.0665967
0.0745298
-0.065133
0.0869296
-0.0634406
-0.0624619
0.0991646
-0.000119066
0.00194304
0.00369454
-0.0211801
0.0121366
-0.0498698
0.023544
-0.0689867
0.0362312
-0.0777135
0.0492058
-0.0800614
0.0620238
-0.0794148
0.0745302
-0.0776394
0.0867059
-0.0756163
-0.0744642
0.0987082
0.000161421
0.00178162
0.00438475
-0.0254034
0.0130631
-0.0585481
0.0244825
-0.0804061
0.0370244
-0.0902554
0.0497741
-0.0928111
0.0623423
-0.091983
0.0746026
-0.0898998
0.086546
-0.0875597
-0.0862026
0.0982845
0.000520838
0.00126079
0.00521473
-0.0300973
0.014147
-0.0674805
0.025553
-0.0918121
0.0379002
-0.102603
0.0503736
-0.105285
0.0626541
-0.104263
0.0746535
-0.101899
0.0863668
-0.099273
-0.0976227
0.0977868
0.000928878
0.000331907
0.00613602
-0.0353045
0.0153047
-0.0766491
0.0266297
-0.103137
0.0386877
-0.114661
0.050782
-0.117379
0.0626761
-0.116158
0.0743278
-0.113551
0.0857288
-0.110674
-0.108537
0.096643
0.001342
-0.00101009
0.00702763
-0.0409901
0.0163375
-0.085959
0.0274395
-0.114239
0.0390349
-0.126256
0.0505506
-0.128895
0.0618254
-0.127432
0.0728488
-0.124574
0.0835868
-0.121412
-0.118483
0.0935326
0.00172727
0.00781333
0.0171324
0.0278391
0.0387646
0.0494479
0.0597863
0.069789
0.0793972
0.0879148
0.154337
-0.154509
0.100504
0.181118
-0.109573
0.0827914
0.194566
-0.081896
0.0684484
0.201209
-0.0619638
0.0553208
0.204224
-0.0467423
0.0437269
0.205176
-0.034751
0.0337989
0.204921
-0.025171
0.0254265
0.203923
-0.0173325
0.0183301
0.20247
-0.0112721
0.0127255
-0.00344739
0.0053509
0.153175
-0.207663
0.180114
-0.136511
0.193853
-0.095635
0.20075
-0.0688607
0.203965
-0.0499574
0.205077
-0.0358632
0.204956
-0.0250498
0.20408
-0.0164568
0.202743
-0.00993503
-0.00166548
0.151224
-0.259266
0.178219
-0.163507
0.192302
-0.109718
0.199548
-0.0761065
0.203074
-0.0534834
0.204468
-0.0372571
0.204608
-0.0251903
0.203984
-0.0158328
0.202896
-0.00884669
-0.000141656
0.148464
-0.308565
0.175424
-0.190466
0.189911
-0.124205
0.197606
-0.0838006
0.201555
-0.0574334
0.203353
-0.0390544
0.203881
-0.0257184
0.203639
-0.015591
0.202932
-0.00813921
0.000990749
0.144896
-0.354753
0.171717
-0.217288
0.186683
-0.139171
0.194929
-0.092046
0.199417
-0.0619217
0.201737
-0.0413748
0.202777
-0.0267585
0.203043
-0.0158571
0.202846
-0.00794146
0.00159763
0.140498
-0.396966
0.167076
-0.243865
0.182619
-0.154714
0.191526
-0.100954
0.196669
-0.0670639
0.19963
-0.0443362
0.201303
-0.028431
0.202201
-0.0167552
0.20264
-0.00838068
0.00154853
0.135194
-0.434374
0.161432
-0.270103
0.177698
-0.170981
0.187403
-0.110659
0.193322
-0.0729832
0.197044
-0.048058
0.199468
-0.0308545
0.201117
-0.018404
0.202314
-0.00957825
0.000716806
0.128921
-0.466652
0.154647
-0.295829
0.171839
-0.188172
0.182541
-0.121361
0.189382
-0.0798239
0.193985
-0.0526616
0.197279
-0.034148
0.199797
-0.020922
0.20187
-0.011652
-0.00102048
0.121804
-0.494924
0.146615
-0.32064
0.164838
-0.206396
0.176821
-0.133343
0.184802
-0.087805
0.190446
-0.058306
0.194738
-0.0384397
0.198243
-0.0244269
0.20131
-0.0147192
-0.00378224
0.114839
-0.521848
0.138646
-0.344447
0.157095
-0.224844
0.170275
-0.146523
0.179549
-0.0970796
0.186406
-0.0651623
0.191843
-0.043877
0.196458
-0.029042
0.200633
-0.0188945
-0.00768414
0.378722
-0.461191
-0.439379
0.34691
-0.312635
0.330794
-0.208727
0.323072
-0.138802
0.319043
-0.0930499
0.316637
-0.0627568
0.315043
-0.0422825
0.313956
-0.0279552
0.31322
-0.0181587
-0.00737391
0.390967
-0.390873
-0.461285
0.356026
-0.277694
0.338398
-0.1911
0.328916
-0.12932
0.323223
-0.0873568
0.319558
-0.0590922
0.317103
-0.0398271
0.315458
-0.0263103
0.314374
-0.0170753
-0.00692738
0.406943
-0.325737
-0.472079
0.369337
-0.240088
0.347726
-0.169489
0.335179
-0.116773
0.327436
-0.0796131
0.322425
-0.0540814
0.319098
-0.0364999
0.3169
-0.0241123
0.315471
-0.0156468
-0.00634651
0.417115
-0.265417
-0.477435
0.378967
-0.20194
0.355272
-0.145793
0.340583
-0.102085
0.331193
-0.0702225
0.325024
-0.0479131
0.320921
-0.0323966
0.318221
-0.0214118
0.316472
-0.0138984
-0.00563872
0.424266
-0.210014
-0.479669
0.386501
-0.164175
0.361502
-0.120794
0.345192
-0.085775
0.334461
-0.0594916
0.327313
-0.0407647
0.322536
-0.0276204
0.319392
-0.0182677
0.317359
-0.0118647
-0.00481619
0.429179
-0.159089
-0.480103
0.392193
-0.127189
0.366446
-0.0950479
0.348967
-0.0682956
0.337187
-0.0477118
0.329245
-0.0328221
0.323908
-0.0222836
0.32039
-0.0147502
0.318114
-0.00958797
-0.00389453
0.432418
-0.111841
-0.479666
0.39631
-0.0910804
0.370183
-0.0689213
0.351901
-0.050013
0.339341
-0.0351519
0.330783
-0.0242645
0.325003
-0.0165033
0.321188
-0.0109353
0.318713
-0.00711291
-0.00288968
0.433993
-0.0669056
-0.478929
0.39865
-0.055737
0.37243
-0.0427017
0.353697
-0.0312797
0.340641
-0.022096
0.331673
-0.0152969
0.325593
-0.0104228
0.321571
-0.00691376
0.318955
-0.00449614
-0.00182418
0.426993
-0.020667
-0.473232
0.392372
-0.021116
0.366903
-0.0172322
0.348567
-0.0129442
0.335688
-0.00921677
0.326797
-0.00640584
0.320751
-0.00437713
0.316752
-0.00291456
0.314147
-0.00189141
-0.000762677
0.312885
-0.333552
0.291769
0.274537
0.261592
0.252376
0.24597
0.241593
0.238678
0.236787
0.471615
0.0131397
-0.469808
0.472657
0.0253533
0.472806
0.0371528
0.471976
0.0482945
0.469742
0.0589662
0.467074
0.067346
0.460849
0.0788658
0.457407
0.0802775
0.44564
0.0976655
0.0903459
0.452801
0.0113817
-0.451043
0.454626
0.0235284
0.456425
0.0353543
0.458264
0.0464552
0.459601
0.0576294
0.461379
0.0655677
0.461561
0.0786837
0.462687
0.0791516
0.463523
0.0968293
0.0925844
0.436516
0.009602
-0.434736
0.438929
0.0211153
0.441883
0.0323997
0.4454
0.042939
0.449266
0.0537634
0.453504
0.0613288
0.458295
0.0738927
0.462255
0.075192
0.468393
0.0906908
0.0888989
0.424055
0.00783249
-0.422286
0.42681
0.0183605
0.430497
0.028713
0.435056
0.0383795
0.440553
0.0482668
0.446446
0.0554358
0.453937
0.0664019
0.46045
0.0686784
0.469745
0.0813966
0.0812083
0.414308
0.00607129
-0.412546
0.417307
0.0153611
0.421517
0.0245031
0.426828
0.0330683
0.433398
0.041697
0.44057
0.0482634
0.449642
0.05733
0.458173
0.0601478
0.469379
0.0701901
0.0709183
0.406944
0.0042951
-0.405168
0.41013
0.012175
0.414702
0.019931
0.420542
0.0272284
0.427792
0.0344478
0.435883
0.0401724
0.445841
0.0473715
0.455749
0.0502399
0.46807
0.0578697
0.0588846
0.401577
0.0024784
-0.39976
0.404926
0.00882553
0.409777
0.0150808
0.416012
0.0209926
0.423709
0.0267515
0.432433
0.0314481
0.442887
0.0369175
0.453697
0.03943
0.466595
0.0449714
0.0458137
0.396853
0.000421932
-0.394796
0.400493
0.00518505
0.405738
0.00983657
0.412463
0.0142673
0.420653
0.018561
0.429974
0.0221275
0.440803
0.0260887
0.452235
0.0279973
0.465426
0.0317811
0.0323105
0.377975
-0.00151395
-0.376039
0.382121
0.00103943
0.388312
0.00364531
0.396382
0.00619773
0.406213
0.00872933
0.417402
0.0109392
0.430113
0.0133772
0.443439
0.0146717
0.458203
0.0170172
0.0172813
0.240653
-0.242167
0.241693
0.245338
0.251536
0.260265
0.271204
0.284581
0.299253
0.31627
0.0783764
0.127741
-0.115462
-0.0906556
0.0671191
0.129642
-0.118385
0.0567913
0.132422
-0.122094
0.0468982
0.136113
-0.126219
0.0370654
0.140229
-0.130396
0.0271587
0.144134
-0.134228
0.0173871
0.145598
-0.135827
0.0085715
0.137752
-0.128936
0.00227566
0.108233
-0.101937
0.0479517
-0.045676
0.0801666
0.138942
-0.0913671
0.0686785
0.14113
0.0575627
0.143537
0.0469368
0.146739
0.0366264
0.150539
0.0265083
0.154252
0.0167554
0.155351
0.00813432
0.146373
0.00209814
0.114269
0.0500498
0.0731015
0.148356
-0.0825153
0.0631855
0.151046
0.0531442
0.153579
0.0432098
0.156673
0.0334171
0.160332
0.0237912
0.163878
0.0146096
0.164533
0.00671014
0.154272
0.00148108
0.119498
0.0515309
0.0610937
0.155822
-0.0685595
0.0532262
0.158913
0.0449773
0.161828
0.0364874
0.165163
0.027874
0.168945
0.0192941
0.172458
0.0111724
0.172655
0.00448762
0.160957
0.000573202
0.123413
0.0521041
0.0485286
0.161786
-0.0544927
0.0422861
0.165156
0.0356317
0.168482
0.0286148
0.17218
0.0213494
0.17621
0.0140492
0.179758
0.00723416
0.17947
0.0019781
0.166213
-0.00038069
0.125772
0.0517234
0.03711
0.166731
-0.0420551
0.0319817
0.170284
0.0265269
0.173937
0.0207547
0.177952
0.0147562
0.182209
0.00875975
0.185755
0.0033489
0.184881
-0.00050576
0.170068
-0.00126062
0.126527
0.0504628
0.02658
0.17086
-0.030709
0.0223421
0.174522
0.0178844
0.178394
0.0132053
0.182631
0.00838023
0.187034
0.00364502
0.19049
-0.000464654
0.18899
-0.00253755
0.17214
-0.00202707
0.126016
0.0484357
0.0163083
0.174113
-0.019561
0.0129857
0.177845
0.00951919
0.181861
0.0059165
0.186234
0.00225215
0.190698
-0.00122221
0.193964
-0.00374861
0.191517
-0.0044944
0.172886
-0.00264135
0.124163
0.0457944
0.0059837
0.176401
-0.00827159
0.00366339
0.180165
0.00126618
0.184258
-0.00119678
0.188697
-0.00364893
0.19315
-0.00579863
0.196114
-0.00703555
0.192754
-0.00631664
0.172167
-0.00320084
0.121047
0.0425935
-0.00439763
0.00320377
-0.00561441
-0.00688358
-0.0081814
-0.00940562
-0.010261
-0.0100676
-0.00791528
-0.00365196
0.103551
0.023954
-0.114857
-0.0126476
0.0919219
0.024577
-0.0129481
0.0799336
0.0252502
-0.0132619
0.0675636
0.0259675
-0.0135975
0.0548024
0.0267216
-0.0139605
0.0416604
0.0274797
-0.0143377
0.0282907
0.0279819
-0.0146121
0.0154128
0.0271632
-0.0142854
0.00494406
0.0225735
-0.0121048
0.011127
-0.00618296
0.102782
0.0352449
-0.114073
0.0911835
0.0361752
0.0792407
0.037193
0.0669307
0.0382775
0.0542436
0.0394087
0.0411902
0.0405331
0.0279269
0.0412452
0.0151774
0.0399127
0.00484848
0.0329024
0.0159755
0.101668
0.0465048
-0.112928
0.0901227
0.0477205
0.078252
0.0490638
0.0660329
0.0504966
0.0534544
0.0519872
0.0405278
0.0534597
0.0274151
0.0543578
0.0148468
0.052481
0.00471373
0.0430356
0.0206892
0.100097
0.057707
-0.1113
0.0886386
0.0591793
0.0768784
0.060824
0.0647925
0.0625826
0.0523685
0.0644112
0.0396186
0.0662097
0.0267125
0.0672639
0.0143927
0.0648008
0.00452796
0.0529003
0.0252172
0.0979087
0.0688083
-0.10901
0.0865939
0.0704941
0.0750118
0.0724061
0.0631314
0.074463
0.0509337
0.0766088
0.03843
0.0787134
0.0257999
0.079894
0.0138016
0.076799
0.00428606
0.0624159
0.0295032
0.0949208
0.0797279
-0.10584
0.0838238
0.081591
0.0724869
0.083743
0.0608814
0.0860686
0.0489893
0.0885009
0.0368234
0.0908793
0.0245728
0.0921446
0.0130102
0.0883616
0.00396076
0.0714653
0.033464
0.091158
0.0902688
-0.101699
0.0805144
0.0922346
0.0696411
0.0946164
0.0584697
0.09724
0.0469754
0.0999952
0.0351872
0.102667
0.0233306
0.104001
0.0122185
0.0994737
0.00365219
0.0800317
0.0371162
0.08477
0.100324
-0.0948249
0.0746766
0.102328
0.0644564
0.104837
0.0540367
0.10766
0.043342
0.11069
0.0323551
0.113654
0.0212888
0.115068
0.0109652
0.109797
0.00315207
0.0878448
0.0402683
0.0822897
0.108962
-0.0909284
0.0731854
0.111432
0.0633921
0.11463
0.053068
0.117984
0.0423655
0.121392
0.0314073
0.124613
0.0204796
0.125995
0.0104299
0.119847
0.00295989
0.0953148
0.0432281
0.0692612
-0.075761
0.062309
0.054845
0.0466093
0.037606
0.027991
0.0181594
0.00907049
0.00244788
0.202124
0.0124553
-0.0165893
0.204712
0.0283712
-0.030959
0.205217
0.0347608
-0.0352665
0.206173
0.0364895
-0.0374455
0.205279
0.0430051
-0.0421108
0.202782
0.0516329
-0.0491363
0.196684
0.064413
-0.0583151
0.185992
0.0812337
-0.0705412
0.160259
0.109379
-0.0836463
0.145947
-0.100545
0.201851
0.00859389
0.204296
0.0259269
0.204752
0.0343047
0.205648
0.0355935
0.204675
0.0439774
0.202043
0.0542653
0.195804
0.0706518
0.184788
0.0922496
0.159107
0.13506
0.190981
0.201455
0.00512906
0.203614
0.0237678
0.203924
0.0339945
0.204617
0.0349007
0.203441
0.045153
0.200549
0.0571579
0.194086
0.0771147
0.182622
0.103713
0.157172
0.16051
0.235225
0.200926
0.00219279
0.202665
0.0220284
0.202743
0.0339172
0.20309
0.0345531
0.201589
0.0466544
0.198315
0.0604323
0.191533
0.0838959
0.179475
0.115772
0.154499
0.185486
0.278425
0.200262
-7.95887e-05
0.201458
0.0208324
0.201221
0.0341542
0.201082
0.0346927
0.199137
0.0485993
0.195361
0.0642083
0.18816
0.0910967
0.175316
0.128616
0.151159
0.209643
0.320574
0.199458
-0.00154769
0.199998
0.0202919
0.199373
0.0347794
0.198603
0.0354629
0.196104
0.0510987
0.191707
0.0686044
0.183975
0.0988289
0.170156
0.142435
0.147177
0.232622
0.361911
0.198504
-0.00206149
0.198293
0.0205023
0.197218
0.0358549
0.195673
0.0370081
0.192513
0.054258
0.187374
0.0737439
0.17897
0.107232
0.16412
0.157285
0.142616
0.254126
0.402827
0.197399
-0.00147027
0.196358
0.0215424
0.194774
0.0374393
0.192309
0.0394733
0.188393
0.0581736
0.182381
0.0797563
0.173107
0.116507
0.157125
0.173266
0.13665
0.274601
0.444653
0.196153
0.000366557
0.194225
0.0234706
0.19206
0.0396046
0.188526
0.043007
0.183771
0.0629285
0.176797
0.0867303
0.166652
0.126651
0.150505
0.189413
0.131836
0.293271
0.48556
0.194886
0.00347062
0.191959
0.0263968
0.189098
0.0424664
0.18429
0.0478148
0.178503
0.068715
0.170067
0.0951661
0.158023
0.138696
0.140269
0.207167
0.121137
0.312402
0.530937
0.303407
0.00207362
0.306837
0.0229667
0.310641
0.0386631
0.31323
0.0452251
0.316222
0.0657237
0.319667
0.0917213
0.325221
0.133142
0.336349
0.196039
0.361718
0.287033
0.467858
0.424796
0.304273
-0.000188719
0.307985
0.0192541
0.31237
0.0342779
0.315762
0.0418333
0.320181
0.0613044
0.32581
0.0860923
0.334781
0.124171
0.350628
0.180192
0.380287
0.257375
0.404014
0.44413
0.305131
-0.00330951
0.309337
0.015048
0.314114
0.0295014
0.318296
0.0376507
0.323917
0.0556834
0.3314
0.0786096
0.343047
0.112524
0.361733
0.161506
0.395263
0.223846
0.341051
0.458226
0.306038
-0.00733775
0.310754
0.0103319
0.315819
0.0244365
0.320693
0.0327775
0.327334
0.0490418
0.336368
0.0695755
0.350064
0.0988284
0.370908
0.140662
0.405859
0.188894
0.280839
0.466071
0.307038
-0.0123655
0.312251
0.00511849
0.317466
0.0192224
0.322888
0.0273546
0.330361
0.0415692
0.340652
0.0592845
0.355864
0.0836168
0.378332
0.118193
0.413084
0.154143
0.224201
0.469722
0.308192
-0.0185475
0.313874
-0.000563702
0.319028
0.0140687
0.324832
0.0215508
0.332954
0.0334466
0.344218
0.0480205
0.360514
0.0673214
0.384112
0.0945945
0.417909
0.120346
0.171214
0.470896
0.309569
-0.026106
0.315661
-0.00665564
0.320487
0.00924261
0.326478
0.0155597
0.335073
0.0248516
0.347046
0.0360476
0.36409
0.0502776
0.388395
0.0702893
0.421053
0.0876881
0.121509
0.470758
0.311302
-0.0353978
0.317623
-0.0129762
0.321695
0.00516967
0.327631
0.00962434
0.336539
0.0159438
0.349001
0.0235856
0.366557
0.0327214
0.391239
0.0456066
0.42296
0.0559672
0.0746336
0.469836
0.309631
-0.043019
0.314704
-0.0180483
0.317902
0.00197106
0.323825
0.00370202
0.3329
0.00686845
0.345682
0.0108032
0.363602
0.0148019
0.388406
0.0208024
0.419774
0.0245994
0.0324097
0.461998
0.258991
0.240943
0.242914
0.246616
0.253484
0.264288
0.27909
0.299892
0.324491
0.356901
0.439297
-0.105156
0.444919
-0.0969889
0.447488
-0.0850848
0.449753
-0.0708246
0.452715
-0.0574542
0.456351
-0.0456911
0.460249
-0.0346068
0.463958
-0.0232701
0.467136
-0.0114499
0.00053181
0.444957
-0.105983
0.44374
-0.095772
0.442403
-0.0837485
0.442472
-0.0708936
0.443621
-0.0586032
0.445115
-0.0471842
0.446593
-0.036085
0.448059
-0.0247363
0.449581
-0.0129719
-0.000930446
0.451915
-0.0996715
0.446458
-0.0903157
0.441746
-0.0790358
0.43826
-0.0674082
0.435893
-0.0562362
0.434324
-0.0456149
0.433429
-0.0351905
0.433212
-0.0245189
0.433663
-0.0134228
-0.00200357
0.455599
-0.0892001
0.446544
-0.0812599
0.43889
-0.0713824
0.432872
-0.0613896
0.428411
-0.0517753
0.425191
-0.0423948
0.422993
-0.0329923
0.421763
-0.0232891
0.42152
-0.01318
-0.0027693
0.456942
-0.07642
0.445738
-0.0700555
0.436305
-0.0619495
0.428661
-0.0537459
0.422671
-0.0457854
0.418115
-0.0378386
0.414842
-0.0297193
0.412818
-0.021265
0.412055
-0.0124175
-0.00326018
0.456878
-0.0624028
0.44438
-0.0575575
0.433753
-0.0513217
0.424986
-0.0449787
0.417946
-0.0387462
0.412488
-0.0323806
0.408502
-0.0257328
0.40595
-0.0187134
0.404837
-0.0113039
-0.00359166
0.45601
-0.0476556
0.442735
-0.0442817
0.431358
-0.0399451
0.421887
-0.035508
0.41419
-0.0310489
0.408154
-0.0263449
0.403705
-0.0212833
0.400818
-0.0158267
0.399503
-0.00998908
-0.00384853
0.454434
-0.0322535
0.440516
-0.0303632
0.428575
-0.0280046
0.418588
-0.0255209
0.410408
-0.0228687
0.403936
-0.0198731
0.399124
-0.0164711
0.395975
-0.0126778
0.394521
-0.00853538
-0.00412379
0.444993
-0.0152485
0.42982
-0.0151907
0.416718
-0.0149023
0.405552
-0.0143548
0.396148
-0.0134647
0.388436
-0.0121613
0.382459
-0.0104937
0.378325
-0.00854398
0.376159
-0.00636906
-0.00400472
0.341653
0.326462
0.311559
0.297205
0.28374
0.271579
0.261085
0.252541
0.246172
0.0102801
0.0496633
-0.0599434
0.0214714
0.150319
-0.16151
0.0263746
0.215959
-0.220862
0.0260025
0.242884
-0.242512
0.0229324
0.248679
-0.245609
0.0188964
0.246877
-0.242841
0.0145855
0.24319
-0.238879
0.0102414
0.23854
-0.234196
0.0061935
0.230445
-0.226397
0.211279
0.00342406
-0.20851
0.0119047
0.0377587
0.0277215
0.134502
0.0379261
0.205754
0.0423193
0.238491
0.0434542
0.247544
0.0433995
0.246932
0.0430576
0.243532
0.0424456
0.239153
0.0407619
0.232129
0.215657
0.0363847
0.0122878
0.0254709
0.0313853
0.115405
0.04645
0.19069
0.0557981
0.229143
0.0615284
0.241814
0.0658329
0.242627
0.069872
0.239493
0.0737456
0.235279
0.0761688
0.229706
0.218601
0.0732244
0.0114012
0.0140697
0.0317148
0.0950911
0.0503127
0.172092
0.0641452
0.21531
0.0744199
0.231539
0.0831001
0.233947
0.0914924
0.231101
0.0999947
0.226777
0.107829
0.221871
0.215121
0.111309
0.00950864
0.00456105
0.0288092
0.0757905
0.0490065
0.151894
0.0661884
0.198129
0.0804548
0.217273
0.0931774
0.221224
0.105551
0.218727
0.118172
0.214156
0.130954
0.209089
0.203691
0.142384
0.00704004
-0.00247899
0.0235424
0.0592881
0.0433053
0.132131
0.0622282
0.179206
0.0793759
0.200125
0.0953103
0.20529
0.110856
0.203182
0.126581
0.19843
0.14275
0.19292
0.186867
0.159574
0.00448242
-0.0069614
0.0173563
0.0464142
0.0352274
0.11426
0.0543599
0.160073
0.0730627
0.181423
0.0910844
0.187268
0.108731
0.185536
0.126358
0.180803
0.144163
0.175115
0.168293
0.162737
0.00222041
-0.00918181
0.0115697
0.0370649
0.0268975
0.0989325
0.045066
0.141905
0.063948
0.162541
0.0826411
0.168575
0.100945
0.167232
0.118923
0.162825
0.136767
0.157272
0.150566
0.154494
0.000582941
-0.00976475
0.00724663
0.0304013
0.02026
0.0859191
0.0370983
0.125066
0.0554976
0.144141
0.0741897
0.149883
0.0926615
0.14876
0.110793
0.144693
0.128673
0.139392
0.132263
0.146976
-0.000384791
-0.00937996
0.00443966
0.0255768
0.0155667
0.0747921
0.030885
0.109748
0.0481019
0.126925
0.0657272
0.132257
0.0829868
0.1315
0.0995373
0.128143
0.115052
0.123877
0.118002
0.129313
-0.000805455
-0.00857451
0.00302443
0.0217469
0.0129518
0.0648647
0.0271344
0.0955654
0.0433799
0.110679
0.0602091
0.115428
0.0768459
0.114863
0.092971
0.112018
0.108448
0.1084
0.105048
0.121402
-0.000939118
-0.00763539
0.00244668
0.0183611
0.0116785
0.0556329
0.0250649
0.082179
0.0405211
0.095223
0.0566288
0.0993204
0.0726409
0.0988511
0.0882356
0.096423
0.103317
0.0933185
0.0913337
0.117032
-0.000973564
-0.00666183
0.00215571
0.0152318
0.0108919
0.0468967
0.0236137
0.0694571
0.0383152
0.0805215
0.0536396
0.0839961
0.0688749
0.0836158
0.0837066
0.0815912
0.0980236
0.0790015
0.0776964
0.111661
-0.000970008
-0.00569182
0.00199651
0.0122653
0.0103784
0.0385148
0.0225906
0.0572449
0.0366839
0.0664282
0.0513546
0.0693254
0.0659229
0.0690475
0.080085
0.0674292
0.0937203
0.0653661
0.0644461
0.106971
-0.000947275
-0.00474454
0.00192286
0.00939519
0.0100716
0.0303661
0.021937
0.0453795
0.03561
0.0527552
0.0498295
0.0551059
0.0639477
0.0549293
0.0776809
0.0536959
0.0909232
0.0521239
0.0514742
0.103895
-0.000924255
-0.00382029
0.00189019
0.00658075
0.00989194
0.0223643
0.0215385
0.033733
0.0349493
0.0393444
0.048895
0.0411601
0.0627541
0.0410703
0.0762623
0.0401876
0.0893298
0.0390563
0.0386301
0.102174
-0.000902622
-0.00291767
0.00188486
0.00379327
0.00980071
0.0144485
0.0213186
0.0222151
0.0345786
0.0260844
0.0483726
0.0273662
0.0620967
0.0273461
0.0755002
0.0267842
0.0885033
0.0260532
0.0258285
0.101305
-0.000874058
-0.00204361
0.00190911
0.0010101
0.00978201
0.00657559
0.0212292
0.0107679
0.0344053
0.0129083
0.0481164
0.0136551
0.0617709
0.0136916
0.0751266
0.0134284
0.0881096
0.0130702
0.0130338
0.100904
-0.000839295
-0.00120431
0.00196496
-0.00179416
0.00982777
-0.00128721
0.0212382
-0.000642555
0.0343632
-0.000216696
0.0480209
-2.57757e-06
0.061629
8.35387e-05
0.0749519
0.000105513
0.0879197
0.000102321
0.000246186
0.100707
-0.000794608
0.00205783
0.00993705
0.0213298
0.0344139
0.0480204
0.0615771
0.0748545
0.0877867
0.100547
0.137862
0.29216
-0.30862
0.149909
0.122723
-0.13477
0.159568
0.0415538
-0.0512122
0.167251
0.00493434
-0.0126173
0.173643
-0.0090649
0.00267254
0.179312
-0.0131463
0.007477
0.184509
-0.013067
0.00787074
0.189331
-0.0113589
0.00653648
0.193841
-0.00932039
0.00481031
-0.00607771
0.00204754
0.139617
0.269574
0.155611
0.10673
0.16641
0.0307545
0.173734
-0.00238929
0.179299
-0.0146299
0.183964
-0.0178116
0.188076
-0.0171787
0.191769
-0.0150519
0.195133
-0.0126849
-0.00897422
0.141898
0.239338
0.160888
0.0877395
0.172263
0.0193791
0.179344
-0.00947019
0.184308
-0.0195935
0.188154
-0.021658
0.191319
-0.0203433
0.194003
-0.0177365
0.196339
-0.0150203
-0.0108472
0.144609
0.201699
0.16571
0.0666388
0.177507
0.00758137
0.184391
-0.0163542
0.188809
-0.0240107
0.191919
-0.0247684
0.194242
-0.0226663
0.196033
-0.0195279
0.197456
-0.0164433
-0.0118102
0.147353
0.158241
0.169996
0.0439959
0.182109
-0.00453164
0.188812
-0.0230572
0.192769
-0.0279681
0.195244
-0.0272427
0.196837
-0.0242593
0.197852
-0.0205434
0.198482
-0.0170728
-0.0119811
0.149836
0.11058
0.173679
0.0201528
0.186048
-0.016901
0.192602
-0.0296114
0.196174
-0.0315396
0.198113
-0.0291822
0.199091
-0.0252374
0.199452
-0.0209042
0.199411
-0.0170318
-0.0114821
0.151907
0.0599775
0.176699
-0.00463941
0.189287
-0.0294887
0.195732
-0.0360565
0.199
-0.0348077
0.200512
-0.030694
0.200994
-0.0257194
0.200825
-0.0207347
0.200239
-0.0164464
-0.0104392
0.153468
0.00741353
0.179005
-0.0301759
0.191786
-0.0422702
0.198176
-0.0424458
0.201231
-0.0378633
0.202427
-0.0318899
0.202535
-0.0258279
0.201963
-0.0201625
0.200963
-0.0154459
-0.00898142
0.154431
-0.0463099
0.180536
-0.056281
0.193516
-0.0552504
0.199913
-0.0488423
0.202852
-0.0408024
0.203847
-0.0328853
0.203707
-0.0256881
0.202862
-0.0193174
0.201578
-0.0141614
-0.00724077
0.154741
0.181251
0.194449
0.200927
0.203852
0.204765
0.204504
0.203517
0.202081
0.108764
-0.0033642
-0.1054
0.106643
0.00212072
0.104721
0.00192258
0.104662
5.88551e-05
0.105638
-0.000976447
0.106826
-0.0011876
0.107893
-0.00106668
0.108725
-0.000832736
0.109304
-0.000578304
-0.000233604
0.232474
0.0668658
-0.302704
0.200338
0.0342564
0.188199
0.0140612
0.184945
0.0033129
0.185161
-0.00119234
0.186554
-0.00257993
0.188113
-0.00262621
0.189435
-0.00215499
0.190417
-0.00155958
-0.000651571
0.250449
0.156431
-0.340015
0.213786
0.0709191
0.200135
0.0277121
0.196375
0.00707298
0.196497
-0.00131416
0.19794
-0.00402303
0.199592
-0.00427831
0.201007
-0.00357001
0.202069
-0.00262173
-0.001109
0.245508
0.238269
-0.327346
0.212153
0.104274
0.199907
0.0399586
0.19679
0.0101895
0.197245
-0.00176932
0.198856
-0.00563331
0.200596
-0.00601813
0.202053
-0.00502754
0.203136
-0.00370518
-0.00157472
0.24025
-0.310601
0.209754
0.1985
0.196073
0.196976
0.19882
0.200672
0.202181
0.203286
0.0117018
0.000684891
-0.0123867
0.011996
-0.000294195
0.0127506
-0.00075459
0.0136204
-0.000869774
0.0154098
-0.00178941
0.0194976
-0.00408783
0.030959
-0.0114613
0.04705
-0.0160911
0.0757175
-0.0286675
-0.0296824
0.0340341
0.00162041
-0.0349696
0.0370133
-0.00327343
0.0443337
-0.00807497
0.0578812
-0.0144173
0.0803665
-0.0242747
0.113892
-0.0376137
0.158914
-0.0564828
0.20731
-0.064487
0.260619
-0.0819772
-0.0717667
0.0558761
0.00163736
-0.055893
0.0630376
-0.0104349
0.078987
-0.0240244
0.106247
-0.0416774
0.145405
-0.063433
0.193348
-0.0855564
0.241921
-0.105056
0.283692
-0.106258
0.31691
-0.115195
-0.0948716
0.0758064
2.75871e-05
-0.0741966
0.0871778
-0.0218064
0.110068
-0.0469141
0.144758
-0.0763683
0.18712
-0.105795
0.229487
-0.127923
0.263321
-0.13889
0.290447
-0.133384
0.310098
-0.134845
-0.11212
0.0922515
-0.0887999
0.10683
0.13314
0.168081
0.204671
0.236321
0.260168
0.281278
0.293408
0.0909609
-0.0879665
0.0971553
-0.10015
0.0820893
-0.0906682
0.0995398
0.0731349
-0.0942012
0.103156
0.0633677
-0.0978403
0.107607
0.0525156
-0.101387
0.112239
0.0406172
-0.104729
0.116628
0.0279638
-0.106761
0.119414
0.0154159
-0.10291
0.115458
0.00500392
-0.0835746
0.0939865
-0.0393461
0.04435
0.104679
-0.0780696
-0.114576
0.0941438
-0.0801331
0.0825615
-0.082619
0.0700798
-0.0853585
0.0569458
-0.0882533
0.0433478
-0.0911314
0.0295197
-0.0929329
0.0161984
-0.0895891
0.00529103
-0.0726672
-0.0340551
0.101591
-0.0667807
-0.11288
0.0900747
-0.0686166
0.0783102
-0.0708545
0.0662709
-0.0733192
0.0538841
-0.0758665
0.0410877
-0.078335
0.0279872
-0.0798324
0.0152824
-0.0768843
0.00489515
-0.0622799
-0.0291599
0.103759
-0.0554607
-0.115079
0.0922366
-0.0570946
0.0803791
-0.0589969
0.0680989
-0.061039
0.0553575
-0.0631251
0.0421655
-0.0651431
0.0286921
-0.066359
0.0156789
-0.0638711
0.00505924
-0.0516602
-0.0241007
0.104316
-0.0440653
-0.115711
0.0926318
-0.0454106
0.0805924
-0.0469576
0.0681641
-0.0486107
0.0553323
-0.0502933
0.0421045
-0.0519153
0.028631
-0.0528854
0.01563
-0.0508701
0.00502459
-0.0410549
-0.0190761
0.10459
-0.0326847
-0.11597
0.0929006
-0.0337214
0.0808485
-0.0349055
0.0684017
-0.0361639
0.0555436
-0.0374352
0.0422811
-0.0386528
0.0287659
-0.0393702
0.0157176
-0.0378218
0.00506595
-0.0304032
-0.0140102
0.104679
-0.0213306
-0.116033
0.0929942
-0.0220368
0.0809347
-0.022846
0.068474
-0.0237033
0.0556008
-0.024562
0.0423246
-0.0253766
0.0287963
-0.0258419
0.0157331
-0.0247585
0.00506985
-0.01974
-0.00894031
0.104624
-0.00999153
-0.115963
0.0929466
-0.0103599
0.0808924
-0.0107918
0.0684367
-0.0112476
0.0555696
-0.0116949
0.0423008
-0.0121078
0.0287805
-0.0123216
0.015725
-0.011703
0.00506821
-0.0090832
-0.0038721
0.104417
0.001331
-0.115739
0.0927552
0.00130149
0.0807168
0.00124653
0.0682789
0.00119034
0.0554324
0.00115159
0.0421877
0.00113697
0.0286952
0.00117089
0.0156715
0.00132061
0.0050471
0.00154125
0.001175
0.104056
-0.115373
0.0924096
0.0803943
0.0679871
0.0551782
0.0419775
0.0285363
0.0155715
0.00500796
0.0257551
-0.206332
-0.027933
0.0196943
-0.220337
0.0123213
-0.226823
0.0047265
-0.231284
-0.00264526
-0.235469
-0.00926424
-0.23899
-0.0137646
-0.238012
-0.01385
-0.220777
-0.0077546
-0.167606
-0.067698
0.0549333
-0.201929
-0.0593368
0.0461254
-0.211529
0.0359969
-0.216695
0.025698
-0.220985
0.0156092
-0.22538
0.006097
-0.229478
-0.0018822
-0.230033
-0.00612231
-0.216536