/*--------------------------------*- C++ -*----------------------------------*\
  =========                 |
  \\      /  F ield         | OpenFOAM: The Open Source CFD Toolbox
   \\    /   O peration     | Website:  https://openfoam.org
    \\  /    A nd           | Version:  13
     \\/     M anipulation  |
\*---------------------------------------------------------------------------*/
FoamFile
{
    format      ascii;
    class       volScalarField;
    location    "21.8";
    object      p;
}
// * * * * * * * * * * * * * * * * * * * * * * * * * * * * * * * * * * * * * //

dimensions      [0 2 -2 0 0 0 0];

internalField   nonuniform List<scalar> 
440
(
-0.627195
-0.613859
-0.616192
-0.579598
-0.635144
-0.68492
-0.66745
-0.646839
-0.621602
-0.601796
-0.792756
-0.760608
-0.722277
-0.674122
-0.618863
-0.925244
-0.877594
-0.792096
-0.689756
-0.586346
-1.0179
-0.953706
-0.808668
-0.65806
-0.519572
-1.23821
-1.27563
-1.33996
-1.43172
-1.56746
-0.979851
-0.98717
-1.00638
-1.04486
-1.07987
-0.820097
-0.818531
-0.811077
-0.790884
-0.758133
-0.662837
-0.649801
-0.627986
-0.587985
-0.5347
-0.568626
-0.559619
-0.536851
-0.485593
-0.42714
-1.44095
-1.08523
-0.782499
0.361356
-0.00979035
-1.08912
-1.18512
-0.672144
0.300929
-0.0160087
-0.809089
-1.13742
-0.548317
0.149991
-0.032228
-0.631331
-1.18956
-0.476306
0.013349
-0.0617368
-0.479442
-1.23055
-0.423887
-0.0379611
-0.0649143
-0.254509
-1.10897
-0.31359
-0.0766714
-0.0344452
-0.0843557
-0.756478
-0.154653
-0.0820199
-0.0502893
-0.00360314
-0.493672
-0.143582
-0.016026
-0.0211278
0.0367237
-0.326425
-0.144512
-0.0484005
-0.0393729
0.145663
-0.244263
-0.182301
-0.0304841
-0.0216552
-0.280621
-0.394121
-0.511975
-0.649737
-0.722609
-0.0445954
-0.153085
-0.214448
-0.252677
-0.24531
0.113034
0.026953
-0.0315664
-0.0626736
-0.0819896
0.213556
0.131545
0.0677227
0.0347839
0.0103412
0.260452
0.176345
0.116547
0.0908721
0.0861583
0.957083
0.809976
0.625115
0.421615
0.201033
0.566014
0.410573
0.221585
0.00820509
-0.227543
0.1765
0.0188862
-0.177214
-0.397771
-0.613592
-0.153921
-0.314843
-0.512245
-0.724787
-0.891344
-0.380926
-0.539537
-0.721683
-0.911717
-1.01987
2.0406
2.07208
2.10156
2.11773
2.11655
1.85929
1.88091
1.89761
1.89772
1.87692
1.64606
1.63522
1.60248
1.54811
1.46925
1.40469
1.372
1.30493
1.2084
1.08541
1.17895
1.08001
0.951241
0.803322
0.625959
1.80097
1.79547
1.77036
1.84478
1.92081
1.79234
1.7853
1.75323
1.82869
1.83949
1.78482
1.77206
1.7332
1.80092
1.73261
1.77858
1.75629
1.71187
1.75744
1.57265
1.77363
1.73985
1.68999
1.71378
1.40225
1.77036
1.71494
1.66203
1.61041
1.20337
1.77103
1.68662
1.66138
1.49953
1.30193
1.7759
1.67305
1.66164
1.43387
1.33771
1.77684
1.64667
1.65837
1.37194
1.34686
1.8123
1.64314
1.65755
1.33483
1.37683
0.93821
0.654482
0.328496
0.052316
-0.138302
0.84914
0.654105
0.436034
0.244777
0.0811649
0.840126
0.674656
0.514147
0.363423
0.229781
0.882732
0.72585
0.581224
0.445234
0.324113
0.929698
0.772024
0.62777
0.493132
0.370809
-1.78543
-1.6098
-1.41215
-1.2468
-1.14492
-1.89499
-1.80263
-1.63194
-1.47601
-1.36451
-1.84355
-1.78207
-1.65277
-1.51816
-1.39629
-1.70879
-1.65931
-1.5813
-1.48048
-1.36824
-1.5621
-1.53996
-1.49815
-1.4301
-1.32887
-1.47232
-1.46718
-1.4438
-1.44254
-1.32954
-1.41042
-1.41522
-1.40519
-1.42551
-1.34117
-1.31672
-1.30876
-1.29436
-1.29144
-1.26179
-1.28866
-1.27488
-1.26014
-1.25094
-1.24559
-1.31872
-1.3257
-1.34315
-1.37119
-1.41052
-0.829439
-0.894471
0.253944
0.395696
0.051572
-0.918593
-0.91953
0.138663
0.443133
0.0435267
-1.12659
-1.1309
-0.374121
0.460669
0.0232471
-1.49759
-1.53613
-0.74517
0.44127
0.0122351
-1.69656
-1.51214
-0.796273
0.402397
0.00228917
-0.510587
-1.05684
0.165473
0.321895
0.0629523
-0.744987
-0.9213
0.229792
0.363033
0.0662387
-1.08561
-1.28141
-1.29019
-1.17121
-0.93768
-1.10742
-1.30239
-1.30861
-1.21823
-1.10329
1.61541
1.58816
1.54274
1.47997
1.39672
1.8233
1.84097
1.84302
1.82737
1.79427
1.99954
2.03101
2.05521
2.06692
2.06389
2.10528
2.14403
2.18482
2.21752
2.23189
2.11687
2.15393
2.19513
2.22937
2.24515
-0.66384
-0.782226
-0.966454
-1.1857
-1.44773
-0.0317297
-0.176259
-0.368921
-0.601944
-0.899704
0.549313
0.39988
0.220309
0.00824508
-0.25879
1.01619
0.899632
0.758448
0.587219
0.378455
1.39076
1.3086
1.20217
1.07483
0.924263
1.85885
1.81908
1.79739
1.79634
1.78822
1.84419
1.81731
1.7984
1.81767
1.86211
1.83195
1.81437
1.79859
1.84179
1.94513
1.82069
1.81004
1.79345
1.85252
1.9623
1.81034
1.80417
1.78368
1.85375
1.9601
1.91384
1.82353
1.78236
1.71552
1.6442
1.86871
1.81479
1.77829
1.73878
1.66221
1.26961
1.02675
0.613225
0.0182629
-0.625556
1.35486
1.06175
0.63086
0.0392203
-0.61926
)
;

boundaryField
{
    left
    {
        type            zeroGradient;
    }
    right
    {
        type            fixedValue;
        value           uniform 0;
    }
    down
    {
        type            zeroGradient;
    }
    up
    {
        type            zeroGradient;
    }
    cylinder
    {
        type            zeroGradient;
    }
    defaultFaces
    {
        type            empty;
    }
}


// ************************************************************************* //
