/*--------------------------------*- C++ -*----------------------------------*\
  =========                 |
  \\      /  F ield         | OpenFOAM: The Open Source CFD Toolbox
   \\    /   O peration     | Website:  https://openfoam.org
    \\  /    A nd           | Version:  13
     \\/     M anipulation  |
\*---------------------------------------------------------------------------*/
FoamFile
{
    format      ascii;
    class       volScalarField;
    location    "56";
    object      p;
}
// * * * * * * * * * * * * * * * * * * * * * * * * * * * * * * * * * * * * * //

dimensions      [0 2 -2 0 0 0 0];

internalField   nonuniform List<scalar> 
440
(
-1.09507
-1.07355
-1.06463
-1.05081
-1.11301
-1.16534
-1.14032
-1.11391
-1.08785
-1.06425
-1.30003
-1.25743
-1.20299
-1.13348
-1.06114
-1.4391
-1.3819
-1.26336
-1.12691
-0.989936
-1.51962
-1.43702
-1.25414
-1.06751
-0.900374
-1.04379
-1.101
-1.25566
-1.46529
-1.71968
-1.21503
-1.22266
-1.25283
-1.30195
-1.37636
-1.17058
-1.1523
-1.13755
-1.1394
-1.17177
-1.12885
-1.10769
-1.08918
-1.08347
-1.11224
-1.07265
-1.05193
-1.02544
-0.997732
-0.998953
-0.884908
-0.166949
0.036023
0.127169
-0.0392118
-1.12104
-0.217192
0.319638
0.117974
-0.0302601
-1.25327
-0.219122
0.647813
0.110348
-0.0558505
-1.28629
-0.257585
0.782134
0.140165
-0.107471
-1.18445
-0.333218
0.536919
0.216797
-0.119214
-0.905517
-0.248491
0.258291
0.298456
-0.0793771
-0.459721
0.0933519
0.175184
0.305565
0.0212682
-0.280362
0.242457
0.431112
0.290485
0.0515206
-0.12464
0.202141
0.434843
0.292614
0.0357626
-0.0362256
0.153046
0.497953
0.387248
0.0637596
-0.619026
-0.737064
-0.907871
-1.06636
-1.25577
-0.347535
-0.464997
-0.557713
-0.613668
-0.650019
-0.160752
-0.264833
-0.322718
-0.357914
-0.374721
-0.0472143
-0.137936
-0.189459
-0.212414
-0.212024
0.00689198
-0.0813519
-0.129017
-0.143865
-0.126075
0.818715
0.656261
0.44834
0.216603
-0.0357187
0.369243
0.196445
-0.0127837
-0.251827
-0.527796
-0.0644555
-0.242169
-0.466534
-0.714869
-0.983145
-0.45299
-0.633676
-0.865749
-1.11135
-1.32309
-0.714102
-0.905664
-1.12503
-1.35383
-1.49618
1.98522
2.0121
2.03437
2.04154
2.03139
1.77248
1.7885
1.79761
1.78867
1.75751
1.54445
1.52592
1.48248
1.41486
1.31908
1.27875
1.23959
1.16202
1.0517
0.910333
1.05247
0.936828
0.788365
0.619109
0.414014
1.7866
1.77691
1.75411
1.82214
1.88641
1.77501
1.76446
1.7307
1.79612
1.78313
1.76453
1.74938
1.70519
1.75721
1.65467
1.75525
1.73256
1.67788
1.70501
1.47203
1.74724
1.71435
1.64943
1.65238
1.27818
1.74076
1.68816
1.61424
1.54281
1.06453
1.73433
1.65745
1.59671
1.42587
1.20128
1.74209
1.63861
1.57174
1.38217
1.22644
1.73439
1.60974
1.55807
1.32651
1.2453
1.77158
1.60807
1.54983
1.29598
1.26344
0.779237
0.458825
0.103702
-0.214708
-0.420355
0.664845
0.436494
0.196986
-0.0170964
-0.199388
0.6524
0.468246
0.287118
0.12367
-0.03766
0.724896
0.543108
0.369663
0.214698
0.0690507
0.755771
0.572389
0.405986
0.258925
0.120744
-0.744196
-0.638223
-0.500483
-0.389055
-0.322481
-0.806079
-0.752138
-0.649006
-0.566321
-0.517307
-0.741301
-0.697942
-0.640818
-0.593778
-0.564133
-0.614699
-0.581438
-0.545908
-0.518932
-0.499594
-0.52347
-0.505194
-0.485834
-0.473439
-0.490278
-0.47492
-0.468076
-0.454206
-0.451238
-0.428016
-0.469597
-0.467793
-0.46401
-0.465795
-0.460931
-0.459029
-0.474644
-0.512228
-0.56531
-0.606732
-0.367924
-0.370997
-0.389243
-0.417646
-0.41666
-0.344444
-0.430008
-0.622328
-0.853831
-0.980272
-0.537347
0.802143
0.21101
0.09111
-0.0312889
-0.45168
0.864564
0.124446
0.0902953
-0.0507198
-0.30709
0.948016
0.0440341
0.0999917
-0.0577929
-0.198302
0.729687
0.00203994
0.116112
-0.0554987
-0.498699
0.176552
-0.0632247
0.124586
-0.0450242
-0.0868772
0.563938
0.207327
0.0966903
0.0128573
-0.423139
0.627083
0.265724
0.11129
-0.00249417
-0.283408
-0.504745
-0.519144
-0.510922
-0.295398
-0.300066
-0.500291
-0.544226
-0.499859
-0.512341
1.78418
1.77069
1.74259
1.70126
1.64644
1.93897
1.96178
1.97225
1.96885
1.95212
2.06455
2.0986
2.12672
2.14425
2.14848
2.1251
2.16326
2.20334
2.23599
2.25151
2.09695
2.13105
2.16809
2.19798
2.21057
0.0491429
-0.036315
-0.169496
-0.333214
-0.504488
0.543652
0.432916
0.284195
0.106992
-0.102037
0.985801
0.86986
0.731733
0.570617
0.380084
1.3355
1.24766
1.14055
1.01194
0.861584
1.61382
1.5553
1.47888
1.38753
1.28196
1.85565
1.81481
1.80984
1.83492
1.87443
1.83936
1.81012
1.8057
1.84441
1.91635
1.82513
1.8041
1.79985
1.8551
1.96913
1.8116
1.79678
1.78902
1.85411
1.96725
1.79871
1.78799
1.77325
1.84348
1.94329
1.91388
1.82463
1.8046
1.7733
1.76305
1.86716
1.8138
1.7976
1.78929
1.77838
1.51844
1.34735
1.03733
0.579157
0.0748425
1.58286
1.37067
1.04986
0.596439
0.0819441
)
;

boundaryField
{
    left
    {
        type            zeroGradient;
    }
    right
    {
        type            fixedValue;
        value           uniform 0;
    }
    down
    {
        type            zeroGradient;
    }
    up
    {
        type            zeroGradient;
    }
    cylinder
    {
        type            zeroGradient;
    }
    defaultFaces
    {
        type            empty;
    }
}


// ************************************************************************* //
