/*--------------------------------*- C++ -*----------------------------------*\
  =========                 |
  \\      /  F ield         | OpenFOAM: The Open Source CFD Toolbox
   \\    /   O peration     | Website:  https://openfoam.org
    \\  /    A nd           | Version:  13
     \\/     M anipulation  |
\*---------------------------------------------------------------------------*/
FoamFile
{
    format      ascii;
    class       volVectorField;
    location    "56";
    object      U;
}
// * * * * * * * * * * * * * * * * * * * * * * * * * * * * * * * * * * * * * //

dimensions      [0 1 -1 0 0 0 0];

internalField   nonuniform List<vector> 
440
(
(-0.0859579 0.0621271 -7.9624e-20)
(-0.0890619 0.088966 5.7291e-20)
(0.125753 0.0652098 6.68805e-20)
(0.597077 0.0486906 1.9644e-19)
(0.808876 0.0548115 1.62721e-20)
(-0.0820691 0.0448607 4.23033e-20)
(0.141517 -0.0129734 -1.54109e-19)
(0.749189 -0.0770627 -1.25231e-19)
(1.35696 -0.123848 5.17433e-20)
(1.95503 -0.156883 -5.30974e-21)
(0.0120384 -0.0103744 5.20999e-20)
(0.694395 -0.0781153 9.47687e-19)
(1.55205 -0.087165 -6.29428e-19)
(2.16568 -0.0698079 -1.89057e-18)
(2.58966 -0.0758958 8.24478e-19)
(0.272885 -0.0603882 -1.86136e-19)
(1.42804 -0.013391 -7.03611e-19)
(2.19997 0.0361562 2.24951e-18)
(2.5533 0.0529155 2.49248e-18)
(2.58435 0.055853 -6.77569e-19)
(0.686849 -0.000335233 -3.44637e-19)
(1.93611 0.176085 -7.57372e-19)
(2.43837 0.229513 2.32988e-18)
(2.55455 0.228213 2.41309e-18)
(2.63893 0.197824 8.03858e-19)
(-0.0207297 0.786005 5.50308e-19)
(-0.0665675 1.12962 9.05554e-19)
(-0.0971743 1.14608 -2.34442e-18)
(-0.0763067 1.05705 4.69065e-19)
(-0.0701191 0.920794 3.1644e-18)
(-0.0636252 0.524758 -4.53024e-20)
(-0.023389 0.979814 -2.65278e-19)
(0.0300044 1.07671 -4.02568e-20)
(0.131809 0.994092 -5.54814e-20)
(0.147794 0.819335 1.18038e-19)
(-0.0660386 0.223624 1.01766e-19)
(-0.0695862 0.5929 -2.32992e-19)
(-0.0256286 0.746758 9.20342e-20)
(0.082275 0.740061 -2.79344e-19)
(0.116362 0.657683 9.49357e-21)
(-0.0492268 0.0921614 -4.50774e-20)
(-0.095299 0.308799 8.20514e-20)
(-0.0703088 0.449426 2.54979e-20)
(0.0198691 0.501698 1.41728e-19)
(0.0711226 0.514162 -6.51021e-20)
(-0.0618053 0.0597158 -5.82519e-20)
(-0.135983 0.161556 -8.20472e-20)
(-0.11354 0.228549 -1.66759e-19)
(0.0359283 0.239081 9.01464e-20)
(0.180691 0.274688 -6.33259e-20)
(0.700303 -0.300161 -1.74403e-18)
(-0.222166 -1.25245 1.43513e-18)
(1.54385 0.456519 -5.5714e-19)
(0.919431 0.627947 -3.48836e-20)
(1.00395 -0.100003 2.25464e-20)
(1.51289 -0.240634 1.44309e-18)
(-0.214095 -1.25144 -1.05762e-19)
(1.54689 0.207315 -3.48332e-20)
(0.910451 0.673733 5.09247e-20)
(1.12063 -0.0976165 5.15085e-20)
(1.21057 -0.334502 3.19872e-19)
(0.606622 -1.27464 3.73894e-19)
(1.08911 0.0956244 -8.87181e-21)
(0.703873 0.701579 -7.31265e-20)
(1.25735 -0.148998 -3.07924e-21)
(1.42156 -0.370364 8.15632e-20)
(2.1952 -1.27859 -4.10347e-19)
(0.711042 0.0235634 -1.15842e-19)
(0.714423 0.627218 3.18089e-19)
(1.48906 -0.225606 1.96447e-19)
(1.69288 -0.697806 -2.32877e-19)
(2.66288 -1.22657 -4.63222e-19)
(0.774456 0.198931 0)
(1.02939 0.546217 -3.16161e-19)
(1.73104 -0.287894 -2.10721e-20)
(2.18305 -0.672947 -6.18499e-19)
(2.21147 -1.06446 1.28589e-19)
(0.834437 0.176237 -1.6805e-20)
(1.55732 0.349364 -1.35107e-19)
(1.91397 -0.35625 2.92488e-19)
(2.64864 -0.696029 5.56724e-20)
(1.45124 -0.698734 8.88081e-19)
(0.218769 0.433376 -5.13509e-21)
(1.80091 0.126966 -1.41783e-20)
(1.84643 -0.360322 0)
(2.32137 -0.449339 -5.73749e-19)
(1.59253 -0.270714 1.65731e-20)
(0.607996 0.159439 3.43049e-19)
(2.10814 -0.287111 1.12987e-20)
(1.66508 -0.379615 1.91165e-20)
(2.02853 -0.36361 4.36743e-20)
(1.13787 -0.105077 2.52411e-20)
(1.30444 0.122445 -6.40422e-21)
(1.80159 -0.262077 5.60559e-34)
(0.950212 -0.203367 -3.12022e-20)
(1.04258 -0.0483436 1.25668e-19)
(0.505153 0.0213712 -2.85402e-20)
(0.897302 -0.103455 -7.23124e-20)
(0.452755 -0.102838 5.5013e-20)
(-0.12602 -0.0108702 -2.47404e-20)
(2.47294 0.212709 -9.75854e-19)
(2.7054 -0.0349704 -1.29267e-18)
(2.54613 0.0201158 1.02394e-18)
(2.84055 -0.245035 5.12175e-20)
(2.28203 -0.0350131 -2.71974e-20)
(2.14219 0.146716 5.3179e-20)
(2.43523 -0.0959711 -4.26466e-20)
(2.28259 -0.0172536 -1.48471e-19)
(2.54489 -0.25878 -2.36397e-19)
(2.3773 -0.244633 -8.22836e-21)
(2.11793 0.0366051 7.03511e-20)
(2.23778 -0.0667237 1.12761e-19)
(2.19892 -0.090699 -1.67123e-19)
(2.27442 -0.180724 5.44063e-20)
(2.26741 -0.237534 4.28362e-20)
(2.0762 -0.0140629 1.12746e-19)
(2.06029 -0.0698077 1.09798e-19)
(2.11688 -0.0793315 -1.72132e-20)
(2.08027 -0.141256 1.5946e-20)
(2.13093 -0.154783 2.16594e-20)
(1.50234 -0.0261151 1.59425e-19)
(1.40785 -0.0230389 -1.25819e-20)
(1.4722 -0.0423679 2.59422e-20)
(1.34206 -0.0330294 -6.54876e-21)
(1.41871 -0.065847 4.16509e-20)
(1.60425 0.835564 1.18723e-18)
(1.55726 0.93973 -3.90345e-19)
(1.56316 1.07946 -1.43889e-18)
(1.49598 1.13235 7.7676e-19)
(0.917782 0.817842 -1.78772e-19)
(1.90903 0.815261 -6.11577e-19)
(1.87283 0.890918 -3.19477e-18)
(1.87505 0.996278 -1.22941e-18)
(1.79081 1.01353 -4.34463e-19)
(1.1001 0.721218 -7.13974e-19)
(2.21033 0.661923 8.15763e-19)
(2.19608 0.739858 2.1122e-19)
(2.1775 0.838313 -2.41763e-18)
(2.04817 0.830271 -6.98722e-19)
(1.22601 0.566109 5.29493e-19)
(2.41028 0.55176 2.45935e-18)
(2.38772 0.601496 1.82077e-18)
(2.38309 0.658545 -2.13189e-18)
(2.18562 0.62463 -1.64142e-18)
(1.22231 0.379489 -3.14107e-19)
(2.53949 0.372377 1.27226e-18)
(2.57112 0.403084 -9.13159e-19)
(2.49025 0.43704 6.44653e-19)
(2.16788 0.392882 5.37201e-19)
(1.05778 0.175982 -4.73668e-19)
(0.572416 0.509493 -6.06363e-19)
(0.479914 0.546535 -4.41965e-19)
(0.361264 0.582113 4.36909e-20)
(0.225745 0.583926 5.64918e-21)
(0.0560299 0.418415 9.28812e-20)
(0.688167 0.67159 1.2659e-19)
(0.62665 0.731955 -2.8038e-19)
(0.539739 0.800271 1.89587e-19)
(0.413638 0.858774 -8.86133e-20)
(0.181755 0.652516 1.25201e-19)
(0.778454 0.870597 8.51703e-20)
(0.705114 0.955565 5.03532e-19)
(0.653705 1.05522 1.35043e-19)
(0.573564 1.0913 -3.28989e-19)
(0.316096 0.800415 2.79531e-19)
(1.07298 0.928876 2.52963e-19)
(1.0234 1.01004 -7.78199e-19)
(0.973484 1.11085 -2.0539e-18)
(0.893939 1.18107 8.16576e-19)
(0.527463 0.876207 -1.64592e-19)
(1.13528 0.986365 -1.02377e-19)
(1.17711 1.10833 -1.80968e-19)
(1.20341 1.2192 -3.97705e-19)
(1.15075 1.23605 -4.45842e-19)
(0.707536 0.881982 -7.00756e-21)
(1.02274 0.0432807 -1.03013e-19)
(0.996432 0.0537079 -3.41129e-20)
(1.02967 0.136417 -1.41878e-21)
(0.945416 0.156835 -2.75229e-19)
(0.901014 0.317955 3.15285e-19)
(1.0144 0.0387369 6.52655e-20)
(1.00957 0.0539978 1.23679e-19)
(1.01411 0.145182 1.40058e-19)
(0.990085 0.183435 3.96474e-20)
(0.936274 0.393979 -2.38266e-20)
(1.02446 0.0366386 8.90675e-20)
(0.98666 0.048259 -4.69611e-21)
(1.06212 0.165612 -6.54572e-21)
(0.936989 0.176942 1.53424e-19)
(1.1746 0.545658 -5.10309e-19)
(1.02312 0.0353512 -2.50712e-22)
(0.993875 0.0436329 -1.70972e-19)
(1.05455 0.180812 -7.07114e-20)
(1.05385 0.176982 -3.85325e-19)
(1.16254 0.594694 9.68615e-20)
(1.02408 0.0303642 -1.51756e-20)
(0.979273 0.0453524 4.66827e-20)
(1.11687 0.176209 3.29833e-20)
(1.01432 0.207156 4.76734e-19)
(1.42455 0.727654 -4.89322e-19)
(0.994779 0.0357046 -1.25948e-20)
(1.0194 0.0205779 9.64559e-20)
(1.10354 0.204317 -7.68476e-20)
(1.27535 0.115367 9.80649e-19)
(1.31033 0.779922 -3.70423e-19)
(0.941962 0.01402 -1.23641e-21)
(1.08159 0.0187194 -8.81343e-20)
(1.07546 0.104793 5.6037e-21)
(1.44651 0.126991 -2.85735e-19)
(1.22828 0.550199 -7.0837e-20)
(0.959711 0.0222954 -1.59243e-21)
(1.08959 -0.00644762 1.53194e-35)
(1.18208 0.0435251 -4.50196e-20)
(1.32353 0.112074 8.66869e-20)
(1.34379 0.407948 1.89188e-19)
(1.03373 -0.020327 3.70932e-21)
(1.06901 -0.0469224 -2.69587e-20)
(1.18555 0.000959008 2.00489e-20)
(1.07827 0.0897124 2.21399e-20)
(1.58991 0.263559 -2.82106e-19)
(0.966782 -0.0229803 -3.95915e-20)
(0.861696 -0.0269796 -9.69456e-22)
(0.837118 0.0069674 2.9358e-20)
(0.805222 0.0153817 -1.77474e-20)
(1.25201 0.0544939 -6.54841e-20)
(1.86248 0.59756 2.94253e-19)
(1.93023 0.648512 7.6432e-19)
(2.22325 0.47985 -1.11633e-18)
(2.26613 0.469958 2.20022e-20)
(2.5135 0.238524 5.02708e-19)
(1.72361 0.351232 9.03925e-20)
(1.74223 0.407086 1.03904e-18)
(2.00028 0.260199 1.25698e-19)
(1.96722 0.296146 -9.28197e-19)
(2.25209 0.0809807 -2.88992e-19)
(1.72781 0.280814 -2.37054e-19)
(1.81854 0.255193 -1.55262e-19)
(1.96451 0.178449 2.16966e-19)
(1.9949 0.152748 -2.94105e-19)
(2.13897 0.0513372 2.66434e-19)
(1.76019 0.147557 4.17191e-19)
(1.88153 0.117906 -2.55738e-21)
(1.91165 0.0706747 2.3032e-19)
(2.00132 0.0509743 1.88791e-19)
(2.0057 -0.00222364 -1.80136e-19)
(1.39679 0.0251172 -5.10308e-20)
(1.47796 0.0109168 2.61371e-19)
(1.46184 0.0031959 1.11346e-19)
(1.5096 -0.00866936 -2.15375e-19)
(1.44726 -0.0127836 5.32836e-22)
(1.071 -0.0159973 5.64097e-20)
(2.05153 -0.043674 -3.87127e-19)
(2.28607 -0.0328471 1.08753e-18)
(2.27183 0.00489735 4.86192e-19)
(2.11191 0.0314969 -3.37363e-19)
(0.670428 0.0922437 1.04582e-19)
(1.83267 0.0854507 -4.02893e-19)
(2.29107 0.0885683 -5.43738e-19)
(2.34737 0.0968026 6.71455e-19)
(2.10363 0.0844103 -4.31124e-19)
(0.215508 0.0760858 -1.77714e-20)
(1.22779 0.144559 4.27118e-19)
(1.95112 0.166265 5.92163e-20)
(2.33394 0.157864 4.17715e-19)
(2.48168 0.153148 1.98119e-19)
(-0.025129 -0.0151554 1.74049e-19)
(0.453025 0.0808954 1.76237e-19)
(1.20516 0.151143 -3.95817e-19)
(1.68551 0.185806 2.39886e-20)
(2.25969 0.213995 7.40782e-20)
(-0.0849461 -0.0688998 1.13168e-19)
(0.0111711 -0.0409104 -1.32293e-19)
(0.42194 0.0329129 -3.25781e-20)
(0.874746 0.0630926 1.63487e-20)
(1.27236 0.124994 -2.8694e-20)
(-0.0667888 -0.0697236 5.09468e-21)
(-0.108219 -0.104259 6.35414e-20)
(-0.009821 -0.100353 5.93621e-20)
(0.176719 -0.0660142 -1.22404e-19)
(0.52568 -0.00998767 2.85763e-22)
(-0.0408626 -0.0659669 -7.05267e-21)
(-0.0893145 -0.13838 -1.70489e-20)
(-0.0912676 -0.176815 -1.76226e-20)
(-0.0506663 -0.174247 6.43429e-20)
(0.0809878 -0.111734 5.27532e-20)
(-0.0311809 -0.0773836 -1.81734e-20)
(-0.0715677 -0.165708 -5.22657e-19)
(-0.103281 -0.219488 4.88049e-19)
(-0.139506 -0.232016 1.3112e-18)
(-0.141434 -0.209367 -1.83073e-19)
(-0.0412344 -0.0398244 2.89055e-21)
(-0.205112 -0.0356753 9.19285e-20)
(-0.368165 0.062394 -2.77467e-19)
(-0.541893 0.189951 -3.37599e-19)
(-0.668596 0.24015 -1.07332e-19)
(-0.0544616 0.441923 -6.62811e-20)
(-0.366894 0.659458 3.03004e-19)
(-0.675071 0.769877 -1.51752e-19)
(-0.914107 0.759331 2.1561e-19)
(-0.985144 0.653785 1.26644e-18)
(1.27972 0.622601 1.18561e-20)
(1.23104 0.040748 1.09072e-18)
(1.3061 0.287707 1.59669e-19)
(0.213406 0.0957819 8.26555e-20)
(0.364232 -0.18996 -1.52677e-20)
(1.09185 0.517399 1.45699e-19)
(1.07987 -0.0204214 -5.57628e-19)
(1.5527 0.426762 6.71916e-19)
(0.566923 0.190031 5.45906e-21)
(0.48501 -0.18279 4.50989e-20)
(0.322225 0.299229 5.4751e-19)
(0.769174 -0.155783 7.36144e-19)
(1.72748 0.505443 -9.58956e-20)
(0.79524 0.319551 1.24106e-19)
(0.633448 -0.163281 -2.93915e-21)
(-0.922969 0.256787 4.35622e-19)
(0.719488 -0.495117 -6.73349e-18)
(1.79575 0.560945 -1.89623e-19)
(0.924951 0.435656 -1.27107e-22)
(0.778196 -0.135076 1.65408e-20)
(-0.824754 -0.181482 3.86706e-19)
(0.3221 -1.09745 -1.17108e-18)
(1.75684 0.483169 -3.72009e-20)
(0.988801 0.547063 -2.90859e-21)
(0.904296 -0.104726 4.72682e-20)
(0.169157 0.169939 -1.07164e-19)
(-0.245568 -0.137525 0)
(0.0157273 -0.0890021 3.20597e-20)
(-0.223547 -0.0483667 2.07705e-20)
(0.288472 -0.0290064 -6.18218e-21)
(1.61944 0.528751 0)
(1.1375 0.167404 0)
(0.981042 0.094443 -7.82132e-20)
(-0.0928328 -0.0324825 -1.27757e-20)
(0.42103 -0.136765 6.2253e-20)
(0.673246 0.000635121 -1.14938e-19)
(0.692931 -0.00473386 1.5136e-19)
(0.929193 -0.00391551 -5.07026e-20)
(0.90302 0.00953849 2.83323e-19)
(1.3216 0.076857 2.03934e-19)
(1.53032 0.0235331 1.08257e-19)
(1.64472 0.0647401 2.24071e-19)
(1.84478 0.0369042 -3.48524e-19)
(2.3566 0.185933 -7.02075e-21)
(2.11689 0.107358 1.57578e-19)
(0.858543 -0.441057 -3.56945e-20)
(0.842085 -0.524247 -1.3767e-19)
(0.82835 -0.614424 -8.89214e-20)
(0.755272 -0.675631 5.53014e-20)
(0.454157 -0.523995 1.14048e-19)
(0.759661 -0.342513 1.28021e-19)
(0.704702 -0.403199 2.73648e-19)
(0.63228 -0.46919 -2.41001e-20)
(0.521348 -0.523713 1.23389e-19)
(0.279718 -0.413645 5.04452e-20)
(0.62396 -0.200317 -1.61738e-19)
(0.537004 -0.235281 -4.55026e-20)
(0.435122 -0.278843 1.45339e-19)
(0.315996 -0.317959 -4.8708e-21)
(0.135028 -0.255306 -1.03699e-19)
(0.534591 0.0316988 -4.33131e-19)
(0.448158 0.0205003 -3.59576e-19)
(0.337709 0.00124555 2.80997e-19)
(0.210843 -0.0273851 1.81515e-19)
(0.0523362 -0.0438745 1.35806e-20)
(0.514033 0.239012 -1.73683e-19)
(0.42755 0.245358 -1.71868e-19)
(0.311643 0.252132 -7.89151e-20)
(0.176633 0.2607 1.22152e-20)
(0.0233108 0.192292 1.05868e-20)
(1.88429 -0.0402771 7.12359e-19)
(2.13797 -0.101349 2.42801e-19)
(2.20802 -0.178788 -6.45109e-19)
(2.05525 -0.205053 -1.29697e-18)
(1.21777 -0.169647 1.07917e-19)
(1.86327 -0.117049 1.18613e-18)
(1.9525 -0.221077 1.57401e-18)
(1.97047 -0.334793 1.30855e-19)
(1.88487 -0.388994 2.29136e-19)
(1.19021 -0.32774 -1.50612e-19)
(1.59763 -0.269124 -3.07727e-18)
(1.66221 -0.379659 3.48902e-19)
(1.70457 -0.495346 9.62712e-19)
(1.63717 -0.561412 -3.56848e-19)
(1.04902 -0.461773 5.59295e-19)
(1.39959 -0.383567 7.29182e-19)
(1.41785 -0.475737 -1.9278e-18)
(1.40487 -0.585061 -2.20654e-18)
(1.33346 -0.661456 6.6452e-19)
(0.850822 -0.532033 4.54806e-19)
(1.13468 -0.436084 1.45904e-19)
(1.09481 -0.52359 2.16752e-19)
(1.08361 -0.635476 -3.29557e-19)
(1.02474 -0.710863 -3.96649e-19)
(0.64264 -0.555153 -3.65757e-21)
(1.07557 0.055216 7.85583e-21)
(0.92119 0.0641278 -5.18354e-21)
(1.10798 0.0845758 -4.40204e-21)
(0.793717 0.0214279 -1.92222e-19)
(1.0404 -0.181724 -8.69023e-21)
(1.08468 0.0574953 -2.5843e-21)
(0.920138 0.0634353 4.97894e-20)
(1.10734 0.102547 -4.85866e-20)
(0.88104 0.0689071 1.11625e-19)
(0.946369 -0.0664185 -2.03747e-20)
(1.08233 0.0533638 -6.34626e-20)
(0.924693 0.061622 3.73976e-22)
(1.09583 0.104676 -2.25996e-20)
(0.883665 0.0953718 2.65485e-20)
(0.927006 -0.00534466 -1.59731e-19)
(1.06211 0.0508372 7.75649e-20)
(0.953932 0.0583947 3.48895e-21)
(1.06102 0.112745 3.61783e-20)
(0.921064 0.119818 1.80949e-20)
(0.850836 0.106211 1.11323e-19)
(1.03622 0.046193 1.97041e-20)
(0.986375 0.0582773 -2.94972e-20)
(1.02924 0.11959 4.96288e-20)
(0.950957 0.146768 7.40843e-20)
(0.834369 0.207571 -1.24877e-19)
(0.892638 0.0340842 0)
(0.702105 0.0286454 1.0558e-20)
(0.587232 0.0234408 3.52198e-21)
(0.321034 -0.00506168 3.83322e-20)
(0.611136 -0.0483875 -1.11136e-19)
(1.04194 0.0754927 -6.65899e-20)
(0.93097 0.0774519 -1.96601e-20)
(1.00681 0.0837642 -3.03358e-20)
(0.781366 0.0110262 -1.02597e-19)
(0.967335 -0.169237 -1.20508e-19)
(0.841612 -0.0615203 -2.69987e-20)
(0.922456 -0.0290336 4.39767e-19)
(1.00135 0.0349204 2.69927e-19)
(0.884172 0.0473167 2.68151e-20)
(0.687752 0.0244014 0)
(1.19955 -0.293598 2.56606e-19)
(1.30567 -0.25972 1.26594e-18)
(1.46502 -0.146325 -1.41307e-18)
(1.55138 -0.0216046 -4.35152e-19)
(1.45276 0.0221688 3.3083e-19)
)
;

boundaryField
{
    left
    {
        type            fixedValue;
        value           uniform (1 0 0);
    }
    right
    {
        type            zeroGradient;
    }
    down
    {
        type            noSlip;
    }
    up
    {
        type            noSlip;
    }
    cylinder
    {
        type            noSlip;
    }
    defaultFaces
    {
        type            empty;
    }
}


// ************************************************************************* //
