/*--------------------------------*- C++ -*----------------------------------*\
  =========                 |
  \\      /  F ield         | OpenFOAM: The Open Source CFD Toolbox
   \\    /   O peration     | Website:  https://openfoam.org
    \\  /    A nd           | Version:  13
     \\/     M anipulation  |
\*---------------------------------------------------------------------------*/
FoamFile
{
    format      ascii;
    class       volScalarField;
    location    "12";
    object      p;
}
// * * * * * * * * * * * * * * * * * * * * * * * * * * * * * * * * * * * * * //

dimensions      [0 2 -2 0 0 0 0];

internalField   nonuniform List<scalar> 
440
(
-1.19045
-1.20745
-1.27793
-1.28849
-1.38774
-1.13411
-1.12069
-1.12306
-1.13815
-1.15782
-1.2191
-1.18519
-1.15528
-1.12597
-1.09284
-1.32458
-1.27551
-1.19761
-1.10565
-1.01203
-1.40561
-1.34085
-1.20104
-1.05542
-0.922078
-1.31965
-1.29754
-1.26807
-1.24433
-1.2216
-1.31255
-1.30137
-1.29532
-1.29421
-1.29084
-1.19018
-1.21244
-1.26143
-1.30498
-1.33335
-0.92501
-0.985423
-1.08759
-1.1747
-1.22307
-0.954543
-1.02287
-1.12236
-1.19531
-1.24742
-1.08508
-1.37708
-1.13163
-1.34856
0.108428
-1.28894
-1.22612
-0.924225
-1.28214
0.0660993
-1.39765
-1.00895
-0.713147
-1.15418
0.0241883
-1.17182
-0.688526
-0.623351
-0.94216
-0.0159241
-0.975042
-0.320756
-0.83451
-0.753218
-0.0509975
-0.688657
-0.0692511
-0.919886
-0.592112
-0.0819352
-0.422845
-0.152248
-0.735904
-0.424289
-0.0963344
-0.498206
0.0444749
-0.457613
-0.309173
-0.104473
-0.408816
0.124682
-0.309448
-0.288752
-0.115748
-0.364162
0.171388
-0.127842
-0.249448
-0.126848
-0.693425
-0.826282
-1.02383
-1.22686
-1.41788
-0.450252
-0.577041
-0.662608
-0.696503
-0.69684
-0.283588
-0.393847
-0.464552
-0.514363
-0.542767
-0.183474
-0.289716
-0.364465
-0.416142
-0.439746
-0.139133
-0.243854
-0.31878
-0.367629
-0.382659
0.633114
0.497202
0.323837
0.125251
-0.10112
0.2267
0.0754457
-0.112241
-0.326363
-0.571319
-0.172415
-0.329439
-0.528582
-0.755253
-0.973965
-0.519705
-0.682389
-0.880598
-1.09492
-1.26076
-0.75676
-0.916163
-1.09929
-1.28984
-1.39584
1.83308
1.86547
1.89724
1.91626
1.91769
1.64748
1.66884
1.68614
1.68768
1.66857
1.42282
1.41611
1.3882
1.33806
1.26248
1.16307
1.13143
1.06687
0.972209
0.848021
0.908358
0.816379
0.692989
0.545024
0.363687
1.57357
1.56282
1.55527
1.60523
1.71327
1.5636
1.55032
1.53757
1.57807
1.62851
1.55465
1.5347
1.51728
1.53813
1.52331
1.54687
1.5166
1.49424
1.48806
1.366
1.54017
1.49793
1.46915
1.4324
1.19714
1.53498
1.46713
1.43568
1.33674
1.01133
1.53219
1.43203
1.41217
1.23635
1.03205
1.53877
1.41354
1.39141
1.17586
0.977019
1.53087
1.39115
1.37996
1.13559
0.924355
1.56991
1.38283
1.37738
1.11228
0.904244
0.593698
0.301609
-0.0318399
-0.31546
-0.516526
0.519606
0.30725
0.0771835
-0.123431
-0.300079
0.521755
0.35425
0.17791
0.0109567
-0.149447
0.56442
0.415527
0.257548
0.0968215
-0.0535727
0.584731
0.444713
0.29424
0.135608
-0.00884467
-1.75149
-1.58603
-1.40026
-1.24441
-1.15112
-1.79958
-1.72619
-1.57773
-1.44849
-1.36103
-1.7016
-1.64983
-1.55192
-1.4543
-1.37336
-1.52897
-1.48267
-1.42671
-1.36667
-1.30683
-1.36974
-1.34665
-1.31284
-1.28369
-1.26928
-1.27396
-1.26991
-1.23431
-1.26053
-1.21461
-1.22318
-1.2166
-1.19172
-1.1951
-1.15447
-1.21931
-1.20815
-1.18395
-1.15216
-1.12989
-1.26088
-1.24607
-1.22612
-1.20491
-1.20379
-1.29352
-1.27481
-1.25068
-1.23407
-1.22918
-1.14003
-0.787738
-1.00761
-0.879374
0.261581
-1.13668
-0.840151
-1.08749
-1.0197
0.233874
-1.04086
-0.941612
-1.14134
-1.18587
0.205117
-1.03779
-1.12649
-1.18786
-1.32011
0.177499
-1.07529
-1.35883
-1.21535
-1.3707
0.146442
-0.514795
-0.874323
-0.932392
-0.711078
0.301661
-0.988792
-0.838296
-0.881059
-0.749711
0.28519
-1.09813
-1.31433
-1.28741
-1.21458
-0.94297
-1.11889
-1.3186
-1.3125
-1.24015
-1.20155
1.49684
1.46753
1.4194
1.3537
1.26777
1.67881
1.6965
1.6968
1.67824
1.64196
1.83433
1.86546
1.88707
1.89537
1.88922
1.92085
1.96022
2.0017
2.03553
2.05075
1.92218
1.96069
2.00352
2.03962
2.05654
-0.687672
-0.804315
-0.986737
-1.20501
-1.46776
-0.0708084
-0.217379
-0.412779
-0.648995
-0.956158
0.490454
0.338444
0.155989
-0.0599531
-0.336126
0.938565
0.820414
0.676664
0.501388
0.286321
1.29446
1.21138
1.10208
0.970466
0.815075
1.63743
1.5965
1.59146
1.60335
1.62961
1.62192
1.59311
1.58916
1.61795
1.68847
1.60858
1.58817
1.58737
1.63319
1.7613
1.59603
1.58179
1.58027
1.63449
1.76663
1.58434
1.57359
1.56929
1.62537
1.75816
1.69319
1.60263
1.58068
1.53014
1.51315
1.6479
1.59359
1.57531
1.55064
1.51809
1.17657
0.954919
0.561401
-0.0176292
-0.651384
1.26123
0.987898
0.575755
0.00192282
-0.644106
)
;

boundaryField
{
    left
    {
        type            zeroGradient;
    }
    right
    {
        type            fixedValue;
        value           uniform 0;
    }
    down
    {
        type            zeroGradient;
    }
    up
    {
        type            zeroGradient;
    }
    cylinder
    {
        type            zeroGradient;
    }
    defaultFaces
    {
        type            empty;
    }
}


// ************************************************************************* //
