/*--------------------------------*- C++ -*----------------------------------*\
  =========                 |
  \\      /  F ield         | OpenFOAM: The Open Source CFD Toolbox
   \\    /   O peration     | Website:  https://openfoam.org
    \\  /    A nd           | Version:  13
     \\/     M anipulation  |
\*---------------------------------------------------------------------------*/
FoamFile
{
    format      ascii;
    class       volVectorField;
    location    "20.3";
    object      U;
}
// * * * * * * * * * * * * * * * * * * * * * * * * * * * * * * * * * * * * * //

dimensions      [0 1 -1 0 0 0 0];

internalField   nonuniform List<vector> 
440
(
(-0.0897868 0.0654268 -7.66986e-20)
(-0.0933611 0.0860571 5.04218e-20)
(0.119974 0.0596717 8.50586e-20)
(0.593741 0.0433222 1.36729e-19)
(0.789577 0.0679792 2.05544e-20)
(-0.0863484 0.0475255 4.51973e-20)
(0.139781 -0.0119254 -1.53851e-19)
(0.753071 -0.0776474 -1.30899e-19)
(1.36056 -0.125495 5.87981e-20)
(1.95866 -0.160012 1.39527e-21)
(0.00928428 -0.00921747 5.44379e-20)
(0.696239 -0.0771852 9.47013e-19)
(1.55386 -0.0876453 -6.26454e-19)
(2.16583 -0.0716 -1.90017e-18)
(2.58378 -0.0784861 8.18669e-19)
(0.271023 -0.0597448 -1.87409e-19)
(1.42584 -0.013945 -6.97416e-19)
(2.19399 0.0332207 2.24971e-18)
(2.53964 0.0476156 2.47958e-18)
(2.56792 0.0492026 -6.829e-19)
(0.683321 -0.00015733 -3.44266e-19)
(1.92587 0.173757 -7.51029e-19)
(2.42388 0.225734 2.30142e-18)
(2.54069 0.224597 2.39464e-18)
(2.62048 0.194365 7.96311e-19)
(-0.010219 0.816961 5.04567e-19)
(-0.0431783 1.21116 9.49983e-19)
(-0.0737134 1.22374 -2.32569e-18)
(-0.0724397 1.12027 4.36184e-19)
(-0.0733904 1.00223 2.9658e-18)
(-0.0563008 0.502292 -4.73531e-20)
(-0.000548845 1.0106 -2.55825e-19)
(0.057392 1.13541 -6.83588e-20)
(0.159495 1.0594 -7.84082e-20)
(0.18914 0.8803 1.46864e-19)
(-0.050735 0.181793 1.86342e-19)
(-0.0438496 0.575061 -2.98094e-19)
(0.0047318 0.771037 1.44942e-19)
(0.120892 0.794721 -8.86611e-20)
(0.17232 0.724342 9.25612e-21)
(-0.0292645 0.0508392 -5.70992e-20)
(-0.0773225 0.256518 1.259e-19)
(-0.0595287 0.415515 -1.92447e-20)
(0.0252595 0.481741 -2.6682e-19)
(0.0776424 0.505266 3.22511e-20)
(-0.0533848 0.0436329 -4.81801e-20)
(-0.135562 0.127658 -7.29149e-20)
(-0.126194 0.194418 -1.6587e-19)
(0.0139124 0.212804 9.02447e-20)
(0.159028 0.252947 -5.44401e-20)
(0.48381 0.0744002 -2.31578e-18)
(-0.201898 -1.29109 1.13263e-18)
(1.45603 -0.0510682 -4.68134e-19)
(1.08071 0.655274 -5.02675e-19)
(1.03057 0.0282374 2.85887e-20)
(1.34545 0.0275246 -8.99728e-20)
(0.807355 -1.32685 -1.62202e-19)
(1.40745 -0.322378 8.28096e-20)
(1.15256 0.669173 4.67904e-19)
(1.13624 0.0434337 -4.37933e-20)
(1.08019 -0.171138 -9.80842e-19)
(2.0753 -1.35747 7.43762e-19)
(1.1409 -0.305696 -8.133e-20)
(0.961131 0.725252 2.1062e-19)
(1.21519 0.0402184 -8.77343e-21)
(1.1618 -0.365039 3.44635e-19)
(2.72235 -1.35666 -3.00547e-19)
(1.08784 -0.216587 -5.02337e-19)
(0.717501 0.690412 1.18876e-19)
(1.37004 -0.0253483 2.18767e-19)
(1.6437 -0.691644 -1.55813e-19)
(2.2591 -1.36818 -7.7838e-20)
(1.00972 -0.0132137 0)
(0.640485 0.660151 -2.54189e-19)
(1.57971 -0.111391 8.0299e-20)
(2.35076 -0.552005 -5.30972e-19)
(1.93238 -1.13806 7.42914e-20)
(0.900887 -0.058332 -1.53615e-20)
(1.09372 0.517282 -2.00992e-19)
(1.80977 -0.229311 7.71008e-20)
(2.66007 -0.659817 5.37781e-20)
(1.6601 -0.789485 1.07194e-18)
(0.0937762 0.258811 -7.14157e-21)
(1.51068 0.294463 1.99407e-19)
(1.82321 -0.296889 0)
(2.26236 -0.453319 -5.1236e-19)
(1.79415 -0.32156 1.4417e-20)
(0.377456 0.0993724 2.23981e-19)
(1.91784 -0.18765 5.57128e-21)
(1.67264 -0.34745 1.21968e-20)
(2.04955 -0.379113 4.9776e-20)
(1.16158 -0.131176 1.55686e-20)
(1.09843 0.14674 -9.91875e-21)
(1.73302 -0.222527 3.07662e-34)
(0.98662 -0.201304 -3.08778e-20)
(1.04174 -0.0542824 1.44395e-19)
(0.423032 0.0379079 -3.54419e-20)
(0.868254 -0.099918 -8.58414e-20)
(0.473853 -0.110249 4.6384e-20)
(-0.0952901 -0.0104149 -2.43232e-20)
(2.45525 0.209804 -9.71237e-19)
(2.67495 -0.0481916 -1.27134e-18)
(2.523 0.0148759 1.00141e-18)
(2.8449 -0.246112 5.20832e-20)
(2.25842 -0.0439549 -2.29208e-20)
(2.12399 0.142707 4.76393e-20)
(2.42368 -0.100642 -4.15324e-20)
(2.24335 -0.0356564 -1.43943e-19)
(2.54069 -0.259643 -2.35704e-19)
(2.3477 -0.264378 -7.02584e-21)
(2.12183 0.0370528 6.68087e-20)
(2.23915 -0.0714123 1.14219e-19)
(2.19831 -0.099797 -1.6578e-19)
(2.26445 -0.189989 5.34874e-20)
(2.26903 -0.247344 4.18891e-20)
(2.09558 -0.0171287 1.11455e-19)
(2.08415 -0.0795729 1.03912e-19)
(2.13252 -0.0874774 -1.72416e-20)
(2.09913 -0.154179 1.74427e-20)
(2.13808 -0.165691 2.24499e-20)
(1.52179 -0.0291325 1.5338e-19)
(1.42554 -0.025959 -1.27783e-20)
(1.48144 -0.0449901 2.71975e-20)
(1.35048 -0.0361404 -5.08577e-21)
(1.41572 -0.0689015 4.50663e-20)
(1.59182 0.833686 1.17836e-18)
(1.54719 0.937396 -3.90911e-19)
(1.55424 1.07633 -1.42749e-18)
(1.48635 1.12727 7.68044e-19)
(0.910062 0.810529 -1.75226e-19)
(1.90036 0.811296 -6.03151e-19)
(1.86479 0.886222 -3.16412e-18)
(1.8662 0.990767 -1.21897e-18)
(1.78067 1.00766 -4.26801e-19)
(1.09135 0.714614 -7.01997e-19)
(2.19496 0.660486 8.06838e-19)
(2.18408 0.738316 2.07098e-19)
(2.167 0.835533 -2.39719e-18)
(2.03593 0.826585 -6.90299e-19)
(1.21611 0.561419 5.19364e-19)
(2.39167 0.548171 2.43892e-18)
(2.37269 0.597823 1.81126e-18)
(2.36892 0.654836 -2.10996e-18)
(2.17179 0.621124 -1.62999e-18)
(1.21158 0.375581 -3.0798e-19)
(2.52105 0.367248 1.26244e-18)
(2.55509 0.398579 -9.00488e-19)
(2.47768 0.432591 6.43168e-19)
(2.15437 0.388796 5.29325e-19)
(1.04908 0.173816 -4.66696e-19)
(0.571141 0.508998 -6.03226e-19)
(0.477994 0.546466 -4.38883e-19)
(0.359265 0.582332 4.29127e-20)
(0.224254 0.582331 5.94322e-21)
(0.0554783 0.414376 9.04629e-20)
(0.6872 0.667035 1.19706e-19)
(0.624946 0.725822 -2.77479e-19)
(0.537219 0.792866 1.85324e-19)
(0.411321 0.851318 -8.6701e-20)
(0.180473 0.645944 1.22588e-19)
(0.779372 0.872078 8.58388e-20)
(0.707215 0.957327 4.92643e-19)
(0.655097 1.05477 1.33422e-19)
(0.572825 1.0873 -3.24098e-19)
(0.314462 0.795281 2.75638e-19)
(1.0665 0.922522 2.51805e-19)
(1.01667 1.00303 -7.77093e-19)
(0.968692 1.10489 -2.03542e-18)
(0.890535 1.17644 8.06919e-19)
(0.525101 0.872094 -1.62158e-19)
(1.13372 0.988794 -9.92745e-20)
(1.17437 1.10933 -1.76787e-19)
(1.1989 1.21856 -3.94749e-19)
(1.14534 1.23341 -4.41682e-19)
(0.703212 0.876881 -6.92814e-21)
(1.02112 0.0415229 -9.79926e-20)
(1.00023 0.0513446 -3.20966e-20)
(1.03089 0.14022 -1.39799e-21)
(0.943835 0.154417 -2.45727e-19)
(0.903041 0.316388 3.04878e-19)
(1.01243 0.036804 6.17975e-20)
(1.01504 0.0509328 1.18402e-19)
(1.0136 0.15032 1.3356e-19)
(0.988705 0.180102 3.5232e-20)
(0.93519 0.394324 -2.21262e-20)
(1.02272 0.0343977 8.38865e-20)
(0.993404 0.0449033 -4.54317e-21)
(1.0595 0.171388 -5.80283e-21)
(0.934354 0.174048 1.46684e-19)
(1.17081 0.543787 -4.9879e-19)
(1.02223 0.0325333 -2.44285e-22)
(1.00115 0.0403774 -1.64627e-19)
(1.04709 0.189181 -6.70151e-20)
(1.05101 0.170155 -3.67034e-19)
(1.16538 0.596422 9.41532e-20)
(1.02481 0.0268427 -1.38797e-20)
(0.98437 0.04374 4.51855e-20)
(1.10596 0.183987 3.10212e-20)
(1.01654 0.20064 4.56046e-19)
(1.41117 0.726783 -4.81809e-19)
(0.99733 0.0317704 -1.08288e-20)
(1.02315 0.0202275 9.40965e-20)
(1.0841 0.213017 -6.8412e-20)
(1.27905 0.107752 9.89184e-19)
(1.31869 0.785645 -3.61556e-19)
(0.947571 0.00850835 -1.21947e-21)
(1.08064 0.0241241 -8.24054e-20)
(1.04361 0.113964 5.61735e-21)
(1.45335 0.106396 -3.01149e-19)
(1.26815 0.563334 -7.66946e-20)
(0.963302 0.015907 3.9701e-21)
(1.07681 0.0090007 1.46095e-35)
(1.17116 0.0444446 -3.56319e-20)
(1.34999 0.083084 8.9638e-20)
(1.33204 0.422919 1.84996e-19)
(1.02369 -0.021774 3.73756e-21)
(1.05973 -0.0352519 -2.66105e-20)
(1.21913 -0.00914589 2.04893e-20)
(1.07213 0.0742352 2.07827e-20)
(1.55386 0.286454 -2.72962e-19)
(0.956957 -0.022499 -3.79011e-20)
(0.869116 -0.0278746 -7.13454e-22)
(0.860078 0.00372185 2.78027e-20)
(0.766314 0.0162785 -1.93444e-20)
(1.24744 0.0625687 -6.31215e-20)
(1.84742 0.594923 2.89265e-19)
(1.9221 0.644609 7.50939e-19)
(2.19851 0.477756 -1.09523e-18)
(2.25163 0.465776 3.07141e-20)
(2.47806 0.230239 4.86437e-19)
(1.72585 0.362324 8.7819e-20)
(1.74533 0.423524 1.02091e-18)
(1.99016 0.269099 1.18216e-19)
(1.96205 0.305431 -8.96873e-19)
(2.23358 0.0799281 -2.83733e-19)
(1.72121 0.297964 -2.28584e-19)
(1.81202 0.275066 -1.49987e-19)
(1.96119 0.188296 2.38618e-19)
(1.9964 0.164403 -2.86009e-19)
(2.14006 0.0522288 2.60542e-19)
(1.75602 0.161629 4.14237e-19)
(1.8814 0.130692 -4.70402e-22)
(1.92375 0.0752136 2.25153e-19)
(2.01608 0.0560317 1.80267e-19)
(2.02835 -0.00548113 -1.74094e-19)
(1.40877 0.027073 -5.19093e-20)
(1.49658 0.0104757 2.5875e-19)
(1.48622 0.000301318 1.08272e-19)
(1.53615 -0.0115521 -2.08053e-19)
(1.47232 -0.0160591 6.54505e-22)
(1.08296 -0.0153739 6.14629e-20)
(2.06247 -0.0414511 -3.99573e-19)
(2.29504 -0.0312256 1.11002e-18)
(2.27872 0.00617446 4.9507e-19)
(2.11702 0.0320245 -3.48722e-19)
(0.685293 0.0948454 1.17113e-19)
(1.84489 0.0901742 -4.13667e-19)
(2.29863 0.0935445 -5.66424e-19)
(2.35216 0.100838 7.05476e-19)
(2.10857 0.0882101 -4.63081e-19)
(0.230478 0.081213 -1.08323e-20)
(1.24512 0.151936 4.49087e-19)
(1.96169 0.17373 6.00355e-20)
(2.33799 0.165614 4.66554e-19)
(2.4781 0.158037 2.1821e-19)
(-0.0135036 -0.00816924 1.70948e-19)
(0.474614 0.0915978 1.76897e-19)
(1.22292 0.163039 -4.23013e-19)
(1.69847 0.196658 2.87903e-20)
(2.26166 0.225266 1.39818e-19)
(-0.0773598 -0.0627252 1.05064e-19)
(0.0281719 -0.0297526 -1.31208e-19)
(0.441194 0.0479678 -5.89288e-20)
(0.895157 0.0840561 3.6641e-20)
(1.28768 0.147027 -6.44303e-21)
(-0.0637015 -0.0683171 2.05351e-20)
(-0.0955243 -0.0964416 4.7519e-20)
(0.0090863 -0.0845351 4.5464e-20)
(0.199171 -0.03839 -1.61198e-19)
(0.540985 0.0212197 5.25379e-21)
(-0.030715 -0.0471046 1.42936e-20)
(-0.0674553 -0.102075 -4.33578e-20)
(-0.0621692 -0.115477 -7.31349e-20)
(-0.012999 -0.0870679 1.3056e-19)
(0.123852 -0.00515151 9.74016e-20)
(-0.0333803 -0.118423 -1.8658e-20)
(-0.0412615 -0.211267 -9.14479e-19)
(-0.0490835 -0.239676 6.94791e-19)
(-0.0740996 -0.225437 1.7835e-18)
(-0.0857009 -0.187296 -2.80116e-19)
(-0.0661961 -0.0894826 2.53457e-20)
(-0.255961 -0.0253236 3.06212e-19)
(-0.41963 0.172983 -9.15949e-19)
(-0.594417 0.336267 -7.74842e-19)
(-0.708537 0.372541 -8.20301e-21)
(-0.0597041 0.496093 -9.29838e-20)
(-0.402522 0.729889 3.6854e-19)
(-0.70763 0.790849 -1.60788e-19)
(-0.904671 0.755852 1.91779e-19)
(-0.95691 0.656095 1.23626e-18)
(1.2235 0.631251 1.27762e-20)
(1.028 -0.0309012 1.12736e-18)
(1.47714 0.200661 7.01392e-20)
(0.394889 0.127928 4.54236e-20)
(0.450181 -0.105605 -6.14314e-21)
(1.1186 0.547873 1.65141e-19)
(0.74799 -0.1212 -5.7835e-19)
(1.63666 0.304997 2.00176e-19)
(0.664227 0.227869 7.4693e-21)
(0.546392 -0.0966417 1.57183e-20)
(0.364698 0.377212 3.40516e-19)
(0.276542 -0.240293 9.16422e-19)
(1.72774 0.317023 -6.44864e-20)
(0.898323 0.35293 -4.27044e-20)
(0.691693 -0.064366 1.01113e-20)
(-0.851238 0.411678 7.53453e-19)
(0.0948957 -0.608357 -7.73999e-18)
(1.73672 0.284667 2.21893e-19)
(1.04293 0.471892 -6.42032e-21)
(0.82871 -0.0318953 4.05494e-20)
(-0.851543 0.0379307 5.22751e-19)
(-0.275337 -1.18308 -1.07721e-18)
(1.64722 0.0930288 -3.85808e-19)
(1.14104 0.552882 3.30756e-20)
(0.952612 0.0119266 9.88554e-20)
(0.183449 0.165793 -1.22086e-19)
(-0.225051 -0.125313 0)
(0.120918 -0.0943394 1.09828e-20)
(-0.0869094 -0.0446831 2.08203e-20)
(0.283663 -0.0222004 -1.41101e-20)
(1.60395 0.51644 0)
(1.0673 0.135652 0)
(1.18602 0.0660948 8.73766e-20)
(0.187146 -0.0110366 1.68256e-20)
(0.459412 -0.0845139 2.60589e-20)
(0.678258 0.000614275 -1.19788e-19)
(0.699704 -0.00390117 1.87279e-19)
(0.922027 -0.00443518 -5.06296e-20)
(0.907579 0.0119754 2.83099e-19)
(1.30471 0.0777076 2.03455e-19)
(1.53704 0.0237083 1.13261e-19)
(1.64805 0.0669891 2.59443e-19)
(1.84269 0.0418735 -3.85248e-19)
(2.34615 0.188529 2.38437e-20)
(2.10458 0.124921 2.02695e-19)
(0.863517 -0.444669 -3.53294e-20)
(0.847329 -0.528489 -1.4467e-19)
(0.8333 -0.619246 -9.15828e-20)
(0.760427 -0.681245 5.65506e-20)
(0.45895 -0.53007 1.18007e-19)
(0.76189 -0.345701 1.24931e-19)
(0.706968 -0.406997 2.60145e-19)
(0.635171 -0.474101 -3.0923e-20)
(0.525407 -0.530096 1.28848e-19)
(0.283609 -0.420426 5.23881e-20)
(0.627394 -0.203492 -1.53737e-19)
(0.541373 -0.239252 -4.838e-20)
(0.439929 -0.283595 1.34085e-19)
(0.320281 -0.323431 -7.77707e-21)
(0.137815 -0.261035 -1.09836e-19)
(0.536333 0.0283218 -4.2859e-19)
(0.449812 0.0167503 -3.54468e-19)
(0.339156 -0.00257681 2.79148e-19)
(0.212248 -0.0312766 1.75156e-19)
(0.0534418 -0.0480971 1.34107e-20)
(0.516069 0.234884 -1.65799e-19)
(0.429735 0.240348 -1.67225e-19)
(0.313448 0.246217 -7.31666e-20)
(0.177579 0.254909 1.65947e-20)
(0.0238424 0.187799 1.08098e-20)
(1.89147 -0.0399178 7.28678e-19)
(2.14567 -0.100965 2.43268e-19)
(2.21683 -0.178618 -6.50401e-19)
(2.06614 -0.204843 -1.31913e-18)
(1.22891 -0.170671 1.13323e-19)
(1.86901 -0.117556 1.20986e-18)
(1.95888 -0.222194 1.61031e-18)
(1.97884 -0.336435 1.34955e-19)
(1.89476 -0.390717 2.37898e-19)
(1.20008 -0.330504 -1.5643e-19)
(1.60246 -0.270111 -3.13033e-18)
(1.66909 -0.381413 3.45745e-19)
(1.71277 -0.497862 9.82352e-19)
(1.64669 -0.564514 -3.60608e-19)
(1.05803 -0.465816 5.69139e-19)
(1.40422 -0.385622 7.43135e-19)
(1.42335 -0.478762 -1.97332e-18)
(1.41146 -0.588978 -2.24597e-18)
(1.34125 -0.66596 6.75132e-19)
(0.858249 -0.537122 4.67525e-19)
(1.13835 -0.438531 1.49573e-19)
(1.10019 -0.526955 2.25813e-19)
(1.0903 -0.639708 -3.37767e-19)
(1.03233 -0.716106 -4.06042e-19)
(0.649309 -0.561011 -3.73051e-21)
(1.07529 0.0543144 7.66905e-21)
(0.924852 0.0642996 -3.85802e-21)
(1.10686 0.0850143 -1.04407e-21)
(0.797123 0.0198353 -2.07849e-19)
(1.04056 -0.181841 -1.13011e-20)
(1.08433 0.0563031 -2.52469e-21)
(0.923273 0.0632574 4.3798e-20)
(1.10737 0.103488 -3.79135e-20)
(0.883036 0.0674749 1.35569e-19)
(0.948737 -0.0670993 -1.46149e-20)
(1.08185 0.0518657 -6.14442e-20)
(0.927519 0.061124 2.38051e-22)
(1.096 0.106261 -1.97785e-20)
(0.886322 0.0935315 5.03653e-20)
(0.927075 -0.00561471 -1.79431e-19)
(1.06147 0.0491983 7.46636e-20)
(0.956249 0.0574264 3.34503e-21)
(1.06212 0.114867 3.32842e-20)
(0.921912 0.117996 -1.92524e-21)
(0.852113 0.104791 9.92868e-20)
(1.03508 0.0444724 1.88486e-20)
(0.989236 0.0566795 -2.77689e-20)
(1.03033 0.122516 4.64685e-20)
(0.951168 0.144566 6.35865e-20)
(0.835398 0.206627 -1.07741e-19)
(0.892676 0.0340976 0)
(0.703773 0.0285706 1.0275e-20)
(0.586343 0.0233017 4.37807e-21)
(0.323492 -0.00519386 3.93086e-20)
(0.614588 -0.048463 -1.22995e-19)
(1.04164 0.0750527 -6.59829e-20)
(0.93463 0.0776251 -1.6146e-20)
(1.00499 0.0840078 -3.76461e-20)
(0.784308 0.00975828 -1.14646e-19)
(0.970107 -0.169607 -1.3327e-19)
(0.845874 -0.0620818 -2.95169e-20)
(0.927926 -0.029303 4.61642e-19)
(1.00769 0.0348117 2.78625e-19)
(0.891259 0.0473561 2.92917e-20)
(0.693704 0.0245837 0)
(1.20159 -0.294863 2.794e-19)
(1.30883 -0.260761 1.31257e-18)
(1.46903 -0.146746 -1.44479e-18)
(1.5577 -0.0217421 -4.43778e-19)
(1.45935 0.0225217 3.41237e-19)
)
;

boundaryField
{
    left
    {
        type            fixedValue;
        value           uniform (1 0 0);
    }
    right
    {
        type            zeroGradient;
    }
    down
    {
        type            noSlip;
    }
    up
    {
        type            noSlip;
    }
    cylinder
    {
        type            noSlip;
    }
    defaultFaces
    {
        type            empty;
    }
}


// ************************************************************************* //
