/*--------------------------------*- C++ -*----------------------------------*\
  =========                 |
  \\      /  F ield         | OpenFOAM: The Open Source CFD Toolbox
   \\    /   O peration     | Website:  https://openfoam.org
    \\  /    A nd           | Version:  13
     \\/     M anipulation  |
\*---------------------------------------------------------------------------*/
FoamFile
{
    format      ascii;
    class       volScalarField;
    location    "0.26";
    object      strainRateViscosityModel:nu;
}
// * * * * * * * * * * * * * * * * * * * * * * * * * * * * * * * * * * * * * //

dimensions      [0 2 -1 0 0 0 0];

internalField   nonuniform List<scalar> 
440
(
9.41959
8.96966
8.54433
8.04223
7.58593
9.68998
9.35818
8.98176
8.48005
7.87562
9.80076
9.53087
9.1588
8.58515
7.84838
9.84964
9.6182
9.25867
8.64765
7.86619
9.86919
9.6561
9.30597
8.68103
7.90887
1.28706
1.77725
2.03438
2.28377
2.3477
3.36995
3.29977
3.3165
3.426
3.49698
5.88825
5.273
4.93251
4.73441
4.76437
7.7695
6.99414
6.42217
5.90798
5.83079
8.82079
8.15132
7.55212
6.91876
6.87241
1.83663
0.814231
0.299577
0.0372041
0.0108107
2.62105
0.919914
0.263083
0.030825
0.0103086
3.52232
1.18818
0.249102
0.0285532
0.0103894
4.09748
1.48928
0.267603
0.0254917
0.0104446
4.60594
1.80905
0.35225
0.0263372
0.0100232
4.24103
1.79098
0.276094
0.0144604
0.0386438
3.70598
1.76548
0.46221
0.268302
0.416733
4.91436
3.18925
1.1942
0.678807
0.715967
7.01086
4.28465
1.88331
1.01698
0.922553
8.27274
5.07826
2.50762
1.46759
1.15839
2.8491
3.68378
4.62164
5.50835
6.1524
3.68393
3.69598
3.77047
3.84959
3.36477
8.22703
8.0871
7.79982
7.38551
6.34494
9.05304
8.99254
8.8593
8.62188
8.16068
9.60671
9.56995
9.487
9.33799
9.11868
7.50461
8.01263
8.55908
9.01077
9.46444
7.79429
8.45138
8.98681
9.37779
9.70872
7.77896
8.55887
9.15929
9.54075
9.80947
7.81624
8.62753
9.25738
9.62277
9.85361
7.89137
8.67372
9.30539
9.65746
9.87035
2.47616
2.41752
2.21902
2.06718
1.98742
3.46624
3.41589
3.44954
3.65957
4.18603
4.65119
4.67018
5.05031
5.58922
6.42661
5.69988
5.83767
6.50176
7.18713
8.03677
6.76067
6.8467
7.58191
8.24306
8.93558
0.131529
0.0420248
0.198357
0.756497
1.97063
0.0979143
0.0577964
0.172305
0.821316
2.65241
0.0803815
0.0787443
0.164886
1.07934
3.46671
0.0716639
0.101315
0.196075
1.42055
3.97525
0.0856711
0.129202
0.3027
1.77328
4.39244
0.160908
0.169467
0.289624
1.90113
4.12768
0.303667
0.181528
0.182848
1.70549
3.8466
0.60214
0.417998
0.805253
3.00454
4.89512
2.24085
0.953651
1.54799
4.15479
6.96127
5.04346
2.6397
2.4802
5.04756
8.27873
5.95718
5.27434
4.40774
3.51354
2.7813
3.51572
3.98458
3.96616
3.87366
3.76309
6.3183
7.35216
7.77973
8.0685
8.21912
8.12213
8.60058
8.84987
8.98887
9.05219
9.11672
9.33767
9.48734
9.57048
9.60695
9.31024
7.91572
1.39825
3.62869
7.73557
9.08101
7.43942
3.20512
1.63967
6.78755
8.39728
6.57588
4.20713
1.00335
4.14534
6.81349
5.09237
3.45314
1.70166
1.03714
4.50193
3.14245
2.0368
1.37851
0.461948
2.59743
1.61814
1.00418
0.802159
0.931624
1.45328
0.779871
0.585984
0.622307
0.694954
0.787581
0.40517
0.593913
0.762191
0.835942
0.294254
0.49867
0.871252
1.03634
1.09774
0.15574
0.9182
1.25847
1.4925
1.5465
0.194613
0.363704
0.693938
0.790226
0.807835
0.404555
0.491736
0.547099
0.616628
0.640452
0.615503
0.62666
0.411466
0.437461
0.471492
0.9489
0.757631
0.347408
0.230917
0.244304
1.30425
0.796064
0.327697
0.0829312
0.0398696
1.10981
0.877264
1.13272
1.17249
1.15303
0.278735
0.485228
0.863815
0.959731
0.965081
9.19044
8.83765
7.75719
5.72871
3.55922
8.58624
7.72148
5.84951
3.4887
0.862037
0.971634
0.868168
1.03311
1.62073
2.65737
0.827437
0.782683
0.7169
0.827877
1.51586
1.06111
1.01208
0.849625
0.555323
0.717814
1.35276
1.3146
1.11804
0.774366
0.212517
1.79357
1.74704
1.49984
1.19113
0.580644
7.7351
3.62558
1.39958
7.91395
9.31038
6.78367
1.63931
3.20193
7.43629
9.08164
4.13118
1.01093
4.19317
6.57118
8.39883
1.03411
1.70822
3.43168
5.08303
6.81995
0.478992
1.37939
2.01407
3.12455
4.52466
1.27847
0.624114
0.573361
0.457575
0.181497
0.631966
0.383888
0.469668
0.52342
0.499776
0.348638
0.219226
0.351171
0.612609
0.804122
0.252997
0.0337763
0.296443
0.727751
1.18886
0.188294
0.0302418
0.233104
0.760338
1.52276
5.47206
2.50835
1.09199
0.994428
1.14798
2.86601
1.1543
0.766318
0.573009
0.246298
3.56899
5.73472
7.75839
8.83818
9.19059
0.837762
3.46856
5.84275
7.7201
8.58609
)
;

boundaryField
{
    left
    {
        type            calculated;
        value           nonuniform List<scalar> 
17
(
0.388702
1.01994
2.13195
3.90281
6.57809
0.278282
0.194859
0.163786
0.16017
0.19976
2.94583
2.02044
1.25449
0.749076
0.451814
6.97618
4.57507
)
;
    }
    right
    {
        type            calculated;
        value           nonuniform List<scalar> 
17
(
1.15345
0.965471
0.807383
0.638939
0.468041
0.237893
0.0360532
0.0103965
0.0100994
0.0101005
0.0101006
0.0100068
0.0513983
0.463623
0.755645
0.940989
1.15067
)
;
    }
    down
    {
        type            calculated;
        value           nonuniform List<scalar> 
20
(
5.98671
3.03694
1.19993
1.07806
1.85447
4.26937
6.38217
8.12989
9.0149
9.30861
9.30845
9.01426
8.12842
6.37791
4.26229
1.83188
0.951394
1.20075
1.23281
1.20581
)
;
    }
    up
    {
        type            calculated;
        value           nonuniform List<scalar> 
20
(
8.54822
5.40466
2.73172
1.6015
1.22253
9.69562
9.66614
9.59854
9.47413
9.29322
9.29607
9.47628
9.6001
9.66723
9.69602
5.69275
3.2279
2.71956
5.40243
8.56464
)
;
    }
    cylinder
    {
        type            calculated;
        value           nonuniform List<scalar> 
40
(
1.34771
3.57169
6.11411
7.96037
8.95724
9.50518
9.74579
9.8408
9.88146
9.89747
9.54776
9.76292
9.84858
9.88497
9.8985
2.21809
4.45827
6.67227
8.22999
9.07026
3.04444
1.84167
1.06321
0.409284
0.592963
9.51857
9.33122
8.74109
7.26777
4.98468
9.5184
9.33048
8.73904
7.2595
4.95592
2.96674
1.73148
1.05993
0.651278
0.0994814
)
;
    }
    defaultFaces
    {
        type            empty;
    }
}


// ************************************************************************* //
