/*--------------------------------*- C++ -*----------------------------------*\
  =========                 |
  \\      /  F ield         | OpenFOAM: The Open Source CFD Toolbox
   \\    /   O peration     | Website:  https://openfoam.org
    \\  /    A nd           | Version:  13
     \\/     M anipulation  |
\*---------------------------------------------------------------------------*/
FoamFile
{
    format      ascii;
    class       volVectorField;
    location    "0.26";
    object      U;
}
// * * * * * * * * * * * * * * * * * * * * * * * * * * * * * * * * * * * * * //

dimensions      [0 1 -1 0 0 0 0];

internalField   nonuniform List<vector> 
440
(
(0.218266 -0.1767 -1.81094e-19)
(0.613085 -0.436661 1.07903e-18)
(0.984288 -0.640893 4.2346e-19)
(1.32752 -0.795348 1.24171e-18)
(1.63253 -0.91666 -2.60065e-19)
(0.304901 -0.177689 -5.44572e-19)
(0.81915 -0.428709 -1.01973e-18)
(1.27999 -0.618905 1.14463e-19)
(1.69191 -0.761628 -1.21529e-18)
(2.05375 -0.875074 -1.02101e-18)
(0.384891 -0.152411 -6.98116e-19)
(1.00471 -0.363021 1.59004e-18)
(1.53979 -0.51839 -1.93489e-18)
(2.00475 -0.63263 1.37856e-18)
(2.40599 -0.721459 1.43044e-18)
(0.445884 -0.102749 5.62419e-19)
(1.14613 -0.243089 -1.29963e-18)
(1.73749 -0.344816 -7.50774e-19)
(2.243 -0.418221 1.96678e-18)
(2.67453 -0.474457 2.50012e-18)
(0.479276 -0.0361596 6.86964e-19)
(1.22368 -0.0847563 1.69157e-19)
(1.84596 -0.119365 2.53147e-18)
(2.3741 -0.143866 -1.06214e-18)
(2.82303 -0.162496 -4.83803e-19)
(-0.000973108 -0.0514182 2.87773e-19)
(0.0499768 -0.144004 -3.6582e-19)
(0.10572 -0.222126 1.08316e-18)
(0.171082 -0.292098 -1.74337e-19)
(0.239079 -0.353794 -1.58604e-18)
(0.0136681 -0.0841476 -2.6513e-19)
(0.089372 -0.227466 -4.38375e-19)
(0.174211 -0.349707 1.1262e-19)
(0.26853 -0.449613 6.13235e-20)
(0.36484 -0.529703 -3.9785e-20)
(0.0433111 -0.114198 6.67868e-20)
(0.1655 -0.30298 5.24746e-19)
(0.296249 -0.467079 9.30814e-20)
(0.432998 -0.598452 1.45778e-18)
(0.568106 -0.696939 -2.49477e-20)
(0.0866108 -0.140991 6.66596e-20)
(0.276381 -0.367778 -3.35602e-20)
(0.469511 -0.562901 2.16682e-19)
(0.661436 -0.718345 -2.04057e-18)
(0.844154 -0.830223 9.58298e-19)
(0.142127 -0.161729 -2.36124e-19)
(0.420084 -0.412849 -4.43169e-19)
(0.691395 -0.621446 -7.71731e-19)
(0.950129 -0.782349 9.55041e-19)
(1.18519 -0.892747 3.46102e-18)
(0.591356 -0.591952 -4.21282e-18)
(0.955087 -0.513489 1.21324e-18)
(1.27139 -0.209473 3.48522e-19)
(1.40036 -0.0639099 -6.61619e-19)
(1.44296 -0.0166793 -1.04028e-19)
(0.785779 -0.74253 4.91891e-18)
(1.04107 -0.617198 -3.43959e-19)
(1.30387 -0.26932 -1.43296e-19)
(1.4192 -0.0858839 4.25629e-19)
(1.44913 -0.0229186 1.8552e-19)
(1.03693 -0.877021 1.53887e-18)
(1.17763 -0.701133 4.09747e-18)
(1.33712 -0.324948 6.71463e-20)
(1.43368 -0.10542 4.71164e-19)
(1.45655 -0.0286341 -6.20844e-20)
(1.3307 -0.988065 1.24214e-18)
(1.35688 -0.762969 -4.18881e-19)
(1.38797 -0.372364 -7.71764e-19)
(1.44368 -0.121445 -3.02637e-19)
(1.46507 -0.0332949 1.94731e-20)
(1.62997 -1.04723 -9.27294e-21)
(1.55095 -0.80506 -1.65227e-18)
(1.44811 -0.415783 0)
(1.44623 -0.144596 2.62892e-19)
(1.4728 -0.0387755 3.22607e-20)
(2.15617 -1.11452 -1.57909e-18)
(1.82735 -0.79801 -4.93016e-19)
(1.5617 -0.422056 -1.0069e-20)
(1.46171 -0.15159 2.20072e-20)
(1.44785 -0.0370743 -9.4714e-20)
(2.6338 -0.889154 -1.61318e-18)
(1.90327 -0.589893 2.91643e-18)
(1.46075 -0.294995 4.3887e-21)
(1.2557 -0.112093 2.44909e-19)
(1.20878 -0.0291255 0)
(2.47947 -0.522418 -6.93686e-18)
(1.60706 -0.337265 -1.49684e-19)
(1.15553 -0.166035 2.04645e-18)
(0.945251 -0.0694088 -2.97625e-19)
(0.898989 -0.0176656 -6.12944e-20)
(1.76247 -0.219966 6.83915e-18)
(1.08888 -0.135486 1.2969e-18)
(0.753149 -0.0643626 2.25388e-19)
(0.600516 -0.0295273 2.80806e-33)
(0.558684 -0.00822143 -1.11551e-19)
(0.683085 0.000129161 1.55727e-18)
(0.395193 0.0234258 7.21114e-19)
(0.267817 0.0233578 -5.08026e-19)
(0.213832 0.0112398 1.83984e-19)
(0.19406 0.00355925 -4.63623e-20)
(3.58196 -0.168163 1.2561e-17)
(3.41724 -0.502912 -1.04425e-17)
(3.13672 -0.78694 7.10762e-18)
(2.78058 -0.995987 2.31975e-18)
(2.33302 -1.10159 -4.15032e-19)
(3.78466 -0.103595 1.03955e-17)
(3.71763 -0.324467 -6.63983e-19)
(3.57795 -0.551832 -4.27074e-18)
(3.37855 -0.78575 2.69126e-18)
(3.10064 -1.01973 -6.62788e-19)
(3.11488 -0.0605638 3.65432e-18)
(3.09871 -0.181715 -2.5185e-18)
(3.05969 -0.309711 5.01242e-18)
(2.99904 -0.444881 -1.52661e-19)
(2.92459 -0.593598 -4.79015e-18)
(2.19088 -0.027623 2.78863e-18)
(2.18385 -0.0833975 8.42975e-18)
(2.16461 -0.144064 -6.53228e-19)
(2.13404 -0.207367 -6.60661e-18)
(2.11302 -0.269534 1.94568e-18)
(0.879438 -0.00184237 5.21215e-18)
(0.876484 -0.00524169 -1.16421e-19)
(0.867349 -0.0095744 -4.2619e-20)
(0.85046 -0.0162672 -2.00878e-18)
(0.841082 -0.0229304 -3.60326e-18)
(1.65291 0.93964 2.26615e-18)
(1.34819 0.816506 -7.56819e-20)
(1.00336 0.658608 -3.27979e-20)
(0.627911 0.449516 -1.96491e-19)
(0.225268 0.182335 -1.34517e-19)
(2.07038 0.892356 -1.21685e-18)
(1.71062 0.777692 -1.1957e-18)
(1.29832 0.632608 7.33483e-19)
(0.834076 0.438765 -4.84555e-19)
(0.312173 0.182112 -4.20808e-21)
(2.41857 0.735792 -5.91122e-19)
(2.01967 0.645346 5.25265e-19)
(1.55502 0.528777 2.43773e-18)
(1.01757 0.370218 8.08499e-19)
(0.391359 0.155296 5.26219e-19)
(2.68206 0.486695 1.35948e-20)
(2.25243 0.428291 -2.72162e-19)
(1.74748 0.352332 -6.46728e-19)
(1.1548 0.247656 2.05668e-18)
(0.450344 0.10415 -3.26867e-19)
(2.82554 0.173861 -1.17094e-18)
(2.37735 0.152645 -1.60656e-18)
(1.84946 0.125349 -7.28769e-19)
(1.22676 0.0878374 7.96337e-19)
(0.480877 0.0366884 -3.25847e-19)
(0.239033 0.41461 -2.11148e-18)
(0.169388 0.351244 -1.79056e-18)
(0.102417 0.275058 3.07273e-19)
(0.0452483 0.182129 -3.65565e-20)
(-0.00181822 0.0668591 3.3508e-20)
(0.37077 0.591212 -8.07724e-19)
(0.273899 0.507221 -6.49365e-19)
(0.178603 0.397095 2.22826e-21)
(0.0924182 0.257961 -2.17358e-20)
(0.0166344 0.0958736 2.2759e-20)
(0.581816 0.750739 2.17089e-18)
(0.446288 0.64744 -1.60512e-19)
(0.307925 0.505564 -1.43258e-19)
(0.174292 0.327567 -2.13905e-19)
(0.0482133 0.123606 1.69151e-19)
(0.862057 0.873103 -1.30191e-18)
(0.679197 0.757046 1.99334e-18)
(0.485289 0.593321 3.27298e-19)
(0.288302 0.387992 9.95621e-20)
(0.0924561 0.149074 -1.17905e-19)
(1.20354 0.924287 -4.43018e-19)
(0.969065 0.811239 -4.59376e-19)
(0.708608 0.644817 3.63496e-19)
(0.433362 0.429101 3.61234e-19)
(0.148474 0.168554 1.90038e-21)
(0.901928 0.154614 -3.86284e-19)
(1.45339 0.143495 5.7078e-20)
(1.26896 0.201771 2.34242e-20)
(0.997585 0.502671 -3.86124e-19)
(0.594188 0.642758 -3.00032e-20)
(0.897198 0.0852018 1.71819e-19)
(1.45464 0.127494 2.54786e-19)
(1.29289 0.240352 1.26286e-19)
(1.05387 0.612102 -1.00625e-19)
(0.783792 0.798346 7.72966e-19)
(0.893023 0.0185928 9.6344e-21)
(1.46866 0.109272 -1.92804e-20)
(1.30533 0.280189 -5.86871e-20)
(1.16729 0.701594 -5.04079e-19)
(1.03757 0.931684 1.79641e-19)
(0.891514 -0.0455154 -2.35483e-20)
(1.48689 0.0905822 -5.57365e-19)
(1.332 0.319003 1.18498e-19)
(1.33076 0.764419 1.24452e-18)
(1.33473 1.03697 9.35752e-19)
(0.892295 -0.107614 2.69517e-22)
(1.50353 0.0759086 1.30212e-19)
(1.37105 0.359526 -6.85943e-20)
(1.51411 0.806246 -4.14834e-19)
(1.63524 1.08869 -2.76482e-18)
(0.894102 -0.199142 2.3103e-19)
(1.51262 0.0443459 4.05453e-19)
(1.46392 0.360956 -1.24997e-20)
(1.76994 0.788897 2.90582e-18)
(2.15161 1.14095 -5.52318e-18)
(0.871196 -0.328744 -2.71005e-20)
(1.41991 -0.0188192 -6.19765e-19)
(1.44253 0.262014 8.51455e-21)
(1.85301 0.587696 -3.02377e-18)
(2.59595 0.899661 1.66353e-18)
(0.78267 -0.410695 5.36206e-18)
(1.12203 -0.0822957 6.59388e-35)
(1.14999 0.142845 -2.17869e-18)
(1.58103 0.334681 2.70221e-18)
(2.45811 0.528855 5.03322e-18)
(0.632229 -0.290508 1.50033e-19)
(0.729443 -0.0694114 5.21221e-19)
(0.740443 0.0513249 2.56271e-19)
(1.07677 0.133536 6.2623e-19)
(1.75846 0.22038 -8.63678e-18)
(0.321776 -0.0433011 -4.3001e-18)
(0.29718 0.0044726 2.78125e-19)
(0.267888 -0.0123953 1.0905e-18)
(0.393872 -0.0239641 -7.75546e-19)
(0.68604 -0.000358202 -1.46388e-18)
(2.34818 1.12045 4.68217e-18)
(2.78706 1.01219 3.4657e-18)
(3.14078 0.803198 -5.68489e-18)
(3.41898 0.519508 -1.46119e-17)
(3.58244 0.185836 1.57614e-17)
(3.07946 1.01867 5.0071e-18)
(3.35456 0.795149 2.5651e-17)
(3.55737 0.560643 7.24493e-18)
(3.7014 0.331812 -3.08375e-17)
(3.77811 0.111122 -5.17387e-18)
(2.90622 0.591852 -7.23329e-18)
(2.98623 0.448066 -3.38161e-18)
(3.0523 0.312151 -6.30305e-18)
(3.0953 0.181785 -6.88937e-18)
(3.11405 0.0584706 6.52245e-18)
(2.1062 0.266027 5.4089e-18)
(2.13004 0.205885 -4.05042e-19)
(2.16248 0.143146 4.86981e-18)
(2.1831 0.0821986 6.28844e-18)
(2.19077 0.0260269 -5.88739e-18)
(0.842399 0.022099 -5.73889e-19)
(0.851832 0.0156785 3.51894e-18)
(0.868576 0.00914467 2.44241e-18)
(0.877466 0.00479935 -5.1687e-18)
(0.87983 0.00136438 -3.8424e-20)
(0.281892 0.0207542 5.51954e-19)
(0.65659 0.0404615 -7.43342e-19)
(0.973033 0.0440615 -8.18649e-19)
(0.944217 0.0274279 -1.51792e-18)
(0.697762 0.0163832 -6.63697e-19)
(0.245539 0.055453 7.454e-19)
(0.591189 0.107061 1.44154e-18)
(0.86458 0.125127 -6.96891e-19)
(0.939852 0.0969862 1.96031e-18)
(0.724088 0.0532295 -2.70086e-18)
(0.185587 0.0742551 4.9599e-19)
(0.47632 0.145876 -1.39942e-18)
(0.70768 0.184736 -9.13731e-19)
(0.857211 0.175383 -1.81068e-18)
(0.741491 0.1012 -2.86197e-18)
(0.123282 0.0774669 -7.72734e-19)
(0.344707 0.160344 -1.37658e-18)
(0.534459 0.214852 4.39691e-18)
(0.677594 0.233255 -3.66442e-19)
(0.712992 0.179979 2.25085e-18)
(0.0752633 0.0723664 -6.2348e-19)
(0.230668 0.160109 1.56344e-18)
(0.372197 0.224486 6.08301e-19)
(0.482645 0.257594 -1.29324e-18)
(0.561012 0.258199 -1.75741e-19)
(0.0451484 0.0637988 8.2393e-20)
(0.149938 0.148791 -1.21731e-18)
(0.247677 0.212012 -9.34405e-19)
(0.325213 0.233676 -1.01009e-19)
(0.370952 0.223277 -5.06159e-20)
(0.0264022 0.0557001 3.12031e-19)
(0.0951269 0.134096 5.85099e-19)
(0.160928 0.183976 -2.1604e-19)
(0.213748 0.194113 2.60538e-19)
(0.25368 0.18378 1.7265e-19)
(0.0131748 0.0486417 2.46986e-19)
(0.0586575 0.110487 1.32815e-18)
(0.103682 0.119592 -1.24471e-18)
(0.142664 0.105626 -2.78301e-18)
(0.178919 0.0840597 4.10134e-19)
(0.00609757 0.0390308 -2.366e-19)
(0.0421996 0.0478352 -1.79177e-18)
(0.0791612 0.0207886 3.20138e-18)
(0.118985 -0.0109773 1.31991e-18)
(0.160207 -0.0447777 -2.69596e-19)
(0.0097046 0.00211499 2.06361e-19)
(0.0415018 -0.0500101 -4.45686e-19)
(0.0812635 -0.09627 8.90039e-20)
(0.129599 -0.144302 1.06324e-19)
(0.179926 -0.190584 5.23494e-21)
(0.339134 0.0700013 -8.30704e-20)
(0.618643 -0.0420367 -1.21767e-18)
(0.704911 -0.0149492 2.56341e-19)
(0.728111 -0.00038972 3.78143e-19)
(0.731712 1.21116e-05 1.82268e-20)
(0.304224 -0.0370088 -9.97681e-20)
(0.754682 -0.114662 1.4267e-18)
(0.888113 -0.0259864 9.26373e-19)
(0.928955 -0.00167948 7.86142e-20)
(0.941071 6.16972e-05 -4.71011e-20)
(0.319447 -0.151935 -7.94854e-19)
(0.835231 -0.197646 3.02721e-18)
(1.04626 -0.0468781 -1.85663e-19)
(1.11259 -0.00484104 -3.48618e-19)
(1.13157 -0.000195092 9.0004e-20)
(0.373059 -0.289793 1.08738e-18)
(0.879119 -0.296329 -2.55681e-18)
(1.15907 -0.0900207 -5.15298e-19)
(1.26954 -0.0153987 -3.56146e-20)
(1.30176 -0.00245344 -1.21708e-20)
(0.459457 -0.437556 5.09421e-19)
(0.91073 -0.402755 -5.64386e-19)
(1.22727 -0.147892 4.44404e-19)
(1.36673 -0.0381523 1.35938e-19)
(1.41932 -0.00896538 -4.31781e-20)
(0.18303 -0.044872 9.54329e-19)
(0.146003 -0.00503732 0)
(0.163148 0.0013347 1.1871e-19)
(0.165262 0.000273299 2.11654e-20)
(0.163665 -0.000138454 -8.19359e-20)
(0.400818 0.0697903 0)
(0.41207 -0.000671541 0)
(0.467978 -0.00481291 7.23905e-20)
(0.476996 0.000517741 3.6617e-20)
(0.474399 8.45656e-05 2.28007e-20)
(0.162642 -0.000821063 -3.68357e-19)
(0.186353 -0.00179216 3.10714e-18)
(0.213156 -0.0050215 -6.86643e-19)
(0.229755 -0.0149891 -3.1164e-18)
(0.24565 -0.0169816 -7.96861e-19)
(0.431922 0.00444015 6.09777e-19)
(0.484442 0.0196897 4.11533e-18)
(0.536342 0.0466719 -6.73189e-18)
(0.567578 0.0805449 2.2085e-18)
(0.598381 0.162171 3.79268e-18)
(0.370527 -0.219787 -3.3701e-19)
(0.324065 -0.230856 -8.9533e-20)
(0.248266 -0.212254 -3.14892e-19)
(0.150748 -0.150683 3.83208e-19)
(0.045843 -0.0646017 1.1444e-19)
(0.257812 -0.167463 4.20072e-19)
(0.215142 -0.179715 1.41669e-18)
(0.162389 -0.175481 2.70839e-19)
(0.0967645 -0.13445 2.34916e-19)
(0.026769 -0.0571057 -1.75228e-20)
(0.19305 -0.0525035 -3.09149e-19)
(0.151439 -0.0750747 -1.016e-19)
(0.108558 -0.0926367 1.63264e-18)
(0.0622786 -0.0952945 2.91393e-19)
(0.0130225 -0.0475069 -3.08024e-19)
(0.176695 0.0879684 -6.35798e-19)
(0.131114 0.0542571 -7.07253e-19)
(0.0866148 0.0208047 1.29865e-18)
(0.0487278 -0.00901796 1.58888e-18)
(0.0111816 -0.0288775 1.98586e-19)
(0.185531 0.243368 1.23872e-19)
(0.131875 0.197194 -1.19594e-19)
(0.0801886 0.147571 2.48235e-19)
(0.0371212 0.0966389 6.06975e-19)
(-0.00265244 0.0353946 8.71406e-20)
(0.697759 -0.0163384 1.5311e-18)
(0.944223 -0.0274045 -1.80064e-18)
(0.97284 -0.0441867 2.2695e-18)
(0.656602 -0.0405239 3.64311e-19)
(0.281926 -0.0207628 5.36514e-19)
(0.72408 -0.05312 1.77171e-18)
(0.939711 -0.0969991 7.94624e-18)
(0.864375 -0.125229 1.0335e-18)
(0.59124 -0.1071 1.34916e-18)
(0.245634 -0.0554742 -4.78354e-19)
(0.741421 -0.100944 -1.22287e-18)
(0.856602 -0.17521 -2.29479e-18)
(0.707596 -0.184794 2.92379e-18)
(0.476387 -0.145945 -1.08468e-19)
(0.18571 -0.0742912 3.39612e-19)
(0.7125 -0.179781 2.34206e-20)
(0.676861 -0.233171 -7.67915e-18)
(0.534485 -0.215166 -5.99313e-18)
(0.34484 -0.16068 1.09106e-18)
(0.123465 -0.0775733 5.0805e-19)
(0.558579 -0.256561 4.73622e-19)
(0.481566 -0.256886 5.32535e-19)
(0.372247 -0.225136 -8.96055e-19)
(0.230924 -0.160973 -8.86835e-19)
(0.0756109 -0.0726299 -5.13888e-21)
(0.724978 0.372056 1.16781e-18)
(0.896383 0.123239 -1.89906e-19)
(0.689825 0.0199982 2.64633e-19)
(0.650771 0.0393588 -7.64822e-19)
(0.363816 -0.0601094 -1.01559e-19)
(0.82313 0.396359 -1.66422e-19)
(1.11454 0.149994 -5.23466e-19)
(0.88139 0.0398207 8.19721e-19)
(0.808239 0.105041 1.66819e-18)
(0.342253 0.0565954 1.0676e-19)
(0.883261 0.368244 -2.08997e-18)
(1.31058 0.161953 -3.74951e-20)
(1.04625 0.0679233 2.21052e-19)
(0.906523 0.185923 1.55135e-18)
(0.364119 0.178684 -1.34012e-18)
(0.902933 0.304338 1.31386e-18)
(1.46034 0.161032 2.61258e-20)
(1.16237 0.109836 -1.69618e-19)
(0.954737 0.28416 -4.50768e-19)
(0.410794 0.323892 -5.3279e-19)
(0.904895 0.228003 1.42757e-19)
(1.46681 0.153801 -1.04799e-20)
(1.22759 0.156896 -3.67345e-20)
(0.976435 0.390528 4.58131e-22)
(0.478665 0.479665 1.35735e-18)
(0.275121 0.0483744 0)
(0.2457 -0.0105486 6.36604e-19)
(0.160397 -0.0157045 1.28858e-19)
(0.152127 0.00518294 -1.34388e-19)
(0.184548 0.0438835 -1.80799e-18)
(0.571763 0.265903 -1.01878e-17)
(0.615683 0.073946 -2.50524e-18)
(0.454402 0.012349 5.13877e-19)
(0.428962 0.00168725 -6.73318e-19)
(0.408961 -0.0679339 -6.63757e-19)
(0.245801 0.0169288 -1.18429e-21)
(0.229854 0.0150739 1.92812e-18)
(0.213233 0.00506383 5.23761e-19)
(0.186402 0.00180183 3.23185e-19)
(0.162658 0.000824897 0)
(0.599347 -0.162023 -1.06081e-19)
(0.568171 -0.0802226 2.55231e-18)
(0.536455 -0.0464427 -1.3493e-19)
(0.484502 -0.0196365 -2.69736e-19)
(0.431945 -0.00441797 7.60222e-19)
)
;

boundaryField
{
    left
    {
        type            fixedValue;
        value           uniform (1 0 0);
    }
    right
    {
        type            zeroGradient;
    }
    down
    {
        type            noSlip;
    }
    up
    {
        type            noSlip;
    }
    cylinder
    {
        type            noSlip;
    }
    defaultFaces
    {
        type            empty;
    }
}


// ************************************************************************* //
