# Selection   : all
# Cells       : 440
# Volume      : 7.374263e+01
# Time        	max(p)
0.9           	1.860570e+00
0.95          	1.878037e+00
1             	1.893832e+00
