/*--------------------------------*- C++ -*----------------------------------*\
  =========                 |
  \\      /  F ield         | OpenFOAM: The Open Source CFD Toolbox
   \\    /   O peration     | Website:  https://openfoam.org
    \\  /    A nd           | Version:  13
     \\/     M anipulation  |
\*---------------------------------------------------------------------------*/
FoamFile
{
    format      ascii;
    class       volScalarField;
    location    "0.96";
    object      p;
}
// * * * * * * * * * * * * * * * * * * * * * * * * * * * * * * * * * * * * * //

dimensions      [0 2 -2 0 0 0 0];

internalField   nonuniform List<scalar> 
440
(
7.8286
10.585
12.9474
13.1288
10.1523
20.7183
24.1016
27.097
27.7974
25.9091
41.2547
44.286
46.9891
47.7817
46.6206
67.3875
69.4853
71.3987
72.0553
71.3678
96.6637
97.4807
98.2777
98.6777
98.6442
-0.449271
-0.549532
-0.0782413
0.483159
0.826443
-1.66947
-2.33748
-2.07967
-1.38529
-0.747857
-2.01322
-2.89676
-2.82235
-2.07078
-0.954666
-0.674355
-0.807725
-0.404903
0.556274
2.41942
3.08697
4.39819
5.82668
7.25675
9.50521
2.08881
2.26767
1.33594
0.68166
0.240776
1.06308
2.08218
1.21969
0.622862
0.238118
-0.0897385
1.67124
1.09185
0.577163
0.230125
-0.401871
1.06528
0.881738
0.545679
0.215377
1.50375
0.473789
0.597987
0.486077
0.186894
4.37315
0.245295
0.348323
0.411548
0.139141
6.71982
0.710583
0.451468
0.406877
0.0750358
9.98442
2.44806
1.09429
0.540723
0.0417216
13.8725
4.74603
2.13636
0.824713
0.0539879
16.6082
7.10707
3.45586
1.31564
0.162146
100.688
75.8396
53.3238
33.1486
12.3454
102.384
78.9423
57.5372
39.0573
23.4834
104.285
82.7018
62.475
45.2349
32.8884
105.167
85.0207
66.5024
51.1831
40.6567
105.086
84.7433
66.3283
51.2507
40.8962
219.868
216.385
216.089
218.205
220.937
202.689
200.221
200.479
203.22
206.511
180.54
178.767
179.13
181.553
184.431
154.741
153.398
153.603
155.197
157.093
126.861
126.147
126.086
126.546
127.139
235.6
236.032
236.675
237.106
236.853
236.158
236.797
237.358
237.339
236.388
234.934
235.91
236.326
236.053
235.067
230.045
231.643
232.204
232.338
232.246
221.565
223.426
224.435
225.641
226.995
235.711
234.734
234.894
234.151
234.282
235.675
234.717
234.842
234.104
234.8
235.662
234.675
234.776
234.21
235.306
235.664
234.608
234.765
234.46
234.891
235.671
234.519
234.832
234.657
232.206
235.688
234.37
234.878
234.43
228.725
235.888
234.23
234.767
233.93
226.353
236.799
234
234.143
232.25
223.333
240.85
233.977
232.966
229.794
219.662
249.822
234.705
231.743
227.251
216.912
217.762
196.235
175.027
151.733
126.446
207.364
191.369
172.324
150.421
126.651
198.876
186.196
168.614
148.087
126.333
191.745
180.784
165.099
146.261
125.92
191.527
180.765
165.354
146.661
126.15
96.3959
95.5191
95.0714
94.3045
94.1479
57.3137
55.3668
53.6614
51.7395
50.9736
29.4826
27.1393
24.3765
22.0774
20.7528
15.0304
12.6138
10.1483
8.12807
7.15747
9.20066
7.31288
5.92614
4.95093
4.3637
5.96987
4.86794
4.2886
4.20031
4.2887
4.06025
3.60124
3.52984
3.68607
3.83991
2.75002
2.73743
2.97218
3.27637
3.43499
1.65033
1.95515
2.40767
2.75878
2.90365
0.606554
1.00251
1.57548
1.97826
2.15298
3.60976
3.17619
2.0624
0.948941
0.268118
3.66317
3.00409
1.97025
0.893436
0.258095
3.46311
2.74102
1.84118
0.843191
0.251409
3.14256
2.4967
1.67808
0.793361
0.247842
2.72823
2.35129
1.49505
0.739469
0.244582
4.47705
3.15835
1.97505
0.993934
0.30426
3.74092
3.25421
2.06428
0.985567
0.282323
94.9034
54.1437
27.5056
14.4817
9.46128
93.6822
51.1342
22.982
9.46589
5.25548
232.147
232.228
232.177
231.66
230.582
232.733
232.907
233.136
233.174
232.798
233.297
233.469
233.857
234.254
234.425
233.9
234.052
234.456
235.061
235.481
234.65
234.887
235.393
236.009
236.271
141.981
141.789
140.961
140.45
139.539
185.216
184.407
182.428
180.662
178.684
215.516
214.146
211.796
208.982
206.608
229.153
228.146
226.096
223.597
221.152
232.002
231.388
230.416
229.032
227.133
238.824
234.449
234.525
233.517
232.899
237.119
234.491
234.614
233.684
232.916
236.35
234.581
234.718
233.908
233.247
235.975
234.664
234.822
234.113
233.629
235.793
234.718
234.889
234.201
233.948
252.267
235.789
234.881
233.454
231.982
243.172
234.695
234.463
233.397
232.703
226.938
221.865
208.757
182.039
141.23
231.136
226.893
213.31
185.062
142.453
)
;

boundaryField
{
    left
    {
        type            zeroGradient;
    }
    right
    {
        type            fixedValue;
        value           uniform 0;
    }
    down
    {
        type            zeroGradient;
    }
    up
    {
        type            zeroGradient;
    }
    cylinder
    {
        type            zeroGradient;
    }
    defaultFaces
    {
        type            empty;
    }
}


// ************************************************************************* //
