/*--------------------------------*- C++ -*----------------------------------*\
  =========                 |
  \\      /  F ield         | OpenFOAM: The Open Source CFD Toolbox
   \\    /   O peration     | Website:  https://openfoam.org
    \\  /    A nd           | Version:  13
     \\/     M anipulation  |
\*---------------------------------------------------------------------------*/
FoamFile
{
    format      ascii;
    class       volVectorField;
    location    "0.96";
    object      U;
}
// * * * * * * * * * * * * * * * * * * * * * * * * * * * * * * * * * * * * * //

dimensions      [0 1 -1 0 0 0 0];

internalField   nonuniform List<vector> 
440
(
(0.218255 -0.176689 -1.81148e-19)
(0.613074 -0.43665 1.07862e-18)
(0.984294 -0.640903 4.23048e-19)
(1.32755 -0.795401 1.24339e-18)
(1.63259 -0.916787 -2.59961e-19)
(0.30489 -0.177681 -5.44452e-19)
(0.81913 -0.428695 -1.01955e-18)
(1.27997 -0.618897 1.14524e-19)
(1.69191 -0.76164 -1.21508e-18)
(2.05375 -0.875126 -1.02099e-18)
(0.384877 -0.152406 -6.98055e-19)
(1.00468 -0.363013 1.58978e-18)
(1.53975 -0.518384 -1.93457e-18)
(2.00471 -0.632634 1.37979e-18)
(2.40594 -0.721483 1.42951e-18)
(0.445865 -0.102745 5.62385e-19)
(1.14609 -0.243083 -1.29949e-18)
(1.73743 -0.344811 -7.50797e-19)
(2.24293 -0.418222 1.96645e-18)
(2.67445 -0.474467 2.50024e-18)
(0.479253 -0.0361581 6.86899e-19)
(1.22363 -0.0847542 1.69138e-19)
(1.84589 -0.119363 2.53128e-18)
(2.37401 -0.143865 -1.062e-18)
(2.82294 -0.162496 -4.83733e-19)
(-0.000945701 -0.0519008 2.72615e-19)
(0.049946 -0.144915 -3.8354e-19)
(0.105848 -0.223175 1.11096e-18)
(0.17135 -0.293147 -1.77132e-19)
(0.239487 -0.354842 -1.60453e-18)
(0.0137147 -0.0844185 -2.63732e-19)
(0.0892425 -0.228136 -4.31026e-19)
(0.174009 -0.350691 1.10002e-19)
(0.268249 -0.450766 5.94538e-20)
(0.364479 -0.530984 -3.55586e-20)
(0.043347 -0.114283 7.03268e-20)
(0.165444 -0.303266 5.32298e-19)
(0.296124 -0.467603 9.50795e-20)
(0.432802 -0.599189 1.45483e-18)
(0.567845 -0.697846 -2.49383e-20)
(0.0866149 -0.140987 6.69823e-20)
(0.276364 -0.367829 -3.56128e-20)
(0.469487 -0.563062 2.18529e-19)
(0.661408 -0.718644 -2.03238e-18)
(0.84413 -0.830641 9.56397e-19)
(0.142116 -0.161712 -2.35628e-19)
(0.420075 -0.412838 -4.42282e-19)
(0.691403 -0.621477 -7.69668e-19)
(0.950162 -0.782448 9.5251e-19)
(1.18524 -0.892915 3.45091e-18)
(0.592418 -0.593013 -4.02256e-18)
(0.962614 -0.51867 9.76875e-19)
(1.29652 -0.215115 3.64449e-19)
(1.50172 -0.0346207 -5.73824e-19)
(1.57912 0.00124885 -5.21064e-20)
(0.785081 -0.744469 4.83082e-18)
(1.04288 -0.62561 -3.07388e-19)
(1.31947 -0.288951 -1.44106e-19)
(1.54292 -0.0830639 3.85813e-19)
(1.69143 -0.0166156 1.19658e-19)
(1.03631 -0.878868 1.54833e-18)
(1.17736 -0.711648 4.05698e-18)
(1.34094 -0.360952 6.88658e-20)
(1.54653 -0.13563 3.60433e-19)
(1.7387 -0.0489934 -5.08184e-20)
(1.33059 -0.989228 1.21622e-18)
(1.35864 -0.772681 -4.22641e-19)
(1.38519 -0.422878 -7.70022e-19)
(1.53413 -0.18176 -2.94383e-19)
(1.65431 -0.0768168 1.28853e-19)
(1.62997 -1.04783 5.80237e-21)
(1.55526 -0.812047 -1.72456e-18)
(1.44874 -0.471077 0)
(1.49891 -0.234001 3.40647e-19)
(1.52038 -0.0884838 9.48359e-20)
(2.15643 -1.1156 -1.5798e-18)
(1.83399 -0.801093 -4.90009e-19)
(1.5598 -0.457507 -9.40418e-21)
(1.37519 -0.219454 8.03025e-20)
(1.3267 -0.0841842 -2.85032e-19)
(2.6325 -0.889988 -1.61182e-18)
(1.89891 -0.591242 2.98164e-18)
(1.43156 -0.320505 6.74605e-21)
(1.14857 -0.15818 2.21046e-19)
(1.06237 -0.0623502 0)
(2.47847 -0.522953 -6.92609e-18)
(1.60483 -0.339077 -1.48922e-19)
(1.14903 -0.17935 1.96342e-18)
(0.888226 -0.0931721 -3.39569e-19)
(0.783667 -0.038745 -2.62681e-20)
(1.76238 -0.220013 6.83492e-18)
(1.08846 -0.135718 1.24262e-18)
(0.752193 -0.0678722 2.23634e-19)
(0.571014 -0.0368038 2.96636e-33)
(0.485091 -0.0168079 -7.1682e-20)
(0.683167 0.000176491 1.55182e-18)
(0.395173 0.0235672 7.12286e-19)
(0.267721 0.0240806 -5.17143e-19)
(0.205525 0.0153771 2.30043e-19)
(0.171257 0.00629391 -8.36493e-20)
(3.58188 -0.168162 1.2562e-17)
(3.41717 -0.502947 -1.04437e-17)
(3.13669 -0.787015 7.1086e-18)
(2.78064 -0.996133 2.32114e-18)
(2.33319 -1.10188 -4.14163e-19)
(3.78451 -0.10359 1.03945e-17)
(3.71744 -0.324465 -6.63888e-19)
(3.5777 -0.551831 -4.26981e-18)
(3.37825 -0.785777 2.68951e-18)
(3.10028 -1.01981 -6.62782e-19)
(3.11483 -0.0605699 3.65447e-18)
(3.09865 -0.181683 -2.51886e-18)
(3.0596 -0.309669 5.01276e-18)
(2.99888 -0.444871 -1.52978e-19)
(2.9243 -0.593651 -4.79033e-18)
(2.19087 -0.0276241 2.7888e-18)
(2.18384 -0.0833663 8.43054e-18)
(2.16463 -0.143999 -6.53262e-19)
(2.13408 -0.207274 -6.60889e-18)
(2.11306 -0.269436 1.94585e-18)
(0.879441 -0.00184239 5.21228e-18)
(0.876492 -0.00523855 -1.16442e-19)
(0.867374 -0.00956708 -4.25729e-20)
(0.850513 -0.016253 -2.00946e-18)
(0.841162 -0.0229044 -3.60555e-18)
(1.65318 0.940156 2.27762e-18)
(1.34832 0.816736 -7.94513e-20)
(1.00337 0.658645 -3.58233e-20)
(0.627852 0.449461 -1.96225e-19)
(0.225213 0.182282 -1.33985e-19)
(2.07053 0.892538 -1.21883e-18)
(1.71069 0.777735 -1.20457e-18)
(1.29832 0.632575 7.31627e-19)
(0.83403 0.438709 -4.83986e-19)
(0.312131 0.182081 -4.03783e-21)
(2.4186 0.735862 -5.88885e-19)
(2.01967 0.645355 5.25242e-19)
(1.555 0.528757 2.43639e-18)
(1.01753 0.370192 8.08282e-19)
(0.391333 0.155283 5.26033e-19)
(2.68202 0.486724 1.57218e-20)
(2.25238 0.428294 -2.71544e-19)
(1.74743 0.352324 -6.46736e-19)
(1.15476 0.247644 2.05638e-18)
(0.450322 0.104144 -3.26824e-19)
(2.82546 0.173874 -1.1705e-18)
(2.37727 0.152648 -1.60647e-18)
(1.84939 0.125347 -7.28683e-19)
(1.22671 0.0878342 7.96266e-19)
(0.480854 0.0366867 -3.25825e-19)
(0.241541 0.41767 -2.15482e-18)
(0.17124 0.354106 -1.82711e-18)
(0.103634 0.277601 3.18349e-19)
(0.0458705 0.184062 -4.90971e-20)
(-0.00158459 0.067753 3.42374e-20)
(0.371246 0.595542 -8.00021e-19)
(0.274284 0.51103 -6.76608e-19)
(0.178911 0.400195 1.46228e-20)
(0.0926683 0.260044 -2.6516e-20)
(0.0169224 0.0967241 2.69673e-20)
(0.581635 0.754682 2.1886e-18)
(0.446189 0.650612 -1.50491e-19)
(0.307947 0.507844 -1.4552e-19)
(0.17443 0.328934 -2.15617e-19)
(0.0484575 0.124096 1.66945e-19)
(0.862018 0.875601 -1.29408e-18)
(0.67913 0.758856 1.97248e-18)
(0.48526 0.594435 2.98606e-19)
(0.288336 0.388552 1.02766e-19)
(0.0925585 0.149218 -1.18491e-19)
(1.2037 0.925449 -4.40789e-19)
(0.969103 0.811973 -4.57554e-19)
(0.708575 0.645155 3.59268e-19)
(0.433307 0.429186 3.58818e-19)
(0.148454 0.168527 1.89523e-21)
(0.94852 0.170025 -4.85952e-19)
(1.49492 0.130453 4.89865e-20)
(1.34182 0.196532 1.87269e-20)
(1.01636 0.498454 -4.88676e-19)
(0.600086 0.646101 6.66016e-20)
(0.956412 0.0905238 1.81184e-19)
(1.51275 0.102931 3.13314e-19)
(1.37217 0.246863 2.77689e-19)
(1.06204 0.614942 -4.92812e-20)
(0.785043 0.804444 7.5373e-19)
(0.962886 0.0101746 6.20284e-20)
(1.53127 0.0780042 -2.15963e-20)
(1.37162 0.298852 -5.74772e-20)
(1.16463 0.714643 -4.03844e-19)
(1.03717 0.939059 9.17616e-20)
(0.965797 -0.0688504 -1.86047e-20)
(1.53487 0.0564374 -7.61338e-19)
(1.36995 0.352456 7.04579e-20)
(1.32539 0.783187 1.17874e-18)
(1.33494 1.04329 9.4756e-19)
(0.962932 -0.14508 -1.56153e-20)
(1.50256 0.0493565 2.25393e-19)
(1.38726 0.403868 -5.92646e-20)
(1.50942 0.824694 -3.69339e-19)
(1.63622 1.09281 -2.72602e-18)
(0.944645 -0.238788 2.58238e-19)
(1.43995 0.0177786 5.08713e-19)
(1.4621 0.397221 -4.05426e-20)
(1.76663 0.802498 3.12755e-18)
(2.15344 1.14383 -5.5189e-18)
(0.889275 -0.345256 -2.51501e-20)
(1.30808 -0.0301732 -6.46007e-19)
(1.39855 0.284471 6.89038e-21)
(1.84084 0.596364 -3.07216e-18)
(2.59417 0.900831 1.67032e-18)
(0.788131 -0.411455 5.54564e-18)
(1.0767 -0.0921577 6.97694e-35)
(1.13426 0.150666 -2.11508e-18)
(1.57571 0.340874 2.62542e-18)
(2.45647 0.529767 5.032e-18)
(0.635168 -0.291793 1.5132e-19)
(0.712023 -0.0720142 5.26973e-19)
(0.731655 0.0519316 2.4678e-19)
(1.07516 0.135343 6.22452e-19)
(1.75837 0.220514 -8.64575e-18)
(0.322814 -0.0431045 -4.30818e-18)
(0.293566 0.00573864 2.85612e-19)
(0.264925 -0.0133819 1.11249e-18)
(0.393396 -0.0240318 -7.69882e-19)
(0.686214 -0.000477038 -1.46655e-18)
(2.34872 1.12134 4.69196e-18)
(2.78734 1.01263 3.47426e-18)
(3.1409 0.80342 -5.69312e-18)
(3.41899 0.519619 -1.46168e-17)
(3.58239 0.185886 1.5764e-17)
(3.07876 1.01887 5.00928e-18)
(3.35397 0.795236 2.56321e-17)
(3.55689 0.560671 7.24214e-18)
(3.70106 0.331823 -3.08275e-17)
(3.77791 0.111137 -5.17325e-18)
(2.90564 0.592026 -7.22765e-18)
(2.98594 0.448105 -3.38023e-18)
(3.05216 0.312104 -6.2965e-18)
(3.09523 0.181713 -6.88932e-18)
(3.114 0.05842 6.52287e-18)
(2.10628 0.265882 5.41661e-18)
(2.13014 0.205726 -4.04555e-19)
(2.16255 0.143024 4.87144e-18)
(2.18313 0.082124 6.2894e-18)
(2.19077 0.0259928 -5.88797e-18)
(0.842561 0.0220513 -5.7476e-19)
(0.85195 0.0156511 3.52135e-18)
(0.868644 0.00913 2.4433e-18)
(0.877498 0.00479179 -5.16951e-18)
(0.879841 0.00136122 -3.84297e-20)
(0.281991 0.0207608 5.52156e-19)
(0.656795 0.0404741 -7.43633e-19)
(0.973299 0.0440746 -8.18472e-19)
(0.944468 0.0274365 -1.51804e-18)
(0.697972 0.016389 -6.63749e-19)
(0.245628 0.0554707 7.45801e-19)
(0.591377 0.107095 1.44152e-18)
(0.864824 0.125164 -6.97422e-19)
(0.940094 0.0970161 1.96083e-18)
(0.724297 0.0532512 -2.70094e-18)
(0.185658 0.0742786 4.96275e-19)
(0.476476 0.145922 -1.39886e-18)
(0.707889 0.184792 -9.13944e-19)
(0.857442 0.175441 -1.81042e-18)
(0.741679 0.101248 -2.86254e-18)
(0.123328 0.0774875 -7.72697e-19)
(0.344822 0.160383 -1.37667e-18)
(0.534621 0.214914 4.39909e-18)
(0.677822 0.233347 -3.66692e-19)
(0.713158 0.180054 2.25464e-18)
(0.0752853 0.0723778 -6.23085e-19)
(0.230745 0.160129 1.56427e-18)
(0.372327 0.224559 6.11894e-19)
(0.482872 0.257795 -1.2956e-18)
(0.56137 0.258476 -1.75008e-19)
(0.0451563 0.0637858 8.38036e-20)
(0.149963 0.148788 -1.22154e-18)
(0.247764 0.212165 -9.44012e-19)
(0.325459 0.234091 -8.87248e-20)
(0.37125 0.223828 -5.00682e-20)
(0.0264685 0.0557191 3.12317e-19)
(0.0950858 0.134327 5.91063e-19)
(0.160899 0.184791 -2.11155e-19)
(0.213772 0.195363 2.6043e-19)
(0.253644 0.185279 1.71989e-19)
(0.0133329 0.0488568 2.49525e-19)
(0.0586799 0.111329 1.33314e-18)
(0.103809 0.120971 -1.24383e-18)
(0.142844 0.107114 -2.79054e-18)
(0.179108 0.0856429 4.08269e-19)
(0.00623869 0.0392783 -2.38618e-19)
(0.0427441 0.0485359 -1.81013e-18)
(0.0800205 0.0214931 3.21957e-18)
(0.120142 -0.0103276 1.31366e-18)
(0.161692 -0.0441406 -2.69204e-19)
(0.00987509 0.00126216 2.09345e-19)
(0.0421044 -0.0505472 -4.51532e-19)
(0.0822126 -0.0967164 9.00713e-20)
(0.130916 -0.144691 1.04766e-19)
(0.181634 -0.190938 -3.09868e-22)
(0.338789 0.0718227 -7.54345e-20)
(0.61411 -0.0424313 -1.23077e-18)
(0.704946 -0.0135266 2.54592e-19)
(0.716036 0.00748551 4.02869e-19)
(0.696706 0.00446883 1.19304e-20)
(0.303181 -0.0345469 -1.00237e-19)
(0.750838 -0.115187 1.48151e-18)
(0.889358 -0.0231962 9.19909e-19)
(0.915567 0.011574 7.52378e-20)
(0.900793 0.00754385 -3.81202e-20)
(0.320256 -0.150187 -8.15999e-19)
(0.83578 -0.19869 3.17465e-18)
(1.05143 -0.0425348 -1.8176e-19)
(1.10331 0.014367 -3.36918e-19)
(1.0945 0.0105832 6.78445e-20)
(0.376525 -0.289101 1.10368e-18)
(0.885307 -0.298546 -2.71248e-18)
(1.17452 -0.0835063 -5.37173e-19)
(1.2711 0.0114983 -3.13555e-20)
(1.27492 0.0120972 1.25516e-20)
(0.463042 -0.437638 4.96852e-19)
(0.920393 -0.406261 -5.40285e-19)
(1.25307 -0.144201 4.82389e-19)
(1.4082 -0.00277636 1.14647e-19)
(1.43866 0.00987087 2.51316e-20)
(0.182986 -0.0449726 9.55227e-19)
(0.145079 -0.00518626 0)
(0.162878 0.000955185 1.16624e-19)
(0.162107 -0.000565187 -9.36091e-21)
(0.155172 -0.000903712 -7.05214e-20)
(0.399795 0.0699734 0)
(0.408967 -0.000529453 0)
(0.467539 -0.00418463 5.16815e-20)
(0.46809 0.00377624 -3.80593e-20)
(0.449692 0.00183835 4.95617e-20)
(0.162698 -0.000821318 -3.68484e-19)
(0.186417 -0.00179194 3.1078e-18)
(0.213228 -0.00502009 -6.86354e-19)
(0.229826 -0.0149881 -3.11715e-18)
(0.245721 -0.0170088 -7.97115e-19)
(0.432061 0.00444159 6.09955e-19)
(0.484593 0.0196971 4.11572e-18)
(0.536491 0.0466993 -6.73028e-18)
(0.567668 0.0806158 2.2094e-18)
(0.59837 0.162221 3.79728e-18)
(0.370773 -0.220756 -3.3275e-19)
(0.324406 -0.231729 -9.33486e-20)
(0.248415 -0.212731 -3.33296e-19)
(0.150774 -0.150751 3.89088e-19)
(0.0458721 -0.0645742 1.13993e-19)
(0.257466 -0.169995 4.23344e-19)
(0.215058 -0.182059 1.41447e-18)
(0.162384 -0.177337 2.57334e-19)
(0.0967084 -0.13519 2.36554e-19)
(0.0269244 -0.0572055 -1.89311e-20)
(0.193173 -0.0552452 -3.12525e-19)
(0.151614 -0.0778026 -1.05968e-19)
(0.108794 -0.095359 1.63409e-18)
(0.0623155 -0.0975234 2.85101e-19)
(0.0132763 -0.0480915 -3.14599e-19)
(0.179026 0.0866524 -6.37751e-19)
(0.132913 0.0527791 -7.06372e-19)
(0.0879509 0.0190222 1.31197e-18)
(0.0496002 -0.0111227 1.60303e-18)
(0.0112326 -0.0300801 1.98972e-19)
(0.1894 0.244323 1.24643e-19)
(0.13483 0.197999 -1.1986e-19)
(0.0822741 0.148153 2.49054e-19)
(0.0384461 0.0970148 6.2608e-19)
(-0.00219147 0.0356279 9.3615e-20)
(0.697969 -0.0163445 1.53164e-18)
(0.944473 -0.0274143 -1.80087e-18)
(0.973108 -0.0442015 2.27012e-18)
(0.656807 -0.0405368 3.64669e-19)
(0.282025 -0.0207695 5.3671e-19)
(0.724285 -0.0531459 1.77275e-18)
(0.93995 -0.0970325 7.9469e-18)
(0.864624 -0.12527 1.03371e-18)
(0.59143 -0.107135 1.34957e-18)
(0.245724 -0.0554921 -4.78536e-19)
(0.741586 -0.10101 -1.22118e-18)
(0.856842 -0.175284 -2.29682e-18)
(0.707813 -0.184857 2.9246e-18)
(0.476546 -0.145992 -1.08248e-19)
(0.185781 -0.0743148 3.39508e-19)
(0.712616 -0.179888 1.65875e-20)
(0.677141 -0.233314 -7.68718e-18)
(0.534662 -0.215251 -6.00068e-18)
(0.344961 -0.160717 1.09175e-18)
(0.123511 -0.0775914 5.08047e-19)
(0.559031 -0.257055 4.67057e-19)
(0.481891 -0.257286 5.33698e-19)
(0.372412 -0.225301 -9.0003e-19)
(0.231006 -0.160998 -8.88514e-19)
(0.0756333 -0.072634 -5.14511e-21)
(0.728107 0.373156 1.17638e-18)
(0.879696 0.127855 -1.89224e-19)
(0.676428 0.0206908 2.50257e-19)
(0.643446 0.0351117 -7.46186e-19)
(0.362649 -0.0620939 -1.00642e-19)
(0.828275 0.398169 -1.71049e-19)
(1.08607 0.158078 -5.88416e-19)
(0.868212 0.0395473 8.4058e-19)
(0.803596 0.0977693 1.67075e-18)
(0.340347 0.0537207 1.02904e-19)
(0.893609 0.372795 -2.28034e-18)
(1.26414 0.172268 -3.80688e-20)
(1.04 0.0639604 2.5296e-19)
(0.908262 0.176764 1.72311e-18)
(0.365 0.176305 -1.45653e-18)
(0.927162 0.318803 1.53333e-18)
(1.39925 0.174125 1.60245e-20)
(1.17965 0.100853 -2.21293e-19)
(0.964972 0.275296 -8.20203e-19)
(0.416516 0.323204 -6.01032e-19)
(0.940522 0.247591 1.88841e-19)
(1.47316 0.157683 4.07582e-20)
(1.27887 0.146623 -9.73107e-20)
(0.994783 0.383371 -1.22314e-19)
(0.487246 0.480836 1.37148e-18)
(0.275729 0.0483752 0)
(0.244301 -0.0113094 6.51109e-19)
(0.157421 -0.0159176 1.26946e-19)
(0.150035 0.00552887 -1.10697e-19)
(0.18439 0.0441327 -1.80812e-18)
(0.573613 0.266369 -1.01989e-17)
(0.609219 0.075153 -2.56649e-18)
(0.444548 0.013763 5.02927e-19)
(0.422692 3.56392e-05 -6.48114e-19)
(0.407541 -0.0683445 -6.62247e-19)
(0.245849 0.0169753 -7.81767e-22)
(0.229919 0.0150777 1.92878e-18)
(0.213306 0.00506438 5.24644e-19)
(0.186467 0.00180206 3.22987e-19)
(0.162714 0.000825197 0)
(0.599183 -0.162147 -1.17191e-19)
(0.568195 -0.0803465 2.54632e-18)
(0.536592 -0.0464819 -1.38218e-19)
(0.484651 -0.0196443 -2.7064e-19)
(0.432084 -0.00441929 7.60549e-19)
)
;

boundaryField
{
    left
    {
        type            fixedValue;
        value           uniform (1 0 0);
    }
    right
    {
        type            zeroGradient;
    }
    down
    {
        type            noSlip;
    }
    up
    {
        type            noSlip;
    }
    cylinder
    {
        type            noSlip;
    }
    defaultFaces
    {
        type            empty;
    }
}


// ************************************************************************* //
