/*--------------------------------*- C++ -*----------------------------------*\
  =========                 |
  \\      /  F ield         | OpenFOAM: The Open Source CFD Toolbox
   \\    /   O peration     | Website:  https://openfoam.org
    \\  /    A nd           | Version:  13
     \\/     M anipulation  |
\*---------------------------------------------------------------------------*/
FoamFile
{
    format      ascii;
    class       volScalarField;
    location    "0.3";
    object      p;
}
// * * * * * * * * * * * * * * * * * * * * * * * * * * * * * * * * * * * * * //

dimensions      [0 2 -2 0 0 0 0];

internalField   nonuniform List<scalar>
1800
(
-1.97728285645
-1.88562731508
-1.77847478981
-1.67370803974
-1.58118992541
-1.50119281931
-1.43160339585
-1.37058707402
-1.31643716663
-1.27098834637
-2.13170937009
-2.03055418255
-1.91116101624
-1.79350301399
-1.68910635393
-1.59844957397
-1.51936893859
-1.45008090702
-1.38961610341
-1.3395814764
-2.27533470327
-2.16486544079
-2.03362916565
-1.90360406562
-1.78793500027
-1.68719854512
-1.59910123392
-1.52177105378
-1.45409879275
-1.3967853309
-2.40319119109
-2.28374886599
-2.14142028002
-1.99989024481
-1.8739330006
-1.76408815103
-1.66792125291
-1.58342597869
-1.50938521374
-1.44611507129
-2.51015915101
-2.382294776
-2.22986745784
-2.07788829224
-1.94278701701
-1.82487545047
-1.72153621292
-1.6306414827
-1.55087197032
-1.48208834228
-2.59119427567
-2.45565542201
-2.29440947744
-2.13331925848
-1.99045291981
-1.86569941008
-1.75627371317
-1.65994140824
-1.57526854831
-1.50173116085
-2.64158959685
-2.49946230995
-2.33087671806
-2.1622229408
-2.01321166644
-1.88300182335
-1.76871184975
-1.66801449183
-1.57937822087
-1.5019581725
-2.65729007226
-2.50994884522
-2.33573774738
-2.16136462279
-2.00802341203
-1.87386118298
-1.75603087837
-1.65214632987
-1.56058173728
-1.48022684921
-2.63525071097
-2.48401279944
-2.30627379277
-2.12832693162
-1.97255491082
-1.83600384234
-1.7160611589
-1.61026622142
-1.51688482014
-1.4345750284
-2.57359957794
-2.41971831646
-2.2412427928
-2.06112168889
-1.90540342084
-1.76818060498
-1.64763174565
-1.54128188974
-1.44721317467
-1.36387569886
-0.788306666785
-0.763441021416
-0.742480722002
-0.728113158257
-0.719382616607
-0.714598362251
-0.712686145507
-0.712934406091
-0.714818510838
-0.717808691191
-0.822383621096
-0.795000722539
-0.771015483932
-0.753499744623
-0.741861568663
-0.734454539603
-0.730180071725
-0.728307618763
-0.728285485927
-0.729473602075
-0.882694186804
-0.851503917168
-0.82287812227
-0.80053721861
-0.784446703694
-0.77304701181
-0.765190067647
-0.760108782966
-0.757213978952
-0.75566990801
-0.967463961014
-0.931361864847
-0.896606152485
-0.867885121216
-0.845917182909
-0.829273192722
-0.81673213532
-0.807478442874
-0.800868081579
-0.795798933474
-1.07434080892
-1.03238569049
-0.990150812824
-0.953648848284
-0.924519617934
-0.901518406179
-0.88333171783
-0.869084730742
-0.858066757967
-0.848845826656
-1.20033801786
-1.15171861921
-1.1008070201
-1.05528523308
-1.01786740834
-0.987532986468
-0.962879873931
-0.942955349176
-0.926972277772
-0.913128114671
-1.3418402337
-1.28583101277
-1.22519543102
-1.16956142365
-1.12286284102
-1.08434324817
-1.05250627325
-1.02631384284
-1.00490131857
-0.986049484922
-1.494703206
-1.43063376592
-1.35935762542
-1.29263112871
-1.23574574982
-1.18823903023
-1.14852732198
-1.1154936839
-1.08820076629
-1.06397746689
-1.65448637412
-1.58173246384
-1.49902707527
-1.42030968007
-1.35234765296
-1.29500188181
-1.24663078467
-1.20607226451
-1.1722683264
-1.1421839241
-1.81676002876
-1.73473831068
-1.63997055269
-1.5484475642
-1.46848012911
-1.4002166567
-1.34193451584
-1.29239762341
-1.25026430736
-1.21325538042
-0.759711107423
-0.843976611795
-0.886274600355
-0.922877853087
-0.954806443272
-0.983555162653
-1.01074540568
-1.03720429289
-1.06339811068
-1.08948796528
-0.759961862698
-0.839334725257
-0.882233354249
-0.91968781317
-0.952483044281
-0.981949852652
-1.00967671437
-1.03653441696
-1.06303451932
-1.08938004643
-0.766990364243
-0.835834841889
-0.878641406674
-0.916542224749
-0.950023201948
-0.980167534739
-1.00844281817
-1.03573573458
-1.06259061651
-1.08924534918
-0.781375864199
-0.833648122006
-0.875475744628
-0.913454165967
-0.947445687014
-0.978219776587
-1.00705260531
-1.03481447352
-1.0620694811
-1.08908433461
-0.803745009183
-0.833155772238
-0.872739392321
-0.910442577036
-0.944773885589
-0.976122564321
-1.0055162049
-1.03377704517
-1.06147477749
-1.08889772309
-0.834397738935
-0.835082320813
-0.870519233224
-0.907539600811
-0.942033699626
-0.973892628476
-1.00384569852
-1.03263147588
-1.06081061232
-1.08868626067
-0.8728633804
-0.840481328507
-0.869059259201
-0.904806767167
-0.939261706723
-0.971553913559
-1.00205460151
-1.03138641965
-1.06008143159
-1.08845058756
-0.918368328527
-0.85008856052
-0.868696441397
-0.902326014529
-0.936494171848
-0.969126582126
-1.00015752346
-1.03005144188
-1.0592925199
-1.08819174005
-0.971033219651
-0.864202497981
-0.869930734953
-0.900258131542
-0.933777229201
-0.966630227459
-0.998163802267
-1.02863310924
-1.05844736382
-1.08791341778
-1.02719622827
-0.881184610957
-0.872298576397
-0.89846832185
-0.931071556836
-0.964052831566
-0.996071734615
-1.02713058598
-1.05754447851
-1.08760492081
-1.04559380007
-0.88553609221
-0.871505164952
-0.896235685864
-0.928692724554
-0.962005398782
-0.994494713336
-1.0260377835
-1.05687722776
-1.08732509798
-1.04717601463
-0.899148271716
-0.8807987369
-0.900918563152
-0.930677333222
-0.962716725998
-0.994676814127
-1.02604439262
-1.05683566746
-1.0872881543
-1.03272419911
-0.906743654643
-0.887922671471
-0.90520515639
-0.932849421027
-0.963688529397
-0.995064360372
-1.02618520779
-1.05687219184
-1.08728045245
-1.01413172541
-0.911786655273
-0.89426456001
-0.90949041831
-0.935269819743
-0.964915256583
-0.995645633212
-1.02645411463
-1.05698303395
-1.08729921795
-0.993954558924
-0.914654790042
-0.899794122228
-0.91365413564
-0.937831297593
-0.966331508429
-0.996385324874
-1.02683343033
-1.05715971177
-1.0873417568
-0.975299083593
-0.916317020976
-0.904686776902
-0.917647877641
-0.94044758054
-0.967872754867
-0.997245161649
-1.02730235103
-1.05739214407
-1.08740534349
-0.960312356951
-0.91765123426
-0.909131874432
-0.9214535947
-0.94305191614
-0.969481209273
-0.998186941719
-1.02783892496
-1.05767035379
-1.08748742402
-0.950272086577
-0.91948643279
-0.913382801094
-0.925102621269
-0.945610146518
-0.971115327052
-0.999182295466
-1.02842661279
-1.05798663157
-1.08758609511
-0.946538281847
-0.922883396112
-0.918001939961
-0.928880521007
-0.948279644467
-0.972871592651
-1.00029469174
-1.02910907395
-1.05837622172
-1.08772280372
-0.94606363928
-0.923328286097
-0.91925530363
-0.929974131507
-0.949057013593
-0.973370750095
-1.00059704949
-1.02928634206
-1.0584708828
-1.08775211323
-1.22200864785
-1.291634392
-1.33991459434
-1.36776517627
-1.37681505737
-1.3692181139
-1.34721606216
-1.31373869182
-1.27093350803
-1.22577885301
-1.06892159789
-1.13771350663
-1.18929360232
-1.22445189408
-1.2443251703
-1.25077225857
-1.24518581115
-1.23181915882
-1.20964666156
-1.18967466167
-0.951914749208
-1.01790748857
-1.06997639658
-1.10853070254
-1.13430644932
-1.14887225273
-1.15307451896
-1.15087911853
-1.1400268866
-1.13144763609
-0.861644689981
-0.925581820234
-0.977548131588
-1.01783163886
-1.04699444482
-1.06633734024
-1.0766085191
-1.08099440149
-1.07815108912
-1.07674195986
-0.792620950551
-0.854796189362
-0.906428869492
-0.947684101182
-0.979003947597
-1.00144719897
-1.01582813961
-1.02451856943
-1.02718285344
-1.03018493702
-0.740138261353
-0.801028466844
-0.852392218319
-0.894285704751
-0.927068121074
-0.951594287802
-0.968741939619
-0.980246403967
-0.986534832868
-0.992351041217
-0.701127838286
-0.761253555678
-0.812577722813
-0.855058729024
-0.888981349554
-0.915032978724
-0.934106117998
-0.947498942716
-0.956168416633
-0.963848077206
-0.67355308465
-0.733461857809
-0.785109234254
-0.828352350042
-0.863379348938
-0.890726073163
-0.911238752591
-0.92589701456
-0.936008751714
-0.944692006475
-0.656169852907
-0.716639372503
-0.769291147793
-0.813827763607
-0.850362038494
-0.879256850482
-0.901257673096
-0.917000723672
-0.927917757389
-0.936211351416
-0.646243911571
-0.709483019391
-0.764933447195
-0.81240526599
-0.85189601991
-0.883597709751
-0.908144231831
-0.925642481705
-0.937875785609
-0.944508434695
0.3624790303
0.317211213894
0.268032180306
0.216118343327
0.158937983507
0.0942012813604
0.0199593743067
-0.0647673330533
-0.153760353536
-0.233066805513
0.159828764221
0.108541194186
0.0537607425811
-0.00620802092739
-0.0735809310632
-0.150097557435
-0.237632659805
-0.33694845181
-0.440666979821
-0.533670476888
-0.0578650601014
-0.112596287613
-0.172250435542
-0.239119967378
-0.315002399773
-0.401570104598
-0.500852860453
-0.613447456221
-0.730799704302
-0.836982475228
-0.270119986147
-0.329751480797
-0.395719742928
-0.470158099392
-0.55471762975
-0.651220086313
-0.761906998044
-0.887303891345
-1.01762625493
-1.13644014861
-0.472935329659
-0.538294473644
-0.61095848501
-0.692996888604
-0.786093041787
-0.892240324406
-1.01390077798
-1.15154678401
-1.29400914005
-1.42457260831
-0.664947622255
-0.735697225206
-0.814554137405
-0.903561559961
-1.00445715433
-1.11942472375
-1.25119510941
-1.40007278008
-1.55314646987
-1.69426521008
-0.843557798808
-0.918868629546
-1.0030198328
-1.09799118492
-1.20553369727
-1.32798666516
-1.46859400785
-1.62901952187
-1.787674302
-1.93998921755
-1.00557418472
-1.08449824233
-1.17291652588
-1.2726804244
-1.38550188046
-1.51366037451
-1.66102415689
-1.82934846136
-1.99964051468
-2.15424795811
-1.1479633652
-1.22964478937
-1.32128818991
-1.4247067059
-1.54169308075
-1.6744766806
-1.82484718556
-2.0064824345
-2.17068130461
-2.33338981409
-1.27058188763
-1.35297950963
-1.44565943993
-1.55086340605
-1.67063622736
-1.80714457248
-1.95747556338
-2.13969866869
-2.31700889558
-2.47204809995
1.64114272925
1.66099519306
1.68588280188
1.7133351775
1.74079119905
1.76739026501
1.79264314184
1.81593548251
1.83706736419
1.85243402261
1.58492461805
1.60291820422
1.62551382275
1.65036787645
1.6749622157
1.69845080639
1.72025548342
1.73974741237
1.75689455442
1.76896271473
1.50794994684
1.5232122326
1.54234672752
1.56326221629
1.58358556046
1.602351182
1.61895699755
1.63268207256
1.6437629321
1.65116782116
1.41086839234
1.42261642328
1.43722416865
1.45297937864
1.46766387486
1.48022390061
1.48995093345
1.49605370401
1.49910535053
1.50085341083
1.29474685685
1.30227258952
1.31139596789
1.32088179412
1.32866820173
1.33367770299
1.33504218974
1.3318737108
1.32527295066
1.31951166224
1.16124009571
1.16388840827
1.16665621331
1.16883521663
1.16864943505
1.16485300838
1.15648334558
1.14256848529
1.12488529783
1.10972132667
1.01224917319
1.00959224386
1.0053145022
0.999351656021
0.990181735817
0.976503990285
0.9571739133
0.931201373256
0.901124130458
0.874984939123
0.850565390889
0.842233123306
0.830295492258
0.815335503302
0.796252040488
0.77164698767
0.74025245761
0.701074304884
0.657470586689
0.61912615343
0.681580083276
0.667477220501
0.646895192116
0.621661901375
0.591373547106
0.554605940418
0.509883188813
0.45630472952
0.39815919324
0.34665396159
0.512102094479
0.487980027534
0.455978257865
0.419084383036
0.376723022777
0.327032207135
0.268292540632
0.199650884305
0.126381648152
0.0611386547814
1.80006893768
0.830144836358
1.56381998653
1.39617772657
1.36606659701
1.36192156963
1.37117171463
1.3994762776
1.47033426545
1.57136006131
1.79219515473
0.821088256888
1.55724111242
1.38806438536
1.35686915302
1.35102411145
1.35747698847
1.3815615108
1.44367168063
1.53278514704
1.78548636581
0.810937165678
1.55209458616
1.37956448738
1.34682955022
1.33886199917
1.34167332059
1.36023818614
1.40937451701
1.48198384511
1.77984065348
0.799786064138
1.54840554628
1.37064457914
1.33595955112
1.32544862403
1.32382061219
1.33540226723
1.36777630965
1.41852537657
1.775103412
0.787849040709
1.54622849932
1.36126298162
1.32430803714
1.31084681536
1.30398447623
1.30699692461
1.31917715869
1.34201196408
1.77116799933
0.775326918326
1.54554961165
1.35130401788
1.31188726024
1.2951083432
1.28219806606
1.27489254162
1.26328899657
1.25304637812
1.76788172044
0.762514383758
1.54636847653
1.34063268965
1.29875718366
1.27829563592
1.25848028149
1.23895636871
1.20046205434
1.15159234477
1.7651448704
0.749719364673
1.54856142513
1.32911066857
1.28498701857
1.26043976604
1.2328125721
1.19927230597
1.13285918004
1.03634014967
1.76277906966
0.737303637494
1.55197989902
1.31654530726
1.27073657661
1.24164150384
1.20529689884
1.15609867503
1.06107777958
0.905913926357
1.76053829699
0.725751443583
1.5563879167
1.30283905433
1.25621020981
1.22206441235
1.17635792747
1.11101131037
0.988433367057
0.768982219001
1.75854515203
0.714500602302
1.55222831737
1.29114670225
1.23893560648
1.19652538669
1.13725301155
1.05041051556
0.894250423473
0.613585193174
1.76004169159
0.705480658727
1.53946541729
1.28312701236
1.22181070565
1.17013132233
1.09788247468
0.99320242462
0.814017010265
0.523794797379
1.76261532913
0.699028816384
1.52832042523
1.27528583461
1.2063047988
1.14606869874
1.06271116664
0.944157103684
0.750096991587
0.464288578138
1.76693920967
0.694982236907
1.51905498099
1.26801372879
1.19251618744
1.1247102174
1.03207552731
0.902844565056
0.700084208754
0.421901527336
1.77410712153
0.693231665851
1.5117599182
1.26161015243
1.18061301006
1.10634724633
1.006208007
0.869006235317
0.661972886175
0.391343653715
1.78440531288
0.69361451594
1.50639519805
1.25631693501
1.17073130853
1.0911817609
0.985200413708
0.842251192818
0.633919093346
0.369922573362
1.80048281499
0.696019914955
1.50274595702
1.25228608817
1.16298217186
1.07930825956
0.968989140253
0.822147341844
0.614256563968
0.355963030758
1.81966860753
0.699931293604
1.50057425044
1.24957907719
1.15745689293
1.0707871862
0.957508382372
0.80826226763
0.60171206906
0.348394730232
1.84143466611
0.706442232186
1.49924398574
1.24816194696
1.15423215103
1.0656934653
0.950784203848
0.800478407713
0.595857191622
0.347772890489
1.88892223384
0.712657351701
1.50033505767
1.24623204729
1.15208898034
1.06238948445
0.946406514341
0.795286320234
0.59167033785
0.34615458902
0.335705786505
0.158312415112
-0.0404734112989
-0.232052719392
-0.41295802226
-0.584354623585
-0.744726111218
-0.89134776611
-1.02124223605
-1.12969783049
0.250355502113
0.111827136653
-0.0453131819124
-0.20266708145
-0.354286641253
-0.50009374647
-0.63840356249
-0.766565029268
-0.881893121787
-0.982841356082
0.201456297173
0.086265302493
-0.0450088563305
-0.180327763753
-0.312148451787
-0.439415423974
-0.560969066329
-0.674861048642
-0.779145431134
-0.872167160036
0.171623258903
0.0707634431465
-0.041984288477
-0.159981979341
-0.276658239408
-0.390353233788
-0.49991293638
-0.603583395347
-0.699518275185
-0.786024368527
0.154975497902
0.0636989907987
-0.0363935073912
-0.142116761877
-0.247963759274
-0.351892451856
-0.452706087192
-0.548814098871
-0.638512285924
-0.72024184289
0.146794022591
0.0621000167041
-0.0293504393318
-0.126435947282
-0.22452012899
-0.321438083763
-0.41598320372
-0.506659783146
-0.591865945512
-0.670123576879
0.144188657069
0.0640686170364
-0.0215185996702
-0.11270640161
-0.205421101667
-0.297476351275
-0.387678562264
-0.474607238371
-0.556739059346
-0.632652038564
0.145517770736
0.0685360483914
-0.013191680833
-0.100597382335
-0.189883616331
-0.278838044619
-0.366301253656
-0.450912271753
-0.531210555814
-0.605816805904
0.152199768302
0.0773927459158
-0.00226421771466
-0.0879516388177
-0.175738881609
-0.263404858029
-0.349815445333
-0.433660134978
-0.513515637772
-0.588051993879
0.162047095706
0.0906052986736
0.0122355419492
-0.0729370070998
-0.160357003961
-0.247948993802
-0.334673339618
-0.419236519163
-0.500233562128
-0.57631587414
-3.79719903063
-3.59174572328
-3.35852400883
-3.13704335751
-2.95568657933
-2.80725367554
-2.68700241806
-2.59100187952
-2.51635830731
-2.46139315656
-3.88965386058
-3.69011257633
-3.4572016725
-3.23762230398
-3.05560451522
-2.90691642423
-2.78641776289
-2.69011591212
-2.61509242243
-2.56024807413
-3.86869628961
-3.67679563221
-3.44975998858
-3.23434691314
-3.05416157768
-2.90661492756
-2.78647797043
-2.68988745575
-2.61391423448
-2.55696325031
-3.74943581729
-3.56738050302
-3.35054261639
-3.14311879869
-2.96767414948
-2.82304414767
-2.70438824122
-2.60796131586
-2.53101049342
-2.47164544517
-3.55421322556
-3.38461570863
-3.1815656744
-2.98576850665
-2.81823047124
-2.6789352581
-2.56350893432
-2.46851059193
-2.39138772006
-2.3307659768
-3.30789669142
-3.15282067622
-2.96653869476
-2.7857352634
-2.62939449725
-2.4982467244
-2.38851666115
-2.29715804632
-2.22183702856
-2.16220355347
-3.03346128105
-2.89400264567
-2.72665223375
-2.56354138062
-2.42133797794
-2.30114251135
-2.19981000323
-2.11474721847
-2.04377825746
-1.98780108614
-2.74935671771
-2.62573067963
-2.47838356766
-2.33457991903
-2.20864304341
-2.10164907981
-2.01094934204
-1.93439229858
-1.8701186784
-1.81984811992
-2.4690330915
-2.36073195278
-2.23338741286
-2.10946187938
-2.00092013068
-1.90858931683
-1.83014673582
-1.76375890048
-1.70777232011
-1.66558468135
-2.2013089821
-2.10739712169
-1.9991775151
-1.8946451499
-1.80351022451
-1.7261447677
-1.66033885693
-1.60427188662
-1.55557459402
-1.51688381108
-1.95121294421
-1.87099116156
-1.78042118712
-1.69423802611
-1.62009482767
-1.55804294841
-1.50636297673
-1.46389616933
-1.4291397829
-1.39877442254
-1.72171344414
-1.65372269701
-1.57885666735
-1.5090146681
-1.44992102028
-1.40118788411
-1.36119343911
-1.32881197084
-1.30297230065
-1.27975677575
-1.51439126083
-1.45693728612
-1.39565595448
-1.33985138701
-1.29354789157
-1.2559483582
-1.2254886391
-1.20108925275
-1.18181018111
-1.16445050961
-1.33047434506
-1.28202945073
-1.23227368456
-1.18834513999
-1.1528285879
-1.12460230085
-1.10220292834
-1.08463324472
-1.07104286796
-1.0589623783
-1.17125806154
-1.13040770835
-1.09024044943
-1.05618328145
-1.02963339245
-1.00922505805
-0.993603524265
-0.98185783675
-0.973227689066
-0.965858985824
-1.03798966655
-1.00339035806
-0.970957161366
-0.944866406767
-0.925549710618
-0.911475988648
-0.901392793834
-0.894459085147
-0.889994237175
-0.886626276614
-0.931749706921
-0.902053414049
-0.875536536855
-0.855529558089
-0.841742530894
-0.83253298168
-0.826732106298
-0.823555742116
-0.822388539315
-0.822227436573
-0.853363527151
-0.827151288211
-0.804739606307
-0.788940262765
-0.778970122106
-0.773137151545
-0.770325978069
-0.769793664892
-0.770976094565
-0.773134567279
-0.803285593539
-0.779090815328
-0.75898397561
-0.745509277844
-0.737636353086
-0.733663858028
-0.732504976371
-0.733441968626
-0.735937797442
-0.739422512674
-0.781695698746
-0.757895037964
-0.738232734899
-0.725251081836
-0.71780660113
-0.714190920209
-0.713333942666
-0.714533057766
-0.717265998734
-0.721028401577
-1.18446919386
-1.00373413512
-0.963295622958
-0.960860120625
-0.971321141285
-0.989329508609
-1.01153550843
-1.03612617294
-1.06219899127
-1.08901396933
-1.09650329528
-0.967771947222
-0.94875887809
-0.95483676211
-0.969679491221
-0.989465647656
-1.0122531322
-1.03688619759
-1.06273051594
-1.08919310106
-1.01999487523
-0.939356709775
-0.937651040451
-0.950640075041
-0.968359478235
-0.989511241962
-1.01280998982
-1.03750359045
-1.06316922916
-1.08934231206
-0.956266236306
-0.916963597324
-0.928479107064
-0.94664917668
-0.967024116461
-0.989407475977
-1.01319243097
-1.0379752201
-1.06351503157
-1.08946156256
-0.90306892045
-0.899125017211
-0.920577389391
-0.942946926264
-0.965640446203
-0.989137497379
-1.01339502039
-1.03830009996
-1.0637685417
-1.08955130299
-0.859249908772
-0.885162123234
-0.913552878874
-0.939423442442
-0.964169252344
-0.988690268867
-1.01341436678
-1.03847822353
-1.0639302919
-1.08961194834
-0.824411450986
-0.873839426855
-0.907147823762
-0.936006414538
-0.962584375178
-0.988053574065
-1.01324832277
-1.03850983456
-1.06400104223
-1.08964366556
-0.797789813026
-0.864581452975
-0.901229443714
-0.932660926604
-0.960865122411
-0.987223574392
-1.01289661242
-1.03839615035
-1.06398183052
-1.08964683536
-0.778406688154
-0.856545986915
-0.895770956682
-0.929362824673
-0.959000328704
-0.98619628645
-1.01236019186
-1.0381387505
-1.06387384303
-1.08962172612
-0.765878173773
-0.849708494955
-0.890784112161
-0.926103461776
-0.956980379413
-0.984971654805
-1.01164171313
-1.03774038087
-1.06367853115
-1.08956874099
-1.37242147166
-1.10329921563
-1.01352499375
-0.983897840609
-0.981418941769
-0.993292333485
-1.01269929072
-1.03617716861
-1.06194813774
-1.08884799618
-1.34512888397
-1.09192080754
-1.00838326032
-0.981679470249
-0.980509081907
-0.992945479768
-1.01260785098
-1.03618692583
-1.06198149591
-1.08886553032
-1.31378802312
-1.07393424506
-0.999305625909
-0.977570825327
-0.978750751909
-0.992287461206
-1.01242142774
-1.03618379362
-1.06203074444
-1.08889680637
-1.2795667685
-1.0530713226
-0.988229848414
-0.972340295038
-0.976595458707
-0.99128295905
-1.01202675883
-1.03605851406
-1.06201011204
-1.08890269457
-1.23878431395
-1.02848813066
-0.975004804175
-0.965979732934
-0.973428341587
-0.989938205434
-1.01144428311
-1.0358244734
-1.0619288037
-1.08888716999
-2.39483132141
-2.49076374591
-2.50157451565
-2.44210492559
-2.33442240647
-2.20332245841
-2.06557942589
-1.93315297863
-1.8021472807
-1.68038932656
-2.39883476206
-2.4976026175
-2.50623347463
-2.4402425146
-2.32241863983
-2.17648778034
-2.01803823884
-1.86478751026
-1.71813914917
-1.6020382568
-2.40489090213
-2.50396982728
-2.50793898244
-2.4337699273
-2.30520123597
-2.14844454756
-1.98368149578
-1.83027511194
-1.69014513263
-1.58151473585
-2.41579918797
-2.51394013016
-2.51262328844
-2.43107047901
-2.29507956686
-2.13227986201
-1.96447291519
-1.80789567202
-1.66715476072
-1.55581784198
-2.43249561539
-2.53093488469
-2.52551641102
-2.43783415975
-2.29581460767
-2.12774348754
-1.95568188629
-1.79270573919
-1.64451691262
-1.5128936717
1.04929919416
1.02869821518
1.00116039077
0.970234340645
0.935407499258
0.894789936429
0.846799237433
0.790473832172
0.730227235255
0.678130962945
1.19211861382
1.1843267824
1.17109985434
1.15469255842
1.13472076957
1.10980266269
1.07867610667
1.04036691968
0.99827323316
0.962236637711
1.32252213584
1.3214042093
1.31819909921
1.31359396224
1.306307559
1.29501843374
1.27861875503
1.25616387423
1.23005245635
1.20794563112
1.43620030627
1.44100434794
1.4459071206
1.45070619362
1.45366340428
1.45352650367
1.44933841447
1.44019045102
1.42763933216
1.41711198656
1.52949916492
1.53942101454
1.55109126563
1.56363423569
1.57501765918
1.5840814308
1.59000283628
1.5919318021
1.59077331255
1.58944689364
1.60178662898
1.61590139562
1.63309772221
1.65188734415
1.67003222669
1.68645812591
1.70050167125
1.71141228738
1.71956988855
1.72494508406
1.65275514001
1.67006992547
1.69143099041
1.71493719774
1.73818244843
1.76019546493
1.78038338858
1.79807149643
1.81335159578
1.82391418577
1.68216793403
1.70164103775
1.72584612425
1.7525749886
1.77930342878
1.80510758481
1.82947163203
1.85176667377
1.87185526141
1.88630957982
1.68987701339
1.71053078931
1.73626778752
1.76472050035
1.7933387777
1.82119397446
1.84779597864
1.87253480036
1.89518684152
1.91177707366
1.67618616831
1.6969574071
1.72294575927
1.75162183612
1.78037240316
1.80839605408
1.83524181602
1.86032205621
1.88331989255
1.90026027005
-2.2513842588
-2.30880534792
-2.38444810435
-2.48083944324
-2.60078811416
-2.74768655793
-2.92330338046
-3.15089690317
-3.3787791948
-3.58822926786
-1.93404910333
-1.99624801156
-2.07554529861
-2.17425017876
-2.29478371587
-2.44041830759
-2.61731075712
-2.83058748908
-3.05407670895
-3.27418911684
-1.52881555507
-1.60017952867
-1.68661123483
-1.79002180935
-1.91275983039
-2.05820348445
-2.23079330416
-2.43212410231
-2.64689682599
-2.86212150147
-1.07892243697
-1.16122414807
-1.25516931084
-1.3627200121
-1.48625182986
-1.62888713139
-1.79449938107
-1.98465093769
-2.18825560088
-2.38505257233
-0.636633537749
-0.724548173872
-0.821122140883
-0.928267281613
-1.04829631842
-1.18408701843
-1.33922350024
-1.51558209663
-1.70288471842
-1.87924244809
-0.235152026503
-0.320509406594
-0.412723484197
-0.513500291613
-0.624913513547
-0.749481882383
-0.890392641911
-1.04943758489
-1.21703366247
-1.37165364149
0.115813998456
0.0390612733837
-0.0433164382735
-0.132943440556
-0.231654155275
-0.341551418052
-0.465329748015
-0.604538110171
-0.75046050437
-0.882856684988
0.421904178484
0.355686454854
0.285314821173
0.209048730195
0.124951433906
0.0312791332909
-0.0741596445497
-0.192650270724
-0.316448098089
-0.427005027484
0.694095794708
0.636532669866
0.576129042967
0.512211965175
0.442255117902
0.364495951389
0.277128093888
0.179003805739
0.0767368423407
-0.0131019508602
0.921216930543
0.872916702223
0.821042237453
0.7688669484
0.713521604478
0.652432572342
0.583710349494
0.506106912872
0.424992020726
0.354662865298
1.94180773072
0.86586970885
1.69667739322
1.43143587302
1.40396350032
1.40160954563
1.40085808933
1.39815617272
1.35457605716
1.26060064333
1.9228746636
0.864690437625
1.67967766983
1.43471014157
1.40430413071
1.40238616371
1.40444237733
1.41082925825
1.38701306017
1.35469986548
1.90488414725
0.863592408242
1.66288665082
1.43582613514
1.40406942709
1.40246096855
1.40782776263
1.42240195336
1.41929872104
1.437668377
1.88790757258
0.86228670828
1.64664596599
1.43501904947
1.40300914766
1.40163410041
1.40964732892
1.43115586609
1.44798438158
1.50191850316
1.87196243656
0.860507633338
1.63125285236
1.43253590382
1.40095268279
1.39974219573
1.40979507757
1.43653038647
1.47203853209
1.5501277573
1.85707454856
0.858022047897
1.61690321594
1.42867687102
1.39779695136
1.39667785089
1.40822172889
1.43867413099
1.48937283927
1.58510364912
1.84330369797
0.854669380206
1.6037120896
1.42366430001
1.39352977199
1.39236748678
1.40482380807
1.43751076058
1.50006029219
1.60706775494
1.83068643659
0.850278633279
1.59177886829
1.41774933206
1.38817637868
1.386749671
1.39949878501
1.4330011352
1.50389420954
1.61626181063
1.81927483612
0.844766340259
1.58111996602
1.41110112194
1.38176513192
1.37980507946
1.39216468602
1.42516163165
1.50036949693
1.61272400703
1.80908311987
0.838045947127
1.57179623428
1.40387932246
1.37437878726
1.37151920355
1.38273311233
1.41399080236
1.48924830256
1.59798433608
2.09695314271
0.893184047121
1.71413458978
1.43997586255
1.40543415719
1.39523031256
1.37868723458
1.34837159034
1.24213572798
1.08114924794
2.04602571027
0.887077670081
1.71134096075
1.43980935291
1.40528861639
1.39586300173
1.38036711326
1.35169687142
1.24845249071
1.08351473367
2.01654312633
0.880985134785
1.71155172453
1.43803899113
1.40510195427
1.39689299252
1.38329296242
1.35763186887
1.26098533093
1.08994037819
1.98843272878
0.874906044728
1.70980351742
1.43508111606
1.40465156637
1.39821158984
1.38766616833
1.36688705658
1.2816864028
1.11305977155
1.96275312192
0.869101471645
1.70713261841
1.43107994344
1.40401402503
1.39969901931
1.39315475602
1.37928063985
1.31020777029
1.15535886829
0.797136759159
0.661556097333
0.444563328621
0.143988871651
-0.228713861277
-0.666339664366
-1.13519965506
-1.57613074364
-1.9388066647
-2.21122824335
0.779389105553
0.635529682828
0.420952679221
0.131377353163
-0.223129126579
-0.640337551782
-1.09750738343
-1.54056169077
-1.9176958236
-2.20508810799
0.792192294538
0.635523391369
0.414009634581
0.12839927789
-0.215648324396
-0.619911097349
-1.06886044567
-1.5164481135
-1.90635892054
-2.20523760739
0.834054046558
0.656981886387
0.422055955914
0.135181574905
-0.205800728289
-0.605327071063
-1.05155430094
-1.50395002898
-1.90389361462
-2.21173369943
0.906258207454
0.698275123899
0.440156631746
0.145224970301
-0.1975845012
-0.59602448262
-1.04110898145
-1.49673401492
-1.90517718871
-2.22257164027
)
;

boundaryField
{
    left
    {
        type            zeroGradient;
    }
    right
    {
        type            fixedValue;
        value           uniform 0;
    }
    down
    {
        type            zeroGradient;
    }
    up
    {
        type            zeroGradient;
    }
    cylinder
    {
        type            zeroGradient;
    }
    defaultFaces
    {
        type            empty;
    }
}


// ************************************************************************* //
