/*--------------------------------*- C++ -*----------------------------------*\
  =========                 |
  \\      /  F ield         | OpenFOAM: The Open Source CFD Toolbox
   \\    /   O peration     | Website:  https://openfoam.org
    \\  /    A nd           | Version:  13
     \\/     M anipulation  |
\*---------------------------------------------------------------------------*/
FoamFile
{
    format      ascii;
    class       volScalarField;
    location    "0.785";
    object      p;
}
// * * * * * * * * * * * * * * * * * * * * * * * * * * * * * * * * * * * * * //

dimensions      [0 2 -2 0 0 0 0];

internalField   nonuniform List<scalar> 
440
(
7.82649
10.5829
12.9454
13.1271
10.151
20.7168
24.1001
27.0955
27.796
25.9079
41.2534
44.2847
46.9878
47.7804
46.6194
67.3863
69.4841
71.3975
72.0541
71.3666
96.6625
97.4795
98.2765
98.6766
98.643
-0.451689
-0.551496
-0.0797604
0.481494
0.824451
-1.67769
-2.34423
-2.08474
-1.38937
-0.7517
-2.02211
-2.90468
-2.82846
-2.0753
-0.958503
-0.680543
-0.813561
-0.409744
0.552625
2.41644
3.0833
4.39462
5.82344
7.25411
9.50308
2.08597
2.26654
1.33593
0.679665
0.236356
1.05919
2.08006
1.21738
0.620959
0.229584
-0.0932999
1.6698
1.08734
0.575418
0.222186
-0.404334
1.06532
0.878165
0.541317
0.211798
1.50218
0.475208
0.59417
0.486171
0.191486
4.37241
0.246545
0.33959
0.416497
0.150717
6.718
0.709906
0.441634
0.411189
0.0874634
9.98235
2.44785
1.08715
0.542421
0.0538831
13.871
4.74731
2.13282
0.822057
0.0626411
16.6069
7.10876
3.45333
1.30867
0.165593
100.687
75.8384
53.3227
33.1477
12.3447
102.382
78.941
57.536
39.056
23.4821
104.283
82.7006
62.4737
45.2335
32.8868
105.166
85.0196
66.5014
51.1822
40.6557
105.085
84.7422
66.3273
51.2497
40.8952
219.867
216.385
216.09
218.205
220.938
202.687
200.22
200.479
203.219
206.511
180.539
178.766
179.129
181.552
184.43
154.74
153.397
153.602
155.196
157.092
126.859
126.146
126.085
126.545
127.138
235.592
236.024
236.666
237.096
236.843
236.155
236.794
237.353
237.334
236.382
234.936
235.912
236.328
236.055
235.069
230.048
231.646
232.208
232.343
232.251
221.565
223.428
224.437
225.644
226.999
235.714
234.728
234.894
234.14
234.276
235.68
234.711
234.841
234.093
234.797
235.668
234.67
234.777
234.202
235.308
235.67
234.604
234.767
234.453
234.894
235.675
234.517
234.836
234.652
232.208
235.69
234.371
234.884
234.426
228.723
235.886
234.23
234.772
233.929
226.353
236.793
234.001
234.145
232.246
223.332
240.841
233.979
232.967
229.789
219.66
249.812
234.706
231.745
227.245
216.91
217.76
196.233
175.026
151.731
126.445
207.364
191.368
172.323
150.419
126.65
198.875
186.195
168.613
148.086
126.332
191.743
180.783
165.098
146.26
125.918
191.525
180.763
165.353
146.659
126.149
96.3938
95.517
95.0693
94.3024
94.1458
57.3119
55.365
53.6596
51.7378
50.9718
29.4811
27.1378
24.375
22.0759
20.7514
15.029
12.6124
10.1468
8.12656
7.156
9.19937
7.3116
5.92472
4.94934
4.36216
5.96912
4.86708
4.28738
4.19877
4.28706
4.06058
3.60122
3.52927
3.68509
3.83878
2.75169
2.73829
2.97236
3.27613
3.43463
1.651
1.95568
2.40771
2.75867
2.90351
0.605895
1.0024
1.57538
1.97786
2.15234
3.60838
3.17582
2.06292
0.954725
0.271948
3.66201
3.0042
1.97068
0.898725
0.261101
3.46258
2.74193
1.8416
0.847387
0.253079
3.14218
2.49798
1.67865
0.795644
0.247514
2.72695
2.3518
1.49578
0.739505
0.242235
4.47591
3.15876
1.97625
0.999416
0.307768
3.73936
3.25375
2.06516
0.991433
0.286396
94.9013
54.1419
27.504
14.4802
9.45992
93.6801
51.1325
22.9806
9.46456
5.25415
232.143
232.224
232.173
231.657
230.579
232.73
232.904
233.133
233.171
232.795
233.293
233.466
233.853
234.251
234.421
233.895
234.047
234.451
235.055
235.475
234.643
234.88
235.385
236.001
236.262
141.978
141.786
140.958
140.448
139.537
185.213
184.404
182.425
180.659
178.682
215.513
214.143
211.793
208.979
206.605
229.15
228.143
226.092
223.594
221.149
231.998
231.384
230.412
229.029
227.129
238.818
234.443
234.528
233.512
232.896
237.115
234.485
234.617
233.68
232.913
236.347
234.575
234.721
233.903
233.244
235.974
234.657
234.825
234.107
233.625
235.794
234.711
234.892
234.192
233.943
252.26
235.783
234.884
233.448
231.98
243.166
234.689
234.466
233.392
232.699
226.935
221.861
208.753
182.036
141.228
231.133
226.89
213.307
185.06
142.451
)
;

boundaryField
{
    left
    {
        type            zeroGradient;
    }
    right
    {
        type            fixedValue;
        value           uniform 0;
    }
    down
    {
        type            zeroGradient;
    }
    up
    {
        type            zeroGradient;
    }
    cylinder
    {
        type            zeroGradient;
    }
    defaultFaces
    {
        type            empty;
    }
}


// ************************************************************************* //
