/*--------------------------------*- C++ -*----------------------------------*\
  =========                 |
  \\      /  F ield         | OpenFOAM: The Open Source CFD Toolbox
   \\    /   O peration     | Website:  https://openfoam.org
    \\  /    A nd           | Version:  13
     \\/     M anipulation  |
\*---------------------------------------------------------------------------*/
FoamFile
{
    format      ascii;
    class       volScalarField;
    location    "0.785";
    object      strainRateViscosityModel:nu;
}
// * * * * * * * * * * * * * * * * * * * * * * * * * * * * * * * * * * * * * //

dimensions      [0 2 -1 0 0 0 0];

internalField   nonuniform List<scalar> 
440
(
9.41954
8.96973
8.54452
8.04239
7.5862
9.68995
9.35817
8.98177
8.48004
7.87556
9.80074
9.53084
9.15877
8.58509
7.84825
9.84962
9.61817
9.25861
8.64755
7.86606
9.86917
9.65606
9.30591
8.68094
7.90878
1.30755
1.7908
2.05011
2.3002
2.36428
3.38618
3.30226
3.31634
3.42447
3.49517
5.89252
5.27141
4.92766
4.72747
4.75712
7.76959
6.99346
6.42031
5.90466
5.82703
8.82065
8.15137
7.5521
6.91819
6.87152
1.85146
0.846331
0.422183
0.161348
0.165358
2.61575
0.907997
0.368101
0.130501
0.0527637
3.51184
1.14712
0.303718
0.0921944
0.0154376
4.09125
1.43474
0.276772
0.0520213
0.0579798
4.60398
1.75206
0.322626
0.0115584
0.169428
4.22937
1.74008
0.304096
0.0700513
0.28191
3.7116
1.82464
0.630848
0.310498
0.415981
4.9198
3.20841
1.24134
0.556623
0.532545
7.00946
4.28833
1.91741
0.899428
0.654488
8.27284
5.07632
2.49629
1.30418
0.830999
2.84822
3.68255
4.61966
5.50553
6.14878
3.68375
3.69665
3.77226
3.85225
3.3679
8.22649
8.08653
7.7993
7.38543
6.34644
9.0529
8.99236
8.85903
8.62149
8.16015
9.60671
9.56995
9.48702
9.33805
9.1188
7.50322
8.01244
8.55945
9.01088
9.46417
7.794
8.45166
8.98715
9.37788
9.70864
7.779
8.55906
9.15943
9.54077
9.80944
7.81628
8.62755
9.25739
9.62275
9.85359
7.89134
8.67366
9.30535
9.65743
9.87034
2.53314
2.47416
2.27425
2.1199
2.04887
3.48021
3.43226
3.47288
3.69297
4.24628
4.63592
4.65917
5.04959
5.5993
6.45164
5.68353
5.82564
6.4973
7.18782
8.04113
6.75313
6.8416
7.58031
8.24269
8.93536
0.210267
0.0610226
0.282689
0.870891
2.02711
0.181934
0.0766021
0.227885
0.888975
2.66054
0.162465
0.0796059
0.170898
1.08134
3.44045
0.15073
0.0632347
0.156539
1.38626
3.94184
0.153785
0.068844
0.24933
1.73467
4.36432
0.20342
0.106834
0.271876
1.86916
4.10063
0.335563
0.124757
0.276908
1.81361
3.86173
0.666271
0.244245
0.774213
3.03735
4.90826
2.27487
0.814984
1.509
4.16238
6.96072
5.05725
2.53762
2.41979
5.03779
8.27914
5.94695
5.26599
4.40228
3.51036
2.77979
3.52239
3.99118
3.97101
3.87637
3.76365
6.32104
7.35232
7.77901
8.06768
8.21847
8.12121
8.59993
8.84944
8.98862
9.05203
9.11694
9.33781
9.48741
9.57051
9.60696
9.31088
7.91688
1.39867
3.63023
7.73683
9.08187
7.44083
3.206
1.64077
6.78908
8.39872
6.57774
4.20853
1.00359
4.14773
6.81571
5.09479
3.45532
1.7007
1.03873
4.50389
3.14533
2.03881
1.37797
0.460041
2.59735
1.61865
1.00251
0.797071
0.926669
1.45642
0.779196
0.580005
0.613291
0.685967
0.801329
0.406335
0.591288
0.760066
0.83333
0.305442
0.508609
0.886025
1.05177
1.11316
0.162918
0.935502
1.28158
1.51791
1.57242
0.190485
0.362826
0.710111
0.777076
0.730178
0.395967
0.501527
0.579212
0.636378
0.620332
0.614997
0.648575
0.465315
0.49285
0.506694
0.967133
0.79733
0.418323
0.353702
0.390414
1.33155
0.847363
0.424203
0.236699
0.273475
1.10574
0.85849
1.12339
1.10811
0.996264
0.283698
0.472049
0.865874
0.920006
0.844085
9.19119
8.83868
7.75885
5.73028
3.55976
8.58732
7.72294
5.85163
3.49151
0.866003
0.964594
0.85828
1.02682
1.62021
2.65826
0.813176
0.767188
0.703718
0.824504
1.52665
1.05948
1.01073
0.847496
0.552958
0.744659
1.38447
1.34745
1.14955
0.797927
0.228627
1.85645
1.80977
1.55765
1.23968
0.598326
7.73636
3.62717
1.39995
7.91512
9.31103
6.78526
1.64057
3.20265
7.43774
9.08251
4.13434
1.01086
4.19439
6.57315
8.4003
1.03682
1.70539
3.43371
5.08568
6.82221
0.476055
1.37626
2.01481
3.12769
4.52675
1.31211
0.541781
0.550731
0.452958
0.175845
0.678163
0.291054
0.468396
0.519423
0.485626
0.400121
0.15359
0.381491
0.621198
0.8041
0.290634
0.0694494
0.341426
0.773734
1.22378
0.246212
0.0454684
0.319842
0.858901
1.58884
5.48132
2.4605
1.03492
0.960128
1.14175
2.88784
1.08762
0.724212
0.554989
0.252204
3.56823
5.73582
7.76003
8.83921
9.19133
0.843638
3.4722
5.84504
7.72157
8.58716
)
;

boundaryField
{
    left
    {
        type            calculated;
        value           nonuniform List<scalar> 
17
(
0.457998
1.1233
2.18606
3.91007
6.58048
0.304558
0.18877
0.138081
0.143444
0.213832
2.95938
2.06204
1.33951
0.820746
0.499878
6.97883
4.57977
)
;
    }
    right
    {
        type            calculated;
        value           nonuniform List<scalar> 
17
(
0.996556
0.84554
0.732317
0.623264
0.509144
0.389857
0.266994
0.151901
0.0420168
0.0138907
0.0713291
0.218509
0.34558
0.470618
0.566612
0.667711
0.82293
)
;
    }
    down
    {
        type            calculated;
        value           nonuniform List<scalar> 
20
(
5.9952
2.99976
1.14446
1.04267
1.85307
4.27033
6.38391
8.13148
9.01583
9.30928
9.30911
9.01518
8.12999
6.37986
4.26416
1.83172
0.933062
1.18982
1.16502
1.04342
)
;
    }
    up
    {
        type            calculated;
        value           nonuniform List<scalar> 
20
(
8.54862
5.40433
2.72576
1.45414
0.89715
9.69562
9.66615
9.59857
9.47421
9.2934
9.2964
9.47647
9.60018
9.66726
9.69603
5.70518
3.14846
2.65983
5.39359
8.56554
)
;
    }
    cylinder
    {
        type            calculated;
        value           nonuniform List<scalar> 
40
(
1.3739
3.59115
6.11883
7.96033
8.95705
9.50512
9.74576
9.84079
9.88145
9.89745
9.54743
9.76283
9.84855
9.88495
9.89848
2.28732
4.52399
6.69856
8.23415
9.06985
3.04372
1.85049
1.09442
0.446593
0.605552
9.51906
9.33191
8.74235
7.26981
4.98625
9.51889
9.33116
8.74029
7.26157
4.95768
2.96595
1.73349
1.07396
0.667598
0.103309
)
;
    }
    defaultFaces
    {
        type            empty;
    }
}


// ************************************************************************* //
