/*--------------------------------*- C++ -*----------------------------------*\
  =========                 |
  \\      /  F ield         | OpenFOAM: The Open Source CFD Toolbox
   \\    /   O peration     | Website:  https://openfoam.org
    \\  /    A nd           | Version:  13
     \\/     M anipulation  |
\*---------------------------------------------------------------------------*/
FoamFile
{
    format      ascii;
    class       volScalarField;
    location    "0.2";
    object      p;
}
// * * * * * * * * * * * * * * * * * * * * * * * * * * * * * * * * * * * * * //

dimensions      [0 2 -2 0 0 0 0];

internalField   nonuniform List<scalar> 
440
(
8.12477
10.8812
13.2422
13.4205
10.4449
21.0153
24.399
27.3944
28.0942
26.2062
41.5505
44.5822
47.2855
48.0781
46.9173
67.6841
69.7822
71.6958
72.3523
71.6647
96.963
97.78
98.5769
98.9769
98.9431
-0.0221012
-0.144116
0.298687
0.840808
1.17626
-1.28815
-1.97642
-1.74495
-1.07383
-0.448008
-1.69934
-2.58808
-2.52375
-1.78486
-0.675872
-0.379754
-0.511061
-0.10695
0.851991
2.71318
3.38407
4.69669
6.12622
7.55519
9.80389
2.42894
2.6621
1.74101
0.971571
0.326697
1.35283
2.42647
1.62203
0.9105
0.311868
0.178362
1.9899
1.48049
0.859331
0.300987
-0.111447
1.3981
1.27925
0.81487
0.294692
1.83148
0.833557
1.00855
0.770622
0.292898
4.75212
0.615122
0.704241
0.721593
0.295818
7.04181
0.95573
0.726309
0.743138
0.288079
10.2915
2.70541
1.39424
0.879303
0.261711
14.2091
5.10645
2.47998
1.1144
0.247112
16.9634
7.51943
3.78152
1.48546
0.305167
100.987
76.1366
53.6212
33.4489
12.6544
102.683
79.2377
57.8296
39.3474
23.7769
104.583
82.9996
62.7702
45.526
33.1784
105.466
85.3204
66.8041
51.4881
40.967
105.384
85.0421
66.6288
51.5556
41.2104
220.18
216.722
216.443
218.568
221.304
202.989
200.535
200.801
203.545
206.838
180.843
179.076
179.442
181.865
184.744
155.045
153.704
153.909
155.503
157.4
127.162
126.449
126.389
126.849
127.442
235.693
236.103
236.705
237.085
236.799
236.402
237.02
237.55
237.5
236.529
235.313
236.287
236.704
236.432
235.434
230.443
232.056
232.64
232.793
232.701
221.923
223.804
224.838
226.063
227.422
236.379
235.008
235.163
234.199
234.411
236.344
234.997
235.142
234.203
235.047
236.336
234.968
235.121
234.368
235.664
236.356
234.921
235.143
234.639
235.273
236.392
234.86
235.222
234.837
232.552
236.445
234.775
235.282
234.625
228.975
236.593
234.665
235.182
234.249
226.651
237.37
234.435
234.514
232.531
223.628
241.257
234.421
233.314
229.969
219.896
250.184
235.134
232.157
227.389
217.115
218.041
196.518
175.32
152.032
126.746
207.671
191.677
172.63
150.726
126.954
199.192
186.509
168.919
148.387
126.632
192.015
181.064
165.388
146.555
126.217
191.789
181.044
165.644
146.956
126.448
96.6921
95.8151
95.3672
94.6004
94.444
57.6321
55.6844
53.9788
52.0577
51.292
29.8197
27.4753
24.7131
22.4157
21.0913
15.3803
12.9632
10.501
8.48464
7.51422
9.54619
7.66052
6.2822
5.3153
4.72719
6.29595
5.19877
4.63382
4.55808
4.65208
4.36058
3.9092
3.85209
4.02096
4.18187
3.05648
3.05579
3.29921
3.60868
3.77028
2.02695
2.32057
2.76637
3.11392
3.2602
1.03905
1.40996
1.95703
2.35058
2.52519
3.98297
3.5269
2.4054
1.26542
0.401285
4.01926
3.35991
2.31223
1.21499
0.389974
3.81362
3.11425
2.184
1.16861
0.378961
3.50647
2.90137
2.02801
1.1108
0.364016
3.09868
2.7736
1.87224
1.04007
0.344315
4.84697
3.50073
2.29923
1.25484
0.404935
4.127
3.60295
2.40565
1.28745
0.407773
95.2
54.4644
27.8459
14.8323
9.81484
93.979
51.4542
23.3192
9.81418
5.61094
232.353
232.437
232.399
231.901
230.832
232.96
233.137
233.377
233.43
233.068
233.507
233.677
234.061
234.46
234.635
234.043
234.193
234.586
235.165
235.565
234.725
234.957
235.441
236.009
236.232
142.253
142.062
141.234
140.723
139.812
185.467
184.658
182.68
180.913
178.935
215.746
214.376
212.028
209.215
206.84
229.364
228.356
226.31
223.817
221.373
232.207
231.59
230.627
229.256
227.361
239.199
234.798
234.874
233.737
233.104
237.57
234.838
234.958
233.911
233.141
236.887
234.919
235.053
234.121
233.451
236.581
234.978
235.131
234.26
233.772
236.447
235.004
235.163
234.267
234.042
252.569
236.111
235.255
233.7
232.192
243.494
235.041
234.817
233.619
232.896
227.157
222.083
208.984
182.287
141.502
231.351
227.114
213.541
185.311
142.725
)
;

boundaryField
{
    left
    {
        type            zeroGradient;
    }
    right
    {
        type            fixedValue;
        value           uniform 0;
    }
    down
    {
        type            zeroGradient;
    }
    up
    {
        type            zeroGradient;
    }
    cylinder
    {
        type            zeroGradient;
    }
    defaultFaces
    {
        type            empty;
    }
}


// ************************************************************************* //
