/*--------------------------------*- C++ -*----------------------------------*\
  =========                 |
  \\      /  F ield         | OpenFOAM: The Open Source CFD Toolbox
   \\    /   O peration     | Website:  https://openfoam.org
    \\  /    A nd           | Version:  13
     \\/     M anipulation  |
\*---------------------------------------------------------------------------*/
FoamFile
{
    format      ascii;
    class       volVectorField;
    location    "0.2";
    object      U;
}
// * * * * * * * * * * * * * * * * * * * * * * * * * * * * * * * * * * * * * //

dimensions      [0 1 -1 0 0 0 0];

internalField   nonuniform List<vector> 
440
(
(0.218258 -0.176691 -1.81146e-19)
(0.61308 -0.436652 1.07838e-18)
(0.984298 -0.640908 4.22246e-19)
(1.32755 -0.795415 1.2441e-18)
(1.63258 -0.916787 -2.60114e-19)
(0.304896 -0.177685 -5.44462e-19)
(0.819147 -0.428703 -1.01962e-18)
(1.28 -0.618907 1.14601e-19)
(1.69194 -0.76165 -1.21526e-18)
(2.05379 -0.875122 -1.02111e-18)
(0.384889 -0.152409 -6.98062e-19)
(1.00471 -0.363017 1.59009e-18)
(1.5398 -0.518387 -1.93461e-18)
(2.00478 -0.632633 1.37963e-18)
(2.40602 -0.721471 1.42971e-18)
(0.445886 -0.102749 5.62405e-19)
(1.14614 -0.243088 -1.29962e-18)
(1.73751 -0.344814 -7.50845e-19)
(2.24302 -0.41822 1.96642e-18)
(2.67456 -0.474459 2.5003e-18)
(0.479281 -0.0361598 6.86981e-19)
(1.22369 -0.0847563 1.69174e-19)
(1.84598 -0.119365 2.53143e-18)
(2.37412 -0.143867 -1.06228e-18)
(2.82306 -0.1625 -4.8391e-19)
(-0.0012322 -0.0517677 2.88606e-19)
(0.049278 -0.145168 -3.3952e-19)
(0.104802 -0.22388 1.06247e-18)
(0.169942 -0.294218 -1.73924e-19)
(0.237744 -0.356167 -1.59267e-18)
(0.013648 -0.0842732 -2.72155e-19)
(0.0892288 -0.227961 -4.7472e-19)
(0.173965 -0.35072 1.11602e-19)
(0.268186 -0.451062 6.16525e-20)
(0.364424 -0.531434 -4.10745e-20)
(0.0433406 -0.114224 6.41204e-20)
(0.165537 -0.303171 5.42386e-19)
(0.29628 -0.467574 9.29392e-20)
(0.433024 -0.599301 1.4385e-18)
(0.568135 -0.698047 -2.47242e-20)
(0.0866229 -0.140993 6.66045e-20)
(0.276416 -0.367854 -3.4954e-20)
(0.469567 -0.563138 2.18638e-19)
(0.661517 -0.718813 -2.0297e-18)
(0.844265 -0.830901 9.56136e-19)
(0.142123 -0.161722 -2.35773e-19)
(0.420088 -0.412869 -4.42491e-19)
(0.691418 -0.621543 -7.69611e-19)
(0.950181 -0.78258 9.5239e-19)
(1.18528 -0.893131 3.4534e-18)
(0.589048 -0.595356 -4.26938e-18)
(0.951065 -0.510846 1.23459e-18)
(1.25617 -0.208556 3.44002e-19)
(1.35841 -0.0706402 -6.7875e-19)
(1.39534 -0.0189222 -1.1205e-19)
(0.784715 -0.745193 4.96835e-18)
(1.03733 -0.613498 -3.48555e-19)
(1.28958 -0.261761 -1.52656e-19)
(1.37833 -0.0891058 4.09104e-19)
(1.40366 -0.0239123 2.01024e-19)
(1.0366 -0.879062 1.54722e-18)
(1.17421 -0.696257 4.0701e-18)
(1.32439 -0.311858 7.39444e-20)
(1.39718 -0.105318 4.60656e-19)
(1.41365 -0.0282567 -7.06343e-20)
(1.3307 -0.989717 1.25133e-18)
(1.35289 -0.757397 -4.1969e-19)
(1.37755 -0.35461 -7.46449e-19)
(1.4137 -0.117823 -2.93171e-19)
(1.42471 -0.0315574 1.90371e-20)
(1.63022 -1.04865 -1.88004e-20)
(1.54641 -0.799702 -1.62728e-18)
(1.44068 -0.394313 0)
(1.42496 -0.134373 2.75237e-19)
(1.43551 -0.0348482 3.93726e-20)
(2.15627 -1.11508 -1.5866e-18)
(1.82095 -0.793521 -4.87047e-19)
(1.55686 -0.401444 -7.92208e-21)
(1.45505 -0.139089 1.29528e-20)
(1.43803 -0.0336989 -9.30425e-20)
(2.63415 -0.889377 -1.61239e-18)
(1.90404 -0.587583 2.83754e-18)
(1.48226 -0.280368 4.80308e-21)
(1.3028 -0.100459 2.70836e-19)
(1.25575 -0.0243479 0)
(2.47991 -0.522506 -6.94284e-18)
(1.60736 -0.334871 -1.49752e-19)
(1.16381 -0.157932 2.05915e-18)
(0.974452 -0.0627073 -2.97261e-19)
(0.93161 -0.0151172 -4.99186e-20)
(1.76244 -0.220065 6.84091e-18)
(1.08827 -0.134738 1.33413e-18)
(0.756658 -0.062075 2.28012e-19)
(0.618602 -0.0270721 2.82594e-33)
(0.582394 -0.00679166 -1.29487e-19)
(0.682972 0.000104535 1.56237e-18)
(0.394869 0.02339 7.28288e-19)
(0.268894 0.0225776 -4.92938e-19)
(0.219249 0.00980472 1.67892e-19)
(0.2018 0.00319629 -4.19848e-20)
(3.58198 -0.168178 1.25613e-17)
(3.41728 -0.502924 -1.04419e-17)
(3.13677 -0.786968 7.10625e-18)
(2.78063 -0.996052 2.31981e-18)
(2.33304 -1.1017 -4.15413e-19)
(3.7847 -0.103612 1.03958e-17)
(3.71767 -0.324489 -6.64007e-19)
(3.57801 -0.551862 -4.27097e-18)
(3.37863 -0.785786 2.69154e-18)
(3.10072 -1.01978 -6.6271e-19)
(3.1149 -0.0605635 3.65425e-18)
(3.09872 -0.181744 -2.51843e-18)
(3.0597 -0.309766 5.01231e-18)
(2.99906 -0.444955 -1.52561e-19)
(2.92467 -0.593685 -4.78991e-18)
(2.19088 -0.0276217 2.78856e-18)
(2.18384 -0.083416 8.42957e-18)
(2.16459 -0.144109 -6.53203e-19)
(2.13399 -0.207444 -6.60555e-18)
(2.11294 -0.269644 1.94542e-18)
(0.879438 -0.00184201 5.21216e-18)
(0.876481 -0.00524293 -1.16408e-19)
(0.867333 -0.00957827 -4.26592e-20)
(0.850418 -0.0162766 -2.00836e-18)
(0.841008 -0.0229496 -3.60147e-18)
(1.6528 0.939459 2.2627e-18)
(1.34813 0.816415 -7.47147e-20)
(1.00334 0.658575 -3.22163e-20)
(0.627914 0.449516 -1.96531e-19)
(0.225277 0.182344 -1.34651e-19)
(2.07032 0.89228 -1.21625e-18)
(1.71058 0.777663 -1.19308e-18)
(1.29831 0.632605 7.34e-19)
(0.834078 0.438773 -4.84707e-19)
(0.312181 0.182118 -4.24629e-21)
(2.41855 0.735755 -5.91885e-19)
(2.01965 0.645331 5.25263e-19)
(1.55501 0.528774 2.43813e-18)
(1.01757 0.37022 8.08568e-19)
(0.391362 0.155297 5.26259e-19)
(2.68206 0.486675 1.28209e-20)
(2.25244 0.428282 -2.72386e-19)
(1.74748 0.35233 -6.46688e-19)
(1.15481 0.247656 2.0568e-18)
(0.450348 0.10415 -3.26873e-19)
(2.82556 0.173851 -1.17113e-18)
(2.37737 0.15264 -1.60656e-18)
(1.84948 0.125347 -7.28799e-19)
(1.22677 0.0878372 7.96344e-19)
(0.480882 0.0366887 -3.25843e-19)
(0.237905 0.414421 -2.09703e-18)
(0.168525 0.35105 -1.77159e-18)
(0.101832 0.274807 2.99903e-19)
(0.0449399 0.181814 -2.77591e-20)
(-0.00189804 0.0666528 3.45604e-20)
(0.370521 0.590382 -8.07323e-19)
(0.273703 0.506474 -6.36164e-19)
(0.178464 0.39641 -1.3396e-21)
(0.0923354 0.257425 -2.03788e-20)
(0.0165606 0.0956306 2.13501e-20)
(0.581825 0.749822 2.16215e-18)
(0.446287 0.64669 -1.60424e-19)
(0.307904 0.504979 -1.39852e-19)
(0.17425 0.32718 -2.14052e-19)
(0.0481452 0.123456 1.70019e-19)
(0.862046 0.872466 -1.30256e-18)
(0.679196 0.756574 1.99538e-18)
(0.485281 0.593005 3.31231e-19)
(0.288282 0.387815 9.90055e-20)
(0.0924209 0.14902 -1.17551e-19)
(1.20348 0.923965 -4.43597e-19)
(0.969037 0.811024 -4.59794e-19)
(0.708602 0.6447 3.64344e-19)
(0.433364 0.429055 3.61745e-19)
(0.148472 0.168552 1.9015e-21)
(0.882607 0.151422 -4.34117e-19)
(1.43241 0.14602 6.2134e-20)
(1.24225 0.205013 2.5724e-20)
(0.990268 0.500706 -3.3816e-19)
(0.591746 0.642527 -6.9697e-20)
(0.875951 0.0868498 1.88392e-19)
(1.43395 0.133264 2.57335e-19)
(1.26818 0.239752 6.60804e-20)
(1.04993 0.607282 -1.09736e-19)
(0.783074 0.797005 7.78022e-19)
(0.870708 0.0244707 -3.24583e-20)
(1.44882 0.11734 -1.99427e-20)
(1.28647 0.275715 -6.26929e-20)
(1.16594 0.693991 -5.15876e-19)
(1.03744 0.929835 2.04355e-19)
(0.868232 -0.0360139 -2.62932e-20)
(1.47038 0.0993507 -5.33499e-19)
(1.31987 0.310172 1.24013e-19)
(1.33012 0.75541 1.22734e-18)
(1.33451 1.03532 9.32054e-19)
(0.868525 -0.0931133 3.17325e-20)
(1.49477 0.0832168 1.04867e-19)
(1.36519 0.34649 -6.63437e-20)
(1.51362 0.797237 -4.02389e-19)
(1.6349 1.08764 -2.78262e-18)
(0.873808 -0.180307 2.74527e-19)
(1.51821 0.0523083 3.80516e-19)
(1.46224 0.345653 -8.69845e-21)
(1.7689 0.781214 2.82212e-18)
(2.1509 1.13994 -5.52274e-18)
(0.86299 -0.31382 -2.95127e-20)
(1.45651 -0.0127563 -5.86368e-19)
(1.46212 0.251667 9.6218e-21)
(1.85742 0.582919 -2.97668e-18)
(2.59653 0.899244 1.65835e-18)
(0.781139 -0.409624 5.25295e-18)
(1.15123 -0.078843 6.44299e-35)
(1.16225 0.137863 -2.1881e-18)
(1.58371 0.330909 2.73425e-18)
(2.45905 0.528458 5.03398e-18)
(0.631442 -0.289337 1.51207e-19)
(0.741147 -0.0678167 5.10158e-19)
(0.746262 0.0505535 2.60565e-19)
(1.07724 0.132272 6.28663e-19)
(1.75855 0.220308 -8.63259e-18)
(0.321428 -0.0433339 -4.29465e-18)
(0.299999 0.00360482 2.74156e-19)
(0.269938 -0.0115794 1.0734e-18)
(0.394004 -0.0239205 -7.80199e-19)
(0.685954 -0.000303207 -1.46243e-18)
(2.34795 1.12011 4.67744e-18)
(2.78693 1.01202 3.46235e-18)
(3.14073 0.803104 -5.6819e-18)
(3.41896 0.519457 -1.46098e-17)
(3.58245 0.185807 1.57604e-17)
(3.07968 1.01855 5.00535e-18)
(3.35478 0.795089 2.56572e-17)
(3.55756 0.56062 7.24589e-18)
(3.70153 0.331801 -3.08419e-17)
(3.77819 0.111108 -5.17409e-18)
(2.90654 0.591776 -7.236e-18)
(2.98639 0.448048 -3.38237e-18)
(3.05237 0.312172 -6.30615e-18)
(3.09533 0.181819 -6.88951e-18)
(3.11407 0.058495 6.52228e-18)
(2.10615 0.266112 5.40468e-18)
(2.12998 0.205973 -4.05306e-19)
(2.16244 0.143213 4.869e-18)
(2.18308 0.0822396 6.28801e-18)
(2.19077 0.0260463 -5.88714e-18)
(0.842308 0.0221273 -5.73357e-19)
(0.851766 0.0156941 3.5176e-18)
(0.868538 0.00915273 2.44195e-18)
(0.877449 0.00480351 -5.16832e-18)
(0.879825 0.00136628 -3.84217e-20)
(0.281862 0.0207521 5.51896e-19)
(0.656529 0.0404574 -7.43254e-19)
(0.972953 0.0440567 -8.1873e-19)
(0.944143 0.0274248 -1.5179e-18)
(0.6977 0.0163813 -6.63707e-19)
(0.245511 0.0554474 7.45264e-19)
(0.591131 0.10705 1.4416e-18)
(0.864505 0.125114 -6.96647e-19)
(0.939781 0.0969755 1.96003e-18)
(0.724027 0.0532207 -2.70096e-18)
(0.185565 0.0742469 4.95871e-19)
(0.47627 0.145863 -1.39983e-18)
(0.707615 0.184719 -9.13658e-19)
(0.857133 0.175356 -1.81111e-18)
(0.741446 0.101174 -2.86219e-18)
(0.123271 0.077463 -7.72876e-19)
(0.344671 0.160349 -1.37668e-18)
(0.534413 0.214845 4.39492e-18)
(0.67749 0.233208 -3.66193e-19)
(0.712953 0.179933 2.24609e-18)
(0.0752693 0.072376 -6.24349e-19)
(0.230646 0.160156 1.56242e-18)
(0.372147 0.224485 6.02446e-19)
(0.482478 0.257419 -1.29024e-18)
(0.560696 0.257927 -1.76631e-19)
(0.0451798 0.0638541 7.90741e-20)
(0.149977 0.148906 -1.20929e-18)
(0.24768 0.211898 -9.16907e-19)
(0.325009 0.233151 -1.22222e-19)
(0.370814 0.22261 -5.12416e-20)
(0.0263536 0.0557683 3.12256e-19)
(0.0952323 0.133951 5.64912e-19)
(0.161 0.182806 -2.31304e-19)
(0.213744 0.192167 2.62993e-19)
(0.25389 0.18147 1.74923e-19)
(0.0130145 0.0484033 2.4277e-19)
(0.0588728 0.108938 1.40689e-18)
(0.103862 0.116731 -1.27033e-18)
(0.143027 0.1024 -2.79659e-18)
(0.179609 0.0806236 4.15857e-19)
(0.00625418 0.0383989 -2.37643e-19)
(0.0423993 0.0448313 -1.78035e-18)
(0.0789901 0.0176101 3.19694e-18)
(0.118828 -0.0142856 1.32763e-18)
(0.159986 -0.0481785 -2.70449e-19)
(0.00896475 -0.000618944 2.00684e-19)
(0.040807 -0.0526387 -4.36173e-19)
(0.0803505 -0.0989675 8.83146e-20)
(0.128425 -0.147091 1.06739e-19)
(0.178489 -0.193503 5.00891e-22)
(0.341298 0.0675058 -9.19737e-20)
(0.623896 -0.0415974 -1.2057e-18)
(0.709592 -0.0168379 2.58815e-19)
(0.739482 -0.00319272 3.72853e-19)
(0.749331 -0.00103784 2.04881e-20)
(0.30749 -0.0408695 -9.71418e-20)
(0.760523 -0.113981 1.3892e-18)
(0.892922 -0.0289568 9.36909e-19)
(0.941401 -0.00621938 8.13244e-20)
(0.96113 -0.00175614 -5.65195e-20)
(0.321633 -0.155888 -8.01046e-19)
(0.839034 -0.196611 2.9232e-18)
(1.04882 -0.0513783 -1.90457e-19)
(1.12379 -0.0113466 -3.51492e-19)
(1.15079 -0.00269902 1.0084e-19)
(0.372314 -0.293596 1.07965e-18)
(0.87963 -0.294841 -2.3807e-18)
(1.15276 -0.0963058 -5.13381e-19)
(1.27157 -0.0265349 -3.82891e-20)
(1.31633 -0.00664061 -1.34884e-20)
(0.456751 -0.441307 5.09838e-19)
(0.908153 -0.400766 -5.51844e-19)
(1.21339 -0.152318 4.36671e-19)
(1.33597 -0.0495779 1.47019e-19)
(1.38523 -0.0131465 -4.15458e-20)
(0.183161 -0.0447566 9.53784e-19)
(0.147093 -0.00476559 0)
(0.164328 0.00155291 1.20323e-19)
(0.16807 0.000604753 3.56838e-20)
(0.167884 5.37193e-05 -8.73972e-20)
(0.402641 0.0694783 0)
(0.415609 -0.00078781 0)
(0.471442 -0.00560739 9.02182e-20)
(0.48503 -0.000606121 7.17024e-20)
(0.486572 -0.000296063 1.64849e-20)
(0.162626 -0.000820962 -3.68319e-19)
(0.186333 -0.00179192 3.10705e-18)
(0.213132 -0.00502017 -6.87e-19)
(0.229727 -0.0149848 -3.11606e-18)
(0.245609 -0.0169271 -7.96337e-19)
(0.43188 0.00443981 6.09727e-19)
(0.484398 0.0196875 4.11548e-18)
(0.536306 0.046656 -6.73358e-18)
(0.567606 0.0804903 2.20737e-18)
(0.598526 0.162185 3.78943e-18)
(0.370559 -0.219265 -3.43139e-19)
(0.323927 -0.230355 -8.59361e-20)
(0.248238 -0.21201 -2.9988e-19)
(0.150777 -0.150706 3.78307e-19)
(0.0458488 -0.0646418 1.14873e-19)
(0.258198 -0.165619 4.2315e-19)
(0.215273 -0.17802 1.43219e-18)
(0.162454 -0.174197 2.85303e-19)
(0.0968485 -0.134015 2.35062e-19)
(0.0266895 -0.057074 -1.54893e-20)
(0.193189 -0.0503435 -3.13064e-19)
(0.151437 -0.0729341 -9.9415e-20)
(0.108456 -0.0905702 1.64337e-18)
(0.0622984 -0.0937162 2.99692e-19)
(0.0128795 -0.0471552 -3.06e-19)
(0.175541 0.0895606 -6.43797e-19)
(0.130171 0.0559211 -7.12522e-19)
(0.0858599 0.0225819 1.29675e-18)
(0.0482055 -0.0071586 1.58916e-18)
(0.0112416 -0.0279685 2.0045e-19)
(0.183613 0.244034 1.22594e-19)
(0.130344 0.197876 -1.20277e-19)
(0.0790412 0.14825 2.47685e-19)
(0.0363096 0.0971815 5.92756e-19)
(-0.00302129 0.03556 8.18028e-20)
(0.697696 -0.0163366 1.53095e-18)
(0.944148 -0.0274019 -1.80057e-18)
(0.972761 -0.0441826 2.26932e-18)
(0.65654 -0.0405201 3.64197e-19)
(0.281896 -0.0207608 5.36459e-19)
(0.724018 -0.0531122 1.77137e-18)
(0.93964 -0.0969892 7.94605e-18)
(0.864301 -0.125218 1.03344e-18)
(0.591184 -0.10709 1.34905e-18)
(0.245607 -0.0554687 -4.78302e-19)
(0.741374 -0.100921 -1.22397e-18)
(0.856527 -0.175186 -2.29411e-18)
(0.707533 -0.184778 2.92355e-18)
(0.47634 -0.145934 -1.08552e-19)
(0.185689 -0.0742841 3.39666e-19)
(0.712468 -0.17974 2.72569e-20)
(0.676765 -0.233121 -7.67518e-18)
(0.534437 -0.21515 -5.98911e-18)
(0.344808 -0.160682 1.09066e-18)
(0.123455 -0.0775706 5.08121e-19)
(0.558378 -0.256343 4.76618e-19)
(0.481422 -0.256711 5.32189e-19)
(0.372197 -0.225095 -8.93537e-19)
(0.230907 -0.160998 -8.85745e-19)
(0.075615 -0.0726394 -5.13362e-21)
(0.723283 0.370873 1.15948e-18)
(0.908882 0.119928 -1.83726e-19)
(0.698855 0.0221193 2.67207e-19)
(0.653294 0.0399782 -7.49265e-19)
(0.366086 -0.058873 -1.01543e-19)
(0.820183 0.395196 -1.63424e-19)
(1.13084 0.145007 -5.25871e-19)
(0.891043 0.043296 7.89259e-19)
(0.809221 0.106766 1.63281e-18)
(0.344709 0.0587645 1.06149e-19)
(0.875538 0.363336 -1.99575e-18)
(1.33963 0.154685 -3.9185e-20)
(1.05153 0.0746292 1.99684e-19)
(0.903896 0.187785 1.45676e-18)
(0.364666 0.180577 -1.28846e-18)
(0.88975 0.29488 1.25629e-18)
(1.45794 0.154752 3.44333e-20)
(1.15266 0.11814 -1.56818e-19)
(0.948185 0.285441 -3.08441e-19)
(0.408371 0.325149 -5.04499e-19)
(0.888357 0.22026 1.4358e-19)
(1.44586 0.153068 -3.80113e-20)
(1.20472 0.164598 -4.48924e-20)
(0.967981 0.390577 3.52911e-20)
(0.474892 0.480315 1.3674e-18)
(0.274758 0.0483481 0)
(0.247023 -0.0100013 6.28548e-19)
(0.162304 -0.0155856 1.28852e-19)
(0.152932 0.00487133 -1.55668e-19)
(0.184722 0.0437152 -1.8084e-18)
(0.570718 0.265452 -1.01778e-17)
(0.621031 0.0728932 -2.4651e-18)
(0.460902 0.012634 5.38672e-19)
(0.43111 0.00201462 -6.71576e-19)
(0.410382 -0.067508 -6.649e-19)
(0.245767 0.0168674 -1.01155e-21)
(0.229828 0.0150674 1.92768e-18)
(0.21321 0.0050626 5.23442e-19)
(0.186383 0.00180162 3.23262e-19)
(0.162641 0.000824797 0)
(0.599444 -0.162012 -1.04682e-19)
(0.568178 -0.0801769 2.55606e-18)
(0.536416 -0.0464298 -1.34021e-19)
(0.484457 -0.0196345 -2.69431e-19)
(0.431904 -0.00441765 7.60129e-19)
)
;

boundaryField
{
    left
    {
        type            fixedValue;
        value           uniform (1 0 0);
    }
    right
    {
        type            zeroGradient;
    }
    down
    {
        type            noSlip;
    }
    up
    {
        type            noSlip;
    }
    cylinder
    {
        type            noSlip;
    }
    defaultFaces
    {
        type            empty;
    }
}


// ************************************************************************* //
