/*--------------------------------*- C++ -*----------------------------------*\
  =========                 |
  \\      /  F ield         | OpenFOAM: The Open Source CFD Toolbox
   \\    /   O peration     | Website:  https://openfoam.org
    \\  /    A nd           | Version:  13
     \\/     M anipulation  |
\*---------------------------------------------------------------------------*/
FoamFile
{
    format      ascii;
    class       surfaceScalarField;
    location    "9.315";
    object      phi;
}
// * * * * * * * * * * * * * * * * * * * * * * * * * * * * * * * * * * * * * //

dimensions      [0 3 -1 0 0 0 0];

internalField   nonuniform List<scalar> 
823
(
-0.00235296
0.0173006
-0.0149476
0.0169878
0.00881144
-0.0281522
0.0819887
-0.0384468
-0.026554
0.185304
-0.105189
0.0018737
-0.1396
-0.00526257
0.330167
0.0058824
0.0114182
0.057962
-0.0432682
0.158535
-0.13902
0.27664
-0.223294
-0.29741
0.434449
0.0253306
-0.0139124
0.11792
-0.135857
0.234752
-0.255852
0.344937
-0.333479
-0.376858
0.424385
0.0480503
-0.0619627
0.148392
-0.236199
0.231938
-0.339397
0.28014
-0.381681
-0.393001
0.296283
0.0608
-0.122763
0.131692
-0.307092
0.170093
-0.377798
0.184182
-0.395769
0.19259
-0.401409
-0.0139136
0.0417867
-0.0278731
-0.0428771
0.0816689
-0.0527054
-0.0738418
0.0898481
-0.0588833
-0.0997839
0.0866542
-0.0607121
0.081575
-0.117463
-0.063896
0.00538565
0.036401
0.0027415
0.084313
-0.0101712
0.102761
-0.0269062
0.103389
0.0967758
-0.042107
0.0161017
0.0202993
0.0403225
0.0600923
0.0598323
0.083251
0.0729159
0.0903056
0.0859481
0.0837435
0.0104794
0.00981991
0.0360856
0.034486
0.066807
0.0525296
0.101029
0.0560841
0.0563424
0.130634
-0.00512774
0.00120612
0.0271817
0.0851395
0.136219
0.1648
0.682611
-0.964874
0.617388
-1.22155
0.768959
0.543035
-1.70305
1.7774
0.395229
0.177652
-0.0298463
0.408757
-0.349288
0.191272
0.449232
0.540257
-1.57053
0.476827
-1.63962
0.34735
0.307129
0.453037
0.262968
0.270008
0.422101
-1.72966
0.321272
-1.53879
0.301754
0.326647
0.453159
0.358313
0.042329
0.408427
-1.77978
0.265856
-1.39622
0.301946
0.290557
0.412091
0.376841
-0.198292
0.411228
-1.81417
0.227543
-1.21253
0.23826
0.27984
0.248652
1.35069
-0.332589
-1.21639
1.22385
-1.68733
0.705087
-0.69377
0.543509
0.441418
-0.0110107
1.53357
-0.437333
-1.42882
1.07375
-1.22751
0.597886
-0.217906
0.740364
0.29894
-0.22712
1.36853
-0.442482
-1.36338
0.852002
-0.710982
0.64383
-0.00973442
0.94839
-0.00561882
-0.288119
1.1892
-0.31405
-1.31764
0.732139
-0.253916
0.708764
0.0136409
0.844747
-0.141602
-0.162082
0.56621
-0.88026
0.312294
0.325935
0.184333
1.11128
0.15147
-1.07016
1.19169
0.215873
1.30375
0.312323
1.33455
0.403646
0.448325
1.01418
0.092159
-0.954873
1.09005
0.140006
1.19261
0.209766
1.31062
0.285633
0.330122
0.960572
0.0457592
-0.914173
1.01997
0.0806103
1.10694
0.12279
1.22848
0.164102
0.195218
0.937264
0.00914215
-0.900647
0.994033
0.023842
1.07637
0.0404571
1.18728
0.053189
0.0648601
0.697912
-0.68877
0.721754
0.762211
0.8154
0.138387
0.300991
-0.247681
-0.191697
0.0928616
0.307352
-0.261827
0.052224
0.318391
-0.277753
0.0180119
0.309407
-0.275195
0.198533
-0.180521
0.100849
0.337694
-0.137552
0.064643
0.343558
0.032671
0.350363
0.00752455
0.334553
0.206057
0.0692126
0.373233
-0.104751
0.0367575
0.376014
0.00915548
0.377965
-0.00586112
0.34957
0.200196
-0.0109574
0.389819
-0.00562859
-0.0278371
0.392893
-0.0359528
0.386081
-0.0277039
0.341321
0.172492
-0.0893657
0.0777753
-0.0922419
-0.0839592
-0.0497296
0.196284
0.107358
-0.249762
-0.0538801
0.142436
0.111484
-0.0576355
0.0879795
0.116038
-0.0615822
0.0355702
0.115432
-0.0630222
0.0809012
-0.045331
0.195476
0.151137
-0.239255
0.148585
0.158374
0.0963931
0.168231
0.0409771
0.170848
0.121878
0.137625
0.195468
-0.181957
0.0969366
0.199063
0.0576929
0.207474
0.0208811
0.207659
0.142759
0.154145
0.228053
-0.18673
0.115115
0.238092
0.0710989
0.251491
0.0278112
0.250947
0.170571
0.0841948
-0.103823
0.0604605
0.034198
0.00995021
0.40612
0.0614213
-0.0715614
0.424139
0.0367827
-0.0548016
0.407636
0.207653
-0.191151
0.395858
0.205129
-0.193351
0.487231
-0.341135
0.403985
0.0534155
0.416451
0.0243167
0.39738
0.226724
0.385934
0.216576
0.633911
0.398024
0.0513711
0.409702
0.0126391
0.375912
0.260514
0.37263
0.219857
0.824584
0.395293
0.0520579
0.393739
0.0141926
0.366136
0.288118
0.357091
0.228902
0.994946
0.387155
0.0608824
0.381906
0.0194418
0.340472
0.329552
0.32489
0.244483
1.21601
0.622287
0.042616
0.642513
-0.000784336
0.696598
0.275466
0.806152
0.13493
1.03677
0.985394
0.63606
0.0105766
0.639241
-0.00396541
0.74031
0.174397
0.812047
0.0631924
0.822224
1.02659
0.638808
-0.0242108
0.654523
-0.0196807
0.753571
0.0753493
0.785533
0.0312305
0.594613
1.01314
0.633858
-0.0540482
0.656231
-0.0420544
0.722485
0.0090953
0.734724
0.0189917
0.303897
1.02544
0.549972
0.507918
0.517013
0.536005
0.839902
1.02496
-0.231265
1.01629
-0.128876
1.02523
-0.113694
1.02288
-0.00328082
0.0305009
0.975299
-0.179971
0.949645
-0.103222
0.926535
-0.0905844
0.934845
-0.0115905
0.0104727
0.943488
-0.110316
0.918333
-0.0780673
0.893024
-0.0652745
0.903209
-0.021776
-0.000491053
0.961438
-0.0463129
0.923479
-0.0401091
0.89332
-0.0351146
0.892053
-0.020509
-0.00908577
0.793589
0.75348
0.718365
0.697856
0.0477246
0.151107
-0.198832
0.0721852
0.32531
-0.349771
0.0730955
0.378528
-0.379438
0.0637228
0.38053
-0.371157
0.348331
0.0521584
-0.336767
0.0697885
0.0813185
0.140242
0.254857
0.174224
0.344546
0.178864
0.37589
0.36754
0.159654
0.0592901
0.0220284
0.170205
0.143942
0.261203
0.253548
0.323058
0.314035
0.361688
0.32891
0.0290674
-0.00703896
0.127084
0.0459252
0.24718
0.133452
0.362949
0.198266
0.266815
0.457821
0.00675978
-0.0137987
0.056514
-0.00382906
0.153233
0.0367331
0.268716
0.0827828
0.134314
0.401217
-0.00203902
-0.0117597
0.0109324
-0.0168005
0.0548154
-0.00714987
0.124176
0.0134217
0.049549
0.208942
0.000550411
-0.0123101
0.00462674
-0.0208768
0.0175804
-0.0201035
0.0430909
-0.0120888
0.00502588
0.0876141
0.0058133
-0.0181234
0.0095693
-0.0246328
0.0102217
-0.0207559
0.0103277
-0.0121948
0.000647758
0.0147058
-0.0173874
-0.000735974
-0.0485393
0.00651908
-0.083965
0.0146697
-0.119984
0.0238242
0.0350273
-0.154364
-0.0286091
-0.0747954
-0.119009
-0.155897
-0.184766
0.263414
0.84091
-0.895382
0.348889
0.156922
-0.242397
0.542963
-0.381868
0.187794
0.511848
0.0507182
-0.0196029
0.0833244
-0.0167907
0.1567
0.771825
0.203335
0.110286
0.527953
-0.706486
0.542698
0.035973
0.154942
-0.158415
0.944945
-0.000467961
-0.0476606
0.499329
-1.20628
0.527932
0.0073699
0.226336
-0.30809
1.09867
0.0195085
-0.375259
0.465412
-1.65219
0.483391
-0.0106097
0.292287
-0.050968
0.342731
0.467947
0.427491
0.040354
0.541388
-0.581742
-0.0674791
0.107833
0.0536185
-0.121098
0.127811
-0.0741929
-0.0523004
0.69461
-1.0486
0.560047
0.626743
0.532947
0.0872322
-0.0146193
-0.0726129
0.138384
-0.0511522
0.242046
-0.103662
0.399783
-0.157737
-0.181959
0.195512
-0.157973
0.304014
0.529263
0.829347
0.140854
-0.136931
0.167148
-0.171071
0.107096
-0.142333
0.176091
0.0686736
-0.149543
0.187966
0.0277591
-0.149662
0.190577
-0.10557
0.133329
0.179273
-0.0973709
-0.218833
0.135349
-0.0984097
0.0861672
-0.100362
0.0356579
-0.0991532
-0.0699123
0.189566
-0.048412
-0.238525
0.139056
-0.0478989
0.0868206
-0.0481266
0.0353896
-0.0477222
-0.0345226
0.200402
0.00301859
-0.251832
0.148234
0.00426854
0.0945683
0.0055392
0.0399023
0.00694373
0.0053797
0.20544
-0.256301
0.152073
0.0960298
0.0399513
0.0396228
-0.31637
-0.0600192
0.0153949
-0.346929
-0.00657656
-0.357466
-0.0155085
-0.340839
-0.21434
0.120562
-0.285605
-0.151327
0.0782873
-0.304654
0.0376808
-0.31686
0.0073752
-0.310533
-0.206965
0.138741
-0.246487
-0.177859
0.097878
-0.263792
0.0571977
-0.27618
0.0202216
-0.273557
-0.186743
0.15771
-0.212074
-0.192123
0.1154
-0.221482
0.0701531
-0.230933
0.0274757
-0.230879
-0.159268
0.154598
-0.199525
0.109208
0.0662409
0.0259385
0.389105
0.104113
-0.097238
0.388118
0.0997824
-0.098795
0.354491
0.160864
-0.127237
0.297935
0.0626561
-0.00610005
-0.193842
0.320706
0.397266
0.102827
0.403008
0.0940403
0.392139
0.171733
0.345836
0.108959
-0.0668395
0.40309
0.0957165
0.413522
0.0836078
0.406765
0.17849
0.370233
0.145492
0.0648683
0.407404
0.0842922
0.420812
0.0701993
0.415927
0.183375
0.389059
0.17236
0.202095
0.40871
0.424108
0.416332
0.395341
0.414871
0.09518
0.329396
0.0854751
0.23953
0.0898662
0.242314
-0.00278389
-0.176319
0.418632
0.507993
0.494673
0.457302
0.448418
0.592806
0.336572
0.0820601
0.262743
0.0738292
0.175616
0.0871269
0.102314
0.0733015
0.0297015
0.475341
0.357048
0.266316
0.18829
)
;

boundaryField
{
    left
    {
        type            calculated;
        value           nonuniform List<scalar> 
17
(
-0.60402
-0.60402
-0.60402
-0.60402
-0.60402
-0.39598
-0.39598
-0.39598
-0.39598
-0.39598
-0.39598
-0.39598
-0.39598
-0.39598
-0.39598
-0.510051
-0.510051
)
;
    }
    right
    {
        type            calculated;
        value           nonuniform List<scalar> 
17
(
0.180112
0.463856
0.445314
0.471081
0.456538
0.41744
0.37049
0.33576
0.30307
0.301631
0.343015
0.401699
0.803171
0.956473
1.00939
0.71871
0.0222513
)
;
    }
    down
    {
        type            calculated;
        value           uniform 0;
    }
    up
    {
        type            calculated;
        value           uniform 0;
    }
    cylinder
    {
        type            calculated;
        value           uniform 0;
    }
    defaultFaces
    {
        type            empty;
    }
}


// ************************************************************************* //
