/*--------------------------------*- C++ -*----------------------------------*\
  =========                 |
  \\      /  F ield         | OpenFOAM: The Open Source CFD Toolbox
   \\    /   O peration     | Website:  https://openfoam.org
    \\  /    A nd           | Version:  13
     \\/     M anipulation  |
\*---------------------------------------------------------------------------*/
FoamFile
{
    format      ascii;
    class       volVectorField;
    location    "0.905";
    object      U;
}
// * * * * * * * * * * * * * * * * * * * * * * * * * * * * * * * * * * * * * //

dimensions      [0 1 -1 0 0 0 0];

internalField   nonuniform List<vector> 
440
(
(0.218255 -0.17669 -1.81145e-19)
(0.613074 -0.436651 1.07863e-18)
(0.984294 -0.640903 4.23063e-19)
(1.32755 -0.795401 1.24335e-18)
(1.63259 -0.916785 -2.59964e-19)
(0.30489 -0.177681 -5.44454e-19)
(0.81913 -0.428696 -1.01955e-18)
(1.27997 -0.618898 1.14524e-19)
(1.6919 -0.76164 -1.21509e-18)
(2.05375 -0.875125 -1.02099e-18)
(0.384877 -0.152406 -6.98055e-19)
(1.00468 -0.363013 1.58977e-18)
(1.53975 -0.518384 -1.93457e-18)
(2.00471 -0.632634 1.37977e-18)
(2.40594 -0.721483 1.42953e-18)
(0.445865 -0.102745 5.62385e-19)
(1.14609 -0.243083 -1.29949e-18)
(1.73743 -0.344811 -7.50798e-19)
(2.24293 -0.418222 1.96645e-18)
(2.67445 -0.474467 2.50023e-18)
(0.479253 -0.0361581 6.86898e-19)
(1.22363 -0.0847541 1.69138e-19)
(1.84589 -0.119363 2.53128e-18)
(2.37401 -0.143865 -1.062e-18)
(2.82294 -0.162496 -4.83733e-19)
(-0.000941085 -0.0518897 2.72785e-19)
(0.0499605 -0.144885 -3.83797e-19)
(0.105865 -0.223134 1.11099e-18)
(0.171371 -0.293099 -1.77104e-19)
(0.239511 -0.354788 -1.60417e-18)
(0.0137149 -0.0844144 -2.63615e-19)
(0.0892476 -0.228123 -4.30423e-19)
(0.174018 -0.350666 1.10041e-19)
(0.268261 -0.450731 5.94617e-20)
(0.364494 -0.530941 -3.55677e-20)
(0.0433467 -0.114283 7.0371e-20)
(0.165445 -0.303263 5.3188e-19)
(0.296126 -0.467593 9.50865e-20)
(0.432805 -0.599171 1.4552e-18)
(0.567849 -0.697821 -2.49413e-20)
(0.0866153 -0.140987 6.69814e-20)
(0.276365 -0.367829 -3.55703e-20)
(0.469488 -0.56306 2.18498e-19)
(0.661409 -0.718636 -2.03264e-18)
(0.844129 -0.830628 9.56453e-19)
(0.142117 -0.161713 -2.35644e-19)
(0.420075 -0.412839 -4.42306e-19)
(0.691403 -0.621477 -7.69722e-19)
(0.950161 -0.782445 9.52569e-19)
(1.18524 -0.89291 3.45108e-18)
(0.592455 -0.592929 -4.02401e-18)
(0.962682 -0.518549 9.78199e-19)
(1.29648 -0.214722 3.65672e-19)
(1.50107 -0.0340608 -5.76186e-19)
(1.57615 0.00180947 -5.47336e-20)
(0.78511 -0.744393 4.83076e-18)
(1.04299 -0.625481 -3.07239e-19)
(1.31953 -0.288519 -1.44012e-19)
(1.54269 -0.0817827 3.8588e-19)
(1.68707 -0.0160117 1.22023e-19)
(1.03632 -0.87881 1.54781e-18)
(1.17746 -0.711532 4.05367e-18)
(1.34096 -0.360524 6.89383e-20)
(1.54755 -0.133696 3.62463e-19)
(1.73077 -0.0470177 -5.04606e-20)
(1.33058 -0.989188 1.21639e-18)
(1.35872 -0.772594 -4.22426e-19)
(1.38519 -0.422443 -7.69559e-19)
(1.53351 -0.179308 -2.92112e-19)
(1.65525 -0.0738675 1.18701e-19)
(1.62995 -1.0478 5.67398e-21)
(1.55532 -0.811978 -1.72369e-18)
(1.44855 -0.470719 0)
(1.49827 -0.231408 3.3535e-19)
(1.52244 -0.0865203 9.13156e-20)
(2.15642 -1.11559 -1.57983e-18)
(1.83406 -0.801049 -4.9019e-19)
(1.55961 -0.457484 -9.43539e-21)
(1.37825 -0.218192 7.95104e-20)
(1.33035 -0.0824637 -2.80421e-19)
(2.6325 -0.889981 -1.61183e-18)
(1.89901 -0.591204 2.98102e-18)
(1.43158 -0.320466 6.72579e-21)
(1.14923 -0.157316 2.19638e-19)
(1.06566 -0.0609517 0)
(2.47848 -0.522949 -6.92623e-18)
(1.60488 -0.339054 -1.48942e-19)
(1.14903 -0.179333 1.96535e-18)
(0.888492 -0.092873 -3.38148e-19)
(0.786165 -0.0380471 -2.74701e-20)
(1.76237 -0.220013 6.83495e-18)
(1.08848 -0.135712 1.24278e-18)
(0.752184 -0.0678729 2.23706e-19)
(0.570981 -0.036707 2.96048e-33)
(0.486503 -0.0165364 -7.20297e-20)
(0.683166 0.00017524 1.55184e-18)
(0.39518 0.0235664 7.12302e-19)
(0.267722 0.0240814 -5.17181e-19)
(0.205508 0.0153225 2.29561e-19)
(0.171656 0.00619597 -8.25364e-20)
(3.58188 -0.168162 1.25619e-17)
(3.41717 -0.502947 -1.04437e-17)
(3.13669 -0.787014 7.1086e-18)
(2.78063 -0.996131 2.32113e-18)
(2.33318 -1.10188 -4.14166e-19)
(3.78451 -0.10359 1.03945e-17)
(3.71744 -0.324465 -6.63888e-19)
(3.5777 -0.55183 -4.26982e-18)
(3.37825 -0.785775 2.68954e-18)
(3.10028 -1.01981 -6.62784e-19)
(3.11483 -0.0605697 3.65447e-18)
(3.09865 -0.181683 -2.51885e-18)
(3.0596 -0.309669 5.01277e-18)
(2.99889 -0.44487 -1.52978e-19)
(2.9243 -0.59365 -4.79036e-18)
(2.19087 -0.027624 2.78879e-18)
(2.18384 -0.0833664 8.43054e-18)
(2.16463 -0.143999 -6.53262e-19)
(2.13408 -0.207274 -6.60888e-18)
(2.11306 -0.269436 1.94586e-18)
(0.879441 -0.00184239 5.21228e-18)
(0.876492 -0.00523856 -1.16441e-19)
(0.867374 -0.0095671 -4.25736e-20)
(0.850513 -0.016253 -2.00946e-18)
(0.841162 -0.0229044 -3.60556e-18)
(1.65318 0.940154 2.27753e-18)
(1.34832 0.816736 -7.94158e-20)
(1.00337 0.658646 -3.57951e-20)
(0.627853 0.449462 -1.96227e-19)
(0.225214 0.182283 -1.33991e-19)
(2.07053 0.892537 -1.21882e-18)
(1.71069 0.777736 -1.20451e-18)
(1.29832 0.632576 7.31641e-19)
(0.834031 0.43871 -4.83992e-19)
(0.312132 0.182081 -4.0401e-21)
(2.4186 0.735862 -5.88899e-19)
(2.01967 0.645355 5.25243e-19)
(1.555 0.528757 2.4364e-18)
(1.01753 0.370192 8.08283e-19)
(0.391333 0.155283 5.26035e-19)
(2.68202 0.486724 1.57111e-20)
(2.25238 0.428294 -2.71545e-19)
(1.74743 0.352324 -6.46738e-19)
(1.15476 0.247645 2.05638e-18)
(0.450322 0.104144 -3.26825e-19)
(2.82546 0.173874 -1.1705e-18)
(2.37727 0.152648 -1.60648e-18)
(1.84939 0.125347 -7.28683e-19)
(1.22671 0.0878343 7.96266e-19)
(0.480854 0.0366867 -3.25825e-19)
(0.241515 0.417646 -2.15452e-18)
(0.171221 0.354083 -1.82687e-18)
(0.103621 0.277581 3.1827e-19)
(0.0458634 0.184047 -4.90017e-20)
(-0.0015866 0.0677461 3.42398e-20)
(0.371238 0.595505 -8.00096e-19)
(0.274278 0.510997 -6.76348e-19)
(0.178906 0.400168 1.4509e-20)
(0.0926648 0.260025 -2.6474e-20)
(0.0169196 0.0967163 2.69309e-20)
(0.581639 0.754646 2.18836e-18)
(0.446191 0.650583 -1.50571e-19)
(0.307948 0.507823 -1.45471e-19)
(0.174429 0.328921 -2.15607e-19)
(0.0484552 0.124091 1.66969e-19)
(0.862021 0.875579 -1.29413e-18)
(0.679133 0.75884 1.97265e-18)
(0.485262 0.594426 2.98857e-19)
(0.288336 0.388547 1.02737e-19)
(0.0925579 0.149217 -1.18486e-19)
(1.2037 0.925441 -4.40819e-19)
(0.969104 0.811969 -4.57578e-19)
(0.708576 0.645154 3.59313e-19)
(0.433308 0.429186 3.58846e-19)
(0.148454 0.168528 1.8953e-21)
(0.947667 0.169775 -4.81786e-19)
(1.49535 0.130681 4.94013e-20)
(1.34106 0.19641 1.87627e-20)
(1.01621 0.498521 -4.91234e-19)
(0.600022 0.646076 6.6145e-20)
(0.955376 0.0903364 1.7956e-19)
(1.51234 0.103341 3.12271e-19)
(1.37117 0.246719 2.77917e-19)
(1.06195 0.614964 -4.96954e-20)
(0.785023 0.804395 7.54061e-19)
(0.961727 0.0101686 6.14758e-20)
(1.53044 0.0784639 -2.15488e-20)
(1.37063 0.298571 -5.74493e-20)
(1.16468 0.714545 -4.05245e-19)
(1.03718 0.938992 9.29041e-20)
(0.964545 -0.0686247 -1.86514e-20)
(1.53407 0.0570303 -7.57751e-19)
(1.36934 0.351919 7.1594e-20)
(1.32548 0.782997 1.18032e-18)
(1.33494 1.04323 9.47449e-19)
(0.961634 -0.144664 -1.65637e-20)
(1.50316 0.0497772 2.24181e-19)
(1.38693 0.40318 -5.96852e-20)
(1.50949 0.824508 -3.70356e-19)
(1.63621 1.09278 -2.72653e-18)
(0.943671 -0.238457 2.56538e-19)
(1.44219 0.0180512 5.07497e-19)
(1.4621 0.396879 -4.00503e-20)
(1.76668 0.802376 3.12544e-18)
(2.15342 1.14381 -5.519e-18)
(0.888903 -0.345303 -2.51439e-20)
(1.30942 -0.030069 -6.45973e-19)
(1.39886 0.284338 6.90138e-21)
(1.84095 0.596284 -3.07191e-18)
(2.59418 0.900825 1.67029e-18)
(0.787989 -0.4115 5.54397e-18)
(1.07685 -0.0920345 6.96708e-35)
(1.13432 0.150648 -2.11628e-18)
(1.57576 0.340823 2.62602e-18)
(2.45648 0.529762 5.03199e-18)
(0.635109 -0.291792 1.51264e-19)
(0.712087 -0.0720035 5.26959e-19)
(0.731712 0.0519415 2.46868e-19)
(1.07517 0.135328 6.22486e-19)
(1.75836 0.220514 -8.64566e-18)
(0.322798 -0.0431076 -4.30812e-18)
(0.29357 0.00573366 2.85484e-19)
(0.264943 -0.0133781 1.11244e-18)
(0.393402 -0.0240324 -7.69911e-19)
(0.686212 -0.000475757 -1.46653e-18)
(2.34871 1.12133 4.69189e-18)
(2.78734 1.01262 3.4742e-18)
(3.1409 0.803418 -5.69306e-18)
(3.41899 0.519619 -1.46167e-17)
(3.58239 0.185886 1.5764e-17)
(3.07877 1.01887 5.00925e-18)
(3.35397 0.795235 2.56322e-17)
(3.55689 0.56067 7.24216e-18)
(3.70106 0.331823 -3.08275e-17)
(3.77791 0.111137 -5.17325e-18)
(2.90565 0.592025 -7.22769e-18)
(2.98594 0.448105 -3.38024e-18)
(3.05216 0.312105 -6.29654e-18)
(3.09523 0.181714 -6.88932e-18)
(3.114 0.0584204 6.52287e-18)
(2.10628 0.265883 5.41657e-18)
(2.13014 0.205727 -4.04558e-19)
(2.16255 0.143025 4.87143e-18)
(2.18313 0.0821245 6.28939e-18)
(2.19077 0.0259931 -5.88797e-18)
(0.842559 0.0220516 -5.74755e-19)
(0.85195 0.0156513 3.52134e-18)
(0.868644 0.00913009 2.44329e-18)
(0.877498 0.00479183 -5.1695e-18)
(0.87984 0.00136124 -3.84296e-20)
(0.281991 0.0207608 5.52155e-19)
(0.656794 0.0404741 -7.43632e-19)
(0.973298 0.0440746 -8.18472e-19)
(0.944467 0.0274365 -1.51804e-18)
(0.697972 0.016389 -6.63749e-19)
(0.245628 0.0554707 7.458e-19)
(0.591377 0.107095 1.44152e-18)
(0.864824 0.125164 -6.97422e-19)
(0.940093 0.0970161 1.96083e-18)
(0.724296 0.0532512 -2.70093e-18)
(0.185658 0.0742785 4.96274e-19)
(0.476476 0.145921 -1.39886e-18)
(0.707888 0.184792 -9.13944e-19)
(0.857442 0.175441 -1.8104e-18)
(0.741678 0.101248 -2.86253e-18)
(0.123328 0.0774874 -7.72696e-19)
(0.344821 0.160382 -1.37667e-18)
(0.53462 0.214914 4.39911e-18)
(0.677823 0.233347 -3.66694e-19)
(0.713157 0.180055 2.2547e-18)
(0.0752851 0.0723777 -6.23077e-19)
(0.230745 0.160129 1.56428e-18)
(0.372327 0.224559 6.11949e-19)
(0.482873 0.257797 -1.29564e-18)
(0.561373 0.258479 -1.74993e-19)
(0.0451558 0.0637851 8.38424e-20)
(0.149963 0.148787 -1.22162e-18)
(0.247764 0.212165 -9.44191e-19)
(0.325461 0.234097 -8.85201e-20)
(0.371253 0.223836 -5.0061e-20)
(0.0264685 0.0557176 3.12308e-19)
(0.0950847 0.134326 5.91341e-19)
(0.160899 0.184801 -2.10947e-19)
(0.213772 0.195382 2.60377e-19)
(0.253643 0.185303 1.71951e-19)
(0.0133339 0.0488585 2.49572e-19)
(0.0586755 0.111346 1.33173e-18)
(0.103803 0.121006 -1.24342e-18)
(0.142834 0.107156 -2.79042e-18)
(0.179093 0.0856895 4.08271e-19)
(0.00623472 0.0392872 -2.38565e-19)
(0.0427334 0.0485818 -1.81016e-18)
(0.0800122 0.0215431 3.21966e-18)
(0.12013 -0.0102735 1.31371e-18)
(0.161678 -0.0440829 -2.69236e-19)
(0.00988484 0.00132048 2.09416e-19)
(0.0421104 -0.0504939 -4.5163e-19)
(0.0822193 -0.0966625 9.00673e-20)
(0.130924 -0.144636 1.04789e-19)
(0.181643 -0.190879 -1.12358e-22)
(0.338782 0.0718525 -7.5364e-20)
(0.614013 -0.0424079 -1.23014e-18)
(0.704751 -0.0134736 2.54517e-19)
(0.715787 0.00746934 4.036e-19)
(0.696429 0.00445498 1.186e-20)
(0.303149 -0.0344969 -1.0021e-19)
(0.75074 -0.115141 1.48038e-18)
(0.889116 -0.0231113 9.19911e-19)
(0.915232 0.0115641 7.53093e-20)
(0.900305 0.00753642 -3.73395e-20)
(0.32021 -0.150119 -8.15804e-19)
(0.835697 -0.198622 3.1734e-18)
(1.05116 -0.042401 -1.81691e-19)
(1.10288 0.014391 -3.40907e-19)
(1.09369 0.0106024 6.80095e-20)
(0.376496 -0.289024 1.10409e-18)
(0.885251 -0.298455 -2.71382e-18)
(1.17428 -0.083296 -5.37226e-19)
(1.27056 0.0116043 -3.14083e-20)
(1.27364 0.0121822 1.12671e-20)
(0.463053 -0.437556 4.9715e-19)
(0.920389 -0.406154 -5.40809e-19)
(1.2529 -0.143894 4.82815e-19)
(1.40755 -0.00250306 1.14815e-19)
(1.4367 0.0100986 2.23333e-20)
(0.182984 -0.0449743 9.55194e-19)
(0.145058 -0.00519425 0)
(0.162833 0.000954913 1.16553e-19)
(0.162054 -0.000564003 -9.3592e-21)
(0.155145 -0.000899825 -7.06802e-20)
(0.399781 0.0699793 0)
(0.408897 -0.000521508 0)
(0.467406 -0.00416238 5.12723e-20)
(0.467932 0.00376475 -3.83092e-20)
(0.449567 0.00182868 4.97254e-20)
(0.162698 -0.000821318 -3.68484e-19)
(0.186417 -0.00179195 3.10779e-18)
(0.213228 -0.00502014 -6.86348e-19)
(0.229826 -0.0149882 -3.11715e-18)
(0.245721 -0.0170092 -7.97108e-19)
(0.43206 0.00444159 6.09955e-19)
(0.484592 0.0196971 4.11571e-18)
(0.53649 0.0466994 -6.73025e-18)
(0.567667 0.0806165 2.20941e-18)
(0.598367 0.162222 3.79734e-18)
(0.37077 -0.220751 -3.32738e-19)
(0.324404 -0.231725 -9.3335e-20)
(0.248414 -0.212729 -3.3319e-19)
(0.150774 -0.15075 3.89051e-19)
(0.0458719 -0.0645744 1.13996e-19)
(0.257469 -0.169981 4.23297e-19)
(0.215058 -0.182046 1.41444e-18)
(0.162385 -0.177327 2.57425e-19)
(0.0967089 -0.135186 2.36554e-19)
(0.0269236 -0.0572051 -1.89135e-20)
(0.193175 -0.0552267 -3.12446e-19)
(0.151615 -0.0777843 -1.05941e-19)
(0.108794 -0.0953408 1.63408e-18)
(0.0623162 -0.0975085 2.85161e-19)
(0.0132748 -0.0480878 -3.14564e-19)
(0.179014 0.0866634 -6.37642e-19)
(0.132904 0.0527912 -7.0634e-19)
(0.0879442 0.0190367 1.31187e-18)
(0.0495959 -0.0111052 1.60298e-18)
(0.0112331 -0.03007 1.9898e-19)
(0.189371 0.244317 1.24583e-19)
(0.134808 0.197995 -1.19886e-19)
(0.0822584 0.148151 2.49008e-19)
(0.0384357 0.097015 6.25904e-19)
(-0.0021951 0.0356285 9.35619e-20)
(0.697968 -0.0163445 1.53164e-18)
(0.944472 -0.0274143 -1.80087e-18)
(0.973107 -0.0442014 2.27012e-18)
(0.656806 -0.0405368 3.64668e-19)
(0.282025 -0.0207695 5.36709e-19)
(0.724285 -0.0531458 1.77275e-18)
(0.939949 -0.0970324 7.9469e-18)
(0.864623 -0.12527 1.03371e-18)
(0.59143 -0.107135 1.34956e-18)
(0.245724 -0.055492 -4.78535e-19)
(0.741586 -0.10101 -1.2212e-18)
(0.856841 -0.175284 -2.29681e-18)
(0.707813 -0.184857 2.9246e-18)
(0.476545 -0.145992 -1.08249e-19)
(0.185781 -0.0743147 3.39508e-19)
(0.712616 -0.179887 1.66318e-20)
(0.67714 -0.233313 -7.68714e-18)
(0.534661 -0.215251 -6.00064e-18)
(0.344961 -0.160716 1.09174e-18)
(0.123511 -0.0775913 5.08047e-19)
(0.559029 -0.257052 4.67108e-19)
(0.48189 -0.257284 5.33688e-19)
(0.372411 -0.2253 -9.00008e-19)
(0.231006 -0.160998 -8.88506e-19)
(0.0756332 -0.0726339 -5.14508e-21)
(0.728077 0.373158 1.17636e-18)
(0.879683 0.127877 -1.89406e-19)
(0.67639 0.0205919 2.50218e-19)
(0.643549 0.0351714 -7.46716e-19)
(0.362646 -0.062085 -1.00645e-19)
(0.828216 0.398176 -1.71024e-19)
(1.08611 0.158116 -5.87135e-19)
(0.868149 0.0394048 8.40108e-19)
(0.80369 0.097846 1.67115e-18)
(0.340354 0.053736 1.02916e-19)
(0.893503 0.372812 -2.27864e-18)
(1.26429 0.172317 -3.80233e-20)
(1.03989 0.0637729 2.52947e-19)
(0.908325 0.176855 1.72204e-18)
(0.364994 0.176322 -1.4559e-18)
(0.926929 0.318798 1.53091e-18)
(1.39977 0.174233 1.59779e-20)
(1.17946 0.100674 -2.21285e-19)
(0.964978 0.275391 -8.16612e-19)
(0.416478 0.323212 -6.00435e-19)
(0.939961 0.247441 1.88081e-19)
(1.4745 0.157818 4.11068e-20)
(1.27847 0.146482 -9.66006e-20)
(0.994706 0.383453 -1.203e-19)
(0.487176 0.480829 1.37079e-18)
(0.275726 0.0483744 0)
(0.244293 -0.0113082 6.51095e-19)
(0.157416 -0.0159203 1.26945e-19)
(0.15006 0.00553221 -1.10453e-19)
(0.184389 0.0441311 -1.80807e-18)
(0.5736 0.266369 -1.01989e-17)
(0.6092 0.0751636 -2.56675e-18)
(0.444533 0.0137179 5.02665e-19)
(0.422774 6.14182e-05 -6.48718e-19)
(0.407543 -0.0683452 -6.62214e-19)
(0.245849 0.0169755 -7.90828e-22)
(0.229919 0.0150777 1.92878e-18)
(0.213305 0.00506437 5.24639e-19)
(0.186467 0.00180205 3.22989e-19)
(0.162713 0.000825196 0)
(0.599185 -0.162145 -1.17057e-19)
(0.568195 -0.0803457 2.54636e-18)
(0.536592 -0.0464816 -1.38197e-19)
(0.484651 -0.0196443 -2.70635e-19)
(0.432084 -0.00441929 7.60548e-19)
)
;

boundaryField
{
    left
    {
        type            fixedValue;
        value           uniform (1 0 0);
    }
    right
    {
        type            zeroGradient;
    }
    down
    {
        type            noSlip;
    }
    up
    {
        type            noSlip;
    }
    cylinder
    {
        type            noSlip;
    }
    defaultFaces
    {
        type            empty;
    }
}


// ************************************************************************* //
