/*--------------------------------*- C++ -*----------------------------------*\
  =========                 |
  \\      /  F ield         | OpenFOAM: The Open Source CFD Toolbox
   \\    /   O peration     | Website:  https://openfoam.org
    \\  /    A nd           | Version:  13
     \\/     M anipulation  |
\*---------------------------------------------------------------------------*/
FoamFile
{
    format      ascii;
    class       volScalarField;
    location    "1.845";
    object      p;
}
// * * * * * * * * * * * * * * * * * * * * * * * * * * * * * * * * * * * * * //

dimensions      [0 2 -2 0 0 0 0];

internalField   nonuniform List<scalar> 
440
(
-1.35666
-1.3275
-1.32459
-1.33505
-1.33397
-1.45704
-1.42464
-1.40451
-1.37271
-1.3246
-1.62757
-1.58669
-1.52067
-1.42954
-1.32453
-1.78544
-1.72985
-1.59951
-1.44711
-1.30138
-1.87391
-1.78408
-1.59216
-1.39689
-1.22163
-0.70129
-0.708583
-0.721422
-0.722642
-0.70294
-0.903853
-0.909786
-0.926386
-0.932495
-0.906005
-1.14811
-1.1536
-1.17656
-1.21611
-1.18318
-1.29556
-1.29311
-1.30681
-1.35912
-1.31149
-1.32515
-1.30488
-1.30142
-1.33761
-1.3146
-0.39808
-0.0229959
0.078221
0.0444812
0.0145392
-0.53845
-0.0411107
0.0712702
0.0418434
0.0136326
-0.725015
-0.0769537
0.0606109
0.0384946
0.0126255
-0.882689
-0.131337
0.0463353
0.0341029
0.0113816
-0.963551
-0.195892
0.0263557
0.0281829
0.00970684
-0.903688
-0.229283
-0.00101048
0.0169776
0.00662514
-0.700231
-0.22904
-0.0475041
-0.00936898
-0.00103537
-0.591205
-0.223333
-0.0533003
-0.013675
-0.00272888
-0.518249
-0.243389
-0.0861791
-0.0304887
-0.00754144
-0.466902
-0.248514
-0.10138
-0.0380847
-0.00951807
-0.930449
-1.04267
-1.12286
-1.17432
-1.22608
-0.669213
-0.781754
-0.85414
-0.895097
-0.906383
-0.494345
-0.594151
-0.658879
-0.693508
-0.703164
-0.376947
-0.471637
-0.534752
-0.566738
-0.573153
-0.318334
-0.414212
-0.477138
-0.506345
-0.507196
0.357096
0.202822
0.0153197
-0.197057
-0.443624
-0.0432027
-0.213145
-0.422502
-0.660009
-0.929047
-0.457221
-0.637156
-0.862433
-1.11074
-1.36545
-0.805769
-0.990305
-1.22447
-1.4747
-1.68498
-1.06309
-1.2512
-1.47242
-1.70382
-1.85375
1.70327
1.72315
1.74114
1.74752
1.739
1.49553
1.50378
1.5044
1.48766
1.45153
1.23519
1.21837
1.18052
1.11994
1.03325
0.948162
0.902607
0.823052
0.712578
0.570026
0.655865
0.556142
0.422366
0.261549
0.0659813
1.55485
1.4512
1.52587
1.53345
1.64006
1.54212
1.43632
1.50322
1.4969
1.54522
1.53006
1.41961
1.47848
1.44897
1.41916
1.51878
1.40174
1.4515
1.39204
1.23808
1.50875
1.38287
1.42346
1.32897
1.04405
1.49757
1.35832
1.38598
1.22558
0.831129
1.48798
1.33137
1.35394
1.1295
0.826722
1.48757
1.31182
1.33032
1.07246
0.821184
1.48377
1.29187
1.31444
1.02925
0.824238
1.51192
1.28766
1.30576
1.00196
0.829911
0.369567
0.0814693
-0.262284
-0.550303
-0.771853
0.339866
0.138607
-0.100847
-0.325168
-0.519424
0.366529
0.187142
-0.00494045
-0.195649
-0.359284
0.408472
0.238585
0.0658829
-0.103008
-0.250087
0.43352
0.26834
0.104978
-0.0535315
-0.194483
-0.928702
-0.82111
-0.686582
-0.582235
-0.521446
-0.956498
-0.907106
-0.810589
-0.736177
-0.698234
-0.859875
-0.814455
-0.759809
-0.724138
-0.71125
-0.700631
-0.654193
-0.620226
-0.611106
-0.633056
-0.596948
-0.559218
-0.532985
-0.549339
-0.633564
-0.644379
-0.628187
-0.598703
-0.651625
-0.669493
-0.717594
-0.727465
-0.749857
-0.810377
-0.815785
-0.61414
-0.631337
-0.667784
-0.705944
-0.709668
-0.562266
-0.575429
-0.595296
-0.607192
-0.60153
-0.592469
-0.603975
-0.620458
-0.625885
-0.611949
-0.685007
-0.152825
0.0601836
0.049882
0.0181895
-0.647687
-0.0897818
0.0698513
0.0543123
0.0193878
-0.487631
-0.0436631
0.0777859
0.0483009
0.0168824
-0.366457
-0.023312
0.0812735
0.048559
0.0164461
-0.337531
-0.0172355
0.0813708
0.0464471
0.0153637
-0.423905
-0.306096
-0.00686263
0.0386629
0.0186655
-0.607924
-0.240188
0.0504677
0.0730304
0.0258604
-0.492296
-0.680664
-0.725107
-0.715365
-0.527485
-0.504155
-0.685746
-0.719253
-0.690842
-0.713738
1.58767
1.57331
1.54594
1.50673
1.45503
1.72194
1.74314
1.75323
1.75043
1.73572
1.82765
1.85608
1.87792
1.88984
1.89079
1.86637
1.90041
1.93773
1.96949
1.98511
1.82654
1.85683
1.89105
1.91928
1.93132
-0.147706
-0.230183
-0.363307
-0.525919
-0.708382
0.35194
0.241585
0.095363
-0.0828639
-0.301927
0.801269
0.687633
0.55099
0.388712
0.19026
1.15001
1.06367
0.959838
0.833452
0.68268
1.42503
1.37012
1.29653
1.20645
1.10137
1.62389
1.49613
1.59241
1.58336
1.67626
1.60873
1.49126
1.58407
1.5891
1.70159
1.59498
1.48429
1.57532
1.58893
1.74225
1.58136
1.4754
1.56185
1.58026
1.72668
1.56797
1.4643
1.54538
1.56153
1.69812
1.67529
1.50552
1.59
1.53656
1.58114
1.63467
1.49576
1.58611
1.55319
1.58904
1.31745
1.15512
0.85014
0.387466
-0.127119
1.39556
1.18506
0.864406
0.40556
-0.118327
)
;

boundaryField
{
    left
    {
        type            zeroGradient;
    }
    right
    {
        type            fixedValue;
        value           uniform 0;
    }
    down
    {
        type            zeroGradient;
    }
    up
    {
        type            zeroGradient;
    }
    cylinder
    {
        type            zeroGradient;
    }
    defaultFaces
    {
        type            empty;
    }
}


// ************************************************************************* //
