/*--------------------------------*- C++ -*----------------------------------*\
  =========                 |
  \\      /  F ield         | OpenFOAM: The Open Source CFD Toolbox
   \\    /   O peration     | Website:  https://openfoam.org
    \\  /    A nd           | Version:  13
     \\/     M anipulation  |
\*---------------------------------------------------------------------------*/
FoamFile
{
    format      ascii;
    class       surfaceScalarField;
    location    "0.1";
    object      phi;
}
// * * * * * * * * * * * * * * * * * * * * * * * * * * * * * * * * * * * * * //

dimensions      [0 3 -1 0 0 0 0];

internalField   nonuniform List<scalar> 
3485
(
0.00135951
-0.0112638
0.00990429
0.0050089
-0.031919
0.0282697
0.0106775
-0.0513996
0.045731
0.0181685
-0.0696986
0.0622076
0.027332
-0.0868643
0.0777008
0.0380541
-0.102941
0.092219
0.0502468
-0.11796
0.105767
0.0638675
-0.131939
0.118318
0.0790157
-0.144944
0.129795
-0.156985
0.139709
0.0962917
0.00149153
-0.0127553
0.00541406
-0.0358416
0.0114094
-0.0573949
0.0192109
-0.0775001
0.0286041
-0.0962574
0.0394118
-0.113749
0.0514903
-0.130038
0.0647325
-0.145181
0.0790487
-0.15926
-0.172193
0.0942574
0.00146812
-0.0142234
0.00530416
-0.0396776
0.0111251
-0.0632159
0.0186357
-0.0850107
0.0275956
-0.105217
0.0378059
-0.123959
0.0491014
-0.141334
0.0613436
-0.157424
0.0744026
-0.172319
-0.185961
0.0881703
0.00133471
-0.0155582
0.00484272
-0.0431856
0.0101746
-0.0685477
0.0170534
-0.0918895
0.0252556
-0.11342
0.0346008
-0.133304
0.0449437
-0.151677
0.0561655
-0.168645
0.068161
-0.184314
-0.198659
0.0808593
0.00116409
-0.0167223
0.00424442
-0.0462659
0.00894685
-0.0732502
0.0150348
-0.0979774
0.0223186
-0.120703
0.0306481
-0.141634
0.0399061
-0.160935
0.0500009
-0.17874
0.0608559
-0.195169
-0.210228
0.0724248
0.000978089
-0.0177003
0.00357979
-0.0488677
0.0075677
-0.0772381
0.0127498
-0.10316
0.0189724
-0.126926
0.0261155
-0.148777
0.0340876
-0.168907
0.0428199
-0.187472
0.0522582
-0.204607
-0.220342
0.0623722
0.000779398
-0.0184797
0.00285923
-0.0509475
0.00605536
-0.0804342
0.010218
-0.107322
0.0152272
-0.131935
0.0209899
-0.15454
0.0274374
-0.175354
0.0345214
-0.194556
0.0422081
-0.212294
-0.228619
0.0504845
0.000568753
-0.0190485
0.00208925
-0.052468
0.00442787
-0.0827728
0.0074743
-0.110369
0.0111395
-0.1356
0.0153546
-0.158755
0.0200703
-0.18007
0.0252557
-0.199742
0.0308946
-0.217933
-0.234716
0.036992
0.000351773
-0.0194003
0.00129254
-0.0534088
0.0027374
-0.0842177
0.00461442
-0.112246
0.00686447
-0.13785
0.00944139
-0.161332
0.0123125
-0.182941
0.0154592
-0.202888
0.0188764
-0.22135
-0.238419
0.0225789
0.000137174
-0.0195374
0.000499854
-0.0537714
0.00105095
-0.0847688
0.00175874
-0.112953
0.00259688
-0.138689
0.00354442
-0.162279
0.00458603
-0.183983
0.00571234
-0.204015
0.00691998
-0.222558
0.00821408
-0.239713
0.000480235
-0.00218456
0.00170433
0.00216652
-0.00709734
0.00541106
0.00531727
-0.0123104
0.00915967
0.00959042
-0.0169349
0.0126617
0.0146915
-0.0209066
0.0158055
0.0205409
-0.0245067
0.0186573
0.0271435
-0.0279445
0.0213419
0.0344578
-0.0312551
0.0239408
0.0423899
-0.0343871
0.026455
-0.0373019
0.0508438
0.028848
0.000548073
-0.00273264
0.00225516
-0.00880443
0.00516624
-0.0152215
0.00914755
-0.0209162
0.0141395
-0.0258985
0.0201397
-0.0305069
0.0270787
-0.0348834
0.0348118
-0.0389882
0.0432062
-0.0427815
-0.0462598
0.0521641
0.000682673
-0.00341531
0.00251557
-0.0106373
0.00534497
-0.0180509
0.00927532
-0.0248466
0.0144058
-0.031029
0.0207101
-0.0368112
0.0280432
-0.0422165
0.0362366
-0.0471817
0.045172
-0.0517169
-0.0558325
0.0547448
0.000752566
-0.00416787
0.00271442
-0.0125992
0.00572734
-0.0210638
0.0099273
-0.0290465
0.0154043
-0.036506
0.0220955
-0.0435024
0.0298679
-0.0499889
0.0386002
-0.055914
0.0481883
-0.061305
-0.0661452
0.058501
0.000801938
-0.00496981
0.00294033
-0.0147376
0.00629037
-0.0244138
0.0109084
-0.0336645
0.0168167
-0.0424143
0.0239492
-0.0506349
0.032221
-0.0582607
0.041553
-0.065246
0.0518437
-0.0715957
-0.0772425
0.062941
0.000866406
-0.00583622
0.0032172
-0.0170884
0.00692849
-0.0281251
0.0119728
-0.0387088
0.018317
-0.0487585
0.0258999
-0.0582179
0.0346649
-0.0670257
0.0445532
-0.0751344
0.0554758
-0.0825183
-0.089046
0.0672793
0.000936235
-0.00677245
0.00348624
-0.0196384
0.00750527
-0.0321442
0.0129087
-0.0441122
0.0196256
-0.0554755
0.0275891
-0.0661813
0.0367455
-0.0761821
0.0470452
-0.085434
0.0584208
-0.093894
-0.101363
0.0707379
0.000991632
-0.00776409
0.00369672
-0.0223435
0.00794894
-0.0363964
0.0136274
-0.0497907
0.0206316
-0.0624797
0.0288771
-0.0744267
0.0382959
-0.0856009
0.0488326
-0.0959708
0.0604371
-0.105498
-0.113944
0.0730183
0.0010361
-0.00880019
0.00387875
-0.0251861
0.00834925
-0.0408669
0.0142996
-0.055741
0.0216014
-0.0697816
0.030145
-0.0829703
0.0398354
-0.0952913
0.0505861
-0.106721
0.0623213
-0.117234
-0.126668
0.0750446
0.00110409
0.00418764
0.00905173
0.0155183
0.0234375
0.0326862
0.0431619
0.0547588
0.0673206
0.0803617
0.11379
-0.424038
0.361092
0.166747
-0.473213
0.420257
0.206231
-0.405792
0.366308
0.234345
-0.292691
0.264577
0.250216
-0.17992
0.16405
0.257623
-0.107556
0.100149
0.260874
-0.0670848
0.0638333
0.261729
-0.0411689
0.040314
0.260934
-0.0228828
0.0236777
-0.00614735
0.00830702
0.115262
-0.487136
0.1684
-0.526351
0.208157
-0.445549
0.23612
-0.320654
0.251909
-0.195709
0.258994
-0.114642
0.261964
-0.0700541
0.262662
-0.0418669
0.261841
-0.0220616
-0.00408192
0.117016
-0.549407
0.16938
-0.578715
0.209202
-0.485372
0.236955
-0.348406
0.252783
-0.211537
0.259741
-0.1216
0.262603
-0.0729162
0.263315
-0.0425792
0.262637
-0.0213835
-0.0022859
0.119282
-0.610188
0.169847
-0.629279
0.209381
-0.524906
0.236909
-0.375934
0.25285
-0.227477
0.259859
-0.128609
0.262784
-0.075842
0.263678
-0.0434726
0.263309
-0.0210149
-0.000936306
0.12196
-0.669207
0.169943
-0.677263
0.208697
-0.563661
0.236018
-0.403255
0.252121
-0.24358
0.259344
-0.135832
0.262502
-0.0789997
0.263739
-0.044709
0.263845
-0.0211212
-0.000207318
0.124545
-0.726472
0.169698
-0.722416
0.207155
-0.601118
0.234278
-0.430379
0.250601
-0.259903
0.258193
-0.143424
0.261753
-0.0825597
0.26349
-0.0464455
0.26423
-0.0218617
-0.000274773
0.126237
-0.781972
0.16897
-0.765149
0.204779
-0.636926
0.231695
-0.457295
0.24832
-0.276527
0.256418
-0.151523
0.260539
-0.0866812
0.262925
-0.0488309
0.264455
-0.0233917
-0.00130906
0.126148
-0.835101
0.167334
-0.806334
0.201439
-0.671031
0.228134
-0.48399
0.2452
-0.293594
0.253992
-0.160314
0.258856
-0.0915452
0.26204
-0.0520153
0.264508
-0.0258594
-0.00347881
0.123993
-0.884049
0.16444
-0.846782
0.197154
-0.703744
0.223695
-0.510532
0.241408
-0.311307
0.25106
-0.169966
0.256747
-0.0972323
0.260842
-0.0561096
0.264382
-0.0294002
-0.00694428
0.120355
-0.924043
0.159551
-0.885978
0.191122
-0.735316
0.217639
-0.537048
0.236331
-0.329999
0.247341
-0.180976
0.254144
-0.104035
0.259309
-0.0612749
0.264067
-0.0341583
-0.011862
0.581051
-0.924099
-0.580994
0.553951
-0.858878
0.513321
-0.694686
0.476302
-0.500029
0.448699
-0.302396
0.431745
-0.164022
0.422188
-0.0944782
0.416509
-0.0555955
0.413337
-0.0309866
-0.010987
0.678509
-0.872225
-0.730383
0.611774
-0.792143
0.544955
-0.627868
0.491434
-0.446507
0.456119
-0.267081
0.437633
-0.145536
0.426952
-0.0837969
0.419918
-0.0485615
0.415826
-0.0268947
-0.00995386
0.749838
-0.773395
-0.848668
0.650559
-0.692863
0.562971
-0.540281
0.497537
-0.381073
0.459637
-0.229181
0.441207
-0.127106
0.42871
-0.0712998
0.419852
-0.039704
0.414394
-0.0214364
-0.00844988
0.777668
-0.640077
-0.910987
0.654857
-0.570052
0.553338
-0.438762
0.47934
-0.307075
0.436788
-0.186628
0.413909
-0.104227
0.399024
-0.0564157
0.389523
-0.030202
0.383688
-0.0156016
-0.00647075
0.752879
-0.491693
-0.901263
0.619752
-0.436926
0.512618
-0.331628
0.434544
-0.229
0.387845
-0.139929
0.36316
-0.0795422
0.349267
-0.042523
0.340998
-0.0219326
0.33623
-0.0108339
-0.00470272
0.684644
-0.345664
-0.830673
0.553736
-0.306017
0.450568
-0.22846
0.376725
-0.155157
0.331988
-0.095192
0.307922
-0.0554762
0.295023
-0.0296244
0.287858
-0.0147676
0.283972
-0.00694805
-0.00314413
0.581786
-0.213934
-0.713516
0.462927
-0.187158
0.371596
-0.137129
0.307497
-0.091058
0.268309
-0.0560048
0.246518
-0.0336847
0.235031
-0.0181372
0.229056
-0.00879265
0.226043
-0.00393499
-0.00187616
0.447874
-0.105642
-0.556165
0.350757
-0.090042
0.278217
-0.0645893
0.228704
-0.0415442
0.198384
-0.0256848
0.180829
-0.0161302
0.171478
-0.00878573
0.166842
-0.00415682
0.164655
-0.00174826
-0.000905484
0.285915
-0.0302839
-0.361273
0.220436
-0.024563
0.172995
-0.017148
0.14185
-0.0103993
0.122673
-0.00650804
0.110954
-0.00441113
0.104616
-0.00244752
0.1016
-0.00114121
0.100289
-0.000436739
-0.000268508
0.101041
-0.131325
0.0764778
0.0593298
0.0489306
0.0424225
0.0380114
0.0355639
0.0344227
0.033986
0.7381
0.0101398
-0.740026
0.732381
0.0282978
0.722774
0.0465993
0.709535
0.0637239
0.692975
0.0789322
0.67351
0.0918893
0.651731
0.102639
0.628194
0.111707
0.603773
0.118678
0.119071
0.844858
0.0132815
-0.848
0.83665
0.0365054
0.826621
0.0566289
0.81592
0.0744247
0.804561
0.0902912
0.792178
0.104273
0.778516
0.1163
0.763747
0.126476
0.748182
0.134244
0.136869
0.844084
0.0113498
-0.842152
0.847958
0.0326314
0.85208
0.0525072
0.855511
0.0709936
0.857833
0.0879694
0.85885
0.103255
0.85842
0.116731
0.856643
0.128254
0.853778
0.137108
0.14198
0.799304
0.00924908
-0.797203
0.804894
0.0270418
0.813475
0.0439262
0.824678
0.0597902
0.838027
0.0746202
0.852852
0.0884307
0.868373
0.10121
0.883915
0.112711
0.898651
0.122371
0.129645
0.736941
0.0070018
-0.734694
0.743208
0.0207747
0.753154
0.0339805
0.766512
0.0464327
0.783074
0.0580578
0.802645
0.0688596
0.82498
0.0788744
0.849632
0.0880596
0.875568
0.0964351
0.10395
0.653051
0.00483173
-0.65088
0.659311
0.0145139
0.669458
0.0238336
0.683267
0.0326236
0.700535
0.0407905
0.721086
0.0483084
0.744753
0.0552078
0.771264
0.0615486
0.800159
0.0675393
0.0734365
0.548363
0.00290479
-0.546436
0.554045
0.00883224
0.563344
0.014534
0.576078
0.0198899
0.592047
0.0248218
0.611054
0.0293013
0.632907
0.0333543
0.657395
0.0370604
0.684329
0.0406061
0.0442494
0.422229
0.00137155
-0.420696
0.426836
0.00422603
0.43441
0.00695965
0.444796
0.00950335
0.45781
0.0118088
0.473254
0.0138567
0.490945
0.0156638
0.510719
0.0172863
0.532477
0.0188479
0.0205612
0.273495
0.000366011
-0.27249
0.276574
0.00114742
0.281645
0.00188827
0.288585
0.00256429
0.297236
0.00315732
0.307433
0.00365932
0.319023
0.00407458
0.331891
0.00441828
0.346003
0.00473548
0.00529085
0.100389
-0.100023
0.101536
0.103424
0.105989
0.109146
0.112805
0.11688
0.121298
0.126034
0.0776566
0.159252
-0.142267
-0.0946415
0.0627852
0.147246
-0.132375
0.0494128
0.134226
-0.120854
0.0374364
0.120184
-0.108207
0.0268985
0.105052
-0.094514
0.0178871
0.088804
-0.0797925
0.0105158
0.0713974
-0.0640261
0.00493445
0.0527716
-0.0471902
0.00133943
0.0328579
-0.0292629
0.0116371
-0.0102976
0.0776935
0.174165
-0.0926063
0.0636505
0.161289
0.0506517
0.147225
0.0387857
0.13205
0.0281598
0.115678
0.0189185
0.0980452
0.0112388
0.0790771
0.00533439
0.058676
0.00146989
0.0367224
0.013107
0.0729808
0.187649
-0.0864647
0.0601909
0.174079
0.0481967
0.159219
0.0371239
0.143123
0.0271081
0.125694
0.0183129
0.106841
0.0109358
0.0864542
0.00521535
0.0643965
0.00144394
0.0404938
0.0145509
0.0666262
0.200067
-0.0790441
0.0549021
0.185803
0.0439367
0.170184
0.03383
0.153229
0.0246967
0.134827
0.0166784
0.114859
0.00995203
0.0931805
0.00473714
0.0696114
0.00130565
0.0439253
0.0158565
0.0592185
0.211366
-0.0705178
0.0486302
0.196391
0.0387942
0.18002
0.0297817
0.162242
0.0216792
0.142929
0.0145983
0.12194
0.00868344
0.0990954
0.00411745
0.0741773
0.00112852
0.0469143
0.0169851
0.0505467
0.221228
-0.0604086
0.0413645
0.205574
0.0328875
0.188497
0.0251648
0.169965
0.0182592
0.149835
0.0122553
0.127944
0.00726498
0.104086
0.0034319
0.0780104
0.000936078
0.0494101
0.0179211
0.0404399
0.229271
-0.0484833
0.0329964
0.213017
0.0261621
0.195332
0.0199656
0.176161
0.0144486
0.155352
0.00967153
0.132721
0.00571706
0.10804
0.00269231
0.0810352
0.000731514
0.0513709
0.0186527
0.0290627
0.235152
-0.0349435
0.0236573
0.218422
0.018719
0.20027
0.0142581
0.180622
0.0102983
0.159312
0.00687901
0.13614
0.00405661
0.110863
0.00190486
0.0831869
0.000515499
0.0527603
0.0191682
0.016944
0.238642
-0.0204343
0.0137632
0.221603
0.0108715
0.203162
0.00826732
0.183226
0.00596046
0.161619
0.00397249
0.138128
0.00233576
0.112499
0.00109238
0.0844303
0.00029373
0.0535589
0.0194619
0.00486616
-0.00593654
0.00391151
0.00305846
0.00230181
0.00164126
0.00108057
0.000626534
0.000288058
7.55454e-05
0.0432541
0.040796
-0.0520055
-0.0320446
0.03502
0.037851
-0.029617
0.0274059
0.0346348
-0.0270207
0.0205492
0.0311652
-0.0243085
0.0145568
0.0275089
-0.0215165
0.00944432
0.0236711
-0.0185586
0.00523138
0.0193995
-0.0151866
0.00213527
0.0142118
-0.0111157
0.000471279
0.00805249
-0.0063885
0.00243396
-0.00196268
0.043626
0.0499435
-0.0527735
0.035047
0.04643
0.0271319
0.0425499
0.0200265
0.0382706
0.0139314
0.033604
0.00897992
0.0286226
0.00516614
0.0232133
0.00240837
0.0169695
0.000636086
0.00982477
0.00307004
0.0451835
0.0596109
-0.0548509
0.0361677
0.0554458
0.0279178
0.0507998
0.0205495
0.0456389
0.0142344
0.039919
0.00914258
0.0337144
0.00531431
0.0270416
0.00258414
0.0196997
0.000730645
0.0116783
0.00380068
0.0479002
0.0699333
-0.0582227
0.0383131
0.065033
0.0296084
0.0595045
0.0218923
0.0533551
0.0152659
0.0465454
0.00984708
0.0391332
0.00569963
0.031189
0.00272401
0.0226753
0.000763953
0.0136383
0.00456464
0.0513707
0.080957
-0.0623943
0.0411564
0.0752473
0.0319138
0.068747
0.0237432
0.0615257
0.0167058
0.0535828
0.0108658
0.0449731
0.00628368
0.0357712
0.00294391
0.0260151
0.000804093
0.0157781
0.00536873
0.0548799
0.0926147
-0.0665376
0.0440976
0.0860296
0.0343457
0.0784988
0.0257063
0.0701652
0.0182252
0.0610639
0.0119486
0.0512497
0.00693532
0.0407845
0.00322771
0.0297227
0.000870163
0.0181357
0.00623889
0.0577117
0.10473
-0.0698272
0.0465237
0.0972176
0.0363939
0.0886287
0.0273801
0.0791789
0.0195245
0.0689195
0.0128776
0.0578966
0.00750858
0.0461535
0.00349698
0.0337343
0.000941121
0.0206916
0.00718001
0.0595843
0.117068
-0.071922
0.0482028
0.108599
0.0378621
0.0989694
0.0286044
0.0884367
0.0204808
0.077043
0.0135595
0.064818
0.0079288
0.0517843
0.00369649
0.0379666
0.000993947
0.0233941
0.00817396
0.0612735
0.129515
-0.0737202
0.0497901
0.120082
0.039261
0.109499
0.0297559
0.0979418
0.0213587
0.0854403
0.0141645
0.0720121
0.00828615
0.0576627
0.00385702
0.0423957
0.00103242
0.0262187
0.00920638
0.0660605
-0.0788129
0.0537683
0.0424133
0.0321476
0.0230738
0.0152934
0.00893
0.00413547
0.00109126
0.213972
0.0576328
-0.073615
0.229631
0.107459
-0.123118
0.242878
0.117854
-0.131102
0.248381
0.118545
-0.124048
0.246738
0.134756
-0.133112
0.235201
0.181316
-0.169779
0.209316
0.279377
-0.253492
0.170471
0.397993
-0.359148
0.116834
0.48416
-0.430522
0.454042
-0.389214
0.212699
0.0429233
0.228483
0.0916752
0.241678
0.104659
0.247871
0.112352
0.247077
0.13555
0.236053
0.192339
0.210492
0.304938
0.171332
0.437153
0.117417
0.538074
0.518686
0.211724
0.0291894
0.227634
0.075765
0.240717
0.0915755
0.247294
0.105775
0.246998
0.135846
0.236166
0.203171
0.210852
0.330253
0.171435
0.47657
0.118205
0.591304
0.58204
0.211042
0.016137
0.227073
0.0597346
0.239961
0.0786871
0.246647
0.0990894
0.246511
0.135982
0.235604
0.214079
0.210371
0.355485
0.17092
0.516021
0.119474
0.64275
0.643292
0.210637
0.00348997
0.226791
0.0435802
0.239367
0.0661116
0.245901
0.092555
0.2456
0.136283
0.234371
0.225308
0.209008
0.380849
0.169953
0.555075
0.121198
0.691505
0.702095
0.210487
-0.00900764
0.226779
0.0272884
0.238885
0.0540062
0.245008
0.0864318
0.244217
0.137074
0.232411
0.237113
0.206742
0.406519
0.168627
0.59319
0.122944
0.737188
0.758501
0.210577
-0.0215946
0.227021
0.0108444
0.238459
0.0425684
0.243918
0.0809725
0.242328
0.138663
0.229681
0.249761
0.203612
0.432587
0.16688
0.629922
0.123945
0.780123
0.812619
0.210892
-0.0344973
0.227506
-0.00576903
0.23803
0.0320441
0.242537
0.076466
0.239773
0.141426
0.225988
0.263546
0.199515
0.45906
0.164351
0.665086
0.123312
0.821162
0.864009
0.211402
-0.0479093
0.228243
-0.0226107
0.237568
0.0227197
0.240908
0.0731254
0.236673
0.145662
0.221462
0.278757
0.194539
0.485984
0.160736
0.69889
0.120737
0.861161
0.911026
0.212267
-0.0621866
0.228953
-0.0392969
0.237154
0.0145187
0.238812
0.0714678
0.232391
0.152082
0.215278
0.29587
0.187851
0.513411
0.155292
0.731448
0.116787
0.899665
0.949
0.333638
-0.0938148
0.366174
-0.0718326
0.394522
-0.013829
0.415539
0.0504507
0.436994
0.130628
0.465224
0.26764
0.502169
0.476466
0.545421
0.688196
0.57874
0.866347
0.942507
0.585233
0.337938
-0.129743
0.372685
-0.10658
0.402179
-0.0433226
0.423797
0.0288323
0.445645
0.10878
0.47968
0.233604
0.531843
0.424303
0.600256
0.619782
0.671933
0.79467
0.883217
0.731223
0.341209
-0.168941
0.378915
-0.144286
0.409501
-0.0739083
0.43141
0.00692363
0.452156
0.0880343
0.487249
0.198511
0.550196
0.361356
0.637727
0.532251
0.739819
0.692578
0.778473
0.844563
0.34341
-0.210341
0.383198
-0.184074
0.413877
-0.104587
0.430137
-0.00933704
0.445488
0.0726832
0.477874
0.166126
0.545639
0.29359
0.644874
0.433017
0.76782
0.569631
0.642531
0.903762
0.345606
-0.253937
0.374781
-0.213249
0.380905
-0.110711
0.381749
-0.0101813
0.396014
0.0584178
0.434694
0.127447
0.508069
0.220216
0.613179
0.327906
0.74562
0.43719
0.493172
0.89498
0.343316
-0.295243
0.34146
-0.211394
0.32221
-0.0914608
0.322017
-0.00998836
0.338185
0.0422502
0.37722
0.0884115
0.447589
0.149847
0.54929
0.226205
0.679834
0.306647
0.346609
0.826396
0.315741
-0.308974
0.28473
-0.180382
0.259274
-0.0660052
0.257446
-0.00816026
0.272999
0.0266971
0.308371
0.0530391
0.36996
0.088258
0.460213
0.135952
0.579023
0.187838
0.214523
0.711109
0.274248
-0.281212
0.21974
-0.125874
0.190802
-0.0370668
0.188247
-0.0056052
0.201625
0.0133189
0.229821
0.0248435
0.277694
0.040385
0.349528
0.0641172
0.446831
0.0905354
0.105973
0.55538
0.214617
-0.193818
0.143378
-0.0546348
0.118083
-0.0117718
0.114991
-0.00251331
0.124519
0.00379078
0.142901
0.00646103
0.173159
0.0101277
0.220237
0.0170389
0.286015
0.0247579
0.0303977
0.36159
0.108192
0.0535571
0.0417853
0.0392719
0.0430627
0.0495238
0.0596515
0.0766904
0.101448
0.131846
0.607507
-0.116916
0.631264
-0.116363
0.654164
-0.109366
0.675385
-0.100264
0.694378
-0.0895114
0.710549
-0.076579
0.723465
-0.0613997
0.732811
-0.0442893
0.738314
-0.0259379
-0.00764827
0.74876
-0.134452
0.76386
-0.131463
0.778231
-0.123737
0.791589
-0.113622
0.803754
-0.101677
0.814965
-0.0877896
0.825574
-0.0720091
0.835603
-0.054318
0.844083
-0.034418
-0.011565
0.849498
-0.139387
0.852216
-0.134181
0.853952
-0.125473
0.854493
-0.114163
0.853751
-0.100935
0.851901
-0.0859396
0.849175
-0.0692831
0.845983
-0.0511257
0.843139
-0.0315747
-0.0105781
0.891986
-0.127611
0.878049
-0.120244
0.86337
-0.110794
0.848747
-0.0995393
0.834814
-0.0870021
0.8223
-0.0734254
0.811847
-0.0588303
0.80392
-0.0431992
0.798878
-0.0265328
-0.00890303
0.870153
-0.102784
0.845192
-0.0952834
0.821405
-0.0870074
0.799811
-0.0779453
0.780882
-0.0680729
0.764885
-0.0574287
0.75203
-0.0459748
0.742525
-0.0336946
0.736632
-0.0206398
-0.00696474
0.796532
-0.0729192
0.768304
-0.0670553
0.742384
-0.0610881
0.719237
-0.0547982
0.699141
-0.0479768
0.68227
-0.0405576
0.668797
-0.0325017
0.658924
-0.0238216
0.652878
-0.0145939
-0.00496688
0.682308
-0.0441188
0.655762
-0.0405093
0.631636
-0.0369621
0.610108
-0.0332695
0.59138
-0.0292489
0.57564
-0.0248182
0.563083
-0.0199447
0.553909
-0.0146474
0.548309
-0.00899371
-0.00309415
0.531855
-0.0205937
0.510255
-0.0189092
0.490634
-0.0173419
0.473081
-0.0157162
0.457747
-0.013915
0.444812
-0.0118826
0.434466
-0.00959921
0.426898
-0.00707893
0.422269
-0.00436479
-0.00152151
0.346328
-0.00533177
0.332211
-0.00479206
0.31934
-0.0044713
0.307747
-0.00412291
0.297537
-0.00370535
0.288859
-0.00320449
0.281875
-0.00261525
0.27674
-0.00194405
0.273583
-0.00120745
-0.000428537
0.126514
0.121722
0.117251
0.113128
0.109423
0.106218
0.103603
0.101659
0.100451
0.0001863
0.0117632
-0.0119495
0.000628273
0.030851
-0.0312929
0.00124602
0.0468418
-0.0474596
0.0019905
0.0602039
-0.0609484
0.00279214
0.0708275
-0.0716291
0.00380109
0.0807181
-0.0817271
0.00400433
0.0782345
-0.0784377
0.00413384
0.0710236
-0.0711532
0.00399826
0.0620366
-0.061901
0.0508223
0.00356078
-0.0503848
0.000538295
0.0112249
0.00182051
0.0295688
0.00361653
0.0450458
0.00578681
0.0580336
0.00812705
0.0684873
0.0111179
0.0777273
0.0117873
0.0775651
0.0122172
0.0705937
0.0119255
0.0623283
0.0519406
0.0108072
0.000845823
0.0103791
0.0028645
0.0275501
0.00569846
0.0422119
0.00912505
0.054607
0.012839
0.0647733
0.0173543
0.0732119
0.0189557
0.0759637
0.0197782
0.0697712
0.0196211
0.0624854
0.0532849
0.0182768
0.00107371
0.0093054
0.00364836
0.0249754
0.00728162
0.0385786
0.0116773
0.0502114
0.0165028
0.0599478
0.0219009
0.0678137
0.0252827
0.072582
0.0266177
0.0684362
0.0269079
0.0621952
0.0543952
0.0257975
0.001184
0.00812139
0.0040617
0.0220977
0.00816934
0.034471
0.0131703
0.0452104
0.0187646
0.0543536
0.0247888
0.0617895
0.0302107
0.0671601
0.0324011
0.0662458
0.0333742
0.061222
0.0548895
0.0328799
0.00117802
0.00694337
0.00410933
0.0191664
0.00837325
0.030207
0.013635
0.0399486
0.0196299
0.0483586
0.0261121
0.0553073
0.0327595
0.0605127
0.0366814
0.062324
0.0385413
0.059362
0.0544688
0.0389621
0.00107293
0.00587044
0.00384716
0.0163922
0.00799477
0.0260594
0.0132041
0.0347393
0.0192225
0.0423403
0.0258382
0.0486915
0.0328157
0.0535353
0.0387573
0.0563823
0.0420715
0.0560478
0.052921
0.0436192
0.000882451
0.00498798
0.00332441
0.0139502
0.00712888
0.0222549
0.0120079
0.0298603
0.0177152
0.036633
0.0240938
0.0423128
0.0309658
0.0466633
0.0378486
0.0494996
0.0431814
0.050715
0.0497014
0.046401
0.000634071
0.00435391
0.00262553
0.0119587
0.005924
0.0189565
0.0102596
0.0255247
0.0153848
0.0315078
0.0211902
0.0365074
0.0275777
0.0402758
0.0343038
0.0427735
0.0407989
0.0442199
0.0446055
0.0458949
0.000386819
0.00396709
0.00191824
0.0104273
0.00464889
0.0162258
0.00833958
0.021834
0.0127542
0.0270932
0.017849
0.0314126
0.023573
0.0345517
0.0297535
0.036593
0.0362175
0.0377559
0.0381327
0.0426903
0.000221644
0.00374545
0.00140502
0.00924395
0.00360617
0.0140247
0.00665312
0.018787
0.0103992
0.0233471
0.0149012
0.0269106
0.0201061
0.0293469
0.025765
0.030934
0.0316262
0.0318948
0.0323656
0.0373932
0.000198705
0.00354674
0.00119333
0.00824932
0.00296518
0.0122528
0.00547309
0.0162791
0.00879764
0.0200226
0.013036
0.0226723
0.0179988
0.0243841
0.0234196
0.0255131
0.0290864
0.026228
0.0265509
0.0349011
0.00028324
0.0032635
0.00118399
0.00734857
0.00264479
0.010792
0.00485591
0.014068
0.00816321
0.0167153
0.0124575
0.0183781
0.017406
0.0194356
0.0227923
0.0201268
0.0284876
0.0205327
0.0206562
0.0343823
0.000384123
0.00287938
0.00124578
0.00648692
0.00264589
0.00939192
0.0050929
0.011621
0.00878332
0.0130249
0.0133175
0.0138438
0.0184116
0.0143415
0.0239299
0.0146085
0.0297861
0.0146765
0.0145475
0.0358948
0.00044375
0.00243563
0.00137515
0.00555553
0.00325056
0.00751652
0.00642782
0.00844372
0.0106067
0.00884602
0.0154449
0.00900558
0.0207932
0.0089933
0.0265678
0.00883388
0.0327039
0.0085404
0.00812082
0.0391306
0.000425758
0.00200988
0.00182749
0.00415381
0.00464535
0.00469866
0.0085011
0.00458798
0.0130606
0.00428651
0.0181954
0.00387079
0.0238319
0.00335683
0.0299092
0.00275655
0.0363693
0.00208029
0.00133508
0.0431551
0.000546794
0.00146309
0.00282934
0.00187127
0.00629925
0.00122876
0.0104994
0.000387807
0.0153192
-0.000533228
0.0207087
-0.0015187
0.0266163
-0.00255084
0.0329816
-0.00360877
0.0397462
-0.00468429
-0.00578066
0.046862
0.00109266
0.000370434
0.00386106
-0.000897123
0.00743733
-0.0023475
0.0117274
-0.00390228
0.0166916
-0.00549739
0.0222755
-0.00710258
0.0283983
-0.00867362
0.0349875
-0.010198
0.041994
-0.0116908
-0.0131667
0.04938
0.00131506
-0.000944624
0.00382915
-0.00341121
0.00729335
-0.0058117
0.0116272
-0.00823609
0.0167268
-0.0105971
0.0224611
-0.0128369
0.0287313
-0.0149438
0.0354931
-0.0169598
0.0427237
-0.0189214
-0.0208277
0.0503847
0.000759708
0.00275956
0.00610753
0.0105332
0.0157416
0.0215621
0.0279602
0.0349412
0.0424748
0.050495
0.0539118
0.0864586
-0.102977
0.081872
-0.0103375
-0.0176227
0.102989
-0.0531439
0.0320265
0.115722
-0.0465609
0.0338284
0.124706
-0.0305712
0.0215868
0.131655
-0.0198115
0.012863
0.137338
-0.013493
0.00781004
0.142109
-0.00956872
0.0047978
0.146212
-0.00681961
0.00271682
-0.00487045
0.00143789
0.0625199
0.0588399
0.0973675
-0.0451851
0.123057
-0.0788337
0.137351
-0.0608541
0.147124
-0.0403448
0.15457
-0.0272573
0.160557
-0.0194792
0.165463
-0.0144748
0.169578
-0.0109348
-0.008036
0.0713197
0.0219025
0.111143
-0.0850085
0.141138
-0.108829
0.158556
-0.0782719
0.169337
-0.0511264
0.177151
-0.0350714
0.183216
-0.0255439
0.187985
-0.0192431
0.191821
-0.0147713
-0.010695
0.0804615
-0.0226641
0.123601
-0.128148
0.156704
-0.141932
0.178098
-0.0996651
0.190472
-0.0635008
0.198706
-0.0433053
0.204756
-0.0315938
0.209223
-0.0237101
0.212587
-0.0181355
-0.0126783
0.0891195
-0.072653
0.134346
-0.173375
0.169491
-0.177077
0.194538
-0.124712
0.209385
-0.0783479
0.21836
-0.0522796
0.224365
-0.0375997
0.228417
-0.0277618
0.231167
-0.0208857
-0.0138804
0.0966536
-0.126151
0.143346
-0.220067
0.179734
-0.213466
0.207013
-0.151991
0.224428
-0.0957621
0.234987
-0.0628392
0.241507
-0.0441196
0.245394
-0.031649
0.247567
-0.0230585
-0.0142899
0.102653
-0.181943
0.150642
-0.268056
0.187889
-0.250712
0.215924
-0.180026
0.234019
-0.113857
0.244923
-0.0737431
0.251304
-0.0505009
0.254677
-0.0350221
0.255829
-0.0242107
-0.0136119
0.107069
-0.239632
0.15642
-0.317407
0.194371
-0.288662
0.222543
-0.208199
0.239948
-0.131262
0.249706
-0.0835015
0.25496
-0.0557545
0.257369
-0.0374313
0.257672
-0.0245137
-0.0122141
0.110123
-0.29937
0.160901
-0.368185
0.199466
-0.327227
0.22766
-0.236393
0.244309
-0.147912
0.253018
-0.0922102
0.257383
-0.0601199
0.25908
-0.039128
0.258844
-0.0242774
-0.010387
0.112217
0.164289
0.20337
0.231554
0.247692
0.255631
0.259345
0.260531
0.259931
0.0132626
0.00631463
-0.0195772
0.0109296
0.00233298
0.0115761
-0.000646459
0.0131576
-0.00158147
0.0140147
-0.000857151
0.014499
-0.000484273
0.0147654
-0.000266352
0.0149353
-0.000169917
0.0150105
-7.51607e-05
-7.25853e-05
0.0372541
0.0241821
-0.0551215
0.0313026
0.00828453
0.0343429
-0.00368678
0.0386892
-0.00592774
0.0412805
-0.00344846
0.0427591
-0.0019628
0.0436245
-0.00113182
0.044156
-0.000701374
0.0444392
-0.000358304
-0.000253262
0.0577971
0.0502839
-0.0838989
0.0507079
0.0153737
0.0566343
-0.00961318
0.063483
-0.0127765
0.0677914
-0.0077568
0.0703078
-0.00447922
0.0718177
-0.00264164
0.0727387
-0.00162239
0.0732571
-0.000876697
-0.000536378
0.0736519
0.0791003
-0.102468
0.0681847
0.0208409
0.0778092
-0.0192376
0.0871877
-0.022155
0.0932503
-0.0138194
0.0968751
-0.00810401
0.0990887
-0.00485518
0.100444
-0.00297791
0.101224
-0.00165645
-0.000929022
0.0821915
-0.106068
0.08541
0.0981989
0.109872
0.11764
0.122399
0.125354
0.127174
0.128234
0.00279119
-0.000175877
-0.00261531
0.00333077
-0.000539582
0.00425721
-0.000926436
0.00558743
-0.00133022
0.00730722
-0.00171979
0.00937913
-0.00207191
0.0117676
-0.0023885
0.0143926
-0.00262497
0.0171172
-0.00272457
-0.00246007
0.00795099
-0.000656478
-0.00747039
0.00942094
-0.00200953
0.0119376
-0.00344314
0.0155439
-0.00493646
0.0202185
-0.00639439
0.0258862
-0.00773958
0.0324476
-0.00894993
0.0397259
-0.0099033
0.0474255
-0.0104241
-0.0101561
0.0127352
-0.00140625
-0.0119855
0.0150192
-0.0042935
0.0189068
-0.00733072
0.0244428
-0.0104724
0.0315838
-0.0135355
0.0401905
-0.0163463
0.0500442
-0.0188036
0.0608885
-0.0207476
0.0723741
-0.0219097
-0.0216808
0.0171417
-0.00238471
-0.0161633
0.0201081
-0.00725986
0.0251179
-0.0123405
0.0321817
-0.0175362
0.0411862
-0.02254
0.0518652
-0.0270253
0.0638291
-0.0307675
0.0767172
-0.0336357
0.0900161
-0.0352086
-0.034133
0.0211858
-0.0200098
0.0247332
0.0306695
0.0389308
0.0492708
0.0612076
0.0740593
0.0868246
0.0975109
0.0317366
-0.0321099
0.0379514
-0.0375781
0.0258055
-0.0316573
0.0375884
0.0200731
-0.0307389
0.0364712
0.0147904
-0.0292294
0.0345121
0.010231
-0.0269126
0.031472
0.00647849
-0.0234425
0.027195
0.00344463
-0.0188696
0.0219034
0.00127466
-0.0141347
0.0163046
0.000148835
-0.00944166
0.0105675
-0.00394682
0.00409565
0.0297177
-0.0261585
-0.0356691
0.0239129
-0.0258525
0.0183496
-0.0251756
0.0132299
-0.0241097
0.00882338
-0.0225061
0.00538216
-0.0200013
0.00284761
-0.0163351
0.00109447
-0.0123815
0.000137924
-0.00848512
-0.0038089
0.0299232
-0.0200539
-0.0360278
0.0240124
-0.0199417
0.0184049
-0.0195681
0.0132191
-0.0189239
0.00865136
-0.0179383
0.00505596
-0.0164059
0.00267694
-0.013956
0.00117326
-0.0108778
0.000267434
-0.0075793
-0.00354147
0.0321426
-0.0136568
-0.0385397
0.0259926
-0.0137917
0.0201748
-0.0137503
0.0147707
-0.0135199
0.009902
-0.0130697
0.00582727
-0.0123312
0.00300331
-0.0111321
0.00138415
-0.0092587
0.000436897
-0.00663206
-0.00310458
0.035818
-0.00687498
-0.0425999
0.0293246
-0.00729826
0.0231906
-0.00761627
0.0174835
-0.00781279
0.0122862
-0.00787238
0.00773446
-0.00777946
0.00410973
-0.00750737
0.0017507
-0.00689967
0.000549464
-0.00543083
-0.00255512
0.0398727
0.000305018
-0.0470527
0.0330176
-0.000443122
0.0265467
-0.00114534
0.0205274
-0.00179356
0.0150292
-0.00237415
0.0101213
-0.00287157
0.00588906
-0.00327515
0.00255091
-0.00356154
0.000579326
-0.00345926
-0.0019758
0.043173
0.00781757
-0.0506855
0.0360109
0.0067189
0.0292458
0.00561984
0.0229419
0.00451032
0.0171774
0.00339027
0.0120217
0.00228419
0.00751801
0.0012285
0.0037172
0.000239265
0.000892709
-0.000634781
-0.0010831
0.0448438
0.0155909
-0.0526171
0.0374587
0.014104
0.0304956
0.0125829
0.0239903
0.0110156
0.0180143
0.00936625
0.0126798
0.0076187
0.00809495
0.00581337
0.0043297
0.00400451
0.001453
0.00224191
0.000369895
0.044732
0.0236489
-0.0527901
0.037122
0.0217141
0.0300066
0.0196983
0.0233966
0.0176256
0.0172981
0.0154647
0.0117898
0.013127
0.00706984
0.0105333
0.00340582
0.00766852
0.00106067
0.00458704
0.00143056
0.0438257
-0.0522214
0.0359228
0.0286003
0.0219174