/*--------------------------------*- C++ -*----------------------------------*\
  =========                 |
  \\      /  F ield         | OpenFOAM: The Open Source CFD Toolbox
   \\    /   O peration     | Website:  https://openfoam.org
    \\  /    A nd           | Version:  13
     \\/     M anipulation  |
\*---------------------------------------------------------------------------*/
FoamFile
{
    format      ascii;
    class       volVectorField;
    location    "0.1";
    object      U;
}
// * * * * * * * * * * * * * * * * * * * * * * * * * * * * * * * * * * * * * //

dimensions      [0 1 -1 0 0 0 0];

internalField   nonuniform List<vector> 
1800
(
(0.0978946 -0.0884342 -4.55685e-20)
(0.287034 -0.242278 -3.45191e-20)
(0.474071 -0.379619 -4.82013e-19)
(0.657706 -0.501027 1.88551e-19)
(0.83653 -0.608392 6.49356e-20)
(1.00974 -0.703001 -4.51487e-20)
(1.17688 -0.785548 6.03733e-20)
(1.33756 -0.856242 2.17974e-19)
(1.49106 -0.916018 6.04597e-19)
(1.63281 -0.970384 8.21484e-19)
(0.119062 -0.0915172 -7.90239e-20)
(0.344217 -0.247789 -7.6537e-19)
(0.563087 -0.384939 3.74881e-21)
(0.775026 -0.504591 1.28051e-19)
(0.979027 -0.609497 -1.26919e-19)
(1.17461 -0.701545 6.54719e-20)
(1.36159 -0.781958 -2.68965e-19)
(1.53993 -0.851624 -5.88068e-20)
(1.70912 -0.912601 -7.12682e-19)
(1.8667 -0.969301 6.42185e-19)
(0.141578 -0.0922844 4.85685e-20)
(0.403427 -0.247653 2.08056e-19)
(0.653299 -0.382049 5.41324e-19)
(0.891516 -0.497901 -1.89022e-19)
(1.1178 -0.598501 -1.35403e-19)
(1.33219 -0.686098 7.35183e-20)
(1.53488 -0.762208 9.32635e-20)
(1.72613 -0.82805 1.95406e-19)
(1.90579 -0.885832 2.81948e-21)
(2.07268 -0.939188 1.52456e-19)
(0.163778 -0.0896556 -4.55058e-20)
(0.461297 -0.239305 -2.03378e-19)
(0.740745 -0.367398 -1.80151e-19)
(1.00356 -0.476752 -1.42774e-19)
(1.25042 -0.570841 1.80102e-19)
(1.4821 -0.65204 -5.74035e-20)
(1.69934 -0.721954 -4.17542e-21)
(1.90281 -0.781844 -1.273e-21)
(2.09273 -0.833791 -1.65239e-19)
(2.26837 -0.881014 -1.0466e-19)
(0.184487 -0.0832822 -1.14589e-19)
(0.515371 -0.221606 8.6556e-20)
(0.822417 -0.339139 1.80415e-19)
(1.1081 -0.438724 2.4414e-19)
(1.37411 -0.523728 -2.82034e-19)
(1.62195 -0.596472 -3.63013e-21)
(1.85298 -0.65854 4.22333e-19)
(2.06832 -0.71115 -1.87459e-19)
(2.26864 -0.756199 -1.24703e-19)
(2.45355 -0.796612 -5.2189e-20)
(0.202987 -0.0734282 1.74049e-19)
(0.563852 -0.194999 1.02964e-18)
(0.89576 -0.297771 1.40266e-19)
(1.20209 -0.384364 -5.02528e-19)
(1.48543 -0.457825 -1.73897e-19)
(1.74798 -0.520273 6.35857e-19)
(1.99163 -0.57317 -1.42589e-19)
(2.21792 -0.617619 -4.29322e-19)
(2.42795 -0.655267 -3.21012e-19)
(2.62165 -0.688703 2.63033e-19)
(0.218672 -0.0605294 1.15922e-19)
(0.605052 -0.160523 -7.46488e-19)
(0.958158 -0.244758 -1.08162e-18)
(1.28212 -0.315458 3.82368e-19)
(1.58026 -0.375185 4.47224e-19)
(1.85539 -0.42574 -8.91845e-22)
(2.10985 -0.468372 -6.35526e-19)
(2.34557 -0.504006 2.20242e-19)
(2.56402 -0.533966 -3.71722e-19)
(2.76545 -0.560425 -3.15034e-19)
(0.230991 -0.0451251 -3.43208e-19)
(0.63745 -0.119548 -6.96072e-19)
(1.00724 -0.182084 1.21199e-18)
(1.34505 -0.234435 6.00891e-19)
(1.6548 -0.278556 -2.68651e-19)
(1.93976 -0.31583 -2.11617e-19)
(2.20268 -0.347222 0)
(2.4458 -0.373429 1.15508e-19)
(2.67093 -0.395415 -2.97139e-19)
(2.87864 -0.414838 -7.58008e-20)
(0.239509 -0.027846 -2.05081e-19)
(0.65986 -0.0736717 5.61913e-19)
(1.04116 -0.11207 1.69075e-19)
(1.38848 -0.144132 -5.12297e-19)
(1.70614 -0.171104 -7.85706e-19)
(1.99774 -0.193882 3.623e-20)
(2.26632 -0.213088 1.70408e-19)
(2.5144 -0.229164 -5.47356e-19)
(2.74407 -0.242695 -2.93012e-19)
(2.95627 -0.254743 -5.68319e-19)
(0.243993 -0.00939275 4.52703e-19)
(0.671629 -0.0246797 3.44468e-19)
(1.05892 -0.0373306 -9.44705e-20)
(1.41113 -0.0477593 -1.1199e-20)
(1.73278 -0.056443 -3.89099e-19)
(2.02767 -0.0637212 -8.95389e-20)
(2.29902 -0.0698317 -2.89646e-19)
(2.54951 -0.0749413 6.5096e-19)
(2.78143 -0.0792564 1.71235e-19)
(2.99605 -0.0831361 3.71976e-21)
(-0.00166798 -0.0241651 -1.04588e-19)
(0.00881201 -0.0778171 -1.784e-19)
(0.0255701 -0.133896 -3.64836e-21)
(0.0482835 -0.184276 -2.56002e-20)
(0.0740128 -0.227491 -1.05087e-20)
(0.101846 -0.265992 -3.66035e-19)
(0.131795 -0.302432 -3.31201e-20)
(0.163751 -0.337818 2.07229e-19)
(0.197007 -0.371744 1.00807e-20)
(0.230755 -0.403597 -3.28409e-20)
(0.0018525 -0.0298533 -1.34211e-19)
(0.0176027 -0.0970826 -2.98713e-19)
(0.0402927 -0.169105 9.25324e-20)
(0.0669038 -0.231208 -5.71793e-20)
(0.0959664 -0.28345 -8.81269e-20)
(0.128202 -0.330572 -2.95721e-19)
(0.163791 -0.375185 2.7854e-19)
(0.201552 -0.417284 2.39273e-19)
(0.240327 -0.456188 -2.70732e-19)
(0.279446 -0.491735 8.0025e-20)
(0.00646408 -0.0376034 -9.92521e-20)
(0.0309881 -0.117499 -6.89741e-19)
(0.061535 -0.199736 -1.06922e-19)
(0.0948555 -0.272498 -3.65029e-20)
(0.130807 -0.336178 4.27199e-20)
(0.170655 -0.394352 -4.81315e-19)
(0.213949 -0.448039 7.23862e-20)
(0.258798 -0.496746 3.82091e-19)
(0.304311 -0.540511 -3.70765e-19)
(0.350215 -0.579713 -2.50989e-19)
(0.0120943 -0.0458216 -6.4035e-21)
(0.0475499 -0.137265 1.28502e-19)
(0.0882864 -0.2284 -8.69536e-23)
(0.132096 -0.311798 -2.31013e-21)
(0.178837 -0.387282 1.72802e-20)
(0.229063 -0.456229 7.69737e-20)
(0.281783 -0.518522 9.03401e-20)
(0.335363 -0.573875 -1.38313e-19)
(0.389385 -0.622836 8.82511e-21)
(0.443701 -0.665727 -1.06559e-20)
(0.0191477 -0.0537918 0)
(0.0678745 -0.156694 1.5957e-21)
(0.121696 -0.257195 -3.44682e-19)
(0.179079 -0.350694 9.76631e-20)
(0.239313 -0.436568 9.64883e-20)
(0.302024 -0.514886 1.95226e-21)
(0.366123 -0.585194 -2.8556e-20)
(0.430433 -0.647336 -2.84669e-21)
(0.494754 -0.701665 0)
(0.55889 -0.748072 -2.08623e-20)
(0.0279087 -0.0614158 1.96998e-20)
(0.0926413 -0.175891 -8.4414e-20)
(0.162341 -0.285978 -1.58034e-20)
(0.23562 -0.388616 -6.26538e-20)
(0.311233 -0.483213 5.94033e-20)
(0.388233 -0.569463 1.57778e-20)
(0.465562 -0.646952 5.18776e-20)
(0.542257 -0.715477 -2.44594e-20)
(0.618187 -0.774931 -6.80831e-19)
(0.693149 -0.824556 -9.97284e-21)
(0.038475 -0.0686663 2.86016e-21)
(0.122039 -0.19439 9.95678e-20)
(0.210059 -0.313568 -8.87334e-20)
(0.301072 -0.42413 -1.73296e-20)
(0.393527 -0.525834 -8.21213e-20)
(0.486223 -0.618506 5.85956e-21)
(0.578115 -0.701931 3.66585e-20)
(0.668294 -0.775932 -1.79542e-19)
(0.756698 -0.839994 3.72178e-19)
(0.843136 -0.892551 9.75063e-19)
(0.050767 -0.075266 1.78532e-20)
(0.155868 -0.211196 -1.5139e-19)
(0.264356 -0.338269 -2.21803e-19)
(0.374706 -0.455209 9.14721e-20)
(0.485249 -0.562264 -6.97602e-20)
(0.594721 -0.659582 7.6454e-20)
(0.702085 -0.747258 1.67701e-19)
(0.806443 -0.825301 -8.45811e-20)
(0.907853 -0.892992 -2.98667e-19)
(1.0062 -0.947966 7.20335e-19)
(0.0645953 -0.0807747 -2.4212e-20)
(0.19387 -0.225103 -5.80288e-19)
(0.325005 -0.358215 5.25747e-19)
(0.456448 -0.479493 3.34509e-19)
(0.586522 -0.589685 -7.77951e-20)
(0.713982 -0.689338 2.92042e-19)
(0.837819 -0.778912 -1.62822e-19)
(0.957128 -0.858757 -7.27379e-19)
(1.07211 -0.928112 -3.95956e-19)
(1.18278 -0.983907 4.43104e-19)
(0.0797451 -0.0849033 -8.00763e-20)
(0.236217 -0.235078 -5.4016e-19)
(0.392811 -0.371591 -5.02155e-21)
(0.54794 -0.494304 6.38124e-20)
(0.699942 -0.604466 3.32631e-19)
(0.84767 -0.702991 -1.73969e-19)
(0.990203 -0.790601 -1.53053e-19)
(1.12661 -0.867637 1.75225e-19)
(1.25673 -0.933083 -3.39287e-19)
(1.37978 -0.985296 -5.75274e-19)
(0.400624 -0.545339 1.00805e-18)
(0.682136 -0.621213 -4.28246e-19)
(0.903467 -0.537497 -1.95905e-19)
(1.05871 -0.388577 3.20049e-19)
(1.17202 -0.240639 -2.29478e-19)
(1.23062 -0.146225 -2.29105e-19)
(1.26427 -0.0929263 -2.51978e-19)
(1.286 -0.0585877 -6.27874e-20)
(1.29915 -0.034329 2.70294e-19)
(1.30701 -0.0120244 6.37671e-20)
(0.466726 -0.633216 9.71952e-19)
(0.738624 -0.695571 1.23268e-19)
(0.955289 -0.594024 6.72186e-21)
(1.09545 -0.429847 -2.58996e-19)
(1.19699 -0.265522 -7.25359e-19)
(1.24791 -0.15962 0)
(1.27611 -0.100786 -2.22758e-19)
(1.29438 -0.0633226 9.62552e-20)
(1.30549 -0.0369454 9.70206e-21)
(1.31206 -0.0128991 -8.81683e-20)
(0.554589 -0.719001 -9.98659e-19)
(0.807767 -0.767741 -7.17457e-20)
(1.01392 -0.649027 1.67657e-19)
(1.13713 -0.469471 -4.75117e-20)
(1.22395 -0.289402 -4.33799e-20)
(1.26634 -0.17192 9.6311e-20)
(1.2887 -0.107739 0)
(1.30331 -0.0674266 0)
(1.31223 -0.0391877 -7.94366e-20)
(1.31744 -0.0136539 0)
(0.664546 -0.800818 -2.1026e-19)
(0.891935 -0.835779 3.53105e-19)
(1.07941 -0.701662 1.69902e-20)
(1.1838 -0.506926 0)
(1.25321 -0.312045 5.63092e-19)
(1.28582 -0.183084 -1.24233e-19)
(1.30197 -0.113747 0)
(1.31269 -0.0708708 1.652e-19)
(1.31931 -0.0410357 0)
(1.32309 -0.0142731 1.87138e-20)
(0.79462 -0.877281 -1.59174e-19)
(0.992643 -0.897726 3.45792e-19)
(1.15218 -0.75088 -9.08478e-21)
(1.23514 -0.541795 0)
(1.28502 -0.333161 1.38835e-19)
(1.30626 -0.193066 2.16933e-19)
(1.31583 -0.118782 1.01375e-19)
(1.32245 -0.0736304 1.95757e-20)
(1.32664 -0.0424704 -5.35853e-20)
(1.32893 -0.0147576 5.65827e-20)
(0.940954 -0.947634 -1.13031e-18)
(1.1097 -0.952191 -7.06675e-19)
(1.23276 -0.795422 2.39718e-21)
(1.29069 -0.573655 3.59334e-19)
(1.31933 -0.352426 -1.94941e-19)
(1.32758 -0.201838 1.17873e-19)
(1.33016 -0.122835 1.56459e-19)
(1.3325 -0.0756852 -2.20137e-19)
(1.33414 -0.0434746 -4.17265e-21)
(1.33489 -0.0151005 3.72817e-21)
(1.09874 -1.01154 -2.21292e-19)
(1.2413 -0.998852 1.94107e-19)
(1.32154 -0.834075 -1.46256e-21)
(1.35014 -0.601977 -9.18794e-21)
(1.35598 -0.369436 -3.90585e-19)
(1.34978 -0.209242 7.86987e-20)
(1.34488 -0.125876 -7.08466e-20)
(1.34275 -0.0770106 -7.99391e-20)
(1.34172 -0.0440292 1.98259e-20)
(1.34091 -0.0152914 -3.92513e-20)
(1.26301 -1.0679 -1.27629e-18)
(1.38428 -1.03821 1.27829e-19)
(1.41778 -0.866112 0)
(1.41264 -0.626432 9.0067e-21)
(1.39407 -0.384165 3.15661e-19)
(1.37251 -0.215351 1.33068e-20)
(1.3598 -0.127972 -2.45438e-19)
(1.35311 -0.0776027 6.55083e-20)
(1.3493 -0.0441162 -4.45913e-22)
(1.34691 -0.0153255 -1.10134e-21)
(1.43078 -1.11335 3.47874e-18)
(1.53623 -1.07115 3.83702e-19)
(1.52175 -0.892133 2.86372e-19)
(1.47901 -0.647368 -1.36907e-20)
(1.43411 -0.396815 -2.94187e-20)
(1.39642 -0.219764 -2.63818e-19)
(1.37499 -0.128724 4.73757e-20)
(1.36353 -0.0773271 9.88458e-21)
(1.35682 -0.0436819 -6.50539e-20)
(1.35281 -0.0151641 -6.99386e-20)
(1.5982 -1.13673 -3.0713e-18)
(1.68924 -1.09671 1.42544e-18)
(1.62799 -0.914775 3.54381e-21)
(1.5453 -0.668083 -3.27372e-19)
(1.47271 -0.410975 -3.45999e-19)
(1.41928 -0.226007 -1.68892e-19)
(1.38967 -0.129782 -7.02665e-20)
(1.37376 -0.0766547 0)
(1.36416 -0.0429004 1.39442e-20)
(1.35855 -0.0148798 2.66574e-20)
(1.88619 -1.17699 -7.09336e-18)
(1.91186 -1.10329 -2.08366e-18)
(1.77501 -0.906682 5.03652e-19)
(1.63486 -0.659471 4.49379e-20)
(1.52515 -0.403723 1.3295e-19)
(1.45286 -0.219706 -6.78011e-20)
(1.41117 -0.125115 3.54468e-20)
(1.38763 -0.073303 5.01294e-20)
(1.37356 -0.0407987 -4.9444e-20)
(1.36569 -0.0142959 1.45163e-20)
(2.28402 -1.1368 5.51263e-19)
(2.15776 -1.04746 -3.61794e-19)
(1.91115 -0.836112 1.06651e-18)
(1.70514 -0.600456 -2.67361e-19)
(1.55583 -0.362068 8.64117e-19)
(1.47113 -0.195245 2.64791e-19)
(1.42833 -0.11243 1.42843e-19)
(1.40101 -0.0659092 -1.55396e-20)
(1.38319 -0.0366979 7.68074e-20)
(1.3734 -0.0132349 6.42333e-20)
(2.60246 -1.04232 2.24395e-18)
(2.33404 -0.939965 3.24015e-19)
(1.99481 -0.737439 -1.36478e-19)
(1.7411 -0.525378 -7.00643e-36)
(1.56792 -0.317747 -1.75368e-20)
(1.48276 -0.175447 7.32717e-34)
(1.43731 -0.100097 -5.196e-20)
(1.40331 -0.0570454 -4.04053e-33)
(1.3807 -0.0312674 1.88178e-20)
(1.36709 -0.0115281 -5.80312e-20)
(2.78135 -0.892318 4.04728e-33)
(2.36638 -0.788972 2.6607e-18)
(1.98335 -0.612607 1.50608e-18)
(1.69088 -0.428029 0)
(1.49804 -0.256953 8.40407e-19)
(1.39772 -0.142364 3.87509e-19)
(1.34046 -0.0780097 1.60319e-19)
(1.30223 -0.0424243 -6.5798e-33)
(1.279 -0.022389 3.14904e-20)
(1.26386 -0.00921704 5.45162e-20)
(2.76124 -0.70438 3.88564e-18)
(2.24739 -0.623806 -1.5227e-19)
(1.8592 -0.476289 0)
(1.54652 -0.32932 0)
(1.33912 -0.200238 0)
(1.22998 -0.113571 0)
(1.17375 -0.0609934 -1.71661e-20)
(1.13929 -0.0318684 -7.24098e-33)
(1.11925 -0.0159919 1.72521e-20)
(1.10747 -0.00693125 6.32379e-33)
(2.54856 -0.516166 3.30684e-18)
(2.0197 -0.459502 0)
(1.64577 -0.34452 0)
(1.34757 -0.235852 0)
(1.15153 -0.144638 0)
(1.04692 -0.0838248 0)
(0.992799 -0.0449022 3.87827e-20)
(0.961824 -0.0227321 -3.91464e-20)
(0.944871 -0.0109542 1.67997e-20)
(0.935174 -0.00490377 6.30588e-20)
(2.18692 -0.342698 0)
(1.70045 -0.302214 1.20074e-18)
(1.36398 -0.222772 1.26487e-18)
(1.10429 -0.149475 0)
(0.934583 -0.0917607 7.31253e-19)
(0.841596 -0.0544791 3.13273e-19)
(0.792321 -0.029284 1.45644e-19)
(0.765565 -0.0143713 2.81444e-20)
(0.751881 -0.00657441 7.53633e-21)
(0.744356 -0.00305926 3.76631e-20)
(1.69986 -0.19137 -6.73911e-19)
(1.29746 -0.165224 -2.71937e-19)
(1.02538 -0.119432 1.75911e-19)
(0.822978 -0.0779212 -2.28285e-34)
(0.692809 -0.0480759 -9.83031e-20)
(0.619793 -0.0296598 2.78358e-33)
(0.579352 -0.0161537 4.97752e-20)
(0.557935 -0.0077361 1.06485e-19)
(0.547642 -0.00334975 1.51191e-20)
(0.542094 -0.00164747 -4.27404e-20)
(1.09876 -0.0759779 3.40623e-18)
(0.820964 -0.0626069 -2.01468e-19)
(0.640094 -0.043448 -6.05992e-19)
(0.510482 -0.0265777 0)
(0.428895 -0.0163907 -5.65408e-19)
(0.381913 -0.0107973 -3.14866e-19)
(0.354499 -0.00604774 -9.93169e-20)
(0.340096 -0.00286388 -6.75631e-20)
(0.333537 -0.00116402 7.39765e-20)
(0.330075 -0.00062976 3.32894e-20)
(0.396563 -0.00331262 0)
(0.286959 0.00157331 0)
(0.220639 0.00392259 0)
(0.175292 0.00573443 0)
(0.147998 0.00459489 0)
(0.131623 0.00296997 0)
(0.121171 0.00195988 5.18137e-20)
(0.11554 0.00107109 -1.81713e-34)
(0.113057 0.000571398 1.50404e-20)
(0.111742 0.000172454 3.85168e-20)
(3.36378 -0.0865129 5.37396e-19)
(3.32323 -0.265182 -8.4973e-20)
(3.24434 -0.430709 8.57466e-19)
(3.12959 -0.582246 -6.04668e-19)
(2.98378 -0.718349 6.72353e-19)
(2.81291 -0.836872 2.80326e-19)
(2.62448 -0.93497 -1.93561e-18)
(2.42756 -1.00936 -8.11542e-20)
(2.22288 -1.05601 0)
(1.98334 -1.06999 4.38768e-19)
(3.85871 -0.0754253 7.10907e-18)
(3.79555 -0.23446 1.96575e-18)
(3.70131 -0.387468 -4.89625e-18)
(3.58136 -0.532112 -4.54454e-19)
(3.43953 -0.666028 3.5832e-18)
(3.27902 -0.787521 1.94375e-18)
(3.10364 -0.89541 -5.2157e-18)
(2.91908 -0.988263 -1.96407e-18)
(2.72442 -1.06427 2.20734e-18)
(2.4891 -1.12184 8.62563e-19)
(3.82907 -0.0536708 -1.25719e-19)
(3.81611 -0.171766 4.41292e-18)
(3.78132 -0.2998 -1.09082e-18)
(3.72022 -0.430833 -3.45297e-18)
(3.63207 -0.558546 -6.81056e-18)
(3.51953 -0.678522 1.02906e-17)
(3.38681 -0.788413 4.18055e-18)
(3.23883 -0.88751 -3.90692e-18)
(3.07653 -0.978139 -2.89409e-18)
(2.88179 -1.0622 -3.41296e-18)
(3.62458 -0.0474688 -4.85813e-18)
(3.61547 -0.145054 -4.37169e-18)
(3.59548 -0.243797 5.49564e-18)
(3.56322 -0.343063 1.92099e-18)
(3.51833 -0.442235 -9.00928e-18)
(3.46015 -0.54054 4.98719e-19)
(3.38784 -0.636644 3.8936e-18)
(3.30106 -0.729872 -1.0587e-18)
(3.20068 -0.822313 1.27769e-18)
(3.07834 -0.91373 2.79004e-19)
(3.33989 -0.0367022 -9.20388e-19)
(3.33478 -0.111729 3.01745e-18)
(3.32285 -0.188693 1.62764e-18)
(3.30318 -0.267124 -1.90617e-18)
(3.27563 -0.345938 -2.01162e-18)
(3.24051 -0.423892 -2.44378e-18)
(3.19805 -0.499943 3.811e-19)
(3.14798 -0.573927 1.45077e-19)
(3.09195 -0.647007 -2.16295e-18)
(3.02957 -0.720378 -2.05579e-18)
(2.95865 -0.0266216 -1.83032e-18)
(2.95584 -0.0799233 -5.87807e-20)
(2.94929 -0.134602 -1.64513e-18)
(2.93834 -0.190875 3.13578e-19)
(2.92265 -0.248494 5.39349e-18)
(2.90218 -0.306843 -3.69148e-19)
(2.87683 -0.364991 4.46813e-20)
(2.84624 -0.421873 -2.62608e-18)
(2.8126 -0.476592 -3.52754e-18)
(2.78242 -0.529422 3.75658e-19)
(2.48376 -0.0175398 -2.88311e-20)
(2.48237 -0.0519427 -8.17853e-19)
(2.47913 -0.0872362 -2.62674e-18)
(2.47356 -0.123741 -3.44722e-18)
(2.46523 -0.161492 2.50811e-18)
(2.45382 -0.200222 1.50941e-18)
(2.43894 -0.239317 -1.39129e-18)
(2.42 -0.277773 1.63377e-18)
(2.39905 -0.314484 -4.34756e-19)
(2.38589 -0.349542 -9.72253e-19)
(1.91211 -0.00969618 7.756e-19)
(1.91151 -0.0282951 -8.34996e-19)
(1.91017 -0.0474277 -3.27111e-20)
(1.90767 -0.0673393 -3.54242e-20)
(1.90353 -0.0881069 -7.36933e-20)
(1.89736 -0.109595 -2.34221e-18)
(1.88866 -0.131401 -6.825e-19)
(1.87686 -0.152809 2.64e-18)
(1.86364 -0.173045 -6.07885e-19)
(1.85884 -0.192326 -1.35475e-18)
(1.23838 -0.00373692 -1.64905e-18)
(1.23815 -0.0106919 -8.5177e-19)
(1.2377 -0.0178949 2.34881e-18)
(1.23667 -0.0254708 -8.92687e-19)
(1.23465 -0.0334686 -6.77455e-19)
(1.23124 -0.0418309 1.35956e-18)
(1.22603 -0.0503624 -1.30291e-18)
(1.21858 -0.0587003 1.29376e-18)
(1.21013 -0.0664097 -1.2155e-18)
(1.20807 -0.0736112 -4.26497e-18)
(0.454487 -0.000257186 6.65396e-19)
(0.454395 -0.000698837 7.05522e-19)
(0.454255 -0.00115645 7.5092e-19)
(0.453879 -0.00163635 1.35919e-18)
(0.453037 -0.00213544 -6.75018e-19)
(0.451506 -0.00263156 -1.30471e-18)
(0.449064 -0.00309284 6.17428e-19)
(0.445452 -0.00358654 2.45928e-20)
(0.441143 -0.00438762 -4.92613e-20)
(0.43969 -0.00504287 1.09914e-19)
(1.65047 0.996224 -2.84372e-19)
(1.50961 0.941094 1.84929e-20)
(1.35656 0.880185 -2.30246e-19)
(1.19585 0.808041 1.79873e-19)
(1.02814 0.723702 -1.896e-19)
(0.853767 0.626901 -1.02999e-19)
(0.673057 0.516846 2.28612e-19)
(0.486653 0.39212 -3.07252e-19)
(0.29576 0.250663 3.0695e-19)
(0.101442 0.0916712 2.39939e-19)
(1.88309 0.991111 0)
(1.72674 0.933856 6.4116e-19)
(1.55827 0.872035 3.3903e-19)
(1.38011 0.801237 1.60017e-19)
(1.19274 0.719363 4.24979e-19)
(0.996137 0.625475 -8.80849e-20)
(0.790352 0.518272 -7.98913e-20)
(0.57571 0.395757 9.29773e-20)
(0.353006 0.255043 -1.04029e-18)
(0.122634 0.0943177 -1.43443e-20)
(2.08766 0.95793 1.58066e-19)
(1.92211 0.904083 0)
(1.74333 0.845573 -1.0163e-19)
(1.55247 0.778751 -3.82259e-19)
(1.3496 0.70137 5.41925e-20)
(1.13439 0.612173 3.91421e-19)
(0.906492 0.509581 -6.04342e-19)
(0.665715 0.391257 -1.97897e-19)
(0.412116 0.253808 7.79775e-19)
(0.145116 0.0946556 -1.77178e-19)
(2.28142 0.897236 1.91159e-19)
(2.1072 0.849508 1.25183e-20)
(1.9183 0.796872 2.51803e-20)
(1.71541 0.736081 3.53384e-20)
(1.49822 0.66502 -3.37681e-20)
(1.26596 0.582397 2.71031e-19)
(1.01773 0.486557 -2.03883e-19)
(0.752597 0.375067 -8.55007e-19)
(0.469649 0.244387 0)
(0.167196 0.091596 0)
(2.4645 0.810719 -1.07372e-18)
(2.28101 0.76977 -6.09565e-19)
(2.08178 0.72404 -1.22115e-19)
(1.86714 0.670563 -6.69488e-20)
(1.63635 0.607417 0)
(1.38814 0.533365 2.41974e-19)
(1.12103 0.446793 2.69052e-19)
(0.833322 0.345351 2.87565e-19)
(0.523111 0.22565 -4.25531e-19)
(0.187673 0.0847943 -8.15405e-20)
(2.63049 0.70106 7.66266e-19)
(2.43813 0.66705 -1.39936e-19)
(2.22917 0.628703 -2.23458e-19)
(2.00362 0.583387 0)
(1.76031 0.52944 0)
(1.49757 0.465754 0)
(1.21337 0.390859 -3.65689e-20)
(0.905344 0.302638 3.6788e-19)
(0.570697 0.198069 3.76884e-19)
(0.205821 0.0745298 -3.0899e-19)
(2.77225 0.571438 -1.19513e-18)
(2.57201 0.54436 -1.48413e-18)
(2.35452 0.513665 -3.05523e-22)
(2.11949 0.477138 -1.87996e-19)
(1.86538 0.433449 -9.33029e-20)
(1.59018 0.381682 -1.78113e-19)
(1.29139 0.320606 4.59845e-19)
(0.966084 0.248454 2.12555e-19)
(0.61074 0.162733 5.41711e-19)
(0.221038 0.061263 2.03482e-19)
(2.88351 0.424991 -1.15988e-18)
(2.67675 0.404897 8.5089e-20)
(2.45238 0.382122 1.65228e-19)
(2.20981 0.354965 1.67333e-20)
(1.9472 0.322472 -3.1536e-19)
(1.66221 0.283972 -1.73773e-19)
(1.35201 0.238538 -6.23621e-19)
(1.0132 0.18485 1.17894e-19)
(0.641745 0.121063 5.19955e-20)
(0.232785 0.0455566 -6.21677e-21)
(2.95925 0.26463 1.01126e-19)
(2.7477 0.251824 3.98737e-19)
(2.51851 0.237411 -3.31644e-19)
(2.27078 0.220293 3.64627e-19)
(2.00239 0.199904 3.7414e-19)
(1.71077 0.175846 4.93891e-19)
(1.39284 0.147549 -6.38517e-19)
(1.0449 0.114205 -3.25338e-19)
(0.662553 0.074702 -4.58957e-20)
(0.240637 0.0280614 -3.28054e-19)
(2.99703 0.0932445 5.83159e-19)
(2.78266 0.0884843 -1.85637e-19)
(2.55092 0.0831774 4.81629e-19)
(2.30055 0.07692 -3.13328e-19)
(2.02927 0.069536 2.67156e-19)
(1.73437 0.0609093 6.08701e-19)
(1.41262 0.0508653 3.81049e-19)
(1.0602 0.0391596 3.10094e-19)
(0.672551 0.0254661 2.66766e-19)
(0.24438 0.00949569 5.4537e-19)
(0.237045 0.445503 -4.38176e-19)
(0.202083 0.413304 -1.90326e-19)
(0.16741 0.378326 1.84004e-19)
(0.13392 0.341179 -6.24469e-19)
(0.102732 0.302742 -1.41234e-19)
(0.0745418 0.262381 6.21836e-19)
(0.0490267 0.216234 2.44177e-19)
(0.0261478 0.1584 -3.83686e-20)
(0.00865787 0.0886529 1.31702e-19)
(-0.000960088 0.026404 -7.97353e-20)
(0.287083 0.53633 3.64227e-19)
(0.24715 0.50052 4.06871e-19)
(0.207479 0.460722 -1.55738e-20)
(0.168559 0.416618 -1.91224e-19)
(0.131661 0.368729 -4.22419e-19)
(0.098794 0.317561 7.56802e-20)
(0.0699302 0.26065 1.1274e-19)
(0.0434707 0.191775 1.24647e-19)
(0.0197581 0.109795 -4.56453e-19)
(0.00302816 0.0337449 -1.26351e-19)
(0.359631 0.625655 -5.86527e-19)
(0.313211 0.58603 -4.56035e-19)
(0.267173 0.54117 2.5436e-19)
(0.221638 0.490315 2.00096e-19)
(0.177328 0.4329 -4.92928e-22)
(0.136479 0.369572 -7.17674e-20)
(0.0998055 0.299863 -2.42212e-20)
(0.0657453 0.220259 -3.82328e-19)
(0.0339787 0.130232 -1.87281e-19)
(0.0077986 0.0421667 -3.52081e-20)
(0.455391 0.711844 5.12471e-19)
(0.400785 0.668299 1.67196e-19)
(0.346343 0.61781 -1.502e-19)
(0.292201 0.559856 1.28548e-19)
(0.238634 0.493632 -1.55802e-20)
(0.18726 0.419484 -1.46986e-20)
(0.139131 0.337921 -1.75331e-19)
(0.093756 0.247906 2.67322e-19)
(0.0512462 0.149727 -2.94558e-19)
(0.0136868 0.0505086 -5.15896e-20)
(0.573085 0.793097 -2.88306e-19)
(0.508867 0.745874 -8.99792e-20)
(0.444183 0.689696 -1.39505e-20)
(0.379252 0.624629 -5.08033e-20)
(0.314207 0.55034 4.7586e-20)
(0.250156 0.467129 5.67969e-20)
(0.188149 0.375649 -4.70807e-20)
(0.128652 0.276005 -1.97452e-19)
(0.0724579 0.168822 1.61511e-19)
(0.0210718 0.0583653 7.19042e-20)
(0.709599 0.867326 6.59286e-19)
(0.63474 0.816802 3.28576e-19)
(0.55852 0.755381 2.13104e-19)
(0.48116 0.683922 4.94314e-20)
(0.402745 0.602685 1.40751e-19)
(0.324202 0.512008 7.09362e-20)
(0.246551 0.41238 1.38659e-19)
(0.170783 0.304113 4.56035e-20)
(0.0981936 0.187689 1.83834e-20)
(0.0301848 0.0658623 5.35886e-22)
(0.861246 0.932268 -1.22245e-19)
(0.775085 0.878814 -8.46425e-19)
(0.686483 0.81285 -8.8823e-20)
(0.59566 0.736145 -3.34834e-20)
(0.502626 0.649384 -1.02837e-20)
(0.408278 0.552815 1.50468e-19)
(0.313629 0.44664 -4.58327e-20)
(0.219869 0.330953 8.09726e-20)
(0.128546 0.205816 -1.70732e-19)
(0.0411034 0.0729974 -9.95529e-22)
(1.02515 0.984213 -8.95556e-19)
(0.927286 0.928419 6.06434e-20)
(0.825818 0.859019 -2.34302e-19)
(0.72092 0.778619 -7.77774e-20)
(0.612475 0.688066 -2.97071e-20)
(0.501367 0.587366 -7.71648e-20)
(0.388585 0.476356 5.84028e-20)
(0.27534 0.354764 6.24917e-20)
(0.163239 0.222139 -1.01066e-20)
(0.0537285 0.07945 -1.10868e-19)
(1.20171 1.0166 1.24945e-19)
(1.09174 0.96009 5.24336e-19)
(0.976885 0.889257 1.57335e-21)
(0.857221 0.807407 -3.03426e-20)
(0.732471 0.715384 1.52831e-19)
(0.603508 0.612804 -3.50586e-19)
(0.471266 0.499117 -2.46299e-19)
(0.336891 0.373634 3.56913e-19)
(0.20195 0.235404 1.45911e-19)
(0.0678469 0.0847417 -3.97293e-20)
(1.39793 1.01441 7.43451e-19)
(1.27584 0.961627 3.23623e-19)
(1.14602 0.894936 5.89775e-20)
(1.00946 0.816184 -1.93115e-19)
(0.866223 0.72647 -1.48701e-20)
(0.717193 0.625403 4.66812e-19)
(0.563185 0.512158 -2.71091e-19)
(0.405204 0.385679 -1.84908e-19)
(0.244747 0.244522 3.3566e-19)
(0.0831993 0.088551 -7.97586e-21)
(0.934535 0.0924946 1.0055e-20)
(1.17307 0.161894 -4.4686e-20)
(1.1474 0.174585 -6.73873e-20)
(1.19805 0.170308 0)
(1.20082 0.187968 1.53067e-20)
(1.1677 0.245695 -3.69815e-20)
(1.06963 0.37173 -7.3499e-20)
(0.920301 0.52717 -1.29889e-19)
(0.700149 0.635981 -1.46063e-19)
(0.412283 0.585819 6.54169e-19)
(0.931358 0.0737316 1.90038e-19)
(1.16764 0.143242 -1.13242e-19)
(1.14639 0.159265 3.07472e-21)
(1.20125 0.165369 2.49153e-20)
(1.21114 0.192826 -7.97506e-21)
(1.18743 0.264222 -9.89354e-21)
(1.10178 0.409836 1.02008e-19)
(0.968257 0.582868 0)
(0.753592 0.711335 4.38584e-19)
(0.477705 0.676021 -4.25354e-19)
(0.928557 0.0562403 -9.95489e-20)
(1.16525 0.123838 1.0349e-20)
(1.1477 0.14345 4.38618e-20)
(1.20748 0.158982 2.55729e-20)
(1.22427 0.195915 2.25034e-20)
(1.20993 0.281289 -5.84459e-20)
(1.1392 0.446169 6.48657e-20)
(1.02278 0.637187 2.84442e-20)
(0.819179 0.784556 1.89124e-22)
(0.565214 0.76348 -7.36701e-19)
(0.926272 0.0395253 -2.80489e-20)
(1.16558 0.103658 1.79533e-20)
(1.15131 0.127161 -3.35725e-21)
(1.21659 0.151405 -2.13921e-20)
(1.24008 0.197504 -1.54702e-20)
(1.23551 0.296998 -3.12114e-20)
(1.18173 0.480448 -5.08567e-20)
(1.08369 0.68949 1.764e-20)
(0.899274 0.853678 -3.64687e-19)
(0.675349 0.846123 -1.9401e-19)
(0.924562 0.023135 -2.71996e-20)
(1.16842 0.0826803 9.43407e-21)
(1.15715 0.110464 2.62055e-20)
(1.22835 0.142881 -2.26268e-20)
(1.25839 0.197867 0)
(1.26427 0.311393 0)
(1.22882 0.512553 -1.45999e-20)
(1.15128 0.73889 -1.92472e-20)
(0.995678 0.916607 -1.10283e-19)
(0.806111 0.922391 -4.79999e-20)
(0.923476 0.00666708 -2.60921e-20)
(1.17357 0.0608572 -7.86755e-21)
(1.16518 0.0934787 9.48022e-20)
(1.24252 0.133647 -3.10971e-20)
(1.27893 0.197311 -1.98089e-20)
(1.29596 0.324498 3.95164e-20)
(1.27982 0.54234 6.00341e-20)
(1.22621 0.784161 -1.29508e-20)
(1.10858 0.971743 3.43343e-20)
(0.95342 0.991519 -3.7348e-20)
(0.923078 -0.0102651 1.53545e-19)
(1.18087 0.0381053 -2.84787e-20)
(1.17532 0.0763615 2.08675e-20)
(1.25882 0.123894 -8.45956e-22)
(1.30148 0.195953 4.52596e-20)
(1.33023 0.336157 1.54942e-20)
(1.33441 0.569449 -4.57312e-20)
(1.30914 0.823972 -2.74478e-19)
(1.23643 1.01859 5.88239e-20)
(1.11214 1.05331 -1.04854e-18)
(0.923417 -0.0279352 6.02118e-20)
(1.19019 0.0143462 5.57983e-20)
(1.18758 0.0593 -7.16385e-20)
(1.27691 0.113848 4.73145e-20)
(1.3254 0.194233 1.79642e-20)
(1.36601 0.346669 -1.97557e-20)
(1.3918 0.593646 -3.50738e-20)
(1.39961 0.857422 2.85007e-19)
(1.37616 1.05763 1.10455e-20)
(1.27695 1.10693 2.96945e-18)
(0.924359 -0.0463691 -3.00822e-19)
(1.20155 -0.010383 -3.60521e-20)
(1.20215 0.042555 -4.00981e-20)
(1.29662 0.103564 -3.85955e-20)
(1.35102 0.191764 -7.53988e-20)
(1.40398 0.356131 1.5466e-20)
(1.45318 0.615222 7.89354e-20)
(1.49826 0.885005 4.11345e-21)
(1.52535 1.08986 -2.61055e-20)
(1.4446 1.14923 -6.53584e-18)
(0.925582 -0.0658891 5.39128e-21)
(1.21516 -0.0356041 -6.8991e-20)
(1.21908 0.0264574 -4.4991e-20)
(1.31778 0.0942534 -1.12805e-19)
(1.37652 0.192133 -6.67708e-20)
(1.44055 0.368868 6.47731e-21)
(1.51439 0.638022 -1.80241e-19)
(1.59951 0.909853 -9.74803e-19)
(1.67619 1.11491 -1.23321e-18)
(1.61141 1.16942 -8.10575e-18)
(0.929169 -0.096316 -1.71861e-20)
(1.23208 -0.0686214 1.88241e-20)
(1.24059 0.00199905 4.69216e-20)
(1.34362 0.0772431 -1.35953e-19)
(1.41097 0.17958 -3.471e-20)
(1.4903 0.359321 -4.15838e-20)
(1.5978 0.629213 8.00252e-20)
(1.73907 0.90001 -2.06053e-18)
(1.89222 1.11677 -1.75167e-18)
(1.89407 1.20536 3.42249e-18)
(0.936308 -0.141503 -4.16524e-19)
(1.2529 -0.111192 -1.11482e-19)
(1.26434 -0.0358803 7.73594e-21)
(1.36921 0.0491119 -1.47631e-19)
(1.43594 0.149883 -5.76572e-20)
(1.52111 0.316683 -3.19095e-19)
(1.66313 0.569889 -1.65746e-19)
(1.86665 0.825612 -6.80518e-19)
(2.12567 1.05229 2.88612e-19)
(2.27689 1.15444 -3.59377e-19)
(0.938814 -0.190556 -2.66704e-20)
(1.27395 -0.157763 -4.35577e-20)
(1.28754 -0.0728916 3.29337e-20)
(1.39324 0.0241613 5.69827e-20)
(1.45934 0.126426 6.48377e-34)
(1.54026 0.277393 -2.59877e-20)
(1.70254 0.500201 -2.99524e-33)
(1.94959 0.727474 2.03723e-19)
(2.29361 0.940389 -9.37083e-19)
(2.57965 1.05113 -6.26269e-19)
(0.934273 -0.240717 1.49069e-18)
(1.29167 -0.20555 -5.68082e-34)
(1.30784 -0.114744 -3.92362e-20)
(1.40167 -0.00493145 -4.34116e-20)
(1.44225 0.100254 -3.70423e-19)
(1.51022 0.227771 -8.12996e-19)
(1.67343 0.409684 -5.39473e-33)
(1.95149 0.605608 -1.50189e-18)
(2.3321 0.789695 -2.93789e-18)
(2.75155 0.896774 1.6874e-18)
(0.924422 -0.296538 0)
(1.30511 -0.245822 -4.11757e-33)
(1.24996 -0.142377 0)
(1.25446 -0.0163249 0)
(1.27163 0.0794874 0)
(1.35146 0.179009 0)
(1.53724 0.314424 -9.6883e-33)
(1.84012 0.470195 0)
(2.22329 0.623839 -3.52188e-19)
(2.73714 0.707395 1.27545e-18)
(0.911374 -0.357462 1.07025e-19)
(1.27933 -0.290253 -4.78818e-19)
(1.06274 -0.129066 -6.79116e-20)
(1.05751 -0.012383 0)
(1.07879 0.0629557 0)
(1.16103 0.132981 7.94597e-20)
(1.34137 0.226758 1.46251e-18)
(1.63344 0.340269 -2.02767e-19)
(2.00283 0.459711 -5.03358e-19)
(2.53349 0.517549 4.68573e-18)
(0.879999 -0.404721 -1.52623e-17)
(1.10631 -0.264653 9.28296e-19)
(0.863292 -0.102511 -8.2361e-20)
(0.844567 -0.0120306 -1.77817e-19)
(0.865373 0.042331 -3.87486e-19)
(0.942616 0.0861926 -6.82414e-19)
(1.10139 0.144631 -1.21191e-18)
(1.35665 0.220571 -1.59013e-18)
(1.69005 0.302932 -1.74699e-18)
(2.17915 0.34334 3.72823e-18)
(0.806951 -0.394453 -4.10453e-19)
(0.891393 -0.20035 -1.21417e-18)
(0.644767 -0.0686463 -1.2908e-19)
(0.616558 -0.00980437 -8.14854e-20)
(0.635654 0.0238583 -2.46861e-34)
(0.699484 0.0461373 1.18611e-19)
(0.822895 0.0757732 -1.70579e-32)
(1.02221 0.118535 -1.9881e-19)
(1.29276 0.165962 2.97082e-19)
(1.69775 0.191811 7.04963e-19)
(0.663222 -0.288782 3.43366e-17)
(0.618995 -0.105445 -3.08142e-18)
(0.410578 -0.030623 -2.39183e-19)
(0.377221 -0.00559788 -3.09973e-20)
(0.390825 0.00885407 3.00624e-19)
(0.433705 0.0161106 6.90426e-19)
(0.511897 0.0259375 7.58728e-19)
(0.639751 0.0432082 4.64577e-19)
(0.82024 0.0630372 -1.69002e-19)
(1.10017 0.0762186 3.5467e-18)
(0.336506 -0.0768639 5.59096e-19)
(0.261754 -0.00244391 -6.77077e-33)
(0.149423 0.0168051 -3.00746e-19)
(0.131355 0.00187376 0)
(0.135087 -0.00144506 0)
(0.150218 -0.00405966 1.11998e-19)
(0.176608 -0.00557693 5.76785e-35)
(0.221377 -0.00388221 -1.28284e-19)
(0.287783 -0.00151864 -2.80385e-19)
(0.398416 0.0033346 9.99514e-19)
(1.99805 1.0946 -1.78723e-18)
(2.23508 1.0768 -2.31616e-18)
(2.43824 1.02763 0)
(2.63338 0.951168 -7.69019e-19)
(2.81998 0.851306 -1.80919e-18)
(2.98921 0.731324 -2.2612e-18)
(3.13355 0.594122 -4.93115e-19)
(3.24703 0.441938 1.27492e-18)
(3.32476 0.276386 -3.56129e-18)
(3.36422 0.0983218 1.36133e-18)
(2.4931 1.13812 2.55311e-19)
(2.72528 1.07878 1.39576e-18)
(2.91904 1.00163 1.47474e-19)
(3.1023 0.907727 6.64596e-19)
(3.27647 0.798997 -1.10039e-18)
(3.43607 0.676998 -5.00233e-18)
(3.57724 0.542946 2.47507e-18)
(3.69688 0.398455 1.27355e-17)