/*--------------------------------*- C++ -*----------------------------------*\
  =========                 |
  \\      /  F ield         | OpenFOAM: The Open Source CFD Toolbox
   \\    /   O peration     | Website:  https://openfoam.org
    \\  /    A nd           | Version:  13
     \\/     M anipulation  |
\*---------------------------------------------------------------------------*/
FoamFile
{
    format      ascii;
    class       volScalarField;
    location    "40.8";
    object      p;
}
// * * * * * * * * * * * * * * * * * * * * * * * * * * * * * * * * * * * * * //

dimensions      [0 2 -2 0 0 0 0];

internalField   nonuniform List<scalar> 
440
(
-0.572924
-0.555443
-0.607717
-0.522154
-0.596193
-0.567871
-0.559708
-0.552985
-0.53751
-0.529422
-0.687293
-0.658036
-0.627314
-0.589243
-0.545504
-0.811528
-0.766341
-0.690355
-0.598969
-0.506347
-0.908117
-0.846859
-0.710418
-0.566939
-0.433964
-1.17999
-1.1533
-1.11674
-1.07836
-1.04722
-1.16182
-1.14317
-1.12436
-1.11247
-1.11608
-1.10935
-1.13415
-1.19918
-1.29296
-1.40176
-0.808616
-0.860139
-0.96813
-1.10686
-1.20438
-0.261281
-0.305586
-0.345319
-0.328891
-0.271308
-0.888495
-1.83447
-1.47731
0.0943501
0.019326
-0.771603
-1.75969
-1.64524
0.0258077
-0.00809136
-0.629941
-1.53612
-1.63134
-0.0316196
-0.0172792
-0.446656
-1.24906
-1.48179
-0.07948
-0.019996
-0.24381
-1.02757
-1.29699
-0.122109
-0.0280719
0.192578
-0.883635
-1.04092
-0.137601
-0.0351394
-0.0541271
-0.657539
-0.712788
-0.13149
-0.0341579
-0.0122925
-0.417725
-0.49105
-0.162346
-0.0453615
0.0613303
-0.296681
-0.389404
-0.160263
-0.0594645
0.0973252
-0.126708
-0.32466
-0.189643
-0.0674889
-0.202713
-0.332793
-0.468369
-0.625405
-0.684142
0.0251719
-0.103375
-0.164623
-0.199082
-0.181603
0.169832
0.0703448
0.0086649
-0.0300115
-0.051111
0.263568
0.17278
0.100182
0.0604003
0.0350071
0.307502
0.216633
0.140246
0.101359
0.0768259
0.997087
0.86052
0.687301
0.491792
0.270983
0.620883
0.470387
0.283314
0.0714211
-0.165044
0.24282
0.0872773
-0.107506
-0.33076
-0.538247
-0.0740838
-0.235406
-0.430402
-0.641093
-0.799811
-0.295103
-0.450182
-0.628503
-0.813496
-0.915566
2.13233
2.16514
2.19717
2.21638
2.2181
1.95972
1.98217
2.00068
2.00338
1.98567
1.74584
1.73965
1.71254
1.66363
1.59003
1.49729
1.46661
1.40309
1.30981
1.1878
1.24904
1.1594
1.03893
0.894805
0.718176
1.86766
1.86155
1.84685
1.90666
2.00823
1.85903
1.85075
1.83163
1.88783
1.9323
1.85141
1.83684
1.81349
1.85637
1.83486
1.84505
1.8205
1.79297
1.81247
1.68322
1.83994
1.80311
1.77053
1.76657
1.52121
1.83667
1.77549
1.74086
1.67286
1.33935
1.83761
1.74539
1.72768
1.55572
1.36222
1.84296
1.73171
1.71987
1.49951
1.34515
1.83893
1.70775
1.71751
1.45172
1.33258
1.87799
1.69968
1.71771
1.42509
1.33964
0.968881
0.703309
0.388138
0.133219
-0.0607175
0.912801
0.724599
0.505277
0.321812
0.149966
0.926329
0.765404
0.597189
0.438475
0.292143
0.965777
0.814946
0.665379
0.516986
0.386054
0.995809
0.849502
0.706896
0.561541
0.433169
-1.92759
-1.73659
-1.52989
-1.35679
-1.25131
-2.01558
-1.92381
-1.75134
-1.59462
-1.48444
-1.93885
-1.88046
-1.75299
-1.62211
-1.50595
-1.7769
-1.72463
-1.65306
-1.56722
-1.476
-1.60747
-1.57845
-1.54127
-1.49648
-1.44353
-1.51205
-1.50141
-1.46761
-1.49947
-1.44481
-1.4754
-1.46849
-1.45201
-1.49074
-1.44879
-1.42583
-1.42377
-1.42671
-1.44958
-1.46012
-1.33605
-1.33028
-1.32673
-1.32992
-1.33976
-1.2385
-1.22241
-1.20046
-1.17637
-1.16484
-1.15959
-1.12131
-0.309755
0.219217
0.0885558
-1.19007
-1.24532
-0.275206
0.158022
0.0815086
-1.18344
-1.40383
-0.221938
0.120862
0.0787203
-1.02038
-1.57987
-0.572661
0.147026
0.0810372
-0.904866
-1.74574
-1.08934
0.145198
0.0556272
-0.721116
-1.19187
-0.433207
0.229609
0.0930379
-1.07954
-1.14027
-0.298516
0.26083
0.0949431
-1.19138
-1.3998
-1.40936
-1.30758
-1.07396
-1.21344
-1.42308
-1.42368
-1.35631
-1.28325
1.67911
1.64607
1.59339
1.52222
1.4287
1.89111
1.90721
1.90576
1.88477
1.84483
2.07403
2.10453
2.12571
2.13318
2.12553
2.18444
2.2235
2.26468
2.29776
2.312
2.20453
2.24316
2.28647
2.32308
2.34027
-0.736674
-0.863654
-1.06239
-1.29744
-1.58879
-0.0658128
-0.22277
-0.430556
-0.681683
-1.01306
0.551588
0.390929
0.197077
-0.0330367
-0.330003
1.04878
0.921576
0.767732
0.581047
0.350016
1.44491
1.35556
1.2391
1.09881
0.931747
1.92578
1.88614
1.86825
1.86424
1.85874
1.91115
1.88441
1.86938
1.88611
1.93573
1.89885
1.88132
1.8707
1.90964
2.02263
1.88751
1.87682
1.86656
1.91896
2.04199
1.87711
1.87057
1.85838
1.91812
2.04345
1.9802
1.88989
1.85237
1.78076
1.71866
1.93549
1.88166
1.84867
1.80515
1.73022
1.31649
1.06028
0.622367
-0.009622
-0.696171
1.40839
1.09912
0.640328
0.012344
-0.689368
)
;

boundaryField
{
    left
    {
        type            zeroGradient;
    }
    right
    {
        type            fixedValue;
        value           uniform 0;
    }
    down
    {
        type            zeroGradient;
    }
    up
    {
        type            zeroGradient;
    }
    cylinder
    {
        type            zeroGradient;
    }
    defaultFaces
    {
        type            empty;
    }
}


// ************************************************************************* //
