/*--------------------------------*- C++ -*----------------------------------*\
  =========                 |
  \\      /  F ield         | OpenFOAM: The Open Source CFD Toolbox
   \\    /   O peration     | Website:  https://openfoam.org
    \\  /    A nd           | Version:  13
     \\/     M anipulation  |
\*---------------------------------------------------------------------------*/
FoamFile
{
    format      ascii;
    class       volScalarField;
    location    "0.655";
    object      strainRateViscosityModel:nu;
}
// * * * * * * * * * * * * * * * * * * * * * * * * * * * * * * * * * * * * * //

dimensions      [0 2 -1 0 0 0 0];

internalField   nonuniform List<scalar> 
440
(
9.41956
8.96972
8.54448
8.04236
7.58622
9.68996
9.35816
8.98176
8.48002
7.87556
9.80074
9.53084
9.15876
8.58508
7.84825
9.84962
9.61817
9.25861
8.64755
7.86606
9.86917
9.65607
9.30591
8.68094
7.90878
1.30534
1.79089
2.05049
2.30076
2.36479
3.3844
3.30269
3.31763
3.42628
3.49701
5.89224
5.2716
4.92844
4.72883
4.75864
7.76967
6.99347
6.42045
5.90513
5.82769
8.82071
8.15135
7.55206
6.91825
6.87172
1.85213
0.846081
0.41587
0.150488
0.127662
2.61776
0.910884
0.363978
0.113053
0.0286628
3.51372
1.15118
0.303769
0.0711235
0.0124281
4.09239
1.43869
0.277842
0.0436671
0.024031
4.60468
1.75599
0.325306
0.0119531
0.112942
4.22991
1.742
0.294564
0.0567412
0.275115
3.71086
1.8235
0.621805
0.316146
0.421881
4.91917
3.20875
1.23671
0.556316
0.553091
7.00945
4.28922
1.91526
0.901659
0.682262
8.27283
5.07715
2.49602
1.30819
0.861082
2.8483
3.68267
4.61986
5.50581
6.14917
3.68373
3.69657
3.77211
3.85205
3.36779
8.22652
8.08656
7.79931
7.38539
6.3463
9.05291
8.99237
8.85904
8.6215
8.16017
9.60671
9.56995
9.48702
9.33805
9.1188
7.50329
8.01244
8.55942
9.01088
9.4642
7.794
8.45163
8.98712
9.37787
9.70864
7.77898
8.55904
9.15942
9.54077
9.80944
7.81627
8.62755
9.25739
9.62275
9.85359
7.89134
8.67366
9.30535
9.65743
9.87034
2.52919
2.47028
2.2705
2.11635
2.04507
3.47899
3.43089
3.47107
3.69053
4.2422
4.637
4.65994
5.04965
5.59861
6.44993
5.68476
5.82658
6.49771
7.18786
8.04089
6.75364
6.84198
7.58046
8.24275
8.93541
0.204528
0.0581823
0.27617
0.862236
2.02304
0.173309
0.0739434
0.221534
0.882628
2.65958
0.152392
0.078972
0.168293
1.08062
3.44242
0.141226
0.067057
0.158988
1.38932
3.9444
0.147395
0.0744596
0.254246
1.73815
4.36629
0.200511
0.112494
0.269802
1.87076
4.10213
0.331791
0.130907
0.268884
1.80732
3.86074
0.661906
0.256219
0.776524
3.03626
4.90755
2.27341
0.819261
1.51038
4.16216
6.96072
5.05624
2.54089
2.42276
5.03847
8.27909
5.94749
5.26644
4.40257
3.51053
2.77987
3.52202
3.99081
3.97075
3.87623
3.76361
6.32093
7.35232
7.77906
8.06773
8.2185
8.12126
8.59996
8.84946
8.98863
9.05203
9.11693
9.3378
9.4874
9.57051
9.60696
9.31085
7.91683
1.39864
3.63017
7.73677
9.08184
7.44077
3.20594
1.64074
6.78901
8.39867
6.57767
4.20847
1.00355
4.1477
6.81562
5.09472
3.45528
1.70057
1.03875
4.50378
3.14533
2.03883
1.37786
0.459911
2.59713
1.61869
1.00242
0.796753
0.926365
1.456
0.779008
0.579453
0.612549
0.685314
0.801528
0.405574
0.589856
0.758597
0.831899
0.305905
0.50683
0.884577
1.05002
1.11146
0.161863
0.934962
1.28078
1.51689
1.57128
0.190341
0.361908
0.707072
0.773838
0.73117
0.395428
0.499813
0.576014
0.632242
0.617483
0.61356
0.646105
0.461875
0.48738
0.499886
0.965289
0.794265
0.414224
0.346603
0.375834
1.33047
0.844703
0.419263
0.226365
0.257888
1.10552
0.857268
1.12036
1.10652
1.00268
0.283974
0.471174
0.86287
0.917579
0.848084
9.19115
8.83863
7.75877
5.73016
3.55961
8.58727
7.72288
5.85156
3.49151
0.866139
0.964842
0.858686
1.02708
1.62019
2.6582
0.813837
0.767961
0.704413
0.824726
1.52619
1.05971
1.01098
0.847794
0.553247
0.743317
1.38291
1.34585
1.148
0.796821
0.227734
1.85275
1.8061
1.55427
1.23684
0.597549
7.7363
3.6271
1.39994
7.91506
9.311
6.78519
1.64051
3.20263
7.43767
9.08247
4.13418
1.01087
4.19434
6.57306
8.40023
1.03667
1.70555
3.43363
5.08556
6.8221
0.476231
1.37642
2.01477
3.12752
4.52663
1.31088
0.544877
0.550811
0.454174
0.176198
0.67632
0.294603
0.467566
0.520276
0.486491
0.397054
0.16058
0.379877
0.621267
0.804526
0.287776
0.0723265
0.339597
0.771602
1.22229
0.243386
0.043002
0.317204
0.853077
1.58509
5.48096
2.4609
1.03636
0.963079
1.14182
2.88719
1.08893
0.724927
0.556809
0.251803
3.56829
5.73577
7.75996
8.83916
9.1913
0.843342
3.47199
5.84493
7.7215
8.58712
)
;

boundaryField
{
    left
    {
        type            calculated;
        value           nonuniform List<scalar> 
17
(
0.452648
1.11755
2.18364
3.9103
6.58028
0.30191
0.186778
0.136879
0.14193
0.211105
2.95886
2.06058
1.335
0.814471
0.495993
6.9787
4.57963
)
;
    }
    right
    {
        type            calculated;
        value           nonuniform List<scalar> 
17
(
1.00298
0.849557
0.733276
0.620281
0.502142
0.3752
0.251541
0.116336
0.0230385
0.0116987
0.0294986
0.148966
0.337685
0.478136
0.589214
0.69655
0.852809
)
;
    }
    down
    {
        type            calculated;
        value           nonuniform List<scalar> 
20
(
5.99488
2.99972
1.14583
1.04565
1.85294
4.27034
6.38383
8.13141
9.01579
9.30925
9.30908
9.01514
8.12992
6.37977
4.26405
1.83158
0.931937
1.18679
1.1635
1.05021
)
;
    }
    up
    {
        type            calculated;
        value           nonuniform List<scalar> 
20
(
8.54861
5.40509
2.7255
1.45701
0.926005
9.69562
9.66615
9.59857
9.47421
9.2934
9.29638
9.47646
9.60017
9.66726
9.69603
5.70424
3.1504
2.6627
5.39421
8.56547
)
;
    }
    cylinder
    {
        type            calculated;
        value           nonuniform List<scalar> 
40
(
1.37054
3.58915
6.11865
7.96047
8.95711
9.50513
9.74577
9.84079
9.88145
9.89745
9.54746
9.76284
9.84855
9.88496
9.89848
2.28309
4.51955
6.69674
8.23391
9.06991
3.04374
1.85015
1.09288
0.444332
0.60523
9.51904
9.33187
8.74229
7.26971
4.98615
9.51887
9.33113
8.74024
7.26149
4.95755
2.96567
1.73285
1.07374
0.668426
0.103957
)
;
    }
    defaultFaces
    {
        type            empty;
    }
}


// ************************************************************************* //
