/*--------------------------------*- C++ -*----------------------------------*\
  =========                 |
  \\      /  F ield         | OpenFOAM: The Open Source CFD Toolbox
   \\    /   O peration     | Website:  https://openfoam.org
    \\  /    A nd           | Version:  13
     \\/     M anipulation  |
\*---------------------------------------------------------------------------*/
FoamFile
{
    format      ascii;
    class       volScalarField;
    location    "30";
    object      p;
}
// * * * * * * * * * * * * * * * * * * * * * * * * * * * * * * * * * * * * * //

dimensions      [0 2 -2 0 0 0 0];

internalField   nonuniform List<scalar> 
440
(
-1.08258
-1.10995
-1.17353
-1.1717
-1.23139
-1.0195
-1.01079
-1.01923
-1.03482
-1.04819
-1.10144
-1.06759
-1.03782
-1.00571
-0.966801
-1.21301
-1.16332
-1.08294
-0.986831
-0.888021
-1.29215
-1.22562
-1.0808
-0.929405
-0.790148
-1.23082
-1.20995
-1.18649
-1.17155
-1.15973
-1.20203
-1.18351
-1.16663
-1.16179
-1.16596
-1.10982
-1.11826
-1.1439
-1.16134
-1.16526
-0.90355
-0.950345
-1.02937
-1.08325
-1.09204
-0.760896
-0.865239
-0.984748
-1.04568
-1.05629
-1.15048
-1.32586
-1.11562
-1.32898
0.0812211
-1.26513
-1.1861
-0.91004
-1.26786
0.0409478
-1.09303
-0.915702
-0.7929
-1.12126
9.12825e-05
-0.794564
-0.634667
-0.765691
-0.920866
-0.0395563
-0.618221
-0.302704
-0.859188
-0.763948
-0.0738894
-0.39149
-0.00353342
-0.956812
-0.62422
-0.105093
-0.227708
-0.119354
-0.74005
-0.437828
-0.113368
-0.281194
0.120168
-0.432301
-0.298822
-0.118718
-0.256042
0.246599
-0.232786
-0.24944
-0.124673
-0.210164
0.292928
-0.0226865
-0.184968
-0.130817
-0.551621
-0.691731
-0.868296
-1.04806
-1.22656
-0.308216
-0.431147
-0.511139
-0.537657
-0.534917
-0.143183
-0.246281
-0.314265
-0.354469
-0.372335
-0.0404908
-0.142298
-0.214234
-0.262525
-0.283583
0.00580934
-0.0964066
-0.168917
-0.216318
-0.229893
0.749241
0.613944
0.442159
0.244194
0.0165417
0.347073
0.19637
0.00823122
-0.207132
-0.453096
-0.0500107
-0.209118
-0.410289
-0.639912
-0.859891
-0.389469
-0.555082
-0.757207
-0.975919
-1.14507
-0.632934
-0.794486
-0.98012
-1.17349
-1.28201
1.9628
1.99534
2.02758
2.04722
2.04913
1.77817
1.79962
1.81722
1.81915
1.80027
1.55159
1.54524
1.51802
1.46861
1.39343
1.29107
1.25872
1.19356
1.09817
0.972712
1.03238
0.941501
0.818654
0.670406
0.488312
1.69955
1.68768
1.68267
1.73069
1.84303
1.68961
1.67518
1.66519
1.70284
1.75928
1.68066
1.65962
1.64514
1.66262
1.65483
1.6729
1.64137
1.62228
1.61281
1.49945
1.6662
1.62304
1.59747
1.5567
1.33054
1.66092
1.59133
1.56387
1.46142
1.14461
1.65868
1.55438
1.53674
1.36668
1.15002
1.66552
1.53552
1.51207
1.30917
1.08503
1.65649
1.5145
1.49981
1.27147
1.02964
1.6964
1.5062
1.49864
1.25241
1.00606
0.715798
0.426383
0.0948679
-0.182873
-0.386987
0.648846
0.441009
0.213605
0.0144066
-0.161427
0.656683
0.492633
0.317844
0.149177
-0.00887049
0.694808
0.553745
0.399209
0.23726
0.088728
0.715078
0.583375
0.436895
0.277326
0.134955
-1.65677
-1.49153
-1.30701
-1.15276
-1.06097
-1.70108
-1.62995
-1.48501
-1.36032
-1.27794
-1.60026
-1.54965
-1.45648
-1.36585
-1.29342
-1.42547
-1.37937
-1.32556
-1.27091
-1.22022
-1.26501
-1.24234
-1.20744
-1.18105
-1.17982
-1.16867
-1.1624
-1.1207
-1.14152
-1.10067
-1.13847
-1.1296
-1.1036
-1.10301
-1.0752
-1.14875
-1.13806
-1.11774
-1.09552
-1.08767
-1.1801
-1.16636
-1.14536
-1.12399
-1.12045
-1.20925
-1.19047
-1.16183
-1.13427
-1.11028
-1.06767
-0.737914
-0.757014
-0.706069
0.184556
-1.04844
-0.745042
-0.877797
-0.826068
0.176538
-0.934545
-0.844205
-1.06553
-1.05102
0.162351
-0.858971
-1.0725
-1.22881
-1.23822
0.141989
-0.867043
-1.28575
-1.27573
-1.33053
0.116076
-0.46553
-0.868479
-0.766798
-0.665003
0.197897
-0.944044
-0.832251
-0.692168
-0.672028
0.19157
-1.00934
-1.23627
-1.21615
-1.15708
-0.889077
-1.02999
-1.23898
-1.23991
-1.17174
-1.14287
1.62165
1.59159
1.54248
1.47566
1.38815
1.80435
1.82211
1.82252
1.80407
1.76779
1.9615
1.99262
2.01383
2.02141
2.01447
2.04851
2.08796
2.12959
2.16366
2.17904
2.05137
2.08992
2.13268
2.16856
2.18532
-0.589422
-0.706291
-0.889445
-1.10874
-1.37394
0.0362134
-0.111849
-0.309016
-0.547346
-0.858763
0.604222
0.450594
0.266277
0.0480701
-0.232268
1.05784
0.938383
0.793068
0.615855
0.39783
1.41771
1.33363
1.22299
1.08954
0.93187
1.7634
1.72146
1.71801
1.72967
1.75481
1.74791
1.71801
1.71575
1.74435
1.81417
1.73455
1.71305
1.71424
1.75967
1.88837
1.72199
1.70667
1.70723
1.76081
1.89461
1.7103
1.69846
1.69642
1.75137
1.88693
1.8191
1.72756
1.70716
1.65541
1.63865
1.77384
1.71854
1.70176
1.67646
1.642
1.29787
1.07385
0.67594
0.0898628
-0.553402
1.38406
1.10751
0.69056
0.109718
-0.545719
)
;

boundaryField
{
    left
    {
        type            zeroGradient;
    }
    right
    {
        type            fixedValue;
        value           uniform 0;
    }
    down
    {
        type            zeroGradient;
    }
    up
    {
        type            zeroGradient;
    }
    cylinder
    {
        type            zeroGradient;
    }
    defaultFaces
    {
        type            empty;
    }
}


// ************************************************************************* //
