/*--------------------------------*- C++ -*----------------------------------*\
  =========                 |
  \\      /  F ield         | OpenFOAM: The Open Source CFD Toolbox
   \\    /   O peration     | Website:  https://openfoam.org
    \\  /    A nd           | Version:  13
     \\/     M anipulation  |
\*---------------------------------------------------------------------------*/
FoamFile
{
    format      ascii;
    class       surfaceScalarField;
    location    "30";
    object      phi;
}
// * * * * * * * * * * * * * * * * * * * * * * * * * * * * * * * * * * * * * //

dimensions      [0 3 -1 0 0 0 0];

internalField   nonuniform List<scalar> 
823
(
0.0119147
0.0252378
-0.0371525
0.0328662
0.0226385
-0.04359
0.0787501
-0.0254276
-0.0204563
0.159843
-0.0908042
0.00971169
-0.127757
0.0155894
0.272011
0.0178773
0.00736059
0.0754563
-0.0349406
0.168087
-0.118058
0.275622
-0.198339
-0.271218
0.419083
0.0214325
-0.0140719
0.104988
-0.118496
0.216698
-0.229768
0.325624
-0.307265
-0.356206
0.410612
0.041752
-0.0558239
0.138793
-0.215537
0.228149
-0.319123
0.286585
-0.365702
-0.379335
0.309714
0.0562343
-0.112058
0.130303
-0.289606
0.173876
-0.362696
0.190148
-0.381974
0.197895
-0.387082
0.0225723
-0.0598772
0.0373049
0.0519426
-0.122416
0.0930454
0.0688673
-0.131053
0.114128
0.0704341
-0.110805
0.109238
-0.0857302
0.0624988
0.0936655
0.0198832
-0.0797604
0.0307499
-0.133282
0.0226074
-0.12291
0.0042552
-0.092453
-0.0662729
-0.0152021
0.00773684
-0.0874972
-0.00731031
-0.118235
-0.0348509
-0.0953695
-0.0580206
-0.0692832
-0.0526272
-0.0716663
-0.0516729
-0.0358243
-0.128664
-0.0412437
-0.193024
-0.0310101
-0.238348
-0.0239592
-0.0202903
-0.270685
-0.0729768
-0.157811
-0.209277
-0.223524
-0.228225
0.373072
-0.414949
0.104376
0.433222
1.69228
-1.75244
0.373713
0.931674
-0.872166
0.468624
-1.45643
1.36152
-0.988572
0.976739
0.162806
-0.592957
0.321987
1.5331
0.447764
0.805897
0.526698
-1.53537
-0.995643
-0.0325195
-0.632104
0.182539
1.31805
0.55781
0.430626
0.586053
-1.56361
-0.987886
-0.181488
-0.721301
0.176452
0.960106
0.641549
-0.0344705
0.645984
-1.56804
-0.965112
-0.121154
-0.828372
0.205521
0.63343
0.665669
-0.494619
0.67119
-1.57356
-0.940872
0.758619
-0.459289
-1.1277
0.886079
0.50597
1.3112
-0.919737
1.16219
-1.42456
-0.755724
1.15101
-0.270026
-1.34027
1.36574
0.291239
1.42559
-0.979584
1.09004
-1.08901
-0.504109
1.20498
-0.148035
-1.32697
1.48942
0.00680077
1.31093
-0.801098
0.917966
-0.696049
-0.278754
1.22088
-0.0773659
-1.29155
1.35922
-0.131535
0.998748
-0.440626
0.583778
-0.281079
-0.0823177
0.809488
-0.886854
0.677953
0.237326
-0.043753
1.08266
0.145773
-1.03053
1.1521
0.240274
1.26057
0.302134
1.26698
0.412681
0.411285
1.00835
0.0786205
-0.941193
1.06827
0.180348
1.16276
0.207643
1.26314
0.312302
0.334157
0.941864
0.0368264
-0.90007
1.00647
0.115744
1.08651
0.127603
1.20936
0.189445
0.216553
0.888088
0.00873673
-0.859998
0.959705
0.044127
1.04069
0.0466185
1.15689
0.0732398
0.081894
0.640975
-0.632238
0.685102
0.73172
0.80496
0.131912
0.296977
-0.247804
-0.181085
0.0877511
0.304223
-0.260062
0.0479511
0.314737
-0.274937
0.0153735
0.306434
-0.273856
0.198636
-0.183262
0.0949848
0.334146
-0.132153
0.0597385
0.339469
0.0283655
0.34611
0.00417069
0.330628
0.202806
0.0519251
0.364117
-0.081896
0.0231831
0.368211
-0.000553164
0.369846
-0.0100901
0.340165
0.192716
-0.021684
0.380542
0.00525887
-0.0363663
0.382893
-0.0419709
0.375451
-0.030569
0.328764
0.162147
-0.10292
0.0963804
-0.102001
-0.0892464
-0.0500893
0.204136
0.0941447
-0.256977
-0.0413037
0.149909
0.0983232
-0.0440969
0.093697
0.102988
-0.0467756
0.0383582
0.103196
-0.0478574
0.0735584
-0.0352002
0.197081
0.138962
-0.241898
0.150075
0.145329
0.0977895
0.155274
0.0417065
0.159279
0.115265
0.151608
0.184505
-0.197152
0.108087
0.18885
0.0655955
0.197765
0.0249793
0.199895
0.140244
0.157095
0.219873
-0.192463
0.116464
0.229481
0.0714154
0.242814
0.0276669
0.243644
0.167911
0.108267
-0.136198
0.0776859
0.0455633
0.0153511
0.404444
0.0695372
-0.0780017
0.421588
0.0119767
-0.0291204
0.416381
0.149235
-0.144028
0.39084
0.195741
-0.170199
0.39473
-0.260868
0.40185
0.0636667
0.416374
-0.00254692
0.405901
0.159707
0.374778
0.226864
0.52761
0.396319
0.0633271
0.412201
-0.0184292
0.384472
0.187436
0.360869
0.250467
0.691327
0.393899
0.0654076
0.40072
-0.0252504
0.368907
0.219249
0.336059
0.283316
0.834923
0.387898
0.0734894
0.390418
-0.0277703
0.338697
0.27097
0.309813
0.312199
1.00854
0.626458
0.0510514
0.663225
-0.0645369
0.678574
0.255621
0.733012
0.257762
0.762268
0.979283
0.643926
0.011146
0.669443
-0.0900537
0.691896
0.233168
0.773354
0.176304
0.517472
1.01815
0.654108
-0.038942
0.6484
-0.0843451
0.690748
0.190819
0.796259
0.0707935
0.317444
0.996286
0.635668
-0.07059
0.604186
-0.0528632
0.716448
0.0785582
0.78324
0.00400157
0.149641
0.951043
0.53343
0.480567
0.559125
0.563127
0.712768
0.997158
-0.19896
0.995664
-0.130659
0.989229
-0.0754618
1.00182
-0.00733499
0.0676688
0.956101
-0.136911
0.940756
-0.115314
0.910674
-0.04538
0.93172
-0.0283812
0.0581959
0.93575
-0.0763746
0.900442
-0.0800067
0.87819
-0.0231278
0.882274
-0.0324657
0.0404006
0.903063
-0.0283954
0.857223
-0.0341666
0.845631
-0.0115355
0.832699
-0.019534
0.0131015
0.684373
0.650206
0.63867
0.619136
0.0555842
0.17249
-0.228075
0.0797202
0.369973
-0.394109
0.0784489
0.42449
-0.423219
0.068306
0.425466
-0.415323
0.393225
0.0542483
-0.379168
0.0857914
0.086699
0.162714
0.29305
0.195983
0.391221
0.199873
0.421576
0.409649
0.183449
0.0730451
0.0136538
0.201997
0.164098
0.299036
0.294182
0.355467
0.365145
0.413529
0.351588
0.0344774
-0.0208236
0.154724
0.0438517
0.292119
0.156787
0.423976
0.233288
0.327543
0.509962
0.00521891
-0.0260425
0.0664754
-0.0174049
0.185554
0.0377089
0.332454
0.0863879
0.177619
0.482377
-0.0066568
-0.0193857
0.0106279
-0.0346896
0.0748031
-0.0264662
0.175809
-0.0146176
0.0535716
0.299856
-0.00556597
-0.0138197
-0.00236854
-0.037887
0.0210483
-0.0498831
0.0576836
-0.0512529
-0.0216897
0.132945
-7.2963e-05
-0.0137468
0.00742717
-0.0453872
0.023588
-0.0660439
0.0440661
-0.0717311
-0.0642242
0.0866007
0.00845555
-0.0222023
0.0292964
-0.066228
0.0549957
-0.0917433
0.0806445
-0.0973798
-0.0925446
0.108965
0.0151025
0.04192
0.0643046
0.0761631
0.077284
0.41203
1.03033
-1.1425
0.251633
0.762759
-0.602361
-0.0343653
0.594213
-0.308215
0.118707
-0.532698
0.379626
-0.615882
0.417486
0.402268
0.761006
0.112609
1.05242
-0.0722202
0.779042
0.178384
-0.783302
-0.76063
0.39447
0.453136
0.0232301
1.42366
-0.0273884
0.829661
0.249045
-1.05974
-0.857809
0.388858
0.173243
0.117372
1.69514
0.104997
0.842035
0.297867
-1.2526
-0.937374
0.354903
0.297612
0.267482
0.376398
-0.120728
0.736385
-0.615657
-0.266777
0.146049
-0.210251
-0.056526
0.033746
-0.243997
-0.17614
0.822506
-1.22862
0.366194
0.00145244
0.137081
0.0961972
-0.0128039
-0.0833933
0.157316
-0.0611187
0.264253
-0.106937
0.422217
-0.157964
-0.19344
0.220708
-0.179263
0.343038
0.587689
0.939686
0.146784
-0.152869
0.18455
-0.178464
0.112372
-0.159352
0.193763
0.0731847
-0.167982
0.20717
0.0302709
-0.168692
0.211606
-0.11909
0.149361
0.191137
-0.112533
-0.231473
0.145314
-0.113529
0.0927525
-0.115421
0.0385275
-0.114467
-0.080563
0.186225
-0.0612833
-0.237475
0.134267
-0.061571
0.0826473
-0.0638007
0.0334407
-0.0652602
-0.0471223
0.204382
-0.0099239
-0.255741
0.15221
-0.00939872
0.0976599
-0.00925113
0.0413867
-0.00898705
-0.00573557
0.207303
-0.25853
0.153807
0.0977803
0.0409358
0.0480019
-0.355286
-0.0718833
0.018638
-0.385959
-0.00656826
-0.398013
-0.0176385
-0.383039
-0.245713
0.137214
-0.320609
-0.171891
0.0914765
-0.340222
0.0452305
-0.351767
0.00969462
-0.347503
-0.236018
0.159905
-0.275944
-0.204569
0.112051
-0.292368
0.0659358
-0.305652
0.0239284
-0.305495
-0.21209
0.179205
-0.236268
-0.218881
0.132426
-0.245589
0.0822963
-0.255522
0.0334757
-0.256675
-0.178614
0.1745
-0.226218
0.122674
0.0743221
0.029253
0.388433
0.104861
-0.0973149
0.391131
0.0798725
-0.0825703
0.359186
0.137498
-0.105553
0.311923
0.0296498
0.0176127
-0.270364
0.403823
0.396249
0.104592
0.40526
0.070861
0.39745
0.145309
0.352952
0.0741476
-0.148886
0.401478
0.0990932
0.414707
0.057632
0.411963
0.148054
0.375188
0.110922
-0.0111729
0.406015
0.0890575
0.419667
0.0439804
0.422558
0.145163
0.391574
0.141907
0.12466
0.407035
0.421895
0.42303
0.394738
0.415133
0.0949175
0.337734
0.0773992
0.259127
0.0786073
0.272916
-0.0137886
-0.217242
0.490157
0.507654
0.502482
0.475537
0.479361
0.665942
0.392255
0.097902
0.305737
0.0865182
0.205266
0.100472
0.119576
0.0856891
0.0361832
0.537626
0.405263
0.301165
0.214963
)
;

boundaryField
{
    left
    {
        type            calculated;
        value           nonuniform List<scalar> 
17
(
-0.60402
-0.60402
-0.60402
-0.60402
-0.60402
-0.39598
-0.39598
-0.39598
-0.39598
-0.39598
-0.39598
-0.39598
-0.39598
-0.39598
-0.39598
-0.510051
-0.510051
)
;
    }
    right
    {
        type            calculated;
        value           nonuniform List<scalar> 
17
(
0.209886
0.378428
0.317102
0.323132
0.346224
0.377431
0.415763
0.480457
0.533769
0.578295
0.623211
0.64695
0.977046
0.838423
0.69261
0.387342
-0.126071
)
;
    }
    down
    {
        type            calculated;
        value           uniform 0;
    }
    up
    {
        type            calculated;
        value           uniform 0;
    }
    cylinder
    {
        type            calculated;
        value           uniform 0;
    }
    defaultFaces
    {
        type            empty;
    }
}


// ************************************************************************* //
