# Selection   : all
# Cells       : 440
# Volume      : 7.374263e+01
# Time        	minMag(U)
7.915         	1.039649e-02
7.96          	1.005454e-02
8.01          	9.720234e-03
