# Selection   : all
# Cells       : 440
# Volume      : 7.374263e+01
# Time        	minMag(U)
4.41          	5.269535e-03
4.455         	7.080853e-03
4.505         	9.333317e-03
