/*--------------------------------*- C++ -*----------------------------------*\
  =========                 |
  \\      /  F ield         | OpenFOAM: The Open Source CFD Toolbox
   \\    /   O peration     | Website:  https://openfoam.org
    \\  /    A nd           | Version:  13
     \\/     M anipulation  |
\*---------------------------------------------------------------------------*/
FoamFile
{
    format      ascii;
    class       surfaceScalarField;
    location    "2.25";
    object      phi;
}
// * * * * * * * * * * * * * * * * * * * * * * * * * * * * * * * * * * * * * //

dimensions      [0 3 -1 0 0 0 0];

internalField   nonuniform List<scalar> 
3485
(
-0.000757446
0.00439499
-0.00363755
8.17494e-05
0.00836801
-0.0092072
0.00441029
0.00793789
-0.0122664
0.013515
0.00300329
-0.012108
0.0283223
-0.00644979
-0.00835745
0.049353
-0.0201503
-0.000880397
0.0768126
-0.0373733
0.00991373
0.110257
-0.0570698
0.0236255
0.148717
-0.0785468
0.0400866
-0.094393
0.054308
0.188802
-0.000198427
0.00459342
0.00202326
0.00614633
0.00880532
0.00115583
0.0216555
-0.00984685
0.0414489
-0.0262433
0.0681059
-0.0468073
0.100507
-0.0697748
0.13667
-0.0932321
0.173452
-0.115329
-0.133738
0.212797
0.000777958
0.00381546
0.00554337
0.00138091
0.0163147
-0.00961554
0.0343823
-0.0279144
0.0597587
-0.0516197
0.0910068
-0.0780554
0.125567
-0.104336
0.16038
-0.128044
0.192769
-0.147718
-0.163113
0.222144
0.00183537
0.00198009
0.00952822
-0.00631193
0.0247645
-0.0248519
0.047849
-0.0509989
0.0771891
-0.0809598
0.109695
-0.110561
0.14185
-0.136491
0.17077
-0.156964
0.194704
-0.171653
-0.181167
0.212757
0.00302059
-0.0010405
0.0138033
-0.0170947
0.0331718
-0.0442204
0.059693
-0.0775201
0.0898619
-0.111129
0.119591
-0.140289
0.145703
-0.162603
0.166599
-0.17786
0.182097
-0.187151
-0.192461
0.193392
0.00429078
-0.00533127
0.0179791
-0.030783
0.0402335
-0.0664748
0.0674864
-0.104773
0.0950139
-0.138656
0.119117
-0.164392
0.138057
-0.181543
0.151816
-0.191619
0.161431
-0.196766
-0.198778
0.167748
0.00554841
-0.0108797
0.0214207
-0.0466552
0.0445711
-0.0896252
0.0697691
-0.129971
0.0924389
-0.161326
0.110271
-0.182225
0.123055
-0.194327
0.131754
-0.200318
0.137557
-0.202569
-0.202845
0.141625
0.00658424
-0.0174639
0.0234629
-0.0635339
0.0454201
-0.111582
0.0667335
-0.151284
0.0839712
-0.178564
0.0962766
-0.19453
0.104362
-0.202413
0.109435
-0.205391
0.112596
-0.20573
-0.20468
0.11443
0.00723609
-0.0247
0.02379
-0.0800878
0.0430156
-0.130808
0.0597944
-0.168063
0.0720437
-0.190813
0.0799253
-0.202412
0.0845539
-0.207041
0.0871178
-0.207955
0.0884602
-0.207073
-0.2053
0.089081
0.00741351
-0.0321135
0.0224919
-0.0951662
0.0382139
-0.14653
0.0505414
-0.180391
0.0585236
-0.198795
0.0628926
-0.206781
0.0648381
-0.208987
0.0653548
-0.208472
0.065055
-0.206773
0.0641495
-0.204395
-0.00481039
0.0206648
-0.0158544
-0.015035
0.0390017
-0.028777
-0.0277675
0.0448309
-0.0320984
-0.0413615
0.0447496
-0.0311557
-0.0550304
0.0422562
-0.0285873
-0.0684222
0.0387709
-0.0253791
-0.0813319
0.0346945
-0.0217848
-0.0935732
0.0300864
-0.0178451
-0.104937
0.0249539
-0.0135905
0.0194663
-0.115225
-0.00917823
-0.00282867
0.0234934
-0.0101735
0.0463465
-0.0201811
0.0548385
-0.0313671
0.0559357
-0.0428242
0.0537133
-0.0540826
0.0500293
-0.0648817
0.0454936
-0.0750188
0.0402235
-0.0842742
0.0342093
0.0275181
-0.092326
-0.000218574
0.023712
-0.0033368
0.0494648
-0.00913362
0.0606353
-0.0164793
0.0632813
-0.0243753
0.0616094
-0.0321781
0.0578321
-0.0395283
0.0528439
-0.0461894
0.0468846
-0.0519551
0.039975
0.0319855
-0.0564224
0.002375
0.021337
0.00411462
0.0477251
0.00356964
0.0611803
0.00116021
0.0656908
-0.00213701
0.0649066
-0.0055217
0.0612167
-0.00847887
0.055801
-0.0106928
0.0490985
-0.0118865
0.0411687
0.0316001
-0.0115012
0.00428447
0.0170525
0.0104867
0.041523
0.0154601
0.0562068
0.0185644
0.0625865
0.0203297
0.0631413
0.0215686
0.0599778
0.0229311
0.0544386
0.0248248
0.0472048
0.0274912
0.0385022
0.0280075
0.0310839
0.00501993
0.0120326
0.0141756
0.0323673
0.0237546
0.0466278
0.032154
0.054187
0.0391755
0.0561198
0.0452512
0.0539021
0.0509243
0.0487655
0.0566069
0.0415222
0.0625326
0.0325766
0.0217677
0.0687724
0.0044789
0.0075537
0.0141153
0.0227309
0.0258656
0.0348775
0.0377972
0.0422554
0.0490687
0.0448484
0.0595386
0.0434322
0.069375
0.038929
0.078796
0.0321013
0.087972
0.0234005
0.0124714
0.0972683
0.00301228
0.00454142
0.0106668
0.0150764
0.0213423
0.024202
0.0335525
0.0300452
0.0463169
0.032084
0.0591644
0.0305846
0.0719872
0.0261062
0.0848914
0.0191971
0.0980817
0.0102102
-0.00204295
0.112596
0.0011976
0.00334382
0.00554413
0.0107298
0.0129573
0.0167888
0.0228849
0.0201176
0.0348104
0.0201585
0.0485058
0.0168892
0.0640394
0.0105726
0.0816699
0.00156668
0.101851
-0.00997087
-0.024958
0.124766
-0.000293725
0.0012289
0.00575129
0.0137609
0.025562
0.0415708
0.0620571
0.0872493
0.117365
0.146715
-0.110652
-0.123022
0.118449
-0.0132724
-0.369762
0.272383
0.078564
-0.320609
0.228772
0.136773
-0.245947
0.187738
0.172804
-0.183375
0.147344
0.193108
-0.130202
0.109897
0.203941
-0.0979292
0.0870956
0.208984
-0.067219
0.0621761
0.211302
-0.0545459
0.0522286
-0.036076
0.0358954
-0.0832801
-0.132068
0.000653361
-0.453696
0.086203
-0.406158
0.141285
-0.301029
0.175309
-0.217398
0.194629
-0.149522
0.204986
-0.108286
0.209811
-0.072044
0.211993
-0.056728
-0.0362151
-0.0400101
-0.14848
0.027269
-0.520975
0.099733
-0.478622
0.148629
-0.349925
0.178928
-0.247697
0.196453
-0.167047
0.206021
-0.117854
0.210563
-0.0765855
0.212647
-0.0588121
-0.0364112
0.0108648
-0.170846
0.0603118
-0.570422
0.118048
-0.536358
0.158672
-0.390549
0.183842
-0.272868
0.198734
-0.181938
0.207119
-0.126239
0.211262
-0.0807288
0.213264
-0.0608138
-0.0367562
0.057788
-0.197551
0.0941736
-0.606807
0.137528
-0.579713
0.169784
-0.422804
0.189575
-0.292659
0.201414
-0.193777
0.208306
-0.133131
0.211929
-0.0843517
0.213847
-0.0627325
-0.0373341
0.100691
-0.229469
0.125026
-0.631143
0.154914
-0.609601
0.179807
-0.447697
0.195073
-0.307926
0.204136
-0.20284
0.209506
-0.138501
0.212558
-0.0874041
0.214398
-0.0645723
-0.0382239
0.135373
-0.267574
0.150827
-0.646596
0.168913
-0.627687
0.187336
-0.46612
0.199254
-0.319844
0.206336
-0.209922
0.210513
-0.142678
0.213099
-0.0899902
0.214906
-0.0663787
-0.0395086
0.161029
-0.316007
0.170647
-0.656214
0.179212
-0.636253
0.192037
-0.478944
0.201532
-0.32934
0.207489
-0.215878
0.211036
-0.146226
0.213436
-0.0923902
0.215332
-0.0682751
-0.0412913
0.178641
-0.369882
0.184033
-0.661606
0.185866
-0.638085
0.194163
-0.487241
0.201899
-0.337077
0.20734
-0.221318
0.210811
-0.149697
0.213409
-0.0949876
0.215604
-0.0704705
-0.0437089
0.191706
-0.414873
0.192151
-0.662051
0.189695
-0.635629
0.194534
-0.49208
0.200877
-0.34342
0.206016
-0.226458
0.209728
-0.153409
0.212872
-0.0981311
0.215629
-0.0732273
-0.0469316
0.628655
-0.460717
-0.582811
0.579723
-0.613119
0.503866
-0.559772
0.440848
-0.429062
0.398647
-0.301219
0.372543
-0.200353
0.356061
-0.136927
0.346069
-0.0881389
0.339111
-0.0662701
-0.0430217
0.676727
-0.42255
-0.714894
0.58707
-0.523462
0.503907
-0.476609
0.44369
-0.368846
0.403764
-0.261292
0.377542
-0.174132
0.359897
-0.119281
0.348775
-0.0770169
0.340846
-0.058342
-0.0384038
0.67798
-0.365462
-0.735068
0.602251
-0.447733
0.533954
-0.408311
0.473762
-0.308654
0.425933
-0.213463
0.391646
-0.139845
0.36812
-0.0957552
0.353402
-0.062299
0.343274
-0.0482134
-0.0326912
0.670211
-0.315065
-0.720608
0.602535
-0.380056
0.534082
-0.339858
0.473259
-0.247831
0.426241
-0.166446
0.39323
-0.106834
0.370211
-0.0727363
0.355291
-0.0473791
0.344563
-0.0374849
-0.0263973
0.661566
-0.274314
-0.702318
0.605584
-0.324074
0.543489
-0.277763
0.482972
-0.187315
0.433015
-0.116489
0.397276
-0.071095
0.372543
-0.0480032
0.356664
-0.0314996
0.345275
-0.0260966
-0.019638
0.654279
-0.241563
-0.687031
0.601834
-0.271628
0.538666
-0.214595
0.478007
-0.126655
0.428737
-0.0672191
0.394064
-0.0364222
0.370288
-0.0242273
0.355053
-0.0162647
0.343983
-0.0150264
-0.0128621
0.637967
-0.207324
-0.672206
0.578957
-0.212618
0.511368
-0.147006
0.452727
-0.068014
0.408518
-0.0230108
0.378964
-0.00686773
0.359132
-0.00439542
0.346493
-0.00362585
0.337043
-0.00557654
-0.00673914
0.581753
-0.153603
-0.635474
0.505202
-0.136067
0.434145
-0.0759489
0.385341
-0.0192108
0.355281
0.00704995
0.337637
0.0107762
0.326213
0.00702769
0.318911
0.00367661
0.312895
0.000439688
-0.00222669
0.421516
-0.0704118
-0.504707
0.333443
-0.0479937
0.274754
-0.0172604
0.250904
0.00463923
0.245682
0.012272
0.245956
0.0105025
0.246231
0.00675238
0.246053
0.00385449
0.244731
0.00176161
-9.65409e-05
0.124124
-0.194536
0.0761305
0.0588701
0.0635094
0.0757813
0.0862838
0.0930362
0.0968907
0.0986523
0.557264
0.0529152
-0.54603
0.568676
0.0776684
0.583871
0.0992359
0.599465
0.12603
0.61812
0.149093
0.636928
0.174583
0.650969
0.198716
0.656958
0.216156
0.62961
0.240145
0.235601
0.535651
0.0422739
-0.52501
0.548417
0.0649026
0.563949
0.083704
0.58273
0.107249
0.604216
0.127608
0.629094
0.149705
0.655415
0.172395
0.680732
0.190839
0.70623
0.214647
0.226937
0.520764
0.0331922
-0.511683
0.533589
0.0520779
0.547926
0.0693674
0.566454
0.0887205
0.587125
0.106936
0.61129
0.12554
0.639126
0.144559
0.668309
0.161656
0.702896
0.180059
0.194766
0.509324
0.0248661
-0.500998
0.521348
0.0400547
0.535054
0.0556613
0.552571
0.0712037
0.572344
0.0871628
0.595565
0.102319
0.622085
0.118039
0.651559
0.132183
0.685001
0.146616
0.159159
0.499077
0.0169199
-0.491131
0.510105
0.0290269
0.523568
0.0421975
0.540217
0.054555
0.559616
0.0677634
0.582153
0.0797829
0.607795
0.0923965
0.636407
0.103571
0.668088
0.114935
0.124929
0.489258
0.00939521
-0.481733
0.499579
0.0187052
0.512795
0.0289819
0.528904
0.0384459
0.548087
0.0485804
0.570141
0.0577293
0.595323
0.0672138
0.623184
0.0757106
0.653946
0.0841734
0.0918445
0.477342
0.00257237
-0.470519
0.487042
0.00900547
0.499763
0.0162604
0.515451
0.0227588
0.534284
0.0297465
0.556059
0.0359547
0.580969
0.0423039
0.608619
0.0480607
0.639302
0.0534898
0.058941
0.452211
-0.00274633
-0.446893
0.46035
0.000867085
0.471539
0.00507126
0.485754
0.00854384
0.503105
0.012395
0.523554
0.0155063
0.547042
0.0188154
0.573604
0.0214993
0.603052
0.0240417
0.0265188
0.37983
-0.00406814
-0.378509
0.383446
-0.00274903
0.389882
-0.00136388
0.398775
-0.000349669
0.41036
0.000809652
0.424328
0.00153889
0.440815
0.00232858
0.459687
0.00262726
0.480737
0.00299114
0.00254881
0.186154
-0.190222
0.183405
0.182041
0.181692
0.182501
0.18404
0.186369
0.188996
0.191987
0.0745766
0.148942
-0.137068
-0.086451
0.0636477
0.151124
-0.140195
0.0535535
0.153748
-0.143654
0.0437557
0.157284
-0.147487
0.033988
0.161093
-0.151325
0.0243203
0.164087
-0.154419
0.0151502
0.163617
-0.154447
0.00727946
0.153724
-0.145854
0.00186876
0.123702
-0.118291
0.0587307
-0.056862
0.0712015
0.15963
-0.0818888
0.0606557
0.16167
0.0504422
0.163962
0.0405723
0.167154
0.030931
0.170734
0.0215954
0.173422
0.0129823
0.17223
0.00588924
0.160817
0.00132112
0.12827
0.0600518
0.0642897
0.169031
-0.0736911
0.0545276
0.171432
0.0448475
0.173642
0.0354504
0.176551
0.0263653
0.179819
0.0177357
0.182052
0.010004
0.179962
0.00397337
0.166848
0.000537684
0.131706
0.0605895
0.0535943
0.177111
-0.0616746
0.0451064
0.17992
0.0364988
0.182249
0.0280343
0.185016
0.0198774
0.187976
0.0122772
0.189652
0.00580666
0.186432
0.00120334
0.171451
-0.000511432
0.133421
0.0600781
0.0411909
0.184172
-0.0482519
0.0338653
0.187245
0.026382
0.189733
0.018978
0.19242
0.0119107
0.195044
0.00555659
0.196006
0.00052864
0.19146
-0.00196521
0.173945
-0.00173459
0.13319
0.0583435
0.0268171
0.190057
-0.0327016
0.02076
0.193302
0.0145483
0.195944
0.00840568
0.198562
0.00266206
0.200787
-0.00213373
0.200802
-0.00506986
0.194396
-0.00545061
0.174326
-0.00300208
0.130742
0.0553414
0.0117286
0.19515
-0.0168216
0.00664771
0.198383
0.0015732
0.201019
-0.00329452
0.20343
-0.00755615
0.205049
-0.0105485
0.203795
-0.0113843
0.195232
-0.00917733
0.172119
-0.00425584
0.12582
0.0510856
-0.0050131
0.199403
0.00076038
-0.00901822
0.202388
-0.0128627
0.204863
-0.0163348
0.206902
-0.01895
0.207664
-0.0198965
0.204741
-0.0181351
0.193471
-0.0129844
0.166968
-0.00543095
0.118267
0.0456546
-0.0232901
0.2025
0.0201925
-0.0261368
0.205235
-0.0286951
0.207422
-0.0306503
0.208857
-0.0313681
0.208382
-0.029874
0.203247
-0.0250974
0.188694
-0.0166702
0.158541
-0.00642195
0.108018
0.0392327
-0.0436218
0.041727
-0.0451596
-0.0462094
-0.0463387
-0.0447374
-0.0402858
-0.0319824
-0.0199714
-0.00711916
0.106193
0.0393098
-0.118063
-0.0274402
0.0940604
0.0404119
-0.0282788
0.0816509
0.0416013
-0.0291919
0.0689396
0.042879
-0.0301677
0.0559092
0.0442271
-0.0311967
0.0425858
0.0455071
-0.0321837
0.0291558
0.0461717
-0.0327417
0.0162512
0.0446622
-0.0317576
0.00546287
0.0375871
-0.0267988
0.0191854
-0.0137225
0.105741
0.0512331
-0.117665
0.0936271
0.0525261
0.0812498
0.0539787
0.0685804
0.0555484
0.0555951
0.0572124
0.0423171
0.0587851
0.028937
0.0595518
0.0160963
0.0575029
0.00538927
0.0482941
0.0245747
0.104914
0.063092
-0.116773
0.0928118
0.0646285
0.0804667
0.0663237
0.0678537
0.0681614
0.0549517
0.0701144
0.0417799
0.0719569
0.028525
0.0728067
0.0158298
0.0701981
0.00527832
0.0588456
0.029853
0.103361
0.0749978
-0.115266
0.0913421
0.076647
0.0790765
0.0785893
0.0665398
0.0806982
0.0537273
0.0829269
0.0406881
0.0849961
0.0276371
0.0858577
0.0152295
0.0826057
0.00502196
0.0690532
0.034875
0.101221
0.086729
-0.112952
0.0893582
0.08851
0.0773329
0.0906146
0.0650761
0.0929549
0.0525363
0.0954667
0.0397394
0.0977929
0.0269167
0.0986804
0.014761
0.0947614
0.00483465
0.0789795
0.0397096
0.0978945
0.0985335
-0.109699
0.0860951
0.100309
0.0741413
0.102568
0.062045
0.105051
0.0497971
0.107715
0.0374207
0.110169
0.0251289
0.110972
0.0136015
0.106289
0.00434998
0.0882311
0.0440596
0.094289
0.109738
-0.105493
0.0830948
0.111503
0.071707
0.113956
0.0600267
0.116731
0.0480636
0.119678
0.035931
0.122302
0.0239342
0.122969
0.012807
0.117416
0.00402768
0.0970104
0.0480873
0.0873954
0.120796
-0.0984533
0.0765646
0.122334
0.065783
0.124738
0.054921
0.127593
0.0438601
0.130739
0.0326244
0.133538
0.0215135
0.13408
0.0112966
0.127633
0.00342204
0.104885
0.0515093
0.0829781
0.130138
-0.0923202
0.0732268
0.132085
0.0628848
0.13508
0.0521801
0.138298
0.04128
0.141639
0.0303343
0.144483
0.0196866
0.144728
0.0101092
0.13721
0.00295519
0.112039
0.0544645
0.0725066
-0.0794366
0.064397
0.0558233
0.0466348
0.0369482
0.0270122
0.0172931
0.00864977
0.00239746
0.20152
0.00922398
-0.0127542
0.205142
0.0243849
-0.0280072
0.208627
0.0344343
-0.0379186
0.211967
0.0555363
-0.058877
0.212984
0.0722123
-0.0732294
0.211559
0.0987321
-0.0973066
0.205388
0.123285
-0.117114
0.192583
0.149522
-0.136717
0.167124
0.200888
-0.17543
0.259357
-0.210296
0.201188
0.00602557
0.204495
0.0210785
0.207693
0.0312358
0.210652
0.0525775
0.211676
0.0711883
0.209855
0.100553
0.203959
0.12918
0.190901
0.162581
0.165625
0.226164
0.307317
0.200782
0.0032331
0.203688
0.0181732
0.206574
0.0283489
0.208962
0.0501896
0.209931
0.0702192
0.207366
0.103119
0.201725
0.134821
0.188059
0.176247
0.163379
0.250843
0.353924
0.200296
0.000927121
0.202723
0.015746
0.205248
0.0258234
0.206899
0.048539
0.207755
0.0693633
0.204095
0.106779
0.198764
0.140152
0.183858
0.191153
0.16044
0.274261
0.399097
0.199724
-0.000806808
0.20161
0.0138598
0.203692
0.0237414
0.204472
0.0477586
0.205128
0.0687079
0.200165
0.111742
0.19513
0.145187
0.178689
0.207594
0.156759
0.296191
0.442904
0.199063
-0.00188046
0.200362
0.0125613
0.201885
0.0222188
0.201713
0.0479298
0.202019
0.0684021
0.195643
0.118118
0.190839
0.149992
0.172455
0.225978
0.15259
0.316056
0.485795
0.198315
-0.00220605
0.198992
0.0118844
0.199811
0.0214
0.198683
0.0490582
0.198383
0.0687014
0.190612
0.125889
0.185677
0.154926
0.165658
0.245997
0.147354
0.334361
0.527655
0.197483
-0.00169911
0.19751
0.0118573
0.197467
0.0214426
0.195404
0.0511218
0.194214
0.0698913
0.185068
0.135034
0.179769
0.160225
0.157498
0.268268
0.141778
0.350081
0.57098
0.196571
-0.000280166
0.19592
0.0125081
0.194863
0.0224997
0.191898
0.0540871
0.189482
0.0723068
0.179214
0.145302
0.173119
0.166321
0.150518
0.290869
0.135194
0.365405
0.613854
0.19562
0.00208944
0.194186
0.0139427
0.192068
0.0246174
0.188093
0.0580623
0.184197
0.0762021
0.172466
0.157033
0.164686
0.174101
0.140315
0.31524
0.129336
0.376384
0.663753
0.304689
-0.000588945
0.309802
0.00882965
0.315859
0.01856
0.320684
0.0532374
0.33212
0.064766
0.333197
0.155956
0.354414
0.152885
0.360329
0.309324
0.411212
0.325501
0.592597
0.482369
0.305159
-0.00373765
0.311519
0.00246983
0.317999
0.0120796
0.324859
0.046377
0.336908
0.052718
0.341086
0.151777
0.364895
0.129077
0.38066
0.293559
0.428636
0.277525
0.525591
0.495641
0.305868
-0.0075959
0.313562
-0.00522393
0.320569
0.00507245
0.329918
0.0370287
0.34055
0.0420859
0.349163
0.143164
0.37331
0.10493
0.39607
0.270798
0.439504
0.234091
0.454985
0.510111
0.306919
-0.0125044
0.315876
-0.0141811
0.324133
-0.00318477
0.335289
0.0258732
0.344059
0.0333151
0.357008
0.130215
0.379353
0.0825856
0.407599
0.242551
0.447789
0.193902
0.38234
0.520434
0.308334
-0.018828
0.318659
-0.0245062
0.328918
-0.0134439
0.34091
0.0138812
0.348312
0.0259133
0.365772
0.112755
0.384912
0.0634462
0.418436
0.209027
0.452068
0.160269
0.309928
0.52448
0.310176
-0.0269943
0.322162
-0.0364913
0.334526
-0.025808
0.34652
0.00188732
0.352965
0.0194681
0.374419
0.0913
0.388789
0.0490761
0.425371
0.172445
0.456667
0.128973
0.238948
0.527648
0.31286
-0.0378446
0.326442
-0.0500731
0.339321
-0.0386866
0.349657
-0.00844905
0.355317
0.0138087
0.379483
0.067134
0.389948
0.0386107
0.429653
0.13274
0.46119
0.0974361
0.171253
0.528884
0.316006
-0.0518401
0.327184
-0.0612518
0.334962
-0.0464647
0.340748
-0.0142347
0.346326
0.00823052
0.371756
0.0417044
0.381446
0.0289208
0.425522
0.0886643
0.459082
0.0638761
0.106172
0.524163
0.309951
-0.0597813
0.302815
-0.0541157
0.292294
-0.0359439
0.288703
-0.0106428
0.294627
0.00230608
0.318599
0.0177325
0.332983
0.0145373
0.382135
0.0395118
0.418195
0.0278159
0.043282
0.481086
0.242229
0.188113
0.152169
0.141526
0.143833
0.161565
0.176102
0.215614
0.24343
0.286712
0.495831
-0.099913
0.500695
-0.0867528
0.504103
-0.0770988
0.507599
-0.065171
0.512137
-0.0527903
0.517049
-0.0376129
0.523358
-0.0231312
0.529265
-0.00514682
0.537693
0.011765
0.0333902
0.496202
-0.100474
0.496871
-0.0874215
0.496522
-0.0767496
0.496926
-0.0655757
0.498117
-0.0539807
0.500735
-0.0402314
0.504562
-0.0269583
0.509738
-0.0103219
0.516736
0.00476634
0.0251168
0.503264
-0.0936278
0.499318
-0.0834749
0.495913
-0.0733451
0.493649
-0.0633111
0.492332
-0.0526635
0.493144
-0.0410433
0.49481
-0.0286245
0.498835
-0.014347
0.503651
-4.95348e-05
0.0170847
0.509629
-0.082823
0.501534
-0.0753797
0.495659
-0.0674698
0.491569
-0.059221
0.48861
-0.0497054
0.48758
-0.0400127
0.487684
-0.0287281
0.490253
-0.0169166
0.494003
-0.00379973
0.0100897
0.513096
-0.0714385
0.503541
-0.0658253
0.495797
-0.059726
0.489754
-0.0531778
0.485228
-0.045179
0.482413
-0.0371986
0.481282
-0.0275971
0.48237
-0.0180038
0.485366
-0.00679633
0.00432537
0.515264
-0.0590548
0.504291
-0.0548524
0.494869
-0.0503032
0.487043
-0.0453526
0.48104
-0.0391757
0.476814
-0.0329725
0.474634
-0.0254176
0.474601
-0.0179701
0.476905
-0.00910019
-0.000502829
0.515173
-0.045343
0.502702
-0.0423817
0.491717
-0.0393183
0.482366
-0.0360018
0.474987
-0.0317966
0.469491
-0.0274765
0.466198
-0.022125
0.465097
-0.0168685
0.466533
-0.0105361
-0.00448934
0.508132
-0.0293123
0.493513
-0.0277628
0.480515
-0.0263206
0.469238
-0.0247239
0.459993
-0.0225522
0.452671
-0.0201543
0.447645
-0.0170988
0.444793
-0.014017
0.444565
-0.010308
-0.00681704
0.463064
-0.0112907
0.44669
-0.0113886
0.43185
-0.0114804
0.418521
-0.0113957
0.40692
-0.0109502
0.397023
-0.0102578
0.389169
-0.00924465
0.383294
-0.00814203
0.379797
-0.00681079
-0.00552876
0.275421
0.264033
0.252552
0.241157
0.230206
0.219949
0.210704
0.202562
0.195751
0.00691093
0.039599
-0.0465099
0.0166258
0.105416
-0.115131
0.023309
0.15071
-0.157393
0.0258443
0.175871
-0.178407
0.0251815
0.18706
-0.186397
0.0225979
0.190258
-0.187674
0.0190498
0.189026
-0.185478
0.0151793
0.184356
-0.180485
0.0115653
0.174985
-0.171371
0.157583
0.00876891
-0.154787
0.00821899
0.03138
0.0221446
0.0914901
0.0341352
0.13872
0.0415795
0.168427
0.0448896
0.18375
0.0453864
0.189761
0.0442069
0.190205
0.0420069
0.186556
0.0389681
0.178024
0.161726
0.0348255
0.00869186
0.0226881
0.0261041
0.0740779
0.043684
0.12114
0.0569226
0.155188
0.0651345
0.175538
0.0693777
0.185518
0.0709006
0.188682
0.0704187
0.187038
0.0679557
0.180487
0.167054
0.0626276
0.00821703
0.0144711
0.0275123
0.0547826
0.0501831
0.0984689
0.0699664
0.135405
0.0843594
0.161145
0.0936043
0.176273
0.0989058
0.183381
0.101221
0.184722
0.100533
0.181175
0.171742
0.0958454
0.00691614
0.00755495
0.0257664
0.0359323
0.0515638
0.0726715
0.0776751
0.109294
0.0994857
0.139334
0.115401
0.160357
0.12588
0.172902
0.131921
0.178681
0.134098
0.178998
0.174779
0.131061
0.00514802
0.00240692
0.0212836
0.0197967
0.0467854
0.0471697
0.0768215
0.0792578
0.105945
0.110211
0.130402
0.135901
0.148704
0.154599
0.161051
0.166334
0.168013
0.172036
0.172849
0.169944
0.00335675
-0.000949829
0.0154432
0.00771027
0.0371321
0.0254808
0.0665306
0.0498593
0.0995739
0.0771674
0.131847
0.103627
0.159972
0.126474
0.182077
0.14423
0.197882
0.156231
0.16469
0.20604
0.00182198
-0.0027718
0.0096756
-0.000143346
0.025514
0.00964237
0.0498452
0.0255281
0.0810915
0.0459211
0.116154
0.0685643
0.151532
0.0910965
0.183928
0.111834
0.211251
0.128908
0.14151
0.234431
0.000494075
-0.00326588
0.00436218
-0.00401146
0.013944
6.05353e-05
0.030958
0.00851417
0.0557634
0.0211157
0.0873218
0.0370059
0.123471
0.0549475
0.161655
0.0736495
0.197654
0.0929095
0.104621
0.234544
-0.000835324
-0.00243056
-0.000323776
-0.004523
0.00396344
-0.00422668
0.0137888
-0.00131123
0.0304844
0.00442008
0.0544983
0.012992
0.0853677
0.0240781
0.122037
0.03698
0.162861
0.0520858
0.0642431
0.203238
-0.00122463
-0.00120593
-0.00190362
-0.003844
-0.000134109
-0.0059962
0.00540637
-0.00685171
0.0157259
-0.00589949
0.0316054
-0.00288745
0.0535226
0.00216091
0.0814664
0.00903622
0.11571
0.0178418
0.0302796
0.149674
-5.8571e-06
-0.00120007
0.00134447
-0.00519433
0.00475847
-0.00941019
0.0105666
-0.0126598
0.0190063
-0.0143392
0.0304113
-0.0142925
0.0451899
-0.0126177
0.0637148
-0.00948866
0.0864173
-0.00486066
0.00344556
0.113251
0.00139401
-0.00259408
0.00517114
-0.00897146
0.0108588
-0.0150979
0.0180704
-0.0198714
0.0265983
-0.0228671
0.0364288
-0.0241229
0.0476779
-0.0238669
0.0604945
-0.0223052
0.0750516
-0.0194178
-0.0140791
0.0925763
0.00173282
-0.0043269
0.00545359
-0.0126922
0.0101565
-0.0198008
0.0153235
-0.0250385
0.0208523
-0.0283958
0.0269131
-0.0301838
0.0337686
-0.0307224
0.041628
-0.0301645
0.050618
-0.0284079
-0.0251032
0.0616422
0.000712656
-0.00503955
0.00169512
-0.0136747
0.00227084
-0.0203765
0.0023219
-0.0250895
0.00209977
-0.0281737
0.00201624
-0.0301002
0.00247359
-0.0311797
0.00380383
-0.0314948
0.00634103
-0.0309451
-0.0293696
0.0106073
-0.00120255
-0.003837
-0.00428042
-0.0105968
-0.00880634
-0.0158506
-0.014263
-0.0196328
-0.0201008
-0.022336
-0.0258274
-0.0243737
-0.0310366
-0.0259705
-0.0353749
-0.0271565
-0.0384785
-0.0278415
-0.0281404
-0.0397076
-0.0032694
-0.000567604
-0.0101759
-0.00369032
-0.0190273
-0.00699914
-0.0287708
-0.00988937
-0.0387593
-0.0123475
-0.0485807
-0.0145523
-0.0579481
-0.0166031
-0.0666016
-0.018503
-0.0742438
-0.0201993
-0.0217566
-0.0806276
-0.00483422
0.00426662
-0.014521
0.0059965
-0.0263275
0.00480729
-0.0388429
0.00262609
-0.0514343
0.000243866
-0.06368
-0.00230655
-0.0754385
-0.00484457
-0.0865412
-0.00740023
-0.0968137
-0.00992686
-0.0123924
-0.106178
-0.00578092
0.0100475
-0.017054
0.0172696
-0.0305157
0.018269
-0.0445642
0.0166745
-0.058484
0.0141637
-0.0720909
0.0113004
-0.085164
0.00822853
-0.097546
0.00498177
-0.109083
0.00161044
-0.00178965
-0.119686
-0.00580682
-0.0173142
-0.0311437
-0.0456249
-0.0600484
-0.0741272
-0.0876835
-0.100547
-0.112527
-0.123495
0.230331
0.116295
-0.196952
0.250114
0.414055
-0.433838
0.262663
0.266051
-0.278599
0.253221
0.0490846
-0.0396427
0.223291
-0.00871617
0.0386462
0.200989
-0.00650447
0.0288059
0.194165
-0.0102665
0.0170909
0.195908
-0.0130447
0.0113017
0.201339
-0.016885
0.0114542
-0.0152675
0.00924284
0.202282
0.0272645
0.248487
0.36785
0.270786
0.243752
0.251023
0.0688482
0.216789
0.025517
0.198452
0.0118327
0.195281
-0.00709558
0.198233
-0.0159967
0.203383
-0.0220346
-0.0203439
0.164054
-0.0442135
0.229455
0.302449
0.252513
0.220694
0.226271
0.0950897
0.199942
0.0518459
0.192315
0.0194601
0.194863
-0.00964385
0.199507
-0.0206407
0.204537
-0.0270645
-0.0245588
0.114568
-0.0971389
0.186061
0.230956
0.202883
0.203872
0.186351
0.111622
0.180876
0.057321
0.186881
0.0134546
0.194721
-0.0174831
0.200651
-0.0265706
0.205468
-0.0318823
-0.0279711
0.047523
-0.134055
0.111746
0.166732
0.135992
0.179626
0.149304
0.0983107
0.168076
0.0385486
0.184448
-0.00291709
0.195448
-0.0284833
0.201921
-0.0330437
0.20637
-0.0363312
-0.0306371
-0.0311451
-0.142617
0.0324401
0.103147
0.0850199
0.127046
0.12966
0.0536703
0.163601
0.00460831
0.18472
-0.0240361
0.196836
-0.0405999
0.203279
-0.0394861
0.207267
-0.0403194
-0.0326314
-0.0926914
-0.130553
-0.0143747
0.0248303
0.0658727
0.0467986
0.125451
-0.00590785
0.16423
-0.0341708
0.186349
-0.0461557
0.198477
-0.0527271
0.204622
-0.0456318
0.208145
-0.0438422
-0.0340473
-0.117886
-0.118845
-0.0250358
-0.0680201
0.0660041
-0.0442413
0.127927
-0.0678312
0.166566
-0.0728096
0.1883
-0.0678895
0.200085
-0.064512
0.205883
-0.0514304
0.208992
-0.0469509
-0.03499
-0.122459
-0.116072
-0.0212184
-0.169261
0.0707791
-0.136239
0.131276
-0.128328
0.168895
-0.110429
0.1901
-0.0890944
0.201537
-0.0759491
0.207032
-0.0569252
0.209802
-0.0497204
-0.0355693
-0.121118
-0.0179956
0.0745379
0.133948
0.170863
0.191666
0.202812
0.208063
0.210571
0.0399095
0.0464551
-0.0863646
0.00183227
0.0380772
-0.0164341
0.0182664
-0.00383986
-0.0125942
0.0200623
-0.0239021
0.0363477
-0.0162854
0.0433123
-0.00696455
0.0458625
-0.00255023
0.0470204
-0.0011579
-0.000686331
0.177728
0.149671
-0.280944
0.0731693
0.142636
0.0299264
0.0615093
0.0459597
-0.0286276
0.0805874
-0.0585298
0.104139
-0.0398372
0.115251
-0.0180759
0.119946
-0.00724558
0.122606
-0.00381812
-0.00230707
0.328916
0.234898
-0.414144
0.195735
0.275817
0.121376
0.135869
0.118042
-0.0252941
0.138445
-0.0789326
0.154509
-0.0559012
0.163391
-0.0269577
0.167895
-0.0117505
0.171133
-0.00705553
-0.00451857
0.421122
0.255394
-0.441618
0.311132
0.385807
0.22869
0.218311
0.201732
0.0016642
0.194978
-0.0721785
0.191951
-0.0528747
0.192223
-0.0272296
0.193843
-0.0133698
0.196517
-0.0097303
-0.00690113
0.421935
-0.363493
0.373904
0.313615
0.275637
0.242104
0.218036
0.207897
0.205829
0.207553
0.0105388
-0.000163952
-0.0103749
0.0121386
-0.00159983
0.0150506
-0.00291192
0.0195436
-0.00449301
0.025799
-0.00625541
0.0338785
-0.00807951
0.0437565
-0.00987794
0.056557
-0.0128005
0.0705157
-0.0139588
-0.0158489
0.0292175
-0.000919898
-0.0284615
0.0338276
-0.00621002
0.042238
-0.0113223
0.055678
-0.017933
0.0745242
-0.0251016
0.0991452
-0.0327005
0.132878
-0.0436111
0.17266
-0.052582
0.221867
-0.0631663
-0.0749253
0.0454109
-0.0025313
-0.0437994
0.0527952
-0.0135944
0.0661489
-0.024676
0.0874655
-0.0392496
0.11634
-0.0539756
0.155844
-0.0722046
0.206894
-0.0946611
0.265072
-0.110761
0.340051
-0.138145
-0.149018
0.0589469
-0.00513487
-0.0563434
0.0686359
-0.0232833
0.0860961
-0.0421362
0.112835
-0.0659889
0.1491
-0.0902404
0.197796
-0.1209
0.25401
-0.150875
0.320797
-0.177548
0.39343
-0.210778
-0.197206
0.0698931
-0.066259
0.0814353
0.101927
0.131783
0.172603
0.221647
0.276812
0.333695
0.357461
0.0814307
-0.0725614
0.0805127
-0.089382
0.0728357
-0.0736478
0.0822428
0.063972
-0.0753814
0.0842451
0.0545321
-0.0772206
0.0866605
0.0444042
-0.0790317
0.0891596
0.0337034
-0.0804992
0.0912
0.022793
-0.0805268
0.0914372
0.0124239
-0.076329
0.0866982
0.00402425
-0.0624904
0.0708901
-0.0306701
0.0346944
0.0897821
-0.0631675
-0.099176
0.0800204
-0.0638861
0.0696067
-0.0649677
0.058605
-0.0662189
0.0471833
-0.0676099
0.0355305
-0.0688464
0.023937
-0.0689333
0.0130514
-0.0654434
0.00424871
-0.0536878
-0.0264214
0.0905354
-0.0526148
-0.101088
0.0798898
-0.0532405
0.0690602
-0.054138
0.0580556
-0.0552144
0.0468444
-0.0563987
0.0354171
-0.0574191
0.0239517
-0.0574679
0.0130812
-0.0545729
0.00424416
-0.0448507
-0.0221773
0.0953905
-0.0418922
-0.106113
0.0845073
-0.0423573
0.0733942
-0.043025
0.0619672
-0.0437873
0.0501722
-0.0446038
0.0380454
-0.0452923
0.0258314
-0.0452539
0.0142147
-0.0429563
0.00468985
-0.0353259
-0.0174874
0.0975718
-0.0307301
-0.108734
0.0862688
-0.0310543
0.0747142
-0.0314704
0.0628847
-0.0319578
0.050775
-0.0324941
0.0384358
-0.032953
0.0260829
-0.032901
0.0143518
-0.0312252
0.00472476
-0.0256988
-0.0127626
0.100509
-0.0194289
-0.11181
0.0889731
-0.0195186
0.0771826
-0.0196799
0.0651066
-0.0198819
0.0527243
-0.0201118
0.0400629
-0.0202916
0.0273205
-0.0201587
0.0151384
-0.0190431
0.00504693
-0.0156073
-0.00771571
0.102475
-0.00788137
-0.114022
0.0907239
-0.00776777
0.0787143
-0.00767023
0.0664188
-0.00758638
0.0538164
-0.00750935
0.0409318
-0.00740701
0.0279562
-0.00718304
0.0155242
-0.00661116
0.00518886
-0.00527189
-0.00252686
0.104205
0.00379279
-0.115879
0.0922895
0.00414803
0.0801045
0.00451476
0.0676237
0.00489448
0.0548276
0.00528675
0.0417416
0.00567891
0.0285542
0.00600439
0.0158973
0.00604576
0.00533748
0.00528793
0.00281063
0.105375
0.0155789
-0.117161
0.093344
0.0161789
0.0810401
0.0168187
0.0684374
0.0174972
0.0555156
0.0182085
0.042297
0.0188975
0.0289648
0.0193366
0.0161492
0.0188614
0.00543307
0.0160041
0.0082437
0.105993
-0.117854
0.093893
0.0815198
0.0688493
0.0558611
0.0425749
0.0291698
0.0162736
0.00547883
0.0132567
-0.152687
-0.0153572
0.00881468
-0.166929
0.00335528
-0.175026
-0.00225308
-0.179869
-0.0073478
-0.182579
-0.0111462
-0.182599
-0.0125857
-0.176967
-0.0105398
-0.159439
-0.00505998
-0.12061
-0.0515699
0.0360563
-0.149791
-0.0389516
0.0301377
-0.16101
0.0229473
-0.167835
0.0154307
-0.172353
0.00814138
-0.17529
0.00168371
-0.176141