/*--------------------------------*- C++ -*----------------------------------*\
  =========                 |
  \\      /  F ield         | OpenFOAM: The Open Source CFD Toolbox
   \\    /   O peration     | Website:  https://openfoam.org
    \\  /    A nd           | Version:  13
     \\/     M anipulation  |
\*---------------------------------------------------------------------------*/
FoamFile
{
    format      ascii;
    class       surfaceScalarField;
    location    "1.3";
    object      phi;
}
// * * * * * * * * * * * * * * * * * * * * * * * * * * * * * * * * * * * * * //

dimensions      [0 3 -1 0 0 0 0];

internalField   nonuniform List<scalar> 
823
(
0.0199173
0.0200428
-0.0399601
0.0824187
-0.0650912
0.00258976
0.163446
-0.180724
0.0996972
0.237067
-0.264348
0.190726
-0.312582
0.257901
0.291748
0.0319287
-0.0118859
0.113897
-0.147059
0.198033
-0.26486
0.263548
-0.329863
-0.35928
0.310247
0.0456333
-0.0575192
0.127403
-0.228829
0.19131
-0.328766
0.229451
-0.368004
-0.376653
0.246824
0.0536236
-0.111143
0.117107
-0.292313
0.154834
-0.366493
0.172332
-0.385503
-0.386358
0.182037
0.0471341
-0.158277
0.085042
-0.33022
0.0989522
-0.380403
0.10052
-0.38707
0.0965485
-0.382387
-0.0270157
0.0327896
-0.00577391
-0.0568297
0.0296738
0.000140169
-0.0704124
0.00229073
0.011292
-0.0635162
-0.0298668
0.0229706
-0.0603226
-0.0352535
0.0320598
-0.0197817
0.0525713
-0.041175
0.0510672
-0.0481786
0.00929431
-0.037576
-0.0404695
-0.0918098
-0.00608866
-0.00664392
0.0592152
-0.0105843
0.0550075
-0.000420939
-0.000869023
0.0272451
-0.0681355
-0.13752
0.072955
0.00606421
0.053151
0.0243816
0.0366901
0.0607641
-0.0372515
0.112142
-0.119513
-0.198061
0.172683
0.0131909
0.0524708
0.114916
0.18613
0.24597
0.248726
-0.590969
0.306989
0.353533
-0.318613
0.213806
0.394436
-0.177278
0.136375
0.406469
-0.102736
0.0907029
-0.0376779
0.0394843
0.22431
-0.821367
0.347835
-0.442138
0.393166
-0.222609
0.40698
-0.116551
-0.0376867
0.2178
-0.966212
0.338912
-0.56325
0.38875
-0.272446
0.405932
-0.133733
-0.0414271
0.245392
-1.03892
0.334767
-0.652624
0.38241
-0.320089
0.403448
-0.154771
-0.05062
0.288038
-1.08099
0.339407
-0.703993
0.377567
-0.358249
0.400501
-0.177705
-0.0662532
0.96523
-0.862294
-1.18393
0.781622
-0.520386
0.69327
-0.269897
0.656053
-0.140487
-0.0544889
0.927513
-0.589907
-1.1999
0.765267
-0.35814
0.692865
-0.197495
0.659574
-0.107196
-0.0420338
0.943701
-0.367486
-1.16612
0.793741
-0.208179
0.710863
-0.114618
0.667738
-0.0640708
-0.0258517
0.916686
-0.158377
-1.1258
0.778299
-0.0697925
0.699334
-0.0356524
0.657495
-0.022232
-0.00977501
0.635819
-0.794196
0.566027
0.530375
0.508143
1.03739
0.0500805
-0.990919
1.06525
0.154171
1.13936
0.172715
1.16214
0.287468
0.269963
0.957476
0.0208757
-0.928271
1.0013
0.11035
1.05604
0.117975
1.13955
0.203954
0.209612
0.913823
0.00446196
-0.897409
0.961849
0.0623247
1.00923
0.0705968
1.0894
0.123786
0.132885
0.867454
-0.00618334
-0.856809
0.912341
0.0174376
0.96095
0.0219881
1.04007
0.0446671
0.047159
0.662944
-0.669128
0.680382
0.70237
0.747037
0.120596
0.285811
-0.242609
-0.163799
0.0813158
0.294021
-0.25474
0.0456069
0.3047
-0.268991
0.0151898
0.297935
-0.267518
0.195035
-0.179845
0.109359
0.322949
-0.146497
0.0737149
0.329665
0.039871
0.338544
0.0119091
0.325897
0.206944
0.0704062
0.351073
-0.0985308
0.0416874
0.358384
0.0158533
0.364378
-0.00173767
0.343487
0.205207
0.0247713
0.372225
-0.0459233
0.0039139
0.379241
-0.0115611
0.379854
-0.0144731
0.346399
0.190734
-0.0402568
0.0300953
-0.0480859
-0.0486357
-0.0324568
0.185107
0.0944588
-0.23314
-0.0464262
0.135987
0.0982502
-0.0491302
0.0854211
0.102848
-0.0522823
0.0351466
0.104051
-0.0537765
0.0750956
-0.0399491
0.188087
0.139999
-0.233628
0.140953
0.145385
0.0901406
0.15366
0.0377882
0.156403
0.112884
0.14773
0.182558
-0.190288
0.106091
0.187024
0.0643325
0.195419
0.0244942
0.196242
0.137378
0.144967
0.217248
-0.179658
0.106531
0.22546
0.064939
0.237011
0.0248432
0.236338
0.162221
0.110065
-0.135425
0.0807847
0.0488042
0.0176242
0.410778
0.0256868
-0.0404849
0.415635
0.0825466
-0.0874035
0.407955
0.153273
-0.145593
0.368006
0.211772
-0.171822
0.428892
-0.294026
0.40802
0.0136463
0.41077
0.0797967
0.399893
0.16415
0.363736
0.247929
0.559
0.403019
0.00660684
0.402153
0.0806631
0.383933
0.182369
0.356182
0.27568
0.724894
0.39627
0.00631631
0.388346
0.0885875
0.367589
0.203126
0.334297
0.308972
0.879532
0.387777
0.0145191
0.371872
0.104492
0.33972
0.235278
0.310362
0.33833
1.05447
0.616685
0.00185434
0.631972
0.0892056
0.668114
0.199136
0.741618
0.264825
0.866263
0.929825
0.619482
-0.013607
0.644472
0.0642149
0.695654
0.147955
0.755366
0.205113
0.664051
0.957578
0.62256
-0.032147
0.657398
0.0293776
0.710369
0.0949834
0.772531
0.142951
0.431963
1.00462
0.620927
-0.0490536
0.659823
-0.00951867
0.713069
0.0417373
0.786303
0.0697172
0.203951
1.01432
0.554967
0.545448
0.587185
0.656903
0.860854
0.953772
-0.187746
0.958273
-0.150998
0.958816
-0.0990741
0.975448
-0.0625549
0.0146239
0.93844
-0.168609
0.925068
-0.137626
0.913409
-0.0874149
0.916149
-0.0652945
0.00250145
0.954539
-0.118528
0.920529
-0.103616
0.90053
-0.0674157
0.888052
-0.0528172
-0.00685551
0.95189
-0.0561032
0.900502
-0.0522276
0.871755
-0.0386689
0.851484
-0.0325458
-0.0121804
0.80475
0.752523
0.713854
0.681308
0.0519517
0.164592
-0.216543
0.0741416
0.354028
-0.376218
0.0719095
0.408122
-0.40589
0.0629994
0.410634
-0.401724
0.380065
0.0511268
-0.368192
0.0840245
0.0805672
0.155808
0.282245
0.187137
0.376793
0.191281
0.40649
0.394894
0.176451
0.0728457
0.0077215
0.197981
0.15711
0.284995
0.289779
0.328
0.363485
0.407359
0.315535
0.0377282
-0.0300067
0.167028
0.0278096
0.305189
0.151619
0.426025
0.242649
0.341897
0.491487
0.0177492
-0.0477559
0.0995832
-0.0540244
0.229555
0.021647
0.37032
0.101884
0.23759
0.474626
0.0232143
-0.0709702
0.0673023
-0.0981125
0.146754
-0.0578043
0.248065
0.000572882
0.127941
0.357714
0.0100998
-0.08107
0.0180654
-0.106078
0.036273
-0.0760119
0.0619671
-0.0251213
0.0581726
0.131735
-0.0236145
-0.0574554
-0.0570222
-0.0726704
-0.0795497
-0.0534844
-0.0838437
-0.0208273
0.0205247
-0.0461958
-0.0325617
-0.0248938
-0.071336
-0.033896
-0.0954093
-0.0294112
-0.0974208
-0.0188157
-0.00592206
-0.0709741
-0.0306677
-0.0644235
-0.0825428
-0.0783879
-0.0522501
0.336834
0.611434
-0.590554
0.324202
0.246799
-0.234167
0.350177
0.0444497
-0.0704246
0.378024
-0.0243912
-0.00345503
-0.024621
0.00533624
0.200074
0.543095
0.312774
0.134099
0.365692
-0.00846823
0.388497
-0.0471969
-0.0355161
0.18763
0.309269
0.330231
-0.00850155
0.377279
-0.0555162
0.395098
-0.0650156
-0.0404385
0.233283
0.00501211
0.34501
-0.120229
0.386819
-0.0973255
0.400547
-0.0787435
-0.0410944
0.259751
0.353329
0.392378
0.404337
0.243337
0.29768
-0.541016
0.284509
-0.0411723
0.331293
-0.0467841
0.354131
-0.0228377
-0.00707164
0.925875
-1.21875
0.650535
0.533326
0.507034
0.0909401
-0.0125266
-0.0784134
0.147411
-0.0564712
0.227512
-0.080101
0.396813
-0.1693
-0.144204
0.210725
-0.172125
0.330705
0.566139
0.888326
0.137686
-0.13528
0.166275
-0.168681
0.105678
-0.142113
0.174121
0.0688243
-0.150646
0.1875
0.0282039
-0.150908
0.191528
-0.104923
0.133127
0.190602
-0.0975404
-0.228341
0.146523
-0.0980335
0.0946435
-0.0987667
0.039988
-0.0962524
-0.0649352
0.168859
-0.0480764
-0.218323
0.120112
-0.0492867
0.0729941
-0.0516488
0.0290802
-0.0523385
-0.0358551
0.19178
-0.00106539
-0.238791
0.142717
-0.000223326
0.0908497
0.000218119
0.0379287
0.000582484
0.00207368
0.192487
-0.239979
0.143134
0.0910694
0.0378754
0.0564227
-0.345993
-0.0786218
0.0262144
-0.371516
-0.000754381
-0.378921
-0.0148762
-0.362096
-0.23142
0.141945
-0.310615
-0.177323
0.0952246
-0.324796
0.0480384
-0.331735
0.0116836
-0.325741
-0.219736
0.166023
-0.263683
-0.212955
0.115618
-0.274391
0.0676726
-0.28379
0.0248977
-0.282966
-0.194838
0.179105
-0.220342
-0.222447
0.130465
-0.22575
0.0811012
-0.234426
0.0333451
-0.23521
-0.161493
0.170604
-0.224671
0.118974
0.0720482
0.028366
0.390965
0.0806221
-0.0756074
0.37457
0.0927242
-0.0763298
0.333779
0.0725197
-0.0317283
0.30817
0.0265664
-0.000957361
-0.191587
0.331076
0.398965
0.0776363
0.393139
0.0985508
0.364197
0.101461
0.332654
0.0581094
-0.0872746
0.404829
0.0687872
0.406339
0.0970409
0.382956
0.124844
0.35048
0.0905849
0.0448829
0.409114
0.0556529
0.413393
0.0927618
0.400662
0.137575
0.361176
0.130072
0.167267
0.411148
0.416506
0.408488
0.366737
0.432547
0.0775038
0.371556
0.0609916
0.351919
0.0196368
0.363191
-0.0112726
-0.168853
0.532045
0.511947
0.496609
0.484518
0.472288
0.634511
0.419195
0.11285
0.319027
0.100168
0.20849
0.110536
0.117681
0.0908089
0.0392679
0.522689
0.400411
0.297992
0.211479
)
;

boundaryField
{
    left
    {
        type            calculated;
        value           nonuniform List<scalar> 
17
(
-0.60402
-0.60402
-0.60402
-0.60402
-0.60402
-0.39598
-0.39598
-0.39598
-0.39598
-0.39598
-0.39598
-0.39598
-0.39598
-0.39598
-0.39598
-0.510051
-0.510051
)
;
    }
    right
    {
        type            calculated;
        value           nonuniform List<scalar> 
17
(
0.361202
0.505298
0.397308
0.399392
0.40002
0.401203
0.402727
0.404663
0.406989
0.409673
0.41264
0.416134
0.644288
0.647119
0.651556
0.641418
0.498368
)
;
    }
    down
    {
        type            calculated;
        value           uniform 0;
    }
    up
    {
        type            calculated;
        value           uniform 0;
    }
    cylinder
    {
        type            calculated;
        value           uniform 0;
    }
    defaultFaces
    {
        type            empty;
    }
}


// ************************************************************************* //
