/*--------------------------------*- C++ -*----------------------------------*\
  =========                 |
  \\      /  F ield         | OpenFOAM: The Open Source CFD Toolbox
   \\    /   O peration     | Website:  https://openfoam.org
    \\  /    A nd           | Version:  13
     \\/     M anipulation  |
\*---------------------------------------------------------------------------*/
FoamFile
{
    format      ascii;
    class       volVectorField;
    location    "1.745";
    object      U;
}
// * * * * * * * * * * * * * * * * * * * * * * * * * * * * * * * * * * * * * //

dimensions      [0 1 -1 0 0 0 0];

internalField   nonuniform List<vector> 
440
(
(-0.14629 0.135577 -1.05395e-19)
(-0.0309106 0.138149 2.85883e-20)
(0.4747 -0.026266 -1.03584e-20)
(1.09623 -0.218236 -8.70894e-20)
(1.65087 -0.398548 -9.19283e-21)
(-0.0848992 0.0551515 6.23777e-20)
(0.36749 -0.0576329 -1.5626e-19)
(1.14141 -0.202489 -1.55145e-19)
(1.76376 -0.296861 6.26478e-20)
(2.17226 -0.376826 -1.44867e-21)
(0.0795693 -0.0345539 7.25608e-20)
(0.982518 -0.143926 1.10141e-18)
(1.78302 -0.199387 -8.79654e-19)
(2.22343 -0.227032 -2.87696e-18)
(2.3987 -0.235004 1.24322e-18)
(0.391676 -0.0743051 -1.91498e-19)
(1.55173 -0.0635672 -7.78074e-19)
(2.18211 -0.0586737 2.60173e-18)
(2.40931 -0.053505 2.79577e-18)
(2.45329 -0.0719917 -7.75622e-19)
(0.77066 0.000244171 -3.88369e-19)
(1.92947 0.114923 -8.286e-19)
(2.36814 0.147267 2.49521e-18)
(2.47746 0.133759 2.5875e-18)
(2.4848 0.117523 8.60745e-19)
(-0.0447924 0.202111 1.61235e-19)
(-0.169174 0.205748 6.88353e-20)
(-0.243494 0.0870049 -1.12797e-19)
(-0.266295 -0.0525836 -2.79919e-20)
(-0.236359 -0.156994 -5.68656e-19)
(-0.0998341 0.358622 -1.58948e-20)
(-0.212907 0.405361 -2.3015e-19)
(-0.251608 0.222493 9.99677e-20)
(-0.233432 -0.0106086 8.73266e-20)
(-0.146416 -0.213056 -1.08144e-19)
(-0.161286 0.423453 -4.85602e-19)
(-0.243066 0.546826 1.56155e-19)
(-0.193698 0.365439 -2.28163e-19)
(-0.108846 0.0556778 2.59057e-19)
(0.108252 -0.265023 -1.94589e-20)
(-0.182825 0.3537 -4.04958e-20)
(-0.237926 0.532175 -4.65155e-21)
(-0.0984988 0.421307 -2.80824e-21)
(0.101342 0.123431 -6.05511e-20)
(0.580403 -0.257359 1.75451e-19)
(-0.171361 0.230156 -2.45212e-22)
(-0.193696 0.351752 -3.90292e-22)
(0.0688503 0.235754 1.28314e-19)
(0.461043 -0.0234779 1.3181e-20)
(1.12022 -0.324809 7.02567e-19)
(0.0158846 -0.330738 -4.27347e-19)
(0.636103 -0.260706 1.94238e-21)
(0.844936 -0.149623 1.33886e-20)
(0.967343 -0.0953026 -2.47233e-20)
(1.02577 -0.0429883 -5.39157e-21)
(0.112372 -0.489333 1.25449e-18)
(0.66636 -0.381483 -5.42036e-20)
(0.870922 -0.20423 1.1273e-20)
(0.983088 -0.117984 2.17645e-20)
(1.03285 -0.050565 1.10267e-20)
(0.46554 -0.621861 5.05789e-19)
(0.766182 -0.484745 4.41913e-19)
(0.919251 -0.254299 -1.10378e-20)
(1.00607 -0.138125 3.43998e-20)
(1.04182 -0.0568583 -3.15697e-21)
(0.983366 -0.695194 -4.43096e-19)
(0.979455 -0.542839 -1.82709e-19)
(1.00354 -0.290449 -3.28415e-20)
(1.03981 -0.153124 -3.08335e-20)
(1.05305 -0.0611225 8.11563e-21)
(1.48787 -0.710366 -1.79794e-19)
(1.25781 -0.546779 -4.83992e-19)
(1.12588 -0.299945 0)
(1.08893 -0.158096 3.65078e-20)
(1.06803 -0.0624267 5.48109e-21)
(2.06025 -0.671562 -2.38782e-19)
(1.59005 -0.50509 1.62168e-19)
(1.29469 -0.274924 -4.81078e-21)
(1.16324 -0.141886 3.20871e-20)
(1.09195 -0.0564319 -2.25064e-20)
(1.95248 -0.5069 5.27514e-20)
(1.45102 -0.308244 7.51597e-21)
(1.23106 -0.156266 -4.70414e-21)
(1.14566 -0.0874898 -5.17403e-20)
(1.08863 -0.0384269 0)
(1.95906 -0.353673 -2.78174e-19)
(1.529 -0.231393 1.18032e-20)
(1.28496 -0.127503 -5.09107e-20)
(1.17421 -0.0698495 1.73804e-20)
(1.09716 -0.0290768 -8.21212e-21)
(1.85624 -0.224359 -3.87092e-21)
(1.45278 -0.106546 5.16004e-20)
(1.22845 -0.0377045 -1.36045e-20)
(1.13097 -0.0204575 -1.03807e-34)
(1.06251 -0.0107533 3.38155e-21)
(1.16742 -0.0465483 6.27172e-20)
(0.879913 -0.00961332 -3.83545e-21)
(0.803913 0.000787251 -8.47697e-22)
(0.784744 1.36816e-05 -4.26578e-21)
(0.759508 -0.000671741 1.72713e-21)
(2.324 0.0665257 -1.0481e-18)
(2.46349 -0.0504956 -1.27903e-18)
(2.3172 -0.234931 1.15121e-18)
(2.4461 -0.328223 -9.8301e-20)
(2.12675 -0.481463 -8.58143e-20)
(2.18755 -0.00452334 5.24373e-20)
(2.2706 -0.00658095 -3.98456e-20)
(2.2471 -0.210973 -1.12771e-19)
(2.2545 -0.223478 -1.63057e-19)
(2.22317 -0.416259 -2.03924e-21)
(2.14405 -0.0209104 7.15352e-20)
(2.15606 -0.0200237 1.03833e-19)
(2.18846 -0.159678 -1.31875e-19)
(2.14637 -0.166784 4.36897e-20)
(2.15546 -0.299379 4.69358e-20)
(2.04966 -0.0386427 1.18201e-19)
(2.04224 -0.0415061 1.24021e-19)
(2.08585 -0.120251 -1.75772e-20)
(2.03567 -0.123248 -2.93996e-21)
(2.0641 -0.201001 1.87667e-20)
(1.55738 -0.0314138 1.70755e-19)
(1.5226 -0.0289211 -1.29656e-20)
(1.514 -0.0481094 2.42342e-20)
(1.4374 -0.0413775 -1.87187e-20)
(1.43751 -0.0661957 1.13785e-20)
(1.56138 0.906477 1.17141e-18)
(1.52496 0.994496 -3.36728e-19)
(1.52546 1.11225 -1.31497e-18)
(1.45742 1.13935 7.37149e-19)
(0.904042 0.818356 -1.86588e-19)
(1.84439 0.790796 -5.90889e-19)
(1.83096 0.875678 -3.13785e-18)
(1.83645 0.984864 -1.21393e-18)
(1.75299 0.998509 -4.23968e-19)
(1.07768 0.706056 -6.90017e-19)
(2.10697 0.683047 8.55391e-19)
(2.10049 0.748411 2.01759e-19)
(2.10209 0.832636 -2.41866e-18)
(1.9774 0.814004 -6.79861e-19)
(1.18113 0.547301 5.07797e-19)
(2.29272 0.506053 2.54755e-18)
(2.30733 0.555067 1.85794e-18)
(2.30093 0.616529 -2.1438e-18)
(2.11253 0.586492 -1.68264e-18)
(1.18564 0.358267 -3.14616e-19)
(2.40768 0.323038 1.25724e-18)
(2.43056 0.358229 -9.04313e-19)
(2.39609 0.385177 6.59565e-19)
(2.10359 0.345477 5.58103e-19)
(1.05068 0.163124 -5.1397e-19)
(0.533047 0.462603 -4.63062e-19)
(0.449194 0.49909 -3.47407e-19)
(0.340593 0.538457 3.8324e-20)
(0.21458 0.554279 1.81295e-21)
(0.0550315 0.407088 9.41516e-20)
(0.665803 0.639983 2.00267e-19)
(0.598993 0.698279 -2.26623e-19)
(0.509889 0.764755 1.92508e-19)
(0.387528 0.810822 -8.90695e-20)
(0.169436 0.614116 1.23484e-19)
(0.801225 0.810929 1.24484e-19)
(0.731741 0.886572 5.01391e-19)
(0.669076 0.980349 8.46861e-20)
(0.579836 1.03663 -3.06915e-19)
(0.3184 0.779123 2.49864e-19)
(1.04294 0.922139 3.05253e-19)
(0.997795 1.01143 -8.04068e-19)
(0.948309 1.10874 -2.04867e-18)
(0.863254 1.15949 8.12348e-19)
(0.512319 0.861716 -1.86003e-19)
(1.18776 0.920201 -1.50288e-19)
(1.19863 1.03863 -2.27987e-19)
(1.21223 1.15772 -3.44971e-19)
(1.15827 1.20241 -4.00094e-19)
(0.715384 0.879103 -6.58344e-21)
(0.887178 0.0260786 -1.12366e-19)
(1.10266 0.0637326 -4.14465e-20)
(0.968688 0.124692 -2.68206e-21)
(0.95816 0.152256 -3.77852e-19)
(0.835781 0.285097 2.90156e-19)
(0.887038 0.0206563 7.84925e-20)
(1.10342 0.0657406 1.41181e-19)
(0.97755 0.132886 1.38104e-19)
(0.976447 0.185823 5.66345e-20)
(0.918244 0.36852 -3.96057e-20)
(0.88813 0.0161034 1.07249e-19)
(1.10118 0.0657269 -4.96655e-21)
(0.998971 0.145031 -3.92356e-21)
(0.970525 0.198669 1.75898e-19)
(1.11026 0.490159 -4.96802e-19)
(0.888535 0.0120553 -2.04143e-21)
(1.10268 0.0650452 -1.78952e-19)
(1.00686 0.155166 -6.97917e-20)
(1.03077 0.206934 -4.42141e-19)
(1.17137 0.538446 1.26806e-19)
(0.887243 0.00916885 -2.42669e-20)
(1.10433 0.065577 4.6647e-20)
(1.02964 0.160913 3.33642e-20)
(1.02735 0.232294 4.96556e-19)
(1.42172 0.671334 -4.74805e-19)
(0.873673 0.00530065 -1.80999e-20)
(1.12923 0.0576784 8.70408e-20)
(1.02323 0.169413 -9.60105e-20)
(1.18724 0.164997 8.94274e-19)
(1.39009 0.657328 -4.41163e-19)
(0.871702 -0.00895859 -2.60138e-21)
(1.13656 0.0473796 -8.2381e-20)
(1.05441 0.123604 4.80575e-21)
(1.25449 0.140863 -2.6985e-19)
(1.38278 0.484511 3.9709e-21)
(0.872597 -0.014502 -8.27964e-21)
(1.13868 0.0318974 1.24679e-35)
(1.10411 0.0883164 -4.63003e-20)
(1.25701 0.0931573 8.73813e-20)
(1.40308 0.354039 1.6455e-19)
(0.875104 -0.0378822 5.85289e-21)
(1.12151 -0.00246331 -2.08553e-20)
(1.12987 0.0400939 1.83815e-20)
(1.21563 0.064687 3.46493e-20)
(1.47073 0.214082 -2.53618e-19)
(0.832649 -0.0238726 -3.46638e-20)
(0.933385 -0.0177346 -2.38365e-21)
(0.885419 0.00757274 2.75566e-20)
(0.955613 0.0118451 -1.58683e-20)
(1.21969 0.0582949 -5.85996e-20)
(1.75947 0.75279 3.70157e-19)
(1.87245 0.642378 8.82986e-19)
(2.09893 0.579255 -1.20883e-18)
(2.17863 0.392944 7.23121e-20)
(2.35234 0.273524 4.82455e-19)
(1.70227 0.497351 1.78109e-20)
(1.78754 0.393638 9.88286e-19)
(1.95324 0.385462 9.95214e-20)
(2.0336 0.207935 -9.74322e-19)
(2.17131 0.199681 -3.0655e-19)
(1.70816 0.32992 -2.13517e-19)
(1.80931 0.249095 -1.58313e-19)
(1.92438 0.247403 1.89764e-19)
(2.01512 0.123569 -3.0998e-19)
(2.08625 0.125989 2.73456e-19)
(1.71669 0.185624 3.62883e-19)
(1.79949 0.134803 -5.10451e-21)
(1.88084 0.125131 2.36994e-19)
(1.95276 0.0521385 1.95243e-19)
(1.99115 0.0452654 -1.8524e-19)
(1.42846 0.0384421 -4.37142e-20)
(1.486 0.0202265 2.45594e-19)
(1.53333 0.0109812 1.12275e-19)
(1.5559 -0.00881653 -2.21751e-19)
(1.5579 -0.0132196 5.99263e-22)
(1.14555 -0.0279536 4.65679e-20)
(2.16814 -0.0461681 -3.87992e-19)
(2.41059 -0.03661 1.06436e-18)
(2.41534 0.0168377 4.59264e-19)
(2.24339 0.0287637 -3.02456e-19)
(0.692168 0.0846143 7.06002e-20)
(1.94491 0.0688503 -3.91966e-19)
(2.41317 0.0751963 -5.00391e-19)
(2.47996 0.0767188 5.86441e-19)
(2.26578 0.0907511 -3.62458e-19)
(0.168895 0.0609355 -4.11123e-20)
(1.28713 0.127501 4.2634e-19)
(2.07782 0.146725 6.71136e-20)
(2.47642 0.149985 2.78342e-19)
(2.64316 0.130634 8.43845e-20)
(-0.0743242 -0.0356764 2.40429e-19)
(0.416546 0.0527907 2.18356e-19)
(1.24286 0.121281 -2.87998e-19)
(1.8239 0.15673 -1.06139e-20)
(2.43994 0.189164 -3.19833e-19)
(-0.0995578 -0.0741738 7.25666e-20)
(-0.0642391 -0.111965 -1.77511e-19)
(0.417494 -0.0621449 -2.56802e-21)
(0.830434 -0.060209 -2.27251e-19)
(1.52394 0.0762535 -1.22342e-19)
(-0.100912 -0.154787 -1.00467e-19)
(-0.198961 -0.37247 8.93562e-20)
(-0.0237431 -0.450608 -2.16949e-19)
(0.0581601 -0.440711 3.62987e-19)
(0.730476 -0.228019 -2.07256e-20)
(-0.161639 -0.328221 -7.82878e-21)
(-0.263592 -0.593626 1.1283e-19)
(-0.20279 -0.585447 1.6702e-19)
(-0.137204 -0.402219 -9.2714e-21)
(0.159515 -0.116236 -9.30465e-21)
(-0.144658 -0.326088 -5.08898e-20)
(-0.287428 -0.433758 -5.54634e-19)
(-0.335947 -0.304688 3.45609e-19)
(-0.328951 -0.140713 4.93027e-19)
(-0.237746 0.00420438 1.48447e-19)
(-0.0699933 -0.158939 2.09816e-20)
(-0.222978 -0.228164 1.44623e-19)
(-0.308593 -0.198563 -3.02426e-19)
(-0.332947 -0.130429 7.58037e-20)
(-0.301786 -0.0662595 -2.8473e-20)
(-0.0287612 0.0226402 -9.33714e-21)
(-0.153716 -0.00561313 2.86728e-20)
(-0.238139 -0.0442388 -7.10652e-21)
(-0.275604 -0.0790106 1.70401e-20)
(-0.260247 -0.10201 -1.15225e-19)
(1.48342 0.297403 6.04153e-21)
(1.13973 0.178582 6.87417e-19)
(0.940514 0.100508 -2.84838e-20)
(0.957119 0.0325624 5.23466e-20)
(1.00857 0.00373613 -3.04468e-22)
(0.621562 0.322431 1.26134e-19)
(0.697122 0.197534 -3.4007e-19)
(0.828923 0.0594115 -7.53805e-20)
(0.944941 -0.0082824 2.36431e-21)
(1.01356 -0.0116958 -2.72199e-21)
(0.0304084 0.205328 5.7752e-19)
(0.588849 0.0876244 -5.46055e-19)
(0.814834 0.0137856 9.60378e-21)
(0.946205 -0.0178642 -2.72215e-20)
(1.01383 -0.0155581 4.92038e-21)
(-0.0171656 0.036102 -2.65633e-19)
(0.604822 -0.0360513 1.87195e-19)
(0.818279 -0.0473449 6.06967e-21)
(0.948888 -0.0504805 -1.44453e-21)
(1.01644 -0.0266855 -6.0345e-22)
(0.0280213 -0.148203 -3.32745e-20)
(0.627376 -0.145482 9.61036e-20)
(0.831028 -0.0958162 2.34654e-21)
(0.956782 -0.0712207 6.34522e-21)
(1.02035 -0.0344808 -2.3838e-21)
(0.481812 0.0634888 -3.5688e-20)
(0.410489 -0.106284 0)
(0.488291 -0.0761648 -2.24315e-20)
(0.597047 -0.0352635 4.86343e-20)
(0.648316 -0.00865795 -4.33153e-21)
(2.16402 0.419072 0)
(1.77494 0.125716 0)
(1.26007 0.00900969 1.68327e-19)
(1.05306 -0.00353987 7.24146e-21)
(1.00501 -0.0030884 3.38555e-21)
(0.672664 0.00252558 -1.06081e-19)
(0.839695 -0.00945356 2.73753e-19)
(0.899579 0.0200982 2.5072e-20)
(1.08595 -0.0406961 2.60621e-19)
(1.40178 0.11563 1.66056e-19)
(1.57762 0.0224692 1.03277e-19)
(1.84562 0.0607743 2.74591e-19)
(1.96383 0.0651548 1.53319e-19)
(2.57342 0.132997 -1.29961e-19)
(2.28871 0.107192 4.44962e-20)
(0.857773 -0.422711 -1.26036e-20)
(0.840531 -0.508403 -1.3429e-19)
(0.833736 -0.603896 -9.55606e-20)
(0.762236 -0.667702 5.71224e-20)
(0.453482 -0.518518 1.08802e-19)
(0.770966 -0.330946 1.15619e-19)
(0.718236 -0.389684 2.53432e-19)
(0.640701 -0.452378 -1.9765e-20)
(0.518934 -0.502438 1.06067e-19)
(0.27039 -0.391107 4.10848e-20)
(0.588258 -0.204014 -1.35002e-19)
(0.498194 -0.238032 -3.5352e-20)
(0.399588 -0.283049 8.97544e-20)
(0.291428 -0.319195 -1.42587e-20)
(0.124592 -0.245867 -8.33748e-20)
(0.51373 0.0291725 -3.83633e-19)
(0.435582 0.0161532 -3.32288e-19)
(0.333283 -0.0106325 2.66214e-19)
(0.211329 -0.0485874 1.84501e-19)
(0.0544988 -0.0558076 1.34384e-20)
(0.497826 0.21804 -1.75572e-19)
(0.418011 0.227564 -1.69878e-19)
(0.308647 0.237871 -9.04529e-20)
(0.177318 0.246902 1.93896e-21)
(0.0237148 0.184829 1.02304e-20)
(2.03027 -0.0214871 6.92937e-19)
(2.2419 -0.0996515 2.45589e-19)
(2.30198 -0.17949 -6.60166e-19)
(2.15499 -0.21237 -1.37785e-18)
(1.29184 -0.186149 1.06298e-19)
(1.96501 -0.110148 1.21636e-18)
(2.05716 -0.211768 1.59311e-18)
(2.06227 -0.332032 1.33824e-19)
(1.97422 -0.39405 2.34e-19)
(1.26065 -0.350437 -1.54766e-19)
(1.7062 -0.255568 -3.07996e-18)
(1.73101 -0.368002 3.41701e-19)
(1.7509 -0.487123 9.81332e-19)
(1.68994 -0.566421 -3.78071e-19)
(1.09333 -0.482181 5.98098e-19)
(1.45369 -0.370639 7.32246e-19)
(1.46188 -0.462303 -1.91641e-18)
(1.45057 -0.578118 -2.19676e-18)
(1.37981 -0.666482 6.77569e-19)
(0.881768 -0.548852 4.65911e-19)
(1.18006 -0.420719 1.4113e-19)
(1.12144 -0.505074 2.12019e-19)
(1.09533 -0.617401 -3.2903e-19)
(1.0344 -0.70193 -4.01013e-19)
(0.649153 -0.558843 -3.75124e-21)
(0.89666 0.0453966 5.24875e-21)
(1.08371 0.0602542 -6.2003e-21)
(0.98082 0.0371667 -2.3987e-20)
(0.812769 0.0104037 -1.2539e-19)
(1.08487 -0.166873 -5.54085e-21)
(0.897162 0.0461581 -2.76887e-21)
(1.08473 0.0622087 5.5431e-20)
(0.988865 0.0668273 -8.8137e-20)
(0.855518 0.0304631 3.54429e-20)
(0.931384 -0.0633902 -2.44458e-20)
(0.895611 0.0412897 -5.83375e-20)
(1.08487 0.0618838 6.76919e-22)
(0.99267 0.0828879 -2.83502e-20)
(0.854582 0.06083 -5.67275e-20)
(0.898474 -0.0143356 -9.1486e-20)
(0.892047 0.0368601 8.25236e-20)
(1.09246 0.0606464 3.98014e-21)
(0.976013 0.102339 4.24362e-20)
(0.908386 0.0839952 8.52384e-20)
(0.800185 0.102112 1.32649e-19)
(0.8889 0.0315762 2.01958e-20)
(1.09903 0.0621017 -3.53723e-20)
(0.967503 0.113266 5.16917e-20)
(0.939296 0.123526 1.02296e-19)
(0.786852 0.179736 -1.4825e-19)
(0.81879 0.0323969 0)
(0.80499 0.0262583 9.30032e-21)
(0.606876 0.0117279 -2.37523e-21)
(0.606019 -0.011545 4.10042e-20)
(0.711574 -0.0333744 -1.10962e-19)
(0.889578 0.0629191 -5.49016e-20)
(1.07204 0.0654155 -2.15507e-20)
(0.909355 0.0257051 -1.70751e-21)
(0.925758 0.00563937 -6.56702e-20)
(0.933882 -0.169766 -1.10051e-19)
(1.01435 -0.031762 -2.19736e-20)
(1.08336 -0.00396652 4.21529e-19)
(1.15668 0.0557033 2.69618e-19)
(0.991946 0.06336 2.82902e-20)
(0.767291 0.0300781 0)
(1.26865 -0.287102 2.44871e-19)
(1.39375 -0.250104 1.2626e-18)
(1.58803 -0.137207 -1.42303e-18)
(1.6633 -0.00764515 -4.50401e-19)
(1.60701 0.0390201 3.19623e-19)
)
;

boundaryField
{
    left
    {
        type            fixedValue;
        value           uniform (1 0 0);
    }
    right
    {
        type            zeroGradient;
    }
    down
    {
        type            noSlip;
    }
    up
    {
        type            noSlip;
    }
    cylinder
    {
        type            noSlip;
    }
    defaultFaces
    {
        type            empty;
    }
}


// ************************************************************************* //
