/*--------------------------------*- C++ -*----------------------------------*\
  =========                 |
  \\      /  F ield         | OpenFOAM: The Open Source CFD Toolbox
   \\    /   O peration     | Website:  https://openfoam.org
    \\  /    A nd           | Version:  13
     \\/     M anipulation  |
\*---------------------------------------------------------------------------*/
FoamFile
{
    format      ascii;
    class       volScalarField;
    location    "42";
    object      p;
}
// * * * * * * * * * * * * * * * * * * * * * * * * * * * * * * * * * * * * * //

dimensions      [0 2 -2 0 0 0 0];

internalField   nonuniform List<scalar> 
440
(
-1.12037
-1.14741
-1.20765
-1.2074
-1.26231
-1.05365
-1.04399
-1.05144
-1.06638
-1.07862
-1.13782
-1.10324
-1.07215
-1.03822
-0.997266
-1.2491
-1.19902
-1.11715
-1.01907
-0.918325
-1.32767
-1.26057
-1.11432
-0.96145
-0.82084
-1.21989
-1.19884
-1.1747
-1.15775
-1.14235
-1.19741
-1.1808
-1.16614
-1.16238
-1.16544
-1.10873
-1.11908
-1.14597
-1.16482
-1.17104
-0.908222
-0.955635
-1.03491
-1.08975
-1.1009
-0.812302
-0.91053
-1.02524
-1.0858
-1.0981
-1.12596
-1.30794
-1.1453
-1.36108
0.0774904
-1.26726
-1.17714
-0.936428
-1.30134
0.0384101
-1.11948
-0.904559
-0.804151
-1.15648
-0.00231008
-0.827778
-0.608151
-0.760228
-0.947954
-0.0419538
-0.651141
-0.273776
-0.807735
-0.781581
-0.0754636
-0.425335
0.019539
-0.903013
-0.632459
-0.105513
-0.243277
-0.111828
-0.709527
-0.436709
-0.111198
-0.301762
0.127744
-0.417685
-0.297237
-0.117147
-0.272227
0.251899
-0.22534
-0.246328
-0.122567
-0.227471
0.295135
-0.0217389
-0.182442
-0.128101
-0.580317
-0.718522
-0.89413
-1.07102
-1.24875
-0.335233
-0.456961
-0.536649
-0.562524
-0.558384
-0.168516
-0.271299
-0.338596
-0.378317
-0.395288
-0.0648638
-0.166491
-0.237496
-0.285002
-0.304908
-0.0181788
-0.120269
-0.191725
-0.238254
-0.250606
0.723091
0.587121
0.414611
0.215845
-0.0127217
0.319818
0.168639
-0.0200565
-0.236177
-0.482977
-0.0784857
-0.238275
-0.440125
-0.670548
-0.891649
-0.418589
-0.58509
-0.788261
-1.00807
-1.17843
-0.663132
-0.825642
-1.01241
-1.20701
-1.31654
1.94056
1.97297
2.00504
2.02446
2.02618
1.75481
1.77607
1.7934
1.79498
1.77573
1.52715
1.52062
1.49314
1.44338
1.36773
1.26567
1.23305
1.16755
1.07173
0.945704
1.00641
0.915058
0.791716
0.642966
0.460171
1.67901
1.66684
1.66183
1.7101
1.82149
1.66899
1.65429
1.64412
1.68204
1.73711
1.65997
1.63859
1.62385
1.64168
1.63163
1.65212
1.62025
1.60077
1.59177
1.47529
1.64534
1.60196
1.57576
1.53554
1.30531
1.63992
1.57017
1.54193
1.44007
1.11815
1.63748
1.53322
1.51441
1.34589
1.12354
1.64419
1.51417
1.48931
1.28871
1.05853
1.63505
1.49307
1.47676
1.25103
1.00323
1.67495
1.4848
1.47546
1.23195
0.979234
0.690561
0.399957
0.0675073
-0.211129
-0.415319
0.623968
0.415902
0.187976
-0.0121955
-0.188094
0.631844
0.467915
0.292926
0.12387
-0.0344358
0.669209
0.528975
0.374745
0.21267
0.0638997
0.689647
0.558644
0.412393
0.252879
0.110229
-1.64783
-1.48396
-1.30029
-1.14676
-1.05534
-1.69177
-1.62109
-1.47672
-1.35241
-1.27011
-1.59124
-1.54085
-1.44805
-1.35754
-1.28492
-1.41723
-1.37146
-1.31806
-1.2636
-1.21273
-1.25793
-1.23555
-1.20105
-1.17498
-1.17319
-1.1615
-1.15574
-1.11474
-1.13659
-1.09539
-1.1288
-1.12037
-1.09473
-1.09458
-1.06568
-1.13725
-1.12717
-1.10734
-1.08544
-1.07735
-1.16553
-1.15217
-1.13139
-1.10995
-1.10593
-1.19332
-1.17401
-1.14391
-1.1135
-1.08536
-1.05816
-0.738787
-0.791176
-0.745846
0.191386
-1.03717
-0.751997
-0.917869
-0.87405
0.179837
-0.923276
-0.852472
-1.10334
-1.10243
0.162906
-0.852795
-1.08122
-1.26635
-1.28843
0.140822
-0.844045
-1.27939
-1.30841
-1.37202
0.112831
-0.460199
-0.867293
-0.788942
-0.696004
0.209722
-0.936534
-0.833087
-0.718998
-0.701548
0.201296
-1.00394
-1.22839
-1.20734
-1.14798
-0.880436
-1.02445
-1.23113
-1.23116
-1.16337
-1.13422
1.60652
1.57689
1.52832
1.46217
1.37555
1.78753
1.80551
1.80626
1.78831
1.75268
1.94324
1.97446
1.99581
2.00359
1.9969
2.02883
2.06829
2.10992
2.14403
2.15948
2.03043
2.06888
2.11151
2.14723
2.16389
-0.58759
-0.703815
-0.885943
-1.10397
-1.36697
0.0333923
-0.113732
-0.309675
-0.546537
-0.855383
0.597229
0.44462
0.26149
0.0446911
-0.233357
1.04723
0.928649
0.784386
0.608475
0.392288
1.40421
1.32088
1.21117
1.07881
0.922532
1.74313
1.70106
1.69811
1.71067
1.73706
1.7276
1.69752
1.69569
1.72497
1.79533
1.71419
1.69247
1.69399
1.73995
1.86888
1.70158
1.686
1.6868
1.74076
1.87425
1.68982
1.6777
1.67578
1.73103
1.86602
1.79892
1.70733
1.68755
1.63694
1.62189
1.75361
1.69824
1.68206
1.65773
1.62514
1.28516
1.06332
0.668597
0.086726
-0.551766
1.37067
1.09658
0.683009
0.106424
-0.544148
)
;

boundaryField
{
    left
    {
        type            zeroGradient;
    }
    right
    {
        type            fixedValue;
        value           uniform 0;
    }
    down
    {
        type            zeroGradient;
    }
    up
    {
        type            zeroGradient;
    }
    cylinder
    {
        type            zeroGradient;
    }
    defaultFaces
    {
        type            empty;
    }
}


// ************************************************************************* //
