# Selection   : all
# Cells       : 440
# Volume      : 7.374263e+01
# Time        	min(p)
6.915         	-1.097050e+00
6.96          	-1.108684e+00
7.01          	-1.115138e+00
