# Selection   : all
# Cells       : 440
# Volume      : 7.374263e+01
# Time        	maxMag(U)
4.815         	2.663822e+00
4.86          	2.676075e+00
4.91          	2.689029e+00
