/*--------------------------------*- C++ -*----------------------------------*\
  =========                 |
  \\      /  F ield         | OpenFOAM: The Open Source CFD Toolbox
   \\    /   O peration     | Website:  https://openfoam.org
    \\  /    A nd           | Version:  13
     \\/     M anipulation  |
\*---------------------------------------------------------------------------*/
FoamFile
{
    format      ascii;
    class       volScalarField;
    location    "2.6";
    object      p;
}
// * * * * * * * * * * * * * * * * * * * * * * * * * * * * * * * * * * * * * //

dimensions      [0 2 -2 0 0 0 0];

internalField   nonuniform List<scalar>
1800
(
-1.55371781381
-1.56722288293
-1.51856816749
-1.42755695515
-1.32598920519
-1.23028857855
-1.1460175399
-1.0724529657
-1.00801376695
-0.95633337229
-1.75334408426
-1.76789672751
-1.71110229977
-1.60796175426
-1.49392277465
-1.38670452721
-1.29228331309
-1.21029344935
-1.13990506406
-1.08295877875
-1.94492088139
-1.95971063389
-1.89390833146
-1.77848427673
-1.65203221306
-1.53323239682
-1.42821379887
-1.33652453626
-1.25684517568
-1.1897697061
-2.12312805302
-2.1374268479
-2.06217329028
-1.93513186436
-1.79742993791
-1.66848838824
-1.55444343851
-1.45467159331
-1.36770780817
-1.29390332358
-2.28192962288
-2.29489749946
-2.20983295303
-2.07189366574
-1.92393284868
-1.78584036071
-1.66357097754
-1.55632180728
-1.46251621589
-1.38185719977
-2.41614585765
-2.42697456236
-2.33219444408
-2.18453738654
-2.02783654194
-1.88218217142
-1.75320595401
-1.63992066204
-1.54057260106
-1.45448666185
-2.520608258
-2.52844546857
-2.42436123196
-2.26835390476
-2.10453300318
-1.95293245362
-1.81874089817
-1.70074261527
-1.59706192142
-1.50666447599
-2.5909746545
-2.59503743413
-2.48258121179
-2.31972029767
-2.15063930287
-1.99490115245
-1.85712676062
-1.73588485824
-1.62916243542
-1.53561814456
-2.62381832822
-2.62348865461
-2.50378792384
-2.33569636277
-2.16339267138
-2.00544622329
-1.865681578
-1.74262682372
-1.63416695862
-1.5386353911
-2.6171234068
-2.61203968075
-2.48570837763
-2.31500742972
-2.1414002214
-1.98294087902
-1.8426016103
-1.71902974944
-1.60997015737
-1.51354537108
-0.13143392048
-0.123034870437
-0.111425197376
-0.0976085646947
-0.0861364555672
-0.0793505467949
-0.0770105341199
-0.078164340764
-0.0819572019826
-0.087752242193
-0.178755050896
-0.171477908209
-0.158981203145
-0.142644695984
-0.127843288288
-0.117687453859
-0.112216115932
-0.110504212134
-0.111674469645
-0.114911238364
-0.252189770742
-0.246572198016
-0.232691984743
-0.212499118882
-0.192664016961
-0.177393857651
-0.167175035806
-0.161118532965
-0.158309010643
-0.157631840467
-0.350799815875
-0.347267422701
-0.331452431432
-0.306070470682
-0.279621597922
-0.257637707819
-0.241196017362
-0.229462182994
-0.221458826165
-0.215654955167
-0.47324824372
-0.472112371923
-0.453752612867
-0.421905085271
-0.387413070346
-0.357308838265
-0.333362124329
-0.314812414975
-0.3005953322
-0.288649119175
-0.617659393839
-0.619122682086
-0.597568875224
-0.558083481127
-0.51432550064
-0.474931047174
-0.442436459177
-0.416168243954
-0.394957648614
-0.376119155503
-0.781480430248
-0.785655539966
-0.760275692718
-0.712172250955
-0.658209871994
-0.608683575179
-0.566899665019
-0.532303938402
-0.503594569201
-0.477470924136
-0.961297312823
-0.968209270365
-0.938421290373
-0.880998291023
-0.816302843111
-0.756274977935
-0.704947502654
-0.661886082812
-0.625552619544
-0.592289062382
-1.15284959073
-1.16236138555
-1.12739746418
-1.05988656408
-0.983926965862
-0.913090900646
-0.852097026328
-0.800591638268
-0.756623354887
-0.71688799978
-1.35174898771
-1.36352162371
-1.32222354339
-1.24335818312
-1.15490103673
-1.07198200506
-0.999897548142
-0.938271640038
-0.885000605066
-0.838783529185
-0.132581836646
-0.210312508705
-0.279262599867
-0.329503965274
-0.367939604254
-0.398862220396
-0.425584394638
-0.449965446301
-0.473104616606
-0.495652848309
-0.143803517981
-0.218226648227
-0.283036315708
-0.33161436187
-0.36937134084
-0.399950290434
-0.426411875365
-0.450552334996
-0.473459793175
-0.49578121765
-0.161390460618
-0.230544610684
-0.288836844173
-0.334588883105
-0.371130676706
-0.401146012309
-0.427255911131
-0.451123705712
-0.473797099154
-0.495903162028
-0.18622452742
-0.246837225231
-0.296590318297
-0.338414996089
-0.373225040363
-0.402456531943
-0.428123633073
-0.451685322352
-0.47411997742
-0.496019298272
-0.219632796967
-0.266478856934
-0.30616206063
-0.343066413708
-0.375657390213
-0.403887386359
-0.429021133172
-0.452242580978
-0.474432058265
-0.496130121849
-0.263333795554
-0.288666701177
-0.317324757343
-0.348492862672
-0.378426920392
-0.405443500252
-0.429953571095
-0.452800424808
-0.474736285353
-0.496236054291
-0.31937290157
-0.312511555437
-0.329685092384
-0.354610080751
-0.381525745318
-0.407129510173
-0.430925973969
-0.453363496194
-0.475035476685
-0.496337108797
-0.390052172386
-0.33836212993
-0.342886006993
-0.361323540506
-0.384940336211
-0.408948145688
-0.431943236122
-0.45393674632
-0.475332756927
-0.496433083087
-0.475815041015
-0.368343668782
-0.357159329523
-0.368752417933
-0.388755301678
-0.410940432332
-0.43302478707
-0.454530124349
-0.47563184561
-0.496523754007
-0.569336230296
-0.402743387047
-0.372284226845
-0.376756661808
-0.392932063112
-0.413107680547
-0.43417430563
-0.455148495824
-0.475937790493
-0.496605478326
-0.628073463546
-0.439665202209
-0.390123859418
-0.38802943672
-0.399921770044
-0.41734609654
-0.436750070815
-0.4566921209
-0.476743354477
-0.496802804368
-0.651908244039
-0.476978827692
-0.415617405235
-0.40475854414
-0.410749199
-0.424254652665
-0.441128010112
-0.459387060587
-0.478198884941
-0.497246618828
-0.65812391487
-0.498602653393
-0.434171214403
-0.418665571455
-0.420497069831
-0.430765073366
-0.445351863742
-0.462016989647
-0.479633790062
-0.49769131927
-0.660375051622
-0.516356832635
-0.45109330484
-0.431474517185
-0.429628318213
-0.436980447293
-0.449434723448
-0.464577520212
-0.481041372919
-0.49813338329
-0.658048893008
-0.529185741361
-0.46537911413
-0.442832965936
-0.437963896325
-0.442774750583
-0.453291920592
-0.46701590395
-0.48239253424
-0.498562859221
-0.653773376752
-0.538988676914
-0.477487420648
-0.452833012277
-0.445452941153
-0.448062413726
-0.456850617542
-0.469283263193
-0.483660369024
-0.498971801806
-0.649614311227
-0.546864420371
-0.487756115743
-0.461531664701
-0.452053187824
-0.452770559
-0.460046470701
-0.471334720877
-0.484820868695
-0.499353260457
-0.646966628919
-0.553831868024
-0.496613964695
-0.469029731418
-0.457742827129
-0.456842681946
-0.462824225651
-0.473129721187
-0.485852288633
-0.499699299148
-0.644733463754
-0.560492168199
-0.504964260816
-0.475985181223
-0.462965967874
-0.460564264092
-0.465366547318
-0.474786190008
-0.486842035518
-0.500056976296
-0.652476321595
-0.567436900399
-0.511332231778
-0.480870429849
-0.466516610046
-0.463062469707
-0.4670645529
-0.475887849936
-0.4874966649
-0.500290560576
-1.35232670253
-1.37722156617
-1.37872334219
-1.35825579978
-1.31797875958
-1.26071721417
-1.19005517253
-1.10727887197
-1.01975267336
-0.923526121951
-1.18046214453
-1.20664576792
-1.21402108455
-1.20395553195
-1.17729939614
-1.13777478052
-1.08609173466
-1.02684616502
-0.963804808451
-0.895623260994
-1.04822770579
-1.07394984167
-1.08448741461
-1.08101486986
-1.06356064321
-1.03636341352
-0.997835928195
-0.954302545307
-0.905603805183
-0.852439364844
-0.945782738354
-0.971811375699
-0.984619116849
-0.98534439979
-0.973960531123
-0.954340060776
-0.924574137968
-0.891033617517
-0.85205607909
-0.80995109563
-0.868296513594
-0.894077041163
-0.90826349592
-0.911732682516
-0.904620656169
-0.89002656238
-0.866684279994
-0.840110273809
-0.80845536317
-0.774544554855
-0.809087522701
-0.834939007408
-0.850282002523
-0.855779387711
-0.851818643208
-0.840772541335
-0.822148653668
-0.800437997018
-0.773913704218
-0.745595708959
-0.765119518461
-0.791242290109
-0.807550711128
-0.814578440048
-0.812915985197
-0.804364526752
-0.789048706187
-0.770635072821
-0.747764467442
-0.723431373199
-0.733886278893
-0.760685051876
-0.778048285882
-0.786362847958
-0.786417423852
-0.779617956928
-0.766499577828
-0.750103525598
-0.729530658364
-0.707903582426
-0.717766639722
-0.744267934036
-0.762554456955
-0.772253312368
-0.77371027722
-0.767990204736
-0.755786536567
-0.739580259791
-0.719097320082
-0.696148399166
-0.705218284825
-0.735413832115
-0.756856036451
-0.770067042296
-0.775680980694
-0.774296698933
-0.766776759483
-0.754167514368
-0.736439780025
-0.713945440747
-0.0664623692232
-0.119707691562
-0.184475789855
-0.254724184855
-0.330345105249
-0.41432549535
-0.50836046116
-0.608629790087
-0.696949237403
-0.723741122487
-0.255960696676
-0.314210611225
-0.381947156927
-0.456930467249
-0.540566401097
-0.635420388425
-0.742242854918
-0.856330512438
-0.956885900415
-0.985265574953
-0.46892701802
-0.531018919889
-0.60103266641
-0.679723354371
-0.769230768711
-0.871787055896
-0.987846114175
-1.11246118673
-1.22308711715
-1.25144071114
-0.668583992416
-0.735746399968
-0.8114490339
-0.897176807902
-0.994851518443
-1.10655557713
-1.2326626866
-1.36801515281
-1.48878332507
-1.51595148284
-0.846162267824
-0.920218320921
-1.00367048962
-1.09810989004
-1.20537496488
-1.32757270488
-1.4648560485
-1.61159929559
-1.74298691223
-1.76755750353
-1.00592771739
-1.08685938625
-1.17790469592
-1.28076469994
-1.39733106998
-1.52969426415
-1.67750471708
-1.83467558766
-1.97772504035
-1.9956763038
-1.14997300118
-1.23646438991
-1.33387768333
-1.44391991321
-1.56852670638
-1.70970086518
-1.86617583984
-2.02893626132
-2.19004834868
-2.19069972889
-1.27563853164
-1.36642282468
-1.46888498712
-1.58461610258
-1.71558342975
-1.86377291959
-2.02653772396
-2.20062296216
-2.35673641264
-2.35344404728
-1.37912269339
-1.47341199618
-1.57996378302
-1.70018951183
-1.83627581282
-1.9907533309
-2.16333290756
-2.33800510229
-2.46737488243
-2.48327353518
-1.45966352434
-1.55528314691
-1.6643795006
-1.78676067055
-1.92655476999
-2.08419743696
-2.25767320677
-2.42921935179
-2.55917221856
-2.57029295155
1.03651644858
1.05087213604
1.06721200819
1.083889641
1.09948888817
1.11312740746
1.1240059
1.13155520593
1.13685966159
1.14173465263
0.98678897329
0.999246423554
1.01316575482
1.02700541738
1.03944201339
1.04960860051
1.05664616966
1.06024000659
1.06220804807
1.06533752836
0.917528730527
0.92731528379
0.937743699187
0.947461610397
0.95532761402
0.960447298875
0.961906228733
0.959717501401
0.956942192796
0.957512988947
0.829524962774
0.835885546964
0.841827471464
0.846232860797
0.848233321753
0.846875289613
0.841165597249
0.831512590518
0.82258229436
0.81954825461
0.723674202623
0.725976580766
0.726616521055
0.724739026302
0.719737248395
0.710645761479
0.696384785771
0.6777219514
0.660705200416
0.654425504854
0.600708081979
0.598719737353
0.593608345203
0.584700150024
0.57176524121
0.553816849419
0.52974790735
0.500706486621
0.474288933317
0.464510291994
0.462955411124
0.456944749666
0.445965722238
0.429522641762
0.407810335545
0.379979444076
0.344896084616
0.304224522725
0.267303658217
0.253811312275
0.316858038919
0.306419369356
0.288375911074
0.262920628658
0.23099441281
0.191865380049
0.144406204589
0.0908075437042
0.0423438361566
0.0252373359937
0.171733362383
0.156183311113
0.129539827484
0.0931725144827
0.0491120222539
-0.00315785615365
-0.064743968937
-0.132896822703
-0.194100936539
-0.214838309831
0.043263588916
0.0112308371133
-0.0324198109362
-0.0842287150953
-0.14257354206
-0.209045827732
-0.285343107061
-0.368407823249
-0.442519244759
-0.466417736101
0.848749303346
0.926838887864
0.92398915832
0.766489929662
0.785166643081
0.79832591687
0.808588972541
0.830482082824
0.872496431457
0.975082726352
0.843004966524
0.922581222897
0.919230948719
0.760754225943
0.77899870378
0.790731727131
0.798711899423
0.817295509209
0.853206463212
0.942044052766
0.837580869605
0.918582314348
0.914330262529
0.75407538104
0.772412503781
0.782441798491
0.787332523569
0.801619281579
0.828624485529
0.897276193673
0.832486163275
0.914872412587
0.909287734001
0.746487244284
0.765461741554
0.773444757927
0.774456882075
0.78326451177
0.79806125111
0.841381025855
0.827769699933
0.91147925476
0.90410099295
0.738061285957
0.758220335134
0.76376149898
0.76008504981
0.761990738788
0.76084195077
0.774904289908
0.823473982524
0.908427160584
0.898737170377
0.728849155895
0.75074932774
0.753349632922
0.744205406138
0.73768875475
0.71924951965
0.695012031794
0.819665218632
0.905726718888
0.893177243133
0.718957298778
0.743133354381
0.742171399138
0.726767366487
0.710516842375
0.674576639905
0.599013388721
0.816397443082
0.903357760303
0.887398542219
0.708517947539
0.735417034258
0.73015673164
0.707766472784
0.680488892984
0.625762442335
0.48915437421
0.813780459959
0.901303142372
0.881362459791
0.697714318223
0.727565230711
0.717275578398
0.687339181266
0.647471121704
0.570904665176
0.361917401454
0.81210506819
0.899637141897
0.87511855006
0.68676980652
0.719515569354
0.703528779006
0.665833199347
0.612940760988
0.512283783414
0.233856314078
0.810456889699
0.897074139399
0.870739560897
0.676352400937
0.707410174241
0.685410695143
0.637511828278
0.568483022578
0.447365232665
0.113333997907
0.810655428828
0.893935920303
0.869347865334
0.668135911373
0.692490712345
0.665754228906
0.608660284805
0.526817186538
0.389180902062
0.0765501561771
0.812945987474
0.891573435895
0.868249336594
0.660901287405
0.678667621618
0.647422799632
0.58251483045
0.491113896035
0.341152420611
0.0492948405566
0.817582757033
0.890220707072
0.86742693896
0.654680087978
0.66634986541
0.630903615513
0.559554993579
0.46107121916
0.302349430167
0.0329000767747
0.823964744924
0.889970858375
0.866906207056
0.649493521865
0.655757801102
0.616525319916
0.54007764584
0.436299961423
0.272448047964
0.0236609880986
0.834165458406
0.890905094831
0.866692879084
0.645346926882
0.647016385959
0.604512079135
0.524134440287
0.416510298166
0.250585725167
0.0191388309594
0.852307800939
0.892968439319
0.866680036416
0.642220479241
0.640216112586
0.594962740952
0.511737492392
0.401420082615
0.23554939687
0.0179444424033
0.872736872947
0.896434239153
0.866681225605
0.640117341318
0.635409543676
0.587945704212
0.502818219485
0.390824257222
0.226164899271
0.0195099929116
0.886696446207
0.896559779095
0.863999053528
0.639279921614
0.632857192464
0.58365994151
0.497577638479
0.384854975508
0.221955512663
0.0252107262688
0.945465288816
0.907528683549
0.867444638056
0.637487297638
0.633029638323
0.581924532207
0.495506050786
0.382437647204
0.221339452773
0.0287105714567
-0.10410533854
-0.261638700347
-0.444141991468
-0.616192199229
-0.768121072587
-0.905239976116
-1.03089680099
-1.14202615855
-1.23366657184
-1.30379332214
-0.170169117845
-0.288508710259
-0.424995538196
-0.560333835699
-0.683456201935
-0.795364304977
-0.898928900403
-0.992070273115
-1.07215183189
-1.13561093141
-0.197332914771
-0.290895783356
-0.394158214163
-0.504758405325
-0.610791286532
-0.708360493973
-0.798814630199
-0.880912434247
-0.951432214616
-1.0074661538
-0.202267790403
-0.283714746628
-0.369298717683
-0.462764707614
-0.555073942849
-0.640641038111
-0.719928724797
-0.792331378348
-0.855336993673
-0.906782071448
-0.195693693671
-0.270140355328
-0.344894043189
-0.426000515841
-0.508242428231
-0.585777516581
-0.657868053443
-0.724105837634
-0.782503532164
-0.831022213188
-0.184437171868
-0.254332445181
-0.32249483214
-0.395524805771
-0.470785531059
-0.542690405954
-0.609751484009
-0.671586223857
-0.72658458292
-0.772847061272
-0.172410605762
-0.239113377962
-0.302948708231
-0.370666366981
-0.44119232877
-0.50924560219
-0.572916233123
-0.63178326119
-0.684485578613
-0.729354510136
-0.161110945057
-0.22566836155
-0.286621228353
-0.351065242407
-0.418747826084
-0.484483742339
-0.546142658146
-0.603237195233
-0.654488657713
-0.698376349325
-0.147737814879
-0.21059415174
-0.270234391302
-0.33389826934
-0.401145151714
-0.466736429189
-0.528463822533
-0.585808041913
-0.637543764908
-0.682012357406
-0.129445741646
-0.188125201021
-0.246595619548
-0.31110840826
-0.379019157905
-0.445348079915
-0.508292380821
-0.567074013731
-0.620320445699
-0.666665293697
-3.80611582366
-3.78633026432
-3.61039112605
-3.39684096823
-3.19230524591
-3.01538483368
-2.86757955714
-2.74598199961
-2.64839954514
-2.57408728804
-3.85928478674
-3.85100179749
-3.68852294714
-3.47669201796
-3.26952156635
-3.08873531874
-2.93772540504
-2.81348039164
-2.71427950437
-2.64065756866
-3.79740345293
-3.80052371689
-3.65337145138
-3.44484608604
-3.23496274385
-3.04996718812
-2.89538152071
-2.76816438613
-2.66591712338
-2.58909814836
-3.6267280217
-3.63918723915
-3.509044001
-3.30573564176
-3.09454666973
-2.90600296874
-2.74805719251
-2.61808292308
-2.51295033148
-2.43148562708
-3.36322139124
-3.38212064662
-3.26945259051
-3.07463944278
-2.86563154017
-2.67636527958
-2.51702396585
-2.38582427833
-2.27924993707
-2.19509657934
-3.03076518773
-3.05313549745
-2.95732771978
-2.77536899851
-2.57420219666
-2.38929610252
-2.23254903988
-2.10304376061
-1.99720531634
-1.9138490181
-2.65833474498
-2.68183026667
-2.60169881148
-2.43739646305
-2.25104133923
-2.07733131446
-1.92893635148
-1.80580001466
-1.70410490509
-1.62494042745
-2.27525611291
-2.29794844465
-2.23192968702
-2.08891155789
-1.92342633132
-1.76727360656
-1.63283370535
-1.52064320957
-1.4273838592
-1.35529759357
-1.90627550688
-1.92680548295
-1.87316225375
-1.75307089481
-1.61218292141
-1.47818942462
-1.36237890863
-1.26555888396
-1.18492130504
-1.12602390044
-1.56703928633
-1.5843722044
-1.5410380735
-1.44282673884
-1.32659565967
-1.21546290783
-1.11894130113
-1.03748324407
-0.967423688606
-0.914556387016
-1.26541134078
-1.27864938567
-1.24377404336
-1.16526152328
-1.07228303474
-0.983820229467
-0.90780680195
-0.844870007969
-0.792077413668
-0.746602055646
-1.0030567743
-1.01199935115
-0.983755830172
-0.921758385632
-0.848703111773
-0.779778310797
-0.721141524773
-0.673024601969
-0.633483365708
-0.597105373166
-0.778201750925
-0.783123895584
-0.759867797967
-0.711087940414
-0.654208096939
-0.601199182911
-0.556596967677
-0.520249786778
-0.490856636932
-0.463460491991
-0.58877966426
-0.590124952161
-0.570762159396
-0.532756718129
-0.489352775659
-0.44985333297
-0.417416801506
-0.391599081506
-0.371308014238
-0.352765660527
-0.433018855474
-0.431293650165
-0.414983644222
-0.385685955599
-0.353381419
-0.325144988964
-0.302967825046
-0.286201027996
-0.273815940073
-0.263151143834
-0.309280993627
-0.30498784381
-0.290936407986
-0.268362631868
-0.244799815936
-0.225491367557
-0.211505368346
-0.202059838938
-0.196189456781
-0.192075222722
-0.216190651044
-0.209843394373
-0.197340818794
-0.179640727894
-0.162582350043
-0.149949128032
-0.142133330197
-0.138265410801
-0.137434480337
-0.138406097101
-0.152656435485
-0.144813548204
-0.133255854545
-0.118746864633
-0.10606938372
-0.0979525648351
-0.0943360845096
-0.0942999317559
-0.0969684217587
-0.101483015115
-0.117777586066
-0.109061213755
-0.0979657634104
-0.0851149510248
-0.0747759917068
-0.0690855767029
-0.0677460366041
-0.069801322234
-0.0744000807028
-0.0808929509795
-0.110923746241
-0.102048643395
-0.090854010512
-0.0782095248679
-0.0682621165891
-0.06299782055
-0.0620636758882
-0.0644992956824
-0.0694591834346
-0.0763625683175
-0.468283864229
-0.345673406728
-0.339954318777
-0.350632163057
-0.368775661733
-0.391420906911
-0.416215559945
-0.44180425038
-0.467721861609
-0.493782613203
-0.37014870306
-0.315046251068
-0.327394323796
-0.345303101847
-0.367613172015
-0.392043909443
-0.417380037165
-0.442904941344
-0.468467591258
-0.494035255018
-0.293092243815
-0.291108365035
-0.317140001551
-0.341459546872
-0.366790079352
-0.39269420968
-0.418479578888
-0.443928247228
-0.469157231146
-0.494270056319
-0.236115599801
-0.27138067145
-0.307430972338
-0.337588602067
-0.366079943594
-0.393337063601
-0.419508372371
-0.444876262032
-0.469794210293
-0.494488047283
-0.194745121785
-0.253662641167
-0.298457372007
-0.334246153685
-0.365580040268
-0.393989618856
-0.420476594678
-0.445755508166
-0.47038246184
-0.49469062608
-0.165553464022
-0.237583782537
-0.290721330684
-0.331545049955
-0.365304932216
-0.394667634781
-0.421394071286
-0.446572688715
-0.470925881153
-0.494879173307
-0.145768824576
-0.224196251133
-0.284578380706
-0.329544478
-0.365275097797
-0.39537985023
-0.422271285892
-0.447334541758
-0.471428148151
-0.495054945026
-0.133441094774
-0.214132683058
-0.280250695956
-0.32830301661
-0.365507806464
-0.396143043019
-0.423118720379
-0.448047873963
-0.471893409822
-0.495219068243
-0.127503922232
-0.208346650282
-0.277885147446
-0.327863997392
-0.366019917047
-0.39696888027
-0.423946843179
-0.44871954881
-0.472325175877
-0.495372749264
-0.127212328665
-0.207015851817
-0.277545156162
-0.328257400084
-0.366826193453
-0.397871238528
-0.424765527372
-0.449356556533
-0.472727612784
-0.495516997136
-0.677752762436
-0.474315913869
-0.400226583362
-0.379382431166
-0.380552594498
-0.395217836403
-0.416551740833
-0.440971457465
-0.466790017748
-0.493349065959
-0.63064183839
-0.448091930086
-0.389531322136
-0.375163389659
-0.379446732371
-0.394878579421
-0.416564757138
-0.441085056686
-0.466911102758
-0.493406274127
-0.602978886654
-0.429965418961
-0.3802781612
-0.370693094484
-0.377323382896
-0.39419864215
-0.41646727536
-0.441199425618
-0.467065721817
-0.493484055401
-0.570758877141
-0.40700885705
-0.368597450437
-0.364883292584
-0.374844767347
-0.393163033471
-0.416207383795
-0.441238744618
-0.467176934037
-0.493542853074
-0.529144465945
-0.375583922581
-0.352658236704
-0.356751114496
-0.371133169415
-0.391816568523
-0.415813717249
-0.441220516505
-0.467258908577
-0.493589016127
-2.50622837193
-2.57315022329
-2.54124989113
-2.41935586212
-2.22381732411
-1.99030944176
-1.72038522933
-1.47436968197
-1.23809818668
-1.03647881383
-2.50224143732
-2.56875746547
-2.53039035651
-2.40110649849
-2.19997148853
-1.96299800521
-1.69663716439
-1.45569138709
-1.22675612917
-1.01327998189
-2.5048176471
-2.56967340555
-2.52604697676
-2.38850167653
-2.17916362839
-1.93008352289
-1.65589987224
-1.39749710489
-1.16609326921
-0.976930541116
-2.51535997592
-2.58108426791
-2.53344350337
-2.38584087418
-2.16291792941
-1.89620247124
-1.61445551298
-1.35094093113
-1.12978030664
-0.948548699777
-2.53487052438
-2.60174598527
-2.54959535267
-2.39159771664
-2.15505958156
-1.87481957018
-1.58809647311
-1.32252775019
-1.09969492811
-0.907761107819
0.464889051075
0.443556736683
0.412526316728
0.374538606661
0.331589472986
0.282343705736
0.22460578546
0.160496854966
0.103305565642
0.0822008560439
0.585139615081
0.580759463216
0.56741053763
0.545917924788
0.518377441414
0.484442966299
0.442817268651
0.395413167216
0.353145776801
0.337978769998
0.70774313384
0.707771978147
0.702276539583
0.691393056421
0.675932121675
0.65523912326
0.628046268228
0.595728267623
0.566939663627
0.557079793832
0.817701982593
0.82199326747
0.823239468875
0.821001238159
0.815293211703
0.805279506346
0.789824608307
0.769881088888
0.752168856353
0.746531694807
0.909991238177
0.917742472296
0.924187451271
0.928631144838
0.930590173196
0.929167902679
0.92325540351
0.913410491415
0.904786394284
0.902532715425
0.981990962069
0.992942034155
1.00389119794
1.01386449893
1.02200972197
1.02743045981
1.02912831171
1.02724739357
1.02523864239
1.02667278744
1.03347753418
1.04689717874
1.06133000486
1.07549155398
1.08830318062
1.09887938896
1.10629540657
1.11034429029
1.11305593021
1.11708189298
1.06481982955
1.07978948782
1.09648756924
1.11341497546
1.12930890158
1.14326969796
1.15445392564
1.16237640551
1.16820053447
1.17368314266
1.07588265901
1.09146279894
1.10916345053
1.12740768657
1.14477655816
1.16037069285
1.17337898462
1.18317347456
1.19049986839
1.19650585821
1.06608709313
1.08159982176
1.09929936793
1.11749196273
1.13474123291
1.1501823843
1.16306002975
1.17268850805
1.17976013243
1.18564350164
-2.39881996751
-2.47616462858
-2.57326100735
-2.69198483688
-2.8357149056
-3.0077224897
-3.21106944072
-3.42399411683
-3.61383575634
-3.6412973535
-2.1377564201
-2.21648463725
-2.31269076795
-2.42824653433
-2.56743918964
-2.73404994069
-2.9270082783
-3.1331102957
-3.35473541732
-3.37599642941
-1.81580416116
-1.89294155128
-1.98686751908
-2.0988044805
-2.23238965718
-2.39067730407
-2.57495104004
-2.78239589969
-2.99497849523
-3.03427246427
-1.45380940256
-1.53015792719
-1.62227875088
-1.73086613828
-1.85887742565
-2.00969010806
-2.18578702321
-2.38373504179
-2.57383960396
-2.63061841526
-1.08057866185
-1.15801143798
-1.24858883947
-1.35287416565
-1.47372081316
-1.61467876516
-1.77822829012
-1.96027196494
-2.13196518044
-2.19206017312
-0.730780109035
-0.806128243615
-0.891830617998
-0.988339366964
-1.09851886682
-1.22592724073
-1.37300035247
-1.53561797576
-1.68740616299
-1.74408913237
-0.420198188427
-0.487947804433
-0.564049098893
-0.648745903895
-0.744922753337
-0.856076722065
-0.984417056815
-1.12594844226
-1.25673238756
-1.30689204341
-0.138065218797
-0.195591889146
-0.260724563268
-0.332839721423
-0.414847261536
-0.51030089879
-0.621014119567
-0.742876876015
-0.854097712282
-0.896938538121
0.129984025353
0.0818699219099
0.0235141789448
-0.0409873968662
-0.113205480425
-0.196644998877
-0.292956990241
-0.397970889971
-0.492100937422
-0.527910195818
0.357769310787
0.316676303329
0.261761589248
0.201899505269
0.138132534706
0.0673286451085
-0.0129048751129
-0.0994017770468
-0.175779991864
-0.204338750238
0.941039753422
0.975125782374
0.948100577976
0.768202571714
0.828557885253
0.8346429161
0.828448837379
0.826081129362
0.788310186238
0.633141804397
0.927004203971
0.970939219592
0.949254548609
0.771732086478
0.824913251377
0.834624603183
0.8317182719
0.836970066628
0.817918796565
0.720755611514
0.914474496842
0.96630291216
0.949331164213
0.774873841929
0.821176172585
0.833701031112
0.834948052191
0.846755900581
0.844123235102
0.808665330409
0.903349597558
0.961379607333
0.948404911339
0.777377518262
0.817393174634
0.831914031108
0.836608130268
0.853899747595
0.864169633748
0.876441774884
0.8933709886
0.956283320045
0.946577570968
0.779000794789
0.813582742733
0.829290826129
0.836857051889
0.85855236011
0.879606975619
0.92878111373
0.884341592092
0.951126037317
0.943985271207
0.779633338377
0.809634450249
0.825881661095
0.835710993291
0.860407227665
0.891936062954
0.965539438205
0.876108709529
0.94599750471
0.940776047239
0.779162335136
0.805474991424
0.821769259337
0.833163717499
0.859420043031
0.898964953303
0.990263720753
0.868527622698
0.940962802946
0.937062471193
0.77761586113
0.801016902226
0.816952299209
0.829215616143
0.855781395697
0.900062390121
1.00416410812
0.861492617654
0.936067141174
0.932968754597
0.774954111831
0.796165832703
0.811437510865
0.823826901529
0.849709400087
0.895882589079
1.00574617754
0.854905713704
0.931351403419
0.928588033671
0.771235376452
0.790893925654
0.805229720739
0.816957548115
0.841267804387
0.886696135365
0.996298561636
1.07625706229
0.991923677055
0.950691381283
0.765023375457
0.83167906686
0.828458647045
0.808314129438
0.78248249854
0.689408313335
0.501400755467
1.01688608107
0.98460541381
0.950083905613
0.767034472716
0.830686929182
0.829574327639
0.809929000234
0.785547867071
0.695789364176
0.50431162205
0.998026477761
0.983990442518
0.952074212535
0.766806267879
0.830793186473
0.830824852142
0.812943421676
0.79150313399
0.710114174809
0.509267586736
0.975960829332
0.981724072689
0.950591304049
0.766602510675
0.830803070215
0.832123975357
0.817066477494
0.800033414312
0.729822041544
0.52608512319
0.956994678072
0.978674673049
0.948390165525
0.766379795461
0.8305893941
0.833409443553
0.821907839275
0.810916653872
0.754161392051
0.546056593767
0.148135013863
0.00658809440055
-0.19141461112
-0.468346843876
-0.805537889446
-1.16051275335
-1.50018441502
-1.81458405105
-2.10341172534
-2.3426558267
0.141247500338
0.00188061378429
-0.18595594614
-0.44996855493
-0.774869144256
-1.1270898866
-1.47412475131
-1.79936766155
-2.09489888238
-2.33868658254
0.168551276333
0.0190088769739
-0.173742840959
-0.43099054311
-0.744343877758
-1.09451555525
-1.45228101078
-1.78895246763
-2.09076382525
-2.33866568206
0.22890276381
0.0549930262269
-0.157461558945
-0.414671663716
-0.719373143958
-1.06771504973
-1.43432936687
-1.78248456532
-2.09172363377
-2.34481668596
0.314896623706
0.111849946248
-0.131508401897
-0.399186806273
-0.702892270083
-1.05060857448
-1.42247414909
-1.78030430051
-2.09851011754
-2.35888459959
)
;

boundaryField
{
    left
    {
        type            zeroGradient;
    }
    right
    {
        type            fixedValue;
        value           uniform 0;
    }
    down
    {
        type            zeroGradient;
    }
    up
    {
        type            zeroGradient;
    }
    cylinder
    {
        type            zeroGradient;
    }
    defaultFaces
    {
        type            empty;
    }
}


// ************************************************************************* //
