/*--------------------------------*- C++ -*----------------------------------*\
  =========                 |
  \\      /  F ield         | OpenFOAM: The Open Source CFD Toolbox
   \\    /   O peration     | Website:  https://openfoam.org
    \\  /    A nd           | Version:  13
     \\/     M anipulation  |
\*---------------------------------------------------------------------------*/
FoamFile
{
    format      ascii;
    class       volScalarField;
    location    "27.3";
    object      p;
}
// * * * * * * * * * * * * * * * * * * * * * * * * * * * * * * * * * * * * * //

dimensions      [0 2 -2 0 0 0 0];

internalField   nonuniform List<scalar> 
440
(
-0.854837
-0.839064
-0.83266
-0.79498
-0.847618
-0.930081
-0.911306
-0.887884
-0.858742
-0.834476
-1.04954
-1.01566
-0.973397
-0.919145
-0.858806
-1.19026
-1.14096
-1.04772
-0.936253
-0.82343
-1.28563
-1.21774
-1.06301
-0.902586
-0.756117
-1.00238
-1.03841
-1.09858
-1.15206
-1.18988
-1.00098
-1.00705
-1.02896
-1.05201
-1.07275
-0.967205
-0.958185
-0.956578
-0.965484
-0.976166
-0.897377
-0.87859
-0.851438
-0.822557
-0.799021
-0.811072
-0.797156
-0.769152
-0.719728
-0.704109
-1.32541
-0.620474
0.0436335
0.108792
0.0146
-1.22849
-0.94482
-0.0278789
0.0139929
0.0124518
-1.25913
-1.21033
-0.0822544
0.0348178
0.0127313
-1.01332
-1.27484
-0.121204
0.0792206
0.0163207
-0.787112
-1.23923
-0.156324
0.0693715
0.0205431
-0.517196
-1.05276
-0.169049
0.0248199
0.0215528
-0.301548
-0.672905
-0.150538
-0.105107
-0.0157211
-0.22544
-0.404125
-0.141444
0.0610256
0.001652
-0.154092
-0.252405
-0.149346
-0.00452935
-0.0148819
-0.0369267
-0.230744
-0.170043
0.0316016
-0.00647715
-0.508212
-0.615743
-0.744044
-0.885414
-0.975651
-0.265965
-0.372788
-0.443532
-0.480159
-0.48119
-0.101034
-0.191211
-0.251495
-0.281487
-0.302805
0.00460895
-0.0789211
-0.139579
-0.170796
-0.189207
0.0551374
-0.0280301
-0.0826624
-0.104717
-0.0997019
0.780482
0.627604
0.433362
0.219442
-0.00893976
0.368704
0.209584
0.0162564
-0.202847
-0.448242
-0.0318565
-0.193318
-0.396717
-0.624093
-0.855047
-0.375663
-0.541065
-0.747246
-0.969396
-1.14796
-0.611144
-0.77731
-0.968735
-1.16915
-1.28518
1.82764
1.85772
1.8843
1.89675
1.8921
1.63974
1.65995
1.67392
1.67043
1.64575
1.4298
1.41737
1.38159
1.32295
1.23891
1.19239
1.15822
1.08813
0.98819
0.861346
0.982133
0.877393
0.741406
0.586572
0.401162
1.61082
1.60495
1.5776
1.65278
1.71283
1.60169
1.59481
1.55939
1.63648
1.62506
1.59372
1.58179
1.53848
1.6092
1.50844
1.58699
1.56531
1.51674
1.56521
1.34093
1.58146
1.55067
1.49469
1.52202
1.16087
1.57796
1.52458
1.46722
1.42223
0.952508
1.57763
1.49539
1.46732
1.29845
1.08355
1.58334
1.48094
1.46566
1.23048
1.135
1.5843
1.45534
1.45884
1.16793
1.15737
1.61851
1.45269
1.45694
1.1268
1.19948
0.752021
0.449819
0.114992
-0.173901
-0.359297
0.643963
0.437529
0.214231
0.0225978
-0.142467
0.626912
0.460557
0.298071
0.151667
0.0122292
0.682416
0.525643
0.377681
0.240997
0.114219
0.732541
0.571019
0.4228
0.287049
0.162828
-1.66323
-1.51706
-1.34425
-1.20109
-1.1144
-1.76859
-1.69163
-1.54882
-1.42484
-1.34017
-1.72298
-1.66822
-1.56956
-1.47214
-1.39052
-1.60168
-1.55718
-1.49514
-1.42404
-1.3486
-1.47415
-1.45401
-1.41962
-1.37157
-1.31005
-1.42775
-1.42245
-1.39982
-1.38911
-1.29588
-1.37548
-1.36765
-1.35077
-1.3482
-1.29072
-1.38199
-1.37807
-1.37268
-1.37116
-1.35146
-1.46092
-1.49797
-1.55033
-1.59705
-1.63199
-1.1941
-1.2778
-1.38585
-1.48698
-1.56761
-1.01197
-0.19338
0.228517
0.258982
-0.0140207
-1.04559
-0.1894
0.308839
0.276101
-0.0146124
-1.15863
-0.239115
0.274795
0.25835
-0.00580209
-1.58355
-0.321646
0.121771
0.19832
0.00320407
-1.6595
-0.41949
0.0561928
0.152515
0.0105077
-0.593188
-0.374595
0.135626
0.231595
0.000671051
-0.857237
-0.269958
0.216509
0.262548
-0.00124737
-1.06298
-1.28873
-1.30513
-1.23299
-0.99861
-1.08323
-1.29798
-1.32944
-1.25784
-1.18512
1.45425
1.43225
1.39332
1.33855
1.26601
1.65019
1.66934
1.67465
1.66412
1.63775
1.81443
1.84674
1.87303
1.88787
1.88849
1.91138
1.94978
1.99039
2.02328
2.03824
1.91033
1.94619
1.98582
2.01838
2.03301
-0.665054
-0.769763
-0.932021
-1.12774
-1.35058
-0.0725774
-0.203117
-0.377948
-0.588482
-0.848322
0.465419
0.328794
0.165435
-0.0264233
-0.261573
0.896218
0.79061
0.662493
0.507992
0.322849
1.24138
1.16792
1.07338
0.960561
0.828352
1.67029
1.63031
1.60978
1.61341
1.60946
1.65538
1.62808
1.60997
1.6297
1.67692
1.64284
1.62469
1.60893
1.65289
1.75158
1.63127
1.61996
1.60282
1.66245
1.76579
1.62055
1.61381
1.59192
1.66268
1.75732
1.72612
1.63602
1.59656
1.53601
1.47014
1.68052
1.62666
1.59152
1.55418
1.49094
1.12908
0.905224
0.522189
-0.0301651
-0.632158
1.207
0.936801
0.539498
-0.00957216
-0.625212
)
;

boundaryField
{
    left
    {
        type            zeroGradient;
    }
    right
    {
        type            fixedValue;
        value           uniform 0;
    }
    down
    {
        type            zeroGradient;
    }
    up
    {
        type            zeroGradient;
    }
    cylinder
    {
        type            zeroGradient;
    }
    defaultFaces
    {
        type            empty;
    }
}


// ************************************************************************* //
