/*--------------------------------*- C++ -*----------------------------------*\
  =========                 |
  \\      /  F ield         | OpenFOAM: The Open Source CFD Toolbox
   \\    /   O peration     | Website:  https://openfoam.org
    \\  /    A nd           | Version:  13
     \\/     M anipulation  |
\*---------------------------------------------------------------------------*/
FoamFile
{
    format      ascii;
    class       volScalarField;
    location    "0.5";
    object      p;
}
// * * * * * * * * * * * * * * * * * * * * * * * * * * * * * * * * * * * * * //

dimensions      [0 2 -2 0 0 0 0];

internalField   nonuniform List<scalar>
1800
(
-1.56066321569
-1.57282103437
-1.52518284731
-1.4373830044
-1.33790797411
-1.24295134033
-1.15818698178
-1.08370502753
-1.01829471041
-0.965718922336
-1.76040886556
-1.7733469634
-1.71749277099
-1.617581328
-1.50572341062
-1.39934952401
-1.30454893056
-1.22175450201
-1.15054357762
-1.09289192867
-1.95216083356
-1.96522882115
-1.90018056949
-1.78786471645
-1.66361411032
-1.54572835466
-1.44042712663
-1.3480379204
-1.26764876715
-1.19998151826
-2.13061828597
-2.14312618062
-2.06834214847
-1.94413160802
-1.80860286493
-1.68063355254
-1.56640726434
-1.46605227642
-1.37848657471
-1.304135781
-2.28978753376
-2.30098019901
-2.21594777301
-2.08048158556
-1.93461849788
-1.79753171728
-1.67516393958
-1.56744195151
-1.47313181344
-1.39200899091
-2.42441809596
-2.43364206471
-2.33829609195
-2.19275658848
-2.03804936189
-1.89340601794
-1.76442123909
-1.65077465354
-1.55103813086
-1.46459399151
-2.52923557331
-2.53590601181
-2.4304412043
-2.27632107882
-2.11431348871
-1.96369316766
-1.82954084137
-1.71126736692
-1.60728520377
-1.51660257081
-2.59988949332
-2.60353822941
-2.4886731254
-2.32771300464
-2.16016858438
-2.0053392803
-1.86762703149
-1.74616976019
-1.63920989352
-1.54543862787
-2.6328981014
-2.63309848402
-2.51004351262
-2.34398674895
-2.17274947379
-2.01559457104
-1.87594732978
-1.75278852185
-1.644184281
-1.54848204286
-2.62609908277
-2.62273325248
-2.49248580633
-2.32372797914
-2.15038867712
-1.99270017712
-1.85263132268
-1.72910615316
-1.62006534217
-1.52353788232
-0.139109716349
-0.129434920151
-0.118188399897
-0.104624776365
-0.0930505744417
-0.0857567758367
-0.0827575338241
-0.0832808364918
-0.0865439498768
-0.0919108839507
-0.186538983881
-0.178150860919
-0.166053666515
-0.150082315767
-0.135330930161
-0.124732013509
-0.118598718731
-0.116225390314
-0.116822346402
-0.119578480023
-0.259969517579
-0.253453211093
-0.240031888031
-0.220403040671
-0.200824429829
-0.185211606673
-0.174328291133
-0.167567340545
-0.164125689592
-0.16289922318
-0.35849633324
-0.354276462551
-0.339004274834
-0.314483805726
-0.28853557197
-0.266342949804
-0.249238371662
-0.236751671801
-0.228050888377
-0.221621399274
-0.48082129788
-0.479160593474
-0.46145315096
-0.430839963985
-0.39712219098
-0.366970064221
-0.342372453357
-0.323024498858
-0.308051390448
-0.295413255768
-0.625086816942
-0.626114248003
-0.60533618087
-0.567508736824
-0.524815299047
-0.485553303
-0.452434483724
-0.425338090539
-0.403333543518
-0.383763052367
-0.788734835034
-0.792475752497
-0.767987413833
-0.721985824085
-0.669392166764
-0.620191843199
-0.57784057007
-0.542416551536
-0.512902496754
-0.486051788493
-0.96835088045
-0.97473842014
-0.945908139015
-0.890986415434
-0.82793321481
-0.768405098611
-0.716573062368
-0.672694402999
-0.635562862264
-0.601575959598
-1.15974064092
-1.16855493976
-1.1345651302
-1.06984531667
-0.995698311438
-0.925433760566
-0.863922220876
-0.811541550892
-0.766723165414
-0.726163100604
-1.35861207594
-1.36940922074
-1.3291097091
-1.25327191297
-1.16675692579
-1.08444627829
-1.01179907124
-0.94921227705
-0.894958205002
-0.847750494561
-0.134804568716
-0.211947843146
-0.280776005842
-0.330996802867
-0.369422642271
-0.400291598957
-0.426922036245
-0.451192146047
-0.474209681131
-0.496629973775
-0.146312869414
-0.220008436335
-0.284497412488
-0.333056792264
-0.370824897074
-0.401361903283
-0.427739089985
-0.451773331447
-0.474561947962
-0.496757857806
-0.164239722776
-0.232556904681
-0.290256183525
-0.335987976025
-0.372560340878
-0.402543395622
-0.428575985126
-0.452340824649
-0.474897425388
-0.49687966221
-0.189541011239
-0.249086182901
-0.297967946821
-0.339778377988
-0.374640404441
-0.403845988777
-0.429439892657
-0.452900680122
-0.47521965298
-0.496995828345
-0.223612214497
-0.268881850549
-0.30748712164
-0.344401661724
-0.377063596334
-0.405274675537
-0.430336792832
-0.453458181977
-0.475532187265
-0.497107271009
-0.268190398518
-0.291081635856
-0.318587464342
-0.349809725036
-0.379831433966
-0.406832698632
-0.431272043342
-0.454018382375
-0.475838022976
-0.497214010863
-0.325190413654
-0.314866809891
-0.330896255092
-0.355921815683
-0.382934718242
-0.40852503915
-0.432250536999
-0.454585946694
-0.476139951945
-0.497316104486
-0.396440068651
-0.340973162807
-0.344137921952
-0.362651059786
-0.386363284537
-0.410354756596
-0.433276533187
-0.455165466139
-0.476441076409
-0.497413254672
-0.48231690717
-0.371469811873
-0.35863865328
-0.370138367773
-0.390201152314
-0.412364897842
-0.434370963196
-0.455767251543
-0.476745195674
-0.49750749735
-0.576103117909
-0.405984073044
-0.374145724856
-0.378242953462
-0.39441192132
-0.414553223611
-0.435536597012
-0.456397391946
-0.477057657737
-0.49759101454
-0.635499351355
-0.442765293269
-0.392613989635
-0.389719684503
-0.401471241269
-0.418825435351
-0.438131643369
-0.457952687157
-0.477869851194
-0.497790303219
-0.658719740761
-0.479989314286
-0.418469832179
-0.406785348955
-0.412483041962
-0.425812452868
-0.442540859467
-0.460661060725
-0.479331710464
-0.498236323608
-0.664351840758
-0.501780412948
-0.437035356518
-0.420765746628
-0.422297144359
-0.432365736903
-0.446789476407
-0.463304498902
-0.480773126415
-0.498683013907
-0.666168790167
-0.519832330173
-0.45396659128
-0.433671504605
-0.431501618989
-0.438625490977
-0.450897488607
-0.465878734127
-0.482187451121
-0.499127211563
-0.663531472012
-0.532827008696
-0.468270198841
-0.445102631316
-0.439897314159
-0.444459472513
-0.454778440326
-0.468330154112
-0.48354518406
-0.499559131183
-0.659010852657
-0.542746156631
-0.4804359264
-0.455172373715
-0.447440747902
-0.449783653613
-0.458359024814
-0.47060984039
-0.4848193471
-0.499970408229
-0.654641499957
-0.550713380351
-0.490773411273
-0.463934997226
-0.454087811148
-0.454523813246
-0.461574670792
-0.472672194067
-0.485985648282
-0.500354197811
-0.651777840711
-0.557774637623
-0.499705612409
-0.471493361316
-0.45981836829
-0.458622732567
-0.464368799398
-0.474476262441
-0.487022114782
-0.500702262135
-0.649632111728
-0.564504928807
-0.508123663181
-0.47850709492
-0.465079774073
-0.4623683925
-0.466925905772
-0.476140798397
-0.488016618509
-0.501061918334
-0.658843346862
-0.571684833773
-0.514631636918
-0.483479647933
-0.468682499353
-0.464901698297
-0.468645410268
-0.477254093376
-0.488676504045
-0.501297588907
-1.36210007214
-1.38665866315
-1.38812579754
-1.36765603031
-1.32741720153
-1.27008181656
-1.19939263101
-1.11646492658
-1.02871269292
-0.932118674813
-1.18923449747
-1.21553859716
-1.22291590425
-1.2127901817
-1.18608689093
-1.14629879155
-1.09460926671
-1.03509843864
-0.971601065396
-0.903406272275
-1.05686103172
-1.08257244081
-1.09303359223
-1.08948802363
-1.07192062134
-1.04438921925
-1.00582931287
-0.961912287636
-0.912752147026
-0.859652938183
-0.954242228511
-0.980222740627
-0.99291274276
-0.99355233866
-0.982004715139
-0.962073217004
-0.932227035944
-0.898248159059
-0.858879554816
-0.816738743515
-0.87657716592
-0.902313843035
-0.916385029142
-0.919766823857
-0.912467667491
-0.897601009914
-0.874108567199
-0.847076872247
-0.815067550958
-0.781031202367
-0.817230775198
-0.843038383292
-0.858275244265
-0.863684218782
-0.859532986435
-0.848253215529
-0.829432431342
-0.807276215991
-0.780433294366
-0.75191540656
-0.773149734244
-0.799245107662
-0.815468271593
-0.822409241222
-0.820565010372
-0.811819931229
-0.796295290199
-0.777458698194
-0.754276676926
-0.729658836887
-0.741917416716
-0.768631819652
-0.78592355432
-0.79418124686
-0.794069715349
-0.787103318089
-0.773770903355
-0.756982770515
-0.736104083208
-0.714109373048
-0.725335041638
-0.752028583308
-0.770293347098
-0.779986732193
-0.781422702815
-0.775675511305
-0.7633931151
-0.74690161032
-0.726271767092
-0.702999868559
-0.712867975355
-0.743104230775
-0.76462008454
-0.777878676846
-0.783405169361
-0.781882226153
-0.77410466572
-0.761102656902
-0.743140807633
-0.720403617412
-0.0796839073553
-0.133171475286
-0.197722283649
-0.267607676119
-0.343006634923
-0.42684780464
-0.520729528367
-0.620749182978
-0.707345125281
-0.735135427386
-0.267304317644
-0.325940151954
-0.393675879028
-0.468656294995
-0.552418341964
-0.647384142321
-0.754271403925
-0.868264390066
-0.966755698902
-0.996563071719
-0.478508059453
-0.540794041416
-0.610958392413
-0.689916427373
-0.779741582316
-0.8825602369
-0.998871598528
-1.12362012716
-1.23180776471
-1.26215966664
-0.677675691337
-0.744963293741
-0.820865831913
-0.906846616949
-1.00474972521
-1.11658946049
-1.24284123136
-1.37843813129
-1.49625806953
-1.52599341329
-0.855722623265
-0.929864838097
-1.01347135727
-1.1080486766
-1.21537447759
-1.33747338808
-1.47466058922
-1.62169738318
-1.74979704632
-1.7772763007
-1.01588295459
-1.09692465993
-1.18811750127
-1.29106570464
-1.40760696738
-1.53976593433
-1.68743708955
-1.84468608291
-1.9834817602
-2.005043579
-1.15997986201
-1.24666810796
-1.34429032398
-1.4544755588
-1.57907005302
-1.71992737863
-1.87693930441
-2.04326414758
-2.18788303193
-2.20267824319
-1.28555514071
-1.37661328593
-1.479410081
-1.5954942121
-1.72680527829
-1.8749409548
-2.03794159876
-2.20883949845
-2.36181637753
-2.362091689
-1.38870561318
-1.48334035737
-1.59026516099
-1.71077184577
-1.8469027553
-2.00147273119
-2.17173292488
-2.34450709584
-2.48053911031
-2.48900072906
-1.46837717011
-1.56526499544
-1.67453278105
-1.79743921521
-1.93550784352
-2.09234897034
-2.26748231565
-2.43590444231
-2.57139576463
-2.578355927
1.02855242696
1.0427821575
1.05893264856
1.07541974224
1.0908196555
1.10427145514
1.11496885483
1.12236142996
1.12753598265
1.1327460007
0.978645961449
0.990952983296
1.00468804301
1.01831670288
1.03055703189
1.0405181396
1.04736632532
1.05077782869
1.05257732754
1.05594329256
0.909198051973
0.918818316581
0.929046318785
0.938537689641
0.946209222612
0.951119431658
0.952390123306
0.950011414622
0.947015137199
0.947638944431
0.820935055434
0.827122571138
0.832841256351
0.837043877789
0.838827450978
0.837260843125
0.831383460531
0.821533123212
0.812368864745
0.809319908089
0.714654321514
0.7168148987
0.717272073903
0.715188984653
0.709986566324
0.700677128542
0.686233527441
0.667359717311
0.650299292244
0.644016286008
0.591460763411
0.589332232457
0.584000073571
0.57484479049
0.561662148484
0.543474939483
0.519212035747
0.489968666558
0.463641830555
0.453834271954
0.453445898336
0.447246954172
0.435974876953
0.41923664906
0.397282839942
0.36923604648
0.333996118435
0.293173988171
0.25653167692
0.242946840451
0.307508235004
0.296618925614
0.278065481031
0.252206196085
0.21997083621
0.180606938132
0.133010864039
0.0793083148176
0.0313741824053
0.0140402056653
0.161035736717
0.145228723213
0.118306792529
0.0817524888964
0.0375697640015
-0.0148370272137
-0.0765260963302
-0.144713630938
-0.205093670267
-0.226225317605
0.0306026082852
-0.00133733966439
-0.0448525718226
-0.0964868392821
-0.154689990138
-0.221108238162
-0.297359134413
-0.380317293656
-0.453181257255
-0.477752323811
0.854628046335
0.97444398646
0.955263689907
0.771385448957
0.782072470974
0.792265211388
0.801069365945
0.822254114183
0.863664497602
0.967512512824
0.848800789222
0.97021693877
0.950472973153
0.76555318518
0.775789300307
0.784599793308
0.791144830471
0.809013036679
0.844325236081
0.934419387798
0.843283446359
0.96631192944
0.945579651989
0.75871250769
0.768937411875
0.776119952895
0.779669479348
0.793260178875
0.81966048014
0.889700063733
0.83806523891
0.962779870907
0.940559737977
0.750901788793
0.761590235817
0.766878409809
0.766658888371
0.774812449307
0.789106708512
0.833795440276
0.833185005255
0.959633588111
0.935384320193
0.742161065004
0.753823283392
0.756842425121
0.75213471268
0.753466251458
0.752646544843
0.766523183461
0.828707898912
0.956873548476
0.930001117119
0.732578827116
0.74572533775
0.746048104913
0.73609261567
0.729115277848
0.711195116875
0.686476763676
0.824707402903
0.95451508802
0.924334598268
0.722220275396
0.737379847255
0.734474352689
0.718492005277
0.701842884479
0.666482371049
0.590594835459
0.821261089973
0.952538900611
0.918337956514
0.711209722582
0.728861530721
0.722081639836
0.699350968006
0.671673913527
0.617769703613
0.480830329556
0.818471116427
0.950888711533
0.911945666393
0.699691853391
0.720235622098
0.708889517276
0.678794710438
0.638544185763
0.563099630485
0.354017017426
0.816663480645
0.949624332116
0.905172015579
0.687850458638
0.711467302962
0.694898586316
0.657181994086
0.603920180236
0.504596786065
0.225674446062
0.814829289978
0.947319063038
0.900745413205
0.676962650792
0.699003379901
0.676572338108
0.628805433367
0.5595010017
0.439586596231
0.104961891395
0.814740957104
0.944201719962
0.899733996111
0.668797027559
0.684176722095
0.656798362605
0.59989295528
0.517870521953
0.381265389694
0.0677462959863
0.816737600682
0.941865494127
0.898774450228
0.661618124023
0.67055723705
0.638445449471
0.573718876511
0.482237629933
0.333107986742
0.0410244906928
0.821114249599
0.940547439647
0.897923668673
0.655462777727
0.658462176964
0.621938908448
0.550735984499
0.452288439044
0.294142050761
0.0250563459426
0.8287293476
0.940407772786
0.897300445065
0.650329859876
0.648081580277
0.607611618782
0.531230898144
0.427611795041
0.264120051958
0.0161563581817
0.839566271376
0.941411014834
0.89693966112
0.646245104794
0.639522247721
0.5956354767
0.515275755363
0.407878011377
0.242207925109
0.0118161385583
0.857151448923
0.943502236621
0.896732939873
0.643180220354
0.632843881695
0.586131104405
0.502868558233
0.392840895401
0.227141956514
0.0106898672458
0.877780489271
0.946917824583
0.89676564712
0.641132972028
0.628124587191
0.579132228595
0.493933901703
0.382259215132
0.217744271887
0.0122676004962
0.891798135428
0.947731890843
0.893886716253
0.640301342664
0.625562892115
0.574848207877
0.488670072866
0.376310154391
0.213525075504
0.0178585426827
0.950855493205
0.95849529162
0.897428338343
0.638537576905
0.625605375877
0.573123692299
0.486661289226
0.373988436837
0.212995996089
0.0213262123363
-0.114035764267
-0.270658176773
-0.452912062205
-0.625213945343
-0.777755051052
-0.915144145745
-1.04063983485
-1.15161534576
-1.24368654456
-1.31424511247
-0.179623354929
-0.297807598667
-0.434017249616
-0.569374589181
-0.692840957594
-0.804957049729
-0.908402937234
-1.00155725651
-1.08130437977
-1.14428560144
-0.206255666302
-0.300123487466
-0.403579731545
-0.51404978292
-0.620076932345
-0.717677419251
-0.807904423355
-0.889736072188
-0.960096491138
-1.01617902465
-0.210678032257
-0.292553823728
-0.378376762813
-0.471626698725
-0.563895054727
-0.649596732431
-0.728787315223
-0.801002796168
-0.863890907027
-0.915321993691
-0.203677741195
-0.278631610218
-0.353751907036
-0.43470012368
-0.516821522241
-0.594436409533
-0.666477789738
-0.732553743805
-0.790855198507
-0.83935598164
-0.19210681666
-0.2625003068
-0.33105630743
-0.403948827737
-0.479052254743
-0.551044318861
-0.618143856408
-0.679883581108
-0.734795522039
-0.781028321318
-0.179839743251
-0.246980395433
-0.311200197668
-0.378819766382
-0.449192137024
-0.517342961427
-0.581100637565
-0.639917496568
-0.692554127754
-0.73739228515
-0.168275555517
-0.233252785725
-0.294604390109
-0.359009379205
-0.426553903083
-0.492385238554
-0.554140694998
-0.611211399322
-0.662433356482
-0.706339158288
-0.15460835757
-0.217984556402
-0.278100928586
-0.341761358774
-0.408827961545
-0.474432573162
-0.53619589808
-0.593459601636
-0.645067802416
-0.68945359246
-0.137304287876
-0.196190568948
-0.25482542296
-0.3191193592
-0.386734924767
-0.452950939597
-0.51586323995
-0.574620253701
-0.627915106533
-0.674354135304
-3.77947349542
-3.76016432542
-3.57817658714
-3.36656231256
-3.163798962
-2.9888033092
-2.84210135003
-2.72108587436
-2.62375595124
-2.54954263411
-3.82999511271
-3.82108072043
-3.65401234826
-3.44454357422
-3.24034244469
-3.062098586
-2.91237732321
-2.78873537805
-2.68964668875
-2.6159993895
-3.7679458424
-3.76964250509
-3.61935790602
-3.41464144534
-3.20940890243
-3.02801156391
-2.8752440947
-2.74882715715
-2.64681601177
-2.56988213315
-3.60084057107
-3.61119482193
-3.47968493678
-3.28212549147
-3.0769640611
-2.89273442989
-2.73679281751
-2.60756904198
-2.50256124468
-2.42089140038
-3.34478553242
-3.36133313725
-3.24891295272
-3.06154675067
-2.85914543335
-2.67400096415
-2.51610753932
-2.38492796099
-2.27782345454
-2.19279683213
-3.02191466065
-3.04257289524
-2.94806876169
-2.77441329057
-2.57944994797
-2.39760303005
-2.24103932194
-2.11038853269
-2.00314663159
-1.91819082799
-2.65875332199
-2.68114970715
-2.60285100292
-2.44669864018
-2.26544156286
-2.09326203835
-1.94348340446
-1.81789179275
-1.71386594378
-1.63266251548
-2.28216974798
-2.30385453656
-2.23973290596
-2.1039481606
-1.94227664771
-1.78625255406
-1.64911075708
-1.53337061057
-1.4369316076
-1.36243941932
-1.91604259358
-1.93509071765
-1.88316168879
-1.76905700864
-1.63097403286
-1.49634370868
-1.37725360978
-1.27642398478
-1.19221036714
-1.13082930875
-1.57667878708
-1.59220180471
-1.55026719525
-1.45682886136
-1.3427774564
-1.23086812662
-1.13119199731
-1.04589169983
-0.972256253141
-0.916681870983
-1.27312502654
-1.28514146148
-1.25123978524
-1.17640956104
-1.08521180855
-0.996127247585
-0.917514423899
-0.851386458082
-0.795607942709
-0.747512660071
-1.00900960198
-1.01710539368
-0.989614367626
-0.930447115723
-0.858905039664
-0.789639988254
-0.729075397011
-0.678559322038
-0.636796197037
-0.598446048489
-0.783145340744
-0.787387004445
-0.764789626026
-0.718157466936
-0.662529190887
-0.609347747957
-0.563320175677
-0.525178933501
-0.494099837958
-0.46520229364
-0.593414545875
-0.594125649069
-0.575341468426
-0.53888816846
-0.496427914678
-0.45676217223
-0.423214772056
-0.396024573552
-0.374443460063
-0.354766447981
-0.437842641857
-0.435421746793
-0.419609062855
-0.391367231196
-0.359704801801
-0.331236025902
-0.308156469331
-0.290321443038
-0.276948085869
-0.265427024978
-0.314593851441
-0.309456120525
-0.295837271464
-0.273938116429
-0.250746473906
-0.231113586494
-0.216351762425
-0.206045289927
-0.199394480294
-0.194620062548
-0.222115039121
-0.214732121287
-0.202615967333
-0.185329431514
-0.168407366598
-0.155357820822
-0.146833999886
-0.142231390947
-0.140756113489
-0.14119799632
-0.159181059305
-0.150127425014
-0.138923158584
-0.124686833941
-0.111960857278
-0.103354796499
-0.0990628600917
-0.0983656635423
-0.100472974656
-0.104537841012
-0.124791156354
-0.114793413411
-0.10400622277
-0.0913748361224
-0.080881510472
-0.0746613833138
-0.0726602386072
-0.0740910366258
-0.0781705862809
-0.084256268898
-0.118366368357
-0.1081039318
-0.0972897638126
-0.0848350157713
-0.0747131520259
-0.0689118195816
-0.067319082944
-0.069138380468
-0.0735883979582
-0.0800891072542
-0.464740873117
-0.350882014528
-0.343801789153
-0.353370180387
-0.370962944394
-0.39326584946
-0.417801711647
-0.443174821173
-0.46889998113
-0.494779422055
-0.367764926168
-0.320136124552
-0.330529079078
-0.347722419404
-0.369686219675
-0.39383167044
-0.418933630829
-0.444257068714
-0.469636444318
-0.495029451296
-0.291972258841
-0.295651551274
-0.319771142099
-0.343757126584
-0.368770078154
-0.394427618088
-0.42000132015
-0.445262106353
-0.470316914144
-0.495261500943
-0.236067211392
-0.27526960392
-0.309799702651
-0.339717021453
-0.367973745388
-0.395019121156
-0.420999525026
-0.446192429706
-0.470944868319
-0.495476951389
-0.195197983431
-0.257142025883
-0.300666390467
-0.336238181688
-0.367392877952
-0.395624015668
-0.421938711781
-0.447054684864
-0.471524570864
-0.495677071746
-0.166300020288
-0.240672180404
-0.292801938751
-0.333422565907
-0.367046430806
-0.396257216992
-0.422829028718
-0.447856139237
-0.47205989826
-0.495863466268
-0.146804071985
-0.226866135851
-0.286513904192
-0.331323114141
-0.366950360703
-0.396928962508
-0.423681330391
-0.448603367518
-0.47255477388
-0.496037206573
-0.134780716149
-0.216145099665
-0.282042227837
-0.329994900795
-0.367125622578
-0.39765479475
-0.424506391244
-0.449303626826
-0.473013265446
-0.496199598917
-0.129154324629
-0.210091744782
-0.279559934742
-0.329480484342
-0.367584433263
-0.398448634242
-0.425314889459
-0.449963955257
-0.473439176016
-0.496351795625
-0.129156473454
-0.208632413451
-0.279128549485
-0.329807139607
-0.368346556066
-0.399323644646
-0.426116860173
-0.450591183007
-0.473836665792
-0.496494853048
-0.678140413802
-0.479363253017
-0.405167592057
-0.382493345679
-0.383366131132
-0.397201223143
-0.418195285141
-0.442360175506
-0.46796989722
-0.49434530108
-0.632920182782
-0.455960442596
-0.395573231974
-0.37866715608
-0.381657470065
-0.396838900992
-0.418206877549
-0.44248603774
-0.468104071692
-0.494407559528
-0.601359262701
-0.436595085602
-0.386012209581
-0.374133790572
-0.379683052251
-0.396144790874
-0.418105312238
-0.442597543773
-0.468256426697
-0.494484429247
-0.566773486865
-0.413030209841
-0.373865905984
-0.368146691013
-0.377177407086
-0.395092806277
-0.417835672692
-0.442631317162
-0.468365190918
-0.494542715633
-0.52516966299
-0.380791388747
-0.357286306571
-0.359824065212
-0.373450329993
-0.39370990685
-0.417426242583
-0.442605352551
-0.468443865509
-0.494588011031
-2.4808346765
-2.55007234784
-2.5232644471
-2.40666588664
-2.21394170521
-1.98335175752
-1.71698640005
-1.47523461445
-1.24325657438
-1.04212431821
-2.47812475094
-2.54466641227
-2.51093208324
-2.38732147427
-2.19030427104
-1.95866912301
-1.69662135648
-1.45600275668
-1.22516942427
-1.01171085868
-2.48037755767
-2.54536235632
-2.5063472351
-2.37499853608
-2.17051844439
-1.92669903147
-1.65682710887
-1.40147842485
-1.1720229123
-0.979263630309
-2.49091857602
-2.55682816476
-2.51377123153
-2.37284727571
-2.15620582647
-1.89582869292
-1.61877671529
-1.35622866327
-1.13325619197
-0.949245992556
-2.51045099348
-2.57751247834
-2.53027680498
-2.37985587939
-2.1510651483
-1.87741488538
-1.59403375813
-1.32784197662
-1.10279855944
-0.908245937555
0.458318038224
0.43729576322
0.406537088558
0.368972380693
0.326497268672
0.277673485522
0.220363654117
0.156640937505
0.100380282541
0.0793355595971
0.579547680655
0.575154002798
0.561730103621
0.540316444559
0.512981535999
0.479241195192
0.437814153602
0.390572839591
0.348883330587
0.3338401332
0.701871676748
0.701949521802
0.696334254666
0.68536777716
0.669902039222
0.649236862751
0.622145376758
0.589930766387
0.561525061007
0.551812815697
0.811162824012
0.815439145334
0.816661799027
0.814409467837
0.808743574881
0.798781759233
0.783435462259
0.763540073821
0.746045695496
0.740579408576
0.903092177315
0.910883882191
0.917295111157
0.921707198265
0.923651792875
0.922205641905
0.91631857284
0.906459245979
0.897800308362
0.895793574296
0.974785392719
0.985730986287
0.996635424613
1.00655982732
1.01468723987
1.02007229975
1.02176958816
1.01986692261
1.01777172097
1.01920262729
1.02608756729
1.03946700097
1.0538035531
1.06788844484
1.08062913
1.09111877442
1.09847031212
1.10244572484
1.10506150131
1.10932657707
1.05720266891
1.07211334503
1.08871305604
1.10554314916
1.12134457807
1.13519537688
1.14626569032
1.15408681073
1.15980077113
1.1656367029
1.06798804287
1.08356057741
1.10120508385
1.11935181662
1.13660894008
1.15207124149
1.16492926257
1.174568304
1.18173435226
1.18812014059
1.05840804768
1.07372375888
1.09119395619
1.10917361543
1.12624107918
1.1415183382
1.15423014842
1.1637483928
1.17076562886
1.17702527734
-2.37862062265
-2.45559527958
-2.55216090933
-2.67026093203
-2.81328305316
-2.98466675602
-3.18670081183
-3.39213815564
-3.59091038544
-3.6183681433
-2.12308026568
-2.2009493308
-2.29620385825
-2.41075174871
-2.54855641366
-2.71281436759
-2.90313529539
-3.11293726749
-3.33746082819
-3.35785366001
-1.80598523433
-1.8820861163
-1.97511114713
-2.0862220629
-2.21886873137
-2.37628805402
-2.56062589166
-2.77036931648
-2.97146542997
-3.01961211239
-1.44735069864
-1.52295090544
-1.61444747158
-1.72249205644
-1.84992296101
-2.00013369919
-2.17563480666
-2.37302384861
-2.55663900569
-2.61746260589
-1.07690853016
-1.15381769991
-1.24394455045
-1.34782713412
-1.46816402654
-1.60839886375
-1.77107109545
-1.95206912983
-2.1189216201
-2.18130755909
-0.729482672409
-0.804337194794
-0.889599656378
-0.985741994329
-1.09545001294
-1.22217011289
-1.36837871837
-1.53000903729
-1.67803865711
-1.73606889588
-0.420552116784
-0.487804005886
-0.563437459205
-0.647820292814
-0.743675482962
-0.854353464614
-0.982079481105
-1.12287459724
-1.25087813541
-1.30181344661
-0.139702493557
-0.196937217052
-0.261630287847
-0.333503190959
-0.415398957452
-0.510649677276
-0.621030955887
-0.742452236703
-0.851676591756
-0.894918911152
0.126534324857
0.0782273930457
0.0201516095675
-0.0440015428948
-0.116058154817
-0.199316651696
-0.295302629257
-0.399900811027
-0.492466771011
-0.528433870815
0.352108861618
0.310673816014
0.255960519831
0.196654494676
0.133386268976
0.0630082228226
-0.0166999482374
-0.102646367179
-0.177730044725
-0.206299471144
0.946735836009
1.02578560956
0.979361376646
0.76983743273
0.819308451132
0.825449750423
0.819899195357
0.818303291386
0.7815632332
0.62715577887
0.93270045897
1.0211409434
0.980977197512
0.774196915075
0.816623965
0.825706087457
0.823153558273
0.828981041526
0.810918180063
0.714524202516
0.920199474116
1.01605993362
0.981322881363
0.77799489512
0.813893912902
0.825153378856
0.826490989933
0.838637543733
0.83679640597
0.802010179875
0.90911889518
1.01069789415
0.98048413789
0.781000175868
0.811083662163
0.823821604092
0.828265124719
0.845725386354
0.856622202272
0.86934418518
0.899195058793
1.00518731754
0.978624668727
0.783027032537
0.80814192059
0.821663350637
0.828661265877
0.850358185225
0.871993014287
0.921351504566
0.890230514388
0.999653384379
0.975914585266
0.783969661327
0.804949995119
0.818709548529
0.82768667325
0.852184664047
0.884029617216
0.958037810738
0.882034182204
0.994207440524
0.972547634473
0.783752923512
0.801402883236
0.814997925962
0.825326765472
0.851197961351
0.890635237891
0.982858606577
0.874486102126
0.988916042744
0.96867207643
0.782372887943
0.797411424332
0.810508414134
0.821522383841
0.847584105095
0.89157262668
0.996544614609
0.867428889324
0.983837480534
0.964417654425
0.779827924653
0.792873671072
0.805221971634
0.816237618087
0.841514336572
0.887267157101
0.998352244522
0.860825158428
0.979002381453
0.959931028668
0.776150944934
0.787781759685
0.799139759195
0.809429139349
0.833068826416
0.877955041081
0.988821271303
1.08235418867
1.04227276868
0.982858839011
0.766638699556
0.820897578121
0.818512822009
0.799643565913
0.775133885352
0.682851801818
0.496141863202
1.02262069979
1.03486911064
0.981902677696
0.768460900395
0.820165014874
0.819718666592
0.80124993722
0.778146944017
0.689136987273
0.4987603854
1.00375229309
1.03491288381
0.983880266817
0.768245738736
0.820469090999
0.821053504589
0.804299750179
0.784046846515
0.703458010946
0.503668050775
0.981643522892
1.03264539157
0.98217022151
0.767942744186
0.820687692448
0.822514348127
0.808457155481
0.792535764635
0.723222851791
0.520204161117
0.962711925979
1.02958259656
0.979559769568
0.767571227465
0.820750243411
0.824001046035
0.81334923532
0.803331985642
0.747575477586
0.540626196948
0.146488172813
0.00523578133749
-0.19243681606
-0.467460501873
-0.802258294293
-1.15675817011
-1.49580196844
-1.80561641038
-2.08725515415
-2.32100202712
0.138694386693
-0.000498260050059
-0.188068500128
-0.450084868865
-0.772369547991
-1.12338433521
-1.46964001002
-1.79103722878
-2.07986048936
-2.31769530511
0.165751765346
0.016619692315
-0.175956506877
-0.431594101875
-0.742476551765
-1.09082419175
-1.44724046068
-1.78071076697
-2.07641444009
-2.31812307471
0.225288994146
0.0526599384977
-0.159270689093
-0.41529261457
-0.718005609399
-1.06415407093
-1.42869163485
-1.77383036219
-2.07753737649
-2.32449410926
0.311183754004
0.109297453049
-0.13309954033
-0.39973897284
-0.701737778573
-1.0471540816
-1.4165315772
-1.77127401171
-2.08429493975
-2.33868939652
)
;

boundaryField
{
    left
    {
        type            zeroGradient;
    }
    right
    {
        type            fixedValue;
        value           uniform 0;
    }
    down
    {
        type            zeroGradient;
    }
    up
    {
        type            zeroGradient;
    }
    cylinder
    {
        type            zeroGradient;
    }
    defaultFaces
    {
        type            empty;
    }
}


// ************************************************************************* //
