/*--------------------------------*- C++ -*----------------------------------*\
  =========                 |
  \\      /  F ield         | OpenFOAM: The Open Source CFD Toolbox
   \\    /   O peration     | Website:  https://openfoam.org
    \\  /    A nd           | Version:  13
     \\/     M anipulation  |
\*---------------------------------------------------------------------------*/
FoamFile
{
    format      ascii;
    class       volScalarField;
    location    "59";
    object      p;
}
// * * * * * * * * * * * * * * * * * * * * * * * * * * * * * * * * * * * * * //

dimensions      [0 2 -2 0 0 0 0];

internalField   nonuniform List<scalar> 
440
(
-0.713714
-0.707858
-0.775528
-0.684381
-0.755955
-0.656456
-0.655119
-0.661864
-0.661274
-0.660496
-0.782253
-0.751803
-0.723588
-0.689606
-0.649886
-0.899111
-0.854483
-0.780184
-0.690947
-0.599753
-0.994494
-0.93355
-0.798131
-0.655489
-0.523226
-1.28531
-1.25452
-1.21138
-1.16891
-1.13855
-1.25098
-1.21869
-1.17613
-1.13484
-1.10106
-1.24349
-1.25998
-1.30374
-1.36185
-1.42608
-0.999903
-1.07145
-1.21392
-1.37952
-1.48042
-0.232866
-0.35629
-0.505218
-0.568291
-0.536686
-0.765764
-1.82251
-1.31255
-0.145853
0.0350478
-0.584321
-1.81351
-1.62584
-0.17054
0.0173478
-0.488407
-1.62163
-1.70738
-0.193175
0.00204062
-0.361481
-1.34912
-1.67521
-0.220149
-0.0108273
-0.260709
-1.05471
-1.52852
-0.243123
-0.0171869
0.258404
-0.761676
-1.26499
-0.234593
-0.0242648
-0.185382
-0.554945
-0.886953
-0.217019
-0.0377289
-0.06286
-0.329244
-0.590953
-0.231034
-0.0572849
-0.0481122
-0.249381
-0.456091
-0.21526
-0.0700907
-0.000572419
-0.0849686
-0.353986
-0.243658
-0.0825528
-0.292941
-0.425909
-0.572394
-0.733183
-0.799183
-0.0619648
-0.192552
-0.261124
-0.301418
-0.300242
0.0851349
-0.0174915
-0.0823128
-0.120896
-0.139838
0.180037
0.0865408
0.0130369
-0.0301084
-0.0568528
0.224799
0.13205
0.054383
0.0122016
-0.0127632
0.920616
0.785902
0.615117
0.421224
0.20037
0.542142
0.392432
0.205857
-0.00533671
-0.242879
0.161996
0.00678603
-0.188285
-0.411226
-0.619199
-0.158391
-0.319436
-0.514205
-0.724825
-0.883138
-0.380622
-0.535615
-0.713662
-0.898457
-1.00001
2.0779
2.11101
2.14377
2.16389
2.16632
1.90367
1.92602
1.94454
1.94743
1.92981
1.6878
1.68168
1.65475
1.6061
1.53276
1.4367
1.40613
1.34282
1.2497
1.1279
1.18251
1.09414
0.974846
0.831272
0.655013
1.80989
1.80246
1.79096
1.84724
1.95395
1.80103
1.79135
1.77557
1.82668
1.8773
1.79317
1.77702
1.75737
1.79308
1.78081
1.78658
1.76022
1.73661
1.74775
1.62947
1.78119
1.74243
1.71378
1.69947
1.46698
1.77758
1.71346
1.68312
1.60694
1.28841
1.778
1.68247
1.66597
1.49547
1.29775
1.78366
1.6682
1.65406
1.43735
1.26319
1.77815
1.64477
1.64988
1.39279
1.24036
1.81771
1.63588
1.65016
1.36811
1.24067
0.890892
0.623182
0.305824
0.0482368
-0.146585
0.837297
0.647627
0.426665
0.240583
0.0664693
0.852467
0.69278
0.522595
0.360509
0.210115
0.892296
0.743741
0.592406
0.439946
0.304661
0.919011
0.775281
0.632186
0.483333
0.352556
-1.94469
-1.75472
-1.54962
-1.37762
-1.27335
-2.02183
-1.93299
-1.76364
-1.61103
-1.50449
-1.93706
-1.87992
-1.75689
-1.63103
-1.52103
-1.76904
-1.7164
-1.64658
-1.56532
-1.48064
-1.59668
-1.56641
-1.52748
-1.48544
-1.44671
-1.50181
-1.49117
-1.44903
-1.48181
-1.4381
-1.47927
-1.46782
-1.44142
-1.47131
-1.43217
-1.47031
-1.46372
-1.46033
-1.4731
-1.48585
-1.4255
-1.42199
-1.42295
-1.43505
-1.46641
-1.35223
-1.33821
-1.32118
-1.30526
-1.30625
-1.24834
-1.06346
-0.498858
0.0215943
0.116276
-1.28998
-1.20375
-0.535444
-0.114133
0.117031
-1.33846
-1.38605
-0.53562
-0.201369
0.115097
-1.27685
-1.55487
-0.495273
-0.173918
0.0979948
-0.986937
-1.70394
-0.823796
-0.139093
0.0619681
-0.715925
-1.1267
-0.600409
0.104356
0.119135
-1.11958
-1.0938
-0.497934
0.117058
0.118289
-1.21422
-1.42629
-1.4251
-1.32916
-1.08154
-1.23615
-1.44652
-1.44198
-1.37386
-1.31483
1.641
1.60744
1.55392
1.48177
1.38715
1.84817
1.86422
1.86255
1.84122
1.80086
2.02759
2.05805
2.07877
2.08555
2.07721
2.13452
2.17372
2.2151
2.24849
2.26293
2.15264
2.19156
2.23519
2.27208
2.28944
-0.761595
-0.888492
-1.08732
-1.32259
-1.615
-0.0924013
-0.249966
-0.458659
-0.71083
-1.04489
0.522361
0.361078
0.166393
-0.0648639
-0.364357
1.0169
0.889277
0.734753
0.547128
0.314507
1.41013
1.32056
1.20352
1.06225
0.894006
1.86903
1.82882
1.81429
1.81284
1.81296
1.85425
1.82679
1.81477
1.83333
1.8877
1.84175
1.82336
1.81569
1.85551
1.97269
1.83019
1.81852
1.81116
1.86319
1.99002
1.81957
1.81187
1.80268
1.86062
1.99027
1.92359
1.83286
1.79919
1.73044
1.67786
1.87883
1.82458
1.79525
1.75435
1.68703
1.28196
1.02914
0.594317
-0.0355809
-0.721339
1.37404
1.06782
0.611803
-0.0138259
-0.714412
)
;

boundaryField
{
    left
    {
        type            zeroGradient;
    }
    right
    {
        type            fixedValue;
        value           uniform 0;
    }
    down
    {
        type            zeroGradient;
    }
    up
    {
        type            zeroGradient;
    }
    cylinder
    {
        type            zeroGradient;
    }
    defaultFaces
    {
        type            empty;
    }
}


// ************************************************************************* //
