/*--------------------------------*- C++ -*----------------------------------*\
  =========                 |
  \\      /  F ield         | OpenFOAM: The Open Source CFD Toolbox
   \\    /   O peration     | Website:  https://openfoam.org
    \\  /    A nd           | Version:  13
     \\/     M anipulation  |
\*---------------------------------------------------------------------------*/
FoamFile
{
    format      ascii;
    class       volScalarField;
    location    "57.8";
    object      p;
}
// * * * * * * * * * * * * * * * * * * * * * * * * * * * * * * * * * * * * * //

dimensions      [0 2 -2 0 0 0 0];

internalField   nonuniform List<scalar> 
440
(
-0.558574
-0.544457
-0.548986
-0.509253
-0.567063
-0.614895
-0.597787
-0.577676
-0.552823
-0.534657
-0.723319
-0.691832
-0.654972
-0.609171
-0.556889
-0.856023
-0.808973
-0.725993
-0.626659
-0.526476
-0.950539
-0.887529
-0.745272
-0.597319
-0.460954
-1.19442
-1.2223
-1.27663
-1.34297
-1.43609
-0.960061
-0.976013
-1.0126
-1.06956
-1.12624
-0.775829
-0.770173
-0.761561
-0.743007
-0.71387
-0.608715
-0.598917
-0.574885
-0.534809
-0.483326
-0.494273
-0.484521
-0.46019
-0.403127
-0.336264
-1.42761
-1.32361
-0.849853
0.411769
-0.00755114
-1.05738
-1.23459
-0.748534
0.328901
-0.00845751
-0.763481
-1.11585
-0.612243
0.164524
-0.0236095
-0.583494
-1.16142
-0.525147
0.0301372
-0.0563988
-0.434757
-1.23064
-0.46663
-0.0138803
-0.0563192
-0.196419
-1.13577
-0.361581
-0.0639268
-0.030721
-0.0486669
-0.788279
-0.213177
-0.081233
-0.055051
0.032052
-0.513527
-0.174819
-0.0359867
-0.0219064
0.0775269
-0.333365
-0.167396
-0.0592037
-0.0418603
0.173812
-0.234997
-0.202998
-0.0535861
-0.0273064
-0.224431
-0.339908
-0.458151
-0.59647
-0.663611
0.0107052
-0.101897
-0.162708
-0.202129
-0.193557
0.16521
0.0766872
0.0181268
-0.014857
-0.0352678
0.263403
0.179816
0.114055
0.0796369
0.0533585
0.309103
0.223411
0.159912
0.131104
0.121287
1.01074
0.864402
0.680512
0.477863
0.257323
0.621293
0.465909
0.276692
0.0633649
-0.171994
0.233457
0.0756952
-0.120335
-0.341558
-0.554867
-0.0958595
-0.256971
-0.45328
-0.664746
-0.829009
-0.323268
-0.480425
-0.660618
-0.84841
-0.954594
2.1018
2.13345
2.16322
2.17969
2.17871
1.9211
1.94299
1.96017
1.9608
1.94045
1.70703
1.69624
1.66365
1.60951
1.53079
1.46469
1.43194
1.36481
1.26803
1.14454
1.23748
1.13898
1.01048
0.862434
0.684849
1.85814
1.85307
1.82819
1.90225
1.98131
1.84946
1.84286
1.8111
1.88584
1.90035
1.84189
1.82958
1.79104
1.85784
1.79479
1.8356
1.81375
1.76962
1.81387
1.63583
1.83059
1.7973
1.74753
1.77004
1.4664
1.82725
1.77227
1.71927
1.66559
1.26955
1.82793
1.74405
1.71765
1.55427
1.36023
1.83276
1.73058
1.71782
1.49075
1.39262
1.83339
1.70416
1.71482
1.42925
1.40051
1.86909
1.70032
1.71401
1.39312
1.4278
0.991473
0.710244
0.385586
0.11055
-0.0823874
0.904907
0.710094
0.49392
0.302564
0.13673
0.897336
0.730903
0.570529
0.417973
0.283127
0.939437
0.781331
0.635895
0.498396
0.376472
0.985751
0.82741
0.682209
0.545779
0.422001
-1.74968
-1.57217
-1.37321
-1.20669
-1.10418
-1.85808
-1.7653
-1.59365
-1.43686
-1.32479
-1.8048
-1.74342
-1.61339
-1.47791
-1.35527
-1.66739
-1.61773
-1.53972
-1.43908
-1.32724
-1.51822
-1.49557
-1.45414
-1.38748
-1.28871
-1.42589
-1.42052
-1.39681
-1.39793
-1.28741
-1.36232
-1.36693
-1.35527
-1.37796
-1.29421
-1.27426
-1.26928
-1.26189
-1.26094
-1.23165
-1.22814
-1.21189
-1.19178
-1.17951
-1.16965
-1.24717
-1.24747
-1.25526
-1.2751
-1.30734
-0.791579
-0.896137
0.183701
0.374085
0.0468415
-0.858223
-0.91404
0.13052
0.43534
0.0442258
-1.0233
-1.11493
-0.346137
0.475257
0.0250416
-1.36496
-1.529
-0.762202
0.481681
0.0141594
-1.60577
-1.57629
-0.843504
0.459605
0.00468756
-0.480924
-1.0572
0.0982367
0.28891
0.0556662
-0.723157
-0.923284
0.167201
0.337235
0.059863
-1.04459
-1.2413
-1.24848
-1.13143
-0.90081
-1.06649
-1.26246
-1.26685
-1.17845
-1.06677
1.67264
1.64497
1.59904
1.53565
1.45156
1.88141
1.89906
1.90091
1.88487
1.85123
2.05863
2.0901
2.11412
2.12555
2.12218
2.16497
2.20385
2.24475
2.27752
2.29189
2.17753
2.21478
2.25616
2.29057
2.30645
-0.619846
-0.739204
-0.924978
-1.14604
-1.41102
0.0157401
-0.129941
-0.324053
-0.558888
-0.859864
0.600413
0.449924
0.26897
0.0551441
-0.21473
1.07021
0.952663
0.81032
0.63763
0.426767
1.44707
1.36424
1.25685
1.12826
0.976046
1.91618
1.87674
1.8551
1.85419
1.84642
1.90152
1.87498
1.85611
1.87561
1.92074
1.88924
1.87203
1.85635
1.89969
2.00448
1.87795
1.86769
1.85121
1.91034
2.02166
1.86756
1.86181
1.84148
1.9114
2.02007
1.97115
1.88114
1.84002
1.77311
1.7023
1.92605
1.87244
1.83596
1.79649
1.71993
1.32522
1.08091
0.664925
0.066324
-0.581232
1.41103
1.11624
0.682582
0.0873696
-0.574948
)
;

boundaryField
{
    left
    {
        type            zeroGradient;
    }
    right
    {
        type            fixedValue;
        value           uniform 0;
    }
    down
    {
        type            zeroGradient;
    }
    up
    {
        type            zeroGradient;
    }
    cylinder
    {
        type            zeroGradient;
    }
    defaultFaces
    {
        type            empty;
    }
}


// ************************************************************************* //
