/*--------------------------------*- C++ -*----------------------------------*\
  =========                 |
  \\      /  F ield         | OpenFOAM: The Open Source CFD Toolbox
   \\    /   O peration     | Website:  https://openfoam.org
    \\  /    A nd           | Version:  13
     \\/     M anipulation  |
\*---------------------------------------------------------------------------*/
FoamFile
{
    format      ascii;
    class       surfaceScalarField;
    location    "38.9";
    object      phi;
}
// * * * * * * * * * * * * * * * * * * * * * * * * * * * * * * * * * * * * * //

dimensions      [0 3 -1 0 0 0 0];

internalField   nonuniform List<scalar> 
823
(
-0.00480534
0.0177046
-0.0128992
0.0133487
0.00568143
-0.0238354
0.0792461
-0.0468978
-0.0189996
0.183292
-0.115491
0.0114445
-0.158011
0.00681956
0.334484
0.00701599
0.0106886
0.0623975
-0.0497001
0.1658
-0.150301
0.28592
-0.23561
-0.309976
0.437885
0.0269167
-0.0162282
0.121438
-0.144222
0.235991
-0.264853
0.340564
-0.340184
-0.37959
0.410178
0.0494923
-0.0657204
0.147929
-0.242659
0.226638
-0.343562
0.269785
-0.383331
-0.393379
0.283574
0.0603623
-0.126083
0.127686
-0.309982
0.163074
-0.378951
0.176029
-0.396286
0.184881
-0.402231
-0.0173357
0.0861642
-0.0688285
-0.0653093
0.148707
-0.100734
-0.114878
0.151477
-0.101909
-0.154998
0.138826
-0.0987055
0.12355
-0.179229
-0.0993191
0.0361643
0.0499999
0.0650442
0.119827
0.0720994
0.144422
0.0693367
0.141588
0.123988
0.068899
0.0323345
0.0176654
0.0859244
0.0662373
0.132014
0.0983323
0.164835
0.108768
0.107401
0.181421
0.0113707
0.00629475
0.0464544
0.0311535
0.092651
0.0521358
0.145161
0.0562579
0.0651391
0.187423
-0.0066045
0.000713587
0.0338497
0.101552
0.173511
0.24706
0.549553
-0.975842
0.582184
-1.59259
1.25747
0.546112
-1.06152
1.09759
0.509388
0.574973
-0.538249
0.247733
-0.194678
0.359249
0.259202
0.580011
-1.81335
0.596183
-1.07769
0.527923
0.643233
0.29389
0.269065
0.171558
0.399515
-1.9438
0.516085
-1.19426
0.510239
0.649079
0.317768
0.373245
-0.0142631
0.370674
-1.94123
0.421189
-1.24478
0.461034
0.609234
0.285735
0.499587
-0.340339
0.416764
-1.85841
0.338235
-1.16625
0.397783
0.549687
0.161645
1.49912
-0.591927
-1.24753
1.20294
-1.56223
0.702304
-0.665612
0.714896
0.537095
-0.0355651
1.46022
-0.64087
-1.41128
0.950499
-1.05251
0.518419
-0.233532
0.787328
0.268186
-0.213689
1.29394
-0.575197
-1.35961
0.832611
-0.591185
0.611879
-0.0127994
0.926287
-0.0462222
-0.257804
1.09293
-0.353623
-1.31451
0.695907
-0.194159
0.688336
-0.00522792
0.794796
-0.152683
-0.12874
0.500526
-0.854149
0.306367
0.301139
0.148457
1.10964
0.14724
-1.072
1.18588
0.207333
1.29816
0.297893
1.34823
0.38782
0.435184
1.00574
0.0928968
-0.951399
1.08169
0.131384
1.17487
0.204712
1.2963
0.266393
0.320207
0.968371
0.0459368
-0.921411
1.02627
0.0734893
1.11106
0.119917
1.22595
0.151501
0.186551
0.945342
0.00784856
-0.907254
0.998556
0.0202755
1.0815
0.0369748
1.18597
0.0470334
0.0580084
0.691857
-0.684008
0.712132
0.749107
0.796141
0.140399
0.302027
-0.247459
-0.194968
0.0942412
0.307747
-0.261589
0.0532224
0.318579
-0.27756
0.0185329
0.309643
-0.274953
0.198852
-0.180319
0.100196
0.337926
-0.136095
0.064218
0.343725
0.03243
0.350367
0.00756746
0.334505
0.20642
0.0709392
0.374534
-0.107547
0.038319
0.376345
0.0104782
0.378208
-0.00519967
0.350183
0.20122
-0.0089058
0.389754
-0.0063142
-0.0258139
0.393253
-0.034203
0.386597
-0.0266318
0.342612
0.174588
-0.085749
0.0732722
-0.0887816
-0.0811353
-0.0485054
0.198776
0.108578
-0.252489
-0.0548652
0.14453
0.112716
-0.0584705
0.0893144
0.117282
-0.0620656
0.036185
0.116562
-0.0634321
0.0817047
-0.0455198
0.193674
0.151663
-0.236759
0.147284
0.159105
0.0955581
0.169008
0.0406066
0.171513
0.122311
0.13674
0.196326
-0.181403
0.0960113
0.199834
0.0569856
0.208034
0.0205085
0.20799
0.14282
0.152765
0.22837
-0.184809
0.114151
0.238448
0.0705328
0.251652
0.027624
0.250899
0.170444
0.0829791
-0.102067
0.0598379
0.0339297
0.00987541
0.408252
0.0441335
-0.0564056
0.425977
0.046289
-0.0640145
0.408412
0.209237
-0.191672
0.397228
0.211815
-0.20063
0.497263
-0.352524
0.40648
0.0336334
0.418503
0.0342661
0.3982
0.22954
0.385344
0.224671
0.645848
0.400098
0.0295153
0.411651
0.0227125
0.374548
0.266643
0.372462
0.226757
0.836907
0.396831
0.0286634
0.392958
0.0265863
0.364635
0.294966
0.354849
0.236542
1.00695
0.387147
0.0374962
0.378878
0.0348551
0.336895
0.33695
0.323799
0.249638
1.22868
0.620133
0.0213832
0.631558
0.0234303
0.688168
0.28034
0.794347
0.143458
1.03518
0.987844
0.629264
-0.00386056
0.615896
0.0367986
0.734767
0.161469
0.80908
0.0691457
0.80987
1.03439
0.626634
-0.0264745
0.645319
0.0181138
0.768185
0.0386029
0.799109
0.0382222
0.587637
1.02134
0.626301
-0.0487556
0.675441
-0.0310262
0.7324
-0.0183559
0.740827
0.029796
0.301674
1.02679
0.555265
0.524239
0.505883
0.535679
0.837353
1.02965
-0.23677
1.0189
-0.12535
1.02998
-0.11863
1.02323
0.000438994
0.0245074
0.977246
-0.179624
0.95227
-0.100374
0.92579
-0.0921503
0.93395
-0.00772116
0.00705854
0.949917
-0.108199
0.926179
-0.0766356
0.898424
-0.0643955
0.911779
-0.0210753
-0.00257418
0.964734
-0.0461441
0.928339
-0.0402406
0.899207
-0.0352629
0.899151
-0.0210196
-0.0106771
0.791209
0.750968
0.715705
0.694686
0.0463319
0.151091
-0.197423
0.069722
0.323692
-0.347082
0.07015
0.376034
-0.376462
0.0609855
0.377389
-0.368225
0.345419
0.0488551
-0.333289
0.0682162
0.0828751
0.136456
0.255451
0.168925
0.343565
0.173275
0.373039
0.362002
0.156692
0.0585038
0.0243713
0.166071
0.147884
0.253487
0.256149
0.310226
0.3163
0.359781
0.312447
0.0285339
-0.00416258
0.125376
0.0510419
0.242158
0.139367
0.353904
0.204554
0.276629
0.437056
0.00741211
-0.0115747
0.0595127
-0.00105868
0.155006
0.0438745
0.268204
0.0913558
0.147145
0.397688
0.00121483
-0.0127895
0.0144629
-0.0143068
0.0558001
0.00253736
0.120857
0.0262984
0.0682531
0.19975
0.00292872
-0.0157182
0.00904579
-0.0204238
0.0214915
-0.00990838
0.0409549
0.00683509
0.0349506
0.0742573
0.0288965
-0.0446147
0.0532414
-0.0447687
0.0587546
-0.0154216
0.0584986
0.00709111
0.0264954
0.0669539
-0.0203553
-0.0242594
-0.0568712
-0.00825286
-0.0938118
0.021519
-0.125677
0.0389564
0.0507508
-0.149932
-0.0930879
-0.202074
-0.282464
-0.342214
-0.390782
0.165976
1.13293
-1.09915
0.321826
-0.132039
-0.0238106
0.337589
0.104936
-0.1207
0.212787
0.236266
-0.111464
-0.11053
0.139194
0.0979964
1.10919
0.264898
-0.298941
0.436495
-0.0666613
0.324979
0.347783
-0.0526288
-0.0571545
1.2333
0.145922
-0.502017
0.536501
-0.45724
0.427536
0.456748
0.0289633
-0.220594
1.30396
0.135644
-0.858255
0.577323
-0.89892
0.500611
0.533461
0.117432
-0.0626646
0.336546
0.535217
0.530428
-0.0900699
0.631871
-0.541801
-0.0421257
-0.0479442
0.0056168
-0.0477425
0.0527252
-0.0471084
-0.100162
0.571573
-1.03886
0.499818
0.331376
0.172803
0.0844536
-0.0127045
-0.0717491
0.135299
-0.0508451
0.232196
-0.0968974
0.371893
-0.139697
-0.169908
0.192321
-0.156171
0.298168
0.513718
0.811076
0.139169
-0.135982
0.165949
-0.169137
0.105707
-0.141495
0.174957
0.0677013
-0.14881
0.186817
0.0273122
-0.148936
0.189325
-0.104954
0.132266
0.178772
-0.0967432
-0.21801
0.135115
-0.0978386
0.0860804
-0.0997757
0.0356152
-0.098471
-0.0693385
0.18916
-0.0477676
-0.238135
0.138628
-0.0473069
0.0864485
-0.0475963
0.0352055
-0.0472281
-0.034133
0.201616
0.00379856
-0.253182
0.149292
0.00501753
0.0953404
0.00635496
0.0402678
0.0078445
0.00613481
0.204136
-0.255203
0.150683
0.0949726
0.0393849
0.039974
-0.31366
-0.0596028
0.0155626
-0.343813
-0.00616663
-0.354732
-0.0150726
-0.338176
-0.212496
0.119535
-0.283195
-0.15
0.0781658
-0.302444
0.0378516
-0.314418
0.00761061
-0.307935
-0.204885
0.137935
-0.244433
-0.176697
0.0969636
-0.261473
0.056542
-0.273996
0.0199735
-0.271366
-0.184912
0.155318
-0.210162
-0.189589
0.113694
-0.219849
0.06915
-0.229452
0.0270562
-0.229272
-0.157855
0.153064
-0.197277
0.108172
0.0655366
0.0255894
0.392212
0.0970218
-0.0932541
0.389772
0.106881
-0.104441
0.355596
0.16337
-0.129194
0.296868
0.0683384
-0.00961016
-0.189752
0.317483
0.400043
0.0929589
0.405236
0.101687
0.394473
0.174134
0.346382
0.116429
-0.0613797
0.405078
0.0838607
0.415316
0.0914488
0.409525
0.179925
0.372051
0.153903
0.0725364
0.408956
0.0708844
0.421772
0.0786324
0.417683
0.184014
0.391141
0.180445
0.210495
0.410458
0.425076
0.417418
0.397232
0.415561
0.0944896
0.327743
0.0878187
0.237814
0.0899286
0.239295
-0.00148087
-0.175116
0.414411
0.511286
0.494664
0.455398
0.444307
0.586674
0.333408
0.0810031
0.260229
0.0731794
0.173697
0.0865319
0.101012
0.0726843
0.0292633
0.470401
0.353991
0.263826
0.18651
)
;

boundaryField
{
    left
    {
        type            calculated;
        value           nonuniform List<scalar> 
17
(
-0.60402
-0.60402
-0.60402
-0.60402
-0.60402
-0.39598
-0.39598
-0.39598
-0.39598
-0.39598
-0.39598
-0.39598
-0.39598
-0.39598
-0.39598
-0.510051
-0.510051
)
;
    }
    right
    {
        type            calculated;
        value           nonuniform List<scalar> 
17
(
0.152887
0.211835
0.184123
0.267077
0.345944
0.412142
0.453181
0.456334
0.481765
0.486361
0.493067
0.521874
0.912106
0.965452
0.970402
0.665732
0.0197166
)
;
    }
    down
    {
        type            calculated;
        value           uniform 0;
    }
    up
    {
        type            calculated;
        value           uniform 0;
    }
    cylinder
    {
        type            calculated;
        value           uniform 0;
    }
    defaultFaces
    {
        type            empty;
    }
}


// ************************************************************************* //
