/*--------------------------------*- C++ -*----------------------------------*\
  =========                 |
  \\      /  F ield         | OpenFOAM: The Open Source CFD Toolbox
   \\    /   O peration     | Website:  https://openfoam.org
    \\  /    A nd           | Version:  13
     \\/     M anipulation  |
\*---------------------------------------------------------------------------*/
FoamFile
{
    format      ascii;
    class       volScalarField;
    location    "1002";
    object      Ccx;
}
// * * * * * * * * * * * * * * * * * * * * * * * * * * * * * * * * * * * * * //

dimensions      [0 1 0 0 0 0 0];

internalField   nonuniform List<scalar> 
440
(
0.673676
0.725448
0.777223
0.829
0.88078
0.54199
0.583642
0.625297
0.666953
0.708611
0.396959
0.427466
0.457974
0.488483
0.518994
0.242154
0.260763
0.279374
0.297986
0.316598
0.081386
0.0876405
0.0938954
0.100151
0.106406
1.03411
1.11358
1.19305
1.27253
1.35202
1.00864
1.08616
1.16368
1.2412
1.31873
0.958345
1.03199
1.10565
1.1793
1.25296
0.884448
0.952418
1.02039
1.08837
1.15635
0.788773
0.84939
0.910011
0.970635
1.03126
1.75107
2.47278
3.19448
3.91618
4.63788
1.72048
2.44906
3.17763
3.90621
4.63478
1.66011
2.40225
3.14439
3.88653
4.62867
1.57154
2.33359
3.09564
3.85769
4.61973
1.45714
2.24491
3.03268
3.82044
4.60821
1.39095
2.19296
2.99497
3.79698
4.59899
1.39095
2.19296
2.99497
3.79698
4.59899
1.39095
2.19296
2.99497
3.79698
4.59899
1.39095
2.19296
2.99497
3.79698
4.59899
1.39095
2.19296
2.99497
3.79698
4.59899
0.108713
0.323684
0.531353
0.727074
0.906517
0.106611
0.317917
0.523524
0.719813
0.90342
0.10451
0.31215
0.515695
0.712552
0.900323
0.102408
0.306383
0.507866
0.705292
0.897226
0.100306
0.300616
0.500036
0.698032
0.89413
-0.88078
-0.829
-0.777223
-0.725448
-0.673676
-0.708611
-0.666953
-0.625297
-0.583642
-0.54199
-0.518994
-0.488483
-0.457974
-0.427466
-0.396959
-0.316598
-0.297986
-0.279374
-0.260763
-0.242154
-0.106406
-0.100151
-0.0938954
-0.0876405
-0.081386
-1.35202
-1.27253
-1.19305
-1.11358
-1.03411
-1.31873
-1.2412
-1.16368
-1.08616
-1.00864
-1.25296
-1.1793
-1.10565
-1.03199
-0.958344
-1.15635
-1.08837
-1.02039
-0.952417
-0.884448
-1.03126
-0.970635
-0.910011
-0.84939
-0.788773
-4.63788
-3.91618
-3.19448
-2.47278
-1.75107
-4.63478
-3.90621
-3.17763
-2.44906
-1.72048
-4.62867
-3.88653
-3.14439
-2.40225
-1.66011
-4.61973
-3.85769
-3.09564
-2.33359
-1.57154
-4.60821
-3.82044
-3.03268
-2.24491
-1.45714
-4.59899
-3.79698
-2.99497
-2.19296
-1.39095
-4.59899
-3.79698
-2.99497
-2.19296
-1.39095
-4.59899
-3.79698
-2.99497
-2.19296
-1.39095
-4.59899
-3.79698
-2.99497
-2.19296
-1.39095
-4.59899
-3.79698
-2.99497
-2.19296
-1.39095
-0.906517
-0.727074
-0.531353
-0.323684
-0.108713
-0.90342
-0.719813
-0.523524
-0.317917
-0.106611
-0.900323
-0.712552
-0.515695
-0.31215
-0.10451
-0.897226
-0.705292
-0.507866
-0.306383
-0.102408
-0.89413
-0.698032
-0.500036
-0.300616
-0.100306
0.081386
0.0876405
0.0938954
0.100151
0.106406
0.242154
0.260763
0.279374
0.297986
0.316598
0.396959
0.427466
0.457974
0.488483
0.518994
0.54199
0.583642
0.625297
0.666953
0.708611
0.673676
0.725448
0.777223
0.829
0.88078
0.788773
0.84939
0.910011
0.970635
1.03126
0.884448
0.952417
1.02039
1.08837
1.15635
0.958344
1.03199
1.10565
1.1793
1.25296
1.00864
1.08616
1.16368
1.2412
1.31873
1.03411
1.11358
1.19305
1.27253
1.35202
1.45714
2.24491
3.03268
3.82044
4.60821
1.57154
2.33359
3.09564
3.85769
4.61973
1.66011
2.40225
3.14439
3.88653
4.62867
1.72048
2.44906
3.17763
3.90621
4.63478
1.75107
2.47278
3.19448
3.91618
4.63788
1.39095
2.19296
2.99497
3.79698
4.59899
1.39095
2.19296
2.99497
3.79698
4.59899
0.104267
0.310207
0.511432
0.708155
0.900162
0.10953
0.324773
0.53127
0.726523
0.907973
-1.03126
-0.970635
-0.910011
-0.84939
-0.788773
-1.15635
-1.08837
-1.02039
-0.952417
-0.884448
-1.25296
-1.1793
-1.10565
-1.03199
-0.958344
-1.31873
-1.2412
-1.16368
-1.08616
-1.00864
-1.35202
-1.27253
-1.19305
-1.11358
-1.03411
-0.106406
-0.100151
-0.0938954
-0.0876405
-0.081386
-0.316598
-0.297986
-0.279374
-0.260763
-0.242154
-0.518994
-0.488483
-0.457974
-0.427466
-0.396959
-0.708611
-0.666953
-0.625297
-0.583642
-0.54199
-0.88078
-0.829
-0.777223
-0.725448
-0.673676
-4.60821
-3.82044
-3.03268
-2.24491
-1.45714
-4.61973
-3.85769
-3.09564
-2.33359
-1.57154
-4.62867
-3.88653
-3.14439
-2.40225
-1.66011
-4.63478
-3.90621
-3.17763
-2.44906
-1.72048
-4.63788
-3.91618
-3.19448
-2.47278
-1.75107
-4.59899
-3.79698
-2.99497
-2.19296
-1.39095
-4.59899
-3.79698
-2.99497
-2.19296
-1.39095
-0.900162
-0.708155
-0.511432
-0.310207
-0.104267
-0.907973
-0.726523
-0.53127
-0.324773
-0.10953
)
;

boundaryField
{
    left
    {
        type            calculated;
        value           nonuniform List<scalar> 
17
(
-5
-5
-5
-5
-5
-5
-5
-5
-5
-5
-5
-5
-5
-5
-5
-5
-5
)
;
    }
    right
    {
        type            calculated;
        value           nonuniform List<scalar> 
17
(
5
5
5
5
5
5
5
5
5
5
5
5
5
5
5
5
5
)
;
    }
    down
    {
        type            calculated;
        value           nonuniform List<scalar> 
20
(
-4.59899
-3.79698
-2.99497
-2.19296
-1.39095
-0.890954
-0.692964
-0.494974
-0.296985
-0.0989949
0.0989949
0.296985
0.494974
0.692964
0.890954
1.39095
2.19296
2.99497
3.79698
4.59899
)
;
    }
    up
    {
        type            calculated;
        value           nonuniform List<scalar> 
20
(
1.39095
2.19296
2.99497
3.79698
4.59899
0.0989949
0.296985
0.494974
0.692964
0.890954
-0.890954
-0.692964
-0.494974
-0.296985
-0.0989949
-4.59899
-3.79698
-2.99497
-2.19296
-1.39095
)
;
    }
    cylinder
    {
        type            calculated;
        value           nonuniform List<scalar> 
40
(
0.993844
0.969373
0.921032
0.850012
0.758062
0.647446
0.520888
0.381504
0.232726
0.0782172
-0.647446
-0.520888
-0.381504
-0.232726
-0.0782172
-0.993844
-0.969372
-0.921031
-0.850011
-0.758062
-0.758062
-0.850011
-0.921031
-0.969372
-0.993844
-0.0782172
-0.232726
-0.381504
-0.520888
-0.647446
0.0782172
0.232726
0.381504
0.520888
0.647446
0.758062
0.850011
0.921031
0.969372
0.993844
)
;
    }
    defaultFaces
    {
        type            empty;
    }
}


// ************************************************************************* //
