# Selection   : all
# Cells       : 440
# Volume      : 7.374263e+01
# Time        	max(p)
3.5           	1.815110e+00
3.55          	1.816093e+00
3.6           	1.818544e+00
