# Selection   : all
# Cells       : 440
# Volume      : 7.374263e+01
# Time        	maxMag(U)
8.815         	2.774652e+00
8.86          	2.773695e+00
8.91          	2.772269e+00
