# Selection   : all
# Cells       : 440
# Volume      : 7.374263e+01
# Time        	maxMag(U)
1.6           	2.658112e+00
1.65          	2.654407e+00
1.7           	2.650351e+00
