/*--------------------------------*- C++ -*----------------------------------*\
  =========                 |
  \\      /  F ield         | OpenFOAM: The Open Source CFD Toolbox
   \\    /   O peration     | Website:  https://openfoam.org
    \\  /    A nd           | Version:  13
     \\/     M anipulation  |
\*---------------------------------------------------------------------------*/
FoamFile
{
    format      ascii;
    class       volScalarField;
    location    "29.5";
    object      p;
}
// * * * * * * * * * * * * * * * * * * * * * * * * * * * * * * * * * * * * * //

dimensions      [0 2 -2 0 0 0 0];

internalField   nonuniform List<scalar> 
440
(
-0.747538
-0.753061
-0.830022
-0.776698
-0.849605
-0.707774
-0.709648
-0.724182
-0.732692
-0.736694
-0.800657
-0.771122
-0.747049
-0.718443
-0.682451
-0.915131
-0.869842
-0.797634
-0.71087
-0.620194
-1.00431
-0.942402
-0.806779
-0.664012
-0.532058
-1.32999
-1.30849
-1.28387
-1.27225
-1.28223
-1.25182
-1.21558
-1.16927
-1.12931
-1.10114
-1.17142
-1.16969
-1.18036
-1.19608
-1.21079
-0.985274
-1.04045
-1.13964
-1.22732
-1.24671
-0.28212
-0.45297
-0.647697
-0.728332
-0.705394
-1.1743
-1.73909
-0.677749
-0.657391
0.0549407
-0.618496
-1.63652
-1.14642
-0.562379
0.0204319
-0.414595
-1.49588
-1.35501
-0.506327
-0.00546958
-0.249058
-1.29168
-1.48605
-0.479229
-0.0233374
-0.175256
-0.939579
-1.51145
-0.463298
-0.0381078
0.181674
-0.539651
-1.41922
-0.426701
-0.0593062
-0.127412
-0.389714
-1.0223
-0.367835
-0.0856934
-0.033016
-0.124525
-0.628799
-0.312937
-0.104426
-0.0729223
-0.05347
-0.446166
-0.292099
-0.109869
0.0119962
0.0730882
-0.248255
-0.282529
-0.124861
-0.302422
-0.441945
-0.59861
-0.767347
-0.86804
-0.0652269
-0.194605
-0.269604
-0.30805
-0.317125
0.0877678
-0.0151014
-0.0823379
-0.117545
-0.132735
0.18523
0.088815
0.0156743
-0.031691
-0.0628487
0.229985
0.134921
0.0586911
0.0146834
-0.00510418
0.940408
0.807313
0.638526
0.445157
0.222861
0.554748
0.405413
0.218974
0.00747356
-0.23289
0.170398
0.014897
-0.181539
-0.405682
-0.616333
-0.156906
-0.318117
-0.513684
-0.725172
-0.884853
-0.384251
-0.540308
-0.71915
-0.90482
-1.00654
2.12232
2.15554
2.18869
2.2093
2.21205
1.94636
1.9686
1.98728
1.99045
1.97292
1.7281
1.72171
1.69473
1.64609
1.57249
1.47465
1.44336
1.37937
1.28545
1.16257
1.21623
1.12796
1.00826
0.863525
0.685916
1.85072
1.84183
1.83377
1.8851
1.99897
1.84154
1.83057
1.81807
1.86176
1.92129
1.83332
1.81586
1.79964
1.82525
1.82589
1.82634
1.79862
1.77844
1.77817
1.67658
1.82047
1.78069
1.75504
1.72591
1.51447
1.8163
1.75045
1.72304
1.63398
1.33664
1.81592
1.71699
1.70071
1.53235
1.3394
1.82378
1.70173
1.68326
1.47306
1.28408
1.81573
1.67977
1.67616
1.43334
1.24231
1.85596
1.67075
1.67649
1.41157
1.22989
0.909138
0.635063
0.313612
0.0495446
-0.148421
0.851582
0.654972
0.433287
0.245008
0.0694893
0.864856
0.705055
0.534507
0.371129
0.216473
0.906402
0.761905
0.609363
0.452747
0.311744
0.929389
0.791216
0.647099
0.493468
0.359242
-1.80973
-1.62767
-1.42996
-1.26435
-1.16507
-1.87381
-1.79275
-1.63353
-1.49331
-1.39796
-1.78218
-1.72787
-1.61812
-1.50824
-1.41609
-1.61097
-1.56023
-1.49691
-1.42807
-1.36014
-1.44136
-1.41319
-1.37446
-1.33938
-1.32203
-1.34976
-1.33932
-1.29378
-1.32107
-1.28436
-1.33095
-1.31861
-1.28927
-1.30403
-1.2767
-1.34167
-1.32606
-1.30268
-1.2834
-1.27237
-1.37738
-1.3663
-1.35328
-1.34576
-1.35996
-1.37769
-1.36871
-1.36106
-1.36669
-1.39497
-1.17582
-0.883814
-0.651929
-0.289635
0.142293
-1.20954
-0.975397
-0.746765
-0.458772
0.154631
-1.14717
-1.15932
-0.881392
-0.643391
0.149016
-1.20385
-1.45394
-0.815638
-0.726958
0.12322
-1.36778
-1.69742
-0.642805
-0.733997
0.0882931
-0.584409
-0.986468
-0.720815
-0.211208
0.124053
-1.02173
-0.951582
-0.645124
-0.195343
0.128673
-1.10902
-1.33591
-1.32769
-1.25224
-0.989355
-1.13065
-1.34858
-1.34926
-1.2824
-1.23732
1.70784
1.67458
1.62143
1.54973
1.45582
1.90861
1.92486
1.92327
1.9021
1.8621
2.08244
2.11292
2.13339
2.13987
2.13132
2.18455
2.22383
2.26537
2.2991
2.31387
2.19969
2.23876
2.28244
2.31936
2.33673
-0.659368
-0.783561
-0.978072
-1.20949
-1.49526
0.00407613
-0.151698
-0.358423
-0.608252
-0.938952
0.610378
0.449789
0.256529
0.0273145
-0.269744
1.09713
0.970825
0.817659
0.631336
0.400513
1.48386
1.39479
1.27819
1.13752
0.97038
1.91136
1.87039
1.85996
1.86205
1.86947
1.89636
1.86795
1.85961
1.88084
1.94046
1.88359
1.86407
1.85993
1.90093
2.02286
1.8717
1.85879
1.8548
1.90636
2.03765
1.86073
1.85168
1.84583
1.90131
2.03641
1.9662
1.87495
1.84604
1.78157
1.74028
1.92133
1.86651
1.84169
1.80485
1.74685
1.35679
1.11041
0.682828
0.0601827
-0.620548
1.44838
1.14818
0.699804
0.0816382
-0.613051
)
;

boundaryField
{
    left
    {
        type            zeroGradient;
    }
    right
    {
        type            fixedValue;
        value           uniform 0;
    }
    down
    {
        type            zeroGradient;
    }
    up
    {
        type            zeroGradient;
    }
    cylinder
    {
        type            zeroGradient;
    }
    defaultFaces
    {
        type            empty;
    }
}


// ************************************************************************* //
