/*--------------------------------*- C++ -*----------------------------------*\
  =========                 |
  \\      /  F ield         | OpenFOAM: The Open Source CFD Toolbox
   \\    /   O peration     | Website:  https://openfoam.org
    \\  /    A nd           | Version:  13
     \\/     M anipulation  |
\*---------------------------------------------------------------------------*/
FoamFile
{
    format      ascii;
    class       volScalarField;
    location    "0.035";
    object      p;
}
// * * * * * * * * * * * * * * * * * * * * * * * * * * * * * * * * * * * * * //

dimensions      [0 2 -2 0 0 0 0];

internalField   nonuniform List<scalar> 
1800
(
-0.800986
-0.65286
-0.531954
-0.426777
-0.336637
-0.258943
-0.191477
-0.132385
-0.0798833
-0.0349175
-0.930694
-0.76351
-0.6296
-0.51223
-0.410817
-0.322878
-0.246132
-0.178764
-0.119571
-0.0698832
-1.04698
-0.861882
-0.716038
-0.587263
-0.475435
-0.378193
-0.293182
-0.218517
-0.15294
-0.0971389
-1.14487
-0.943335
-0.787109
-0.64788
-0.526561
-0.42089
-0.328415
-0.247144
-0.175738
-0.114501
-1.21943
-1.00309
-0.838527
-0.689967
-0.560227
-0.447106
-0.348033
-0.260906
-0.184291
-0.118088
-1.26597
-1.03645
-0.86609
-0.709466
-0.572521
-0.453055
-0.34836
-0.256228
-0.175131
-0.104593
-1.28045
-1.03926
-0.86599
-0.702665
-0.559888
-0.435344
-0.326153
-0.230013
-0.145304
-0.0712202
-1.25989
-1.00815
-0.834954
-0.666247
-0.519227
-0.391059
-0.278664
-0.179657
-0.0923363
-0.0156136
-1.20263
-0.940535
-0.770669
-0.597279
-0.448041
-0.317971
-0.203854
-0.103264
-0.0144442
0.0639137
-1.10824
-0.833436
-0.673332
-0.493159
-0.34478
-0.214959
-0.100771
4.68043e-05
0.0892407
0.168209
0.237728
0.259519
0.284359
0.30253
0.315124
0.323946
0.330091
0.334236
0.336893
0.338344
0.215965
0.240613
0.268896
0.290083
0.305306
0.316428
0.32458
0.330469
0.334631
0.337437
0.168129
0.197559
0.231198
0.257054
0.276328
0.290984
0.302211
0.310767
0.317227
0.322117
0.0958897
0.132363
0.173098
0.205134
0.229763
0.249081
0.264356
0.276412
0.285881
0.293497
0.00163271
0.0477188
0.0970602
0.136618
0.167771
0.192758
0.212942
0.229232
0.242323
0.253211
-0.111412
-0.0530181
0.00618688
0.0544369
0.0931452
0.124687
0.150533
0.171685
0.188915
0.203526
-0.239162
-0.165912
-0.0958128
-0.0378475
0.00934539
0.0482412
0.0804182
0.106975
0.128756
0.147432
-0.376892
-0.286625
-0.20476
-0.136135
-0.0795477
-0.032478
0.00673878
0.0392703
0.0659952
0.0889855
-0.519624
-0.410741
-0.316349
-0.236168
-0.169224
-0.11301
-0.0657953
-0.0263942
0.00604134
0.0340146
-0.662509
-0.534086
-0.426573
-0.334076
-0.255841
-0.189374
-0.13285
-0.0850517
-0.0449923
-0.0100365
0.305427
0.203623
0.18453
0.162365
0.138747
0.114596
0.0898709
0.0646328
0.0389391
0.0129868
0.3126
0.217334
0.194016
0.169157
0.143592
0.118002
0.0922064
0.0661414
0.0397797
0.0132478
0.31226
0.23234
0.204201
0.176459
0.148862
0.121752
0.0948069
0.0678385
0.0407327
0.0135454
0.304516
0.24768
0.21497
0.184229
0.154532
0.125832
0.0976638
0.0697188
0.0417957
0.0138794
0.289671
0.261997
0.226107
0.192399
0.160568
0.130221
0.100765
0.0717751
0.042965
0.014249
0.268358
0.273707
0.237246
0.200867
0.166924
0.134896
0.104097
0.0739987
0.0442364
0.0146533
0.241268
0.281629
0.247883
0.209492
0.173543
0.139827
0.107641
0.076379
0.0456048
0.0150912
0.208594
0.286079
0.257621
0.218124
0.180365
0.144984
0.11138
0.0789042
0.0470641
0.0155607
0.172124
0.285703
0.266102
0.226636
0.187352
0.150352
0.115304
0.0815675
0.0486105
0.0160607
0.135777
0.28086
0.273456
0.235054
0.194511
0.155938
0.11942
0.0843736
0.0502482
0.0166349
0.147959
0.299824
0.288828
0.246853
0.203153
0.162078
0.123653
0.0871303
0.0518345
0.0172026
0.162924
0.300146
0.291231
0.251115
0.207501
0.165683
0.126328
0.0889234
0.0528661
0.0175477
0.193589
0.30221
0.292841
0.254025
0.210756
0.168564
0.128556
0.090452
0.0537545
0.0178456
0.228187
0.305401
0.293798
0.255888
0.213101
0.170793
0.130354
0.0917149
0.0544968
0.0180967
0.26211
0.309503
0.294276
0.256865
0.214624
0.1724
0.131723
0.0927052
0.0550872
0.0182985
0.291893
0.313839
0.294337
0.257099
0.21542
0.173427
0.132676
0.0934229
0.0555232
0.0184493
0.315377
0.317512
0.2939
0.256681
0.215573
0.173919
0.133232
0.0938729
0.055805
0.0185484
0.331377
0.319638
0.292785
0.255643
0.21514
0.173913
0.133406
0.0940611
0.0559328
0.0185949
0.338862
0.319409
0.290774
0.253981
0.214153
0.17343
0.133204
0.0939851
0.0558989
0.0185807
0.346204
0.32459
0.294043
0.25633
0.215913
0.174737
0.134135
0.0946011
0.0562525
0.0186994
0.303605
0.202381
0.12196
0.0619331
0.0210386
-0.00257582
-0.0109789
-0.00691136
0.00815471
0.023069
0.452043
0.353406
0.271436
0.205783
0.155572
0.119415
0.0958713
0.0818035
0.0773205
0.06818
0.565325
0.471125
0.390674
0.323847
0.270047
0.228202
0.197217
0.174406
0.160139
0.14188
0.652273
0.56192
0.483372
0.416651
0.361339
0.31659
0.281438
0.253771
0.23322
0.21078
0.718816
0.631649
0.554897
0.488704
0.432788
0.386469
0.348845
0.318325
0.293873
0.26944
0.769334
0.684596
0.60929
0.543655
0.487518
0.440338
0.401266
0.369102
0.34233
0.316837
0.806822
0.723717
0.649344
0.584025
0.527687
0.479909
0.439915
0.406769
0.378632
0.352521
0.83331
0.750997
0.676921
0.611479
0.554696
0.506272
0.465535
0.431755
0.402892
0.376605
0.850108
0.767533
0.692841
0.626499
0.568628
0.519055
0.477252
0.442731
0.413482
0.387757
0.857849
0.773662
0.697114
0.62872
0.568698
0.517018
0.473308
0.437441
0.407447
0.384441
2.15879
2.11768
2.07551
2.03121
1.982
1.9261
1.86176
1.78704
1.70064
1.58623
1.9363
1.88979
1.84104
1.78779
1.72801
1.66017
1.58247
1.49301
1.39102
1.25477
1.70075
1.6502
1.5956
1.53474
1.4659
1.38749
1.29764
1.19448
1.07817
0.920249
1.46682
1.41109
1.35003
1.28147
1.20376
1.1152
1.01375
0.897592
0.768382
0.589163
1.23888
1.17753
1.10989
1.03379
0.947549
0.849326
0.736918
0.608603
0.468413
0.268511
1.01976
0.953127
0.879349
0.796277
0.702186
0.595087
0.472614
0.333305
0.184859
-0.0350805
0.81269
0.741514
0.662398
0.573241
0.472268
0.357326
0.225847
0.0768532
-0.076091
-0.315706
0.621077
0.546333
0.462921
0.368831
0.262239
0.140781
0.0014447
-0.156627
-0.309534
-0.568181
0.448181
0.370962
0.284452
0.186805
0.076218
-0.0497387
-0.194955
-0.364181
-0.514678
-0.786704
0.296736
0.218114
0.129686
0.0298666
-0.0830751
-0.21128
-0.357585
-0.542107
-0.688708
-0.968536
3.57822
3.60317
3.63472
3.66989
3.7057
3.74142
3.77665
3.81072
3.84254
3.8634
3.51384
3.53678
3.56592
3.59844
3.63136
3.66395
3.69573
3.726
3.75363
3.77094
3.42814
3.44806
3.47354
3.502
3.53054
3.55834
3.58486
3.60933
3.63056
3.64217
3.32158
3.3376
3.35828
3.38143
3.40419
3.42567
3.44525
3.46204
3.4748
3.4784
3.19497
3.20637
3.22127
3.23796
3.25368
3.26745
3.27855
3.28595
3.28834
3.28152
3.04978
3.05594
3.06416
3.07337
3.08092
3.08573
3.08696
3.08343
3.07377
3.05403
2.88824
2.88855
2.88928
2.89005
2.8884
2.8831
2.8732
2.8574
2.83423
2.79916
2.71292
2.70691
2.69943
2.69088
2.67904
2.6626
2.64048
2.61123
2.57332
2.52073
2.52806
2.51529
2.49857
2.47952
2.45637
2.42771
2.39229
2.34855
2.29495
2.22296
2.33732
2.31529
2.28785
2.25752
2.22242
2.18089
2.13152
2.07263
2.00278
1.91003
4.55045
2.05369
3.22199
3.2483
3.2446
3.25058
3.26989
3.31319
3.41182
3.49403
4.54271
2.04061
3.21389
3.23913
3.23365
3.23717
3.25285
3.29061
3.37744
3.44939
4.53704
2.02345
3.20717
3.23054
3.22244
3.22265
3.23354
3.2638
3.33322
3.39283
4.53336
2.00248
3.20205
3.22253
3.21093
3.20701
3.21198
3.23277
3.28007
3.32346
4.53142
1.97808
3.19883
3.21505
3.19904
3.19019
3.18817
3.19754
3.21909
3.24031
4.53087
1.9508
3.19783
3.20798
3.18664
3.17216
3.16212
3.15814
3.15109
3.1429
4.53124
1.92133
3.19943
3.20109
3.17359
3.15285
3.13381
3.11451
3.07559
3.03234
4.53198
1.89056
3.20398
3.19404
3.15973
3.13222
3.10322
3.06664
2.99377
2.90863
4.53244
1.85957
3.21178
3.18631
3.14492
3.11026
3.07035
3.01484
2.90817
2.76994
4.53183
1.82964
3.22307
3.17729
3.12915
3.08714
3.03581
2.96119
2.8239
2.62204
4.53316
1.80794
3.21707
3.16531
3.10926
3.05649
2.98833
2.88709
2.70698
2.44017
4.54036
1.79945
3.19378
3.15125
3.08834
3.02459
2.9406
2.81789
2.61121
2.32565
4.54685
1.79467
3.17505
3.13719
3.06861
2.99531
2.89809
2.75897
2.53625
2.24525
4.55388
1.79265
3.16037
3.1241
3.05056
2.96911
2.86102
2.70946
2.47782
2.18486
4.56258
1.79285
3.14926
3.1126
3.03466
2.9464
2.82965
2.66893
2.43288
2.13922
4.57396
1.795
3.14124
3.10304
3.02124
2.92749
2.80407
2.63683
2.39912
2.10574
4.58901
1.79893
3.13588
3.09562
3.01057
2.91257
2.78424
2.6126
2.37483
2.08263
4.60885
1.80447
3.13268
3.09038
3.0028
2.90176
2.77011
2.59574
2.35879
2.0686
4.63175
1.81177
3.13106
3.08728
2.99799
2.89508
2.76151
2.58586
2.35035
2.06337
4.67192
1.81598
3.13141
3.08446
2.99391
2.88941
2.7541
2.57692
2.34152
2.05712
2.1214
1.92316
1.70547
1.49273
1.28725
1.08954
0.901759
0.726664
0.566972
0.425049
2.02305
1.86523
1.68809
1.50964
1.334
1.16249
0.99752
0.841728
0.697605
0.56732
1.95389
1.81937
1.66774
1.51263
1.35912
1.2085
1.06249
0.923219
0.792768
0.672974
1.90599
1.78751
1.65545
1.51852
1.38155
1.24606
1.11364
0.986221
0.865733
0.753935
1.87396
1.76662
1.64843
1.52462
1.39971
1.27533
1.15299
1.03444
0.921482
0.815806
1.85344
1.75393
1.64544
1.53102
1.41484
1.29854
1.18351
1.07143
0.964003
0.862841
1.84149
1.74741
1.6456
1.53771
1.42764
1.317
1.20711
1.09956
0.995982
0.897947
1.83617
1.74581
1.64844
1.54483
1.43874
1.33177
1.22517
1.12048
1.01928
0.923107
1.83801
1.75037
1.65555
1.55408
1.44988
1.34458
1.23941
1.13586
1.03549
0.939782
1.84571
1.76096
1.66678
1.56546
1.4613
1.35589
1.25046
1.14649
1.04547
0.948832
-2.3232
-1.97358
-1.7608
-1.54904
-1.38006
-1.24349
-1.13403
-1.04809
-0.982986
-0.937043
-2.49368
-2.1611
-1.93601
-1.73034
-1.56321
-1.42857
-1.32135
-1.23776
-1.17485
-1.13061
-2.55328
-2.23559
-2.00816
-1.80873
-1.64563
-1.51404
-1.40927
-1.32768
-1.26641
-1.22341
-2.51249
-2.21157
-1.98919
-1.798
-1.64091
-1.51368
-1.41196
-1.33233
-1.27215
-1.22974
-2.3893
-2.10957
-1.89769
-1.71708
-1.56807
-1.44667
-1.34881
-1.2713
-1.21169
-1.16888
-2.20574
-1.95109
-1.75399
-1.58633
-1.44749
-1.33357
-1.24082
-1.16626
-1.10755
-1.06435
-1.98323
-1.75625
-1.57689
-1.42422
-1.29742
-1.19269
-1.10661
-1.03646
-0.980036
-0.937761
-1.73981
-1.54176
-1.38175
-1.24545
-1.13209
-1.03801
-0.960108
-0.895959
-0.843548
-0.803965
-1.48929
-1.32014
-1.17984
-1.06055
-0.961422
-0.878945
-0.810305
-0.753338
-0.706212
-0.671076
-1.24138
-1.10002
-0.979001
-0.876679
-0.792022
-0.721659
-0.662989
-0.613885
-0.572
-0.538472
-1.0025
-0.886939
-0.78419
-0.698215
-0.627864
-0.570086
-0.522819
-0.484656
-0.454262
-0.427981
-0.776874
-0.684347
-0.598225
-0.527049
-0.4695
-0.422699
-0.384766
-0.354381
-0.330442
-0.309889
-0.567814
-0.495063
-0.423666
-0.365443
-0.318961
-0.281497
-0.251306
-0.227154
-0.207984
-0.191389
-0.378283
-0.321797
-0.263193
-0.216093
-0.179041
-0.149495
-0.125857
-0.107013
-0.0920202
-0.0790326
-0.210994
-0.167253
-0.119543
-0.0818329
-0.0527301
-0.0298892
-0.0118603
0.00233718
0.0135159
0.0230387
-0.0682301
-0.0339458
0.00478861
0.0347976
0.0573739
0.0746714
0.0880111
0.098261
0.106124
0.112578
0.0483272
0.0760159
0.107773
0.131803
0.149304
0.16227
0.17192
0.179036
0.184237
0.188204
0.137594
0.161055
0.187913
0.207743
0.221675
0.231589
0.23863
0.243518
0.246813
0.248979
0.198989
0.220163
0.244245
0.261699
0.273618
0.281814
0.287388
0.291024
0.293246
0.294381
0.232306
0.252931
0.276356
0.293266
0.304743
0.312578
0.317854
0.321243
0.323253
0.324153
-0.225119
0.0410976
0.101168
0.113601
0.110822
0.0987647
0.0812077
0.0601822
0.0368856
0.0123963
-0.131147
0.0784906
0.114698
0.119414
0.11277
0.0991289
0.0809648
0.059784
0.0365758
0.0122913
-0.0449537
0.106408
0.124931
0.123859
0.114557
0.0996668
0.0809357
0.0595624
0.0363782
0.0122224
0.0306429
0.1271
0.133356
0.12795
0.116465
0.100443
0.0811393
0.0595234
0.0362939
0.01219
0.0956246
0.143361
0.140642
0.131932
0.118582
0.10149
0.0815887
0.0596717
0.0363239
0.0121941
0.151482
0.155438
0.147366
0.136032
0.120983
0.102834
0.082294
0.0600108
0.0364692
0.0122345
0.198732
0.164725
0.153759
0.1404
0.123722
0.104497
0.0832636
0.0605434
0.0367305
0.0123115
0.237505
0.172938
0.160482
0.145155
0.126843
0.106495
0.0845034
0.0612715
0.0371081
0.0124251
0.268245
0.181635
0.167787
0.150375
0.130376
0.108841
0.0860173
0.062196
0.0376023
0.0125755
0.290684
0.191711
0.175787
0.156104
0.134341
0.111541
0.0878068
0.0633169
0.0382129
0.0127627
-0.411461
-0.0371557
0.0647071
0.0975674
0.102901
0.0949112
0.07941
0.0594104
0.0366097
0.0123634
-0.39088
-0.0305687
0.0674816
0.0987546
0.103497
0.0952417
0.0796028
0.0595217
0.0366676
0.0123815
-0.357591
-0.0144709
0.0749146
0.101945
0.104828
0.0958175
0.0798386
0.0596055
0.0366857
0.0123779
-0.320266
0.00414036
0.0839405
0.105929
0.10658
0.0967368
0.0803061
0.0598383
0.0367905
0.0124045
-0.275704
0.0242904
0.0942
0.110632
0.109365
0.0979946
0.0809998
0.0602185
0.0369808
0.0124605
-0.870295
-1.03373
-1.13531
-1.18712
-1.18703
-1.14263
-1.06164
-0.955863
-0.841195
-0.730988
-0.880989
-1.06299
-1.1659
-1.20035
-1.17499
-1.10082
-0.995706
-0.878436
-0.761614
-0.665982
-0.889896
-1.07922
-1.1791
-1.20111
-1.15877
-1.06998
-0.955805
-0.835108
-0.718339
-0.629308
-0.899878
-1.08989
-1.18521
-1.19846
-1.14575
-1.04847
-0.928828
-0.805088
-0.686955
-0.595642
-0.914105
-1.10625
-1.19854
-1.20501
-1.14419
-1.03976
-0.914413
-0.784211
-0.656404
-0.539636
3.0289
3.00757
2.98164
2.95446
2.92406
2.88893
2.84797
2.79971
2.74272
2.66987
3.1745
3.16596
3.15466
3.14263
3.1279
3.10922
3.08564
3.05582
3.01837
2.96805
3.30405
3.30377
3.30365
3.30413
3.30269
3.29813
3.2896
3.27591
3.25568
3.22468
3.41479
3.42163
3.43057
3.44111
3.4505
3.45761
3.46172
3.46171
3.45628
3.4413
3.50446
3.51728
3.53375
3.55255
3.57084
3.5876
3.60218
3.61361
3.62062
3.61848
3.57241
3.59006
3.61257
3.638
3.66343
3.68792
3.71093
3.7316
3.74871
3.75642
3.61805
3.63945
3.66659
3.69709
3.72795
3.75834
3.78778
3.81552
3.84037
3.85519
3.64126
3.66529
3.69568
3.72968
3.7643
3.79877
3.83265
3.86526
3.89547
3.91496
3.64213
3.66768
3.69989
3.73585
3.77255
3.80926
3.84558
3.88087
3.91403
3.93599
3.62099
3.64686
3.67947
3.71582
3.75291
3.79003
3.82679
3.86256
3.89624
3.91863
-0.629947
-0.681275
-0.751535
-0.842095
-0.955196
-1.09415
-1.26429
-1.47784
-1.66979
-2.0401
-0.209854
-0.274593
-0.355745
-0.45483
-0.573958
-0.716492
-0.887153
-1.0872
-1.28526
-1.64327
0.287405
0.204147
0.1091
0.000238439
-0.124666
-0.268817
-0.43602
-0.628349
-0.834246
-1.15881
0.799886
0.702897
0.598197
0.483502
0.356536
0.214247
0.0530263
-0.130267
-0.332124
-0.622381
1.2785
1.1784
1.07272
0.959379
0.836367
0.70097
0.549902
0.379891
0.191406
-0.0651078
1.70248
1.60847
1.50978
1.40464
1.29143
1.16792
1.03129
0.878582
0.709009
0.486336
2.06997
1.98719
1.90037
1.80796
1.70861
1.60053
1.48142
1.34868
1.20104
1.01185
2.38735
2.31707
2.24384
2.16604
2.0824
1.99145
1.89129
1.77967
1.65514
1.49821
2.66333
2.60337
2.54248
2.47895
2.41107
2.33746
2.25644
2.16596
2.06447
1.93787
2.89193
2.84169
2.79209
2.74317
2.69181
2.6362
2.57468
2.5053
2.42642
2.32791
4.7206
1.98326
3.39277
3.34716
3.32105
3.31678
3.31987
3.31976
3.28197
3.25387
4.69923
1.99969
3.36507
3.34105
3.31831
3.31613
3.32298
3.33402
3.31655
3.34399
4.67789
2.01627
3.34035
3.3327
3.31413
3.3143
3.32552
3.34685
3.35297
3.41908
4.65698
2.03183
3.31846
3.32286
3.30857
3.31108
3.32609
3.35628
3.38646
3.47561
4.63692
2.04541
3.29917
3.31215
3.30173
3.30641
3.32461
3.36168
3.41383
3.5174
4.61806
2.05625
3.28217
3.30104
3.29383
3.30032
3.32103
3.36353
3.43399
3.54564
4.60073
2.06374
3.26715
3.28988
3.28506
3.29286
3.31529
3.36165
3.44741
3.5598
4.58518
2.06746
3.25381
3.2789
3.27561
3.28409
3.30733
3.35576
3.45287
3.56084
4.5716
2.06711
3.24193
3.26825
3.26564
3.27408
3.29712
3.34574
3.44934
3.54947
4.56006
2.06254
3.23135
3.25803
3.25528
3.2629
3.28464
3.33157
3.4358
3.52732
4.88635
2.00297
3.40589
3.36274
3.32875
3.31304
3.29524
3.25973
3.15097
3.06305
4.84021
1.99786
3.40423
3.3619
3.32821
3.31338
3.29734
3.26445
3.15961
3.06655
4.80613
1.99005
3.40517
3.35996
3.32725
3.31398
3.30036
3.27106
3.1724
3.07232
4.77439
1.98295
3.4062
3.35673
3.32562
3.31474
3.30503
3.28173
3.19496
3.09496
4.74398
1.97694
3.4077
3.35202
3.32328
3.3155
3.31109
3.29646
3.22801
3.1408
2.80295
2.66503
2.44238
2.14163
1.76748
1.3125
0.787406
0.23841
-0.24909
-0.617712
2.78197
2.63572
2.4137
2.12035
1.76119
1.32859
0.826386
0.292616
-0.20401
-0.600439
2.7878
2.62705
2.39708
2.10514
1.75317
1.3335
0.847271
0.32204
-0.181206
-0.594287
2.82328
2.64257
2.39921
2.10297
1.7502
1.33299
0.851466
0.32854
-0.178258
-0.598678
2.88522
2.67478
2.41084
2.10578
1.74889
1.33103
0.851459
0.330088
-0.179209
-0.606401
)
;

boundaryField
{
    left
    {
        type            zeroGradient;
    }
    right
    {
        type            fixedValue;
        value           uniform 0;
    }
    down
    {
        type            zeroGradient;
    }
    up
    {
        type            zeroGradient;
    }
    cylinder
    {
        type            zeroGradient;
    }
    defaultFaces
    {
        type            empty;
    }
}


// ************************************************************************* //
