/*--------------------------------*- C++ -*----------------------------------*\
  =========                 |
  \\      /  F ield         | OpenFOAM: The Open Source CFD Toolbox
   \\    /   O peration     | Website:  https://openfoam.org
    \\  /    A nd           | Version:  13
     \\/     M anipulation  |
\*---------------------------------------------------------------------------*/
FoamFile
{
    format      ascii;
    class       volScalarField;
    location    "14.9";
    object      p;
}
// * * * * * * * * * * * * * * * * * * * * * * * * * * * * * * * * * * * * * //

dimensions      [0 2 -2 0 0 0 0];

internalField   nonuniform List<scalar> 
440
(
-1.08866
-1.06988
-1.05897
-1.02756
-1.08493
-1.1511
-1.12838
-1.10306
-1.07513
-1.05531
-1.27182
-1.23457
-1.18844
-1.13105
-1.06809
-1.41379
-1.36163
-1.26199
-1.1438
-1.02536
-1.50819
-1.43597
-1.2714
-1.10157
-0.947061
-1.06009
-1.11502
-1.21517
-1.31436
-1.3848
-1.1813
-1.18949
-1.21078
-1.23912
-1.25379
-1.1617
-1.14308
-1.12493
-1.11925
-1.11355
-1.12682
-1.10611
-1.08237
-1.0673
-1.07647
-1.08289
-1.06933
-1.05212
-1.0307
-1.07206
-1.58468
-0.537971
0.543201
0.148768
0.0131112
-1.29545
-0.711051
0.404083
0.113227
0.0194639
-1.16349
-0.966386
0.233584
0.0337496
0.0250082
-1.14998
-1.13709
0.151562
-0.0465694
0.0319499
-1.24109
-1.06957
0.12816
-0.045701
0.0350683
-0.905752
-0.721151
0.138793
0.0638287
0.0336685
-0.509946
-0.34946
0.0515332
0.112008
0.0378731
-0.415672
-0.238377
0.0367962
0.17782
0.0346926
-0.296433
-0.143723
0.0173849
0.134362
0.0199728
-0.174346
-0.169075
0.00940878
0.163488
0.0332848
-0.688269
-0.802898
-0.94854
-1.11857
-1.25481
-0.432756
-0.553572
-0.627264
-0.68136
-0.692261
-0.264054
-0.365734
-0.422235
-0.461673
-0.483799
-0.154559
-0.244373
-0.302527
-0.334544
-0.348342
-0.100956
-0.187265
-0.239968
-0.259337
-0.24808
0.66144
0.503078
0.301261
0.0779928
-0.164227
0.231174
0.064577
-0.139003
-0.36992
-0.632296
-0.181633
-0.352029
-0.567395
-0.807186
-1.05354
-0.548395
-0.722534
-0.938521
-1.1707
-1.36053
-0.790673
-0.967941
-1.17102
-1.38264
-1.50618
1.75073
1.7796
1.80369
1.81291
1.80481
1.55451
1.57381
1.58663
1.58122
1.55397
1.33949
1.32408
1.28449
1.22147
1.13146
1.09556
1.05843
0.983295
0.876307
0.740149
0.883617
0.773488
0.62989
0.465299
0.268334
1.53531
1.52984
1.50322
1.57462
1.64019
1.52529
1.51846
1.48348
1.55415
1.54613
1.51642
1.5042
1.46114
1.52172
1.4269
1.50882
1.48765
1.43754
1.47369
1.25744
1.5024
1.47076
1.41336
1.42351
1.07222
1.4981
1.44451
1.3833
1.31943
0.866174
1.49575
1.41263
1.38048
1.18337
0.994339
1.50157
1.3971
1.37428
1.12182
1.04066
1.50058
1.36975
1.36596
1.06148
1.06618
1.53535
1.36693
1.36243
1.02306
1.10967
0.625776
0.311254
-0.0305403
-0.338645
-0.519414
0.514454
0.289511
0.0654598
-0.137146
-0.299311
0.492381
0.314469
0.149265
-0.00180153
-0.146907
0.562216
0.394871
0.237117
0.0925409
-0.0416302
0.609137
0.436397
0.278938
0.137382
0.00811232
-1.42705
-1.30164
-1.14732
-1.02108
-0.945662
-1.51773
-1.45287
-1.33168
-1.23112
-1.16658
-1.46642
-1.41778
-1.34222
-1.27347
-1.22218
-1.3482
-1.30808
-1.26097
-1.2169
-1.1756
-1.2344
-1.21439
-1.19177
-1.16873
-1.1541
-1.22654
-1.22004
-1.20428
-1.19483
-1.13486
-1.1436
-1.13685
-1.12427
-1.12251
-1.10549
-1.24583
-1.28056
-1.31779
-1.34369
-1.35168
-1.05173
-1.12646
-1.21691
-1.30195
-1.35577
-0.624082
-0.767386
-0.958098
-1.11292
-1.22087
-1.08689
0.228681
0.230604
0.234949
-0.0144328
-1.06714
0.285333
0.279546
0.24961
-0.0155788
-1.05706
0.399333
0.354229
0.250318
-0.012614
-1.14206
0.333119
0.471975
0.234203
-0.00485095
-1.39842
-0.178273
0.562394
0.182539
0.00586964
-0.603063
0.0154936
0.153666
0.213456
0.00673606
-0.925158
0.111952
0.212952
0.241036
0.000414886
-0.900901
-1.13671
-1.16023
-1.12994
-0.910349
-0.919514
-1.1386
-1.18478
-1.13538
-1.1143
1.43646
1.4184
1.3845
1.33597
1.27168
1.61737
1.63809
1.64593
1.639
1.61739
1.76745
1.80061
1.82813
1.84472
1.84745
1.85237
1.89088
1.9315
1.9644
1.97959
1.84091
1.87652
1.91597
1.94851
1.96297
-0.526189
-0.621067
-0.768209
-0.947574
-1.14374
0.0267269
-0.094009
-0.255897
-0.449902
-0.683929
0.524596
0.397927
0.246847
0.070006
-0.142755
0.92191
0.824596
0.706331
0.56418
0.395958
1.23925
1.17269
1.08688
0.984508
0.865347
1.59855
1.56075
1.54338
1.55505
1.56834
1.58306
1.55758
1.5421
1.56924
1.62653
1.56982
1.55312
1.53921
1.58756
1.69285
1.55747
1.54725
1.53144
1.59326
1.70193
1.54593
1.53984
1.519
1.58925
1.68766
1.65546
1.5681
1.53322
1.48324
1.43779
1.6094
1.55811
1.52751
1.50138
1.45797
1.13424
0.931025
0.577703
0.0648832
-0.497147
1.20617
0.959336
0.593497
0.0844884
-0.489889
)
;

boundaryField
{
    left
    {
        type            zeroGradient;
    }
    right
    {
        type            fixedValue;
        value           uniform 0;
    }
    down
    {
        type            zeroGradient;
    }
    up
    {
        type            zeroGradient;
    }
    cylinder
    {
        type            zeroGradient;
    }
    defaultFaces
    {
        type            empty;
    }
}


// ************************************************************************* //
