/*--------------------------------*- C++ -*----------------------------------*\
  =========                 |
  \\      /  F ield         | OpenFOAM: The Open Source CFD Toolbox
   \\    /   O peration     | Website:  https://openfoam.org
    \\  /    A nd           | Version:  13
     \\/     M anipulation  |
\*---------------------------------------------------------------------------*/
FoamFile
{
    format      ascii;
    class       volScalarField;
    location    "0.705";
    object      p;
}
// * * * * * * * * * * * * * * * * * * * * * * * * * * * * * * * * * * * * * //

dimensions      [0 2 -2 0 0 0 0];

internalField   nonuniform List<scalar> 
1800
(
5.7468
7.8539
10.0067
11.4351
12.2695
12.68
12.811
12.6534
11.4071
7.31479
9.59627
12.072
14.5769
16.2609
17.3175
17.9802
18.4348
18.6738
17.9493
15.2713
15.9885
18.6132
21.286
23.1492
24.4094
25.2912
25.9419
26.3252
25.854
24.0229
24.9836
27.553
30.2015
32.1159
33.4812
34.4903
35.2527
35.7046
35.2985
33.6137
36.0422
38.403
40.8553
42.6669
43.9913
44.9874
45.7419
46.1913
45.8411
44.2855
48.719
50.7716
52.9152
54.5215
55.7125
56.6147
57.297
57.7076
57.4264
56.067
62.6675
64.3403
66.096
67.4279
68.43
69.1996
69.791
70.168
69.9929
68.9042
77.5933
78.8348
80.1459
81.1552
81.9312
82.545
83.0391
83.394
83.3606
82.6241
93.2114
93.9911
94.8226
95.4775
96.0003
96.4378
96.8206
97.1439
97.2542
96.9197
109.24
109.545
109.877
110.151
110.389
110.61
110.827
111.041
111.202
111.229
-0.605879
-0.858648
-0.635786
-0.220996
0.251747
0.719779
1.07946
1.29039
1.43547
1.58224
-0.478632
-0.994545
-1.10459
-0.898703
-0.474732
-0.050755
0.241844
0.484327
0.764546
1.03816
0.522909
-0.445136
-1.27825
-1.44432
-1.11735
-0.811773
-0.59853
-0.293362
0.114004
0.499929
0.916408
-0.225515
-1.42449
-1.76328
-1.54312
-1.38993
-1.26539
-0.960493
-0.503598
0.0042352
0.485079
-0.483349
-1.42445
-1.71588
-1.65892
-1.67011
-1.63423
-1.37289
-0.881882
-0.187801
-0.218933
-0.736157
-1.13714
-1.2669
-1.28779
-1.35362
-1.3466
-1.13868
-0.614531
0.317698
-0.554735
-0.517157
-0.340957
-0.195144
-0.110809
-0.0907394
-0.0528802
0.116398
0.693705
1.92353
-0.0717834
0.514457
1.23528
1.73958
2.06897
2.28194
2.43103
2.64726
3.37746
5.03941
1.37508
2.48299
3.73136
4.65276
5.32267
5.81486
6.15469
6.4936
7.48013
9.76737
3.61666
5.25953
7.07768
8.45357
9.47626
10.2364
10.7586
11.2115
12.2723
14.4353
2.30048
2.43969
2.33264
2.0875
1.58381
1.18121
0.859161
0.585012
0.350257
0.133248
1.95186
2.41686
2.22907
2.0048
1.50091
1.10211
0.808658
0.568378
0.353505
0.139862
1.47449
2.38774
2.12826
1.9133
1.4262
1.0358
0.763171
0.550043
0.353532
0.1452
0.849779
2.30529
2.02837
1.80764
1.35136
0.97732
0.724088
0.533397
0.34778
0.147836
0.155512
2.12929
1.91777
1.68552
1.27052
0.922421
0.689987
0.518666
0.341037
0.149343
-0.417425
1.85023
1.77917
1.54545
1.18017
0.868403
0.659415
0.50519
0.339873
0.150444
-0.56713
1.50168
1.59941
1.38501
1.07826
0.813409
0.631489
0.492919
0.342907
0.15097
0.161311
1.1723
1.36949
1.19534
0.961184
0.755329
0.605023
0.482599
0.341152
0.148001
2.41763
1.03588
1.06872
0.951888
0.820494
0.691445
0.578956
0.471461
0.330902
0.137794
6.65253
1.40477
0.711272
0.634348
0.648721
0.620517
0.552426
0.454977
0.313723
0.123603
9.97843
2.57502
0.687547
0.392468
0.47208
0.542027
0.516384
0.425969
0.285957
0.103111
11.7635
2.57099
0.2657
0.0584468
0.357538
0.507823
0.480606
0.381286
0.245133
0.0739757
12.8619
2.77723
0.395711
0.153537
0.470244
0.568938
0.48122
0.349861
0.206233
0.0438404
14.1832
4.36483
1.28054
0.727678
0.789867
0.717141
0.522988
0.336013
0.173612
0.0149015
16.3599
7.10879
2.70088
1.59169
1.24116
0.934227
0.606747
0.344032
0.151514
-0.00977136
19.25
9.87404
4.33385
2.55727
1.77125
1.20105
0.723881
0.37387
0.142759
-0.0274032
21.7541
11.9355
5.85144
3.51724
2.33734
1.49747
0.863335
0.422416
0.14811
-0.036104
23.0331
13.1185
7.04849
4.41722
2.91094
1.80949
1.01685
0.485962
0.167039
-0.0349296
22.973
13.4976
7.90919
5.26444
3.50026
2.1449
1.19081
0.568445
0.203178
-0.0221621
22.4202
13.7226
8.68056
6.1255
4.12656
2.5237
1.40742
0.687337
0.275776
0.00786525
111.785
97.8396
84.0749
71.0696
59.1302
48.3499
38.7684
30.0917
20.0804
4.97537
112.765
99.4773
85.9764
72.9699
60.9268
50.0459
40.5127
32.2544
23.5893
11.4761
113.297
100.212
87.3315
75.0051
63.4663
52.8743
43.4444
35.2556
27.4691
18.3351
114.509
102.769
90.8103
78.9795
67.6228
57.0276
47.3945
38.7941
31.0873
23.8241
115.086
104.075
93.1546
82.4635
72.1165
62.1921
52.7297
43.8192
36.0011
29.8222
115.436
104.709
94.2021
84.0403
74.3197
65.0902
56.3309
48.0895
41.0479
36.0309
115.667
105.108
94.7969
84.8647
75.4219
66.5414
58.2325
50.5649
44.2109
40.0914
115.768
105.246
94.9799
85.1085
75.7543
67.0084
58.9045
51.5111
45.3943
41.4346
115.718
105.032
94.6055
84.5863
75.1071
66.2745
58.1444
50.7749
44.5511
40.0982
115.594
104.647
93.9596
83.682
73.9565
64.9063
56.6115
49.1167
42.6077
37.4128
234.122
229.758
228.191
227.749
227.658
227.909
228.643
230.024
232.176
234.315
225.559
222.54
221.491
221.452
221.677
222.162
223.093
224.7
227.171
229.648
216.046
213.871
213.098
213.223
213.654
214.357
215.482
217.252
219.866
222.464
205.739
203.712
203.008
203.204
203.748
204.577
205.801
207.609
210.178
212.697
194.416
192.507
191.852
192.04
192.572
193.383
194.56
196.254
198.609
200.899
182.049
180.325
179.731
179.873
180.326
181.037
182.073
183.55
185.58
187.545
168.703
167.241
166.747
166.85
167.206
167.779
168.618
169.811
171.438
173.009
154.569
153.453
153.098
153.176
153.431
153.844
154.451
155.313
156.484
157.612
139.961
139.247
139.04
139.089
139.234
139.469
139.82
140.321
141.003
141.659
125.436
125.092
124.952
124.905
124.892
124.914
124.981
125.1
125.278
125.453
246.552
246.791
247.043
247.261
247.559
248.059
248.612
248.948
248.954
248.44
246.627
246.957
247.361
247.666
247.867
248.202
248.626
248.542
247.725
246.705
246.637
247.033
247.478
247.79
247.873
248.003
248.285
247.925
246.537
245.282
246.516
247.018
247.448
247.68
247.612
247.498
247.533
247.11
245.816
244.658
246.024
246.678
247.067
247.173
246.995
246.718
246.541
246.181
245.372
244.582
244.817
245.66
245.996
245.96
245.728
245.444
245.247
245.076
244.836
244.55
242.471
243.568
243.905
243.789
243.579
243.414
243.379
243.511
243.818
244.058
238.587
240.073
240.542
240.475
240.391
240.442
240.679
241.174
241.987
242.726
233.113
235.168
235.876
235.943
236.069
236.415
237.002
237.907
239.212
240.424
227.759
229.624
230.368
230.535
230.842
231.459
232.401
233.752
235.599
237.307
246.94
246.72
246.681
246.49
246.421
246.304
245.928
245.672
245.571
245.717
246.899
246.719
246.676
246.492
246.42
246.314
245.937
245.655
245.379
245.738
246.871
246.715
246.668
246.488
246.412
246.315
245.938
245.601
245.143
245.822
246.852
246.708
246.655
246.475
246.398
246.31
245.926
245.509
244.925
246.008
246.841
246.698
246.639
246.456
246.379
246.296
245.9
245.401
244.791
246.246
246.834
246.686
246.62
246.432
246.354
246.27
245.864
245.308
244.765
246.354
246.832
246.672
246.6
246.405
246.324
246.232
245.828
245.257
244.812
246.021
246.835
246.654
246.578
246.376
246.289
246.19
245.811
245.26
244.833
244.784
246.845
246.632
246.554
246.343
246.253
246.158
245.843
245.336
244.655
242.008
246.862
246.608
246.525
246.308
246.22
246.155
245.945
245.462
243.976
237.292
246.9
246.581
246.484
246.252
246.156
246.084
245.874
245.133
242.443
233.742
247.015
246.561
246.446
246.201
246.101
246.123
246.071
245.334
242.178
231.799
247.257
246.567
246.409
246.124
246.023
246.085
246.063
245.237
241.885
230.535
247.708
246.623
246.379
246.039
245.886
245.818
245.615
244.534
240.48
229.316
248.545
246.688
246.402
245.948
245.675
245.311
244.743
243.227
238.009
227.46
250.382
246.755
246.51
245.877
245.383
244.648
243.657
241.569
235.375
224.914
254.261
247.067
246.665
245.818
245.028
243.935
242.559
239.957
233.311
222.585
262.567
248.205
246.94
245.775
244.654
243.245
241.558
238.667
232.072
221.328
280.127
250.94
247.59
245.81
244.301
242.593
240.649
237.736
231.63
221.358
306.097
254.986
249.096
246.023
244.01
241.971
239.765
236.919
231.358
221.885
236.417
221.067
210.445
201.13
190.969
179.665
167.27
153.898
139.852
125.722
230.028
217.734
208.582
199.861
189.923
178.685
166.338
153.087
139.364
125.89
223.495
214.13
205.951
197.424
187.709
176.869
165.116
152.616
139.598
126.42
218.38
210.873
202.881
194.031
184.188
173.423
161.931
149.988
137.925
126.091
212.983
206.589
198.596
189.502
179.833
169.696
159.145
148.278
137.222
126.129
207.385
202.089
194.829
186.359
177.36
167.905
157.985
147.663
137.042
126.255
203.591
199.15
192.561
184.664
176.131
167.045
157.424
147.349
136.938
126.328
202.309
198.051
191.705
184.092
175.779
166.843
157.324
147.32
136.961
126.392
203.635
198.92
192.47
184.885
176.553
167.537
157.9
147.754
137.239
126.507
206.309
200.874
194.137
186.426
177.931
168.699
158.816
148.412
137.636
126.643
112.187
112.357
112.442
112.293
111.786
111.425
111.24
111.525
111.518
111.269
89.6123
90.0757
90.2943
89.8607
88.4288
87.3423
86.7214
87.3831
87.4207
86.8341
68.7691
69.3968
69.6582
68.9914
67.052
65.3403
64.32
64.8688
65.1732
64.6179
50.6512
51.2577
51.4473
50.6242
48.6451
46.4791
45.149
45.1844
45.9228
45.6894
36.0058
36.4143
36.4646
35.5832
33.7914
31.4754
29.8316
29.2664
30.0739
30.2616
24.9534
25.0569
24.9349
24.0117
22.4342
20.4048
18.6139
17.6723
17.9273
18.4274
17.0668
16.9165
16.7017
15.7108
14.2963
12.793
11.3055
10.2405
9.90073
10.2672
11.5797
11.4028
11.3544
10.355
9.03612
8.03423
7.14258
6.2997
5.71126
5.62748
7.90561
7.81739
8.11344
7.24562
6.0796
5.48909
5.16024
4.7756
4.29167
3.91197
6.03681
5.83189
6.2174
5.4796
4.61024
4.33419
4.35821
4.34886
4.1963
3.80035
5.26976
5.03295
5.11538
4.42105
3.88882
3.83264
3.98243
4.12518
4.24631
4.303
4.8427
4.73361
4.45629
3.78994
3.50405
3.59133
3.79452
3.96211
4.08188
4.16815
4.46424
4.41951
3.98777
3.43718
3.31713
3.47992
3.70464
3.88338
4.00137
4.06173
4.00988
3.95497
3.54891
3.19749
3.20739
3.41059
3.62347
3.78077
3.87935
3.92069
3.46206
3.36885
3.09567
2.97588
3.09264
3.30942
3.49953
3.63715
3.71845
3.74219
2.81106
2.7169
2.65752
2.74783
2.94452
3.14894
3.31476
3.43421
3.50115
3.51457
2.08789
2.10455
2.2395
2.47415
2.70983
2.90834
3.06361
3.17733
3.24363
3.2591
1.41501
1.53313
1.78452
2.07758
2.33356
2.54794
2.72382
2.8625
2.95004
2.97815
0.738507
0.87338
1.14831
1.47738
1.78726
2.05898
2.29647
2.48139
2.58627
2.62394
0.0661181
-0.0187074
0.21666
0.628483
1.04909
1.43143
1.7558
1.97106
2.0744
2.13765
3.65733
3.70069
3.57005
3.2439
2.59307
1.90451
1.31355
0.841783
0.454977
0.0932837
3.72997
3.67447
3.51951
3.22788
2.55363
1.84858
1.26156
0.804055
0.432144
0.0915211
3.75636
3.56836
3.4077
3.17373
2.50963
1.79588
1.21239
0.768694
0.411697
0.0915695
3.71722
3.39195
3.25487
3.07126
2.45238
1.74469
1.16608
0.735839
0.39377
0.092949
3.60932
3.18365
3.08652
2.91781
2.37
1.69049
1.12192
0.70549
0.378476
0.0956967
3.44582
2.98581
2.92586
2.73371
2.25614
1.62936
1.07973
0.678064
0.366066
0.0998273
3.25232
2.81847
2.78214
2.55093
2.11364
1.55762
1.03891
0.653971
0.356777
0.105229
3.04515
2.68155
2.65599
2.39371
1.95771
1.47258
0.99817
0.633296
0.350712
0.111662
2.82278
2.5705
2.54303
2.26921
1.80974
1.37551
0.955704
0.615668
0.34781
0.11876
2.57815
2.48809
2.43695
2.17129
1.68444
1.27453
0.90943
0.600124
0.347838
0.126102
5.4186
3.97232
3.2739
2.8944
2.41316
1.89147
1.39158
0.937547
0.540611
0.131188
4.61477
3.75169
3.31009
2.95559
2.45378
1.90024
1.37896
0.918758
0.519254
0.119992
3.94483
3.65969
3.37087
3.02508
2.49314
1.90809
1.3676
0.901956
0.50283
0.110544
3.62498
3.66014
3.45635
3.10545
2.53439
1.9157
1.35667
0.886278
0.48858
0.103132
3.61025
3.70333
3.55816
3.19793
2.58036
1.92355
1.34486
0.870068
0.474732
0.0976082
112.018
88.9505
67.899
50.1269
36.1118
25.7912
18.6211
13.7455
10.5635
8.74934
111.797
88.3881
67.1927
49.3925
35.3095
24.787
17.3173
12.212
9.0691
7.56893
111.611
87.9079
66.5545
48.6519
34.3984
23.6143
15.897
10.6771
7.5324
6.07438
111.401
87.3341
65.7141
47.5871
33.0737
22.0202
14.1254
8.89246
5.80695
4.43129
111.146
86.6061
64.5848
46.114
31.2736
19.9525
11.9567
6.92017
4.43702
3.62118
243.768
243.806
243.926
244.098
244.31
244.319
243.815
243.113
243.216
242.993
243.981
244.053
244.166
244.356
244.626
244.801
244.583
243.933
243.676
243.569
244.177
244.225
244.338
244.535
244.82
245.083
245.056
244.549
244.121
244.071
244.419
244.452
244.55
244.724
244.982
245.271
245.378
245.108
244.721
244.653
244.694
244.712
244.793
244.943
245.158
245.424
245.628
245.63
245.465
245.374
244.986
244.999
245.068
245.19
245.364
245.595
245.866
246.109
246.215
246.204
245.26
245.279
245.361
245.496
245.673
245.903
246.204
246.566
246.87
246.993
245.546
245.563
245.66
245.852
246.107
246.407
246.768
247.182
247.548
247.729
245.927
245.956
246.033
246.256
246.627
247.08
247.587
248.107
248.452
248.414
246.32
246.43
246.532
246.722
247.121
247.692
248.294
248.845
249.198
248.993
136.501
136.242
136.219
136.482
136.264
135.866
135.324
135.153
135.224
135.389
160.952
160.355
160.377
161.014
160.361
159.239
157.775
157.318
157.524
157.982
183.197
182.63
182.917
183.44
182.39
180.644
178.676
177.987
178.236
178.858
202.163
201.917
202.636
202.646
201.288
199.091
197.083
196.239
196.417
197.019
217.635
217.809
218.593
218.006
216.337
213.993
212.172
211.269
211.308
211.713
229.515
229.996
230.226
229.267
227.459
225.403
223.793
222.847
222.714
222.815
237.714
238.051
237.688
236.614
235.122
233.594
232.143
231.126
230.902
230.75
242.37
242.25
241.64
240.807
239.928
238.91
237.557
236.531
236.472
236.295
244.094
243.676
243.182
242.824
242.527
241.941
240.751
239.855
240.141
240.057
244.233
243.808
243.655
243.676
243.747
243.505
242.631
241.87
242.255
242.065
254.847
246.873
247.501
246.286
246.037
245.53
244.997
244.634
244.504
244.542
252.013
246.81
247.315
246.264
246.09
245.593
245.013
244.667
244.58
244.513
250.091
246.817
247.092
246.26
246.146
245.661
245.056
244.761
244.75
244.545
248.904
246.845
246.88
246.279
246.203
245.735
245.137
244.915
244.979
244.651
248.218
246.848
246.742
246.318
246.259
245.818
245.265
245.106
245.221
244.822
247.769
246.806
246.704
246.367
246.312
245.911
245.433
245.294
245.428
245.029
247.455
246.751
246.703
246.411
246.358
246.014
245.609
245.449
245.583
245.239
247.239
246.723
246.695
246.445
246.39
246.119
245.755
245.558
245.682
245.432
247.095
246.717
246.686
246.469
246.406
246.21
245.853
245.626
245.72
245.59
247.002
246.718
246.683
246.482
246.416
246.273
245.905
245.662
245.686
245.686
317.351
253.757
249.91
246.972
246.142
245.57
245.252
244.931
244.238
242.721
295.618
251.368
248.789
246.74
246.059
245.542
245.208
244.901
244.451
243.522
277.177
249.212
248.192
246.567
246.019
245.523
245.158
244.844
244.533
244.195
265.774
247.867
247.868
246.436
246.001
245.512
245.1
244.762
244.524
244.524
259.003
247.137
247.645
246.328
245.998
245.504
245.032
244.659
244.478
244.556
239.3
237.451
234.235
229.328
222.125
211.771
197.72
179.915
158.838
135.757
240.483
238.947
235.772
230.636
223.134
212.577
198.457
180.623
159.402
135.978
241.995
240.498
237.317
232.064
224.312
213.492
199.2
181.263
159.883
136.164
243.658
242.252
239.124
233.85
225.915
214.821
200.268
182.104
160.456
136.374
244.447
243.609
241.107
236.036
227.993
216.626
201.743
183.234
161.184
136.627
)
;

boundaryField
{
    left
    {
        type            zeroGradient;
    }
    right
    {
        type            fixedValue;
        value           uniform 0;
    }
    down
    {
        type            zeroGradient;
    }
    up
    {
        type            zeroGradient;
    }
    cylinder
    {
        type            zeroGradient;
    }
    defaultFaces
    {
        type            empty;
    }
}


// ************************************************************************* //
