/*--------------------------------*- C++ -*----------------------------------*\
  =========                 |
  \\      /  F ield         | OpenFOAM: The Open Source CFD Toolbox
   \\    /   O peration     | Website:  https://openfoam.org
    \\  /    A nd           | Version:  13
     \\/     M anipulation  |
\*---------------------------------------------------------------------------*/
FoamFile
{
    format      ascii;
    class       volVectorField;
    location    "0.705";
    object      U;
}
// * * * * * * * * * * * * * * * * * * * * * * * * * * * * * * * * * * * * * //

dimensions      [0 1 -1 0 0 0 0];

internalField   nonuniform List<vector> 
1800
(
(0.0978009 -0.0883287 -4.48946e-20)
(0.286896 -0.241951 -3.41193e-20)
(0.473973 -0.379045 -4.85023e-19)
(0.657692 -0.500158 1.9147e-19)
(0.836611 -0.607171 7.4382e-20)
(1.00991 -0.701377 -3.90568e-20)
(1.17715 -0.78347 5.54976e-20)
(1.33793 -0.85368 1.97381e-19)
(1.49159 -0.912963 5.92248e-19)
(1.63353 -0.9669 8.10048e-19)
(0.119061 -0.0915027 -7.91141e-20)
(0.344291 -0.247709 -7.70613e-19)
(0.563282 -0.38475 3.78147e-21)
(0.775364 -0.504236 1.25759e-19)
(0.979505 -0.608922 -1.26263e-19)
(1.17521 -0.700696 7.65827e-20)
(1.36231 -0.780788 -2.8081e-19)
(1.54078 -0.850099 -5.02684e-20)
(1.7101 -0.910704 -6.93491e-19)
(1.86785 -0.967043 6.29768e-19)
(0.141651 -0.092323 4.88227e-20)
(0.40368 -0.247731 2.09288e-19)
(0.653755 -0.382117 5.43321e-19)
(0.892178 -0.497905 -1.90262e-19)
(1.11866 -0.598385 -1.42995e-19)
(1.33321 -0.685812 7.56107e-20)
(1.53605 -0.761706 9.82551e-20)
(1.72743 -0.827297 1.94065e-19)
(1.90721 -0.884801 2.73619e-21)
(2.07421 -0.937868 1.50983e-19)
(0.163906 -0.0897208 -4.5719e-20)
(0.461698 -0.23947 -2.04391e-19)
(0.741428 -0.367618 -1.81259e-19)
(1.00451 -0.476977 -1.42298e-19)
(1.25162 -0.571022 1.81309e-19)
(1.48351 -0.652127 -5.70904e-20)
(1.70093 -0.721906 -4.31053e-21)
(1.90453 -0.781622 2.92441e-21)
(2.09455 -0.833365 -1.60461e-19)
(2.27025 -0.880355 -1.05939e-19)
(0.184658 -0.0833564 -1.14039e-19)
(0.515893 -0.221807 8.76369e-20)
(0.823292 -0.339431 1.79841e-19)
(1.10931 -0.439063 2.43305e-19)
(1.37561 -0.524071 -2.85021e-19)
(1.62371 -0.596777 -3.58075e-21)
(1.85494 -0.658767 4.24976e-19)
(2.07042 -0.711262 -1.85055e-19)
(2.27083 -0.756163 -1.23988e-19)
(2.45578 -0.796396 -5.35545e-20)
(0.20319 -0.0735001 1.73591e-19)
(0.56447 -0.1952 1.02985e-18)
(0.896791 -0.298074 1.43255e-19)
(1.20351 -0.384735 -5.0314e-19)
(1.48719 -0.458227 -1.75502e-19)
(1.75003 -0.520669 6.37688e-19)
(1.9939 -0.573525 -1.45377e-19)
(2.22036 -0.6179 -4.31586e-19)
(2.43047 -0.655444 -3.16656e-19)
(2.62419 -0.688742 2.6159e-19)
(0.218898 -0.0605913 1.1634e-19)
(0.605745 -0.160701 -7.47591e-19)
(0.959313 -0.24503 -1.0856e-18)
(1.28371 -0.315798 3.83785e-19)
(1.58223 -0.375564 4.49942e-19)
(1.85767 -0.426128 -9.02057e-22)
(2.11239 -0.46874 -6.3968e-19)
(2.34829 -0.504325 2.19314e-19)
(2.56683 -0.534213 -3.64483e-19)
(2.76827 -0.56057 -3.11216e-19)
(0.231235 -0.0451722 -3.42486e-19)
(0.638199 -0.119684 -6.92604e-19)
(1.00849 -0.182294 1.21221e-18)
(1.34677 -0.2347 5.98701e-19)
(1.65693 -0.278852 -2.69757e-19)
(1.94224 -0.316136 -2.11496e-19)
(2.20543 -0.347515 0)
(2.44874 -0.373689 1.16805e-19)
(2.67398 -0.395622 -2.95841e-19)
(2.88171 -0.41497 -7.74265e-20)
(0.239766 -0.0278754 -2.04466e-19)
(0.660652 -0.0737557 5.62383e-19)
(1.04249 -0.112198 1.71008e-19)
(1.39031 -0.144289 -5.12493e-19)
(1.7084 -0.171277 -7.84194e-19)
(2.00037 -0.194053 3.66196e-20)
(2.26924 -0.213245 1.67124e-19)
(2.51752 -0.229293 -5.46841e-19)
(2.74731 -0.242784 -2.89763e-19)
(2.95953 -0.254778 -5.63594e-19)
(0.24426 -0.00940241 4.51408e-19)
(0.672452 -0.024704 3.44149e-19)
(1.0603 -0.0373616 -9.38596e-20)
(1.41303 -0.0477884 -1.29788e-20)
(1.73514 -0.0564622 -3.87506e-19)
(2.03041 -0.0637231 -8.57329e-20)
(2.30205 -0.06981 -2.90577e-19)
(2.55276 -0.0748903 6.46558e-19)
(2.7848 -0.0791711 1.71003e-19)
(2.99945 -0.0830119 2.22268e-21)
(-0.00234378 -0.0217853 -3.43054e-20)
(0.00860278 -0.0693506 -7.02463e-20)
(0.0248901 -0.120512 -7.32299e-21)
(0.0493218 -0.17122 -3.40428e-20)
(0.0776757 -0.216611 -1.27326e-20)
(0.106518 -0.254755 -3.90049e-19)
(0.135547 -0.288687 -1.95058e-20)
(0.166337 -0.322002 1.19953e-19)
(0.199166 -0.355519 1.0954e-20)
(0.233059 -0.38789 -3.57818e-20)
(0.000848328 -0.0246856 -9.77552e-20)
(0.0149427 -0.0850712 -2.12643e-19)
(0.0393454 -0.160337 -5.40516e-20)
(0.0692724 -0.225262 -1.10432e-19)
(0.0994922 -0.275552 -9.64934e-20)
(0.130461 -0.317985 -2.79792e-19)
(0.16448 -0.358977 2.00524e-19)
(0.202143 -0.400381 1.68628e-19)
(0.241647 -0.440301 -2.56637e-19)
(0.281158 -0.476685 8.1311e-20)
(0.00549563 -0.0314922 -8.54124e-20)
(0.0287773 -0.107418 -8.66901e-19)
(0.0628566 -0.196107 -1.29591e-19)
(0.0974511 -0.268971 9.32593e-20)
(0.131816 -0.327215 6.7795e-20)
(0.169654 -0.38028 -4.49822e-19)
(0.21295 -0.432306 3.56237e-20)
(0.259144 -0.4818 3.67014e-19)
(0.305494 -0.526264 -3.86471e-19)
(0.351445 -0.565661 -2.58562e-19)
(0.0113686 -0.0409859 -1.77201e-21)
(0.0466249 -0.130878 1.89835e-19)
(0.0896417 -0.225334 1.61386e-21)
(0.133077 -0.307037 -1.0774e-20)
(0.17779 -0.377873 -3.00912e-20)
(0.227246 -0.443857 8.65463e-20)
(0.2811 -0.505623 7.30578e-20)
(0.335673 -0.560892 -1.36128e-19)
(0.389737 -0.609374 9.20871e-21)
(0.443907 -0.651942 -1.04424e-20)
(0.0185094 -0.0507719 0)
(0.067239 -0.15243 5.47877e-21)
(0.12194 -0.253638 -5.10238e-19)
(0.178696 -0.34548 5.15882e-20)
(0.23781 -0.428579 -1.01282e-20)
(0.300518 -0.50509 5.71702e-21)
(0.365312 -0.574376 -2.53991e-20)
(0.429809 -0.635432 -7.76884e-21)
(0.493949 -0.688837 0)
(0.558143 -0.734847 -2.05844e-20)
(0.027326 -0.0596506 3.18306e-20)
(0.0918957 -0.172858 -1.54291e-19)
(0.161767 -0.282526 -4.5979e-20)
(0.23463 -0.383893 -5.83605e-20)
(0.309737 -0.476755 4.9631e-20)
(0.386738 -0.561536 5.56528e-21)
(0.464243 -0.637701 8.96274e-20)
(0.540939 -0.704942 -2.17593e-20)
(0.61691 -0.763442 -6.96287e-19)
(0.69216 -0.812645 -1.01033e-20)
(0.0379751 -0.0676051 6.83351e-22)
(0.121237 -0.19218 5.57056e-20)
(0.209164 -0.310619 -7.84663e-20)
(0.299927 -0.420178 -1.66985e-20)
(0.392137 -0.520671 -7.29185e-20)
(0.484778 -0.612128 -9.52013e-21)
(0.576701 -0.694324 9.92145e-21)
(0.666941 -0.767142 -2.11646e-19)
(0.755525 -0.830262 3.83528e-19)
(0.842317 -0.882317 9.71565e-19)
(0.0503615 -0.0746013 1.51307e-20)
(0.15513 -0.209611 -1.42276e-19)
(0.263462 -0.335965 -2.13776e-19)
(0.37367 -0.452111 8.9015e-20)
(0.484103 -0.558265 -6.43246e-20)
(0.593544 -0.654615 9.87405e-20)
(0.700943 -0.741274 1.96827e-19)
(0.805408 -0.818296 -1.09115e-19)
(0.907019 -0.885108 -3.05951e-19)
(1.00569 -0.939523 7.2536e-19)
(0.0642901 -0.0803599 -2.64889e-20)
(0.193286 -0.224026 -5.78124e-19)
(0.324297 -0.35656 5.24314e-19)
(0.455683 -0.47723 3.37492e-19)
(0.585738 -0.586745 -8.59106e-20)
(0.713224 -0.685658 3.08683e-19)
(0.837129 -0.774431 -1.59967e-19)
(0.956563 -0.853455 -7.72905e-19)
(1.07173 -0.922032 -4.03713e-19)
(1.18267 -0.977276 4.5367e-19)
(0.0795452 -0.0846661 -7.98233e-20)
(0.235846 -0.234417 -5.44356e-19)
(0.392392 -0.370525 -8.27921e-21)
(0.547542 -0.492795 6.88239e-20)
(0.699594 -0.602463 3.37761e-19)
(0.847391 -0.700432 -1.8539e-19)
(0.990012 -0.787439 -1.69474e-19)
(1.12653 -0.863824 1.89e-19)
(1.25681 -0.928646 -3.51623e-19)
(1.38007 -0.980352 -5.84587e-19)
(0.402967 -0.531987 9.84321e-19)
(0.684899 -0.618459 -2.43411e-19)
(0.913786 -0.557769 -1.42793e-19)
(1.08767 -0.431251 2.69067e-19)
(1.24015 -0.280158 -2.3066e-19)
(1.36255 -0.1394 -2.99771e-19)
(1.46016 -0.0334475 -2.66015e-19)
(1.51731 0.0202145 -3.18729e-20)
(1.53816 0.0314506 1.60558e-21)
(1.55415 0.0225929 3.00151e-20)
(0.468909 -0.619854 9.65246e-19)
(0.741539 -0.693891 7.14041e-20)
(0.966332 -0.617816 1.09569e-20)
(1.12485 -0.480489 -2.16121e-19)
(1.2656 -0.320518 -7.16419e-19)
(1.38096 -0.172062 0)
(1.47975 -0.0581026 -2.47075e-19)
(1.55385 0.00619132 5.18611e-20)
(1.59129 0.0251262 4.50603e-21)
(1.61954 0.0191008 1.91276e-21)
(0.55624 -0.70551 -9.981e-19)
(0.810831 -0.766865 -7.09926e-20)
(1.02558 -0.675724 1.56234e-19)
(1.16621 -0.52756 -5.38905e-20)
(1.29124 -0.359661 -3.6397e-20)
(1.39707 -0.204576 6.43927e-20)
(1.4914 -0.0845203 0)
(1.57298 -0.0124644 0)
(1.62673 0.0129337 -1.87629e-20)
(1.67563 0.0130484 0)
(0.665718 -0.787257 -2.24907e-19)
(0.89564 -0.835431 4.04249e-19)
(1.09199 -0.730428 2.68235e-20)
(1.21247 -0.571478 0)
(1.31798 -0.396703 6.05327e-19)
(1.41192 -0.235918 -1.43567e-19)
(1.49897 -0.111123 0)
(1.58049 -0.0327286 1.3283e-19)
(1.63564 -0.00406152 0)
(1.71547 0.00195558 -1.3126e-20)
(0.795749 -0.863941 -1.48916e-19)
(0.997655 -0.897604 4.54847e-19)
(1.16622 -0.78077 -1.46569e-20)
(1.26382 -0.611416 0)
(1.3465 -0.430826 1.78874e-19)
(1.42589 -0.26538 2.70087e-19)
(1.50445 -0.136735 4.7578e-20)
(1.58155 -0.0528983 6.69608e-21)
(1.63331 -0.0217281 -2.28151e-20)
(1.72369 -0.0121665 3.30633e-20)
(0.942251 -0.934808 -1.33146e-18)
(1.11649 -0.952032 -9.4212e-19)
(1.24886 -0.825484 4.76089e-21)
(1.32002 -0.64665 5.75299e-19)
(1.37719 -0.461244 -3.04272e-19)
(1.43905 -0.292436 1.46877e-19)
(1.50832 -0.160668 2.32977e-19)
(1.57874 -0.0720454 -1.87892e-19)
(1.62841 -0.0395554 -1.90176e-21)
(1.71813 -0.0256717 2.40553e-20)
(1.1001 -0.999483 -2.60535e-19)
(1.25001 -0.998529 2.86605e-19)
(1.34018 -0.863454 3.94047e-21)
(1.38077 -0.676495 -1.76188e-20)
(1.41015 -0.487183 -5.89307e-19)
(1.4514 -0.316546 5.41312e-20)
(1.51011 -0.182501 -9.39733e-20)
(1.57298 -0.0902615 -2.70116e-20)
(1.62426 -0.0551889 -1.00224e-21)
(1.69228 -0.0385799 -2.29659e-20)
(1.26432 -1.05686 -1.20077e-18)
(1.39474 -1.0377 2.09958e-19)
(1.43915 -0.894087 0)
(1.4451 -0.700522 3.4484e-20)
(1.44472 -0.508119 5.19668e-19)
(1.4626 -0.337206 -1.53647e-21)
(1.50873 -0.202254 -3.11679e-19)
(1.56492 -0.10677 6.08318e-20)
(1.61457 -0.069663 -8.75561e-22)
(1.63989 -0.045355 -2.78025e-20)
(1.432 -1.10351 3.39105e-18)
(1.54804 -1.07045 2.46059e-19)
(1.54559 -0.91809 4.64231e-19)
(1.51326 -0.719153 -3.17961e-20)
(1.48098 -0.524209 -3.43925e-20)
(1.47261 -0.35428 -4.27718e-19)
(1.50185 -0.219744 9.14124e-20)
(1.55469 -0.121717 3.06505e-21)
(1.56873 -0.0763444 -2.47554e-20)
(1.57606 -0.0472557 3.50056e-20)
(1.59924 -1.1282 -2.99821e-18)
(1.70185 -1.09565 1.27223e-18)
(1.65394 -0.938108 -2.32949e-19)
(1.58138 -0.735877 -7.88553e-19)
(1.51589 -0.539034 -6.5489e-19)
(1.47874 -0.37154 -2.54559e-19)
(1.48956 -0.237255 -6.73986e-20)
(1.51269 -0.134182 0)
(1.50608 -0.0774355 -5.8042e-20)
(1.50416 -0.0475465 1.22579e-19)
(1.88819 -1.17023 -6.71191e-18)
(1.92739 -1.10519 -1.69191e-18)
(1.80485 -0.93231 -5.84117e-20)
(1.67306 -0.72772 1.11913e-19)
(1.56242 -0.534188 1.60277e-19)
(1.48631 -0.373287 -1.0292e-19)
(1.44922 -0.241477 -4.0367e-20)
(1.42733 -0.134336 7.09553e-20)
(1.41587 -0.0753854 -5.82821e-20)
(1.40564 -0.0467739 -5.63213e-20)
(2.28933 -1.13487 4.95794e-19)
(2.17884 -1.05673 -2.88538e-19)
(1.94273 -0.865365 4.96756e-19)
(1.73563 -0.664864 -8.50477e-20)
(1.56224 -0.480871 4.4079e-21)
(1.42636 -0.333726 -6.87333e-20)
(1.34258 -0.217911 9.64651e-20)
(1.30919 -0.123796 -3.3069e-20)
(1.29168 -0.0700114 2.05042e-19)
(1.27569 -0.0439026 9.18301e-20)
(2.61059 -1.04361 2.2709e-18)
(2.35195 -0.948787 3.25805e-19)
(2.00826 -0.759493 -1.17796e-19)
(1.73249 -0.572983 1.63046e-36)
(1.50536 -0.41077 -2.55191e-20)
(1.33905 -0.286728 1.50685e-33)
(1.23438 -0.190293 -1.97744e-20)
(1.18306 -0.111401 -1.64513e-33)
(1.15977 -0.0632165 6.82667e-21)
(1.1387 -0.0398179 -1.43576e-20)
(2.78703 -0.893975 3.88679e-33)
(2.36943 -0.795636 2.96663e-18)
(1.97359 -0.630494 1.81799e-18)
(1.65342 -0.469422 0)
(1.40651 -0.334927 8.33117e-19)
(1.22968 -0.233668 4.30159e-19)
(1.11382 -0.156461 1.69778e-19)
(1.0505 -0.0947777 -2.88773e-33)
(1.02127 -0.0546319 -5.87728e-20)
(0.996124 -0.0346038 9.18169e-21)
(2.76365 -0.705896 3.84273e-18)
(2.24589 -0.629887 -1.46814e-19)
(1.84652 -0.491024 0)
(1.51551 -0.361713 0)
(1.27126 -0.255706 0)
(1.09726 -0.178432 0)
(0.980738 -0.120941 -1.2703e-20)
(0.911708 -0.0755785 -4.18542e-33)
(0.877863 -0.0444771 7.64559e-21)
(0.849573 -0.0285104 8.09109e-34)
(2.55117 -0.517038 3.26573e-18)
(2.02005 -0.462917 0)
(1.63855 -0.353645 0)
(1.32674 -0.256746 0)
(1.10093 -0.179703 0)
(0.941676 -0.125541 0)
(0.833404 -0.0860818 3.29847e-20)
(0.765564 -0.0553773 -9.12588e-20)
(0.729845 -0.0332945 8.52999e-21)
(0.700022 -0.0218255 3.31177e-20)
(2.19012 -0.342712 0)
(1.70262 -0.303513 1.09824e-18)
(1.36128 -0.227608 1.09035e-18)
(1.0913 -0.161992 0)
(0.898384 -0.112338 6.66869e-19)
(0.763974 -0.0787043 4.04742e-19)
(0.671546 -0.0546407 2.51611e-19)
(0.611066 -0.0361471 8.35909e-20)
(0.577079 -0.0220863 -2.70132e-20)
(0.548084 -0.0150321 -4.30754e-21)
(1.70285 -0.191137 -6.73873e-19)
(1.30018 -0.165594 -2.74166e-19)
(1.02505 -0.121756 1.75645e-19)
(0.815079 -0.0844375 -2.11258e-34)
(0.667696 -0.0580816 -7.70617e-20)
(0.566152 -0.0410403 3.71089e-33)
(0.495563 -0.0289493 4.88408e-20)
(0.447692 -0.0197597 9.87821e-20)
(0.419259 -0.0121357 9.90548e-21)
(0.394105 -0.00876595 -2.54534e-21)
(1.10088 -0.0758215 3.40805e-18)
(0.823158 -0.0626786 -1.86552e-19)
(0.64058 -0.0442931 -5.88879e-19)
(0.506145 -0.028988 0)
(0.413816 -0.0195677 -6.40087e-19)
(0.350643 -0.0141244 -4.32412e-19)
(0.306123 -0.0103044 -2.039e-19)
(0.274995 -0.00746814 -1.42171e-19)
(0.255671 -0.00463335 1.70332e-19)
(0.237969 -0.00369898 -2.78633e-20)
(0.397352 -0.00331881 0)
(0.287866 0.00159419 0)
(0.220891 0.00409435 0)
(0.173551 0.00624751 0)
(0.142372 0.00585641 0)
(0.12119 0.00471449 0)
(0.10586 0.00368053 5.60804e-20)
(0.0946839 0.00257164 -2.17551e-34)
(0.0873612 0.00214455 1.24636e-20)
(0.0802686 0.00090452 1.13316e-20)
(3.3671 -0.0863118 5.39208e-19)
(3.32642 -0.265086 -8.41901e-20)
(3.24735 -0.430657 8.52093e-19)
(3.13238 -0.582159 -6.04749e-19)
(2.98634 -0.718126 6.66401e-19)
(2.81524 -0.836383 2.75237e-19)
(2.6266 -0.934059 -1.92752e-18)
(2.42951 -1.00785 -7.74663e-20)
(2.22468 -1.05368 0)
(1.98486 -1.06656 4.26126e-19)
(3.86191 -0.0750597 7.07368e-18)
(3.79859 -0.234214 1.95637e-18)
(3.70428 -0.387312 -4.86732e-18)
(3.58426 -0.531993 -4.49091e-19)
(3.44238 -0.665895 3.55889e-18)
(3.28186 -0.787322 1.92344e-18)
(3.1065 -0.89507 -5.16865e-18)
(2.92204 -0.987705 -1.95218e-18)
(2.72759 -1.06339 2.20315e-18)
(2.49237 -1.12052 8.52172e-19)
(3.83308 -0.053301 -1.26251e-19)
(3.82024 -0.171567 4.40361e-18)
(3.78546 -0.299762 -1.08825e-18)
(3.72434 -0.43092 -3.44613e-18)
(3.63618 -0.558732 -6.8001e-18)
(3.52371 -0.678804 1.02787e-17)
(3.39117 -0.788794 4.18064e-18)
(3.2435 -0.887986 -3.91183e-18)
(3.08161 -0.978718 -2.90277e-18)
(2.88723 -1.063 -3.42504e-18)
(3.62866 -0.047286 -4.83943e-18)
(3.61961 -0.144932 -4.35349e-18)
(3.59963 -0.243741 5.47222e-18)
(3.56735 -0.343095 1.91191e-18)
(3.52241 -0.442379 -8.9714e-18)
(3.46416 -0.540809 4.92208e-19)
(3.39183 -0.637047 3.88639e-18)
(3.30512 -0.730432 -1.05396e-18)
(3.20499 -0.823066 1.27682e-18)
(3.08306 -0.914774 2.81768e-19)
(3.34405 -0.0365784 -9.16003e-19)
(3.339 -0.111656 3.00412e-18)
(3.3271 -0.188677 1.6196e-18)
(3.30744 -0.267172 -1.89429e-18)
(3.27986 -0.346071 -2.00139e-18)
(3.24465 -0.424138 -2.43401e-18)
(3.20204 -0.500336 3.79665e-19)
(3.15176 -0.574495 1.39036e-19)
(3.09549 -0.64776 -2.13975e-18)
(3.03286 -0.721305 -2.0344e-18)
(2.96257 -0.0265546 -1.82251e-18)
(2.95981 -0.079889 -5.8723e-20)
(2.9533 -0.134599 -1.63755e-18)
(2.9424 -0.190903 3.12128e-19)
(2.92675 -0.248551 5.36787e-18)
(2.90629 -0.30693 -3.66749e-19)
(2.88092 -0.365116 4.4339e-20)
(2.85023 -0.42206 -2.60861e-18)
(2.81644 -0.476883 -3.49569e-18)
(2.786 -0.529865 3.72827e-19)
(2.48713 -0.0175108 -2.89313e-20)
(2.48578 -0.0519348 -8.14317e-19)
(2.48259 -0.0872483 -2.61487e-18)
(2.47707 -0.123771 -3.43104e-18)
(2.4688 -0.161534 2.49657e-18)
(2.45744 -0.200268 1.50226e-18)
(2.44261 -0.239354 -1.38508e-18)
(2.4237 -0.277791 1.6245e-18)
(2.40275 -0.314483 -4.29711e-19)
(2.38953 -0.349541 -9.63776e-19)
(1.91464 -0.00968843 7.72463e-19)
(1.91408 -0.0282976 -8.31807e-19)
(1.91278 -0.0474397 -3.27698e-20)
(1.91031 -0.0673591 -3.47231e-20)
(1.90624 -0.0881301 -7.27405e-20)
(1.90013 -0.109614 -2.33196e-18)
(1.89151 -0.131405 -6.78681e-19)
(1.87978 -0.152782 2.62613e-18)
(1.86664 -0.172975 -6.03512e-19)
(1.86191 -0.192207 -1.35115e-18)
(1.23988 -0.00373765 -1.64283e-18)
(1.23967 -0.0106957 -8.48917e-19)
(1.23923 -0.0179012 2.33921e-18)
(1.23823 -0.0254786 -8.89781e-19)
(1.23625 -0.0334753 -6.74128e-19)
(1.2329 -0.0418316 1.35204e-18)
(1.22775 -0.0503499 -1.2959e-18)
(1.22038 -0.0586654 1.287e-18)
(1.21202 -0.0663424 -1.21033e-18)
(1.21007 -0.0735081 -4.24831e-18)
(0.454916 -0.000257979 6.63085e-19)
(0.454827 -0.000700532 7.03058e-19)
(0.454692 -0.00115912 7.48186e-19)
(0.454325 -0.00164005 1.35398e-18)
(0.453496 -0.00214018 -6.7199e-19)
(0.451984 -0.00263718 -1.29963e-18)
(0.449567 -0.0030991 6.14719e-19)
(0.445992 -0.00359292 2.48373e-20)
(0.441737 -0.00439222 -4.96532e-20)
(0.44035 -0.00504562 1.1057e-19)
(1.65355 0.997262 -2.85788e-19)
(1.51227 0.94185 1.79968e-20)
(1.35879 0.880739 -2.28624e-19)
(1.19767 0.808433 1.76339e-19)
(1.02957 0.723975 -1.91959e-19)
(0.854823 0.627074 -1.01102e-19)
(0.673759 0.51694 2.31983e-19)
(0.487035 0.392146 -3.04914e-19)
(0.295891 0.250643 3.09877e-19)
(0.10143 0.0916437 2.38716e-19)
(1.88638 0.992182 0)
(1.72967 0.934733 6.39282e-19)
(1.56083 0.872763 3.32458e-19)
(1.38228 0.801849 1.62752e-19)
(1.19453 0.719875 4.31261e-19)
(0.997533 0.625897 -8.68512e-20)
(0.79136 0.518601 -7.85397e-20)
(0.576346 0.39599 8.87697e-20)
(0.353318 0.255175 -1.04516e-18)
(0.122698 0.0943551 -1.66443e-20)
(2.09103 0.959031 1.56804e-19)
(1.92523 0.905063 0)
(1.74614 0.846458 -1.00737e-19)
(1.55493 0.779547 -3.83397e-19)
(1.3517 0.702081 5.37068e-20)
(1.13609 0.612789 3.97118e-19)
(0.907783 0.510088 -6.06878e-19)
(0.666589 0.391638 -2.00881e-19)
(0.412595 0.254044 7.83587e-19)
(0.145251 0.094735 -1.75938e-19)
(2.28484 0.89835 1.87988e-19)
(2.11044 0.850557 1.19917e-20)
(1.9213 0.797859 2.45128e-20)
(1.71811 0.736999 3.60926e-20)
(1.50058 0.665855 -2.92739e-20)
(1.26792 0.583131 2.73256e-19)
(1.01926 0.487168 -2.06876e-19)
(0.753674 0.37553 -8.55568e-19)
(0.47027 0.244678 0)
(0.167388 0.0916964 0)
(2.46796 0.811816 -1.07079e-18)
(2.28435 0.770834 -6.09151e-19)
(2.08493 0.72506 -1.2067e-19)
(1.87003 0.671521 -6.65717e-20)
(1.6389 0.608294 0)
(1.39031 0.534136 2.4075e-19)
(1.12275 0.447434 2.67776e-19)
(0.834555 0.345835 2.8624e-19)
(0.523839 0.225953 -4.23743e-19)
(0.187908 0.084898 -8.12343e-20)
(2.634 0.702091 7.6639e-19)
(2.44156 0.668062 -1.39172e-19)
(2.23244 0.629678 -2.21572e-19)
(2.00664 0.584305 0)
(1.76301 0.530278 0)
(1.49988 0.466488 0)
(1.21522 0.391463 -3.89803e-20)
(0.906684 0.30309 3.70275e-19)
(0.571498 0.198348 3.79145e-19)
(0.206083 0.0746242 -3.08566e-19)
(2.7758 0.572354 -1.19355e-18)
(2.5755 0.545259 -1.48135e-18)
(2.35786 0.514529 -3.0329e-22)
(2.1226 0.477946 -1.8766e-19)
(1.86818 0.434181 -9.28796e-20)
(1.59258 0.382318 -1.78839e-19)
(1.29333 0.321124 4.5909e-19)
(0.967489 0.248837 2.14862e-19)
(0.611583 0.162967 5.40024e-19)
(0.221314 0.0613402 2.02852e-19)
(2.88707 0.425748 -1.15708e-18)
(2.68027 0.405633 8.47052e-20)
(2.45576 0.38282 1.64526e-19)
(2.21297 0.355611 1.68172e-20)
(1.95004 0.323051 -3.14403e-19)
(1.66465 0.284468 -1.7421e-19)
(1.35398 0.238937 -6.21208e-19)
(1.01464 0.18514 1.1853e-19)
(0.642604 0.121237 5.14753e-20)
(0.233066 0.0456127 -6.26904e-21)
(2.9628 0.265187 1.01363e-19)
(2.75121 0.252354 3.97005e-19)
(2.52189 0.237904 -3.30292e-19)
(2.27394 0.22074 3.63015e-19)
(2.00524 0.200297 3.72548e-19)
(1.71322 0.176176 4.91896e-19)
(1.39481 0.147809 -6.35738e-19)
(1.04633 0.11439 -3.24415e-19)
(0.663411 0.0748097 -4.58506e-20)
(0.240916 0.0280951 -3.26994e-19)
(3.00052 0.0935773 5.81812e-19)
(2.78612 0.0887858 -1.86158e-19)
(2.55425 0.0834441 4.79563e-19)
(2.30367 0.0771503 -3.10668e-19)
(2.03208 0.069728 2.66478e-19)
(1.73679 0.061062 6.0541e-19)
(1.41457 0.0509785 3.78885e-19)
(1.06161 0.0392347 3.09342e-19)
(0.673396 0.0255066 2.65861e-19)
(0.244654 0.00950723 5.43614e-19)
(0.239578 0.4521 -4.69193e-19)
(0.203977 0.418379 -1.87583e-19)
(0.168412 0.381297 1.39164e-19)
(0.134886 0.343635 -4.19297e-19)
(0.105154 0.307512 -1.19447e-19)
(0.0782576 0.27026 6.92764e-19)
(0.0518817 0.223854 3.35829e-19)
(0.0259646 0.159003 -1.55594e-19)
(0.00705972 0.0797085 1.1463e-19)
(-0.00112447 0.0224504 -6.07346e-20)
(0.28864 0.544378 4.11364e-19)
(0.248736 0.507584 4.58294e-19)
(0.208189 0.465534 -1.16931e-20)
(0.167862 0.418508 -1.32694e-19)
(0.131141 0.370386 -3.13185e-19)
(0.10061 0.32279 8.28252e-20)
(0.0734805 0.269465 2.25076e-19)
(0.0458972 0.197005 1.6541e-19)
(0.0183435 0.101918 -5.90967e-19)
(0.00279043 0.0288811 -1.23614e-19)
(0.35966 0.63319 -6.00824e-19)
(0.313795 0.593042 -4.81407e-19)
(0.267998 0.547204 2.57589e-19)
(0.221355 0.493894 1.38197e-19)
(0.17581 0.434132 -6.0659e-21)
(0.136272 0.371921 -1.40044e-19)
(0.10212 0.305652 -2.94542e-20)
(0.0684384 0.224928 -5.55167e-19)
(0.0336724 0.126042 -2.69402e-19)
(0.00763925 0.0378027 -3.90649e-20)
(0.45422 0.717928 5.0326e-19)
(0.400062 0.673733 1.64746e-19)
(0.346368 0.622721 -1.49375e-19)
(0.292231 0.563676 6.32657e-20)
(0.237749 0.495577 -5.6539e-22)
(0.186586 0.420898 1.32073e-21)
(0.140104 0.340678 -1.32282e-19)
(0.0954604 0.250266 3.78479e-19)
(0.051436 0.147744 -4.1929e-19)
(0.0135815 0.0477123 -6.51085e-20)
(0.572007 0.797895 -2.82173e-19)
(0.50786 0.7498 -8.88978e-20)
(0.443579 0.692953 -1.43467e-20)
(0.378969 0.627232 -7.02518e-20)
(0.31372 0.551973 5.85366e-20)
(0.249662 0.468073 5.27213e-20)
(0.188379 0.37672 -2.79292e-20)
(0.129324 0.276655 -2.82164e-19)
(0.072527 0.167642 2.18359e-19)
(0.0209186 0.0568401 8.72739e-20)
(0.709414 0.870975 6.43368e-19)
(0.634366 0.819591 3.20839e-19)
(0.55813 0.757424 2.03136e-19)
(0.480855 0.685361 4.82147e-20)
(0.402412 0.603525 1.55011e-19)
(0.32387 0.512358 7.84455e-20)
(0.246466 0.412514 1.4334e-19)
(0.170865 0.303908 5.79364e-20)
(0.0980531 0.186797 -1.59481e-20)
(0.0299971 0.06503 -1.33347e-20)
(0.862017 0.934888 -1.19768e-19)
(0.775539 0.880689 -8.24972e-19)
(0.686701 0.814063 -7.61966e-20)
(0.595723 0.736819 -5.21156e-20)
(0.502561 0.649618 -1.96496e-20)
(0.408124 0.552704 1.51493e-19)
(0.313477 0.446304 -4.38188e-20)
(0.219709 0.330408 6.49885e-20)
(0.128293 0.205077 -1.44615e-19)
(0.040904 0.0724933 -1.25612e-21)
(1.02672 0.986047 -8.84777e-19)
(0.928465 0.929647 5.94297e-20)
(0.826654 0.859711 -2.33852e-19)
(0.721461 0.778886 -7.24901e-20)
(0.612767 0.688004 -2.40439e-20)
(0.501456 0.587063 -7.51811e-20)
(0.388526 0.475889 5.62791e-20)
(0.275163 0.354192 6.0306e-20)
(0.162982 0.221556 -9.82132e-21)
(0.053544 0.0791204 -1.03791e-19)
(1.20389 1.01794 1.23825e-19)
(1.0935 0.960949 5.2314e-19)
(0.978251 0.889724 1.5528e-21)
(0.858221 0.807555 -2.9611e-20)
(0.733144 0.715299 1.50885e-19)
(0.603891 0.612547 -3.4731e-19)
(0.471403 0.498749 -2.44386e-19)
(0.33683 0.373207 3.56115e-19)
(0.201771 0.235006 1.44184e-19)
(0.0677021 0.0845325 -3.62246e-20)
(1.40058 1.01547 7.39763e-19)
(1.27806 0.96235 3.23722e-19)
(1.14783 0.895369 5.59255e-20)
(1.01087 0.816405 -1.94962e-19)
(0.86727 0.726523 -1.64374e-20)
(0.717901 0.625337 4.65596e-19)
(0.563584 0.512004 -2.68226e-19)
(0.405341 0.385475 -1.84483e-19)
(0.244705 0.244319 3.35796e-19)
(0.083114 0.0884409 -6.04693e-21)
(0.976817 0.0985278 8.65798e-21)
(1.14277 0.142102 -1.19373e-21)
(1.21368 0.190341 -2.34562e-20)
(1.32624 0.170832 0)
(1.37772 0.155637 5.27008e-22)
(1.27899 0.234357 -5.38156e-20)
(1.12943 0.385642 -5.42265e-20)
(0.949393 0.543539 -1.21996e-20)
(0.711685 0.648417 -3.04776e-19)
(0.416564 0.595609 4.26114e-19)
(0.98206 0.0796176 1.96296e-19)
(1.13474 0.114447 -3.07687e-20)
(1.21005 0.159953 1.89761e-21)
(1.31711 0.151992 1.16387e-20)
(1.3807 0.157799 3.49515e-21)
(1.29873 0.268965 -2.71686e-21)
(1.15936 0.435825 1.39781e-20)
(0.993992 0.60662 0)
(0.761567 0.727477 7.97906e-19)
(0.479419 0.686812 -5.67062e-19)
(0.98688 0.0609858 -1.13403e-19)
(1.13128 0.0878283 6.71152e-21)
(1.20947 0.13043 7.77767e-20)
(1.31403 0.131854 1.91615e-20)
(1.38377 0.159106 -2.31617e-20)
(1.31862 0.301476 -3.49372e-20)
(1.19244 0.484498 -9.57923e-21)
(1.04409 0.66812 4.45947e-20)
(0.823148 0.803958 -1.25313e-21)
(0.56449 0.774597 -3.70601e-19)
(0.991059 0.0420865 -8.08886e-20)
(1.13197 0.0618048 1.54293e-20)
(1.21246 0.101585 7.55156e-20)
(1.31724 0.111553 3.08304e-20)
(1.38952 0.159944 -2.37646e-20)
(1.33878 0.331855 -2.69899e-20)
(1.22901 0.530955 7.33068e-20)
(1.10022 0.726907 2.6888e-20)
(0.899929 0.875601 -5.46435e-19)
(0.673712 0.857002 -1.77862e-19)
(0.994456 0.0225699 3.6738e-20)
(1.13605 0.0359012 -4.66024e-20)
(1.2186 0.0733059 -6.77541e-20)
(1.32536 0.0917382 2.24556e-20)
(1.3969 0.161314 0)
(1.3589 0.360537 0)
(1.26916 0.574547 7.64331e-20)
(1.16352 0.781597 -2.82572e-20)
(0.994684 0.93992 -1.18118e-19)
(0.805118 0.932384 -5.73752e-20)
(0.996944 0.00227946 3.41836e-21)
(1.14262 0.00970373 5.79501e-20)
(1.22699 0.0454985 -2.0776e-19)
(1.33654 0.0729609 -7.67128e-20)
(1.40467 0.164036 -4.84421e-21)
(1.37888 0.387685 1.2476e-19)
(1.31307 0.614417 1.52694e-19)
(1.23553 0.83047 -1.80492e-20)
(1.10782 0.995115 -4.36315e-20)
(0.953766 1.0001 2.79092e-21)
(0.997796 -0.0190141 1.6584e-21)
(1.15083 -0.0171398 2.9692e-20)
(1.23665 0.0181804 -6.55475e-20)
(1.34932 0.0557449 -1.54611e-19)
(1.41191 0.168348 1.1802e-20)
(1.39899 0.412973 7.38949e-21)
(1.36134 0.64945 -5.96149e-20)
(1.31736 0.871871 -1.08713e-19)
(1.2373 1.0409 -3.03205e-20)
(1.11388 1.06029 -9.79999e-19)
(0.995895 -0.0411197 1.48878e-20)
(1.16011 -0.0449135 -1.43574e-19)
(1.24685 -0.00847878 1.32496e-19)
(1.36249 0.0408416 1.02063e-19)
(1.41747 0.174716 5.02236e-21)
(1.41918 0.435948 -1.32628e-19)
(1.41386 0.678615 1.10488e-22)
(1.40836 0.904865 -1.30744e-19)
(1.37933 1.07815 1.11036e-20)
(1.27987 1.11239 2.88343e-18)
(0.990977 -0.0633689 -8.7637e-20)
(1.17035 -0.0737333 8.03159e-20)
(1.25717 -0.0343106 1.90473e-19)
(1.37538 0.0283696 -1.14469e-19)
(1.42189 0.182898 -2.25553e-19)
(1.44104 0.456316 9.25928e-21)
(1.47191 0.701778 1.68916e-19)
(1.5085 0.930154 -5.72993e-19)
(1.53085 1.10814 -2.68447e-20)
(1.44835 1.15337 -6.47476e-18)
(0.983953 -0.0862306 4.10852e-21)
(1.18184 -0.103576 1.41271e-19)
(1.26744 -0.0591201 6.12784e-20)
(1.38678 0.0206638 -2.75984e-19)
(1.42297 0.196935 -2.44022e-19)
(1.46212 0.477663 -7.21279e-20)
(1.53114 0.722722 8.00567e-20)
(1.6116 0.951082 -2.07615e-19)
(1.68374 1.1305 -1.08656e-18)
(1.61563 1.17234 -7.95157e-18)
(0.97415 -0.117302 -1.4497e-20)
(1.19589 -0.143189 -3.26112e-20)
(1.27684 -0.0926779 -7.66029e-20)
(1.39745 0.00619758 1.40966e-19)
(1.42496 0.195968 2.01681e-19)
(1.49188 0.47321 -6.04237e-20)
(1.61191 0.712135 -1.41612e-19)
(1.75379 0.940224 -1.20179e-18)
(1.90279 1.13249 -1.5993e-18)
(1.89935 1.20868 3.28628e-18)
(0.96194 -0.155925 -4.05369e-19)
(1.21417 -0.192619 1.73104e-20)
(1.2807 -0.138745 -5.79093e-20)
(1.39779 -0.0153992 3.34052e-19)
(1.40358 0.173993 3.44483e-19)
(1.4935 0.428446 -1.31364e-22)
(1.66811 0.647815 -6.64478e-20)
(1.88068 0.865805 -2.8805e-19)
(2.13955 1.07133 2.77627e-19)
(2.28452 1.16081 -3.23435e-19)
(0.949356 -0.19635 -2.78895e-20)
(1.23929 -0.242455 -5.4896e-20)
(1.27959 -0.183176 3.07011e-20)
(1.39287 -0.0339336 2.70074e-20)
(1.37724 0.162834 1.72354e-33)
(1.47008 0.371269 2.55051e-21)
(1.68049 0.561302 -2.04024e-33)
(1.94904 0.759533 1.85278e-19)
(2.30192 0.956371 -9.31031e-19)
(2.58733 1.05844 -6.29295e-19)
(0.937002 -0.243017 1.41125e-18)
(1.27071 -0.282408 -7.7512e-34)
(1.24937 -0.228683 -4.03147e-20)
(1.27068 -0.036479 -2.28299e-19)
(1.26267 0.144595 -4.46689e-19)
(1.38939 0.30243 -8.85171e-19)
(1.61914 0.459998 -5.0667e-33)
(1.92923 0.631044 -1.738e-18)
(2.32579 0.802072 -3.17742e-18)
(2.75373 0.902577 1.67523e-18)
(0.927283 -0.30054 0)
(1.31631 -0.327211 -1.61826e-33)
(1.11263 -0.206986 0)
(1.10732 -0.0295127 0)
(1.11939 0.11506 0)
(1.25862 0.23284 0)
(1.48964 0.355386 -8.07009e-33)
(1.81502 0.491525 0)
(2.21347 0.634262 -3.39742e-19)
(2.73499 0.712005 1.25754e-18)
(0.916479 -0.36081 1.16126e-19)
(1.25166 -0.326215 -4.68847e-19)
(0.960001 -0.174067 -5.4981e-20)
(0.934021 -0.0257809 0)
(0.956405 0.0827057 0)
(1.09014 0.165463 6.04653e-20)
(1.30637 0.253871 1.17744e-18)
(1.61597 0.35466 -1.9506e-19)
(1.99672 0.466189 -4.95304e-19)
(2.53246 0.520473 4.67303e-18)
(0.883463 -0.405317 -1.52016e-17)
(1.0921 -0.279948 1.08745e-18)
(0.792656 -0.130484 -7.27232e-20)
(0.74705 -0.021028 -7.51482e-20)
(0.773027 0.0525608 -5.12253e-19)
(0.889596 0.104518 -7.72663e-19)
(1.07635 0.16125 -1.04837e-18)
(1.34606 0.229 -1.3827e-18)
(1.68762 0.30611 -1.60561e-18)
(2.17993 0.344443 3.61281e-18)
(0.809 -0.394518 -4.13659e-19)
(0.886475 -0.20759 -1.21644e-18)
(0.605551 -0.0828454 -1.2567e-19)
(0.549698 -0.0152755 -8.41873e-20)
(0.571947 0.0276304 -9.87554e-34)
(0.661635 0.054539 9.3788e-20)
(0.805472 0.0845678 -1.48565e-32)
(1.01622 0.12293 -1.93436e-19)
(1.29247 0.167304 2.98941e-19)
(1.69929 0.19207 7.05765e-19)
(0.664251 -0.288844 3.42549e-17)
(0.618258 -0.108099 -3.14019e-18)
(0.393378 -0.0351109 -2.40747e-19)
(0.339385 -0.00735896 -1.57637e-19)
(0.353794 0.00926221 3.93859e-19)
(0.410488 0.0183558 7.84074e-19)
(0.50121 0.0291826 7.9519e-19)
(0.636734 0.0448807 4.59846e-19)
(0.820755 0.0634549 -1.90404e-19)
(1.10156 0.0762251 3.56937e-18)
(0.336836 -0.0768241 5.58815e-19)
(0.261851 -0.00230486 -6.76604e-33)
(0.144383 0.0190775 -3.04962e-19)
(0.120404 0.00336171 0)
(0.123628 -0.00234766 0)
(0.14186 -0.00541328 9.64338e-20)
(0.172378 -0.00624558 9.34629e-35)
(0.220297 -0.00417567 -1.23574e-19)
(0.28813 -0.00161898 -2.82605e-19)
(0.399009 0.00331835 1.00157e-18)
(2.00205 1.09641 -1.78981e-18)
(2.23906 1.07845 -2.30495e-18)
(2.44207 1.0291 0)
(2.63707 0.952501 -7.58063e-19)
(2.82358 0.852508 -1.78276e-18)
(2.99276 0.732391 -2.2495e-18)
(3.13709 0.595042 -4.75902e-19)
(3.25054 0.442699 1.26928e-18)
(3.32824 0.276965 -3.54792e-18)
(3.36764 0.0986984 1.35669e-18)
(2.49866 1.14197 2.6773e-19)
(2.73055 1.08191 1.39733e-18)
(2.92387 1.0042 1.43904e-19)
(3.10673 0.909801 6.75774e-19)
(3.2806 0.800661 -1.10401e-18)
(3.43997 0.678326 -5.00048e-18)
(3.58096 0.544013 2.46796e-18)
(3.70047 0.399322 1.27035e-17)
(3.79428 0.246325 1.04066e-19)