/*--------------------------------*- C++ -*----------------------------------*\
  =========                 |
  \\      /  F ield         | OpenFOAM: The Open Source CFD Toolbox
   \\    /   O peration     | Website:  https://openfoam.org
    \\  /    A nd           | Version:  13
     \\/     M anipulation  |
\*---------------------------------------------------------------------------*/
FoamFile
{
    format      ascii;
    class       volScalarField;
    location    "4.5";
    object      p;
}
// * * * * * * * * * * * * * * * * * * * * * * * * * * * * * * * * * * * * * //

dimensions      [0 2 -2 0 0 0 0];

internalField   nonuniform List<scalar> 
1800
(
-0.786093
-0.786508
-0.785867
-0.783719
-0.780484
-0.777296
-0.775877
-0.78018
-0.79077
-0.842167
-0.801346
-0.799969
-0.797413
-0.793352
-0.78805
-0.78217
-0.777391
-0.776057
-0.776988
-0.81725
-0.825826
-0.821915
-0.817354
-0.811803
-0.805718
-0.799571
-0.793926
-0.78988
-0.78798
-0.803825
-0.858914
-0.852287
-0.845108
-0.837462
-0.829574
-0.82154
-0.813364
-0.805268
-0.798292
-0.795703
-0.905019
-0.895528
-0.885827
-0.875741
-0.864915
-0.852721
-0.83863
-0.822603
-0.805463
-0.788431
-0.965747
-0.953407
-0.940748
-0.927091
-0.910815
-0.890671
-0.866356
-0.8385
-0.808303
-0.777082
-1.04033
-1.02529
-1.00875
-0.989078
-0.96339
-0.930832
-0.89254
-0.850663
-0.807303
-0.76453
-1.124
-1.10668
-1.08449
-1.05487
-1.01501
-0.965954
-0.911214
-0.854376
-0.798063
-0.743984
-1.20814
-1.18862
-1.15814
-1.11417
-1.05607
-0.988256
-0.916642
-0.845599
-0.777569
-0.713832
-1.28076
-1.25855
-1.21695
-1.15518
-1.07674
-0.990108
-0.902705
-0.818789
-0.740235
-0.667613
-1.06778
-1.07615
-1.08754
-1.10288
-1.1235
-1.14921
-1.17917
-1.21291
-1.25165
-1.29732
-0.980177
-0.987284
-0.996048
-1.0074
-1.02267
-1.04187
-1.06431
-1.08957
-1.11854
-1.15248
-0.922277
-0.927044
-0.932496
-0.939033
-0.948222
-0.960131
-0.974075
-0.989262
-1.00528
-1.0219
-0.889488
-0.890618
-0.892086
-0.894463
-0.898734
-0.904972
-0.912666
-0.920957
-0.928441
-0.93378
-0.866542
-0.864717
-0.863205
-0.862428
-0.862921
-0.864731
-0.86754
-0.87084
-0.873181
-0.870673
-0.844855
-0.841445
-0.838028
-0.834827
-0.831956
-0.829458
-0.827234
-0.825052
-0.82205
-0.81454
-0.823233
-0.819848
-0.815921
-0.811221
-0.805473
-0.798615
-0.790677
-0.781726
-0.771747
-0.759473
-0.803156
-0.801289
-0.798334
-0.79355
-0.786492
-0.77697
-0.765013
-0.75089
-0.735547
-0.720395
-0.787878
-0.787817
-0.786407
-0.782657
-0.776302
-0.767297
-0.755893
-0.742706
-0.728812
-0.714525
-0.778508
-0.779633
-0.779071
-0.776171
-0.77111
-0.76426
-0.756356
-0.748592
-0.741826
-0.733889
-1.56322
-1.74766
-1.32467
-1.00872
-0.906492
-0.58065
-0.324937
-0.112997
-0.019836
0.0211938
-1.36712
-1.5562
-1.34126
-1.16676
-1.04992
-0.642649
-0.348976
-0.123019
-0.0241565
0.0185666
-1.14163
-1.37038
-1.33147
-1.31334
-1.171
-0.704762
-0.372892
-0.134369
-0.0295285
0.0150912
-0.996333
-1.22007
-1.32032
-1.43872
-1.26798
-0.762653
-0.39627
-0.146993
-0.035993
0.0109268
-0.888185
-1.1135
-1.32439
-1.53757
-1.34257
-0.81361
-0.418994
-0.160961
-0.0436225
0.00621406
-0.798548
-1.03222
-1.33189
-1.60205
-1.39496
-0.856138
-0.441335
-0.176431
-0.0524908
0.00105828
-0.719799
-0.95235
-1.32099
-1.62738
-1.42399
-0.888971
-0.463434
-0.193673
-0.0626689
-0.00447669
-0.65356
-0.864164
-1.28236
-1.61487
-1.42893
-0.910749
-0.484709
-0.212904
-0.0743339
-0.0103344
-0.618078
-0.764547
-1.21802
-1.57188
-1.41191
-0.921148
-0.504024
-0.234013
-0.087836
-0.01652
-0.631619
-0.673087
-1.13783
-1.50595
-1.37925
-0.922908
-0.521256
-0.256634
-0.103499
-0.0231891
-0.579556
-0.594343
-1.07488
-1.43932
-1.30193
-0.889329
-0.525429
-0.280487
-0.123964
-0.0322339
-0.553791
-0.601821
-0.994313
-1.27231
-1.13615
-0.814063
-0.522415
-0.310103
-0.150546
-0.0428812
-0.547164
-0.584685
-0.873608
-1.07613
-0.977491
-0.749499
-0.52982
-0.347103
-0.181016
-0.0532089
-0.53126
-0.554561
-0.752188
-0.901731
-0.841363
-0.695111
-0.544183
-0.392064
-0.217133
-0.0648489
-0.495773
-0.513372
-0.646723
-0.753796
-0.724331
-0.650102
-0.564753
-0.439419
-0.251641
-0.0741116
-0.451875
-0.471648
-0.555082
-0.626704
-0.623476
-0.614051
-0.583473
-0.475899
-0.277344
-0.0796867
-0.407781
-0.431054
-0.476705
-0.520453
-0.540133
-0.582962
-0.592597
-0.49762
-0.29247
-0.0818467
-0.367163
-0.394437
-0.413611
-0.442485
-0.483267
-0.558425
-0.584123
-0.495662
-0.293472
-0.0810311
-0.336095
-0.374376
-0.386108
-0.403455
-0.456768
-0.54365
-0.569889
-0.482788
-0.28669
-0.0795193
-0.312502
-0.365083
-0.394487
-0.423202
-0.466844
-0.537313
-0.557141
-0.471096
-0.280794
-0.078853
-0.54202
-0.600181
-0.645359
-0.682819
-0.715212
-0.751426
-0.786078
-0.817954
-0.811886
-0.833836
-0.397674
-0.464283
-0.519083
-0.567641
-0.60675
-0.641813
-0.664456
-0.683205
-0.687825
-0.708197
-0.282845
-0.351903
-0.410259
-0.461765
-0.501819
-0.535764
-0.558426
-0.578388
-0.591316
-0.60722
-0.188948
-0.257841
-0.317343
-0.369457
-0.411526
-0.447492
-0.47569
-0.50112
-0.521926
-0.541481
-0.112688
-0.180465
-0.240013
-0.292516
-0.336811
-0.375394
-0.407955
-0.436699
-0.461483
-0.483507
-0.051479
-0.118001
-0.177211
-0.229831
-0.275357
-0.315116
-0.349335
-0.378999
-0.404651
-0.42686
-0.00358127
-0.0689437
-0.127665
-0.179813
-0.225387
-0.264792
-0.298723
-0.327654
-0.352729
-0.374415
0.0314462
-0.0329481
-0.0911345
-0.142345
-0.187274
-0.225352
-0.25815
-0.285298
-0.308898
-0.328508
0.0523749
-0.0114457
-0.0693153
-0.11997
-0.16451
-0.20159
-0.233415
-0.258398
-0.279847
-0.295407
0.0612842
-0.00295537
-0.0609893
-0.112138
-0.156766
-0.194185
-0.225685
-0.249895
-0.269632
-0.280868
0.809447
0.741947
0.6644
0.581087
0.490729
0.391068
0.282345
0.171023
0.0780136
0.0336399
0.6152
0.542216
0.46056
0.370879
0.271383
0.160588
0.0397793
-0.0828883
-0.184187
-0.23121
0.402776
0.327134
0.243116
0.149571
0.0444737
-0.0732504
-0.201677
-0.331395
-0.437669
-0.48537
0.199671
0.120911
0.0330843
-0.0651734
-0.175555
-0.298922
-0.433084
-0.566948
-0.674511
-0.721043
0.0168429
-0.0660623
-0.158616
-0.261962
-0.377424
-0.50539
-0.644249
-0.778995
-0.88315
-0.928991
-0.145164
-0.232164
-0.328873
-0.436176
-0.555322
-0.686375
-0.824753
-0.9568
-1.05664
-1.10044
-0.287902
-0.377427
-0.476081
-0.584868
-0.704747
-0.834996
-0.970078
-1.09582
-1.18814
-1.22832
-0.413947
-0.502528
-0.599785
-0.706716
-0.823771
-0.949311
-1.07677
-1.19159
-1.2731
-1.30858
-0.519328
-0.604608
-0.697997
-0.800158
-0.910836
-1.02739
-1.14237
-1.24187
-1.31035
-1.3408
-0.603783
-0.68363
-0.770699
-0.86509
-0.965739
-1.06906
-1.1672
-1.2483
-1.30295
-1.32882
2.07432
2.09191
2.11011
2.12772
2.14381
2.15762
2.16835
2.17584
2.18187
2.18742
2.01091
2.02537
2.03968
2.05274
2.06378
2.07203
2.07672
2.07796
2.07857
2.08085
1.92646
1.9368
1.94598
1.95307
1.95753
1.95861
1.95555
1.94881
1.94242
1.94064
1.82298
1.82864
1.83163
1.8314
1.82773
1.81989
1.80716
1.79044
1.77532
1.76879
1.70053
1.70047
1.69632
1.6879
1.67523
1.65754
1.63415
1.60639
1.58148
1.56983
1.5629
1.55698
1.5448
1.52686
1.50365
1.47448
1.4388
1.39852
1.36275
1.34532
1.41027
1.39794
1.37766
1.35026
1.3164
1.27532
1.22664
1.17302
1.12571
1.10231
1.25121
1.23148
1.20111
1.16216
1.1159
1.06165
0.999122
0.931673
0.872745
0.843411
1.09052
1.06333
1.02246
0.971228
0.911504
0.842691
0.764813
0.682296
0.611191
0.576093
0.941723
0.897575
0.840008
0.773741
0.699706
0.616387
0.523662
0.426842
0.344498
0.304348
1.77058
1.75728
1.74771
1.74034
1.74063
1.74591
1.76651
1.80721
1.87858
1.99406
1.76478
1.75236
1.74386
1.73546
1.73583
1.73887
1.75813
1.79397
1.85676
1.95592
1.75958
1.7475
1.73984
1.73014
1.73047
1.73066
1.74829
1.77756
1.82931
1.90608
1.75489
1.74276
1.73564
1.72442
1.72452
1.72125
1.73704
1.7578
1.79675
1.844
1.75067
1.73819
1.73125
1.71833
1.71796
1.7107
1.72439
1.73452
1.75971
1.76877
1.7469
1.73381
1.72668
1.71193
1.71075
1.69906
1.71024
1.70771
1.71841
1.67966
1.74356
1.72966
1.72191
1.70525
1.70284
1.68641
1.69449
1.6774
1.673
1.57522
1.74067
1.72575
1.71696
1.69832
1.69421
1.67282
1.67696
1.64378
1.62324
1.45695
1.73826
1.72209
1.71181
1.69117
1.6849
1.65846
1.65754
1.60706
1.56747
1.32291
1.73636
1.71868
1.70657
1.68381
1.67508
1.64346
1.63725
1.56894
1.50883
1.1846
1.73452
1.715
1.69951
1.67465
1.66109
1.62343
1.60707
1.52005
1.43739
1.05088
1.73387
1.71183
1.69152
1.66462
1.64451
1.60205
1.57237
1.47712
1.36617
1.02791
1.73503
1.70987
1.68343
1.65518
1.62749
1.58257
1.53909
1.44219
1.30816
1.01621
1.73862
1.70911
1.67546
1.64645
1.61063
1.56527
1.50794
1.41396
1.26055
1.01001
1.74546
1.70934
1.66755
1.63842
1.59337
1.55029
1.47898
1.39181
1.22353
1.00685
1.75614
1.71069
1.65993
1.63127
1.57687
1.53765
1.45266
1.3748
1.19616
1.00376
1.7705
1.71024
1.65156
1.62167
1.55956
1.5261
1.42959
1.36137
1.17677
1.00134
1.79571
1.71415
1.64633
1.61476
1.54455
1.51579
1.41036
1.35169
1.16401
1.00086
1.80855
1.70614
1.63484
1.60322
1.53182
1.50821
1.39791
1.34699
1.15799
1.00358
1.88535
1.71922
1.6382
1.60083
1.52633
1.50487
1.39217
1.34684
1.15538
1.00844
0.794948
0.636608
0.448578
0.26823
0.106734
-0.0369469
-0.165568
-0.280827
-0.382355
-0.469944
0.747535
0.622998
0.480812
0.338067
0.205476
0.083564
-0.0287675
-0.134593
-0.232255
-0.321176
0.73317
0.627733
0.513894
0.396748
0.282916
0.173828
0.0701681
-0.0287074
-0.120623
-0.206339
0.745117
0.647418
0.545758
0.443876
0.343433
0.244991
0.149388
0.0569913
-0.0306148
-0.113358
0.761803
0.670175
0.576466
0.484237
0.39342
0.303149
0.213819
0.126018
0.0416208
-0.038659
0.779138
0.693107
0.60552
0.519709
0.435209
0.350392
0.265385
0.180818
0.0989942
0.0208824
0.795728
0.714827
0.632195
0.550737
0.469982
0.388384
0.306046
0.223799
0.143852
0.0675132
0.810978
0.734553
0.655999
0.577324
0.498198
0.417813
0.336554
0.25561
0.176878
0.101805
0.82497
0.75197
0.676409
0.598844
0.51936
0.438284
0.356629
0.275759
0.197114
0.122298
0.836542
0.764932
0.689851
0.611199
0.53012
0.44785
0.365651
0.28463
0.206099
0.131286
-1.93823
-1.89282
-1.79505
-1.67272
-1.54949
-1.43769
-1.34165
-1.26239
-1.20013
-1.15534
-2.01752
-1.97824
-1.89634
-1.79048
-1.68027
-1.57814
-1.48931
-1.41546
-1.35761
-1.31718
-2.02394
-1.99005
-1.9256
-1.84013
-1.74708
-1.65775
-1.57802
-1.51026
-1.45601
-1.41698
-1.97179
-1.94229
-1.89416
-1.83025
-1.75714
-1.68346
-1.61521
-1.55539
-1.50614
-1.46946
-1.88269
-1.8571
-1.82217
-1.77754
-1.72433
-1.66753
-1.61202
-1.56092
-1.5164
-1.47971
-1.77968
-1.75797
-1.73261
-1.70239
-1.6658
-1.62444
-1.58142
-1.53914
-1.5002
-1.46644
-1.68118
-1.66361
-1.64493
-1.62418
-1.59956
-1.57095
-1.53954
-1.50724
-1.47541
-1.44607
-1.59739
-1.58423
-1.57049
-1.55561
-1.53852
-1.51853
-1.49574
-1.47023
-1.44461
-1.41896
-1.53151
-1.52239
-1.5126
-1.5017
-1.4894
-1.47531
-1.4592
-1.44119
-1.42118
-1.40802
-1.48186
-1.47607
-1.46933
-1.46121
-1.45201
-1.44179
-1.43023
-1.41782
-1.40071
-1.39243
-1.4459
-1.44255
-1.43775
-1.43138
-1.42413
-1.41656
-1.40899
-1.40154
-1.3915
-1.36431
-1.42258
-1.42035
-1.41637
-1.41072
-1.40437
-1.3981
-1.39227
-1.38677
-1.37984
-1.34821
-1.41101
-1.40841
-1.40398
-1.39781
-1.3908
-1.38387
-1.37776
-1.37222
-1.36504
-1.34712
-1.41045
-1.40641
-1.40122
-1.39516
-1.38897
-1.38352
-1.37955
-1.37746
-1.37763
-1.38266
-1.41514
-1.40984
-1.40491
-1.40138
-1.39982
-1.40084
-1.40497
-1.41274
-1.42502
-1.44478
-1.41608
-1.41096
-1.4083
-1.41002
-1.41633
-1.42723
-1.44268
-1.46259
-1.48706
-1.51684
-1.40084
-1.39808
-1.39959
-1.40786
-1.42267
-1.44343
-1.46954
-1.50044
-1.53553
-1.57433
-1.35639
-1.35748
-1.36352
-1.37715
-1.398
-1.42526
-1.4581
-1.49569
-1.53714
-1.58228
-1.27843
-1.28334
-1.29294
-1.30978
-1.33366
-1.36389
-1.39948
-1.43936
-1.48299
-1.53199
-1.17479
-1.18237
-1.19412
-1.21144
-1.23515
-1.26483
-1.29948
-1.33831
-1.382
-1.43295
-1.31425
-1.51082
-1.09191
-0.890995
-0.714308
-0.435143
-0.240614
-0.109551
-0.0321907
0.00164125
-1.38999
-1.63247
-1.12462
-0.828783
-0.641026
-0.40098
-0.234234
-0.108376
-0.0313007
0.00259294
-1.47668
-1.72181
-1.1439
-0.745017
-0.56914
-0.368963
-0.227124
-0.104394
-0.0279047
0.00520728
-1.57509
-1.78531
-1.15317
-0.654759
-0.498872
-0.344384
-0.221757
-0.0991183
-0.0231549
0.00908977
-1.68415
-1.85814
-1.15852
-0.58051
-0.453741
-0.335371
-0.221816
-0.0947301
-0.0186812
0.013393
-1.79021
-1.94424
-1.16258
-0.543221
-0.440297
-0.345196
-0.228351
-0.0922667
-0.0154542
0.0173276
-1.86878
-2.01162
-1.16876
-0.55488
-0.46312
-0.375024
-0.240723
-0.0920274
-0.0137357
0.0204214
-1.89147
-2.03281
-1.18699
-0.617539
-0.522823
-0.418813
-0.257822
-0.0940191
-0.0134354
0.0224397
-1.84685
-1.99976
-1.22499
-0.721914
-0.617543
-0.468873
-0.278496
-0.0982299
-0.0144142
0.0232472
-1.7335
-1.90325
-1.27887
-0.855325
-0.747108
-0.522495
-0.3012
-0.104618
-0.0165721
0.0228052
-1.1355
-1.06076
-0.899589
-0.894834
-0.738631
-0.432881
-0.214981
-0.0870508
-0.0214289
0.00435347
-1.12562
-1.04388
-0.889029
-0.898217
-0.74903
-0.440699
-0.218288
-0.0887725
-0.0221262
0.00422505
-1.13659
-1.08019
-0.901939
-0.908359
-0.759884
-0.450387
-0.224357
-0.0925735
-0.0238059
0.00383729
-1.17477
-1.1784
-0.945482
-0.928676
-0.778007
-0.457383
-0.232258
-0.098481
-0.02656
0.00305991
-1.24364
-1.35309
-1.01919
-0.91609
-0.751204
-0.455041
-0.240272
-0.10589
-0.030165
0.00202091
-1.11085
-1.26484
-1.36389
-1.4247
-1.43118
-1.42599
-1.39393
-1.35289
-1.30466
-1.25302
-1.11148
-1.26788
-1.36493
-1.42363
-1.42434
-1.4182
-1.38553
-1.33939
-1.29882
-1.24197
-1.11437
-1.27239
-1.36831
-1.42488
-1.42347
-1.41698
-1.38485
-1.34274
-1.30866
-1.26225
-1.12143
-1.28156
-1.37805
-1.43224
-1.43338
-1.42417
-1.3961
-1.36332
-1.33772
-1.31673
-1.13361
-1.29652
-1.39461
-1.44689
-1.45262
-1.43988
-1.41844
-1.39251
-1.37647
-1.37734
1.54687
1.5331
1.51127
1.48493
1.45511
1.42061
1.38044
1.3365
1.2981
1.2791
1.6674
1.66777
1.66055
1.64791
1.63124
1.60994
1.58333
1.55286
1.52597
1.5132
1.78628
1.79304
1.79424
1.79131
1.78522
1.77546
1.76125
1.74338
1.72735
1.72022
1.89283
1.90483
1.91343
1.91915
1.92233
1.92235
1.91836
1.91078
1.90364
1.90139
1.98462
2.0006
2.01443
2.02621
2.03602
2.04325
2.04707
2.04758
2.04758
2.04943
2.05572
2.07433
2.09221
2.10898
2.1243
2.13752
2.14778
2.15486
2.16053
2.16583
2.10554
2.12596
2.14656
2.16663
2.18553
2.20258
2.21696
2.22826
2.23763
2.24525
2.13219
2.15337
2.17538
2.19725
2.21812
2.23727
2.25389
2.26746
2.27881
2.28767
2.13569
2.1567
2.1788
2.20086
2.2219
2.2412
2.25793
2.27161
2.28305
2.29198
2.11624
2.13607
2.15691
2.17754
2.19698
2.21448
2.22925
2.24089
2.25053
2.25834
-0.933329
-0.984446
-1.05145
-1.13504
-1.2362
-1.3545
-1.48665
-1.6208
-1.73076
-1.78187
-0.658074
-0.715785
-0.788034
-0.875665
-0.98005
-1.1016
-1.23898
-1.38103
-1.49941
-1.55433
-0.346212
-0.410431
-0.487858
-0.578952
-0.685188
-0.807505
-0.944587
-1.08698
-1.21251
-1.2691
-0.0219056
-0.0910611
-0.17189
-0.264514
-0.370282
-0.490274
-0.623503
-0.762706
-0.88414
-0.943525
0.290421
0.219479
0.138688
0.0481131
-0.0535046
-0.167477
-0.29331
-0.424507
-0.537886
-0.595431
0.572867
0.504918
0.428894
0.344855
0.251526
0.147441
0.0328285
-0.0865124
-0.189302
-0.242236
0.82131
0.760868
0.693834
0.6201
0.538297
0.446891
0.345971
0.240731
0.150232
0.103505
1.04449
0.993428
0.936931
0.874839
0.805618
0.727698
0.641126
0.550535
0.472741
0.432784
1.2522
1.20969
1.16174
1.1095
1.05162
0.986423
0.913822
0.837735
0.772561
0.739458
1.43306
1.39903
1.35826
1.315
1.26857
1.21701
1.15962
1.09915
1.04724
1.02117
1.88156
1.79136
1.76793
1.75693
1.75035
1.75323
1.75701
1.77491
1.75843
1.68785
1.86436
1.79077
1.76833
1.7587
1.75297
1.75783
1.76537
1.7895
1.79417
1.76941
1.84888
1.78919
1.76791
1.75952
1.75468
1.76113
1.77266
1.80437
1.82905
1.84861
1.83498
1.7868
1.76685
1.75947
1.75553
1.76321
1.77819
1.81569
1.8579
1.91331
1.82251
1.78373
1.76525
1.75863
1.75561
1.76417
1.78185
1.82387
1.88038
1.96492
1.81132
1.78012
1.7632
1.75708
1.75494
1.764
1.78366
1.82883
1.89625
2.00252
1.80129
1.77606
1.76073
1.75485
1.75351
1.76266
1.78367
1.83057
1.90542
2.02642
1.79229
1.77166
1.75791
1.75202
1.75133
1.76018
1.78193
1.82916
1.908
2.03713
1.78424
1.767
1.75477
1.74864
1.74843
1.75655
1.77847
1.82474
1.90424
2.03514
1.77703
1.76218
1.75135
1.74473
1.74485
1.7518
1.77332
1.81742
1.89441
2.02062
2.04777
1.79299
1.75919
1.74308
1.73722
1.73439
1.72373
1.72057
1.64096
1.58734
1.97336
1.78711
1.76023
1.74614
1.73921
1.73583
1.72462
1.722
1.64354
1.58218
1.95048
1.79228
1.76396
1.74921
1.74144
1.73827
1.72774
1.72633
1.65489
1.57852
1.92398
1.79222
1.76585
1.75201
1.74405
1.74193
1.73463
1.73645
1.67728
1.58662
1.90104
1.79168
1.76706
1.75453
1.74701
1.74687
1.74346
1.75215
1.7106
1.60892
1.31279
1.18978
1.02524
0.813453
0.557419
0.26633
-0.0455819
-0.358454
-0.650931
-0.904474
1.30665
1.18768
1.02934
0.823511
0.573772
0.287036
-0.0242971
-0.340637
-0.639573
-0.900239
1.31662
1.19471
1.03486
0.831739
0.586987
0.303566
-0.00809682
-0.328032
-0.632531
-0.899013
1.34953
1.21375
1.04309
0.838624
0.597019
0.315642
0.00296065
-0.320572
-0.630058
-0.901847
1.40788
1.24816
1.05662
0.844254
0.602167
0.322016
0.00920806
-0.316948
-0.631338
-0.909123
)
;

boundaryField
{
    left
    {
        type            zeroGradient;
    }
    right
    {
        type            fixedValue;
        value           uniform 0;
    }
    down
    {
        type            zeroGradient;
    }
    up
    {
        type            zeroGradient;
    }
    cylinder
    {
        type            zeroGradient;
    }
    defaultFaces
    {
        type            empty;
    }
}


// ************************************************************************* //
