/*--------------------------------*- C++ -*----------------------------------*\
  =========                 |
  \\      /  F ield         | OpenFOAM: The Open Source CFD Toolbox
   \\    /   O peration     | Website:  https://openfoam.org
    \\  /    A nd           | Version:  13
     \\/     M anipulation  |
\*---------------------------------------------------------------------------*/
FoamFile
{
    format      ascii;
    class       volVectorField;
    location    "4.5";
    object      U;
}
// * * * * * * * * * * * * * * * * * * * * * * * * * * * * * * * * * * * * * //

dimensions      [0 1 -1 0 0 0 0];

internalField   nonuniform List<vector> 
1800
(
(-0.0280998 0.0237376 8.16958e-21)
(-0.0687698 0.0470586 3.3963e-21)
(-0.0916336 0.0584103 -6.45783e-21)
(-0.0948715 0.0645915 1.51571e-20)
(-0.0749249 0.0708456 4.59103e-20)
(-0.0284008 0.0801382 1.71583e-20)
(0.0477488 0.0948989 7.58781e-23)
(0.152359 0.11612 9.52513e-20)
(0.295187 0.16634 1.71009e-19)
(0.36816 0.201471 1.62773e-19)
(-0.0370704 0.0279654 5.55052e-21)
(-0.0753687 0.0533416 -2.24492e-20)
(-0.0780211 0.0611004 2.12508e-22)
(-0.044246 0.058 -2.83221e-20)
(0.0287873 0.0496753 9.13695e-21)
(0.143619 0.0397928 6.93519e-20)
(0.30098 0.0307776 -2.79966e-20)
(0.495133 0.0205773 1.44553e-21)
(0.737094 0.0384409 -2.399e-19)
(0.86552 0.0515117 1.93946e-19)
(-0.0403347 0.0266268 3.34965e-21)
(-0.064771 0.0473149 1.23652e-20)
(-0.033859 0.0504669 8.20156e-21)
(0.0521252 0.0421479 -1.1155e-20)
(0.194011 0.0283336 -8.92631e-20)
(0.389211 0.0133508 1.77365e-20)
(0.629581 0.000500011 2.92219e-20)
(0.900354 -0.00994811 -9.81035e-21)
(1.19449 -0.00844557 4.76605e-22)
(1.42725 -0.0177469 4.60251e-21)
(-0.0370554 0.0208525 -6.20289e-21)
(-0.0316713 0.0299184 -2.01299e-20)
(0.0525868 0.0247143 -2.13838e-20)
(0.213067 0.0113182 1.59772e-20)
(0.443744 -0.00386406 1.89278e-20)
(0.72949 -0.0160936 6.07406e-21)
(1.04645 -0.0228224 -1.8438e-21)
(1.36768 -0.0231844 4.39182e-20)
(1.67066 -0.0190448 2.61565e-20)
(1.92109 -0.0162539 -1.07956e-20)
(-0.025616 0.0128036 4.53719e-20)
(0.0308207 0.00865908 4.45512e-20)
(0.1923 -0.00319045 -2.82743e-20)
(0.447485 -0.0160575 -3.45898e-20)
(0.773162 -0.0237837 -9.74771e-20)
(1.13285 -0.023662 1.46433e-21)
(1.48645 -0.0164347 1.11925e-19)
(1.80136 -0.00476644 5.38962e-20)
(2.05641 0.00753823 6.61785e-22)
(2.25167 0.0130226 -5.18168e-20)
(-0.00163816 0.00289681 -4.65749e-20)
(0.131855 -0.0121788 1.77257e-21)
(0.392898 -0.0241745 1.65277e-19)
(0.750006 -0.0270068 -4.62127e-20)
(1.15175 -0.0184791 -1.05761e-19)
(1.54077 -0.0013748 2.08136e-19)
(1.87319 0.019039 -2.23801e-19)
(2.12704 0.0377999 -3.17401e-19)
(2.30203 0.0512598 2.71092e-19)
(2.40926 0.0583943 3.82798e-21)
(0.0386746 -0.00712535 5.95089e-20)
(0.275301 -0.0261871 -1.28657e-19)
(0.647142 -0.0278425 -3.99497e-19)
(1.08965 -0.0108597 1.81925e-19)
(1.52298 0.017976 3.9904e-19)
(1.88599 0.0493126 -1.57772e-21)
(2.15221 0.0759563 -8.89351e-19)
(2.32511 0.094393 4.32046e-21)
(2.42435 0.105222 1.12822e-18)
(2.47453 0.106641 3.14768e-19)
(0.0969751 -0.0139803 5.35935e-20)
(0.456279 -0.0250873 2.98479e-19)
(0.931461 -0.00491317 3.17354e-19)
(1.42118 0.0368193 -1.02494e-19)
(1.83629 0.0824637 -3.80253e-19)
(2.13679 0.120061 -1.46617e-19)
(2.32655 0.145318 0)
(2.43159 0.159151 4.91993e-19)
(2.48167 0.164314 -9.84262e-21)
(2.49953 0.162823 -4.81749e-19)
(0.171501 -0.0136995 5.19548e-20)
(0.660097 -0.00149413 3.07467e-19)
(1.21262 0.0492762 5.51015e-19)
(1.70607 0.113868 -5.62396e-19)
(2.07033 0.168589 -4.95437e-19)
(2.30001 0.205199 2.09574e-19)
(2.42485 0.22504 -1.02026e-18)
(2.48165 0.232717 -7.79257e-19)
(2.4996 0.232967 9.69758e-19)
(2.49619 0.226935 8.47463e-19)
(0.257172 -0.00264685 -4.53006e-20)
(0.866126 0.048501 2.38952e-19)
(1.46127 0.133256 1.50526e-19)
(1.92639 0.214358 -1.19694e-18)
(2.22854 0.270616 4.5423e-20)
(2.39452 0.301347 2.49658e-18)
(2.46969 0.313266 -1.46656e-18)
(2.49366 0.313703 -8.70224e-19)
(2.49211 0.30774 3.09683e-19)
(2.4775 0.297249 -7.09254e-19)
(-0.00126474 -0.120239 -2.37097e-19)
(-0.0416225 -0.205264 -1.84859e-20)
(-0.101764 -0.226008 1.73029e-21)
(-0.168656 -0.229002 2.76191e-20)
(-0.233739 -0.230874 5.19304e-21)
(-0.294656 -0.233357 2.29818e-19)
(-0.350656 -0.23403 -4.1453e-21)
(-0.40161 -0.230745 -2.44971e-19)
(-0.449663 -0.22243 -2.04292e-20)
(-0.49948 -0.208727 5.72733e-20)
(0.000148648 -0.060644 -2.80654e-20)
(-0.043741 -0.0840722 -6.87413e-20)
(-0.107313 -0.0781039 8.23064e-20)
(-0.178089 -0.0728888 3.93652e-20)
(-0.247769 -0.0751576 1.23231e-19)
(-0.314089 -0.0818842 1.93144e-19)
(-0.376352 -0.0887343 -1.89258e-19)
(-0.434343 -0.0929083 -1.61558e-19)
(-0.489494 -0.0930162 3.15152e-19)
(-0.544747 -0.0880377 -7.77453e-20)
(-0.00365841 -0.00734077 1.918e-20)
(-0.0447712 0.0246386 -8.82327e-20)
(-0.100461 0.0594179 -3.09836e-20)
(-0.161907 0.0791981 -1.07474e-19)
(-0.223141 0.0832566 -2.91643e-20)
(-0.282304 0.0777049 2.7253e-19)
(-0.338631 0.068607 1.45085e-20)
(-0.39158 0.0596844 -2.1839e-19)
(-0.441269 0.0529252 2.0344e-19)
(-0.488723 0.0501796 1.06907e-19)
(-0.0087001 0.0232486 2.85583e-20)
(-0.043067 0.0923493 3.33111e-21)
(-0.0838979 0.15529 -1.00569e-20)
(-0.12747 0.19734 4.88202e-20)
(-0.171031 0.216966 -5.94957e-20)
(-0.213477 0.220146 -7.02997e-20)
(-0.254081 0.214208 -2.51843e-20)
(-0.292059 0.204466 7.24081e-21)
(-0.325979 0.194067 -1.96318e-20)
(-0.353536 0.185747 2.76101e-21)
(-0.0101626 0.0285304 0)
(-0.0362944 0.108745 -1.58278e-20)
(-0.0623576 0.19 4.96712e-20)
(-0.08726 0.255871 -1.29944e-21)
(-0.110534 0.299296 4.72283e-20)
(-0.132145 0.32117 -4.65979e-21)
(-0.151918 0.326545 -7.41947e-21)
(-0.16953 0.321065 5.02994e-20)
(-0.184148 0.309222 0)
(-0.188256 0.29671 1.97578e-21)
(-0.00700191 0.0180884 -1.3969e-20)
(-0.0253295 0.0852132 2.87436e-20)
(-0.0416212 0.16576 3.95479e-20)
(-0.0542626 0.243142 -4.745e-20)
(-0.0629321 0.30631 3.96236e-20)
(-0.0678335 0.350521 -2.8065e-20)
(-0.0692989 0.375826 3.75706e-20)
(-0.067597 0.384702 -2.3477e-20)
(-0.0627622 0.380064 -1.24857e-19)
(-0.0460465 0.368015 7.55053e-23)
(-0.00165834 0.00476368 3.2016e-21)
(-0.014179 0.0476714 5.45212e-20)
(-0.0270363 0.111011 -4.04563e-20)
(-0.0366609 0.180979 -7.12405e-21)
(-0.0412832 0.246562 -7.66744e-21)
(-0.0402762 0.300569 -6.54902e-20)
(-0.0337003 0.339489 -5.46552e-20)
(-0.0218289 0.362463 -1.14547e-19)
(-0.00498182 0.36937 9.99283e-20)
(0.0226753 0.360667 1.75776e-19)
(0.00152016 -0.0023707 1.22241e-20)
(-0.0100444 0.0197728 -2.32125e-20)
(-0.0258471 0.0607531 -4.42561e-20)
(-0.0405747 0.111428 1.48385e-20)
(-0.0508715 0.163816 1.15002e-20)
(-0.0550552 0.211423 1.53898e-19)
(-0.0524154 0.249769 1.9239e-19)
(-0.0423 0.276058 -1.21579e-19)
(-0.0236219 0.287008 -8.83144e-20)
(0.00708096 0.274665 1.30379e-19)
(-0.00110947 -0.000661522 1.25857e-20)
(-0.0194173 0.0106819 -9.23338e-21)
(-0.0429586 0.0327299 4.03286e-20)
(-0.066073 0.0617314 6.15522e-20)
(-0.0846586 0.0940796 -6.21285e-20)
(-0.0963264 0.125759 1.48263e-19)
(-0.0994874 0.152989 -5.59765e-21)
(-0.0923943 0.171992 -3.11896e-19)
(-0.0724007 0.176965 -8.13596e-20)
(-0.0326087 0.159545 1.00682e-19)
(-0.0139174 0.0110763 1.49192e-21)
(-0.0473725 0.0248447 2.78903e-21)
(-0.0793552 0.0369657 -4.93748e-21)
(-0.105773 0.0504952 2.54004e-20)
(-0.122759 0.0671881 5.03746e-20)
(-0.12754 0.0869447 -6.9599e-20)
(-0.117853 0.108715 -7.20043e-20)
(-0.0918103 0.130414 4.60669e-20)
(-0.0458359 0.145694 -6.4412e-20)
(0.0293098 0.145433 -3.32973e-20)
(-0.747625 -0.113351 -1.15151e-18)
(-0.762081 0.571036 2.14958e-18)
(-0.48789 1.12422 -1.58825e-19)
(-0.569946 0.640591 5.87353e-19)
(0.139389 -0.0951294 -4.17986e-19)
(0.421123 -0.476474 -2.66029e-19)
(0.754731 -0.66241 -1.34161e-19)
(0.909555 -0.592542 2.04387e-20)
(1.0229 -0.549623 3.4789e-20)
(1.10947 -0.365585 1.89034e-21)
(-0.813974 -0.0403541 -1.18547e-18)
(-0.970565 0.536323 -6.6731e-19)
(-0.627542 1.06426 -1.53541e-20)
(-0.389194 0.531848 -5.7717e-19)
(0.29003 -0.227079 -1.5931e-18)
(0.592096 -0.570471 0)
(0.908143 -0.726207 -1.24625e-19)
(1.03194 -0.631666 -7.00442e-21)
(1.12869 -0.570289 -1.6849e-21)
(1.17152 -0.37664 -1.95659e-20)
(-0.728522 0.0472839 7.0057e-19)
(-1.02649 0.496888 4.52415e-19)
(-0.633103 0.936667 -2.80337e-20)
(-0.133401 0.400581 1.73394e-20)
(0.488993 -0.343521 4.94283e-20)
(0.788614 -0.660192 -8.88529e-20)
(1.06926 -0.782077 0)
(1.15677 -0.663541 0)
(1.23257 -0.582848 -3.45144e-20)
(1.23109 -0.381701 0)
(-0.507463 0.135602 1.34887e-19)
(-0.89153 0.468608 -7.05684e-19)
(-0.503744 0.777313 2.05362e-20)
(0.143357 0.256635 0)
(0.722928 -0.445192 7.92162e-19)
(1.00158 -0.739936 -1.6803e-19)
(1.23421 -0.827444 0)
(1.27978 -0.687013 1.24481e-19)
(1.33186 -0.587088 0)
(1.28656 -0.380687 2.71853e-20)
(-0.217871 0.202609 3.85791e-20)
(-0.585674 0.454834 -4.35871e-19)
(-0.25734 0.628749 -2.64916e-20)
(0.427648 0.119359 0)
(0.975358 -0.533622 2.18877e-19)
(1.22066 -0.806856 3.03487e-19)
(1.39859 -0.860793 -8.11927e-20)
(1.39761 -0.70127 -1.22792e-20)
(1.42411 -0.583122 -2.15186e-20)
(1.33659 -0.373721 -1.37556e-21)
(0.057923 0.237217 1.11661e-18)
(-0.18644 0.442101 6.04876e-19)
(0.0693658 0.507229 1.8746e-20)
(0.719821 0.00175603 2.59127e-19)
(1.23301 -0.607406 -2.55066e-19)
(1.43594 -0.859684 1.01611e-19)
(1.55708 -0.881995 2.59229e-19)
(1.50754 -0.706079 -2.13526e-19)
(1.5073 -0.571275 1.47887e-21)
(1.38007 -0.361123 -5.93639e-20)
(0.252055 0.224062 1.68178e-19)
(0.208626 0.423503 -1.93957e-19)
(0.415099 0.416982 6.31542e-20)
(1.00845 -0.0896844 -7.76504e-22)
(1.48524 -0.664411 -3.94036e-20)
(1.63989 -0.897217 -8.92043e-20)
(1.70503 -0.891455 -7.77171e-20)
(1.60766 -0.701801 4.21454e-20)
(1.58008 -0.552004 3.52253e-20)
(1.41615 -0.343375 2.64651e-21)
(0.314239 0.146194 -2.84679e-19)
(0.531212 0.37621 -2.66491e-19)
(0.722911 0.351553 0)
(1.27952 -0.156286 -2.38281e-20)
(1.72244 -0.703383 -6.39852e-20)
(1.82608 -0.91843 -3.49788e-20)
(1.83829 -0.889618 -1.70399e-19)
(1.69669 -0.689255 8.37231e-20)
(1.64171 -0.525969 -1.95011e-21)
(1.44431 -0.321078 -2.85552e-20)
(0.283681 0.0335511 9.72016e-20)
(0.730148 0.301584 6.55557e-19)
(0.964128 0.2899 -2.17958e-19)
(1.52781 -0.207895 2.35831e-20)
(1.93868 -0.72514 2.73808e-20)
(1.98988 -0.923488 -1.23428e-20)
(1.95367 -0.876935 6.43308e-20)
(1.77371 -0.669464 -5.21153e-21)
(1.69179 -0.494229 1.68763e-20)
(1.46426 -0.294934 4.88653e-20)
(0.405772 -0.106396 -3.80506e-20)
(0.795381 0.169518 5.41992e-19)
(1.13897 0.234035 7.61398e-20)
(1.75772 -0.242331 3.23094e-19)
(2.13011 -0.733838 2.18453e-19)
(2.12871 -0.915921 6.30152e-20)
(2.04971 -0.855136 1.20571e-20)
(1.83816 -0.643562 0)
(1.73002 -0.458188 -6.68575e-20)
(1.47605 -0.265901 5.34525e-20)
(1.14883 -0.137841 -1.44338e-19)
(1.15573 0.0418871 -2.17229e-19)
(1.50805 0.078323 5.61134e-19)
(2.09322 -0.344776 -6.70199e-20)
(2.36253 -0.75191 -1.14255e-19)
(2.28353 -0.897012 1.05449e-20)
(2.15052 -0.817598 -8.70714e-20)
(1.90323 -0.602092 4.55848e-20)
(1.76148 -0.406147 -2.36065e-20)
(1.4814 -0.226937 -3.20152e-20)
(2.04739 -0.118682 1.20243e-20)
(1.88663 0.0401373 -2.55734e-20)
(2.18269 -0.0615972 -5.32951e-19)
(2.58077 -0.457716 1.6438e-19)
(2.60339 -0.772144 -8.59103e-19)
(2.37794 -0.855683 -3.70263e-19)
(2.18176 -0.732734 -1.18241e-20)
(1.90684 -0.505895 -3.01503e-20)
(1.74565 -0.309453 1.44613e-19)
(1.45623 -0.164622 1.4548e-20)
(2.34682 -0.11214 -2.50655e-20)
(2.27639 -0.0102114 1.54841e-20)
(2.57146 -0.154147 -3.47435e-20)
(2.68717 -0.476647 -2.98607e-36)
(2.55376 -0.704324 -2.30916e-20)
(2.34497 -0.769011 9.07185e-34)
(2.17619 -0.648111 3.81732e-20)
(1.90483 -0.429654 1.58833e-33)
(1.73012 -0.234338 -7.10273e-21)
(1.42769 -0.112686 1.59865e-20)
(2.39759 -0.10069 -6.4894e-35)
(2.42657 -0.061017 9.44173e-20)
(2.60642 -0.196165 3.00389e-19)
(2.60455 -0.448035 0)
(2.54146 -0.660509 3.35177e-19)
(2.36501 -0.719843 1.31598e-19)
(2.14956 -0.573208 -6.03515e-20)
(1.84021 -0.339975 3.28411e-33)
(1.63777 -0.139984 -1.01414e-19)
(1.34542 -0.0509297 -1.93253e-20)
(2.3965 -0.105584 1.21072e-20)
(2.44013 -0.105961 -3.51184e-21)
(2.52365 -0.211884 0)
(2.55004 -0.436107 0)
(2.4953 -0.62439 0)
(2.24603 -0.633495 0)
(1.96533 -0.455918 5.09171e-21)
(1.64864 -0.233 3.17834e-33)
(1.46161 -0.0525347 -8.82861e-21)
(1.2237 -0.00042941 -2.70048e-33)
(2.38716 -0.114496 4.88475e-20)
(2.40839 -0.129001 0)
(2.45168 -0.221049 0)
(2.48767 -0.419452 0)
(2.36135 -0.559156 0)
(2.02106 -0.524114 0)
(1.6877 -0.341685 -6.42818e-21)
(1.37766 -0.140767 7.70563e-20)
(1.21539 0.0162113 -9.5755e-21)
(1.05628 0.0375298 -1.40539e-20)
(2.36652 -0.122756 0)
(2.3481 -0.141167 6.72795e-20)
(2.37108 -0.224204 1.23274e-19)
(2.34648 -0.385241 0)
(2.05579 -0.457851 1.22175e-19)
(1.58731 -0.375323 4.84707e-20)
(1.22492 -0.206841 -4.53715e-21)
(0.976748 -0.052014 -1.72216e-20)
(0.88495 0.0633192 1.80595e-20)
(0.840754 0.0562537 -2.6509e-20)
(2.25844 -0.119897 -4.34521e-21)
(2.18803 -0.135612 -2.16125e-21)
(2.16118 -0.204449 2.23566e-21)
(1.94882 -0.2982 -4.26906e-35)
(1.46389 -0.290297 -5.39464e-21)
(0.961876 -0.199412 3.09538e-34)
(0.664897 -0.093545 -2.92034e-21)
(0.527885 -0.0036274 -4.05717e-20)
(0.52607 0.0676947 -9.27204e-21)
(0.588535 0.0499197 2.52469e-20)
(1.83234 -0.0956912 2.93362e-20)
(1.70661 -0.115439 -2.55789e-20)
(1.53894 -0.137286 -1.66643e-20)
(1.13519 -0.124055 0)
(0.665492 -0.0928902 -1.43106e-20)
(0.341282 -0.0702997 -1.83963e-20)
(0.177736 -0.0395444 -2.63436e-20)
(0.129993 0.00169809 -2.14065e-20)
(0.182199 0.0394341 1.23498e-20)
(0.293644 0.0275042 -2.67071e-20)
(0.763171 -0.0246705 0)
(0.603062 -0.0186139 0)
(0.422454 0.00153092 0)
(0.261012 0.00810084 0)
(0.133692 -0.00401026 0)
(0.0130191 -0.0119257 0)
(-0.0853943 -0.010516 -3.07771e-21)
(-0.120031 -0.00324886 5.18755e-35)
(-0.0869847 0.00491671 -9.46923e-21)
(-0.00886742 0.00350588 -2.43614e-20)
(2.42399 0.272608 6.88634e-19)
(2.46493 0.213904 4.087e-20)
(2.47777 0.157407 -6.18777e-20)
(2.50101 0.114333 -2.03834e-19)
(2.48902 0.0667276 -2.9109e-20)
(2.4625 0.0446196 -4.37793e-20)
(2.38935 -0.00218214 -1.56512e-19)
(2.1399 0.00918781 1.50481e-20)
(1.94119 -0.0396186 0)
(1.21667 0.0456676 6.72375e-20)
(2.35123 0.231913 2.30319e-19)
(2.36873 0.193169 -2.45221e-19)
(2.43116 0.138709 -6.26895e-20)
(2.4148 0.111552 -1.04959e-19)
(2.5004 0.059899 9.55334e-20)
(2.42053 0.0427436 1.57408e-19)
(2.54355 -0.0086736 -2.03966e-19)
(2.33595 -0.0236774 2.40982e-21)
(2.4538 -0.0649859 -2.22363e-20)
(2.0339 -0.0729657 6.97799e-20)
(2.30797 0.198938 -1.00246e-19)
(2.28827 0.162388 2.35241e-19)
(2.39045 0.122853 1.31979e-19)
(2.33248 0.0907321 -2.33493e-19)
(2.45918 0.0569778 -5.07287e-20)
(2.35976 0.025609 3.30136e-19)
(2.50506 -0.000157874 5.93826e-20)
(2.37677 -0.0345576 -6.15244e-20)
(2.49651 -0.0492851 -3.33461e-20)
(2.35531 -0.0849981 -3.31019e-20)
(2.26303 0.166369 -2.8253e-19)
(2.24899 0.12584 -6.50519e-20)
(2.33612 0.104524 5.17746e-20)
(2.30075 0.064846 -1.72671e-21)
(2.3887 0.0493541 -2.21936e-19)
(2.3443 0.0106965 -6.55729e-20)
(2.4195 0.001048 1.77852e-19)
(2.38836 -0.0345196 -1.30435e-20)
(2.43072 -0.0410424 3.39723e-20)
(2.4248 -0.0704889 1.29742e-20)
(2.21591 0.130825 2.95376e-20)
(2.22875 0.0934456 1.32751e-19)
(2.28121 0.0797245 -6.71051e-21)
(2.28631 0.0439921 1.37243e-19)
(2.32777 0.0329477 -5.82543e-20)
(2.33385 0.00126793 -1.94446e-19)
(2.35897 -0.00865961 2.91867e-20)
(2.37429 -0.0337426 -5.83351e-20)
(2.38224 -0.0452386 -1.23287e-20)
(2.40662 -0.0624713 -1.72599e-20)
(2.17519 0.092793 -1.55874e-19)
(2.20488 0.064212 -6.19607e-20)
(2.23824 0.0508594 -1.89174e-20)
(2.2636 0.0249647 9.40084e-20)
(2.28705 0.0120138 2.60715e-19)
(2.31058 -0.0094789 -5.5713e-20)
(2.32433 -0.0233523 5.03381e-21)
(2.34704 -0.0394891 -7.62614e-20)
(2.35378 -0.0552948 -1.08466e-19)
(2.37473 -0.0659687 -2.19427e-20)
(2.12834 0.055447 -4.73452e-20)
(2.16253 0.0352761 -1.12829e-19)
(2.191 0.0223632 -1.47145e-19)
(2.22148 0.00459402 -2.52261e-19)
(2.24373 -0.00865845 8.25061e-20)
(2.27081 -0.0235997 6.64393e-20)
(2.28734 -0.0381166 -1.28023e-20)
(2.31125 -0.0502894 7.62848e-20)
(2.32278 -0.0663642 -6.95809e-20)
(2.34455 -0.0758234 -4.39862e-20)
(2.01955 0.0208335 5.99494e-20)
(2.05415 0.00699163 1.88707e-20)
(2.07597 -0.00256757 1.5293e-20)
(2.11111 -0.0151863 -3.26705e-20)
(2.12778 -0.0247784 -3.11462e-20)
(2.16453 -0.0364879 -5.88895e-20)
(2.17543 -0.0469886 -4.5465e-20)
(2.21497 -0.0582478 1.01688e-19)
(2.21895 -0.0702331 -4.10025e-20)
(2.26325 -0.0813472 4.55016e-21)
(1.7057 -0.00832447 -7.18974e-20)
(1.7287 -0.0154189 -1.7017e-20)
(1.73711 -0.0203425 1.25425e-19)
(1.76577 -0.0269619 -2.13379e-20)
(1.76925 -0.0315417 -3.55973e-20)
(1.80658 -0.0385053 7.29136e-20)
(1.80261 -0.0434897 -5.60625e-20)
(1.85134 -0.0516345 4.43197e-20)
(1.83612 -0.0579596 -2.12904e-20)
(1.89966 -0.0681158 -8.50193e-20)
(0.866652 -0.00958148 5.09694e-20)
(0.861892 -0.00884441 4.45051e-20)
(0.855557 -0.00826859 4.46521e-20)
(0.855135 -0.00774986 7.46151e-20)
(0.849692 -0.00776665 -3.78702e-20)
(0.855043 -0.00775265 -5.27428e-20)
(0.847337 -0.00853933 2.36453e-20)
(0.860929 -0.00959594 -2.08531e-21)
(0.842597 -0.0106745 3.07578e-21)
(0.873456 -0.0157092 -4.66583e-21)
(1.52492 0.931042 -7.76747e-20)
(1.50971 0.976792 2.55463e-20)
(1.51304 1.0299 -5.8921e-19)
(1.5212 1.09004 2.23953e-19)
(1.52713 1.15319 1.1116e-18)
(1.52213 1.2112 -1.40101e-19)
(1.48443 1.24171 -9.94452e-19)
(1.3651 1.19361 -7.54212e-21)
(1.07853 0.974688 -4.86822e-19)
(0.503477 0.465805 1.17684e-19)
(1.68427 0.904153 0)
(1.67384 0.948477 6.84297e-19)
(1.6738 0.997895 1.52059e-18)
(1.68157 1.05548 -9.37972e-19)
(1.69056 1.11696 -2.19742e-18)
(1.68847 1.17258 -1.4558e-19)
(1.6483 1.19866 -1.86221e-19)
(1.51363 1.14487 6.77111e-19)
(1.18964 0.925166 9.99298e-19)
(0.549455 0.434407 3.98737e-19)
(1.83035 0.869314 6.442e-20)
(1.82873 0.912858 0)
(1.83036 0.959011 -6.39018e-20)
(1.83899 1.0118 9.554e-19)
(1.8499 1.06805 5.26483e-20)
(1.84861 1.11766 -2.14669e-18)
(1.80309 1.13649 1.35325e-18)
(1.64996 1.0761 7.97513e-19)
(1.28678 0.858157 -8.52015e-19)
(0.585808 0.393897 -2.55595e-19)
(1.95988 0.824674 -1.69903e-19)
(1.96734 0.866177 -1.26553e-19)
(1.97403 0.908669 2.61628e-19)
(1.98542 0.955968 -3.25023e-19)
(1.99796 1.00555 -1.5063e-18)
(1.99551 1.04735 -1.16881e-18)
(1.94173 1.05699 1.2243e-18)
(1.76627 0.988451 7.98533e-19)
(1.36173 0.774526 0)
(0.60812 0.344787 0)
(2.07298 0.766495 -8.55889e-19)
(2.08856 0.80508 -1.56518e-18)
(2.10151 0.843723 -6.03914e-19)
(2.11657 0.885568 -3.15574e-20)
(2.13016 0.928055 0)
(2.12456 0.960118 1.25949e-19)
(2.05795 0.959256 1.44523e-19)
(1.85446 0.884425 1.7891e-19)
(1.4078 0.67683 -2.5561e-19)
(0.612973 0.288242 -6.38285e-20)
(2.17303 0.698665 1.01598e-18)
(2.19444 0.732974 -3.89036e-20)
(2.21251 0.766915 -1.19525e-18)
(2.23044 0.802559 0)
(2.24331 0.836834 0)
(2.23022 0.859026 0)
(2.1445 0.84735 1.34999e-18)
(1.90796 0.765411 -1.47559e-18)
(1.41977 0.56678 -9.26193e-19)
(0.597705 0.227117 1.50408e-20)
(2.25972 0.62108 -1.31426e-18)
(2.2853 0.650563 -2.75915e-18)
(2.30663 0.67971 -4.77947e-21)
(2.32529 0.709086 5.57702e-19)
(2.33397 0.734931 -3.37743e-20)
(2.3079 0.746594 1.16647e-18)
(2.19649 0.723663 -6.40634e-19)
(1.92121 0.635345 -1.66707e-18)
(1.39262 0.449516 8.70887e-20)
(0.561374 0.165542 6.83093e-20)
(2.33509 0.539807 -1.01577e-18)
(2.36144 0.564323 1.4545e-20)
(2.38311 0.587871 3.81639e-19)
(2.39926 0.610105 -3.68339e-19)
(2.399 0.62665 5.71931e-19)
(2.3531 0.626959 1.50481e-18)
(2.20776 0.592747 -1.24203e-19)
(1.88776 0.500003 -8.56957e-19)
(1.32266 0.331748 1.91545e-19)
(0.504916 0.108057 3.52418e-20)
(2.3959 0.455934 3.65706e-19)
(2.42155 0.476 7.34385e-20)
(2.44086 0.493871 -3.75181e-19)
(2.45035 0.508674 -8.76721e-19)
(2.43472 0.515571 5.86233e-20)
(2.36011 0.504476 4.10558e-20)
(2.17136 0.460091 -1.03291e-18)
(1.80196 0.36616 4.44705e-19)
(1.20889 0.220815 1.27019e-19)
(0.431512 0.0589329 -4.10437e-20)
(2.4436 0.374968 6.71295e-19)
(2.46537 0.390102 -9.96714e-19)
(2.47848 0.401806 1.48084e-19)
(2.47536 0.408847 1.95076e-18)
(2.43565 0.405997 9.35524e-19)
(2.32153 0.384166 -2.00094e-18)
(2.07987 0.331898 -1.81538e-18)
(1.65987 0.241368 7.45701e-19)
(1.054 0.12418 -3.85108e-20)
(0.346532 0.0214678 -1.02468e-19)
(0.553249 0.347516 -2.0788e-19)
(0.512058 0.360337 -1.80788e-19)
(0.465547 0.373955 9.04841e-20)
(0.414375 0.388494 -2.88566e-19)
(0.358262 0.403826 -3.11685e-20)
(0.29637 0.418698 2.45457e-19)
(0.227734 0.427919 5.08692e-20)
(0.152847 0.416505 -1.37551e-20)
(0.078985 0.35193 1.18419e-20)
(0.0154853 0.179904 1.64796e-20)
(0.589398 0.456161 1.60964e-19)
(0.549464 0.475855 2.08447e-19)
(0.505069 0.496961 4.24302e-20)
(0.456459 0.519618 -6.81814e-20)
(0.403038 0.543588 -2.55303e-19)
(0.343716 0.567075 -5.13271e-21)
(0.276869 0.582909 9.46169e-20)
(0.201269 0.570424 2.95074e-20)
(0.120671 0.484254 -1.03679e-19)
(0.0373772 0.248663 -3.55767e-20)
(0.644106 0.557305 -1.53899e-19)
(0.605668 0.582976 -1.41083e-19)
(0.563902 0.610541 1.19364e-19)
(0.518579 0.640445 9.16637e-20)
(0.468821 0.672569 -7.41687e-20)
(0.413255 0.704658 -4.80808e-20)
(0.34926 0.727491 -1.03449e-19)
(0.272881 0.714614 -5.61683e-20)
(0.182253 0.608099 -6.09122e-20)
(0.0695436 0.312418 1.6205e-21)
(0.716784 0.654297 6.72209e-20)
(0.680401 0.686489 -3.35782e-20)
(0.642215 0.72048 -9.38498e-20)
(0.601002 0.756925 -2.21939e-20)
(0.555433 0.79581 -7.18284e-20)
(0.503935 0.834514 3.00945e-21)
(0.442886 0.861976 -2.47901e-19)
(0.365007 0.84659 3.76953e-20)
(0.261062 0.719597 -2.98699e-19)
(0.110427 0.368739 4.91461e-20)
(0.803184 0.735273 -8.2343e-21)
(0.769442 0.772518 5.99674e-21)
(0.735946 0.812082 -4.70792e-20)
(0.700607 0.855003 -2.39675e-19)
(0.66134 0.901052 1.11229e-19)
(0.615784 0.946866 1.74317e-20)
(0.558696 0.979474 6.04776e-20)
(0.478642 0.962418 -1.48901e-19)
(0.357322 0.817057 3.65207e-19)
(0.159608 0.417012 2.67495e-19)
(0.906195 0.81486 -5.93556e-20)
(0.874341 0.856641 -1.49183e-19)
(0.844357 0.899589 4.49458e-20)
(0.813542 0.946103 9.57597e-20)
(0.779771 0.996518 3.33037e-19)
(0.740209 1.04681 2.4037e-19)
(0.687535 1.08177 6.00901e-19)
(0.605162 1.06047 2.51202e-19)
(0.464418 0.896692 1.50524e-19)
(0.214055 0.454719 2.02066e-19)
(1.01568 0.868715 -1.01334e-19)
(0.98981 0.915286 5.27367e-19)
(0.96761 0.962793 3.53748e-19)
(0.944506 1.0137 -4.57816e-19)
(0.917725 1.06848 -2.32289e-19)
(0.884236 1.12293 6.3524e-19)
(0.835078 1.16029 -1.03011e-19)
(0.748243 1.13565 -4.2754e-19)
(0.583664 0.956504 1.02728e-20)
(0.273295 0.481274 2.4311e-19)
(1.13279 0.923566 2.65657e-19)
(1.10741 0.970494 5.63592e-20)
(1.08997 1.01827 -7.21956e-19)
(1.07479 1.07088 1.51017e-19)
(1.05731 1.12801 5.48675e-19)
(1.0325 1.18406 -3.09928e-19)
(0.988463 1.22044 -9.46509e-20)
(0.897149 1.18951 -1.77333e-19)
(0.706944 0.995336 1.78432e-20)
(0.333576 0.49561 -2.91704e-19)
(1.25845 0.943925 1.84515e-20)
(1.24347 0.994812 -5.23331e-19)
(1.23349 1.04371 -4.43196e-21)
(1.22403 1.09742 4.51634e-19)
(1.21244 1.15679 -4.6885e-19)
(1.19355 1.21517 9.21949e-19)
(1.15232 1.25166 6.21811e-19)
(1.05365 1.21594 -9.19748e-19)
(0.833862 1.01067 -6.95003e-20)
(0.393678 0.497325 -3.1588e-19)
(1.3595 0.956583 -3.11806e-19)
(1.35559 1.00797 -2.98233e-19)
(1.36223 1.05835 2.84119e-19)
(1.36711 1.11266 7.4185e-19)
(1.3667 1.17133 2.68873e-19)
(1.35605 1.22792 -7.65671e-19)
(1.31788 1.26067 9.56634e-20)
(1.21047 1.21808 2.07405e-19)
(0.958754 1.0039 -2.76859e-19)
(0.45095 0.487236 -2.225e-19)
(0.997274 0.00868594 5.58001e-22)
(1.01259 0.0353246 -1.60857e-20)
(1.01865 0.045102 -1.13889e-20)
(1.03166 0.0652056 0)
(1.02837 0.0829469 1.25427e-20)
(1.0254 0.104388 1.87621e-20)
(1.00291 0.128122 2.43121e-20)
(0.960958 0.157383 5.82105e-20)
(0.88398 0.216046 -9.48522e-20)
(0.733023 0.283043 -1.04939e-19)
(0.998804 0.00648865 3.26705e-20)
(1.01013 0.0336463 -5.1683e-20)
(1.01753 0.0420219 2.06765e-22)
(1.02925 0.0646742 -1.45091e-20)
(1.0273 0.0828702 6.54303e-21)
(1.02562 0.109017 -9.90142e-21)
(1.00312 0.137241 -5.71264e-20)
(0.966845 0.175674 0)
(0.890022 0.252262 1.98191e-19)
(0.761408 0.353625 -2.69899e-19)
(0.999689 0.00445988 -2.33593e-20)
(1.00891 0.0324953 1.41765e-20)
(1.01654 0.0386464 2.99584e-20)
(1.02863 0.0647589 7.95471e-21)
(1.02651 0.0822407 -1.62715e-20)
(1.02849 0.114392 1.39467e-21)
(1.00419 0.145587 -4.202e-20)
(0.978043 0.194534 -7.78885e-21)
(0.899757 0.287226 5.16385e-22)
(0.805132 0.421529 6.47336e-19)
(1.00005 0.00250095 -2.59027e-20)
(1.00866 0.0317756 1.93819e-21)
(1.01577 0.0349686 2.47084e-20)
(1.02952 0.0654052 1.68246e-20)
(1.02624 0.0810091 -8.29182e-21)
(1.03367 0.120569 -1.2259e-20)
(1.00632 0.152801 6.27958e-20)
(0.994221 0.214345 -2.81788e-21)
(0.912841 0.319814 -2.26908e-19)
(0.863565 0.48514 7.24806e-20)
(1.0001 0.00051365 1.78183e-20)
(1.00906 0.0313495 -2.55831e-20)
(1.01539 0.0310194 -2.00601e-20)
(1.03153 0.0664936 1.0057e-20)
(1.02689 0.0792087 0)
(1.04057 0.127447 0)
(1.01035 0.158792 5.50484e-20)
(1.01381 0.234922 1.61582e-21)
(0.931421 0.349821 -1.07488e-19)
(0.932972 0.543096 8.99539e-20)
(1.00006 -0.00152168 4.97326e-21)
(1.00977 0.0310802 2.02212e-20)
(1.01563 0.0268532 -5.57895e-20)
(1.03425 0.0678645 -1.98377e-20)
(1.02888 0.0769023 -4.06847e-22)
(1.04877 0.13492 5.47681e-20)
(1.01656 0.163352 8.63596e-20)
(1.03716 0.256702 2.11485e-22)
(0.952583 0.375029 1.75169e-19)
(1.0187 0.600777 -2.03109e-19)
(1.00011 -0.00361306 -1.90304e-20)
(1.0105 0.0308196 1.0459e-20)
(1.01673 0.0225299 -1.56869e-20)
(1.03733 0.069312 -4.24752e-20)
(1.03269 0.0742217 1.37013e-21)
(1.05755 0.14268 -1.53767e-21)
(1.02637 0.166728 -3.62614e-21)
(1.06125 0.278884 -1.91131e-19)
(0.984322 0.396651 1.32569e-19)
(1.10053 0.643091 -4.90981e-19)
(1.00037 -0.00575353 -3.17517e-21)
(1.01108 0.0304234 -2.96472e-20)
(1.01878 0.0181044 3.19475e-20)
(1.04056 0.070608 2.28812e-20)
(1.03856 0.0713182 7.4201e-22)
(1.06666 0.150316 -6.52309e-20)
(1.0397 0.169111 -4.98566e-20)
(1.08801 0.301463 3.46059e-19)
(1.01679 0.415085 1.15393e-20)
(1.21061 0.702256 7.78306e-19)
(1.00083 -0.00791254 1.26722e-20)
(1.01157 0.0297761 1.32443e-20)
(1.02166 0.0136054 3.81972e-20)
(1.04407 0.0716038 -2.52823e-20)
(1.04634 0.0682327 -6.67568e-20)
(1.07581 0.157917 8.06293e-22)
(1.05743 0.169167 -7.04236e-20)
(1.11458 0.322388 4.56814e-19)
(1.06978 0.417496 -7.476e-21)
(1.27795 0.720231 -1.07582e-18)
(1.00145 -0.0100388 3.00588e-22)
(1.01218 0.0287311 2.03236e-20)
(1.02493 0.00955138 1.25409e-20)
(1.04847 0.0720134 -5.09052e-20)
(1.05466 0.0669256 -6.64963e-20)
(1.08483 0.164768 -5.6946e-20)
(1.07555 0.176245 -1.30666e-19)
(1.13666 0.346004 -4.21352e-19)
(1.12277 0.446693 -2.30299e-19)
(1.40896 0.791979 -1.14321e-18)
(1.00249 -0.0135787 -9.22395e-22)
(1.0128 0.0273224 -4.29562e-21)
(1.02945 0.00192927 -1.48845e-20)
(1.05588 0.0713599 2.78177e-20)
(1.06532 0.0581818 5.14217e-20)
(1.10346 0.169759 -3.7081e-20)
(1.09779 0.16188 1.32662e-19)
(1.18119 0.357496 -3.91099e-19)
(1.18288 0.389557 -1.77487e-19)
(1.42287 0.78187 6.00499e-19)
(1.00467 -0.0188098 3.82533e-22)
(1.01153 0.0250798 6.79837e-21)
(1.03806 -0.0102202 -1.06114e-20)
(1.06318 0.0674201 5.15401e-20)
(1.08366 0.0425306 8.89569e-20)
(1.11951 0.168091 1.1154e-19)
(1.13862 0.138335 3.07674e-20)
(1.21011 0.34546 1.96575e-19)
(1.27908 0.342166 3.10415e-19)
(1.44251 0.683897 1.99751e-20)
(1.00687 -0.023886 -1.15194e-21)
(1.00835 0.0208757 -3.55457e-21)
(1.05275 -0.0223598 3.86615e-21)
(1.06731 0.0607158 3.95507e-21)
(1.10975 0.0274075 2.73724e-34)
(1.12676 0.160878 -6.24945e-21)
(1.18835 0.114421 -4.3738e-34)
(1.22732 0.322927 1.63262e-20)
(1.35557 0.2906 -4.99374e-20)
(1.48089 0.595371 -5.15449e-20)
(1.0059 -0.0287477 1.48042e-20)
(1.00798 0.0128575 -4.00487e-35)
(1.07008 -0.0333614 -4.4296e-21)
(1.07247 0.0496654 -2.21896e-20)
(1.13534 0.0144513 -4.51799e-20)
(1.13522 0.148675 -3.79688e-20)
(1.22891 0.0912256 -5.84283e-34)
(1.25023 0.295643 -7.8215e-20)
(1.39927 0.240544 -1.40613e-19)
(1.51843 0.506923 8.7551e-20)
(0.998657 -0.0333975 0)
(1.01739 -0.000653653 -2.00205e-35)
(1.08465 -0.0428146 0)
(1.08623 0.0336659 0)
(1.15323 0.0037474 0)
(1.15629 0.129426 0)
(1.2528 0.0703169 -4.34234e-34)
(1.28347 0.260951 0)
(1.41984 0.198024 -1.79123e-20)
(1.54716 0.41739 5.17883e-20)
(0.984816 -0.0391399 2.1348e-21)
(1.03955 -0.01688 -1.18902e-21)
(1.0938 -0.0508974 -5.61528e-21)
(1.11109 0.0173323 0)
(1.16348 -0.0036179 0)
(1.18873 0.105252 5.7795e-21)
(1.26727 0.05324 4.30356e-20)
(1.31662 0.22065 -1.1935e-20)
(1.43755 0.161657 -2.62312e-20)
(1.56876 0.332674 1.95612e-19)
(0.968264 -0.0504987 -8.24341e-20)
(1.07329 -0.0422597 3.12422e-21)
(1.09408 -0.0623894 -6.26167e-21)
(1.14196 -0.00586392 -1.43852e-20)
(1.15841 -0.0136566 -2.81623e-20)
(1.21576 0.0751763 -1.3005e-20)
(1.26196 0.0386848 -3.68564e-20)
(1.33433 0.175663 -3.18952e-20)
(1.44342 0.127885 -5.34691e-20)
(1.58379 0.253894 6.86852e-20)
(0.956157 -0.0556926 -5.04387e-21)
(1.10332 -0.0558278 -1.72419e-20)
(1.06948 -0.0611608 -6.84696e-21)
(1.14365 -0.0187589 -4.73573e-21)
(1.09664 -0.0151234 -4.77956e-35)
(1.19457 0.0478636 6.24375e-21)
(1.18244 0.0286257 -8.07996e-34)
(1.30498 0.128027 -1.14629e-20)
(1.38515 0.0937412 1.63241e-20)
(1.56918 0.177945 2.35887e-20)
(0.951687 -0.0954267 1.97927e-19)
(1.05828 -0.0888064 -4.59643e-21)
(0.949967 -0.0740951 -7.27567e-21)
(0.989898 -0.0352771 1.21361e-20)
(0.879587 -0.0160132 1.58797e-20)
(0.99866 0.0229021 1.57454e-20)
(0.933677 0.0215047 1.58562e-20)
(1.12103 0.0760277 -6.93305e-21)
(1.16625 0.0584049 -1.67645e-20)
(1.4108 0.101117 1.27573e-19)
(0.824418 -0.0470083 7.79561e-21)
(0.724635 -0.0335036 -9.16497e-35)
(0.528803 -0.0182411 -8.36089e-21)
(0.472874 -0.00372631 0)
(0.39319 -6.13945e-05 0)
(0.462778 0.00822554 6.23567e-21)
(0.438286 0.00495549 -4.46096e-36)
(0.577959 0.0166473 -1.10054e-20)
(0.630736 0.00948202 -2.38978e-20)
(0.812148 0.0178357 5.10669e-20)
(1.62179 0.818875 -1.7988e-19)
(1.72073 0.802561 -2.68714e-19)
(1.83312 0.773318 0)
(1.93908 0.733262 1.41188e-19)
(2.03566 0.680191 6.03678e-19)
(2.12396 0.620259 -1.11796e-19)
(2.20099 0.552215 1.54711e-18)
(2.27404 0.482196 -7.38128e-20)
(2.33166 0.408801 -3.39906e-19)
(2.38878 0.33984 2.92761e-19)
(1.64746 0.673571 8.93681e-20)
(1.72128 0.6597 1.0706e-19)
(1.81463 0.632068 -1.17533e-20)
(1.89824 0.595732 1.98562e-19)
(1.98659 0.548566 -1.63811e-19)
(2.05513 0.500877 -3.83487e-19)
(2.13099 0.445026 -1.09933e-19)
(2.18573 0.395029 5.23872e-19)