/*--------------------------------*- C++ -*----------------------------------*\
  =========                 |
  \\      /  F ield         | OpenFOAM: The Open Source CFD Toolbox
   \\    /   O peration     | Website:  https://openfoam.org
    \\  /    A nd           | Version:  13
     \\/     M anipulation  |
\*---------------------------------------------------------------------------*/
FoamFile
{
    format      ascii;
    class       surfaceScalarField;
    location    "1.795";
    object      phi;
}
// * * * * * * * * * * * * * * * * * * * * * * * * * * * * * * * * * * * * * //

dimensions      [0 3 -1 0 0 0 0];

internalField   nonuniform List<scalar> 
823
(
0.0126629
0.0236571
-0.03632
0.067854
-0.0140024
-0.0411887
0.162862
-0.107606
0.0125979
0.27059
-0.200681
0.0929536
-0.276467
0.187567
0.359489
0.0209838
0.00267331
0.103472
-0.0964908
0.210848
-0.214982
0.3073
-0.297133
-0.344752
0.375585
0.0380222
-0.0353489
0.132855
-0.191324
0.22047
-0.302597
0.279358
-0.356022
-0.374874
0.309481
0.0539268
-0.0892757
0.132417
-0.269814
0.185554
-0.355733
0.213202
-0.383671
-0.390001
0.22833
0.053346
-0.142622
0.103822
-0.32029
0.127883
-0.379793
0.136063
-0.391851
0.136943
-0.390881
-0.0294032
0.0486072
-0.0192041
-0.0683193
0.0566874
-0.0177712
-0.0977119
0.0347755
-0.00538292
-0.111938
0.00564184
0.00858387
-0.0183814
-0.112274
0.018718
-0.0208847
0.0694919
-0.0533743
0.0891771
-0.0806743
0.0620755
-0.0940903
0.0190578
-0.025941
-0.0865307
0.000547223
0.0689447
-0.00834589
0.0980702
-0.0189225
0.0726521
-0.0209824
0.0211177
-0.051939
0.00501562
0.0174298
0.0515149
0.0386864
0.0768136
0.0635249
0.0478136
0.0961638
-0.0115212
-0.11005
0.154274
0.0151949
0.0508198
0.111231
0.192664
0.270181
0.12443
-0.572303
0.335599
0.29903
-0.475537
0.300936
0.374497
-0.259086
0.18362
0.402314
-0.152291
0.124473
-0.0618876
0.0580455
0.123797
-0.782631
0.296272
-0.648011
0.37442
-0.337235
0.403723
-0.181594
-0.0672118
0.176127
-0.953742
0.303552
-0.775436
0.375019
-0.408702
0.404648
-0.211223
-0.0753219
0.264022
-1.06349
0.33127
-0.842684
0.380545
-0.457977
0.406141
-0.236818
-0.086665
0.338859
-1.13217
0.368171
-0.871997
0.392366
-0.482173
0.409586
-0.254038
-0.100913
1.11101
-0.979874
-1.2633
0.897038
-0.658026
0.757293
-0.342427
0.68586
-0.182605
-0.0767086
1.02986
-0.697203
-1.31253
0.827564
-0.455733
0.727328
-0.242191
0.678373
-0.13365
-0.0571256
1.05106
-0.466409
-1.28185
0.866775
-0.271448
0.753249
-0.128666
0.689654
-0.0700547
-0.0315453
0.992552
-0.231444
-1.22752
0.820184
-0.0990805
0.719619
-0.0281006
0.66443
-0.0148664
-0.00878537
0.605156
-0.8366
0.506075
0.477975
0.463108
1.079
0.0847144
-1.02677
1.11642
0.190911
1.19992
0.225975
1.24678
0.328732
0.342964
1.0006
0.0441022
-0.959988
1.05714
0.134373
1.12841
0.154699
1.22415
0.233
0.254583
0.96254
0.018622
-0.93706
1.02106
0.0758536
1.08532
0.0904404
1.17923
0.139086
0.15196
0.916501
-0.00114202
-0.896737
0.969892
0.0224625
1.03312
0.027208
1.12463
0.0475771
0.0490776
0.690275
-0.691417
0.712737
0.739945
0.787522
0.115063
0.301742
-0.256171
-0.160634
0.0748956
0.308891
-0.268724
0.0398701
0.319189
-0.284163
0.0118241
0.310839
-0.282793
0.201632
-0.189808
0.0997515
0.338673
-0.136682
0.0648831
0.343759
0.0326477
0.351424
0.00761887
0.335868
0.209251
0.055457
0.364936
-0.0817195
0.029203
0.370013
0.00687226
0.373755
-0.00585847
0.348599
0.203392
0.00511059
0.383401
-0.0235761
-0.0130536
0.388178
-0.0244139
0.385115
-0.021007
0.345192
0.182385
-0.0663135
0.0588336
-0.0699873
-0.0646649
-0.0397636
0.185595
0.104957
-0.235066
-0.0554857
0.135169
0.109617
-0.059191
0.0838141
0.115023
-0.0636685
0.0340643
0.11593
-0.0661806
0.0831604
-0.0490961
0.187154
0.150094
-0.23229
0.140669
0.156102
0.0904439
0.165248
0.0380633
0.168311
0.121224
0.155989
0.194627
-0.200521
0.11254
0.19955
0.0689824
0.208806
0.0268597
0.210434
0.148083
0.147975
0.229633
-0.182982
0.108533
0.238993
0.0655753
0.251763
0.024626
0.251383
0.172709
0.11064
-0.137178
0.0809087
0.0485086
0.0170983
0.411166
0.0265782
-0.0417648
0.417609
0.0843532
-0.0907957
0.410266
0.18124
-0.173897
0.374125
0.237757
-0.201616
0.474773
-0.335714
0.408498
0.0140597
0.41236
0.080491
0.401783
0.191817
0.368048
0.271491
0.610531
0.403483
0.00655632
0.404375
0.0795988
0.383557
0.212636
0.363594
0.291453
0.773604
0.397248
0.00528812
0.38995
0.0868963
0.368698
0.233888
0.338819
0.321333
0.929441
0.388917
0.0123508
0.374764
0.101049
0.337595
0.271056
0.312812
0.346116
1.10508
0.61931
-0.0029387
0.635355
0.0850042
0.669536
0.236876
0.764859
0.250793
0.876353
0.993581
0.621656
-0.0205745
0.645216
0.0614448
0.709295
0.172797
0.779482
0.180606
0.673833
0.982002
0.623136
-0.0396901
0.659943
0.0246381
0.72901
0.103729
0.783493
0.126123
0.448103
1.00922
0.619085
-0.0547546
0.661647
-0.0179239
0.726252
0.0391241
0.78894
0.0634348
0.215081
1.02196
0.549266
0.531342
0.570466
0.633901
0.848981
1.00673
-0.173782
1.00401
-0.133964
0.995477
-0.0731857
1.01309
-0.0411911
0.0451559
0.954591
-0.146371
0.942101
-0.121474
0.932535
-0.0636203
0.942849
-0.051505
0.0280169
0.964386
-0.101534
0.935172
-0.0922604
0.924062
-0.0525096
0.917469
-0.0449125
0.00842622
0.967823
-0.0473947
0.921378
-0.0458155
0.899645
-0.030777
0.882706
-0.0279727
-0.00560507
0.801587
0.755771
0.724994
0.697022
0.0508973
0.142147
-0.193044
0.0758408
0.320643
-0.345587
0.0753818
0.377593
-0.377134
0.0649123
0.38362
-0.373151
0.353889
0.0533448
-0.342321
0.0753713
0.0667754
0.151965
0.24405
0.189326
0.340231
0.196423
0.376524
0.373897
0.176414
0.0599457
0.00682968
0.181616
0.122379
0.283178
0.23867
0.350879
0.308823
0.367485
0.357291
0.0237459
-0.0169162
0.127223
0.0189018
0.260521
0.105372
0.400916
0.168428
0.259066
0.509335
0.00363834
-0.0205545
0.0596682
-0.037128
0.170598
-0.00555717
0.316989
0.0220364
0.110623
0.465432
0.0173688
-0.0379233
0.0572179
-0.0769771
0.123218
-0.0715574
0.200063
-0.0548084
0.0143746
0.296311
0.0199757
-0.057899
0.0370249
-0.0940263
0.0503072
-0.0848397
0.0547139
-0.0592151
-0.0170285
0.086117
-0.0172968
-0.0406022
-0.0496926
-0.0616306
-0.0800878
-0.0544445
-0.10051
-0.0387934
-0.0217589
-0.0957791
-0.0307874
-0.00981475
-0.0719776
-0.0204403
-0.102778
-0.0236438
-0.119103
-0.0224691
-0.019463
-0.121398
-0.0290188
-0.0672304
-0.0962571
-0.110142
-0.110887
0.395908
0.458913
-0.55851
0.358673
0.2823
-0.245065
0.351845
0.115847
-0.109019
0.377525
0.0103157
-0.0359961
-0.0189443
-0.00312939
0.19882
0.34621
0.275972
0.205148
0.343924
0.0478952
0.384498
-0.0302582
-0.0358155
0.0994954
0.150936
0.271341
0.0333025
0.354178
-0.0349422
0.390045
-0.0661244
-0.0471737
0.116554
-0.0870167
0.288577
-0.138721
0.364948
-0.111313
0.395709
-0.0968856
-0.0538782
0.137695
0.299911
0.372218
0.399806
0.23535
0.421855
-0.657205
0.215489
0.019861
0.278104
-0.0626151
0.316362
-0.0382584
-0.011257
0.999311
-1.13597
0.774106
0.602472
0.528218
0.0869377
-0.0149057
-0.072032
0.145939
-0.0590013
0.255052
-0.109113
0.441987
-0.186934
-0.215218
0.197761
-0.159322
0.315174
0.563352
0.885752
0.140756
-0.12693
0.159159
-0.172986
0.107104
-0.132029
0.165681
0.0697574
-0.13872
0.176067
0.028995
-0.1372
0.177963
-0.0939404
0.122935
0.181153
-0.0889277
-0.219155
0.137906
-0.0887822
0.0878428
-0.0886574
0.0363278
-0.0856853
-0.0576126
0.1705
-0.0404691
-0.218958
0.121642
-0.0399248
0.0737911
-0.0408063
0.0292886
-0.0411828
-0.028324
0.192608
0.00742816
-0.240505
0.143392
0.00929094
0.0916458
0.0109402
0.0384562
0.0120068
0.0101322
0.195766
-0.243824
0.145866
0.0931376
0.0389638
0.0432877
-0.319116
-0.0664924
0.0161108
-0.345974
-0.00715306
-0.35387
-0.0168001
-0.335939
-0.209844
0.127301
-0.287637
-0.158781
0.0842397
-0.302913
0.0412866
-0.310917
0.00881592
-0.303469
-0.201028
0.149537
-0.244605
-0.192569
0.103808
-0.257183
0.0602851
-0.267394
0.0214695
-0.264653
-0.179559
0.164672
-0.207119
-0.202158
0.121041
-0.213552
0.0746459
-0.221
0.02977
-0.219777
-0.149789
0.161471
-0.209431
0.113601
0.0686679
0.0268533
0.392744
0.0843035
-0.0810678
0.380305
0.111388
-0.0989494
0.333395
0.0976404
-0.0507301
0.301087
0.0445544
-0.0122462
-0.155575
0.283676
0.400255
0.0800279
0.399092
0.112551
0.367553
0.12918
0.327782
0.0843253
-0.0469478
0.405262
0.0707456
0.411694
0.106118
0.386764
0.15411
0.349716
0.121374
0.0838094
0.40944
0.0572853
0.417172
0.0983859
0.404563
0.166719
0.364376
0.161561
0.20768
0.4115
0.41909
0.411912
0.371858
0.426051
0.0840003
0.347472
0.0785788
0.313978
0.0334941
0.31881
-0.00483255
-0.15184
0.47065
0.512984
0.492613
0.475377
0.458298
0.590135
0.372392
0.0982585
0.283799
0.0885931
0.184651
0.0991477
0.105026
0.0796254
0.0329937
0.478962
0.365397
0.271976
0.192821
)
;

boundaryField
{
    left
    {
        type            calculated;
        value           nonuniform List<scalar> 
17
(
-0.60402
-0.60402
-0.60402
-0.60402
-0.60402
-0.39598
-0.39598
-0.39598
-0.39598
-0.39598
-0.39598
-0.39598
-0.39598
-0.39598
-0.39598
-0.510051
-0.510051
)
;
    }
    right
    {
        type            calculated;
        value           nonuniform List<scalar> 
17
(
0.327619
0.513831
0.399599
0.401369
0.401403
0.402414
0.403973
0.406156
0.409047
0.412758
0.417484
0.423834
0.661655
0.65879
0.664074
0.641671
0.454323
)
;
    }
    down
    {
        type            calculated;
        value           uniform 0;
    }
    up
    {
        type            calculated;
        value           uniform 0;
    }
    cylinder
    {
        type            calculated;
        value           uniform 0;
    }
    defaultFaces
    {
        type            empty;
    }
}


// ************************************************************************* //
