/*--------------------------------*- C++ -*----------------------------------*\
  =========                 |
  \\      /  F ield         | OpenFOAM: The Open Source CFD Toolbox
   \\    /   O peration     | Website:  https://openfoam.org
    \\  /    A nd           | Version:  13
     \\/     M anipulation  |
\*---------------------------------------------------------------------------*/
FoamFile
{
    format      ascii;
    class       surfaceScalarField;
    location    "3.325";
    object      phi;
}
// * * * * * * * * * * * * * * * * * * * * * * * * * * * * * * * * * * * * * //

dimensions      [0 3 -1 0 0 0 0];

internalField   nonuniform List<scalar> 
823
(
-0.00186886
0.0140018
-0.012133
0.0197684
0.0119209
-0.0335581
0.0863139
-0.0235077
-0.0430378
0.193613
-0.0855231
-0.021776
-0.100329
-0.047154
0.341096
0.00116951
0.0128323
0.0454802
-0.0323898
0.142504
-0.120532
0.259874
-0.202893
-0.273885
0.43343
0.0220295
-0.00919721
0.111473
-0.121833
0.232713
-0.241773
0.353445
-0.323624
-0.375263
0.454823
0.0460811
-0.0552784
0.151264
-0.227016
0.245106
-0.335614
0.305266
-0.383784
-0.397477
0.32748
0.0627842
-0.118063
0.141862
-0.306094
0.187678
-0.381429
0.205229
-0.401335
0.21643
-0.408678
-0.0233936
0.0673308
-0.0439372
-0.0641373
0.106863
-0.0661189
-0.108861
0.111506
-0.0667829
-0.152628
0.107368
-0.063601
0.100388
-0.193116
-0.0599005
0.000774956
0.0665559
-0.0132114
0.120849
-0.0352455
0.133541
-0.058219
0.130341
0.119563
-0.0773937
0.0215044
0.0450515
0.0424817
0.0998716
0.055082
0.12094
0.0638842
0.121539
0.113367
0.0700803
0.0244552
0.0205963
0.0640622
0.0602647
0.102087
0.082915
0.137866
0.0857606
0.0915129
0.15972
0.0084633
0.0351698
0.075047
0.139032
0.183391
-0.134236
0.258124
-0.317003
0.103681
-0.581842
0.343925
0.242282
-0.669444
0.530843
0.340335
-0.51859
0.420537
-0.251145
0.209845
0.0435979
0.137132
0.229048
-0.767293
0.319686
-0.760082
0.377585
-0.576489
-0.276352
0.232521
-0.0253091
0.369604
-0.904375
0.421239
-0.811717
0.432006
-0.587257
-0.279554
0.357754
-0.223343
0.449438
-0.996059
0.491877
-0.854156
0.482274
-0.577654
-0.268463
0.409698
-0.449651
0.485909
-1.07227
0.519516
-0.887763
0.509038
-0.567176
-0.256934
1.28625
-0.5585
-1.1774
1.19062
-0.976636
1.02081
-0.717954
0.861909
-0.408276
-0.174602
1.40403
-0.496812
-1.46572
1.16887
-0.741476
0.924813
-0.473898
0.766479
-0.249943
-0.113264
1.34018
-0.414828
-1.42217
1.15642
-0.557717
0.969096
-0.28657
0.806625
-0.0874729
-0.0334137
1.21342
-0.273768
-1.35448
0.950916
-0.295217
0.763431
-0.0990857
0.661153
0.0148051
0.0120638
0.669841
-0.943609
0.374624
0.275538
0.290344
1.13614
0.180578
-1.10029
1.22747
0.236151
1.32433
0.357963
1.3249
0.432859
0.488592
1.04604
0.120724
-0.98619
1.12956
0.152637
1.23511
0.252412
1.35534
0.31263
0.378212
0.988971
0.067308
-0.935555
1.04826
0.0933446
1.14728
0.153398
1.27407
0.185835
0.230119
0.938488
0.0217469
-0.892927
0.997283
0.0345495
1.09278
0.0578995
1.2107
0.0679182
0.0863408
0.696901
-0.675154
0.73145
0.78935
0.857268
0.144956
0.307395
-0.251408
-0.200943
0.096916
0.312305
-0.264265
0.054559
0.32244
-0.280083
0.0190096
0.313925
-0.278375
0.202785
-0.183776
0.10339
0.344521
-0.140517
0.0662565
0.349439
0.0331367
0.35556
0.00715878
0.339902
0.209944
0.0700238
0.381497
-0.106999
0.0363545
0.383109
0.00780274
0.384111
-0.00708216
0.354787
0.202862
-0.0175577
0.39736
0.00169473
-0.0337639
0.399315
-0.0408728
0.39122
-0.0309487
0.344863
0.171913
-0.10039
0.089072
-0.102411
-0.0926198
-0.0538507
0.198125
0.10945
-0.249497
-0.0580784
0.145275
0.113923
-0.0610724
0.090745
0.119195
-0.0646654
0.0371129
0.119906
-0.0662741
0.0847933
-0.0476804
0.183834
0.151805
-0.226189
0.139103
0.158655
0.0892727
0.169025
0.0373397
0.171839
0.122133
0.142967
0.196595
-0.187757
0.101242
0.20038
0.0609722
0.209295
0.0227403
0.210071
0.144873
0.149711
0.228448
-0.181563
0.111565
0.238525
0.0686536
0.252207
0.02675
0.251975
0.171623
0.0921691
-0.11513
0.0664292
0.038553
0.0121525
0.410154
0.0318377
-0.0460126
0.42247
0.0544638
-0.0667789
0.416749
0.186795
-0.181075
0.387006
0.269309
-0.239566
0.512018
-0.374508
0.408416
0.0194013
0.415473
0.047407
0.40599
0.196278
0.375674
0.299625
0.661502
0.402129
0.0132522
0.410373
0.0391627
0.380716
0.225935
0.366558
0.313783
0.840303
0.397318
0.0119134
0.394853
0.0416284
0.36635
0.254438
0.33625
0.343884
0.994989
0.388328
0.0195653
0.381967
0.0479888
0.333618
0.302787
0.318299
0.359203
1.19816
0.61906
0.00452524
0.646779
0.0202707
0.674612
0.274953
0.744556
0.289259
0.932531
1.01018
0.627453
-0.0189069
0.645608
0.00211489
0.708515
0.212047
0.759732
0.238041
0.66395
1.02831
0.628816
-0.043703
0.64739
-0.0164587
0.726624
0.132813
0.811446
0.153219
0.414423
1.06097
0.619063
-0.0587455
0.640008
-0.0374036
0.729847
0.0429736
0.823852
0.0592144
0.196543
1.04173
0.545275
0.507871
0.550845
0.610059
0.806602
1.04698
-0.237737
1.03842
-0.131959
1.05102
-0.119596
1.04601
0.00670133
0.0347963
0.987301
-0.196724
0.974509
-0.119167
0.952161
-0.0972473
0.964185
-0.00532251
0.0127908
0.987446
-0.123197
0.9556
-0.087321
0.92163
-0.0632781
0.930067
-0.0137594
0.0073027
0.968724
-0.0501897
0.92128
-0.0398764
0.887011
-0.0290099
0.885346
-0.0120941
-0.000278374
0.756412
0.716536
0.687526
0.675432
0.0470261
0.141291
-0.188317
0.0718062
0.310249
-0.335029
0.0730331
0.364283
-0.36551
0.0631519
0.36816
-0.358279
0.337099
0.0513273
-0.325274
0.0678429
0.0734484
0.139138
0.238953
0.174607
0.328815
0.180064
0.362703
0.358325
0.158838
0.0566585
0.0167898
0.16708
0.128532
0.260819
0.235075
0.328476
0.295046
0.346975
0.339826
0.0272575
-0.0104676
0.121667
0.0341232
0.241441
0.1153
0.358329
0.178158
0.240523
0.464781
0.00609671
-0.0165643
0.0521346
-0.0119148
0.145978
0.0214571
0.260565
0.0635708
0.102858
0.39823
-0.00243543
-0.0141289
0.00915647
-0.0235067
0.0490824
-0.0184688
0.115032
-0.00237867
0.024134
0.193756
0.00274063
-0.0168695
0.00944229
-0.0302083
0.0229053
-0.0319318
0.0468988
-0.0263722
-0.0146381
0.085671
-0.0061849
-0.0106846
-0.0174007
-0.0189925
-0.0282291
-0.0211034
-0.0349782
-0.0196231
-0.0154963
-0.0341201
-0.0249669
0.0142822
-0.0637124
0.019753
-0.102948
0.0181323
-0.138924
0.0163532
0.015663
-0.170084
-0.029655
-0.0760208
-0.124671
-0.171919
-0.216157
0.34449
0.479097
-0.629831
0.403657
0.153909
-0.213076
0.387435
-0.0104852
0.0267071
0.384734
-0.00996878
0.0126704
-0.00363417
-0.0134392
0.222198
0.34257
0.212827
0.16328
0.247709
-0.0453672
0.320219
-0.0824783
-0.052352
-0.0182857
0.326735
0.0520272
0.0929669
0.194544
-0.187884
0.304243
-0.192177
-0.108383
-0.17259
0.329242
0.0202376
-0.0998612
0.194858
-0.362504
0.31025
-0.307569
-0.161244
-0.203918
0.0401465
0.208486
0.321454
0.213987
0.402268
-0.616255
0.093371
0.120616
0.151108
-0.0577375
0.219686
-0.068578
-0.0288923
0.791064
-1.01863
0.698604
0.667573
0.611666
0.0842544
-0.0147289
-0.0695255
0.134972
-0.0507174
0.24565
-0.110678
0.414292
-0.168643
-0.201962
0.188953
-0.152354
0.297073
0.526221
0.822359
0.136512
-0.126609
0.157744
-0.167647
0.102895
-0.131457
0.165074
0.0655709
-0.138221
0.175545
0.0263827
-0.138002
0.17719
-0.0963842
0.122767
0.172962
-0.0884447
-0.211126
0.130761
-0.0892559
0.0833312
-0.0907915
0.0344359
-0.0891065
-0.0619483
0.183053
-0.04107
-0.230427
0.134096
-0.0402989
0.0834469
-0.0401427
0.0338604
-0.03952
-0.0280879
0.195241
0.00845648
-0.244767
0.144537
0.0104054
0.0917993
0.0125946
0.0382949
0.0139843
0.0102071
0.192501
-0.242123
0.141834
0.0897631
0.0374733
0.0378604
-0.305821
-0.0573134
0.014772
-0.33519
-0.00673318
-0.344004
-0.0153327
-0.326429
-0.20365
0.119155
-0.276064
-0.148912
0.0773554
-0.293391
0.0373328
-0.303982
0.00737396
-0.296471
-0.196276
0.137519
-0.237696
-0.175887
0.0973392
-0.253211
0.0570056
-0.263648
0.020201
-0.259666
-0.176075
0.157608
-0.203504
-0.1918
0.115177
-0.21078
0.0699076
-0.218379
0.027411
-0.217169
-0.148664
0.154416
-0.200176
0.10871
0.0658765
0.0258973
0.393718
0.079417
-0.077155
0.392436
0.126842
-0.12556
0.345739
0.150021
-0.103323
0.290253
0.0498831
0.00560279
-0.153697
0.276302
0.398696
0.0767008
0.410588
0.114949
0.389478
0.171131
0.332455
0.106905
-0.0323675
0.402067
0.0706133
0.419759
0.0972572
0.409927
0.180964
0.357165
0.159667
0.0943698
0.406591
0.0600016
0.423369
0.0804791
0.422296
0.182037
0.379109
0.202855
0.228711
0.409969
0.423669
0.424631
0.38792
0.424735
0.0853157
0.324101
0.100634
0.256346
0.0677554
0.268688
-0.0123426
-0.148305
0.416993
0.518212
0.493286
0.457718
0.450978
0.578975
0.332201
0.0847922
0.25658
0.0756213
0.169601
0.0869784
0.0977446
0.0718565
0.0282191
0.463591
0.347412
0.258504
0.181448
)
;

boundaryField
{
    left
    {
        type            calculated;
        value           nonuniform List<scalar> 
17
(
-0.60402
-0.60402
-0.60402
-0.60402
-0.60402
-0.39598
-0.39598
-0.39598
-0.39598
-0.39598
-0.39598
-0.39598
-0.39598
-0.39598
-0.39598
-0.510051
-0.510051
)
;
    }
    right
    {
        type            calculated;
        value           nonuniform List<scalar> 
17
(
0.248579
0.569334
0.401807
0.368936
0.360274
0.36311
0.370055
0.381636
0.402791
0.435209
0.471183
0.49751
0.779577
0.705142
0.726775
0.615676
0.302407
)
;
    }
    down
    {
        type            calculated;
        value           uniform 0;
    }
    up
    {
        type            calculated;
        value           uniform 0;
    }
    cylinder
    {
        type            calculated;
        value           uniform 0;
    }
    defaultFaces
    {
        type            empty;
    }
}


// ************************************************************************* //
