# Selection   : all
# Cells       : 440
# Volume      : 7.374263e+01
# Time        	min(p)
0.8           	-2.069700e+00
0.85          	-1.976860e+00
0.9           	-1.930888e+00
