/*--------------------------------*- C++ -*----------------------------------*\
  =========                 |
  \\      /  F ield         | OpenFOAM: The Open Source CFD Toolbox
   \\    /   O peration     | Website:  https://openfoam.org
    \\  /    A nd           | Version:  13
     \\/     M anipulation  |
\*---------------------------------------------------------------------------*/
FoamFile
{
    format      ascii;
    class       surfaceScalarField;
    location    "10";
    object      phi;
}
// * * * * * * * * * * * * * * * * * * * * * * * * * * * * * * * * * * * * * //

dimensions      [0 3 -1 0 0 0 0];

internalField   nonuniform List<scalar> 
823
(
-0.00305373
0.0160853
-0.0130316
0.0117748
0.0106546
-0.025483
0.068797
-0.0306906
-0.0263317
0.164924
-0.0912894
-0.0048374
-0.113649
-0.0233454
0.301918
0.00446677
0.0116185
0.0501954
-0.0350741
0.14203
-0.122526
0.253419
-0.202678
-0.273289
0.413058
0.0227981
-0.0111795
0.109211
-0.121487
0.222822
-0.236137
0.333734
-0.31359
-0.359699
0.420144
0.0443199
-0.0554994
0.141861
-0.219028
0.227157
-0.321433
0.279564
-0.365996
-0.379324
0.299189
0.0576765
-0.113176
0.129024
-0.290375
0.169469
-0.361878
0.18478
-0.381307
0.193507
-0.388051
-0.00556745
-0.0285366
0.034104
-0.0183824
-0.0278743
0.0406892
-0.0302381
-0.0216648
0.0335204
-0.0375094
-0.0139828
0.0212541
0.00215489
-0.0407802
0.00111588
-0.0149397
-0.0135969
-0.041351
-0.00146302
-0.0717049
0.00868915
-0.0998751
0.0141875
0.0242001
-0.12192
-0.010467
-0.00312991
-0.0274703
0.0155404
-0.0504191
0.0316379
-0.0757193
0.0394877
0.0445637
-0.0960829
-0.00623466
0.00310476
-0.0110112
0.0203169
-0.0160196
0.0366463
-0.0198308
0.043299
0.0498469
-0.025114
-0.00992682
-0.015093
-0.0047784
0.0336832
0.0601846
0.200279
1.16786
-1.40892
0.438284
0.184172
-0.422177
0.368418
-1.94634
2.01621
0.395418
-1.00234
0.975338
0.00748326
0.00541198
0.170391
0.875544
0.555446
-0.200883
0.419499
-1.8104
0.345618
-0.928457
0.0199174
0.147541
0.63192
0.589538
-0.642879
0.503
-1.72386
0.343122
-0.768579
0.0505032
0.186971
0.419836
0.550417
-1.00633
0.495344
-1.66879
0.334226
-0.607461
0.0667513
0.274057
0.205963
0.564196
-1.29646
0.498548
-1.60314
0.333247
-0.442159
0.0547601
1.2466
0.0848106
-1.12545
1.37284
-1.42271
1.04626
-1.27656
0.736096
-0.131994
0.082036
1.52152
-0.0444674
-1.39225
1.32662
-1.2278
0.796066
-0.746006
0.640259
0.023813
-0.0289722
1.45642
-0.153579
-1.34731
1.05818
-0.829557
0.668833
-0.356661
0.718186
-0.0255401
-0.139475
1.35126
-0.197098
-1.30774
0.909617
-0.387917
0.655989
-0.103033
0.700914
-0.0704659
-0.0986317
0.714266
-0.911364
0.326349
0.223316
0.15285
1.08537
0.151142
-1.04301
1.15395
0.230612
1.26248
0.311613
1.26644
0.4091
0.442911
1.01529
0.0899841
-0.954128
1.0801
0.165794
1.1812
0.21052
1.28124
0.309055
0.331907
0.951724
0.0467848
-0.908525
1.01273
0.104793
1.09764
0.125602
1.21672
0.189974
0.201321
0.912251
0.0130501
-0.878516
0.980112
0.0369323
1.05971
0.046006
1.18118
0.0685067
0.0747588
0.68516
-0.67211
0.722092
0.768098
0.836605
0.128089
0.295338
-0.244338
-0.17909
0.084724
0.300478
-0.257113
0.046346
0.310378
-0.272
0.0150212
0.300119
-0.268795
0.191168
-0.176146
0.0935184
0.330929
-0.129109
0.0590017
0.334995
0.0289416
0.340438
0.00558422
0.323477
0.196752
0.0596387
0.363363
-0.092072
0.0296799
0.364953
0.00466778
0.365451
-0.00727464
0.335419
0.189477
-0.0153156
0.379642
-0.000963444
-0.030953
0.380591
-0.0375005
0.371998
-0.0278931
0.325812
0.161584
-0.0932484
0.0848394
-0.0939647
-0.0838447
-0.0484081
0.200157
0.100337
-0.253618
-0.0468756
0.146121
0.104044
-0.0500086
0.090915
0.108257
-0.053051
0.0370808
0.107668
-0.0538339
0.0754968
-0.038416
0.198027
0.145146
-0.242835
0.150367
0.151704
0.0976089
0.161015
0.0415772
0.1637
0.117074
0.139566
0.189613
-0.184033
0.0983583
0.192911
0.0584616
0.200912
0.0212333
0.200928
0.138307
0.153814
0.222725
-0.186926
0.114351
0.232375
0.0702517
0.24501
0.0272419
0.243938
0.165549
0.0871814
-0.108794
0.0624436
0.0354538
0.0105972
0.405867
0.055073
-0.0649607
0.42605
0.01889
-0.0390727
0.410124
0.196712
-0.180786
0.396625
0.175768
-0.162269
0.444808
-0.301801
0.404461
0.0465913
0.419056
0.00429496
0.398191
0.217577
0.386898
0.18706
0.588871
0.399342
0.0432291
0.411986
-0.00834979
0.376479
0.253084
0.371349
0.192191
0.776187
0.397424
0.0417852
0.396059
-0.00698491
0.363482
0.285661
0.354009
0.201664
0.94327
0.389927
0.0478376
0.382163
0.000779479
0.337425
0.330399
0.326292
0.212796
1.16077
0.625541
0.0263169
0.637616
-0.0112955
0.686661
0.281354
0.790862
0.108596
0.975645
0.975984
0.638206
-0.00786868
0.632821
-0.00591054
0.716101
0.198074
0.783759
0.040938
0.75413
1.00527
0.638664
-0.042512
0.641319
-0.00856607
0.73238
0.107014
0.784999
-0.0116813
0.527875
1.01125
0.624237
-0.0627288
0.645911
-0.0302401
0.736111
0.0168136
0.738536
-0.0141055
0.269062
0.997349
0.541292
0.511051
0.527865
0.51376
0.782822
1.00737
-0.210476
1.00235
-0.124086
1.00604
-0.0957607
1.00886
-0.0037858
0.0506897
0.965544
-0.170747
0.948413
-0.106955
0.926481
-0.0738281
0.939145
-0.01645
0.0357067
0.944317
-0.10381
0.913659
-0.0762966
0.889437
-0.0496063
0.893136
-0.0201487
0.0203176
0.933022
-0.0394841
0.890732
-0.0340061
0.86562
-0.0244942
0.86064
-0.0151687
0.00244103
0.743338
0.709332
0.684837
0.669669
0.0502434
0.169128
-0.219372
0.0736087
0.354575
-0.37794
0.0733112
0.406264
-0.405966
0.0641655
0.405805
-0.396659
0.372288
0.0523158
-0.360438
0.0763382
0.0927902
0.146653
0.284261
0.178202
0.374714
0.182044
0.401963
0.38843
0.165902
0.0668034
0.0259867
0.18212
0.168945
0.269732
0.287102
0.321923
0.349772
0.390312
0.320041
0.0338716
-0.0078849
0.142835
0.0599813
0.267041
0.162896
0.381892
0.23492
0.312411
0.459794
0.00861973
-0.0165046
0.0684783
0.000122694
0.174888
0.0564862
0.297619
0.11219
0.188345
0.421685
-0.000535205
-0.0159694
0.0185766
-0.0189891
0.0744084
0.000654417
0.156865
0.0297334
0.0903419
0.254868
-0.000225178
-0.0157442
0.00625018
-0.0254644
0.0264887
-0.0195841
0.0596638
-0.00344173
0.0311247
0.118881
0.00958413
-0.0253284
0.0230027
-0.038883
0.0366639
-0.0332452
0.0508636
-0.0176415
0.00531434
0.076674
0.00518369
-0.0305121
0.00762452
-0.0413239
0.00742424
-0.033045
0.0062971
-0.0165143
0.00607717
0.00553427
0.00359195
0.0029573
0.00343277
0.00817254
0.0153656
0.234349
1.07883
-1.05832
0.10053
0.606335
-0.472516
0.309877
-0.630674
0.421327
0.536423
-0.507057
0.280511
0.011138
-0.0169861
0.22172
0.975995
0.0692749
0.75878
0.322989
-0.884388
0.537163
-0.72123
-0.00160988
-0.0272953
1.07996
-0.00751751
0.739002
0.429567
-1.32147
0.508284
-0.799948
-0.00945012
-0.304776
1.39027
-0.105795
0.540021
0.38919
-1.81646
0.457982
-0.868739
-0.0121804
-0.00327512
0.11457
0.31432
0.420919
-0.097544
0.64284
-0.545296
-0.182112
0.0845681
0.0766241
-0.258736
0.211736
-0.135112
-0.0220541
0.707516
-1.12299
0.319567
0.482158
0.627557
0.0921557
-0.0133492
-0.0788065
0.145518
-0.0533626
0.240952
-0.0954339
0.388275
-0.147323
-0.157021
0.208711
-0.169744
0.32125
0.545857
0.858327
0.145145
-0.147138
0.177768
-0.175775
0.111069
-0.153439
0.187515
0.0718646
-0.161682
0.200887
0.0293808
-0.162588
0.205072
-0.115689
0.14507
0.186809
-0.106682
-0.227265
0.141437
-0.108068
0.0903063
-0.110551
0.0375628
-0.109844
-0.0781267
0.190997
-0.056578
-0.241101
0.139678
-0.0567485
0.0871336
-0.0580069
0.0356155
-0.0583263
-0.0425112
0.202903
-0.00452843
-0.254952
0.15016
-0.0040056
0.0958046
-0.00365172
0.0405018
-0.00302343
-0.00200938
0.208
-0.259404
0.153985
0.0972827
0.0404253
0.0460962
-0.338708
-0.0678262
0.0192081
-0.369771
-0.00484373
-0.381914
-0.015731
-0.367053
-0.235103
0.130001
-0.305555
-0.163153
0.0856575
-0.325428
0.0420604
-0.338317
0.00892144
-0.333914
-0.226181
0.150284
-0.263497
-0.192342
0.106042
-0.281186
0.0624628
-0.294738
0.022563
-0.294014
-0.203618
0.169988
-0.22641
-0.207075
0.125003
-0.236201
0.0767929
-0.246528
0.0306675
-0.247889
-0.172951
0.165025
-0.213668
0.116339
0.0706979
0.0278804
0.390784
0.0990026
-0.0938073
0.391046
0.0916434
-0.091905
0.357506
0.151842
-0.118303
0.305837
0.0374086
0.0142611
-0.232204
0.362266
0.398508
0.0964744
0.40614
0.0840109
0.394607
0.163375
0.351395
0.0806207
-0.108074
0.403786
0.0886677
0.41612
0.0716768
0.409073
0.170423
0.37441
0.115284
0.0252349
0.407414
0.0772337
0.422621
0.0564692
0.418926
0.174118
0.392742
0.141468
0.163025
0.408253
0.425649
0.418981
0.39818
0.416212
0.0938393
0.334401
0.0818103
0.249866
0.0845354
0.262819
-0.0129529
-0.196049
0.458868
0.510083
0.499988
0.466221
0.467529
0.633747
0.368391
0.0904763
0.287798
0.0805929
0.193129
0.0946691
0.112673
0.080456
0.0338668
0.510556
0.384074
0.286401
0.203703
)
;

boundaryField
{
    left
    {
        type            calculated;
        value           nonuniform List<scalar> 
17
(
-0.60402
-0.60402
-0.60402
-0.60402
-0.60402
-0.39598
-0.39598
-0.39598
-0.39598
-0.39598
-0.39598
-0.39598
-0.39598
-0.39598
-0.39598
-0.510051
-0.510051
)
;
    }
    right
    {
        type            calculated;
        value           nonuniform List<scalar> 
17
(
0.23379
0.588517
0.542271
0.549911
0.516125
0.460712
0.414151
0.382523
0.333184
0.312536
0.317978
0.345238
0.70882
0.751267
0.828689
0.660071
0.0542181
)
;
    }
    down
    {
        type            calculated;
        value           uniform 0;
    }
    up
    {
        type            calculated;
        value           uniform 0;
    }
    cylinder
    {
        type            calculated;
        value           uniform 0;
    }
    defaultFaces
    {
        type            empty;
    }
}


// ************************************************************************* //
