/*--------------------------------*- C++ -*----------------------------------*\
  =========                 |
  \\      /  F ield         | OpenFOAM: The Open Source CFD Toolbox
   \\    /   O peration     | Website:  https://openfoam.org
    \\  /    A nd           | Version:  13
     \\/     M anipulation  |
\*---------------------------------------------------------------------------*/
FoamFile
{
    format      ascii;
    class       surfaceScalarField;
    location    "8.2";
    object      phi;
}
// * * * * * * * * * * * * * * * * * * * * * * * * * * * * * * * * * * * * * //

dimensions      [0 3 -1 0 0 0 0];

internalField   nonuniform List<scalar> 
823
(
0.00269144
0.0135586
-0.01625
0.0296283
0.00196578
-0.0289026
0.0991109
-0.0469699
-0.0225127
0.20267
-0.116091
0.0125316
-0.152832
0.00959386
0.345908
0.00683945
0.00671913
0.0617467
-0.0529415
0.164719
-0.149942
0.281983
-0.233356
-0.306148
0.4353
0.0263643
-0.0196452
0.120717
-0.147294
0.237797
-0.267022
0.347234
-0.342792
-0.384459
0.425545
0.0497537
-0.0693989
0.149805
-0.247346
0.231261
-0.348478
0.277131
-0.388662
-0.398895
0.291566
0.0615224
-0.130921
0.130681
-0.316505
0.167265
-0.385061
0.180816
-0.402214
0.190567
-0.408645
-0.0228611
0.0689705
-0.0461093
-0.0621
0.0965527
-0.0573138
-0.102207
0.0944339
-0.0543265
-0.139396
0.0845408
-0.0473519
0.069942
-0.173687
-0.0356511
0.0033442
0.0656263
-0.00518302
0.10508
-0.0190961
0.108347
-0.033469
0.0989137
0.0824081
-0.0459351
0.0212246
0.0444017
0.0430117
0.0832928
0.0602969
0.0910617
0.0758496
0.083361
0.0706097
0.0876481
0.022609
0.0217927
0.0577506
0.0481511
0.0935753
0.055237
0.131826
0.0451104
0.0410644
0.161371
0.00554271
0.0247912
0.0575156
0.115158
0.165816
-0.198887
-0.327542
0.352742
0.128507
-1.42549
1.0981
0.257088
0.168282
-0.296863
0.165248
1.05173
-0.959889
0.0989697
-0.217217
-0.132699
-0.240778
0.0790816
-1.63727
0.217305
0.0300594
0.177069
1.09196
-0.0768349
0.165023
-0.318154
0.26982
-1.74207
0.266742
0.0331381
0.255691
1.10302
-0.275833
0.412476
-0.569259
0.420624
-1.75022
0.270362
0.183399
0.34915
1.02423
-0.503541
0.430064
-0.833507
0.29852
-1.61867
0.18256
0.29936
0.508338
0.69845
-0.697229
1.30715
-0.900616
-1.24004
0.825138
-1.13666
0.588988
0.535509
1.15952
0.127914
-0.780131
1.32915
-0.775043
-1.45472
0.80747
-0.614978
0.876754
0.466225
1.33795
-0.333285
-0.714704
1.20507
-0.584468
-1.39565
0.832883
-0.242788
1.08276
0.216346
1.27308
-0.523608
-0.509476
1.0268
-0.29473
-1.31653
0.850904
-0.0668969
1.09274
-0.0254934
0.927051
-0.357916
-0.208732
0.558181
-0.852911
0.491284
0.465791
0.107875
1.12919
0.160021
-1.09865
1.21714
0.203615
1.31508
0.327613
1.36319
0.387189
0.469053
1.03479
0.10145
-0.976218
1.11268
0.12572
1.21362
0.226675
1.32941
0.271396
0.343743
0.989653
0.0481399
-0.936343
1.04319
0.0721794
1.13907
0.130801
1.25364
0.156825
0.201733
0.94437
0.00968093
-0.905911
0.99412
0.0224289
1.08076
0.044161
1.18459
0.0529999
0.0697854
0.663536
-0.653855
0.685965
0.730126
0.783126
0.140953
0.307467
-0.251065
-0.197355
0.0939171
0.312198
-0.265162
0.0526736
0.322831
-0.281587
0.0182652
0.314097
-0.279689
0.20289
-0.184625
0.102083
0.343832
-0.138448
0.0659609
0.34832
0.03397
0.354822
0.0084725
0.339594
0.211363
0.0732115
0.380618
-0.109997
0.0398574
0.381674
0.0113661
0.383313
-0.00485502
0.355816
0.206508
-0.00798408
0.396423
-0.00782094
-0.0251036
0.398794
-0.0336995
0.391909
-0.0266157
0.348732
0.179892
-0.0846249
0.0724026
-0.0880455
-0.0811975
-0.0489706
0.194994
0.112355
-0.248155
-0.0591937
0.14149
0.116918
-0.0634136
0.0874345
0.121834
-0.0677785
0.0353622
0.121681
-0.0696084
0.0864651
-0.0511029
0.194997
0.155355
-0.237997
0.148715
0.1632
0.0965985
0.17395
0.0410183
0.177261
0.127483
0.133157
0.200261
-0.178063
0.0927659
0.203591
0.054789
0.211927
0.0195419
0.212508
0.147025
0.156279
0.232092
-0.18811
0.116714
0.243155
0.0718786
0.256763
0.028168
0.256218
0.175193
0.0797337
-0.0987063
0.0577262
0.0329017
0.00943157
0.405308
0.0758456
-0.0851743
0.421611
0.040378
-0.0566808
0.409046
0.197755
-0.18519
0.395679
0.222405
-0.209038
0.514665
-0.36714
0.402442
0.0693834
0.415387
0.0274331
0.400673
0.212469
0.385539
0.237538
0.662207
0.396203
0.0691603
0.410185
0.0134507
0.380558
0.242096
0.374049
0.244048
0.858193
0.393122
0.0720174
0.396807
0.00976605
0.372676
0.266227
0.353682
0.263042
1.02377
0.385632
0.0823649
0.388474
0.00692446
0.344255
0.310445
0.323841
0.283456
1.2489
0.623769
0.0626167
0.657889
-0.0271956
0.706864
0.26147
0.79665
0.19367
1.02904
1.01651
0.639437
0.0272
0.661686
-0.049445
0.74512
0.178036
0.770745
0.168045
0.780486
1.0193
0.648333
-0.0171127
0.665308
-0.06642
0.73028
0.113065
0.759598
0.138727
0.519652
1.02043
0.642585
-0.0556768
0.635844
-0.0596798
0.697973
0.0509357
0.776775
0.0599249
0.239462
1.05697
0.548344
0.488664
0.539599
0.599524
0.838986
1.05522
-0.236064
1.04216
-0.125392
1.05306
-0.120893
1.04635
-0.00111122
0.0201031
0.97181
-0.188574
0.956534
-0.110116
0.940611
-0.10497
0.952422
-0.0129224
-0.00369222
0.956636
-0.124778
0.940936
-0.0944162
0.913698
-0.0777327
0.92967
-0.0288943
-0.0103645
0.989969
-0.0577809
0.945943
-0.0503905
0.909255
-0.0410444
0.904487
-0.0241265
-0.0117887
0.781205
0.730815
0.68977
0.665644
0.0485591
0.135203
-0.183762
0.0744629
0.30704
-0.332944
0.075845
0.363593
-0.364975
0.0653402
0.368737
-0.358232
0.337475
0.0533449
-0.32548
0.069142
0.0660609
0.143602
0.232581
0.180552
0.326643
0.185634
0.363655
0.36128
0.16183
0.055666
0.010395
0.170056
0.118191
0.268081
0.228618
0.339841
0.291895
0.349534
0.351586
0.0252047
-0.0148098
0.119928
0.0234668
0.243361
0.105185
0.365538
0.169719
0.235526
0.479545
0.00390533
-0.0187151
0.0466606
-0.0192885
0.140976
0.0108695
0.260305
0.0503896
0.0895285
0.406303
-0.00759304
-0.011122
-0.00338139
-0.0235001
0.0334913
-0.0260031
0.102068
-0.018187
0.00151924
0.190077
-0.00455097
-0.00657106
-0.00515661
-0.0228945
0.00537779
-0.0365375
0.0309071
-0.0437163
-0.0423205
0.0747468
-0.00226872
-0.00430234
-0.00313686
-0.0220263
-0.00464178
-0.0350326
-0.00700066
-0.0413574
-0.0437769
-0.00554422
-0.0157873
0.0114849
-0.0423944
0.00458082
-0.0760035
-0.00142356
-0.112207
-0.00515392
-0.010645
-0.145339
-0.0346244
-0.0873574
-0.143108
-0.195613
-0.24191
0.437726
0.343703
-0.591353
0.54765
0.282201
-0.392124
0.481335
0.257448
-0.191133
0.313875
0.251828
-0.0843687
0.0742518
0.00633835
0.36608
0.0523703
0.5584
0.0898803
0.510089
0.305759
0.311513
0.450404
0.168219
0.155815
-0.108989
0.490047
-0.244352
0.474268
0.321538
0.276651
0.648022
0.241105
-0.0158136
-0.238514
0.410373
-0.670538
0.405432
0.326479
0.231313
0.822141
0.262989
-0.127681
0.29988
0.329495
0.191748
0.173583
0.459552
-0.633135
-0.0354131
0.208996
-0.0315483
-0.00386488
0.0532175
-0.0847657
-0.0645238
0.90796
-1.03976
0.724831
0.529834
0.360699
0.0840728
-0.0155271
-0.0685456
0.13574
-0.0516669
0.249983
-0.114243
0.423913
-0.173931
-0.209222
0.189558
-0.15174
0.299721
0.537064
0.842679
0.139137
-0.13019
0.160372
-0.169319
0.105886
-0.134777
0.168027
0.0680115
-0.140908
0.178783
0.0275057
-0.139741
0.180246
-0.0965799
0.124086
0.176593
-0.0911485
-0.215635
0.133158
-0.0913409
0.0844866
-0.0922369
0.0347319
-0.0899859
-0.061848
0.185654
-0.0423592
-0.234443
0.13545
-0.0411378
0.0840188
-0.0408052
0.0340438
-0.0400109
-0.0278042
0.198553
0.00874084
-0.249653
0.146834
0.0105813
0.0935803
0.0124485
0.0393531
0.0142163
0.0115489
0.203108
-0.253561
0.150276
0.094946
0.039554
0.0352611
-0.305143
-0.0555983
0.0122631
-0.335234
-0.00888388
-0.343828
-0.0165029
-0.325325
-0.200265
0.116487
-0.27579
-0.14584
0.0747305
-0.293477
0.0352459
-0.304344
0.00623323
-0.296312
-0.194032
0.133341
-0.237909
-0.171222
0.0940572
-0.254193
0.054713
-0.265
0.0190112
-0.260611
-0.17502
0.153866
-0.204712
-0.187064
0.112312
-0.212639
0.0678888
-0.220576
0.0263514
-0.219073
-0.148669
0.149815
-0.194155
0.105203
0.0634103
0.0245835
0.385921
0.111544
-0.101485
0.386329
0.0964634
-0.0968716
0.353676
0.162539
-0.129885
0.296782
0.0788883
-0.0219945
-0.176837
0.304299
0.39444
0.113083
0.400119
0.0907839
0.39169
0.170968
0.344381
0.126197
-0.0480902
0.401067
0.107996
0.410623
0.0812273
0.405992
0.1756
0.36981
0.162379
0.0872766
0.406565
0.0974102
0.417923
0.0698702
0.414359
0.179163
0.388324
0.188414
0.225948
0.408216
0.421405
0.415378
0.394754
0.413796
0.0962553
0.328207
0.0855888
0.23614
0.0920672
0.231712
0.0044279
-0.167079
0.398791
0.504821
0.493539
0.45572
0.438154
0.575374
0.319486
0.0793053
0.248577
0.0709085
0.16536
0.0832173
0.0958174
0.0695427
0.0272717
0.460524
0.344369
0.256364
0.180067
)
;

boundaryField
{
    left
    {
        type            calculated;
        value           nonuniform List<scalar> 
17
(
-0.60402
-0.60402
-0.60402
-0.60402
-0.60402
-0.39598
-0.39598
-0.39598
-0.39598
-0.39598
-0.39598
-0.39598
-0.39598
-0.39598
-0.39598
-0.510051
-0.510051
)
;
    }
    right
    {
        type            calculated;
        value           nonuniform List<scalar> 
17
(
0.117741
0.302514
0.233285
0.217546
0.203765
0.209428
0.23752
0.283495
0.352874
0.454688
0.576858
0.702026
1.24243
1.27253
1.06786
0.626307
-0.100857
)
;
    }
    down
    {
        type            calculated;
        value           uniform 0;
    }
    up
    {
        type            calculated;
        value           uniform 0;
    }
    cylinder
    {
        type            calculated;
        value           uniform 0;
    }
    defaultFaces
    {
        type            empty;
    }
}


// ************************************************************************* //
