/*--------------------------------*- C++ -*----------------------------------*\
  =========                 |
  \\      /  F ield         | OpenFOAM: The Open Source CFD Toolbox
   \\    /   O peration     | Website:  https://openfoam.org
    \\  /    A nd           | Version:  13
     \\/     M anipulation  |
\*---------------------------------------------------------------------------*/
FoamFile
{
    format      ascii;
    class       volScalarField;
    location    "8.35";
    object      p;
}
// * * * * * * * * * * * * * * * * * * * * * * * * * * * * * * * * * * * * * //

dimensions      [0 2 -2 0 0 0 0];

internalField   nonuniform List<scalar> 
440
(
-1.12181
-1.09666
-1.09476
-1.07613
-1.15498
-1.17408
-1.14961
-1.12443
-1.10104
-1.0811
-1.30147
-1.26152
-1.21319
-1.1541
-1.09367
-1.43638
-1.3816
-1.27542
-1.15244
-1.02911
-1.52115
-1.44485
-1.27567
-1.10263
-0.946936
-0.834218
-0.849792
-0.889432
-0.948204
-0.999853
-1.07605
-1.08841
-1.1254
-1.19945
-1.28138
-1.1735
-1.17492
-1.1932
-1.23407
-1.2898
-1.15585
-1.1407
-1.12929
-1.13112
-1.15081
-1.09984
-1.07809
-1.05618
-1.03587
-1.05203
-1.02032
-0.189237
0.436903
-0.0189481
0.0707282
-1.4756
-0.362656
0.776994
-0.0805005
0.0145938
-1.54417
-0.524462
0.921772
-0.103765
-0.0609775
-1.33234
-0.576558
0.835673
-0.100686
-0.163539
-1.23175
-0.503625
0.776978
-0.00819845
-0.227677
-0.993403
-0.254689
0.729934
0.226694
-0.221722
-0.562927
0.034689
0.422002
0.261451
-0.100343
-0.397204
0.1276
0.513378
0.316572
-0.00566869
-0.250597
0.13045
0.572576
0.324762
-0.0201062
-0.148879
0.0861882
0.588683
0.439399
0.029242
-0.682536
-0.800263
-0.97242
-1.14199
-1.30513
-0.417578
-0.540682
-0.635025
-0.69581
-0.730155
-0.235174
-0.344366
-0.407893
-0.449566
-0.474133
-0.124716
-0.221288
-0.280166
-0.311302
-0.320134
-0.0717488
-0.165493
-0.221136
-0.24323
-0.232787
0.763861
0.600159
0.392116
0.16185
-0.0878823
0.315512
0.142861
-0.0655427
-0.301821
-0.570948
-0.121066
-0.295559
-0.514641
-0.757953
-1.0131
-0.50549
-0.684223
-0.906026
-1.1432
-1.34163
-0.765824
-0.946887
-1.15485
-1.3726
-1.50361
1.95107
1.97729
1.9983
2.0041
1.99266
1.73513
1.751
1.75954
1.74953
1.71736
1.49928
1.47931
1.43484
1.36668
1.2702
1.23323
1.19284
1.11411
1.00265
0.860461
0.997673
0.882284
0.73425
0.56637
0.362722
1.75076
1.74274
1.71966
1.7926
1.85463
1.73919
1.72915
1.69609
1.76578
1.74921
1.72863
1.71269
1.67046
1.72667
1.61861
1.71939
1.69374
1.64346
1.67152
1.43232
1.71158
1.67376
1.6153
1.61848
1.23424
1.70514
1.64308
1.5797
1.50494
1.01481
1.70178
1.60584
1.56519
1.38323
1.14271
1.70902
1.58515
1.54772
1.32918
1.19682
1.70198
1.55698
1.53953
1.27641
1.22248
1.73956
1.55017
1.53691
1.24161
1.23667
0.731455
0.404706
0.0416276
-0.28168
-0.489687
0.615064
0.385999
0.142307
-0.0762502
-0.263967
0.595867
0.407277
0.22633
0.0603044
-0.105866
0.657673
0.473558
0.30116
0.145981
-0.00348859
0.693823
0.508075
0.339396
0.188432
0.0464325
-0.749483
-0.64648
-0.51141
-0.404009
-0.339944
-0.805035
-0.753423
-0.655766
-0.578445
-0.536386
-0.735168
-0.692835
-0.64114
-0.604247
-0.586646
-0.608382
-0.576517
-0.545284
-0.524344
-0.514452
-0.520386
-0.503666
-0.486203
-0.472129
-0.488655
-0.470006
-0.46406
-0.451435
-0.441072
-0.428333
-0.464824
-0.461681
-0.455542
-0.451633
-0.450701
-0.474591
-0.471993
-0.471639
-0.472322
-0.46962
-0.477949
-0.478283
-0.482488
-0.488578
-0.489718
-0.578387
-0.589951
-0.617955
-0.65293
-0.673996
-0.465333
0.0584676
0.0277412
0.150844
0.0989835
-0.437579
0.151413
0.0435666
0.15664
0.108399
-0.443359
0.21094
0.0696879
0.144525
0.111378
-0.487168
0.178674
0.116009
0.107857
0.109419
-0.664375
0.0159865
0.211352
0.0528406
0.098906
-0.164795
-0.0683961
-0.0947258
0.10028
0.084358
-0.381927
-0.0640042
-0.0339067
0.138606
0.0992245
-0.302815
-0.522621
-0.578628
-0.54327
-0.367144
-0.318527
-0.523218
-0.585654
-0.528416
-0.531082
1.76517
1.75256
1.72524
1.6845
1.63015
1.91852
1.942
1.95293
1.94987
1.93338
2.04101
2.07556
2.10426
2.12245
2.12727
2.09919
2.13766
2.17793
2.21059
2.226
2.06538
2.0997
2.13738
2.16806
2.18098
0.032903
-0.0512857
-0.183562
-0.346065
-0.516465
0.528622
0.417644
0.268773
0.0913516
-0.118313
0.96946
0.853336
0.715172
0.553894
0.362326
1.31832
1.2309
1.12396
0.995135
0.844087
1.59575
1.53763
1.46162
1.3706
1.26504
1.82109
1.78282
1.77834
1.80658
1.85032
1.80456
1.77791
1.77354
1.81583
1.89063
1.78992
1.77162
1.76721
1.82593
1.94158
1.77608
1.764
1.75566
1.82476
1.93792
1.76299
1.75469
1.73929
1.81384
1.9123
1.87888
1.79311
1.77356
1.74535
1.74021
1.83295
1.78225
1.76613
1.76134
1.75503
1.49884
1.32989
1.02147
0.563995
0.0575448
1.56418
1.35329
1.03401
0.581267
0.065102
)
;

boundaryField
{
    left
    {
        type            zeroGradient;
    }
    right
    {
        type            fixedValue;
        value           uniform 0;
    }
    down
    {
        type            zeroGradient;
    }
    up
    {
        type            zeroGradient;
    }
    cylinder
    {
        type            zeroGradient;
    }
    defaultFaces
    {
        type            empty;
    }
}


// ************************************************************************* //
