/*--------------------------------*- C++ -*----------------------------------*\
  =========                 |
  \\      /  F ield         | OpenFOAM: The Open Source CFD Toolbox
   \\    /   O peration     | Website:  https://openfoam.org
    \\  /    A nd           | Version:  13
     \\/     M anipulation  |
\*---------------------------------------------------------------------------*/
FoamFile
{
    format      ascii;
    class       volVectorField;
    location    "79.5";
    object      U;
}
// * * * * * * * * * * * * * * * * * * * * * * * * * * * * * * * * * * * * * //

dimensions      [0 1 -1 0 0 0 0];

internalField   nonuniform List<vector> 
440
(
(-0.0968924 0.07969 -7.25435e-20)
(-0.0825304 0.106825 4.38995e-20)
(0.156145 0.0701355 3.3029e-20)
(0.623828 0.033206 2.05033e-19)
(0.917182 -0.00516253 2.92154e-21)
(-0.0811373 0.0470712 4.30111e-20)
(0.159808 -0.0139106 -1.42398e-19)
(0.773567 -0.0856842 -1.14674e-19)
(1.38915 -0.137889 4.11051e-20)
(1.97459 -0.182707 -1.50576e-20)
(0.0165914 -0.0110827 5.22378e-20)
(0.704989 -0.081997 9.45912e-19)
(1.55987 -0.0945553 -6.58731e-19)
(2.16371 -0.0814255 -2.03365e-18)
(2.58084 -0.0871265 9.22887e-19)
(0.27796 -0.0613099 -1.84044e-19)
(1.42964 -0.0161151 -7.11323e-19)
(2.19886 0.0329478 2.29239e-18)
(2.55307 0.0516861 2.57975e-18)
(2.57967 0.0545974 -7.03727e-19)
(0.688528 -0.00102339 -3.46301e-19)
(1.93935 0.176655 -7.68067e-19)
(2.44633 0.233309 2.3767e-18)
(2.56342 0.233848 2.45573e-18)
(2.65268 0.206664 8.2118e-19)
(-0.0488648 0.554392 4.64104e-19)
(-0.174662 0.75837 6.28591e-19)
(-0.293933 0.773958 -1.87862e-18)
(-0.396844 0.723991 3.57028e-19)
(-0.411846 0.585334 2.14288e-18)
(-0.0713618 0.509949 -1.13347e-19)
(-0.0557684 0.840434 -6.53403e-19)
(-0.0114004 0.909357 1.47049e-21)
(0.0692653 0.871325 1.1534e-21)
(0.088445 0.792048 -1.9946e-20)
(-0.0788262 0.259154 -1.31327e-20)
(-0.0795531 0.541385 -2.13157e-19)
(-0.0297773 0.623236 6.42299e-20)
(0.0786156 0.593234 -2.4948e-20)
(0.106008 0.522136 4.40047e-21)
(-0.0764425 0.135159 -5.83463e-20)
(-0.120067 0.30562 9.02033e-20)
(-0.0932354 0.376008 -5.11374e-20)
(-0.0103539 0.374436 1.13092e-19)
(0.074606 0.317936 -6.51445e-20)
(-0.0883829 0.102347 -1.43728e-20)
(-0.141732 0.20007 -2.16948e-20)
(-0.0889082 0.237979 -1.35083e-21)
(0.080438 0.222833 -1.13181e-19)
(0.268739 0.220421 -4.60777e-19)
(0.360885 -0.627589 -1.48419e-18)
(1.03157 -1.1033 2.70671e-18)
(1.49966 0.966431 6.40218e-19)
(0.736181 0.492764 5.41986e-19)
(1.04707 -0.330324 -5.84324e-20)
(1.75148 -0.774951 1.18094e-18)
(0.57533 -1.13668 -9.33008e-20)
(1.38597 0.969466 1.90296e-20)
(0.698196 0.532903 -4.2227e-19)
(1.20299 -0.364701 1.09209e-19)
(1.7076 -0.863219 3.37172e-19)
(-0.402438 -0.9963 -1.50759e-18)
(0.721211 0.976429 4.63602e-20)
(0.741835 0.453993 -2.19016e-19)
(1.38128 -0.430769 2.23539e-20)
(1.44173 -0.763561 -4.52753e-19)
(-0.387218 -0.988327 -1.54551e-19)
(0.639961 0.738651 1.69414e-18)
(1.08959 0.334165 1.84787e-19)
(1.62162 -0.473508 -2.41839e-19)
(1.99409 -0.738565 -1.58266e-19)
(1.17413 -1.00173 2.3394e-20)
(0.504939 0.494166 0)
(1.554 0.229826 -1.01941e-19)
(1.84187 -0.495064 -1.53774e-19)
(2.27565 -0.752178 -6.1369e-19)
(2.44984 -0.809068 2.15296e-19)
(0.558094 0.300846 2.23714e-21)
(2.01189 -0.0466776 3.12584e-20)
(1.96762 -0.526492 3.63127e-19)
(2.42387 -0.80579 6.89956e-20)
(1.32073 -0.421005 4.22758e-19)
(0.446664 0.631917 4.96976e-21)
(2.15505 -0.236024 -1.9094e-19)
(1.84153 -0.471839 0)
(2.32384 -0.432532 -6.21422e-19)
(1.25582 -0.131062 2.08424e-20)
(1.15453 0.183911 6.14119e-19)
(2.33072 -0.48747 -1.03274e-19)
(1.54953 -0.428307 1.86917e-20)
(1.95945 -0.3435 2.73632e-20)
(1.13732 -0.0214171 4.52063e-20)
(1.69239 0.0564155 3.83873e-21)
(1.83432 -0.351163 1.02375e-33)
(0.812598 -0.209577 -1.59083e-20)
(1.01151 -0.0344419 1.02937e-19)
(0.68426 -0.00365068 -1.71225e-20)
(0.98418 -0.116203 -5.28892e-20)
(0.379726 -0.0877645 8.03258e-20)
(-0.213826 -0.0069036 -2.96017e-20)
(2.46618 0.227268 -1.02095e-18)
(2.74286 -0.0262755 -1.34697e-18)
(2.4952 0.00844058 1.11294e-18)
(2.84405 -0.256002 2.60467e-20)
(2.22682 -0.0869187 -4.17666e-20)
(2.15499 0.161131 5.0693e-20)
(2.46831 -0.0659601 -4.42754e-20)
(2.30154 -0.0076965 -1.52653e-19)
(2.5289 -0.253654 -2.40747e-19)
(2.39713 -0.242743 -7.98449e-21)
(2.10323 0.0436372 7.09124e-20)
(2.23139 -0.0397271 1.1876e-19)
(2.19681 -0.0810575 -1.75411e-19)
(2.27074 -0.160551 5.70393e-20)
(2.25849 -0.234475 5.12224e-20)
(2.03462 4.16893e-06 1.1202e-19)
(2.01106 -0.0461911 1.03703e-19)
(2.09069 -0.0665186 -1.68031e-20)
(2.0437 -0.121233 2.45451e-20)
(2.11846 -0.144319 1.85009e-20)
(1.46576 -0.0223859 1.57438e-19)
(1.37435 -0.0187695 -1.24362e-20)
(1.45593 -0.0394093 2.53413e-20)
(1.3231 -0.0288976 -4.88878e-21)
(1.42032 -0.0630851 4.49566e-20)
(1.62195 0.842997 1.19684e-18)
(1.56708 0.945262 -3.86717e-19)
(1.56922 1.0847 -1.4428e-18)
(1.50324 1.13847 7.85087e-19)
(0.92535 0.826567 -1.83341e-19)
(1.92123 0.813172 -6.19645e-19)
(1.88032 0.888944 -3.2147e-18)
(1.8816 0.996662 -1.23809e-18)
(1.79998 1.0167 -4.42592e-19)
(1.10947 0.728013 -7.26763e-19)
(2.23352 0.667143 8.23941e-19)
(2.21285 0.743143 2.15907e-19)
(2.19025 0.841405 -2.41501e-18)
(2.06215 0.834408 -7.04245e-19)
(1.23789 0.572461 5.41265e-19)
(2.42919 0.560524 2.49025e-18)
(2.40193 0.608285 1.83321e-18)
(2.39541 0.665445 -2.15015e-18)
(2.19859 0.630866 -1.64926e-18)
(1.23292 0.384583 -3.20549e-19)
(2.55301 0.378317 1.28769e-18)
(2.58401 0.408571 -9.27624e-19)
(2.50272 0.442613 6.50447e-19)
(2.17995 0.397625 5.47469e-19)
(1.06297 0.177011 -4.82051e-19)
(0.5744 0.497561 -6.16696e-19)
(0.483655 0.533834 -4.58887e-19)
(0.365455 0.569574 4.84379e-20)
(0.228561 0.576267 1.26519e-21)
(0.057065 0.418026 9.36743e-20)
(0.683764 0.668903 1.31722e-19)
(0.621777 0.730842 -2.81925e-19)
(0.535631 0.800967 1.92575e-19)
(0.410351 0.857878 -8.99853e-20)
(0.18051 0.651862 1.27075e-19)
(0.77974 0.857703 1.0179e-19)
(0.704628 0.940853 5.03738e-19)
(0.651965 1.04195 1.28475e-19)
(0.572833 1.08345 -3.2864e-19)
(0.316349 0.798366 2.78364e-19)
(1.08032 0.929776 2.47935e-19)
(1.03198 1.01196 -7.55349e-19)
(0.978844 1.10967 -2.0412e-18)
(0.895789 1.17774 8.18365e-19)
(0.528603 0.877592 -1.6951e-19)
(1.13342 0.970076 -1.08012e-19)
(1.17655 1.09562 -1.88027e-19)
(1.20729 1.21202 -3.91911e-19)
(1.15775 1.23612 -4.42655e-19)
(0.713981 0.88934 -7.02605e-21)
(1.02447 0.0464979 -1.06059e-19)
(0.989993 0.053603 -3.65708e-20)
(1.03047 0.127425 -1.46119e-21)
(0.947867 0.158661 -3.02652e-19)
(0.895831 0.310453 3.23487e-19)
(1.0164 0.0424229 6.74191e-20)
(1.00081 0.0544417 1.29966e-19)
(1.01844 0.134247 1.43198e-19)
(0.989203 0.186431 4.35254e-20)
(0.938016 0.387075 -2.35553e-20)
(1.02547 0.0406042 9.21206e-20)
(0.97776 0.0492481 -4.87046e-21)
(1.06828 0.153058 -7.01068e-21)
(0.939991 0.182062 1.57795e-19)
(1.16985 0.537846 -5.19132e-19)
(1.02256 0.0400561 -3.16578e-22)
(0.985345 0.0439558 -1.79241e-19)
(1.0691 0.165343 -7.3336e-20)
(1.04753 0.187786 -4.04049e-19)
(1.15992 0.581504 9.93707e-20)
(1.02063 0.0355248 -1.61059e-20)
(0.976441 0.0435245 4.87767e-20)
(1.13251 0.163222 3.44973e-20)
(1.00403 0.216276 4.87234e-19)
(1.43955 0.717793 -4.93267e-19)
(0.986804 0.0408147 -1.34422e-20)
(1.02223 0.0182221 9.95051e-20)
(1.12934 0.190113 -8.66697e-20)
(1.25297 0.131674 9.28613e-19)
(1.29076 0.753953 -3.80028e-19)
(0.928604 0.0201211 -1.33101e-21)
(1.09293 0.00766122 -9.46876e-20)
(1.12143 0.0970387 5.24019e-21)
(1.39651 0.160854 -2.64997e-19)
(1.19067 0.498887 -5.3327e-20)
(0.954502 0.0276087 -2.27684e-21)
(1.11025 -0.0301997 1.53398e-35)
(1.18562 0.056584 -5.66007e-20)
(1.26791 0.150136 8.15795e-20)
(1.39331 0.3469 1.87937e-19)
(1.05087 -0.0215547 3.87643e-21)
(1.06905 -0.0615212 -2.63584e-20)
(1.13468 0.0252619 1.8558e-20)
(1.11791 0.102705 2.59863e-20)
(1.61978 0.203919 -2.85548e-19)
(0.982298 -0.0238056 -3.95624e-20)
(0.839848 -0.0255369 -1.74585e-21)
(0.816133 0.0119928 2.83439e-20)
(0.879537 0.0109171 -1.3522e-20)
(1.22131 0.040345 -6.63078e-20)
(1.89779 0.618329 3.08088e-19)
(1.95285 0.653728 7.96959e-19)
(2.26631 0.496067 -1.15864e-18)
(2.28523 0.483855 2.39447e-20)
(2.55814 0.251716 5.138e-19)
(1.75577 0.352139 8.94946e-20)
(1.7539 0.397962 1.05637e-18)
(2.03966 0.276918 1.26751e-19)
(1.9814 0.304021 -9.60894e-19)
(2.29443 0.111269 -3.01643e-19)
(1.73065 0.256886 -2.43342e-19)
(1.81433 0.237359 -1.587e-19)
(1.95213 0.179827 1.98108e-19)
(1.97825 0.151838 -3.00436e-19)
(2.12595 0.071322 2.70618e-19)
(1.72556 0.130247 3.94671e-19)
(1.84206 0.110179 -5.16227e-21)
(1.85117 0.0781176 2.27559e-19)
(1.95031 0.0590519 1.90342e-19)
(1.94446 0.0185658 -1.81149e-19)
(1.34415 0.0261029 -4.67275e-20)
(1.41092 0.0161522 2.48939e-19)
(1.39156 0.00968569 1.08109e-19)
(1.44642 -0.0035749 -2.17209e-19)
(1.39487 -0.00735245 4.41153e-22)
(1.08037 -0.0186506 5.18189e-20)
(2.07456 -0.0467228 -3.8441e-19)
(2.31129 -0.0353244 1.08994e-18)
(2.29959 0.00396644 4.89051e-19)
(2.14336 0.0313408 -3.33125e-19)
(0.665657 0.0898032 9.26975e-20)
(1.8526 0.0799548 -4.00864e-19)
(2.31962 0.0830471 -5.34557e-19)
(2.3784 0.0926759 6.55815e-19)
(2.13041 0.0814334 -4.12773e-19)
(0.198502 0.0707578 -2.49051e-20)
(1.23165 0.137497 4.17503e-19)
(1.97459 0.159489 6.03233e-20)
(2.36859 0.152098 3.89775e-19)
(2.52978 0.149815 1.88945e-19)
(-0.0416788 -0.0248428 1.80096e-19)
(0.433167 0.0684859 1.78636e-19)
(1.20711 0.139316 -3.81862e-19)
(1.70056 0.175275 2.10646e-20)
(2.29483 0.205299 3.6674e-20)
(-0.0966353 -0.0783424 1.20214e-19)
(-0.0119169 -0.0547901 -1.34663e-19)
(0.408906 0.0191536 -1.79702e-20)
(0.866415 0.0475817 4.18352e-21)
(1.28694 0.11496 -4.05663e-20)
(-0.0757151 -0.0793649 1.00975e-20)
(-0.130802 -0.121445 6.75542e-20)
(-0.0365296 -0.126371 5.68427e-20)
(0.146406 -0.102174 -7.59781e-20)
(0.513726 -0.0427269 -4.15319e-22)
(-0.0435423 -0.0648658 -1.08272e-20)
(-0.107661 -0.142958 -9.9569e-21)
(-0.124017 -0.201842 9.56275e-21)
(-0.090765 -0.22755 5.10961e-22)
(0.0427594 -0.180841 6.09181e-21)
(-0.0251012 -0.0438142 -3.56224e-21)
(-0.0860305 -0.12887 -2.55742e-20)
(-0.135096 -0.210575 5.97501e-20)
(-0.171151 -0.26081 2.45806e-19)
(-0.161671 -0.257191 -3.64983e-20)
(-0.0164202 -0.00497377 -4.44217e-21)
(-0.111188 -0.0678244 -1.06087e-20)
(-0.217057 -0.117483 5.51202e-20)
(-0.333904 -0.119503 5.0854e-20)
(-0.429726 -0.0992673 -6.61584e-20)
(-0.0348831 0.224398 -3.73623e-21)
(-0.244134 0.288542 4.84382e-20)
(-0.45796 0.359057 -4.22966e-20)
(-0.670195 0.418732 1.52971e-19)
(-0.811776 0.379558 6.28703e-19)
(1.37028 0.595075 -2.48262e-20)
(1.41099 0.186987 1.36104e-18)
(1.09974 0.32989 1.392e-19)
(0.00994582 0.0273482 1.55141e-19)
(0.364296 -0.264471 -2.79892e-20)
(1.06761 0.459577 9.45128e-20)
(1.40159 0.171338 -8.52412e-19)
(1.41759 0.487982 7.0791e-19)
(0.354171 0.11389 1.15835e-20)
(0.453858 -0.285163 1.22964e-19)
(0.268332 0.221884 3.40542e-19)
(1.27352 0.0368349 -2.91706e-19)
(1.58791 0.636625 -8.51469e-20)
(0.537779 0.24489 1.42091e-19)
(0.592523 -0.299491 -1.5119e-20)
(-0.786114 0.0546342 1.8453e-19)
(1.29133 -0.234401 -3.12652e-18)
(1.61607 0.759701 -5.42141e-19)
(0.666268 0.345214 -2.48559e-23)
(0.750643 -0.301983 -7.88125e-20)
(-1.05156 -0.191718 2.50648e-19)
(1.30536 -0.733562 -9.75821e-19)
(1.59273 0.869625 6.6809e-19)
(0.745462 0.443144 -1.43509e-20)
(0.90281 -0.30522 -1.52398e-19)
(0.187812 0.179046 -7.58303e-20)
(-0.266798 -0.143921 0)
(-0.149996 -0.0883588 2.33836e-20)
(-0.328774 -0.054069 2.96318e-20)
(0.303063 -0.0357126 -2.87366e-22)
(1.71564 0.530294 0)
(1.22567 0.247112 0)
(0.762867 0.0984896 -3.62663e-20)
(-0.293315 -0.0674789 -4.54391e-20)
(0.452818 -0.173832 9.81325e-20)
(0.680323 0.00080447 -1.11808e-19)
(0.702275 -0.00572153 1.23486e-19)
(0.949664 -0.00279443 -4.69502e-20)
(0.919747 0.00668943 2.9436e-19)
(1.35841 0.077405 2.09092e-19)
(1.55009 0.023595 1.05009e-19)
(1.67432 0.0638572 1.97365e-19)
(1.87504 0.0343788 -3.03013e-19)
(2.41283 0.181445 -1.92183e-20)
(2.15601 0.101332 1.34363e-19)
(0.862992 -0.444445 -3.00569e-20)
(0.846779 -0.52802 -1.35692e-19)
(0.834423 -0.61876 -9.41192e-20)
(0.761273 -0.68012 5.82328e-20)
(0.45649 -0.526333 1.11961e-19)
(0.766731 -0.347761 1.29488e-19)
(0.711528 -0.408414 2.76582e-19)
(0.637701 -0.473633 -2.39118e-20)
(0.524553 -0.52693 1.1894e-19)
(0.280209 -0.414149 4.69981e-20)
(0.624253 -0.206455 -1.6682e-19)
(0.535495 -0.241063 -4.31877e-20)
(0.433225 -0.28469 1.44142e-19)
(0.315374 -0.323873 -5.50033e-21)
(0.135068 -0.257791 -9.93648e-20)
(0.534791 0.0261853 -4.37139e-19)
(0.448695 0.014621 -3.63496e-19)
(0.338902 -0.00581728 2.83016e-19)
(0.212482 -0.0354349 1.86001e-19)
(0.053395 -0.0483881 1.38102e-20)
(0.514188 0.233944 -1.80971e-19)
(0.427905 0.240692 -1.76986e-19)
(0.312643 0.247278 -8.27812e-20)
(0.178339 0.254523 1.11051e-20)
(0.0239798 0.188359 1.0794e-20)
(1.90633 -0.0407008 7.12675e-19)
(2.16177 -0.102881 2.49176e-19)
(2.23151 -0.181403 -6.56011e-19)
(2.07659 -0.20788 -1.31429e-18)
(1.22913 -0.172976 1.04434e-19)
(1.88809 -0.117742 1.19309e-18)
(1.97591 -0.222261 1.57494e-18)
(1.99057 -0.336755 1.29724e-19)
(1.90453 -0.39202 2.2508e-19)
(1.20233 -0.33194 -1.48018e-19)
(1.61797 -0.271472 -3.10457e-18)
(1.67919 -0.382181 3.61931e-19)
(1.72035 -0.498373 9.66813e-19)
(1.65239 -0.565413 -3.6463e-19)
(1.05823 -0.466417 5.67804e-19)
(1.41702 -0.385937 7.35334e-19)
(1.43359 -0.477752 -1.93223e-18)
(1.41846 -0.5873 -2.22824e-18)
(1.34584 -0.665087 6.74809e-19)
(0.857674 -0.536033 4.53507e-19)
(1.14801 -0.439411 1.48726e-19)
(1.10384 -0.526639 2.11977e-19)
(1.09079 -0.639045 -3.31388e-19)
(1.03131 -0.714975 -3.99256e-19)
(0.645669 -0.55812 -3.71048e-21)
(1.07474 0.0564587 7.94761e-21)
(0.916569 0.0622725 -6.23953e-21)
(1.11288 0.0819906 -7.36884e-21)
(0.789619 0.0204586 -1.79901e-19)
(1.05627 -0.188013 -6.53363e-21)
(1.08397 0.0593091 -2.62808e-21)
(0.91595 0.0615538 5.53717e-20)
(1.11036 0.09948 -5.6012e-20)
(0.878645 0.067345 9.18054e-20)
(0.952342 -0.07181 -2.52018e-20)
(1.08188 0.0557868 -6.47928e-20)
(0.920639 0.0596332 5.17206e-22)
(1.09867 0.100689 -2.37602e-20)
(0.879681 0.0939455 4.84847e-21)
(0.933948 -0.0119488 -1.44589e-19)
(1.06206 0.0536062 7.95439e-20)
(0.95049 0.0567278 3.62596e-21)
(1.06183 0.107638 3.74624e-20)
(0.920859 0.118848 3.76825e-20)
(0.851552 0.101186 1.2117e-19)
(1.03713 0.0492662 2.02424e-20)
(0.981607 0.0571206 -3.13605e-20)
(1.03018 0.112882 5.08634e-20)
(0.950994 0.146705 8.39615e-20)
(0.833724 0.201638 -1.37495e-19)
(0.892217 0.0340378 0)
(0.700505 0.0285166 1.06745e-20)
(0.592925 0.0235315 2.75547e-21)
(0.323546 -0.00522573 3.84732e-20)
(0.61997 -0.0495929 -1.02598e-19)
(1.04127 0.0760142 -6.67971e-20)
(0.926783 0.0760764 -2.20007e-20)
(1.01296 0.0817375 -2.48108e-20)
(0.783874 0.0108613 -9.29271e-20)
(0.975961 -0.173669 -1.10505e-19)
(0.856064 -0.0611435 -2.50142e-20)
(0.936224 -0.0292307 4.27216e-19)
(1.01651 0.0355868 2.67269e-19)
(0.896611 0.0487192 2.43688e-20)
(0.696408 0.0250583 0)
(1.21824 -0.296138 2.41137e-19)
(1.32476 -0.261911 1.25009e-18)
(1.48651 -0.148106 -1.41769e-18)
(1.57216 -0.021581 -4.3847e-19)
(1.47308 0.0228873 3.27695e-19)
)
;

boundaryField
{
    left
    {
        type            fixedValue;
        value           uniform (1 0 0);
    }
    right
    {
        type            zeroGradient;
    }
    down
    {
        type            noSlip;
    }
    up
    {
        type            noSlip;
    }
    cylinder
    {
        type            noSlip;
    }
    defaultFaces
    {
        type            empty;
    }
}


// ************************************************************************* //
