/*--------------------------------*- C++ -*----------------------------------*\
  =========                 |
  \\      /  F ield         | OpenFOAM: The Open Source CFD Toolbox
   \\    /   O peration     | Website:  https://openfoam.org
    \\  /    A nd           | Version:  13
     \\/     M anipulation  |
\*---------------------------------------------------------------------------*/
FoamFile
{
    format      ascii;
    class       volVectorField;
    location    "0.4";
    object      U;
}
// * * * * * * * * * * * * * * * * * * * * * * * * * * * * * * * * * * * * * //

dimensions      [0 1 -1 0 0 0 0];

internalField   nonuniform List<vector>
1800
(
(-0.0050811313881 -0.0118565900036 -9.78744099584e-17)
(0.543415899567 -0.463709278529 1.30218519607e-18)
(1.05597929788 -0.862268168658 -2.73663288986e-18)
(1.33341078104 -1.04685646859 7.3498083694e-18)
(1.445912906 -1.08574299996 -8.60562643072e-19)
(1.48033440493 -1.05729283356 7.48483824231e-18)
(1.48390830086 -1.00530454745 2.55852584811e-19)
(1.47621435319 -0.948437256859 -1.38684771488e-18)
(1.46516151743 -0.889777029342 -6.81083144127e-19)
(1.4319397024 -0.841633906354 1.13780585583e-18)
(0.0163900895119 -0.0290522590197 6.10042484637e-19)
(0.648992675294 -0.468486911983 -9.12617401363e-19)
(1.21703579986 -0.846115150389 -6.52177620013e-20)
(1.51308189958 -1.01548340431 -5.72915905523e-19)
(1.62456033401 -1.04673281224 1.24729198318e-19)
(1.65136607227 -1.01540660985 1.24678728066e-18)
(1.64665044919 -0.96242971328 -8.69432541141e-19)
(1.63221635372 -0.90462951717 5.01935931965e-19)
(1.61573201744 -0.846675126066 7.66097247768e-19)
(1.59185469068 -0.803297264025 -3.77807928424e-19)
(0.045216352392 -0.0458646539378 -2.38760914695e-20)
(0.761063398162 -0.461396259249 2.43727266128e-19)
(1.37846256003 -0.809134790158 3.51959376609e-19)
(1.68781761993 -0.959737047563 -2.80615221693e-19)
(1.79504165641 -0.983607244601 -1.52616805588e-18)
(1.81229245927 -0.951714167299 3.39649310756e-19)
(1.79753610745 -0.901494944269 5.96043294508e-19)
(1.77368884604 -0.848273913652 -7.80346861316e-20)
(1.74850409035 -0.796469798281 -4.9905856527e-21)
(1.71583300949 -0.755853995014 -3.43396947759e-20)
(0.0815147365249 -0.0605771448698 1.19228591314e-20)
(0.877514123256 -0.440445382599 -9.05974557147e-20)
(1.53666543561 -0.75015452499 -2.85215512777e-19)
(1.85404355368 -0.878834359594 7.10587430677e-20)
(1.95478377849 -0.895072304563 3.94361505374e-19)
(1.96236419701 -0.863177497697 3.68093221727e-20)
(1.93847339978 -0.815954937077 -2.42242945496e-20)
(1.90668244993 -0.766440566224 5.46841455676e-19)
(1.87446750872 -0.718422255235 4.51937419437e-19)
(1.83841528275 -0.682244441894 -1.49231953805e-19)
(0.125020392994 -0.0716745950705 8.90054145329e-20)
(0.995636291067 -0.404984387868 1.55480967345e-19)
(1.68731435775 -0.670473667959 -8.38716874068e-20)
(2.00664985125 -0.775741595889 -9.83069978294e-20)
(2.09842869303 -0.785523929024 -1.19208676175e-18)
(2.09593836074 -0.755708975149 1.06364570118e-20)
(2.0633849422 -0.713818673582 9.30173909667e-19)
(2.02439390641 -0.670588902279 3.23291498049e-19)
(1.9860284109 -0.629382726414 2.31907879415e-20)
(1.94606503286 -0.59804324464 -1.99734918691e-19)
(0.174689109071 -0.0773454991329 -8.10881741423e-20)
(1.1118602336 -0.353932049845 1.764185262e-19)
(1.82588591578 -0.570601590212 1.12183741304e-18)
(2.14128298281 -0.651833101024 -8.21085792878e-19)
(2.22227887594 -0.656370756242 -8.66154128e-19)
(2.20995150791 -0.629999157891 1.43818608568e-18)
(2.16969882007 -0.594500302643 -1.03871594839e-18)
(2.12453893852 -0.558265589895 -1.1437681765e-18)
(2.08098818927 -0.524037077498 8.30450811586e-19)
(2.03788619122 -0.498407085353 -3.22206393687e-20)
(0.229011169876 -0.0761234676368 -2.49562634649e-20)
(1.22241347849 -0.287417109069 -5.02844803517e-19)
(1.94818051538 -0.452753505808 -2.98806330282e-18)
(2.25411809947 -0.510635184458 1.3639587824e-18)
(2.32303803238 -0.511859438689 2.18842435629e-18)
(2.30159012852 -0.490645626369 -6.3301388903e-21)
(2.2549148714 -0.462928850485 -2.81060144058e-18)
(2.20491674291 -0.43485946343 -2.80756694924e-21)
(2.15745531724 -0.408602605815 2.52114127537e-18)
(2.11193392748 -0.389216846045 6.64089711514e-19)
(0.285772285379 -0.0667666814334 5.99012653949e-20)
(1.32310569145 -0.206017176073 4.36301453736e-19)
(2.05010082134 -0.319326075288 2.30023345615e-18)
(2.34175134313 -0.355433974835 -8.2853437811e-20)
(2.39809196414 -0.355501912258 -1.40940116883e-18)
(2.36861716694 -0.340826359007 -4.3453278619e-19)
(2.31695159317 -0.321821845038 0)
(2.26345214496 -0.302601306712 9.88076648399e-19)
(2.21325544668 -0.284784917053 1.05827687709e-20)
(2.16611966094 -0.27218376667 -8.02619936818e-19)
(0.342273314589 -0.0486324811267 8.71201855639e-21)
(1.4099687529 -0.111367740815 8.753122745e-19)
(2.12820725588 -0.173678598447 2.06867623928e-18)
(2.40177142558 -0.190372643222 -1.98964855966e-18)
(2.44587709252 -0.191652330455 -1.4292207367e-18)
(2.40983469654 -0.184625651439 4.45788790474e-19)
(2.35474947532 -0.175011692895 -1.87857759247e-18)
(2.29916259742 -0.165097055193 -1.2760998407e-18)
(2.24746425987 -0.155990906436 1.51966977472e-18)
(2.19959702365 -0.150341769859 1.2937929848e-18)
(0.395554594014 -0.0218025280228 4.42825675226e-20)
(1.47949528142 -0.00583926435858 6.03275194355e-19)
(2.17959038573 -0.0193981390171 3.89020636155e-19)
(2.43272225534 -0.0197488603531 -2.89240762299e-18)
(2.46566492117 -0.0245586695412 4.11001899499e-20)
(2.42465023324 -0.0257239653045 4.25635480026e-18)
(2.36766311734 -0.0258473134178 -2.25586482365e-18)
(2.31128352994 -0.0254399403018 -1.26886391393e-18)
(2.25926726219 -0.0250895916788 4.13110582917e-19)
(2.21161113946 -0.02633291223 -9.39590774103e-19)
(-0.00574517896343 0.00288756917665 1.08923979609e-19)
(-0.00413823554341 -0.0904427669897 6.56239214048e-20)
(0.0427406662132 -0.179193684004 -1.62573376843e-21)
(0.104415059181 -0.226648495686 -8.81693584676e-21)
(0.17070664404 -0.243168943177 -2.0111925991e-21)
(0.235533961541 -0.243863998965 -4.27999086036e-20)
(0.29599346541 -0.237970338187 1.59016591845e-20)
(0.351389179632 -0.229875021766 -2.80955871491e-20)
(0.401627126268 -0.221428660296 3.17977945992e-21)
(0.449306056156 -0.214573288687 -8.37364813079e-21)
(-0.00789829288062 0.0160322128726 3.50399680712e-20)
(0.00948969501073 -0.135905375796 7.9920904256e-20)
(0.0717148908679 -0.285983428462 -1.02725188294e-19)
(0.141337366141 -0.366020328444 -4.55825993029e-20)
(0.210044196565 -0.392407584584 -7.59744406034e-20)
(0.274591555535 -0.391250680768 -8.09726943816e-20)
(0.333667698936 -0.378721582194 2.9605353347e-20)
(0.38732729881 -0.36251311635 -2.07472522298e-20)
(0.435670882761 -0.345914149572 2.85899510821e-21)
(0.482379259985 -0.333331994256 -8.40803127209e-21)
(-0.0120095199531 0.0272454728425 -4.13431245662e-20)
(0.0310577073013 -0.181240240845 1.72497226214e-19)
(0.118644368189 -0.389379928036 7.11469833714e-20)
(0.201523380915 -0.499813174031 2.71705233904e-19)
(0.274301081796 -0.535052246094 4.95666912325e-20)
(0.338411871779 -0.531739808883 -2.81394534223e-19)
(0.3952225188 -0.512633876847 -3.05552820109e-20)
(0.446022997085 -0.488540459925 8.91587545194e-20)
(0.491259406494 -0.464149687355 -3.59865379461e-20)
(0.536473106357 -0.446009382185 -4.70911969617e-21)
(-0.0174495391817 0.0357771395823 -1.13127923191e-19)
(0.0610632183718 -0.226108355971 -2.64363281645e-20)
(0.183363965728 -0.487519928286 3.20678539738e-20)
(0.28431479847 -0.625179769359 -1.34557070075e-19)
(0.362547848755 -0.667837865976 6.92245144825e-20)
(0.425937090448 -0.661975716175 1.89311445213e-19)
(0.479561066824 -0.636416733126 5.29570298112e-20)
(0.526396750638 -0.604787607382 -1.16239227695e-20)
(0.567387747044 -0.57312203273 2.13610248657e-20)
(0.61058451081 -0.54963669155 -2.54358982244e-21)
(-0.0233710027726 0.040909812542 0)
(0.100115438176 -0.270136398972 8.85032551619e-20)
(0.265547485624 -0.578541749601 2.57732003812e-19)
(0.388675081997 -0.739322205922 -2.75529293152e-19)
(0.473379362934 -0.787589170706 -5.76889852283e-19)
(0.535615207849 -0.77873749932 1.96197089592e-19)
(0.585118056248 -0.746947952412 -2.73819973922e-20)
(0.626946232412 -0.708285864337 -1.00095263414e-19)
(0.662686269386 -0.670023451644 0)
(0.703349520889 -0.641421152864 -8.85562124988e-21)
(-0.028705274527 0.0420205114049 5.48313225503e-20)
(0.148869638619 -0.312819978433 8.49645677899e-20)
(0.364622846091 -0.660560711675 4.19527751246e-20)
(0.513088064657 -0.839531775884 2.41739641232e-19)
(0.604808263065 -0.891315454969 -1.91425834783e-19)
(0.665298768567 -0.879055972501 -2.92178041636e-19)
(0.709768583113 -0.841408377745 5.10644699908e-19)
(0.745665362305 -0.79639792941 5.48620856654e-20)
(0.775365494208 -0.752366504829 -3.02683719184e-19)
(0.812951955733 -0.718827638082 -7.08210054783e-21)
(-0.032196322682 0.0386953123693 -3.39713313867e-21)
(0.207929413401 -0.353404035533 7.30498569905e-21)
(0.479659219949 -0.731638084178 1.32502859603e-19)
(0.655467715386 -0.923281474011 2.61431036849e-20)
(0.754182513227 -0.976370560672 3.22344345679e-19)
(0.812168871119 -0.96043335353 -4.02933353184e-19)
(0.85075742814 -0.917544000816 -4.07300725321e-19)
(0.879967162344 -0.86713495521 -3.4304942911e-19)
(0.90312894072 -0.818299840789 2.52270294704e-19)
(0.936856750586 -0.779831444547 2.74224168201e-19)
(-0.0325245453844 0.0308914028602 -1.28235110811e-19)
(0.277567936323 -0.390743419622 6.12553601806e-20)
(0.609073342334 -0.789769882607 2.98242883404e-19)
(0.812901504683 -0.988309360151 -1.77417048723e-19)
(0.917979973635 -1.04065331905 3.35836558589e-19)
(0.972570787804 -1.02115085142 7.93204876634e-19)
(1.00455384202 -0.974127291117 5.46807720286e-19)
(1.02653365814 -0.919844051648 -4.30518170142e-19)
(1.04300401878 -0.867470009558 -2.05025262447e-19)
(1.0710585124 -0.823904165012 2.96467666636e-19)
(-0.028614270957 0.0191382004761 -1.79382886817e-19)
(0.357283045976 -0.423114082735 -2.81354665236e-19)
(0.750138905984 -0.832671054281 6.74507791744e-19)
(0.981066336805 -1.03233963922 7.626799085e-19)
(1.09103100743 -1.08215116875 -7.50499891469e-19)
(1.14095344258 -1.05961666187 8.24646098853e-19)
(1.1654409867 -1.01015433754 1.38032570639e-19)
(1.17957389734 -0.954286264886 -9.93866512653e-19)
(1.18925994574 -0.900025863862 -2.4547786837e-19)
(1.20703889084 -0.851558434294 3.35965738762e-19)
(-0.0197448608919 0.00450964883872 8.94721728586e-20)
(0.446035335889 -0.448190611412 -3.06322403599e-19)
(0.899673405618 -0.857636973457 -4.47613310646e-19)
(1.15525627264 -1.05261438582 7.719321165e-19)
(1.26754881842 -1.09798810773 6.07598944315e-19)
(1.31049620755 -1.07270753076 -7.4527743275e-19)
(1.32527589622 -1.02205906775 -6.15004599882e-19)
(1.3293796935 -0.966151029132 3.66441711934e-19)
(1.33027473747 -0.910467354079 -3.84637949911e-19)
(1.32850560499 -0.859117436837 -2.28611508599e-19)
(0.620902131135 -0.174242332075 3.88426100348e-20)
(0.7997216283 -0.133040283354 -7.73835283913e-20)
(0.888052704514 -0.103924077358 5.70640360737e-21)
(0.939050056174 -0.0812341480985 1.32953895538e-20)
(0.969016452757 -0.0629316342276 -6.28061923105e-21)
(0.986734489387 -0.0479627545686 -3.15695008607e-21)
(0.997607028848 -0.035683742426 -4.83404653398e-21)
(1.00443839687 -0.0254678357533 -3.1563500668e-21)
(1.00856290598 -0.0173525448049 7.91701011755e-21)
(1.01134685623 -0.00714918786129 2.95774090561e-21)
(0.638676367557 -0.247944993547 1.05845095045e-19)
(0.811577475678 -0.172737539445 1.69331685035e-20)
(0.896522832805 -0.125478442582 4.6255644665e-21)
(0.945476338537 -0.0931981252595 -7.73420696643e-21)
(0.974079425247 -0.0698740419267 -1.72750835742e-20)
(0.99080297669 -0.0521102451519 0)
(1.00090597437 -0.0382088000673 -5.064414101e-21)
(1.00715321029 -0.0270081340943 3.90064124917e-21)
(1.01087559125 -0.0182881609883 4.78789389934e-22)
(1.01332611696 -0.00751308048356 -3.61110774052e-21)
(0.666939162501 -0.319148086275 -6.07181820555e-20)
(0.828575110062 -0.211527188945 -4.18734323351e-20)
(0.907783346512 -0.146728353424 1.88367426214e-20)
(0.953365818996 -0.105027920113 -9.25711431618e-21)
(0.979926231712 -0.0767046701517 -3.93117906054e-21)
(0.99532403438 -0.056153390471 6.23835253501e-21)
(1.00448098531 -0.0406378559141 0)
(1.01004244818 -0.0284667238573 0)
(1.01331094097 -0.0191580354592 -2.18729780926e-21)
(1.0153862005 -0.0078467561769 0)
(0.705776652733 -0.386467478921 -3.32162746579e-20)
(0.850485544426 -0.248826243277 7.9099572784e-20)
(0.92176059496 -0.167404466165 8.68160085421e-21)
(0.962701216005 -0.116596294126 0)
(0.986552625125 -0.0833510982864 2.33350999161e-20)
(1.00028953526 -0.0600484841439 -3.61829257638e-21)
(1.00832125868 -0.0429444031153 0)
(1.01309426313 -0.0298266391486 4.43516709961e-21)
(1.01585388799 -0.0199517267072 0)
(1.01752262645 -0.00814583910103 6.22941201605e-22)
(0.755270511157 -0.448549859633 -3.04048515519e-20)
(0.877043430088 -0.284102843161 1.05670700481e-19)
(0.93834039103 -0.187246160102 -4.6914548837e-21)
(0.973453952546 -0.127778932451 0)
(0.993949628389 -0.0897450302333 5.20555122174e-21)
(1.00568950496 -0.0637539167259 7.13002748929e-21)
(1.01241104649 -0.0451014439252 5.9908587091e-21)
(1.0162996052 -0.0310707429859 1.09377278925e-21)
(1.01849128921 -0.0206582332653 -2.24054958077e-21)
(1.01971628965 -0.00840601471167 2.69918908852e-21)
(0.815240322199 -0.504022047702 -6.84368814534e-19)
(0.907911963214 -0.316883699683 -1.88106389953e-19)
(0.957370427268 -0.206044615468 1.88473170667e-21)
(0.985577299431 -0.13846639423 3.39210897824e-20)
(1.00209960913 -0.0958250244261 -8.10571855759e-21)
(1.01150774399 -0.067230623871 5.10177574241e-21)
(1.01673730598 -0.0470833808768 5.24137793439e-21)
(1.01963259096 -0.0321820586685 -9.48672738679e-21)
(1.02119831265 -0.021266690808 -2.10902604991e-22)
(1.02197544861 -0.0086229581703 1.3247386526e-22)
(0.884786218627 -0.551314350182 -1.99607760335e-20)
(0.942347400788 -0.346287769138 7.22346451697e-20)
(0.97852841585 -0.223570041541 3.70003721141e-21)
(0.998973905803 -0.148553522458 -9.4975506617e-22)
(1.0109667324 -0.101539073962 -2.4835068416e-20)
(1.01772672769 -0.0704454377783 5.37106635968e-21)
(1.02129144443 -0.0488674282481 -3.57224109508e-21)
(1.02308657683 -0.0331444847017 -4.29604180184e-21)
(1.02397496583 -0.0217666325354 1.11046952052e-21)
(1.0242521344 -0.00879252521195 -1.8707800364e-21)
(0.962590232904 -0.589629148153 3.00653485164e-19)
(0.97864926623 -0.371829192685 8.26891438654e-20)
(1.00073868541 -0.239468544128 0)
(1.01325975626 -0.157839908063 -4.36097094035e-22)
(1.02040498301 -0.106790839065 1.97746790632e-20)
(1.02426346941 -0.0733519866041 1.14122627505e-21)
(1.02601926594 -0.0504289936392 -1.56650844398e-20)
(1.02664745033 -0.0339433512868 4.37099557832e-21)
(1.02679647585 -0.0221493732486 -4.15328037595e-23)
(1.02657185274 -0.0089121186074 -3.12320390855e-22)
(1.05103717014 -0.621977167428 -4.36813879378e-19)
(1.0167860406 -0.396882368099 -2.18422832451e-19)
(1.02268667796 -0.255447313387 5.1917561443e-20)
(1.02745423988 -0.166994621048 -1.86849849707e-22)
(1.02992697782 -0.111796725968 -2.314500412e-21)
(1.03090731958 -0.0760016655717 -1.50819922883e-20)
(1.03082082601 -0.0517700390897 3.96410508969e-21)
(1.030244499 -0.0345698423701 5.30044680846e-22)
(1.02963608632 -0.0224064801446 -3.22469310903e-21)
(1.02888576822 -0.00898073892527 -2.78399227973e-21)
(1.15605264602 -0.645499459507 3.04323772604e-19)
(1.06732272687 -0.41803489571 -2.19875245951e-19)
(1.04843022272 -0.272091093787 -3.98721958104e-20)
(1.04263892884 -0.177199627163 -4.18559773197e-20)
(1.03966298021 -0.11740355712 -2.36875946096e-20)
(1.03757699987 -0.0788669470751 -1.15948977236e-20)
(1.0356464435 -0.0531170439179 -5.59390723205e-21)
(1.03384156655 -0.0351164463837 0)
(1.03245490355 -0.0225707534851 -3.96476188004e-22)
(1.03119805878 -0.00899235853842 2.07761626247e-21)
(1.31098934518 -0.631907776344 5.08532525699e-19)
(1.16724755508 -0.418518428443 1.64226442963e-19)
(1.10442782899 -0.273907069469 -1.12365978092e-19)
(1.07470437835 -0.178908164808 7.27593481739e-21)
(1.05854695429 -0.11835549788 9.08558226008e-21)
(1.04924367236 -0.0791509070263 -5.27018086777e-21)
(1.04321680282 -0.0530001384473 3.12177054876e-22)
(1.03902936605 -0.0348327488975 4.54034760396e-21)
(1.03624972246 -0.0222653900316 -3.16355493186e-21)
(1.03416639612 -0.00885324381163 9.01981419456e-23)
(1.36355372363 -0.518765351993 -1.31866397047e-20)
(1.20217271156 -0.357292874294 1.55796086131e-19)
(1.13354293474 -0.24276630137 1.17467638224e-19)
(1.09760315794 -0.163795366322 -1.40443222074e-20)
(1.07489312737 -0.110408380086 5.51081270284e-20)
(1.06055817546 -0.0745167062292 3.58281374182e-20)
(1.05109880958 -0.0500918168901 2.45361322785e-20)
(1.04464241339 -0.0329687803554 -2.42120760216e-21)
(1.04050706098 -0.0210877128617 8.59213539383e-21)
(1.03752008673 -0.00837777704649 3.85533356394e-21)
(1.42142756125 -0.444996519086 -1.41214178723e-19)
(1.25317843394 -0.31830540569 -1.07732886031e-20)
(1.16890557843 -0.220241502751 5.72507295136e-21)
(1.12163940878 -0.15056400164 4.22394969137e-37)
(1.09112922303 -0.102252372174 8.20131983682e-22)
(1.07155078696 -0.0692437960317 -9.83556647918e-35)
(1.05867884609 -0.0465879452694 -2.93653291377e-21)
(1.0500231308 -0.0306509469258 -2.1394549459e-34)
(1.04454174648 -0.0195950617006 8.55352769604e-22)
(1.04066116355 -0.0077813394398 -2.54662278579e-21)
(1.45724701823 -0.36635786914 -2.00994507705e-34)
(1.28977406104 -0.271461721436 -4.10116330113e-20)
(1.19732867457 -0.192241790542 -4.13321073746e-20)
(1.142178495 -0.133661399644 0)
(1.10553516227 -0.0916856192884 -2.32868367154e-20)
(1.08150799832 -0.0623969039607 -1.60040797437e-20)
(1.06559991531 -0.0420643541069 -9.30287176228e-21)
(1.05496159138 -0.0276859365769 -2.63578373486e-34)
(1.04823576734 -0.0177028205535 -2.86452638223e-21)
(1.04351512222 -0.00703168021553 2.4175800726e-21)
(1.48002317131 -0.294979430133 -8.77051933331e-20)
(1.31781190364 -0.225560520142 4.54009768213e-21)
(1.22054651879 -0.162804838862 0)
(1.15949057647 -0.11472582197 0)
(1.11798881106 -0.0793754675687 0)
(1.09023782087 -0.0542736314632 0)
(1.07172543195 -0.0366679487738 -5.77359679223e-22)
(1.05932625775 -0.0241518442892 -2.94714265354e-34)
(1.05152784951 -0.015452506232 7.55119357677e-22)
(1.04604609408 -0.0061416432975 2.89258493256e-34)
(1.49399004233 -0.229229888873 -3.7263235109e-20)
(1.3386530306 -0.180024309148 0)
(1.23886285606 -0.132122296465 0)
(1.17358775696 -0.0941787112123 0)
(1.12832300743 -0.0656558752646 0)
(1.09759559723 -0.0450893347292 0)
(1.07693108251 -0.0305301077439 9.70017986783e-22)
(1.06305636528 -0.0201272102676 5.74610568911e-21)
(1.05431940188 -0.0128884081596 7.09985550663e-22)
(1.0481898815 -0.0051267170115 3.2241272396e-21)
(1.50210361625 -0.168556516221 0)
(1.35347517684 -0.135339174345 -1.30764490364e-20)
(1.25265882245 -0.100700968666 -1.67767187544e-20)
(1.18449756142 -0.0724645810355 0)
(1.13646305283 -0.050845553422 -1.07782047359e-20)
(1.10345241442 -0.0350546485808 -7.69847604613e-21)
(1.08110123015 -0.0237856000324 -4.38895439439e-21)
(1.06605495893 -0.0156962577277 -3.3677343746e-21)
(1.05657445513 -0.0100603485019 4.50666304234e-21)
(1.04990588797 -0.00400561671961 1.40609140523e-21)
(1.5053619757 -0.111822161007 9.135325169e-21)
(1.36215575698 -0.0914649994278 7.07578664084e-21)
(1.26128038705 -0.0686882772428 -4.01073030134e-21)
(1.19144617443 -0.0497766966478 2.92319881397e-36)
(1.14163650286 -0.0351005116935 5.9686141345e-22)
(1.10710862923 -0.0242749086907 -6.13667998521e-35)
(1.08359339581 -0.0165003515727 7.38768626883e-22)
(1.06773174482 -0.0108978389223 3.16497614753e-21)
(1.05771864216 -0.00698559417459 5.86880112062e-22)
(1.05066309001 -0.00277726899791 -1.96853536942e-21)
(1.48432678843 -0.0557318689183 -4.50840831269e-20)
(1.34508078842 -0.0506111441318 1.2209640206e-20)
(1.24677076157 -0.0391744683664 1.30790403586e-20)
(1.17801468354 -0.0287581869706 0)
(1.12865200514 -0.0204123992246 7.75638778837e-21)
(1.09422607056 -0.0141657847364 5.49340437588e-21)
(1.07069532232 -0.00964696927946 4.38349646293e-21)
(1.05480451915 -0.00637854818036 2.42983635258e-21)
(1.04477196184 -0.00409029481118 -2.29115044253e-21)
(1.03768115731 -0.0016230290863 2.41021610409e-21)
(1.11112786162 -0.00315294271424 0)
(1.02271174111 -0.00701644099436 0)
(0.953988595661 -0.00624449020223 0)
(0.904066101585 -0.00476422128135 0)
(0.86759491367 -0.00342647122942 0)
(0.841963954503 -0.00240006525981 0)
(0.824341677291 -0.00164518169419 5.74560617638e-22)
(0.812381759093 -0.00109733878573 -3.61203434596e-36)
(0.804786565025 -0.000690577739041 5.80674271197e-22)
(0.79943140476 -0.000262464304946 1.80631740043e-21)
(2.12713755682 -0.0261874277548 8.64879203407e-19)
(2.11763941709 -0.132664497202 5.99679455658e-20)
(2.09034048607 -0.236929848994 -1.30109391084e-19)
(2.0453617987 -0.336781866573 -3.37549663673e-19)
(1.9848517208 -0.430124327405 -1.1989512543e-19)
(1.90727643906 -0.516721872537 -1.76191152965e-19)
(1.82404139341 -0.587274418439 -4.09719138032e-19)
(1.71142587183 -0.664086046037 1.3318385328e-19)
(1.63424188246 -0.683580402788 0)
(1.46800077802 -0.772304308304 3.37661106905e-20)
(2.04090201175 -0.0191966227463 2.13724471671e-19)
(2.03311255533 -0.098856657841 -3.34310838533e-19)
(2.01217704955 -0.177558433278 8.63115563386e-22)
(1.97679950405 -0.254328154499 -1.32710293955e-19)
(1.9323854122 -0.326000513649 1.34085462152e-20)
(1.86939633951 -0.398242963317 1.14784330238e-19)
(1.8125842601 -0.448486453751 3.4900060911e-20)
(1.71808278863 -0.528814814056 9.8564769687e-20)
(1.66666485447 -0.529144949184 -1.20112672778e-19)
(1.54945482313 -0.624284329543 2.18137436935e-20)
(1.96706335442 -0.0142614882809 -1.14064872419e-19)
(1.96119408579 -0.0775467375268 2.03912813033e-19)
(1.94510653767 -0.13967666255 1.89527132179e-19)
(1.91677769444 -0.20062056046 -2.19531170886e-19)
(1.88242181615 -0.256568155102 1.085235243e-19)
(1.83147668311 -0.316076619383 1.0284780515e-19)
(1.78754332931 -0.353222264297 -7.06470613264e-20)
(1.7138452239 -0.424676707524 8.35394728664e-20)
(1.66768075312 -0.422382840325 8.40681533326e-20)
(1.58219905036 -0.50648215491 1.07938412279e-19)
(1.91031990244 -0.0131746545397 -1.84909533428e-19)
(1.90562817938 -0.0616816970667 5.41926765083e-20)
(1.892272299 -0.109446514875 -1.15412140304e-19)
(1.86873901782 -0.156954425951 -6.80276663886e-20)
(1.84000998797 -0.200483935933 4.155814137e-20)
(1.79840930773 -0.248335109294 -1.03880719804e-19)
(1.7604125931 -0.277596880283 7.34579866215e-20)
(1.70304678977 -0.336273693072 3.05564680657e-20)
(1.66001509399 -0.335984998304 -1.77053927154e-20)
(1.59586774434 -0.40442117943 8.25164703321e-21)
(1.86603034456 -0.0112385823554 5.58735998082e-20)
(1.86216847963 -0.0482126229377 4.22528451601e-20)
(1.85067644658 -0.0845929144286 -6.52563692582e-20)
(1.83073599772 -0.120948892915 2.29694488966e-19)
(1.80556528384 -0.154319458595 1.79067919084e-20)
(1.77099409601 -0.191334666864 -1.30270098513e-19)
(1.73667863131 -0.214530152548 1.95903133243e-20)
(1.6908483799 -0.259813842394 -8.5372551171e-20)
(1.65117280735 -0.261727633038 1.17336454639e-19)
(1.60033074577 -0.314440945729 8.53236181079e-20)
(1.8324661861 -0.0105737109436 -9.98948671527e-20)
(1.82928841925 -0.0376563639518 -5.7560601843e-20)
(1.8190949008 -0.0643129730554 3.82626365789e-20)
(1.80165096613 -0.0910614285167 7.86058638291e-20)
(1.77885727554 -0.115824276336 3.01072181248e-20)
(1.7491036629 -0.143306217071 -3.90749205752e-20)
(1.71735186381 -0.161338347512 3.02388807069e-21)
(1.67889923815 -0.194855568842 5.81590315655e-20)
(1.64203718537 -0.198224116379 1.09251046957e-19)
(1.59915299238 -0.237407311546 -5.29407091075e-20)
(1.80798495724 -0.0103433562704 -4.28168687711e-20)
(1.80540042632 -0.0288668794109 -7.74480590612e-20)
(1.7961863103 -0.0470722780608 -4.55666789649e-20)
(1.78050113531 -0.0654242541032 -9.4649346777e-20)
(1.75933263562 -0.0826231102657 -2.50785160789e-20)
(1.73269944395 -0.101803374191 -7.5339287466e-21)
(1.70271015812 -0.115000808466 4.82261468825e-20)
(1.66872104168 -0.138676762269 -1.91584431246e-20)
(1.63403482124 -0.142416800391 -3.05040904192e-20)
(1.59566229585 -0.170514317124 1.19653857435e-20)
(1.78735127017 -0.0100469264309 3.34499236173e-20)
(1.78583614325 -0.0208769970409 3.59184404858e-20)
(1.77800485487 -0.0314274888919 1.25337903028e-20)
(1.7642044819 -0.0420568308741 -2.17106626491e-20)
(1.74482771611 -0.0521507341751 -1.73925762009e-20)
(1.7207180374 -0.0637883692842 3.85278677722e-20)
(1.6922848039 -0.0720602587109 -5.39183834907e-22)
(1.6610625992 -0.0875046744897 -5.0779914997e-20)
(1.62790115501 -0.0903968571138 1.2187605226e-20)
(1.59191531022 -0.110311727925 4.98279273794e-20)
(1.71468001357 -0.0142015247747 -2.13922485523e-20)
(1.71470121585 -0.0167209485442 6.2397117645e-21)
(1.71100835242 -0.018899031166 3.57781401755e-20)
(1.70316206618 -0.0211177722433 3.92227339754e-21)
(1.69074045683 -0.0231077701327 -7.89114138345e-22)
(1.67466944614 -0.0264879059599 -1.09022723158e-20)
(1.65358346728 -0.0280605419783 2.24177243868e-20)
(1.63085137623 -0.0353388971042 -3.1254784878e-20)
(1.6022147032 -0.0350934561981 3.55531195755e-20)
(1.57560118379 -0.0471220176823 1.19094846404e-19)
(1.12428535009 -0.00838407104573 2.9006373384e-20)
(1.11635725061 -0.00554644541542 1.7966179544e-20)
(1.11148458244 -0.00272883050908 1.41974658069e-20)
(1.11001274189 -4.53099674439e-05 1.46600091428e-20)
(1.11106775264 0.00245398843294 -7.13727799392e-22)
(1.11531741318 0.00449214022721 6.53304734318e-21)
(1.11864523289 0.00659475558324 -9.86027622717e-21)
(1.12788884451 0.00640064524258 3.17038276642e-21)
(1.12568393365 0.00944378719045 -5.00457885306e-21)
(1.14268022069 0.00475678259639 5.59161662627e-21)
(1.38314046374 0.75089187354 -5.56912493564e-20)
(1.36703281906 0.802376835034 2.34550428006e-20)
(1.37178125977 0.858503467748 -4.84675170645e-19)
(1.38233682685 0.92113981985 2.07512748501e-19)
(1.39266601922 0.988245120128 9.11326078681e-19)
(1.39883710775 1.05674642917 -1.32197832532e-19)
(1.38370008686 1.11359638899 -8.80213575278e-19)
(1.28716614938 1.1022767495 -2.03688924604e-20)
(0.9840891169 0.886713044488 -4.17924266968e-19)
(0.39832765707 0.358718569417 1.69645614964e-19)
(1.54868119502 0.724746069869 0)
(1.54063680309 0.774232172376 5.59425278568e-19)
(1.54118043751 0.82663275644 1.26714825339e-18)
(1.54869841035 0.88720674685 -7.70596977633e-19)
(1.56052072206 0.953808706453 -1.84395521787e-18)
(1.57092967581 1.02268947625 -1.38548541896e-19)
(1.5586339664 1.08000782309 -1.78806234294e-19)
(1.45322473169 1.06913020664 6.60395981886e-19)
(1.10948654556 0.856772402434 8.53110166832e-19)
(0.443731715015 0.339876391731 3.54654015519e-19)
(1.68797819047 0.703065856709 6.30177142989e-20)
(1.69270317056 0.749023818093 0)
(1.69856666073 0.797238206765 -6.48662493115e-20)
(1.70972061404 0.852491817059 7.79125992338e-19)
(1.72575908378 0.913866892085 5.20651494924e-20)
(1.74080175146 0.978283294565 -1.91798747107e-18)
(1.73064248604 1.03180569372 1.25069189062e-18)
(1.61498226665 1.01886443974 7.95280699772e-19)
(1.22923649319 0.811966057775 -7.67295030438e-19)
(0.48459955679 0.314307795123 -2.76782584023e-19)
(1.80076202747 0.667792786315 -1.27825994031e-19)
(1.81697777747 0.709326327821 -1.00412943171e-19)
(1.83313737503 0.753146616378 2.27579512663e-19)
(1.85321194418 0.802897339238 -2.86451227208e-19)
(1.87716578169 0.858368508369 -1.37524141251e-18)
(1.89902977637 0.916973779976 -1.08058382409e-18)
(1.89175873489 0.964868381904 1.20633121529e-18)
(1.76517569965 0.948592738429 8.1917180095e-19)
(1.33654217943 0.749953421171 0)
(0.51633491521 0.280423227116 0)
(1.8968160146 0.610092852714 -7.82263897467e-19)
(1.92248834849 0.647415292678 -1.39639283055e-18)
(1.94907344915 0.687081265719 -5.52994959569e-19)
(1.97912849339 0.731674926326 -3.28966524652e-20)
(2.01221197916 0.781246113013 0)
(2.04174140784 0.833497608712 1.38569827224e-19)
(2.03722554878 0.874881025231 1.64971017313e-19)
(1.89845387876 0.85519380679 2.13652461699e-19)
(1.42617965387 0.66931881339 -3.23487666692e-19)
(0.535611299429 0.238651062012 -8.03928521925e-20)
(1.98326973588 0.531420396281 9.53329677595e-19)
(2.01605612358 0.564607145416 -4.05523067587e-20)
(2.05108279512 0.599953696716 -1.14223640275e-18)
(2.08977498147 0.639207531212 0)
(2.1311249631 0.682495036243 0)
(2.16741269475 0.727754319404 0)
(2.16416741552 0.761927827654 1.53586788861e-18)
(2.01105019627 0.739351710327 -1.87874066518e-18)
(1.49498602795 0.572148376369 -1.06936764494e-18)
(0.540779042321 0.191612026102 -9.0881612018e-20)
(2.06022937324 0.436995969631 -1.28210546398e-18)
(2.09818030991 0.465418183953 -2.71086185504e-18)
(2.1395362874 0.495544842008 -4.78814532902e-21)
(2.18496889486 0.52862730186 5.67883685835e-19)
(2.23291636043 0.564827613302 -3.98174908607e-20)
(2.2742054181 0.602270108019 1.30820933572e-18)
(2.26987641025 0.628986456305 -7.76380246831e-19)
(2.10037516273 0.604123288228 -2.38977579624e-18)
(1.54014953364 0.462946151716 1.77642989161e-19)
(0.532235320269 0.143638701888 1.2236223196e-19)
(2.12429447411 0.331237588609 -1.03596082172e-18)
(2.16613070477 0.353798816477 1.51611191069e-20)
(2.21217495818 0.37750092789 4.10433572827e-19)
(2.26263037321 0.403379402947 -4.06787390195e-19)
(2.31541374835 0.431603531966 6.49390691137e-19)
(2.35976199987 0.460610117545 1.85445045803e-18)
(2.3520971786 0.479319090103 -2.1782476604e-19)
(2.16257871081 0.455363008703 -1.39103606043e-18)
(1.56073095198 0.34742135538 2.7278665809e-19)
(0.511979364264 0.0967230640212 1.29223315406e-20)
(2.1720020371 0.217137198279 4.01427497374e-19)
(2.21679613338 0.232967462873 7.65534303368e-20)
(2.26626396935 0.249231252359 -4.3487848666e-19)
(2.32017714902 0.266949623805 -1.05423408249e-18)
(2.3761284619 0.286231207073 8.69312043235e-20)
(2.42149089566 0.305955128132 8.60918407139e-20)
(2.40806266567 0.319496131635 -1.69850931439e-18)
(2.19647193343 0.29791701646 7.79247031068e-19)
(1.55673338484 0.227514232184 1.92196621809e-19)
(0.481760876269 0.0534805080047 -1.21866442877e-19)
(2.20167423974 0.097004761736 7.88845264036e-19)
(2.24840008187 0.10515371809 -1.22403734267e-18)