# Forces      
# CofR        : (0.000000e+00 0.000000e+00 0.000000e+00)
# Time        forces(pressure viscous)	moments(pressure viscous)
0.65          	((4.524852e+00 -1.066551e+00 4.344063e-19) (1.331440e+00 -3.956858e-02 -9.688880e-18)) ((8.683024e-21 -1.627696e-19 1.540993e-06) (-6.182280e-18 6.129312e-18 -2.341717e-02))
