/*--------------------------------*- C++ -*----------------------------------*\
  =========                 |
  \\      /  F ield         | OpenFOAM: The Open Source CFD Toolbox
   \\    /   O peration     | Website:  https://openfoam.org
    \\  /    A nd           | Version:  13
     \\/     M anipulation  |
\*---------------------------------------------------------------------------*/
FoamFile
{
    format      ascii;
    class       surfaceScalarField;
    location    "7.995";
    object      phi;
}
// * * * * * * * * * * * * * * * * * * * * * * * * * * * * * * * * * * * * * //

dimensions      [0 3 -1 0 0 0 0];

internalField   nonuniform List<scalar> 
823
(
0.00387315
0.0132082
-0.0170813
0.0311866
0.00163453
-0.028948
0.0994008
-0.0462647
-0.0219495
0.200888
-0.114389
0.0129025
-0.149626
0.00949899
0.341015
0.00708166
0.00612652
0.0611611
-0.0524449
0.162927
-0.148031
0.279107
-0.230569
-0.303055
0.432536
0.0259579
-0.0198314
0.119339
-0.145826
0.236108
-0.2648
0.346209
-0.34067
-0.383199
0.426353
0.0493086
-0.0691399
0.149487
-0.246005
0.232029
-0.347341
0.279378
-0.388019
-0.398079
0.294258
0.0613947
-0.130535
0.131119
-0.315729
0.168098
-0.384321
0.181357
-0.401277
0.190876
-0.407598
-0.0257061
0.0571648
-0.0314587
-0.0673871
0.0750326
-0.0333516
-0.109924
0.0714465
-0.02891
-0.149392
0.0625493
-0.0230811
0.0480594
-0.184952
-0.0124993
-0.00438208
0.0615469
-0.0213657
0.0920162
-0.0424711
0.0925518
-0.0631987
0.083277
0.06721
-0.0823494
0.0146863
0.0468606
0.0264809
0.0802216
0.0344957
0.0845371
0.0417862
0.0759865
0.0623686
0.0466276
0.0220706
0.02479
0.0533579
0.0489342
0.0845662
0.0533288
0.118469
0.0420836
0.037835
0.143003
0.00770868
0.027695
0.0590743
0.11406
0.161394
-0.10435
-0.609529
0.528927
0.221337
-1.21004
0.884355
0.193571
0.708245
-0.68048
0.142981
1.00702
-0.956428
-0.0908312
-0.0712534
-0.160981
-0.530898
0.0703957
-1.44142
0.186631
0.59201
0.186271
1.00738
-0.291001
-0.0150616
-0.469209
0.141278
-1.59776
0.274391
0.458897
0.287913
0.993856
-0.503015
0.277309
-0.603515
0.265404
-1.58585
0.282042
0.442258
0.422977
0.852921
-0.711734
0.408324
-0.850445
0.208726
-1.38625
0.206495
0.44449
0.612784
0.446632
-0.852543
1.30363
-0.926796
-1.22728
0.790283
-0.872902
0.641123
0.593649
1.25616
-0.168407
-0.874002
1.2955
-0.772279
-1.45001
0.857183
-0.434589
0.994355
0.456477
1.3825
-0.556553
-0.766512
1.17885
-0.554589
-1.39654
0.897063
-0.152801
1.19732
0.156222
1.27198
-0.631217
-0.522805
1.02321
-0.268338
-1.30946
0.917523
-0.0471182
1.1493
-0.0755545
0.904627
-0.386546
-0.203759
0.58631
-0.854648
0.539192
0.463637
0.0770918
1.12672
0.158923
-1.09477
1.21404
0.206939
1.31325
0.327143
1.35416
0.391624
0.467896
1.03389
0.100609
-0.975576
1.11234
0.128487
1.212
0.227483
1.3292
0.274426
0.347082
0.990297
0.0483252
-0.938013
1.04385
0.0749334
1.13924
0.132096
1.25402
0.159647
0.204557
0.937917
0.0109679
-0.900559
0.988036
0.0248138
1.07393
0.0461993
1.17787
0.0557061
0.0729744
0.654954
-0.643986
0.679768
0.725967
0.781673
0.141927
0.306253
-0.249563
-0.198617
0.0945878
0.310823
-0.263484
0.0531239
0.321349
-0.279885
0.0185011
0.312778
-0.278155
0.202281
-0.183779
0.102967
0.342513
-0.139227
0.06678
0.347011
0.0345887
0.353541
0.00878658
0.33858
0.211067
0.074048
0.379538
-0.111073
0.0404107
0.380648
0.0116342
0.382317
-0.00478615
0.355
0.206281
-0.00735485
0.395388
-0.00849536
-0.0246452
0.397939
-0.0334392
0.391111
-0.0265964
0.348157
0.179685
-0.08503
0.07282
-0.0883687
-0.0815781
-0.0491499
0.195296
0.110962
-0.248269
-0.0579895
0.141899
0.115476
-0.0620786
0.0877921
0.120387
-0.0662802
0.0355308
0.120321
-0.0680601
0.0856467
-0.0501159
0.193865
0.153956
-0.23686
0.147752
0.16159
0.0959022
0.172236
0.040677
0.175547
0.126324
0.133861
0.198843
-0.178748
0.093279
0.202172
0.0551845
0.210331
0.0197839
0.210947
0.146108
0.156317
0.23045
-0.187924
0.116914
0.241576
0.0720494
0.255195
0.0282584
0.254738
0.174366
0.0794283
-0.0985417
0.05752
0.03283
0.00941343
0.405071
0.0773499
-0.0864417
0.421653
0.0360962
-0.0526783
0.40994
0.192477
-0.180763
0.395054
0.221847
-0.206961
0.507781
-0.360996
0.402208
0.0711218
0.415818
0.0224857
0.40153
0.206765
0.384494
0.238883
0.655416
0.396074
0.0710269
0.410821
0.00773923
0.381482
0.236103
0.372862
0.247503
0.84953
0.39314
0.0738663
0.397892
0.0029873
0.373019
0.260977
0.35064
0.269882
1.01225
0.385945
0.0839006
0.389755
-0.000822461
0.343775
0.306957
0.321497
0.29216
1.2352
0.624911
0.0630098
0.65961
-0.0355217
0.704209
0.262358
0.7882
0.208168
1.00856
1.01484
0.641246
0.0257845
0.663604
-0.0578805
0.738695
0.187268
0.763401
0.183462
0.752364
1.0196
0.65017
-0.0203652
0.663172
-0.0708828
0.721093
0.129347
0.760531
0.144025
0.487477
1.02542
0.641719
-0.0580637
0.629914
-0.0590776
0.698526
0.0607346
0.786769
0.0557808
0.217945
1.0563
0.545957
0.486879
0.547614
0.603395
0.821339
1.05273
-0.236511
1.0395
-0.125992
1.05008
-0.121655
1.0433
-0.00171826
0.0213501
0.971871
-0.188781
0.95779
-0.11191
0.940587
-0.104452
0.95269
-0.0138212
-0.0015368
0.961583
-0.124945
0.945254
-0.0955809
0.916531
-0.0757285
0.931745
-0.0290357
-0.00780495
0.988443
-0.0570869
0.942377
-0.0495151
0.905304
-0.0386549
0.898986
-0.0227182
-0.00937806
0.764252
0.714737
0.676082
0.653364
0.0496237
0.136444
-0.186068
0.0757423
0.310923
-0.337042
0.0770066
0.367902
-0.369166
0.0663084
0.373129
-0.362431
0.341796
0.0541473
-0.329635
0.0708271
0.0656168
0.146501
0.235249
0.1837
0.330703
0.188615
0.368215
0.36606
0.16435
0.056733
0.00888381
0.173541
0.118442
0.273036
0.231208
0.345782
0.295468
0.354505
0.357338
0.0253967
-0.0165129
0.122052
0.0217861
0.247689
0.105571
0.372016
0.171141
0.238584
0.487937
0.00346263
-0.0199756
0.0465349
-0.0212862
0.142678
0.00942773
0.264559
0.0492596
0.089253
0.413891
-0.0084893
-0.0114863
-0.00491892
-0.0248566
0.0327395
-0.0282307
0.10316
-0.0211605
-0.00156918
0.193982
-0.00436185
-0.00712441
-0.00369861
-0.0255198
0.00890725
-0.0408365
0.0368492
-0.0491025
-0.0484121
0.0836921
0.00083068
-0.00795509
0.0055454
-0.0302345
0.0108065
-0.0460976
0.0153592
-0.0536553
-0.0558192
0.0227664
-0.0103386
0.00238347
-0.0273636
-0.0132095
-0.0511775
-0.0222836
-0.0788242
-0.0260086
-0.0301488
-0.104495
-0.0290753
-0.0756364
-0.12683
-0.17592
-0.218568
0.461347
0.332845
-0.60021
0.54027
0.358483
-0.437406
0.452032
0.287788
-0.199549
0.274383
0.266995
-0.0893469
0.0665832
0.00705188
0.41115
0.00538757
0.562989
0.206645
0.470423
0.380354
0.259312
0.478106
0.145024
0.217254
-0.1891
0.508687
-0.0847885
0.422424
0.466616
0.21971
0.68082
0.188743
0.0529402
-0.346534
0.44476
-0.476608
0.3415
0.569876
0.178237
0.844083
0.167765
-0.0361747
0.371572
0.260968
0.148622
0.169952
0.473904
-0.643856
-0.0512014
0.221154
-0.0434158
-0.0077856
0.0419646
-0.0853803
-0.0618605
0.930794
-1.0571
0.714542
0.507207
0.332479
0.0851563
-0.0156708
-0.0694855
0.137716
-0.0525594
0.254025
-0.116309
0.4304
-0.176375
-0.213457
0.192285
-0.153808
0.304076
0.545105
0.856666
0.139886
-0.131671
0.161947
-0.170163
0.106616
-0.136355
0.169626
0.0686164
-0.142587
0.180586
0.0278129
-0.141432
0.182236
-0.0976689
0.125482
0.177684
-0.0924965
-0.216859
0.134004
-0.0926753
0.0850043
-0.0935871
0.0349404
-0.0913683
-0.0627285
0.18533
-0.0435181
-0.234308
0.135029
-0.0423746
0.0836743
-0.0422323
0.0338924
-0.0415864
-0.0288361
0.1986
0.00756313
-0.249682
0.146914
0.00931177
0.0936541
0.0110276
0.0393931
0.0126747
0.010557
0.202964
-0.25339
0.150197
0.0949443
0.0395589
0.035775
-0.30889
-0.0565196
0.0124478
-0.339104
-0.00902111
-0.347697
-0.0168346
-0.329228
-0.202902
0.118193
-0.279112
-0.147971
0.0758232
-0.296734
0.0357442
-0.307618
0.00631965
-0.299804
-0.196583
0.135053
-0.240672
-0.173493
0.0953062
-0.256988
0.0555399
-0.267852
0.0193463
-0.26361
-0.177236
0.156244
-0.207071
-0.189846
0.114132
-0.214876
0.0690846
-0.222804
0.0269052
-0.22143
-0.150331
0.151512
-0.196635
0.106262
0.0640442
0.0248494
0.385578
0.111667
-0.101266
0.386798
0.0932456
-0.0944656
0.354325
0.161122
-0.128649
0.298305
0.0758918
-0.0198718
-0.183766
0.311908
0.394028
0.113619
0.400247
0.0870268
0.392544
0.168824
0.345297
0.123139
-0.0553281
0.40072
0.108879
0.410553
0.0771933
0.406613
0.172765
0.370381
0.159371
0.080745
0.406368
0.0984904
0.417688
0.0658731
0.414953
0.1755
0.388646
0.185678
0.219709
0.408028
0.421223
0.41596
0.394677
0.414092
0.0959588
0.329381
0.0847117
0.237934
0.0914463
0.234734
0.00320011
-0.170586
0.40532
0.504744
0.49499
0.457788
0.441116
0.582439
0.32451
0.0808098
0.252473
0.0720375
0.168035
0.0844371
0.0973014
0.070734
0.0278159
0.466613
0.348805
0.259749
0.182512
)
;

boundaryField
{
    left
    {
        type            calculated;
        value           nonuniform List<scalar> 
17
(
-0.60402
-0.60402
-0.60402
-0.60402
-0.60402
-0.39598
-0.39598
-0.39598
-0.39598
-0.39598
-0.39598
-0.39598
-0.39598
-0.39598
-0.39598
-0.510051
-0.510051
)
;
    }
    right
    {
        type            calculated;
        value           nonuniform List<scalar> 
17
(
0.103825
0.277671
0.200748
0.180871
0.175991
0.199215
0.245134
0.305066
0.38644
0.499927
0.631696
0.753593
1.27762
1.27501
1.02828
0.585582
-0.126667
)
;
    }
    down
    {
        type            calculated;
        value           uniform 0;
    }
    up
    {
        type            calculated;
        value           uniform 0;
    }
    cylinder
    {
        type            calculated;
        value           uniform 0;
    }
    defaultFaces
    {
        type            empty;
    }
}


// ************************************************************************* //
