/*--------------------------------*- C++ -*----------------------------------*\
  =========                 |
  \\      /  F ield         | OpenFOAM: The Open Source CFD Toolbox
   \\    /   O peration     | Website:  https://openfoam.org
    \\  /    A nd           | Version:  13
     \\/     M anipulation  |
\*---------------------------------------------------------------------------*/
FoamFile
{
    format      ascii;
    class       surfaceScalarField;
    location    "0.385";
    object      phi;
}
// * * * * * * * * * * * * * * * * * * * * * * * * * * * * * * * * * * * * * //

dimensions      [0 3 -1 0 0 0 0];

internalField   nonuniform List<scalar> 
3485
(
0.00137162
-0.0112583
0.00988671
0.00505113
-0.0319073
0.0282278
0.0107644
-0.0513832
0.04567
0.0183132
-0.0696766
0.0621278
0.0275468
-0.0868339
0.0776002
0.0383511
-0.102899
0.0920944
0.0506375
-0.117902
0.105616
0.0643631
-0.131865
0.118139
0.0796254
-0.144853
0.12959
-0.156884
0.139489
0.0970202
0.00150031
-0.0127586
0.00544581
-0.0358528
0.0114763
-0.0574137
0.019324
-0.0775243
0.0287739
-0.0962837
0.0396487
-0.113773
0.0518042
-0.130058
0.0651328
-0.145193
0.0795428
-0.159263
-0.17219
0.0948485
0.00147415
-0.0142328
0.00532696
-0.0397056
0.0111746
-0.0632613
0.0187212
-0.0850709
0.0277261
-0.105289
0.0379899
-0.124037
0.049347
-0.141415
0.0616576
-0.157504
0.0747899
-0.172395
-0.186032
0.0886324
0.00133885
-0.0155716
0.00485903
-0.0432258
0.010211
-0.0686132
0.0171174
-0.0919774
0.0253546
-0.113526
0.0347416
-0.133424
0.0451324
-0.151806
0.0564071
-0.168779
0.068459
-0.184447
-0.198788
0.0812148
0.00116693
-0.0167386
0.00425603
-0.0463149
0.0089733
-0.0733305
0.0150821
-0.0980861
0.0223924
-0.120836
0.0307537
-0.141786
0.0400481
-0.1611
0.0501832
-0.178914
0.0610812
-0.195345
-0.210401
0.0726944
0.000980036
-0.0177186
0.00358803
-0.0489229
0.00758682
-0.0773293
0.0127844
-0.103284
0.0190268
-0.127079
0.0261938
-0.148953
0.0341933
-0.1691
0.042956
-0.187676
0.052427
-0.204816
-0.220549
0.0625751
0.000780748
-0.0184994
0.00286511
-0.0510072
0.00606923
-0.0805334
0.0102433
-0.107458
0.0152673
-0.132103
0.0210479
-0.154733
0.027516
-0.175568
0.0346228
-0.194783
0.0423343
-0.212528
-0.228852
0.0506368
0.000569732
-0.0190691
0.00209358
-0.0525311
0.00443814
-0.082878
0.00749316
-0.110513
0.0111694
-0.135779
0.0153979
-0.158962
0.0201291
-0.180299
0.0253315
-0.199986
0.0309891
-0.218185
-0.234969
0.0371064
0.000352539
-0.0194216
0.00129588
-0.0534744
0.00274527
-0.0843274
0.00462878
-0.112396
0.00688714
-0.138037
0.00947403
-0.161548
0.0123565
-0.183181
0.0155159
-0.203145
0.0189468
-0.221616
-0.238686
0.022664
0.000137827
-0.0195594
0.000502576
-0.0538392
0.0010572
-0.084882
0.00176991
-0.113109
0.00261425
-0.138882
0.00356911
-0.162503
0.00461899
-0.184231
0.00575438
-0.20428
0.00697182
-0.222834
0.0082764
-0.239991
0.000503164
-0.00187738
0.00137422
0.00212567
-0.0062565
0.00463399
0.00546645
-0.0113686
0.00802778
0.0101498
-0.0161109
0.0114276
0.0155811
-0.020101
0.0146697
0.0214936
-0.0235047
0.0175923
0.0279726
-0.026688
0.020209
0.0351617
-0.0298758
0.0226867
0.0430483
-0.0330265
0.0251399
-0.0359931
0.0515027
0.0275387
0.000428725
-0.00230611
0.0021183
-0.00794609
0.00545288
-0.0147031
0.00984936
-0.0205074
0.0149474
-0.0251991
0.0208446
-0.029402
0.0277091
-0.0335524
0.0354935
-0.0376602
0.0439928
-0.0415258
-0.0450437
0.0530434
0.000681373
-0.00298748
0.00271193
-0.00997665
0.00579155
-0.0177828
0.00979961
-0.0245155
0.0148766
-0.0302761
0.0211896
-0.0357149
0.0286723
-0.0410352
0.0370519
-0.0460398
0.0461112
-0.0505852
-0.0546897
0.0557572
0.000866121
-0.00385361
0.0030565
-0.012167
0.00608939
-0.0208157
0.0102298
-0.0286559
0.0157428
-0.035789
0.0226124
-0.0425845
0.030601
-0.0490238
0.0394736
-0.0549123
0.0491324
-0.060244
-0.0650516
0.0594942
0.000920718
-0.00477432
0.00319793
-0.0144442
0.00652566
-0.0241434
0.0111347
-0.033265
0.0171624
-0.0418167
0.0244861
-0.0499082
0.032916
-0.0574537
0.0423525
-0.0643488
0.0527308
-0.0706223
-0.0762394
0.0639186
0.000942372
-0.0057167
0.00337138
-0.0168733
0.00709472
-0.0278667
0.0121837
-0.038354
0.0186485
-0.0482815
0.0263793
-0.0576391
0.0352793
-0.0663536
0.0452995
-0.0743691
0.0563608
-0.0816836
-0.0881841
0.0683055
0.000979163
-0.00669586
0.00358328
-0.0194774
0.00764254
-0.031926
0.0131113
-0.0438227
0.0199338
-0.055104
0.0280243
-0.0657296
0.0373206
-0.0756499
0.0477761
-0.0848246
0.0593174
-0.0932249
-0.100666
0.0717995
0.00101759
-0.00771345
0.00376722
-0.022227
0.00807129
-0.0362301
0.0138214
-0.0495728
0.0209232
-0.0622058
0.029288
-0.0740944
0.0388463
-0.0852082
0.0495413
-0.0955196
0.0613142
-0.104998
-0.113416
0.0740645
0.0010544
-0.00876785
0.00393635
-0.0251089
0.00846086
-0.0407546
0.0144826
-0.0555946
0.0218757
-0.0695988
0.0305297
-0.0827484
0.0403496
-0.0950281
0.0512466
-0.106417
0.0631397
-0.116891
-0.126301
0.0760239
0.00111886
0.00423769
0.00915309
0.0156863
0.0236877
0.0330337
0.0436213
0.0553438
0.0680434
0.0812318
0.114394
-0.413349
0.350458
0.16811
-0.469997
0.416282
0.209968
-0.419358
0.3775
0.243244
-0.323567
0.29029
0.26898
-0.211235
0.185499
0.287682
-0.105825
0.0871222
0.298499
-0.0305262
0.0197094
0.303127
-0.00152431
-0.00310329
0.304489
0.00236994
-0.00373256
0.00295018
-0.00203278
0.116077
-0.476383
0.169843
-0.523763
0.211774
-0.461289
0.244847
-0.356639
0.270589
-0.236977
0.289338
-0.124574
0.300447
-0.0416352
0.30565
-0.00672702
0.308038
-1.84928e-05
0.00312768
0.11794
-0.538566
0.170789
-0.576612
0.212437
-0.502937
0.245041
-0.389243
0.270678
-0.262614
0.289226
-0.143122
0.300023
-0.0524326
0.305192
-0.0118958
0.307724
-0.00255066
0.00312426
0.120331
-0.599402
0.171216
-0.627498
0.212092
-0.543813
0.24397
-0.421122
0.26939
-0.288034
0.287784
-0.161515
0.298488
-0.0631366
0.30403
-0.0174383
0.307001
-0.00552093
0.00269677
0.12321
-0.658694
0.171339
-0.675627
0.21086
-0.583334
0.241759
-0.452021
0.2668
-0.313075
0.285186
-0.179901
0.296164
-0.0741145
0.302462
-0.0237359
0.306156
-0.00921535
0.00155723
0.126041
-0.716429
0.171209
-0.720795
0.208842
-0.620966
0.238522
-0.481701
0.262968
-0.337521
0.281488
-0.198421
0.293144
-0.0857707
0.30053
-0.0311219
0.305208
-0.0138937
-0.000569383
0.127953
-0.772583
0.170657
-0.763499
0.206113
-0.656422
0.234383
-0.509971
0.257985
-0.361122
0.27671
-0.217146
0.289453
-0.0985143
0.298251
-0.0399197
0.304165
-0.0198077
-0.00394943
0.128012
-0.826531
0.169208
-0.804695
0.202559
-0.689773
0.229348
-0.53676
0.251888
-0.383662
0.270817
-0.236075
0.285063
-0.11276
0.295616
-0.0504728
0.303015
-0.0272061
-0.00885736
0.125914
-0.876421
0.166459
-0.84524
0.198143
-0.721457
0.223537
-0.562154
0.244827
-0.404952
0.263849
-0.255098
0.279923
-0.128834
0.292557
-0.0631069
0.301554
-0.0362037
-0.0154282
0.122214
-0.917404
0.161608
-0.884633
0.191993
-0.751841
0.216276
-0.586437
0.236362
-0.425037
0.255443
-0.274179
0.273795
-0.147185
0.28824
-0.0775522
0.296741
-0.044705
-0.0219444
0.583881
-0.919847
-0.581438
0.56114
-0.861892
0.52394
-0.714642
0.487662
-0.550159
0.459713
-0.397088
0.446945
-0.261412
0.447846
-0.148086
0.446826
-0.0765318
0.441127
-0.0390064
-0.0196178
0.682809
-0.87124
-0.731416
0.61973
-0.798813
0.554205
-0.649116
0.497457
-0.493411
0.454522
-0.354153
0.429558
-0.236447
0.418226
-0.136755
0.410834
-0.0691396
0.405768
-0.033941
-0.0174336
0.754063
-0.774888
-0.850415
0.655419
-0.700169
0.564219
-0.557916
0.489147
-0.41834
0.432688
-0.297693
0.396552
-0.200312
0.379483
-0.119686
0.371586
-0.0612418
0.36657
-0.028925
-0.0149011
0.779174
-0.641521
-0.912541
0.654154
-0.575149
0.547044
-0.450806
0.462434
-0.33373
0.400438
-0.235697
0.359683
-0.159556
0.338309
-0.0983121
0.328648
-0.0515808
0.323628
-0.0239053
-0.0123272
0.753129
-0.492353
-0.902297
0.617849
-0.439869
0.50669
-0.339647
0.421023
-0.248063
0.359134
-0.173807
0.317722
-0.118145
0.294278
-0.0748683
0.283374
-0.040677
0.278234
-0.0187645
-0.00970021
0.685185
-0.345798
-0.83174
0.552856
-0.307541
0.446738
-0.233529
0.36655
-0.167875
0.309323
-0.116581
0.270706
-0.0795282
0.24754
-0.0517017
0.236046
-0.0291828
0.230821
-0.0135394
-0.00708339
0.582658
-0.213846
-0.714611
0.462967
-0.18785
0.369469
-0.14003
0.300253
-0.0986594
0.251544
-0.0678713
0.218518
-0.0465016
0.197804
-0.0309886
0.18682
-0.0181981
0.181789
-0.00850857
-0.00458414
0.448777
-0.105519
-0.557104
0.351215
-0.0902878
0.277131
-0.0659464
0.223684
-0.0452123
0.18665
-0.0308373
0.161443
-0.0212948
0.145025
-0.0145698
0.135747
-0.00892042
0.131388
-0.00414949
-0.00238266
0.286598
-0.0302198
-0.361896
0.220924
-0.0246143
0.17252
-0.0175419
0.138773
-0.0114654
0.115677
-0.00774185
0.0998109
-0.0054283
0.0890979
-0.00385674
0.0826951
-0.00251761
0.0796808
-0.00113527
-0.000760327
0.101316
-0.131536
0.076702
0.05916
0.0476947
0.0399528
0.0345245
0.0306678
0.0281502
0.0270149
0.738827
0.0102241
-0.740774
0.73308
0.028411
0.723439
0.0467469
0.710164
0.0639124
0.693568
0.0791712
0.67407
0.0921922
0.652261
0.103024
0.628694
0.112199
0.604242
0.119301
0.119824
0.845553
0.0134005
-0.848729
0.837324
0.0366401
0.827288
0.0567827
0.816591
0.0746095
0.805245
0.0905177
0.792886
0.104551
0.779266
0.116643
0.764562
0.126903
0.749088
0.134775
0.137496
0.844993
0.0114281
-0.843021
0.848895
0.0327389
0.853034
0.0526436
0.856486
0.0711568
0.858848
0.0881564
0.859933
0.103466
0.859604
0.116972
0.85797
0.128537
0.855295
0.13745
0.142377
0.800219
0.00930698
-0.798098
0.805828
0.0271297
0.814428
0.0440436
0.825651
0.0599343
0.839022
0.0747854
0.853878
0.0886094
0.869456
0.101393
0.885098
0.112895
0.899991
0.122557
0.129827
0.73787
0.00704095
-0.735604
0.744159
0.0208404
0.75413
0.0340733
0.767512
0.0465522
0.784094
0.0582026
0.803677
0.0690264
0.826013
0.0790574
0.850659
0.0882495
0.876594
0.0966213
0.104124
0.653923
0.0048557
-0.651738
0.660206
0.0145575
0.670382
0.0238974
0.684226
0.0327084
0.701531
0.0408971
0.72212
0.0484375
0.745818
0.0553592
0.772348
0.0617199
0.801244
0.067725
0.0736284
0.549113
0.00291726
-0.547175
0.554814
0.00885675
0.56414
0.0145711
0.576908
0.0199405
0.592918
0.0248871
0.611972
0.0293831
0.633877
0.0334548
0.658415
0.0371814
0.685392
0.0407483
0.0444095
0.422792
0.00137634
-0.421252
0.427413
0.00423636
0.435008
0.00697584
0.445423
0.00952596
0.458471
0.0118388
0.473958
0.0138957
0.491699
0.0157139
0.511531
0.0173499
0.533351
0.0189277
0.0206571
0.273828
0.000366846
-0.272818
0.276915
0.00114955
0.281999
0.00189179
0.288955
0.00256941
0.29763
0.00316442
0.307856
0.00366908
0.319482
0.00408798
0.332395
0.00443663
0.346563
0.00476041
0.00532332
0.100484
-0.100117
0.101633
0.103525
0.106094
0.109259
0.112928
0.117016
0.121452
0.126213
0.0779593
0.159478
-0.142456
-0.0949808
0.0630481
0.14744
-0.132529
0.049633
0.134391
-0.120976
0.0376133
0.120322
-0.108302
0.0270328
0.105164
-0.0945838
0.0179816
0.088891
-0.0798398
0.0105748
0.0714594
-0.0640526
0.00496407
0.0528097
-0.047199
0.00134819
0.0328752
-0.0292594
0.0116396
-0.0102914
0.0779615
0.174415
-0.0928991
0.0638858
0.161516
0.0508497
0.147427
0.0389445
0.132227
0.0282799
0.115829
0.0190024
0.0981686
0.0112906
0.0791712
0.00535992
0.0587404
0.00147727
0.0367579
0.0131169
0.073195
0.187916
-0.086696
0.0603807
0.17433
0.0483573
0.159451
0.0372529
0.143332
0.0272054
0.125876
0.0183804
0.106994
0.010977
0.0865746
0.0052354
0.064482
0.0014496
0.0405437
0.0145665
0.0667826
0.200346
-0.0792122
0.055041
0.186072
0.0440544
0.170437
0.0339246
0.153461
0.024768
0.135033
0.0167276
0.115034
0.00998178
0.0933204
0.00475141
0.0697123
0.0013096
0.0439855
0.0158761
0.059321
0.211653
-0.0706282
0.0487211
0.196672
0.038871
0.180287
0.0298432
0.162489
0.0217253
0.143151
0.0146299
0.122129
0.00870237
0.099248
0.00412637
0.0742883
0.00113092
0.046981
0.017007
0.050604
0.22152
-0.0604705
0.0414151
0.20586
0.03293
0.188772
0.0251987
0.17022
0.0182844
0.150065
0.0122723
0.128142
0.00727496
0.104245
0.00343646
0.0781268
0.000937243
0.0494802
0.0179442
0.0404611
0.229564
-0.0485058
0.0330153
0.213306
0.026178
0.195609
0.0199782
0.17642
0.0144578
0.155586
0.00967754
0.132922
0.00572039
0.108202
0.0026937
0.0811535
0.000731805
0.0514421
0.0186761
0.0290564
0.235443
-0.034935
0.0236527
0.21871
0.0187155
0.200547
0.0142555
0.18088
0.0102963
0.159545
0.00687748
0.136341
0.00405551
0.111024
0.00190419
0.0833048
0.000515251
0.052831
0.0191913
0.0169183
0.238928
-0.0204033
0.0137423
0.221886
0.010855
0.203434
0.00825476
0.183481
0.00595133
0.161848
0.00396632
0.138326
0.00233203
0.112659
0.00109057
0.0845463
0.00029321
0.0536284
0.0194845
0.00482748
-0.00589022
0.00387999
0.00303357
0.00228297
0.00162779
0.00107171
0.000621418
0.000285721
7.4938e-05
0.0435365
0.0412313
-0.0524083
-0.0323595
0.035186
0.0381887
-0.0298382
0.0275438
0.0348
-0.0271578
0.0208299
0.0312027
-0.0244888
0.0150392
0.0276526
-0.021862
0.00993251
0.0241026
-0.0189959
0.00540426
0.0199693
-0.0154411
0.00195242
0.0143747
-0.0109229
0.000380591
0.00735321
-0.00578137
0.00207605
-0.00169546
0.0437683
0.050403
-0.0529401
0.035116
0.0468411
0.0270778
0.0428382
0.0199369
0.0383437
0.0140027
0.0335868
0.00927466
0.0288306
0.00550812
0.0237359
0.00256428
0.0173186
0.000616404
0.00930108
0.00269246
0.0450609
0.0599763
-0.0546342
0.0361188
0.0557831
0.0278598
0.0510971
0.0204049
0.0457986
0.0140804
0.0399113
0.00914668
0.0337644
0.00554474
0.0273378
0.0029016
0.0199617
0.000809878
0.0113928
0.00350234
0.0475387
0.0701856
-0.057748
0.038079
0.0652428
0.0294827
0.0596935
0.0217888
0.0534925
0.0151265
0.0465736
0.00975565
0.0391352
0.00579675
0.0312967
0.00297683
0.0227816
0.00087981
0.0134898
0.00438215
0.0510019
0.081136
-0.0619523
0.0408737
0.075371
0.0317308
0.0688364
0.0236358
0.0615876
0.0166137
0.0535957
0.0107937
0.0449553
0.00631176
0.0357786
0.00307751
0.0260159
0.000885528
0.0156818
0.00526768
0.0546712
0.0927561
-0.0662912
0.0439271
0.0861151
0.0342221
0.0785413
0.0256316
0.0701781
0.0181781
0.0610491
0.0119192
0.0512143
0.00695075
0.040747
0.00329006
0.0296766
0.000912281
0.0180596
0.00617996
0.0576916
0.104858
-0.0697936
0.0465121
0.0972946
0.0363901
0.0886633
0.0273864
0.0791819
0.0195371
0.0688984
0.0128932
0.0578581
0.00753461
0.0461057
0.00353252
0.0336787
0.000961891
0.0206302
0.00714185
0.059719
0.117202
-0.0720632
0.0483253
0.108688
0.037968
0.0990205
0.028693
0.0884569
0.020552
0.0770393
0.0136141
0.064796
0.0079704
0.0517494
0.00372598
0.0379231
0.00100652
0.0233497
0.00814837
0.0615106
0.12967
-0.0739786
0.0499999
0.120199
0.0394393
0.109581
0.0299008
0.0979955
0.0214705
0.0854696
0.0142454
0.0720212
0.0083396
0.0576552
0.00388682
0.0423759
0.0010425
0.026194
0.00919087
0.0663507
-0.0791366
0.054021
0.0426262
0.0323194
0.0232052
0.0153866
0.00898913
0.00416594
0.00110058
0.214764
0.0585676
-0.0753423
0.236324
0.091374
-0.112933
0.25919
0.123911
-0.146777
0.271437
0.114619
-0.126866
0.271366
0.113074
-0.113003
0.250397
0.181021
-0.160051
0.217251
0.294043
-0.260897
0.173967
0.411271
-0.367986
0.118007
0.492741
-0.436781
0.459852
-0.394253
0.214044
0.0425138
0.234484
0.0709335
0.256557
0.101838
0.269384
0.101792
0.270641
0.111817
0.250847
0.200815
0.217756
0.327134
0.174045
0.454982
0.117935
0.548851
0.524846
0.213458
0.0270455
0.233217
0.0511749
0.254547
0.0805076
0.267743
0.0885967
0.26918
0.11038
0.249982
0.220013
0.216951
0.360164
0.173106
0.498827
0.117973
0.603984
0.588185
0.212994
0.0120409
0.232508
0.0316617
0.253146
0.0598687
0.266404
0.0753388
0.267095
0.10969
0.247848
0.23926
0.214908
0.393104
0.171463
0.542273
0.118653
0.656794
0.64909
0.212737
-0.00270644
0.232313
0.0120855
0.252247
0.0399354
0.265039
0.0625468
0.264271
0.110458
0.244455
0.259077
0.211747
0.425811
0.169482
0.584538
0.120086
0.70619
0.707224
0.212772
-0.0174889
0.232556
-0.00769838
0.251685
0.0208069
0.263357
0.0508743
0.260551
0.113264
0.239842
0.279786
0.207664
0.45799
0.16742
0.624782
0.121828
0.751781
0.762761
0.21308
-0.0325794
0.233109
-0.0277267
0.251271
0.00264504
0.261172
0.0409726
0.255855
0.118581
0.234143
0.301498
0.202904
0.489229
0.165275
0.66241
0.123019
0.794038
0.815986
0.213479
-0.0480684
0.233801
-0.0480493
0.250792
-0.0143455
0.258264
0.0335007
0.250037
0.126809
0.227415
0.324119
0.197516
0.519127
0.16265
0.697277
0.122659
0.834028
0.866582
0.21369
-0.063769
0.234476
-0.0688344
0.250062
-0.0299321
0.254638
0.0289251
0.243286
0.13816
0.219981
0.347425
0.191639
0.547469
0.159146
0.72977
0.120367
0.872807
0.91297
0.213797
-0.0795764
0.234931
-0.0899685
0.249
-0.0440013
0.249896
0.0280298
0.235027
0.153029
0.211198
0.371253
0.184385
0.574283
0.153908
0.760247
0.116648
0.910067
0.950482
0.332259
-0.109826
0.37126
-0.128969
0.406952
-0.0796935
0.425566
0.00941581
0.440828
0.137768
0.467983
0.344098
0.506748
0.535518
0.54961
0.717384
0.581292
0.878385
0.945345
0.586429
0.333573
-0.141389
0.373715
-0.169111
0.409314
-0.115292
0.426038
-0.00730806
0.439792
0.124013
0.4774
0.30649
0.534789
0.478129
0.6046
0.647574
0.675348
0.807637
0.887789
0.732904
0.335782
-0.175161
0.375276
-0.208605
0.410281
-0.150296
0.42508
-0.0221074
0.434046
0.115048
0.476714
0.263822
0.547731
0.407112
0.639322
0.555983
0.742431
0.704527
0.783825
0.846396
0.339413
-0.212564
0.373448
-0.24264
0.388793
-0.165642
0.3888
-0.0221142
0.40372
0.100127
0.455274
0.212268
0.535541
0.326845
0.641269
0.450255
0.76744
0.578356
0.646657
0.904608
0.347257
-0.257811
0.356209
-0.251592
0.341023
-0.150456
0.339458
-0.0205484
0.361748
0.0778358
0.415631
0.158386
0.498274
0.244202
0.608474
0.340055
0.744057
0.442772
0.49564
0.895075
0.341149
-0.29695
0.322144
-0.232587
0.290328
-0.11864
0.287476
-0.0176963
0.311171
0.0541405
0.362227
0.10733
0.440427
0.166003
0.546123
0.234359
0.678954
0.309941
0.347871
0.826723
0.314345
-0.309284
0.272049
-0.190291
0.235256
-0.081847
0.230898
-0.0133383
0.252657
0.0323812
0.296989
0.0629978
0.36505
0.0979422
0.458534
0.140875
0.578892
0.189583
0.215054
0.711708
0.273823
-0.281097
0.213154
-0.129621
0.175327
-0.0440198
0.170161
-0.00817221
0.187371
0.0151711
0.221556
0.028813
0.274447
0.0450507
0.34879
0.0665325
0.447087
0.0912853
0.106122
0.556019
0.214645
-0.193732
0.140581
-0.0555571
0.109874
-0.0133134
0.104779
-0.00307676
0.116032
0.00391772
0.137647
0.00719795
0.171243
0.0114552
0.220014
0.0177611
0.286346
0.024953
0.0304048
0.362064
0.108278
0.0527211
0.0394077
0.0363309
0.0402486
0.0474466
0.0589018
0.0766628
0.101616
0.132021
0.608603
-0.117155
0.632282
-0.116578
0.655112
-0.109526
0.676274
-0.100374
0.695225
-0.0895794
0.711368
-0.0766131
0.724265
-0.0614031
0.733594
-0.0442646
0.739081
-0.0258899
-0.00758373
0.750254
-0.134505
0.765173
-0.131497
0.779389
-0.123742
0.792624
-0.113608
0.804696
-0.101652
0.815838
-0.0877554
0.826399
-0.0719635
0.836392
-0.0542579
0.844844
-0.034342
-0.0114689
0.851033
-0.139143
0.85349
-0.133954
0.855015
-0.125267
0.855399
-0.113992
0.854553
-0.100806
0.852652
-0.085854
0.849922
-0.0692334
0.846759
-0.0510957
0.843961
-0.0315441
-0.0105286
0.892655
-0.12719
0.878624
-0.119923
0.863927
-0.11057
0.849345
-0.0994101
0.835484
-0.0869447
0.823044
-0.073414
0.812651
-0.0588405
0.804766
-0.0432106
0.799752
-0.0265296
-0.00887482
0.870413
-0.102527
0.845621
-0.0951312
0.821992
-0.0869412
0.800519
-0.0779373
0.781672
-0.0680978
0.765725
-0.0574671
0.752897
-0.0460125
0.743408
-0.0337217
0.737528
-0.0206491
-0.00695115
0.797049
-0.0728529
0.768965
-0.0670476
0.74314
-0.0611165
0.720047
-0.0548441
0.699977
-0.0480275
0.683115
-0.0406052
0.669643
-0.0325409
0.65977
-0.0238487
0.653727
-0.014606
-0.00496165
0.683001
-0.0441452
0.656508
-0.0405545
0.632404
-0.0370125
0.610878
-0.0333186
0.592144
-0.0292931
0.576394
-0.0248554
0.563827
-0.0199738
0.554645
-0.0146673
0.549043
-0.00900364
-0.00309321
0.532509
-0.0206343
0.510904
-0.0189501
0.49127
-0.0173782
0.473698
-0.0157471
0.458346
-0.0139404
0.445393
-0.0119028
0.435034
-0.00961458
0.427456
-0.00708947
0.422823
-0.00437041
-0.00152203
0.346781
-0.00535124
0.332639
-0.00480841
0.319745
-0.00448408
0.308131
-0.00413278
0.297903
-0.00371288
0.28921
-0.00321018
0.282215
-0.00261943
0.277073
-0.00194692
0.273911
-0.00120909
-0.000428951
0.126669
0.121861
0.117377
0.113244
0.109531
0.106321
0.103702
0.101755
0.100546
0.000185043
0.011608
-0.011793
0.000623691
0.0304435
-0.0308822
0.00123707
0.0462375
-0.0468509
0.00197718
0.0594625
-0.0602026
0.00277641
0.0700157
-0.070815
0.00376924
0.0798825
-0.0808754
0.00396316
0.077261
-0.0774549
0.00408452
0.0700367
-0.070158
0.00394463
0.0610745
-0.0609346
0.0499516
0.0035069
-0.0495139
0.000533356
0.0110746
0.00180373
0.0291731
0.00358482
0.0444564
0.00574082
0.0573065
0.00807221
0.0676843
0.0110388
0.076916
0.0116751
0.0766247
0.0120799
0.0696318
0.0117727
0.0613818
0.051074
0.0106503
0.000835432
0.0102392
0.00283161
0.027177
0.00563869
0.0416494
0.00904089
0.0539043
0.0127385
0.0639867
0.0172462
0.0724083
0.0187888
0.0750821
0.0195703
0.0688503
0.0193841
0.061568
0.0524304
0.0180276
0.00105589
0.00918333
0.00359672
0.0246361
0.00719307
0.038053
0.011555
0.0495424
0.0163554
0.0591863
0.0217461
0.0670176
0.0250709
0.0717573
0.0263532
0.0675681
0.0266014
0.0613198
0.0535623
0.0254695
0.00115135
0.00803198
0.00397898
0.0218085
0.00804108
0.0339909
0.012996
0.0445875
0.0185503
0.053632
0.0245559
0.0610121
0.0299502
0.066363
0.032088
0.0654303
0.0330092
0.0603986
0.0540871
0.0324844
0.00111139
0.00692059
0.00396566
0.0189542
0.00818493
0.0297716
0.0133892
0.0393832
0.0193167
0.0477045
0.0257704
0.0545584
0.0324139
0.0597194
0.0363104
0.0615339
0.0381221
0.0585869
0.0537031
0.038506
0.000926188
0.00599441
0.00357272
0.0163077
0.00771011
0.0256342
0.0128809
0.0342124
0.0187855
0.0417998
0.0253368
0.0480071
0.0323193
0.0527369
0.0382732
0.05558
0.0415851
0.0552751
0.0521792
0.043109
0.00056793
0.00542648
0.00278664
0.014089
0.00665724
0.0217636
0.0116208
0.0292489
0.0172037
0.036217
0.0234466
0.0417642
0.030285
0.0458985
0.0371826
0.0486824
0.0425594
0.0498983
0.0489208
0.0458178
0.000104179
0.0053223
0.00176907
0.0124241
0.00517605
0.0183567
0.00981505
0.0246099
0.0149572
0.0310748
0.0206215
0.0360999
0.0269036
0.0396165
0.0335866
0.0419993
0.040084
0.043401
0.0437929
0.0452118
-0.000174789
0.00549709
0.00108804
0.0111613
0.00385718
0.0155875
0.00788777
0.0205793
0.0125027
0.0264598
0.0175733
0.0310293
0.0231787
0.0340111
0.0292501
0.0359278
0.0356359
0.0370152
0.0373672
0.0420617
-1.97237e-05
0.00551681
0.00114218
0.00999938
0.00328015
0.0134496
0.0064159
0.0174435
0.0102984
0.0225773
0.01484
0.0264878
0.019959
0.0288921
0.0254902
0.0303966
0.0312269
0.0312786
0.0316941
0.0368999
0.000379494
0.00513732
0.001535
0.00884388
0.00318465
0.0117999
0.0054961
0.0151321
0.00871581
0.0193576
0.0129003
0.0223033
0.0177505
0.0240419
0.0230159
0.0251312
0.0285054
0.025789
0.0260595
0.0341401
0.000626369
0.00451095
0.00171089
0.00775935
0.00303254
0.0104783
0.00485225
0.0133123
0.00784053
0.0163693
0.0119266
0.0182172
0.016675
0.0192935
0.0218457
0.0199604
0.0273064
0.0203283
0.0204101
0.0329558
0.000678609
0.00383234
0.00164616
0.0067918
0.00282568
0.00929873
0.00470373
0.0114343
0.00797088
0.0131021
0.0121953
0.0139928
0.0170066
0.0144823
0.0222424
0.0147246
0.0278062
0.0147646
0.0146041
0.0336121
0.00066358
0.00316876
0.00155307
0.0059023
0.00298829
0.0078635
0.00556636
0.00885623
0.0093494
0.00931907
0.0138639
0.00947827
0.0189002
0.00944598
0.0243584
0.00926635
0.0301703
0.00895264
0.00851021
0.0362642
0.000592147
0.00257661
0.00170454
0.00478989
0.00403813
0.00552991
0.00748659
0.00540776
0.0117322
0.00507348
0.0165729
0.00463756
0.0219069
0.00411194
0.0276746
0.00349869
0.0338243
0.00280292
0.00203701
0.0402975
0.000517542
0.00205906
0.00246231
0.00284512
0.00571912
0.00227309
0.00970936
0.00141751
0.014293
0.000489851
0.0194226
-0.000492046
0.0250669
-0.00153239
0.0311834
-0.00261781
0.0377123
-0.00372591
-0.0048445
0.0445937
0.000857108
0.00120194
0.00359396
0.00010825
0.00715116
-0.00128412
0.0113325
-0.00276384
0.0161218
-0.00429942
0.0215277
-0.00589795
0.0275103
-0.00751504
0.0339817
-0.00908922
0.0408596
-0.0106038
-0.012087
0.0481021
0.00150069
-0.000298755
0.00413353
-0.0025246
0.0075551
-0.0047057
0.0117644
-0.00697319
0.0167679
-0.00930289
0.0224921
-0.0116221
0.0287751
-0.013798
0.0354961
-0.0158102
0.0426264
-0.0177341
-0.0196249
0.0501643
0.00107546
0.00318484
0.00650692
0.0109613
0.0163281
0.0222983
0.0287092
0.0355857
0.0429914
0.0509052
0.0513975
0.0837393
-0.0982369
0.0772185
-0.00730914
-0.0185119
0.0997469
-0.050805
0.0282766
0.113327
-0.0466406
0.033061
0.121247
-0.0266028
0.0186822
0.124876
-0.00800673
0.00437753
0.126255
0.00216274
-0.00354123
0.127273
0.00416901
-0.00518728
0.12869
0.00285785
-0.00427495
0.000249497
-0.00224336
0.0585583
0.059321
0.0915192
-0.0402701
0.118606
-0.0778922
0.13453
-0.0625648
0.143216
-0.0352881
0.146877
-0.0116679
0.148029
0.00101078
0.148847
0.00335155
0.150154
0.00155106
-0.00152624
0.0665223
0.0257546
0.104825
-0.0785726
0.135746
-0.108813
0.155315
-0.0821337
0.165276
-0.0452497
0.168996
-0.0153879
0.169799
0.000208656
0.170237
0.00291356
0.171226
0.000561792
-0.00290027
0.0753489
-0.0159823
0.117589
-0.120813
0.151392
-0.142616
0.174734
-0.105476
0.186757
-0.0572731
0.190791
-0.0194218
0.191258
-0.000258159
0.191237
0.00293448
0.191778
2.07449e-05
-0.00374341
0.0843545
-0.0640725
0.129353
-0.165811
0.1653
-0.178563
0.191942
-0.132117
0.206883
-0.0722148
0.211821
-0.02436
0.212116
-0.000552978
0.211641
0.00341008
0.211668
-6.35912e-06
-0.00398169
0.0927803
-0.116555
0.139793
-0.212824
0.177389
-0.216159
0.206551
-0.16128
0.224775
-0.0904386
0.231529
-0.0311142
0.232023
-0.00104615
0.231207
0.00422602
0.230731
0.000469139
-0.00360053
0.0999779
-0.171939
0.148648
-0.261494
0.187578
-0.255089
0.218498
-0.192199
0.239719
-0.11166
0.249244
-0.0406394
0.250565
-0.00236702
0.249654
0.00513685
0.248775
0.00134859
-0.00265052
0.10561
-0.229447
0.15581
-0.311695
0.195833
-0.295112
0.227915
-0.224281
0.25139
-0.135135
0.264189
-0.0534381
0.267231
-0.00540902
0.266651
0.00571713
0.265563
0.00243679
-0.00124483
0.109658
-0.28894
0.161321
-0.363358
0.202206
-0.335998
0.235018
-0.257093
0.25987
-0.159987
0.275684
-0.069252
0.281341
-0.0110658
0.281729
0.00532865
0.280785
0.00338142
0.000397496
0.112423
0.165346
0.206848
0.240045
0.265557
0.283428
0.292071
0.294297
0.293946
0.0131986
0.0060783
-0.0192769
0.01098
0.00221857
0.0114911
-0.000511097
0.012894
-0.00140292
0.0135993
-0.000705322
0.0137257
-0.00012638
0.0135463
0.000179448
0.0133065
0.000239763
0.0130965
0.000210091
0.000156636
0.0372436
0.0232166
-0.0543819
0.0314709
0.0079913
0.0339503
-0.00299055
0.0379549
-0.00540751
0.0401007
-0.00285108
0.04051
-0.000535673
0.04
0.000689416
0.0393093
0.000930457
0.0387147
0.000804694
0.000510208
0.0579579
0.0480982
-0.0828395
0.0508474
0.0151018
0.0558007
-0.00794386
0.0623007
-0.0119075
0.065925
-0.00647534
0.0666888
-0.00129943
0.0659019
0.0014763
0.064802
0.00203043
0.0638748
0.00173191
0.00100875
0.0738984
0.0754026
-0.101203
0.0680361
0.0209641
0.0763187
-0.0162265
0.0855496
-0.0211384
0.0908087
-0.0117345
0.0920589
-0.0025496
0.0910804
0.00245489
0.0896353
0.00347551
0.0884514
0.00291577
0.00160337
0.0813963
-0.104231
0.0838484
0.0958985
0.107821
0.114769
0.116597
0.115511
0.113799
0.11244
0.0027334
-0.000172908
-0.0025605
0.00326422
-0.000530817
0.00417636
-0.000912138
0.00548729
-0.00131093
0.00718354
-0.00169625
0.00922794
-0.0020444
0.0115844
-0.00235644
0.0141726
-0.00258821
0.0168576
-0.00268504
-0.0024193
0.00778669
-0.000645635
-0.00731396
0.00923344
-0.00197757
0.0117126
-0.00339127
0.0152686
-0.00486699
0.0198825
-0.00631013
0.0254801
-0.00764199
0.031962
-0.00883836
0.039153
-0.00977923
0.046764
-0.010296
-0.0100372
0.0124769
-0.00138363
-0.0117389
0.0147264
-0.00422706
0.0185589
-0.0072238
0.0240224
-0.0103305
0.0310765
-0.0133642
0.0395828
-0.0161483
0.0493241
-0.0185797
0.0600468
-0.0205019
0.0714101
-0.0216593
-0.0214667
0.0168059
-0.00234749
-0.0158421
0.0197299
-0.00715104
0.0246727
-0.0121666
0.0316487
-0.0173064
0.0405466
-0.0222622
0.0511021
-0.0267037
0.0629325
-0.0304101
0.0756885
-0.0332579
0.0888541
-0.034825
-0.0338154
0.0207912
-0.0196317
0.0242904
0.0301515
0.0383145
0.0485367
0.060339
0.0730379
0.0855978
0.0959846
0.0314819
-0.0312862
0.0370977
-0.0372934
0.025616
-0.0308831
0.036749
0.0199525
-0.0300505
0.0357141
0.0147005
-0.028655
0.0339069
0.0100743
-0.0264481
0.0310744
0.00621298
-0.0227658
0.0266271
0.00312002
-0.0176437
0.0207367
0.0010222
-0.013619
0.0157168
-8.36791e-05
-0.0101566
0.0112624
-0.00563466
0.00555098
0.0295187
-0.0254163
-0.0353886
0.0237967
-0.0251611
0.0183007
-0.0245546
0.0132078
-0.0235621
0.00876969
-0.02201
0.00536866
-0.0193647
0.00303208
-0.0153071
0.00140523
-0.0119922
0.000303164
-0.00905448
-0.00533149
0.0295001
-0.0194224
-0.0354939
0.0236906
-0.0193516
0.0181677
-0.0190317
0.0130481
-0.0184424
0.00853375
-0.0174956
0.0050747
-0.0159057
0.0030253
-0.0132577
0.00165877
-0.0106256
0.000590018
-0.00798572
-0.00474147
0.0313997
-0.0131574
-0.0376646
0.0253695
-0.0133214
0.0196572
-0.0133194
0.0143495
-0.0131347
0.00958539
-0.0127315
0.00568836
-0.0120086
0.00322449
-0.0107938
0.0017785
-0.00917962
0.00073582
-0.00694304
-0.00400565
0.0349403
-0.00650863
-0.0415891
0.0285736
-0.00695471
0.0225606
-0.00730643
0.016968
-0.00754212
0.0118872
-0.00765066
0.00750141
-0.00762282
0.00415571
-0.00744812
0.00200545
-0.00702935
0.00080258
-0.00574017
-0.00320306
0.0391684
0.000580154
-0.0462572
0.0324049
-0.000191241
0.0260386
-0.000940086
0.0201428
-0.00164628
0.0147778
-0.00228566
0.010007
-0.00285199
0.00591402
-0.00335518
0.00267082
-0.00378615
0.000719481
-0.00378881
-0.00248358
0.0429051
0.00806627
-0.0503912
0.0357592
0.00695464
0.0290077
0.00581145
0.0227487
0.00461271
0.0170808
0.00338219
0.0120423
0.00218652
0.00761795
0.00106921
0.00381894
1.28723e-05
0.000969168
-0.000939024
-0.0015144
0.045109
0.0158316
-0.0528743
0.0377178
0.0143458
0.0306999
0.0128293
0.0240946
0.011218
0.0180441
0.00943272
0.0127277
0.00750297
0.00821883
0.00557808
0.00449759
0.00373411
0.00160904
0.00194954
9.46508e-05
0.0452519
0.0238891
-0.0533094
0.0376743
0.0219234
0.0305791
0.0199245
0.0238833
0.0179138
0.0175629
0.0157531
0.0118146
0.0132513
0.00700418
0.0103885
0.0034019
0.00733641
0.00114147
0.00420997
0.00123612
0.0442462
-0.0527166
0.0363315