/*--------------------------------*- C++ -*----------------------------------*\
  =========                 |
  \\      /  F ield         | OpenFOAM: The Open Source CFD Toolbox
   \\    /   O peration     | Website:  https://openfoam.org
    \\  /    A nd           | Version:  13
     \\/     M anipulation  |
\*---------------------------------------------------------------------------*/
FoamFile
{
    format      ascii;
    class       volVectorField;
    location    "0.385";
    object      U;
}
// * * * * * * * * * * * * * * * * * * * * * * * * * * * * * * * * * * * * * //

dimensions      [0 1 -1 0 0 0 0];

internalField   nonuniform List<vector> 
1800
(
(0.0978038 -0.0883315 -4.49403e-20)
(0.2869 -0.241955 -3.41493e-20)
(0.473974 -0.379046 -4.85107e-19)
(0.657688 -0.500153 1.91501e-19)
(0.836601 -0.607155 7.43702e-20)
(1.00989 -0.701346 -3.90352e-20)
(1.17712 -0.783418 5.54481e-20)
(1.33789 -0.853603 1.96782e-19)
(1.49153 -0.912854 5.91884e-19)
(1.63345 -0.966755 8.09619e-19)
(0.119064 -0.0915051 -7.91329e-20)
(0.344296 -0.247713 -7.70644e-19)
(0.563286 -0.384752 3.78175e-21)
(0.775364 -0.504234 1.25841e-19)
(0.9795 -0.608913 -1.26318e-19)
(1.1752 -0.700675 7.67007e-20)
(1.36229 -0.780754 -2.81121e-19)
(1.54074 -0.850046 -5.00751e-20)
(1.71006 -0.910629 -6.92924e-19)
(1.86779 -0.966941 6.29295e-19)
(0.141653 -0.092325 4.88246e-20)
(0.403685 -0.247735 2.09296e-19)
(0.65376 -0.38212 5.43394e-19)
(0.892181 -0.497905 -1.90296e-19)
(1.11865 -0.59838 -1.43039e-19)
(1.33321 -0.685801 7.56477e-20)
(1.53604 -0.761684 9.83501e-20)
(1.72741 -0.827262 1.94103e-19)
(1.90718 -0.88475 2.73389e-21)
(2.07417 -0.937797 1.50994e-19)
(0.163909 -0.0897225 -4.57205e-20)
(0.461704 -0.239473 -2.04399e-19)
(0.741434 -0.367622 -1.81271e-19)
(1.00452 -0.476978 -1.4232e-19)
(1.25162 -0.57102 1.81342e-19)
(1.48351 -0.65212 -5.70983e-20)
(1.70092 -0.721892 -4.31292e-21)
(1.90452 -0.781599 3.00606e-21)
(2.09453 -0.833331 -1.60316e-19)
(2.27023 -0.880308 -1.06074e-19)
(0.18466 -0.0833578 -1.14053e-19)
(0.5159 -0.22181 8.76342e-20)
(0.8233 -0.339434 1.79859e-19)
(1.10932 -0.439065 2.4333e-19)
(1.37562 -0.524071 -2.85066e-19)
(1.62371 -0.596774 -3.58086e-21)
(1.85494 -0.658759 4.25062e-19)
(2.07042 -0.711248 -1.85046e-19)
(2.27082 -0.756141 -1.23997e-19)
(2.45577 -0.796365 -5.3662e-20)
(0.203193 -0.0735012 1.73603e-19)
(0.564478 -0.195202 1.02991e-18)
(0.896801 -0.298077 1.43261e-19)
(1.20352 -0.384737 -5.03182e-19)
(1.4872 -0.458228 -1.75526e-19)
(1.75004 -0.520667 6.37765e-19)
(1.99391 -0.57352 -1.45419e-19)
(2.22036 -0.617891 -4.31681e-19)
(2.43047 -0.65543 -3.16558e-19)
(2.6242 -0.688722 2.61598e-19)
(0.218902 -0.0605922 1.16346e-19)
(0.605753 -0.160703 -7.47634e-19)
(0.959325 -0.245033 -1.08568e-18)
(1.28372 -0.3158 3.83818e-19)
(1.58224 -0.375565 4.49993e-19)
(1.85769 -0.426127 -9.02204e-22)
(2.1124 -0.468737 -6.39772e-19)
(2.3483 -0.504319 2.19325e-19)
(2.56684 -0.534203 -3.64294e-19)
(2.76829 -0.560556 -3.11109e-19)
(0.231239 -0.045173 -3.42504e-19)
(0.638209 -0.119686 -6.92634e-19)
(1.0085 -0.182296 1.21228e-18)
(1.34679 -0.234701 5.98731e-19)
(1.65695 -0.278853 -2.69782e-19)
(1.94226 -0.316135 -2.11511e-19)
(2.20545 -0.347513 0)
(2.44877 -0.373685 1.16826e-19)
(2.674 -0.395615 -2.95853e-19)
(2.88173 -0.41496 -7.7495e-20)
(0.23977 -0.0278758 -2.04475e-19)
(0.660663 -0.0737566 5.62425e-19)
(1.0425 -0.112199 1.71031e-19)
(1.39033 -0.14429 -5.12529e-19)
(1.70843 -0.171276 -7.84237e-19)
(2.00039 -0.194052 3.66236e-20)
(2.26926 -0.213243 1.67122e-19)
(2.51755 -0.22929 -5.46871e-19)
(2.74734 -0.242779 -2.89755e-19)
(2.95956 -0.254771 -5.63583e-19)
(0.244264 -0.00940255 4.51432e-19)
(0.672464 -0.0247041 3.44176e-19)
(1.06032 -0.0373613 -9.38617e-20)
(1.41305 -0.0477877 -1.29888e-20)
(1.73517 -0.0564608 -3.87525e-19)
(2.03044 -0.063721 -8.57367e-20)
(2.30208 -0.0698072 -2.90587e-19)
(2.55278 -0.0748868 6.46588e-19)
(2.78483 -0.0791669 1.71006e-19)
(2.99948 -0.0830071 2.23762e-21)
(-0.00235777 -0.0218792 -2.7928e-20)
(0.00877751 -0.0693111 -7.47295e-20)
(0.0250876 -0.119907 -7.2063e-21)
(0.0494351 -0.170173 -3.47263e-20)
(0.0777658 -0.215447 -1.26579e-20)
(0.106676 -0.253676 -3.89198e-19)
(0.135782 -0.28769 -1.89619e-20)
(0.166595 -0.32098 1.19838e-19)
(0.199409 -0.354405 1.10997e-20)
(0.233288 -0.386684 -3.6479e-20)
(0.000825223 -0.02481 -9.78416e-20)
(0.0150099 -0.0851728 -2.06586e-19)
(0.0393191 -0.159695 -5.93827e-20)
(0.0692519 -0.224302 -1.10796e-19)
(0.0996048 -0.274631 -9.91889e-20)
(0.130715 -0.317143 -2.8217e-19)
(0.164791 -0.358098 2.01807e-19)
(0.20244 -0.399371 1.66521e-19)
(0.241932 -0.439165 -2.53854e-19)
(0.281468 -0.475474 8.03572e-20)
(0.00547971 -0.0316028 -8.54711e-20)
(0.0287936 -0.107469 -8.51205e-19)
(0.062761 -0.195635 -1.25599e-19)
(0.0974277 -0.268335 9.55671e-20)
(0.131944 -0.326603 6.81265e-20)
(0.16988 -0.379622 -4.58863e-19)
(0.213171 -0.431498 3.63078e-20)
(0.259351 -0.48084 3.659e-19)
(0.305735 -0.525222 -3.8423e-19)
(0.351736 -0.564564 -2.57425e-19)
(0.011365 -0.0410803 -1.92123e-21)
(0.0466212 -0.130896 1.87391e-19)
(0.0895723 -0.225072 1.78132e-21)
(0.133061 -0.306669 -1.16134e-20)
(0.177868 -0.377462 -3.00161e-20)
(0.22736 -0.443331 9.12641e-20)
(0.2812 -0.50494 7.53095e-20)
(0.335794 -0.560102 -1.36501e-19)
(0.389912 -0.608518 9.23436e-21)
(0.444123 -0.651026 -1.04353e-20)
(0.0185099 -0.0508291 0)
(0.0672303 -0.152438 5.37832e-21)
(0.121898 -0.253513 -5.03096e-19)
(0.178677 -0.345276 5.05408e-20)
(0.237829 -0.428307 -1.39369e-20)
(0.300547 -0.504707 9.96069e-21)
(0.365342 -0.573873 -2.65294e-20)
(0.429865 -0.634836 -7.88266e-21)
(0.494036 -0.688163 0)
(0.558249 -0.734103 -2.05937e-20)
(0.0273299 -0.0596822 3.15088e-20)
(0.0918915 -0.172869 -1.52309e-19)
(0.161745 -0.282474 -4.45657e-20)
(0.23461 -0.383785 -5.86994e-20)
(0.309726 -0.476586 4.9861e-20)
(0.386726 -0.561282 2.75122e-21)
(0.46423 -0.637353 9.46219e-20)
(0.540934 -0.704506 -2.17584e-20)
(0.616912 -0.762923 -6.98151e-19)
(0.692164 -0.812054 -1.01201e-20)
(0.0379801 -0.0676226 7.29803e-22)
(0.121238 -0.192191 5.70323e-20)
(0.209152 -0.3106 -7.91146e-20)
(0.299909 -0.420122 -1.67848e-20)
(0.392114 -0.520569 -7.28183e-20)
(0.484746 -0.611965 -1.11455e-20)
(0.576661 -0.694089 8.14232e-21)
(0.666894 -0.76683 -2.13851e-19)
(0.755472 -0.829873 3.84649e-19)
(0.842256 -0.881859 9.72941e-19)
(0.0503662 -0.0746113 1.52699e-20)
(0.155132 -0.209621 -1.42641e-19)
(0.263456 -0.33596 -2.14408e-19)
(0.373655 -0.452082 8.92335e-20)
(0.484077 -0.558204 -6.43138e-20)
(0.593507 -0.654511 1.00218e-19)
(0.700893 -0.741116 1.9882e-19)
(0.805344 -0.818076 -1.10458e-19)
(0.906942 -0.884823 -3.06605e-19)
(1.0056 -0.939176 7.26336e-19)
(0.0642939 -0.0803658 -2.63684e-20)
(0.193288 -0.224033 -5.78296e-19)
(0.324293 -0.356559 5.24642e-19)
(0.455671 -0.477214 3.37798e-19)
(0.585716 -0.586706 -8.60924e-20)
(0.713189 -0.68559 3.0955e-19)
(0.83708 -0.774325 -1.60071e-19)
(0.956499 -0.853301 -7.75353e-19)
(1.07165 -0.921826 -4.04242e-19)
(1.18257 -0.977017 4.54349e-19)
(0.0795483 -0.0846699 -7.98583e-20)
(0.235849 -0.234422 -5.44339e-19)
(0.392391 -0.370525 -8.13359e-21)
(0.547534 -0.492785 6.8704e-20)
(0.699578 -0.602437 3.37971e-19)
(0.847364 -0.700386 -1.85627e-19)
(0.989972 -0.787365 -1.69934e-19)
(1.12648 -0.863716 1.89463e-19)
(1.25673 -0.928497 -3.52077e-19)
(1.37998 -0.980161 -5.85226e-19)
(0.4032 -0.530462 1.01074e-18)
(0.684952 -0.616194 -3.01546e-19)
(0.91315 -0.554681 -1.58305e-19)
(1.08518 -0.427821 2.94123e-19)
(1.2343 -0.277174 -2.43345e-19)
(1.34999 -0.135848 -2.92204e-19)
(1.43659 -0.0368015 -2.45359e-19)
(1.48755 -0.000704205 -3.28558e-20)
(1.51179 0.00248268 1.42734e-19)
(1.53318 0.00140611 3.55168e-20)
(0.46935 -0.618341 9.8402e-19)
(0.74201 -0.691543 8.26602e-20)
(0.96642 -0.614407 1.07901e-20)
(1.12356 -0.476292 -2.42947e-19)
(1.26094 -0.316053 -8.10568e-19)
(1.36833 -0.165676 0)
(1.45111 -0.056532 -2.25873e-19)
(1.50093 -0.0128055 5.97917e-20)
(1.52724 -0.00538984 4.74956e-21)
(1.55486 -0.00288404 -6.72652e-20)
(0.556717 -0.704084 -1.00027e-18)
(0.811513 -0.764529 -7.33719e-20)
(1.02616 -0.672151 1.62305e-19)
(1.16605 -0.522719 -5.25672e-20)
(1.2882 -0.353609 -3.46009e-20)
(1.38556 -0.194486 6.52802e-20)
(1.46017 -0.0754834 0)
(1.50332 -0.0236496 0)
(1.52828 -0.0126162 -7.18136e-20)
(1.55419 -0.00671288 0)
(0.66609 -0.785965 -2.24196e-19)
(0.896327 -0.833197 3.99056e-19)
(1.09279 -0.726866 2.69125e-20)
(1.21311 -0.566241 0)
(1.31656 -0.389203 6.6691e-19)
(1.40226 -0.221594 -1.6712e-19)
(1.46691 -0.0928287 0)
(1.50406 -0.0338701 1.58449e-19)
(1.52846 -0.0195038 0)
(1.55269 -0.0101956 2.22382e-20)
(0.795956 -0.862806 -1.49333e-19)
(0.998217 -0.895536 4.46473e-19)
(1.167 -0.777362 -1.48291e-20)
(1.26485 -0.606073 0)
(1.34634 -0.422232 1.87104e-19)
(1.41827 -0.246751 3.07382e-19)
(1.47267 -0.108834 4.94752e-20)
(1.50488 -0.0437724 7.51214e-21)
(1.52902 -0.0260959 -3.54245e-20)
(1.55202 -0.0134567 3.05698e-20)
(0.942304 -0.933831 -1.3193e-18)
(1.11688 -0.950156 -9.28591e-19)
(1.24952 -0.822311 4.85091e-21)
(1.32111 -0.641447 5.53727e-19)
(1.3777 -0.452029 -2.97326e-19)
(1.43324 -0.269818 1.55335e-19)
(1.47778 -0.123767 2.5972e-19)
(1.50607 -0.0534432 -2.01733e-19)
(1.53005 -0.0324321 -1.89652e-21)
(1.55222 -0.0165156 3.64102e-21)
(1.10004 -0.998655 -2.57234e-19)
(1.25024 -0.996845 2.82844e-19)
(1.34066 -0.860546 4.07257e-21)
(1.38173 -0.67158 -1.68022e-20)
(1.41075 -0.477827 -5.57388e-19)
(1.44686 -0.290544 5.28077e-20)
(1.48208 -0.137767 -9.67685e-20)
(1.50767 -0.0629844 -3.18384e-20)
(1.53155 -0.0385619 1.08477e-20)
(1.55327 -0.0194815 -2.12865e-20)
(1.26419 -1.05617 -1.20286e-18)
(1.39483 -1.0362 2.0743e-19)
(1.43947 -0.891444 0)
(1.44589 -0.695942 3.21816e-20)
(1.44498 -0.499004 4.84619e-19)
(1.45861 -0.308671 -7.58443e-22)
(1.48488 -0.150999 -2.8575e-19)
(1.5095 -0.0725321 4.97295e-20)
(1.53346 -0.0445557 -3.25785e-23)
(1.55517 -0.0224302 1.13902e-20)
(1.43183 -1.10295 3.39125e-18)
(1.54802 -1.06913 2.49079e-19)
(1.54578 -0.915705 4.5776e-19)
(1.5139 -0.714874 -3.05912e-20)
(1.48064 -0.51555 -3.30507e-20)
(1.46847 -0.324225 -3.883e-19)
(1.4855 -0.163901 7.1829e-20)
(1.51085 -0.0820421 3.59379e-21)
(1.53537 -0.0503812 -2.9561e-20)
(1.55617 -0.0254386 -6.12715e-20)
(1.59906 -1.12775 -2.99949e-18)
(1.70175 -1.09451 1.27599e-18)
(1.65401 -0.93598 -2.24688e-19)
(1.58194 -0.731835 -7.63481e-19)
(1.51509 -0.530918 -6.31623e-19)
(1.47469 -0.34048 -2.42488e-19)
(1.48139 -0.178643 -4.87895e-20)
(1.50936 -0.0928922 0)
(1.52997 -0.0554364 1.46511e-20)
(1.53158 -0.0271947 4.5702e-21)
(1.88799 -1.1698 -6.72392e-18)
(1.92723 -1.10412 -1.69897e-18)
(1.80483 -0.930275 -5.43309e-20)
(1.67345 -0.723644 1.12719e-19)
(1.56068 -0.526794 1.71964e-19)
(1.48417 -0.347 -1.14822e-19)
(1.4764 -0.190356 -2.53754e-20)
(1.48423 -0.098304 3.03101e-20)
(1.4699 -0.053317 -3.17924e-20)
(1.45284 -0.0269584 -1.3793e-20)
(2.28912 -1.13437 4.94773e-19)
(2.17872 -1.0557 -2.60361e-19)
(1.94307 -0.863623 5.63163e-19)
(1.73738 -0.661613 -1.05696e-19)
(1.56656 -0.47575 1.38963e-19)
(1.44584 -0.315702 4.57268e-22)
(1.3966 -0.180765 7.34647e-20)
(1.36788 -0.0924256 -2.49631e-20)
(1.3503 -0.045569 1.38994e-19)
(1.33629 -0.0231074 7.17032e-20)
(2.61054 -1.0432 2.27056e-18)
(2.35243 -0.948134 3.26497e-19)
(2.00977 -0.758345 -1.19182e-19)
(1.73626 -0.570626 1.07475e-36)
(1.51286 -0.406337 -2.60766e-20)
(1.35217 -0.273064 1.44268e-33)
(1.27092 -0.161799 -1.28757e-20)
(1.23954 -0.0818939 -1.63588e-33)
(1.22078 -0.0393222 7.79651e-21)
(1.20539 -0.0202906 -2.43378e-20)
(2.7873 -0.893716 3.89699e-33)
(2.37036 -0.795159 2.96288e-18)
(1.97543 -0.629617 1.82265e-18)
(1.6568 -0.467625 0)
(1.41261 -0.331708 8.64557e-19)
(1.23891 -0.224283 4.44745e-19)
(1.14102 -0.137215 1.32931e-19)
(1.09869 -0.0711405 -2.62078e-33)
(1.07824 -0.0331259 -5.79409e-20)
(1.06313 -0.0170677 2.00111e-20)
(2.76397 -0.705722 3.84485e-18)
(2.24656 -0.629575 -1.47009e-19)
(1.84779 -0.490481 0)
(1.51765 -0.360674 0)
(1.27539 -0.253681 0)
(1.10347 -0.172048 0)
(0.999198 -0.107895 -1.17123e-20)
(0.949931 -0.05788 -3.84434e-33)
(0.927839 -0.0267635 7.75353e-21)
(0.912711 -0.0138155 2.15558e-33)
(2.55135 -0.516957 3.26808e-18)
(2.02041 -0.462793 0)
(1.63924 -0.353411 0)
(1.32793 -0.256255 0)
(1.10352 -0.178499 0)
(0.94583 -0.121456 0)
(0.845933 -0.0781452 3.23152e-20)
(0.79402 -0.0435228 -4.97537e-20)
(0.770729 -0.0201899 8.22648e-21)
(0.755813 -0.0104986 4.71549e-20)
(2.1902 -0.34269 0)
(1.7028 -0.303478 1.1012e-18)
(1.36162 -0.227527 1.0953e-18)
(1.09192 -0.161794 0)
(0.899908 -0.111658 6.80242e-19)
(0.766685 -0.0763009 4.16794e-19)
(0.679778 -0.0503301 2.39574e-19)
(0.6309 -0.0291441 5.78758e-20)
(0.60806 -0.0136464 1.40479e-20)
(0.593901 -0.00724615 -2.45654e-21)
(1.70289 -0.191131 -6.73779e-19)
(1.30026 -0.165585 -2.73995e-19)
(1.02521 -0.12173 1.7543e-19)
(0.815368 -0.084374 -2.13074e-34)
(0.668529 -0.0577407 -7.71363e-20)
(0.567904 -0.0398217 3.74465e-33)
(0.500799 -0.0270547 4.9876e-20)
(0.460391 -0.0163549 9.45806e-20)
(0.44041 -0.00771637 9.12195e-21)
(0.428033 -0.00426253 -1.04325e-20)
(1.10089 -0.0758197 3.4076e-18)
(0.823184 -0.0626769 -1.86169e-19)
(0.640648 -0.0442864 -5.88293e-19)
(0.506254 -0.0289781 0)
(0.414204 -0.0194421 -6.39717e-19)
(0.351645 -0.013674 -4.2915e-19)
(0.309019 -0.00977439 -1.88413e-19)
(0.281842 -0.00635201 -1.1919e-19)
(0.267638 -0.00308832 1.13582e-19)
(0.258754 -0.00183841 -4.65452e-21)
(0.397352 -0.00331883 0)
(0.287868 0.00159248 0)
(0.220904 0.00409096 0)
(0.173571 0.00622679 0)
(0.142491 0.00580901 0)
(0.121574 0.00462932 0)
(0.106841 0.00338575 5.74115e-20)
(0.0967496 0.00215185 -2.06778e-34)
(0.0910142 0.00141328 1.14107e-20)
(0.0871976 0.000493448 1.44132e-20)
(3.36713 -0.0863061 5.39185e-19)
(3.32644 -0.265076 -8.41851e-20)
(3.24737 -0.43064 8.52048e-19)
(3.13239 -0.582134 -6.04933e-19)
(2.98634 -0.71809 6.66259e-19)
(2.81522 -0.836331 2.74953e-19)
(2.62657 -0.933985 -1.92855e-18)
(2.42945 -1.00774 -7.70768e-20)
(2.2246 -1.05353 0)
(1.98476 -1.06636 4.26944e-19)
(3.86193 -0.0750518 7.07339e-18)
(3.7986 -0.234195 1.95632e-18)
(3.70428 -0.387284 -4.86674e-18)
(3.58425 -0.531955 -4.48915e-19)
(3.44237 -0.665844 3.55801e-18)
(3.28182 -0.787249 1.92275e-18)
(3.10645 -0.894967 -5.16653e-18)
(2.92197 -0.98756 -1.95124e-18)
(2.72749 -1.06319 2.20224e-18)
(2.49224 -1.12025 8.52034e-19)
(3.83312 -0.0532916 -1.26231e-19)
(3.82029 -0.171549 4.404e-18)
(3.78552 -0.29974 -1.08856e-18)
(3.7244 -0.430893 -3.44621e-18)
(3.63624 -0.558695 -6.80118e-18)
(3.52377 -0.67875 1.02782e-17)
(3.39121 -0.788715 4.18029e-18)
(3.24352 -0.887871 -3.91085e-18)
(3.0816 -0.978554 -2.90199e-18)
(2.88719 -1.06277 -3.42383e-18)
(3.62869 -0.0472744 -4.8394e-18)
(3.61964 -0.144919 -4.35356e-18)
(3.59967 -0.243725 5.47248e-18)
(3.5674 -0.343072 1.91209e-18)
(3.52247 -0.442346 -8.97283e-18)
(3.46426 -0.540763 4.92369e-19)
(3.39195 -0.636986 3.88719e-18)
(3.30527 -0.730352 -1.05434e-18)
(3.20516 -0.822963 1.27715e-18)
(3.08323 -0.914644 2.81682e-19)
(3.34407 -0.0365683 -9.15981e-19)
(3.33902 -0.111648 3.00409e-18)
(3.32713 -0.18867 1.61952e-18)
(3.30747 -0.267166 -1.89387e-18)
(3.2799 -0.346062 -2.00146e-18)
(3.2447 -0.424123 -2.43488e-18)
(3.20211 -0.500308 3.7985e-19)
(3.15186 -0.57445 1.38713e-19)
(3.09563 -0.647692 -2.14037e-18)
(3.03306 -0.721215 -2.03521e-18)
(2.96258 -0.0265458 -1.82248e-18)
(2.95982 -0.0798823 -5.87248e-20)
(2.95332 -0.134594 -1.63751e-18)
(2.94242 -0.1909 3.12157e-19)
(2.92677 -0.248548 5.36778e-18)
(2.90632 -0.306927 -3.66833e-19)
(2.88095 -0.36511 4.43539e-20)
(2.85028 -0.42205 -2.60871e-18)
(2.81651 -0.476864 -3.49613e-18)
(2.7861 -0.52983 3.72389e-19)
(2.48713 -0.0175043 -2.8931e-20)
(2.48578 -0.0519301 -8.14315e-19)
(2.4826 -0.0872451 -2.61484e-18)
(2.47708 -0.123769 -3.431e-18)
(2.46881 -0.161532 2.49651e-18)
(2.45746 -0.200266 1.50221e-18)
(2.44263 -0.239351 -1.385e-18)
(2.42372 -0.277788 1.62442e-18)
(2.40278 -0.314477 -4.29819e-19)
(2.38958 -0.349531 -9.63829e-19)
(1.91464 -0.00968438 7.72454e-19)
(1.91408 -0.0282949 -8.31785e-19)
(1.91278 -0.047438 -3.2765e-20)
(1.91032 -0.0673583 -3.47317e-20)
(1.90624 -0.0881298 -7.2747e-20)
(1.90013 -0.109614 -2.33189e-18)
(1.89151 -0.131404 -6.78656e-19)
(1.87979 -0.152781 2.62597e-18)
(1.86665 -0.172972 -6.03438e-19)
(1.86193 -0.192203 -1.35099e-18)
(1.23988 -0.00373591 -1.6428e-18)
(1.23967 -0.0106946 -8.48897e-19)
(1.23923 -0.0179007 2.33919e-18)
(1.23823 -0.0254785 -8.89763e-19)
(1.23625 -0.0334755 -6.74118e-19)
(1.2329 -0.0418319 1.35201e-18)
(1.22775 -0.0503503 -1.29586e-18)
(1.22038 -0.0586655 1.28694e-18)
(1.21202 -0.066342 -1.21024e-18)
(1.21008 -0.0735071 -4.24789e-18)
(0.454915 -0.000257823 6.63079e-19)
(0.454826 -0.00070044 7.03051e-19)
(0.454691 -0.00115908 7.48179e-19)
(0.454324 -0.00164007 1.35396e-18)
(0.453495 -0.00214023 -6.7198e-19)
(0.451983 -0.00263727 -1.29959e-18)
(0.449566 -0.0030992 6.14699e-19)
(0.445991 -0.00359302 2.48361e-20)
(0.441735 -0.00439229 -4.96516e-20)
(0.440349 -0.00504565 1.1057e-19)
(1.65339 0.996915 -2.85374e-19)
(1.51214 0.94158 1.80157e-20)
(1.35869 0.880539 -2.27499e-19)
(1.19761 0.808292 1.76551e-19)
(1.02953 0.723882 -1.92845e-19)
(0.854802 0.62702 -1.0124e-19)
(0.673753 0.516915 2.32083e-19)
(0.487039 0.39214 -3.0518e-19)
(0.295898 0.250646 3.09886e-19)
(0.101435 0.0916482 2.38887e-19)
(1.88625 0.99194 0)
(1.72957 0.93455 6.38213e-19)
(1.56076 0.872632 3.30998e-19)
(1.38223 0.801761 1.63478e-19)
(1.1945 0.719822 4.32267e-19)
(0.997522 0.625869 -8.69205e-20)
(0.791361 0.518592 -7.86144e-20)
(0.576355 0.395993 8.89582e-20)
(0.353328 0.255182 -1.04536e-18)
(0.122705 0.0943601 -1.65461e-20)
(2.09094 0.958869 1.56813e-19)
(1.92516 0.904945 0)
(1.74609 0.846376 -1.00775e-19)
(1.5549 0.779494 -3.83958e-19)
(1.35168 0.702052 5.37303e-20)
(1.13609 0.612777 3.97432e-19)
(0.90779 0.510089 -6.07112e-19)
(0.666601 0.391645 -2.00866e-19)
(0.412608 0.254053 7.83667e-19)
(0.145257 0.0947396 -1.76033e-19)
(2.28478 0.898245 1.8849e-19)
(2.1104 0.850483 1.21444e-20)
(1.92127 0.797809 2.44186e-20)
(1.71809 0.736969 3.61676e-20)
(1.50057 0.665841 -2.91378e-20)
(1.26793 0.583129 2.73388e-19)
(1.01928 0.487173 -2.06918e-19)
(0.753689 0.375539 -8.55741e-19)
(0.470284 0.244686 0)
(0.167395 0.0917002 0)
(2.46793 0.811751 -1.07013e-18)
(2.28433 0.77079 -6.08342e-19)
(2.08492 0.725032 -1.20557e-19)
(1.87003 0.671507 -6.65841e-20)
(1.63891 0.60829 0)
(1.39032 0.534139 2.408e-19)
(1.12277 0.44744 2.67832e-19)
(0.834571 0.345843 2.86301e-19)
(0.523853 0.22596 -4.23833e-19)
(0.187914 0.084901 -8.12514e-20)
(2.63399 0.702054 7.65717e-19)
(2.44156 0.668038 -1.39189e-19)
(2.23244 0.629664 -2.21434e-19)
(2.00666 0.584299 0)
(1.76303 0.530279 0)
(1.49989 0.466492 0)
(1.21524 0.39147 -3.899e-20)
(0.906703 0.303097 3.70291e-19)
(0.571512 0.198354 3.79136e-19)
(0.206089 0.0746265 -3.08598e-19)
(2.7758 0.572335 -1.19306e-18)
(2.57552 0.545248 -1.48092e-18)
(2.35788 0.514524 -3.02894e-22)
(2.12262 0.477946 -1.87708e-19)
(1.8682 0.434185 -9.2889e-20)
(1.5926 0.382323 -1.78882e-19)
(1.29335 0.321131 4.59144e-19)
(0.967508 0.248842 2.14863e-19)
(0.611597 0.162971 5.40079e-19)
(0.22132 0.0613419 2.02874e-19)
(2.88709 0.425739 -1.15691e-18)
(2.68029 0.405629 8.4711e-20)
(2.45578 0.382819 1.64519e-19)
(2.21299 0.355613 1.68305e-20)
(1.95007 0.323055 -3.14442e-19)
(1.66468 0.284473 -1.74248e-19)
(1.354 0.238942 -6.21259e-19)
(1.01466 0.185145 1.18533e-19)
(0.642618 0.12124 5.14854e-20)
(0.233071 0.0456138 -6.26804e-21)
(2.96282 0.265185 1.01321e-19)
(2.75123 0.252354 3.97025e-19)
(2.52192 0.237906 -3.303e-19)
(2.27397 0.220743 3.63057e-19)
(2.00526 0.200301 3.7257e-19)
(1.71325 0.17618 4.91927e-19)
(1.39483 0.147813 -6.35776e-19)
(1.04635 0.114392 -3.24432e-19)
(0.663425 0.0748116 -4.58499e-20)
(0.240922 0.0280958 -3.27016e-19)
(3.00055 0.0935797 5.81797e-19)
(2.78615 0.0887887 -1.86132e-19)
(2.55428 0.0834474 4.79583e-19)
(2.3037 0.0771536 -3.10711e-19)
(2.03211 0.0697311 2.66482e-19)
(1.73682 0.0610647 6.05453e-19)
(1.41459 0.0509807 3.78905e-19)
(1.06163 0.0392362 3.09367e-19)
(0.673409 0.0255074 2.65875e-19)
(0.244659 0.00950747 5.43642e-19)
(0.238892 0.450135 -4.66089e-19)
(0.203378 0.416498 -1.83195e-19)
(0.16794 0.379582 1.3789e-19)
(0.134559 0.342126 -4.20587e-19)
(0.104921 0.306143 -1.20382e-19)
(0.078011 0.268886 6.91124e-19)
(0.0515942 0.222452 3.36188e-19)
(0.0257368 0.157854 -1.60982e-19)
(0.00700534 0.0793134 1.11162e-19)
(-0.00116052 0.0223552 -6.03558e-20)
(0.288414 0.542247 4.08715e-19)
(0.248516 0.505518 4.54332e-19)
(0.207983 0.463562 -1.30248e-20)
(0.167727 0.416739 -1.30888e-19)
(0.131102 0.368876 -3.07802e-19)
(0.100592 0.321481 8.258e-20)
(0.073397 0.268258 2.21886e-19)
(0.0457424 0.195965 1.62576e-19)
(0.0182222 0.101288 -5.84957e-19)
(0.00273117 0.0286855 -1.22862e-19)
(0.359805 0.631085 -5.98022e-19)
(0.313907 0.591032 -4.79087e-19)
(0.268053 0.545288 2.54777e-19)
(0.221369 0.492113 1.36112e-19)
(0.175833 0.432589 -4.66386e-21)
(0.136306 0.370654 -1.38208e-19)
(0.102129 0.30464 -2.74268e-20)
(0.0683922 0.224144 -5.56304e-19)
(0.0335709 0.125484 -2.69482e-19)
(0.00757791 0.0375825 -3.91396e-20)
(0.45449 0.715963 5.01224e-19)
(0.400294 0.671899 1.64606e-19)
(0.346546 0.621027 -1.48282e-19)
(0.292341 0.562139 6.42771e-20)
(0.237804 0.494243 -3.92461e-22)
(0.186611 0.419812 1.8707e-21)
(0.140109 0.33985 -1.29853e-19)
(0.0954388 0.249675 3.81255e-19)
(0.0513727 0.147343 -4.20114e-19)
(0.0135284 0.0475416 -6.58105e-20)
(0.572204 0.79617 -2.8194e-19)
(0.508029 0.748218 -8.90341e-20)
(0.443715 0.691539 -1.41677e-20)
(0.379061 0.626004 -6.76258e-20)
(0.313765 0.550944 5.71773e-20)
(0.24967 0.467254 5.03998e-20)
(0.188367 0.376111 -2.70212e-20)
(0.129297 0.276235 -2.83389e-19)
(0.0724813 0.167375 2.18941e-19)
(0.0208762 0.0567334 8.75591e-20)
(0.709477 0.869548 6.44403e-19)
(0.634415 0.818306 3.22854e-19)
(0.558166 0.756312 2.06906e-19)
(0.480875 0.684432 4.8068e-20)
(0.402413 0.602778 1.51936e-19)
(0.323854 0.511786 7.59666e-20)
(0.246441 0.412102 1.40983e-19)
(0.170835 0.303635 5.77589e-20)
(0.0980196 0.186636 -1.67966e-20)
(0.029969 0.0649728 -1.38687e-20)
(0.861961 0.933758 -1.19592e-19)
(0.775486 0.879696 -8.30777e-19)
(0.686653 0.81323 -8.1649e-20)
(0.595679 0.73615 -4.50265e-20)
(0.502521 0.649102 -1.72136e-20)
(0.408088 0.552324 1.49802e-19)
(0.313446 0.446044 -4.39307e-20)
(0.219683 0.330245 6.54461e-20)
(0.128271 0.204989 -1.44622e-19)
(0.0408888 0.0724674 -1.11027e-21)
(1.02659 0.985181 -8.86979e-19)
(0.92835 0.928906 5.93876e-20)
(0.826557 0.85911 -2.30487e-19)
(0.721382 0.77842 -7.42223e-20)
(0.612706 0.687659 -2.64691e-20)
(0.501411 0.586821 -7.49798e-20)
(0.388494 0.475732 5.65505e-20)
(0.275142 0.354102 6.04391e-20)
(0.162969 0.221514 -9.82671e-21)
(0.053538 0.0791115 -1.04018e-19)
(1.20373 1.0173 1.23885e-19)
(1.09336 0.960413 5.25261e-19)
(0.978139 0.889302 1.57423e-21)
(0.858134 0.807239 -3.11099e-20)
(0.73308 0.715074 1.52077e-19)
(0.603847 0.612397 -3.487e-19)
(0.471376 0.498657 -2.44913e-19)
(0.336817 0.37316 3.56429e-19)
(0.201767 0.234989 1.44331e-19)
(0.0677017 0.0845317 -3.64017e-20)
(1.40041 1.015 7.41701e-19)
(1.27792 0.96197 3.24741e-19)
(1.14772 0.895078 5.5551e-20)
(1.01079 0.816194 -1.96541e-19)
(0.867217 0.726378 -1.66102e-20)
(0.717868 0.625245 4.66365e-19)
(0.563567 0.511953 -2.68562e-19)
(0.405336 0.385453 -1.84611e-19)
(0.244707 0.244316 3.35961e-19)
(0.0831169 0.0884437 -6.14041e-21)
(0.970468 0.0949619 9.3647e-21)
(1.15401 0.143235 9.85138e-22)
(1.20562 0.189661 -2.56073e-20)
(1.30793 0.170141 0)
(1.34673 0.159342 7.03271e-21)
(1.26459 0.23875 -3.21628e-20)
(1.11987 0.386978 -6.78826e-20)
(0.944272 0.542455 -4.51426e-20)
(0.709055 0.646252 -2.68223e-19)
(0.415439 0.593389 4.81533e-19)
(0.972855 0.0747663 1.86207e-19)
(1.14725 0.117205 -3.40654e-20)
(1.2001 0.161499 2.02673e-21)
(1.30163 0.15591 1.19909e-20)
(1.34732 0.161658 2.80138e-21)
(1.28434 0.270577 -7.92481e-22)
(1.1508 0.435572 8.33781e-20)
(0.990188 0.604477 0)
(0.760011 0.724733 7.15396e-19)
(0.479044 0.684329 -5.31298e-19)
(0.974259 0.0550494 -1.15124e-19)
(1.14374 0.0920841 8.58922e-21)
(1.19818 0.133956 7.65008e-20)
(1.30096 0.140453 2.06768e-20)
(1.35108 0.162541 -1.49778e-20)
(1.30509 0.299733 -3.56885e-20)
(1.1855 0.482425 4.09073e-20)
(1.04179 0.664955 4.30155e-20)
(0.822664 0.800746 -1.01249e-21)
(0.564695 0.771973 -4.54623e-19)
(0.974996 0.0357271 -8.59782e-20)
(1.14317 0.0671576 1.62639e-20)
(1.20006 0.106895 6.9641e-20)
(1.30534 0.124033 2.39748e-20)
(1.35875 0.162841 -1.97673e-20)
(1.3267 0.326772 -1.50105e-20)
(1.22397 0.527069 9.15398e-21)
(1.09931 0.72289 2.61707e-20)
(0.90026 0.872096 -5.10367e-19)
(0.674156 0.854397 -1.80447e-19)
(0.97577 0.0166915 4.12986e-20)
(1.1455 0.0418887 -4.65878e-20)
(1.20555 0.0802632 -6.04536e-20)
(1.31371 0.107135 1.60637e-20)
(1.36921 0.163438 0)
(1.3488 0.352282 0)
(1.26598 0.569018 3.94854e-20)
(1.1637 0.776983 -2.7774e-20)
(0.995437 0.936343 -1.1495e-19)
(0.805519 0.929955 -5.76109e-20)
(0.977247 -0.00247053 3.6957e-21)
(1.15067 0.0159819 5.23359e-20)
(1.21418 0.0540932 -1.84548e-19)
(1.32499 0.0904502 -6.8374e-20)
(1.38106 0.164954 -5.98999e-21)
(1.37115 0.376507 7.8106e-20)
(1.3115 0.607569 1.23404e-19)
(1.23637 0.825561 -1.79224e-20)
(1.10865 0.991674 -3.608e-20)
(0.953989 0.997941 -6.9294e-22)
(0.979479 -0.0223307 3.53551e-21)
(1.15826 -0.0107227 2.15698e-20)
(1.22527 0.0284914 -5.86331e-20)
(1.33825 0.074615 -1.28842e-19)
(1.39325 0.167612 1.38057e-20)
(1.39376 0.399262 7.99994e-21)
(1.36092 0.641737 -5.69298e-20)
(1.31846 0.866965 -1.30458e-19)
(1.23799 1.03773 -2.26906e-20)
(1.1139 1.05843 -9.8445e-19)
(0.981324 -0.0433621 1.59399e-20)
(1.16756 -0.0383986 -1.14219e-19)
(1.23803 0.00364293 1.15784e-19)
(1.35256 0.0604315 8.96225e-20)
(1.40452 0.171969 5.65339e-21)
(1.41632 0.420301 -9.87202e-20)
(1.41411 0.670573 -9.57649e-21)
(1.40943 0.900192 -8.13538e-20)
(1.37981 1.07531 1.11677e-20)
(1.27971 1.11082 2.88568e-18)
(0.980815 -0.0653558 -8.60018e-20)
(1.17782 -0.0671698 6.62253e-20)
(1.25158 -0.0203752 1.70995e-19)
(1.36727 0.0480851 -9.90408e-20)
(1.41516 0.177849 -1.70159e-19)
(1.44021 0.439478 9.24372e-21)
(1.4724 0.693938 1.49096e-19)
(1.50942 0.925852 -5.13594e-19)
(1.53112 1.10565 -2.67611e-20)
(1.44809 1.15208 -6.46938e-18)
(0.977408 -0.0884033 4.21356e-21)
(1.18876 -0.0969546 1.20986e-19)
(1.26506 -0.0435617 5.33059e-20)
(1.38117 0.0395327 -2.37444e-19)
(1.42272 0.189192 -1.96808e-19)
(1.46289 0.460468 -5.3695e-20)
(1.53169 0.71551 4.07254e-20)
(1.61234 0.947224 -2.67485e-19)
(1.68381 1.12837 -1.09462e-18)
(1.6153 1.17131 -7.95444e-18)
(0.971032 -0.12003 -1.44755e-20)
(1.20104 -0.136712 -2.79972e-20)
(1.27787 -0.0757583 -6.58258e-20)
(1.39562 0.0238823 1.02082e-19)
(1.43303 0.186315 1.66817e-19)
(1.49472 0.456726 -4.78053e-20)
(1.61253 0.70555 -1.31362e-19)
(1.75435 0.936604 -1.23827e-18)
(1.90274 1.13056 -1.60561e-18)
(1.89899 1.20772 3.28911e-18)
(0.961283 -0.158894 -4.1322e-19)
(1.21536 -0.186826 4.23843e-21)
(1.28466 -0.122182 -4.85248e-20)
(1.40118 0.00199823 2.72053e-19)
(1.42256 0.164958 3.14704e-19)
(1.50012 0.415078 -7.94183e-20)
(1.67004 0.64243 -8.53388e-20)
(1.88159 0.862542 -3.6337e-19)
(2.13956 1.06951 2.4608e-19)
(2.28416 1.15981 -3.22447e-19)
(0.949881 -0.198887 -2.76791e-20)
(1.23592 -0.237654 -5.30318e-20)
(1.28415 -0.165665 2.92888e-20)
(1.4014 -0.0215398 2.84044e-20)
(1.40759 0.150951 1.75092e-33)
(1.48218 0.361892 2.22766e-21)
(1.68553 0.5575 -2.12039e-33)
(1.95139 0.757144 1.87152e-19)
(2.30276 0.955086 -9.32805e-19)
(2.58728 1.05762 -6.29457e-19)
(0.937815 -0.244315 1.44123e-18)
(1.26314 -0.27854 -7.55995e-34)
(1.2598 -0.215248 -3.86494e-20)
(1.29094 -0.0314678 -2.20619e-19)
(1.28395 0.137124 -4.5491e-19)
(1.39884 0.295552 -9.13789e-19)
(1.62468 0.456796 -5.14716e-33)
(1.9323 0.629157 -1.73916e-18)
(2.32739 0.801092 -3.17235e-18)
(2.75423 0.902022 1.67654e-18)
(0.927412 -0.300481 0)
(1.30784 -0.322942 -1.77703e-33)
(1.12134 -0.202114 0)
(1.12212 -0.0268546 0)
(1.13359 0.111834 0)
(1.26452 0.228632 0)
(1.49366 0.353139 -8.2699e-33)
(1.8174 0.490157 0)
(2.21477 0.63355 -3.40312e-19)
(2.73563 0.711612 1.25868e-18)
(0.91624 -0.36047 1.15761e-19)
(1.25408 -0.326088 -4.62027e-19)
(0.965213 -0.170571 -5.52436e-20)
(0.945178 -0.0240355 0)
(0.966238 0.0812656 0)
(1.09425 0.162982 6.21149e-20)
(1.30915 0.252426 1.20049e-18)
(1.61746 0.35384 -1.95168e-19)
(1.99751 0.465808 -4.95345e-19)
(2.53284 0.52026 4.67125e-18)
(0.883367 -0.405249 -1.52002e-17)
(1.09258 -0.279051 1.07881e-18)
(0.795781 -0.128445 -7.28306e-20)
(0.754593 -0.0201489 -8.78863e-20)
(0.779799 0.0521148 -4.99034e-19)
(0.89259 0.103102 -7.70166e-19)
(1.07827 0.160327 -1.05826e-18)
(1.34694 0.228543 -1.39309e-18)
(1.68804 0.305935 -1.61304e-18)
(2.1801 0.344367 3.61905e-18)
(0.80892 -0.394491 -4.13555e-19)
(0.886887 -0.207354 -1.21667e-18)
(0.607005 -0.0819431 -1.2608e-19)
(0.554404 -0.0148785 -8.32529e-20)
(0.576372 0.0276268 -9.23473e-34)
(0.663797 0.0538559 9.59674e-20)
(0.806749 0.0840439 -1.49666e-32)
(1.01671 0.122697 -1.93405e-19)
(1.29266 0.16723 2.9863e-19)
(1.69934 0.192048 7.05495e-19)
(0.664204 -0.288845 3.4259e-17)
(0.618329 -0.107965 -3.14007e-18)
(0.393949 -0.0348205 -2.41274e-19)
(0.341825 -0.00728106 -1.45261e-19)
(0.356287 0.0093843 3.86337e-19)
(0.411846 0.0181395 7.79814e-19)
(0.501952 0.0289718 7.92752e-19)
(0.636967 0.0447961 4.59647e-19)
(0.820817 0.0634313 -1.89681e-19)
(1.10155 0.0762205 3.56789e-18)
(0.336819 -0.0768284 5.58787e-19)
(0.261871 -0.00231118 -6.76726e-33)
(0.144559 0.0189826 -3.05461e-19)
(0.121069 0.00320831 0)
(0.124384 -0.0022469 0)
(0.142373 -0.00534658 9.79136e-20)
(0.172654 -0.00620993 9.149e-35)
(0.220367 -0.00415351 -1.2359e-19)
(0.288134 -0.0016128 -2.82274e-19)
(0.398992 0.00331979 1.00112e-18)
(2.00185 1.09595 -1.78841e-18)
(2.2389 1.07812 -2.3046e-18)
(2.44196 1.02886 0)
(2.63699 0.952338 -7.59097e-19)
(2.82353 0.852401 -1.78544e-18)
(2.99274 0.732324 -2.24938e-18)
(3.13708 0.595003 -4.78298e-19)
(3.25056 0.442678 1.26934e-18)
(3.32826 0.276957 -3.54782e-18)
(3.36767 0.0986993 1.35667e-18)
(2.49842 1.14142 2.66936e-19)
(2.73035 1.08151 1.39627e-18)
(2.92371 1.0039 1.43805e-19)
(3.10662 0.909591 6.75342e-19)
(3.28052 0.800518 -1.10348e-18)
(3.43992 0.678232 -4.99838e-18)
(3.58094 0.543953 2.46678e-18)
(3.70047 0.399284 1.27008e-17)
(3.79429 0.246304 1.04035e-19)