/*--------------------------------*- C++ -*----------------------------------*\
  =========                 |
  \\      /  F ield         | OpenFOAM: The Open Source CFD Toolbox
   \\    /   O peration     | Website:  https://openfoam.org
    \\  /    A nd           | Version:  13
     \\/     M anipulation  |
\*---------------------------------------------------------------------------*/
FoamFile
{
    format      ascii;
    class       volScalarField;
    location    "0.705";
    object      p;
}
// * * * * * * * * * * * * * * * * * * * * * * * * * * * * * * * * * * * * * //

dimensions      [0 2 -2 0 0 0 0];

internalField   nonuniform List<scalar> 
440
(
-1.26323
-1.2227
-1.10415
-0.929076
-0.766349
-1.55514
-1.49632
-1.33573
-1.13571
-0.959439
-1.78529
-1.69979
-1.49148
-1.26499
-1.06369
-1.93128
-1.80716
-1.56181
-1.3186
-1.11264
-1.96026
-1.78616
-1.51827
-1.26657
-1.05772
0.0192358
0.0414638
0.0806405
0.13023
0.176995
-0.118052
-0.0963593
-0.0535387
0.005333
0.0675587
-0.344193
-0.322083
-0.273449
-0.19967
-0.116337
-0.628137
-0.604599
-0.545478
-0.450326
-0.34621
-0.940563
-0.9124
-0.830875
-0.699325
-0.56622
0.268045
0.118212
0.0727705
0.0414993
0.0132785
0.251498
0.108763
0.0715292
0.0409677
0.0130498
0.206888
0.0978108
0.069289
0.0401192
0.0127328
0.116128
0.0873098
0.0662043
0.038937
0.0124247
-0.0192708
0.0756468
0.0621275
0.0373084
0.0120244
-0.112856
0.0633517
0.0570372
0.0344855
0.0114036
-0.148847
0.0296763
0.0400976
0.0274869
0.00951659
-0.142212
0.0187429
0.0352362
0.0239722
0.00836793
-0.147944
-0.000974743
0.0259493
0.019357
0.00691379
-0.152784
-0.0121218
0.0202288
0.0167857
0.00610078
-0.739663
-0.791703
-0.768801
-0.717565
-0.610668
-0.506709
-0.563629
-0.57074
-0.544179
-0.488788
-0.350347
-0.401689
-0.415763
-0.396145
-0.357251
-0.259897
-0.308456
-0.327804
-0.315599
-0.284235
-0.209479
-0.264303
-0.290037
-0.285781
-0.262676
0.455459
0.329083
0.170175
-0.0142277
-0.227618
0.0825341
-0.0595141
-0.238968
-0.452465
-0.704843
-0.317181
-0.476188
-0.678269
-0.910139
-1.18321
-0.661313
-0.840052
-1.07084
-1.32483
-1.58206
-0.911093
-1.10979
-1.35861
-1.62738
-1.84912
1.58631
1.61327
1.64392
1.66708
1.67454
1.42004
1.43637
1.45149
1.45431
1.4401
1.19605
1.1961
1.18166
1.14752
1.09165
0.946195
0.924969
0.877061
0.802486
0.700717
0.697196
0.623587
0.522029
0.396156
0.239011
1.48689
1.22621
1.46633
1.35154
1.51226
1.476
1.21308
1.44808
1.32029
1.4326
1.46549
1.19853
1.42783
1.27976
1.32444
1.4555
1.183
1.40593
1.22976
1.15889
1.44659
1.16705
1.38331
1.17058
0.982084
1.43632
1.14669
1.34942
1.08506
0.787222
1.42928
1.12575
1.31939
1.01027
0.767265
1.4315
1.10985
1.29704
0.958217
0.746747
1.43041
1.09902
1.28205
0.923434
0.745227
1.4548
1.09715
1.27438
0.905029
0.743442
0.427804
0.146741
-0.175856
-0.444454
-0.630699
0.354143
0.165596
-0.0490151
-0.2481
-0.401746
0.342069
0.18822
0.0337788
-0.12161
-0.25201
0.363013
0.217032
0.0829845
-0.0497638
-0.167797
0.381091
0.241492
0.116664
-0.00475276
-0.116732
-2.23081
-1.98948
-1.75928
-1.56099
-1.44005
-2.25447
-2.13565
-1.93324
-1.74117
-1.60391
-2.10518
-2.04771
-1.87354
-1.68536
-1.5172
-1.8652
-1.82547
-1.68665
-1.49016
-1.29085
-1.51709
-1.49362
-1.39673
-1.19763
-0.967751
-1.06295
-1.05544
-0.995357
-0.851201
-0.650182
-0.606254
-0.583654
-0.544776
-0.445429
-0.304889
-0.253597
-0.228324
-0.182738
-0.11068
-0.0209825
-0.0357368
-0.0111927
0.0307422
0.0869828
0.143407
0.0513356
0.074064
0.112436
0.160875
0.204405
0.0403347
0.0562776
0.0545782
0.0400871
0.0141823
0.192532
0.0890794
0.0694862
0.0416131
0.0140554
0.2551
0.0901306
0.0673923
0.041505
0.0138339
0.271497
0.110183
0.0713343
0.041842
0.0136781
0.273095
0.119359
0.0726626
0.0417629
0.0134873
-0.284027
-0.0421534
0.0360199
0.0357724
0.0137905
-0.0950355
0.0833064
0.0676824
0.0421924
0.0147198
-1.377
-1.51414
-1.44903
-1.15556
-0.881664
-1.3965
-1.53368
-1.41157
-1.11358
-0.77544
1.30139
1.26365
1.2084
1.13519
1.03836
1.46553
1.47871
1.47812
1.45961
1.42231
1.61036
1.63185
1.64912
1.65433
1.64476
1.67701
1.70807
1.74305
1.77218
1.78468
1.67279
1.70533
1.74334
1.77632
1.79232
-0.992043
-1.11982
-1.32388
-1.56626
-1.91458
-0.339624
-0.494862
-0.698652
-0.950033
-1.31498
0.270981
0.117353
-0.0673113
-0.292675
-0.599426
0.761756
0.639867
0.490486
0.305576
0.0739545
1.1363
1.04719
0.926611
0.779947
0.610118
1.54323
1.26481
1.52006
1.37968
1.46615
1.53129
1.26076
1.51313
1.38929
1.50364
1.52014
1.25486
1.50596
1.39249
1.57951
1.50903
1.24723
1.49543
1.3875
1.57171
1.49793
1.23766
1.48216
1.37389
1.55891
1.58556
1.27306
1.51726
1.33033
1.35658
1.55284
1.26657
1.51572
1.35309
1.3467
0.995026
0.764316
0.348357
-0.27454
-0.947639
1.09973
0.805442
0.359033
-0.259778
-0.94456
)
;

boundaryField
{
    left
    {
        type            zeroGradient;
    }
    right
    {
        type            fixedValue;
        value           uniform 0;
    }
    down
    {
        type            zeroGradient;
    }
    up
    {
        type            zeroGradient;
    }
    cylinder
    {
        type            zeroGradient;
    }
    defaultFaces
    {
        type            empty;
    }
}


// ************************************************************************* //
