# Force coefficients
# liftDir     : (0.000000e+00 1.000000e+00 0.000000e+00)
# dragDir     : (1.000000e+00 0.000000e+00 0.000000e+00)
# pitchAxis   : (0.000000e+00 0.000000e+00 1.000000e+00)
# magUInf     : 1.000000e+00
# lRef        : 2.000000e+00
# Aref        : 2.000000e+00
# CofR        : (0.000000e+00 0.000000e+00 0.000000e+00)
# Time        	Cm            	Cd            	Cl            	Cl(f)         	Cl(r)         
0             	0.000000e+00	0.000000e+00	0.000000e+00	0.000000e+00	0.000000e+00
0.0025        	-2.105980e-04	6.610625e+03	1.298339e+00	6.489591e-01	6.493803e-01
0.005         	-2.720396e-05	2.596091e+01	-1.248155e+00	-6.241045e-01	-6.240501e-01
0.0075        	-5.115970e-05	2.404282e+01	-1.289345e+00	-6.447236e-01	-6.446213e-01
0.01          	-8.086012e-05	2.335380e+01	-1.276750e+00	-6.384559e-01	-6.382942e-01
0.0125        	-1.153496e-04	2.271039e+01	-1.275174e+00	-6.377021e-01	-6.374714e-01
0.015         	-1.537960e-04	2.210831e+01	-1.276824e+00	-6.385659e-01	-6.382583e-01
0.0175        	-1.954970e-04	2.154219e+01	-1.279664e+00	-6.400277e-01	-6.396367e-01
0.02          	-2.398918e-04	2.100796e+01	-1.281956e+00	-6.412181e-01	-6.407383e-01
0.0225        	-2.865631e-04	2.050232e+01	-1.282735e+00	-6.416542e-01	-6.410811e-01
0.025         	-3.351719e-04	2.002269e+01	-1.283758e+00	-6.422144e-01	-6.415440e-01
0.0275        	-3.854648e-04	1.956696e+01	-1.283982e+00	-6.423765e-01	-6.416055e-01
0.03          	-4.372477e-04	1.913341e+01	-1.284105e+00	-6.424899e-01	-6.416154e-01
0.0325        	-4.903758e-04	1.872054e+01	-1.284013e+00	-6.424971e-01	-6.415163e-01
0.035         	-5.447421e-04	1.832703e+01	-1.283762e+00	-6.424259e-01	-6.413364e-01
0.0375        	-6.002692e-04	1.795170e+01	-1.283405e+00	-6.423030e-01	-6.411024e-01
0.04          	-6.569022e-04	1.759350e+01	-1.282972e+00	-6.421430e-01	-6.408292e-01
0.0425        	-7.146039e-04	1.725143e+01	-1.282505e+00	-6.419670e-01	-6.405378e-01
0.045         	-7.733311e-04	1.692445e+01	-1.283125e+00	-6.423358e-01	-6.407892e-01
0.0475        	-8.330710e-04	1.661188e+01	-1.282694e+00	-6.421800e-01	-6.405139e-01
0.05          	-8.938164e-04	1.631283e+01	-1.282248e+00	-6.420179e-01	-6.402302e-01
0.0525        	-9.555682e-04	1.602654e+01	-1.281696e+00	-6.418033e-01	-6.398922e-01
0.055         	-1.018331e-03	1.575231e+01	-1.280989e+00	-6.415128e-01	-6.394761e-01
0.0575        	-1.082112e-03	1.548950e+01	-1.280507e+00	-6.413354e-01	-6.391712e-01
0.06          	-1.146920e-03	1.523750e+01	-1.280026e+00	-6.411600e-01	-6.388661e-01
0.0625        	-1.212789e-03	1.499579e+01	-1.278033e+00	-6.402291e-01	-6.378036e-01
0.065         	-1.279734e-03	1.476375e+01	-1.278034e+00	-6.402965e-01	-6.377370e-01
0.0675        	-1.347780e-03	1.454101e+01	-1.277019e+00	-6.398573e-01	-6.371617e-01
0.07          	-1.416936e-03	1.432697e+01	-1.277643e+00	-6.402383e-01	-6.374044e-01
0.0725        	-1.487207e-03	1.412125e+01	-1.277408e+00	-6.401911e-01	-6.372167e-01
0.075         	-1.558605e-03	1.392343e+01	-1.276955e+00	-6.400359e-01	-6.369187e-01
0.0775        	-1.631134e-03	1.373318e+01	-1.276377e+00	-6.398198e-01	-6.365575e-01
0.08          	-1.704799e-03	1.355008e+01	-1.275923e+00	-6.396661e-01	-6.362565e-01
0.0825        	-1.779602e-03	1.337384e+01	-1.275710e+00	-6.396346e-01	-6.360754e-01
0.085         	-1.855546e-03	1.320415e+01	-1.275456e+00	-6.395835e-01	-6.358724e-01
0.0875        	-1.932628e-03	1.304074e+01	-1.275602e+00	-6.397336e-01	-6.358684e-01
0.09          	-2.010845e-03	1.288325e+01	-1.275341e+00	-6.396815e-01	-6.356598e-01
0.0925        	-2.090192e-03	1.273141e+01	-1.274313e+00	-6.392468e-01	-6.350664e-01
0.095         	-2.170666e-03	1.258494e+01	-1.273204e+00	-6.387725e-01	-6.344312e-01
0.0975        	-2.252259e-03	1.244357e+01	-1.272529e+00	-6.385167e-01	-6.340121e-01
0.1           	-2.334960e-03	1.230710e+01	-1.272095e+00	-6.383826e-01	-6.337127e-01
0.1025        	-2.418760e-03	1.217518e+01	-1.270743e+00	-6.377904e-01	-6.329529e-01
0.105         	-2.503659e-03	1.204777e+01	-1.269309e+00	-6.371581e-01	-6.321507e-01
0.1075        	-2.589659e-03	1.192464e+01	-1.267592e+00	-6.363855e-01	-6.312062e-01
0.11          	-2.676749e-03	1.180553e+01	-1.266694e+00	-6.360240e-01	-6.306705e-01
0.1125        	-2.764920e-03	1.169045e+01	-1.266648e+00	-6.360889e-01	-6.305591e-01
0.115         	-2.854163e-03	1.157907e+01	-1.266062e+00	-6.358853e-01	-6.301770e-01
0.1175        	-2.944473e-03	1.147131e+01	-1.265221e+00	-6.355550e-01	-6.296661e-01
0.12          	-3.035840e-03	1.136698e+01	-1.264755e+00	-6.354134e-01	-6.293417e-01
0.1225        	-3.128257e-03	1.126599e+01	-1.264073e+00	-6.351646e-01	-6.289081e-01
0.125         	-3.221715e-03	1.116817e+01	-1.262946e+00	-6.346946e-01	-6.282511e-01
0.1275        	-3.316203e-03	1.107350e+01	-1.262175e+00	-6.344037e-01	-6.277713e-01
0.13          	-3.411706e-03	1.098176e+01	-1.261289e+00	-6.340561e-01	-6.272327e-01
0.1325        	-3.508214e-03	1.089280e+01	-1.260014e+00	-6.335153e-01	-6.264989e-01
0.135         	-3.605719e-03	1.080660e+01	-1.258669e+00	-6.329404e-01	-6.257289e-01
0.1375        	-3.704210e-03	1.072302e+01	-1.257207e+00	-6.323077e-01	-6.248992e-01
0.14          	-3.803677e-03	1.064198e+01	-1.255814e+00	-6.317106e-01	-6.241033e-01
0.1425        	-3.904105e-03	1.056344e+01	-1.254602e+00	-6.312052e-01	-6.233969e-01
0.145         	-4.005484e-03	1.048720e+01	-1.252552e+00	-6.302817e-01	-6.222707e-01
0.1475        	-4.107802e-03	1.041319e+01	-1.251154e+00	-6.296849e-01	-6.214693e-01
0.15          	-4.211049e-03	1.034136e+01	-1.249313e+00	-6.288674e-01	-6.204453e-01
0.1525        	-4.315214e-03	1.027161e+01	-1.247376e+00	-6.280032e-01	-6.193727e-01
0.155         	-4.420286e-03	1.020396e+01	-1.244462e+00	-6.266513e-01	-6.178107e-01
0.1575        	-4.526256e-03	1.013832e+01	-1.242454e+00	-6.257532e-01	-6.167007e-01
0.16          	-4.633110e-03	1.007449e+01	-1.240206e+00	-6.247362e-01	-6.154700e-01
0.1625        	-4.740841e-03	1.001254e+01	-1.238226e+00	-6.238539e-01	-6.143722e-01
0.165         	-4.849439e-03	9.952310e+00	-1.235345e+00	-6.225219e-01	-6.128230e-01
0.1675        	-4.958897e-03	9.893951e+00	-1.233317e+00	-6.216176e-01	-6.116998e-01
0.17          	-5.069201e-03	9.837206e+00	-1.229706e+00	-6.199222e-01	-6.097838e-01
0.1725        	-5.180346e-03	9.781879e+00	-1.228021e+00	-6.191907e-01	-6.088300e-01
0.175         	-5.292322e-03	9.728042e+00	-1.225442e+00	-6.180134e-01	-6.074288e-01
0.1775        	-5.405121e-03	9.675726e+00	-1.222668e+00	-6.167391e-01	-6.059288e-01
0.18          	-5.518737e-03	9.624845e+00	-1.219803e+00	-6.154201e-01	-6.043827e-01
0.1825        	-5.633162e-03	9.575416e+00	-1.217167e+00	-6.142164e-01	-6.029501e-01
0.185         	-5.748388e-03	9.527303e+00	-1.214311e+00	-6.129036e-01	-6.014069e-01
0.1875        	-5.864408e-03	9.480430e+00	-1.211032e+00	-6.113804e-01	-5.996516e-01
0.19          	-5.981216e-03	9.434818e+00	-1.207829e+00	-6.098956e-01	-5.979331e-01
0.1925        	-6.098804e-03	9.390421e+00	-1.204557e+00	-6.083774e-01	-5.961798e-01
0.195         	-6.217170e-03	9.347208e+00	-1.201164e+00	-6.067992e-01	-5.943649e-01
0.1975        	-6.336301e-03	9.305129e+00	-1.197720e+00	-6.051963e-01	-5.925237e-01
0.2           	-6.456194e-03	9.264218e+00	-1.193802e+00	-6.033573e-01	-5.904449e-01
0.2025        	-6.576842e-03	9.224327e+00	-1.190140e+00	-6.016470e-01	-5.884934e-01
0.205         	-6.698239e-03	9.185477e+00	-1.186358e+00	-5.998770e-01	-5.864805e-01
0.2075        	-6.820377e-03	9.147629e+00	-1.182371e+00	-5.980059e-01	-5.843652e-01
0.21          	-6.943250e-03	9.110765e+00	-1.178216e+00	-5.960511e-01	-5.821646e-01
0.2125        	-7.066852e-03	9.074939e+00	-1.174855e+00	-5.944945e-01	-5.803608e-01
0.215         	-7.191176e-03	9.039983e+00	-1.170788e+00	-5.925852e-01	-5.782029e-01
0.2175        	-7.316214e-03	9.005979e+00	-1.166714e+00	-5.906733e-01	-5.760409e-01
0.22          	-7.441959e-03	8.972821e+00	-1.162501e+00	-5.886927e-01	-5.738088e-01
0.2225        	-7.568405e-03	8.940536e+00	-1.158124e+00	-5.866306e-01	-5.714937e-01
0.225         	-7.695543e-03	8.909064e+00	-1.153701e+00	-5.845458e-01	-5.691547e-01
0.2275        	-7.823368e-03	8.878376e+00	-1.148788e+00	-5.822174e-01	-5.665707e-01
0.23          	-7.951873e-03	8.848486e+00	-1.144072e+00	-5.799881e-01	-5.640843e-01
0.2325        	-8.081051e-03	8.819364e+00	-1.139273e+00	-5.777178e-01	-5.615557e-01
0.235         	-8.210894e-03	8.791047e+00	-1.134467e+00	-5.754444e-01	-5.590226e-01
0.2375        	-8.341397e-03	8.763357e+00	-1.129511e+00	-5.730971e-01	-5.564143e-01
0.24          	-8.472553e-03	8.736311e+00	-1.124398e+00	-5.706718e-01	-5.537267e-01
0.2425        	-8.604356e-03	8.709971e+00	-1.119013e+00	-5.681108e-01	-5.509021e-01
0.245         	-8.736802e-03	8.684397e+00	-1.113918e+00	-5.656959e-01	-5.482223e-01
0.2475        	-8.869884e-03	8.659550e+00	-1.109331e+00	-5.635355e-01	-5.457957e-01
0.25          	-9.003599e-03	8.635245e+00	-1.104090e+00	-5.610488e-01	-5.430416e-01
0.2525        	-9.137939e-03	8.611562e+00	-1.098781e+00	-5.585286e-01	-5.402527e-01
0.255         	-9.272901e-03	8.588473e+00	-1.093555e+00	-5.560503e-01	-5.375045e-01
0.2575        	-9.408478e-03	8.565885e+00	-1.087708e+00	-5.532623e-01	-5.344454e-01
0.26          	-9.544665e-03	8.543832e+00	-1.081420e+00	-5.502548e-01	-5.311654e-01
0.2625        	-9.681456e-03	8.522341e+00	-1.075406e+00	-5.473845e-01	-5.280215e-01
0.265         	-9.818846e-03	8.501459e+00	-1.069164e+00	-5.444008e-01	-5.247631e-01
0.2675        	-9.956828e-03	8.481034e+00	-1.063130e+00	-5.415218e-01	-5.216081e-01
0.27          	-1.009540e-02	8.461131e+00	-1.056976e+00	-5.385834e-01	-5.183926e-01
0.2725        	-1.023455e-02	8.441725e+00	-1.050754e+00	-5.356117e-01	-5.151426e-01
0.275         	-1.037427e-02	8.422802e+00	-1.044616e+00	-5.326821e-01	-5.119335e-01
0.2775        	-1.051457e-02	8.404360e+00	-1.038282e+00	-5.296554e-01	-5.086263e-01
0.28          	-1.065543e-02	8.386383e+00	-1.031878e+00	-5.265946e-01	-5.052837e-01
0.2825        	-1.079685e-02	8.368862e+00	-1.025408e+00	-5.235009e-01	-5.019072e-01
0.285         	-1.093882e-02	8.351785e+00	-1.018871e+00	-5.203742e-01	-4.984966e-01
0.2875        	-1.108134e-02	8.335141e+00	-1.012269e+00	-5.172157e-01	-4.950531e-01
0.29          	-1.122440e-02	8.318922e+00	-1.005603e+00	-5.140258e-01	-4.915770e-01
0.2925        	-1.136800e-02	8.303118e+00	-9.988708e-01	-5.108034e-01	-4.880674e-01
0.295         	-1.151213e-02	8.287717e+00	-9.919835e-01	-5.075039e-01	-4.844796e-01
0.2975        	-1.165678e-02	8.272719e+00	-9.852582e-01	-5.042859e-01	-4.809723e-01
0.3           	-1.180194e-02	8.258106e+00	-9.783467e-01	-5.009753e-01	-4.773714e-01
