/*--------------------------------*- C++ -*----------------------------------*\
  =========                 |
  \\      /  F ield         | OpenFOAM: The Open Source CFD Toolbox
   \\    /   O peration     | Website:  https://openfoam.org
    \\  /    A nd           | Version:  13
     \\/     M anipulation  |
\*---------------------------------------------------------------------------*/
FoamFile
{
    format      ascii;
    class       volScalarField;
    location    "0.9";
    object      p;
}
// * * * * * * * * * * * * * * * * * * * * * * * * * * * * * * * * * * * * * //

dimensions      [0 2 -2 0 0 0 0];

internalField   nonuniform List<scalar> 
1800
(
5.7511
7.8582
10.011
11.4394
12.2737
12.6843
12.8151
12.6574
11.4107
7.31809
9.59985
12.0756
14.5805
16.2644
17.321
17.9836
18.4382
18.677
17.9523
15.274
15.9915
18.6162
21.2889
23.1522
24.4123
25.294
25.9446
26.3278
25.8564
24.0251
24.9861
27.5555
30.2039
32.1183
33.4836
34.4926
35.2549
35.7068
35.3005
33.6157
36.0443
38.4051
40.8573
42.6689
43.9932
44.9893
45.7438
46.1931
45.8428
44.2871
48.7208
50.7733
52.917
54.5232
55.7141
56.6163
57.2985
57.7091
57.4279
56.0684
62.6689
64.3417
66.0974
67.4293
68.4314
69.2009
69.7923
70.1693
69.9941
68.9054
77.5945
78.836
80.1471
81.1564
81.9323
82.5461
83.0402
83.395
83.3616
82.6252
93.2124
93.992
94.8236
95.4784
96.0013
96.4387
96.8215
97.1448
97.255
96.9206
109.241
109.546
109.877
110.152
110.39
110.611
110.828
111.041
111.202
111.23
-0.602311
-0.855498
-0.632494
-0.21759
0.255452
0.723837
1.08353
1.29425
1.4394
1.58642
-0.468896
-0.985987
-1.09732
-0.892273
-0.468531
-0.0449706
0.246908
0.489129
0.76965
1.04356
0.53678
-0.432845
-1.26865
-1.43583
-1.10895
-0.804305
-0.59233
-0.287619
0.1199
0.50592
0.931301
-0.212021
-1.4138
-1.75337
-1.53321
-1.38131
-1.2584
-0.954269
-0.497557
0.010172
0.498984
-0.470527
-1.41363
-1.70555
-1.64881
-1.6613
-1.62695
-1.36651
-0.87594
-0.182088
-0.207216
-0.725104
-1.12716
-1.25727
-1.27848
-1.34525
-1.33936
-1.13231
-0.608767
0.323131
-0.545284
-0.508022
-0.332317
-0.186739
-0.102646
-0.0831158
-0.045981
0.122546
0.699203
1.92865
-0.0642027
0.521917
1.24254
1.74672
2.07598
2.28868
2.43734
2.65302
3.38268
5.04428
1.38125
2.48913
3.73743
4.65879
5.32864
5.82072
6.16034
6.49892
7.48509
9.77201
3.62179
5.26466
7.08279
8.45867
9.48135
10.2414
10.7636
11.2162
12.2768
14.4395
2.30534
2.44458
2.33685
2.09077
1.58524
1.18239
0.867341
0.597003
0.35465
0.139417
1.95751
2.42227
2.23387
2.00889
1.50299
1.10366
0.816257
0.580804
0.362471
0.151151
1.48041
2.39324
2.13329
1.91805
1.42903
1.0383
0.770143
0.561039
0.367033
0.162136
0.855459
2.31046
2.03321
1.81267
1.35466
0.981274
0.73096
0.543072
0.363902
0.172179
0.160655
2.1339
1.92209
1.69046
1.2737
0.927874
0.697331
0.527769
0.351344
0.17851
-0.412909
1.85424
1.7828
1.55012
1.18265
0.874755
0.667604
0.514111
0.356153
0.178793
-0.563183
1.50513
1.6023
1.38941
1.07975
0.819849
0.639972
0.50187
0.359766
0.172395
0.164841
1.17527
1.37163
1.19955
0.961706
0.76136
0.612722
0.4903
0.351079
0.160266
2.42092
1.03852
1.07017
0.955932
0.820317
0.696934
0.585445
0.473466
0.331749
0.142003
6.65561
1.40717
0.712197
0.638264
0.648448
0.626498
0.555915
0.451038
0.307092
0.121115
9.9802
2.57626
0.687711
0.395952
0.47308
0.550804
0.517158
0.417178
0.273001
0.0934502
11.7649
2.57301
0.268411
0.0651688
0.363373
0.51902
0.482258
0.371651
0.227008
0.0575483
12.8645
2.78148
0.401556
0.162811
0.478513
0.580642
0.484172
0.340829
0.186276
0.0228975
14.1871
4.37044
1.28697
0.736343
0.797138
0.726865
0.527118
0.32911
0.154683
-0.00809175
16.3638
7.11356
2.70539
1.59752
1.24595
0.940851
0.610599
0.339733
0.135877
-0.0325545
19.2531
9.87731
4.33643
2.56069
1.77394
1.2045
0.726427
0.371942
0.131739
-0.048204
21.7567
11.9381
5.85332
3.51957
2.33886
1.49853
0.86438
0.422416
0.142161
-0.0537763
23.0357
13.121
7.05046
4.41936
2.91203
1.80914
1.01699
0.487742
0.166046
-0.0488635
22.9756
13.5001
7.91139
5.26669
3.50127
2.14402
1.19092
0.572257
0.207143
-0.0319139
22.4228
13.7252
8.68289
6.12786
4.12774
2.52299
1.40842
0.693833
0.28639
0.00308303
111.786
97.8405
84.0759
71.0708
59.1315
48.3514
38.7701
30.0936
20.0826
4.97796
112.766
99.4782
85.9775
72.9712
60.9282
50.0474
40.5143
32.2561
23.5911
11.4783
113.298
100.213
87.3328
75.0067
63.4681
52.8763
43.4465
35.2578
27.4715
18.3376
114.51
102.77
90.8117
78.9812
67.6249
57.03
47.3973
38.7971
31.0905
23.8276
115.087
104.076
93.156
82.4651
72.1184
62.1943
52.7323
43.8222
36.0044
29.8258
115.437
104.71
94.2035
84.042
74.3216
65.0923
56.3332
48.092
41.0505
36.0337
115.668
105.11
94.7983
84.8664
75.4238
66.5435
58.2349
50.5674
44.2135
40.0941
115.769
105.248
94.9814
85.1102
75.7563
67.0106
58.9069
51.5136
45.3969
41.4372
115.718
105.033
94.607
84.5881
75.1091
66.2767
58.1468
50.7774
44.5537
40.1008
115.595
104.648
93.961
83.6838
73.9585
64.9085
56.6139
49.1192
42.6103
37.4154
234.119
229.756
228.187
227.745
227.654
227.905
228.639
230.02
232.172
234.31
225.558
222.538
221.489
221.449
221.674
222.159
223.089
224.697
227.168
229.644
216.044
213.869
213.096
213.221
213.652
214.355
215.48
217.249
219.863
222.461
205.739
203.711
203.007
203.202
203.746
204.575
205.799
207.607
210.176
212.695
194.416
192.506
191.851
192.039
192.571
193.382
194.559
196.253
198.608
200.898
182.049
180.324
179.731
179.872
180.325
181.037
182.072
183.55
185.579
187.544
168.703
167.241
166.747
166.85
167.206
167.778
168.617
169.811
171.438
173.009
154.57
153.453
153.098
153.176
153.431
153.844
154.451
155.313
156.484
157.612
139.961
139.247
139.04
139.09
139.235
139.469
139.82
140.321
141.003
141.66
125.436
125.093
124.952
124.905
124.893
124.915
124.981
125.101
125.278
125.454
246.556
246.795
247.048
247.266
247.564
248.065
248.618
248.955
248.959
248.445
246.628
246.959
247.362
247.669
247.87
248.205
248.63
248.545
247.727
246.706
246.636
247.031
247.477
247.789
247.872
248.003
248.285
247.925
246.536
245.281
246.512
247.014
247.444
247.676
247.608
247.494
247.528
247.105
245.811
244.654
246.019
246.674
247.062
247.167
246.989
246.711
246.533
246.173
245.364
244.576
244.812
245.655
245.99
245.953
245.721
245.436
245.239
245.067
244.827
244.541
242.467
243.563
243.9
243.783
243.572
243.406
243.371
243.502
243.809
244.049
238.583
240.068
240.536
240.469
240.384
240.435
240.672
241.166
241.979
242.718
233.11
235.163
235.871
235.938
236.063
236.409
236.996
237.901
239.205
240.417
227.755
229.62
230.364
230.531
230.837
231.454
232.396
233.747
235.594
237.302
246.936
246.718
246.677
246.49
246.422
246.309
245.934
245.677
245.575
245.721
246.894
246.717
246.672
246.493
246.421
246.321
245.943
245.658
245.38
245.739
246.866
246.713
246.664
246.488
246.414
246.322
245.941
245.601
245.141
245.82
246.847
246.706
246.651
246.475
246.399
246.317
245.927
245.507
244.921
246.004
246.836
246.697
246.634
246.455
246.379
246.302
245.898
245.396
244.786
246.241
246.829
246.686
246.616
246.431
246.354
246.273
245.859
245.303
244.761
246.35
246.828
246.671
246.596
246.404
246.323
246.233
245.823
245.252
244.808
246.018
246.831
246.652
246.574
246.374
246.287
246.189
245.806
245.257
244.83
244.782
246.84
246.629
246.55
246.341
246.25
246.157
245.839
245.334
244.653
242.006
246.858
246.605
246.521
246.305
246.215
246.152
245.943
245.462
243.974
237.291
246.896
246.577
246.479
246.247
246.15
246.08
245.874
245.136
242.443
233.742
247.011
246.556
246.44
246.194
246.093
246.115
246.068
245.334
242.178
231.8
247.252
246.562
246.401
246.114
246.016
246.076
246.056
245.234
241.882
230.534
247.702
246.618
246.371
246.028
245.88
245.811
245.608
244.529
240.476
229.313
248.54
246.684
246.395
245.937
245.67
245.306
244.74
243.224
238.005
227.457
250.377
246.75
246.504
245.868
245.377
244.645
243.656
241.568
235.373
224.912
254.257
247.062
246.659
245.811
245.022
243.931
242.56
239.957
233.311
222.584
262.562
248.199
246.934
245.77
244.648
243.241
241.558
238.668
232.073
221.328
280.122
250.933
247.585
245.806
244.294
242.588
240.65
237.738
231.631
221.358
306.093
254.979
249.09
246.02
244.003
241.967
239.765
236.921
231.359
221.885
236.415
221.066
210.444
201.13
190.969
179.665
167.27
153.898
139.853
125.723
230.027
217.734
208.582
199.861
189.923
178.685
166.339
153.088
139.364
125.89
223.494
214.13
205.951
197.423
187.709
176.868
165.116
152.616
139.598
126.42
218.378
210.871
202.879
194.029
184.187
173.422
161.93
149.988
137.925
126.091
212.981
206.587
198.595
189.501
179.832
169.695
159.145
148.278
137.222
126.13
207.384
202.088
194.828
186.358
177.36
167.904
157.985
147.663
137.043
126.255
203.59
199.15
192.56
184.663
176.13
167.044
157.423
147.349
136.938
126.328
202.308
198.05
191.704
184.092
175.779
166.842
157.323
147.32
136.962
126.393
203.635
198.919
192.469
184.885
176.553
167.537
157.9
147.754
137.239
126.507
206.309
200.873
194.137
186.426
177.93
168.698
158.816
148.412
137.636
126.644
112.19
112.36
112.444
112.296
111.789
111.428
111.243
111.528
111.52
111.271
89.6152
90.0786
90.2972
89.8637
88.4317
87.3452
86.7243
87.386
87.4236
86.8371
68.7722
69.3999
69.6613
68.9945
67.0551
65.3434
64.3231
64.8719
65.1763
64.6211
50.6544
51.2609
51.4506
50.6275
48.6484
46.4823
45.1523
45.1877
45.9261
45.6928
36.0092
36.4177
36.468
35.5867
33.7948
31.4788
29.835
29.2698
30.0774
30.2651
24.9569
25.0605
24.9385
24.0153
22.4377
20.4083
18.6175
17.6758
17.9309
18.431
17.0705
16.9202
16.7054
15.7145
14.3
12.7966
11.3091
10.2442
9.9044
10.2709
11.5835
11.4066
11.3582
10.3588
9.03983
8.03795
7.14642
6.30362
5.71513
5.63127
7.90939
7.8212
8.11726
7.24937
6.08328
5.49285
5.16419
4.77972
4.29579
3.91595
6.04039
5.83552
6.22106
5.48316
4.61379
4.33791
4.36218
4.35303
4.20053
3.80446
5.27294
5.03619
5.11871
4.42433
3.89219
3.8363
3.98641
4.12936
4.25056
4.30721
4.8454
4.73634
4.45911
3.79281
3.50719
3.59485
3.79836
3.96612
4.08592
4.17217
4.46651
4.42177
3.99003
3.43961
3.31996
3.48319
3.70821
3.88708
4.0051
4.06543
4.01171
3.95674
3.55068
3.19956
3.20989
3.4135
3.62661
3.78402
3.88264
3.92396
3.46329
3.37
3.09712
2.97777
3.09492
3.31195
3.50221
3.63993
3.72125
3.74498
2.81155
2.71759
2.65882
2.7497
2.94669
3.15123
3.31712
3.43663
3.50359
3.51701
2.08808
2.10522
2.2408
2.47588
2.71177
2.91041
3.06575
3.17955
3.24593
3.26145
1.41555
1.5339
1.78562
2.07896
2.33521
2.54981
2.7259
2.86481
2.95251
2.98066
0.738787
0.873276
1.14837
1.47798
1.78847
2.06076
2.29876
2.48401
2.58896
2.62661
0.0662219
-0.01912
0.216635
0.629212
1.05061
1.43378
1.75874
1.97414
2.07739
2.14072
3.66103
3.70459
3.57406
3.24758
2.59559
1.90407
1.30885
0.834146
0.44992
0.0842956
3.73354
3.67802
3.52333
3.23153
2.55613
1.84815
1.25747
0.797419
0.426308
0.0817729
3.75972
3.57154
3.41116
3.1772
2.51208
1.79556
1.20925
0.763405
0.405165
0.0813182
3.72026
3.39473
3.2579
3.07435
2.45471
1.74458
1.16422
0.732241
0.386707
0.0825226
3.612
3.18614
3.08919
2.92039
2.37209
1.69067
1.12167
0.7039
0.37114
0.085526
3.44824
2.98816
2.9283
2.73583
2.2579
1.62989
1.08136
0.678754
0.358844
0.090459
3.25466
2.8209
2.78451
2.55276
2.11502
1.55848
1.04257
0.657142
0.350219
0.097331
3.04767
2.6843
2.6585
2.39551
1.9588
1.47367
1.00386
0.639043
0.345544
0.106014
2.8258
2.57382
2.54593
2.27123
1.8107
1.37668
0.962946
0.62392
0.344917
0.116234
2.582
2.49219
2.44045
2.17381
1.6855
1.27567
0.917555
0.610572
0.348171
0.127559
5.4224
3.97587
3.27697
2.89677
2.41433
1.8897
1.38533
0.928669
0.540814
0.128083
4.61856
3.75536
3.31339
2.95827
2.4553
1.89874
1.37269
0.909733
0.517924
0.115663
3.94856
3.66348
3.3744
3.02804
2.49496
1.90687
1.36149
0.892869
0.500405
0.104964
3.6287
3.66407
3.46012
3.10868
2.5365
1.91479
1.3509
0.877353
0.485187
0.0963334
3.614
3.70738
3.56218
3.20146
2.58275
1.92295
1.33959
0.861608
0.470433
0.0896228
112.021
88.9538
67.9027
50.1309
36.1159
25.7955
18.6253
13.7497
10.5676
8.75341
111.8
88.3914
67.1964
49.3964
35.3136
24.7912
17.3215
12.2162
9.07325
7.57299
111.614
87.9111
66.558
48.6557
34.4023
23.6184
15.9011
10.6812
7.53646
6.07833
111.403
87.3372
65.7175
47.5908
33.0775
22.0241
14.1294
8.89642
5.81082
4.4351
111.149
86.6091
64.5881
46.1175
31.2772
19.9562
11.9604
6.92396
4.44087
3.6251
243.77
243.808
243.928
244.099
244.312
244.321
243.816
243.114
243.218
242.994
243.982
244.054
244.168
244.357
244.628
244.802
244.584
243.934
243.677
243.57
244.178
244.227
244.34
244.536
244.822
245.084
245.058
244.551
244.123
244.073
244.42
244.453
244.551
244.726
244.983
245.273
245.38
245.11
244.723
244.655
244.696
244.713
244.795
244.945
245.16
245.426
245.63
245.633
245.467
245.377
244.989
245.001
245.071
245.193
245.367
245.598
245.869
246.112
246.218
246.207
245.263
245.282
245.364
245.5
245.676
245.906
246.208
246.571
246.875
246.999
245.55
245.567
245.664
245.856
246.111
246.412
246.773
247.188
247.554
247.735
245.932
245.961
246.038
246.26
246.632
247.086
247.593
248.115
248.461
248.423
246.326
246.436
246.537
246.727
247.127
247.698
248.301
248.853
249.207
249.002
136.503
136.244
136.221
136.484
136.266
135.868
135.327
135.155
135.227
135.391
160.954
160.357
160.379
161.016
160.363
159.241
157.777
157.321
157.526
157.985
183.199
182.632
182.919
183.442
182.392
180.646
178.678
177.989
178.238
178.861
202.165
201.919
202.638
202.648
201.29
199.093
197.085
196.241
196.419
197.022
217.637
217.811
218.595
218.008
216.339
213.995
212.174
211.271
211.31
211.715
229.517
229.998
230.228
229.269
227.461
225.405
223.795
222.848
222.716
222.817
237.716
238.052
237.69
236.616
235.124
233.595
232.145
231.128
230.903
230.752
242.371
242.252
241.642
240.809
239.93
238.912
237.558
236.532
236.474
236.297
244.096
243.677
243.184
242.826
242.528
241.942
240.752
239.857
240.143
240.058
244.235
243.809
243.656
243.677
243.749
243.506
242.632
241.871
242.256
242.067
254.846
246.872
247.5
246.285
246.035
245.528
244.996
244.635
244.505
244.543
252.013
246.808
247.314
246.263
246.088
245.591
245.012
244.667
244.581
244.515
250.09
246.814
247.091
246.259
246.143
245.659
245.055
244.761
244.75
244.546
248.903
246.843
246.878
246.277
246.201
245.733
245.136
244.915
244.98
244.652
248.217
246.846
246.739
246.316
246.257
245.816
245.265
245.106
245.222
244.823
247.769
246.804
246.702
246.366
246.31
245.91
245.432
245.295
245.431
245.031
247.454
246.75
246.701
246.41
246.356
246.013
245.609
245.451
245.586
245.242
247.238
246.722
246.693
246.445
246.389
246.118
245.757
245.562
245.686
245.436
247.094
246.716
246.684
246.47
246.406
246.211
245.856
245.631
245.725
245.596
246.999
246.717
246.68
246.483
246.416
246.275
245.91
245.667
245.691
245.691
317.35
253.756
249.91
246.972
246.14
245.568
245.251
244.931
244.239
242.722
295.618
251.366
248.788
246.74
246.057
245.539
245.207
244.902
244.452
243.523
277.177
249.211
248.191
246.566
246.017
245.521
245.157
244.844
244.534
244.196
265.774
247.866
247.867
246.436
245.998
245.509
245.1
244.762
244.524
244.525
259.003
247.135
247.644
246.327
245.996
245.501
245.031
244.66
244.479
244.557
239.301
237.452
234.236
229.329
222.126
211.772
197.721
179.917
158.84
135.759
240.484
238.948
235.774
230.637
223.135
212.578
198.458
180.625
159.404
135.98
241.997
240.5
237.319
232.065
224.314
213.494
199.202
181.265
159.885
136.167
243.659
242.253
239.125
233.851
225.916
214.823
200.269
182.106
160.459
136.376
244.448
243.611
241.108
236.037
227.995
216.628
201.745
183.236
161.186
136.63
)
;

boundaryField
{
    left
    {
        type            zeroGradient;
    }
    right
    {
        type            fixedValue;
        value           uniform 0;
    }
    down
    {
        type            zeroGradient;
    }
    up
    {
        type            zeroGradient;
    }
    cylinder
    {
        type            zeroGradient;
    }
    defaultFaces
    {
        type            empty;
    }
}


// ************************************************************************* //
