/*--------------------------------*- C++ -*----------------------------------*\
  =========                 |
  \\      /  F ield         | OpenFOAM: The Open Source CFD Toolbox
   \\    /   O peration     | Website:  https://openfoam.org
    \\  /    A nd           | Version:  13
     \\/     M anipulation  |
\*---------------------------------------------------------------------------*/
FoamFile
{
    format      ascii;
    class       surfaceScalarField;
    location    "0.615";
    object      phi;
}
// * * * * * * * * * * * * * * * * * * * * * * * * * * * * * * * * * * * * * //

dimensions      [0 3 -1 0 0 0 0];

internalField   nonuniform List<scalar> 
823
(
0.0232583
-0.0440555
0.0207972
0.0675427
-0.196899
0.152614
0.111459
-0.276963
0.233047
0.148514
-0.302339
0.265283
-0.300808
0.26691
0.182412
0.0317349
-0.0757904
0.079518
-0.244682
0.121341
-0.318786
0.156357
-0.337354
-0.335155
0.190703
0.0366114
-0.112402
0.0803283
-0.288399
0.112095
-0.350552
0.134782
-0.360042
-0.351591
0.151218
0.0379322
-0.150334
0.0739595
-0.324426
0.0959306
-0.372523
0.109844
-0.373955
-0.363881
0.122134
0.0325716
-0.182906
0.0548786
-0.346733
0.0627287
-0.380373
0.0654174
-0.376644
0.0661757
-0.36464
-0.0057879
0.00356025
0.00222766
0.0101412
-0.030175
0.0142459
0.0455052
-0.058197
0.022833
0.0908675
-0.0719275
0.0265652
-0.0800086
0.143033
0.0278429
-0.00262619
0.00618643
0.0177724
-0.0505736
0.05651
-0.0969346
0.104189
-0.119606
-0.132652
0.156832
0.00268165
0.00350479
0.0301048
-0.0779967
0.0735224
-0.140352
0.123913
-0.169997
-0.184164
0.175424
0.00886819
-0.0053634
0.043818
-0.112947
0.0906446
-0.187179
0.14107
-0.220422
-0.229764
0.18667
0.0154338
0.0551015
0.10097
0.145831
0.182977
0.331503
-0.394847
0.206377
0.385943
-0.192275
0.137835
0.402427
-0.105896
0.089412
0.403985
-0.0557991
0.054241
-0.0148445
0.0202753
0.322308
-0.560323
0.381317
-0.251283
0.400408
-0.124987
0.403896
-0.0592878
-0.0114076
0.306842
-0.69174
0.371332
-0.315774
0.394612
-0.148266
0.401955
-0.0666314
-0.012021
0.288544
-0.793614
0.355699
-0.382929
0.384894
-0.177461
0.398119
-0.0798563
-0.0187179
0.271778
-0.882415
0.335785
-0.446936
0.371627
-0.213303
0.392377
-0.100606
-0.0334295
0.771986
-0.692106
-0.962295
0.680277
-0.355227
0.644102
-0.177129
0.630554
-0.087058
-0.029423
0.788611
-0.482193
-0.998523
0.694663
-0.261279
0.654721
-0.137187
0.636998
-0.0693349
-0.0236087
0.808635
-0.296534
-0.994294
0.713466
-0.166111
0.665647
-0.0893673
0.642723
-0.0464108
-0.0159736
0.813707
-0.118462
-0.991778
0.717919
-0.0703228
0.668232
-0.0396803
0.643283
-0.0214624
-0.00746656
0.699806
-0.818269
0.629483
0.589803
0.568341
0.942801
0.0464274
-0.923052
0.948984
0.11595
0.972141
0.128061
0.958968
0.203876
0.179085
0.877742
0.0279947
-0.859309
0.904903
0.0887897
0.933118
0.0998459
0.974339
0.162655
0.154901
0.835429
0.014029
-0.821464
0.867331
0.0568883
0.898607
0.0685701
0.950087
0.111175
0.110694
0.803118
0.000975707
-0.790065
0.838418
0.0215879
0.876556
0.0304321
0.935781
0.0519509
0.0546962
0.659602
-0.658626
0.681189
0.711621
0.763572
0.13217
0.27134
-0.225142
-0.178368
0.0905748
0.280554
-0.238959
0.0525593
0.292923
-0.254908
0.0187626
0.290858
-0.257062
0.193994
-0.175232
0.123003
0.30953
-0.161194
0.0848627
0.318694
0.0482695
0.329516
0.016533
0.322595
0.210527
0.0871471
0.337882
-0.115499
0.057203
0.348638
0.0277844
0.358935
0.00465435
0.345725
0.215182
0.0358175
0.356319
-0.0542541
0.0162938
0.368162
-0.000938124
0.376167
-0.00944428
0.354231
0.205737
-0.0176418
0.00932111
-0.0261233
-0.0303298
-0.0228319
0.191087
0.0771041
-0.238082
-0.0301095
0.141992
0.0804611
-0.0313658
0.0903068
0.0846341
-0.0329489
0.0375928
0.0865408
-0.0338268
0.0630842
-0.0254914
0.184117
0.123217
-0.230229
0.136537
0.128041
0.086397
0.134774
0.035836
0.137102
0.0989202
0.159728
0.165955
-0.202466
0.116863
0.170905
0.0727465
0.178891
0.0290109
0.180837
0.127931
0.156448
0.201421
-0.191914
0.116792
0.210561
0.0729217
0.222761
0.0290735
0.224686
0.157005
0.111147
-0.134868
0.0827495
0.050603
0.0182271
0.408885
0.0267792
-0.039685
0.411138
0.0684938
-0.0707459
0.401417
0.112089
-0.102368
0.354805
0.176046
-0.129434
0.324558
-0.207835
0.406211
0.0165477
0.406634
0.0680712
0.394176
0.124547
0.350704
0.219517
0.445034
0.401144
0.0113837
0.397741
0.0714738
0.38057
0.141718
0.341487
0.2586
0.584054
0.393859
0.013504
0.384498
0.0808353
0.363408
0.162807
0.328651
0.293358
0.720791
0.384772
0.0247119
0.367381
0.0982263
0.339247
0.190941
0.295969
0.336637
0.881892
0.612016
0.0167167
0.625611
0.0846306
0.650101
0.166451
0.699255
0.287484
0.701798
0.879349
0.616135
0.00460169
0.636843
0.0639226
0.671502
0.131792
0.737293
0.221693
0.519226
0.919865
0.620047
-0.0114253
0.646389
0.0375809
0.687746
0.0904347
0.761793
0.147646
0.334779
0.946241
0.621466
-0.0288705
0.651195
0.00785105
0.697073
0.0445568
0.774196
0.0705236
0.158678
0.950297
0.57515
0.583001
0.627558
0.698081
0.856759
0.910851
-0.209871
0.910929
-0.161271
0.908294
-0.112864
0.912489
-0.0584491
-0.00124283
0.893411
-0.183417
0.871451
-0.139311
0.854769
-0.0961816
0.8523
-0.0559804
-0.00825209
0.892338
-0.129514
0.85517
-0.102143
0.83052
-0.0715314
0.818572
-0.0440328
-0.0111437
0.884884
-0.0641021
0.836534
-0.0537923
0.805469
-0.040466
0.78918
-0.0277444
-0.0120282
0.792657
0.738864
0.698398
0.670654
0.0485363
0.219678
-0.268214
0.0626032
0.421892
-0.435959
0.0547501
0.46162
-0.453767
0.042481
0.45496
-0.442691
0.415552
0.0347595
-0.407831
0.0869089
0.132769
0.146404
0.362397
0.170918
0.437106
0.177037
0.448842
0.43023
0.16236
0.0900109
0.042758
0.192759
0.259649
0.258658
0.371207
0.301609
0.40589
0.423337
0.308502
0.0582605
-0.0155025
0.165407
0.152503
0.260324
0.27629
0.336169
0.330045
0.354301
0.405206
0.0225359
-0.0380384
0.0941865
0.0808522
0.180872
0.189604
0.260041
0.250876
0.271633
0.342709
-0.000817549
-0.0372208
0.0350837
0.044951
0.0969502
0.127738
0.169859
0.177967
0.20414
0.237352
-0.00883615
-0.0283846
0.0101737
0.0259411
0.0558524
0.0820593
0.118011
0.115808
0.138923
0.183228
-0.00975205
-0.0186326
0.00397422
0.0122149
0.041124
0.0449094
0.092771
0.0641612
0.0792338
0.15246
-0.00887091
-0.00976168
0.00403031
-0.000686355
0.0379485
0.0109913
0.0840467
0.0180629
0.0245785
0.138702
-0.00753402
0.0060255
0.0398498
0.0844779
0.136899
0.283885
0.447495
-0.494029
0.328525
0.0794283
-0.124068
0.356924
-0.0150619
-0.0133367
0.377466
-0.030217
0.0096744
-0.0207416
0.00555198
0.29529
0.335433
0.352263
0.0224553
0.3744
-0.0371989
0.386477
-0.0422938
-0.027808
0.311374
0.176519
0.366626
-0.0327965
0.386343
-0.0569159
0.3934
-0.049351
-0.0287951
0.325764
-0.0105427
0.378538
-0.0855712
0.395325
-0.0737027
0.398687
-0.0527131
-0.0256137
0.332734
0.384997
0.400707
0.402234
0.398209
0.0935327
-0.491742
0.403847
-0.00563745
0.412635
-0.00878878
0.419978
-0.00734235
-0.00288622
0.649024
-1.04952
0.519319
0.497193
0.499525
0.0960368
-0.00406053
-0.0919762
0.140598
-0.044561
0.224083
-0.0834852
0.367603
-0.14352
-0.124139
0.226449
-0.195751
0.344248
0.569265
0.830951
0.131845
-0.15098
0.18148
-0.162345
0.100156
-0.160361
0.19205
0.0645046
-0.172561
0.208213
0.02598
-0.177002
0.215526
-0.12626
0.15224
0.190591
-0.112366
-0.229205
0.146068
-0.115838
0.0945389
-0.121032
0.0400814
-0.122544
-0.0861783
0.181323
-0.0641809
-0.229509
0.13319
-0.0677047
0.0839688
-0.0718115
0.0347392
-0.0733146
-0.0514391
0.19345
-0.0170623
-0.240569
0.144068
-0.0183221
0.0918133
-0.019557
0.0384288
-0.0199301
-0.0130103
0.194452
-0.241624
0.144765
0.0922586
0.0385017
0.0748234
-0.385676
-0.0969783
0.0426321
-0.4105
0.0108157
-0.42195
-0.0107673
-0.414376
-0.278981
0.163215
-0.3422
-0.206691
0.111106
-0.358391
0.0597381
-0.370582
0.0172137
-0.371852
-0.261768
0.194583
-0.29237
-0.244413
0.140291
-0.304099
0.0855434
-0.315834
0.033839
-0.320147
-0.227929
0.207612
-0.242972
-0.25701
0.152751
-0.249238
0.0970082
-0.260091
0.0415617
-0.264701
-0.186367
0.192369
-0.253861
0.135181
0.0833019
0.0341275
0.385395
0.0675629
-0.0569783
0.365611
0.0589519
-0.0391682
0.336069
0.0384826
-0.00894016
0.308433
-0.0175076
0.0451436
-0.240433
0.386521
0.394489
0.0690533
0.384197
0.0692439
0.361308
0.0613719
0.336323
0.00747711
-0.133315
0.401694
0.0633388
0.397811
0.0731271
0.37936
0.0798228
0.345611
0.041226
-0.0172121
0.406594
0.0527244
0.406793
0.0729286
0.394008
0.0926069
0.352145
0.0830889
0.0943644
0.409019
0.411202
0.40144
0.355095
0.454373
0.0556782
0.424217
0.0301558
0.421497
0.00272021
0.450414
-0.0289173
-0.188254
0.638668
0.508751
0.499738
0.493518
0.509745
0.708012
0.503855
0.134813
0.384619
0.119235
0.254304
0.130316
0.142927
0.111376
0.0509511
0.588965
0.45119
0.337093
0.241778
)
;

boundaryField
{
    left
    {
        type            calculated;
        value           nonuniform List<scalar> 
17
(
-0.60402
-0.60402
-0.60402
-0.60402
-0.60402
-0.39598
-0.39598
-0.39598
-0.39598
-0.39598
-0.39598
-0.39598
-0.39598
-0.39598
-0.39598
-0.510051
-0.510051
)
;
    }
    right
    {
        type            calculated;
        value           nonuniform List<scalar> 
17
(
0.422864
0.502191
0.392656
0.393543
0.394387
0.395506
0.396896
0.398554
0.40046
0.402568
0.404816
0.407089
0.626547
0.631183
0.635088
0.634776
0.560874
)
;
    }
    down
    {
        type            calculated;
        value           uniform 0;
    }
    up
    {
        type            calculated;
        value           uniform 0;
    }
    cylinder
    {
        type            calculated;
        value           uniform 0;
    }
    defaultFaces
    {
        type            empty;
    }
}


// ************************************************************************* //
