# Selection   : all
# Cells       : 440
# Volume      : 7.374263e+01
# Time        	minMag(U)
2.4           	1.683636e-02
2.45          	2.141268e-02
2.5           	2.311856e-02
