/*--------------------------------*- C++ -*----------------------------------*\
  =========                 |
  \\      /  F ield         | OpenFOAM: The Open Source CFD Toolbox
   \\    /   O peration     | Website:  https://openfoam.org
    \\  /    A nd           | Version:  13
     \\/     M anipulation  |
\*---------------------------------------------------------------------------*/
FoamFile
{
    format      ascii;
    class       volScalarField;
    location    "4.6";
    object      p;
}
// * * * * * * * * * * * * * * * * * * * * * * * * * * * * * * * * * * * * * //

dimensions      [0 2 -2 0 0 0 0];

internalField   nonuniform List<scalar> 
1800
(
-0.780798
-0.781122
-0.780417
-0.778256
-0.775034
-0.771979
-0.770889
-0.77575
-0.787257
-0.839267
-0.794068
-0.792652
-0.789996
-0.785769
-0.780278
-0.774245
-0.769342
-0.768033
-0.769182
-0.809673
-0.816897
-0.81303
-0.80846
-0.802783
-0.796478
-0.790057
-0.784136
-0.779885
-0.777869
-0.793963
-0.8486
-0.842081
-0.834931
-0.827214
-0.819115
-0.810766
-0.802232
-0.793798
-0.786543
-0.783812
-0.893274
-0.8839
-0.874236
-0.86406
-0.853005
-0.840483
-0.826026
-0.809651
-0.792219
-0.774964
-0.95239
-0.94015
-0.927495
-0.913719
-0.897215
-0.876783
-0.852165
-0.824018
-0.793553
-0.762072
-1.02517
-1.01022
-0.993654
-0.973855
-0.947986
-0.91523
-0.876739
-0.834666
-0.791106
-0.748123
-1.10696
-1.08969
-1.06746
-1.03777
-0.997814
-0.948674
-0.893849
-0.836913
-0.780487
-0.726281
-1.18921
-1.16971
-1.13922
-1.09526
-1.03718
-0.969409
-0.897823
-0.826787
-0.758739
-0.694962
-1.26002
-1.23782
-1.19627
-1.13461
-1.05631
-0.969837
-0.882566
-0.798753
-0.720277
-0.647715
-1.07744
-1.08527
-1.09607
-1.1109
-1.13104
-1.15629
-1.18577
-1.21895
-1.25686
-1.30138
-0.987243
-0.994381
-1.00322
-1.01448
-1.02967
-1.04879
-1.07112
-1.09619
-1.1247
-1.15764
-0.924072
-0.928949
-0.934646
-0.941546
-0.951054
-0.963304
-0.977703
-0.993574
-1.01064
-1.0289
-0.886417
-0.888595
-0.89073
-0.893478
-0.897922
-0.904204
-0.911868
-0.92007
-0.927335
-0.932234
-0.861695
-0.861008
-0.860239
-0.859889
-0.860523
-0.862228
-0.864742
-0.867522
-0.868833
-0.864785
-0.84007
-0.837597
-0.834993
-0.832382
-0.829893
-0.827576
-0.825334
-0.822951
-0.819601
-0.811
-0.819014
-0.816377
-0.813178
-0.809153
-0.80404
-0.797752
-0.790275
-0.781615
-0.771585
-0.758428
-0.799501
-0.798006
-0.795568
-0.791392
-0.785083
-0.77643
-0.765401
-0.752183
-0.737453
-0.72191
-0.784281
-0.784393
-0.783272
-0.780016
-0.774418
-0.766465
-0.756273
-0.744631
-0.732176
-0.718381
-0.774805
-0.77591
-0.775465
-0.772893
-0.768405
-0.762412
-0.755682
-0.749524
-0.744711
-0.738153
-1.56284
-1.76421
-1.32414
-1.01541
-0.934759
-0.667233
-0.398305
-0.152901
-0.0377549
0.0201541
-1.36191
-1.55968
-1.32861
-1.16526
-1.10635
-0.735194
-0.42725
-0.165052
-0.0424111
0.0172286
-1.16096
-1.34167
-1.29189
-1.30222
-1.24558
-0.802892
-0.454613
-0.178202
-0.0479947
0.0134408
-0.992704
-1.14791
-1.23481
-1.41639
-1.35135
-0.865037
-0.479943
-0.191929
-0.0545687
0.00894844
-0.869614
-0.996355
-1.18652
-1.50208
-1.42784
-0.918045
-0.50321
-0.206246
-0.0622161
0.00389436
-0.776167
-0.884863
-1.156
-1.55579
-1.47753
-0.960071
-0.524713
-0.22148
-0.0710405
-0.00161476
-0.701719
-0.795435
-1.12333
-1.57261
-1.50092
-0.989776
-0.54451
-0.238061
-0.0811751
-0.00752187
-0.645101
-0.71089
-1.07559
-1.55142
-1.49803
-1.00585
-0.561952
-0.256254
-0.0928645
-0.0137961
-0.622581
-0.625387
-1.00848
-1.49863
-1.47124
-1.00839
-0.576037
-0.275858
-0.106498
-0.0204649
-0.638355
-0.554024
-0.930305
-1.41675
-1.42704
-1.00081
-0.587142
-0.2965
-0.122368
-0.0277032
-0.593423
-0.479809
-0.870016
-1.35554
-1.34114
-0.954995
-0.581546
-0.316696
-0.142822
-0.0375443
-0.552595
-0.509051
-0.819096
-1.19556
-1.16155
-0.859363
-0.56451
-0.341762
-0.169833
-0.0492525
-0.533172
-0.50545
-0.730789
-1.00328
-0.983
-0.773603
-0.558279
-0.375355
-0.201708
-0.0608651
-0.507562
-0.49048
-0.638392
-0.831325
-0.828054
-0.69985
-0.559213
-0.416795
-0.23948
-0.0739484
-0.468839
-0.458787
-0.555225
-0.686065
-0.694977
-0.636298
-0.56681
-0.460583
-0.275273
-0.0841786
-0.423431
-0.424453
-0.480992
-0.561933
-0.580718
-0.582586
-0.574232
-0.493625
-0.300921
-0.0897202
-0.37898
-0.389516
-0.415434
-0.458626
-0.487053
-0.537359
-0.573513
-0.511033
-0.315341
-0.0912198
-0.338463
-0.357395
-0.361327
-0.382602
-0.423804
-0.505015
-0.559485
-0.504391
-0.31312
-0.0891814
-0.30765
-0.3396
-0.338672
-0.345301
-0.394909
-0.488363
-0.543761
-0.488669
-0.30355
-0.0865759
-0.284615
-0.330406
-0.346797
-0.366806
-0.408013
-0.483147
-0.531715
-0.473247
-0.295091
-0.0853422
-0.522165
-0.581164
-0.627243
-0.665822
-0.699404
-0.737206
-0.773373
-0.807404
-0.80329
-0.832146
-0.377733
-0.444997
-0.500272
-0.549719
-0.589451
-0.625747
-0.649444
-0.670127
-0.677189
-0.701648
-0.262762
-0.332295
-0.390864
-0.442933
-0.483288
-0.517942
-0.54126
-0.562268
-0.576623
-0.593974
-0.168754
-0.237891
-0.297501
-0.349813
-0.392025
-0.428148
-0.456549
-0.482047
-0.502963
-0.522345
-0.0923993
-0.160208
-0.219812
-0.272233
-0.316529
-0.354871
-0.387258
-0.41551
-0.439733
-0.46094
-0.0310879
-0.0975138
-0.156707
-0.209098
-0.254468
-0.293805
-0.327596
-0.35656
-0.381401
-0.402575
0.0169103
-0.0483039
-0.106922
-0.158794
-0.204092
-0.24303
-0.276411
-0.304601
-0.328773
-0.34938
0.0520159
-0.0122136
-0.0702365
-0.121164
-0.165755
-0.203373
-0.235577
-0.26201
-0.284687
-0.303296
0.072998
0.00936702
-0.048313
-0.0986694
-0.14286
-0.179482
-0.210729
-0.235037
-0.255609
-0.270239
0.0819607
0.0179158
-0.03991
-0.0907541
-0.135034
-0.171987
-0.202944
-0.226481
-0.245431
-0.255764
0.834522
0.76738
0.690224
0.607315
0.517378
0.418165
0.309915
0.199069
0.106454
0.0622605
0.640037
0.56742
0.486157
0.396889
0.297831
0.187506
0.0671978
-0.0549683
-0.155855
-0.202704
0.42742
0.352135
0.268496
0.175354
0.0706916
-0.0465574
-0.174473
-0.30368
-0.409536
-0.457089
0.224064
0.145652
0.0581927
-0.0396721
-0.149626
-0.272522
-0.406175
-0.539521
-0.646715
-0.693085
0.0408862
-0.0416865
-0.133885
-0.236846
-0.351889
-0.479397
-0.617736
-0.75201
-0.8558
-0.901497
-0.121588
-0.208265
-0.304629
-0.41156
-0.530298
-0.660904
-0.798805
-0.930391
-1.02989
-1.07357
-0.264898
-0.35412
-0.45245
-0.560887
-0.680382
-0.810207
-0.944838
-1.07015
-1.16218
-1.20226
-0.391568
-0.479889
-0.576865
-0.683487
-0.800198
-0.925354
-1.05241
-1.16685
-1.24813
-1.28353
-0.497693
-0.582761
-0.675918
-0.77782
-0.888205
-1.00444
-1.11907
-1.21826
-1.28657
-1.31697
-0.582954
-0.662664
-0.749574
-0.843778
-0.944207
-1.04728
-1.14515
-1.22605
-1.28059
-1.30644
2.10134
2.11908
2.13745
2.15523
2.17149
2.18547
2.19637
2.20401
2.21016
2.21577
2.03771
2.05234
2.06682
2.08006
2.09128
2.09972
2.1046
2.10603
2.10678
2.10913
1.95307
1.96358
1.97294
1.98023
1.98489
1.98618
1.98334
1.9768
1.97057
1.96887
1.84941
1.85525
1.85844
1.85842
1.85498
1.84737
1.83488
1.81839
1.80347
1.79702
1.72683
1.72696
1.72302
1.71482
1.70239
1.68496
1.66184
1.63434
1.60965
1.5981
1.58907
1.58335
1.57139
1.5537
1.53076
1.50187
1.46648
1.4265
1.39098
1.37367
1.43632
1.4242
1.40416
1.37702
1.34345
1.30269
1.25434
1.20104
1.15401
1.13076
1.27711
1.25762
1.22752
1.18886
1.14291
1.089
1.02683
0.959751
0.901133
0.871955
1.11625
1.0893
1.04871
0.997803
0.93843
0.869994
0.792517
0.710406
0.639644
0.604714
0.967147
0.923298
0.866069
0.800166
0.726517
0.64361
0.551322
0.454946
0.372973
0.333001
1.79492
1.78157
1.77213
1.76475
1.76511
1.77059
1.79134
1.8323
1.90409
2.02033
1.7891
1.77661
1.76825
1.75982
1.76025
1.76347
1.78284
1.81893
1.88211
1.98196
1.78387
1.77171
1.76419
1.75445
1.75482
1.75517
1.77288
1.80238
1.85447
1.9319
1.77914
1.76693
1.75994
1.74867
1.74881
1.74569
1.7615
1.78247
1.82172
1.86963
1.77489
1.76232
1.75552
1.74253
1.74218
1.73506
1.74871
1.75904
1.78447
1.79423
1.77108
1.75791
1.7509
1.73608
1.7349
1.72334
1.73443
1.7321
1.74295
1.70496
1.7677
1.75373
1.74609
1.72934
1.72692
1.71061
1.71853
1.70165
1.69731
1.60042
1.76477
1.74979
1.74108
1.72234
1.71822
1.69694
1.70085
1.6679
1.64731
1.48206
1.76233
1.74611
1.73589
1.71513
1.70884
1.6825
1.68129
1.63106
1.59131
1.34796
1.76038
1.74268
1.7306
1.70771
1.69896
1.66741
1.66083
1.5928
1.53246
1.20962
1.75849
1.73899
1.72348
1.69847
1.68487
1.64727
1.63049
1.54373
1.46063
1.07566
1.75777
1.73581
1.71545
1.68834
1.66819
1.62577
1.59563
1.50051
1.38907
1.05185
1.75886
1.73384
1.70732
1.67881
1.65108
1.60616
1.56223
1.4653
1.33084
1.03933
1.76237
1.73308
1.69931
1.67
1.63415
1.58871
1.53097
1.43679
1.28304
1.03241
1.76917
1.73331
1.69137
1.66188
1.61689
1.57357
1.50194
1.41437
1.2458
1.02857
1.77981
1.73464
1.6837
1.65463
1.59997
1.56081
1.47558
1.39705
1.21821
1.02492
1.79416
1.73417
1.67529
1.64494
1.58274
1.54921
1.45248
1.38331
1.19859
1.02209
1.81935
1.73809
1.67005
1.63797
1.56772
1.53892
1.43327
1.37331
1.18562
1.02133
1.83219
1.73003
1.6586
1.62643
1.55496
1.53131
1.4208
1.36835
1.17945
1.02391
1.90899
1.74311
1.66193
1.62403
1.54949
1.52795
1.415
1.36806
1.17679
1.02872
0.819498
0.660807
0.472566
0.291956
0.13013
-0.0140029
-0.143128
-0.258972
-0.361109
-0.44937
0.771328
0.646443
0.503965
0.360908
0.228019
0.105697
-0.00700964
-0.113314
-0.21137
-0.300824
0.756239
0.650494
0.536351
0.418881
0.304806
0.195385
0.0914939
-0.00778471
-0.0999097
-0.18606
0.767425
0.669495
0.567606
0.465468
0.364822
0.266131
0.17036
0.077691
-0.0100467
-0.093063
0.783444
0.691674
0.597816
0.505418
0.414432
0.32399
0.234522
0.146579
0.0620819
-0.0182964
0.800262
0.714167
0.626501
0.540587
0.45595
0.371021
0.285905
0.201291
0.119403
0.0413108
0.816465
0.735555
0.652894
0.57138
0.490527
0.408866
0.326459
0.244225
0.164257
0.087992
0.831429
0.755022
0.676476
0.597786
0.518604
0.438197
0.356909
0.276012
0.197297
0.122325
0.84525
0.772265
0.696722
0.619163
0.539659
0.458591
0.37694
0.29613
0.217524
0.14282
0.856755
0.785147
0.710067
0.631422
0.550351
0.468112
0.385946
0.304995
0.226531
0.151839
-1.92681
-1.88083
-1.78173
-1.65775
-1.53293
-1.41971
-1.32246
-1.24219
-1.17909
-1.13367
-2.00449
-1.96477
-1.88177
-1.77446
-1.66276
-1.55926
-1.46922
-1.39434
-1.33562
-1.29451
-2.00863
-1.97439
-1.90911
-1.82245
-1.72808
-1.63747
-1.55656
-1.48772
-1.43252
-1.3927
-1.95374
-1.92397
-1.87528
-1.8105
-1.73629
-1.66145
-1.59205
-1.53115
-1.48091
-1.44336
-1.86178
-1.83597
-1.80068
-1.75548
-1.70146
-1.64368
-1.58712
-1.53496
-1.4894
-1.45172
-1.75607
-1.73418
-1.70861
-1.67807
-1.64094
-1.59882
-1.55486
-1.51153
-1.4715
-1.43665
-1.65523
-1.6375
-1.6187
-1.5978
-1.57287
-1.54374
-1.51158
-1.47835
-1.44546
-1.41503
-1.56945
-1.5562
-1.54239
-1.52745
-1.51022
-1.48991
-1.46658
-1.44025
-1.41363
-1.3868
-1.50195
-1.49278
-1.48296
-1.47204
-1.45969
-1.44541
-1.4289
-1.41024
-1.38935
-1.3751
-1.45079
-1.44501
-1.43829
-1.43019
-1.42094
-1.41055
-1.39864
-1.38564
-1.36766
-1.35814
-1.41325
-1.40998
-1.40522
-1.39884
-1.39148
-1.38366
-1.37569
-1.36768
-1.35697
-1.32879
-1.38842
-1.38632
-1.38237
-1.37658
-1.36994
-1.36323
-1.35684
-1.35069
-1.34311
-1.31008
-1.37589
-1.37344
-1.36892
-1.36233
-1.35465
-1.34682
-1.33968
-1.33299
-1.32449
-1.30443
-1.37567
-1.37164
-1.36612
-1.35926
-1.35184
-1.34487
-1.3392
-1.33537
-1.33386
-1.33734
-1.38251
-1.37696
-1.37135
-1.36657
-1.36331
-1.36236
-1.36448
-1.37036
-1.38106
-1.39991
-1.38795
-1.38213
-1.37834
-1.37844
-1.3828
-1.39166
-1.40514
-1.42332
-1.44641
-1.47539
-1.38017
-1.37628
-1.37634
-1.38288
-1.39583
-1.41475
-1.43914
-1.46849
-1.5023
-1.54014
-1.3455
-1.3453
-1.34983
-1.36189
-1.38118
-1.40695
-1.43839
-1.47469
-1.51502
-1.55933
-1.27761
-1.28138
-1.28957
-1.305
-1.32751
-1.35638
-1.39067
-1.42931
-1.47158
-1.51865
-1.18182
-1.18844
-1.19906
-1.2154
-1.23821
-1.267
-1.30081
-1.33878
-1.38133
-1.43067
-1.26841
-1.4686
-1.06587
-0.899057
-0.741411
-0.467065
-0.270941
-0.129929
-0.041772
0.000230875
-1.34161
-1.59512
-1.10886
-0.846907
-0.671038
-0.435016
-0.265581
-0.128852
-0.0407689
0.00158359
-1.42657
-1.68894
-1.13976
-0.772043
-0.603037
-0.40552
-0.26012
-0.125655
-0.0376775
0.00461734
-1.52475
-1.75558
-1.16171
-0.688396
-0.537908
-0.384015
-0.257355
-0.122106
-0.0337764
0.00884183
-1.6359
-1.83382
-1.17971
-0.617406
-0.494005
-0.378463
-0.261017
-0.120114
-0.0305423
0.013342
-1.74685
-1.92912
-1.19423
-0.579395
-0.480077
-0.392293
-0.272023
-0.120279
-0.0286869
0.0173295
-1.83336
-2.00879
-1.20559
-0.587517
-0.501815
-0.427332
-0.289596
-0.122646
-0.0282841
0.0203593
-1.86577
-2.04014
-1.22091
-0.646614
-0.559068
-0.479883
-0.312378
-0.127126
-0.0291478
0.0222138
-1.83092
-2.0134
-1.24896
-0.745158
-0.652239
-0.539727
-0.339325
-0.13368
-0.0310885
0.0227798
-1.72706
-1.91999
-1.29066
-0.871527
-0.779046
-0.602444
-0.368626
-0.142317
-0.0339797
0.0220568
-1.0956
-1.02021
-0.865686
-0.886527
-0.752393
-0.456815
-0.240585
-0.106026
-0.0309952
0.00233909
-1.08491
-1.0022
-0.854426
-0.889508
-0.764306
-0.465265
-0.244285
-0.107931
-0.0317505
0.0022113
-1.0949
-1.03667
-0.865917
-0.899683
-0.77351
-0.476136
-0.251093
-0.112051
-0.033487
0.00186758
-1.13188
-1.13256
-0.909584
-0.922521
-0.796958
-0.484781
-0.260125
-0.118346
-0.0362729
0.00118408
-1.19971
-1.30766
-0.986139
-0.915466
-0.771304
-0.484559
-0.26946
-0.126139
-0.0398831
0.000305356
-1.0887
-1.24178
-1.33924
-1.39838
-1.40255
-1.39519
-1.36105
-1.31812
-1.26819
-1.21532
-1.08929
-1.24474
-1.34012
-1.39711
-1.39542
-1.38708
-1.35243
-1.30427
-1.26219
-1.20383
-1.09217
-1.24921
-1.3434
-1.39822
-1.39441
-1.38578
-1.35179
-1.30776
-1.27223
-1.22433
-1.0993
-1.25843
-1.35317
-1.40555
-1.4044
-1.39315
-1.36339
-1.32899
-1.30209
-1.27979
-1.11162
-1.2735
-1.36987
-1.42029
-1.42394
-1.40925
-1.38639
-1.35917
-1.34216
-1.34171
1.57496
1.56101
1.5389
1.5122
1.48198
1.44701
1.40629
1.36171
1.32269
1.30333
1.69537
1.69574
1.6884
1.67557
1.65863
1.63701
1.60999
1.57904
1.55168
1.53865
1.81431
1.82112
1.82229
1.81925
1.81301
1.80305
1.78856
1.77036
1.754
1.74669
1.92092
1.93301
1.94165
1.94735
1.95046
1.95037
1.94622
1.93841
1.93106
1.92869
2.01274
2.02885
2.04274
2.05455
2.06435
2.07154
2.07527
2.07566
2.07553
2.0773
2.08377
2.10251
2.12049
2.13734
2.15271
2.16595
2.1762
2.18324
2.18885
2.19411
2.13346
2.15402
2.17475
2.19492
2.21391
2.23102
2.24544
2.25675
2.26611
2.27373
2.15991
2.18124
2.20338
2.22538
2.24637
2.26562
2.28232
2.29596
2.30734
2.31622
2.16319
2.18434
2.20659
2.22879
2.24998
2.2694
2.28626
2.30003
2.31154
2.32051
2.1435
2.16348
2.18447
2.20526
2.22486
2.24251
2.25742
2.26919
2.27892
2.28679
-0.912054
-0.963783
-1.03158
-1.11616
-1.21853
-1.33826
-1.47208
-1.608
-1.71947
-1.77127
-0.636511
-0.694826
-0.767868
-0.856486
-0.96207
-1.08505
-1.22413
-1.36803
-1.48807
-1.54375
-0.323817
-0.388661
-0.466898
-0.558987
-0.666417
-0.790154
-0.928899
-1.07312
-1.20047
-1.25786
0.00165038
-0.068164
-0.149825
-0.243451
-0.350401
-0.471777
-0.60661
-0.747611
-0.870778
-0.931068
0.31519
0.243559
0.161929
0.0703694
-0.0323862
-0.147674
-0.275025
-0.40792
-0.522909
-0.581357
0.598668
0.530044
0.45322
0.368259
0.273877
0.168584
0.0525825
-0.068308
-0.172562
-0.226343
0.847922
0.786863
0.71911
0.644555
0.561819
0.46934
0.367184
0.260566
0.168765
0.121278
1.0718
1.0202
0.963073
0.900269
0.83024
0.751386
0.663734
0.571936
0.493004
0.452385
1.28014
1.23717
1.18866
1.1358
1.07721
1.01121
0.937684
0.860566
0.794421
0.760754
1.46138
1.42698
1.38571
1.34191
1.29489
1.24268
1.18454
1.12324
1.07054
1.04401
1.90607
1.81589
1.79256
1.78167
1.77537
1.77863
1.78258
1.80112
1.78519
1.71532
1.88887
1.81529
1.79296
1.78343
1.77794
1.78318
1.79089
1.81561
1.82088
1.79691
1.87337
1.8137
1.79253
1.78423
1.7796
1.78642
1.79812
1.83038
1.85571
1.87618
1.85947
1.8113
1.79145
1.78416
1.78039
1.78843
1.8036
1.8416
1.88448
1.94087
1.84698
1.80822
1.78984
1.7833
1.78043
1.78933
1.8072
1.84968
1.90684
1.99242
1.83578
1.80458
1.78776
1.78171
1.7797
1.78908
1.80894
1.85453
1.92257
2.02988
1.82572
1.8005
1.78528
1.77945
1.77822
1.78767
1.80887
1.85616
1.93159
2.0536
1.81671
1.79606
1.78243
1.77658
1.77598
1.78511
1.80705
1.85464
1.934
2.06408
1.80864
1.79137
1.77925
1.77315
1.77303
1.7814
1.8035
1.8501
1.93008
2.06186
1.80141
1.78651
1.77581
1.7692
1.76938
1.77657
1.79825
1.84265
1.92009
2.04711
2.07229
1.8175
1.78381
1.76785
1.76236
1.75988
1.74937
1.747
1.66735
1.61666
1.99788
1.81161
1.78483
1.7709
1.76433
1.76133
1.75025
1.74841
1.66991
1.61122
1.97499
1.81679
1.78857
1.77396
1.76655
1.76376
1.75335
1.75267
1.68128
1.60705
1.94849
1.81673
1.79047
1.77676
1.76914
1.7674
1.76023
1.76274
1.70376
1.6146
1.92555
1.8162
1.79169
1.77929
1.77207
1.77231
1.76904
1.77841
1.73723
1.63644
1.3419
1.21876
1.05383
0.841262
0.584085
0.291645
-0.0216273
-0.335655
-0.628903
-0.882678
1.3356
1.21655
1.05786
0.851296
0.600475
0.312434
-0.000250285
-0.31777
-0.617513
-0.878428
1.3453
1.22337
1.0632
0.859385
0.61364
0.328984
0.0159822
-0.305154
-0.610483
-0.877225
1.37798
1.24216
1.07114
0.86602
0.623523
0.340993
0.026998
-0.297745
-0.608076
-0.880132
1.43625
1.27638
1.08432
0.87131
0.628411
0.347193
0.0331196
-0.294235
-0.609477
-0.887543
)
;

boundaryField
{
    left
    {
        type            zeroGradient;
    }
    right
    {
        type            fixedValue;
        value           uniform 0;
    }
    down
    {
        type            zeroGradient;
    }
    up
    {
        type            zeroGradient;
    }
    cylinder
    {
        type            zeroGradient;
    }
    defaultFaces
    {
        type            empty;
    }
}


// ************************************************************************* //
