/*--------------------------------*- C++ -*----------------------------------*\
  =========                 |
  \\      /  F ield         | OpenFOAM: The Open Source CFD Toolbox
   \\    /   O peration     | Website:  https://openfoam.org
    \\  /    A nd           | Version:  13
     \\/     M anipulation  |
\*---------------------------------------------------------------------------*/
FoamFile
{
    format      ascii;
    class       surfaceScalarField;
    location    "4.6";
    object      phi;
}
// * * * * * * * * * * * * * * * * * * * * * * * * * * * * * * * * * * * * * //

dimensions      [0 3 -1 0 0 0 0];

internalField   nonuniform List<scalar> 
3485
(
-0.000997493
0.00308152
-0.00208402
-0.00242062
0.0065429
-0.00511978
-0.00285545
0.00773432
-0.00729949
-0.00101498
0.00687331
-0.00871378
0.00428841
0.00403765
-0.00934104
0.014127
-0.000739639
-0.00909893
0.0297005
-0.00770137
-0.00787214
0.051785
-0.0164918
-0.00559272
0.0804779
-0.0264744
-0.00221849
-0.0307049
0.0008119
0.110371
-0.000487334
0.00356885
-0.000417545
0.00647311
0.00154728
0.0057695
0.00674073
0.00167985
0.0164333
-0.00565491
0.0317534
-0.0160597
0.0532501
-0.029198
0.0812329
-0.0444747
0.115806
-0.0610477
-0.0721878
0.157289
0.000175186
0.00339366
0.00216599
0.00448231
0.00743085
0.000504638
0.0174168
-0.00830606
0.0332332
-0.0214714
0.0554162
-0.0382427
0.0836509
-0.0574327
0.116808
-0.0776322
0.15345
-0.0976888
-0.114073
0.195335
0.000734374
0.00265929
0.00479617
0.000420514
0.0139276
-0.00862676
0.0294063
-0.0237848
0.0517623
-0.0438274
0.0803516
-0.066832
0.113455
-0.0905362
0.148704
-0.112881
0.183452
-0.132437
-0.148091
0.21747
0.00155158
0.00110771
0.00824542
-0.00627332
0.0217905
-0.0221719
0.0428635
-0.0448578
0.0705518
-0.0715157
0.102466
-0.0987467
0.135507
-0.123577
0.166737
-0.14411
0.193953
-0.159653
-0.170692
0.216554
0.00265776
-0.00155005
0.0124237
-0.0160393
0.0303962
-0.0401444
0.0557222
-0.0701837
0.0855191
-0.101313
0.115996
-0.129224
0.143818
-0.151398
0.166909
-0.167202
0.184629
-0.177374
-0.183274
0.197211
0.00394417
-0.00549422
0.0167699
-0.028865
0.0380839
-0.0614584
0.0648865
-0.0969863
0.0927564
-0.129182
0.117858
-0.154325
0.138069
-0.171609
0.153034
-0.182168
0.163526
-0.187866
-0.190566
0.170819
0.00524068
-0.0107349
0.0204473
-0.0440716
0.043035
-0.0840461
0.0681396
-0.122091
0.0911679
-0.152211
0.109555
-0.172713
0.122845
-0.184899
0.131867
-0.19119
0.137862
-0.19386
-0.194507
0.141803
0.0063187
-0.0170536
0.0226751
-0.060428
0.0442347
-0.105606
0.0654329
-0.143289
0.0827376
-0.169516
0.0951433
-0.185119
0.103279
-0.193034
0.10835
-0.196261
0.111442
-0.196953
-0.196318
0.113253
0.00698394
-0.0240375
0.023048
-0.0764921
0.0418351
-0.124393
0.058297
-0.159751
0.0702977
-0.181516
0.0779303
-0.192751
0.0822682
-0.197372
0.0844781
-0.198471
0.0854155
-0.19789
0.0855289
-0.196431
-0.0038254
-0.00910213
0.0129275
-0.0123548
-0.0155017
0.0240311
-0.0233209
-0.0169545
0.0279205
-0.0353016
-0.0170552
0.0290359
-0.047543
-0.0171338
0.0293751
-0.0596949
-0.0173273
0.0294793
-0.0715904
-0.0174237
0.0293192
-0.0831204
-0.0172333
0.0287633
-0.0942007
-0.0166506
0.0277309
-0.0157159
-0.104865
0.0263804
-0.00455374
-0.00454839
-0.0140153
-0.00604019
-0.0259795
-0.0049902
-0.0391708
-0.00386393
-0.0529282
-0.00337632
-0.0668818
-0.00337379
-0.0807981
-0.00350743
-0.0945004
-0.00353088
-0.107859
-0.00329164
-0.00265609
-0.120919
-0.00366254
-0.000885849
-0.0113176
0.0016149
-0.0213425
0.00503468
-0.0328793
0.00767288
-0.0453724
0.00911675
-0.0583969
0.00965066
-0.071618
0.00971374
-0.0847761
0.0096272
-0.097642
0.00957429
0.00981871
-0.110117
-0.00190965
0.0010238
-0.00600967
0.00571492
-0.0117869
0.0108119
-0.019091
0.014977
-0.0276796
0.0177054
-0.0371514
0.0191225
-0.0470534
0.0196157
-0.0569883
0.0195621
-0.066637
0.019223
0.0188535
-0.0756717
-0.000204822
0.00122862
-0.000582344
0.00609245
-0.00148651
0.0117161
-0.00335426
0.0168447
-0.00640291
0.020754
-0.0105309
0.0232504
-0.0153906
0.0244755
-0.0205251
0.0246965
-0.0254728
0.0241707
0.0230702
-0.0296895
0.000677496
0.000551124
0.00250507
0.00426488
0.00498811
0.00923302
0.00752563
0.0143072
0.00960509
0.0186745
0.0109627
0.0218928
0.0116128
0.0238254
0.0117927
0.0245166
0.0119113
0.0240521
0.0223529
0.0126286
0.000657746
-0.000106622
0.00270219
0.00222043
0.00593285
0.00600236
0.00996534
0.0102747
0.0143367
0.0143032
0.0186482
0.0175813
0.0226585
0.0198151
0.0263225
0.0208526
0.0298265
0.0205481
0.0184434
0.033736
7.71335e-05
-0.000183755
0.000842158
0.00145541
0.00256786
0.00427667
0.0052394
0.00760319
0.00863595
0.0109066
0.0124507
0.0137665
0.0164067
0.0158591
0.0203602
0.0168992
0.0244391
0.0164692
0.0137237
0.0291588
-0.000778342
0.000594587
-0.00191658
0.00259365
-0.00264667
0.00500676
-0.00258028
0.0075368
-0.00160289
0.00992924
0.000228205
0.0119354
0.00277763
0.0133096
0.00593168
0.0137451
0.0097172
0.0126837
0.00890539
0.0145356
-0.00148944
-0.00401557
-0.00630829
-0.00748527
-0.00689708
-0.00406059
0.00137691
0.00952931
0.0199945
0.0297118
-0.137591
-0.119121
0.151847
-0.10532
0.362149
-0.39442
-0.0985038
0.826662
-0.833478
-0.0486084
0.531066
-0.580962
0.0476285
-0.0165501
-0.0796867
0.114158
-0.338792
0.272263
0.164385
-0.505071
0.454844
0.196443
-0.460902
0.428844
0.214002
-0.431928
0.414369
-0.288332
0.279905
-0.169305
-0.0707353
-0.137259
0.330103
-0.0934883
0.782891
-0.0209694
0.458547
0.0756021
-0.113122
0.143639
-0.406829
0.189948
-0.551381
0.218426
-0.48938
0.231077
-0.44458
-0.292963
-0.171004
-0.00984825
-0.144827
0.303927
-0.0636073
0.701671
0.0247367
0.370203
0.109717
-0.198102
0.175225
-0.472337
0.216035
-0.59219
0.239918
-0.513262
0.247543
-0.452205
-0.293861
-0.137444
0.0519239
-0.122782
0.289265
-0.0229173
0.601806
0.0747272
0.272559
0.147848
-0.271223
0.20742
-0.531909
0.241657
-0.626427
0.260249
-0.531854
0.262943
-0.454899
-0.291209
-0.0757356
0.09797
-0.0706787
0.284208
0.026344
0.504784
0.122317
0.176586
0.18654
-0.335446
0.238455
-0.583824
0.265766
-0.653738
0.278865
-0.544954
0.276886
-0.452919
-0.285283
-0.00455332
0.115152
0.00126438
0.278391
0.0833757
0.422672
0.167447
0.0925144
0.223171
-0.39117
0.266761
-0.627415
0.287463
-0.674439
0.295311
-0.552802
0.289061
-0.446669
-0.276427
0.0578826
0.0910053
0.077297
0.258976
0.140826
0.359144
0.208722
0.0246179
0.255894
-0.438341
0.291246
-0.662766
0.306071
-0.689264
0.309264
-0.555996
0.29918
-0.436585
-0.265091
0.0905298
0.0296343
0.138473
0.211033
0.190474
0.307142
0.244223
-0.0291303
0.283299
-0.477418
0.31112
-0.690588
0.321086
-0.69923
0.320509
-0.555418
0.307096
-0.423172
-0.25176
0.0956498
-0.0514799
0.173735
0.132948
0.226128
0.254749
0.272295
-0.0752979
0.304649
-0.509771
0.325952
-0.711891
0.332272
-0.705549
0.328926
-0.552073
0.312742
-0.406988
-0.236915
0.0943557
-0.116124
0.180628
0.0466755
0.2468
0.188577
0.293464
-0.121962
0.319294
-0.535601
0.335937
-0.728534
0.339959
-0.709572
0.334649
-0.546763
0.316172
-0.388511
-0.220993
0.351661
-0.115684
-0.352101
0.394264
0.0040726
0.524372
0.0584693
0.652764
-0.250354
0.698047
-0.580884
0.683412
-0.713899
0.63326
-0.659419
0.573677
-0.487181
0.506502
-0.321336
-0.173845
0.600127
-0.108501
-0.607309
0.608141
-0.00394165
0.701841
-0.0352308
0.771623
-0.320137
0.758931
-0.568192
0.706737
-0.661704
0.639245
-0.591928
0.570561
-0.418496
0.499166
-0.249941
-0.125086
0.69601
-0.0976855
-0.706826
0.725401
-0.0333326
0.788923
-0.0987523
0.792691
-0.323905
0.749941
-0.525442
0.698938
-0.610701
0.634959
-0.527949
0.564248
-0.347785
0.49004
-0.175733
-0.074852
0.721583
-0.0915964
-0.727673
0.756909
-0.068658
0.787905
-0.129748
0.777339
-0.313339
0.74948
-0.497582
0.697734
-0.558955
0.619235
-0.44945
0.53678
-0.265331
0.459741
-0.098694
-0.0267744
0.724016
-0.0921969
-0.723416
0.749095
-0.0937364
0.765636
-0.14629
0.761649
-0.309352
0.728495
-0.464429
0.652556
-0.483016
0.557578
-0.354473
0.474262
-0.182015
0.407516
-0.0319483
0.0113022
0.719441
-0.0963365
-0.715301
0.733469
-0.107765
0.743855
-0.156675
0.734289
-0.299786
0.677454
-0.407594
0.574923
-0.380485
0.469322
-0.248871
0.389837
-0.10253
0.338125
0.0197638
0.0358929
0.708655
-0.0979611
-0.707031
0.71123
-0.11034
0.711078
-0.156523
0.672548
-0.261257
0.568932
-0.303977
0.436792
-0.248345
0.332414
-0.144494
0.272391
-0.0425066
0.249104
0.0430509
0.0416211
0.668906
-0.0851345
-0.681733
0.654313
-0.0957461
0.624805
-0.127015
0.53045
-0.166901
0.384599
-0.158127
0.253304
-0.117049
0.175591
-0.0667809
0.146487
-0.0134027
0.153187
0.0363512
0.0304488
0.533862
-0.049284
-0.569712
0.490192
-0.0520759
0.412648
-0.0494716
0.287572
-0.0418248
0.165181
-0.0357358
0.0833107
-0.0351796
0.0421789
-0.025649
0.035424
-0.00664787
0.0573234
0.0144518
0.0122878
0.208747
-0.258031
0.156671
0.1072
0.0653749
0.0296391
-0.00554049
-0.0311895
-0.0378374
-0.0233856
0.539368
0.0742961
-0.528136
0.551544
0.101077
0.566514
0.126832
0.58174
0.155593
0.596739
0.182212
0.605572
0.207722
0.59129
0.231752
0.549116
0.237508
0.453201
0.253204
0.211471
0.520859
0.062851
-0.509414
0.535296
0.0866404
0.551827
0.110302
0.573467
0.133953
0.594149
0.16153
0.620282
0.181589
0.637278
0.214756
0.649911
0.224875
0.64412
0.258995
0.248283
0.507211
0.0527426
-0.497103
0.521973
0.071879
0.537809
0.0944661
0.558983
0.112778
0.581229
0.139284
0.607476
0.155342
0.636849
0.185382
0.663496
0.198228
0.695293
0.227198
0.236749
0.497777
0.0428989
-0.487934
0.511556
0.0580998
0.527674
0.0783487
0.546842
0.09361
0.57034
0.115786
0.59481
0.130872
0.626958
0.153234
0.656659
0.168526
0.695429
0.188429
0.204505
0.490295
0.0327754
-0.480171
0.503026
0.0453678
0.519564
0.0618116
0.537907
0.0752661
0.561521
0.0921724
0.586045
0.106349
0.616916
0.122363
0.648277
0.137166
0.685498
0.151208
0.166587
0.483056
0.0226863
-0.472967
0.495406
0.0330171
0.511853
0.045365
0.530423
0.0566964
0.553544
0.069051
0.578817
0.0810761
0.608514
0.0926662
0.640676
0.105003
0.676503
0.115381
0.127789
0.472986
0.0130677
-0.463367
0.485303
0.0207
0.50139
0.0292777
0.520409
0.0376778
0.543232
0.0462275
0.569204
0.0551043
0.598739
0.0631309
0.631576
0.0721669
0.667675
0.0792817
0.0884332
0.448806
0.00460702
-0.440346
0.460375
0.00913113
0.475494
0.014159
0.494083
0.0190891
0.516225
0.0240852
0.542121
0.0292076
0.571468
0.0337848
0.60468
0.038955
0.641265
0.0426967
0.0479649
0.378227
-0.000625561
-0.372995
0.386323
0.00103542
0.397641
0.00284046
0.412146
0.00458416
0.429948
0.00628374
0.451175
0.00798053
0.475559
0.0094006
0.503595
0.010919
0.534451
0.0118406
0.0127038
0.190443
-0.191069
0.191478
0.194319
0.198903
0.205187
0.213167
0.222568
0.233487
0.245327
0.0708568
0.144685
-0.133155
-0.0823866
0.0602327
0.14687
-0.136246
0.050412
0.149472
-0.139651
0.0408936
0.152919
-0.1434
0.0314426
0.15657
-0.147119
0.0221588
0.159299
-0.150015
0.0134784
0.158417
-0.149736
0.00622134
0.148084
-0.140826
0.00146272
0.118191
-0.113432
0.0553706
-0.0539079
0.0666248
0.155028
-0.076968
0.0564248
0.15707
0.0465537
0.159343
0.0370347
0.162438
0.0277871
0.165817
0.0189346
0.168151
0.0109422
0.166409
0.00460763
0.154418
0.0008364
0.121962
0.056207
0.0586673
0.16412
-0.0677598
0.0492982
0.166439
0.0400463
0.168595
0.0311004
0.171384
0.0225183
0.174399
0.0144846
0.176185
0.0075032
0.17339
0.00240051
0.159521
-3.52225e-05
0.124398
0.0561718
0.0471627
0.171949
-0.0549919
0.0390225
0.174579
0.0308347
0.176783
0.0228485
0.17937
0.0152561
0.181992
0.00838562
0.183055
0.00278824
0.178988
-0.000599008
0.162908
-0.00114067
0.12494
0.0550311
0.0334658
0.178661
-0.0401777
0.0265701
0.181475
0.01959
0.183763
0.0127693
0.186191
0.00639465
0.188366
0.000913288
0.188537
-0.0027835
0.182685
-0.003929
0.164054
-0.00239729
0.123408
0.0526339
0.0179147
0.184296
-0.023549
0.0122285
0.187161
0.00653011
0.189461
0.00104913
0.191672
-0.00382585
0.193241
-0.00745523
0.192166
-0.00903394
0.184263
-0.00771544
0.162735
-0.00370567
0.119398
0.0489282
0.00106894
0.189076
-0.00584942
-0.00352783
0.191758
-0.00798387
0.193917
-0.012062
0.19575
-0.0152903
0.19647
-0.0169057
0.193781
-0.0159142
0.183272
-0.0116405
0.158461
-0.00494783
0.112706
0.0439804
-0.0178391
0.192683
0.0142325
-0.0211939
0.195113
-0.0242711
0.196994
-0.0267606
0.198239
-0.0280433
0.197752
-0.0271762
0.192914
-0.0231232
0.179219
-0.0155029
0.150841
-0.00601834
0.103221
0.037962
-0.038453
0.195177
0.0359584
-0.0405593
0.197219
-0.042167
0.198602
-0.0428429
0.198915
-0.0417942
0.196704
-0.037931
0.189051
-0.030283
0.171571
-0.0189844
0.139543
-0.0067868
0.0910234
0.0311752
-0.061129
0.0598752
-0.0618005
-0.0616692
-0.060126
-0.0561733
-0.0486386
-0.0368187
-0.021669
-0.00713768
0.110727
0.0353726
-0.123013
-0.0230869
0.09815
0.0363832
-0.0238062
0.0852696
0.0374859
-0.0246054
0.0720592
0.0386608
-0.0254504
0.0585001
0.0398903
-0.0263312
0.0446163
0.0410481
-0.0271643
0.030594
0.0416376
-0.0276153
0.0170839
0.0402439
-0.0267339
0.00575449
0.0338104
-0.022481
0.0171968
-0.0114423
0.108969
0.0475691
-0.121166
0.0965548
0.0487979
0.0838519
0.0501888
0.0708296
0.051683
0.057462
0.0532579
0.0437709
0.0547392
0.0299515
0.055457
0.0166681
0.0535273
0.00558071
0.0448978
0.0227775
0.106906
0.0595846
-0.118922
0.0946192
0.0610848
0.0820685
0.0627394
0.0692279
0.0645236
0.056076
0.0664098
0.0426333
0.068182
0.0290943
0.068996
0.0161261
0.0664955
0.00536349
0.0556604
0.028141
0.104331
0.0715583
-0.116305
0.0922275
0.0731885
0.0798589
0.075108
0.0672007
0.0771818
0.0542481
0.0793624
0.041054
0.0813762
0.0278454
0.0822045
0.0153036
0.0790374
0.00501986
0.0659441
0.0331608
0.101313
0.0832853
-0.11304
0.0894372
0.085064
0.0773853
0.0871599
0.0650899
0.0894773
0.0525025
0.0919497
0.0396554
0.0942233
0.026794
0.0950659
0.0146355
0.0911959
0.0047612
0.0758184
0.037922
0.0972669
0.0950146
-0.108996
0.0855306
0.0968003
0.0736291
0.0990614
0.0615718
0.101535
0.0493517
0.10417
0.0370025
0.106572
0.0247585
0.10731
0.0133259
0.102628
0.00422272
0.0849216
0.0421447
0.0930068
0.106129
-0.104121
0.0818956
0.107911
0.0705948
0.110362
0.0590107
0.113119
0.0471528
0.116028
0.0351392
0.118586
0.0232925
0.119157
0.0123698
0.113551
0.00384204
0.0934493
0.0459868
0.0856728
0.117025
-0.0965692
0.0749757
0.118609
0.0643114
0.121026
0.053564
0.123866
0.0426312
0.126961
0.0315548
0.129662
0.0206576
0.130054
0.0107287
0.12348
0.00319051
0.100988
0.0491773
0.0806663
0.126273
-0.0899138
0.0710391
0.128236
0.0608572
0.131208
0.0503356
0.134388
0.0396396
0.137657
0.028934
0.140368
0.0185894
0.140398
0.00939863
0.132671
0.00267356
0.107713
0.0518509
0.0698447
-0.076727
0.0618346
0.053392
0.0443793
0.0349172
0.0252703
0.0159325
0.00777694
0.00205706
0.201838
0.00332274
-0.00717059
0.20539
0.0225774
-0.0261292
0.209693
0.0289444
-0.0332479
0.212482
0.0440686
-0.0468574
0.214597
0.0566079
-0.0587234
0.213673
0.0742684
-0.0733435
0.208972
0.0929094
-0.0882085
0.197853
0.116246
-0.105127
0.173288
0.164536
-0.139971
0.225384
-0.175108
0.201555
-0.000242432
0.204507
0.0196252
0.208792
0.024659
0.210882
0.0419793
0.21308
0.0544096
0.211303
0.0760453
0.206709
0.0975037
0.194822
0.128133
0.17017
0.189188
0.274388
0.201224
-0.00347621
0.203508
0.017341
0.20768
0.0204871
0.208965
0.0406939
0.211156
0.0522185
0.208325
0.0788766
0.203869
0.10196
0.19077
0.141232
0.166578
0.21338
0.322044
0.20082
-0.00630661
0.202393
0.0157686
0.206334
0.0165458
0.20674
0.040288
0.208814
0.0501447
0.204778
0.0829124
0.200482
0.106256
0.185811
0.155903
0.162531
0.23666
0.36827
0.20033
-0.00864661
0.201159
0.0149399
0.204736
0.0129678
0.20422
0.0408042
0.206027
0.0483381
0.200699
0.0882402
0.196488
0.110467
0.180068
0.172322
0.157949
0.258779
0.413179
0.19974
-0.0103964
0.199802
0.0148773
0.202875
0.00989534
0.201421
0.0422579
0.202788
0.0469712
0.196106
0.0949224
0.191896
0.114677
0.173368
0.19085
0.153026
0.279121
0.457209
0.199041
-0.011448
0.198324
0.0155948
0.200741
0.0074779
0.198367
0.044632
0.199074
0.0462639
0.191088
0.102909
0.186527
0.119238
0.166196
0.211181
0.147203
0.298114
0.500291
0.198235
-0.0116937
0.196726
0.0171045
0.198339
0.00586459
0.195075
0.0478964
0.194893
0.0464456
0.185642
0.11216
0.180508
0.124372
0.157833
0.233857
0.14108
0.314867
0.544802
0.197335
-0.0110393
0.195008
0.0194323
0.195682
0.00518994
0.191556
0.0520232
0.190205
0.0477961
0.179894
0.12247
0.173772
0.130495
0.15066
0.256968
0.134313
0.331215
0.5892
0.196392
-0.00944117
0.193124
0.0227002
0.192856
0.00545747
0.187711
0.0571681
0.184965
0.0505425
0.173222
0.134213
0.165159
0.138558
0.140126
0.282002
0.127545
0.343796
0.640018
0.305917
-0.0133484
0.307466
0.0211513
0.31613
-0.00320595
0.318334
0.0549635
0.329603
0.0392741
0.328942
0.134874
0.346557
0.120943
0.34991
0.27865
0.398311
0.295395
0.57175
0.466579
0.306155
-0.0174929
0.308822
0.0184844
0.318193
-0.0125775
0.322354
0.0508025
0.334611
0.0270172
0.337664
0.131821
0.356866
0.10174
0.369779
0.265736
0.413886
0.251288
0.506499
0.479137
0.306056
-0.0215382
0.311038
0.0135023
0.320123
-0.0216633
0.327405
0.0435205
0.339053
0.0153694
0.346739
0.124135
0.365823
0.0826564
0.385329
0.24623
0.424326
0.212291
0.436622
0.494203
0.305911
-0.0254389
0.314392
0.00502078
0.322358
-0.0296288
0.333293
0.0325853
0.342454
0.0062086
0.354986
0.111603
0.372467
0.0651755
0.397425
0.221272
0.434935
0.17478
0.365671
0.505886
0.306366
-0.0297949
0.318496
-0.00710871
0.326007
-0.03714
0.339592
0.0190001
0.346762
-0.000960904
0.364355
0.0940098
0.379657
0.049873
0.40997
0.19096
0.441673
0.143077
0.29759
0.509753
0.307861
-0.0356458
0.323557
-0.0228048
0.330668
-0.0442513
0.345783
0.00388512
0.35207
-0.00724792
0.37301
0.0730706
0.385936
0.036947
0.419347
0.157548
0.447297
0.115127
0.233178
0.51171
0.311014
-0.04465
0.328739
-0.0405294
0.335099
-0.0506108
0.350126
-0.011142
0.354535
-0.0116573
0.377368
0.0502379
0.387237
0.0270782
0.423741
0.121044
0.450375
0.0884937
0.172143
0.511409
0.314507
-0.0571471
0.329452
-0.0554743
0.331264
-0.052423
0.341261
-0.0211383
0.341578
-0.0119749
0.36294
0.0288762
0.370402
0.0196161
0.410782
0.0806632
0.439237
0.0600395
0.110565
0.500815
0.30775
-0.0628874
0.303801
-0.0515246
0.289916
-0.038538
0.285081
-0.0163035
0.279478
-0.00637248
0.295867
0.0124878
0.304942
0.0105413
0.349472
0.0361333
0.382267
0.0272439
0.0463568
0.446475
0.239123
0.187598
0.14906
0.132757
0.126384
0.138872
0.149413
0.185547
0.212791
0.259147
0.479269
-0.0950767
0.48373
-0.0814291
0.487068
-0.0710982
0.490306
-0.0582301
0.494679
-0.0445498
0.499334
-0.0282049
0.505022
-0.0115374
0.511309
0.00794628
0.519392
0.0278752
0.0511314
0.480006
-0.0959451
0.480613
-0.0820366
0.480593
-0.0710776
0.480743
-0.0583807
0.482072
-0.0458782
0.484184
-0.0303176
0.488198
-0.0155509
0.493385
0.0027591
0.500593
0.0206671
0.0423105
0.487854
-0.0895963
0.484202
-0.078384
0.480763
-0.0676391
0.478267
-0.0558839
0.476669
-0.0442804
0.477145
-0.0307941
0.478725
-0.0171303
0.482751
-0.00126731
0.488199
0.0152189
0.0334069
0.495055
-0.0787652
0.486844
-0.0701724
0.480356
-0.0611512
0.47597
-0.0514978
0.472499
-0.0408096
0.471586
-0.0298808
0.471699
-0.0172438
0.475004
-0.00457203
0.479575
0.0106475
0.0250486
0.497819
-0.0668309
0.487817
-0.0601704
0.47954
-0.0528742
0.473428
-0.0453859
0.468893
-0.0362742
0.466659
-0.027647
0.466193
-0.0167779
0.468424
-0.00680317
0.472847
0.00622429
0.0177251
0.498814
-0.0539351
0.487541
-0.0488975
0.478066
-0.0433997
0.470545
-0.0378642
0.465154
-0.0308838
0.46182
-0.0243122
0.460898
-0.015856
0.462186
-0.00809186
0.466393
0.00201755
0.0111515
0.497313
-0.0398388
0.48478
-0.0363643
0.474131
-0.0327512
0.465415
-0.0291477
0.459058
-0.0245273
0.454763
-0.0200169
0.45309
-0.0141825
0.453645
-0.00864697
0.457244
-0.00158214
0.0050288
0.485098
-0.0241218
0.471189
-0.0224554
0.45929
-0.0208525
0.449362
-0.0192196
0.441778
-0.0169432
0.436281
-0.01452
0.433383
-0.0112847
0.432774
-0.00803721
0.435183
-0.00399183
-0.000133339
0.430876
-0.00852255
0.417058
-0.00863733
0.404912
-0.00870629
0.394321
-0.00862856
0.38555
-0.00817289
0.378523
-0.0074926
0.37368
-0.00644175
0.37093
-0.00528714
0.370772
-0.00383344
-0.00235633
0.250625
0.241988
0.233281
0.224653
0.21648
0.208987
0.202545
0.197258
0.193425
0.00794929
0.0481239
-0.0560731
0.0184392
0.125019
-0.135509
0.0251859
0.175024
-0.181771
0.0273923
0.200918
-0.203124
0.0263195
0.211236
-0.210163
0.0233764
0.213234
-0.210291
0.0195323
0.210945
-0.207101
0.015409
0.205478
-0.201355
0.0116008
0.195504
-0.191696
0.177289
0.00875186
-0.17444
0.00948332
0.0386405
0.0246633
0.109839
0.0370471
0.16264
0.0442998
0.193665
0.0472458
0.208289
0.0474425
0.213037
0.0461036
0.212284
0.0438989
0.207683
0.0410266
0.198376
0.181071
0.0372445
0.0100767
0.0285638
0.029273
0.0906425
0.0476713
0.144242
0.0608855
0.180451
0.0687483
0.200427
0.0726852
0.2091
0.0741076
0.210862
0.0737757
0.208015
0.0716923
0.200459
0.185952
0.0668106
0.00960157
0.0189623
0.0311961
0.0690479
0.0552522
0.120186
0.0751986
0.160505
0.0891022
0.186523
0.0977613
0.200441
0.102663
0.205961
0.104854
0.205823
0.104348
0.200965
0.190154
0.100147
0.00820909
0.0107532
0.0297654
0.0474916
0.0577836
0.0921678
0.0845868
0.133702
0.105855
0.165255
0.120793
0.185503
0.130472
0.196282
0.136167
0.200128
0.138451
0.198681
0.192788
0.135817
0.00627238
0.0044808
0.0252444
0.0285196
0.0538874
0.0635248
0.085738
0.101851
0.114805
0.136188
0.137843
0.162465
0.154268
0.179856
0.164943
0.189454
0.170795
0.192829
0.191593
0.171991
0.00425911
0.000221692
0.0190054
0.0137734
0.0444298
0.0381003
0.0771375
0.0691433
0.111735
0.10159
0.143422
0.130777
0.169315
0.153964
0.18855
0.170219
0.201627
0.179751
0.185128
0.208092
0.00254086
-0.00231917
0.0126971
0.00361715
0.0323237
0.0184736
0.0609951
0.0404719
0.0957525
0.0668329
0.132362
0.094168
0.166881
0.119445
0.196242
0.140857
0.219442
0.156551
0.168022
0.236548
0.00123928
-0.00355844
0.00740815
-0.00255172
0.0207036
0.00517815
0.0423389
0.0188366
0.0718298
0.0373421
0.107001
0.0589964
0.144755
0.0816912
0.182022
0.10359
0.215071
0.123503
0.136145
0.246948
0.000328467
-0.00388691
0.00343227
-0.00565552
0.0112823
-0.00267185
0.0254937
0.00462514
0.0469251
0.0159107
0.0753033
0.0306182
0.109188
0.0478063
0.146596
0.066182
0.184686
0.0854127
0.101606
0.219225
-0.000303201
-0.00358371
0.00071862
-0.00667734
0.00462929
-0.00658251
0.0128228
-0.00356835
0.0264516
0.0022819
0.0461992
0.0108706
0.0720937
0.0219118
0.103378
0.0348979
0.13941
0.0493807
0.068643
0.172373
-0.000587526
-0.00299619
-0.000614293
-0.00665057
0.00106265
-0.00825946
0.00534163
-0.00784734
0.013044
-0.00542049
0.0248589
-0.000944327
0.0413255
0.00544521
0.0624302
0.0137932
0.0876078
0.0242031
0.039684
0.116567
-0.000411488
-0.0025847
-0.000244446
-0.00681762
0.00111611
-0.00962002
0.00394505
-0.0106763
0.00847226
-0.0099477
0.0150214
-0.00749345
0.0238274
-0.00336085
0.0351287
0.00249192
0.0490301
0.0103017
0.0209537
0.0677604
0.000493724
-0.00307842
0.00247983
-0.00880372
0.0059029
-0.0130431
0.0104708
-0.0152442
0.0159311
-0.0154079
0.0222032
-0.0137656
0.0294164
-0.010574
0.0379128
-0.00600449
0.048364
-0.000149517
0.00738927
0.0619285
0.00178583
-0.00486425
0.0063273
-0.0133452
0.0127351
-0.0194509
0.0202765
-0.0227856
0.0285225
-0.0236539
0.0373299
-0.022573
0.046783
-0.0200271
0.0571578
-0.0163792
0.068849
-0.0118407
-0.00623911
0.0824774
0.00294873
-0.00781297
0.00932256
-0.019719
0.0173806
-0.027509
0.0261458
-0.0315508
0.0352621
-0.0327702
0.0447457
-0.0320566
0.0547843
-0.0300657
0.065625
-0.0272199
0.0775391
-0.0237548
-0.019565
0.090865
0.00342478
-0.0112378
0.00971068
-0.0260049
0.0166817
-0.0344801
0.0235412
-0.0384103
0.0302762
-0.0395051
0.0371765
-0.0389569
0.0445558
-0.037445
0.0526401
-0.0353042
0.0615593
-0.032674
-0.0296041
0.0715984
0.00268411
-0.0139219
0.00641835
-0.0297392
0.00950235
-0.0375641
0.0117724
-0.0406803
0.0136831
-0.0414158
0.0157244
-0.0409983
0.018215
-0.0399356
0.0212975
-0.0383867
0.0250036
-0.0363802
-0.0339908
0.0293903
0.000771142
-0.014693
0.000250926
-0.029219
-0.00200284
-0.0353103
-0.00526736
-0.0374158
-0.00877487
-0.0379083
-0.0120257
-0.0377475
-0.0148021
-0.0371592
-0.0170711
-0.0361176
-0.0188875
-0.0345637
-0.0326417
-0.0202366
-0.00176548
-0.0069533
-0.0143431
-0.022723
-0.0312561
-0.0395243
-0.0473643
-0.0547187
-0.0615515
-0.0678128
0.234201
0.188742
-0.25057
0.20621
0.616272
-0.58828
0.132088
0.671272
-0.597151
0.0963999
0.346649
-0.31096
0.102709
-0.0282622
0.0219527
0.107644
-0.185088
0.180154
0.11632
-0.188765
0.180089
0.135549
-0.15763
0.138401
0.161091
-0.134948
0.109407
-0.080008
0.0606813
0.194225
0.111083
0.21015
0.600347
0.152831
0.728592
0.125509
0.37397
0.119647
-0.0223999
0.10396
-0.169402
0.104731
-0.189536
0.123269
-0.176168
0.152091
-0.16377
-0.102537
0.162247
0.0165968
0.206255
0.556338
0.164224
0.770623
0.142024
0.39617
0.117245
0.00237893
0.0861349
-0.138291
0.0866309
-0.190032
0.108067
-0.197605
0.140845
-0.196547
-0.128305
0.15195
-0.0734249
0.192792
0.515497
0.166005
0.79741
0.14165
0.420524
0.098172
0.0458574
0.0631376
-0.103257
0.0723059
-0.1992
0.0985671
-0.223866
0.134112
-0.232092
-0.155858
0.146256
-0.137204
0.168372
0.493381
0.156061
0.809722
0.123941
0.452644
0.0685627
0.101236
0.0447375
-0.0794317
0.0676605
-0.222123
0.0982783
-0.254484
0.134445
-0.268259
-0.183223
0.124085
-0.170424
0.134171
0.483295
0.132371
0.811521
0.0907646
0.494251
0.0370631
0.154937
0.036753
-0.0791216
0.0722561
-0.257626
0.105642
-0.287869
0.140705
-0.303322
-0.2089
0.0828617
-0.181687
0.0921808
0.473975
0.0945924
0.80911
0.0483766
0.540467
0.0130161
0.190298
0.0392435
-0.105349
0.0831582
-0.301541
0.118173
-0.322884
0.151044
-0.336193
-0.231937
0.0286765
-0.180973
0.0466879
0.455964
0.0459702
0.809828
0.00508154
0.581356
0.00288397
0.192495
0.0496904
-0.152155
0.0987384
-0.350589
0.134545
-0.358691
0.1644
-0.366048
-0.251661
-0.0298514
-0.171359
0.000742458
0.42537
-0.011555
0.822125
-0.0286692
0.59847
0.00872308
0.155103
0.0660792
-0.209511
0.118077
-0.402587
0.153758
-0.394373
0.179972
-0.392261
-0.267683
-0.0873243
-0.0563745
-0.0677278
-0.0502199
0.0251963
0.0879475
0.140205
0.174676
0.196784
0.0333085
0.0416293
-0.0749378
-0.00443413
0.0377426
-0.0305255
0.0260913
-0.0539232
0.0233977
-0.0594017
0.00547846
-0.033997
-0.0254047
-0.0057604
-0.0282366
0.0136938
-0.0194542
0.0267849
-0.0130911
-0.00629747
0.173579
0.140597
-0.272546
0.0517029
0.159618
-0.0359659
0.11376
-0.078831
0.0662628
-0.0704317
-0.00292088
-0.022555
-0.0732813
0.0238194
-0.074611
0.0562809
-0.0519157
0.0795227
-0.036333
-0.0181268
0.329317
0.233988
-0.422708
0.158908
0.330027
0.0124631
0.260206
-0.0487381
0.127464
-0.0298189
-0.0218401
0.0198556
-0.122956
0.064945
-0.1197
0.0975251
-0.0844958
0.122542
-0.0613499
-0.0318077
0.431765
0.276502
-0.47428
0.265044
0.496748
0.0880182
0.437232
0.0100951
0.205387
0.0251013
-0.0368463
0.0644061
-0.162261
0.100719
-0.156013
0.129427
-0.113204
0.153231
-0.0851534
-0.0456595
0.448909
-0.422977
0.357377
0.197458
0.0918846
0.076991
0.0948841
0.11896
0.144156
0.16841
0.0122858
-8.97464e-05
-0.012196
0.0139738
-0.001688
0.0170888
-0.00311497
0.0215353
-0.0044465
0.0279944
-0.00645915
0.0346524
-0.00665803
0.0442501
-0.00959768
0.0529749
-0.00872478
0.064832
-0.0118571
-0.0101058
0.0337741
-0.000720945
-0.0331429
0.0386922
-0.00660613
0.0476521
-0.0120748
0.0614962
-0.0182906
0.0809903
-0.0259532
0.104323
-0.029991
0.13779
-0.0430643
0.173464
-0.0443986
0.220341
-0.058735
-0.0623103
0.0521368
-0.0022634
-0.0505943
0.060049
-0.0145184
0.0743014
-0.0263272
0.096515
-0.0405042
0.126567
-0.0560048
0.165959
-0.0693833
0.217243
-0.0943481
0.274357
-0.101513
0.348068
-0.132446
-0.136951
0.0672265
-0.00491973
-0.0645701
0.0776007
-0.0248926
0.0962316
-0.0449581
0.124326
-0.0685988
0.161843
-0.0935213
0.212187
-0.119728
0.269124
-0.151285
0.33844
-0.170829
0.414544
-0.208549
-0.196687
0.0792024
-0.0753703
0.0915543
0.113407
0.144955
0.18725
0.239513
0.296321
0.36204
0.400439
0.0889698
-0.0859474
0.0939048
-0.0969272
0.0799329
-0.0872211
0.096258
0.0704019
-0.0892555
0.0987864
0.0601301
-0.0914188
0.101691
0.0490626
-0.0936228
0.10469
0.0373444
-0.0956103
0.107328
0.025354
-0.0962484
0.108239
0.0138901
-0.0922979
0.103762
0.00453266
-0.0768941
0.0862515
-0.0386973
0.0432299
0.0986236
-0.0758383
-0.108733
0.0880428
-0.0766402
0.0767128
-0.0779254
0.0647286
-0.0794347
0.0522723
-0.0811665
0.0395229
-0.0828608
0.0267625
-0.083488
0.0146826
-0.080218
0.00482211
-0.0670337
-0.0338751
0.100752
-0.0642206
-0.11237
0.0890424
-0.0649307
0.0771286
-0.0660116
0.065008
-0.0673141
0.052629
-0.0687875
0.0399636
-0.0701954
0.0271846
-0.070709
0.014967
-0.0680004
0.0049143
-0.056981
-0.0289609
0.106625
-0.0522328
-0.118613
0.0944916
-0.0527969
0.0821177
-0.0536377
0.0694111
-0.0546075
0.0563123
-0.0556887
0.0428484
-0.0567315
0.0292516
-0.0571122
0.0162248
-0.0549736
0.00541125
-0.0461675
-0.0235496
0.108934
-0.0397315
-0.121435
0.0963282
-0.0401915
0.0834759
-0.0407854
0.0703518
-0.0414834
0.0569431
-0.04228
0.0432816
-0.0430699
0.0295569
-0.0433875
0.0164118
-0.0418285
0.00547472
-0.0352303
-0.0180749
0.111556
-0.0271745
-0.124113
0.0987833
-0.0274184
0.0857601
-0.0277622
0.0724501
-0.0281734
0.0588208
-0.0286507
0.0448779
-0.029127
0.0307927
-0.0293023
0.0172131
-0.0282488
0.00581212
-0.0238294
-0.0122628
0.112562
-0.014494
-0.125243
0.0996991
-0.0145551
0.0865717
-0.0146348
0.0731494
-0.0147512
0.0594035
-0.0149048
0.0453433
-0.0150668
0.0311381
-0.0150972
0.0174269
-0.0145376
0.0058916
-0.0122941
-0.00637116
0.113059
-0.00188996
-0.125663
0.100199
-0.00169461
0.0870537
-0.00148949
0.0735939
-0.00129143
0.0597947
-0.00110549
0.0456691
-0.000941273
0.0313886
-0.000816632
0.0175925
-0.000741473
0.00596395
-0.00066561
-0.000407209
0.112812
0.01065
-0.125351
0.100011
0.0111057
0.0869157
0.011606
0.0734975
0.0121267
0.0597322
0.0126599
0.0456321
0.0131588
0.0313681
0.0134474
0.0175807
0.0130459
0.00595775
0.0109573
0.00555055
0.111972
-0.124409
0.0992712
0.0862718
0.0729481
0.0592768
0.0452712
0.0311034
0.0174154
0.00589173
0.0155027
-0.171955
-0.0179873
0.0105404
-0.186733
0.0045663
-0.19538
-0.00154011
-0.200995
-0.00714849
-0.204682
-0.0114866
-0.205825
-0.0134113
-0.2012
-0.011603
-0.183579
-0.00579291
-0.141319
-0.0618661
0.0405033
-0.168169
-0.0442893
0.0336702
-0.1799
0.025682
-0.187392
0.017463
-0.192776
0.00950541
-0.196725
0.00237628
-0.198695
-0.0029072
-0.195916