/*--------------------------------*- C++ -*----------------------------------*\
  =========                 |
  \\      /  F ield         | OpenFOAM: The Open Source CFD Toolbox
   \\    /   O peration     | Website:  https://openfoam.org
    \\  /    A nd           | Version:  13
     \\/     M anipulation  |
\*---------------------------------------------------------------------------*/
FoamFile
{
    format      ascii;
    class       volScalarField;
    location    "7";
    object      p;
}
// * * * * * * * * * * * * * * * * * * * * * * * * * * * * * * * * * * * * * //

dimensions      [0 2 -2 0 0 0 0];

internalField   nonuniform List<scalar> 
440
(
-0.790825
-0.775512
-0.787481
-0.770777
-0.864702
-0.820114
-0.801507
-0.783515
-0.765669
-0.759583
-0.91403
-0.881102
-0.84192
-0.796475
-0.747408
-1.02854
-0.977242
-0.890864
-0.788023
-0.684129
-1.10553
-1.0375
-0.889487
-0.737224
-0.598573
-0.504422
-0.505757
-0.510357
-0.518167
-0.526916
-0.515761
-0.522117
-0.533767
-0.548207
-0.561455
-0.577413
-0.58748
-0.60548
-0.62902
-0.648658
-0.695374
-0.709065
-0.737271
-0.780439
-0.829763
-0.772678
-0.778226
-0.795611
-0.816195
-0.866487
-0.578776
-0.437224
-0.654713
-0.283242
-0.270406
-0.584088
-0.296008
-0.792923
-0.268629
-0.241354
-0.575677
0.079883
-0.779078
-0.387
-0.193177
-0.593793
0.411549
-0.569075
-0.559376
-0.154172
-0.634799
0.605505
-0.30397
-0.659916
-0.134986
-0.434349
0.700581
-0.0325748
-0.661218
-0.12907
-0.145893
0.475251
0.144195
-0.399117
-0.127454
-0.124923
0.487135
0.358055
-0.11265
-0.113318
-0.0270648
0.53558
0.456008
0.00198526
-0.109923
0.0163059
0.562131
0.582459
0.157519
-0.104144
-0.362654
-0.483066
-0.666979
-0.83785
-0.978375
-0.112056
-0.235376
-0.322903
-0.371229
-0.376889
0.062286
-0.0476435
-0.112845
-0.160733
-0.183606
0.164247
0.0596746
-0.0110508
-0.0570468
-0.0756509
0.207125
0.103153
0.0321078
-0.0118375
-0.0211323
1.05234
0.906172
0.719152
0.508306
0.274568
0.62111
0.463057
0.270409
0.0505292
-0.201282
0.201281
0.0402737
-0.163961
-0.393341
-0.625648
-0.171019
-0.336656
-0.539208
-0.758592
-0.935063
-0.424725
-0.588211
-0.7765
-0.973916
-1.08673
2.23568
2.26622
2.29437
2.30888
2.3062
2.03639
2.05675
2.0717
2.06971
2.04668
1.80338
1.79352
1.76143
1.70663
1.62536
1.54122
1.50849
1.44124
1.34297
1.21462
1.30027
1.19947
1.06817
0.914621
0.726865
1.99968
1.9881
1.97794
2.03606
2.12149
1.98887
1.97444
1.95734
2.00803
2.02584
1.97907
1.95753
1.93436
1.96773
1.90624
1.97053
1.93798
1.90897
1.91698
1.73221
1.96324
1.91785
1.88221
1.86025
1.5514
1.95751
1.8852
1.84748
1.75732
1.34744
1.95506
1.85049
1.82739
1.65505
1.41615
1.961
1.83146
1.81231
1.59359
1.40082
1.95339
1.80848
1.80581
1.54168
1.35546
1.99178
1.79895
1.80366
1.51505
1.33669
1.01186
0.697459
0.344367
0.0295026
-0.175371
0.910313
0.684554
0.442123
0.223221
0.0406436
0.89089
0.70901
0.524231
0.353811
0.192175
0.918294
0.754072
0.590093
0.435194
0.287983
0.94036
0.783086
0.626904
0.476008
0.332012
-0.938713
-0.805924
-0.647153
-0.518258
-0.442513
-0.973157
-0.915333
-0.798613
-0.70468
-0.651211
-0.873638
-0.826867
-0.763145
-0.713555
-0.686182
-0.708458
-0.670144
-0.632031
-0.604151
-0.589054
-0.582109
-0.56201
-0.537113
-0.519409
-0.542947
-0.505943
-0.495327
-0.468937
-0.45439
-0.437121
-0.505178
-0.49332
-0.470795
-0.452092
-0.452934
-0.539449
-0.52787
-0.513148
-0.501964
-0.501182
-0.554678
-0.547097
-0.542272
-0.544884
-0.551042
-0.536413
-0.531894
-0.530987
-0.536009
-0.542585
-0.543023
-0.538896
-0.172529
-0.102231
-0.0132987
-0.515423
-0.506122
-0.166435
-0.119632
-0.0295821
-0.50797
-0.52815
-0.208982
-0.168372
-0.0832997
-0.568069
-0.552797
-0.315981
-0.231716
-0.165994
-0.577766
-0.51539
-0.471686
-0.277333
-0.239928
-0.101597
-0.623907
-0.29494
-0.136353
-0.0106941
-0.446695
-0.63039
-0.220003
-0.0950388
-0.00385905
-0.399484
-0.637233
-0.663709
-0.622296
-0.399666
-0.4181
-0.632845
-0.676522
-0.603016
-0.604993
1.98002
1.95768
1.91787
1.86161
1.78737
2.14645
2.16705
2.17163
2.1589
2.13004
2.28411
2.31731
2.34214
2.35459
2.35305
2.35596
2.39562
2.43708
2.47073
2.48605
2.33805
2.37541
2.41669
2.45136
2.46749
-0.0149439
-0.115638
-0.275155
-0.468296
-0.691512
0.557694
0.424788
0.246901
0.0329216
-0.237253
1.06808
0.928801
0.763033
0.567619
0.322498
1.47443
1.36837
1.23814
1.07902
0.886292
1.79645
1.72216
1.62466
1.50773
1.37025
2.06761
2.02618
2.02462
2.04584
2.08389
2.05146
2.02149
2.02098
2.05676
2.13236
2.0372
2.01559
2.01731
2.06927
2.19338
2.0238
2.00853
2.0082
2.06834
2.19367
2.01127
1.99976
1.99475
2.0574
2.1747
2.12346
2.03511
2.01653
1.97816
1.97572
2.07882
2.02482
2.00998
1.99504
1.98144
1.68609
1.49049
1.13392
0.603583
0.014466
1.76445
1.51883
1.14701
0.62208
0.0230439
)
;

boundaryField
{
    left
    {
        type            zeroGradient;
    }
    right
    {
        type            fixedValue;
        value           uniform 0;
    }
    down
    {
        type            zeroGradient;
    }
    up
    {
        type            zeroGradient;
    }
    cylinder
    {
        type            zeroGradient;
    }
    defaultFaces
    {
        type            empty;
    }
}


// ************************************************************************* //
