/*--------------------------------*- C++ -*----------------------------------*\
  =========                 |
  \\      /  F ield         | OpenFOAM: The Open Source CFD Toolbox
   \\    /   O peration     | Website:  https://openfoam.org
    \\  /    A nd           | Version:  13
     \\/     M anipulation  |
\*---------------------------------------------------------------------------*/
FoamFile
{
    format      ascii;
    class       surfaceScalarField;
    location    "7";
    object      phi;
}
// * * * * * * * * * * * * * * * * * * * * * * * * * * * * * * * * * * * * * //

dimensions      [0 3 -1 0 0 0 0];

internalField   nonuniform List<scalar> 
823
(
0.00544631
0.0120862
-0.0175325
0.0282386
0.00564905
-0.0284414
0.0856636
-0.0322822
-0.0251428
0.180152
-0.0944446
-4.37878e-05
-0.108513
-0.015849
0.304514
0.00560452
0.00648166
0.0503436
-0.03909
0.140273
-0.122211
0.245862
-0.200034
-0.266896
0.404245
0.0212909
-0.0148093
0.105315
-0.123114
0.219475
-0.236372
0.333625
-0.314183
-0.364879
0.431608
0.0435869
-0.0583962
0.142993
-0.22252
0.233301
-0.326679
0.292579
-0.373462
-0.386506
0.314206
0.0590314
-0.117428
0.134724
-0.298212
0.178966
-0.370922
0.195623
-0.390119
0.206382
-0.397265
-0.0138231
-0.0274503
0.0412734
-0.0415575
-0.0516176
0.079352
-0.0734578
-0.0561554
0.0880557
-0.103733
-0.0555539
0.0858286
-0.0557162
-0.129195
0.0811788
-0.0210063
-0.00644396
-0.055866
-0.0167578
-0.0926869
-0.0193345
-0.127918
-0.0203232
-0.0243281
-0.159306
-0.0199401
0.0134961
-0.0528512
0.0161533
-0.0887651
0.0165793
-0.124371
0.0152826
0.00896172
-0.157661
-0.00821785
0.021714
-0.0263357
0.0342712
-0.0484887
0.0387323
-0.0690604
0.0358543
0.0326846
-0.0927833
0.00418149
0.0100113
0.0236008
0.0594113
0.0762469
0.072944
-0.686176
0.484037
0.28226
0.153473
-0.362789
0.144239
1.52563
-1.38761
0.313619
0.223123
-0.392503
-0.809072
0.660108
0.0057512
-0.851232
0.164067
-0.00484263
0.174212
1.51548
0.459673
-0.0623372
-0.916531
-0.094722
-0.914171
-0.0328959
-0.0666688
0.179295
1.30329
0.57211
-0.455152
-0.990851
-0.110772
-0.896183
-0.102957
-0.0744832
0.270269
0.930068
0.672741
-0.857624
-1.04356
0.0487342
-0.86867
0.0126026
-0.0383517
0.438252
0.504418
0.746376
-1.16575
-1.08916
0.920921
-0.664642
-1.12495
0.726425
0.156144
1.18987
0.0409733
1.36449
-1.34037
-0.983092
1.17923
-0.447414
-1.39646
1.19159
0.143785
1.51353
-0.28097
1.37931
-1.20614
-0.758365
1.17828
-0.246514
-1.37918
1.29152
0.0305463
1.45967
-0.449116
1.10517
-0.851641
-0.457174
1.15919
-0.115009
-1.2907
1.26556
-0.0758204
1.18877
-0.372327
0.724382
-0.387254
-0.142384
0.79355
-0.90856
0.71773
0.345403
-0.041851
1.10773
0.170684
-1.07203
1.1893
0.232631
1.28434
0.336571
1.26834
0.420245
0.447903
1.03634
0.105983
-0.971638
1.10856
0.160412
1.20604
0.239092
1.31255
0.313733
0.363991
0.971058
0.0567814
-0.921857
1.02769
0.103785
1.12141
0.145369
1.24427
0.190873
0.229077
0.886545
0.0197278
-0.849491
0.948755
0.0415744
1.03744
0.0566853
1.1537
0.0746121
0.0920803
0.643607
-0.62388
0.685182
0.741867
0.816479
0.139825
0.300422
-0.245589
-0.194659
0.0928863
0.305578
-0.258639
0.051555
0.315952
-0.274621
0.0174457
0.307551
-0.273442
0.199087
-0.181641
0.0983734
0.337224
-0.135175
0.0627406
0.341211
0.0311371
0.347555
0.00628832
0.3324
0.205375
0.0658116
0.372383
-0.10097
0.0331548
0.373867
0.00604999
0.37466
-0.00730236
0.345752
0.198072
-0.0185255
0.387717
0.00319111
-0.033499
0.388841
-0.0397334
0.380895
-0.0297073
0.335726
0.168365
-0.0971466
0.0875985
-0.0984245
-0.0884516
-0.0509376
0.198821
0.100825
-0.251761
-0.0478847
0.145021
0.104981
-0.0511822
0.0900322
0.109503
-0.0545134
0.0365702
0.109412
-0.0559497
0.077871
-0.0413008
0.195924
0.145273
-0.240371
0.148991
0.151914
0.0967168
0.161777
0.0410935
0.165035
0.118964
0.143386
0.190104
-0.188217
0.101404
0.193895
0.0609744
0.202207
0.0226893
0.20332
0.141654
0.156498
0.222644
-0.189037
0.116845
0.233548
0.0719047
0.247147
0.0280554
0.247169
0.169709
0.0907683
-0.113714
0.0656774
0.0382041
0.0119317
0.404382
0.0764694
-0.0848714
0.42417
0.00648702
-0.026275
0.41186
0.181279
-0.16897
0.391728
0.199257
-0.179124
0.442734
-0.302768
0.402116
0.0703333
0.419471
-0.0108688
0.402087
0.198664
0.379527
0.221816
0.58189
0.396977
0.069336
0.414731
-0.0286226
0.38137
0.232025
0.364983
0.238203
0.758657
0.395031
0.0702849
0.402259
-0.0358508
0.366999
0.267285
0.337369
0.267833
0.906988
0.389665
0.0766
0.391022
-0.0372081
0.335404
0.322903
0.315213
0.288024
1.10849
0.631203
0.0494176
0.656963
-0.0629679
0.682871
0.296994
0.753796
0.217099
0.864586
0.997698
0.649882
0.00355621
0.651558
-0.064644
0.700664
0.247888
0.754467
0.163295
0.603229
1.01582
0.653273
-0.0456969
0.639065
-0.0504355
0.696567
0.190386
0.79063
0.069232
0.354794
1.03907
0.628398
-0.0700745
0.615721
-0.0377583
0.730436
0.0756717
0.809458
-0.00979
0.158811
1.00544
0.533946
0.496188
0.571859
0.562069
0.72088
1.02774
-0.224699
1.02167
-0.12911
1.02817
-0.107463
1.02711
0.00424982
0.042678
0.968152
-0.177026
0.958012
-0.118971
0.935558
-0.0850086
0.953438
-0.0136303
0.0244776
0.972931
-0.110892
0.943073
-0.0891129
0.908931
-0.0508667
0.91669
-0.0213889
0.0193106
0.933754
-0.0392054
0.879679
-0.0350383
0.847263
-0.0184502
0.837716
-0.0118426
0.00753608
0.681675
0.646636
0.628186
0.616344
0.0549663
0.155032
-0.209998
0.0814114
0.344714
-0.371159
0.0818538
0.401661
-0.402103
0.0709045
0.405514
-0.394565
0.373516
0.0581622
-0.360774
0.081004
0.0740276
0.161131
0.264587
0.198408
0.364384
0.202795
0.401127
0.397024
0.179286
0.065526
0.00850164
0.194081
0.136032
0.29843
0.260035
0.371789
0.327768
0.388894
0.379919
0.0290029
-0.0205012
0.138947
0.0260885
0.275662
0.12332
0.409814
0.193616
0.271477
0.527231
0.00310197
-0.0236032
0.0529995
-0.0238091
0.161974
0.0143452
0.298039
0.0575511
0.108958
0.460558
-0.00971186
-0.0138913
-0.00332821
-0.0301928
0.0437905
-0.0327735
0.1259
-0.0245585
0.00279506
0.232063
-0.00229754
-0.0115938
0.00535855
-0.0378489
0.0287957
-0.0562107
0.0675695
-0.0633323
-0.0606043
0.130969
0.0116743
-0.0232681
0.036975
-0.0631495
0.0665234
-0.0857591
0.0958086
-0.0926175
-0.0910102
0.126214
0.0151149
-0.038383
0.0364671
-0.0845018
0.052974
-0.102266
0.0638562
-0.1035
-0.097224
0.07007
0.00289035
-0.00225948
-0.0164697
-0.0341409
-0.0501861
0.477724
0.540276
-0.785937
0.464037
0.55027
-0.536582
0.285036
0.380834
-0.201834
0.122789
0.254628
-0.0923801
-0.103328
0.082692
0.495617
0.175628
0.45669
0.589197
0.209085
0.628439
0.0638117
0.399901
-0.172421
0.405046
-0.103204
0.394473
0.59977
0.115268
0.907644
0.0362543
0.478915
-0.308594
0.260441
-0.293575
0.332393
0.527818
0.0707268
1.16931
0.0720349
0.477607
-0.483613
0.140276
0.305305
0.0870047
0.172109
0.102177
0.588384
-0.690561
-0.12197
0.224147
-0.0789191
-0.0430505
0.00563631
-0.0845555
-0.0714455
0.965604
-1.16316
0.653169
0.408284
0.231349
0.0944899
-0.0161204
-0.0783696
0.153025
-0.0585353
0.277081
-0.124055
0.461553
-0.184472
-0.229007
0.212234
-0.170192
0.332985
0.588849
0.931608
0.145522
-0.144807
0.17562
-0.176335
0.111743
-0.150569
0.184347
0.072634
-0.158071
0.197181
0.0298338
-0.157959
0.200759
-0.110553
0.140387
0.185513
-0.104534
-0.225786
0.14016
-0.105216
0.0890368
-0.106948
0.0367686
-0.105691
-0.0737841
0.186931
-0.0542598
-0.237205
0.13572
-0.0540048
0.0840479
-0.0552759
0.0341352
-0.0557779
-0.0396489
0.201619
-0.00280228
-0.253076
0.149586
-0.00197246
0.0957189
-0.00140831
0.0405006
-0.000559608
0.000851671
0.206035
-0.256722
0.15288
0.0969584
0.0404491
0.0412001
-0.337482
-0.0644917
0.0152241
-0.368589
-0.00842461
-0.378455
-0.0179713
-0.361612
-0.227969
0.130328
-0.304405
-0.163405
0.0843527
-0.322613
0.0403425
-0.334444
0.0076881
-0.328958
-0.220281
0.148251
-0.261975
-0.190681
0.104768
-0.27913
0.0617334
-0.29141
0.0220535
-0.289278
-0.198228
0.17151
-0.225265
-0.20822
0.125907
-0.233527
0.0770045
-0.242508
0.0306638
-0.242937
-0.167564
0.163862
-0.213507
0.114682
0.0693556
0.0271773
0.385712
0.106063
-0.0957948
0.391503
0.0769248
-0.0827158
0.358591
0.156683
-0.123771
0.307561
0.0466709
0.00435848
-0.235462
0.366689
0.393113
0.108929
0.403258
0.0667799
0.397191
0.16275
0.351389
0.0924724
-0.109859
0.399511
0.105398
0.412138
0.0541533
0.409998
0.164889
0.374434
0.128037
0.0273699
0.405359
0.0960185
0.418161
0.041351
0.418103
0.164947
0.390928
0.155212
0.165222
0.407127
0.422203
0.41818
0.394267
0.417199
0.0928516
0.336715
0.0804842
0.249136
0.0875791
0.258629
-0.00949292
-0.197506
0.456135
0.507108
0.504876
0.468684
0.46355
0.632732
0.365297
0.0908383
0.284889
0.080408
0.190932
0.0939564
0.110923
0.0800093
0.0325536
0.510064
0.382251
0.285526
0.20213
)
;

boundaryField
{
    left
    {
        type            calculated;
        value           nonuniform List<scalar> 
17
(
-0.60402
-0.60402
-0.60402
-0.60402
-0.60402
-0.39598
-0.39598
-0.39598
-0.39598
-0.39598
-0.39598
-0.39598
-0.39598
-0.39598
-0.39598
-0.510051
-0.510051
)
;
    }
    right
    {
        type            calculated;
        value           nonuniform List<scalar> 
17
(
0.0770818
0.242595
0.143425
0.132905
0.172427
0.247055
0.348604
0.462582
0.567132
0.64643
0.725444
0.791985
1.25842
1.15458
0.803979
0.409592
-0.184235
)
;
    }
    down
    {
        type            calculated;
        value           uniform 0;
    }
    up
    {
        type            calculated;
        value           uniform 0;
    }
    cylinder
    {
        type            calculated;
        value           uniform 0;
    }
    defaultFaces
    {
        type            empty;
    }
}


// ************************************************************************* //
