/*--------------------------------*- C++ -*----------------------------------*\
  =========                 |
  \\      /  F ield         | OpenFOAM: The Open Source CFD Toolbox
   \\    /   O peration     | Website:  https://openfoam.org
    \\  /    A nd           | Version:  13
     \\/     M anipulation  |
\*---------------------------------------------------------------------------*/
FoamFile
{
    format      ascii;
    class       volVectorField;
    location    "7";
    object      U;
}
// * * * * * * * * * * * * * * * * * * * * * * * * * * * * * * * * * * * * * //

dimensions      [0 1 -1 0 0 0 0];

internalField   nonuniform List<vector> 
440
(
(-0.071583 0.0591549 -5.24257e-20)
(-0.0747214 0.117352 1.77467e-21)
(0.0342857 0.102034 1.57959e-20)
(0.457664 0.11356 3.64815e-19)
(0.366022 0.263227 -1.53796e-20)
(-0.060532 0.032295 2.1443e-20)
(0.0716384 0.00569485 -1.10554e-19)
(0.498263 -0.0312538 -7.67976e-20)
(1.0458 -0.0537647 1.70413e-20)
(1.41968 -0.0422165 -2.00517e-20)
(-0.00615372 0.000766301 3.88967e-20)
(0.472052 -0.0443741 7.0363e-19)
(1.21957 -0.0265412 -4.28205e-19)
(1.77906 0.0125417 -1.25812e-18)
(2.35701 0.0346657 5.17708e-19)
(0.197206 -0.046264 -1.65595e-19)
(1.15836 0.00290324 -5.4879e-19)
(1.93341 0.0816453 1.67662e-18)
(2.40911 0.127511 1.89044e-18)
(2.49374 0.153964 -5.05653e-19)
(0.55159 -0.00718283 -2.87135e-19)
(1.73102 0.188728 -6.18359e-19)
(2.29693 0.274673 1.89359e-18)
(2.41985 0.295192 1.97683e-18)
(2.49478 0.267541 6.64284e-19)
(0.0106587 -0.228205 -9.2768e-21)
(-0.0407237 -0.424404 2.20225e-20)
(-0.119691 -0.465688 -7.03351e-20)
(-0.190991 -0.462335 1.57998e-20)
(-0.243262 -0.452262 1.42376e-19)
(0.00834599 -0.110478 -2.12347e-20)
(-0.056433 -0.235927 -1.27129e-19)
(-0.140672 -0.278286 1.7417e-20)
(-0.217293 -0.298276 2.13862e-20)
(-0.272652 -0.323895 -4.2009e-20)
(-0.0291313 0.0220848 -2.11589e-19)
(-0.100223 -0.0297432 1.9095e-19)
(-0.177491 -0.0723773 -1.14819e-19)
(-0.249989 -0.112327 -2.99497e-19)
(-0.291765 -0.164543 -7.58076e-22)
(-0.0690214 0.103104 8.87272e-21)
(-0.129067 0.123656 -7.78253e-20)
(-0.180879 0.105032 8.02518e-21)
(-0.224076 0.065423 7.64651e-19)
(-0.228857 0.00909356 -1.77973e-19)
(-0.0864553 0.109668 4.67568e-20)
(-0.140099 0.196755 5.43928e-20)
(-0.160126 0.235225 1.24391e-19)
(-0.0887419 0.258264 -2.26842e-19)
(-0.055393 0.323894 -6.04699e-19)
(-0.458451 -0.416617 -3.52227e-20)
(0.839477 0.159353 -8.51915e-19)
(0.385756 1.00106 4.657e-19)
(0.318321 0.239519 7.06981e-20)
(1.16943 -0.513008 3.24641e-20)
(-0.454142 -0.537613 2.55633e-20)
(0.588277 0.0338143 3.34997e-19)
(-0.0231505 1.06914 7.68678e-21)
(0.822458 0.0839603 5.15014e-19)
(1.43327 -0.600414 -2.95638e-19)
(-0.273093 -0.594414 -9.45856e-20)
(0.0765856 -0.0421506 -3.63244e-18)
(-0.520299 0.999738 7.26311e-20)
(1.34504 -0.201015 1.25451e-18)
(1.63291 -0.668441 4.41064e-20)
(0.211546 -0.611916 -1.79102e-19)
(-0.405696 -0.0335542 1.32075e-19)
(-0.480896 0.795958 6.27299e-19)
(1.82906 -0.46837 -8.35023e-19)
(1.83181 -0.692808 -1.77318e-19)
(1.07423 -0.601211 -2.86883e-19)
(-0.300843 -0.0603379 8.73217e-19)
(0.16318 0.443364 0)
(2.21382 -0.659356 2.72334e-19)
(1.99954 -0.690776 -5.39307e-20)
(2.15294 -0.362327 -5.06137e-19)
(1.03622 0.036603 3.7223e-20)
(1.25978 0.0974741 3.46845e-20)
(2.57135 -0.803914 -2.11896e-19)
(2.08284 -0.669537 7.61202e-20)
(2.31026 -0.433077 6.23509e-20)
(1.69991 0.126337 -3.72916e-19)
(2.14958 -0.0528808 2.11578e-20)
(2.75271 -0.80883 9.75785e-19)
(1.91146 -0.567856 0)
(2.21301 -0.163193 -2.13006e-19)
(1.80965 0.0699965 1.12505e-20)
(2.38672 -0.275522 4.27861e-19)
(2.35495 -0.6489 -3.49948e-19)
(1.33152 -0.368505 2.31457e-20)
(1.98563 -0.127259 -1.93132e-20)
(1.96824 -0.0278768 1.5458e-19)
(2.15332 -0.310165 3.77709e-20)
(1.7006 -0.454936 9.84601e-34)
(0.678797 -0.201264 2.55968e-20)
(1.324 -0.0138322 6.27697e-20)
(1.39588 -0.0634836 1.54351e-20)
(0.948365 -0.126192 -8.3065e-20)
(0.151362 0.00260358 9.0416e-20)
(-0.304038 0.0246563 -5.11013e-21)
(2.39252 0.283121 -8.12017e-19)
(2.62731 0.0693027 -1.09836e-18)
(2.42113 0.129725 7.52559e-19)
(2.72672 -0.0807593 7.35357e-20)
(1.89852 0.118146 -4.04866e-20)
(2.12472 0.206238 6.76803e-20)
(2.48759 0.0411279 -3.97518e-20)
(2.23772 0.0678307 -1.39234e-19)
(2.55093 -0.105017 -2.38428e-19)
(2.30357 -0.124417 -4.48562e-21)
(2.09411 0.0909506 7.60478e-20)
(2.22124 0.0478738 9.20571e-20)
(2.20208 -0.00878892 -1.17184e-19)
(2.26419 -0.0382159 4.01787e-20)
(2.30301 -0.110117 1.69692e-20)
(1.9796 0.0424847 1.13986e-19)
(1.97169 0.0306187 1.53295e-19)
(2.0934 -0.00492352 -1.80931e-20)
(2.04506 -0.0181442 -4.79895e-20)
(2.18337 -0.0466283 2.2363e-20)
(1.44804 -0.00449887 1.8051e-19)
(1.42343 -0.000569939 -1.10543e-20)
(1.50962 -0.0148897 1.81808e-20)
(1.44636 -0.0064573 -2.79579e-20)
(1.55619 -0.0244084 1.04639e-21)
(1.57259 0.828051 1.08294e-18)
(1.52216 0.925762 -3.37433e-19)
(1.51722 1.05627 -1.3178e-18)
(1.4504 1.10642 7.21538e-19)
(0.892789 0.798815 -1.75328e-19)
(1.84173 0.796819 -5.70137e-19)
(1.81429 0.876076 -2.93217e-18)
(1.82299 0.982668 -1.12646e-18)
(1.73308 0.994063 -4.12129e-19)
(1.06011 0.696356 -6.57059e-19)
(2.15834 0.675949 7.19327e-19)
(2.12791 0.743238 1.99923e-19)
(2.09841 0.831971 -2.20119e-18)
(1.96761 0.821152 -6.18686e-19)
(1.16172 0.542762 4.73483e-19)
(2.30844 0.572226 2.1977e-18)
(2.30282 0.622417 1.61686e-18)
(2.29841 0.669507 -1.89259e-18)
(2.07414 0.624552 -1.40881e-18)
(1.13191 0.357539 -2.67655e-19)
(2.47299 0.418172 1.06835e-18)
(2.46644 0.438109 -7.94806e-19)
(2.35642 0.462687 5.50895e-19)
(2.02121 0.404274 4.50902e-19)
(0.932796 0.153745 -3.77134e-19)
(0.568726 0.439044 -6.80185e-19)
(0.478333 0.47378 -5.3002e-19)
(0.360496 0.508592 6.40937e-20)
(0.224112 0.514201 -1.45909e-20)
(0.0551037 0.370585 8.01421e-20)
(0.676912 0.606153 8.98847e-20)
(0.612527 0.6627 -3.16024e-19)
(0.522707 0.728329 1.82796e-19)
(0.395535 0.784032 -8.4214e-20)
(0.171276 0.599268 1.1954e-19)
(0.769781 0.805967 1.819e-19)
(0.697904 0.886211 4.39834e-19)
(0.641686 0.982223 7.47857e-20)
(0.556933 1.02519 -2.90106e-19)
(0.305202 0.760302 2.37957e-19)
(1.04387 0.881993 2.11828e-19)
(0.997776 0.965504 -6.34184e-19)
(0.945347 1.06276 -1.82873e-18)
(0.861907 1.13041 7.45936e-19)
(0.508925 0.844026 -1.75436e-19)
(1.11739 0.924527 -1.16164e-19)
(1.14878 1.04786 -1.92791e-19)
(1.1754 1.16489 -3.46681e-19)
(1.12227 1.19212 -3.96176e-19)
(0.690967 0.85774 -6.41968e-21)
(1.00034 0.0589411 -9.73856e-20)
(0.994822 0.0140553 -3.75205e-20)
(1.04626 0.124563 -1.51014e-21)
(0.936594 0.130826 -2.86885e-19)
(0.889612 0.264526 3.20291e-19)
(0.985842 0.0580651 6.11762e-20)
(1.01179 0.00692588 1.36084e-19)
(1.0371 0.136698 1.25106e-19)
(0.970248 0.159203 3.86881e-20)
(0.928244 0.345481 9.93925e-22)
(0.989832 0.0571677 8.27679e-20)
(1.00126 -0.0018826 -5.17078e-21)
(1.08098 0.154788 -5.73934e-21)
(0.926152 0.161277 1.57868e-19)
(1.12488 0.481637 -4.83089e-19)
(0.98393 0.0571569 -4.44928e-22)
(1.02443 -0.0146037 -1.93015e-19)
(1.07783 0.176845 -6.61781e-20)
(1.00211 0.173645 -3.97309e-19)
(1.14388 0.529494 9.0367e-20)
(0.982622 0.0485377 -1.41924e-20)
(1.03551 -0.013568 5.67488e-20)
(1.11689 0.184485 3.16387e-20)
(0.975194 0.197835 4.79499e-19)
(1.39098 0.660551 -4.58208e-19)
(0.949694 0.0480486 -7.02036e-21)
(1.11423 -0.0419043 1.11921e-19)
(1.08556 0.220107 -7.86971e-20)
(1.21758 0.128935 8.96312e-19)
(1.30369 0.682294 -3.7695e-19)
(0.909592 0.0122215 -1.68153e-21)
(1.20672 -0.0393222 -9.55949e-20)
(0.988914 0.157092 4.72932e-21)
(1.3058 0.133546 -2.91236e-19)
(1.26611 0.45423 -2.18193e-20)
(0.96579 -0.00694187 -4.23804e-21)
(1.15653 -0.0377356 1.34982e-35)
(1.00383 0.152252 -2.28444e-20)
(1.26235 0.0768549 9.89104e-20)
(1.43773 0.279976 1.75291e-19)
(1.07803 -0.0552516 4.31222e-21)
(0.958892 -0.0280596 -2.8634e-20)
(1.12978 0.0868784 1.88857e-20)
(1.23849 0.00628224 3.18788e-20)
(1.51929 0.148229 -2.6044e-19)
(0.985358 -0.0239235 -4.20068e-20)
(0.735436 -0.0185233 -5.54066e-21)
(0.956573 0.00800885 2.19886e-20)
(0.889362 -0.0194692 -1.5481e-20)
(1.03299 0.0535252 -5.85145e-20)
(1.81054 0.614535 3.02085e-19)
(1.89748 0.645937 7.32602e-19)
(2.1728 0.512335 -1.04841e-18)
(2.21995 0.501704 -3.09268e-20)
(2.45271 0.300739 4.75156e-19)
(1.7514 0.407014 8.74903e-20)
(1.7765 0.423678 1.03951e-18)
(2.03969 0.340284 1.30603e-19)
(1.98337 0.335719 -9.31949e-19)
(2.30237 0.188575 -2.83022e-19)
(1.73697 0.296534 -2.4881e-19)
(1.8213 0.256535 -1.57549e-19)
(1.941 0.239415 1.65966e-19)
(1.97562 0.183981 -2.94478e-19)
(2.11116 0.142612 2.64791e-19)
(1.66257 0.171228 3.52681e-19)
(1.73854 0.139233 -5.13739e-21)
(1.77423 0.136704 2.22638e-19)
(1.86058 0.094231 1.94185e-19)
(1.87917 0.083017 -1.8731e-19)
(1.21143 0.0596413 -4.17046e-20)
(1.26953 0.0412698 2.34144e-19)
(1.31073 0.0362176 1.08083e-19)
(1.36962 0.0151422 -2.2434e-19)
(1.3801 0.0120038 1.28326e-22)
(1.23509 -0.0335195 5.44292e-20)
(2.30999 -0.0505403 -4.55084e-19)
(2.54416 -0.0423072 1.25499e-18)
(2.52356 0.00274037 5.60387e-19)
(2.38446 0.0339348 -3.77853e-19)
(0.749913 0.0904368 9.12364e-20)
(2.07672 0.0786366 -4.53903e-19)
(2.56018 0.0798033 -6.06269e-19)
(2.61992 0.0946167 7.38448e-19)
(2.34037 0.0830554 -4.59002e-19)
(0.19345 0.0700912 -3.85046e-20)
(1.38859 0.140127 4.61734e-19)
(2.20243 0.161976 7.06644e-20)
(2.6098 0.154303 4.02696e-19)
(2.814 0.155291 1.7678e-19)
(-0.0748216 -0.042835 2.13873e-19)
(0.463609 0.0605474 2.09644e-19)
(1.35163 0.140062 -4.38801e-19)
(1.8852 0.174328 2.21814e-20)
(2.51979 0.205472 -1.86482e-20)
(-0.128908 -0.10413 1.57219e-19)
(-0.0479853 -0.0757664 -1.6889e-19)
(0.441537 0.0147305 -2.09152e-20)
(0.953247 0.0472477 4.35325e-20)
(1.4033 0.108582 -5.18825e-20)
(-0.0892751 -0.0842712 4.09248e-21)
(-0.165105 -0.12138 1.13945e-19)
(-0.0642361 -0.125995 1.48475e-19)
(0.146302 -0.112575 -1.37388e-19)
(0.528451 -0.054578 9.33895e-21)
(-0.0371931 -0.048786 -9.96803e-22)
(-0.105216 -0.159857 -1.04454e-19)
(-0.114456 -0.26232 -8.27211e-20)
(-0.0651233 -0.32895 2.86303e-20)
(0.0384883 -0.319144 1.97788e-20)
(-0.030297 -0.0898407 6.09546e-21)
(-0.0535802 -0.306575 2.49445e-19)
(-0.0397843 -0.465836 -1.16239e-19)
(-0.00105356 -0.54545 -1.8915e-19)
(0.0267457 -0.575832 -1.46952e-20)
(-0.0336721 -0.201286 -1.34845e-20)
(-0.0375966 -0.50423 -5.0775e-20)
(-0.028406 -0.652441 2.70972e-20)
(-0.0150851 -0.68492 -1.04458e-19)
(0.00607408 -0.653333 1.19865e-20)
(-0.0123998 -0.271866 3.91203e-21)
(-0.0326952 -0.546672 -5.38058e-21)
(-0.0708641 -0.615038 -1.05751e-21)
(-0.112138 -0.59081 -4.17866e-21)
(-0.143832 -0.539353 3.07148e-20)
(1.66079 0.486761 -4.12528e-20)
(1.64313 0.344179 5.60909e-19)
(1.27549 0.174198 -6.9696e-20)
(0.307161 0.120154 6.25482e-20)
(0.362075 -0.0447478 -1.03025e-20)
(1.36704 0.262081 -1.85041e-20)
(1.55496 0.385413 2.76741e-20)
(1.15584 0.342575 3.46715e-20)
(0.018149 0.220292 6.57376e-21)
(0.335558 -0.0763587 1.18792e-19)
(0.767912 -0.00150575 -9.25969e-20)
(1.32823 0.411828 2.5131e-19)
(0.930227 0.524579 4.25293e-20)
(-0.24003 0.300194 -5.23982e-19)
(0.435614 -0.151293 -8.21994e-21)
(0.197111 -0.145718 1.26129e-19)
(1.08866 0.404115 7.99372e-20)
(0.725372 0.711749 -3.49262e-19)
(-0.284877 0.33399 -1.33925e-21)
(0.624515 -0.272744 -2.25889e-19)
(-0.255228 -0.249671 9.51154e-21)
(0.93244 0.331859 1.81386e-19)
(0.561336 0.890843 4.35346e-19)
(-0.0775408 0.319526 -1.59075e-20)
(0.881391 -0.399252 -3.37497e-19)
(0.593556 0.187487 -2.32384e-20)
(-0.24329 -0.0973916 0)
(-0.19606 -0.115109 -3.3453e-20)
(-0.125969 -0.0617638 5.8777e-20)
(0.15091 -0.0252468 7.70163e-21)
(2.12967 0.478079 0)
(1.52526 0.359743 0)
(1.11439 0.0698843 3.83002e-19)
(0.452831 -0.0330259 5.64526e-20)
(0.475465 -0.0590243 5.75136e-21)
(0.770216 0.00105362 -1.28886e-19)
(0.826617 -0.00364069 1.78213e-19)
(1.02837 -0.013463 -2.50696e-20)
(1.12081 0.0110179 3.25299e-19)
(1.48875 0.0637082 2.14925e-19)
(1.7383 0.0230749 1.21718e-19)
(1.89023 0.0762776 2.39776e-19)
(2.07516 0.0305137 -1.53172e-19)
(2.71808 0.18264 -4.34936e-20)
(2.34968 0.0986053 5.01271e-20)
(0.938179 -0.498061 7.27507e-21)
(0.927958 -0.590921 -1.74463e-19)
(0.921037 -0.690664 -1.53121e-19)
(0.848742 -0.761011 9.31054e-20)
(0.515242 -0.597963 1.2862e-19)
(0.832942 -0.405501 1.20418e-19)
(0.774893 -0.471729 2.0546e-19)
(0.698003 -0.543574 -7.39659e-20)
(0.583729 -0.605724 1.3132e-19)
(0.319226 -0.480244 3.70413e-20)
(0.660945 -0.266807 -1.50741e-19)
(0.570432 -0.308031 -4.96349e-20)
(0.470301 -0.36097 7.49723e-20)
(0.354122 -0.407869 -2.83641e-20)
(0.160419 -0.32271 -1.17254e-19)
(0.557368 -0.0340829 -4.50054e-19)
(0.472051 -0.0512316 -3.68219e-19)
(0.363249 -0.0784889 2.90182e-19)
(0.236632 -0.112946 1.72021e-19)
(0.068555 -0.106702 1.35371e-20)
(0.530258 0.168887 -1.70525e-19)
(0.445626 0.169941 -1.76193e-19)
(0.329617 0.168648 -6.74541e-20)
(0.191398 0.172462 3.47216e-20)
(0.0307341 0.132269 1.42216e-20)
(2.0953 -0.0419625 8.31107e-19)
(2.37401 -0.109491 2.95392e-19)
(2.45012 -0.198979 -7.74876e-19)
(2.30385 -0.22471 -1.62173e-18)
(1.39236 -0.204032 1.18529e-19)
(2.08975 -0.126606 1.42092e-18)
(2.16987 -0.241121 1.86239e-18)
(2.18605 -0.366712 1.5246e-19)
(2.11358 -0.427481 2.60698e-19)
(1.36172 -0.383037 -1.72062e-19)
(1.77296 -0.296128 -3.71247e-18)
(1.83922 -0.415091 4.38105e-19)
(1.8899 -0.542274 1.15186e-18)
(1.83366 -0.619656 -4.58947e-19)
(1.19455 -0.53237 7.19279e-19)
(1.56393 -0.41962 8.86517e-19)
(1.57945 -0.5189 -2.32279e-18)
(1.562 -0.638703 -2.72114e-18)
(1.4949 -0.730592 8.50514e-19)
(0.966671 -0.608141 5.46395e-19)
(1.25807 -0.481979 1.99433e-19)
(1.20482 -0.57677 2.4714e-19)
(1.19675 -0.702056 -4.1037e-19)
(1.14514 -0.791936 -4.96935e-19)
(0.726113 -0.632382 -4.75933e-21)
(1.03441 0.055487 7.71463e-21)
(0.940576 0.0444179 -4.81131e-21)
(1.1287 0.0809448 -3.21159e-21)
(0.814972 -0.000465833 -2.14133e-19)
(1.14918 -0.223639 -1.06945e-20)
(1.05334 0.0615636 -2.57779e-21)
(0.924934 0.0375721 4.92153e-20)
(1.12221 0.0978587 -3.64254e-20)
(0.896568 0.0438229 1.28559e-19)
(1.01835 -0.107823 -1.77869e-20)
(1.05818 0.0612135 -6.32224e-20)
(0.926791 0.0307276 4.48447e-22)
(1.10261 0.0978727 -1.64175e-20)
(0.889732 0.0646201 3.42777e-20)
(0.982139 -0.0472108 -1.85605e-19)
(1.04211 0.0615025 7.61369e-20)
(0.957172 0.0248139 3.20555e-21)
(1.06282 0.103603 3.1005e-20)
(0.926572 0.0892417 1.79104e-20)
(0.873782 0.063967 1.06739e-19)
(1.01638 0.0592012 1.90016e-20)
(0.9877 0.0218809 -2.97213e-20)
(1.0358 0.110909 4.30426e-20)
(0.94762 0.114936 7.53928e-20)
(0.841289 0.161228 -9.7003e-20)
(0.875016 0.0334051 0)
(0.73315 0.0292485 1.00307e-20)
(0.60492 0.022166 3.90781e-21)
(0.360045 -0.00992406 4.04885e-20)
(0.697873 -0.0563398 -1.29982e-19)
(0.998049 0.0723957 -6.38253e-20)
(0.968579 0.0662525 -1.69051e-20)
(1.02979 0.0812757 -4.06677e-20)
(0.826575 -0.00343381 -1.15755e-19)
(1.04753 -0.204637 -1.34887e-19)
(0.976121 -0.064694 -2.99538e-20)
(1.06398 -0.0344341 5.03045e-19)
(1.16328 0.0376523 3.13905e-19)
(1.03727 0.0580077 2.46936e-20)
(0.800118 0.0311857 0)
(1.34536 -0.322065 3.04292e-19)
(1.46071 -0.284705 1.48849e-18)
(1.64456 -0.163409 -1.6906e-18)
(1.75275 -0.0232698 -5.26737e-19)
(1.6491 0.0305861 3.82142e-19)
)
;

boundaryField
{
    left
    {
        type            fixedValue;
        value           uniform (1 0 0);
    }
    right
    {
        type            zeroGradient;
    }
    down
    {
        type            noSlip;
    }
    up
    {
        type            noSlip;
    }
    cylinder
    {
        type            noSlip;
    }
    defaultFaces
    {
        type            empty;
    }
}


// ************************************************************************* //
