/*--------------------------------*- C++ -*----------------------------------*\
  =========                 |
  \\      /  F ield         | OpenFOAM: The Open Source CFD Toolbox
   \\    /   O peration     | Website:  https://openfoam.org
    \\  /    A nd           | Version:  13
     \\/     M anipulation  |
\*---------------------------------------------------------------------------*/
FoamFile
{
    format      ascii;
    class       volVectorField;
    location    "2.7";
    object      U;
}
// * * * * * * * * * * * * * * * * * * * * * * * * * * * * * * * * * * * * * //

dimensions      [0 1 -1 0 0 0 0];

internalField   nonuniform List<vector>
1800
(
(0.00742655237932 -0.0205493843878 -4.26932193253e-17)
(0.534056513495 -0.456651146471 2.61919805432e-17)
(1.05716381336 -0.864138729798 8.78198350272e-19)
(1.34526122568 -1.05754566825 6.89670266911e-18)
(1.45616417696 -1.09608824461 -1.27914023835e-17)
(1.48470284342 -1.06315463342 -5.53512122281e-18)
(1.4837381514 -1.00710707946 8.72961364936e-18)
(1.47356661909 -0.947923251501 3.49185055695e-18)
(1.46125225152 -0.888243137112 -4.15565230365e-18)
(1.42775154391 -0.840001043874 -5.16397681904e-19)
(0.0302148749744 -0.0371063936134 2.44114884463e-18)
(0.638404546664 -0.46196959184 2.79706356109e-18)
(1.21753901207 -0.84750410113 7.17158715647e-20)
(1.52502243144 -1.02484345955 -1.09035230132e-18)
(1.63493237338 -1.05599582783 1.95422120184e-18)
(1.65578752661 -1.02082418793 8.89362406307e-19)
(1.6466798098 -0.964277244562 -8.79914750673e-19)
(1.63007901653 -0.904407414871 4.13803113152e-19)
(1.61286849667 -0.845530287822 1.21934141806e-18)
(1.58915809297 -0.801581285801 -4.3995342235e-19)
(0.0602276854241 -0.0531115107379 5.74573792446e-20)
(0.749300161746 -0.455619165804 -1.74563020779e-19)
(1.37798869253 -0.810090030416 4.50469468816e-19)
(1.69926798871 -0.967691455788 -5.10171137383e-19)
(1.80494469714 -0.991832273677 -1.54126884656e-18)
(1.81624269035 -0.956955033144 3.22222806631e-19)
(1.79719629176 -0.903928334578 5.88041640469e-19)
(1.77131712424 -0.849201566911 -7.59430241039e-20)
(1.74545623549 -0.796864453672 -4.97674067347e-21)
(1.71278104884 -0.755934032391 -3.425703753e-20)
(0.097543890039 -0.0668270917028 9.78114196328e-21)
(0.864663555801 -0.435478908518 -8.6893051519e-20)
(1.53504300498 -0.750609857075 -2.79115054547e-19)
(1.86465710461 -0.885166931293 7.0960783716e-20)
(1.96401162557 -0.901958385328 3.9921169708e-19)
(1.96582146241 -0.867792719067 3.6878541172e-20)
(1.93782695876 -0.818294818582 -2.427572762e-20)
(1.9040908443 -0.767502913399 5.46352763228e-19)
(1.87117501835 -0.718947081474 4.51047300583e-19)
(1.83503430955 -0.682485241917 -1.48918441688e-19)
(0.141888312594 -0.0767949119885 9.09693337064e-20)
(0.981873758557 -0.40095638205 1.51005622319e-19)
(1.68445839303 -0.670520938777 -8.34794192037e-20)
(2.01617299536 -0.78050854365 -9.80902337654e-20)
(2.10687828435 -0.791159183344 -1.20424233435e-18)
(2.09908184261 -0.759806788937 1.06932139733e-20)
(2.06285479976 -0.716201200925 9.32657408026e-19)
(2.0222336909 -0.671976160693 3.23104591864e-19)
(1.98339318621 -0.63031245627 2.30954396325e-20)
(1.94345776397 -0.598617716813 -1.99534723049e-19)
(0.192186071218 -0.0812377387481 -8.06327384651e-20)
(1.09740470018 -0.350946958701 1.64857695261e-19)
(1.82178536802 -0.570336971137 1.09721159991e-18)
(2.14949466934 -0.655143828635 -8.26700990244e-19)
(2.22973877331 -0.660840077831 -8.74064783819e-19)
(2.21263635546 -0.633588873883 1.44780707425e-18)
(2.16911407112 -0.596893203961 -1.04117849126e-18)
(2.12253528223 -0.559960067443 -1.14444132379e-18)
(2.07855795385 -0.525416570271 8.30098717539e-19)
(2.03542289748 -0.49952447019 -3.20505143295e-20)
(0.246907230346 -0.0787416699821 -1.33097145061e-20)
(1.20752868097 -0.285521126045 -4.84235531953e-19)
(1.94286853901 -0.452208182714 -2.91745445394e-18)
(2.260885905 -0.512585394576 1.37132245727e-18)
(2.32948114011 -0.515193779559 2.2060244185e-18)
(2.30389148946 -0.493613678479 -6.36384788103e-21)
(2.25443731892 -0.465088290338 -2.81699492889e-18)
(2.20328331605 -0.436503749235 -2.57659422475e-21)
(2.15547406372 -0.409970692662 2.52107483208e-18)
(2.10991671436 -0.390332125557 6.63800741905e-19)
(0.303849140823 -0.0681435417722 5.28126557142e-20)
(1.30808124728 -0.205263881014 4.22594402266e-19)
(2.04364289806 -0.318634098396 2.24714133853e-18)
(2.34703516549 -0.356337454891 -8.12228701011e-20)
(2.40347722029 -0.357935045243 -1.41872321669e-18)
(2.37051488116 -0.343296576495 -4.36748393167e-19)
(2.31654553011 -0.323822795253 0)
(2.26211257544 -0.304279091373 9.88431498214e-19)
(2.21164445744 -0.286274996818 1.02466579954e-20)
(2.16444347167 -0.273472985199 -8.02607169501e-19)
(0.360320248018 -0.0488368250291 8.0190478615e-21)
(1.3950524233 -0.111760385831 8.51173665586e-19)
(2.12062230373 -0.172973306333 2.02219663672e-18)
(2.4056071455 -0.190567324134 -1.99932256732e-18)
(2.45022435319 -0.193334195787 -1.43722126139e-18)
(2.41131863259 -0.186586893676 4.47240332142e-19)
(2.35435440272 -0.176747637708 -1.88020775289e-18)
(2.29801438588 -0.166654227841 -1.2768641889e-18)
(2.24607139965 -0.157418177847 1.51906599187e-18)
(2.1981331089 -0.151623409964 1.29281542839e-18)
(0.41341465855 -0.0209470393915 5.37950847398e-20)
(1.46484902483 -0.00729126992813 5.91755788787e-19)
(2.1710137495 -0.0188630000419 3.80064602655e-19)
(2.43537058442 -0.0197393984049 -2.90001150398e-18)
(2.46904265262 -0.0256886498806 4.05784087037e-20)
(2.42573825185 -0.0273177353215 4.26569736664e-18)
(2.36730150207 -0.0273352025685 -2.25753044178e-18)
(2.31031984757 -0.0268320906187 -1.26737235422e-18)
(2.25809803241 -0.0263817994171 4.13388764979e-19)
(2.21035786969 -0.0275475280206 -9.38104646359e-19)
(-0.00504558551658 0.00121540889413 1.03900438344e-19)
(-0.00356629783613 -0.0887011829602 6.33096412258e-20)
(0.0429401683219 -0.1800624708 -1.69316300387e-21)
(0.105527835622 -0.229745425439 -8.676569212e-21)
(0.17283523135 -0.245934680179 -2.05718861608e-21)
(0.238386003618 -0.2451933916 -4.27482442751e-20)
(0.299124231221 -0.238013894 1.58293037927e-20)
(0.354478010054 -0.229143346215 -2.93205038504e-20)
(0.404522020455 -0.220332718899 3.08728343222e-21)
(0.451784843871 -0.213346282489 -8.14508369117e-21)
(-0.00678873371301 0.0127113087996 3.13606723204e-20)
(0.00974092009557 -0.132814077805 7.81930582011e-20)
(0.0720840109286 -0.28727943394 -1.05529435685e-19)
(0.142997753604 -0.37139746402 -4.7193022208e-20)
(0.212581402561 -0.397398073736 -7.50460684915e-20)
(0.27756688254 -0.393826585512 -8.10388704872e-20)
(0.336692402174 -0.379077612044 2.83880313866e-20)
(0.39017535685 -0.361509703881 -2.2020864852e-20)
(0.438266097742 -0.344258422685 4.79860470397e-21)
(0.484540703173 -0.33142769983 -8.8273673389e-21)
(-0.0102056315587 0.0224129327427 -4.29892105351e-20)
(0.030756768326 -0.176892075622 1.69845017237e-19)
(0.119257676452 -0.391062758399 7.23326946985e-20)
(0.204095957525 -0.507281134991 2.80389656951e-19)
(0.277566769885 -0.542071930171 5.08753401e-20)
(0.341657712581 -0.53543666198 -2.83947102563e-19)
(0.39814468182 -0.513259151032 -3.02377715128e-20)
(0.448550072172 -0.487285555737 8.60371321331e-20)
(0.493434087687 -0.461995970455 -3.30643834553e-20)
(0.538182645935 -0.443515653354 -3.22215041084e-21)
(-0.0147098941232 0.0296135609537 -1.12568613848e-19)
(0.0599890358866 -0.220650885992 -2.60716033386e-20)
(0.184270334157 -0.4895412831 3.18812206798e-20)
(0.288101101769 -0.634473778671 -1.3364332139e-19)
(0.3668013783 -0.676613078599 6.41459019392e-20)
(0.429550636638 -0.666625120573 1.90610633097e-19)
(0.482353117194 -0.637254036995 5.25633763613e-20)
(0.528505156509 -0.603307957708 -1.07771680088e-20)
(0.56901582292 -0.570547460849 2.10552039307e-20)
(0.611702490858 -0.546661828699 -2.46151754048e-21)
(-0.019499450027 0.0336289397286 0)
(0.0980752707538 -0.263770907901 8.79479144418e-20)
(0.266766374142 -0.580848741699 2.6530880104e-19)
(0.393888681641 -0.750103734452 -2.83007966778e-19)
(0.478796397073 -0.797776871921 -5.86942755328e-19)
(0.539636472541 -0.78413361278 1.99210647519e-19)
(0.587724879369 -0.747933329298 -2.75076277505e-20)
(0.628534602588 -0.706617267692 -9.88333746848e-20)
(0.663651282717 -0.66712412198 0)
(0.703764033082 -0.638097344589 -8.66915309701e-21)
(-0.0235502662349 0.0338585371519 5.46328166834e-20)
(0.145714197454 -0.305783622115 8.37310633862e-20)
(0.366141271281 -0.663085034877 4.44630588932e-20)
(0.519834760121 -0.851406463821 2.40020242572e-19)
(0.61146316179 -0.90252148537 -1.90277573658e-19)
(0.669717084138 -0.88497538612 -2.96163245994e-19)
(0.712133015724 -0.842483030081 5.0984426217e-19)
(0.74667289022 -0.794586387219 5.42541993298e-20)
(0.775620928226 -0.749242610043 -2.98460038495e-19)
(0.812657755787 -0.715292463909 -6.9778631405e-21)
(-0.0256470432461 0.0299074414383 -3.23959575812e-21)
(0.203570287325 -0.345943801862 5.21865573625e-21)
(0.481432204216 -0.734292141314 1.31208984744e-19)
(0.663744424732 -0.935819170065 2.56169538659e-20)
(0.762057348892 -0.988187514442 3.24822330922e-19)
(0.816946848904 -0.966665987826 -4.08026705255e-19)
(0.852861540727 -0.918677441099 -4.071234312e-19)
(0.880429225368 -0.865247187934 -3.412127103e-19)
(0.902784874757 -0.815043751754 2.50331974897e-19)
(0.936085564412 -0.776177637316 2.72023735966e-19)
(-0.0244981005071 0.0217314152364 -1.2779563602e-19)
(0.271987560584 -0.383097773581 6.27585187699e-20)
(0.611043034941 -0.792443752276 2.97459765211e-19)
(0.822634657519 -1.00108712837 -1.77062976272e-19)
(0.927019681612 -1.05274147327 3.3925756791e-19)
(0.977710997901 -1.02762643487 8.03067825945e-19)
(1.00648739932 -0.975496617916 5.48715538585e-19)
(1.02664406809 -0.91822529105 -4.29044364832e-19)
(1.04238429806 -0.864478382098 -2.04047309679e-19)
(1.07019978689 -0.820514445863 2.94881986298e-19)
(-0.0190554070946 0.00985749744451 -1.80070267633e-19)
(0.350476538956 -0.415497224867 -2.71358950864e-19)
(0.752140591391 -0.835246148502 6.71241141251e-19)
(0.991988568648 -1.044931006 7.78254230233e-19)
(1.10097742622 -1.09419056335 -7.61897058563e-19)
(1.14627894521 -1.06636062532 8.34764851795e-19)
(1.16710546895 -1.01214167759 1.37729622617e-19)
(1.17926657367 -0.953634466602 -9.89820343991e-19)
(1.18827451805 -0.89819957282 -2.44008145209e-19)
(1.20564113185 -0.849491892172 3.34273752363e-19)
(-0.00866687693148 -0.00461456877208 8.81412287486e-20)
(0.437959957745 -0.440780139177 -2.96567093848e-19)
(0.901375277262 -0.859936921108 -4.4584913052e-19)
(1.16679248254 -1.06448838294 7.79993380722e-19)
(1.27775700082 -1.10944742296 6.1961884566e-19)
(1.31534741374 -1.07931141818 -7.5177511824e-19)
(1.32592491598 -1.0243693104 -6.15365530092e-19)
(1.32773283151 -0.966182242054 3.64678201292e-19)
(1.32758729943 -0.909595875946 -3.82206722195e-19)
(1.32485853805 -0.858349751548 -2.26527979329e-19)
(0.622402322451 -0.173326980082 3.64040035052e-20)
(0.800115132915 -0.132555966085 -7.56871149256e-20)
(0.888457302483 -0.103515941378 5.680584853e-21)
(0.939251779649 -0.0809064038662 1.31704566916e-20)
(0.969099220891 -0.0626801058597 -6.21075623962e-21)
(0.986743668423 -0.0477701648036 -3.09965553904e-21)
(0.997573821548 -0.0355338286727 -4.75888881876e-21)
(1.00437879658 -0.025360476204 -3.14528874387e-21)
(1.00848881284 -0.0172375905274 7.83675192822e-21)
(1.01124486023 -0.00706824541377 2.95068972525e-21)
(0.640108437233 -0.246539717368 1.03892129578e-19)
(0.811918566165 -0.172160659516 1.59774897869e-20)
(0.896902593174 -0.124997184625 4.59758253615e-21)
(0.945654012148 -0.0928206201065 -7.64867653254e-21)
(0.974141384173 -0.0695952453644 -1.69920232816e-20)
(0.990796149325 -0.0519018925814 0)
(1.00086226269 -0.0380494160712 -4.97479281443e-21)
(1.00708757513 -0.0268951309571 3.87449004388e-21)
(1.01080102167 -0.0181679833761 4.77702903888e-22)
(1.0132216093 -0.00742855772028 -3.59094614897e-21)
(0.66825522701 -0.317313421211 -5.78196720085e-20)
(0.828842376426 -0.210855637536 -4.13824694314e-20)
(0.908132752517 -0.146169336974 1.87088432804e-20)
(0.953514853012 -0.10460176119 -9.16819708399e-21)
(0.979962563629 -0.0763994542451 -3.89921468451e-21)
(0.995300170776 -0.0559300342228 6.19916538311e-21)
(1.00442388263 -0.0404696419604 0)
(1.00996544357 -0.0283487844185 0)
(1.01322003396 -0.0190334931131 -2.1412421656e-21)
(1.01527796354 -0.00775922345071 0)
(0.7069011986 -0.384284102526 -3.26328368693e-20)
(0.850658166404 -0.248052423496 7.82098895905e-20)
(0.922070717245 -0.166762623627 8.64620189593e-21)
(0.962816019973 -0.116123110303 0)
(0.986562257794 -0.0830204124123 2.29238373321e-20)
(1.00024675459 -0.0598111222968 -3.52901831089e-21)
(1.00825173999 -0.0427682233139 0)
(1.01300646126 -0.029704390983 4.30104736335e-21)
(1.01575890197 -0.0198235120005 0)
(1.01740769795 -0.00805590618119 6.05551633635e-22)
(0.75611306551 -0.446121548415 -2.87662010956e-20)
(0.877110336446 -0.283218117106 1.06123181561e-19)
(0.938603763544 -0.186518831774 -4.66703650038e-21)
(0.973528218332 -0.127261510673 0)
(0.993927092239 -0.0893901869442 5.07888361348e-21)
(1.00562668239 -0.0635035785996 6.9248909921e-21)
(1.01232690139 -0.044918332893 5.96738252888e-21)
(1.01619859884 -0.0309450340011 1.09342184732e-21)
(1.01838758126 -0.0205273531686 -2.20754065312e-21)
(1.01960218433 -0.00831434521943 2.69525443148e-21)
(0.815722659236 -0.501485706338 -6.65337272074e-19)
(0.907890940731 -0.315900480848 -1.90248169678e-19)
(0.957588489359 -0.20523024964 1.86491853401e-21)
(0.98560745872 -0.137904900765 3.35041236302e-20)
(1.00204503191 -0.0954471288246 -7.88602674119e-21)
(1.01141913179 -0.0669685160434 4.97763852127e-21)
(1.01664061329 -0.0468942584931 4.9835747603e-21)
(1.01952696768 -0.0320535445589 -9.21869306878e-21)
(1.02108871258 -0.0211340141771 -2.11137901155e-22)
(1.02186824726 -0.00853021855942 1.68531989932e-22)
(0.884756395259 -0.548802678412 -1.95658803674e-20)
(0.942250076908 -0.345174405772 7.30694147982e-20)
(0.978723722117 -0.222666602441 3.61335358578e-21)
(0.998967639244 -0.147950124448 -9.3731724992e-22)
(1.0108800367 -0.101140008788 -2.43771598701e-20)
(1.01760768412 -0.0701731584968 5.3337612088e-21)
(1.02117445798 -0.0486736817897 -3.45593312298e-21)
(1.02296937464 -0.033014255038 -4.2903320564e-21)
(1.02386282094 -0.0216331904228 1.07222785616e-21)
(1.02413933629 -0.00869939934436 -1.86935362414e-21)
(0.961697521459 -0.587223140482 2.97659103911e-19)
(0.978249607374 -0.370445764116 8.17064834028e-20)
(1.00086321241 -0.238434914582 0)
(1.01321474857 -0.157180939318 -4.16208285599e-22)
(1.02028685064 -0.106368887137 1.93805531172e-20)
(1.02413348974 -0.0730706289833 1.14579228316e-21)
(1.02588424989 -0.0502319488587 -1.52515634615e-20)
(1.02651784895 -0.0338124866159 4.25793908059e-21)
(1.02667869856 -0.0220162067387 -3.95989320863e-23)
(1.02645721937 -0.00881961603904 -2.93219198477e-22)
(1.04946354535 -0.619951725715 -4.35724028246e-19)
(1.01568577247 -0.395234369966 -2.13057526798e-19)
(1.02246209463 -0.254335015316 5.05297301783e-20)
(1.02729809462 -0.166283041911 -1.83520310485e-22)
(1.02975391336 -0.111352050913 -2.28326594782e-21)
(1.03075033643 -0.0757112345101 -1.46952583333e-20)
(1.03067173314 -0.0515700564487 3.82629979072e-21)
(1.03011051885 -0.0344387892451 5.29588232127e-22)
(1.02950316195 -0.0222745115309 -3.22355903138e-21)
(1.02877132584 -0.0088892555434 -2.81153383459e-21)
(1.15417236901 -0.644204562967 3.03337032751e-19)
(1.06610651876 -0.415770143 -2.13186065288e-19)
(1.04782167968 -0.27093405864 -3.79310153957e-20)
(1.04228781629 -0.1764729501 -4.06566990588e-20)
(1.03940610047 -0.116952781662 -2.3114210802e-20)
(1.03738423772 -0.0785751967703 -1.13247818998e-20)
(1.03547679586 -0.0529177934662 -5.49720107625e-21)
(1.0336945592 -0.0349871467116 0)
(1.03231807473 -0.0224414528668 -3.40826631766e-22)
(1.03107882109 -0.0089022723933 2.04154797583e-21)
(1.30784547359 -0.631363453449 5.07955340139e-19)
(1.16580865574 -0.416522616993 1.59165255517e-19)
(1.10353209179 -0.272805549165 -1.07963787557e-19)
(1.07419026584 -0.178199595522 7.01033435113e-21)
(1.05818336631 -0.117910893261 8.83984080068e-21)
(1.04898385764 -0.0788612073653 -5.07516286516e-21)
(1.04301941714 -0.0528032136111 4.24183957936e-22)
(1.03886102088 -0.034706452523 4.46107431814e-21)
(1.03610156873 -0.0221405676396 -3.13406638108e-21)
(1.0340492138 -0.00876619969853 1.10326173812e-22)
(1.36095917812 -0.517917132793 -1.35443664637e-20)
(1.20097276246 -0.356262284303 1.52145447917e-19)
(1.13278719471 -0.241986233194 1.14543012495e-19)
(1.09716924905 -0.163265784237 -1.36900756571e-20)
(1.07454225965 -0.110050996038 5.38474639856e-20)
(1.06027718165 -0.0742711920125 3.50843246732e-20)
(1.05087831775 -0.0499191131423 2.41112399622e-20)
(1.04446777146 -0.0328562588804 -2.37948356428e-21)
(1.04034598202 -0.0209735193831 8.46882134421e-21)
(1.03740009225 -0.00829700165257 3.84098181101e-21)
(1.4191585154 -0.444360497786 -1.40085557509e-19)
(1.25174102956 -0.317426700575 -1.05539205791e-20)
(1.16792396352 -0.219382499798 5.59952581001e-21)
(1.12105616862 -0.150015997414 3.87686664085e-37)
(1.09070521811 -0.101909085767 8.60151106741e-22)
(1.0712324101 -0.0690200466309 -9.64987541037e-35)
(1.05843511836 -0.0464343410998 -2.95582969458e-21)
(1.04982930319 -0.0305518780651 -2.14372038402e-34)
(1.04437840628 -0.0194928050102 8.581133295e-22)
(1.04053621127 -0.00770798655345 -2.55361842445e-21)
(1.45524200454 -0.365884503837 -1.98847570275e-34)
(1.28834438776 -0.270905811319 -3.97430603012e-20)
(1.1963253559 -0.191644630464 -4.05244747865e-20)
(1.14152782627 -0.133250451416 0)
(1.10506011588 -0.0914103295426 -2.28165678423e-20)
(1.08115741151 -0.0622124700684 -1.57088853467e-20)
(1.06534150758 -0.0419363321442 -9.10883471221e-21)
(1.05475414659 -0.0276033006639 -2.65628599012e-34)
(1.04806069001 -0.017615275683 -2.80569830823e-21)
(1.04339189402 -0.00696745422273 2.42652841877e-21)
(1.47816260886 -0.294601849738 -8.66732149718e-20)
(1.31636272358 -0.225106454666 4.45010997493e-21)
(1.21951678305 -0.162357394329 0)
(1.15879942683 -0.11441462769 0)
(1.11747388339 -0.0791627700946 0)
(1.08986300285 -0.0541301610813 0)
(1.07144289907 -0.0365679366801 -5.85720046123e-22)
(1.05911456421 -0.0240876351421 -2.97151330308e-34)
(1.05135111269 -0.0153815947328 7.59523177039e-22)
(1.04592228857 -0.00608794513518 2.90541319402e-34)
(1.49222066563 -0.228938701485 -3.66156781494e-20)
(1.33718783386 -0.179694353301 0)
(1.23781304927 -0.131825808409 0)
(1.17285592601 -0.0939720168647 0)
(1.12778250782 -0.0655107875302 0)
(1.09721020827 -0.0449902734782 0)
(1.07663883422 -0.0304602451799 9.88818916979e-22)
(1.06283616047 -0.0200828808607 5.66410196414e-21)
(1.05414253867 -0.0128356945423 7.15073473317e-22)
(1.04807157341 -0.00508480506192 3.22363711634e-21)
(1.50041725054 -0.168324946123 0)
(1.35200884328 -0.135126829908 -1.27103634076e-20)
(1.25160917324 -0.100538498803 -1.64774328416e-20)
(1.18374982449 -0.0723582297217 0)
(1.1359138018 -0.0507689349194 -1.06009054913e-20)
(1.10305623501 -0.0350015580816 -7.57990550059e-21)
(1.0808067118 -0.0237473598486 -4.29316899051e-21)
(1.06583679935 -0.0156724502474 -3.32404108352e-21)
(1.05639505427 -0.0100270114182 4.4675313273e-21)
(1.04978370557 -0.00397647859376 1.42672625614e-21)
(1.50382816872 -0.111646968245 8.96019547434e-21)
(1.36088520577 -0.091334834254 6.91274126235e-21)
(1.26041543916 -0.0686332118677 -3.89559435452e-21)
(1.19086809696 -0.0497595388854 2.95959893438e-36)
(1.14123195587 -0.0350886224517 5.45699323497e-22)
(1.10682616178 -0.0242665733371 -6.05095038326e-35)
(1.08340952891 -0.0164932752829 7.61574709743e-22)
(1.06761106088 -0.010894475188 3.2124808553e-21)
(1.05763153526 -0.00697226695426 5.92538126017e-22)
(1.0506374425 -0.00276172808833 -1.98313415525e-21)
(1.48398448179 -0.056006758313 -4.37921772221e-20)
(1.34501283205 -0.0507361583349 1.15875830671e-20)
(1.24704042694 -0.0392437101167 1.25950526647e-20)
(1.1784415084 -0.0288049835468 0)
(1.12912942872 -0.0204397094957 7.51982479038e-21)
(1.09476014325 -0.014183448487 5.33363233194e-21)
(1.07125798783 -0.00965839131708 4.30430069351e-21)
(1.05539566449 -0.00638737610916 2.36807145435e-21)
(1.04537915127 -0.00409184866393 -2.22152703758e-21)
(1.03832785783 -0.00161935803013 2.4159053721e-21)
(1.11323550921 -0.0032334404153 0)
(1.02449494938 -0.00707776632081 0)
(0.955394782371 -0.00627738090437 0)
(0.905260848644 -0.00477933851228 0)
(0.868656488039 -0.00343371820942 0)
(0.842942735723 -0.00240486934293 0)
(0.825266413628 -0.0016486991669 6.02564434969e-22)
(0.813269633175 -0.00110026279422 -3.72985317151e-36)
(0.805648746692 -0.000692919612558 5.88233320974e-22)
(0.80028918214 -0.000263487826618 1.82412625717e-21)
(2.12582098621 -0.0274953713377 8.63779431586e-19)
(2.11622731988 -0.133887842469 5.99204019578e-20)
(2.08865562981 -0.238160476471 -1.29825302463e-19)
(2.04349974352 -0.337835001659 -3.37421320459e-19)
(1.98247142031 -0.431290131938 -1.19568278058e-19)
(1.90511990674 -0.517204494535 -1.75718258365e-19)
(1.82102437848 -0.587542392441 -4.08729772054e-19)
(1.70836701222 -0.664762036308 1.32616239329e-19)
(1.6326437283 -0.682014613274 0)
(1.46497841451 -0.770157773287 3.32383168123e-20)
(2.03982168691 -0.0201624170169 2.1480538956e-19)
(2.03182861332 -0.0997453978649 -3.34070751177e-19)
(2.01045559542 -0.178482201058 1.83474624012e-22)
(1.97507769946 -0.254841838543 -1.32688728374e-19)
(1.92998972922 -0.327088846385 1.41274777906e-20)
(1.86725038743 -0.398301176549 1.14948280797e-19)
(1.81009874549 -0.448476160597 3.39117273509e-20)
(1.71462089032 -0.530381569221 9.77427677696e-20)
(1.66471341531 -0.527996965589 -1.19133761801e-19)
(1.54680329348 -0.622336600984 2.16186249817e-20)
(1.96593683219 -0.0149884458322 -1.14060562198e-19)
(1.95996657755 -0.078220615073 2.04629433014e-19)
(1.94345465222 -0.140461039366 1.89196977464e-19)
(1.91524391618 -0.20090681645 -2.1995117596e-19)
(1.88031848525 -0.257558567011 1.06995050162e-19)
(1.82944625387 -0.315881972324 1.04791147086e-19)
(1.78561203611 -0.353046540186 -6.97911353291e-20)
(1.71099324067 -0.426222510338 8.21578738461e-20)
(1.66573781891 -0.421089898826 8.30957262876e-20)
(1.57982228762 -0.504734487854 1.07331738882e-19)
(1.90929242546 -0.0136962828949 -1.8639583673e-19)
(1.90448342182 -0.0621090799501 5.27626700325e-20)
(1.8907400734 -0.109985453788 -1.13613834483e-19)
(1.86727682298 -0.157048459125 -6.74096742635e-20)
(1.83813179659 -0.20124821102 3.87419382215e-20)
(1.79644921158 -0.248089756277 -1.03538354468e-19)
(1.75864500921 -0.277494676687 7.42869315279e-20)
(1.70058334557 -0.337588879425 3.00894823133e-20)
(1.65794417886 -0.33496359485 -1.72834919871e-20)
(1.59362160699 -0.40322112374 8.26692093027e-21)
(1.86501206861 -0.0115485080261 5.54565164244e-20)
(1.86103840071 -0.0484602896249 4.33360108534e-20)
(1.84925729884 -0.0849460474326 -6.45915105292e-20)
(1.8293137648 -0.120954193824 2.28759926657e-19)
(1.80384721635 -0.15484913551 1.71042984657e-20)
(1.76915498666 -0.191087003508 -1.30905922181e-19)
(1.73499108295 -0.214459571745 1.96716726759e-20)
(1.68869229795 -0.260721131914 -8.49428611275e-20)
(1.64919574303 -0.26087260723 1.16170799128e-19)
(1.59826169768 -0.313587405743 8.46424537308e-20)
(1.83150004435 -0.0106964316021 -1.00516889516e-19)
(1.82818986944 -0.0377247048829 -5.75276658541e-20)
(1.81776548051 -0.0644615241156 3.75880408374e-20)
(1.80026274896 -0.0909687235918 7.86901911246e-20)
(1.77723286506 -0.116105726846 3.24142628382e-20)
(1.74737017254 -0.143043898995 -3.92133756886e-20)
(1.71567445117 -0.161253423174 3.0386676648e-21)
(1.67693449107 -0.195405718489 5.66771833652e-20)
(1.64014677359 -0.19756736339 1.07334245099e-19)
(1.59718150977 -0.236841121255 -5.26513062632e-20)
(1.80714976798 -0.0103086275824 -4.27911390902e-20)
(1.8044014345 -0.0287729283979 -7.7715484332e-20)
(1.79497821126 -0.0470281079976 -4.65918700293e-20)
(1.77918442979 -0.0652311675201 -9.60850433656e-20)
(1.75779735768 -0.0826859108707 -2.39622032417e-20)
(1.73106023347 -0.101513321301 -6.84777395716e-21)
(1.70100892673 -0.114860680341 4.75352140761e-20)
(1.66685986942 -0.138943450431 -1.81446631909e-20)
(1.63221384668 -0.141907609445 -3.07103577138e-20)
(1.59374009422 -0.170135244 1.15860355105e-20)
(1.78727024717 -0.00979926727742 3.36683845156e-20)
(1.78559369081 -0.0206501256653 3.53825458523e-20)
(1.77751703952 -0.0312360814524 1.24824420989e-20)
(1.76349898293 -0.0417641929854 -2.17024858072e-20)
(1.74383354498 -0.0520408426317 -1.74841639965e-20)
(1.71952110898 -0.0634833216115 3.76136406389e-20)
(1.69082151004 -0.0719153130326 -1.09824114302e-21)
(1.65940030834 -0.0875919690729 -4.8814563567e-20)
(1.62618578762 -0.0900519776619 1.15060545771e-20)
(1.58993463974 -0.110077097894 4.95208838289e-20)
(1.7162777591 -0.0140869257206 -2.24786281974e-20)
(1.71640957113 -0.0164398989693 5.52510464289e-21)
(1.71291295369 -0.0184568176404 3.66189511147e-20)
(1.70515775784 -0.0204550644439 3.78197509676e-21)
(1.69261525754 -0.0224208436923 -1.10446569961e-21)
(1.67640176649 -0.0255765222003 -1.00442988005e-20)
(1.65500252236 -0.0271572983938 2.15641389127e-20)
(1.63178518807 -0.0346603034482 -3.04233497454e-20)
(1.60305088716 -0.0341174362663 3.52812943909e-20)
(1.57545306202 -0.0464614541205 1.16985935159e-19)
(1.12265912039 -0.00858696736498 2.89971754873e-20)
(1.11489448947 -0.00559479019683 1.80647194288e-20)
(1.11015200353 -0.00265098965616 1.42606124622e-20)
(1.10892807792 0.000157482831332 1.49198182706e-20)
(1.11030610671 0.00276423555 -1.08835080664e-21)
(1.11499653028 0.00495520990526 6.22166527261e-21)
(1.1187699182 0.00714782199205 -9.50355054295e-21)
(1.12852217495 0.00689854027299 3.06934714746e-21)
(1.12658204271 0.0101628098343 -4.88324630014e-21)
(1.14409595582 0.00536677749323 5.5102362746e-21)
(1.38280587057 0.7475186624 -5.46707143955e-20)
(1.36615217738 0.799594491714 2.35653878425e-20)
(1.37084418772 0.856781519906 -4.86238287039e-19)
(1.38161635466 0.920034436342 2.08190846089e-19)
(1.39207515752 0.987454871317 9.13537986116e-19)
(1.39839050125 1.05626686535 -1.32542100615e-19)
(1.38257639331 1.11280299882 -8.78805315421e-19)
(1.28286179971 1.09767570384 -2.13528598242e-20)
(0.979646660232 0.880369252236 -4.17651003151e-19)
(0.407353244102 0.367785031702 1.70519760331e-19)
(1.55099975662 0.720891491446 0)
(1.54278326603 0.771991569755 5.57536692801e-19)
(1.54299481855 0.825139864973 1.26786220918e-18)
(1.54992464389 0.88587578873 -7.70047502348e-19)
(1.56116519338 0.952624259171 -1.84215072495e-18)
(1.57130674225 1.02184960336 -1.391329208e-19)
(1.55795350719 1.07898372277 -1.79197949513e-19)
(1.44866318291 1.06430575017 6.60646796634e-19)
(1.10442292938 0.85027569799 8.50652368726e-19)
(0.454212326634 0.349056831044 3.54693585049e-19)
(1.69093299547 0.702869464528 6.36639680877e-20)
(1.69581670643 0.749559161355 0)
(1.70124921175 0.79758408258 -6.56016297029e-20)
(1.7116892879 0.852482880744 7.74604054312e-19)
(1.72719504077 0.913758060589 5.24284224244e-20)
(1.74196243466 0.978393593963 -1.91230840349e-18)
(1.73044303121 1.03160419201 1.24174686781e-18)
(1.61007807915 1.01453794095 7.92431191484e-19)
(1.22335053653 0.805720454637 -7.63666724189e-19)
(0.496469355831 0.323446804872 -2.77841514773e-19)
(1.80208046923 0.670843891928 -1.26209581451e-19)
(1.81836822642 0.711898082815 -9.9618837735e-20)
(1.83427259629 0.754935493487 2.27033106599e-19)
(1.85419097186 0.804149371678 -2.8567443765e-19)
(1.87825315792 0.859446817782 -1.37364709371e-18)
(1.90027990888 0.918196161857 -1.07727027992e-18)
(1.89162046168 0.965646245545 1.19989527473e-18)
(1.75957159773 0.944821337782 8.09634845395e-19)
(1.32938093798 0.743874923364 0)
(0.529270263289 0.289157135352 0)
(1.89604317353 0.613306133918 -7.823310451e-19)
(1.92167849987 0.649827369115 -1.39438445013e-18)
(1.94828672596 0.688827593696 -5.52408295655e-19)
(1.97872374347 0.733092949232 -3.30425776849e-20)
(2.01249847316 0.782611898515 0)
(2.04266786912 0.835057587846 1.39376910076e-19)
(2.03687643766 0.875989905713 1.65938081731e-19)
(1.89184550932 0.851569661629 2.14316329228e-19)
(1.41740165791 0.66322922235 -3.25245694598e-19)
(0.54946014221 0.246702528132 -8.06803574582e-20)
(1.98150813558 0.533020678743 9.53396405296e-19)
(2.01421313961 0.565726014405 -4.07442751782e-20)
(2.04937986057 0.600816306827 -1.14195185952e-18)
(2.0886596843 0.64004560571 0)
(2.13094910416 0.683461562727 0)
(2.16815896745 0.729047786966 0)
(2.16359048714 0.762910040642 1.52618491249e-18)
(2.0031602651 0.735613501957 -1.87002347689e-18)
(1.48511839122 0.565943225966 -1.06586791083e-18)
(0.554911043854 0.198467392675 -9.52746158727e-20)
(2.05849368725 0.437097718044 -1.28223516763e-18)
(2.09632350808 0.465376812289 -2.71039450254e-18)
(2.13782662533 0.495512533412 -4.78722175555e-21)
(2.18382954374 0.528718633173 5.68124208678e-19)
(2.23275280766 0.565144653711 -4.00046193996e-20)
(2.27508864703 0.603200119188 1.30849687454e-18)
(2.26917391919 0.630288677171 -7.6008867344e-19)
(2.09250787503 0.599271693716 -2.39754730796e-18)
(1.5285818257 0.457003106943 1.72903717456e-19)
(0.546564416173 0.151201416223 1.23629208919e-19)
(2.12282524042 0.330519042404 -1.03560812113e-18)
(2.16455586216 0.353089045409 1.52905030384e-20)
(2.21075232186 0.376873014847 4.10554330093e-19)
(2.26172091733 0.402892491468 -4.07092659862e-19)
(2.31550543303 0.43128906701 6.50919562438e-19)
(2.36104906553 0.461197807257 1.85213738531e-18)
(2.35237285725 0.480197399153 -2.20927070158e-19)
(2.15423924558 0.451669052384 -1.35195069856e-18)
(1.54615197194 0.342340171202 2.62510298517e-19)
(0.528144763811 0.102868860067 2.00883042846e-20)
(2.17071814424 0.216070657607 4.00312384481e-19)
(2.21543329153 0.231904626819 7.6786948558e-20)
(2.26504633355 0.248201028192 -4.35427646159e-19)
(2.31946150797 0.265954896205 -1.05566807155e-18)
(2.3765476096 0.285396673261 8.76246541473e-20)
(2.42345563703 0.305363076725 8.68539639826e-20)
(2.40878013939 0.319925050585 -1.68833467543e-18)
(2.1877267541 0.297631562602 7.45496587429e-19)
(1.54148218493 0.223749751762 1.93506360494e-19)
(0.499014403693 0.0568756088732 -1.32502055469e-19)
(2.20051749939 0.0961326215507 7.85355726665e-19)