/*--------------------------------*- C++ -*----------------------------------*\
  =========                 |
  \\      /  F ield         | OpenFOAM: The Open Source CFD Toolbox
   \\    /   O peration     | Website:  https://openfoam.org
    \\  /    A nd           | Version:  13
     \\/     M anipulation  |
\*---------------------------------------------------------------------------*/
FoamFile
{
    format      ascii;
    class       volScalarField;
    location    "0.295";
    object      p;
}
// * * * * * * * * * * * * * * * * * * * * * * * * * * * * * * * * * * * * * //

dimensions      [0 2 -2 0 0 0 0];

internalField   nonuniform List<scalar> 
440
(
7.94153
10.6983
13.0616
13.2454
10.2739
20.8378
24.2215
27.2175
27.9191
26.0333
41.3767
44.4083
47.1117
47.9048
46.7449
67.5113
69.6093
71.5229
72.1797
71.4925
96.7897
97.6067
98.4038
98.8038
98.7702
-0.260401
-0.365493
0.0975119
0.649332
0.986329
-1.55129
-2.21488
-1.95368
-1.26086
-0.626635
-1.9372
-2.81481
-2.72854
-1.96808
-0.848805
-0.590466
-0.720195
-0.307338
0.664545
2.53391
3.18848
4.50107
5.93377
7.37009
9.62486
2.23749
2.42959
1.53432
0.825146
0.275147
1.18139
2.20488
1.4144
0.764311
0.260723
0.0196426
1.77142
1.26942
0.710991
0.249911
-0.274766
1.17045
1.05591
0.664777
0.24385
1.65233
0.595233
0.769217
0.617751
0.24195
4.5415
0.373355
0.468207
0.574173
0.247706
6.8564
0.789508
0.530074
0.58863
0.223035
10.1137
2.54266
1.1928
0.709621
0.180093
14.0153
4.89134
2.27043
0.958602
0.170331
16.7578
7.27408
3.59069
1.37419
0.236771
100.814
75.9651
53.45
33.277
12.4776
102.51
79.0665
57.6601
39.1791
23.6067
104.411
82.8276
62.5991
45.3568
33.0099
105.294
85.1482
66.6313
51.3141
40.7903
105.213
84.8704
66.4567
51.3815
41.0311
220.001
216.535
216.251
218.373
221.108
202.816
200.357
200.621
203.364
206.656
180.669
178.9
179.265
181.688
184.566
154.87
153.528
153.734
155.328
157.225
126.989
126.275
126.215
126.675
127.267
235.593
236.012
236.633
237.038
236.772
236.247
236.875
237.421
237.389
236.429
235.113
236.09
236.511
236.242
235.25
230.237
231.846
232.425
232.573
232.482
221.728
223.604
224.631
225.85
227.208
236.002
234.818
234.996
234.11
234.3
235.973
234.806
234.957
234.095
234.89
235.964
234.775
234.922
234.245
235.47
235.972
234.724
234.935
234.516
235.072
235.986
234.657
235.014
234.719
232.364
236.007
234.552
235.074
234.506
228.83
236.154
234.426
234.968
234.071
226.483
236.992
234.19
234.311
232.36
223.458
240.97
234.18
233.116
229.849
219.756
249.923
234.898
231.922
227.29
216.992
217.877
196.352
175.15
151.859
126.573
207.497
191.501
172.455
150.55
126.779
199.011
186.33
168.743
148.214
126.459
191.856
180.901
165.22
146.385
126.045
191.635
180.881
165.476
146.785
126.276
96.5164
95.6395
95.1917
94.4249
94.2684
57.4483
55.501
53.7956
51.8743
51.1086
29.6286
27.2849
24.5227
22.2246
20.9004
15.1838
12.7673
10.3031
8.2844
7.31422
9.35529
7.46845
6.08395
5.11081
4.52354
6.12268
5.02173
4.44497
4.35889
4.44836
4.21194
3.75298
3.68252
3.8399
3.99457
2.91539
2.90054
3.13267
3.43506
3.59327
1.83755
2.13665
2.58152
2.92923
3.07377
0.80846
1.19825
1.76062
2.15698
2.32952
3.77025
3.33613
2.21931
1.11412
0.344435
3.81874
3.16654
2.12711
1.062
0.33312
3.62268
2.91238
1.99935
1.01185
0.321319
3.31194
2.68183
1.84217
0.958186
0.309415
2.89823
2.53898
1.67524
0.892093
0.292514
4.6362
3.31949
2.12498
1.12959
0.359505
3.90486
3.414
2.22141
1.14169
0.353277
95.0242
54.2795
27.653
14.6353
9.61675
93.8031
51.27
23.1291
9.61996
5.41287
232.209
232.291
232.245
231.736
230.662
232.805
232.979
233.211
233.255
232.884
233.36
233.53
233.913
234.309
234.479
233.926
234.076
234.473
235.061
235.469
234.634
234.867
235.36
235.951
236.194
142.086
141.894
141.066
140.556
139.644
185.307
184.498
182.52
180.753
178.776
215.594
214.224
211.875
209.062
206.687
229.22
228.212
226.164
223.669
221.224
232.065
231.449
230.481
229.104
227.206
238.944
234.578
234.687
233.577
232.968
237.27
234.616
234.776
233.751
232.995
236.544
234.699
234.876
233.97
233.315
236.208
234.77
234.968
234.139
233.663
236.064
234.81
235.007
234.176
233.95
252.357
235.904
235.051
233.52
232.056
243.271
234.824
234.626
233.455
232.766
227.01
221.935
208.833
182.128
141.335
231.204
226.965
213.389
185.152
142.558
)
;

boundaryField
{
    left
    {
        type            zeroGradient;
    }
    right
    {
        type            fixedValue;
        value           uniform 0;
    }
    down
    {
        type            zeroGradient;
    }
    up
    {
        type            zeroGradient;
    }
    cylinder
    {
        type            zeroGradient;
    }
    defaultFaces
    {
        type            empty;
    }
}


// ************************************************************************* //
