/*--------------------------------*- C++ -*----------------------------------*\
  =========                 |
  \\      /  F ield         | OpenFOAM: The Open Source CFD Toolbox
   \\    /   O peration     | Website:  https://openfoam.org
    \\  /    A nd           | Version:  13
     \\/     M anipulation  |
\*---------------------------------------------------------------------------*/
FoamFile
{
    format      ascii;
    class       surfaceScalarField;
    location    "0.295";
    object      phi;
}
// * * * * * * * * * * * * * * * * * * * * * * * * * * * * * * * * * * * * * //

dimensions      [0 3 -1 0 0 0 0];

internalField   nonuniform List<scalar> 
823
(
0.0113777
-0.0505563
0.0391786
0.03876
-0.133438
0.106056
0.078838
-0.205878
0.1658
0.130186
-0.268865
0.217517
-0.323246
0.25939
0.194042
0.0107029
-0.0612592
0.0361438
-0.158879
0.0726518
-0.242386
0.117982
-0.314195
-0.375599
0.170335
0.0083774
-0.0696366
0.0282869
-0.178789
0.0567303
-0.270829
0.09182
-0.349285
-0.416056
0.132277
0.00529979
-0.0749364
0.0179975
-0.191486
0.0362337
-0.289066
0.0588911
-0.371943
-0.442425
0.0852596
0.00196222
-0.0768986
0.00663078
-0.196155
0.013291
-0.295726
0.0215239
-0.380175
0.0310648
-0.451966
0.0066875
-0.0106839
0.00399642
0.0222138
-0.0307853
0.015259
0.0453828
-0.0483441
0.0251751
0.0744847
-0.0637697
0.0346678
-0.0768448
0.108081
0.043248
0.00579415
-0.0164781
0.0215759
-0.046567
0.0468407
-0.0736089
0.0799278
-0.0968567
-0.115956
0.119039
0.00641314
-0.0228912
0.0237166
-0.0638705
0.0513461
-0.101238
0.0880797
-0.13359
-0.160041
0.132165
0.00754142
-0.0304326
0.0271065
-0.0834356
0.0573598
-0.131492
0.097097
-0.173327
-0.207857
0.144913
0.00874597
0.0313663
0.0656743
0.109864
0.161397
0.321215
-0.955099
0.741965
0.46962
-0.814486
0.666081
0.554889
-0.342512
0.257243
0.581738
-0.0919051
0.0650556
-0.0146203
0.015253
0.330606
-1.16667
0.468886
-0.952765
0.554815
-0.428441
0.582135
-0.119225
-0.0158634
0.337473
-1.37198
0.462005
-1.0773
0.546957
-0.513393
0.578526
-0.150794
-0.0230814
0.338184
-1.56525
0.45109
-1.1902
0.53264
-0.594942
0.57224
-0.190394
-0.0393794
0.328009
-1.73186
0.431198
-1.29339
0.508822
-0.672566
0.561922
-0.243494
-0.0681474
1.19639
-1.58807
-1.34017
1.00676
-1.10376
0.908798
-0.574607
0.883845
-0.218542
-0.0576863
1.33135
-1.13215
-1.78728
0.988253
-0.760662
0.801567
-0.387921
0.736484
-0.153459
-0.0386017
1.19031
-0.607462
-1.71499
0.817744
-0.388099
0.623731
-0.193908
0.551532
-0.0812588
-0.0210116
0.822528
-0.185269
-1.24472
0.54549
-0.111061
0.402955
-0.0513735
0.345099
-0.0234021
-0.00639974
0.306696
-0.491965
0.195635
0.144261
0.120859
1.56262
0.046251
-1.57781
1.5217
0.126176
1.46266
0.191325
1.39629
0.236703
0.250156
1.67592
0.0356541
-1.66532
1.6994
0.102694
1.73093
0.159802
1.76543
0.2022
0.228307
1.38799
0.0184781
-1.37081
1.43708
0.0535985
1.51392
0.0829601
1.61025
0.105875
0.123564
0.977702
0.00531476
-0.964539
1.01588
0.0154191
1.07581
0.0230362
1.15387
0.0278154
0.0327086
0.392986
-0.387671
0.408405
0.431441
0.459257
0.128816
0.32758
-0.26458
-0.191816
0.0781749
0.273195
-0.222554
0.0385275
0.209793
-0.170145
0.0113397
0.136453
-0.109265
0.0519611
-0.0406214
0.115962
0.378889
-0.167271
0.0714941
0.317663
0.0356122
0.245675
0.0105578
0.161507
0.0625188
0.0888575
0.418273
-0.128242
0.0548108
0.35171
0.0272853
0.2732
0.00806348
0.180729
0.0705823
0.055249
0.443541
-0.0805163
0.0337661
0.373192
0.0166555
0.290311
0.00486411
0.19252
0.0754464
0.0174849
-0.0259099
0.0105018
0.00508661
0.00145217
0.0720489
0.086821
-0.10643
-0.0524399
0.0425166
0.0732594
-0.0437271
0.0195507
0.0565572
-0.0335913
0.00508772
0.03653
-0.022067
0.0131663
-0.00807853
0.0761998
0.125412
-0.114791
0.0438687
0.10559
0.0197381
0.0806879
0.00512468
0.0511433
0.0182909
0.0848689
0.168225
-0.127682
0.0494015
0.141058
0.0228978
0.107192
0.00622565
0.0678155
0.0245166
0.0944306
0.2145
-0.140706
0.0560014
0.179487
0.0266413
0.136552
0.00746429
0.0869925
0.0319809
0.107573
-0.157653
0.0645065
0.030913
0.00864053
0.504816
0.165485
-0.274321
0.540328
0.180459
-0.21597
0.485065
0.312071
-0.256808
0.330522
0.803472
-0.648929
1.03523
-0.811139
0.500902
0.0605624
0.535228
0.146133
0.476277
0.371021
0.329601
0.950148
1.25004
0.498036
-0.0414939
0.524847
0.119322
0.459872
0.435996
0.329173
1.08085
1.45153
0.494901
-0.140415
0.512064
0.102159
0.440965
0.507095
0.326119
1.19569
1.63695
0.490228
-0.234664
0.492561
0.0998265
0.416259
0.583397
0.314289
1.29766
1.79358
0.772789
-0.403433
0.860032
0.0125835
0.959156
0.484273
1.16938
1.08744
1.6157
1.34726
0.730587
-0.529999
0.816151
-0.0729806
0.966992
0.333432
1.30063
0.753798
1.14222
1.77411
0.610514
-0.536493
0.647469
-0.109936
0.808256
0.172645
1.17383
0.388229
0.611781
1.70426
0.45063
-0.383103
0.412198
-0.0715046
0.538757
0.0460859
0.816211
0.110776
0.186887
1.2411
0.220918
0.149413
0.195499
0.306275
0.493162
1.40242
-0.246975
1.46567
-0.230517
1.52298
-0.18555
1.56317
-0.120706
-0.0405485
1.75294
-0.225799
1.71995
-0.197526
1.69076
-0.156365
1.67093
-0.100873
-0.0349439
1.60165
-0.123184
1.50885
-0.104724
1.4346
-0.0821162
1.38707
-0.0533489
-0.0186833
1.15103
-0.0331092
1.07427
-0.0279652
1.01528
-0.0231266
0.977567
-0.0156346
-0.00565525
0.460053
0.432087
0.408961
0.393326
0.00250097
0.0429966
-0.0454976
0.00732678
0.101031
-0.105857
0.016093
0.14837
-0.157136
0.0165759
0.151886
-0.152369
0.114007
0.0148113
-0.112243
0.00682715
0.0361694
0.0201745
0.0876838
0.0409523
0.127592
0.0482488
0.144589
0.116362
0.045894
0.00880742
0.027362
0.0270716
0.0694196
0.0521426
0.102521
0.0730858
0.123646
0.114017
0.0754314
0.00779866
0.0195634
0.0255064
0.0517119
0.049738
0.0782897
0.0774234
0.0959606
0.0992114
0.0922286
0.00509602
0.0144674
0.0179646
0.0388433
0.0367581
0.0594963
0.0600111
0.0727076
0.0766934
0.082529
0.00342182
0.0110455
0.0125758
0.0296893
0.0274523
0.0446198
0.0470916
0.0530684
0.0560735
0.0677115
0.00223917
0.00880637
0.00899357
0.0229349
0.0223989
0.0312145
0.0412068
0.0342604
0.0346327
0.0626477
0.00169788
0.0071085
0.0101917
0.0144411
0.0262564
0.0151499
0.0468004
0.0137164
0.0113929
0.0700402
0.00367586
0.00343266
0.0173776
0.000739377
0.0366051
-0.00407746
0.0595139
-0.00919244
-0.0143989
0.0853057
0.00742912
0.0234275
0.0445252
0.0700005
0.0988497
0.154521
0.018157
-0.104967
0.244015
-0.12991
0.0404166
0.266494
-0.0403431
0.0178643
0.277091
-0.00906924
-0.00152836
-0.00910318
-0.000639065
0.215398
-0.134593
0.325793
-0.240306
0.353416
-0.0679657
0.362696
-0.01835
-0.0155947
0.259685
-0.324238
0.390814
-0.371435
0.434622
-0.111773
0.443133
-0.0268615
-0.017444
0.291637
-0.53057
0.435937
-0.515735
0.500661
-0.176497
0.514011
-0.0402119
-0.0156784
0.310245
0.460591
0.541338
0.566181
0.0708457
0.0384772
-0.109323
0.0788413
-0.00799571
0.083467
-0.00462564
0.0827541
0.000712864
0.000197806
0.19491
-0.2614
0.227331
0.24057
0.239754
0.0207273
-0.0043305
-0.0163968
0.0342744
-0.0135471
0.0567484
-0.022474
0.0856043
-0.0288559
-0.0237185
0.0539125
-0.0434316
0.0862593
0.139217
0.202589
0.047958
-0.0550113
0.0762724
-0.0692191
0.0276233
-0.0520282
0.0723629
0.0123495
-0.0442853
0.0595591
0.00331717
-0.0300202
0.0390526
-0.0112607
0.0145779
0.045814
-0.0320141
-0.0688112
0.0252725
-0.0314866
0.00998919
-0.0290019
0.00222864
-0.0222596
-0.00903208
0.0562995
-0.00641521
-0.0818984
0.0333567
-0.00854384
0.0144771
-0.0101222
0.00267049
-0.0104531
-0.00636158
0.0695772
0.0216402
-0.0976326
0.0444889
0.0165445
0.0231973
0.0111694
0.00688931
0.00585497
0.000527741
0.0733672
-0.104167
0.0461847
0.0237628
0.00755079
0.0165827
-0.114006
-0.0148197
0.0160927
-0.151879
0.00730566
-0.148349
0.00248877
-0.10104
-0.0430088
0.0482665
-0.116353
-0.0459193
0.040927
-0.144539
0.0201608
-0.127583
0.00682006
-0.0876994
-0.0361887
0.0731251
-0.113948
-0.0755297
0.0521167
-0.123531
0.0270602
-0.102526
0.00880435
-0.0694435
-0.0273844
0.0773439
-0.0989242
-0.0923679
0.0496134
-0.0958003
0.0254254
-0.0783385
0.0077724
-0.0517905
-0.019612
0.0599888
-0.0826405
0.0365514
0.017772
0.00503408
0.343273
0.5814
-0.528693
0.284755
0.218805
-0.160287
0.250975
0.0543032
-0.0205231
0.166499
0.119838
-0.0353624
0.0014116
0.0958687
0.410806
0.566574
0.377398
0.252213
0.339236
0.0924653
0.234549
0.224525
0.16715
0.465758
0.496795
0.458132
0.259839
0.411347
0.13925
0.283528
0.352344
0.36878
0.504817
0.387958
0.519562
0.245094
0.459278
0.199534
0.315371
0.496251
0.586518
0.509617
0.53874
0.481466
0.328788
0.158716
0.351335
0.0855606
0.0731556
0.0815062
0.00405438
0.0727628
0.00874339
-0.036631
0.109394
0.332693
0.245561
0.229092
0.202474
0.261712
0.085659
0.0237348
0.05678
0.028879
0.0342852
0.0224948
0.0207307
0.0135545
0.00433396
0.202806
0.139317
0.0862823
0.0539174
)
;

boundaryField
{
    left
    {
        type            calculated;
        value           nonuniform List<scalar> 
17
(
-0.60402
-0.60402
-0.60402
-0.60402
-0.60402
-0.39598
-0.39598
-0.39598
-0.39598
-0.39598
-0.39598
-0.39598
-0.39598
-0.39598
-0.39598
-0.510051
-0.510051
)
;
    }
    right
    {
        type            calculated;
        value           nonuniform List<scalar> 
17
(
0.0825563
0.239313
0.286834
0.369188
0.444982
0.512246
0.565756
0.581105
0.583378
0.585744
0.588538
0.59069
0.873384
0.717399
0.533942
0.330487
0.11446
)
;
    }
    down
    {
        type            calculated;
        value           uniform 0;
    }
    up
    {
        type            calculated;
        value           uniform 0;
    }
    cylinder
    {
        type            calculated;
        value           uniform 0;
    }
    defaultFaces
    {
        type            empty;
    }
}


// ************************************************************************* //
