/*--------------------------------*- C++ -*----------------------------------*\
  =========                 |
  \\      /  F ield         | OpenFOAM: The Open Source CFD Toolbox
   \\    /   O peration     | Website:  https://openfoam.org
    \\  /    A nd           | Version:  13
     \\/     M anipulation  |
\*---------------------------------------------------------------------------*/
FoamFile
{
    format      ascii;
    class       volScalarField;
    location    "0.505";
    object      strainRateViscosityModel:nu;
}
// * * * * * * * * * * * * * * * * * * * * * * * * * * * * * * * * * * * * * //

dimensions      [0 2 -1 0 0 0 0];

internalField   nonuniform List<scalar> 
1800
(
9.40488
9.19759
9.01004
8.80091
8.57609
8.34407
8.11541
7.89817
7.62432
7.37946
9.58523
9.41878
9.26689
9.0973
8.91114
8.71138
8.50352
8.28865
8.02734
7.70219
9.70219
9.56269
9.42803
9.27095
9.08866
8.87896
8.64088
8.36901
8.03059
7.61068
9.77539
9.65614
9.53324
9.38287
9.20048
8.9817
8.72279
8.41595
8.02879
7.55462
9.82168
9.7183
9.60558
9.46166
9.2807
9.05695
8.78548
8.45888
8.04776
7.55618
9.85185
9.76082
9.6573
9.52059
9.34355
9.11896
8.84034
8.50016
8.07152
7.57022
9.87179
9.78991
9.69399
9.56396
9.39147
9.16769
8.8842
8.53252
8.08736
7.57569
9.88475
9.80925
9.71888
9.59395
9.42495
9.20146
8.9131
8.55005
8.08853
7.56356
9.8926
9.82107
9.73416
9.61221
9.44467
9.21963
8.92484
8.54923
8.07121
7.52872
9.89646
9.82686
9.74153
9.6207
9.4531
9.22574
8.92513
8.53953
8.05038
7.49285
1.77169
1.40512
1.21587
1.32519
1.7296
2.2457
2.49216
2.44895
2.3609
2.3371
3.69766
1.78647
1.49854
1.98156
2.68866
2.96865
2.82077
2.67765
2.69235
2.74443
4.68221
2.57552
2.44044
3.17265
3.59096
3.34921
3.08929
3.12451
3.2621
3.34188
5.25883
3.88545
3.81728
4.21051
4.17933
3.83378
3.72678
3.85864
3.96025
4.00939
6.05185
5.27671
5.11846
5.12005
4.91495
4.65561
4.58068
4.61449
4.61518
4.65524
6.95853
6.46031
6.22692
6.03773
5.78814
5.54603
5.39028
5.29492
5.22441
5.2772
7.77135
7.37777
7.11671
6.85997
6.58712
6.32052
6.0876
5.90181
5.77163
5.82538
8.40004
8.05527
7.7919
7.51554
7.22621
6.93099
6.64218
6.38667
6.19305
6.23027
8.84932
8.54534
8.29091
8.01014
7.70548
7.37926
7.03551
6.70122
6.41617
6.4224
9.16164
8.90152
8.66627
8.39657
8.09557
7.76562
7.40635
7.03569
6.70882
6.75289
2.19422
1.72998
1.33195
0.933806
0.611561
0.330775
0.149852
0.0896736
0.0959259
0.14643
2.53029
1.85133
1.40993
0.933014
0.588958
0.314855
0.132474
0.0514515
0.0348132
0.0547912
2.95173
1.98177
1.4844
0.934102
0.558404
0.291753
0.115803
0.0330554
0.0179958
0.0127945
3.44437
2.15199
1.55663
0.93953
0.524172
0.264296
0.0992327
0.02572
0.0159284
0.0107271
3.9863
2.38968
1.63404
0.949609
0.489096
0.233533
0.0839164
0.0228948
0.0155529
0.0106462
4.53126
2.70036
1.72986
0.966016
0.455948
0.199967
0.0697916
0.0216689
0.0155786
0.0106117
4.99922
3.05975
1.8513
0.98839
0.425448
0.164236
0.0559857
0.0209785
0.015699
0.0106371
5.31474
3.44257
2.01814
1.03086
0.404907
0.129802
0.04207
0.0198152
0.0147298
0.0146229
5.3451
3.72579
2.16749
1.06269
0.382663
0.0967112
0.0292593
0.0175386
0.0148924
0.0748741
5.20372
3.99208
2.40329
1.16658
0.400308
0.0808438
0.0186221
0.0118653
0.069307
0.172709
4.94626
3.94541
2.4601
1.18038
0.374154
0.0520343
0.0113051
0.0703193
0.175163
0.257806
5.33256
3.35081
2.14148
0.996109
0.349502
0.109217
0.0944796
0.18605
0.269079
0.368142
4.90574
3.04356
2.2415
1.19247
0.575748
0.269201
0.190693
0.256276
0.356135
0.453757
4.54497
3.62714
2.67434
1.63003
0.881474
0.472286
0.319126
0.352794
0.437342
0.530185
5.11254
4.74549
3.33957
2.15915
1.23252
0.713638
0.480972
0.456492
0.517005
0.593484
6.25412
5.66909
4.05686
2.67275
1.59705
0.971894
0.662838
0.57526
0.597433
0.647172
7.26275
6.37387
4.7144
3.15529
1.95795
1.23641
0.855433
0.702351
0.678503
0.6923
8.00018
6.91224
5.2606
3.59013
2.30156
1.50063
1.05274
0.835781
0.761247
0.731808
8.5188
7.33088
5.69793
3.97106
2.622
1.7563
1.24417
0.964571
0.838357
0.763811
8.93102
7.69127
6.05017
4.28374
2.92683
2.0295
1.46017
1.11479
0.931883
0.801304
6.51283
6.43966
6.43046
6.44881
6.48747
6.53013
6.58226
6.71088
6.89566
6.82683
0.260759
1.05734
2.00804
2.92323
3.7043
4.31708
4.73401
4.98373
5.22304
5.72928
3.85063
3.54366
3.2843
3.11095
3.10601
3.24973
3.47216
3.71357
4.16538
4.84574
6.64427
6.62731
6.53717
6.34465
6.04307
5.6574
5.24883
4.895
4.73821
4.54817
7.69189
7.67659
7.63217
7.54134
7.39617
7.18986
6.92701
6.61929
6.28555
5.65559
8.44954
8.43315
8.39438
8.32775
8.22961
8.09675
7.9284
7.71686
7.42791
6.90774
8.93969
8.92395
8.8903
8.8368
8.76168
8.66292
8.53818
8.37895
8.15471
7.80867
9.27299
9.25982
9.23247
9.18986
9.13053
9.05246
8.9527
8.82483
8.65284
8.43094
9.50446
9.49417
9.47308
9.44024
9.39426
9.33319
9.25424
9.15287
9.02289
8.87536
9.6899
9.68285
9.66852
9.64604
9.61405
9.5707
9.51361
9.43975
9.34638
9.2441
7.24861
7.52653
7.83702
8.08762
8.3447
8.59951
8.8413
9.06153
9.25457
9.46027
7.5834
7.94818
8.24096
8.48105
8.70927
8.92474
9.12226
9.29898
9.45391
9.61807
7.49869
7.95743
8.32592
8.62044
8.87569
9.09769
9.28803
9.44951
9.58536
9.72227
7.44701
7.95764
8.37373
8.70195
8.97654
9.20593
9.3947
9.54806
9.67131
9.78825
7.45641
7.98068
8.41858
8.76486
9.05051
9.28354
9.46977
9.61591
9.72869
9.83023
7.48245
8.01169
8.464
8.82145
9.11233
9.34474
9.52606
9.66447
9.76797
9.85765
7.50366
8.03786
8.50276
8.86862
9.16197
9.39189
9.56764
9.6989
9.79479
9.8757
7.51115
8.05246
8.52871
8.90208
9.19746
9.42521
9.5964
9.72213
9.81244
9.88729
7.49836
8.05045
8.53742
8.91898
9.21768
9.44503
9.61372
9.73606
9.8229
9.89404
7.48288
8.04359
8.53593
8.92344
9.22526
9.45331
9.62124
9.74217
9.82746
9.89694
2.54985
2.50754
2.52711
2.7374
2.91579
2.5383
1.6887
1.17863
1.51951
4.17205
2.95989
2.87169
2.71367
2.71398
3.10243
3.42293
2.81065
1.89911
2.11778
5.12427
3.45273
3.40843
3.25027
3.06532
3.26666
3.82355
3.79894
3.15343
3.27943
5.44896
3.94819
3.93685
3.9094
3.79956
3.89222
4.319
4.5882
4.4632
4.65375
5.90745
4.50214
4.47457
4.5491
4.61947
4.78214
5.11474
5.43786
5.61664
5.89275
6.62768
5.10495
5.06236
5.20124
5.3985
5.65822
5.98083
6.30831
6.59426
6.89911
7.40483
5.65633
5.61992
5.82004
6.09173
6.40824
6.74088
7.06821
7.37754
7.678
8.0859
6.06854
6.05371
6.31612
6.64277
6.99502
7.3396
7.66698
7.97385
8.25865
8.61088
6.26163
6.28024
6.63148
7.026
7.41998
7.78417
8.11648
8.41649
8.6827
8.98794
6.60105
6.57063
6.95629
7.37949
7.78119
8.14294
8.46637
8.75033
8.99296
9.25188
0.106059
0.1532
0.10801
0.0510283
0.0128376
0.36697
0.90733
1.46702
1.93909
2.42379
0.0722347
0.138264
0.104101
0.05072
0.0138413
0.357075
0.915151
1.53472
2.02326
2.69476
0.0505757
0.130818
0.103391
0.0545809
0.0227657
0.360209
0.928598
1.59103
2.09972
3.01031
0.0378968
0.130494
0.106733
0.0635074
0.040944
0.373713
0.943282
1.63438
2.20783
3.40019
0.0318358
0.135722
0.112582
0.0748587
0.0647665
0.390573
0.955042
1.67483
2.38804
3.87124
0.0310281
0.144671
0.119206
0.0859309
0.0900157
0.406359
0.966669
1.73496
2.65486
4.36802
0.0354776
0.156686
0.125136
0.0946467
0.111831
0.417511
0.98245
1.83133
2.9861
4.79811
0.0463567
0.172586
0.129991
0.100906
0.12948
0.431807
1.02612
1.98995
3.35213
5.08222
0.0663092
0.193012
0.133916
0.101281
0.134338
0.434613
1.06367
2.14029
3.62992
5.08505
0.0981174
0.215362
0.138648
0.10485
0.15135
0.482295
1.19972
2.39802
3.8798
4.89347
0.156389
0.243243
0.147159
0.102922
0.140207
0.479309
1.26059
2.51014
3.88875
4.67587
0.260651
0.273618
0.13734
0.0811217
0.0766047
0.373264
1.12355
2.30617
3.43407
5.19533
0.42565
0.271096
0.109559
0.0182465
0.0145867
0.314963
1.13368
2.34277
3.25383
4.93944
0.678421
0.259003
0.0233902
0.0818111
0.113252
0.516967
1.41625
2.61179
3.70761
4.69554
1.0619
0.0501161
0.252361
0.253561
0.329981
0.879963
1.92586
3.19862
4.70242
5.17437
1.51474
0.114202
0.533589
0.434328
0.613516
1.30337
2.47111
3.91399
5.59719
6.22247
2.19368
0.686402
0.850601
0.708008
0.959655
1.73855
2.99213
4.59264
6.3023
7.21639
3.79164
1.70416
1.27251
1.05362
1.33515
2.15434
3.46312
5.16534
6.85432
7.9689
6.85998
3.57614
1.96274
1.43604
1.69539
2.53076
3.87672
5.63188
7.29537
8.50729
9.04904
6.38403
2.84504
2.01386
2.1302
2.90609
4.22891
6.02017
7.68661
8.93805
6.62573
6.68853
6.51161
6.38966
6.34913
6.32279
6.30569
6.3174
6.36197
6.47627
5.53095
5.01198
4.76783
4.5264
4.12792
3.54166
2.79946
1.93268
1.04502
0.284352
4.85123
4.23734
3.82733
3.61632
3.42918
3.30954
3.31446
3.45695
3.65494
3.8741
4.7103
4.88365
5.02644
5.33646
5.70123
6.05197
6.33384
6.52147
6.61666
6.64171
5.68621
6.28494
6.61183
6.91117
7.17236
7.38154
7.5319
7.62823
7.67677
7.69246
6.86562
7.38856
7.68448
7.90241
8.07668
8.21492
8.31787
8.38861
8.43059
8.44892
7.7652
8.12058
8.35204
8.51797
8.64801
8.75102
8.82959
8.88585
8.92166
8.93901
8.40461
8.63272
8.8089
8.94095
9.04402
9.12467
9.18597
9.23007
9.25855
9.2726
8.86616
9.01619
9.14761
9.25059
9.33082
9.39282
9.43943
9.47267
9.494
9.50442
9.24865
9.35042
9.44299
9.51629
9.57293
9.61587
9.64747
9.66956
9.68348
9.69011
9.50941
8.98525
8.23577
6.92814
5.59791
0.131168
3.36078
5.96029
7.21395
8.15174
9.46536
8.92146
8.168
6.89046
5.54933
0.56376
2.62217
5.70593
6.9163
7.91382
9.36562
8.78271
8.02014
6.80948
5.36628
1.60347
1.41352
5.20656
6.30921
7.40316
9.18247
8.545
7.77434
6.65496
5.18635
2.74001
0.723059
4.23831
5.42144
6.57132
8.86801
8.17344
7.40383
6.37676
5.02639
3.36798
0.970927
2.63156
4.31685
5.39363
8.35038
7.62954
6.8732
5.91707
4.76495
3.43997
1.7192
1.30186
3.04923
3.98802
7.53587
6.89638
6.1553
5.22735
4.29952
3.26947
2.14303
1.17236
1.65624
2.55744
6.3252
6.03731
5.28107
4.23172
3.53341
2.91262
2.11835
1.43493
1.06836
1.23551
4.63154
5.23193
4.47404
2.99952
2.43721
2.27461
1.85593
1.38447
1.12228
0.658994
2.67264
4.53908
4.02129
1.96688
1.39698
1.48848
1.40978
1.21124
1.06352
0.844695
1.27663
3.788
3.66613
1.33778
0.816443
0.897546
0.97062
0.955599
0.97106
1.01925
0.61341
2.96793
3.08116
0.957342
0.575439
0.639355
0.758369
0.818898
0.842985
0.876098
0.35533
2.18705
2.28373
0.688588
0.491995
0.593828
0.724617
0.809044
0.847001
0.871943
0.265329
1.5484
1.48734
0.520558
0.532433
0.671662
0.785097
0.856206
0.879793
0.890245
0.239758
1.01845
0.843897
0.511044
0.666132
0.799788
0.900999
0.964556
0.980431
0.977539
0.243078
0.4949
0.497462
0.632315
0.813163
0.950575
1.0484
1.10629
1.11705
1.10902
0.179181
0.203657
0.504763
0.752097
0.969933
1.11576
1.20593
1.25335
1.2701
1.27056
0.04592
0.2492
0.646483
0.918457
1.13215
1.25043
1.32688
1.39608
1.4518
1.47322
0.0585476
0.490403
0.819478
1.09415
1.22947
1.33808
1.48657
1.64319
1.72996
1.74581
0.683732
0.860249
1.04036
1.18684
1.32555
1.59536
1.90468
2.0744
2.07817
2.04621
0.362859
0.0800971
0.222137
0.5471
0.789592
0.884995
0.875213
0.82295
0.781072
0.774679
0.461597
0.200973
0.31679
0.51774
0.719198
0.80446
0.795699
0.748799
0.713808
0.719584
0.524711
0.369705
0.436921
0.509753
0.649014
0.724578
0.717746
0.675109
0.646128
0.66264
0.636917
0.584249
0.591484
0.551159
0.583074
0.637486
0.634582
0.598928
0.577417
0.603935
0.802913
0.798939
0.737083
0.633054
0.537754
0.550099
0.549369
0.521867
0.508149
0.543437
1.00551
0.994236
0.869598
0.73161
0.526166
0.46793
0.462608
0.444059
0.438508
0.481107
1.22301
1.16559
0.984052
0.818769
0.54713
0.400885
0.377038
0.366375
0.368729
0.417022
1.44774
1.32018
1.08301
0.880668
0.582462
0.358456
0.296779
0.289926
0.299352
0.350814
1.68119
1.46493
1.17054
0.916
0.610778
0.341461
0.228089
0.216206
0.230136
0.283649
1.92462
1.60201
1.25223
0.930861
0.620567
0.337504
0.178309
0.148209
0.163068
0.211877
2.00886
0.746861
0.715405
0.960655
1.19033
1.27569
1.2503
1.17995
1.11572
1.04564
1.39433
0.482624
0.577072
0.870206
1.10275
1.1899
1.16842
1.10257
1.04271
0.986383
0.751688
0.28783
0.47938
0.79349
1.02894
1.11826
1.10011
1.03772
0.982013
0.937304
0.253601
0.170137
0.403786
0.721939
0.954344
1.0424
1.02593
0.966716
0.915529
0.883658
0.435937
0.0328113
0.265957
0.609522
0.858993
0.958701
0.949613
0.895015
0.848436
0.829348
9.35458
9.28998
9.14091
8.873
8.43743
7.77873
6.87117
5.75911
4.58177
3.53685
9.1924
9.09557
8.88101
8.51153
7.94136
7.13628
6.10943
4.95489
3.84457
2.78665
9.0238
8.90017
8.6265
8.1609
7.46158
6.51595
5.37121
4.16844
3.08112
1.9423
8.81622
8.6621
8.32137
7.74777
6.90598
5.81403
4.55479
3.29468
2.22583
1.09017
8.58739
8.37927
7.9257
7.17729
6.11233
4.79192
3.35055
2.08518
0.994134
0.302032
1.06103
1.02531
1.0174
1.02099
0.916142
0.800342
1.29395
3.68183
3.85834
1.32372
0.950143
0.934815
0.927445
0.872047
0.720059
0.589667
0.912045
3.13961
3.10726
0.647947
0.986813
0.983299
0.966521
0.89375
0.748543
0.586035
0.700097
2.36894
2.34205
0.377773
1.0536
1.06537
1.06115
1.0014
0.890411
0.741963
0.657372
1.55256
1.62806
0.277491
1.18486
1.20877
1.21429
1.16659
1.07588
0.951307
0.78878
0.905391
0.913501
0.246398
1.34796
1.36777
1.3759
1.35037
1.28006
1.14681
0.92595
0.66624
0.356018
0.216393
1.54945
1.54543
1.51343
1.47109
1.41927
1.31144
1.07163
0.748683
0.271325
0.0662359
1.81409
1.80724
1.72492
1.57364
1.43527
1.33809
1.20103
0.89326
0.49032
0.0466461
2.09278
2.13909
2.13561
1.94175
1.60205
1.31719
1.18224
1.04907
0.847365
0.670576
2.30196
2.34907
2.47218
2.51987
2.21558
1.61989
1.17743
1.06396
1.29704
2.01724
8.15155
7.2136
5.95993
3.36028
0.131424
5.59644
6.92764
8.23557
8.98526
9.50951
7.91314
6.91519
5.70493
2.62157
0.563632
5.54547
6.88901
8.16742
8.92151
9.46567
7.4017
6.30733
5.20477
1.41541
1.59976
5.36179
6.80721
8.01927
8.78284
9.3662
6.56867
5.41855
4.23614
0.726219
2.73173
5.18162
6.65212
7.77336
8.54533
9.1835
5.38925
4.31234
2.63246
0.971052
3.35668
5.02044
6.37331
7.4029
8.17418
8.86977
3.97958
3.04121
1.30999
1.71342
3.42673
4.75607
5.91226
6.87231
7.63101
8.35336
2.54065
1.65301
1.18737
2.13313
3.2508
4.28278
5.21858
6.15435
6.89923
7.54121
1.21686
1.08764
1.45222
2.10752
2.88033
3.50284
4.21726
5.28167
6.04314
6.33599
0.671517
1.15339
1.40766
1.84267
2.23202
2.40027
2.98376
4.47874
5.24292
4.65582
0.885533
1.10302
1.24791
1.41338
1.46427
1.36937
1.94344
4.02544
4.56422
2.71731
2.08912
0.543234
1.05871
0.635322
0.670268
0.760541
0.632306
0.299615
0.0630819
0.35683
1.62905
0.237498
0.866526
0.485478
0.576421
0.682591
0.592173
0.356207
0.266841
0.489059
1.33305
0.0577054
0.638256
0.34769
0.487497
0.60225
0.559911
0.459301
0.473615
0.591677
1.09623
0.0150254
0.3895
0.240057
0.402042
0.517604
0.559635
0.625585
0.731411
0.758352
0.845277
0.0911835
0.187575
0.16499
0.322809
0.439996
0.605944
0.803015
0.971309
0.976
0.632813
0.155747
0.050535
0.109049
0.24897
0.383549
0.690665
0.969884
1.18771
1.22088
0.460249
0.209739
0.0513856
0.0483034
0.183345
0.361378
0.78149
1.10957
1.37658
1.47394
0.327342
0.211162
0.103105
0.0104135
0.121043
0.367805
0.850235
1.22196
1.54507
1.72571
0.227991
0.196649
0.111556
0.0381679
0.0587536
0.380054
0.887835
1.31346
1.69669
1.96476
0.156247
0.173829
0.113718
0.0490313
0.0225513
0.380675
0.902253
1.39319
1.82982
2.1883
9.33655
6.77029
2.66599
1.70343
1.20819
1.1263
0.970876
0.785322
0.798096
2.03346
8.21089
4.63637
2.21551
1.42177
1.07655
1.04101
0.896188
0.654109
0.529375
1.39871
6.12005
3.06389
1.78539
1.21484
0.972324
0.976099
0.836101
0.563626
0.329965
0.740905
4.13283
1.87579
1.49673
1.00866
0.86695
0.908212
0.778521
0.489315
0.229652
0.224309
2.83493
1.06139
1.24484
0.808662
0.764152
0.829482
0.68716
0.356706
0.0444329
0.397734
3.54771
4.58901
5.76302
6.87331
7.78026
8.43856
8.87377
9.14139
9.29025
9.35467
2.78082
3.84087
4.95212
6.10765
7.13566
7.94136
8.51175
8.88124
9.09573
9.19246
1.92827
3.07172
4.16197
5.36646
6.5134
7.46044
8.16048
8.62642
8.9002
9.02382
1.05479
2.20262
3.2813
4.54653
5.80984
6.90377
7.74665
8.32091
8.66195
8.8162
0.300224
0.961843
2.06345
3.33716
4.78493
6.10875
7.17531
7.92475
8.3789
8.5873
)
;

boundaryField
{
    left
    {
        type            calculated;
        value           nonuniform List<scalar> 
35
(
0.299497
0.571059
0.991046
1.62702
2.52413
3.69486
5.06566
6.47611
8.15853
9.4418
0.203873
0.124628
0.0747028
0.046288
0.0324066
0.0280477
0.0323563
0.049918
0.089449
0.158696
4.93336
4.06121
3.23398
2.51211
1.91618
1.42555
1.02815
0.720284
0.489595
0.321739
9.61572
8.97909
7.92212
6.84789
5.85949
)
;
    }
    right
    {
        type            calculated;
        value           nonuniform List<scalar> 
35
(
1.04529
0.986512
0.93811
0.885613
0.832741
0.779688
0.72619
0.670609
0.613025
0.553383
0.491566
0.42753
0.360773
0.292347
0.218519
0.150408
0.0549995
0.0122582
0.0104613
0.0104198
0.0103741
0.0104073
0.0154513
0.0844378
0.191847
0.281403
0.392998
0.478959
0.553768
0.613828
0.662882
0.702714
0.737278
0.76563
0.799494
)
;
    }
    down
    {
        type            calculated;
        value           nonuniform List<scalar> 
40
(
9.45429
7.26628
2.89684
1.79235
1.24855
1.1548
0.996735
0.827016
0.89914
2.26063
3.83286
4.88229
6.03373
7.09265
7.94443
8.55488
8.95436
9.19917
9.33557
9.39481
9.39472
9.33529
9.19865
8.9535
8.55355
7.9425
7.08976
6.02856
4.87296
3.81863
2.23195
0.846928
0.75923
0.992494
1.22184
1.30512
1.27732
1.20483
1.13899
1.06452
)
;
    }
    up
    {
        type            calculated;
        value           nonuniform List<scalar> 
40
(
9.03411
7.80889
6.16798
4.39534
3.03474
2.1246
1.53317
1.1629
0.960695
0.813114
9.72927
9.72305
9.71045
9.69064
9.66234
9.62377
9.57262
9.50586
9.42075
9.32814
9.33502
9.42653
9.51037
9.57621
9.62663
9.6646
9.69237
9.71168
9.72379
9.72951
9.27072
7.09651
3.24074
2.16454
2.24892
3.02615
4.35125
6.14973
7.81371
9.0449
)
;
    }
    cylinder
    {
        type            calculated;
        value           nonuniform List<scalar> 
80
(
1.96101
4.52484
5.50985
5.76401
6.29893
7.08863
7.8613
8.47467
8.91244
9.21291
9.44582
9.61872
9.72982
9.7983
9.84096
9.86846
9.8865
9.89817
9.90522
9.90869
9.50043
9.65063
9.74904
9.81047
9.84901
9.8739
9.89017
9.90055
9.90657
9.90913
5.29292
6.22191
6.20616
6.31064
6.83088
7.52489
8.17559
8.68585
9.05067
9.30254
0.994995
0.471976
0.264427
0.18337
0.159871
0.165783
0.0829797
0.0421043
0.745903
2.39852
9.59441
9.55584
9.46739
9.30179
9.00969
8.51124
7.68613
6.3666
4.38781
2.23973
9.59431
9.55551
9.46677
9.30071
9.00782
8.50806
7.68036
6.35434
4.35803
2.1912
0.952691
0.442172
0.244263
0.170809
0.150327
0.165514
0.162501
0.0848018
0.0433891
0.720575
)
;
    }
    defaultFaces
    {
        type            empty;
    }
}


// ************************************************************************* //
