/*--------------------------------*- C++ -*----------------------------------*\
  =========                 |
  \\      /  F ield         | OpenFOAM: The Open Source CFD Toolbox
   \\    /   O peration     | Website:  https://openfoam.org
    \\  /    A nd           | Version:  13
     \\/     M anipulation  |
\*---------------------------------------------------------------------------*/
FoamFile
{
    format      ascii;
    class       volScalarField;
    location    "0.97";
    object      strainRateViscosityModel:nu;
}
// * * * * * * * * * * * * * * * * * * * * * * * * * * * * * * * * * * * * * //

dimensions      [0 2 -1 0 0 0 0];

internalField   nonuniform List<scalar> 
1800
(
9.40487
9.1976
9.01007
8.80097
8.57617
8.34417
8.1155
7.89819
7.6242
7.37922
9.58523
9.41878
9.2669
9.09733
8.91118
8.71145
8.50359
8.28869
8.0273
7.70207
9.70218
9.56269
9.42803
9.27097
9.08869
8.879
8.64092
8.36904
8.03058
7.6106
9.77539
9.65614
9.53324
9.38287
9.2005
8.98172
8.72282
8.41597
8.02878
7.55456
9.82168
9.7183
9.60558
9.46167
9.28071
9.05696
8.7855
8.45889
8.04776
7.55614
9.85185
9.76081
9.6573
9.52059
9.34355
9.11896
8.84034
8.50016
8.07152
7.5702
9.87179
9.78991
9.69398
9.56396
9.39147
9.16769
8.8842
8.53252
8.08735
7.57567
9.88475
9.80924
9.71888
9.59394
9.42494
9.20146
8.91309
8.55005
8.08853
7.56355
9.8926
9.82107
9.73416
9.6122
9.44466
9.21962
8.92483
8.54922
8.07121
7.52871
9.89646
9.82685
9.74153
9.62069
9.45309
9.22573
8.92512
8.53953
8.05038
7.49285
1.80422
1.4051
1.2083
1.31911
1.73025
2.25209
2.49688
2.44867
2.35858
2.3349
3.73363
1.7802
1.49022
1.98093
2.69637
2.97276
2.81646
2.67061
2.68696
2.74052
4.70495
2.56884
2.43461
3.17707
3.59723
3.34568
3.08036
3.11736
3.25773
3.33844
5.27035
3.881
3.81457
4.21386
4.18075
3.82867
3.72033
3.85443
3.95709
4.00609
6.05623
5.27482
5.11757
5.12148
4.91493
4.65294
4.57765
4.61189
4.61216
4.65185
6.95994
6.45973
6.2267
6.03831
5.78829
5.54527
5.38902
5.2931
5.22188
5.27445
7.77173
7.37766
7.11676
6.86034
6.58746
6.32056
6.08721
5.90081
5.77001
5.82355
8.40012
8.05529
7.79202
7.51582
7.22656
6.93127
6.64222
6.38628
6.19216
6.22914
8.84934
8.54537
8.29101
8.01034
7.70575
7.37954
7.03567
6.70113
6.4157
6.42166
9.16163
8.90154
8.66633
8.39669
8.09574
7.7658
7.40649
7.03567
6.70851
6.75235
2.19295
1.72871
1.33124
0.936755
0.619306
0.349607
0.188165
0.144732
0.164601
0.262087
2.52708
1.84759
1.40599
0.931717
0.59276
0.333594
0.178335
0.110143
0.112441
0.206282
2.9476
1.97658
1.47817
0.92883
0.556644
0.305881
0.166868
0.095681
0.0749847
0.147849
3.44004
2.1465
1.54941
0.93162
0.516988
0.27018
0.149672
0.0847572
0.0711632
0.0901191
3.98237
2.38462
1.62685
0.940623
0.478168
0.230314
0.128274
0.0701829
0.0805923
0.0361524
4.52802
2.69586
1.7232
0.957001
0.443249
0.189502
0.103157
0.0564914
0.0634377
0.0751276
4.9966
3.05569
1.84522
0.979747
0.412201
0.149798
0.0768765
0.0441109
0.038872
0.144492
5.31251
3.43877
2.01246
1.02251
0.391442
0.11366
0.0529184
0.0259078
0.0562023
0.208241
5.34304
3.72224
2.1622
1.05444
0.368165
0.0817826
0.0306553
0.0253412
0.108431
0.26924
5.20181
3.98836
2.39779
1.15825
0.384508
0.0651503
0.0102164
0.0636451
0.152045
0.318848
4.94413
3.94192
2.45496
1.1726
0.359582
0.0540572
0.0372543
0.109808
0.207388
0.374265
5.33009
3.3472
2.13974
0.999397
0.361589
0.142756
0.119202
0.177261
0.276913
0.433492
4.90464
3.04626
2.2496
1.20802
0.594091
0.297266
0.20975
0.246503
0.338124
0.477203
4.54704
3.63301
2.68301
1.64256
0.894634
0.497761
0.343727
0.334844
0.403093
0.512792
5.11448
4.74812
3.34324
2.1649
1.23876
0.730507
0.500639
0.437324
0.470764
0.541007
6.2545
5.66961
4.05706
2.67376
1.59844
0.981441
0.676303
0.553251
0.543152
0.565219
7.26268
6.3737
4.71352
3.1543
1.95688
1.23995
0.860575
0.676863
0.618566
0.587201
8.0001
6.91201
5.25969
3.5887
2.29965
1.5001
1.05042
0.806089
0.697443
0.609498
8.51875
7.33071
5.69722
3.96985
2.62016
1.75339
1.23664
0.932648
0.774094
0.630453
8.931
7.69117
6.04964
4.28291
2.92512
2.02397
1.44704
1.07954
0.869121
0.662468
6.51282
6.43966
6.43043
6.44873
6.48732
6.5299
6.58193
6.71045
6.89511
6.82613
0.260649
1.05706
2.00762
2.92263
3.70353
4.31611
4.73281
4.98228
5.22129
5.72743
3.85082
3.54395
3.28474
3.11152
3.10658
3.25017
3.47234
3.71342
4.16489
4.84463
6.64415
6.62721
6.53712
6.3447
6.04334
5.65798
5.24979
4.89631
4.73974
4.54966
7.69183
7.67653
7.63211
7.54128
7.39613
7.18986
6.9271
6.61956
6.28609
5.65659
8.4495
8.43311
8.39434
8.32771
8.22957
8.09671
7.92836
7.71683
7.42793
6.90785
8.93967
8.92393
8.89028
8.83679
8.76166
8.6629
8.53815
8.37892
8.15467
7.80861
9.27298
9.25981
9.23246
9.18985
9.13052
9.05245
8.95268
8.82481
8.65281
8.4309
9.50446
9.49417
9.47307
9.44024
9.39426
9.33319
9.25424
9.15286
9.02288
8.87534
9.6899
9.68285
9.66852
9.64604
9.61405
9.5707
9.51361
9.43975
9.34638
9.2441
7.24797
7.52613
7.83691
8.08767
8.34482
8.59963
8.84139
9.06159
9.25458
9.46024
7.58306
7.94803
8.24096
8.48113
8.70936
8.92482
9.12231
9.299
9.45391
9.61805
7.49847
7.95736
8.32596
8.62051
8.87576
9.09774
9.28806
9.44952
9.58535
9.72225
7.44687
7.9576
8.37377
8.702
8.97659
9.20597
9.39471
9.54806
9.6713
9.78823
7.45632
7.98066
8.41861
8.7649
9.05054
9.28356
9.46978
9.61591
9.72868
9.83022
7.4824
8.01168
8.46402
8.82147
9.11234
9.34475
9.52606
9.66446
9.76796
9.85764
7.50363
8.03786
8.50278
8.86863
9.16197
9.39189
9.56763
9.6989
9.79478
9.8757
7.51114
8.05246
8.52872
8.90209
9.19746
9.42521
9.5964
9.72212
9.81243
9.88729
7.49836
8.05045
8.53742
8.91898
9.21768
9.44503
9.61371
9.73605
9.82289
9.89404
7.48288
8.04358
8.53593
8.92344
9.22525
9.4533
9.62123
9.74216
9.82746
9.89693
2.56015
2.51647
2.53405
2.74576
2.93228
2.56035
1.7031
1.18366
1.52459
4.20279
2.9665
2.87821
2.71821
2.71551
3.10526
3.43435
2.82634
1.91038
2.1282
5.1386
3.45298
3.40968
3.25191
3.06521
3.26498
3.82409
3.80515
3.16438
3.2924
5.45761
3.94338
3.93269
3.90649
3.79745
3.89031
4.31784
4.58978
4.46941
4.66306
5.9148
4.49609
4.46865
4.54418
4.61607
4.78017
5.11389
5.4385
5.61972
5.89765
6.63228
5.09983
5.05732
5.1971
5.39572
5.65681
5.98041
6.30874
6.5957
6.90128
7.40697
5.65262
5.61642
5.81744
6.09019
6.40762
6.74087
7.06861
7.37826
7.67889
8.08667
6.06602
6.05152
6.31476
6.64215
6.99494
7.33982
7.66734
7.97425
8.25901
8.6111
6.25987
6.27889
6.63082
7.02585
7.42013
7.78445
8.11676
8.41672
8.68285
8.98797
6.59978
6.5697
6.95592
7.37947
7.78135
8.14314
8.46656
8.75046
8.99302
9.25186
0.114137
0.154114
0.122919
0.0655822
0.0161028
0.396791
0.934297
1.48664
1.95296
2.43467
0.0809149
0.139804
0.119068
0.0683458
0.0159607
0.390262
0.938303
1.54902
2.03124
2.70003
0.0592791
0.131517
0.117462
0.0716425
0.0250258
0.390651
0.943693
1.59806
2.1009
3.00939
0.0461155
0.129024
0.119236
0.0787873
0.0432558
0.397938
0.948564
1.63417
2.2036
3.39538
0.0394153
0.131509
0.12303
0.0879413
0.0663334
0.406615
0.950495
1.66896
2.38108
3.86537
0.0384128
0.138388
0.127286
0.0965677
0.0899622
0.413422
0.953641
1.72588
2.64752
4.36259
0.0433863
0.149974
0.130844
0.102531
0.109451
0.416105
0.963313
1.82139
2.97952
4.79345
0.0548625
0.166662
0.133366
0.10608
0.124429
0.423841
1.0036
1.98045
3.34639
5.07819
0.0745165
0.188078
0.135025
0.103192
0.127197
0.423295
1.04034
2.13181
3.62495
5.08139
0.105083
0.21103
0.137359
0.103675
0.142068
0.469893
1.17689
2.39012
3.87475
4.89003
0.161573
0.240152
0.142864
0.100809
0.130264
0.47349
1.24212
2.50325
3.88408
4.67244
0.264526
0.272273
0.133138
0.0752772
0.0688702
0.386266
1.11822
2.3021
3.42896
5.19159
0.429374
0.271881
0.0995414
0.0136483
0.0150382
0.34954
1.1514
2.35231
3.25645
4.93774
0.682617
0.255171
0.0232096
0.0824832
0.0992092
0.541368
1.43398
2.62631
3.71639
4.69872
1.06584
0.0478715
0.265697
0.234679
0.312626
0.892278
1.93468
3.20759
4.70776
5.17801
1.51473
0.122622
0.539845
0.41587
0.594085
1.30863
2.47434
3.91762
5.59898
6.22349
2.19502
0.683177
0.857531
0.688539
0.940268
1.73835
2.99223
4.59366
6.30248
7.21636
3.79216
1.7062
1.2759
1.03637
1.3164
2.14991
3.46101
5.16513
6.85407
7.96875
6.86012
3.5756
1.96418
1.42108
1.67793
2.52333
3.873
5.6311
7.29512
8.50723
9.04906
6.3837
2.84347
2.00144
2.11468
2.89582
4.22321
6.01897
7.68649
8.9381
6.62432
6.68739
6.51071
6.38897
6.34864
6.32249
6.30553
6.31732
6.36195
6.47625
5.52774
5.00892
4.76523
4.52426
4.12619
3.54031
2.79846
1.93202
1.04462
0.284209
4.84949
4.23669
3.8273
3.61686
3.43013
3.3107
3.31558
3.4578
3.65548
3.87438
4.71272
4.88623
5.02869
5.33813
5.70223
6.05243
6.33394
6.52139
6.61652
6.64157
5.68815
6.28605
6.61241
6.91138
7.17237
7.38146
7.53179
7.62813
7.67669
7.69239
6.86592
7.38861
7.68442
7.9023
8.07657
8.21483
8.31779
8.38855
8.43054
8.44888
7.76509
8.12048
8.35195
8.5179
8.64796
8.75098
8.82956
8.88582
8.92164
8.93899
8.40453
8.63267
8.80887
8.94092
9.04401
9.12465
9.18596
9.23006
9.25854
9.27259
8.86615
9.0162
9.14761
9.2506
9.33082
9.39283
9.43944
9.47267
9.494
9.50442
9.24869
9.35045
9.44302
9.51631
9.57294
9.61588
9.64748
9.66957
9.68348
9.69012
9.50947
8.98534
8.2359
6.92826
5.59796
0.131167
3.36083
5.96039
7.2141
8.15188
9.46542
8.92156
8.16814
6.89059
5.54939
0.563769
2.62221
5.70602
6.91644
7.91397
9.36569
8.78283
8.02029
6.80962
5.36636
1.60348
1.41357
5.20663
6.30936
7.40332
9.18256
8.54514
7.77451
6.65513
5.18645
2.74003
0.723099
4.23839
5.42158
6.5715
8.86812
8.1736
7.40403
6.37696
5.02653
3.36803
0.97096
2.63163
4.31696
5.39382
8.35054
7.62974
6.87344
5.91731
4.76513
3.44004
1.71926
1.30194
3.04929
3.98815
7.53605
6.89662
6.15557
5.22759
4.29966
3.26954
2.14312
1.17256
1.65625
2.55741
6.32539
6.0376
5.28137
4.2319
3.53342
2.91258
2.11847
1.43529
1.06863
1.23534
4.63172
5.23228
4.47438
2.99958
2.43705
2.2744
1.85604
1.38496
1.12282
0.659194
2.67284
4.53962
4.02167
1.96666
1.39672
1.48831
1.40998
1.21189
1.0642
0.845368
1.27682
3.78913
3.66668
1.3371
0.816126
0.897682
0.971237
0.95649
0.97194
1.02002
0.613544
2.97014
3.08232
0.956362
0.575317
0.640149
0.759716
0.820313
0.844288
0.877238
0.355415
2.18999
2.28561
0.688155
0.492802
0.595693
0.726844
0.811207
0.848962
0.873687
0.26534
1.55092
1.4893
0.52181
0.535071
0.674757
0.788277
0.859297
0.882684
0.892893
0.239653
1.01866
0.845526
0.514938
0.670395
0.803987
0.905191
0.968689
0.984374
0.981239
0.242847
0.492484
0.500257
0.637176
0.818282
0.95579
1.05355
1.11119
1.12168
1.1135
0.176618
0.204017
0.508687
0.756795
0.975545
1.12133
1.21095
1.25791
1.27473
1.27539
0.045084
0.252305
0.649656
0.923282
1.13653
1.25379
1.32986
1.39983
1.45656
1.47843
0.061528
0.492702
0.822532
1.09601
1.22951
1.33839
1.48927
1.64824
1.73548
1.75092
0.698696
0.86598
1.04036
1.18278
1.32267
1.59721
1.91067
2.08029
2.08164
2.04841
0.363105
0.0806555
0.224134
0.551325
0.795687
0.89271
0.888523
0.843054
0.794333
0.756758
0.462234
0.202694
0.319637
0.522021
0.724766
0.811569
0.809638
0.77245
0.731113
0.708978
0.526019
0.372814
0.440707
0.51429
0.654086
0.731104
0.732436
0.702638
0.668112
0.660973
0.639324
0.588589
0.59631
0.556285
0.587806
0.643564
0.650234
0.630387
0.604288
0.61281
0.806568
0.804274
0.742879
0.639012
0.542486
0.556004
0.566201
0.557193
0.540163
0.564511
1.01019
1.00018
0.876158
0.738519
0.531386
0.474145
0.480899
0.482978
0.475766
0.516025
1.22824
1.17166
0.990963
0.826562
0.553345
0.408167
0.397208
0.408511
0.411395
0.467205
1.45286
1.32566
1.08956
0.888981
0.590031
0.367802
0.319534
0.334814
0.347379
0.417796
1.68517
1.4689
1.17569
0.923974
0.619651
0.353844
0.254639
0.263729
0.28424
0.367438
1.92619
1.60356
1.25484
0.937101
0.629853
0.353417
0.210204
0.198631
0.222826
0.315713
2.00921
0.747697
0.718411
0.966766
1.20005
1.28772
1.26267
1.18415
1.11277
1.00921
1.39446
0.48311
0.579854
0.875987
1.11171
1.20107
1.18096
1.10992
1.04188
0.951292
0.751575
0.288093
0.481899
0.798903
1.03721
1.12862
1.1128
1.04778
0.983756
0.904647
0.253292
0.170459
0.406254
0.727069
0.961936
1.05192
1.03882
0.979924
0.920556
0.8546
0.435787
0.0326934
0.267681
0.61397
0.865674
0.967157
0.962555
0.911605
0.857611
0.805331
9.35465
9.29006
9.14101
8.87311
8.43757
7.77891
6.87137
5.75934
4.58203
3.53715
9.19249
9.09567
8.88112
8.51168
7.94154
7.13649
6.10967
4.95513
3.8448
2.78685
9.0239
8.90028
8.62663
8.16107
7.46179
6.51619
5.37147
4.16867
3.0813
1.94239
8.81633
8.66222
8.32152
7.74795
6.9062
5.81428
4.55501
3.29481
2.2258
1.08989
8.58751
8.37941
7.92586
7.17748
6.11255
4.79212
3.35063
2.08508
0.993818
0.301994
1.06012
1.02431
1.01607
1.01958
0.915019
0.79954
1.29331
3.68357
3.85998
1.32282
0.949044
0.933586
0.925949
0.8705
0.718592
0.588317
0.910604
3.14225
3.11034
0.647281
0.985816
0.982276
0.965381
0.892586
0.747096
0.584052
0.6979
2.37318
2.34746
0.377352
1.05331
1.06522
1.06106
1.00122
0.889682
0.740287
0.6552
1.55833
1.63578
0.27721
1.18614
1.21032
1.21604
1.16832
1.07708
0.95183
0.789136
0.910817
0.920727
0.246105
1.35161
1.37156
1.37985
1.3548
1.285
1.15173
0.930273
0.670506
0.35868
0.216846
1.55646
1.5524
1.51995
1.47758
1.42689
1.3208
1.08063
0.754943
0.272652
0.0664532
1.82498
1.81864
1.73603
1.58285
1.44264
1.34608
1.21155
0.902944
0.494955
0.0467856
2.10559
2.15298
2.15167
1.95779
1.61366
1.32362
1.18776
1.05803
0.857793
0.676418
2.31395
2.36071
2.48544
2.53821
2.23627
1.63416
1.18322
1.06704
1.30552
2.04496
8.15169
7.21374
5.96003
3.36033
0.131423
5.5965
6.92777
8.2357
8.98536
9.50957
7.91329
6.91533
5.70501
2.62161
0.563638
5.54554
6.88914
8.16755
8.92162
9.46573
7.40186
6.30747
5.20484
1.41546
1.59976
5.36187
6.80736
8.01941
8.78296
9.36627
6.56885
5.41868
4.23622
0.726273
2.73172
5.18172
6.65229
7.77353
8.54547
9.18359
5.38944
4.31248
2.63266
0.971025
3.35668
5.02057
6.37351
7.4031
8.17435
8.86988
3.97983
3.04149
1.31019
1.7132
3.42678
4.75624
5.91251
6.87256
7.63123
8.35351
2.54112
1.65353
1.18714
2.13284
3.2509
4.28303
5.21887
6.15468
6.89954
7.54138
1.21767
1.08763
1.45165
2.10721
2.88049
3.50309
4.21752
5.28214
6.04361
6.33606
0.671614
1.15283
1.40699
1.84229
2.23202
2.40023
2.98384
4.47949
5.24365
4.65549
0.884747
1.10232
1.24696
1.41254
1.4637
1.36891
1.94325
4.02668
4.56529
2.71646
2.09016
0.543409
1.06113
0.628465
0.660331
0.758283
0.632611
0.300335
0.0618722
0.356454
1.63043
0.236801
0.870113
0.478097
0.566278
0.681178
0.593844
0.356925
0.265748
0.48841
1.33448
0.0584637
0.642032
0.339612
0.47766
0.602016
0.562766
0.459592
0.47318
0.590971
1.09839
0.0146525
0.394162
0.2309
0.392956
0.518588
0.563036
0.626126
0.732863
0.758296
0.848491
0.0888537
0.189712
0.157347
0.315273
0.442234
0.609371
0.805371
0.975292
0.977663
0.636325
0.153472
0.0531694
0.1005
0.243554
0.386544
0.694972
0.975684
1.19489
1.22526
0.464153
0.208582
0.0485288
0.052527
0.180068
0.365327
0.789007
1.11997
1.38744
1.48178
0.331987
0.209214
0.10663
0.0107975
0.121836
0.374213
0.863409
1.23732
1.55955
1.73706
0.233775
0.194631
0.121393
0.0359001
0.0641001
0.391793
0.907663
1.33297
1.71366
1.97848
0.163284
0.173227
0.127072
0.0584343
0.0290534
0.400375
0.927491
1.41452
1.84685
2.20204
9.33657
6.77035
2.66476
1.69916
1.20155
1.12002
0.964201
0.781278
0.796205
2.0331
8.21092
4.63649
2.21486
1.41708
1.06883
1.03516
0.890687
0.650677
0.527799
1.39864
6.12016
3.06402
1.78516
1.20967
0.963827
0.970866
0.831797
0.560997
0.328665
0.741048
4.13322
1.87599
1.49732
1.00309
0.857707
0.903737
0.775557
0.487529
0.228569
0.225235
2.83568
1.06134
1.24622
0.802342
0.754544
0.826244
0.685959
0.356358
0.0444275
0.398172
3.54769
4.58915
5.76325
6.87356
7.78046
8.43871
8.87389
9.14149
9.29033
9.35474
2.78094
3.84107
4.95237
6.10791
7.13589
7.94155
8.51189
8.88135
9.09583
9.19255
1.92843
3.07191
4.1622
5.36671
6.51363
7.46064
8.16064
8.62655
8.90031
9.02392
1.05572
2.20317
3.28165
4.54678
5.81006
6.90398
7.74683
8.32105
8.66207
8.81631
0.300554
0.962797
2.06402
3.33753
4.78516
6.10895
7.17549
7.9249
8.37904
8.58742
)
;

boundaryField
{
    left
    {
        type            calculated;
        value           nonuniform List<scalar> 
35
(
0.297489
0.566194
0.986922
1.6264
2.52473
3.69555
5.06605
6.47603
8.15848
9.4418
0.214889
0.135201
0.0827277
0.0504313
0.0332465
0.0277708
0.0332344
0.052752
0.0925116
0.159923
4.93339
4.06162
3.23482
2.51293
1.91705
1.42708
1.0308
0.724876
0.496855
0.331417
9.61573
8.97907
7.92204
6.84776
5.85938
)
;
    }
    right
    {
        type            calculated;
        value           nonuniform List<scalar> 
35
(
1.00874
0.951011
0.904661
0.855425
0.807252
0.760195
0.714032
0.667515
0.620748
0.573742
0.526368
0.478342
0.42922
0.378395
0.325163
0.268711
0.208523
0.143652
0.0791347
0.0269458
0.0701172
0.153165
0.229048
0.295799
0.348334
0.405779
0.464058
0.505235
0.536554
0.559217
0.577372
0.593742
0.611808
0.630513
0.660436
)
;
    }
    down
    {
        type            calculated;
        value           nonuniform List<scalar> 
40
(
9.45431
7.26635
2.8957
1.78837
1.24232
1.1484
0.989664
0.822807
0.897305
2.26032
3.83286
4.88245
6.03397
7.09289
7.94462
8.55503
8.95448
9.19926
9.33565
9.39488
9.39479
9.33537
9.19874
8.95361
8.55369
7.94267
7.08995
6.02877
4.87321
3.81893
2.23233
0.847792
0.762314
0.998752
1.23185
1.31747
1.28977
1.20813
1.13568
1.02799
)
;
    }
    up
    {
        type            calculated;
        value           nonuniform List<scalar> 
40
(
9.0341
7.80881
6.16751
4.39469
3.0334
2.11894
1.51963
1.12857
0.901615
0.674935
9.72927
9.72305
9.71045
9.69064
9.66234
9.62377
9.57263
9.50586
9.42076
9.32814
9.33506
9.42656
9.5104
9.57623
9.62665
9.66461
9.69238
9.71169
9.72379
9.72952
9.27074
7.09624
3.2394
2.1533
2.23408
3.01533
4.34536
6.14863
7.81367
9.04497
)
;
    }
    cylinder
    {
        type            calculated;
        value           nonuniform List<scalar> 
80
(
2.00662
4.57653
5.54185
5.78091
6.30546
7.0907
7.86182
8.47476
8.91245
9.2129
9.4458
9.61871
9.72981
9.79829
9.84096
9.86846
9.8865
9.89817
9.90522
9.90869
9.50039
9.6506
9.74902
9.81046
9.849
9.87389
9.89016
9.90054
9.90657
9.90913
5.33059
6.23498
6.21169
6.3163
6.83492
7.52685
8.17627
8.68601
9.05066
9.3025
0.994213
0.471511
0.264176
0.1832
0.159529
0.165566
0.0828425
0.0423032
0.750425
2.43496
9.59446
9.55589
9.46745
9.30187
9.00979
8.51138
7.68626
6.36654
4.38714
2.23866
9.59436
9.55557
9.46684
9.30079
9.00793
8.5082
7.68053
6.3545
4.35817
2.19137
0.952865
0.442321
0.244378
0.170863
0.15029
0.165506
0.160678
0.0838267
0.0433613
0.739248
)
;
    }
    defaultFaces
    {
        type            empty;
    }
}


// ************************************************************************* //
