/*--------------------------------*- C++ -*----------------------------------*\
  =========                 |
  \\      /  F ield         | OpenFOAM: The Open Source CFD Toolbox
   \\    /   O peration     | Website:  https://openfoam.org
    \\  /    A nd           | Version:  13
     \\/     M anipulation  |
\*---------------------------------------------------------------------------*/
FoamFile
{
    format      ascii;
    class       volVectorField;
    location    "0.97";
    object      U;
}
// * * * * * * * * * * * * * * * * * * * * * * * * * * * * * * * * * * * * * //

dimensions      [0 1 -1 0 0 0 0];

internalField   nonuniform List<vector> 
1800
(
(0.0978001 -0.0883279 -4.48823e-20)
(0.286894 -0.24195 -3.41112e-20)
(0.473972 -0.379043 -4.85007e-19)
(0.657691 -0.500158 1.91467e-19)
(0.836612 -0.607172 7.44032e-20)
(1.00992 -0.70138 -3.905e-20)
(1.17716 -0.783475 5.54999e-20)
(1.33794 -0.85369 1.97504e-19)
(1.4916 -0.912977 5.92314e-19)
(1.63354 -0.96692 8.10113e-19)
(0.11906 -0.0915022 -7.91091e-20)
(0.34429 -0.247708 -7.70611e-19)
(0.563281 -0.384749 3.78143e-21)
(0.775363 -0.504236 1.25734e-19)
(0.979506 -0.608922 -1.26247e-19)
(1.17522 -0.700697 7.65654e-20)
(1.36232 -0.780792 -2.80741e-19)
(1.54078 -0.850105 -5.03076e-20)
(1.71011 -0.910714 -6.93599e-19)
(1.86786 -0.967058 6.2984e-19)
(0.14165 -0.0923226 4.88225e-20)
(0.403679 -0.24773 2.09287e-19)
(0.653754 -0.382116 5.43302e-19)
(0.892177 -0.497904 -1.90254e-19)
(1.11866 -0.598385 -1.4299e-19)
(1.33321 -0.685813 7.56025e-20)
(1.53606 -0.761708 9.82339e-20)
(1.72743 -0.827301 1.94051e-19)
(1.90721 -0.884807 2.73662e-21)
(2.07422 -0.937878 1.50979e-19)
(0.163906 -0.0897206 -4.57189e-20)
(0.461697 -0.239469 -2.0439e-19)
(0.741427 -0.367618 -1.81257e-19)
(1.00451 -0.476976 -1.4229e-19)
(1.25162 -0.571022 1.81301e-19)
(1.48351 -0.652128 -5.70877e-20)
(1.70093 -0.721907 -4.30994e-21)
(1.90453 -0.781624 2.90552e-21)
(2.09456 -0.833369 -1.60489e-19)
(2.27026 -0.880362 -1.05917e-19)
(0.184657 -0.0833562 -1.14034e-19)
(0.515893 -0.221807 8.76391e-20)
(0.823291 -0.33943 1.79834e-19)
(1.10931 -0.439063 2.43296e-19)
(1.37561 -0.524071 -2.8501e-19)
(1.62371 -0.596778 -3.58068e-21)
(1.85494 -0.658768 4.24951e-19)
(2.07043 -0.711264 -1.85055e-19)
(2.27083 -0.756166 -1.23984e-19)
(2.45578 -0.796401 -5.35385e-20)
(0.203189 -0.0734999 1.73587e-19)
(0.56447 -0.1952 1.02983e-18)
(0.89679 -0.298074 1.43257e-19)
(1.20351 -0.384735 -5.03128e-19)
(1.48719 -0.458226 -1.75496e-19)
(1.75003 -0.520669 6.37664e-19)
(1.9939 -0.573525 -1.45365e-19)
(2.22036 -0.617901 -4.31557e-19)
(2.43047 -0.655446 -3.16673e-19)
(2.6242 -0.688745 2.61586e-19)
(0.218898 -0.0605912 1.16339e-19)
(0.605744 -0.1607 -7.47582e-19)
(0.959312 -0.24503 -1.08559e-18)
(1.2837 -0.315798 3.83777e-19)
(1.58223 -0.375564 4.49928e-19)
(1.85767 -0.426128 -9.02014e-22)
(2.11239 -0.46874 -6.3965e-19)
(2.34829 -0.504326 2.1931e-19)
(2.56683 -0.534214 -3.64522e-19)
(2.76827 -0.560572 -3.11226e-19)
(0.231235 -0.0451722 -3.42481e-19)
(0.638198 -0.119684 -6.92591e-19)
(1.00849 -0.182294 1.21219e-18)
(1.34677 -0.2347 5.98691e-19)
(1.65693 -0.278852 -2.6975e-19)
(1.94224 -0.316136 -2.11491e-19)
(2.20543 -0.347516 0)
(2.44874 -0.37369 1.16797e-19)
(2.67398 -0.395623 -2.95837e-19)
(2.88171 -0.414971 -7.74181e-20)
(0.239766 -0.0278753 -2.04463e-19)
(0.660651 -0.0737557 5.62375e-19)
(1.04249 -0.112198 1.71005e-19)
(1.39031 -0.144289 -5.12484e-19)
(1.7084 -0.171277 -7.8418e-19)
(2.00037 -0.194054 3.66183e-20)
(2.26923 -0.213246 1.67126e-19)
(2.51752 -0.229294 -5.4683e-19)
(2.74731 -0.242785 -2.89766e-19)
(2.95953 -0.254779 -5.6359e-19)
(0.244259 -0.0094024 4.51401e-19)
(0.672451 -0.024704 3.44143e-19)
(1.0603 -0.0373616 -9.38584e-20)
(1.41303 -0.0477885 -1.29776e-20)
(1.73514 -0.0564624 -3.87501e-19)
(2.03041 -0.0637233 -8.57329e-20)
(2.30205 -0.0698104 -2.90573e-19)
(2.55275 -0.0748907 6.4655e-19)
(2.7848 -0.0791717 1.71001e-19)
(2.99945 -0.0830126 2.22003e-21)
(-0.00234135 -0.0217707 -3.54346e-20)
(0.00856978 -0.0693618 -6.99005e-20)
(0.0248468 -0.120623 -7.3339e-21)
(0.0492834 -0.171408 -3.39259e-20)
(0.0776341 -0.216823 -1.27391e-20)
(0.106461 -0.254959 -3.90089e-19)
(0.135472 -0.288882 -1.95662e-20)
(0.166253 -0.322204 1.19953e-19)
(0.19908 -0.355738 1.09383e-20)
(0.23297 -0.388126 -3.5703e-20)
(0.00085198 -0.0246651 -9.77633e-20)
(0.0149304 -0.0850521 -2.13717e-19)
(0.0393436 -0.160439 -5.29221e-20)
(0.0692655 -0.225421 -1.10226e-19)
(0.0994608 -0.275713 -9.60903e-20)
(0.130402 -0.318138 -2.79209e-19)
(0.164409 -0.359139 2.00155e-19)
(0.20207 -0.400567 1.68819e-19)
(0.241572 -0.440511 -2.57047e-19)
(0.281076 -0.476911 8.14496e-20)
(0.00549734 -0.0314713 -8.54171e-20)
(0.0287725 -0.107402 -8.69435e-19)
(0.0628693 -0.196177 -1.30281e-19)
(0.0974516 -0.269071 9.24548e-20)
(0.13179 -0.327316 6.76478e-20)
(0.16961 -0.380391 -4.47614e-19)
(0.212904 -0.432445 3.53326e-20)
(0.259099 -0.481968 3.67029e-19)
(0.305442 -0.526449 -3.86759e-19)
(0.351382 -0.565858 -2.58711e-19)
(0.0113683 -0.0409673 -1.77336e-21)
(0.0466239 -0.130868 1.90247e-19)
(0.0896521 -0.22537 1.60259e-21)
(0.133079 -0.307091 -1.06921e-20)
(0.177776 -0.377935 -2.99428e-20)
(0.227224 -0.443939 8.55754e-20)
(0.28108 -0.505734 7.25378e-20)
(0.335649 -0.561026 -1.3595e-19)
(0.389704 -0.609522 9.21153e-21)
(0.443866 -0.652102 -1.04426e-20)
(0.0185084 -0.0507601 0)
(0.0672392 -0.152424 5.51979e-21)
(0.121946 -0.253652 -5.11493e-19)
(0.178698 -0.345506 5.17658e-20)
(0.237805 -0.428616 -9.45083e-21)
(0.300511 -0.505146 4.89134e-21)
(0.365306 -0.574454 -2.51547e-20)
(0.429799 -0.63553 -7.76183e-21)
(0.493933 -0.68895 0)
(0.558124 -0.734973 -2.05805e-20)
(0.0273246 -0.0596437 3.1894e-20)
(0.0918951 -0.172852 -1.54635e-19)
(0.161769 -0.282529 -4.6228e-20)
(0.234632 -0.383904 -5.82607e-20)
(0.309738 -0.476776 4.95589e-20)
(0.386739 -0.56157 6.08224e-21)
(0.464245 -0.637752 8.86543e-20)
(0.540939 -0.70501 -2.17528e-20)
(0.616909 -0.763526 -6.95856e-19)
(0.692159 -0.812743 -1.00993e-20)
(0.0379736 -0.067601 6.7463e-22)
(0.121236 -0.192175 5.54678e-20)
(0.209164 -0.310618 -7.83387e-20)
(0.299928 -0.420182 -1.66801e-20)
(0.392139 -0.520681 -7.29076e-20)
(0.484782 -0.612148 -9.24601e-21)
(0.576707 -0.694356 1.02319e-20)
(0.666948 -0.767188 -2.11227e-19)
(0.755534 -0.830323 3.833e-19)
(0.842327 -0.88239 9.71253e-19)
(0.0503602 -0.0745987 1.51009e-20)
(0.155128 -0.209607 -1.42208e-19)
(0.263462 -0.335963 -2.13644e-19)
(0.373671 -0.452112 8.89638e-20)
(0.484105 -0.55827 -6.43055e-20)
(0.593549 -0.654627 9.85159e-20)
(0.70095 -0.741294 1.96488e-19)
(0.805418 -0.818327 -1.08886e-19)
(0.907032 -0.885151 -3.05828e-19)
(1.00571 -0.939577 7.25159e-19)
(0.064289 -0.0803583 -2.65177e-20)
(0.193284 -0.224024 -5.78106e-19)
(0.324296 -0.356558 5.24273e-19)
(0.455684 -0.47723 3.37457e-19)
(0.585741 -0.586747 -8.59077e-20)
(0.713228 -0.685665 3.08559e-19)
(0.837136 -0.774444 -1.59935e-19)
(0.956573 -0.853476 -7.72507e-19)
(1.07174 -0.922061 -4.03622e-19)
(1.18269 -0.977315 4.53552e-19)
(0.0795443 -0.084665 -7.98154e-20)
(0.235844 -0.234415 -5.44372e-19)
(0.392391 -0.370523 -8.32108e-21)
(0.547542 -0.492794 6.88686e-20)
(0.699596 -0.602464 3.3773e-19)
(0.847395 -0.700436 -1.85371e-19)
(0.990018 -0.787448 -1.69417e-19)
(1.12654 -0.863838 1.88936e-19)
(1.25682 -0.928667 -3.5157e-19)
(1.38008 -0.98038 -5.84478e-19)
(0.402856 -0.532291 9.816e-19)
(0.684765 -0.618927 -2.38595e-19)
(0.913686 -0.558442 -1.41605e-19)
(1.08775 -0.432247 2.66905e-19)
(1.24053 -0.281363 -2.2946e-19)
(1.36332 -0.141004 -2.98501e-19)
(1.46263 -0.0373681 -2.6624e-19)
(1.52388 0.0163183 -3.18559e-20)
(1.54781 0.0333887 -5.65233e-20)
(1.56988 0.0256268 3.07239e-20)
(0.468791 -0.620143 9.6387e-19)
(0.741374 -0.694353 7.07862e-20)
(0.966164 -0.618509 1.09924e-20)
(1.12481 -0.481549 -2.14144e-19)
(1.26579 -0.321826 -7.09744e-19)
(1.38162 -0.173917 0)
(1.48243 -0.0629139 -2.49057e-19)
(1.56158 0.0010936 5.27262e-20)
(1.60291 0.0257661 4.61106e-21)
(1.64104 0.020813 3.45287e-20)
(0.556137 -0.705774 -9.98339e-19)
(0.810662 -0.767309 -7.12785e-20)
(1.02538 -0.676414 1.56372e-19)
(1.16607 -0.528661 -5.41139e-20)
(1.29122 -0.361061 -3.6594e-20)
(1.39756 -0.20672 6.39342e-20)
(1.4942 -0.0904367 0)
(1.58267 -0.0194349 0)
(1.64223 0.0122081 5.34048e-22)
(1.7044 0.0128959 0)
(0.665645 -0.78749 -2.25185e-19)
(0.895491 -0.835847 4.05673e-19)
(1.09179 -0.731095 2.68473e-20)
(1.21228 -0.572586 0)
(1.31776 -0.398162 6.05361e-19)
(1.4122 -0.238349 -1.39346e-19)
(1.50139 -0.118498 0)
(1.59255 -0.0421435 1.38267e-19)
(1.65764 -0.00805315 0)
(1.75626 0.0010459 -5.40043e-20)
(0.79571 -0.864142 -1.48779e-19)
(0.997539 -0.897984 4.56521e-19)
(1.16603 -0.781399 -1.46547e-20)
(1.26362 -0.6125 0)
(1.34614 -0.4323 1.805e-19)
(1.42609 -0.268009 2.63819e-19)
(1.50582 -0.14591 4.67523e-20)
(1.59642 -0.0650711 6.41901e-21)
(1.65639 -0.0304524 -1.63027e-20)
(1.78795 -0.0188016 3.76747e-20)
(0.942241 -0.934978 -1.3342e-18)
(1.11641 -0.952374 -9.44691e-19)
(1.2487 -0.826065 4.75213e-21)
(1.31983 -0.647687 5.76987e-19)
(1.37673 -0.462696 -3.0864e-19)
(1.4394 -0.295093 1.45868e-19)
(1.50858 -0.171745 2.26522e-19)
(1.59365 -0.0877849 -1.86986e-19)
(1.65519 -0.0517113 -1.91238e-21)
(1.76346 -0.0405428 -2.59744e-20)
(1.10011 -0.999624 -2.61289e-19)
(1.24997 -0.998831 2.8736e-19)
(1.34005 -0.863981 3.89578e-21)
(1.38061 -0.677468 -1.76587e-20)
(1.40961 -0.488612 -5.95677e-19)
(1.45211 -0.31903 5.35041e-20)
(1.50988 -0.195484 -9.4812e-20)
(1.58642 -0.108431 -2.57072e-20)
(1.64997 -0.0724696 1.40281e-20)
(1.7104 -0.0519838 -2.42937e-20)
(1.26435 -1.05697 -1.2002e-18)
(1.39472 -1.03796 2.10464e-19)
(1.43905 -0.894559 0)
(1.44498 -0.701416 3.44684e-20)
(1.44407 -0.509571 5.23962e-19)
(1.46385 -0.339413 -1.93758e-21)
(1.50863 -0.216831 -3.23131e-19)
(1.57918 -0.126485 8.14739e-20)
(1.61495 -0.0865091 -2.35306e-21)
(1.64507 -0.0579614 -7.18655e-20)
(1.43203 -1.1036 3.39084e-18)
(1.54804 -1.07068 2.45539e-19)
(1.54551 -0.918508 4.65468e-19)
(1.51319 -0.719949 -3.1791e-20)
(1.48022 -0.525731 -3.44782e-20)
(1.47414 -0.356478 -4.28183e-19)
(1.50493 -0.234591 9.97256e-20)
(1.55377 -0.142695 3.13547e-21)
(1.55691 -0.0908777 -2.42314e-20)
(1.57172 -0.0606988 8.48935e-20)
(1.59927 -1.12827 -2.99792e-18)
(1.70187 -1.09584 1.27177e-18)
(1.65388 -0.938476 -2.3375e-19)
(1.58136 -0.736555 -7.89911e-19)
(1.51504 -0.540624 -6.53712e-19)
(1.48051 -0.373942 -2.48765e-19)
(1.49448 -0.252888 -7.42353e-20)
(1.49605 -0.14921 0)
(1.49017 -0.0921215 -8.47776e-20)
(1.49318 -0.0618302 1.75147e-19)
(1.88822 -1.1703 -6.70969e-18)
(1.92742 -1.10537 -1.6912e-18)
(1.80479 -0.932647 -5.77448e-20)
(1.67305 -0.728271 1.1158e-19)
(1.56148 -0.535678 1.57228e-19)
(1.48827 -0.374512 -9.78454e-20)
(1.43681 -0.250011 -3.98809e-20)
(1.41139 -0.147476 7.82568e-20)
(1.39709 -0.0909244 -6.82734e-20)
(1.38842 -0.0615999 -8.01066e-20)
(2.28936 -1.13495 4.96004e-19)
(2.17885 -1.05689 -2.93611e-19)
(1.94258 -0.865629 4.85261e-19)
(1.73533 -0.665208 -8.26225e-20)
(1.56072 -0.481935 -1.59565e-20)
(1.42439 -0.334768 -7.71389e-20)
(1.33645 -0.224426 9.06632e-20)
(1.2944 -0.135543 -3.31722e-20)
(1.27277 -0.0849062 2.26564e-19)
(1.25402 -0.058386 1.04755e-19)
(2.61059 -1.04367 2.27078e-18)
(2.35186 -0.94888 3.25681e-19)
(2.00796 -0.759665 -1.17495e-19)
(1.73193 -0.57321 1.69229e-36)
(1.50397 -0.411555 -2.56791e-20)
(1.33716 -0.287656 1.49107e-33)
(1.23012 -0.194511 -2.19184e-20)
(1.17141 -0.120549 -1.78598e-33)
(1.14221 -0.076464 7.21929e-21)
(1.115 -0.0530559 -9.97594e-21)
(2.78699 -0.894014 3.88523e-33)
(2.3693 -0.795703 2.96657e-18)
(1.9733 -0.63062 1.81619e-18)
(1.65299 -0.46958 0)
(1.40562 -0.335392 8.27998e-19)
(1.22829 -0.234223 4.22516e-19)
(1.11129 -0.159373 1.70869e-19)
(1.04198 -0.101487 -3.14654e-33)
(1.00626 -0.0654991 -5.19871e-20)
(0.972462 -0.0459612 4.60803e-21)
(2.7636 -0.705922 3.84239e-18)
(2.2458 -0.629928 -1.46794e-19)
(1.84635 -0.491095 0)
(1.51526 -0.361781 0)
(1.27077 -0.255933 0)
(1.09636 -0.178758 0)
(0.979233 -0.122786 -1.2959e-20)
(0.90587 -0.0801662 -4.40829e-33)
(0.865895 -0.05266 8.20009e-21)
(0.827597 -0.0375831 2.59506e-34)
(2.55114 -0.517051 3.2654e-18)
(2.02 -0.462933 0)
(1.63846 -0.353675 0)
(1.32661 -0.256762 0)
(1.10068 -0.179796 0)
(0.941134 -0.125705 0)
(0.832583 -0.08719 3.3213e-20)
(0.761772 -0.058273 -9.64425e-20)
(0.72097 -0.0388445 9.0804e-21)
(0.680982 -0.0284732 2.18776e-20)
(2.1901 -0.342716 0)
(1.7026 -0.30352 1.09793e-18)
(1.36123 -0.227621 1.09011e-18)
(1.09123 -0.16199 0)
(0.898261 -0.112366 6.65925e-19)
(0.763679 -0.0787809 4.01806e-19)
(0.671124 -0.0552442 2.49151e-19)
(0.60872 -0.0377819 8.64991e-20)
(0.571002 -0.0253453 -4.51822e-20)
(0.532826 -0.0193704 -3.59557e-22)
(1.70285 -0.191139 -6.73877e-19)
(1.30017 -0.165597 -2.74179e-19)
(1.02502 -0.121763 1.75656e-19)
(0.815041 -0.0844331 -2.11228e-34)
(0.667642 -0.0580843 -7.71544e-20)
(0.566008 -0.0410727 3.6983e-33)
(0.495355 -0.0292312 4.87718e-20)
(0.446308 -0.0205358 9.90212e-20)
(0.415495 -0.0136567 1.03172e-20)
(0.383109 -0.0111463 -4.26397e-22)
(1.10088 -0.0758224 3.40807e-18)
(0.823153 -0.0626797 -1.86603e-19)
(0.640565 -0.044296 -5.89042e-19)
(0.506126 -0.0289853 0)
(0.413799 -0.019565 -6.402e-19)
(0.350585 -0.0141375 -4.32173e-19)
(0.306033 -0.0104008 -2.04594e-19)
(0.274285 -0.00773196 -1.4616e-19)
(0.253737 -0.00507301 1.92283e-19)
(0.231428 -0.00462563 -3.852e-20)
(0.397351 -0.00331885 0)
(0.287865 0.00159451 0)
(0.220887 0.0040944 0)
(0.173546 0.00624848 0)
(0.142371 0.0058597 0)
(0.121177 0.00472125 0)
(0.105824 0.00370778 5.58724e-20)
(0.0944488 0.00264289 -2.17334e-34)
(0.0868083 0.00243703 1.2769e-20)
(0.0781821 0.00111941 1.13848e-20)
(3.3671 -0.0863126 5.39218e-19)
(3.32642 -0.265088 -8.4188e-20)
(3.24735 -0.430659 8.52084e-19)
(3.13238 -0.582162 -6.04747e-19)
(2.98634 -0.718131 6.66399e-19)
(2.81524 -0.836391 2.75248e-19)
(2.62661 -0.934071 -1.92742e-18)
(2.42952 -1.00786 -7.74966e-20)
(2.22469 -1.0537 0)
(1.98487 -1.06659 4.25985e-19)
(3.86191 -0.0750611 7.07367e-18)
(3.79859 -0.234217 1.95629e-18)
(3.70428 -0.387316 -4.86734e-18)
(3.58426 -0.531999 -4.49148e-19)
(3.44239 -0.665904 3.55898e-18)
(3.28186 -0.787334 1.92356e-18)
(3.10651 -0.895086 -5.1689e-18)
(2.92205 -0.987727 -1.95226e-18)
(2.72761 -1.06342 2.20324e-18)
(2.49239 -1.12056 8.52208e-19)
(3.83307 -0.0533025 -1.2626e-19)
(3.82024 -0.171569 4.40352e-18)
(3.78545 -0.299766 -1.08813e-18)
(3.72433 -0.430925 -3.44615e-18)
(3.63617 -0.558738 -6.79978e-18)
(3.52371 -0.678812 1.02787e-17)
(3.39117 -0.788806 4.18059e-18)
(3.2435 -0.888004 -3.91187e-18)
(3.08161 -0.978743 -2.90281e-18)
(2.88723 -1.06304 -3.42514e-18)
(3.62866 -0.0472875 -4.83934e-18)
(3.61961 -0.144934 -4.35337e-18)
(3.59963 -0.243743 5.47204e-18)
(3.56735 -0.343099 1.91183e-18)
(3.5224 -0.442384 -8.97101e-18)
(3.46415 -0.540816 4.92125e-19)
(3.39181 -0.637057 3.88626e-18)
(3.3051 -0.730445 -1.05388e-18)
(3.20497 -0.823081 1.27675e-18)
(3.08303 -0.914793 2.81781e-19)
(3.34405 -0.0365797 -9.1598e-19)
(3.339 -0.111657 3.00406e-18)
(3.3271 -0.188678 1.61956e-18)
(3.30744 -0.267173 -1.89424e-18)
(3.27986 -0.346072 -2.00133e-18)
(3.24465 -0.42414 -2.4339e-18)
(3.20203 -0.50034 3.79642e-19)
(3.15174 -0.574502 1.39046e-19)
(3.09547 -0.64777 -2.1396e-18)
(3.03284 -0.721319 -2.03425e-18)
(2.96257 -0.0265557 -1.82247e-18)
(2.95981 -0.0798899 -5.87277e-20)
(2.9533 -0.1346 -1.6375e-18)
(2.9424 -0.190904 3.12134e-19)
(2.92675 -0.248551 5.36775e-18)
(2.90629 -0.306931 -3.66743e-19)
(2.88091 -0.365117 4.43373e-20)
(2.85022 -0.422062 -2.60855e-18)
(2.81643 -0.476887 -3.49556e-18)
(2.78599 -0.52987 3.7287e-19)
(2.48713 -0.0175116 -2.89323e-20)
(2.48578 -0.0519355 -8.143e-19)
(2.48259 -0.0872488 -2.6148e-18)
(2.47707 -0.123772 -3.43097e-18)
(2.4688 -0.161534 2.49651e-18)
(2.45744 -0.200268 1.50223e-18)
(2.44261 -0.239354 -1.38506e-18)
(2.4237 -0.277792 1.62448e-18)
(2.40274 -0.314485 -4.297e-19)
(2.38952 -0.349543 -9.63759e-19)
(1.91464 -0.00968892 7.72442e-19)
(1.91408 -0.028298 -8.31781e-19)
(1.91278 -0.04744 -3.2768e-20)
(1.91032 -0.0673593 -3.47241e-20)
(1.90624 -0.0881303 -7.27403e-20)
(1.90013 -0.109615 -2.33191e-18)
(1.89151 -0.131405 -6.7867e-19)
(1.87978 -0.152783 2.62609e-18)
(1.86664 -0.172976 -6.03509e-19)
(1.86191 -0.192208 -1.35115e-18)
(1.23989 -0.00373787 -1.64278e-18)
(1.23967 -0.0106958 -8.48893e-19)
(1.23923 -0.0179013 2.33915e-18)
(1.23823 -0.0254786 -8.89758e-19)
(1.23625 -0.0334753 -6.74111e-19)
(1.2329 -0.0418316 1.35201e-18)
(1.22775 -0.05035 -1.29588e-18)
(1.22038 -0.0586655 1.28698e-18)
(1.21202 -0.0663427 -1.21032e-18)
(1.21007 -0.0735086 -4.2483e-18)
(0.454917 -0.000257999 6.63065e-19)
(0.454827 -0.000700545 7.03038e-19)
(0.454692 -0.00115912 7.48165e-19)
(0.454325 -0.00164005 1.35394e-18)
(0.453496 -0.00214017 -6.71973e-19)
(0.451984 -0.00263717 -1.2996e-18)
(0.449568 -0.00309908 6.14708e-19)
(0.445993 -0.0035929 2.48375e-20)
(0.441737 -0.0043922 -4.96535e-20)
(0.44035 -0.00504562 1.1057e-19)
(1.65357 0.997308 -2.85849e-19)
(1.51228 0.941885 1.79914e-20)
(1.3588 0.880765 -2.28805e-19)
(1.19768 0.808451 1.76295e-19)
(1.02958 0.723986 -1.9181e-19)
(0.854825 0.627081 -1.01076e-19)
(0.673759 0.516944 2.31968e-19)
(0.487035 0.392147 -3.04867e-19)
(0.29589 0.250642 3.09879e-19)
(0.101429 0.091643 2.38687e-19)
(1.8864 0.992214 0)
(1.72969 0.934756 6.39445e-19)
(1.56084 0.87278 3.32696e-19)
(1.38229 0.801861 1.62627e-19)
(1.19453 0.719882 4.31082e-19)
(0.997534 0.6259 -8.68377e-20)
(0.79136 0.518602 -7.85253e-20)
(0.576345 0.395989 8.8733e-20)
(0.353316 0.255174 -1.04513e-18)
(0.122697 0.0943544 -1.66635e-20)
(2.09105 0.959052 1.568e-19)
(1.92524 0.905079 0)
(1.74614 0.846469 -1.00729e-19)
(1.55494 0.779554 -3.83292e-19)
(1.3517 0.702084 5.3702e-20)
(1.13609 0.61279 3.97059e-19)
(0.907782 0.510088 -6.06833e-19)
(0.666588 0.391637 -2.00885e-19)
(0.412594 0.254043 7.83573e-19)
(0.14525 0.0947344 -1.75919e-19)
(2.28485 0.898363 1.87919e-19)
(2.11045 0.850567 1.19664e-20)
(1.9213 0.797865 2.45297e-20)
(1.71811 0.737003 3.6078e-20)
(1.50058 0.665856 -2.92999e-20)
(1.26792 0.583132 2.7323e-19)
(1.01926 0.487167 -2.06868e-19)
(0.753673 0.375529 -8.55532e-19)
(0.470269 0.244677 0)
(0.167387 0.0916959 0)
(2.46796 0.811824 -1.07087e-18)
(2.28436 0.770839 -6.09277e-19)
(2.08493 0.725063 -1.2069e-19)
(1.87003 0.671523 -6.65689e-20)
(1.6389 0.608295 0)
(1.39031 0.534136 2.40739e-19)
(1.12275 0.447433 2.67764e-19)
(0.834553 0.345834 2.86226e-19)
(0.523838 0.225952 -4.23723e-19)
(0.187907 0.0848976 -8.12305e-20)
(2.634 0.702096 7.66468e-19)
(2.44156 0.668065 -1.39168e-19)
(2.23244 0.62968 -2.21598e-19)
(2.00664 0.584306 0)
(1.76301 0.530279 0)
(1.49987 0.466487 0)
(1.21522 0.391463 -3.89784e-20)
(0.906682 0.303089 3.70271e-19)
(0.571497 0.198347 3.79147e-19)
(0.206082 0.0746239 -3.08558e-19)
(2.7758 0.572357 -1.1936e-18)
(2.5755 0.545261 -1.48141e-18)
(2.35786 0.51453 -3.03376e-22)
(2.1226 0.477946 -1.87648e-19)
(1.86818 0.434181 -9.28774e-20)
(1.59257 0.382317 -1.78829e-19)
(1.29332 0.321124 4.59077e-19)
(0.967487 0.248836 2.14862e-19)
(0.611582 0.162966 5.40011e-19)
(0.221314 0.06134 2.02847e-19)
(2.88707 0.425749 -1.15709e-18)
(2.68027 0.405633 8.47038e-20)
(2.45576 0.38282 1.64527e-19)
(2.21297 0.355611 1.68138e-20)
(1.95004 0.32305 -3.14393e-19)
(1.66465 0.284468 -1.742e-19)
(1.35397 0.238937 -6.21195e-19)
(1.01463 0.18514 1.18529e-19)
(0.642603 0.121236 5.1473e-20)
(0.233065 0.0456125 -6.26924e-21)
(2.96279 0.265187 1.01367e-19)
(2.7512 0.252354 3.96999e-19)
(2.52189 0.237904 -3.3029e-19)
(2.27394 0.22074 3.63004e-19)
(2.00523 0.200296 3.72541e-19)
(1.71322 0.176176 4.91887e-19)
(1.39481 0.147809 -6.35729e-19)
(1.04633 0.114389 -3.24409e-19)
(0.66341 0.0748095 -4.58505e-20)
(0.240916 0.028095 -3.26988e-19)
(3.00052 0.093577 5.81811e-19)
(2.78612 0.0887854 -1.86161e-19)
(2.55425 0.0834437 4.79557e-19)
(2.30366 0.0771499 -3.10657e-19)
(2.03208 0.0697276 2.66476e-19)
(1.73679 0.0610616 6.05398e-19)
(1.41457 0.0509782 3.78878e-19)
(1.06161 0.0392345 3.09336e-19)
(0.673395 0.0255065 2.65857e-19)
(0.244653 0.0095072 5.43605e-19)
(0.239685 0.452349 -4.69356e-19)
(0.204071 0.418617 -1.88024e-19)
(0.168488 0.381515 1.3927e-19)
(0.134942 0.343827 -4.19104e-19)
(0.105196 0.307684 -1.19337e-19)
(0.0782968 0.270429 6.92934e-19)
(0.0519226 0.224024 3.3576e-19)
(0.0259963 0.159144 -1.54938e-19)
(0.0070687 0.0797676 1.15014e-19)
(-0.00112043 0.0224666 -6.07864e-20)
(0.288683 0.544654 4.11591e-19)
(0.248777 0.50785 4.58658e-19)
(0.208227 0.465788 -1.15122e-20)
(0.16789 0.418737 -1.32941e-19)
(0.131156 0.370583 -3.14016e-19)
(0.100619 0.322959 8.28676e-20)
(0.073494 0.269617 2.25505e-19)
(0.0459173 0.197136 1.6569e-19)
(0.0183611 0.102008 -5.91539e-19)
(0.00279805 0.0289108 -1.23703e-19)
(0.359648 0.633466 -6.01119e-19)
(0.313787 0.593306 -4.81644e-19)
(0.267995 0.547454 2.57947e-19)
(0.221357 0.494127 1.38541e-19)
(0.175811 0.434336 -6.25896e-21)
(0.136271 0.372089 -1.40336e-19)
(0.10212 0.305785 -2.9727e-20)
(0.068444 0.225031 -5.54815e-19)
(0.0336869 0.126121 -2.69311e-19)
(0.00764766 0.0378358 -3.90498e-20)
(0.454186 0.718189 5.035e-19)
(0.400033 0.673977 1.64749e-19)
(0.346346 0.622946 -1.49534e-19)
(0.292216 0.563879 6.32161e-20)
(0.237742 0.495755 -6.31052e-22)
(0.186583 0.421044 1.26952e-21)
(0.140103 0.340789 -1.32593e-19)
(0.0954627 0.250346 3.77984e-19)
(0.0514449 0.147801 -4.19094e-19)
(0.0135889 0.0477379 -6.4999e-20)
(0.571979 0.798124 -2.82191e-19)
(0.507836 0.750011 -8.88769e-20)
(0.44356 0.693141 -1.4371e-20)
(0.378955 0.627396 -7.05783e-20)
(0.313713 0.552111 5.8703e-20)
(0.24966 0.468184 5.29942e-20)
(0.18838 0.376803 -2.80208e-20)
(0.129327 0.276713 -2.8191e-19)
(0.0725333 0.16768 2.18251e-19)
(0.0209246 0.056856 8.72314e-20)
(0.709404 0.871164 6.43202e-19)
(0.634357 0.819762 3.20562e-19)
(0.558123 0.757573 2.02633e-19)
(0.480851 0.685485 4.82328e-20)
(0.402411 0.603625 1.55409e-19)
(0.323871 0.512436 7.87706e-20)
(0.246469 0.41257 1.43652e-19)
(0.170868 0.303946 5.79533e-20)
(0.0980576 0.18682 -1.58064e-20)
(0.0300011 0.0650384 -1.32505e-20)
(0.862023 0.935038 -1.19789e-19)
(0.775544 0.880821 -8.24179e-19)
(0.686706 0.814174 -7.5468e-20)
(0.595728 0.736909 -5.30612e-20)
(0.502565 0.649688 -1.99771e-20)
(0.408128 0.552755 1.5172e-19)
(0.313481 0.44634 -4.38027e-20)
(0.219712 0.33043 6.49336e-20)
(0.128296 0.205089 -1.44624e-19)
(0.0409061 0.0724971 -1.277e-21)
(1.02674 0.986162 -8.84467e-19)
(0.92848 0.929745 5.94333e-20)
(0.826666 0.859791 -2.3429e-19)
(0.721471 0.778948 -7.22553e-20)
(0.612774 0.68805 -2.37155e-20)
(0.501462 0.587096 -7.52053e-20)
(0.388529 0.47591 5.6241e-20)
(0.275165 0.354204 6.02887e-20)
(0.162983 0.221562 -9.82072e-21)
(0.0535448 0.0791216 -1.03757e-19)
(1.20391 1.01803 1.23815e-19)
(1.09352 0.96102 5.22867e-19)
(0.978266 0.889779 1.54999e-21)
(0.858232 0.807597 -2.94138e-20)
(0.733152 0.715329 1.50722e-19)
(0.603896 0.612567 -3.47118e-19)
(0.471406 0.498761 -2.44314e-19)
(0.336832 0.373214 3.56076e-19)
(0.201772 0.235009 1.44163e-19)
(0.0677022 0.0845326 -3.61956e-20)
(1.4006 1.01554 7.39517e-19)
(1.27807 0.9624 3.23597e-19)
(1.14784 0.895407 5.59623e-20)
(1.01088 0.816433 -1.94747e-19)
(0.867277 0.726542 -1.64166e-20)
(0.717905 0.625349 4.6548e-19)
(0.563586 0.51201 -2.68171e-19)
(0.405341 0.385478 -1.84463e-19)
(0.244705 0.24432 3.35772e-19)
(0.0831135 0.0884404 -6.03039e-21)
(0.977824 0.0991309 8.558e-21)
(1.14014 0.142936 -2.46281e-21)
(1.21343 0.19135 -2.46602e-20)
(1.32607 0.169333 0)
(1.38015 0.154791 -8.89834e-22)
(1.28082 0.233667 -6.01871e-20)
(1.13072 0.385459 -5.47962e-20)
(0.95014 0.543673 -9.12601e-21)
(0.712078 0.648692 -3.09109e-19)
(0.416739 0.595893 4.18898e-19)
(0.983731 0.0805311 2.01431e-19)
(1.13155 0.115266 -3.28419e-20)
(1.21056 0.160908 1.88081e-21)
(1.31679 0.149512 1.03209e-20)
(1.38488 0.157061 3.12891e-21)
(1.3008 0.268488 -6.39011e-22)
(1.16061 0.435822 7.3511e-21)
(0.994587 0.606897 0)
(0.761819 0.727835 8.09508e-19)
(0.479492 0.687135 -5.7175e-19)
(0.98951 0.0622283 -1.15233e-19)
(1.12783 0.0885899 6.30149e-21)
(1.2108 0.131291 7.87571e-20)
(1.31364 0.128326 1.93114e-20)
(1.38881 0.158255 -2.33352e-20)
(1.32066 0.301393 -3.46267e-20)
(1.19349 0.484741 -1.74943e-20)
(1.04448 0.668548 4.4932e-20)
(0.823243 0.804388 -1.29508e-21)
(0.564476 0.774944 -3.58065e-19)
(0.994872 0.0435776 -8.13733e-20)
(1.12865 0.0625287 1.53237e-20)
(1.21445 0.102314 7.54262e-20)
(1.31697 0.107041 3.19227e-20)
(1.39475 0.159132 -2.40635e-20)
(1.3406 0.33231 -2.85091e-20)
(1.22979 0.531474 8.55156e-20)
(1.10039 0.727467 2.70301e-20)
(0.899897 0.876078 -5.52271e-19)
(0.673656 0.85735 -1.77406e-19)
(0.999264 0.0240734 3.59931e-20)
(1.13316 0.0366459 -4.46519e-20)
(1.22096 0.0738497 -6.72784e-20)
(1.3254 0.0864748 2.3305e-20)
(1.40186 0.160603 0)
(1.36041 0.361566 0)
(1.26964 0.575322 8.4051e-20)
(1.16352 0.78225 -2.83432e-20)
(0.994585 0.940411 -1.18646e-19)
(0.805064 0.932709 -5.73541e-20)
(1.0019 0.00351776 3.18229e-21)
(1.14022 0.0105137 5.81265e-20)
(1.22933 0.0457987 -2.06525e-19)
(1.33693 0.0671629 -7.79967e-20)
(1.40902 0.1635 -4.70847e-21)
(1.38 0.389261 1.33681e-19)
(1.3133 0.615395 1.59154e-19)
(1.23542 0.831167 -1.80661e-20)
(1.10771 0.995586 -4.47947e-20)
(0.953735 1.00039 3.34717e-21)
(1.00188 -0.0180495 3.02863e-21)
(1.14883 -0.0162496 3.0963e-20)
(1.23862 0.018183 -6.54521e-20)
(1.34993 0.0495654 -1.58924e-19)
(1.41539 0.16808 1.16189e-20)
(1.39971 0.415028 7.2429e-21)
(1.36139 0.650555 -6.00897e-20)
(1.31721 0.872564 -1.0538e-19)
(1.23721 1.04133 -3.14922e-20)
(1.11387 1.06053 -9.79279e-19)
(0.99875 -0.0402352 1.51738e-20)
(1.15848 -0.0439537 -1.4814e-19)
(1.24825 -0.00880927 1.33023e-19)
(1.36315 0.0343947 1.04464e-19)
(1.41987 0.174795 4.98301e-21)
(1.41955 0.438367 -1.39318e-19)
(1.41382 0.679761 1.51862e-21)
(1.40822 0.90552 -1.38395e-19)
(1.37927 1.07853 1.10967e-20)
(1.27988 1.1126 2.88297e-18)
(0.992856 -0.0625084 -8.97802e-20)
(1.16915 -0.0727301 8.25936e-20)
(1.25803 -0.0349791 1.92334e-19)
(1.37595 0.0217466 -1.16543e-19)
(1.42305 0.18341 -2.34375e-19)
(1.44112 0.458954 9.26298e-21)
(1.47183 0.702882 1.72041e-19)
(1.50837 0.930753 -5.81984e-19)
(1.53082 1.10847 -2.68578e-20)
(1.44839 1.15354 -6.47537e-18)
(0.985184 -0.08541 4.08384e-21)
(1.18115 -0.102575 1.45287e-19)
(1.26794 -0.0601339 6.24179e-20)
(1.38727 0.0142402 -2.82637e-19)
(1.42285 0.198004 -2.51619e-19)
(1.46199 0.480349 -7.64293e-20)
(1.53106 0.723719 8.59285e-20)
(1.6115 0.951618 -1.99253e-19)
(1.68373 1.13078 -1.08545e-18)
(1.61567 1.17248 -7.95102e-18)
(0.97484 -0.116546 -1.44933e-20)
(1.1959 -0.142216 -3.37739e-20)
(1.27733 -0.0939477 -7.85904e-20)
(1.39793 0.00037864 1.4996e-19)
(1.42319 0.197467 2.07207e-19)
(1.49148 0.475709 -6.35841e-20)
(1.61181 0.713022 -1.41923e-19)
(1.75371 0.940724 -1.19794e-18)
(1.9028 1.13275 -1.59851e-18)
(1.89939 1.20881 3.28564e-18)
(0.962282 -0.155357 -4.03664e-19)
(1.21489 -0.191758 2.01235e-20)
(1.28169 -0.139911 -5.94717e-20)
(1.39822 -0.0208744 3.49617e-19)
(1.39956 0.175423 3.48914e-19)
(1.49246 0.430273 1.31769e-20)
(1.66778 0.648493 -6.34677e-20)
(1.88054 0.866243 -2.7604e-19)
(2.13954 1.07158 2.8265e-19)
(2.28457 1.16094 -3.23611e-19)
(0.949517 -0.196002 -2.79255e-20)
(1.24034 -0.241732 -5.50943e-20)
(1.28127 -0.18473 3.10862e-20)
(1.3934 -0.0385241 2.70038e-20)
(1.37164 0.164689 1.71263e-33)
(1.46829 0.3725 2.56042e-21)
(1.67971 0.561766 -2.02512e-33)
(1.94869 0.759845 1.84961e-19)
(2.30179 0.956537 -9.30727e-19)
(2.58734 1.05854 -6.29238e-19)
(0.93706 -0.24287 1.41067e-18)
(1.27185 -0.281907 -7.76436e-34)
(1.24993 -0.229641 -4.08752e-20)
(1.26869 -0.0380731 -2.28664e-19)
(1.25984 0.145445 -4.436e-19)
(1.38822 0.303278 -8.77669e-19)
(1.6184 0.46038 -5.05151e-33)
(1.92882 0.631288 -1.73689e-18)
(2.32558 0.802197 -3.17774e-18)
(2.75367 0.902648 1.67502e-18)
(0.927323 -0.300521 0)
(1.3169 -0.327007 -1.62474e-33)
(1.11295 -0.207324 0)
(1.10615 -0.0304401 0)
(1.11761 0.115253 0)
(1.25795 0.233297 0)
(1.48913 0.355634 -8.04173e-33)
(1.81473 0.491694 0)
(2.2133 0.634351 -3.39672e-19)
(2.73491 0.712055 1.25738e-18)
(0.916513 -0.360814 1.1614e-19)
(1.25153 -0.326115 -4.67595e-19)
(0.960304 -0.174356 -5.52731e-20)
(0.933137 -0.0262732 0)
(0.955199 0.0827685 0)
(1.08969 0.165723 6.02673e-20)
(1.30602 0.254028 1.17479e-18)
(1.61579 0.354759 -1.95054e-19)
(1.99662 0.466236 -4.95304e-19)
(2.53241 0.520499 4.67323e-18)
(0.883482 -0.405308 -1.52012e-17)
(1.09208 -0.279942 1.08612e-18)
(0.792822 -0.130643 -7.28277e-20)
(0.746486 -0.0212507 -7.2227e-20)
(0.772205 0.0525502 -5.13427e-19)
(0.889267 0.104663 -7.73227e-19)
(1.07611 0.161353 -1.04751e-18)
(1.34595 0.229056 -1.3816e-18)
(1.68757 0.306132 -1.60474e-18)
(2.17992 0.344452 3.61205e-18)
(0.809013 -0.394512 -4.13721e-19)
(0.886455 -0.207579 -1.2166e-18)
(0.605649 -0.0829225 -1.25595e-19)
(0.549351 -0.015361 -8.42734e-20)
(0.57142 0.0276034 -9.91986e-34)
(0.661398 0.0546053 9.3563e-20)
(0.805313 0.0846281 -1.48443e-32)
(1.01616 0.122959 -1.93435e-19)
(1.29245 0.167314 2.98975e-19)
(1.69929 0.192073 7.05793e-19)
(0.664259 -0.28884 3.4255e-17)
(0.618255 -0.108099 -3.13983e-18)
(0.393425 -0.0351375 -2.40572e-19)
(0.33921 -0.00737433 -1.59677e-19)
(0.353503 0.00924103 3.94372e-19)
(0.41034 0.0183741 7.84609e-19)
(0.501116 0.0292074 7.95539e-19)
(0.636705 0.0448913 4.59909e-19)
(0.820747 0.0634584 -1.90479e-19)
(1.10156 0.0762259 3.56952e-18)
(0.33684 -0.0768225 5.58847e-19)
(0.261851 -0.00230508 -6.76612e-33)
(0.144394 0.0190763 -3.04784e-19)
(0.120355 0.00338361 0)
(0.123542 -0.00235598 0)
(0.141805 -0.00542153 9.62959e-20)
(0.172344 -0.00624904 9.36984e-35)
(0.220288 -0.00417837 -1.23567e-19)
(0.288129 -0.00161963 -2.8264e-19)
(0.399012 0.00331816 1.00162e-18)
(2.00207 1.09647 -1.78995e-18)
(2.23908 1.0785 -2.30496e-18)
(2.44209 1.02913 0)
(2.63708 0.952523 -7.57961e-19)
(2.82359 0.852523 -1.78251e-18)
(2.99276 0.7324 -2.24949e-18)
(3.13709 0.595048 -4.75743e-19)
(3.25054 0.442701 1.26927e-18)
(3.32824 0.276966 -3.54789e-18)
(3.36764 0.0986983 1.35668e-18)
(2.49869 1.14204 2.67781e-19)
(2.73058 1.08197 1.39744e-18)
(2.92389 1.00424 1.43929e-19)
(3.10675 0.909829 6.75742e-19)
(3.28061 0.80068 -1.10401e-18)
(3.43997 0.678339 -5.00061e-18)
(3.58097 0.544022 2.46813e-18)
(3.70048 0.399327 1.27037e-17)
(3.79428 0.246328 1.04072e-19)
(3.8587 0.0872582 -1.07365e-17)
(2.87476 1.07323 1.79126e-18)