/*--------------------------------*- C++ -*----------------------------------*\
  =========                 |
  \\      /  F ield         | OpenFOAM: The Open Source CFD Toolbox
   \\    /   O peration     | Website:  https://openfoam.org
    \\  /    A nd           | Version:  13
     \\/     M anipulation  |
\*---------------------------------------------------------------------------*/
FoamFile
{
    format      ascii;
    class       volVectorField;
    location    "0.095";
    object      U;
}
// * * * * * * * * * * * * * * * * * * * * * * * * * * * * * * * * * * * * * //

dimensions      [0 1 -1 0 0 0 0];

internalField   nonuniform List<vector> 
440
(
(0.218253 -0.176665 -1.81396e-19)
(0.61322 -0.436857 1.06833e-18)
(0.984695 -0.64164 4.03024e-19)
(1.32823 -0.797003 1.28371e-18)
(1.63353 -0.919303 -2.61054e-19)
(0.304869 -0.177659 -5.42766e-19)
(0.819227 -0.428741 -1.01625e-18)
(1.28027 -0.619148 1.18298e-19)
(1.69242 -0.76225 -1.21531e-18)
(2.05443 -0.876173 -1.02361e-18)
(0.384882 -0.152399 -6.97215e-19)
(1.00478 -0.363018 1.5876e-18)
(1.53999 -0.518452 -1.92803e-18)
(2.00508 -0.632823 1.40486e-18)
(2.40641 -0.72185 1.41617e-18)
(0.445906 -0.102751 5.62223e-19)
(1.14623 -0.243093 -1.29868e-18)
(1.73767 -0.344841 -7.53646e-19)
(2.24324 -0.418288 1.95888e-18)
(2.67481 -0.474599 2.50497e-18)
(0.47931 -0.0361624 6.8711e-19)
(1.22377 -0.0847681 1.69569e-19)
(1.8461 -0.119396 2.52998e-18)
(2.37427 -0.143926 -1.06444e-18)
(2.82321 -0.162599 -4.85418e-19)
(-0.00239095 -0.0569128 2.43747e-19)
(0.0444607 -0.15928 -1.59366e-19)
(0.0988973 -0.244462 9.67932e-19)
(0.163099 -0.318044 -1.82009e-19)
(0.230264 -0.381476 -1.77648e-18)
(0.0140993 -0.0868907 -3.15049e-19)
(0.0882627 -0.236007 -7.28038e-19)
(0.172152 -0.365162 8.82952e-20)
(0.265596 -0.470273 5.40791e-20)
(0.361277 -0.553213 -2.86619e-20)
(0.0441129 -0.115404 7.12675e-20)
(0.166277 -0.307464 7.00926e-19)
(0.296905 -0.476169 1.1173e-19)
(0.433473 -0.612278 1.25748e-18)
(0.568458 -0.71388 -2.25267e-20)
(0.0870985 -0.141476 6.68061e-20)
(0.277204 -0.36997 -5.49615e-20)
(0.470584 -0.567731 2.52974e-19)
(0.662732 -0.726487 -1.9001e-18)
(0.845663 -0.841039 9.34375e-19)
(0.142277 -0.161849 -2.32476e-19)
(0.420451 -0.413729 -4.33375e-19)
(0.692037 -0.623686 -7.37535e-19)
(0.95112 -0.786579 9.13947e-19)
(1.18656 -0.898943 3.34011e-18)
(0.57813 -0.622228 -4.19851e-18)
(0.952812 -0.479579 8.38979e-19)
(1.19198 -0.204112 2.9096e-19)
(1.25616 -0.0840409 -6.86388e-19)
(1.28739 -0.0227334 -1.43571e-19)
(0.775522 -0.771821 5.04579e-18)
(1.02404 -0.578381 -2.86718e-19)
(1.23334 -0.24248 -2.26983e-19)
(1.28045 -0.0972738 2.61067e-19)
(1.30042 -0.0259973 2.59178e-19)
(1.03154 -0.90314 1.53328e-18)
(1.15027 -0.661148 3.49279e-18)
(1.27363 -0.27814 1.34139e-19)
(1.30689 -0.107941 3.13994e-19)
(1.31479 -0.0284355 -1.09849e-19)
(1.32908 -1.01021 1.31864e-18)
(1.32255 -0.721371 -3.99908e-19)
(1.32639 -0.308005 -5.74147e-19)
(1.33382 -0.114952 -1.471e-19)
(1.32992 -0.029887 -7.43877e-22)
(1.63121 -1.06587 -7.09741e-20)
(1.5125 -0.763218 -1.24512e-18)
(1.39105 -0.335212 0)
(1.35878 -0.120577 2.41754e-19)
(1.34492 -0.0304165 6.4466e-20)
(2.15604 -1.12462 -1.66718e-18)
(1.7783 -0.754407 -5.05221e-19)
(1.51101 -0.330399 1.19696e-20)
(1.40054 -0.11529 -4.60737e-20)
(1.3645 -0.0283942 -1.51813e-19)
(2.62826 -0.894006 -1.6002e-18)
(1.89762 -0.564551 2.3629e-18)
(1.53597 -0.239138 1.77535e-20)
(1.39271 -0.0842853 2.3731e-19)
(1.34039 -0.019915 0)
(2.48055 -0.52465 -6.93945e-18)
(1.61524 -0.312572 -1.51311e-19)
(1.23708 -0.127571 2.07095e-18)
(1.10344 -0.0475167 -2.97807e-19)
(1.0575 -0.0116512 1.71841e-21)
(1.76082 -0.22088 6.85777e-18)
(1.08489 -0.125607 1.52298e-18)
(0.789039 -0.0522706 2.58584e-19)
(0.689616 -0.0200501 3.27642e-33)
(0.657456 -0.00466576 -2.04989e-19)
(0.681759 -0.000202161 1.60087e-18)
(0.393199 0.0231582 7.70631e-19)
(0.281531 0.0167331 -3.81549e-19)
(0.244226 0.00638374 1.36429e-19)
(0.229998 0.00248452 -4.27272e-20)
(3.58226 -0.168388 1.25836e-17)
(3.41769 -0.503201 -1.04476e-17)
(3.13728 -0.787569 7.102e-18)
(2.78118 -0.997362 2.32646e-18)
(2.33365 -1.10424 -4.18249e-19)
(3.78346 -0.103731 1.03933e-17)
(3.71637 -0.324403 -6.63676e-19)
(3.57664 -0.551659 -4.26766e-18)
(3.37708 -0.785451 2.68618e-18)
(3.09884 -1.01923 -6.6109e-19)
(3.11408 -0.0605774 3.65548e-18)
(3.09792 -0.181797 -2.51979e-18)
(3.05899 -0.309901 5.01544e-18)
(2.99854 -0.445228 -1.53003e-19)
(2.92439 -0.594152 -4.79914e-18)
(2.19012 -0.0276206 2.78905e-18)
(2.18306 -0.08346 8.43177e-18)
(2.16375 -0.144241 -6.53411e-19)
(2.13304 -0.20772 -6.60798e-18)
(2.11183 -0.270093 1.94728e-18)
(0.879153 -0.00183894 5.21337e-18)
(0.876185 -0.00524129 -1.16388e-19)
(0.866996 -0.00958308 -4.27823e-20)
(0.849989 -0.0162981 -2.00799e-18)
(0.840409 -0.0230026 -3.59742e-18)
(1.65273 0.94024 2.27735e-18)
(1.34809 0.816948 -8.10615e-20)
(1.00332 0.658796 -4.2194e-20)
(0.62788 0.449555 -1.9493e-19)
(0.225254 0.182318 -1.34241e-19)
(2.07019 0.89248 -1.22015e-18)
(1.71047 0.777767 -1.21033e-18)
(1.29821 0.632604 7.29533e-19)
(0.833984 0.438726 -4.84233e-19)
(0.312125 0.182083 -4.14345e-21)
(2.41842 0.735686 -5.89277e-19)
(2.01953 0.645252 5.25413e-19)
(1.55491 0.528692 2.43473e-18)
(1.01747 0.370157 8.08143e-19)
(0.391311 0.155271 5.25872e-19)
(2.682 0.486534 1.58885e-20)
(2.2524 0.42817 -2.71079e-19)
(1.74745 0.352253 -6.46728e-19)
(1.15478 0.247615 2.05692e-18)
(0.450327 0.104141 -3.26727e-19)
(2.8256 0.173723 -1.17144e-18)
(2.37743 0.15255 -1.60653e-18)
(1.84953 0.125295 -7.28924e-19)
(1.22681 0.0878151 7.96082e-19)
(0.480895 0.0366861 -3.25627e-19)
(0.233906 0.427067 -2.1909e-18)
(0.165097 0.363108 -1.74477e-18)
(0.0992138 0.284749 2.6174e-19)
(0.043364 0.187679 2.51399e-20)
(-0.00178696 0.0685665 5.41522e-20)
(0.369169 0.600328 -7.76463e-19)
(0.272677 0.515294 -5.86625e-19)
(0.17789 0.402622 9.60901e-21)
(0.0922979 0.260539 -2.53999e-20)
(0.0169944 0.0965456 2.29255e-20)
(0.581963 0.756647 2.11336e-18)
(0.446527 0.652354 -1.04119e-19)
(0.30825 0.50857 -9.68163e-20)
(0.174676 0.328896 -2.26005e-19)
(0.0485127 0.123917 1.71386e-19)
(0.862493 0.87667 -1.26625e-18)
(0.679659 0.759845 1.91446e-18)
(0.485713 0.594944 2.34442e-19)
(0.288652 0.388722 1.07502e-19)
(0.0926473 0.149247 -1.1698e-19)
(1.20369 0.92632 -4.44599e-19)
(0.969235 0.812691 -4.59766e-19)
(0.708759 0.645593 3.5588e-19)
(0.433487 0.429424 3.5837e-19)
(0.148546 0.168618 1.89893e-21)
(0.814055 0.146693 -7.40684e-19)
(1.36421 0.1506 9.03584e-20)
(1.17123 0.215681 3.59858e-20)
(0.979439 0.473763 -6.66249e-19)
(0.584991 0.652903 -6.50204e-20)
(0.80715 0.0958236 2.49404e-19)
(1.3702 0.143794 4.12442e-19)
(1.20657 0.24341 8.51626e-21)
(1.03719 0.570574 -5.17208e-20)
(0.777823 0.806272 8.01131e-19)
(0.801343 0.0462705 -2.32638e-19)
(1.38776 0.132393 -3.0416e-20)
(1.23973 0.268812 -1.0571e-19)
(1.14945 0.653365 -3.66627e-19)
(1.03391 0.937842 2.17794e-19)
(0.796776 -0.00318214 -4.00734e-20)
(1.41405 0.117217 -6.99058e-19)
(1.28304 0.290521 6.97974e-20)
(1.31112 0.712732 8.51478e-19)
(1.33219 1.04216 9.43795e-19)
(0.794 -0.0492912 1.71639e-19)
(1.44862 0.099679 6.38768e-20)
(1.33608 0.313655 -2.43587e-20)
(1.49247 0.754023 9.73048e-21)
(1.63362 1.0941 -2.89369e-18)
(0.799693 -0.119643 6.27452e-19)
(1.49483 0.0690227 3.70786e-19)
(1.44225 0.298636 -2.73817e-20)
(1.7436 0.737007 2.9481e-18)
(2.14778 1.14186 -5.53022e-18)
(0.813481 -0.23228 -4.53524e-20)
(1.5172 0.0125342 -3.3821e-19)
(1.49783 0.21965 2.20648e-20)
(1.86135 0.554315 -2.69066e-18)
(2.59204 0.900174 1.62136e-18)
(0.772271 -0.397239 4.86339e-18)
(1.28221 -0.0596531 4.47169e-35)
(1.25012 0.117498 -2.1339e-18)
(1.60095 0.305848 2.8228e-18)
(2.46261 0.52792 5.03993e-18)
(0.628671 -0.283304 1.65287e-19)
(0.800877 -0.0619736 3.70761e-19)
(0.786985 0.0453021 2.91158e-19)
(1.07889 0.122046 6.42983e-19)
(1.75826 0.220026 -8.6215e-18)
(0.320261 -0.0427743 -4.24664e-18)
(0.31638 -0.000918437 2.13374e-19)
(0.284982 -0.00622898 9.8882e-19)
(0.394468 -0.0234899 -8.14167e-19)
(0.685233 6.89545e-05 -1.45582e-18)
(2.3472 1.12025 4.66774e-18)
(2.78645 1.01198 3.46138e-18)
(3.1405 0.80292 -5.6891e-18)
(3.4189 0.51921 -1.46185e-17)
(3.58255 0.185561 1.5776e-17)
(3.0782 1.01703 4.98363e-18)
(3.35383 0.794048 2.56391e-17)
(3.55685 0.559933 7.24432e-18)
(3.70079 0.33131 -3.08465e-17)
(3.77719 0.110765 -5.17312e-18)
(2.9077 0.591302 -7.25483e-18)
(2.98679 0.447685 -3.38946e-18)
(3.05218 0.311943 -6.32142e-18)
(3.09476 0.181713 -6.89387e-18)
(3.11331 0.0584685 6.52429e-18)
(2.1055 0.266315 5.39569e-18)
(2.12926 0.206193 -4.0703e-19)
(2.1617 0.143367 4.8683e-18)
(2.18233 0.0823226 6.28911e-18)
(2.19002 0.0260803 -5.88802e-18)
(0.841787 0.0222332 -5.71162e-19)
(0.851337 0.0157468 3.51423e-18)
(0.86818 0.00917588 2.44133e-18)
(0.877133 0.00481289 -5.1682e-18)
(0.879533 0.00137048 -3.84283e-20)
(0.282467 0.0207899 5.52806e-19)
(0.657783 0.0405308 -7.44564e-19)
(0.974545 0.0441376 -8.16684e-19)
(0.945728 0.0274897 -1.51742e-18)
(0.699055 0.0164242 -6.63437e-19)
(0.246056 0.0555471 7.47149e-19)
(0.592288 0.107252 1.44032e-18)
(0.865989 0.125352 -6.98583e-19)
(0.941288 0.0971726 1.9601e-18)
(0.725366 0.0533526 -2.69957e-18)
(0.185993 0.0743714 4.96859e-19)
(0.477219 0.146155 -1.39671e-18)
(0.708891 0.185073 -9.13745e-19)
(0.858449 0.17562 -1.8114e-18)
(0.742728 0.101368 -2.86586e-18)
(0.123597 0.0776147 -7.72765e-19)
(0.345402 0.160804 -1.37577e-18)
(0.53547 0.215363 4.38382e-18)
(0.678514 0.233553 -3.65268e-19)
(0.71414 0.180186 2.22572e-18)
(0.0755665 0.0726106 -6.29457e-19)
(0.231169 0.160913 1.55023e-18)
(0.372836 0.22509 5.63369e-19)
(0.482695 0.257295 -1.27379e-18)
(0.560781 0.257639 -1.78938e-19)
(0.0455481 0.0643932 5.29704e-20)
(0.150782 0.150039 -1.13966e-18)
(0.248591 0.211391 -7.85071e-19)
(0.325234 0.23071 -2.51166e-19)
(0.373214 0.22051 -5.14436e-20)
(0.0261054 0.0563374 3.10911e-19)
(0.0962215 0.13286 3.91199e-19)
(0.161879 0.174466 -3.41738e-19)
(0.214858 0.179589 2.68797e-19)
(0.257628 0.167647 1.81387e-19)
(0.0122591 0.0468276 2.1143e-19)
(0.0603539 0.096979 2.13188e-18)
(0.105293 0.0970738 -1.49949e-18)
(0.146614 0.0811038 -3.00279e-18)
(0.186478 0.0591231 5.01295e-19)
(0.00890296 0.0330282 -2.88785e-19)
(0.0446109 0.0209746 -1.814e-18)
(0.0801469 -0.00731288 3.25649e-18)
(0.121341 -0.0396729 1.43319e-18)
(0.163662 -0.0732928 -3.02103e-19)
(0.000454662 -0.0222803 1.12502e-19)
(0.0358679 -0.07577 -3.46866e-19)
(0.0752062 -0.123776 8.64449e-20)
(0.123107 -0.172578 1.05112e-19)
(0.173104 -0.219148 -1.08047e-19)
(0.370617 0.0598086 -8.91986e-20)
(0.643637 -0.039092 -1.10563e-18)
(0.73787 -0.0256408 2.65012e-19)
(0.789455 -0.0114056 3.63364e-19)
(0.815428 -0.00357056 3.14955e-20)
(0.338409 -0.0586339 -4.44342e-20)
(0.781567 -0.111724 1.181e-18)
(0.925671 -0.0431437 9.85316e-19)
(0.996895 -0.01829 1.00208e-19)
(1.03487 -0.0055084 -8.91784e-20)
(0.347948 -0.174495 -8.31265e-19)
(0.851955 -0.188659 2.46281e-18)
(1.05611 -0.0754043 -2.20151e-19)
(1.16203 -0.033013 -4.79992e-19)
(1.21385 -0.00940858 1.5381e-19)
(0.383503 -0.315129 1.10119e-18)
(0.888165 -0.282202 -1.53572e-18)
(1.11002 -0.119732 -5.46629e-19)
(1.21637 -0.0523323 -5.12144e-20)
(1.2659 -0.0144573 -1.58133e-20)
(0.452392 -0.465536 4.93514e-19)
(0.917145 -0.379381 -4.29859e-19)
(1.14978 -0.162727 4.48135e-19)
(1.23544 -0.068693 1.95518e-19)
(1.27622 -0.0187542 -2.52254e-20)
(0.183494 -0.0449308 9.45771e-19)
(0.150581 -0.00354499 0)
(0.171288 0.0030361 1.25903e-19)
(0.181044 0.00195519 7.33249e-20)
(0.184691 0.000678601 -1.13431e-19)
(0.412134 0.0685582 0)
(0.424844 -0.00191481 0)
(0.492651 -0.00995902 1.91185e-19)
(0.522816 -0.00411827 1.76927e-19)
(0.53521 -0.00133212 -1.69639e-21)
(0.162993 -0.000821929 -3.68831e-19)
(0.186738 -0.00178404 3.1088e-18)
(0.213543 -0.00498334 -6.87099e-19)
(0.230084 -0.0149269 -3.11149e-18)
(0.245763 -0.0166939 -7.8791e-19)
(0.432793 0.0044543 6.10331e-19)
(0.485367 0.0197478 4.11544e-18)
(0.537311 0.0467648 -6.72689e-18)
(0.568746 0.080596 2.20269e-18)
(0.600001 0.162941 3.80511e-18)
(0.373118 -0.218157 -4.06194e-19)
(0.324523 -0.228721 -5.66751e-20)
(0.249033 -0.211437 -1.96744e-19)
(0.151508 -0.151479 3.42922e-19)
(0.0461203 -0.065082 1.18038e-19)
(0.262166 -0.156071 4.72429e-19)
(0.217041 -0.168929 1.60408e-18)
(0.163461 -0.167322 4.0166e-19)
(0.0977806 -0.132162 2.46983e-19)
(0.0265125 -0.0572015 6.73676e-21)
(0.196737 -0.0373201 -3.71898e-19)
(0.153119 -0.0596832 -9.42454e-20)
(0.108779 -0.0779073 1.78852e-18)
(0.0629588 -0.0843446 3.77818e-19)
(0.0125622 -0.0455171 -3.17575e-19)
(0.174352 0.103638 -7.66652e-19)
(0.128479 0.0705676 -7.84522e-19)
(0.0838267 0.0376254 1.35419e-18)
(0.0462563 0.00771623 1.6974e-18)
(0.0127759 -0.019919 2.36801e-19)
(0.177973 0.257574 8.30032e-20)
(0.124996 0.211548 -1.48061e-19)
(0.0742138 0.161228 2.33056e-19)
(0.0318694 0.107294 5.01478e-19)
(-0.00535322 0.0393411 4.88724e-20)
(0.699051 -0.0163802 1.53298e-18)
(0.945731 -0.0274694 -1.80057e-18)
(0.974356 -0.0442675 2.27091e-18)
(0.657796 -0.0405952 3.66355e-19)
(0.282502 -0.0207988 5.37337e-19)
(0.725351 -0.0532508 1.77548e-18)
(0.94114 -0.0971916 7.94431e-18)
(0.865791 -0.125461 1.03356e-18)
(0.592344 -0.107297 1.35024e-18)
(0.246155 -0.0555695 -4.79039e-19)
(0.742626 -0.101145 -1.23612e-18)
(0.857862 -0.175477 -2.29375e-18)
(0.708819 -0.18514 2.92334e-18)
(0.4773 -0.146233 -1.07177e-19)
(0.186125 -0.0744128 3.38808e-19)
(0.713624 -0.180039 3.97513e-20)
(0.677872 -0.233514 -7.66379e-18)
(0.535494 -0.21565 -5.9715e-18)
(0.345548 -0.161111 1.08634e-18)
(0.123783 -0.0777195 5.08473e-19)
(0.558965 -0.256519 4.77786e-19)
(0.481877 -0.256882 5.31665e-19)
(0.372929 -0.22567 -8.79362e-19)
(0.23146 -0.161663 -8.78221e-19)
(0.0759024 -0.072861 -5.08663e-21)
(0.713993 0.365017 1.10492e-18)
(0.963192 0.107754 -1.26795e-19)
(0.741199 0.0320809 2.52508e-19)
(0.662995 0.0412011 -6.58478e-19)
(0.389722 -0.0558003 -9.43962e-20)
(0.799897 0.384803 -1.53289e-19)
(1.21199 0.127004 -6.95355e-19)
(0.939123 0.0614537 5.99808e-19)
(0.812678 0.112095 1.48359e-18)
(0.366259 0.0686839 7.60017e-20)
(0.828964 0.325314 -1.82286e-18)
(1.39023 0.134453 -5.6454e-20)
(1.06532 0.101404 1.24021e-19)
(0.890595 0.189327 1.15302e-18)
(0.379067 0.190443 -1.14761e-18)
(0.828243 0.256876 1.42269e-18)
(1.38851 0.145494 6.98889e-20)
(1.1089 0.146055 -1.49012e-19)
(0.925729 0.281933 6.43797e-20)
(0.41063 0.33557 -3.91866e-19)
(0.821706 0.199496 2.20777e-19)
(1.37092 0.151538 -1.10301e-19)
(1.13735 0.18335 -9.73073e-20)
(0.950924 0.376989 1.64841e-19)
(0.469197 0.490831 1.44354e-18)
(0.273206 0.0479575 0)
(0.255148 -0.00739474 5.84593e-19)
(0.171255 -0.0160508 1.23445e-19)
(0.155314 0.00342539 -2.47453e-19)
(0.185124 0.0438569 -1.8027e-18)
(0.566002 0.261507 -1.01003e-17)
(0.653858 0.0686031 -2.18665e-18)
(0.491061 0.0159363 7.4683e-19)
(0.436193 0.00375518 -6.38503e-19)
(0.417116 -0.0664573 -6.42635e-19)
(0.245957 0.0166666 3.05698e-21)
(0.230191 0.0150104 1.92285e-18)
(0.213626 0.00502875 5.24592e-19)
(0.186788 0.00179437 3.22483e-19)
(0.163009 0.00082585 0)
(0.600574 -0.162696 -1.58063e-19)
(0.569178 -0.0803586 2.5603e-18)
(0.537398 -0.0465577 -1.44797e-19)
(0.485424 -0.0196952 -2.72899e-19)
(0.432817 -0.00443193 7.61558e-19)
)
;

boundaryField
{
    left
    {
        type            fixedValue;
        value           uniform (1 0 0);
    }
    right
    {
        type            zeroGradient;
    }
    down
    {
        type            noSlip;
    }
    up
    {
        type            noSlip;
    }
    cylinder
    {
        type            noSlip;
    }
    defaultFaces
    {
        type            empty;
    }
}


// ************************************************************************* //
