/*--------------------------------*- C++ -*----------------------------------*\
  =========                 |
  \\      /  F ield         | OpenFOAM: The Open Source CFD Toolbox
   \\    /   O peration     | Website:  https://openfoam.org
    \\  /    A nd           | Version:  13
     \\/     M anipulation  |
\*---------------------------------------------------------------------------*/
FoamFile
{
    format      ascii;
    class       surfaceScalarField;
    location    "28.3";
    object      phi;
}
// * * * * * * * * * * * * * * * * * * * * * * * * * * * * * * * * * * * * * //

dimensions      [0 3 -1 0 0 0 0];

internalField   nonuniform List<scalar> 
823
(
-0.00519959
0.0162056
-0.011006
0.00424932
0.010038
-0.0194869
0.0528427
-0.0330146
-0.0155787
0.139344
-0.0902837
0.00378238
-0.116377
-0.0129445
0.268665
0.00571984
0.0104857
0.0511383
-0.0353805
0.139145
-0.121021
0.249161
-0.2003
-0.26958
0.402364
0.0224549
-0.0119692
0.106472
-0.119398
0.217198
-0.231746
0.325284
-0.308386
-0.353895
0.409599
0.0428892
-0.0548584
0.138188
-0.214696
0.222977
-0.316536
0.276316
-0.361725
-0.376718
0.299139
0.0560116
-0.11087
0.127254
-0.285938
0.168915
-0.358198
0.185789
-0.378598
0.194458
-0.385387
0.0137704
-0.0423935
0.0286231
0.0297006
-0.0646558
0.0487256
0.0502342
-0.0643321
0.0437985
0.0810157
-0.0533833
0.0226018
-0.0278894
0.122276
-0.0133707
0.00945106
-0.0518446
0.0143112
-0.069516
0.0196381
-0.069659
0.0330022
-0.0667473
-0.0510732
0.056186
-0.00833861
-0.043506
-0.0256283
-0.0522262
-0.0502413
-0.0450461
-0.0781228
-0.0388657
-0.0245898
-0.104606
-0.0216492
-0.0218568
-0.0535785
-0.0202969
-0.0885691
-0.0100555
-0.124656
-0.00277885
0.0117214
-0.160967
-0.0328628
-0.0726466
-0.0982808
-0.0972773
-0.0985003
0.330011
1.64535
-1.85308
0.430099
0.420604
-0.520692
0.490661
-1.78221
1.72165
0.507312
-0.973718
0.957068
-0.22432
0.207337
0.367964
1.33357
0.529619
0.25895
0.605066
-1.85766
0.57437
-0.943022
-0.191697
0.280601
0.948362
0.552812
-0.0132608
0.554863
-1.85971
0.569885
-0.958045
-0.164516
0.225923
0.561472
0.613381
-0.400719
0.532055
-1.77838
0.505945
-0.931934
-0.158733
0.231883
0.231089
0.60776
-0.776596
0.538917
-1.70954
0.483079
-0.876096
-0.147738
1.12527
0.187112
-1.08129
1.36817
-1.0195
1.06538
-1.40674
0.815121
-0.625841
-0.0867458
1.47212
0.0877627
-1.37278
1.42815
-0.975526
0.924951
-0.903545
0.636955
-0.337845
-0.107669
1.45744
-0.0298018
-1.33988
1.23827
-0.756357
0.859612
-0.524886
0.698712
-0.176945
-0.116794
1.3809
-0.124505
-1.2862
1.01483
-0.390289
0.683579
-0.193634
0.602044
-0.0954092
-0.0651531
0.769339
-0.893844
0.379049
0.185415
0.0900061
1.08533
0.144215
-1.03509
1.14891
0.23556
1.2511
0.307405
1.24541
0.408058
0.432783
1.00627
0.0764867
-0.938541
1.07176
0.170074
1.17536
0.203798
1.26905
0.314371
0.329058
0.945
0.0376049
-0.906119
1.00807
0.107007
1.09186
0.120006
1.21194
0.194294
0.201119
0.896998
0.0108608
-0.870254
0.965197
0.0388073
1.04008
0.045127
1.16221
0.0721629
0.0771307
0.660616
-0.649755
0.699423
0.74455
0.816713
0.124242
0.294559
-0.245085
-0.173716
0.0817955
0.300618
-0.258171
0.0441545
0.310897
-0.273256
0.0137556
0.300791
-0.270393
0.191787
-0.178031
0.0918868
0.330579
-0.127907
0.0573653
0.335139
0.0274052
0.340857
0.00439176
0.323805
0.196178
0.0530224
0.361111
-0.0835548
0.0245108
0.363651
0.00105209
0.364315
-0.00872038
0.333577
0.187458
-0.0186403
0.378127
0.00162448
-0.0338421
0.378852
-0.0395404
0.370014
-0.0286629
0.3227
0.158795
-0.0967562
0.0894961
-0.0965023
-0.0846865
-0.0479249
0.203459
0.0976555
-0.257214
-0.0439006
0.148848
0.101442
-0.0468309
0.0928143
0.105581
-0.0495467
0.0379818
0.104914
-0.0500813
0.0737352
-0.0357534
0.200976
0.142853
-0.246173
0.153075
0.149343
0.0998375
0.158818
0.0427407
0.162011
0.116476
0.145851
0.188245
-0.191243
0.103312
0.191882
0.0619098
0.20022
0.0229016
0.201019
0.139378
0.153976
0.222059
-0.18779
0.113979
0.231879
0.0695662
0.244633
0.026665
0.24392
0.166043
0.0933751
-0.116401
0.067083
0.0384608
0.0119883
0.405184
0.0524763
-0.0616803
0.42817
-0.000232125
-0.0227542
0.412159
0.193795
-0.177784
0.396829
0.164176
-0.148845
0.421184
-0.281569
0.404057
0.0443985
0.422333
-0.0185078
0.399951
0.216177
0.386067
0.178059
0.561077
0.399185
0.0411931
0.416092
-0.0354152
0.377618
0.254652
0.37106
0.184617
0.740894
0.398333
0.0388395
0.400189
-0.0372707
0.363758
0.291082
0.349517
0.198858
0.902622
0.392383
0.0424357
0.385331
-0.0302182
0.333702
0.342712
0.322007
0.210553
1.10823
0.632796
0.01366
0.638105
-0.0355275
0.677664
0.303153
0.787437
0.10078
0.924302
0.971362
0.649027
-0.0313461
0.619851
-0.00635206
0.70003
0.222974
0.767893
0.0329175
0.727333
0.964862
0.642806
-0.0701318
0.622108
0.0143461
0.711727
0.133354
0.767685
-0.0230407
0.504934
0.990084
0.608906
-0.0750173
0.634022
-0.0107697
0.744637
0.0227392
0.748419
-0.0268233
0.250782
1.00257
0.529003
0.518233
0.540973
0.514149
0.764931
0.99473
-0.197084
0.990207
-0.123384
0.991702
-0.0850491
1.00326
-0.00993227
0.0576688
0.925837
-0.158059
0.913951
-0.111498
0.899117
-0.0702156
0.919088
-0.0299028
0.0382157
0.934829
-0.102803
0.906361
-0.0830304
0.887722
-0.0515772
0.887662
-0.0298425
0.0197592
0.939282
-0.0395135
0.892449
-0.0361972
0.865658
-0.0247867
0.853379
-0.0175633
0.00288451
0.725418
0.68922
0.664434
0.64687
0.049934
0.180936
-0.23087
0.0711618
0.371778
-0.393006
0.0693741
0.421521
-0.419734
0.060207
0.418931
-0.409764
0.384019
0.0479158
-0.371728
0.0788287
0.102107
0.145845
0.304762
0.1744
0.392966
0.178521
0.41481
0.396059
0.166481
0.0717262
0.0303811
0.184891
0.191597
0.263369
0.314488
0.301733
0.376447
0.404753
0.293038
0.0385373
-0.00815622
0.154218
0.0759162
0.276437
0.192269
0.380319
0.272565
0.350875
0.434197
0.0118678
-0.020024
0.0820862
0.00569786
0.195464
0.0788905
0.320231
0.147798
0.249235
0.421871
0.00331731
-0.0233413
0.033111
-0.0240958
0.104429
0.00757228
0.201418
0.0508094
0.146391
0.304261
0.00249956
-0.0258409
0.0130371
-0.0346334
0.0403534
-0.019744
0.0812132
0.0099496
0.0713683
0.156236
-0.000820115
-0.0250208
-9.97184e-05
-0.0353538
0.00230984
-0.0221535
0.00728282
0.00497662
0.0437263
0.0349248
-0.00294465
-0.0220761
-0.00259667
-0.0357018
0.000444978
-0.0251952
0.00295814
0.00246346
0.0414092
0.00527526
0.006547
0.0195708
0.0381741
0.0632393
0.0912778
0.220594
1.14449
-1.06083
0.0717556
0.581464
-0.432625
0.210078
-0.226618
0.088296
0.339092
-0.355157
0.226143
-0.0465745
0.0588237
0.0778225
1.22291
-0.0995897
0.758876
0.233668
-0.559876
0.421359
-0.542849
-0.045332
-0.235027
1.49286
-0.278248
0.802097
0.262185
-1.10031
0.432437
-0.713101
-0.0855171
-0.293955
1.79209
-0.18573
0.693872
0.263342
-1.54938
0.417558
-0.867317
-0.157706
0.0302827
0.203462
0.375728
0.465479
-0.146701
0.617589
-0.470888
-0.190665
0.0439646
-0.0568064
-0.133859
0.114363
-0.171169
-0.0671814
0.705533
-1.14877
0.316873
0.27131
0.326283
0.0916895
-0.0104048
-0.0812847
0.144681
-0.052992
0.222797
-0.0781155
0.352919
-0.130122
-0.117969
0.21238
-0.174869
0.325869
0.540792
0.844867
0.147828
-0.152502
0.183468
-0.178794
0.113497
-0.159223
0.193554
0.0739983
-0.167983
0.207481
0.030607
-0.169138
0.212529
-0.120566
0.151173
0.191413
-0.111595
-0.232319
0.145222
-0.113032
0.092801
-0.115562
0.0386146
-0.114951
-0.0819519
0.191895
-0.060432
-0.243058
0.139738
-0.0608754
0.0868977
-0.0627211
0.0355242
-0.0635778
-0.0464277
0.205524
-0.0079697
-0.257987
0.152359
-0.00771046
0.0973654
-0.00772731
0.0412349
-0.00744728
-0.00519283
0.21029
-0.26216
0.155749
0.0984748
0.0409463
0.0513604
-0.349943
-0.0731449
0.0222931
-0.380697
-0.00322541
-0.394215
-0.0153814
-0.38085
-0.246251
0.134384
-0.315607
-0.168719
0.0901385
-0.336452
0.0453885
-0.349465
0.0103783
-0.34584
-0.235873
0.15741
-0.272267
-0.200751
0.110615
-0.289656
0.0649997
-0.30385
0.0236361
-0.304476
-0.212237
0.174977
-0.233596
-0.213648
0.129207
-0.243886
0.0802509
-0.254894
0.0325012
-0.256726
-0.179736
0.170504
-0.220632
0.120172
0.0727593
0.0285623
0.391845
0.0953298
-0.0911951
0.394498
0.0839086
-0.0865617
0.360968
0.14969
-0.11616
0.311364
0.0282661
0.0213379
-0.252955
0.385525
0.399021
0.0922881
0.409274
0.0736559
0.397886
0.161078
0.35594
0.0702125
-0.129335
0.403786
0.0844819
0.418462
0.0589797
0.411605
0.167935
0.378566
0.103252
0.00617253
0.407134
0.0733273
0.423979
0.0421351
0.420892
0.171022
0.395817
0.128326
0.144004
0.407627
0.427007
0.420245
0.399726
0.417165
0.0928864
0.337402
0.079763
0.254479
0.0829228
0.271067
-0.0165884
-0.20865
0.479717
0.511742
0.504944
0.471706
0.476456
0.653331
0.384976
0.0947414
0.300763
0.0842133
0.201908
0.0988547
0.117667
0.0842409
0.0363823
0.52744
0.398006
0.296109
0.211631
)
;

boundaryField
{
    left
    {
        type            calculated;
        value           nonuniform List<scalar> 
17
(
-0.60402
-0.60402
-0.60402
-0.60402
-0.60402
-0.39598
-0.39598
-0.39598
-0.39598
-0.39598
-0.39598
-0.39598
-0.39598
-0.39598
-0.39598
-0.510051
-0.510051
)
;
    }
    right
    {
        type            calculated;
        value           nonuniform List<scalar> 
17
(
0.181544
0.317926
0.326843
0.420117
0.472622
0.489747
0.51511
0.524294
0.541747
0.542704
0.500162
0.472084
0.754129
0.657877
0.707837
0.550402
0.024853
)
;
    }
    down
    {
        type            calculated;
        value           uniform 0;
    }
    up
    {
        type            calculated;
        value           uniform 0;
    }
    cylinder
    {
        type            calculated;
        value           uniform 0;
    }
    defaultFaces
    {
        type            empty;
    }
}


// ************************************************************************* //
