/*--------------------------------*- C++ -*----------------------------------*\
  =========                 |
  \\      /  F ield         | OpenFOAM: The Open Source CFD Toolbox
   \\    /   O peration     | Website:  https://openfoam.org
    \\  /    A nd           | Version:  13
     \\/     M anipulation  |
\*---------------------------------------------------------------------------*/
FoamFile
{
    format      ascii;
    class       volVectorField;
    location    "4.51";
    object      U;
}
// * * * * * * * * * * * * * * * * * * * * * * * * * * * * * * * * * * * * * //

dimensions      [0 1 -1 0 0 0 0];

internalField   nonuniform List<vector>
440
(
(-0.0624794505071 0.041374926972 9.9960305076e-16)
(-0.101379544036 0.0552137892833 5.05199342574e-16)
(-0.0113820185849 0.0779994118621 3.80394009428e-17)
(0.41066441101 0.0781986250189 -5.75139011707e-19)
(0.305382361134 0.292908554268 2.11299706966e-19)
(-0.0943150502537 0.0590731017333 4.44968105861e-19)
(0.014857516451 0.00996936483816 -2.40463723719e-19)
(0.455754604035 -0.0166643136943 -5.24844828138e-19)
(1.03007521137 -0.0466423789 8.32749375636e-19)
(1.4345090675 -0.0415933966613 4.45116709224e-19)
(-0.0347028339838 0.0236507095127 5.01619850984e-19)
(0.453542017597 -0.0330455300818 1.54648696062e-18)
(1.22215822802 -0.00155864264714 -5.97737959699e-20)
(1.7827185014 0.03774603508 -2.34162027231e-18)
(2.332958063 0.0588678909593 1.70860208052e-20)
(0.181913850987 -0.0310855032994 -7.02938114198e-19)
(1.17014600072 0.00163696670204 -3.44181081842e-19)
(1.91668195563 0.0842973757132 2.70485846885e-18)
(2.36226766209 0.115192554137 8.83096353086e-19)
(2.44140413326 0.124592775722 -1.35954146754e-18)
(0.545424199832 0.00577461109499 -8.53388753157e-19)
(1.69524878056 0.16923954391 -7.85466471661e-19)
(2.2151017082 0.2501310703 6.23506666873e-19)
(2.33079667425 0.255096271607 2.41330085849e-18)
(2.41442305591 0.22744761315 8.04850309082e-19)
(-0.0258120224364 -0.0159495122188 -4.00568458356e-20)
(-0.152360701298 0.0564169603474 -1.48487953873e-19)
(-0.268840578493 0.118086512904 3.44894065815e-19)
(-0.358826228096 0.179294982703 -8.40891399654e-20)
(-0.430489088862 0.238747714027 -8.94924441599e-19)
(-0.0474934334864 0.154826122941 7.91847834948e-20)
(-0.178827703812 0.29515034274 2.00166136314e-19)
(-0.289658973651 0.302368907108 8.52441978911e-20)
(-0.367443019919 0.306274004844 5.42518356424e-20)
(-0.429790288857 0.33678371205 -6.01274860362e-20)
(-0.0662825124718 0.204333485394 -7.32761190219e-19)
(-0.162819126623 0.472744780944 -4.63429418986e-19)
(-0.215788215612 0.542272518008 -3.28171450502e-19)
(-0.231417053117 0.516634409854 8.0636259116e-19)
(-0.251750001138 0.479259561797 -1.92342235214e-20)
(-0.0334782977538 0.092174703816 -2.4753008466e-19)
(-0.106786428785 0.342963640743 3.10565855847e-19)
(-0.122277313991 0.511122302254 -5.71337939802e-19)
(-0.126208346711 0.606638468438 -6.44624532156e-19)
(-0.123790898067 0.634715459069 5.05212304583e-20)
(-0.0176116299432 0.0220041231019 2.32380752578e-19)
(-0.105701930078 0.132922871459 9.9290580358e-20)
(-0.148403271744 0.30362266933 -1.80581462353e-19)
(-0.117792059861 0.407075486599 3.2929967485e-19)
(-0.0502344962118 0.588411017479 7.89439637306e-19)
(-0.671461504544 0.517830641831 1.88142125317e-19)
(-0.150084292218 0.26370931596 7.29243565829e-19)
(0.541710218558 -0.378668146125 2.70696782315e-19)
(0.772948965139 -0.528370183926 -1.33779172636e-19)
(0.954003904954 -0.333055269843 1.15221823059e-19)
(-0.691037681069 0.482926804008 1.33331235938e-18)
(0.334963625555 0.0575180504873 -4.21754051376e-19)
(0.919379292222 -0.477972599246 4.76872295068e-19)
(1.20174423253 -0.573250338045 8.00755141097e-19)
(1.15678412156 -0.342772663334 -1.6041867931e-19)
(-0.376538307663 0.337509699207 6.16986367265e-19)
(0.783981419929 -0.154584115492 2.92496194828e-18)
(1.13780885466 -0.602363172845 -3.69488027902e-19)
(1.45253483705 -0.611041928164 5.59248173129e-19)
(1.337024694 -0.336672200684 1.66709484788e-19)
(-0.0707786307298 0.318502870421 -6.6657354612e-19)
(1.38329404769 -0.271688109008 -7.40123671001e-19)
(1.47720266485 -0.666446097168 2.75698460981e-21)
(1.57151923279 -0.637728412158 -5.22274407964e-19)
(1.42496164804 -0.331511217268 2.48003162129e-19)
(0.203836050245 0.127167145395 -1.88418120849e-19)
(1.85288044851 -0.420180890901 -2.07594452266e-18)
(1.93601751438 -0.659488363678 0)
(1.74777126934 -0.609160939187 1.24270492279e-19)
(1.46407179652 -0.313665011817 -3.28156935827e-20)
(1.46303660049 0.0263177190175 -1.5692497944e-19)
(2.32908262268 -0.494411507721 6.1388959554e-19)
(2.34953488779 -0.602720663847 -9.98230347791e-20)
(1.96400256388 -0.506071060786 4.18033904127e-19)
(1.48645584384 -0.265381101802 8.98563396219e-20)
(2.26232148872 0.0105445163069 2.41448564707e-19)
(2.54509032832 -0.582454319272 7.34042068676e-19)
(2.32605218666 -0.596339071953 -9.44051279738e-20)
(1.86564045703 -0.32684471006 -2.19835646436e-19)
(1.32608726515 -0.138053671076 0)
(2.43166902676 -0.0728162039313 8.82437255478e-20)
(2.3460396329 -0.44795956674 7.78373654932e-20)
(1.8909581897 -0.38614046815 -9.60657541914e-20)
(1.70168042186 -0.163541135314 9.19223101324e-20)
(1.30956196527 -0.0679688646949 -6.61424967325e-20)
(2.30798387153 -0.0694977106268 -6.22024819069e-19)
(2.15263153211 -0.347444540788 8.16065735291e-19)
(1.49757289928 -0.342794278634 -2.47321166383e-19)
(1.1268621729 -0.0889727858027 -3.92410457203e-33)
(0.903951732266 0.00601145796903 4.17423426206e-19)
(1.56821990681 -0.0731620237593 4.71710571875e-20)
(1.05386790605 -0.0738384301978 6.27139668008e-20)
(0.380436832877 0.011862336596 -2.53155970782e-19)
(0.195246837479 0.0344708212487 -2.19488071983e-20)
(0.247086901351 0.010915933013 1.26276442089e-20)
(2.35432852473 0.256391125564 -1.97384010764e-18)
(2.55658351498 0.0378528181619 -7.64687717916e-20)
(2.41468881864 0.136439601624 9.93045609947e-20)
(2.63075883568 -0.0446440935274 -2.64119353127e-19)
(1.97688080969 0.146108781079 4.68815338995e-20)
(2.10572499889 0.153206116472 -7.56574838825e-19)
(2.41109239622 0.0162097012164 1.88931212453e-20)
(2.24487430924 0.0263199351737 2.74896544293e-19)
(2.47700376393 -0.0533377032098 -4.73992423969e-19)
(2.33187980157 -0.128228102321 6.31850288084e-20)
(2.13832752759 0.0477979475386 -3.92972063681e-19)
(2.28958628229 0.0166438204898 4.32408818685e-19)
(2.23988516011 -0.0409783439933 -8.34684694469e-19)
(2.33146909141 -0.0389863919971 9.11786534911e-20)
(2.3153135095 -0.126675947755 7.62719356212e-19)
(2.09016578909 -0.0141803854128 -3.08813243738e-19)
(2.15133302292 -0.0108031881036 -1.13028555345e-18)
(2.16181415606 -0.0573257237276 8.8727191948e-20)
(2.20304439708 -0.0399372757626 1.25059443045e-18)
(2.23974853867 -0.0961211520487 -2.88547060408e-19)
(1.51917446748 -0.0127520920338 -7.57252887846e-19)
(1.51760503111 -0.0167405032993 1.78001637546e-20)
(1.51379764122 -0.0177975528208 1.83828567292e-21)
(1.52112942234 -0.0233574060237 4.50503874775e-19)
(1.52357326179 -0.0232683005342 7.89309124988e-19)
(1.51034230141 0.847753065409 5.85438590993e-19)
(1.46864692335 0.930431530412 -4.63649938418e-19)
(1.46578854607 1.04611067478 -8.20318542508e-19)
(1.39040356175 1.07279201522 4.56290553918e-19)
(0.829485559047 0.74347710618 4.81858803737e-20)
(1.75909419081 0.800759456079 -1.26406321856e-19)
(1.73405930161 0.867476350003 -2.25816460957e-18)
(1.74424639753 0.962139306994 -1.04358623988e-18)
(1.64604639754 0.952192753512 2.28171040805e-20)
(0.975536102687 0.642074489345 -3.44059803624e-19)
(2.0838339478 0.656286666699 9.40484946023e-19)
(2.04183702798 0.712804989462 -8.02293515122e-20)
(2.0021078987 0.793073622415 -2.59525937514e-18)
(1.86541005694 0.769618880686 -7.26238890324e-19)
(1.070282018 0.498384598028 -5.87206668218e-20)
(2.22089809077 0.532013113266 2.20771847829e-18)
(2.2047172098 0.578622092044 1.6383190104e-18)
(2.19293161213 0.62611893854 -1.07409391338e-18)
(1.96846440552 0.573091549114 -1.86754931269e-18)
(1.05283166409 0.332305249807 3.33988074761e-20)
(2.40216788662 0.373877525523 1.42586235263e-18)
(2.37880396027 0.391900804728 1.55924987124e-20)
(2.25746972993 0.421861665928 8.2490890904e-19)
(1.93672849289 0.361556470641 -3.6232989197e-20)
(0.897042821423 0.152859006753 -9.98557516158e-20)
(0.582375913294 0.489226535516 -2.37940169067e-18)
(0.489644082953 0.525322439634 -1.8109066893e-18)
(0.370166597633 0.559284320124 2.28400508326e-19)
(0.230020437154 0.553922067088 -1.09545498791e-19)
(0.0564347413849 0.387685508299 2.05796320443e-20)
(0.67460806875 0.652943566886 -7.52715127481e-19)
(0.607723265729 0.70517833374 -6.9182821511e-19)
(0.518369612692 0.767882575528 3.61533743885e-20)
(0.396180801533 0.823336117309 -2.33606672293e-20)
(0.173470659309 0.620092729688 4.79534860276e-20)
(0.758989710573 0.864080345651 6.30198532073e-19)
(0.681151640933 0.943805986176 -2.87926518469e-19)
(0.623412564273 1.03166344253 8.62180825637e-21)
(0.543141766626 1.05148890119 -1.20210666039e-19)
(0.296627505111 0.75411111689 1.75291398805e-19)
(1.05742103892 0.932335751068 -2.94172500246e-19)
(1.00100563929 0.999385066553 9.80464900472e-21)
(0.939511294722 1.08069629261 -7.402472441e-19)
(0.850887033055 1.13053197455 4.41522953205e-19)
(0.492358292664 0.819375080962 9.53083361544e-20)
(1.0710178917 0.993480703793 2.16447433293e-19)
(1.1206721826 1.10348341261 2.02065113595e-19)
(1.14631463254 1.19444791136 -3.47408858832e-19)
(1.08563044621 1.18527346904 -4.42824017792e-19)
(0.652940435501 0.81860292458 -5.40403354208e-21)
(0.991777477559 0.0355012194866 4.53254903641e-21)
(1.04215343504 0.0251794424312 -1.46001089631e-19)
(1.03276314555 0.127337356307 -9.05488853072e-20)
(0.969135187033 0.115055812977 5.23993742575e-19)
(0.916096618566 0.303436460465 8.48423914022e-19)
(0.984196256465 0.030522541958 -1.03025202603e-19)
(1.0612281462 0.0245714513295 -4.86135371253e-19)
(1.00763167456 0.134476821744 -9.00544472802e-20)
(1.01242013722 0.135338381167 -6.61127594875e-19)
(0.94732298738 0.401399062476 6.99850298664e-19)
(0.9934497037 0.0281000069493 -9.38270720489e-20)
(1.04173266602 0.0167830366988 3.89152230754e-20)
(1.0508494148 0.157166473752 3.47578803672e-19)
(0.966855874358 0.130348158247 9.4074609108e-20)
(1.17072867539 0.543483222008 1.26246201416e-19)
(0.992245049817 0.0255539373116 3.02987609159e-20)
(1.05323062818 0.0105865108133 7.0998904086e-19)
(1.03548167894 0.171056722304 2.59144741129e-19)
(1.08193139222 0.11103629797 1.03403380114e-18)
(1.15435000135 0.634251945748 -3.63298564309e-19)
(0.996313322019 0.0202179613723 8.277721739e-20)
(1.04143934212 0.0121631504262 2.40337685031e-20)
(1.08085473966 0.164618509672 -1.96162003047e-19)
(1.04538355965 0.165420709626 -4.21432107334e-19)
(1.32958472302 0.762174764665 2.29134774768e-19)
(0.982487944035 0.0208298396764 -4.20834221778e-20)
(1.07249138441 -0.00696401555818 -3.59757367633e-19)
(1.05653026424 0.194696067055 1.91708492544e-19)
(1.30007986077 0.0555452991951 -8.41377692127e-19)
(1.29945039059 0.823394663784 8.36721299065e-19)
(0.970188781378 -0.000537180589843 2.8027300025e-20)
(1.10964051207 -0.00415224421062 -5.17596732325e-21)
(1.02997947447 0.100534095198 -7.35225837698e-20)
(1.41307941635 0.0632965407138 1.11442860225e-20)
(1.09194849567 0.653646591658 -2.45887665266e-19)
(0.988227853026 -0.00819695928019 6.14507547994e-20)
(1.09935162617 -0.0092598712396 2.02052512091e-35)
(1.09154995375 0.0546692707973 -8.50408383059e-21)
(1.28526954879 0.0705371237323 -1.91705299406e-20)
(1.15448303983 0.498205602831 -4.23828650418e-19)
(1.02799876317 -0.0428416684678 -5.07180882224e-20)
(1.02208894271 -0.0263541507804 -1.53835405034e-21)
(1.15819577787 0.00312632062906 -2.17508647703e-19)
(1.05136370898 0.0657583641001 -2.29849543715e-19)
(1.49131875928 0.31591989541 7.57163482304e-19)
(0.946638526874 -0.0221733007987 4.31243653176e-20)
(0.839110333469 -0.0244815800347 2.7557781786e-21)
(0.880960103343 -0.00271453054138 -2.2543085637e-19)
(0.725534252818 0.0107226096591 -9.68691605895e-21)
(1.25296759805 0.0750695174406 1.91874966198e-19)
(1.77977843676 0.657101550485 -3.64469039117e-19)
(1.84630308945 0.675285301529 1.99623932102e-19)
(2.13557475321 0.520676785577 -2.47427858042e-19)
(2.16757086478 0.478957676608 1.37589456739e-18)
(2.41079350402 0.26257690138 -9.24414075053e-19)
(1.68950649866 0.406994621001 -1.80450162826e-19)
(1.6724948219 0.431187696556 -1.66561286206e-18)
(1.99047165808 0.310353373263 -5.61928160305e-19)
(1.91517519765 0.294048172164 1.67873753164e-18)
(2.25693262401 0.141923625272 1.2700502049e-19)
(1.67509836035 0.273490203263 6.03149233212e-19)
(1.78475374588 0.260053163577 3.58662092411e-19)
(1.97364380309 0.188298900759 8.52169897986e-19)
(1.99257343748 0.152165916408 6.22445133427e-19)
(2.17549229962 0.0909787772072 -5.79261771142e-19)
(1.79696223612 0.145054011921 -5.80162872275e-19)
(1.91133299986 0.116376735407 6.08840652632e-20)
(1.98378569234 0.0688698928895 -5.7187430661e-19)
(2.01643648204 0.0402520114843 -7.7059813585e-19)
(2.08186095504 0.0208112226376 6.90626928673e-19)
(1.44941421917 0.026326805418 6.39360459482e-20)
(1.53120687256 0.0147831263223 -5.38726778212e-19)
(1.52801373872 0.00234663234373 -4.0005762046e-19)
(1.53384359912 -0.00125668323905 7.47222731948e-19)
(1.51892366175 -0.00784886411011 7.56517496929e-21)
(1.20722080389 -0.0333225163116 -2.20518502377e-19)
(2.25307302018 -0.028224769088 -2.55385957707e-19)
(2.48507177656 -0.039806273934 1.3742170697e-18)
(2.46864779531 0.000164377190102 8.72669367133e-19)
(2.33731299378 0.0246698211951 -2.36088515543e-19)
(0.792112613127 0.0906132646719 -3.63266126465e-19)
(2.02381491553 0.127351106307 -8.80814605585e-19)
(2.45638451331 0.115386252529 -4.77618621584e-19)
(2.49613675879 0.122438876968 6.61448621477e-19)
(2.25183533918 0.10882233796 -5.312294079e-20)
(0.289931000323 0.0903063715301 -4.81590335594e-19)
(1.42890229439 0.205883434369 6.31802749268e-19)
(2.13940091819 0.217311016584 2.87735931952e-19)
(2.48951216029 0.213601288272 7.73764442839e-19)
(2.60144991096 0.194298751934 1.25550349163e-18)
(0.0132182681926 -0.00796339619258 7.61345837024e-19)
(0.592387254534 0.134346307425 6.80561844978e-19)
(1.40880439498 0.19885225665 -1.30162677844e-18)
(1.88699400904 0.218932061091 8.71355758586e-20)
(2.41997214855 0.261785922366 -3.85145273412e-20)
(-0.0722147723819 -0.0853439628253 9.11793571063e-19)
(0.0416106894352 -0.0335214758514 -6.02973043275e-19)
(0.554885011467 0.0580354639165 3.92843803358e-19)
(1.08225848582 0.141143196167 7.06779032604e-19)
(1.51392049981 0.214669702819 9.96571479083e-20)
(-0.0739945374583 -0.102487117906 3.87268001534e-19)
(-0.115747531101 -0.142441249814 3.55026900175e-19)
(0.0503449604062 -0.0872064199437 6.03782681964e-19)
(0.373564379031 0.0384875660846 -5.58624679159e-19)
(0.754692746444 0.139523628661 1.63608929208e-19)
(-0.0529875585632 -0.0976594195678 -3.02952062757e-19)
(-0.0994995574626 -0.188303832416 -2.54742024369e-19)
(-0.0671788626907 -0.179776570001 -1.43853898561e-21)
(0.0699996892384 -0.100341359873 -4.17782402414e-19)
(0.268430668478 0.0136059763611 -1.99548338737e-19)
(-0.0502180079622 -0.171618193902 -2.32129513418e-19)
(-0.0684370290798 -0.316298158357 3.77854077657e-19)
(-0.0477969261833 -0.336853328695 -7.24487951728e-19)
(0.0065410474701 -0.278322285062 -1.4344822641e-18)
(0.0834191970504 -0.186938091947 6.84596121592e-19)
(-0.047975172199 -0.236817199322 -3.39713705505e-20)
(-0.084391044195 -0.344791470352 -4.30657250086e-20)
(-0.109596612507 -0.313414256369 1.21221142202e-19)
(-0.122813611913 -0.229925224492 1.01316293733e-18)
(-0.117175402069 -0.127706629697 -1.12980924098e-19)
(-0.0273872679961 -0.171317352096 1.33311272699e-20)
(-0.113009433617 -0.182571118492 -3.66076107546e-20)
(-0.206591691034 -0.124165284782 2.36105675097e-20)
(-0.28741652965 -0.0457895417377 -7.0098043529e-20)
(-0.339983200753 0.0446216497385 -5.77693934539e-19)
(1.43805751762 0.501670701165 3.69212197159e-19)
(1.01501050127 0.256070299204 2.36640993566e-18)
(0.694818768984 -0.00786873388783 -5.17373555698e-19)
(0.664734310255 -0.0870307854196 -7.33132359786e-19)
(0.911046150396 -0.0417759084829 -4.05212702189e-20)
(1.29242762824 0.420300711391 5.35553367861e-19)
(0.65302823404 0.312544049122 -6.74378361306e-19)
(0.270000345764 0.0376251503873 -1.30190522154e-18)
(0.320744422448 -0.124553971764 -1.4443342252e-19)
(0.764420375099 -0.0849017075679 9.88542476107e-20)
(0.794873408969 0.300287555021 7.78925042242e-19)
(-0.0943959960305 0.435063165354 -1.39633750837e-18)
(0.0112657168529 0.0329673177571 3.57946937407e-19)
(0.191967720154 -0.229657782436 1.54040776539e-19)
(0.726849653714 -0.15364830366 -2.01243783859e-19)
(0.0937211706606 0.406130327674 -1.94284636547e-19)
(-0.678059000808 0.482828769279 -9.82219403675e-19)
(0.0293897595138 -0.0971189208656 -4.76212497492e-20)
(0.227972316869 -0.332400575674 6.46463812465e-20)
(0.751946044964 -0.224424310122 -1.7703146005e-20)
(-0.431205709584 0.498517395135 -1.48698847717e-19)
(-0.642804564041 0.413421764867 5.3431147741e-19)
(0.1859564602 -0.263633966116 1.53680016952e-19)
(0.404262051001 -0.443133408995 -2.85674573786e-19)
(0.818554867439 -0.290798843856 -8.17638427062e-20)
(0.530987252684 0.138714979064 -5.21518314668e-19)
(-0.103639188991 -0.0544907702808 0)
(0.0350771664525 -0.0854417050365 -2.47053247316e-19)
(0.210849648628 -0.0466214164711 2.85812232775e-20)
(0.400027174489 -0.0203634101155 2.08102946229e-19)
(1.95306434193 0.431548980883 0)
(1.25078469922 0.23536487174 0)
(0.932111756014 -0.00270521258304 7.99566322322e-19)
(0.946812017407 -0.0681764642997 4.78339762074e-20)
(1.036037587 -0.0321455339948 -5.16196662171e-20)
(0.732980861787 0.000400318565135 2.33438997316e-19)
(0.804053624075 -0.0028295501325 -1.89384692481e-18)
(0.936702924021 -0.0211789238735 1.90229822009e-19)
(1.06383407533 0.0394196198104 1.67830407012e-18)
(1.31144194241 0.073048704077 6.12310360125e-19)
(1.71889233988 0.0176521663088 -2.45450731116e-19)
(1.84875477688 0.0861611090324 -1.47135046481e-18)
(1.92607341028 0.0699199678209 8.54213061893e-19)
(2.47270331109 0.175548851308 4.17155374526e-20)
(2.15998030273 0.212232880585 -6.81498090782e-21)
(0.90696675394 -0.471945402294 -1.62584136625e-19)
(0.895740046173 -0.561513282936 1.80730994501e-19)
(0.889832032587 -0.661304372337 -4.4235649182e-20)
(0.825563691588 -0.737280058965 1.06208746557e-19)
(0.499039244018 -0.584693802181 -2.41318030861e-20)
(0.814325838995 -0.380601401534 4.41462318346e-19)
(0.760990731227 -0.446646621372 1.34738143281e-18)
(0.68679491004 -0.515888964734 3.35969482701e-19)
(0.572571017269 -0.57597990949 -4.34281905255e-20)
(0.308284673526 -0.461423009681 -1.85111674688e-20)
(0.649878761875 -0.239230012833 -8.13527141505e-19)
(0.563178874827 -0.280171519729 1.11848217611e-20)
(0.46267471847 -0.332047540668 1.04227576643e-18)
(0.345178273078 -0.375908412453 1.64918924136e-19)
(0.151474019833 -0.298697160927 1.30626905651e-20)
(0.558873626718 -0.00211970688976 -1.42926288075e-18)
(0.472226043077 -0.0174719866155 -1.09933652285e-18)
(0.359731621011 -0.0397015369394 7.37962331336e-19)
(0.229653844796 -0.0691265764778 5.74127930601e-19)
(0.06203269769 -0.0757259084436 4.20215050755e-20)
(0.527177913036 0.205343972635 -4.06306318907e-19)
(0.436979010532 0.206038085491 -4.15926265374e-19)
(0.316523475854 0.206914563933 -8.38269355653e-20)
(0.178951523318 0.213167532208 1.37260449292e-19)
(0.0249156032419 0.157640248727 4.12432889631e-20)
(2.02428262414 -0.0383069531255 3.16822892894e-19)
(2.31201558368 -0.0976921617072 5.56827488551e-19)
(2.39464567801 -0.189259994617 -1.05127833138e-18)
(2.25884057927 -0.20542535308 -1.73683855212e-18)
(1.36212230437 -0.201870060718 -1.4836450941e-19)
(2.04511495402 -0.118064711862 6.36750501117e-19)
(2.11841740014 -0.230478976762 5.53475707387e-19)
(2.12940296835 -0.354271453676 -3.01843952438e-20)
(2.05371620365 -0.406254350786 -1.75732516158e-19)
(1.31428873812 -0.375594228896 1.03676591415e-19)
(1.73520404291 -0.283866407602 -2.10488400005e-18)
(1.80632100922 -0.40422077836 8.90907295879e-19)
(1.85238895254 -0.533749057124 5.48099698818e-19)
(1.79597207457 -0.60437615929 -5.65116331747e-19)
(1.15547903312 -0.520499519805 6.40606294101e-19)
(1.51327009579 -0.407448981678 4.50094659614e-19)
(1.51791867422 -0.502344863288 -7.3846185572e-19)
(1.5027588113 -0.621083303499 -1.94494296978e-18)
(1.4494306936 -0.710551015273 8.2065307817e-19)
(0.933541077213 -0.594926395269 8.72335781536e-20)
(1.21886333908 -0.462308427512 8.47846477905e-20)
(1.17917932015 -0.558844190898 -1.80764679821e-19)
(1.17514825725 -0.684888723398 -1.06200607615e-19)
(1.12728742558 -0.772975652281 -2.23254127801e-19)
(0.708230547567 -0.619412199393 -3.74467472811e-21)
(1.01549455594 0.0393571663313 4.64559173639e-20)
(1.01622770356 0.0624659399697 -1.13005470801e-19)
(1.10280321771 0.0860036608964 -7.2186825533e-19)
(0.832544785072 -0.00934130522149 4.69644963885e-19)
(1.09486498312 -0.197928382724 1.55164401784e-19)
(1.0280492489 0.0418400756359 3.37483607307e-21)
(0.988385373402 0.0540837207176 6.40515694107e-19)
(1.12021048167 0.106930785783 -1.13049877578e-18)
(0.9111835794 0.0321582990427 -1.12016262017e-18)
(0.988960666829 -0.0850275437638 -4.43885669475e-19)
(1.0333457293 0.0394035246001 -1.12861180574e-19)
(0.975285643686 0.0446182300882 5.99972599352e-20)
(1.10818440378 0.106962399296 -5.97422628725e-20)
(0.9230080053 0.0602824368796 -1.00030241628e-18)
(0.952597117499 -0.0240252028426 3.09557044696e-19)
(1.02285161144 0.0399843519226 -1.95394003779e-20)
(0.993214803589 0.0355935538607 -9.31214468541e-20)
(1.07364323617 0.110520366716 2.01475029419e-19)
(0.955367194691 0.0841200448691 -7.0963893492e-20)
(0.872939098903 0.0890599882073 6.34415383681e-19)
(1.00367722047 0.0373231495676 1.52170537182e-20)
(1.0264123074 0.0332347045766 1.65832773414e-19)
(1.03524027569 0.111114607841 5.08034924334e-20)
(0.980692500194 0.111861665186 2.00758176472e-19)
(0.858762762242 0.192802341846 2.78118510998e-19)
(0.889886891992 0.0330267008103 0)
(0.774827100584 0.0302864982984 7.9190437289e-21)
(0.558396134162 0.0190770625822 -2.00556319498e-19)
(0.409577574922 -0.0126641520705 1.47081545845e-20)
(0.697806697937 -0.0456414956136 6.74907044383e-19)
(0.993382711151 0.0618301478551 -1.30318756053e-19)
(1.04212292265 0.0816972217771 -4.86085660004e-19)
(0.972547008144 0.0785633812455 6.66437741141e-19)
(0.840370110113 -0.0174773455136 9.7445390119e-19)
(1.01926365834 -0.185871527565 6.8360684009e-19)
(0.959590858338 -0.0590886175346 1.08840678835e-19)
(1.04629475598 -0.0265101195153 -5.89837520036e-19)
(1.13079754822 0.0390484619786 -7.86661149911e-20)
(0.997219336746 0.0553329162372 -1.72261906873e-19)
(0.748507112161 0.0314922218212 0)
(1.30248811809 -0.311614595132 -8.45543845653e-19)
(1.42744429508 -0.278553897504 -6.80153217131e-19)
(1.60739874069 -0.154294687049 -5.00363073178e-19)
(1.71280371085 -0.0193732217279 -2.7942203065e-19)
(1.58287796729 0.0314954476118 -6.31436682922e-20)
)
;

boundaryField
{
    left
    {
        type            fixedValue;
        value           uniform (1 0 0);
    }
    right
    {
        type            zeroGradient;
    }
    down
    {
        type            noSlip;
    }
    up
    {
        type            noSlip;
    }
    cylinder
    {
        type            noSlip;
    }
    defaultFaces
    {
        type            empty;
    }
}


// ************************************************************************* //
