/*--------------------------------*- C++ -*----------------------------------*\
  =========                 |
  \\      /  F ield         | OpenFOAM: The Open Source CFD Toolbox
   \\    /   O peration     | Website:  https://openfoam.org
    \\  /    A nd           | Version:  13
     \\/     M anipulation  |
\*---------------------------------------------------------------------------*/
FoamFile
{
    format      ascii;
    class       surfaceScalarField;
    location    "34.4";
    object      phi;
}
// * * * * * * * * * * * * * * * * * * * * * * * * * * * * * * * * * * * * * //

dimensions      [0 3 -1 0 0 0 0];

internalField   nonuniform List<scalar> 
823
(
-0.00469009
0.0168687
-0.0121786
0.00468573
0.0102182
-0.0195941
0.0515759
-0.0344807
-0.0124095
0.136401
-0.0918847
0.0070594
-0.120866
-0.00748303
0.26475
0.00673641
0.0101323
0.0534969
-0.0365422
0.141676
-0.12266
0.251888
-0.202097
-0.271598
0.402621
0.0227211
-0.0125888
0.106798
-0.120619
0.216904
-0.232765
0.323761
-0.308954
-0.353614
0.405776
0.0429345
-0.0555233
0.137696
-0.215381
0.22175
-0.316819
0.274316
-0.36152
-0.376298
0.297
0.0557532
-0.111277
0.126505
-0.286133
0.167779
-0.358093
0.184486
-0.378228
0.192658
-0.38447
0.0149922
-0.0417062
0.026714
0.0361462
-0.0716724
0.0505185
0.0598835
-0.0743628
0.0506255
0.0899573
-0.0642102
0.0341364
-0.0396105
0.126691
0.00287733
0.0207898
-0.062496
0.0424095
-0.0932921
0.0625143
-0.0944676
0.084638
-0.086334
-0.0639851
0.109013
0.0014137
-0.0639097
-0.00562715
-0.0862513
-0.0161674
-0.0839274
-0.0266402
-0.0758612
-0.0538181
-0.0368072
-0.0331457
-0.030764
-0.0846603
-0.0347367
-0.139966
-0.028622
-0.194008
-0.0218187
0.000249887
-0.248076
-0.0429427
-0.0972734
-0.138305
-0.153064
-0.160297
0.276397
1.70565
-1.85536
0.424929
0.494927
-0.643459
0.522467
-1.84658
1.74904
0.532609
-1.12305
1.11291
-0.303656
0.30596
0.416998
1.39767
0.479792
0.432132
0.558556
-1.92534
0.581388
-1.14588
-0.275226
0.358362
1.0025
0.562049
0.228446
0.531278
-1.89457
0.536336
-1.15094
-0.269269
0.223542
0.530879
0.663206
-0.211217
0.571642
-1.80301
0.497855
-1.07715
-0.25663
0.204128
0.166454
0.624584
-0.631673
0.537386
-1.71581
0.465604
-1.00537
-0.234896
1.09
0.15812
-1.08166
1.38534
-0.927019
1.06685
-1.39732
0.765084
-0.703604
-0.14778
1.43925
0.0849485
-1.36608
1.44052
-0.928288
0.938049
-0.894851
0.597791
-0.363345
-0.146231
1.44151
-0.021962
-1.3346
1.25211
-0.73888
0.884332
-0.527077
0.695642
-0.174654
-0.129771
1.37613
-0.120232
-1.27786
1.02406
-0.386805
0.677374
-0.180395
0.588958
-0.0862379
-0.0730916
0.764112
-0.884345
0.377308
0.196913
0.110675
1.08108
0.140859
-1.02928
1.14516
0.232912
1.24736
0.303577
1.24633
0.403657
0.429415
0.999666
0.0731677
-0.931975
1.06483
0.167752
1.16878
0.199627
1.2614
0.311034
0.324737
0.94377
0.0350287
-0.905631
1.0056
0.105917
1.08862
0.116613
1.20723
0.192428
0.197359
0.894864
0.00984439
-0.869679
0.962334
0.0384463
1.03517
0.0437742
1.15616
0.0714377
0.07566
0.655026
-0.645182
0.693473
0.737247
0.808685
0.123719
0.293908
-0.244745
-0.172882
0.0814206
0.300062
-0.257764
0.0439154
0.310354
-0.272849
0.0136337
0.300427
-0.270145
0.191768
-0.178134
0.0921495
0.329868
-0.128109
0.0576236
0.334588
0.0275509
0.340427
0.00444845
0.323529
0.196216
0.0528716
0.359938
-0.0829418
0.0245501
0.362909
0.00115529
0.363822
-0.00870164
0.333386
0.187515
-0.0181983
0.377039
0.00109777
-0.0334706
0.378182
-0.0393475
0.369698
-0.0285841
0.322623
0.158931
-0.0957037
0.0882726
-0.0957496
-0.0841439
-0.047654
0.203968
0.0965326
-0.257623
-0.0428775
0.149364
0.100356
-0.0457516
0.0932253
0.104579
-0.0484398
0.0381623
0.104035
-0.0489719
0.0732125
-0.0350502
0.199828
0.1417
-0.244996
0.152109
0.148075
0.0991608
0.157527
0.0424187
0.160777
0.115631
0.147557
0.187281
-0.193138
0.104625
0.191006
0.062869
0.199283
0.0234223
0.200224
0.139054
0.154505
0.221288
-0.188512
0.114426
0.231085
0.069867
0.243843
0.0267983
0.243292
0.165852
0.0948201
-0.118276
0.0681415
0.0391352
0.0122823
0.405102
0.0535158
-0.0626384
0.428148
-0.00285362
-0.0201925
0.413029
0.189257
-0.174137
0.396395
0.163825
-0.147191
0.413465
-0.274693
0.403938
0.0455572
0.42255
-0.0214657
0.400839
0.210968
0.384974
0.179689
0.553443
0.399258
0.0422792
0.416573
-0.0387811
0.378289
0.249252
0.369786
0.188192
0.730091
0.398638
0.0396203
0.400927
-0.0410701
0.364267
0.285913
0.347484
0.204975
0.889063
0.392873
0.0427267
0.386495
-0.0346919
0.333569
0.338838
0.319572
0.218972
1.09036
0.634017
0.0127306
0.638684
-0.0393594
0.675397
0.302125
0.783487
0.110882
0.902471
0.971375
0.650146
-0.0333949
0.621005
-0.0102183
0.698057
0.225073
0.769306
0.0396336
0.713788
0.95799
0.643806
-0.0731801
0.621791
0.0117962
0.707336
0.139528
0.766095
-0.0191257
0.496897
0.982986
0.607952
-0.0771113
0.630128
-0.0103799
0.742484
0.0271724
0.750716
-0.027358
0.244957
1.00266
0.526909
0.516529
0.543702
0.516344
0.7613
0.991446
-0.192954
0.986516
-0.123179
0.985785
-0.0822109
0.99819
-0.011307
0.0571864
0.917919
-0.152883
0.906429
-0.111689
0.891851
-0.0676328
0.912729
-0.0321854
0.0379408
0.931861
-0.101759
0.903919
-0.0837463
0.887496
-0.0512103
0.887015
-0.0317046
0.019325
0.94057
-0.0396722
0.893153
-0.0363302
0.866764
-0.0248204
0.85311
-0.0180509
0.00275536
0.721628
0.685298
0.660478
0.642427
0.0500882
0.183487
-0.233575
0.0710224
0.375795
-0.396729
0.0689585
0.425338
-0.423274
0.059764
0.422478
-0.413283
0.387223
0.0475421
-0.375001
0.0797456
0.103741
0.146361
0.309179
0.174522
0.397177
0.178753
0.418247
0.398813
0.167164
0.0730608
0.0306803
0.186381
0.195859
0.263368
0.32019
0.2995
0.382115
0.408739
0.289574
0.0395007
-0.00882041
0.157147
0.0782125
0.279821
0.197516
0.382117
0.279819
0.358205
0.432651
0.0121732
-0.0209936
0.0846921
0.00569366
0.200721
0.0814869
0.327656
0.152884
0.260152
0.42571
0.00368858
-0.0246822
0.0361092
-0.0267269
0.111812
0.00578387
0.214614
0.0500828
0.153157
0.321609
0.00483951
-0.0295217
0.0192541
-0.0411416
0.0517366
-0.0266986
0.0972379
0.00458154
0.0713078
0.179087
-0.00190399
-0.0276177
-0.00250439
-0.0405411
0.000105285
-0.0293083
0.00728862
-0.0026018
0.0398785
0.0387179
-0.00419973
-0.023418
-0.00475762
-0.0399833
0.000199646
-0.0342655
0.00873292
-0.0111351
0.0253217
0.0232898
0.00329605
0.0138312
0.0301912
0.0531925
0.0813915
0.261162
1.1169
-1.05645
0.0496255
0.728292
-0.516756
0.171318
-0.259861
0.138169
0.382245
-0.615995
0.405067
-0.0620613
0.054826
0.104408
1.19158
-0.102074
0.934775
0.194312
-0.556248
0.40997
-0.831652
-0.0970221
-0.234494
1.46479
-0.24795
0.948231
0.255138
-1.05934
0.383183
-0.959697
-0.177702
-0.269621
1.7577
-0.177996
0.856606
0.283998
-1.52133
0.391491
-1.06719
-0.264054
-0.0162666
0.196881
0.42459
0.470306
-0.160075
0.620185
-0.46011
-0.230174
0.0700988
-0.0602396
-0.169934
0.171105
-0.231345
-0.0571838
0.724456
-1.16072
0.2778
0.246035
0.419757
0.0920756
-0.0101817
-0.0818939
0.144942
-0.0528668
0.220063
-0.0751208
0.348781
-0.128718
-0.111329
0.21366
-0.1763
0.327957
0.54241
0.846343
0.148415
-0.153705
0.184899
-0.179609
0.113916
-0.160474
0.194972
0.0743324
-0.169317
0.208901
0.0308
-0.170469
0.214002
-0.121496
0.152296
0.192239
-0.112738
-0.233207
0.145907
-0.114141
0.0932206
-0.11663
0.0387868
-0.116035
-0.0827096
0.19154
-0.0613187
-0.242959
0.139223
-0.0618251
0.0864449
-0.0638516
0.0353139
-0.0649042
-0.0473957
0.205582
-0.00894801
-0.257953
0.152499
-0.0087419
0.0975049
-0.0088576
0.0413043
-0.00870359
-0.00609145
0.210608
-0.262434
0.156115
0.0988171
0.0411416
0.0527423
-0.353037
-0.0747071
0.0231389
-0.38368
-0.00280898
-0.397326
-0.0153524
-0.384186
-0.248927
0.135334
-0.318363
-0.170008
0.091052
-0.339397
0.0460614
-0.352336
0.0106624
-0.348787
-0.238265
0.159858
-0.274757
-0.203464
0.112363
-0.291902
0.0660302
-0.306003
0.0240875
-0.306844
-0.214177
0.176227
-0.235437
-0.215547
0.130059
-0.245735
0.0809066
-0.25685
0.0328439
-0.258781
-0.181334
0.172529
-0.223067
0.121766
0.0738169
0.0290371
0.391619
0.0956487
-0.0912882
0.394651
0.0820083
-0.0850401
0.361199
0.147592
-0.11414
0.312573
0.0253624
0.0232635
-0.259125
0.39209
0.39879
0.0928386
0.409312
0.0714865
0.398103
0.1588
0.356279
0.0671864
-0.136053
0.403584
0.0852338
0.418494
0.0565767
0.41185
0.165444
0.37875
0.100286
-0.000261294
0.407027
0.0741865
0.423937
0.0396668
0.421375
0.168006
0.395869
0.125792
0.137655
0.407528
0.427002
0.420871
0.399472
0.417191
0.0928603
0.338226
0.0789646
0.256332
0.0818939
0.273767
-0.0174347
-0.212021
0.485788
0.511623
0.505548
0.473301
0.47913
0.659199
0.389576
0.0962127
0.304235
0.0853407
0.204184
0.100051
0.119046
0.0851378
0.0371522
0.532345
0.402138
0.298725
0.213855
)
;

boundaryField
{
    left
    {
        type            calculated;
        value           nonuniform List<scalar> 
17
(
-0.60402
-0.60402
-0.60402
-0.60402
-0.60402
-0.39598
-0.39598
-0.39598
-0.39598
-0.39598
-0.39598
-0.39598
-0.39598
-0.39598
-0.39598
-0.510051
-0.510051
)
;
    }
    right
    {
        type            calculated;
        value           nonuniform List<scalar> 
17
(
0.228289
0.417399
0.389481
0.444931
0.463862
0.477844
0.512211
0.530305
0.552959
0.530379
0.485216
0.443869
0.677968
0.596243
0.679181
0.532278
0.0375834
)
;
    }
    down
    {
        type            calculated;
        value           uniform 0;
    }
    up
    {
        type            calculated;
        value           uniform 0;
    }
    cylinder
    {
        type            calculated;
        value           uniform 0;
    }
    defaultFaces
    {
        type            empty;
    }
}


// ************************************************************************* //
