/*--------------------------------*- C++ -*----------------------------------*\
  =========                 |
  \\      /  F ield         | OpenFOAM: The Open Source CFD Toolbox
   \\    /   O peration     | Website:  https://openfoam.org
    \\  /    A nd           | Version:  13
     \\/     M anipulation  |
\*---------------------------------------------------------------------------*/
FoamFile
{
    format      ascii;
    class       surfaceScalarField;
    location    "0.64";
    object      phi;
}
// * * * * * * * * * * * * * * * * * * * * * * * * * * * * * * * * * * * * * //

dimensions      [0 3 -1 0 0 0 0];

internalField   nonuniform List<scalar> 
3485
(
0.00137165
-0.0112581
0.0098864
0.00505113
-0.0319069
0.0282274
0.0107642
-0.051383
0.0456699
0.0183125
-0.0696769
0.0621285
0.0275454
-0.0868349
0.077602
0.0383487
-0.102901
0.0920976
0.0506335
-0.117906
0.105621
0.0643571
-0.13187
0.118146
0.0796167
-0.14486
0.1296
-0.156893
0.139502
0.0970083
0.00150032
-0.0127584
0.0054458
-0.0358523
0.0114761
-0.0574133
0.0193235
-0.0775243
0.0287729
-0.0962842
0.0396468
-0.113775
0.0518011
-0.13006
0.065128
-0.145197
0.0795357
-0.159268
-0.172196
0.0948384
0.00147417
-0.0142325
0.00532696
-0.0397051
0.0111744
-0.0632608
0.0187208
-0.0850706
0.0277253
-0.105289
0.0379885
-0.124038
0.0493445
-0.141416
0.0616537
-0.157506
0.0747842
-0.172398
-0.186036
0.0886243
0.00133886
-0.0155714
0.00485901
-0.0432253
0.0102108
-0.0686126
0.017117
-0.0919768
0.0253538
-0.113526
0.0347402
-0.133424
0.0451302
-0.151806
0.0564038
-0.16878
0.0684542
-0.184449
-0.19879
0.0812081
0.00116693
-0.0167383
0.00425598
-0.0463143
0.00897313
-0.0733298
0.0150817
-0.0980854
0.0223917
-0.120835
0.0307524
-0.141785
0.0400461
-0.1611
0.0501803
-0.178914
0.0610771
-0.195346
-0.210402
0.0726889
0.000980022
-0.0177183
0.00358795
-0.0489222
0.00758661
-0.0773284
0.0127839
-0.103283
0.0190261
-0.127078
0.0261926
-0.148952
0.0341915
-0.169099
0.0429535
-0.187676
0.0524235
-0.204816
-0.220549
0.0625706
0.000780727
-0.0184991
0.00286501
-0.0510065
0.006069
-0.0805324
0.0102429
-0.107457
0.0152666
-0.132101
0.0210468
-0.154732
0.0275144
-0.175566
0.0346206
-0.194782
0.0423314
-0.212526
-0.228851
0.0506331
0.000569705
-0.0190688
0.00209347
-0.0525303
0.0044379
-0.0828768
0.00749272
-0.110511
0.0111687
-0.135777
0.0153969
-0.15896
0.0201276
-0.180297
0.0253297
-0.199984
0.0309867
-0.218183
-0.234967
0.0371034
0.00035251
-0.0194213
0.00129577
-0.0534736
0.00274504
-0.0843261
0.00462837
-0.112395
0.00688654
-0.138036
0.00947318
-0.161547
0.0123554
-0.183179
0.0155144
-0.203143
0.018945
-0.221614
-0.238684
0.0226618
0.000137798
-0.0195591
0.000502473
-0.0538382
0.00105699
-0.0848806
0.00176958
-0.113107
0.00261377
-0.13888
0.00356848
-0.162501
0.0046182
-0.184229
0.00575343
-0.204278
0.00697073
-0.222831
0.00827515
-0.239989
0.000490873
-0.00187036
0.00137949
0.00209533
-0.00625527
0.00465081
0.00543799
-0.0114143
0.00807168
0.0101269
-0.0161834
0.0114945
0.0155539
-0.0201754
0.0147484
0.021455
-0.0235721
0.0176709
0.0279247
-0.0267531
0.0202835
0.0351105
-0.0299465
0.0227607
0.0429977
-0.0331053
0.0252181
-0.0360779
0.0514531
0.0276225
0.000427302
-0.00229767
0.00211252
-0.0079405
0.0054418
-0.0147436
0.00982282
-0.0205644
0.0148997
-0.0252523
0.0207802
-0.0294525
0.0276364
-0.0336093
0.035417
-0.0377272
0.0439117
-0.0415999
-0.0451219
0.0529557
0.000682636
-0.0029803
0.00271598
-0.00997385
0.00578226
-0.0178099
0.00976901
-0.0245512
0.0148271
-0.0303104
0.0211282
-0.0357536
0.0286035
-0.0410846
0.0369743
-0.0460981
0.0460221
-0.0506478
-0.0547553
0.0556556
0.000868116
-0.00384842
0.0030604
-0.0121661
0.00608079
-0.0208303
0.0102056
-0.028676
0.0157066
-0.0358114
0.022567
-0.042614
0.0305453
-0.0490629
0.0394049
-0.0549577
0.0490504
-0.0602932
-0.0651045
0.0593995
0.00092279
-0.00477121
0.0032003
-0.0144436
0.00652018
-0.0241502
0.01112
-0.0332759
0.0171399
-0.0418313
0.0244551
-0.0499292
0.0328739
-0.0574817
0.0422987
-0.0643824
0.0526661
-0.0706606
-0.0762821
0.0638437
0.000943729
-0.00571494
0.00337263
-0.0168725
0.007092
-0.0278695
0.012176
-0.0383598
0.0186355
-0.0482908
0.0263595
-0.0576532
0.0352509
-0.0663731
0.0452624
-0.0743939
0.0563153
-0.0817135
-0.0882185
0.0682518
0.000979895
-0.00669483
0.00358402
-0.0194767
0.00764154
-0.0319271
0.0131077
-0.0438259
0.0199268
-0.05511
0.0280127
-0.0657391
0.0373033
-0.0756637
0.0477523
-0.084843
0.0592869
-0.0932481
-0.100694
0.071762
0.00101798
-0.00771282
0.00376774
-0.0222264
0.00807115
-0.0362305
0.01382
-0.0495748
0.0209197
-0.0622097
0.0292816
-0.074101
0.038836
-0.0852181
0.0495261
-0.0955332
0.0612935
-0.105015
-0.113438
0.0740379
0.00105462
-0.00876744
0.00393671
-0.0251085
0.00846096
-0.0407547
0.014482
-0.0555958
0.0218738
-0.0696015
0.0305259
-0.082753
0.040343
-0.0950352
0.0512364
-0.106427
0.0631251
-0.116904
-0.126317
0.0760043
0.00111896
0.00423783
0.00915304
0.0156857
0.0236862
0.0330308
0.0436164
0.0553362
0.0680324
0.081217
0.114362
-0.414335
0.351426
0.168164
-0.471492
0.41769
0.210274
-0.42147
0.37936
0.244074
-0.32602
0.29222
0.27075
-0.213609
0.186933
0.291096
-0.108917
0.0885707
0.303911
-0.0287217
0.0159068
0.308334
0.0126451
-0.0170684
0.308537
0.0213698
-0.0215728
0.0162779
-0.014817
0.115955
-0.477334
0.169746
-0.525283
0.211845
-0.463569
0.245401
-0.359576
0.272215
-0.240424
0.293271
-0.129973
0.308583
-0.0440333
0.316636
0.00459235
0.31961
0.0183953
0.0164144
0.117768
-0.539447
0.170585
-0.5781
0.212294
-0.505278
0.24526
-0.392542
0.271952
-0.267116
0.293258
-0.151279
0.309765
-0.0605398
0.32051
-0.00615319
0.327246
0.0116599
0.013674
0.120148
-0.600195
0.170958
-0.628911
0.211798
-0.546118
0.243872
-0.424616
0.270193
-0.293437
0.291579
-0.172664
0.308503
-0.0774638
0.320253
-0.0179033
0.32957
0.00234266
0.00800273
0.123041
-0.659392
0.171069
-0.676939
0.210486
-0.585534
0.241415
-0.455545
0.267106
-0.319128
0.288517
-0.194074
0.305654
-0.0946009
0.318066
-0.0303158
0.328353
-0.00794422
0.0011583
0.125894
-0.717034
0.170951
-0.721997
0.208445
-0.623028
0.238031
-0.485131
0.262825
-0.343922
0.284183
-0.215432
0.301635
-0.112053
0.314874
-0.0435546
0.326383
-0.0194537
-0.00701071
0.127828
-0.7731
0.170419
-0.764588
0.205726
-0.658335
0.233839
-0.513244
0.257488
-0.367572
0.278618
-0.236562
0.296547
-0.129982
0.310974
-0.0579817
0.323492
-0.031971
-0.0159985
0.127905
-0.826967
0.168992
-0.805675
0.202194
-0.691537
0.228815
-0.539865
0.251157
-0.389914
0.271819
-0.257223
0.290344
-0.148507
0.306405
-0.0740427
0.317489
-0.0430559
-0.0227408
0.125823
-0.876785
0.166263
-0.846116
0.197796
-0.72307
0.223048
-0.565116
0.243976
-0.410842
0.263749
-0.276997
0.283009
-0.167767
0.29868
-0.0897133
0.306808
-0.0511842
-0.028274
0.122137
-0.917705
0.161431
-0.885411
0.191662
-0.7533
0.215825
-0.589279
0.235441
-0.430458
0.254279
-0.295835
0.272833
-0.186321
0.285938
-0.102819
0.292492
-0.0577377
-0.0344849
0.583941
-0.920176
-0.58147
0.561183
-0.862653
0.523969
-0.716086
0.487928
-0.553239
0.460508
-0.403038
0.444869
-0.280196
0.436641
-0.178093
0.431779
-0.0979564
0.428242
-0.0542015
-0.0328179
0.682861
-0.871584
-0.731453
0.619699
-0.799491
0.553947
-0.650334
0.496526
-0.495818
0.451418
-0.357929
0.419971
-0.248749
0.402556
-0.160678
0.395038
-0.090439
0.390434
-0.0495976
-0.0302008
0.754003
-0.775161
-0.850426
0.655147
-0.700635
0.563509
-0.558696
0.487552
-0.419861
0.429894
-0.30027
0.39005
-0.208905
0.366621
-0.137249
0.355813
-0.0796314
0.350065
-0.0438491
-0.0267745
0.779004
-0.641674
-0.912491
0.653774
-0.575405
0.546329
-0.451251
0.461116
-0.334648
0.398291
-0.237445
0.354785
-0.165399
0.32789
-0.110354
0.314479
-0.0662199
0.307609
-0.03698
-0.0227104
0.752991
-0.492427
-0.902238
0.617581
-0.439996
0.506217
-0.339886
0.420155
-0.248586
0.357667
-0.174958
0.314288
-0.12202
0.286478
-0.0825442
0.271448
-0.0511902
0.263632
-0.0291632
-0.0181511
0.68511
-0.345831
-0.831706
0.552713
-0.307598
0.446474
-0.233647
0.36603
-0.168142
0.308366
-0.117294
0.268295
-0.0819484
0.241903
-0.0561527
0.226643
-0.0359298
0.218369
-0.0208897
-0.0133374
0.582623
-0.213859
-0.714595
0.462897
-0.187873
0.369331
-0.140081
0.299965
-0.0987754
0.250947
-0.0682762
0.216873
-0.0478744
0.193939
-0.0332188
0.179917
-0.0219078
0.171939
-0.0129112
-0.00862119
0.448761
-0.105523
-0.557097
0.351183
-0.0902949
0.277066
-0.0659636
0.223539
-0.0452487
0.186289
-0.0310261
0.160351
-0.0219363
0.142551
-0.0154185
0.131148
-0.0105044
0.124381
-0.0061446
-0.00445605
0.286592
-0.0302204
-0.361895
0.220913
-0.0246152
0.172495
-0.0175456
0.138717
-0.0114708
0.115487
-0.00779608
0.0991648
-0.00561454
0.0877587
-0.00401239
0.0801441
-0.00288977
0.0755971
-0.00159761
-0.00139183
0.101316
-0.131536
0.0767007
0.0591551
0.0476843
0.0398882
0.0342737
0.0302613
0.0273716
0.025774
0.738821
0.0102226
-0.740769
0.733075
0.0284079
0.723436
0.0467424
0.710163
0.0639065
0.693569
0.079164
0.674075
0.0921832
0.65227
0.103013
0.628709
0.112185
0.604264
0.119284
0.119803
0.845549
0.0133986
-0.848725
0.837321
0.0366355
0.827287
0.0567763
0.816593
0.0746013
0.805249
0.0905074
0.792894
0.104538
0.77928
0.116627
0.764583
0.126882
0.749117
0.13475
0.137466
0.844984
0.0114258
-0.843011
0.848884
0.0327355
0.853021
0.0526388
0.856473
0.0711497
0.858834
0.088146
0.859921
0.103451
0.859596
0.116952
0.857967
0.128511
0.855299
0.137418
0.142339
0.800213
0.00930484
-0.798092
0.805821
0.0271275
0.814419
0.044041
0.825638
0.0599309
0.839004
0.0747804
0.853853
0.0886015
0.869424
0.101381
0.885059
0.112876
0.899945
0.122531
0.129794
0.737866
0.00703907
-0.7356
0.744155
0.0208387
0.754124
0.0340717
0.767504
0.0465505
0.784084
0.0582003
0.803663
0.0690231
0.825992
0.0790521
0.850627
0.0882413
0.87655
0.0966086
0.104106
0.653921
0.00485422
-0.651736
0.660203
0.0145563
0.670378
0.0238964
0.684221
0.0327075
0.701526
0.0408961
0.722112
0.0484362
0.745807
0.0553572
0.772332
0.0617166
0.801221
0.0677199
0.0736206
0.549112
0.00291625
-0.547174
0.554812
0.00885601
0.564138
0.0145706
0.576906
0.0199401
0.592915
0.0248868
0.611968
0.0293827
0.633871
0.0334541
0.658408
0.0371804
0.685381
0.0407466
0.0444066
0.422792
0.0013758
-0.421252
0.427412
0.00423599
0.435007
0.00697563
0.445422
0.00952585
0.45847
0.0118387
0.473957
0.0138957
0.491697
0.0157138
0.511528
0.0173497
0.533347
0.0189272
0.0206563
0.273828
0.000366683
-0.272819
0.276915
0.00114945
0.281999
0.00189174
0.288955
0.0025694
0.297629
0.00316445
0.307856
0.00366912
0.319482
0.00408803
0.332395
0.00443666
0.346562
0.0047604
0.00532324
0.100484
-0.100117
0.101633
0.103525
0.106094
0.109259
0.112928
0.117016
0.121453
0.126213
0.0779341
0.1595
-0.142486
-0.0949482
0.0630295
0.147457
-0.132553
0.0496197
0.134404
-0.120994
0.0376042
0.120331
-0.108315
0.027027
0.10517
-0.0945925
0.0179781
0.0888939
-0.079845
0.010573
0.0714604
-0.0640553
0.00496335
0.0528095
-0.0471998
0.00134802
0.0328745
-0.0292591
0.0116391
-0.010291
0.0779429
0.174431
-0.0928736
0.0638726
0.161528
0.0508407
0.147436
0.0389387
0.132233
0.0282764
0.115832
0.0190004
0.0981699
0.0112897
0.0791712
0.00535961
0.0587395
0.00147722
0.0367569
0.0131163
0.0731812
0.187926
-0.0866767
0.0603712
0.174338
0.0483511
0.159456
0.0372492
0.143335
0.0272034
0.125878
0.0183794
0.106994
0.0109766
0.0865739
0.00523534
0.0644808
0.00144962
0.0405426
0.0145659
0.0667724
0.200352
-0.0791979
0.0550341
0.186076
0.04405
0.17044
0.033922
0.153463
0.0247666
0.135033
0.016727
0.115033
0.00998166
0.0933193
0.00475145
0.069711
0.00130964
0.0439844
0.0158756
0.0593135
0.211656
-0.0706177
0.048716
0.196673
0.0388678
0.180288
0.0298414
0.162489
0.0217244
0.14315
0.0146296
0.122128
0.00870232
0.0992466
0.00412643
0.0742869
0.00113096
0.0469799
0.0170065
0.0505988
0.22152
-0.0604631
0.0414115
0.205861
0.0329278
0.188772
0.0251974
0.170219
0.0182838
0.150064
0.0122721
0.12814
0.00727494
0.104244
0.00343651
0.0781254
0.000937275
0.0494791
0.0179438
0.0404577
0.229564
-0.0485009
0.033013
0.213305
0.0261766
0.195608
0.0199774
0.176419
0.0144574
0.155584
0.00967744
0.13292
0.00572042
0.108201
0.00269375
0.081152
0.000731832
0.051441
0.0186756
0.0290544
0.235441
-0.0349321
0.0236514
0.218708
0.0187147
0.200545
0.0142552
0.180878
0.0102962
0.159543
0.0068775
0.136339
0.00405558
0.111023
0.00190425
0.0833033
0.000515276
0.05283
0.0191909
0.0169175
0.238926
-0.0204021
0.0137419
0.221884
0.0108549
0.203432
0.00825478
0.183478
0.00595145
0.161846
0.00396646
0.138324
0.00233216
0.112657
0.00109065
0.0845449
0.000293236
0.0536274
0.0194841
0.00482777
-0.00589038
0.00388035
0.00303396
0.00228334
0.00162811
0.00107196
0.00062159
0.000285813
7.49666e-05
0.0436469
0.0413854
-0.0525413
-0.032491
0.0352724
0.0383371
-0.0299626
0.0276049
0.0349385
-0.0272711
0.0208706
0.0313254
-0.024591
0.0150712
0.0277596
-0.0219602
0.00996537
0.0242022
-0.0190964
0.00543632
0.0200666
-0.0155375
0.00197237
0.0144565
-0.0109926
0.000385844
0.00739142
-0.00580488
0.00208672
-0.00170087
0.0437631
0.0505582
-0.052936
0.0351097
0.0469905
0.0270671
0.0429811
0.0199181
0.0384743
0.0139789
0.0336988
0.00925606
0.0289251
0.00550463
0.023818
0.00257444
0.0173867
0.000621028
0.00934484
0.00270775
0.0449572
0.0601189
-0.0545178
0.0360295
0.0559182
0.0277859
0.0512247
0.0203436
0.0459166
0.0140285
0.0400139
0.00910514
0.0338485
0.00551905
0.0274041
0.00289362
0.0200121
0.000809622
0.0114288
0.00351737
0.0473897
0.0703096
-0.0575804
0.0379498
0.0653581
0.0293755
0.059799
0.0217048
0.0535873
0.0150633
0.0466554
0.00971016
0.0392017
0.00576714
0.0313471
0.0029616
0.0228177
0.000875738
0.0135147
0.00439311
0.0508551
0.0812396
-0.0617852
0.0407476
0.0754656
0.0316266
0.06892
0.0235544
0.0616596
0.0165542
0.0536556
0.0107531
0.0450028
0.00628636
0.0358138
0.00306387
0.0260402
0.000881141
0.0156974
0.00527425
0.0545488
0.0928401
-0.0661492
0.0438243
0.0861901
0.0341388
0.0786055
0.0255672
0.0702311
0.0181316
0.0610913
0.011888
0.0512464
0.0069318
0.04077
0.00328024
0.0296917
0.000909086
0.0180686
0.00618334
0.0575981
0.104925
-0.0696827
0.0464357
0.0973525
0.03633
0.0887113
0.0273411
0.07922
0.0195049
0.0689274
0.012872
0.0578792
0.00752203
0.04612
0.00352626
0.0336875
0.000959947
0.0206349
0.00714329
0.0596509
0.117254
-0.0719804
0.0482714
0.108732
0.037927
0.0990557
0.0286631
0.0884839
0.0205314
0.0770591
0.0136009
0.0648097
0.00796281
0.0517581
0.00372239
0.0379279
0.00100548
0.0233518
0.00814877
0.0614617
0.12971
-0.0739175
0.0499623
0.120231
0.0394116
0.109606
0.0298813
0.0980143
0.0214575
0.0854829
0.0142373
0.0720299
0.0083352
0.0576602
0.00388487
0.0423783
0.00104198
0.0261947
0.00919075
0.0663157
-0.0790919
0.0539946
0.0426071
0.0323061
0.0231965
0.0153814
0.00898636
0.00416477
0.0011003
0.214011
0.0613177
-0.0773388
0.236643
0.0898309
-0.112463
0.261042
0.123472
-0.147871
0.276266
0.113542
-0.128766
0.275578
0.110171
-0.109483
0.252772
0.17916
-0.156355
0.218681
0.293725
-0.259634
0.174725
0.412368
-0.368412
0.118361
0.494399
-0.438035
0.461441
-0.395621
0.213373
0.0459348
0.234855
0.0683484
0.258331
0.0999967
0.274059
0.0978135
0.274968
0.109263
0.253137
0.200991
0.218929
0.327933
0.174527
0.45677
0.118066
0.55086
0.526571
0.213074
0.0308502
0.233695
0.0477278
0.256296
0.077396
0.272094
0.0820147
0.273296
0.108061
0.251983
0.222305
0.217757
0.362159
0.173281
0.501246
0.117893
0.606248
0.589947
0.213039
0.0158008
0.233171
0.027596
0.255008
0.0555591
0.270501
0.066522
0.270824
0.107738
0.249426
0.243703
0.215309
0.396275
0.17136
0.545195
0.118422
0.659186
0.650788
0.213199
0.000591577
0.233163
0.00763153
0.254283
0.0344394
0.268858
0.0519469
0.267432
0.109164
0.245515
0.26562
0.211765
0.430026
0.169173
0.587787
0.11978
0.708579
0.708783
0.213496
-0.0149146
0.233487
-0.0123591
0.253835
0.0140907
0.266812
0.0389703
0.262999
0.112977
0.240346
0.288273
0.207368
0.463003
0.166991
0.628164
0.12151
0.75406
0.764144
0.213797
-0.0307222
0.233948
-0.0325096
0.253398
-0.00535968
0.264144
0.0282242
0.257485
0.119637
0.23411
0.311648
0.202394
0.494719
0.164802
0.665756
0.122722
0.79614
0.817183
0.213927
-0.0466589
0.234394
-0.0529769
0.252738
-0.0237037
0.260626
0.0203362
0.250797
0.129466
0.226919
0.335526
0.196891
0.524747
0.162182
0.700464
0.122398
0.835924
0.867601
0.213804
-0.0624731
0.234762
-0.073935
0.251704
-0.0406454
0.256279
0.0157607
0.24318
0.142566
0.219131
0.359574
0.190979
0.5529
0.158711
0.732732
0.120143
0.874492
0.913827
0.213685
-0.0781688
0.234984
-0.095233
0.250261
-0.0559224
0.250739
0.0152823
0.234092
0.159212
0.210111
0.383555
0.183736
0.579275
0.153517
0.762951
0.116462
0.911547
0.951197
0.331876
-0.108034
0.370545
-0.133902
0.406934
-0.092312
0.424625
-0.00240831
0.439287
0.14455
0.467504
0.355338
0.506613
0.540166
0.549583
0.719981
0.58136
0.879771
0.946064
0.586492
0.33347
-0.139493
0.372976
-0.173408
0.408215
-0.127551
0.423004
-0.017197
0.436354
0.1312
0.47619
0.315503
0.534369
0.481986
0.604489
0.649862
0.675394
0.808865
0.888484
0.732974
0.33614
-0.173623
0.375019
-0.212287
0.408487
-0.16102
0.418877
-0.0275867
0.428561
0.121515
0.474425
0.269639
0.546686
0.409726
0.638895
0.557652
0.742311
0.70545
0.784381
0.846413
0.340279
-0.211892
0.373094
-0.245103
0.384548
-0.172473
0.381909
-0.0249477
0.399671
0.103753
0.453252
0.216057
0.534341
0.328637
0.640631
0.451362
0.767137
0.578944
0.647006
0.904512
0.348372
-0.258253
0.356347
-0.253078
0.337727
-0.153853
0.335002
-0.0222227
0.359018
0.0797376
0.41425
0.160825
0.497393
0.245493
0.607963
0.340792
0.743784
0.443124
0.495832
0.894958
0.340821
-0.297064
0.321138
-0.233395
0.288041
-0.120756
0.284423
-0.0186053
0.309226
0.0549352
0.361243
0.108808
0.439842
0.166895
0.545807
0.234828
0.678792
0.310139
0.347968
0.826656
0.314276
-0.30933
0.271548
-0.190667
0.233729
-0.0829369
0.228911
-0.0137871
0.251263
0.032583
0.296274
0.0637967
0.364671
0.0984981
0.458356
0.141143
0.578811
0.189684
0.215097
0.711682
0.273774
-0.281094
0.212878
-0.12977
0.174416
-0.0444755
0.168953
-0.00832405
0.186407
0.0151292
0.221046
0.0291579
0.274211
0.0453323
0.348699
0.0666558
0.447055
0.0913272
0.106136
0.556016
0.214644
-0.193728
0.140473
-0.0555995
0.109412
-0.0134141
0.104169
-0.00308129
0.115448
0.00385057
0.137325
0.00728061
0.171116
0.0115412
0.219977
0.0177953
0.28634
0.0249637
0.030407
0.362069
0.108282
0.0526829
0.0392688
0.0361875
0.0400381
0.0473187
0.0588599
0.0766551
0.101619
0.132026
0.60865
-0.117106
0.632316
-0.11654
0.655135
-0.109496
0.676288
-0.100351
0.695232
-0.0895623
0.71137
-0.0766008
0.724263
-0.0613945
0.73359
-0.0442591
0.739076
-0.0258873
-0.00758338
0.750311
-0.134442
0.765216
-0.131445
0.77942
-0.1237
0.792645
-0.113576
0.80471
-0.101627
0.815846
-0.0877372
0.826402
-0.0719505
0.836392
-0.054249
0.844841
-0.0343366
-0.011467
0.851036
-0.139066
0.853481
-0.133889
0.854997
-0.125216
0.855375
-0.113954
0.854527
-0.100779
0.852626
-0.0858365
0.849899
-0.0692237
0.846742
-0.0510913
0.843948
-0.0315431
-0.0105296
0.892567
-0.12712
0.878548
-0.119871
0.863865
-0.110534
0.849299
-0.099387
0.835451
-0.0869316
0.823023
-0.0734078
0.812638
-0.0588386
0.804757
-0.0432109
0.799745
-0.0265311
-0.00887671
0.870325
-0.102488
0.845559
-0.0951049
0.821951
-0.0869257
0.800493
-0.0779292
0.781656
-0.0680946
0.765715
-0.0574668
0.752891
-0.0460138
0.743403
-0.0337237
0.737524
-0.0206513
-0.00695323
0.797005
-0.0728361
0.768938
-0.0670381
0.743124
-0.0611122
0.720038
-0.054843
0.699972
-0.0480284
0.683112
-0.040607
0.669641
-0.0325432
0.659769
-0.023851
0.653726
-0.0146081
-0.00496346
0.682986
-0.04414
0.6565
-0.0405526
0.632401
-0.0370126
0.610878
-0.0333199
0.592144
-0.029295
0.576395
-0.0248576
0.563828
-0.0199759
0.554646
-0.0146693
0.549043
-0.00900527
-0.00309452
0.532509
-0.0206337
0.510907
-0.0189506
0.491274
-0.0173793
0.473703
-0.0157486
0.45835
-0.013942
0.445396
-0.0119043
0.435036
-0.00961593
0.427458
-0.00709062
0.422824
-0.00437136
-0.00152277
0.346787
-0.00535157
0.332646
-0.00480894
0.319751
-0.00448472
0.308136
-0.00413344
0.297908
-0.00371351
0.289214
-0.00321074
0.282218
-0.00261991
0.277075
-0.00194731
0.273913
-0.0012094
-0.000429183
0.126674
0.121865
0.117381
0.113247
0.109534
0.106323
0.103703
0.101756
0.100546
0.000185055
0.0116091
-0.0117942
0.000623732
0.0304462
-0.0308848
0.00123715
0.0462413
-0.0468547
0.00197731
0.059467
-0.0602071
0.0027766
0.0700209
-0.0708202
0.00376951
0.0798885
-0.0808814
0.00396345
0.0772666
-0.0774606
0.00408482
0.0700418
-0.0701632
0.00394494
0.0610791
-0.0609393
0.0499556
0.00350719
-0.0495179
0.000533392
0.0110757
0.00180385
0.0291757
0.00358506
0.0444601
0.0057412
0.0573108
0.00807277
0.0676894
0.0110396
0.0769217
0.0116759
0.0766303
0.0120808
0.0696369
0.0117736
0.0613864
0.051078
0.0106512
0.000835492
0.0102402
0.00283181
0.0271794
0.00563907
0.0416528
0.00904149
0.0539084
0.0127394
0.0639915
0.0172474
0.0724137
0.0187901
0.0750876
0.0195717
0.0688553
0.0193855
0.0615726
0.0524345
0.0180291
0.00105597
0.00918425
0.00359698
0.0246384
0.00719358
0.0380562
0.0115558
0.0495462
0.0163565
0.0591908
0.0217476
0.0670226
0.0250727
0.0717626
0.026355
0.067573
0.0266033
0.0613243
0.0535663
0.0254714
0.00115145
0.0080328
0.00397929
0.0218105
0.00804169
0.0339938
0.0129969
0.044591
0.0185516
0.0536361
0.0245576
0.0610167
0.0299522
0.066368
0.0320901
0.0654351
0.0330114
0.0604029
0.054091
0.0324867
0.00111148
0.00692133
0.00396598
0.018956
0.00818558
0.0297742
0.0133902
0.0393864
0.019318
0.0477082
0.0257721
0.0545626
0.032416
0.0597241
0.0363126
0.0615385
0.0381244
0.0585911
0.053707
0.0385085
0.000926235
0.00599509
0.00357297
0.0163093
0.00771068
0.0256365
0.0128818
0.0342153
0.0187867
0.0418033
0.0253383
0.0480111
0.0323212
0.0527412
0.0382753
0.0555844
0.0415873
0.0552791
0.0521829
0.0431114
0.000567842
0.00542725
0.00278665
0.0140905
0.00665755
0.0217656
0.0116214
0.0292514
0.0172045
0.0362202
0.0234476
0.041768
0.0302862
0.0459026
0.0371842
0.0486864
0.0425612
0.0499021
0.0489242
0.0458198
0.000103811
0.00532344
0.0017686
0.0124257
0.00517578
0.0183584
0.00981502
0.0246122
0.0149572
0.0310781
0.0206214
0.0361037
0.0269037
0.0396203
0.0335872
0.0420029
0.0400849
0.0434044
0.0437961
0.045213
-0.000175633
0.00549907
0.00108681
0.0111633
0.00385592
0.0155893
0.00788657
0.0205815
0.0125011
0.0264636
0.0175714
0.0310334
0.0231771
0.0340147
0.029249
0.0359309
0.0356353
0.0370181
0.0373699
0.0420614
-2.12708e-05
0.00552034
0.0011398
0.0100022
0.00327735
0.0134518
0.00641274
0.0174461
0.0102942
0.0225822
0.0148354
0.0264921
0.0199548
0.0288952
0.0254867
0.0303991
0.0312238
0.0312809
0.0316966
0.0368972
0.000377157
0.00514319
0.00153109
0.00884827
0.00317961
0.0118032
0.00548999
0.0151358
0.00870852
0.0193636
0.0128931
0.0223075
0.017744
0.0240443
0.0230102
0.0251329
0.0285007
0.0257904
0.026061
0.0341362
0.000623571
0.00451961
0.00170573
0.0077661
0.00302557
0.0104834
0.00484429
0.013317
0.00783374
0.0163742
0.0119217
0.0182196
0.016672
0.019294
0.0218449
0.0199599
0.027308
0.0203274
0.0204091
0.0329598
0.000676338
0.00384327
0.00164163
0.00680081
0.00282054
0.00930448
0.00470161
0.011436
0.00797476
0.013101
0.0122046
0.0139897
0.017021
0.0144776
0.0222621
0.0147189
0.0278313
0.0147582
0.0145976
0.0336428
0.000663743
0.00317953
0.00155391
0.00591063
0.00299531
0.00786308
0.00558315
0.00884811
0.0093765
0.00930768
0.0139008
0.00946536
0.0189466
0.00943187
0.0244143
0.00925117
0.030236
0.00893648
0.00849356
0.03634
0.000594102
0.00258542
0.0017178
0.00478692
0.00406688
0.005514
0.00752878
0.00538621
0.0117869
0.00504954
0.0166402
0.00461209
0.021987
0.004085
0.0277683
0.00346995
0.0339324
0.00277235
0.00200526
0.0404207
0.000525755
0.00205966
0.00249169
0.00282097
0.00576425
0.00224144
0.00976729
0.00138316
0.0143631
0.000453689
0.019506
-0.000530735
0.0251656
-0.00157463
0.0312992
-0.00266366
0.0378459
-0.00377439
-0.00489463
0.0447458
0.000878616
0.00118104
0.00362797
7.16031e-05
0.00719378
-0.00132437
0.0113833
-0.0028064
0.0161833
-0.00434625
0.0216041
-0.00595153
0.0276043
-0.00757483
0.0340931
-0.00915255
0.0409876
-0.0106688
-0.0121537
0.0482467
0.00150676
-0.000325734
0.00413692
-0.00255857
0.00756075
-0.00474821
0.0117785
-0.00702415
0.0167973
-0.00936508
0.0225387
-0.0116929
0.0288355
-0.0138717
0.0355668
-0.0158838
0.0427068
-0.0178088
-0.0197025
0.0502556
0.00105375
0.00314599
0.00646945
0.0109398
0.0163231
0.0223011
0.0287129
0.0355898
0.042999
0.050919
0.0513966
0.0837643
-0.0982636
0.0772762
-0.00742467
-0.018455
0.0998938
-0.0510986
0.028481
0.113552
-0.047014
0.0333555
0.121487
-0.0267127
0.0187776
0.125079
-0.00786739
0.00427622
0.126075
0.00351683
-0.00451312
0.126238
0.00715024
-0.00731344
0.12643
0.00684061
-0.00703216
0.00409878
-0.00506042
0.0586001
0.0593003
0.0916478
-0.0404724
0.118817
-0.0782678
0.134808
-0.0630054
0.143505
-0.0354094
0.147126
-0.0114886
0.147832
0.00281107
0.147644
0.00733903
0.147548
0.00693595
0.00343794
0.0666213
0.0256388
0.105037
-0.0788885
0.136043
-0.109273
0.155656
-0.0826186
0.165622
-0.0453758
0.169309
-0.0151752
0.169612
0.00250762
0.168905
0.0080468
0.168347
0.00749402
0.00323081
0.0755137
-0.0162322
0.117887
-0.121261
0.151787
-0.143173
0.17516
-0.105992
0.187174
-0.0573897
0.19119
-0.0191911
0.191122
0.00257551
0.189836
0.00933284
0.188724
0.00860663
0.00357177
0.0845827
-0.0644749
0.129728
-0.166407
0.165796
-0.179241
0.19248
-0.132677
0.207398
-0.0723072
0.212341
-0.0241346
0.212093
0.00282352
0.210264
0.0111623
0.208576
0.0102946
0.00449951
0.0930553
-0.11711
0.140227
-0.213579
0.177979
-0.216992
0.207226
-0.161924
0.225435
-0.0905157
0.232224
-0.0309232
0.232205
0.00284177
0.229988
0.0133795
0.227788
0.0124951
0.00599191
0.100268
-0.172632
0.149109
-0.262421
0.188239
-0.256122
0.219319
-0.193005
0.240587
-0.111784
0.250194
-0.0405302
0.251092
0.00194411
0.248787
0.0156844
0.246228
0.0150546
0.00796331
0.10587
-0.230255
0.156248
-0.312798
0.196519
-0.296392
0.228865
-0.225351
0.25253
-0.13545
0.265521
-0.0535213
0.268306
-0.000840667
0.266401
0.0175899
0.263742
0.0177129
0.0102605
0.109843
-0.289843
0.161674
-0.364629
0.202846
-0.337564
0.236039
-0.258543
0.261312
-0.160723
0.277566
-0.069775
0.283294
-0.00656894
0.282507
0.0183771
0.280144
0.0200754
0.0126504
0.112502
0.165563
0.207358
0.241035
0.267246
0.286041
0.295379
0.296688
0.295191
0.0131995
0.00607846
-0.019278
0.0109845
0.00221501
0.011499
-0.00051453
0.0129186
-0.00141953
0.0136266
-0.000708028
0.0137391
-0.000112536
0.013514
0.000225178
0.0131758
0.000338207
0.0129171
0.000258651
0.000314437
0.0372458
0.0232179
-0.0543852
0.0314801
0.0079807
0.0339783
-0.00301273
0.0380242
-0.00546546
0.04018
-0.00286379
0.0405634
-0.000495997
0.0399221
0.000866575
0.0389691
0.00129119
0.0380969
0.00113088
0.00104715
0.0579595
0.0481031
-0.0828447
0.0508597
0.0150805
0.0558505
-0.00800358
0.062412
-0.0120269
0.0660545
-0.00650628
0.0667889
-0.00123043
0.0657953
0.00186023
0.0642721
0.00281438
0.0628017
0.00260137
0.00212031
0.073896
0.0754152
-0.101208
0.0680483
0.0209282
0.0763902
-0.0163455
0.0857012
-0.0213379
0.0909878
-0.0117929
0.0922148
-0.00245746
0.0909679
0.00310716
0.0889345
0.00484785
0.0869386
0.00459728
0.00347979
0.081387
-0.104236
0.08386
0.0959954
0.108013
0.114998
0.116817
0.115411
0.112945
0.110511
0.00273366
-0.000172925
-0.00256073
0.00326452
-0.000530869
0.00417675
-0.000912227
0.00548781
-0.00131105
0.00718421
-0.0016964
0.00922877
-0.00204456
0.0115853
-0.00235658
0.0141736
-0.0025883
0.0168587
-0.00268508
-0.00241928
0.00778738
-0.000645695
-0.00731461
0.00923427
-0.00197776
0.0117136
-0.00339158
0.01527
-0.00486742
0.0198842
-0.00631065
0.0254822
-0.00764253
0.0319645
-0.00883887
0.0391558
-0.00977966
0.0467671
-0.0102963
-0.0100374
0.012478
-0.00138375
-0.0117399
0.0147277
-0.00422744
0.0185605
-0.00722443
0.0240244
-0.0103313
0.031079
-0.0133652
0.0395859
-0.0161494
0.0493278
-0.0185808
0.060051
-0.0205029
0.0714148
-0.0216602
-0.0214674
0.0168073
-0.00234769
-0.0158434
0.0197316
-0.00715165
0.0246747
-0.0121676
0.0316512
-0.0173078
0.0405498
-0.0222638
0.0511059
-0.0267055
0.062937
-0.0304119
0.0756936
-0.0332595
0.0888596
-0.0348262
-0.0338159
0.0207929
-0.0196334
0.0242924
0.0301538
0.0383175
0.0485403
0.0603433
0.0730429
0.0856032
0.09599
0.0314506
-0.0313034
0.0371092
-0.0372564
0.0255894
-0.0309004
0.0367616
0.0199302
-0.0300677
0.0357269
0.0146829
-0.0286718
0.033919
0.0100622
-0.0264634
0.0310842
0.00620606
-0.0227769
0.026633
0.0031148
-0.0176471
0.0207384
0.00101816
-0.0136217
0.0157183
-8.62769e-05
-0.0101608
0.0112653
-0.00564116
0.00555489
0.0294701
-0.025439
-0.0353345
0.0237534
-0.0251836
0.0182625
-0.0245768
0.0131755
-0.0235847
0.00874508
-0.022033
0.0053533
-0.0193851
0.00302168
-0.0153155
0.00139787
-0.0119979
0.000298956
-0.00906191
-0.0053422
0.0294434
-0.0194499
-0.0354325
0.0236384
-0.0193786
0.0181202
-0.0190586
0.0130058
-0.0184702
0.00849797
-0.0175252
0.00504766
-0.0159347
0.00300735
-0.0132752
0.00164673
-0.0106372
0.000583604
-0.00799878
-0.00475859
0.0313608
-0.0131865
-0.0376243
0.025332
-0.0133497
0.0196211
-0.0133477
0.0143146
-0.0131638
0.00955144
-0.012762
0.00565604
-0.0120393
0.00320046
-0.0108196
0.00176328
-0.00920004
0.000728101
-0.00696359
-0.00403049
0.0349535
-0.006532
-0.041608
0.028581
-0.00697713
0.0225623
-0.00732905
0.0169638
-0.00756526
0.0118761
-0.00767432
0.00748378
-0.00764696
0.00413773
-0.00747353
0.00199438
-0.00705668
0.000798911
-0.00576811
-0.00323157
0.0392605
0.000573372
-0.0463658
0.0324803
-0.000196906
0.0260976
-0.000946392
0.020187
-0.00165461
0.0148089
-0.00229627
0.0100266
-0.00286459
0.00592359
-0.00337055
0.00267397
-0.00380705
0.000720574
-0.00381471
-0.00251099
0.0430834
0.00808669
-0.0505967
0.0359103
0.00697621
0.029131
0.00583292
0.0228453
0.00463111
0.017155
0.00339403
0.0120996
0.00219082
0.00766071
0.00106836
0.00384504
8.62643e-06
0.000978388
-0.000948042
-0.00153259
0.04535
0.0158859
-0.0531492
0.0379268
0.0143994
0.0308771
0.0128826
0.0242376
0.0112707
0.0181512
0.00948047
0.0128033
0.00753867
0.00827233
0.00559933
0.00453423
0.00374673
0.00162865
0.00195755
9.60584e-05
0.0454995
0.0239825
-0.0535961
0.0378871
0.0220118
0.0307623
0.0200074
0.0240382
0.0179947
0.0176835
0.0158352
0.0118926
0.0133296
0.00704149
0.0104504
0.00341481
0.00737341
0.00114638
0.00422599
0.00124244
0.044446
-0.0529545
0.0364952
0.0292316
0.0226353
0.0165103
0.0107435