# Selection   : all
# Cells       : 440
# Volume      : 7.374263e+01
# Time        	minMag(U)
3.6           	1.520832e-02
3.65          	1.442845e-02
3.7           	1.355338e-02
