/*--------------------------------*- C++ -*----------------------------------*\
  =========                 |
  \\      /  F ield         | OpenFOAM: The Open Source CFD Toolbox
   \\    /   O peration     | Website:  https://openfoam.org
    \\  /    A nd           | Version:  13
     \\/     M anipulation  |
\*---------------------------------------------------------------------------*/
FoamFile
{
    format      ascii;
    class       volVectorField;
    location    "57.7";
    object      U;
}
// * * * * * * * * * * * * * * * * * * * * * * * * * * * * * * * * * * * * * //

dimensions      [0 1 -1 0 0 0 0];

internalField   nonuniform List<vector> 
440
(
(-0.0986827 0.0730447 -5.89923e-20)
(-0.127291 0.0917044 1.38206e-20)
(0.0148188 0.0570526 1.17958e-19)
(0.407867 0.068925 3.91617e-20)
(0.434283 0.169023 2.36499e-20)
(-0.0977048 0.056963 3.26787e-20)
(0.0443507 0.0260533 -1.19631e-19)
(0.538585 -0.0257455 -1.09042e-19)
(1.08698 -0.0548688 5.63587e-20)
(1.61354 -0.0815667 1.00026e-20)
(-0.0246571 0.00921361 4.81751e-20)
(0.500686 -0.0374479 7.04371e-19)
(1.27627 -0.0316473 -4.26001e-19)
(1.87361 -0.0133089 -1.38413e-18)
(2.36071 0.0064609 5.90647e-19)
(0.190985 -0.0431066 -1.6912e-19)
(1.18475 0.0044849 -5.21705e-19)
(1.95037 0.0675396 1.67681e-18)
(2.36166 0.10475 1.83737e-18)
(2.4331 0.112659 -5.19724e-19)
(0.553013 -0.00493431 -2.83687e-19)
(1.71315 0.176407 -6.00599e-19)
(2.2448 0.248513 1.82447e-18)
(2.37815 0.256512 1.97221e-18)
(2.46198 0.233087 6.71827e-19)
(0.0198788 -0.261828 -7.90924e-20)
(-0.0302067 -0.333789 6.22699e-19)
(-0.0829394 -0.29241 -1.32106e-18)
(-0.0803173 -0.173381 3.3636e-19)
(-0.0564838 0.000659834 2.58641e-18)
(0.0141944 -0.113423 -1.79409e-20)
(-0.0823195 -0.0724709 -1.39626e-20)
(-0.187529 -0.117304 -1.49865e-19)
(-0.278418 -0.159973 -1.44075e-19)
(-0.34365 -0.095095 2.91337e-19)
(0.0244472 -0.0690258 3.98677e-19)
(-0.0299414 0.0567715 -1.3649e-19)
(-0.0878445 0.151351 2.29551e-19)
(-0.145202 0.163121 4.77382e-19)
(-0.178099 0.156778 -2.72298e-22)
(0.0311873 -0.0726099 2.62181e-21)
(-0.0328333 -0.0112028 6.85406e-20)
(-0.0913034 0.0962154 3.62612e-20)
(-0.136504 0.156825 -8.87033e-19)
(-0.129966 0.190993 2.39826e-19)
(-0.0359234 0.00812354 -4.64854e-20)
(-0.141455 0.0296471 -7.12458e-20)
(-0.202665 0.0805372 -2.39162e-19)
(-0.158308 0.127533 3.4616e-19)
(-0.0918744 0.205202 7.46147e-19)
(0.508593 1.22061 3.09828e-18)
(0.950291 -0.0351525 -1.16263e-18)
(0.88518 -1.38287 -1.20175e-19)
(1.22646 -0.366622 -2.82809e-19)
(1.34585 0.0700229 -3.96765e-20)
(-0.408869 0.856561 -1.60254e-18)
(1.37059 -0.113586 -1.19882e-19)
(1.53784 -1.29854 1.68383e-19)
(1.24341 -0.456632 8.11811e-19)
(1.34142 0.056107 7.46683e-20)
(-0.657468 0.590045 -9.28893e-19)
(1.83712 -0.389623 1.71645e-19)
(2.08609 -1.27214 -1.18593e-19)
(1.38211 -0.43264 1.20315e-18)
(1.32972 0.0688501 -7.72102e-21)
(-0.517762 0.444947 4.89087e-19)
(2.10053 -0.684467 -6.71165e-20)
(1.98296 -1.21856 2.79125e-19)
(1.3281 -0.374447 -6.15337e-19)
(1.27095 0.0750914 8.69625e-20)
(0.0545567 0.130458 -1.30228e-19)
(2.31674 -0.828194 2.54611e-20)
(1.99216 -1.10932 0)
(1.07799 -0.278951 2.23974e-19)
(1.13834 0.0968934 -1.94736e-20)
(1.39787 0.00657371 -3.05951e-19)
(2.64316 -0.788901 -9.46259e-20)
(1.96168 -0.94252 -2.63407e-20)
(1.0856 -0.241734 1.08409e-19)
(1.17907 0.0670293 2.26416e-20)
(2.03561 -0.0360372 -1.13413e-20)
(2.77933 -0.876373 1.1332e-18)
(1.44035 -0.640524 -1.69116e-20)
(0.659725 0.00026627 6.22537e-20)
(1.14307 0.054925 0)
(2.20836 -0.162388 -2.06806e-19)
(2.3611 -0.513779 -3.34225e-21)
(1.36229 -0.272334 2.8791e-20)
(0.93968 -0.0822586 -2.80007e-20)
(1.26769 -0.102281 1.18933e-20)
(2.27036 -0.152169 1.02282e-19)
(1.92704 -0.455659 1.95685e-19)
(0.960538 -0.12333 -1.96598e-20)
(1.10864 -0.00322484 -1.55447e-34)
(1.00049 -0.071889 1.43239e-20)
(1.42323 -0.128318 1.46879e-19)
(0.640882 0.03345 5.11143e-20)
(0.418013 0.0141157 1.80792e-20)
(0.368531 -0.0970614 9.59141e-21)
(0.0874482 -0.0330139 -1.38283e-20)
(2.36566 0.232311 -8.49368e-19)
(2.53697 0.0493331 -1.02566e-18)
(2.41441 0.0465885 7.85309e-19)
(2.59636 -0.0877821 3.85205e-20)
(2.07446 -0.0208689 -3.33317e-20)
(2.14879 0.138772 5.01602e-20)
(2.35113 0.074408 -3.73859e-20)
(2.27188 -0.0471898 -1.16681e-19)
(2.38529 -0.0612786 -2.13053e-19)
(2.33949 -0.251884 -3.06088e-21)
(2.07674 0.0669838 6.3703e-20)
(2.14881 0.0424158 9.70839e-20)
(2.17816 -0.052841 -1.14585e-19)
(2.19733 -0.0551225 3.8126e-20)
(2.23785 -0.16135 1.979e-20)
(1.99362 0.0271125 1.02966e-19)
(2.0517 0.00379215 1.23078e-19)
(2.08104 -0.0414111 -1.65051e-20)
(2.12883 -0.0556843 -3.91402e-20)
(2.13981 -0.110735 2.61983e-20)
(1.51957 -0.0185594 1.5411e-19)
(1.49445 -0.0202646 -1.06643e-20)
(1.52986 -0.0278527 2.04595e-20)
(1.48874 -0.0358866 -2.00965e-20)
(1.50973 -0.0401927 1.05803e-20)
(1.52311 0.838815 1.08929e-18)
(1.48165 0.932366 -3.49239e-19)
(1.48374 1.05746 -1.27695e-18)
(1.40854 1.09152 6.84818e-19)
(0.857096 0.766362 -1.61412e-19)
(1.8149 0.788104 -5.49084e-19)
(1.77635 0.858624 -2.885e-18)
(1.77575 0.959792 -1.10649e-18)
(1.68009 0.965989 -3.8099e-19)
(1.01436 0.661382 -6.10222e-19)
(2.10294 0.669412 7.26419e-19)
(2.0798 0.732076 1.85011e-19)
(2.05018 0.81218 -2.13868e-18)
(1.90588 0.794844 -5.88877e-19)
(1.11294 0.515405 4.33058e-19)
(2.27735 0.546419 2.1725e-18)
(2.25266 0.592624 1.58204e-18)
(2.23689 0.640753 -1.81825e-18)
(2.0152 0.597806 -1.36454e-18)
(1.09095 0.339316 -2.46362e-19)
(2.40927 0.395542 1.04811e-18)
(2.41328 0.416861 -7.47236e-19)
(2.31053 0.436445 5.3885e-19)
(1.97071 0.382457 4.20395e-19)
(0.911753 0.148833 -3.52673e-19)
(0.580324 0.438992 -6.89119e-19)
(0.489003 0.473996 -5.47786e-19)
(0.370174 0.508707 6.79461e-20)
(0.230277 0.506936 -1.80854e-20)
(0.0560466 0.354872 6.98363e-20)
(0.68035 0.59978 6.0854e-20)
(0.612944 0.651505 -3.15059e-19)
(0.520862 0.714209 1.71603e-19)
(0.394204 0.773223 -7.96991e-20)
(0.170156 0.590284 1.13968e-19)
(0.76196 0.819175 1.47253e-19)
(0.6908 0.900964 4.25235e-19)
(0.633485 0.992722 8.55384e-20)
(0.546997 1.02421 -2.81902e-19)
(0.298479 0.748037 2.31345e-19)
(1.03392 0.879821 2.1055e-19)
(0.983262 0.958474 -6.50768e-19)
(0.932226 1.05462 -1.80609e-18)
(0.848146 1.11722 7.21276e-19)
(0.49705 0.822536 -1.6181e-19)
(1.10344 0.938627 -1.03789e-19)
(1.13554 1.05372 -1.78098e-19)
(1.15567 1.16048 -3.40416e-19)
(1.09859 1.17853 -3.79771e-19)
(0.671911 0.833791 -6.07407e-21)
(1.0082 0.0384829 -7.86739e-20)
(1.0085 0.0187468 -2.70482e-20)
(1.04609 0.136515 -1.56964e-21)
(0.942551 0.115996 -1.43038e-19)
(0.90625 0.264181 2.84587e-19)
(0.995605 0.0354207 4.80044e-20)
(1.03022 0.0121661 1.05146e-19)
(1.02309 0.151563 1.08707e-19)
(0.978437 0.136077 1.66407e-20)
(0.940727 0.352537 6.45688e-21)
(1.00494 0.0333254 6.24091e-20)
(1.0149 0.00407288 -4.25757e-21)
(1.06192 0.171719 -2.52084e-21)
(0.930174 0.135875 1.26355e-19)
(1.13158 0.489901 -4.40804e-19)
(1.00419 0.0313709 -2.92278e-22)
(1.03334 -0.00629734 -1.56338e-19)
(1.03874 0.199139 -5.52401e-20)
(1.02113 0.125795 -3.21695e-19)
(1.15257 0.556264 8.23327e-20)
(1.01209 0.0218491 -9.32293e-21)
(1.0227 0.00134222 4.33682e-20)
(1.07085 0.198611 2.51336e-20)
(1.01205 0.153624 4.39342e-19)
(1.37251 0.684362 -4.4252e-19)
(0.990984 0.0207196 -1.5274e-21)
(1.07426 -0.0156587 8.92429e-20)
(1.02143 0.228686 -4.69994e-20)
(1.28575 0.0640227 9.16368e-19)
(1.27683 0.743078 -3.36906e-19)
(0.950352 -0.0100946 -1.34069e-21)
(1.14783 0.00200445 -7.45942e-20)
(0.913697 0.147167 4.55292e-21)
(1.39312 0.0546518 -3.15287e-19)
(1.20442 0.542235 -5.92756e-20)
(0.989698 -0.0261557 6.01311e-21)
(1.07729 0.0255747 1.29743e-35)
(1.03044 0.106715 9.36713e-22)
(1.33223 0.00205918 1.11278e-19)
(1.36192 0.372618 1.59901e-19)
(1.05288 -0.0549369 3.84809e-21)
(0.923688 0.0106221 -2.57924e-20)
(1.28708 0.0113199 1.95163e-20)
(1.12749 -0.0227898 2.20527e-20)
(1.45161 0.265901 -2.42729e-19)
(0.949059 -0.0210011 -3.82588e-20)
(0.785547 -0.0223363 -1.94349e-21)
(1.0101 -0.0112187 2.05253e-20)
(0.673906 -3.59913e-05 -2.13654e-20)
(1.09756 0.085956 -5.42709e-20)
(1.78049 0.640401 2.80825e-19)
(1.87691 0.648202 7.28676e-19)
(2.13347 0.522168 -1.02669e-18)
(2.20115 0.473232 2.17958e-20)
(2.39455 0.292996 4.19378e-19)
(1.7396 0.402309 7.18274e-20)
(1.75633 0.424108 9.1709e-19)
(1.99655 0.34519 1.04668e-19)
(1.98364 0.311139 -8.36929e-19)
(2.2158 0.210982 -2.69943e-19)
(1.68637 0.266101 -2.19123e-19)
(1.76489 0.26331 -1.39773e-19)
(1.8828 0.217388 1.76269e-19)
(1.93575 0.181848 -2.57551e-19)
(2.04253 0.133777 2.37529e-19)
(1.66004 0.183076 3.64282e-19)
(1.7471 0.166339 -1.00508e-21)
(1.81383 0.129535 1.97824e-19)
(1.88047 0.0997776 1.57698e-19)
(1.94404 0.0659924 -1.60155e-19)
(1.29903 0.0491136 -4.80525e-20)
(1.39063 0.0308098 2.28599e-19)
(1.41879 0.016347 9.09985e-20)
(1.47766 5.78357e-05 -1.92784e-19)
(1.47389 -0.00662273 4.08353e-22)
(1.32195 -0.0235658 8.42066e-20)
(2.37991 -0.0114246 -5.84827e-19)
(2.59713 -0.00360203 1.57443e-18)
(2.56519 0.0415371 7.34573e-19)
(2.32986 0.050795 -5.02617e-19)
(0.902123 0.114438 2.00066e-19)
(2.17522 0.145861 -6.59432e-19)
(2.58033 0.158149 -9.46448e-19)
(2.57948 0.163934 1.29996e-18)
(2.36977 0.15501 -9.68283e-19)
(0.359735 0.125395 3.00939e-21)
(1.61977 0.246668 8.29509e-19)
(2.33274 0.300322 1.24605e-19)
(2.61578 0.312852 1.43334e-18)
(2.57949 0.278975 7.96632e-19)
(0.0352479 0.027039 2.39518e-19)
(0.794358 0.212138 2.91197e-19)
(1.64574 0.335363 -1.01439e-18)
(2.16149 0.399661 1.07489e-19)
(2.58034 0.433201 1.01924e-18)
(-0.0657633 -0.0535448 1.77425e-19)
(0.200616 0.0769133 -2.24033e-19)
(0.825464 0.258515 -2.13609e-19)
(1.35208 0.385602 3.14226e-19)
(1.94772 0.545181 1.98358e-19)
(-0.0703185 -0.0839008 5.23366e-20)
(-0.0274787 -0.043801 1.02031e-19)
(0.258253 0.0694515 1.12568e-19)
(0.556792 0.243 -5.424e-19)
(1.21586 0.471359 6.31804e-21)
(-0.0547236 -0.0935568 -4.18002e-20)
(-0.0676967 -0.0918419 -2.87165e-20)
(0.0309314 -0.0107494 3.90031e-20)
(0.159437 0.167312 -7.01058e-20)
(0.512588 0.416824 2.15573e-22)
(-0.032659 -0.0656775 -3.74981e-20)
(-0.0398168 -0.0661802 2.36932e-19)
(0.0109581 0.0295297 -2.04149e-19)
(0.0580658 0.190125 -6.07625e-19)
(0.161575 0.412911 2.82551e-19)
(-0.0124394 -0.0964286 -3.01067e-20)
(0.0261015 -0.150453 -1.66728e-19)
(0.0992961 -0.0295328 4.14884e-19)
(0.189098 0.18719 2.03847e-19)
(0.291043 0.460925 -6.93307e-20)
(0.00646864 -0.237365 -1.36519e-20)
(0.049929 -0.335039 4.63378e-20)
(0.104229 -0.234827 -2.18524e-20)
(0.186665 -0.0404126 6.30227e-20)
(0.287084 0.197662 4.63215e-19)
(1.40497 0.744865 -7.29697e-20)
(-0.242073 0.158152 3.01514e-19)
(0.760292 -0.148313 -9.9266e-20)
(0.924643 -0.0177506 -2.13503e-19)
(0.7439 -0.00585303 1.63898e-21)
(1.19702 0.926892 1.68281e-19)
(-1.30322 0.231067 1.12251e-18)
(0.67978 -0.385693 1.22812e-18)
(1.12795 -0.0234069 -8.39679e-21)
(0.965192 0.025519 4.26911e-22)
(0.438108 1.11347 -9.4307e-19)
(-1.79588 0.150363 3.79491e-18)
(0.530295 -0.954774 1.49374e-19)
(1.16944 -0.081765 9.51031e-20)
(1.15107 0.0571857 2.57311e-20)
(0.332437 1.27688 9.99028e-19)
(-0.503567 0.022833 -3.7778e-18)
(0.569373 -1.21292 -5.13914e-19)
(1.10273 -0.181442 1.32461e-20)
(1.24271 0.0695257 -1.49902e-20)
(0.918119 1.4012 -5.89678e-20)
(0.764574 0.0355379 8.04328e-19)
(0.935288 -1.2305 -2.81993e-20)
(1.21563 -0.298935 -5.88502e-20)
(1.3316 0.0551811 -4.52251e-20)
(-0.240997 0.0751286 -5.95861e-20)
(-0.424657 -0.180446 0)
(-0.0370032 -0.0989938 -8.70027e-20)
(0.0866258 -0.0602272 7.49123e-20)
(0.344669 -0.023741 -1.91763e-20)
(1.6812 0.634859 0)
(0.602955 0.167539 0)
(0.804776 -0.0704206 3.27746e-19)
(0.64933 -0.0547616 1.74927e-19)
(0.598195 -0.0455734 1.51288e-20)
(0.740037 0.00608375 -1.29475e-19)
(0.79315 0.00181995 3.38731e-19)
(0.903118 0.0364396 -3.71984e-20)
(0.818503 0.0285194 4.02715e-19)
(1.14187 0.190976 2.28129e-19)
(1.67697 0.0429446 1.25247e-19)
(1.85226 0.0921771 5.23988e-19)
(1.92067 0.182884 -9.45047e-19)
(2.30593 0.272037 4.18682e-19)
(2.22596 0.462069 7.0566e-19)
(0.952548 -0.514121 1.0955e-20)
(0.944265 -0.610912 -2.04988e-19)
(0.940252 -0.715654 -1.64786e-19)
(0.873897 -0.791201 9.97883e-20)
(0.539442 -0.629833 1.46918e-19)
(0.847311 -0.418309 1.10261e-19)
(0.792003 -0.48789 1.61625e-19)
(0.718929 -0.56455 -9.83415e-20)
(0.607246 -0.633265 1.56323e-19)
(0.338584 -0.51188 4.64595e-20)
(0.678403 -0.280021 -1.16835e-19)
(0.591834 -0.325088 -6.22365e-20)
(0.491787 -0.380669 2.59537e-20)
(0.37188 -0.429399 -4.23312e-20)
(0.171881 -0.346761 -1.42706e-19)
(0.568615 -0.0482904 -4.33759e-19)
(0.482241 -0.0676332 -3.48333e-19)
(0.370709 -0.0954072 2.83835e-19)
(0.242065 -0.129474 1.45343e-19)
(0.0731145 -0.125105 1.29075e-20)
(0.537901 0.161572 -1.36706e-19)
(0.45115 0.159271 -1.54406e-19)
(0.332419 0.153501 -4.11987e-20)
(0.192523 0.152174 4.99549e-20)
(0.0320785 0.110399 1.37851e-20)
(2.13868 -0.0262628 9.59087e-19)
(2.37395 -0.0961995 3.45715e-19)
(2.47154 -0.186271 -8.76172e-19)
(2.35574 -0.213112 -1.85576e-18)
(1.4579 -0.206739 1.48568e-19)
(2.07933 -0.126741 1.54948e-18)
(2.19821 -0.241563 2.03773e-18)
(2.23197 -0.367952 1.71193e-19)
(2.16406 -0.429751 3.00468e-19)
(1.41293 -0.396398 -2.01117e-19)
(1.80261 -0.296736 -3.94188e-18)
(1.86198 -0.41841 4.37779e-19)
(1.91264 -0.550372 1.25546e-18)
(1.87009 -0.631924 -4.88916e-19)
(1.23484 -0.550979 7.79113e-19)
(1.56589 -0.426087 9.59209e-19)
(1.59321 -0.531304 -2.53714e-18)
(1.59377 -0.657047 -2.91108e-18)
(1.53562 -0.751943 9.05972e-19)
(1.00355 -0.632853 6.05314e-19)
(1.274 -0.492207 2.15435e-19)
(1.23172 -0.591668 2.85873e-19)
(1.22518 -0.720247 -4.50114e-19)
(1.17588 -0.814373 -5.45174e-19)
(0.755269 -0.659223 -5.18039e-21)
(1.06571 0.0497865 6.88845e-21)
(0.948105 0.0524641 1.62355e-21)
(1.12027 0.0786102 1.06543e-20)
(0.838566 -0.00575875 -2.67061e-19)
(1.13218 -0.221225 -2.19412e-20)
(1.075 0.0509556 -2.28553e-21)
(0.941981 0.0480147 2.16632e-20)
(1.12124 0.0970378 4.96751e-21)
(0.911325 0.0381313 2.39387e-19)
(1.02641 -0.107265 6.6431e-21)
(1.07193 0.0459595 -5.3891e-20)
(0.944579 0.0415684 -1.494e-22)
(1.10467 0.101616 -6.25712e-21)
(0.91138 0.0554224 1.38022e-19)
(0.982266 -0.0454962 -2.72831e-19)
(1.05201 0.0434263 6.35842e-20)
(0.967761 0.0342394 2.66257e-21)
(1.07247 0.109799 2.08722e-20)
(0.939963 0.0808588 -7.48562e-20)
(0.88384 0.0612224 5.70646e-20)
(1.02422 0.039532 1.56309e-20)
(0.998395 0.0294509 -2.21374e-20)
(1.04183 0.118869 3.32834e-20)
(0.959235 0.102856 2.6623e-20)
(0.855214 0.164983 -2.6522e-20)
(0.889342 0.033663 0)
(0.720409 0.0277603 8.55854e-21)
(0.608354 0.0211254 7.38199e-21)
(0.364871 -0.00834922 5.55599e-20)
(0.711767 -0.0560818 -1.78597e-19)
(1.03359 0.0719366 -6.25079e-20)
(0.9571 0.0701062 3.40904e-22)
(1.02882 0.0792627 -6.92622e-20)
(0.825938 -0.00938499 -1.58832e-19)
(1.07013 -0.204712 -1.90152e-19)
(0.988351 -0.069061 -4.14078e-20)
(1.08048 -0.0371584 5.96997e-19)
(1.184 0.0357874 3.51606e-19)
(1.05317 0.0576957 2.9569e-20)
(0.819377 0.0314244 0)
(1.34581 -0.325248 4.02845e-19)
(1.4675 -0.286298 1.6932e-18)
(1.6562 -0.163629 -1.82381e-18)
(1.75664 -0.0198551 -5.77637e-19)
(1.68351 0.0357594 4.41759e-19)
)
;

boundaryField
{
    left
    {
        type            fixedValue;
        value           uniform (1 0 0);
    }
    right
    {
        type            zeroGradient;
    }
    down
    {
        type            noSlip;
    }
    up
    {
        type            noSlip;
    }
    cylinder
    {
        type            noSlip;
    }
    defaultFaces
    {
        type            empty;
    }
}


// ************************************************************************* //
