/*--------------------------------*- C++ -*----------------------------------*\
  =========                 |
  \\      /  F ield         | OpenFOAM: The Open Source CFD Toolbox
   \\    /   O peration     | Website:  https://openfoam.org
    \\  /    A nd           | Version:  13
     \\/     M anipulation  |
\*---------------------------------------------------------------------------*/
FoamFile
{
    format      ascii;
    class       surfaceScalarField;
    location    "75.5";
    object      phi;
}
// * * * * * * * * * * * * * * * * * * * * * * * * * * * * * * * * * * * * * //

dimensions      [0 3 -1 0 0 0 0];

internalField   nonuniform List<scalar> 
823
(
-0.0046476
0.0183339
-0.0136863
0.00908153
0.0101034
-0.0238325
0.0664187
-0.0371412
-0.020196
0.162212
-0.0990119
0.00321857
-0.136142
-0.000378839
0.298733
0.00654216
0.0117918
0.0563245
-0.039679
0.151289
-0.132106
0.266843
-0.214566
-0.287589
0.41829
0.0246322
-0.0128404
0.113647
-0.128694
0.226597
-0.245055
0.333666
-0.321635
-0.364389
0.410466
0.0460631
-0.0589035
0.143497
-0.226128
0.225991
-0.32755
0.274513
-0.370156
-0.38271
0.292834
0.0583122
-0.117216
0.127678
-0.295494
0.165601
-0.365473
0.179613
-0.384168
0.187411
-0.390508
-0.0264316
-0.014726
0.0411576
-0.0699918
-0.00616959
0.0497298
-0.103342
-0.00284157
0.0361922
-0.117158
0.00338304
0.0104325
0.0181322
-0.116428
-0.0188618
-0.0159149
0.00118885
-0.0514066
0.0293221
-0.0958687
0.0416205
-0.136259
0.0437734
0.047078
-0.165205
0.00425195
-0.0030631
0.0111662
0.0224079
0.00874762
0.0440391
-0.00154538
0.0540664
0.0577001
-0.0121675
-0.00153135
-0.00153174
0.00710772
0.0137688
0.0203872
0.0307597
0.0365407
0.0379128
0.0416966
0.0525443
-0.0152181
-0.0252818
-0.0147181
0.0264133
0.0677311
0.252471
1.35087
-1.71977
0.393734
-0.312912
0.171649
0.425649
-1.86638
1.83447
0.55506
-0.398686
0.269274
0.168865
-0.141815
0.187274
0.998395
0.461249
-0.586887
0.454792
-1.85992
0.538898
-0.482792
0.180276
0.299128
0.687099
0.658411
-0.94617
0.591079
-1.79259
0.537912
-0.429625
0.197203
0.335339
0.404304
0.639982
-1.25081
0.582192
-1.7348
0.510616
-0.358049
0.20689
0.387978
0.0840569
0.5785
-1.44133
0.499049
-1.65535
0.428118
-0.287118
0.178159
1.31728
-0.0819355
-1.15129
1.33062
-1.45467
0.920545
-1.24528
0.690202
-0.056775
0.132845
1.51144
-0.211658
-1.38171
1.18431
-1.12755
0.618033
-0.679
0.556423
0.00483466
-0.0370125
1.41572
-0.290668
-1.33671
1.05686
-0.768686
0.656023
-0.278166
0.698177
-0.0373196
-0.135684
1.27611
-0.265265
-1.30151
0.825295
-0.31787
0.615274
-0.0681441
0.666497
-0.0885425
-0.0928278
0.623349
-0.888614
0.305479
0.237335
0.148792
1.09054
0.147106
-1.05023
1.15842
0.224951
1.2662
0.302685
1.28233
0.402166
0.429771
1.01214
0.0913603
-0.956391
1.08038
0.156706
1.17421
0.208858
1.27851
0.29786
0.326571
0.948627
0.0491927
-0.906459
1.01093
0.0944034
1.09205
0.127735
1.21211
0.177801
0.201976
0.908998
0.0131319
-0.872937
0.971795
0.0316064
1.05419
0.0453395
1.17076
0.0612262
0.071226
0.679216
-0.666085
0.710823
0.756162
0.817388
0.127915
0.295945
-0.243102
-0.180757
0.0841661
0.299779
-0.256031
0.0461642
0.309262
-0.27126
0.0151284
0.298966
-0.26793
0.190211
-0.175083
0.0985674
0.331839
-0.134461
0.0630315
0.335315
0.0319529
0.340341
0.00750505
0.323414
0.197716
0.0638825
0.365122
-0.0971657
0.0334199
0.365778
0.00762187
0.366139
-0.00599128
0.337027
0.191725
-0.00954875
0.381534
-0.00686302
-0.0264122
0.382641
-0.0345505
0.374277
-0.0266162
0.329093
0.165109
-0.0887696
0.079795
-0.0902961
-0.0814917
-0.047893
0.202766
0.101853
-0.256423
-0.0481957
0.148449
0.105582
-0.0512655
0.0925387
0.109948
-0.0540376
0.037799
0.109479
-0.0547392
0.0767635
-0.0389645
0.196246
0.146324
-0.240716
0.148817
0.153011
0.096399
0.162366
0.0409972
0.164881
0.117761
0.13731
0.190843
-0.181829
0.0963159
0.194005
0.057
0.201682
0.0205156
0.201365
0.138276
0.152925
0.222966
-0.185049
0.114059
0.232871
0.0702362
0.245505
0.0273085
0.244293
0.165585
0.0820502
-0.102186
0.0588912
0.0331355
0.00949777
0.406766
0.0444853
-0.0552719
0.428311
0.0178795
-0.0394242
0.410474
0.202381
-0.184544
0.39862
0.176705
-0.164851
0.455867
-0.313671
0.405598
0.0348673
0.421458
0.00201877
0.399015
0.224824
0.388603
0.187116
0.603755
0.40008
0.0307672
0.414745
-0.012647
0.37645
0.26312
0.374811
0.188755
0.796737
0.398485
0.0282621
0.396914
-0.0110766
0.36333
0.296704
0.354146
0.197939
0.965834
0.390649
0.0335927
0.381028
-0.00145609
0.335256
0.342477
0.325435
0.20776
1.18908
0.627966
0.00964729
0.631138
-0.00462851
0.682014
0.291601
0.785435
0.104339
0.993315
0.981203
0.641019
-0.0273515
0.61185
0.0245407
0.706704
0.196748
0.767883
0.0431592
0.753649
1.00755
0.633477
-0.0568082
0.625377
0.0326404
0.734653
0.0874716
0.790456
-0.0126437
0.53169
1.01242
0.611249
-0.064037
0.656168
-0.0122779
0.748292
-0.00465292
0.748094
-0.0124461
0.276473
1.00331
0.539983
0.527705
0.523053
0.510606
0.787079
1.01914
-0.218699
1.0102
-0.12552
1.01572
-0.102686
1.01419
-0.00532945
0.0437507
0.968547
-0.179697
0.950421
-0.107393
0.930382
-0.0826471
0.939041
-0.0139882
0.0264011
0.94344
-0.110722
0.914078
-0.078031
0.887749
-0.0563179
0.892597
-0.0188366
0.0125389
0.934789
-0.0422001
0.891748
-0.0349903
0.862955
-0.0275244
0.859455
-0.015337
-0.000943038
0.744879
0.709889
0.682365
0.667028
0.0478189
0.171461
-0.21928
0.0693427
0.354877
-0.376401
0.068292
0.404717
-0.403666
0.0592491
0.402879
-0.393836
0.368623
0.0472247
-0.356599
0.073649
0.0978121
0.139542
0.288985
0.16835
0.375908
0.172142
0.399087
0.381635
0.15913
0.0660492
0.0317629
0.17455
0.180484
0.25361
0.296848
0.295715
0.356982
0.387529
0.289821
0.0349624
-0.00319952
0.141786
0.073661
0.258689
0.179945
0.362007
0.253664
0.328112
0.421425
0.0104143
-0.0136139
0.0721616
0.0119137
0.175266
0.0768397
0.289235
0.139696
0.224219
0.393128
0.00110509
-0.014719
0.0232304
-0.0102115
0.0816829
0.0183872
0.162596
0.0587823
0.131093
0.255722
-0.00212287
-0.0125961
-6.01054e-05
-0.0122743
0.0122881
0.00603897
0.0376391
0.0334314
0.0784775
0.090255
0.00127242
-0.0138685
0.00615035
-0.0171522
0.00889551
0.0032938
0.00519447
0.0371325
0.078631
0.005041
0.0157756
-0.0296441
0.0372115
-0.0385881
0.0580092
-0.0175039
0.0773599
0.0177818
0.0596143
0.0963765
0.0115135
0.0226552
0.0413435
0.0695578
0.11031
0.105398
1.25782
-1.1075
0.104969
0.210502
-0.210073
0.343625
-0.401988
0.163333
0.310347
0.0337022
-0.000424242
-0.00376671
0.0440984
-0.119584
1.46766
-0.0720614
0.162979
0.406695
-0.880745
0.411249
0.0291491
0.0470789
-0.342004
1.8147
-0.177547
-0.00147755
0.404533
-1.46282
0.486549
-0.0528676
0.0909229
-0.0446309
1.95571
0.0539889
-0.100097
0.374222
-1.78306
0.509907
-0.188553
0.11408
0.34625
0.417801
0.46921
0.549932
-0.145291
0.615677
-0.470386
-0.114871
-0.0304199
0.0196644
-0.134535
0.102779
-0.0831144
-0.0640468
0.593776
-1.0856
0.353283
0.38208
0.298542
0.0883979
-0.0107552
-0.0776428
0.139203
-0.0508046
0.219724
-0.0805214
0.346872
-0.127148
-0.123515
0.20408
-0.167611
0.312406
0.521705
0.815983
0.144524
-0.146406
0.176961
-0.17508
0.110447
-0.152749
0.186827
0.0713943
-0.161107
0.200159
0.0291864
-0.162143
0.204351
-0.115407
0.144593
0.186712
-0.106046
-0.227071
0.141472
-0.107509
0.0904023
-0.110037
0.0375969
-0.109337
-0.0778099
0.191981
-0.0558179
-0.242209
0.140469
-0.0559971
0.0876586
-0.057227
0.0358416
-0.0575203
-0.0419683
0.204011
-0.00350386
-0.256325
0.15099
-0.00297686
0.0963563
-0.00259297
0.040756
-0.00192003
-0.00121227
0.207709
-0.259409
0.153467
0.096836
0.0401768
0.0471729
-0.335944
-0.0678277
0.0201615
-0.366825
-0.00382566
-0.379679
-0.0149487
-0.365278
-0.234229
0.129424
-0.303232
-0.162136
0.0861272
-0.323528
0.0428696
-0.336421
0.00955965
-0.331968
-0.224669
0.149155
-0.261464
-0.190923
0.10475
-0.279123
0.0614002
-0.293071
0.0220753
-0.292643
-0.202594
0.167866
-0.224764
-0.204566
0.123792
-0.23505
0.076365
-0.245644
0.030587
-0.246865
-0.172007
0.163636
-0.211439
0.115413
0.0699282
0.0274136
0.392716
0.0937568
-0.0904928
0.393172
0.0938685
-0.0943251
0.359278
0.155572
-0.121678
0.305701
0.0422444
0.011333
-0.226585
0.357206
0.400061
0.089675
0.408305
0.085625
0.397244
0.166634
0.353083
0.0864055
-0.100574
0.404863
0.0807915
0.417746
0.0727416
0.411314
0.173066
0.376977
0.120742
0.0341941
0.408281
0.0684899
0.423766
0.0572571
0.419993
0.176839
0.395062
0.145673
0.172932
0.409198
0.42703
0.419325
0.400148
0.417085
0.0929657
0.333825
0.08326
0.248059
0.0857661
0.259756
-0.0116973
-0.194795
0.454551
0.512524
0.501459
0.465547
0.465183
0.627593
0.365325
0.0892262
0.285429
0.0798965
0.191308
0.0941211
0.11127
0.0800373
0.0336275
0.505381
0.380712
0.28391
0.201811
)
;

boundaryField
{
    left
    {
        type            calculated;
        value           nonuniform List<scalar> 
17
(
-0.60402
-0.60402
-0.60402
-0.60402
-0.60402
-0.39598
-0.39598
-0.39598
-0.39598
-0.39598
-0.39598
-0.39598
-0.39598
-0.39598
-0.39598
-0.510051
-0.510051
)
;
    }
    right
    {
        type            calculated;
        value           nonuniform List<scalar> 
17
(
0.166826
0.278593
0.270015
0.360403
0.442705
0.48675
0.522196
0.528011
0.527487
0.520985
0.500929
0.456849
0.735516
0.726281
0.796849
0.623641
0.0559645
)
;
    }
    down
    {
        type            calculated;
        value           uniform 0;
    }
    up
    {
        type            calculated;
        value           uniform 0;
    }
    cylinder
    {
        type            calculated;
        value           uniform 0;
    }
    defaultFaces
    {
        type            empty;
    }
}


// ************************************************************************* //
