/*--------------------------------*- C++ -*----------------------------------*\
  =========                 |
  \\      /  F ield         | OpenFOAM: The Open Source CFD Toolbox
   \\    /   O peration     | Website:  https://openfoam.org
    \\  /    A nd           | Version:  13
     \\/     M anipulation  |
\*---------------------------------------------------------------------------*/
FoamFile
{
    format      ascii;
    class       volVectorField;
    location    "0.575";
    object      U;
}
// * * * * * * * * * * * * * * * * * * * * * * * * * * * * * * * * * * * * * //

dimensions      [0 1 -1 0 0 0 0];

internalField   nonuniform List<vector> 
440
(
(0.19184 -0.156448 -2.7659e-19)
(0.977558 -0.654831 3.89996e-19)
(1.41499 -0.876213 9.64961e-19)
(1.58298 -0.91148 -1.62119e-18)
(1.55628 -0.866147 6.48692e-20)
(0.368842 -0.202797 1.04735e-19)
(1.32864 -0.611666 -8.07158e-19)
(1.77576 -0.756681 -7.90797e-19)
(1.90611 -0.76229 2.45416e-19)
(1.90071 -0.736453 1.26384e-19)
(0.603218 -0.208391 2.99279e-20)
(1.67301 -0.491077 3.13956e-18)
(2.07325 -0.564621 -2.46993e-18)
(2.14592 -0.564485 -5.77432e-18)
(2.08853 -0.526774 1.8928e-18)
(0.857857 -0.144404 -3.63153e-19)
(1.95727 -0.284633 -1.71368e-18)
(2.28266 -0.300771 4.4688e-18)
(2.30086 -0.29857 4.034e-18)
(2.23132 -0.282754 -1.10343e-18)
(1.08817 -0.0102528 -7.71945e-19)
(2.1467 -0.0281648 -1.34875e-18)
(2.38225 -0.0153745 3.35351e-18)
(2.35703 -0.0365135 3.19557e-18)
(2.27551 -0.0371541 9.86308e-19)
(-0.0155452 -0.00410947 2.918e-20)
(0.00897304 -0.153696 -2.84525e-19)
(0.109701 -0.256744 4.41478e-19)
(0.212133 -0.296683 -7.53909e-20)
(0.31927 -0.313055 -5.1594e-19)
(-0.0172952 0.0106753 1.19281e-19)
(0.0779754 -0.276197 3.69611e-19)
(0.231765 -0.471048 9.33044e-20)
(0.352164 -0.544523 5.25348e-20)
(0.47288 -0.575228 -4.9752e-20)
(-0.011816 0.00174354 -6.13104e-19)
(0.208806 -0.405228 -6.43141e-19)
(0.443347 -0.664964 -2.6817e-19)
(0.593264 -0.759143 1.14655e-18)
(0.725334 -0.788459 -1.96807e-20)
(0.0155963 -0.0361367 -2.21544e-19)
(0.407929 -0.530159 3.75e-19)
(0.731095 -0.817024 -5.92703e-19)
(0.911004 -0.913028 -1.31193e-18)
(1.02839 -0.923017 2.16108e-19)
(0.0790214 -0.0948204 1.31038e-19)
(0.66673 -0.62365 -6.13212e-20)
(1.06017 -0.896549 -5.81574e-19)
(1.24842 -0.970045 7.71334e-19)
(1.30857 -0.948761 1.7748e-18)
(0.657118 -0.204526 -7.78605e-20)
(0.882878 -0.114505 6.04106e-20)
(0.960542 -0.0685537 -1.03073e-22)
(0.991274 -0.0396432 -5.64907e-21)
(1.0054 -0.0144547 -2.94022e-21)
(0.685898 -0.324267 2.16648e-19)
(0.904623 -0.156219 -2.53038e-21)
(0.972509 -0.0847143 -9.97449e-21)
(0.998962 -0.0458804 -1.24381e-21)
(1.01015 -0.016305 6.36042e-21)
(0.745362 -0.421588 1.94375e-19)
(0.933699 -0.195646 1.05047e-19)
(0.987929 -0.0996796 6.24217e-21)
(1.00807 -0.0513792 8.0896e-21)
(1.0154 -0.0178587 -3.20483e-21)
(0.851592 -0.494729 -3.59799e-19)
(0.966521 -0.232403 1.33059e-21)
(1.00548 -0.112792 -1.76487e-20)
(1.01808 -0.0557504 -7.51864e-21)
(1.02101 -0.018978 9.81859e-22)
(1.01969 -0.542568 -5.03838e-20)
(1.01067 -0.268057 -9.44451e-20)
(1.02471 -0.127489 0)
(1.02827 -0.0603296 1.22589e-20)
(1.02667 -0.0199313 2.48906e-21)
(1.33807 -0.520281 2.33665e-20)
(1.13949 -0.264246 3.55405e-20)
(1.07652 -0.125951 1.00374e-21)
(1.04975 -0.059172 3.58774e-21)
(1.03568 -0.0194588 -8.05248e-21)
(1.39762 -0.338367 4.99232e-20)
(1.16947 -0.180137 -8.02034e-20)
(1.09685 -0.0940561 2.09609e-22)
(1.06341 -0.0474626 -1.6724e-20)
(1.04337 -0.0160456 0)
(1.45212 -0.240765 8.63812e-22)
(1.21308 -0.132923 3.91148e-21)
(1.12009 -0.0698916 -1.9039e-20)
(1.07612 -0.0354422 6.60334e-21)
(1.0498 -0.0119807 -3.13431e-21)
(1.47084 -0.128571 -6.49394e-20)
(1.22804 -0.0754559 6.19156e-21)
(1.12745 -0.0415535 -1.10384e-21)
(1.07915 -0.0219173 1.71664e-35)
(1.04988 -0.00751252 -3.79077e-21)
(1.26907 -0.0195348 -7.85397e-21)
(1.08361 -0.0129569 -5.72941e-21)
(1.00277 -0.00807258 2.67757e-21)
(0.961141 -0.00448362 -1.28019e-21)
(0.934891 -0.00153227 5.9057e-22)
(2.08392 -0.0429181 -1.16682e-18)
(2.08595 -0.20595 -1.30473e-18)
(1.9522 -0.438586 1.27191e-18)
(1.89523 -0.52393 -1.86992e-19)
(1.63513 -0.751766 -6.37256e-20)
(1.94373 -0.0254062 1.10415e-21)
(1.96684 -0.0891812 -3.04669e-20)
(1.88172 -0.256996 -5.49317e-20)
(1.84184 -0.272721 -1.46563e-19)
(1.70964 -0.461064 7.12748e-21)
(1.85786 -0.0267909 4.01708e-20)
(1.86575 -0.0596423 1.06177e-19)
(1.81668 -0.171192 -1.5395e-19)
(1.76945 -0.172204 3.62519e-20)
(1.68813 -0.293839 9.60684e-20)
(1.79078 -0.0276902 7.9621e-20)
(1.79379 -0.0417494 3.63532e-20)
(1.77005 -0.0965635 -6.78077e-21)
(1.72632 -0.0933349 7.72987e-20)
(1.67765 -0.152885 -1.17034e-20)
(1.49162 -0.0182336 1.10111e-19)
(1.47066 -0.0150553 -8.79496e-21)
(1.45224 -0.0222264 1.4854e-20)
(1.41099 -0.0137606 9.40901e-21)
(1.39892 -0.0251786 4.47817e-20)
(1.42797 0.735364 9.29567e-19)
(1.40921 0.839436 -2.73989e-19)
(1.42297 0.967675 -1.14217e-18)
(1.37759 1.02951 6.56016e-19)
(0.864071 0.77664 -1.76506e-19)
(1.72451 0.652258 -5.09354e-19)
(1.72258 0.747817 -2.65847e-18)
(1.73887 0.864027 -1.06268e-18)
(1.68823 0.911951 -4.09396e-19)
(1.06477 0.696155 -6.80286e-19)
(1.97022 0.548338 7.11224e-19)
(1.9955 0.629032 1.9364e-19)
(2.02374 0.729146 -2.18346e-18)
(1.95912 0.744327 -6.91236e-19)
(1.22489 0.562948 5.74707e-19)
(2.14502 0.399702 2.37702e-18)
(2.1992 0.455191 1.81874e-18)
(2.24285 0.532082 -2.18462e-18)
(2.14388 0.522548 -1.91354e-18)
(1.29016 0.380797 -4.07618e-19)
(2.24686 0.200965 1.3021e-18)
(2.3204 0.228181 -9.67856e-19)
(2.36502 0.275093 7.64666e-19)
(2.20859 0.255192 7.47858e-19)
(1.24122 0.177418 -8.2568e-19)
(0.524896 0.287815 -5.98613e-19)
(0.452182 0.30925 -5.51591e-19)
(0.347186 0.334939 8.83164e-20)
(0.219332 0.353079 -4.59092e-20)
(0.0559348 0.268929 5.38394e-20)
(0.615605 0.483565 8.74749e-20)
(0.54883 0.529503 -2.85538e-19)
(0.45594 0.586945 1.52851e-19)
(0.336045 0.632486 -6.92673e-20)
(0.140717 0.486011 9.8949e-20)
(0.744789 0.658521 2.82604e-19)
(0.686288 0.725042 3.10539e-19)
(0.617054 0.804767 -2.5812e-20)
(0.518827 0.858227 -2.05933e-19)
(0.276255 0.653088 1.57847e-19)
(0.959038 0.749128 1.2923e-19)
(0.917809 0.831693 -3.29703e-19)
(0.871028 0.928175 -1.31208e-18)
(0.788904 0.999389 5.83742e-19)
(0.464793 0.766099 -1.87964e-19)
(1.09266 0.8085 -1.23747e-19)
(1.10377 0.916612 -1.94628e-19)
(1.11431 1.02787 -2.55422e-19)
(1.06542 1.08184 -3.10669e-19)
(0.661304 0.812623 -5.4189e-21)
(0.759553 0.0253085 -9.19331e-20)
(1.17988 0.0508313 -3.56951e-20)
(0.89996 0.0754799 -4.60014e-21)
(0.941777 0.107363 -3.08248e-19)
(0.771907 0.184124 2.68266e-19)
(0.758564 0.0209967 7.6818e-20)
(1.18094 0.0554537 1.21352e-19)
(0.908602 0.0870866 1.09714e-19)
(0.953913 0.143203 6.00159e-20)
(0.842287 0.265448 1.1334e-20)
(0.75693 0.0174958 9.50316e-20)
(1.18091 0.0588138 -4.20329e-21)
(0.919737 0.0981378 5.32061e-21)
(0.970257 0.172174 1.40147e-19)
(0.957688 0.357395 -4.39712e-19)
(0.754439 0.0151794 -5.8195e-21)
(1.18017 0.0605265 -1.51212e-19)
(0.931534 0.107819 -5.3536e-20)
(1.00212 0.189609 -3.94396e-19)
(1.08817 0.409556 8.31621e-20)
(0.750713 0.0158692 -2.83177e-20)
(1.18045 0.0615828 3.90979e-20)
(0.942216 0.116249 2.53959e-20)
(1.03378 0.21068 4.06765e-19)
(1.21839 0.525419 -4.36287e-19)
(0.745131 0.015051 -4.58853e-21)
(1.19735 0.0573382 6.87251e-20)
(0.961329 0.113233 -8.591e-20)
(1.12224 0.192428 7.30657e-19)
(1.25015 0.523174 -3.51821e-19)
(0.744829 0.00704816 -5.77075e-21)
(1.21013 0.0465434 -6.29892e-20)
(0.98737 0.0929419 2.14507e-21)
(1.1602 0.16176 -2.15711e-19)
(1.34767 0.3714 2.74323e-20)
(0.744898 0.00135184 -3.99684e-21)
(1.22168 0.0324029 7.84732e-36)
(1.00855 0.0695499 -4.70492e-20)
(1.18934 0.115132 7.1341e-20)
(1.40106 0.263482 1.39754e-19)
(0.744066 -0.0148101 1.1473e-20)
(1.22696 0.0150638 -1.08996e-20)
(1.02043 0.0430388 1.02871e-20)
(1.20624 0.0708512 4.00402e-20)
(1.42589 0.154329 -2.21158e-19)
(0.710328 -0.0150662 -3.96269e-20)
(1.11569 -0.00334428 -1.35398e-21)
(0.913916 0.0113015 1.81162e-20)
(1.09886 0.0147446 -9.80776e-21)
(1.29032 0.0367043 -5.10832e-20)
(1.56338 0.513919 2.8654e-19)
(1.7173 0.468421 6.61752e-19)
(1.8796 0.399685 -9.90796e-19)
(1.99963 0.291249 6.72285e-20)
(2.07875 0.150973 3.8541e-19)
(1.58335 0.332837 6.72336e-20)
(1.67158 0.312456 8.76602e-19)
(1.77568 0.26175 8.9544e-20)
(1.86099 0.178236 -8.06702e-19)
(1.93429 0.0933791 -2.55525e-19)
(1.60032 0.19501 -1.96679e-19)
(1.66377 0.173656 -1.27264e-19)
(1.72935 0.142483 1.59425e-19)
(1.79166 0.0946716 -2.5167e-19)
(1.84659 0.0487023 2.11664e-19)
(1.59002 0.10774 2.90485e-19)
(1.64139 0.0915024 -5.27124e-21)
(1.68525 0.0729106 1.79776e-19)
(1.73135 0.0431072 1.52398e-19)
(1.77427 0.014651 -1.38962e-19)
(1.43802 0.0184782 -3.48176e-20)
(1.46893 0.0093744 1.86494e-19)
(1.48194 0.00129228 8.12089e-20)
(1.49358 -0.00720899 -1.70024e-19)
(1.49902 -0.0126187 7.5928e-22)
(1.64213 -0.0474578 7.71773e-20)
(2.76441 0.0509708 -7.85479e-19)
(2.90374 0.0425179 1.98493e-18)
(2.81412 0.105861 9.4909e-19)
(2.55589 0.10728 -5.8385e-19)
(1.21074 0.113599 2.55805e-19)
(2.60508 0.23424 -1.0052e-18)
(2.93373 0.231058 -1.23326e-18)
(2.92221 0.236662 1.65707e-18)
(2.6791 0.210558 -1.09302e-18)
(0.557087 0.140333 -8.35257e-20)
(2.07052 0.372547 1.34872e-18)
(2.67812 0.414587 2.53592e-19)
(2.81303 0.422264 2.23499e-18)
(2.84207 0.350085 1.43001e-18)
(0.068909 0.0325451 4.69255e-19)
(1.32065 0.428504 6.95506e-19)
(2.09541 0.587631 -2.65748e-18)
(2.38261 0.602735 2.34503e-19)
(2.53866 0.59557 1.28286e-18)
(-0.124347 -0.0852918 7.38244e-19)
(0.695081 0.403742 -8.23344e-19)
(1.38944 0.696439 -5.33171e-19)
(1.7769 0.767527 1.12972e-18)
(1.83665 0.74578 2.92354e-19)
(-0.141397 -0.132362 3.83124e-19)
(0.324779 0.344548 5.43228e-19)
(0.824176 0.678606 1.16376e-18)
(1.15151 0.807468 -1.49904e-18)
(1.3306 0.817839 1.01655e-19)
(-0.10267 -0.127458 -3.08991e-19)
(0.141277 0.261422 -3.25774e-19)
(0.46323 0.550611 -1.43807e-19)
(0.693686 0.679344 -3.30298e-19)
(0.892236 0.724666 -1.177e-19)
(-0.0623639 -0.100896 -2.15285e-19)
(0.047723 0.167814 5.33012e-19)
(0.242307 0.374455 -8.49677e-19)
(0.395999 0.46474 -1.66015e-18)
(0.556801 0.512825 5.21693e-19)
(-0.0342972 -0.0666875 -6.36736e-20)
(-0.000428793 0.0681085 -2.38969e-19)
(0.117861 0.176601 5.73611e-19)
(0.231177 0.22138 9.34545e-19)
(0.354615 0.25223 -8.07475e-20)
(-0.0195363 -0.0327309 2.7942e-20)
(-0.0141572 -0.0389021 -7.74967e-20)
(0.0738618 -0.0366123 2.63049e-20)
(0.172868 -0.035781 -1.16226e-20)
(0.278688 -0.0291894 -1.84375e-19)
(0.917128 0.335254 1.55153e-19)
(0.911391 0.085854 7.26724e-20)
(0.946093 0.00876553 -4.38771e-21)
(0.972537 -0.00736668 3.36036e-22)
(0.990743 -0.00410805 9.04001e-22)
(0.745149 0.253965 1.43064e-19)
(0.894833 0.0344163 -2.2828e-19)
(0.948079 -0.0112774 -3.758e-20)
(0.975737 -0.014486 1.74991e-21)
(0.99287 -0.00622329 -3.21778e-21)
(0.674982 0.171205 1.4825e-19)
(0.88329 0.0091927 -1.18887e-19)
(0.9466 -0.0196352 -6.8386e-21)
(0.977392 -0.0195789 8.23452e-21)
(0.994988 -0.00814029 3.88947e-21)
(0.649978 0.0586178 -2.79767e-20)
(0.871876 -0.0322356 2.62551e-19)
(0.947534 -0.0361277 4.60066e-21)
(0.980493 -0.0263087 -1.20598e-21)
(0.997782 -0.0102878 1.09455e-21)
(0.646751 -0.0722062 4.45991e-21)
(0.871709 -0.0724506 -3.40467e-20)
(0.952236 -0.0520947 -1.25377e-23)
(0.985111 -0.0330001 5.55395e-21)
(1.00126 -0.0124108 2.20023e-21)
(0.7588 -0.064092 -1.74144e-19)
(0.786442 -0.0322376 0)
(0.806883 -0.00874547 -5.05688e-21)
(0.824143 -0.00248064 7.23425e-21)
(0.837389 -0.000637283 -3.37475e-21)
(1.36878 0.200823 0)
(1.04721 0.0363248 0)
(0.977118 0.0026471 3.99059e-20)
(0.973304 -0.00500871 1.11529e-20)
(0.984349 -0.00255071 -6.08652e-23)
(0.823221 0.0132679 -1.11871e-19)
(0.851524 0.0126044 7.95135e-20)
(0.866278 0.027577 1.1522e-19)
(1.02192 0.0253334 7.42428e-19)
(1.01745 0.0499949 2.18312e-19)
(1.88283 0.0815314 1.05923e-19)
(2.01574 0.131393 2.92614e-19)
(2.17889 0.219714 -5.4963e-19)
(2.43567 0.307933 3.32897e-19)
(2.09468 0.521852 1.19621e-19)
(0.937641 -0.54527 1.21381e-19)
(0.945513 -0.656084 -2.27106e-19)
(0.96129 -0.777996 -2.69008e-19)
(0.917202 -0.860939 1.59619e-19)
(0.569514 -0.679989 1.40222e-19)
(0.863966 -0.44508 7.33161e-20)
(0.820964 -0.521904 5.7332e-20)
(0.760404 -0.613619 -1.30138e-19)
(0.660338 -0.702141 1.39172e-19)
(0.370762 -0.566937 2.07266e-20)
(0.661732 -0.328195 -6.29044e-20)
(0.59494 -0.383297 -4.99036e-20)
(0.511208 -0.451868 -2.59032e-20)
(0.400221 -0.506984 -5.71849e-20)
(0.188728 -0.395528 -1.21255e-19)
(0.552662 -0.133418 -3.39892e-19)
(0.483025 -0.165031 -2.92505e-19)
(0.38332 -0.207202 2.4903e-19)
(0.259167 -0.245687 1.28367e-19)
(0.0849772 -0.194925 1.10299e-20)
(0.503608 0.0721967 -1.29867e-19)
(0.430019 0.0674993 -1.47739e-19)
(0.322507 0.0600147 -4.01166e-20)
(0.193057 0.0519321 5.73855e-20)
(0.0369045 0.0369948 1.54942e-20)
(2.49595 0.0194754 1.06171e-18)
(2.67805 -0.0504744 4.24471e-19)
(2.74234 -0.161239 -1.05993e-18)
(2.67904 -0.184323 -2.53024e-18)
(1.74645 -0.256799 1.64759e-19)
(2.33051 -0.0924105 1.76308e-18)
(2.42126 -0.220859 2.25847e-18)
(2.46412 -0.365655 1.90186e-19)
(2.43945 -0.441793 3.3237e-19)
(1.65169 -0.47691 -2.3415e-19)
(2.04053 -0.272626 -4.33696e-18)
(2.07108 -0.39216 4.58031e-19)
(2.09567 -0.538708 1.38657e-18)
(2.07414 -0.651127 -5.93956e-19)
(1.40495 -0.630464 9.73123e-19)
(1.73247 -0.403025 1.03712e-18)
(1.72029 -0.512283 -2.79211e-18)
(1.71267 -0.650048 -3.28189e-18)
(1.67316 -0.773275 1.07221e-18)
(1.10405 -0.694817 6.78237e-19)
(1.37705 -0.477445 2.68768e-19)
(1.31287 -0.583906 2.76055e-19)
(1.30522 -0.72791 -5.20122e-19)
(1.26416 -0.845144 -6.28627e-19)
(0.807489 -0.701689 -6.25288e-21)
(0.754153 0.0342065 -5.64322e-22)
(1.15761 0.0250391 -6.76774e-21)
(0.889192 0.00783904 -3.05322e-20)
(0.918629 -0.0288699 -1.21635e-19)
(1.10441 -0.230614 -1.7235e-20)
(0.757141 0.0375299 -2.96252e-21)
(1.16223 0.0298426 4.24756e-20)
(0.893984 0.0236469 -7.6248e-20)
(0.915154 -0.0144868 7.58009e-20)
(0.985231 -0.113848 2.52005e-21)
(0.758952 0.0362305 -3.67059e-20)
(1.16799 0.034623 5.39133e-22)
(0.893681 0.0367307 -1.83319e-20)
(0.910264 0.000947341 4.5835e-21)
(0.882611 -0.0690742 -2.15783e-19)
(0.759831 0.0335416 7.41382e-20)
(1.17319 0.0398782 3.18096e-21)
(0.893243 0.0504291 3.47483e-20)
(0.92029 0.0326525 5.27217e-20)
(0.786549 0.0226216 7.77669e-20)
(0.759985 0.0296426 1.47526e-20)
(1.17727 0.045423 -2.93224e-20)
(0.894851 0.0633967 4.00577e-20)
(0.930939 0.0692208 6.95234e-20)
(0.752328 0.0983279 -6.66834e-20)
(0.700014 0.0219326 0)
(1.00938 0.0114859 5.71546e-21)
(0.749675 -0.000100244 -5.01872e-21)
(0.857591 -0.00723188 5.26492e-20)
(1.00659 -0.0370952 -1.64363e-19)
(0.749871 0.0388439 -3.66387e-20)
(1.1607 0.0219876 -1.99486e-20)
(0.88476 0.00202751 4.27158e-21)
(0.98632 -0.0273304 -1.34703e-19)
(1.09551 -0.216433 -1.64327e-19)
(1.3766 -0.0586184 -3.45278e-20)
(1.46181 -0.0305469 6.13143e-19)
(1.5776 0.0492322 3.9143e-19)
(1.38466 0.0863826 -4.70147e-22)
(1.01275 0.0485071 0)
(1.5362 -0.295712 3.83891e-19)
(1.69472 -0.261815 1.79101e-18)
(1.93096 -0.144769 -2.06249e-18)
(2.07117 0.0152204 -6.97517e-19)
(2.00894 0.0766677 4.86549e-19)
)
;

boundaryField
{
    left
    {
        type            fixedValue;
        value           uniform (1 0 0);
    }
    right
    {
        type            zeroGradient;
    }
    down
    {
        type            noSlip;
    }
    up
    {
        type            noSlip;
    }
    cylinder
    {
        type            noSlip;
    }
    defaultFaces
    {
        type            empty;
    }
}


// ************************************************************************* //
