/*--------------------------------*- C++ -*----------------------------------*\
  =========                 |
  \\      /  F ield         | OpenFOAM: The Open Source CFD Toolbox
   \\    /   O peration     | Website:  https://openfoam.org
    \\  /    A nd           | Version:  13
     \\/     M anipulation  |
\*---------------------------------------------------------------------------*/
FoamFile
{
    format      ascii;
    class       volVectorField;
    location    "57.4";
    object      U;
}
// * * * * * * * * * * * * * * * * * * * * * * * * * * * * * * * * * * * * * //

dimensions      [0 1 -1 0 0 0 0];

internalField   nonuniform List<vector> 
440
(
(-0.0958415 0.0692293 -6.21471e-20)
(-0.120441 0.0821409 1.44576e-20)
(0.0357208 0.0464729 1.19018e-19)
(0.447886 0.0480076 3.47898e-20)
(0.499792 0.14015 2.32552e-20)
(-0.0999486 0.0580562 4.23775e-20)
(0.0553216 0.0206521 -1.205e-19)
(0.573914 -0.0350423 -1.18741e-19)
(1.13393 -0.0668749 6.82689e-20)
(1.67498 -0.0962479 1.49955e-20)
(-0.0224076 0.00754918 5.34537e-20)
(0.531609 -0.0434966 7.38656e-19)
(1.32761 -0.0415056 -4.58667e-19)
(1.92997 -0.0247877 -1.50257e-18)
(2.41049 -0.010869 6.38847e-19)
(0.200654 -0.0453688 -1.73831e-19)
(1.22622 0.00261645 -5.46825e-19)
(1.99632 0.063877 1.78081e-18)
(2.39893 0.0975491 1.95658e-18)
(2.45593 0.105681 -5.57449e-19)
(0.573526 -0.0043517 -2.93696e-19)
(1.75449 0.178549 -6.25902e-19)
(2.28486 0.248551 1.90606e-18)
(2.41366 0.255142 2.05082e-18)
(2.49911 0.230421 6.93584e-19)
(-0.0350212 -0.0671368 -1.18236e-19)
(-0.217032 -0.0645666 5.17598e-19)
(-0.373235 -0.0618624 -7.65249e-19)
(-0.461265 0.0304348 1.32482e-19)
(-0.494545 0.161798 9.53068e-19)
(-0.03434 0.150551 -1.20975e-20)
(-0.137923 0.360048 -1.46791e-20)
(-0.242624 0.359921 -8.00568e-20)
(-0.329247 0.300694 -7.66739e-20)
(-0.393945 0.296713 1.38974e-19)
(-0.0210597 0.0739563 2.21843e-19)
(-0.0613581 0.345744 -1.47542e-19)
(-0.0858388 0.508527 1.39836e-19)
(-0.0981962 0.560592 2.28116e-19)
(-0.0710824 0.552206 2.78978e-21)
(0.00912464 -0.0202118 -2.63171e-20)
(-0.0389571 0.122046 9.22222e-20)
(-0.0611232 0.28836 -8.37541e-21)
(-0.0561477 0.390353 -6.70094e-19)
(-0.00860913 0.449107 1.56884e-19)
(-0.0325551 0.0114333 -3.685e-20)
(-0.124855 0.0564504 -5.60664e-20)
(-0.170171 0.125801 -2.14779e-19)
(-0.0952841 0.184103 2.34496e-19)
(-0.0126258 0.279279 2.94452e-19)
(-0.412759 0.976314 2.87431e-18)
(1.22134 -0.410401 1.04198e-18)
(1.01434 -1.24702 4.02169e-20)
(1.42636 -0.0383473 -4.89909e-19)
(1.31003 0.155736 -1.88432e-20)
(-0.711755 0.647708 -9.91103e-19)
(1.37911 -0.63202 -4.05457e-19)
(0.857313 -1.29266 1.59817e-19)
(1.36645 -0.126361 -3.21768e-20)
(1.31924 0.159619 4.5985e-20)
(-0.364982 0.51485 -6.73346e-19)
(2.00916 -0.705756 1.39201e-18)
(1.46342 -1.24332 -1.40597e-19)
(1.30426 -0.178495 3.25699e-19)
(1.30039 0.173279 -8.45341e-21)
(-0.0951041 0.378895 6.84223e-19)
(2.31696 -0.859441 -8.68346e-20)
(1.87932 -1.17261 1.15148e-19)
(1.25329 -0.179755 -5.15224e-19)
(1.25326 0.16506 3.96867e-20)
(0.545116 0.0423245 -1.68594e-19)
(2.45113 -0.980927 4.19916e-19)
(1.91541 -1.04926 0)
(0.954743 -0.0710943 2.79061e-19)
(1.15838 0.173896 -4.17892e-21)
(1.62793 -0.0890726 -3.4579e-19)
(2.67288 -0.87957 -1.06538e-19)
(1.89204 -0.891622 -2.62427e-20)
(0.934046 -0.049785 1.78741e-19)
(1.23779 0.110081 -3.99701e-20)
(2.12728 -0.162566 -7.75072e-22)
(2.6802 -0.941109 1.19998e-18)
(1.14366 -0.526737 -1.36172e-20)
(0.640817 0.163083 1.2627e-19)
(1.26905 0.0537169 0)
(2.2023 -0.256412 -2.02179e-19)
(2.30204 -0.481163 -7.03858e-22)
(1.08265 -0.217234 9.83726e-21)
(0.991371 -0.0214489 -1.01522e-19)
(1.38039 -0.115481 6.64722e-21)
(2.25563 -0.231383 9.19618e-20)
(1.76088 -0.422626 1.61579e-19)
(0.851182 -0.0483765 -1.67721e-20)
(1.20813 -0.00893493 -1.85141e-34)
(1.05823 -0.0935622 1.08885e-20)
(1.32385 -0.117875 1.68516e-19)
(0.536616 0.0515825 2.30803e-20)
(0.464916 -0.0074994 8.95442e-21)
(0.408575 -0.102062 2.46681e-20)
(0.0853696 -0.0285256 -1.30962e-20)
(2.36887 0.226066 -8.72588e-19)
(2.56408 0.0354164 -1.06434e-18)
(2.422 0.0397765 8.16879e-19)
(2.64896 -0.116326 3.55534e-20)
(2.09554 -0.0293911 -2.96492e-20)
(2.12701 0.151848 4.2724e-20)
(2.36263 0.0375209 -3.75701e-20)
(2.2528 -0.0350073 -1.17402e-19)
(2.40272 -0.100709 -2.15644e-19)
(2.32945 -0.250508 -3.0843e-21)
(2.08001 0.0799245 6.15202e-20)
(2.15407 0.0240441 9.91263e-20)
(2.18262 -0.0469127 -1.23044e-19)
(2.20048 -0.0823239 3.96759e-20)
(2.24128 -0.166948 2.28828e-20)
(2.02526 0.0253159 1.03159e-19)
(2.07037 -0.013549 1.16781e-19)
(2.11071 -0.0475836 -1.68818e-20)
(2.14384 -0.0825705 -2.96485e-20)
(2.16015 -0.12421 2.7074e-20)
(1.54802 -0.0219749 1.49554e-19)
(1.50553 -0.0226207 -1.11097e-20)
(1.54858 -0.0355638 2.30638e-20)
(1.48037 -0.0392296 -1.57814e-20)
(1.51425 -0.0539887 2.09178e-20)
(1.53122 0.823643 1.10191e-18)
(1.48772 0.918934 -3.62055e-19)
(1.48994 1.04688 -1.30293e-18)
(1.41494 1.08582 6.94411e-19)
(0.859436 0.765377 -1.59676e-19)
(1.83037 0.78022 -5.53851e-19)
(1.79129 0.851501 -2.89924e-18)
(1.78987 0.953934 -1.11338e-18)
(1.69577 0.965865 -3.84998e-19)
(1.02674 0.668903 -6.20874e-19)
(2.11881 0.659641 7.24219e-19)
(2.10069 0.727534 1.87478e-19)
(2.07337 0.81269 -2.1577e-18)
(1.9319 0.799301 -6.03467e-19)
(1.13486 0.525276 4.49259e-19)
(2.29867 0.541902 2.17615e-18)
(2.2754 0.590091 1.60913e-18)
(2.26526 0.642224 -1.86319e-18)
(2.04993 0.603586 -1.40943e-18)
(1.11726 0.347812 -2.56994e-19)
(2.42722 0.39177 1.07428e-18)
(2.44503 0.41605 -7.68715e-19)
(2.34846 0.439237 5.56176e-19)
(2.01147 0.387365 4.38122e-19)
(0.938145 0.154079 -3.70496e-19)
(0.578412 0.455042 -6.7524e-19)
(0.486566 0.490485 -5.27672e-19)
(0.367717 0.525502 6.28348e-20)
(0.228514 0.523377 -1.33742e-20)
(0.055765 0.366049 7.23955e-20)
(0.676221 0.612652 6.44166e-20)
(0.609095 0.664599 -3.05706e-19)
(0.518028 0.727757 1.70768e-19)
(0.39309 0.786133 -7.95727e-20)
(0.170496 0.597272 1.13576e-19)
(0.762685 0.833277 1.40158e-19)
(0.692538 0.914932 4.25035e-19)
(0.635856 1.00466 9.47876e-20)
(0.548865 1.03168 -2.85453e-19)
(0.298848 0.750143 2.36984e-19)
(1.03074 0.880908 2.0956e-19)
(0.980509 0.958714 -6.64755e-19)
(0.932765 1.057 -1.81977e-18)
(0.85171 1.12288 7.2386e-19)
(0.499267 0.826087 -1.58061e-19)
(1.0988 0.952128 -9.41083e-20)
(1.13307 1.06639 -1.67993e-19)
(1.15369 1.1711 -3.51051e-19)
(1.09708 1.18393 -3.89847e-19)
(0.670153 0.833139 -6.16382e-21)
(1.01031 0.0373769 -7.88847e-20)
(1.00892 0.0257753 -2.62194e-20)
(1.0436 0.139177 -1.53662e-21)
(0.94199 0.124249 -1.37261e-19)
(0.907326 0.277314 2.85928e-19)
(0.998467 0.0337658 4.8378e-20)
(1.02992 0.0204729 1.01621e-19)
(1.01989 0.153529 1.09594e-19)
(0.982435 0.144922 1.80503e-20)
(0.937959 0.365705 9.24459e-22)
(1.00852 0.0316637 6.31115e-20)
(1.0126 0.0128892 -4.18047e-21)
(1.06063 0.173923 -2.5005e-21)
(0.931372 0.143791 1.19469e-19)
(1.13261 0.505955 -4.55801e-19)
(1.00841 0.0295804 -2.78268e-22)
(1.02862 0.00318483 -1.5082e-19)
(1.03664 0.200607 -5.4607e-20)
(1.02734 0.133031 -3.13982e-19)
(1.15716 0.573412 7.88074e-20)
(1.01636 0.0206462 -9.43777e-21)
(1.01397 0.0106863 4.36915e-20)
(1.07339 0.198425 2.46055e-20)
(1.01896 0.159665 4.20462e-19)
(1.36815 0.698842 -4.58951e-19)
(0.995871 0.0211599 -1.91893e-21)
(1.05986 -0.00643281 9.27101e-20)
(1.02982 0.226936 -4.37106e-20)
(1.28338 0.0727698 9.22035e-19)
(1.27042 0.770777 -3.22701e-19)
(0.955181 -0.00828974 -1.33687e-21)
(1.12864 0.010066 -7.5069e-20)
(0.92898 0.144363 4.53412e-21)
(1.39843 0.0589297 -3.32393e-19)
(1.24714 0.55514 -7.46245e-20)
(0.986697 -0.0199615 7.27767e-21)
(1.0675 0.0310372 1.28441e-35)
(1.05638 0.0932517 -1.46924e-21)
(1.35349 0.00207732 1.15151e-19)
(1.3779 0.37694 1.59812e-19)
(1.04035 -0.0476649 3.85862e-21)
(0.94973 0.00741587 -2.46823e-20)
(1.29554 -0.00254687 1.98036e-20)
(1.11441 -0.0126335 2.15829e-20)
(1.45072 0.282802 -2.42033e-19)
(0.944236 -0.0208096 -3.74029e-20)
(0.81164 -0.02432 -1.52601e-21)
(0.99017 -0.00998568 2.31652e-20)
(0.664698 0.00423611 -2.22658e-20)
(1.11706 0.0869621 -5.44685e-20)
(1.7967 0.617106 2.72175e-19)
(1.88085 0.63431 7.22225e-19)
(2.14813 0.50135 -1.01898e-18)
(2.20012 0.461718 1.68716e-20)
(2.4069 0.278452 4.18289e-19)
(1.78841 0.400427 8.32e-20)
(1.77119 0.435436 9.34282e-19)
(2.03766 0.338972 1.06576e-19)
(1.97265 0.322946 -8.33704e-19)
(2.23944 0.185852 -2.69557e-19)
(1.69984 0.277166 -2.17482e-19)
(1.7655 0.283801 -1.38824e-19)
(1.89686 0.22308 1.99111e-19)
(1.93498 0.200386 -2.57696e-19)
(2.0541 0.125989 2.38574e-19)
(1.65857 0.187929 3.64124e-19)
(1.75627 0.174518 -6.21108e-23)
(1.82421 0.125367 1.96864e-19)
(1.90375 0.103153 1.55943e-19)
(1.96233 0.0545374 -1.58724e-19)
(1.32353 0.047505 -4.86628e-20)
(1.42283 0.0289657 2.28416e-19)
(1.44733 0.0136232 9.0568e-20)
(1.51192 -0.00167356 -1.90509e-19)
(1.49822 -0.00906712 5.13495e-22)
(1.27098 -0.0206266 8.23537e-20)
(2.30913 -0.0172455 -5.4779e-19)
(2.52772 -0.00844617 1.48007e-18)
(2.50106 0.0341034 6.84753e-19)
(2.28363 0.0479168 -4.73335e-19)
(0.85847 0.112073 1.89129e-19)
(2.10151 0.13623 -6.09051e-19)
(2.51505 0.146561 -8.733e-19)
(2.51941 0.152553 1.18503e-18)
(2.30038 0.140374 -8.74471e-19)
(0.341307 0.119748 5.43679e-21)
(1.542 0.230791 7.57107e-19)
(2.25053 0.278047 1.10227e-19)
(2.55575 0.284852 1.24393e-18)
(2.55209 0.258027 6.81105e-19)
(0.0340224 0.0250719 2.24345e-19)
(0.730355 0.193607 2.68441e-19)
(1.55113 0.30377 -9.09027e-19)
(2.05202 0.360853 9.42053e-20)
(2.50226 0.389072 8.75603e-19)
(-0.0548006 -0.0431582 1.59361e-19)
(0.181665 0.0737528 -2.03933e-19)
(0.753297 0.232524 -1.99697e-19)
(1.24945 0.338801 2.78319e-19)
(1.80952 0.484784 1.7038e-19)
(-0.0589057 -0.069402 5.73597e-20)
(-0.0324884 -0.0376539 8.56661e-20)
(0.202922 0.057715 1.15235e-19)
(0.476043 0.20959 -5.22621e-19)
(1.03488 0.385029 6.78031e-21)
(-0.0343891 -0.0515968 -4.08404e-20)
(-0.040209 -0.0308593 -4.71258e-20)
(0.0385196 0.0502956 2.23356e-20)
(0.141839 0.208212 -6.43496e-20)
(0.407805 0.419031 3.02409e-21)
(-0.012838 -0.0392709 -1.80461e-20)
(0.0183521 -0.0533597 2.65297e-19)
(0.0824972 0.0413704 -1.48346e-19)
(0.135115 0.188705 -5.51188e-19)
(0.219734 0.390622 1.79325e-19)
(-0.0172532 -0.179068 1.60221e-20)
(0.0354453 -0.240274 7.26018e-20)
(0.121715 -0.0780593 -1.65574e-19)
(0.217319 0.162556 -5.00142e-19)
(0.313659 0.403748 1.15254e-20)
(-0.0176603 -0.2823 -4.82204e-20)
(-0.0539005 -0.298921 1.58176e-19)
(-0.0492929 -0.157997 -5.63748e-20)
(-0.000275189 0.0126566 -2.76534e-20)
(0.0732085 0.197007 3.45323e-19)
(1.28515 0.738268 -9.46835e-20)
(-0.238634 0.0727041 6.16433e-19)
(1.02997 -0.115549 -9.60189e-20)
(0.859614 0.0550488 -3.07585e-20)
(0.647998 -0.0163014 1.61877e-21)
(0.987129 0.958146 1.91663e-19)
(-1.18106 0.0715489 1.31055e-18)
(1.02549 -0.312869 5.16407e-19)
(1.12378 0.0992098 1.10525e-20)
(0.86454 0.0215593 -1.81341e-20)
(0.449259 1.07283 -1.14357e-18)
(-1.57608 -0.126483 3.08203e-18)
(0.820392 -0.797798 1.08438e-19)
(1.30518 0.0992528 -4.46393e-19)
(1.07786 0.0679233 1.65479e-20)
(0.714175 1.24115 1.05358e-18)
(-0.403811 -0.197602 -6.90268e-19)
(0.636027 -1.15314 -3.57107e-19)
(1.30502 0.0507722 3.30567e-21)
(1.20409 0.109134 8.23001e-21)
(0.701013 1.33752 -2.13809e-19)
(1.04037 -0.118117 7.63875e-19)
(1.09483 -1.1277 -5.31451e-20)
(1.37862 -0.038017 -2.24147e-20)
(1.29771 0.119569 4.57033e-21)
(-0.190897 0.0962471 -9.73313e-20)
(-0.39722 -0.167683 0)
(0.0743887 -0.0958786 -6.39184e-20)
(0.0357907 -0.0495183 5.44502e-20)
(0.322833 -0.0234173 -1.56129e-20)
(1.63563 0.624272 0)
(0.5678 0.126456 0)
(0.986222 -0.0448594 3.21549e-19)
(0.550935 -0.0260513 7.61862e-20)
(0.531495 -0.0547017 1.48324e-20)
(0.730365 0.00472224 -1.29936e-19)
(0.766066 0.000466588 3.14165e-19)
(0.911152 0.027884 -4.55003e-20)
(0.823875 0.0256253 3.89276e-19)
(1.17481 0.166351 2.31911e-19)
(1.65103 0.0390576 1.25109e-19)
(1.79494 0.0870001 4.79257e-19)
(1.89841 0.153423 -8.65717e-19)
(2.29944 0.257229 3.57991e-19)
(2.1838 0.395807 6.28294e-19)
(0.933631 -0.500156 -4.83965e-22)
(0.923713 -0.594456 -1.94829e-19)
(0.916914 -0.696323 -1.49066e-19)
(0.849285 -0.769055 9.04056e-20)
(0.523114 -0.61016 1.42467e-19)
(0.827571 -0.402504 1.1167e-19)
(0.772678 -0.470724 1.77493e-19)
(0.701001 -0.546426 -8.54918e-20)
(0.591133 -0.613852 1.53496e-19)
(0.328663 -0.49548 4.97661e-20)
(0.668693 -0.263666 -1.20425e-19)
(0.583369 -0.307313 -6.09382e-20)
(0.483409 -0.360841 4.66554e-20)
(0.362933 -0.407985 -3.52273e-20)
(0.165823 -0.330574 -1.39578e-19)
(0.561591 -0.0314011 -4.3093e-19)
(0.475179 -0.0491308 -3.48492e-19)
(0.363733 -0.0747299 2.84702e-19)
(0.235739 -0.10721 1.52764e-19)
(0.0691619 -0.108468 1.3304e-20)
(0.532749 0.177028 -1.38803e-19)
(0.446148 0.175637 -1.54184e-19)
(0.327964 0.171736 -4.51082e-20)
(0.188786 0.17277 4.363e-20)
(0.0301459 0.125881 1.29928e-20)
(2.07705 -0.0302296 9.13375e-19)
(2.3191 -0.0974836 3.20461e-19)
(2.41444 -0.184716 -8.22424e-19)
(2.29121 -0.211159 -1.73305e-18)
(1.40852 -0.198333 1.43617e-19)
(2.03215 -0.124306 1.47723e-18)
(2.14442 -0.237115 1.95412e-18)
(2.17485 -0.360707 1.64952e-19)
(2.10431 -0.421232 2.90747e-19)
(1.36674 -0.381652 -1.93807e-19)
(1.75364 -0.290967 -3.77717e-18)
(1.81668 -0.41095 4.13767e-19)
(1.86852 -0.540092 1.2012e-18)
(1.82147 -0.618174 -4.59258e-19)
(1.1972 -0.532709 7.32407e-19)
(1.52803 -0.417665 9.13455e-19)
(1.55478 -0.520774 -2.42543e-18)
(1.55329 -0.643347 -2.7715e-18)
(1.49338 -0.734406 8.55244e-19)
(0.973079 -0.612948 5.79368e-19)
(1.24216 -0.4804 2.01982e-19)
(1.203 -0.578014 2.77042e-19)
(1.19742 -0.703676 -4.27653e-19)
(1.14686 -0.794433 -5.1663e-19)
(0.734398 -0.639424 -4.8645e-21)
(1.06832 0.0500491 6.90519e-21)
(0.945316 0.0556325 1.32782e-21)
(1.1158 0.0807962 1.06338e-20)
(0.831576 -0.00111144 -2.61845e-19)
(1.1066 -0.210929 -2.11784e-20)
(1.07749 0.0510901 -2.29144e-21)
(0.939925 0.0519367 2.22843e-20)
(1.11764 0.0992235 3.27183e-21)
(0.90697 0.0454184 2.34734e-19)
(1.0083 -0.0969248 5.64354e-21)
(1.07443 0.0458919 -5.38861e-20)
(0.942687 0.0465193 -1.6973e-22)
(1.10211 0.1035 -7.0378e-21)
(0.909054 0.0637843 1.38895e-19)
(0.967648 -0.0348873 -2.63213e-19)
(1.0542 0.043143 6.36647e-20)
(0.966627 0.0398511 2.69781e-21)
(1.07064 0.111973 2.13892e-20)
(0.937037 0.089332 -7.44623e-20)
(0.876213 0.0716189 5.97635e-20)
(1.02626 0.038888 1.56255e-20)
(0.998194 0.0358305 -2.19044e-20)
(1.03975 0.120725 3.3955e-20)
(0.95837 0.112529 2.50249e-20)
(0.8507 0.17641 -4.09122e-20)
(0.890351 0.0337516 0)
(0.71782 0.0279781 8.809e-21)
(0.601764 0.0214901 7.34825e-21)
(0.355746 -0.00692775 5.33802e-20)
(0.68929 -0.054204 -1.73031e-19)
(1.0358 0.0722687 -6.28301e-20)
(0.954301 0.0722186 -9.64114e-22)
(1.02221 0.0809284 -6.78361e-20)
(0.817209 -0.00624162 -1.56692e-19)
(1.04799 -0.195796 -1.84982e-19)
(0.95468 -0.0682992 -4.01806e-20)
(1.04564 -0.0356923 5.78299e-19)
(1.144 0.0354931 3.39185e-19)
(1.01728 0.0550784 3.10661e-20)
(0.7905 0.02983 0)
(1.30989 -0.318231 3.88576e-19)
(1.42861 -0.280661 1.62961e-18)
(1.61079 -0.159621 -1.74992e-18)
(1.71143 -0.0202774 -5.48925e-19)
(1.62829 0.0324215 4.23778e-19)
)
;

boundaryField
{
    left
    {
        type            fixedValue;
        value           uniform (1 0 0);
    }
    right
    {
        type            zeroGradient;
    }
    down
    {
        type            noSlip;
    }
    up
    {
        type            noSlip;
    }
    cylinder
    {
        type            noSlip;
    }
    defaultFaces
    {
        type            empty;
    }
}


// ************************************************************************* //
