/*--------------------------------*- C++ -*----------------------------------*\
  =========                 |
  \\      /  F ield         | OpenFOAM: The Open Source CFD Toolbox
   \\    /   O peration     | Website:  https://openfoam.org
    \\  /    A nd           | Version:  13
     \\/     M anipulation  |
\*---------------------------------------------------------------------------*/
FoamFile
{
    format      ascii;
    class       volScalarField;
    location    "58";
    object      p;
}
// * * * * * * * * * * * * * * * * * * * * * * * * * * * * * * * * * * * * * //

dimensions      [0 2 -2 0 0 0 0];

internalField   nonuniform List<scalar> 
440
(
-0.562788
-0.548119
-0.557276
-0.509672
-0.56321
-0.605117
-0.588678
-0.568781
-0.542254
-0.522165
-0.708439
-0.677158
-0.640363
-0.594263
-0.541514
-0.834804
-0.787894
-0.705986
-0.607422
-0.507818
-0.926032
-0.863419
-0.722729
-0.575663
-0.439491
-1.20203
-1.21255
-1.23859
-1.28327
-1.34381
-1.08641
-1.113
-1.17079
-1.26445
-1.41536
-0.842173
-0.83971
-0.838702
-0.838069
-0.828323
-0.637586
-0.631671
-0.617083
-0.581842
-0.529265
-0.488248
-0.483941
-0.463781
-0.410076
-0.347844
-1.3287
-1.55516
-1.10262
0.457718
-0.00871045
-0.947617
-1.26253
-1.00224
0.313193
-0.0124239
-0.693215
-1.06105
-0.855679
0.133615
-0.0412139
-0.482181
-1.12515
-0.709342
0.0382343
-0.0636412
-0.327561
-1.18457
-0.592395
-0.00721625
-0.0542955
-0.103399
-1.11696
-0.448547
-0.055025
-0.0450869
-0.0114615
-0.80633
-0.272419
-0.0622732
-0.0679522
0.0541273
-0.542042
-0.216103
-0.0479559
-0.0278964
0.106224
-0.358156
-0.196355
-0.0649708
-0.0491424
0.187186
-0.229058
-0.223143
-0.0728881
-0.0360201
-0.201995
-0.321318
-0.440793
-0.577635
-0.632237
0.0351228
-0.0824687
-0.14185
-0.177763
-0.163334
0.18661
0.0958169
0.0388428
0.00711678
-0.0118515
0.28286
0.19882
0.13292
0.0998405
0.074792
0.328042
0.241994
0.176064
0.146665
0.134037
1.03277
0.888592
0.707067
0.506082
0.285388
0.645539
0.490947
0.301607
0.0881676
-0.147211
0.260085
0.10174
-0.0949653
-0.318226
-0.529143
-0.0676064
-0.230417
-0.427129
-0.639043
-0.801611
-0.298875
-0.45588
-0.635579
-0.822439
-0.927498
2.13824
2.17039
2.20091
2.21821
2.21795
1.95906
1.98153
1.99967
2.0014
1.98212
1.74393
1.73425
1.70304
1.65026
1.57275
1.4988
1.46635
1.39973
1.30327
1.17934
1.2681
1.17138
1.04424
0.89633
0.718472
1.88615
1.88126
1.8585
1.92956
2.01567
1.8774
1.87086
1.84168
1.91204
1.93516
1.86972
1.85723
1.82182
1.88279
1.83127
1.86332
1.84115
1.80033
1.83795
1.6744
1.8582
1.8243
1.77784
1.79342
1.50703
1.85472
1.79882
1.74887
1.68808
1.31413
1.8554
1.76961
1.74486
1.57508
1.38712
1.86005
1.75776
1.74421
1.51543
1.41177
1.85982
1.73008
1.742
1.45547
1.41729
1.89625
1.72579
1.7414
1.42123
1.44015
1.01108
0.733371
0.411449
0.139822
-0.0580165
0.930632
0.734582
0.520292
0.330715
0.160645
0.926476
0.758291
0.596757
0.442106
0.304506
0.967747
0.80811
0.66064
0.520978
0.397892
1.01088
0.852667
0.706493
0.568254
0.443585
-1.76524
-1.58162
-1.37806
-1.20744
-1.10218
-1.86892
-1.77394
-1.59813
-1.43647
-1.32049
-1.80959
-1.7477
-1.61311
-1.47227
-1.34393
-1.66515
-1.61434
-1.53472
-1.43148
-1.31682
-1.50845
-1.48413
-1.4426
-1.37632
-1.27814
-1.41135
-1.40484
-1.38052
-1.38718
-1.28317
-1.34578
-1.34729
-1.33532
-1.36422
-1.28153
-1.26019
-1.2569
-1.24863
-1.26156
-1.22317
-1.18859
-1.1698
-1.14789
-1.1279
-1.112
-1.18184
-1.16796
-1.1529
-1.14335
-1.14135
-0.770171
-0.999049
0.0714052
0.450947
0.0517427
-0.802703
-1.04592
0.0596943
0.522856
0.0445539
-0.911385
-1.25855
-0.439152
0.574286
0.00910182
-1.17563
-1.65901
-0.936356
0.57933
-0.000824271
-1.40984
-1.79992
-1.09711
0.544129
-0.00556753
-0.478925
-1.11709
-0.0184015
0.364275
0.0612716
-0.734084
-1.0136
0.062862
0.405558
0.0649961
-1.04145
-1.23251
-1.23536
-1.11449
-0.885483
-1.06348
-1.25543
-1.25184
-1.16404
-1.05213
1.70519
1.67625
1.62875
1.56349
1.47695
1.91443
1.9319
1.93301
1.91569
1.88035
2.09269
2.12404
2.14748
2.15799
2.15358
2.19936
2.23849
2.2796
2.31248
2.3268
2.21344
2.25122
2.29323
2.32827
2.34453
-0.612488
-0.734743
-0.925242
-1.15182
-1.42573
0.0296181
-0.119437
-0.317672
-0.557684
-0.867844
0.621626
0.468366
0.283708
0.065084
-0.212657
1.09749
0.977284
0.831773
0.655081
0.438403
1.47874
1.39413
1.28412
1.15215
0.995531
1.94458
1.90565
1.88493
1.88452
1.87942
1.92987
1.90384
1.88584
1.90583
1.95369
1.91753
1.90079
1.88617
1.92938
2.03848
1.90615
1.89632
1.88109
1.93938
2.05478
1.89567
1.89025
1.87157
1.93963
2.05394
1.99947
1.90997
1.86981
1.80331
1.73666
1.95445
1.90136
1.86582
1.82686
1.7526
1.35554
1.10901
0.688316
0.0822955
-0.572837
1.44263
1.14493
0.70565
0.103294
-0.566668
)
;

boundaryField
{
    left
    {
        type            zeroGradient;
    }
    right
    {
        type            fixedValue;
        value           uniform 0;
    }
    down
    {
        type            zeroGradient;
    }
    up
    {
        type            zeroGradient;
    }
    cylinder
    {
        type            zeroGradient;
    }
    defaultFaces
    {
        type            empty;
    }
}


// ************************************************************************* //
