/*--------------------------------*- C++ -*----------------------------------*\
  =========                 |
  \\      /  F ield         | OpenFOAM: The Open Source CFD Toolbox
   \\    /   O peration     | Website:  https://openfoam.org
    \\  /    A nd           | Version:  13
     \\/     M anipulation  |
\*---------------------------------------------------------------------------*/
FoamFile
{
    format      ascii;
    class       surfaceScalarField;
    location    "58";
    object      phi;
}
// * * * * * * * * * * * * * * * * * * * * * * * * * * * * * * * * * * * * * //

dimensions      [0 3 -1 0 0 0 0];

internalField   nonuniform List<scalar> 
823
(
-0.00461438
0.0165429
-0.0119286
0.0066845
0.00977606
-0.0210749
0.0583054
-0.0346364
-0.0169845
0.147838
-0.0937822
0.00424984
-0.125033
-0.00496789
0.277839
0.00601787
0.0105251
0.0530706
-0.0372767
0.143531
-0.125097
0.25516
-0.205411
-0.276256
0.406383
0.0231636
-0.0126385
0.10875
-0.122863
0.219844
-0.236192
0.326898
-0.312464
-0.356535
0.407176
0.043839
-0.0564776
0.139244
-0.218268
0.222376
-0.319324
0.273202
-0.36329
-0.377523
0.294191
0.0563975
-0.112875
0.12617
-0.28804
0.165939
-0.359093
0.181729
-0.37908
0.190443
-0.386237
0.0132429
-0.0451233
0.0318804
0.0253639
-0.0633317
0.0512107
0.0440682
-0.0634339
0.0447297
0.0746105
-0.053293
0.0227506
-0.0276122
0.114767
-0.0125445
-0.00218049
-0.0429428
-0.0141914
-0.0513208
-0.0273029
-0.0503224
-0.0310104
-0.0495856
-0.0367416
-0.021881
-0.00927178
-0.033671
-0.0269107
-0.033682
-0.054903
-0.02233
-0.0888394
-0.0156491
-0.00482385
-0.120757
-0.0182088
-0.0154622
-0.0422934
-0.00959736
-0.066967
0.00234358
-0.0902661
0.00764992
0.0165978
-0.111688
-0.0273907
-0.058063
-0.072704
-0.0608043
-0.0491744
0.39534
1.63215
-1.91272
0.450765
0.271354
-0.326779
0.466233
-1.89222
1.87675
0.514421
-0.902579
0.854392
-0.0986907
0.0826092
0.356429
1.25384
0.591022
0.0367606
0.619178
-1.92038
0.566274
-0.849676
-0.0718552
0.254895
0.878188
0.612036
-0.32038
0.591308
-1.89965
0.576043
-0.83441
-0.0358552
0.238394
0.528107
0.618476
-0.700462
0.53347
-1.81464
0.50899
-0.80993
-0.028292
0.280636
0.198296
0.603294
-1.02312
0.519715
-1.73106
0.446341
-0.736556
-0.0300634
1.19833
0.102682
-1.10271
1.36262
-1.18742
1.00684
-1.37528
0.732842
-0.462559
0.00501106
1.4908
-0.0143528
-1.37377
1.34553
-1.04214
0.784581
-0.814333
0.556712
-0.23469
-0.0746757
1.43828
-0.116567
-1.33606
1.17959
-0.783457
0.78705
-0.421793
0.665572
-0.113212
-0.121301
1.34796
-0.178518
-1.28601
0.937168
-0.372665
0.642934
-0.12756
0.61205
-0.0823283
-0.0791441
0.711388
-0.889905
0.338723
0.211163
0.128835
1.08697
0.144543
-1.04107
1.14843
0.232731
1.25197
0.303644
1.25396
0.404388
0.429087
1.01061
0.080997
-0.947066
1.07647
0.166871
1.17509
0.205026
1.27135
0.308132
0.326667
0.944771
0.0420704
-0.905845
1.00907
0.102577
1.09095
0.123143
1.21046
0.188617
0.20107
0.896302
0.0123947
-0.866626
0.962637
0.0362424
1.04
0.045777
1.16029
0.0683289
0.0753501
0.664207
-0.651812
0.700449
0.746226
0.814555
0.124402
0.294765
-0.244358
-0.174809
0.0817464
0.300067
-0.257411
0.0441766
0.310096
-0.272526
0.0138362
0.29981
-0.26947
0.190933
-0.177097
0.0925173
0.330865
-0.128618
0.0578696
0.334714
0.0279186
0.340047
0.0049462
0.322783
0.195879
0.0553181
0.362115
-0.0865683
0.0264991
0.363533
0.0027508
0.363795
-0.00789157
0.333425
0.187988
-0.0157151
0.378932
-0.00110194
-0.0313662
0.379185
-0.037669
0.370098
-0.0276717
0.323428
0.160316
-0.0939379
0.0866337
-0.0938332
-0.0828286
-0.047441
0.203894
0.0987008
-0.257624
-0.0449708
0.149361
0.102458
-0.0479252
0.0932623
0.106688
-0.050589
0.0382076
0.106166
-0.051111
0.0746495
-0.036442
0.199981
0.143742
-0.245022
0.152137
0.150303
0.0990409
0.159784
0.0423261
0.162881
0.116976
0.142577
0.18899
-0.187824
0.100473
0.192406
0.0597722
0.200485
0.0218168
0.200836
0.138792
0.153517
0.222293
-0.186821
0.113785
0.232139
0.0695809
0.244688
0.0267809
0.243636
0.165573
0.0904677
-0.112533
0.0651953
0.0373578
0.0115236
0.405801
0.048878
-0.0586996
0.428542
0.00441015
-0.0271507
0.41178
0.196413
-0.179652
0.397534
0.165715
-0.151468
0.42965
-0.28974
0.404741
0.0401169
0.42237
-0.0132194
0.399706
0.219077
0.387177
0.178244
0.571804
0.39974
0.0363566
0.415946
-0.0294256
0.377356
0.257668
0.372402
0.183198
0.756382
0.398765
0.0335716
0.399296
-0.0299571
0.363641
0.293323
0.350908
0.19593
0.920469
0.392257
0.0372942
0.383799
-0.0214989
0.333906
0.343216
0.323585
0.206251
1.13152
0.631853
0.00946153
0.634375
-0.0240207
0.67935
0.298241
0.786809
0.0987928
0.946218
0.972112
0.646727
-0.0332453
0.615672
0.00703429
0.701056
0.212858
0.760793
0.039056
0.737112
0.969899
0.639273
-0.0684976
0.621744
0.0245631
0.716842
0.11776
0.774431
-0.0185328
0.514088
0.997454
0.607751
-0.072228
0.641291
-0.00897698
0.746624
0.0124265
0.751611
-0.0235198
0.259532
1.00617
0.531792
0.522815
0.535242
0.511722
0.771254
1.00092
-0.203615
0.996697
-0.124396
1.00103
-0.0909055
1.00903
-0.0090981
0.0545903
0.934375
-0.168091
0.923337
-0.113358
0.909317
-0.0768856
0.926771
-0.0265519
0.0342943
0.938113
-0.10875
0.909142
-0.0843866
0.887602
-0.0553457
0.887966
-0.0269165
0.0164159
0.93898
-0.0415627
0.891191
-0.036598
0.861959
-0.0261131
0.851677
-0.0166346
0.00146641
0.729691
0.693093
0.66698
0.650346
0.0490034
0.179742
-0.228746
0.0699277
0.368737
-0.389661
0.0681787
0.418064
-0.416315
0.0591124
0.415267
-0.406201
0.380179
0.0470356
-0.368103
0.0771586
0.102584
0.142916
0.30298
0.170913
0.390066
0.174876
0.411304
0.391985
0.16307
0.0703944
0.0321892
0.181006
0.192368
0.257551
0.313522
0.294684
0.374171
0.400867
0.285802
0.0380903
-0.00590109
0.15133
0.0791291
0.270583
0.194268
0.371221
0.273533
0.349129
0.422959
0.0119829
-0.017884
0.0808035
0.0103085
0.191352
0.0837203
0.311352
0.153533
0.251928
0.408553
0.00289867
-0.0207827
0.0319048
-0.0186976
0.100911
0.0147142
0.194128
0.0603153
0.152733
0.293323
0.00149532
-0.022278
0.0101744
-0.0273767
0.0343928
-0.00950419
0.0728593
0.0218488
0.0812119
0.14438
-0.00338397
-0.018894
-0.00538946
-0.0253712
-0.00528368
-0.00960996
-0.00254013
0.0191052
0.0608539
0.0178179
0.000999555
-0.0198936
0.00770915
-0.0320808
0.0177684
-0.0196692
0.0264449
0.0104287
0.0537015
0.0335973
0.0119868
0.0311167
0.0561772
0.0893565
0.130513
0.168247
1.19608
-1.07101
0.0550458
0.488299
-0.375098
0.266283
-0.389656
0.178419
0.358923
-0.280952
0.188312
-0.0101382
0.0349098
-0.0459012
1.38636
-0.156257
0.598655
0.295462
-0.841375
0.433706
-0.419197
0.00691073
-0.316084
1.72026
-0.288148
0.570719
0.297144
-1.42667
0.451888
-0.573941
-0.0109458
-0.201579
1.95544
-0.0735067
0.442647
0.284143
-1.78432
0.449734
-0.739533
-0.0539073
0.173232
0.2891
0.381537
0.496395
-0.155354
0.609105
-0.45375
-0.174583
0.0192281
-0.0162006
-0.158382
0.135974
-0.152175
-0.0560183
0.664995
-1.1269
0.309125
0.329162
0.365299
0.0903839
-0.010132
-0.0802519
0.142044
-0.0516598
0.217253
-0.0752093
0.342916
-0.125663
-0.110834
0.209878
-0.172974
0.321289
0.531882
0.829177
0.147084
-0.151121
0.181989
-0.177951
0.112829
-0.157769
0.192025
0.073438
-0.166457
0.205848
0.0303013
-0.167616
0.210753
-0.119456
0.149758
0.190448
-0.110327
-0.231242
0.14446
-0.111781
0.0923345
-0.114332
0.0384258
-0.113708
-0.0810306
0.192044
-0.0593883
-0.242983
0.140039
-0.0597763
0.0871841
-0.0614769
0.0356561
-0.0621797
-0.0453745
0.20519
-0.00690512
-0.257673
0.152007
-0.00659367
0.0970699
-0.00653945
0.0410867
-0.00619647
-0.00428782
0.209685
-0.26156
0.155166
0.0980372
0.0407298
0.0509781
-0.346768
-0.0723127
0.0223301
-0.377553
-0.00296916
-0.391016
-0.0150757
-0.377555
-0.243821
0.133383
-0.31283
-0.167321
0.0894254
-0.333595
0.0450345
-0.346625
0.0103312
-0.342852
-0.23349
0.155689
-0.269863
-0.198655
0.109414
-0.287321
0.0642694
-0.30148
0.0233308
-0.301913
-0.210159
0.173532
-0.231656
-0.211739
0.128149
-0.241937
0.0795171
-0.252849
0.0321466
-0.254542
-0.178013
0.168958
-0.218625
0.119045
0.0720443
0.028255
0.392251
0.0942931
-0.0905642
0.394296
0.086603
-0.0886488
0.36065
0.151043
-0.117397
0.310158
0.0309638
0.0195284
-0.246652
0.378859
0.399455
0.0908181
0.409175
0.0768823
0.397839
0.16238
0.355466
0.0733365
-0.122429
0.40423
0.0825673
0.418414
0.062699
0.411649
0.169144
0.378407
0.106579
0.0129951
0.407596
0.0709507
0.424104
0.0461913
0.420763
0.172485
0.395885
0.131458
0.151207
0.408231
0.427271
0.420105
0.400094
0.417308
0.0927428
0.336654
0.0806546
0.253152
0.0835013
0.268856
-0.0157038
-0.205286
0.474142
0.51223
0.504235
0.470339
0.474164
0.647737
0.380605
0.0935376
0.297336
0.0832684
0.199487
0.097849
0.11614
0.0833474
0.035888
0.52265
0.394179
0.293373
0.209399
)
;

boundaryField
{
    left
    {
        type            calculated;
        value           nonuniform List<scalar> 
17
(
-0.60402
-0.60402
-0.60402
-0.60402
-0.60402
-0.39598
-0.39598
-0.39598
-0.39598
-0.39598
-0.39598
-0.39598
-0.39598
-0.39598
-0.39598
-0.510051
-0.510051
)
;
    }
    right
    {
        type            calculated;
        value           nonuniform List<scalar> 
17
(
0.191993
0.34419
0.334152
0.416658
0.469745
0.492696
0.525097
0.530503
0.539439
0.540042
0.501427
0.448112
0.697767
0.636399
0.712197
0.569893
0.0496908
)
;
    }
    down
    {
        type            calculated;
        value           uniform 0;
    }
    up
    {
        type            calculated;
        value           uniform 0;
    }
    cylinder
    {
        type            calculated;
        value           uniform 0;
    }
    defaultFaces
    {
        type            empty;
    }
}


// ************************************************************************* //
