/*--------------------------------*- C++ -*----------------------------------*\
  =========                 |
  \\      /  F ield         | OpenFOAM: The Open Source CFD Toolbox
   \\    /   O peration     | Website:  https://openfoam.org
    \\  /    A nd           | Version:  13
     \\/     M anipulation  |
\*---------------------------------------------------------------------------*/
FoamFile
{
    format      ascii;
    class       volVectorField;
    location    "58";
    object      U;
}
// * * * * * * * * * * * * * * * * * * * * * * * * * * * * * * * * * * * * * //

dimensions      [0 1 -1 0 0 0 0];

internalField   nonuniform List<vector> 
440
(
(-0.0965471 0.0710558 -5.96177e-20)
(-0.126187 0.0909432 -1.79206e-20)
(0.00313935 0.0510921 1.12146e-19)
(0.377209 0.0692383 1.32836e-21)
(0.371478 0.173836 2.49991e-20)
(-0.0882766 0.0506183 3.11016e-20)
(0.045811 0.0223366 -1.09674e-19)
(0.519023 -0.0282146 -1.02251e-19)
(1.05513 -0.0554036 5.24949e-20)
(1.56029 -0.078474 9.07716e-21)
(-0.0213941 0.00805652 4.75992e-20)
(0.481068 -0.0367749 6.79253e-19)
(1.23595 -0.028895 -4.08965e-19)
(1.82567 -0.00821817 -1.3324e-18)
(2.31288 0.0143743 5.68689e-19)
(0.187047 -0.0423431 -1.66001e-19)
(1.15138 0.00311152 -5.07571e-19)
(1.9116 0.0675274 1.62457e-18)
(2.32973 0.108157 1.78692e-18)
(2.41601 0.116459 -5.02613e-19)
(0.537143 -0.00596335 -2.78286e-19)
(1.67912 0.173987 -5.8723e-19)
(2.2158 0.250727 1.78803e-18)
(2.35622 0.262377 1.94156e-18)
(2.43996 0.24184 6.65211e-19)
(0.0429309 -0.263898 -2.41674e-20)
(0.0899409 -0.397519 1.62228e-19)
(0.115042 -0.374089 -4.3494e-19)
(0.164663 -0.263803 1.06264e-19)
(0.208163 -0.0738625 8.13487e-19)
(0.0699316 -0.271814 -1.13182e-19)
(0.0685058 -0.359993 -4.3361e-19)
(0.0351248 -0.394627 -1.16631e-19)
(0.00856175 -0.390633 -7.2871e-20)
(-0.0286561 -0.273476 6.55966e-20)
(0.0845345 -0.219592 5.28373e-19)
(0.0493455 -0.24358 -3.14042e-20)
(-0.022676 -0.218359 3.10888e-19)
(-0.10148 -0.235079 2.66939e-20)
(-0.185937 -0.209553 7.99591e-21)
(0.0786856 -0.162757 4.11854e-20)
(0.0131558 -0.197993 1.13727e-21)
(-0.0765657 -0.156537 1.29619e-19)
(-0.152305 -0.127951 -7.97422e-19)
(-0.223102 -0.0753919 2.6546e-19)
(-0.0278671 -0.0158292 -4.34165e-20)
(-0.152314 -0.0344805 -6.48434e-20)
(-0.235572 -0.0228703 -2.39827e-19)
(-0.217727 -0.00425751 3.8301e-19)
(-0.199895 0.0545259 9.20755e-19)
(0.961155 1.30883 1.87762e-18)
(0.735523 0.208336 -2.16198e-18)
(1.40929 -1.34596 -1.40823e-19)
(1.06721 -0.619263 -9.06685e-19)
(1.34084 -0.0648374 -2.44093e-20)
(0.365851 1.03607 -1.77276e-18)
(0.991201 0.163012 2.99359e-19)
(2.02895 -1.26782 1.68331e-19)
(1.35408 -0.628637 1.52678e-18)
(1.36309 -0.0820361 1.14912e-19)
(-0.502278 0.672941 -1.16179e-18)
(1.50017 -0.124738 -6.72761e-19)
(1.94154 -1.34636 -9.10911e-20)
(1.47428 -0.596527 1.16495e-18)
(1.36439 -0.0461358 -4.0154e-21)
(-0.849879 0.503992 5.3713e-19)
(1.95099 -0.373926 6.02396e-21)
(1.95402 -1.23727 5.53194e-19)
(1.31053 -0.55824 -4.2131e-19)
(1.2668 -0.0342296 3.94484e-20)
(-0.430791 0.175278 -1.41103e-19)
(2.19967 -0.599771 -1.34298e-20)
(2.12808 -1.14218 0)
(1.19673 -0.482375 1.74172e-19)
(1.13198 -0.0186682 -2.31857e-20)
(1.14904 0.0603831 -2.54564e-19)
(2.59815 -0.651926 -1.20523e-19)
(2.07591 -0.962217 -2.52488e-20)
(1.22221 -0.428609 9.78024e-20)
(1.15538 -0.0181906 -6.98102e-21)
(1.93588 0.0556791 -1.79944e-20)
(2.80759 -0.766765 1.01658e-18)
(1.79658 -0.717906 -1.80046e-20)
(0.760263 -0.151005 1.25745e-20)
(1.0539 0.0215388 0)
(2.20544 -0.0747215 -1.84996e-19)
(2.40265 -0.526 -6.29474e-21)
(1.61443 -0.322445 8.88764e-20)
(0.992594 -0.129641 2.35354e-21)
(1.17917 -0.105399 2.48455e-20)
(2.25769 -0.0782064 1.06846e-19)
(2.08318 -0.454382 2.17229e-19)
(1.09577 -0.20099 -2.07533e-20)
(1.05039 -0.018785 -1.91426e-34)
(0.943671 -0.0564206 1.65726e-20)
(1.51175 -0.128248 1.13618e-19)
(0.760444 0.00740022 7.5048e-20)
(0.392049 0.0317776 1.26123e-20)
(0.330026 -0.081151 -4.60253e-21)
(0.0823397 -0.0358366 -1.15884e-20)
(2.36563 0.244415 -8.42798e-19)
(2.52238 0.0648896 -1.01072e-18)
(2.41366 0.0544419 7.73056e-19)
(2.5485 -0.0705205 3.23613e-20)
(2.05596 -0.021617 -4.05493e-20)
(2.15213 0.120989 5.59334e-20)
(2.32869 0.0973377 -3.71945e-20)
(2.29278 -0.0523275 -1.14815e-19)
(2.36073 -0.0367349 -2.14744e-19)
(2.34598 -0.252972 -2.3937e-21)
(2.07549 0.0465574 6.58488e-20)
(2.14146 0.0564438 9.43113e-20)
(2.18162 -0.0663191 -1.10925e-19)
(2.19364 -0.034422 3.64992e-20)
(2.24023 -0.166436 1.61167e-20)
(1.97675 0.0204223 1.0319e-19)
(2.04237 0.0181167 1.27274e-19)
(2.06272 -0.0452829 -1.60897e-20)
(2.11554 -0.0330847 -4.29389e-20)
(2.12633 -0.106575 2.42272e-20)
(1.48992 -0.0157841 1.58972e-19)
(1.48409 -0.0194357 -1.05754e-20)
(1.50357 -0.0222264 1.82191e-20)
(1.49209 -0.0337725 -2.36254e-20)
(1.49286 -0.0286484 6.81012e-22)
(1.5228 0.844226 1.06859e-18)
(1.486 0.939071 -3.3694e-19)
(1.48804 1.06308 -1.26059e-18)
(1.41364 1.09741 6.82449e-19)
(0.862781 0.773565 -1.63654e-19)
(1.80621 0.792343 -5.44147e-19)
(1.77458 0.866937 -2.87708e-18)
(1.77799 0.970376 -1.10693e-18)
(1.68296 0.974368 -3.82345e-19)
(1.01588 0.664187 -6.09379e-19)
(2.09111 0.681348 7.30311e-19)
(2.0714 0.743625 1.84426e-19)
(2.04525 0.821029 -2.1621e-18)
(1.90021 0.801244 -5.86868e-19)
(1.10458 0.514117 4.25798e-19)
(2.26011 0.553812 2.19817e-18)
(2.24161 0.600805 1.59072e-18)
(2.22666 0.647126 -1.81527e-18)
(1.99939 0.600159 -1.35375e-18)
(1.07439 0.334639 -2.4163e-19)
(2.40203 0.40538 1.03885e-18)
(2.39873 0.425433 -7.43191e-19)
(2.29172 0.440946 5.31863e-19)
(1.94468 0.381893 4.13607e-19)
(0.890817 0.144048 -3.45014e-19)
(0.580233 0.424344 -7.04361e-19)
(0.489169 0.458836 -5.65659e-19)
(0.370088 0.493333 7.18605e-20)
(0.230169 0.49258 -2.15003e-20)
(0.0558334 0.345548 6.75295e-20)
(0.683592 0.589405 5.34709e-20)
(0.616902 0.641973 -3.23809e-19)
(0.524655 0.704437 1.70599e-19)
(0.396229 0.76221 -7.90077e-20)
(0.16987 0.583319 1.1324e-19)
(0.766383 0.802554 1.66249e-19)
(0.694011 0.883828 4.17897e-19)
(0.635936 0.978035 7.43826e-20)
(0.549554 1.01717 -2.78016e-19)
(0.300087 0.749075 2.26653e-19)
(1.03388 0.877384 2.09122e-19)
(0.983932 0.959176 -6.38326e-19)
(0.93186 1.0565 -1.79626e-18)
(0.846976 1.11833 7.23086e-19)
(0.497204 0.824672 -1.65033e-19)
(1.11793 0.928044 -1.10519e-19)
(1.14449 1.04401 -1.84746e-19)
(1.16204 1.153 -3.35434e-19)
(1.10406 1.17574 -3.78264e-19)
(0.675564 0.836698 -6.08488e-21)
(1.00665 0.0406353 -7.94492e-20)
(1.00687 0.0129332 -2.80422e-20)
(1.04827 0.133528 -1.52779e-21)
(0.942282 0.111267 -1.58081e-19)
(0.903628 0.25254 2.87026e-19)
(0.993416 0.0381728 4.84816e-20)
(1.02874 0.00541788 1.07806e-19)
(1.02716 0.148787 1.06134e-19)
(0.973519 0.13188 1.74079e-20)
(0.940098 0.339537 1.39169e-20)
(1.00184 0.0362217 6.34478e-20)
(1.01544 -0.00317897 -4.3151e-21)
(1.06478 0.168704 -2.9312e-21)
(0.926252 0.133524 1.33662e-19)
(1.1337 0.473938 -4.29656e-19)
(1.00019 0.0344215 -2.95322e-22)
(1.03614 -0.0139843 -1.60475e-19)
(1.0435 0.196567 -5.5919e-20)
(1.01368 0.125542 -3.31106e-19)
(1.15144 0.5349 8.29301e-20)
(1.00733 0.0244923 -9.62454e-21)
(1.03031 -0.00717071 4.49854e-20)
(1.07339 0.197519 2.59794e-20)
(1.0008 0.154616 4.52335e-19)
(1.37378 0.666729 -4.28144e-19)
(0.984502 0.0221541 -1.72216e-21)
(1.0885 -0.0251528 9.15788e-20)
(1.0192 0.230682 -5.21709e-20)
(1.27734 0.0648677 9.22375e-19)
(1.30709 0.708897 -3.4628e-19)
(0.943156 -0.0100986 -1.37961e-21)
(1.1674 -0.00672179 -7.30349e-20)
(0.905446 0.15039 4.70713e-21)
(1.38901 0.0513283 -3.07119e-19)
(1.20411 0.529683 -4.20333e-20)
(0.990496 -0.0297273 4.03579e-21)
(1.09061 0.0171028 1.28163e-35)
(1.011 0.117885 2.0733e-21)
(1.31356 0.00196764 1.04355e-19)
(1.34052 0.375078 1.56845e-19)
(1.06629 -0.0608561 3.86074e-21)
(0.904486 0.0103636 -2.81073e-20)
(1.27161 0.0267622 1.94382e-20)
(1.13697 -0.0272705 2.2985e-20)
(1.44546 0.25195 -2.3745e-19)
(0.956207 -0.0214808 -3.92693e-20)
(0.759987 -0.0202868 -2.49553e-21)
(1.02263 -0.0110068 2.20737e-20)
(0.690003 -0.00422498 -1.99096e-20)
(1.08461 0.0838967 -5.31091e-20)
(1.75533 0.643053 2.83603e-19)
(1.86028 0.646288 7.19669e-19)
(2.10677 0.532975 -1.01808e-18)
(2.18657 0.478893 2.24711e-20)
(2.38172 0.307917 4.26398e-19)
(1.68332 0.412034 6.33445e-20)
(1.72797 0.407307 9.12374e-19)
(1.94755 0.351385 1.02137e-19)
(1.96473 0.283801 -8.40037e-19)
(2.18174 0.2255 -2.68269e-19)
(1.6723 0.276273 -2.18685e-19)
(1.76112 0.250314 -1.41377e-19)
(1.87719 0.21868 1.65227e-19)
(1.93436 0.159638 -2.60133e-19)
(2.03694 0.139434 2.38294e-19)
(1.66935 0.183857 3.61819e-19)
(1.74888 0.157186 -1.72882e-21)
(1.82178 0.131009 2.01526e-19)
(1.87258 0.0912279 1.62685e-19)
(1.94279 0.0719068 -1.63847e-19)
(1.28541 0.0506924 -4.6712e-20)
(1.36925 0.0315427 2.29461e-19)
(1.40158 0.0182303 9.32209e-20)
(1.4507 0.00126904 -1.96326e-19)
(1.45678 -0.0053878 3.71529e-22)
(1.35971 -0.0266936 8.43998e-20)
(2.43451 -0.00801912 -6.09349e-19)
(2.65135 -0.0012379 1.63643e-18)
(2.61562 0.0465019 7.67301e-19)
(2.36553 0.0519311 -5.21609e-19)
(0.931933 0.11482 2.03106e-19)
(2.23198 0.150776 -6.88462e-19)
(2.63391 0.164652 -9.87596e-19)
(2.63152 0.170143 1.36488e-18)
(2.43097 0.164956 -1.01949e-18)
(0.365469 0.126681 -2.25271e-21)
(1.67425 0.254103 8.6575e-19)
(2.3944 0.311151 1.33615e-19)
(2.66472 0.32869 1.53745e-18)
(2.60858 0.289464 8.62413e-19)
(0.0279696 0.0241154 2.5171e-19)
(0.833378 0.220096 3.05218e-19)
(1.71374 0.353126 -1.05916e-18)
(2.24216 0.421288 1.12389e-19)
(2.645 0.461106 1.06928e-18)
(-0.0792673 -0.0651757 1.96079e-19)
(0.203108 0.0707178 -2.34698e-19)
(0.868809 0.266269 -1.99127e-19)
(1.42639 0.408842 3.15201e-19)
(2.04824 0.574961 2.01355e-19)
(-0.0822345 -0.0991136 6.18538e-20)
(-0.0363045 -0.0629343 1.05058e-19)
(0.284965 0.0589033 8.83824e-20)
(0.596458 0.239063 -4.515e-19)
(1.33607 0.503181 8.27631e-21)
(-0.0707349 -0.124638 -4.92229e-20)
(-0.0886772 -0.148706 -3.036e-20)
(0.0301193 -0.0728185 6.25194e-20)
(0.172367 0.116299 -6.42635e-20)
(0.606623 0.418039 -1.36436e-21)
(-0.0514868 -0.114833 -5.64812e-20)
(-0.0750326 -0.139043 2.64704e-20)
(-0.0317961 -0.0538077 -3.56867e-20)
(0.0165722 0.108431 -2.60276e-19)
(0.16267 0.343795 3.33497e-19)
(-0.0260549 -0.098216 -3.90727e-20)
(-0.0243624 -0.146398 -1.55003e-19)
(0.0214876 -0.0568753 3.02108e-19)
(0.0883204 0.13158 4.05159e-19)
(0.172015 0.390051 -2.48427e-20)
(0.000634688 -0.160861 1.31791e-20)
(0.0417349 -0.277288 -3.50811e-20)
(0.0948361 -0.220665 7.42669e-21)
(0.173168 -0.0489844 2.78071e-20)
(0.274693 0.208621 1.61309e-19)
(1.49552 0.730272 -1.81168e-20)
(0.0113704 0.251305 -3.0419e-20)
(0.407352 -0.131116 -1.52001e-19)
(0.927717 -0.129691 -3.69894e-19)
(0.844474 -0.00867703 1.10351e-21)
(1.35717 0.860093 1.5475e-19)
(-1.04905 0.39793 1.42628e-18)
(0.332705 -0.320756 1.22954e-18)
(1.04216 -0.204579 -2.36085e-20)
(1.05306 0.0128884 3.90634e-20)
(0.744109 1.05781 -6.41899e-19)
(-1.94728 0.374449 3.94089e-18)
(0.445525 -0.886673 1.94393e-19)
(0.929591 -0.32878 2.41694e-19)
(1.18752 0.0183731 3.28253e-20)
(0.265431 1.22963 8.90902e-19)
(-0.981058 0.311437 -4.74937e-18)
(0.528452 -1.13347 -8.09592e-19)
(0.823847 -0.439961 1.90803e-20)
(1.24558 -0.00763537 -1.16277e-20)
(0.515369 1.39187 1.60364e-19)
(0.402698 0.285889 1.56699e-19)
(0.962475 -1.24577 1.09131e-19)
(0.964419 -0.569392 -9.20371e-20)
(1.32737 -0.051384 -5.96608e-21)
(-0.260771 0.0658015 -3.91636e-20)
(-0.427253 -0.18737 0)
(-0.186222 -0.101888 -1.01642e-19)
(0.119333 -0.0695476 5.8734e-20)
(0.376792 -0.0237501 -2.50437e-20)
(1.73454 0.633109 0)
(0.736281 0.218867 0)
(0.569263 -0.0752379 3.2512e-19)
(0.696928 -0.111453 2.01051e-19)
(0.675259 -0.0423034 1.87947e-20)
(0.746561 0.00693933 -1.2963e-19)
(0.817227 0.00298537 3.53498e-19)
(0.901876 0.0418399 -3.11513e-20)
(0.824647 0.0285153 4.01034e-19)
(1.1288 0.207784 2.2199e-19)
(1.69542 0.0451552 1.25782e-19)
(1.90322 0.0959796 5.48341e-19)
(1.94852 0.200078 -9.85828e-19)
(2.32445 0.281851 4.39484e-19)
(2.27447 0.499855 7.21184e-19)
(0.967154 -0.52475 2.12548e-20)
(0.959822 -0.623311 -2.12745e-19)
(0.958153 -0.730187 -1.78038e-19)
(0.892694 -0.807667 1.07346e-19)
(0.55139 -0.644048 1.49788e-19)
(0.862956 -0.431366 1.09262e-19)
(0.807328 -0.501946 1.48974e-19)
(0.732696 -0.578918 -1.08693e-19)
(0.618973 -0.64778 1.57629e-19)
(0.345482 -0.523417 4.31334e-20)
(0.684841 -0.293205 -1.14617e-19)
(0.596798 -0.339142 -6.28933e-20)
(0.496637 -0.396324 8.43763e-21)
(0.37781 -0.446492 -4.82471e-20)
(0.17626 -0.359245 -1.44847e-19)
(0.573759 -0.0618348 -4.38257e-19)
(0.487674 -0.0824153 -3.50559e-19)
(0.37646 -0.112093 2.85655e-19)
(0.247499 -0.147726 1.42716e-19)
(0.0763861 -0.138337 1.28612e-20)
(0.541951 0.148568 -1.36058e-19)
(0.455361 0.145985 -1.55386e-19)
(0.336341 0.139253 -3.86442e-20)
(0.195684 0.136478 5.43137e-20)
(0.0335435 0.0991012 1.43277e-20)
(2.19265 -0.0228897 9.91251e-19)
(2.41988 -0.0957824 3.64029e-19)
(2.51716 -0.187605 -9.16882e-19)
(2.40632 -0.214909 -1.9485e-18)
(1.49537 -0.213669 1.51441e-19)
(2.1145 -0.129208 1.60645e-18)
(2.23943 -0.245198 2.10073e-18)
(2.27657 -0.373834 1.75636e-19)
(2.21055 -0.436428 3.0712e-19)
(1.44822 -0.407895 -2.06084e-19)
(1.84511 -0.301265 -4.06474e-18)
(1.9007 -0.424074 4.56614e-19)
(1.94787 -0.557802 1.29625e-18)
(1.90776 -0.642095 -5.12322e-19)
(1.26334 -0.564811 8.15471e-19)
(1.59521 -0.432857 9.95614e-19)
(1.62171 -0.539581 -2.62433e-18)
(1.62432 -0.667961 -3.02045e-18)
(1.56789 -0.765652 9.45637e-19)
(1.02646 -0.648031 6.24597e-19)
(1.30017 -0.501453 2.25219e-19)
(1.25535 -0.60219 2.91782e-19)
(1.24732 -0.732578 -4.66767e-19)
(1.19838 -0.829177 -5.66604e-19)
(0.770894 -0.673974 -5.42141e-21)
(1.06323 0.05006 6.91072e-21)
(0.949107 0.0496383 1.6527e-21)
(1.12428 0.0766168 1.03634e-20)
(0.841883 -0.00922442 -2.68363e-19)
(1.15488 -0.230211 -2.21436e-20)
(1.07264 0.0515225 -2.29128e-21)
(0.942544 0.0445505 2.22001e-20)
(1.12423 0.0951032 5.74318e-21)
(0.913101 0.032769 2.37382e-19)
(1.04052 -0.116384 6.49547e-21)
(1.06961 0.0469054 -5.42819e-20)
(0.945094 0.0372083 -1.00128e-22)
(1.10711 0.0998467 -5.54316e-21)
(0.910831 0.0494325 1.31941e-19)
(0.994284 -0.0548065 -2.76706e-19)
(1.05003 0.0446847 6.40665e-20)
(0.967902 0.0293918 2.64362e-21)
(1.0739 0.107716 2.01451e-20)
(0.940947 0.0748943 -6.88006e-20)
(0.888915 0.0525285 5.76665e-20)
(1.02257 0.0412329 1.57942e-20)
(0.997526 0.0239865 -2.26697e-20)
(1.04367 0.116964 3.21347e-20)
(0.958546 0.0964877 3.12316e-20)
(0.857709 0.153989 -1.70193e-20)
(0.888303 0.0336056 0)
(0.72183 0.0275772 8.39501e-21)
(0.614225 0.0209082 7.31849e-21)
(0.371351 -0.00950235 5.64745e-20)
(0.72942 -0.0578363 -1.81703e-19)
(1.03148 0.0719192 -6.23494e-20)
(0.95815 0.0681935 8.20567e-22)
(1.03473 0.0777236 -6.96367e-20)
(0.832311 -0.0113929 -1.58888e-19)
(1.08735 -0.212474 -1.92565e-19)
(1.01593 -0.0690624 -4.20802e-20)
(1.10847 -0.0379616 6.08789e-19)
(1.21608 0.0361738 3.60481e-19)
(1.0815 0.0600085 2.85388e-20)
(0.843443 0.0327511 0)
(1.37507 -0.330813 4.10896e-19)
(1.49948 -0.290866 1.73746e-18)
(1.69383 -0.166991 -1.87918e-18)
(1.79196 -0.0196457 -5.99996e-19)
(1.73143 0.0385552 4.54122e-19)
)
;

boundaryField
{
    left
    {
        type            fixedValue;
        value           uniform (1 0 0);
    }
    right
    {
        type            zeroGradient;
    }
    down
    {
        type            noSlip;
    }
    up
    {
        type            noSlip;
    }
    cylinder
    {
        type            noSlip;
    }
    defaultFaces
    {
        type            empty;
    }
}


// ************************************************************************* //
