# Selection   : all
# Cells       : 440
# Volume      : 7.374263e+01
# Time        	minMag(U)
2.6           	2.714718e-02
2.65          	2.995192e-02
2.7           	3.258853e-02
