/*--------------------------------*- C++ -*----------------------------------*\
  =========                 |
  \\      /  F ield         | OpenFOAM: The Open Source CFD Toolbox
   \\    /   O peration     | Website:  https://openfoam.org
    \\  /    A nd           | Version:  13
     \\/     M anipulation  |
\*---------------------------------------------------------------------------*/
FoamFile
{
    format      ascii;
    class       volScalarField;
    location    "0.53";
    object      p;
}
// * * * * * * * * * * * * * * * * * * * * * * * * * * * * * * * * * * * * * //

dimensions      [0 2 -2 0 0 0 0];

internalField   nonuniform List<scalar> 
440
(
7.83809
10.5945
12.9574
13.1401
10.1657
20.7308
24.1141
27.1097
27.8105
25.9233
41.2683
44.2997
47.0028
47.7955
46.6349
67.4017
69.4995
71.4129
72.0696
71.3822
96.6784
97.4954
98.2924
98.6924
98.6589
-0.429555
-0.528771
-0.0569265
0.502798
0.844198
-1.67922
-2.34151
-2.07733
-1.37964
-0.741732
-2.03104
-2.91046
-2.82814
-2.06978
-0.950744
-0.681913
-0.813581
-0.405922
0.560938
2.42744
3.08999
4.40169
5.83189
7.26497
9.51626
2.1025
2.28573
1.36656
0.700378
0.237764
1.06905
2.0899
1.24439
0.642462
0.224372
-0.083679
1.67449
1.10775
0.59508
0.21455
-0.389046
1.07165
0.89642
0.552506
0.20881
1.52258
0.486536
0.609723
0.503923
0.205755
4.39587
0.259889
0.338195
0.451185
0.19055
6.73507
0.716469
0.433502
0.446919
0.128727
9.99765
2.45795
1.0858
0.569823
0.0910466
13.8885
4.76584
2.14234
0.836717
0.0905666
16.6252
7.13028
3.46555
1.306
0.179423
100.703
75.8543
53.3389
33.1645
12.3621
102.398
78.9566
57.5514
39.0713
23.4975
104.299
82.7164
62.4891
45.2485
32.9016
105.182
85.0359
66.518
51.1993
40.6731
105.101
84.7585
66.3438
51.2668
40.9127
219.884
216.406
216.113
218.23
220.963
202.703
200.238
200.498
203.239
206.53
180.555
178.783
179.147
181.569
184.448
154.756
153.414
153.619
155.212
157.109
126.876
126.162
126.101
126.561
127.154
235.579
236.007
236.645
237.069
236.813
236.162
236.798
237.354
237.332
236.378
234.965
235.941
236.357
236.086
235.097
230.079
231.68
232.246
232.384
232.292
221.59
223.455
224.468
225.679
227.034
235.757
234.729
234.907
234.114
234.268
235.728
234.714
234.853
234.074
234.805
235.718
234.676
234.796
234.194
235.334
235.719
234.615
234.794
234.452
234.925
235.722
234.534
234.867
234.652
232.232
235.731
234.398
234.92
234.43
228.736
235.913
234.26
234.808
233.946
226.37
236.806
234.027
234.171
232.256
223.348
240.839
234.011
232.988
229.788
219.67
249.808
234.734
231.77
227.241
216.917
217.774
196.248
175.041
151.747
126.461
207.381
191.385
172.34
150.436
126.666
198.893
186.213
168.63
148.102
126.348
191.756
180.797
165.113
146.276
125.934
191.538
180.778
165.368
146.675
126.165
96.4074
95.5306
95.0828
94.316
94.1594
57.328
55.3811
53.6757
51.754
50.9881
29.4991
27.1558
24.3932
22.0943
20.7699
15.0481
12.6316
10.1662
8.14604
7.17561
9.21919
7.33157
5.94462
4.96906
4.38198
5.99014
4.88793
4.30763
4.21848
4.30665
4.0843
3.62406
3.55084
3.70572
3.85908
2.7806
2.76486
2.99686
3.29932
3.45745
1.6803
1.98386
2.43369
2.78384
2.92855
0.633953
1.03103
1.60268
2.00363
2.17731
3.62851
3.19683
2.08553
0.985581
0.289133
3.68225
3.02634
1.99344
0.930239
0.277571
3.48516
2.76668
1.86496
0.878223
0.267387
3.16671
2.52539
1.70357
0.823893
0.257831
2.7498
2.37821
1.52389
0.764877
0.250136
4.49643
3.18153
1.99869
1.02424
0.319238
3.75941
3.27469
2.08817
1.0201
0.302184
94.9149
54.1582
27.5221
14.4993
9.47963
93.6938
51.1489
22.999
9.48421
5.27416
232.146
232.227
232.177
231.662
230.585
232.735
232.908
233.138
233.177
232.803
233.297
233.469
233.855
234.252
234.423
233.891
234.042
234.445
235.046
235.463
234.629
234.865
235.368
235.978
236.236
141.989
141.797
140.969
140.459
139.547
185.222
184.412
182.434
180.667
178.69
215.519
214.148
211.799
208.985
206.611
229.154
228.146
226.096
223.598
221.153
232.001
231.386
230.415
229.033
227.134
238.824
234.452
234.558
233.511
232.901
237.125
234.492
234.646
233.681
232.92
236.365
234.58
234.749
233.904
233.249
236.001
234.661
234.851
234.1
233.623
235.829
234.713
234.912
234.173
233.933
252.262
235.789
234.914
233.446
231.986
243.169
234.698
234.495
233.39
232.704
226.94
221.866
208.759
182.044
141.238
231.137
226.894
213.313
185.068
142.462
)
;

boundaryField
{
    left
    {
        type            zeroGradient;
    }
    right
    {
        type            fixedValue;
        value           uniform 0;
    }
    down
    {
        type            zeroGradient;
    }
    up
    {
        type            zeroGradient;
    }
    cylinder
    {
        type            zeroGradient;
    }
    defaultFaces
    {
        type            empty;
    }
}


// ************************************************************************* //
