/*--------------------------------*- C++ -*----------------------------------*\
  =========                 |
  \\      /  F ield         | OpenFOAM: The Open Source CFD Toolbox
   \\    /   O peration     | Website:  https://openfoam.org
    \\  /    A nd           | Version:  13
     \\/     M anipulation  |
\*---------------------------------------------------------------------------*/
FoamFile
{
    format      ascii;
    class       volVectorField;
    location    "0.53";
    object      U;
}
// * * * * * * * * * * * * * * * * * * * * * * * * * * * * * * * * * * * * * //

dimensions      [0 1 -1 0 0 0 0];

internalField   nonuniform List<vector> 
440
(
(0.218262 -0.176697 -1.81101e-19)
(0.613081 -0.436662 1.07885e-18)
(0.984291 -0.640908 4.23362e-19)
(1.32753 -0.795385 1.24246e-18)
(1.63256 -0.916735 -2.60001e-19)
(0.304894 -0.177685 -5.44506e-19)
(0.819135 -0.428702 -1.01958e-18)
(1.27997 -0.618902 1.14512e-19)
(1.6919 -0.761637 -1.21517e-18)
(2.05374 -0.875106 -1.02099e-18)
(0.38488 -0.152407 -6.98076e-19)
(1.00468 -0.363015 1.58978e-18)
(1.53976 -0.518386 -1.93466e-18)
(2.00471 -0.632633 1.37933e-18)
(2.40594 -0.721474 1.42991e-18)
(0.445868 -0.102746 5.62394e-19)
(1.14609 -0.243084 -1.29952e-18)
(1.73744 -0.344812 -7.50806e-19)
(2.24294 -0.418221 1.96657e-18)
(2.67446 -0.474463 2.50017e-18)
(0.479257 -0.0361583 6.86909e-19)
(1.22363 -0.0847544 1.69139e-19)
(1.8459 -0.119363 2.53133e-18)
(2.37403 -0.143864 -1.06202e-18)
(2.82296 -0.162494 -4.83734e-19)
(-0.000875128 -0.0516613 2.77184e-19)
(0.0501786 -0.144319 -3.85671e-19)
(0.106109 -0.222371 1.10825e-18)
(0.171648 -0.292232 -1.76382e-19)
(0.239815 -0.353838 -1.59695e-18)
(0.0137121 -0.084316 -2.62037e-19)
(0.0893385 -0.227827 -4.223e-19)
(0.174168 -0.350151 1.10989e-19)
(0.268471 -0.45005 5.98405e-20)
(0.364756 -0.530137 -3.62766e-20)
(0.0433363 -0.114267 7.04964e-20)
(0.165464 -0.303166 5.24645e-19)
(0.296172 -0.467363 9.48677e-20)
(0.432876 -0.598792 1.46138e-18)
(0.567938 -0.697322 -2.49961e-20)
(0.0866187 -0.141 6.69139e-20)
(0.276372 -0.367823 -3.46392e-20)
(0.469493 -0.562994 2.17686e-19)
(0.661407 -0.71848 -2.03789e-18)
(0.844116 -0.830386 9.5765e-19)
(0.142126 -0.161725 -2.35917e-19)
(0.420083 -0.412853 -4.42751e-19)
(0.691401 -0.621469 -7.70782e-19)
(0.950143 -0.782392 9.53875e-19)
(1.1852 -0.892802 3.4556e-18)
(0.592875 -0.591569 -4.06939e-18)
(0.962298 -0.516346 1.03778e-18)
(1.29261 -0.211364 3.71561e-19)
(1.48229 -0.0390074 -6.07192e-19)
(1.55398 -0.00275669 -8.27777e-20)
(0.785651 -0.743039 4.84068e-18)
(1.04408 -0.622682 -3.14777e-19)
(1.31895 -0.282891 -1.41304e-19)
(1.51999 -0.0783776 3.92161e-19)
(1.6035 -0.019216 1.5682e-19)
(1.03657 -0.877729 1.53852e-18)
(1.17879 -0.708706 4.05181e-18)
(1.34412 -0.351948 6.73474e-20)
(1.52896 -0.11679 4.22268e-19)
(1.60465 -0.0340495 -4.98358e-20)
(1.33057 -0.988464 1.22309e-18)
(1.35936 -0.770495 -4.19244e-19)
(1.38948 -0.411088 -7.75437e-19)
(1.5154 -0.148704 -2.95282e-19)
(1.59918 -0.0470315 2.3178e-20)
(1.62985 -1.04733 2.92208e-21)
(1.55532 -0.810767 -1.70029e-18)
(1.44932 -0.459682 0)
(1.48587 -0.193334 2.69127e-19)
(1.55166 -0.0612228 4.22625e-20)
(2.15624 -1.11518 -1.57873e-18)
(1.83398 -0.800783 -4.94456e-19)
(1.55964 -0.453198 -1.02577e-20)
(1.4223 -0.195253 5.77224e-20)
(1.38113 -0.0617411 -2.06667e-19)
(2.6327 -0.889714 -1.61225e-18)
(1.90034 -0.591012 2.97491e-18)
(1.43389 -0.317462 6.00499e-21)
(1.1679 -0.144 2.03021e-19)
(1.11236 -0.04561 0)
(2.47865 -0.522784 -6.9276e-18)
(1.60572 -0.338871 -1.49295e-19)
(1.14919 -0.177825 1.99391e-18)
(0.898016 -0.0866417 -3.16465e-19)
(0.823123 -0.0292488 -4.73071e-20)
(1.76238 -0.219981 6.83583e-18)
(1.08885 -0.135723 1.24883e-18)
(0.751785 -0.0675269 2.24241e-19)
(0.573969 -0.0347803 2.88396e-33)
(0.508013 -0.0131162 -7.97863e-20)
(0.683158 0.000160625 1.55239e-18)
(0.395299 0.0235379 7.13155e-19)
(0.267594 0.0240429 -5.17894e-19)
(0.206286 0.0143186 2.19437e-19)
(0.178035 0.00499344 -6.77547e-20)
(3.58189 -0.168158 1.25616e-17)
(3.41717 -0.502933 -1.04434e-17)
(3.13668 -0.786987 7.10864e-18)
(2.7806 -0.996079 2.3207e-18)
(2.33312 -1.10177 -4.14351e-19)
(3.78454 -0.103586 1.03948e-17)
(3.71749 -0.324458 -6.63906e-19)
(3.57775 -0.551819 -4.26999e-18)
(3.37831 -0.785752 2.68999e-18)
(3.10034 -1.01976 -6.62792e-19)
(3.11484 -0.0605669 3.65445e-18)
(3.09866 -0.181683 -2.51878e-18)
(3.05962 -0.309665 5.01274e-18)
(2.99893 -0.444852 -1.52924e-19)
(2.92438 -0.59361 -4.79055e-18)
(2.19087 -0.0276238 2.78877e-18)
(2.18384 -0.0833707 8.43035e-18)
(2.16463 -0.144007 -6.53261e-19)
(2.13408 -0.207282 -6.60854e-18)
(2.11307 -0.269438 1.94593e-18)
(0.87944 -0.00184246 5.21224e-18)
(0.87649 -0.00523916 -1.16438e-19)
(0.867371 -0.00956828 -4.25793e-20)
(0.850508 -0.0162548 -2.00938e-18)
(0.841157 -0.022907 -3.60541e-18)
(1.65313 0.940065 2.27516e-18)
(1.3483 0.816704 -7.8592e-20)
(1.00338 0.658652 -3.51152e-20)
(0.627871 0.449483 -1.96285e-19)
(0.225229 0.182298 -1.34117e-19)
(2.0705 0.892511 -1.21843e-18)
(1.71068 0.777736 -1.20273e-18)
(1.29832 0.63259 7.32011e-19)
(0.834043 0.438726 -4.84119e-19)
(0.312142 0.182089 -4.08333e-21)
(2.4186 0.735853 -5.89315e-19)
(2.01967 0.645357 5.25249e-19)
(1.555 0.528764 2.43662e-18)
(1.01754 0.370199 8.08315e-19)
(0.391339 0.155286 5.26074e-19)
(2.68202 0.486721 1.53414e-20)
(2.25239 0.428295 -2.71644e-19)
(1.74744 0.352327 -6.46755e-19)
(1.15477 0.247647 2.05642e-18)
(0.450326 0.104145 -3.26834e-19)
(2.82548 0.173873 -1.17058e-18)
(2.37728 0.152648 -1.6065e-18)
(1.84941 0.125348 -7.28696e-19)
(1.22672 0.087835 7.96282e-19)
(0.480858 0.036687 -3.25831e-19)
(0.24094 0.417008 -2.14654e-18)
(0.170795 0.353486 -1.82054e-18)
(0.103337 0.277056 3.16299e-19)
(0.0457135 0.183652 -4.66836e-20)
(-0.00163605 0.0675654 3.41568e-20)
(0.371102 0.594578 -8.01977e-19)
(0.274168 0.510177 -6.70465e-19)
(0.178819 0.3995 1.17997e-20)
(0.0925971 0.259574 -2.5454e-20)
(0.0168549 0.0965312 2.60468e-20)
(0.581698 0.753783 2.18366e-18)
(0.446227 0.649887 -1.52734e-19)
(0.307951 0.507323 -1.44719e-19)
(0.174402 0.32862 -2.15292e-19)
(0.0484016 0.123982 1.67503e-19)
(0.862058 0.875044 -1.29564e-18)
(0.679172 0.758455 1.97709e-18)
(0.485287 0.594192 3.05085e-19)
(0.28834 0.388433 1.02043e-19)
(0.0925386 0.149189 -1.18351e-19)
(1.20368 0.925215 -4.41392e-19)
(0.969111 0.811831 -4.58044e-19)
(0.708597 0.645098 3.60313e-19)
(0.43333 0.42918 3.59434e-19)
(0.148463 0.168539 1.89665e-21)
(0.935612 0.165134 -4.18661e-19)
(1.49137 0.134752 5.25669e-20)
(1.32453 0.196134 1.9676e-20)
(1.0123 0.500126 -5.0097e-19)
(0.598647 0.645417 5.02546e-20)
(0.939908 0.0874956 1.61087e-19)
(1.49909 0.110687 2.92029e-19)
(1.35136 0.244607 2.57425e-19)
(1.06002 0.615267 -6.20843e-20)
(0.78467 0.803153 7.59691e-19)
(0.942768 0.0107679 5.47264e-20)
(1.51367 0.0872242 -2.05597e-20)
(1.35237 0.293326 -5.69725e-20)
(1.16561 0.712286 -4.34488e-19)
(1.0373 0.937406 1.15887e-19)
(0.943971 -0.0636341 -1.95659e-20)
(1.52089 0.0672921 -6.91078e-19)
(1.35881 0.342322 8.90744e-20)
(1.32718 0.779076 1.20735e-18)
(1.33494 1.04186 9.44978e-19)
(0.94201 -0.136426 -2.69265e-20)
(1.50863 0.0573715 2.00027e-19)
(1.38196 0.390862 -6.46833e-20)
(1.51084 0.820673 -3.86787e-19)
(1.63601 1.09192 -2.73586e-18)
(0.929733 -0.231145 2.31659e-19)
(1.47213 0.0239455 4.81589e-19)
(1.46278 0.389232 -3.11828e-20)
(1.7677 0.799787 3.07978e-18)
(2.15303 1.14329 -5.52069e-18)
(0.883466 -0.344162 -2.51108e-20)
(1.3365 -0.0280947 -6.45818e-19)
(1.40693 0.28031 7.22484e-21)
(1.84355 0.594598 -3.06617e-18)
(2.59451 0.900621 1.66924e-18)
(0.786013 -0.411968 5.51278e-18)
(1.08275 -0.089362 6.82683e-35)
(1.13644 0.149566 -2.13718e-18)
(1.5768 0.339693 2.64094e-18)
(2.45674 0.529607 5.03201e-18)
(0.634202 -0.291686 1.50422e-19)
(0.714409 -0.0716515 5.27293e-19)
(0.733195 0.0519741 2.48962e-19)
(1.07555 0.135008 6.23135e-19)
(1.75836 0.220499 -8.64372e-18)
(0.322521 -0.0431691 -4.30674e-18)
(0.293935 0.00556926 2.83107e-19)
(0.265419 -0.0132554 1.11015e-18)
(0.39351 -0.0240265 -7.70721e-19)
(0.68617 -0.000450381 -1.466e-18)
(2.34861 1.12117 4.69017e-18)
(2.78729 1.01255 3.4726e-18)
(3.14087 0.803381 -5.69152e-18)
(3.41899 0.519601 -1.46158e-17)
(3.5824 0.185879 1.57635e-17)
(3.0789 1.01884 5.00879e-18)
(3.35408 0.795222 2.56359e-17)
(3.55698 0.560667 7.2427e-18)
(3.70112 0.331823 -3.08294e-17)
(3.77795 0.111137 -5.17339e-18)
(2.90574 0.591997 -7.22874e-18)
(2.98599 0.4481 -3.38049e-18)
(3.05218 0.312114 -6.29769e-18)
(3.09524 0.181727 -6.88931e-18)
(3.11401 0.0584298 6.52281e-18)
(2.10627 0.265909 5.41531e-18)
(2.13012 0.205755 -4.0464e-19)
(2.16254 0.143046 4.87115e-18)
(2.18312 0.0821371 6.28921e-18)
(2.19077 0.0259987 -5.88785e-18)
(0.842531 0.0220592 -5.74618e-19)
(0.851929 0.0156558 3.52094e-18)
(0.868631 0.00913256 2.44313e-18)
(0.877492 0.00479307 -5.16936e-18)
(0.879838 0.00136171 -3.84284e-20)
(0.281974 0.0207597 5.52121e-19)
(0.656761 0.0404722 -7.43585e-19)
(0.973255 0.0440729 -8.18495e-19)
(0.944425 0.0274354 -1.51802e-18)
(0.697937 0.0163882 -6.63732e-19)
(0.245613 0.0554679 7.45739e-19)
(0.591346 0.10709 1.44151e-18)
(0.864784 0.125159 -6.97363e-19)
(0.940052 0.097012 1.96081e-18)
(0.724261 0.0532487 -2.70089e-18)
(0.185647 0.0742751 4.96239e-19)
(0.476452 0.145915 -1.3989e-18)
(0.707855 0.184785 -9.1392e-19)
(0.857406 0.175436 -1.81024e-18)
(0.741642 0.101245 -2.8623e-18)
(0.123321 0.0774839 -7.72675e-19)
(0.344804 0.160374 -1.37664e-18)
(0.534595 0.214904 4.39912e-18)
(0.677797 0.233341 -3.66697e-19)
(0.713123 0.18005 2.25506e-18)
(0.07528 0.0723739 -6.22987e-19)
(0.230735 0.160116 1.56426e-18)
(0.372312 0.224547 6.12355e-19)
(0.482862 0.257801 -1.29589e-18)
(0.561373 0.258496 -1.74884e-19)
(0.0451475 0.0637766 8.42882e-20)
(0.149954 0.148761 -1.22234e-18)
(0.247752 0.212153 -9.45802e-19)
(0.325466 0.234125 -8.67298e-20)
(0.371256 0.223879 -5.00129e-20)
(0.0264601 0.0556927 3.12121e-19)
(0.0950707 0.13429 5.94941e-19)
(0.160892 0.184858 -2.08263e-19)
(0.213776 0.195527 2.59516e-19)
(0.253625 0.185486 1.71385e-19)
(0.0133304 0.048857 2.49944e-19)
(0.0586045 0.111506 1.3094e-18)
(0.103701 0.121379 -1.23721e-18)
(0.142668 0.107611 -2.78683e-18)
(0.178842 0.086197 4.08371e-19)
(0.00615857 0.0393875 -2.37491e-19)
(0.0425083 0.049188 -1.80815e-18)
(0.0797881 0.0222093 3.21828e-18)
(0.119817 -0.00954174 1.31526e-18)
(0.161288 -0.0433001 -2.69659e-19)
(0.0100045 0.00229784 2.10046e-19)
(0.042126 -0.0496234 -4.52364e-19)
(0.082202 -0.0957944 8.98863e-20)
(0.130877 -0.143749 1.05273e-19)
(0.181562 -0.18995 3.1187e-21)
(0.338659 0.0720619 -7.50472e-20)
(0.613142 -0.0420964 -1.2238e-18)
(0.702535 -0.0132832 2.53968e-19)
(0.714901 0.00582032 3.98804e-19)
(0.701426 0.00319863 1.2785e-20)
(0.302761 -0.0340734 -1.00167e-19)
(0.749556 -0.114618 1.46344e-18)
(0.886232 -0.0229167 9.18384e-19)
(0.913811 0.00879176 7.58172e-20)
(0.905376 0.00546403 -3.48897e-20)
(0.319435 -0.149358 -8.08857e-19)
(0.834077 -0.197783 3.14324e-18)
(1.0475 -0.0421578 -1.81433e-19)
(1.10032 0.0103912 -3.63563e-19)
(1.09714 0.007628 7.2454e-20)
(0.37568 -0.288003 1.10573e-18)
(0.883315 -0.297172 -2.70871e-18)
(1.16968 -0.0828131 -5.32434e-19)
(1.26563 0.00648054 -3.2194e-20)
(1.27314 0.00825887 4.32972e-22)
(0.462796 -0.436351 5.02537e-19)
(0.918741 -0.40442 -5.50896e-19)
(1.24768 -0.142447 4.7817e-19)
(1.3982 -0.00797924 1.18404e-19)
(1.42689 0.00628721 -9.07023e-21)
(0.182962 -0.044984 9.54865e-19)
(0.144893 -0.00526122 0)
(0.162379 0.00099948 1.16441e-19)
(0.161937 -0.000337111 -4.62657e-21)
(0.156475 -0.000685886 -7.29922e-20)
(0.399674 0.0700226 0)
(0.40829 -0.000433819 0)
(0.465969 -0.00408878 5.08602e-20)
(0.467458 0.00314802 -2.59251e-20)
(0.453318 0.00132803 4.33519e-20)
(0.162689 -0.000821281 -3.68463e-19)
(0.186406 -0.00179209 3.10765e-18)
(0.213216 -0.0050209 -6.86297e-19)
(0.229815 -0.0149895 -3.11698e-18)
(0.245709 -0.0170124 -7.97011e-19)
(0.432037 0.00444134 6.09925e-19)
(0.484567 0.019696 4.11556e-18)
(0.536462 0.046698 -6.73e-18)
(0.567632 0.0806178 2.20943e-18)
(0.59832 0.162221 3.79764e-18)
(0.370713 -0.2206 -3.32726e-19)
(0.32434 -0.231587 -9.28904e-20)
(0.248382 -0.212653 -3.30336e-19)
(0.150766 -0.150738 3.88093e-19)
(0.0458664 -0.0645782 1.14073e-19)
(0.257526 -0.16958 4.22185e-19)
(0.215075 -0.181672 1.41368e-18)
(0.162385 -0.177028 2.59576e-19)
(0.0967188 -0.135067 2.36372e-19)
(0.0268993 -0.0571905 -1.85985e-20)
(0.193189 -0.0547555 -3.10976e-19)
(0.151615 -0.0773177 -1.05157e-19)
(0.108775 -0.0948736 1.6335e-18)
(0.0623216 -0.0971208 2.86351e-19)
(0.0132332 -0.0479871 -3.13436e-19)
(0.178639 0.0869017 -6.35887e-19)
(0.132619 0.0530581 -7.05938e-19)
(0.0877342 0.0193648 1.30919e-18)
(0.0494612 -0.0107069 1.60083e-18)
(0.0112325 -0.0298345 1.98983e-19)
(0.188627 0.24412 1.23667e-19)
(0.134242 0.197831 -1.20252e-19)
(0.0818603 0.148041 2.48323e-19)
(0.0381808 0.0969578 6.22015e-19)
(-0.00228178 0.035606 9.23442e-20)
(0.697934 -0.0163434 1.53154e-18)
(0.944431 -0.0274125 -1.80083e-18)
(0.973063 -0.0441988 2.27001e-18)
(0.656772 -0.0405346 3.64609e-19)
(0.282008 -0.0207684 5.36676e-19)
(0.724251 -0.0531413 1.77257e-18)
(0.93991 -0.0970266 7.94681e-18)
(0.864582 -0.125263 1.03367e-18)
(0.591398 -0.107129 1.34949e-18)
(0.245709 -0.055489 -4.78505e-19)
(0.74156 -0.100998 -1.22151e-18)
(0.856801 -0.17527 -2.29642e-18)
(0.707776 -0.184846 2.92445e-18)
(0.476519 -0.145983 -1.08284e-19)
(0.185769 -0.0743107 3.39524e-19)
(0.712599 -0.179868 1.77538e-20)
(0.677092 -0.233287 -7.68578e-18)
(0.53463 -0.215234 -5.9994e-18)
(0.34494 -0.160709 1.09164e-18)
(0.123502 -0.0775881 5.08042e-19)
(0.558952 -0.256962 4.68357e-19)
(0.481835 -0.257211 5.33426e-19)
(0.372382 -0.225267 -8.99378e-19)
(0.23099 -0.160991 -8.88244e-19)
(0.0756284 -0.0726323 -5.14421e-21)
(0.727485 0.373106 1.17548e-18)
(0.881152 0.127584 -1.91348e-19)
(0.677659 0.0193415 2.52162e-19)
(0.645561 0.0364209 -7.56734e-19)
(0.362662 -0.0618093 -1.00807e-19)
(0.827199 0.398021 -1.70347e-19)
(1.08991 0.157497 -5.66034e-19)
(0.869187 0.0378135 8.34998e-19)
(0.805322 0.099694 1.67966e-18)
(0.340581 0.0541764 1.03582e-19)
(0.89172 0.372603 -2.2436e-18)
(1.27056 0.171559 -3.73853e-20)
(1.03981 0.0620569 2.49621e-19)
(0.908936 0.179152 1.69328e-18)
(0.364831 0.176751 -1.43549e-18)
(0.922281 0.317035 1.48234e-18)
(1.41673 0.173706 1.63239e-20)
(1.17617 0.100008 -2.1227e-19)
(0.964026 0.277746 -7.33571e-19)
(0.415459 0.323354 -5.85696e-19)
(0.931057 0.24323 1.73399e-19)
(1.48829 0.157004 3.69973e-20)
(1.26855 0.146354 -7.46142e-20)
(0.991775 0.385497 -8.33002e-20)
(0.485462 0.480593 1.35968e-18)
(0.275637 0.04837 0)
(0.244336 -0.0112238 6.49117e-19)
(0.157726 -0.0159152 1.27266e-19)
(0.150585 0.00552706 -1.10396e-19)
(0.184393 0.0440895 -1.80759e-18)
(0.573296 0.266331 -1.01978e-17)
(0.609644 0.0751539 -2.56115e-18)
(0.445557 0.0130333 4.99572e-19)
(0.424429 0.000563229 -6.58576e-19)
(0.407658 -0.0683178 -6.62009e-19)
(0.245846 0.0169754 -9.57212e-22)
(0.22991 0.0150778 1.92874e-18)
(0.213294 0.0050643 5.24476e-19)
(0.186456 0.00180199 3.23028e-19)
(0.162704 0.000825141 0)
(0.599216 -0.162114 -1.14181e-19)
(0.568194 -0.0803222 2.54735e-18)
(0.53657 -0.0464744 -1.37544e-19)
(0.484626 -0.0196429 -2.7047e-19)
(0.432061 -0.00441907 7.60491e-19)
)
;

boundaryField
{
    left
    {
        type            fixedValue;
        value           uniform (1 0 0);
    }
    right
    {
        type            zeroGradient;
    }
    down
    {
        type            noSlip;
    }
    up
    {
        type            noSlip;
    }
    cylinder
    {
        type            noSlip;
    }
    defaultFaces
    {
        type            empty;
    }
}


// ************************************************************************* //
