/*--------------------------------*- C++ -*----------------------------------*\
  =========                 |
  \\      /  F ield         | OpenFOAM: The Open Source CFD Toolbox
   \\    /   O peration     | Website:  https://openfoam.org
    \\  /    A nd           | Version:  13
     \\/     M anipulation  |
\*---------------------------------------------------------------------------*/
FoamFile
{
    format      ascii;
    class       volScalarField;
    location    "47";
    object      p;
}
// * * * * * * * * * * * * * * * * * * * * * * * * * * * * * * * * * * * * * //

dimensions      [0 2 -2 0 0 0 0];

internalField   nonuniform List<scalar> 
440
(
-0.671295
-0.664891
-0.731358
-0.639812
-0.710704
-0.616219
-0.614238
-0.619878
-0.618676
-0.618334
-0.745596
-0.715264
-0.686827
-0.652592
-0.612756
-0.863533
-0.818907
-0.744325
-0.654814
-0.563617
-0.959095
-0.898133
-0.762519
-0.619743
-0.487398
-1.2251
-1.19419
-1.15046
-1.10684
-1.07447
-1.20319
-1.17297
-1.134
-1.09713
-1.06876
-1.20035
-1.22061
-1.27251
-1.3404
-1.41549
-0.935595
-1.0075
-1.15122
-1.3209
-1.42608
-0.195766
-0.30752
-0.440163
-0.491717
-0.455526
-0.72891
-1.84206
-1.37713
-0.108185
0.0318476
-0.579759
-1.81509
-1.66111
-0.139575
0.0136147
-0.487705
-1.59847
-1.71681
-0.16624
-0.000710496
-0.356486
-1.31585
-1.66109
-0.194375
-0.0123905
-0.243112
-1.03038
-1.49765
-0.217585
-0.01759
0.272633
-0.756001
-1.22178
-0.20986
-0.0226773
-0.160729
-0.549336
-0.850897
-0.193171
-0.0334687
-0.0409756
-0.324233
-0.567094
-0.212568
-0.051481
-0.011005
-0.241108
-0.437706
-0.196835
-0.0646835
0.0309604
-0.0758344
-0.345863
-0.227623
-0.0757952
-0.257082
-0.390289
-0.536112
-0.696796
-0.761924
-0.0270829
-0.15819
-0.226901
-0.267846
-0.266532
0.119347
0.016402
-0.0488769
-0.088527
-0.109073
0.213993
0.120267
0.0462237
0.00308151
-0.0236989
0.258713
0.165567
0.0874984
0.0452019
0.0195986
0.957604
0.822614
0.651466
0.457357
0.236577
0.579005
0.429183
0.242532
0.031238
-0.206094
0.198571
0.0432853
-0.151746
-0.374751
-0.582657
-0.121897
-0.283002
-0.477843
-0.688521
-0.846969
-0.344668
-0.49965
-0.677755
-0.862617
-0.964341
2.1146
2.1477
2.18041
2.20045
2.20283
1.93989
1.96227
1.98081
1.98368
1.96605
1.72368
1.71759
1.69068
1.64202
1.56868
1.47228
1.44175
1.37848
1.2854
1.16364
1.21837
1.12987
1.01046
0.866876
0.690638
1.84676
1.83951
1.82766
1.88457
1.99056
1.83787
1.82835
1.81217
1.86404
1.91353
1.82999
1.81398
1.79386
1.83052
1.81634
1.82337
1.79715
1.77301
1.78517
1.66433
1.81797
1.77929
1.75011
1.73705
1.50131
1.81434
1.75039
1.71946
1.64402
1.32187
1.81476
1.71948
1.70275
1.53121
1.33257
1.82023
1.70518
1.69135
1.47324
1.30065
1.81493
1.68157
1.68738
1.42796
1.27993
1.8544
1.67273
1.68762
1.40278
1.28162
0.927769
0.659963
0.342416
0.0846727
-0.110721
0.87372
0.683903
0.462525
0.276051
0.101603
0.88857
0.728069
0.557444
0.395035
0.244629
0.927953
0.778325
0.626598
0.47412
0.338914
0.954955
0.810149
0.666574
0.517743
0.386731
-1.90154
-1.71095
-1.50521
-1.33266
-1.22789
-1.97857
-1.88894
-1.71858
-1.5647
-1.45699
-1.89319
-1.83576
-1.71142
-1.58395
-1.47208
-1.72406
-1.6714
-1.60098
-1.51842
-1.43199
-1.54978
-1.51972
-1.48098
-1.43833
-1.39723
-1.45158
-1.441
-1.40004
-1.43275
-1.38774
-1.42608
-1.41503
-1.3896
-1.42087
-1.38123
-1.40994
-1.40422
-1.40237
-1.4176
-1.43069
-1.35592
-1.35174
-1.35101
-1.35961
-1.38396
-1.28296
-1.26821
-1.24857
-1.22879
-1.22467
-1.18453
-1.07712
-0.477927
0.048233
0.114729
-1.22211
-1.23007
-0.501998
-0.0816654
0.115093
-1.25722
-1.42044
-0.499254
-0.158067
0.113669
-1.13856
-1.60285
-0.501302
-0.124645
0.0986176
-0.891818
-1.73067
-0.899641
-0.0933476
0.061092
-0.670296
-1.12863
-0.585252
0.133699
0.119142
-1.06897
-1.09589
-0.475564
0.144776
0.118049
-1.16853
-1.37735
-1.37565
-1.27711
-1.03104
-1.19042
-1.39815
-1.39182
-1.32274
-1.26098
1.67965
1.6462
1.59281
1.52079
1.42628
1.88646
1.90258
1.90098
1.87973
1.83943
2.0655
2.09602
2.11683
2.12371
2.11545
2.17208
2.21131
2.2527
2.28607
2.3005
2.18974
2.22866
2.27227
2.30915
2.3265
-0.71776
-0.844796
-1.04385
-1.27929
-1.57199
-0.0502735
-0.20778
-0.416401
-0.668518
-1.00246
0.563301
0.402191
0.207634
-0.0235295
-0.322838
1.05685
0.929336
0.774927
0.587434
0.354957
1.44927
1.35983
1.24295
1.10184
0.933727
1.90598
1.86598
1.85134
1.85025
1.85109
1.89119
1.86394
1.85179
1.87066
1.92552
1.87868
1.8605
1.85264
1.89278
2.01021
1.8671
1.85563
1.84804
1.90045
2.02729
1.85646
1.84896
1.83948
1.8979
2.02722
1.96057
1.87006
1.83629
1.76801
1.71608
1.9158
1.86176
1.83233
1.7919
1.72538
1.32153
1.0693
0.635338
0.00665991
-0.677351
1.4133
1.10779
0.652676
0.0282967
-0.670533
)
;

boundaryField
{
    left
    {
        type            zeroGradient;
    }
    right
    {
        type            fixedValue;
        value           uniform 0;
    }
    down
    {
        type            zeroGradient;
    }
    up
    {
        type            zeroGradient;
    }
    cylinder
    {
        type            zeroGradient;
    }
    defaultFaces
    {
        type            empty;
    }
}


// ************************************************************************* //
