/*--------------------------------*- C++ -*----------------------------------*\
  =========                 |
  \\      /  F ield         | OpenFOAM: The Open Source CFD Toolbox
   \\    /   O peration     | Website:  https://openfoam.org
    \\  /    A nd           | Version:  13
     \\/     M anipulation  |
\*---------------------------------------------------------------------------*/
FoamFile
{
    format      ascii;
    class       surfaceScalarField;
    location    "47";
    object      phi;
}
// * * * * * * * * * * * * * * * * * * * * * * * * * * * * * * * * * * * * * //

dimensions      [0 3 -1 0 0 0 0];

internalField   nonuniform List<scalar> 
823
(
-0.0012073
0.0237249
-0.0225176
0.00515091
0.0192122
-0.0255705
0.0404836
-0.0293564
-0.00597635
0.117288
-0.0869363
0.0101317
-0.113596
-0.0102727
0.241156
0.0124102
0.0113147
0.0635027
-0.0318803
0.150509
-0.116362
0.259235
-0.195663
-0.264736
0.410375
0.0221799
-0.0108652
0.105616
-0.115316
0.215931
-0.226677
0.324037
-0.30377
-0.350884
0.410185
0.0418993
-0.0527645
0.137034
-0.210451
0.223379
-0.313022
0.278687
-0.359077
-0.373821
0.301624
0.0554768
-0.108241
0.127973
-0.282948
0.170883
-0.355932
0.187858
-0.376053
0.195351
-0.381314
0.00656387
-0.0420753
0.0355114
0.0217759
-0.08663
0.071418
0.0360459
-0.0963441
0.082074
0.0452202
-0.0827141
0.0735398
-0.0524012
0.0464062
0.0512152
0.0252906
-0.0673659
0.0583524
-0.119692
0.0831252
-0.121117
0.0978184
-0.0974072
-0.0571196
0.102537
0.0336626
-0.101028
0.0612471
-0.147276
0.0767295
-0.136599
0.0858658
-0.106543
-0.065419
0.0941652
-0.0256773
-0.0753512
-0.0774214
-0.0955322
-0.124536
-0.0894844
-0.160906
-0.0701742
-0.0333556
-0.192969
-0.0978687
-0.218971
-0.314432
-0.374475
-0.418103
-0.140779
1.22207
-1.03488
0.0303064
1.19465
-1.36573
0.422725
-1.14973
0.757316
0.471601
-1.49332
1.44444
-0.688948
0.647497
0.134427
1.19018
0.29266
1.03642
0.504326
-1.3614
0.504085
-1.49307
-0.700567
0.347195
0.937146
0.441217
0.942394
0.565567
-1.48575
0.531507
-1.45901
-0.673622
0.222935
0.521242
0.490998
0.674331
0.587446
-1.5822
0.546143
-1.41771
-0.631456
0.121952
-0.0188128
0.622011
0.174271
0.607405
-1.56759
0.531263
-1.34157
-0.590125
0.927349
0.116802
-1.06296
1.39327
-0.291648
1.27872
-1.45304
0.941483
-1.00433
-0.406324
1.32695
0.14323
-1.35337
1.5332
-0.497904
1.21082
-1.13066
0.809061
-0.60257
-0.241804
1.4232
0.0427498
-1.32272
1.41524
-0.489942
1.03172
-0.747149
0.776313
-0.347159
-0.139008
1.37138
-0.0433351
-1.28529
1.21773
-0.336298
0.789296
-0.318711
0.566101
-0.123964
-0.0544362
0.842308
-0.885644
0.506011
0.1873
0.0633355
1.06792
0.143472
-1.01604
1.13678
0.232766
1.24385
0.303113
1.25274
0.401491
0.430928
0.987382
0.0750013
-0.918911
1.04449
0.17566
1.15036
0.197239
1.24095
0.310902
0.318503
0.943256
0.0323843
-0.900639
1.00212
0.1168
1.08539
0.113966
1.20021
0.19608
0.195995
0.899032
0.00784723
-0.874495
0.972182
0.0436505
1.04411
0.0420391
1.16457
0.0756143
0.0752762
0.649063
-0.641216
0.692714
0.734753
0.810367
0.123569
0.293832
-0.245674
-0.171728
0.0813458
0.300596
-0.258372
0.0436096
0.311096
-0.27336
0.0132615
0.301765
-0.271417
0.193586
-0.180325
0.0900618
0.330528
-0.126757
0.0556402
0.335017
0.0257002
0.341036
0.00303227
0.324433
0.196618
0.0492555
0.358934
-0.0776619
0.0216261
0.362647
-0.00107572
0.363738
-0.0098194
0.333177
0.186799
-0.0237579
0.375124
0.00756841
-0.037641
0.37653
-0.0422995
0.368396
-0.0300907
0.320968
0.156708
-0.0994294
0.093239
-0.0989519
-0.086487
-0.0484669
0.205319
0.0935669
-0.258751
-0.0401349
0.150645
0.0975457
-0.0428723
0.0941414
0.102021
-0.0455178
0.0385385
0.101899
-0.0462965
0.0720421
-0.0335036
0.19749
0.138756
-0.242679
0.150092
0.144944
0.0976342
0.154479
0.0416239
0.15791
0.113666
0.1507
0.184773
-0.196716
0.107032
0.188612
0.0646715
0.196839
0.0244756
0.198106
0.138142
0.159052
0.22032
-0.194599
0.117805
0.229859
0.0722155
0.242429
0.0279946
0.242327
0.166136
0.102724
-0.128077
0.07421
0.0432788
0.0141884
0.404112
0.062021
-0.0701537
0.426038
-0.0069108
-0.0150152
0.414997
0.171209
-0.160168
0.39453
0.167398
-0.14693
0.390978
-0.255199
0.402463
0.0555372
0.421027
-0.0254746
0.403321
0.188915
0.38081
0.189908
0.529109
0.397933
0.0535842
0.416066
-0.0436077
0.380607
0.224374
0.365233
0.205282
0.697626
0.39728
0.0522839
0.402282
-0.0486098
0.365669
0.260987
0.344108
0.226843
0.847134
0.392067
0.0561965
0.3901
-0.0466432
0.335772
0.315315
0.31246
0.250155
1.03152
0.634376
0.0258409
0.650024
-0.0622908
0.669046
0.296293
0.756794
0.162407
0.811442
0.976869
0.652339
-0.0224772
0.636958
-0.0469099
0.689796
0.243455
0.787817
0.0643857
0.622828
0.976431
0.650972
-0.069429
0.627388
-0.0233259
0.697684
0.173158
0.771519
-0.00944888
0.430954
0.963394
0.615136
-0.0805449
0.614029
-0.0222187
0.733686
0.0535011
0.749918
-0.0256806
0.207591
0.97328
0.523475
0.501257
0.554758
0.529077
0.736669
0.990748
-0.185607
0.987155
-0.123165
0.976922
-0.0674286
0.991206
-0.00671547
0.0684038
0.923889
-0.133065
0.907436
-0.106711
0.884986
-0.0449787
0.906318
-0.0280474
0.0558105
0.915888
-0.0855593
0.887624
-0.0784476
0.87565
-0.0330044
0.879454
-0.0318511
0.0346249
0.922134
-0.0344133
0.877988
-0.0343018
0.862353
-0.017369
0.849026
-0.0185242
0.00915586
0.702255
0.667954
0.650585
0.63206
0.0530225
0.184685
-0.237707
0.0751598
0.381857
-0.403994
0.073148
0.43308
-0.431068
0.0636245
0.431312
-0.421788
0.397136
0.0504024
-0.383914
0.0843508
0.100334
0.155255
0.310953
0.18537
0.402965
0.189956
0.426725
0.409565
0.177527
0.0758331
0.0245007
0.197218
0.189568
0.281868
0.318316
0.323857
0.384736
0.41818
0.315242
0.0389465
-0.0144458
0.161728
0.0667865
0.293184
0.186859
0.408338
0.269583
0.357414
0.469104
0.00935322
-0.023799
0.0810976
-0.00495785
0.203201
0.0647556
0.346096
0.126688
0.238518
0.464992
0.000320553
-0.0241196
0.031132
-0.0357693
0.108651
-0.012763
0.221436
0.0139022
0.116524
0.34343
0.00534929
-0.0294689
0.0230717
-0.0534917
0.0602283
-0.0499197
0.107051
-0.0329209
0.030699
0.192876
0.00726907
-0.036738
0.0194621
-0.0656847
0.0377894
-0.068247
0.0590563
-0.0541878
-0.0213224
0.111078
0.000690729
-0.0374287
0.00384001
-0.068834
0.0117946
-0.0762016
0.0243974
-0.0667906
-0.0447921
0.0478671
-0.00191732
0.000666736
0.00653919
0.0132884
0.0197115
0.327224
1.14416
-1.12796
0.0334269
0.970727
-0.67693
-0.0113209
0.0530276
-0.00827972
0.284628
-0.898111
0.602162
-0.291775
0.181513
0.364063
0.972975
0.0493815
1.28541
-0.00612824
0.108537
0.27513
-1.17937
-0.428499
0.37444
0.709612
0.12699
1.53286
0.152916
0.0826113
0.310548
-1.337
-0.541387
-0.00716728
0.764647
0.0175203
1.50817
0.346342
-0.24621
0.403337
-1.394
-0.600054
-0.250523
-0.108087
0.40302
0.453463
-0.171024
0.692794
-0.521769
-0.310965
0.139941
-0.159162
-0.151803
0.163499
-0.322661
-0.0942255
0.786074
-1.22124
0.249085
0.089002
0.368502
0.0956853
-0.0111353
-0.08455
0.153031
-0.0573453
0.239935
-0.0869047
0.380661
-0.140726
-0.141108
0.220455
-0.181188
0.340636
0.568973
0.897352
0.149382
-0.156527
0.188353
-0.181208
0.114345
-0.163347
0.198384
0.0745006
-0.172409
0.212254
0.0308776
-0.173667
0.217289
-0.123763
0.154641
0.193904
-0.115468
-0.234964
0.147381
-0.116824
0.0941865
-0.119215
0.039223
-0.118703
-0.08454
0.189999
-0.0638014
-0.241665
0.137523
-0.064348
0.0850487
-0.0667414
0.0346293
-0.0682837
-0.0499107
0.206326
-0.0115662
-0.258562
0.153414
-0.0114359
0.0983429
-0.0116699
0.041737
-0.0116778
-0.0081737
0.211147
-0.262848
0.156839
0.0996515
0.0416773
0.0528523
-0.360622
-0.0761437
0.0222838
-0.39122
-0.00399034
-0.404794
-0.0164115
-0.391573
-0.254119
0.137956
-0.325055
-0.173523
0.0929042
-0.346168
0.0469076
-0.358798
0.0107259
-0.355392
-0.243393
0.164117
-0.28041
-0.208761
0.115193
-0.297244
0.0676751
-0.31128
0.0247314
-0.312448
-0.218661
0.179596
-0.239758
-0.220248
0.132531
-0.250179
0.082661
-0.26141
0.0337271
-0.263514
-0.184934
0.177469
-0.228873
0.125674
0.0765182
0.0302936
0.390242
0.0991119
-0.0933742
0.394238
0.0765822
-0.0805784
0.361533
0.140912
-0.108207
0.315076
0.019746
0.0267117
-0.274766
0.408634
0.397544
0.0975477
0.408523
0.0656031
0.398483
0.150952
0.356683
0.0615461
-0.153047
0.402444
0.0910832
0.417723
0.0503241
0.412319
0.156355
0.378529
0.0953366
-0.0161831
0.406227
0.0808355
0.42276
0.0337913
0.422267
0.156849
0.394815
0.122788
0.12007
0.406661
0.425437
0.422118
0.397977
0.416649
0.0934016
0.339862
0.0767873
0.260656
0.0792065
0.279235
-0.0185794
-0.220963
0.500198
0.510078
0.506287
0.477287
0.485419
0.67309
0.40067
0.099528
0.312683
0.0879868
0.210094
0.102589
0.122738
0.0873558
0.0381883
0.543745
0.411483
0.305311
0.219143
)
;

boundaryField
{
    left
    {
        type            calculated;
        value           nonuniform List<scalar> 
17
(
-0.60402
-0.60402
-0.60402
-0.60402
-0.60402
-0.39598
-0.39598
-0.39598
-0.39598
-0.39598
-0.39598
-0.39598
-0.39598
-0.39598
-0.39598
-0.510051
-0.510051
)
;
    }
    right
    {
        type            calculated;
        value           nonuniform List<scalar> 
17
(
0.257724
0.45579
0.39489
0.411854
0.423436
0.462004
0.500906
0.513053
0.515703
0.504562
0.503977
0.489931
0.757683
0.644541
0.673518
0.481529
0.00889937
)
;
    }
    down
    {
        type            calculated;
        value           uniform 0;
    }
    up
    {
        type            calculated;
        value           uniform 0;
    }
    cylinder
    {
        type            calculated;
        value           uniform 0;
    }
    defaultFaces
    {
        type            empty;
    }
}


// ************************************************************************* //
