# Selection   : all
# Cells       : 440
# Volume      : 7.374263e+01
# Time        	maxMag(U)
5.815         	2.846172e+00
5.86          	2.850140e+00
5.91          	2.854276e+00
