/*--------------------------------*- C++ -*----------------------------------*\
  =========                 |
  \\      /  F ield         | OpenFOAM: The Open Source CFD Toolbox
   \\    /   O peration     | Website:  https://openfoam.org
    \\  /    A nd           | Version:  13
     \\/     M anipulation  |
\*---------------------------------------------------------------------------*/
FoamFile
{
    format      ascii;
    class       volVectorField;
    location    "76.3";
    object      U;
}
// * * * * * * * * * * * * * * * * * * * * * * * * * * * * * * * * * * * * * //

dimensions      [0 1 -1 0 0 0 0];

internalField   nonuniform List<vector> 
440
(
(-0.108095 0.0787942 -7.20681e-20)
(-0.1351 0.0967907 -5.79059e-20)
(-0.0124787 0.0387577 1.32651e-19)
(0.340643 0.0635615 -8.91668e-20)
(0.300654 0.168119 2.84887e-20)
(-0.0808963 0.046536 2.55758e-20)
(0.0495953 0.0222768 -9.68035e-20)
(0.508712 -0.0308721 -9.26221e-20)
(1.03321 -0.0531221 4.79705e-20)
(1.51456 -0.0713834 7.36444e-21)
(-0.0207388 0.00837603 4.60452e-20)
(0.463367 -0.0351903 6.61322e-19)
(1.20172 -0.0254659 -4.02218e-19)
(1.78642 -0.00192443 -1.30774e-18)
(2.2737 0.0230129 5.56354e-19)
(0.183009 -0.0415325 -1.62904e-19)
(1.12441 0.00237181 -4.997e-19)
(1.88562 0.0699987 1.58799e-18)
(2.31284 0.114685 1.76197e-18)
(2.41704 0.125406 -4.88768e-19)
(0.523527 -0.00712128 -2.7746e-19)
(1.65845 0.174205 -5.83319e-19)
(2.20517 0.256444 1.77945e-18)
(2.35166 0.271703 1.93297e-18)
(2.42514 0.252149 6.62346e-19)
(0.0297382 -0.195308 -1.37615e-20)
(0.0973553 -0.363315 -1.68888e-19)
(0.14087 -0.369981 2.36601e-19)
(0.190038 -0.276854 -3.47361e-20)
(0.219917 -0.0885466 -2.87721e-19)
(0.104586 -0.308532 -3.93814e-20)
(0.21825 -0.487939 -1.95045e-19)
(0.263464 -0.497158 5.54358e-21)
(0.302755 -0.436835 3.34731e-20)
(0.265308 -0.287399 -1.73691e-19)
(0.175234 -0.38105 5.704e-19)
(0.243581 -0.540951 9.30644e-19)
(0.230725 -0.541208 2.6875e-19)
(0.21875 -0.497864 -3.09397e-18)
(0.129214 -0.379121 5.75787e-20)
(0.162712 -0.31555 1.39025e-19)
(0.0974366 -0.475404 -1.76289e-19)
(-0.0333311 -0.514372 4.87628e-19)
(-0.177878 -0.515907 -2.64289e-19)
(-0.335823 -0.421663 3.61593e-19)
(-0.0187344 -0.0559026 -5.10169e-20)
(-0.181049 -0.14254 -5.95652e-20)
(-0.300115 -0.195091 -2.58037e-19)
(-0.32634 -0.206025 4.6644e-19)
(-0.411964 -0.145847 1.25317e-18)
(0.632061 1.2814 8.73542e-19)
(0.302844 0.4273 -1.4908e-18)
(1.57296 -1.1964 1.96844e-19)
(1.15246 -0.776194 -8.33668e-19)
(1.34016 -0.231335 -8.38468e-20)
(0.915454 1.09752 -1.27793e-18)
(0.570982 0.37143 3.53795e-19)
(1.69436 -1.26464 1.95442e-19)
(1.40349 -0.800777 1.08303e-18)
(1.40414 -0.233368 1.8362e-19)
(0.240828 0.787912 -1.34424e-18)
(1.02228 0.291406 -2.11783e-18)
(1.82905 -1.31157 -9.68892e-20)
(1.32438 -0.812808 6.65644e-19)
(1.35587 -0.211528 6.73046e-22)
(-0.8067 0.595011 4.93914e-19)
(1.58565 0.0988963 1.81024e-19)
(2.21073 -1.17392 7.82515e-19)
(1.3504 -0.74726 -3.64138e-19)
(1.24603 -0.202172 -1.93143e-20)
(-0.886505 0.147376 -2.05418e-19)
(2.01648 -0.278064 5.02968e-19)
(2.23851 -1.15817 0)
(1.40751 -0.680336 1.74415e-19)
(1.1662 -0.169469 -7.10563e-21)
(0.890466 0.0704935 -2.03798e-19)
(2.4381 -0.44041 -1.88827e-19)
(2.28112 -0.944621 -2.13719e-20)
(1.40456 -0.598408 9.59003e-20)
(1.1774 -0.147613 1.99859e-20)
(1.83028 0.13249 -1.66392e-20)
(2.73099 -0.586251 8.54168e-19)
(2.25434 -0.789293 -1.62562e-20)
(1.02901 -0.310523 -2.3528e-20)
(1.01226 -0.0543068 0)
(2.17089 0.0170698 -1.55924e-19)
(2.47587 -0.506014 -9.00376e-21)
(1.84674 -0.403498 2.19474e-19)
(1.1535 -0.178998 2.65598e-20)
(1.121 -0.11304 -8.03577e-22)
(2.20233 -0.00911713 1.00401e-19)
(2.25951 -0.415795 2.1404e-19)
(1.29982 -0.299913 -1.67804e-20)
(1.02622 -0.0570915 -2.66421e-34)
(0.886229 -0.0440274 1.74776e-20)
(1.58623 -0.110259 7.19305e-20)
(0.935501 -0.0406876 9.88269e-20)
(0.391818 0.0416814 -9.45032e-21)
(0.279667 -0.0548602 -1.33193e-20)
(0.0718488 -0.0347267 -2.67773e-21)
(2.34954 0.247445 -8.2756e-19)
(2.50156 0.0822152 -1.00122e-18)
(2.42538 0.0650088 7.63266e-19)
(2.50895 -0.0458898 3.5295e-20)
(2.06199 -0.010664 -4.68774e-20)
(2.14086 0.102088 6.10882e-20)
(2.275 0.10481 -3.69823e-20)
(2.30001 -0.0633824 -1.13431e-19)
(2.3225 -0.0182637 -2.21757e-19)
(2.34673 -0.254281 -1.52958e-21)
(2.08306 0.0243774 6.78102e-20)
(2.12653 0.0684266 9.17001e-20)
(2.18524 -0.0889353 -1.06184e-19)
(2.18042 -0.0173279 3.52887e-20)
(2.24443 -0.178414 1.4242e-20)
(1.98024 0.00418158 1.04564e-19)
(2.04353 0.0315536 1.32194e-19)
(2.06356 -0.0591151 -1.60133e-20)
(2.10301 -0.0158382 -4.10224e-20)
(2.12681 -0.110192 2.12634e-20)
(1.46248 -0.0142783 1.64567e-19)
(1.48146 -0.0186881 -1.06767e-20)
(1.47395 -0.0191457 1.70142e-20)
(1.49481 -0.031513 -2.63987e-20)
(1.4693 -0.0220579 -7.27116e-21)
(1.52509 0.849204 1.03936e-18)
(1.48985 0.94381 -3.24552e-19)
(1.49068 1.06625 -1.2429e-18)
(1.41763 1.10107 6.8049e-19)
(0.867342 0.779324 -1.65037e-19)
(1.79926 0.789662 -5.36148e-19)
(1.77393 0.86781 -2.85218e-18)
(1.78049 0.973794 -1.10417e-18)
(1.68759 0.978813 -3.82376e-19)
(1.01987 0.668196 -6.09951e-19)
(2.08214 0.686004 7.2365e-19)
(2.06814 0.749582 1.82791e-19)
(2.04674 0.826636 -2.17088e-18)
(1.90334 0.807079 -5.87288e-19)
(1.10433 0.516743 4.21603e-19)
(2.24134 0.557266 2.20786e-18)
(2.23507 0.60702 1.59645e-18)
(2.22492 0.653402 -1.81761e-18)
(1.99619 0.605494 -1.35452e-18)
(1.06734 0.334121 -2.38933e-19)
(2.39131 0.409182 1.03577e-18)
(2.39034 0.431814 -7.4406e-19)
(2.28737 0.44697 5.33515e-19)
(1.93533 0.385212 4.11973e-19)
(0.87675 0.140883 -3.4225e-19)
(0.578403 0.407926 -7.12138e-19)
(0.487591 0.44134 -5.76639e-19)
(0.368128 0.475143 7.45013e-20)
(0.228456 0.476666 -2.41773e-20)
(0.0552696 0.336129 6.5553e-20)
(0.680502 0.578699 4.89556e-20)
(0.614652 0.63251 -3.24948e-19)
(0.523048 0.695274 1.67808e-19)
(0.393965 0.749692 -7.75415e-20)
(0.167733 0.572401 1.11298e-19)
(0.773778 0.783193 1.93075e-19)
(0.700075 0.862544 4.02881e-19)
(0.640275 0.957347 6.11422e-20)
(0.552568 1.00284 -2.71545e-19)
(0.300647 0.744466 2.20578e-19)
(1.03248 0.868565 2.03801e-19)
(0.983532 0.952935 -6.13138e-19)
(0.931805 1.05187 -1.76539e-18)
(0.847085 1.1162 7.18488e-19)
(0.498161 0.827527 -1.69853e-19)
(1.12844 0.915744 -1.1707e-19)
(1.14957 1.03335 -1.90872e-19)
(1.16556 1.14637 -3.26656e-19)
(1.10842 1.17479 -3.74507e-19)
(0.679223 0.840695 -6.08606e-21)
(1.00581 0.0440281 -7.92607e-20)
(1.00313 0.0078536 -2.90421e-20)
(1.05048 0.128509 -1.46175e-21)
(0.942177 0.109032 -1.67953e-19)
(0.89933 0.241323 2.87089e-19)
(0.992049 0.0423163 4.83901e-20)
(1.02426 -0.000353337 1.10225e-19)
(1.03262 0.143185 1.00923e-19)
(0.969028 0.131393 1.83918e-20)
(0.934851 0.326379 1.96318e-20)
(0.999188 0.0407162 6.35239e-20)
(1.01296 -0.00944772 -4.31147e-21)
(1.07009 0.1625 -3.19113e-21)
(0.920452 0.135365 1.36412e-19)
(1.13346 0.459476 -4.21565e-19)
(0.996108 0.0392375 -3.13912e-22)
(1.03597 -0.0207743 -1.62882e-19)
(1.05192 0.190478 -5.53987e-20)
(1.00437 0.131147 -3.32003e-19)
(1.15636 0.511119 8.2673e-20)
(1.00137 0.0291558 -9.63985e-21)
(1.0361 -0.0153043 4.67337e-20)
(1.08208 0.192792 2.62861e-20)
(0.987309 0.160707 4.41585e-19)
(1.36655 0.646873 -4.15963e-19)
(0.975127 0.0260674 -1.4461e-21)
(1.10308 -0.0355011 9.29006e-20)
(1.02675 0.230169 -5.75798e-20)
(1.25007 0.078527 9.10526e-19)
(1.3444 0.670224 -3.56298e-19)
(0.931392 -0.00771011 -1.42128e-21)
(1.1898 -0.018089 -7.56561e-20)
(0.905755 0.155328 4.77657e-21)
(1.37568 0.0519999 -3.09588e-19)
(1.25612 0.500449 -2.07475e-20)
(0.988046 -0.0301769 1.36544e-21)
(1.10972 0.00403817 1.33135e-35)
(0.994983 0.129771 -1.36706e-21)
(1.29946 -0.00059396 9.59182e-20)
(1.31962 0.369632 1.4885e-19)
(1.08233 -0.0656624 3.92213e-21)
(0.891795 0.00544683 -2.92758e-20)
(1.24477 0.0456597 1.88509e-20)
(1.15114 -0.0278439 2.50825e-20)
(1.41645 0.233886 -2.2307e-19)
(0.967391 -0.022359 -4.07018e-20)
(0.731752 -0.0182886 -3.17159e-21)
(1.02649 -0.00904687 2.08132e-20)
(0.718594 -0.00921529 -1.76628e-20)
(1.06594 0.0790833 -5.01198e-20)
(1.74167 0.649632 2.83718e-19)
(1.8447 0.638643 7.09168e-19)
(2.07664 0.536426 -9.97453e-19)
(2.15662 0.474859 3.07683e-20)
(2.34789 0.31064 4.27257e-19)
(1.64971 0.45293 4.9824e-20)
(1.7046 0.407109 9.13223e-19)
(1.90204 0.376519 9.75031e-20)
(1.94149 0.267327 -8.33426e-19)
(2.12374 0.233338 -2.64863e-19)
(1.6522 0.311726 -2.08174e-19)
(1.7463 0.257235 -1.41958e-19)
(1.86921 0.243025 1.80195e-19)
(1.93657 0.146307 -2.64939e-19)
(2.02916 0.154392 2.42159e-19)
(1.67021 0.192547 3.44922e-19)
(1.74264 0.154423 -2.25599e-21)
(1.83497 0.138953 2.06287e-19)
(1.87593 0.0807896 1.69536e-19)
(1.95603 0.0816767 -1.68874e-19)
(1.27146 0.0535387 -4.33307e-20)
(1.34649 0.0338956 2.24623e-19)
(1.39215 0.0208505 9.53671e-20)
(1.42711 0.00305773 -2.00981e-19)
(1.45172 -0.00439014 3.69771e-22)
(1.3906 -0.0304065 8.34764e-20)
(2.48171 -0.00786265 -6.23267e-19)
(2.69925 -0.00227088 1.66727e-18)
(2.66318 0.0481073 7.80761e-19)
(2.40497 0.0517045 -5.29298e-19)
(0.950261 0.113305 1.97205e-19)
(2.27851 0.149525 -6.9256e-19)
(2.68364 0.163638 -9.9129e-19)
(2.68256 0.16929 1.36883e-18)
(2.48956 0.167164 -1.02332e-18)
(0.357941 0.123615 -1.01561e-20)
(1.7081 0.251508 8.56642e-19)
(2.44387 0.308807 1.35171e-19)
(2.71594 0.329093 1.52319e-18)
(2.65667 0.289524 8.51691e-19)
(0.0109206 0.0149835 2.61173e-19)
(0.83991 0.212092 3.08351e-19)
(1.75034 0.348481 -1.01843e-18)
(2.29704 0.418412 1.05263e-19)
(2.70902 0.46075 9.98942e-19)
(-0.0962288 -0.0791992 2.06263e-19)
(0.181854 0.0500361 -2.38278e-19)
(0.874832 0.247547 -1.55562e-19)
(1.45732 0.394516 2.69173e-19)
(2.11749 0.57197 1.72754e-19)
(-0.0955118 -0.116403 4.99831e-20)
(-0.063492 -0.0993654 1.21302e-19)
(0.2744 0.0123633 5.30092e-20)
(0.5782 0.17524 -2.76633e-19)
(1.39233 0.463186 5.69614e-21)
(-0.0857728 -0.154894 -4.62811e-20)
(-0.11326 -0.219828 -3.18012e-20)
(0.0123829 -0.172857 8.00939e-20)
(0.15154 -0.00267473 -5.80959e-20)
(0.642719 0.337688 -6.49939e-21)
(-0.0706674 -0.17624 -5.7056e-20)
(-0.112494 -0.251288 -1.42424e-20)
(-0.0693592 -0.193038 -5.50652e-22)
(-0.0140326 -0.0410179 -4.17242e-20)
(0.154592 0.215527 3.04288e-19)
(-0.0433772 -0.155028 -2.26081e-20)
(-0.0755755 -0.234713 -6.64114e-20)
(-0.0559284 -0.174329 8.9689e-20)
(-0.00857911 -0.0255503 3.2383e-19)
(0.060148 0.19411 -1.06739e-20)
(-0.0126309 -0.144961 2.13104e-20)
(-0.00705308 -0.271195 -6.08249e-20)
(0.0222826 -0.255909 2.17407e-20)
(0.0713924 -0.128402 -1.58217e-20)
(0.137118 0.0906388 -1.93518e-19)
(1.5807 0.7096 5.66718e-21)
(0.529491 0.359579 -2.86184e-19)
(-0.0434323 -0.0779193 -2.24156e-19)
(0.819854 -0.275732 -1.19995e-19)
(0.928833 -0.0332182 -2.33114e-21)
(1.48542 0.742036 1.32982e-19)
(-0.18257 0.593024 1.5187e-18)
(-0.0457358 -0.137002 1.85837e-19)
(0.801492 -0.44247 -9.62833e-21)
(1.1006 -0.041511 3.62323e-20)
(1.00684 0.85989 7.84493e-20)
(-1.52758 0.668237 3.19074e-18)
(0.488154 -0.502611 2.17585e-19)
(0.575921 -0.597021 6.62553e-20)
(1.16838 -0.078628 2.79626e-20)
(0.548209 1.02582 3.10456e-19)
(-1.73248 0.60457 -4.5102e-18)
(0.798324 -0.842943 -1.30113e-18)
(0.539171 -0.678096 1.7424e-20)
(1.20455 -0.146367 5.74364e-21)
(0.315432 1.22348 1.2601e-19)
(-0.505135 0.581091 -2.8481e-19)
(1.23759 -1.05821 5.93367e-19)
(0.844463 -0.763004 -1.08392e-19)
(1.28881 -0.217842 -3.64268e-20)
(-0.261316 0.07259 -3.23223e-20)
(-0.418167 -0.18669 0)
(-0.395077 -0.111407 -1.07449e-19)
(0.12005 -0.0827449 5.06921e-20)
(0.415046 -0.0241912 -2.7665e-20)
(1.78455 0.636484 0)
(0.951842 0.289699 0)
(0.274735 -0.0502696 3.05564e-19)
(0.670704 -0.183115 1.00258e-19)
(0.747373 -0.0515459 2.11946e-20)
(0.758202 0.00731059 -1.32566e-19)
(0.843766 0.00301069 3.73657e-19)
(0.921242 0.0451646 -2.56648e-20)
(0.851188 0.0246137 3.92195e-19)
(1.15954 0.2173 2.19025e-19)
(1.72121 0.0460093 1.28932e-19)
(1.95357 0.0962284 5.62497e-19)
(1.99944 0.205993 -9.51521e-19)
(2.37224 0.279396 4.16273e-19)
(2.35253 0.502237 6.79169e-19)
(0.980886 -0.534629 3.25575e-20)
(0.973407 -0.634552 -2.21227e-19)
(0.973278 -0.743227 -1.92716e-19)
(0.908489 -0.822067 1.15178e-19)
(0.561445 -0.656143 1.52334e-19)
(0.876932 -0.444237 1.07472e-19)
(0.821232 -0.515762 1.34215e-19)
(0.745181 -0.59292 -1.1928e-19)
(0.629406 -0.661515 1.58847e-19)
(0.351666 -0.533854 3.98308e-20)
(0.690069 -0.305674 -1.11477e-19)
(0.600206 -0.352233 -6.36223e-20)
(0.499822 -0.410889 -1.21526e-20)
(0.382566 -0.462806 -5.48028e-20)
(0.18026 -0.371329 -1.47003e-19)
(0.577804 -0.0747217 -4.38069e-19)
(0.492409 -0.0965683 -3.4952e-19)
(0.382087 -0.128341 2.86056e-19)
(0.253125 -0.165933 1.39419e-19)
(0.0797386 -0.151736 1.28224e-20)
(0.545148 0.134976 -1.34148e-19)
(0.459058 0.132447 -1.5522e-19)
(0.340185 0.125565 -3.58863e-20)
(0.198989 0.12229 5.84484e-20)
(0.0350471 0.0888665 1.47949e-20)
(2.24427 -0.0213329 1.0164e-18)
(2.46468 -0.0971319 3.76333e-19)
(2.56063 -0.190632 -9.44614e-19)
(2.45182 -0.218088 -2.018e-18)
(1.52797 -0.220214 1.53481e-19)
(2.14727 -0.132087 1.65831e-18)
(2.27694 -0.248942 2.15917e-18)
(2.31637 -0.379673 1.7988e-19)
(2.25192 -0.44278 3.13441e-19)
(1.47973 -0.418316 -2.10508e-19)
(1.8869 -0.305568 -4.17888e-18)
(1.93909 -0.42972 4.72195e-19)
(1.9817 -0.564873 1.33322e-18)
(1.94253 -0.651466 -5.33182e-19)
(1.2893 -0.577387 8.48409e-19)
(1.62147 -0.439511 1.02978e-18)
(1.64581 -0.547408 -2.70831e-18)
(1.65053 -0.678143 -3.12242e-18)
(1.59628 -0.778188 9.8169e-19)
(1.04703 -0.661897 6.42892e-19)
(1.32563 -0.509801 2.33845e-19)
(1.27959 -0.611857 2.97767e-19)
(1.2698 -0.743418 -4.81604e-19)
(1.21992 -0.841961 -5.85711e-19)
(0.785286 -0.686943 -5.63382e-21)
(1.06071 0.0508775 6.879e-21)
(0.948224 0.0467449 1.82095e-21)
(1.12896 0.0741868 1.07483e-20)
(0.842401 -0.0121326 -2.71764e-19)
(1.17816 -0.23912 -2.24594e-20)
(1.07023 0.0528243 -2.28789e-21)
(0.941509 0.0410728 2.21039e-20)
(1.12747 0.0926056 9.04789e-21)
(0.913145 0.0284498 2.39585e-19)
(1.05296 -0.125817 6.94192e-21)
(1.06731 0.0488082 -5.42567e-20)
(0.944033 0.0328922 -6.26142e-23)
(1.11025 0.097199 -3.90994e-21)
(0.90793 0.0448461 1.30096e-19)
(1.0059 -0.063887 -2.86814e-19)
(1.04817 0.0470248 6.40024e-20)
(0.966774 0.0247253 2.58283e-21)
(1.07549 0.104527 1.84613e-20)
(0.940917 0.0704596 -6.50917e-20)
(0.892127 0.0445857 5.34967e-20)
(1.02136 0.044128 1.57746e-20)
(0.995031 0.01887 -2.27158e-20)
(1.04573 0.113566 2.98414e-20)
(0.957185 0.0925516 3.42003e-20)
(0.858437 0.141896 -8.767e-21)
(0.8872 0.0335508 0)
(0.722263 0.0273929 8.19162e-21)
(0.620686 0.020777 7.41955e-21)
(0.376675 -0.0105218 5.75424e-20)
(0.745771 -0.0599836 -1.85945e-19)
(1.02938 0.0721887 -6.20438e-20)
(0.957345 0.0662007 1.69016e-21)
(1.04134 0.0758372 -7.12211e-20)
(0.837712 -0.0126441 -1.60803e-19)
(1.10397 -0.22019 -1.95949e-19)
(1.04275 -0.0685162 -4.28936e-20)
(1.1354 -0.0381504 6.2086e-19)
(1.24665 0.0367821 3.6901e-19)
(1.10921 0.0622614 2.86656e-20)
(0.867779 0.0340588 0)
(1.40215 -0.33588 4.20267e-19)
(1.52981 -0.295284 1.77943e-18)
(1.72964 -0.170225 -1.93172e-18)
(1.8256 -0.0199247 -6.19708e-19)
(1.7778 0.0405929 4.65049e-19)
)
;

boundaryField
{
    left
    {
        type            fixedValue;
        value           uniform (1 0 0);
    }
    right
    {
        type            zeroGradient;
    }
    down
    {
        type            noSlip;
    }
    up
    {
        type            noSlip;
    }
    cylinder
    {
        type            noSlip;
    }
    defaultFaces
    {
        type            empty;
    }
}


// ************************************************************************* //
