# Forces      
# CofR        : (0.000000e+00 0.000000e+00 0.000000e+00)
# Time        forces(pressure viscous)	moments(pressure viscous)
0             	((0.000000e+00 0.000000e+00 0.000000e+00) (0.000000e+00 0.000000e+00 0.000000e+00)) ((0.000000e+00 0.000000e+00 0.000000e+00) (0.000000e+00 0.000000e+00 0.000000e+00))
0.005         	((3.321125e+03 -3.861965e-01 -6.452251e-16) (4.001246e+00 -1.384391e-03 1.067956e-17)) ((-3.370535e-16 5.270617e-16 -1.982613e-04) (-3.779292e-18 -1.459740e-18 -3.608559e-05))
0.01          	((1.941392e+03 4.856455e+00 -1.213627e-16) (1.150421e+03 8.313443e-01 8.394375e-16)) ((3.575912e-17 5.917499e-17 -1.743376e-04) (1.202490e-16 -1.164581e-16 1.213070e+01))
0.015         	((1.399254e+03 8.741201e+00 -9.582657e-17) (8.124931e+02 1.375447e+00 6.041749e-16)) ((4.930658e-17 3.238118e-17 -1.189794e-04) (1.613984e-16 -1.510370e-17 -1.139546e+01))
0.02          	((1.263824e+03 1.113130e+01 -6.816714e-17) (6.807595e+02 2.106523e+00 4.861368e-16)) ((5.558023e-17 1.919620e-17 -8.251411e-05) (1.604171e-16 3.143912e-17 -6.675593e+01))
0.025         	((1.154104e+03 1.332413e+01 -5.113862e-17) (6.025892e+02 2.651563e+00 4.652534e-16)) ((5.547821e-17 1.227834e-17 -5.973001e-05) (1.788471e-16 2.080600e-17 -1.171318e+02))
0.03          	((1.074171e+03 1.461827e+01 -4.055521e-17) (5.481282e+02 3.214320e+00 4.451349e-16)) ((5.392341e-17 9.076669e-18 -4.395367e-05) (1.912952e-16 1.929113e-17 -1.545514e+02))
0.035         	((1.012613e+03 1.537752e+01 -3.387816e-17) (5.105981e+02 3.584549e+00 4.358985e-16)) ((5.238694e-17 6.932390e-18 -3.155042e-05) (1.965710e-16 3.256872e-18 -1.815090e+02))
0.04          	((9.670783e+02 1.595269e+01 -2.907852e-17) (4.852137e+02 3.944278e+00 4.317527e-16)) ((5.125516e-17 5.457813e-18 -2.276849e-05) (1.992386e-16 -9.456392e-18 -2.007919e+02))
0.045         	((9.344055e+02 1.621533e+01 -2.575971e-17) (4.680178e+02 4.143337e+00 4.300126e-16)) ((5.041727e-17 4.295765e-18 -1.618124e-05) (1.996844e-16 -2.573942e-17 -2.129140e+02))
0.05          	((9.115874e+02 1.645549e+01 -2.336458e-17) (4.566309e+02 4.346611e+00 4.291915e-16)) ((4.982536e-17 3.487455e-18 -1.178605e-05) (2.003179e-16 -3.542605e-17 -2.209016e+02))
0.055         	((8.960934e+02 1.660068e+01 -2.173128e-17) (4.490873e+02 4.454601e+00 4.281935e-16)) ((4.942989e-17 2.837286e-18 -8.626299e-06) (2.002700e-16 -4.480551e-17 -2.255088e+02))
0.06          	((8.857000e+02 1.673117e+01 -2.058879e-17) (4.441682e+02 4.579458e+00 4.279663e-16)) ((4.920234e-17 2.386537e-18 -6.612959e-06) (2.005511e-16 -4.986846e-17 -2.284318e+02))
0.065         	((8.788834e+02 1.677184e+01 -1.982467e-17) (4.409466e+02 4.644102e+00 4.273835e-16)) ((4.907367e-17 2.020814e-18 -5.211383e-06) (2.003683e-16 -5.469349e-17 -2.299528e+02))
0.07          	((8.744065e+02 1.686772e+01 -1.930179e-17) (4.388483e+02 4.724053e+00 4.274221e-16)) ((4.903379e-17 1.759244e-18 -4.353745e-06) (2.004285e-16 -5.720466e-17 -2.308903e+02))
0.075         	((8.714853e+02 1.693698e+01 -1.894696e-17) (4.374682e+02 4.771739e+00 4.269667e-16)) ((4.902920e-17 1.534816e-18 -3.755444e-06) (2.002632e-16 -5.956829e-17 -2.312866e+02))
0.08          	((8.695441e+02 1.698174e+01 -1.870022e-17) (4.365565e+02 4.823206e+00 4.269514e-16)) ((4.905920e-17 1.364940e-18 -3.394709e-06) (2.002877e-16 -6.072136e-17 -2.315218e+02))
0.085         	((8.682972e+02 1.699867e+01 -1.852916e-17) (4.359512e+02 4.851295e+00 4.266184e-16)) ((4.909696e-17 1.217146e-18 -3.141914e-06) (2.001469e-16 -6.186559e-17 -2.315543e+02))
0.09          	((8.674645e+02 1.702301e+01 -1.840610e-17) (4.355427e+02 4.883469e+00 4.266207e-16)) ((4.914663e-17 1.100719e-18 -2.999999e-06) (2.001274e-16 -6.243450e-17 -2.315659e+02))
0.095         	((8.669257e+02 1.702955e+01 -1.831495e-17) (4.352673e+02 4.903098e+00 4.264121e-16)) ((4.919317e-17 9.971863e-19 -2.893929e-06) (2.000151e-16 -6.302923e-17 -2.315012e+02))
0.1           	((8.665524e+02 1.705643e+01 -1.824426e-17) (4.350747e+02 4.927577e+00 4.263983e-16)) ((4.924102e-17 9.118449e-19 -2.837979e-06) (1.999881e-16 -6.333340e-17 -2.314538e+02))
0.105         	((8.663010e+02 1.707112e+01 -1.818760e-17) (4.349428e+02 4.944641e+00 4.262428e-16)) ((4.928317e-17 8.354107e-19 -2.794545e-06) (1.999169e-16 -6.365315e-17 -2.313787e+02))
0.11          	((8.661107e+02 1.708800e+01 -1.814192e-17) (4.348459e+02 4.963793e+00 4.262122e-16)) ((4.932508e-17 7.710846e-19 -2.776855e-06) (1.998896e-16 -6.383341e-17 -2.313260e+02))
0.115         	((8.659976e+02 1.709823e+01 -1.810370e-17) (4.347795e+02 4.977933e+00 4.260959e-16)) ((4.936170e-17 7.134928e-19 -2.764029e-06) (1.998358e-16 -6.401638e-17 -2.312633e+02))
0.12          	((8.659152e+02 1.711104e+01 -1.807163e-17) (4.347294e+02 4.993550e+00 4.260568e-16)) ((4.939723e-17 6.639407e-19 -2.765548e-06) (1.998089e-16 -6.413124e-17 -2.312184e+02))
0.125         	((8.658607e+02 1.711999e+01 -1.804296e-17) (4.346946e+02 5.005931e+00 4.259653e-16)) ((4.942834e-17 6.191768e-19 -2.766522e-06) (1.997691e-16 -6.424263e-17 -2.311704e+02))
0.13          	((8.658222e+02 1.713071e+01 -1.801811e-17) (4.346675e+02 5.019219e+00 4.259201e-16)) ((4.945796e-17 5.800735e-19 -2.775601e-06) (1.997447e-16 -6.432168e-17 -2.311353e+02))
0.135         	((8.658019e+02 1.713756e+01 -1.799529e-17) (4.346487e+02 5.030305e+00 4.258471e-16)) ((4.948419e-17 5.445834e-19 -2.784011e-06) (1.997138e-16 -6.439520e-17 -2.310999e+02))
0.14          	((8.657872e+02 1.714897e+01 -1.797508e-17) (4.346340e+02 5.042093e+00 4.258014e-16)) ((4.950886e-17 5.133628e-19 -2.795873e-06) (1.996923e-16 -6.445435e-17 -2.310733e+02))
0.145         	((8.657802e+02 1.716648e+01 -1.795514e-17) (4.346242e+02 5.053288e+00 4.257380e-16)) ((4.953013e-17 4.845600e-19 -2.805721e-06) (1.996718e-16 -6.450530e-17 -2.310477e+02))
0.15          	((8.657758e+02 1.717981e+01 -1.793720e-17) (4.346165e+02 5.065009e+00 4.256904e-16)) ((4.955024e-17 4.588102e-19 -2.818580e-06) (1.996601e-16 -6.455135e-17 -2.310279e+02))
0.155         	((8.657756e+02 1.718674e+01 -1.792067e-17) (4.346117e+02 5.074852e+00 4.256419e-16)) ((4.956884e-17 4.355771e-19 -2.830229e-06) (1.996424e-16 -6.459304e-17 -2.310095e+02))
0.16          	((8.657819e+02 1.719451e+01 -1.790548e-17) (4.346083e+02 5.084750e+00 4.256039e-16)) ((4.958642e-17 4.145144e-19 -2.843305e-06) (1.996290e-16 -6.463186e-17 -2.309947e+02))
0.165         	((8.657816e+02 1.720347e+01 -1.789073e-17) (4.346067e+02 5.093862e+00 4.255615e-16)) ((4.960232e-17 3.951919e-19 -2.853142e-06) (1.996138e-16 -6.466572e-17 -2.309809e+02))
0.17          	((8.657922e+02 1.720943e+01 -1.787728e-17) (4.346063e+02 5.102833e+00 4.255309e-16)) ((4.961716e-17 3.777104e-19 -2.865913e-06) (1.996013e-16 -6.470194e-17 -2.309697e+02))
0.175         	((8.658029e+02 1.721549e+01 -1.786452e-17) (4.346075e+02 5.111143e+00 4.255044e-16)) ((4.963075e-17 3.617710e-19 -2.876849e-06) (1.995896e-16 -6.473649e-17 -2.309596e+02))
0.18          	((8.658143e+02 1.722240e+01 -1.785260e-17) (4.346089e+02 5.119378e+00 4.254793e-16)) ((4.964353e-17 3.472580e-19 -2.888427e-06) (1.995796e-16 -6.476883e-17 -2.309514e+02))
0.185         	((8.658265e+02 1.722893e+01 -1.784136e-17) (4.346111e+02 5.127003e+00 4.254542e-16)) ((4.965533e-17 3.340870e-19 -2.899617e-06) (1.995703e-16 -6.479655e-17 -2.309444e+02))
0.19          	((8.658384e+02 1.723501e+01 -1.783067e-17) (4.346135e+02 5.134504e+00 4.254327e-16)) ((4.966631e-17 3.219298e-19 -2.910461e-06) (1.995622e-16 -6.482489e-17 -2.309388e+02))
0.195         	((8.658517e+02 1.724078e+01 -1.782049e-17) (4.346165e+02 5.141626e+00 4.254130e-16)) ((4.967650e-17 3.107721e-19 -2.920470e-06) (1.995543e-16 -6.485125e-17 -2.309339e+02))
0.2           	((8.658650e+02 1.724646e+01 -1.781081e-17) (4.346196e+02 5.148578e+00 4.253958e-16)) ((4.968605e-17 3.004752e-19 -2.930246e-06) (1.995473e-16 -6.487750e-17 -2.309301e+02))
0.205         	((8.658785e+02 1.725245e+01 -1.780166e-17) (4.346230e+02 5.155144e+00 4.253761e-16)) ((4.969499e-17 2.911042e-19 -2.940091e-06) (1.995412e-16 -6.489847e-17 -2.309270e+02))
0.21          	((8.658918e+02 1.725673e+01 -1.779285e-17) (4.346265e+02 5.161485e+00 4.253621e-16)) ((4.970325e-17 2.823879e-19 -2.948991e-06) (1.995354e-16 -6.492263e-17 -2.309247e+02))
0.215         	((8.659052e+02 1.725810e+01 -1.778411e-17) (4.346301e+02 5.167307e+00 4.253478e-16)) ((4.971063e-17 2.744103e-19 -2.957266e-06) (1.995304e-16 -6.494499e-17 -2.309229e+02))
0.22          	((8.659179e+02 1.726129e+01 -1.777590e-17) (4.346336e+02 5.172823e+00 4.253370e-16)) ((4.971761e-17 2.671402e-19 -2.965262e-06) (1.995244e-16 -6.496832e-17 -2.309218e+02))
0.225         	((8.659306e+02 1.726480e+01 -1.776785e-17) (4.346372e+02 5.178363e+00 4.253265e-16)) ((4.972434e-17 2.602495e-19 -2.972824e-06) (1.995197e-16 -6.499007e-17 -2.309211e+02))
0.23          	((8.659430e+02 1.726876e+01 -1.776022e-17) (4.346410e+02 5.183579e+00 4.253180e-16)) ((4.973065e-17 2.539592e-19 -2.979964e-06) (1.995147e-16 -6.501173e-17 -2.309207e+02))
0.235         	((8.659553e+02 1.727298e+01 -1.775289e-17) (4.346447e+02 5.188790e+00 4.253102e-16)) ((4.973661e-17 2.481041e-19 -2.986693e-06) (1.995106e-16 -6.503231e-17 -2.309206e+02))
0.24          	((8.659674e+02 1.727697e+01 -1.774586e-17) (4.346485e+02 5.193722e+00 4.253039e-16)) ((4.974221e-17 2.426971e-19 -2.993078e-06) (1.995062e-16 -6.505257e-17 -2.309208e+02))
0.245         	((8.659794e+02 1.728100e+01 -1.773910e-17) (4.346522e+02 5.198575e+00 4.252980e-16)) ((4.974750e-17 2.376656e-19 -2.999095e-06) (1.995026e-16 -6.507201e-17 -2.309212e+02))
0.25          	((8.659910e+02 1.728481e+01 -1.773260e-17) (4.346560e+02 5.203198e+00 4.252933e-16)) ((4.975248e-17 2.330065e-19 -3.004777e-06) (1.994988e-16 -6.509109e-17 -2.309219e+02))
0.255         	((8.660025e+02 1.728857e+01 -1.772634e-17) (4.346597e+02 5.207711e+00 4.252890e-16)) ((4.975719e-17 2.286602e-19 -3.010129e-06) (1.994955e-16 -6.510949e-17 -2.309227e+02))
0.26          	((8.660136e+02 1.729215e+01 -1.772031e-17) (4.346634e+02 5.212029e+00 4.252856e-16)) ((4.976163e-17 2.246175e-19 -3.015168e-06) (1.994922e-16 -6.512750e-17 -2.309237e+02))
0.265         	((8.660244e+02 1.729574e+01 -1.771450e-17) (4.346670e+02 5.216232e+00 4.252824e-16)) ((4.976583e-17 2.208491e-19 -3.019889e-06) (1.994894e-16 -6.514491e-17 -2.309249e+02))
0.27          	((8.660349e+02 1.729904e+01 -1.770889e-17) (4.346705e+02 5.220260e+00 4.252800e-16)) ((4.976981e-17 2.173273e-19 -3.024358e-06) (1.994865e-16 -6.516195e-17 -2.309262e+02))
0.275         	((8.660451e+02 1.730232e+01 -1.770349e-17) (4.346740e+02 5.224159e+00 4.252778e-16)) ((4.977357e-17 2.140399e-19 -3.028537e-06) (1.994840e-16 -6.517845e-17 -2.309276e+02))
0.28          	((8.660550e+02 1.730546e+01 -1.769828e-17) (4.346774e+02 5.227916e+00 4.252761e-16)) ((4.977713e-17 2.109643e-19 -3.032464e-06) (1.994815e-16 -6.519456e-17 -2.309291e+02))
0.285         	((8.660647e+02 1.730850e+01 -1.769325e-17) (4.346807e+02 5.231544e+00 4.252746e-16)) ((4.978051e-17 2.080793e-19 -3.036149e-06) (1.994792e-16 -6.521020e-17 -2.309307e+02))
0.29          	((8.660740e+02 1.731144e+01 -1.768839e-17) (4.346840e+02 5.235042e+00 4.252735e-16)) ((4.978372e-17 2.053745e-19 -3.039599e-06) (1.994770e-16 -6.522545e-17 -2.309324e+02))
0.295         	((8.660830e+02 1.731428e+01 -1.768371e-17) (4.346871e+02 5.238421e+00 4.252726e-16)) ((4.978677e-17 2.028361e-19 -3.042832e-06) (1.994750e-16 -6.524028e-17 -2.309342e+02))
0.3           	((8.660917e+02 1.731645e+01 -1.767918e-17) (4.346903e+02 5.241690e+00 4.252720e-16)) ((4.978965e-17 2.004855e-19 -3.045869e-06) (1.994734e-16 -6.525474e-17 -2.309359e+02))
0.305         	((8.661000e+02 1.731914e+01 -1.767478e-17) (4.346933e+02 5.244860e+00 4.252715e-16)) ((4.979241e-17 1.982179e-19 -3.048680e-06) (1.994716e-16 -6.526878e-17 -2.309377e+02))
0.31          	((8.661081e+02 1.732170e+01 -1.767056e-17) (4.346962e+02 5.247910e+00 4.252712e-16)) ((4.979502e-17 1.961106e-19 -3.051307e-06) (1.994699e-16 -6.528244e-17 -2.309396e+02))
0.315         	((8.661160e+02 1.732420e+01 -1.766649e-17) (4.346991e+02 5.250853e+00 4.252710e-16)) ((4.979751e-17 1.941221e-19 -3.053756e-06) (1.994683e-16 -6.529578e-17 -2.309415e+02))
0.32          	((8.661236e+02 1.732662e+01 -1.766255e-17) (4.347019e+02 5.253692e+00 4.252709e-16)) ((4.979987e-17 1.922492e-19 -3.056040e-06) (1.994667e-16 -6.530875e-17 -2.309434e+02))
0.325         	((8.661310e+02 1.732895e+01 -1.765875e-17) (4.347046e+02 5.256434e+00 4.252710e-16)) ((4.980213e-17 1.904807e-19 -3.058166e-06) (1.994653e-16 -6.532140e-17 -2.309453e+02))
0.33          	((8.661381e+02 1.733120e+01 -1.765508e-17) (4.347072e+02 5.259082e+00 4.252711e-16)) ((4.980427e-17 1.888113e-19 -3.060143e-06) (1.994640e-16 -6.533372e-17 -2.309472e+02))
0.335         	((8.661451e+02 1.733338e+01 -1.765154e-17) (4.347097e+02 5.261640e+00 4.252714e-16)) ((4.980632e-17 1.872327e-19 -3.061978e-06) (1.994627e-16 -6.534573e-17 -2.309491e+02))
0.34          	((8.661517e+02 1.733548e+01 -1.764812e-17) (4.347122e+02 5.264111e+00 4.252717e-16)) ((4.980827e-17 1.857397e-19 -3.063680e-06) (1.994615e-16 -6.535744e-17 -2.309510e+02))
0.345         	((8.661582e+02 1.733751e+01 -1.764481e-17) (4.347146e+02 5.266500e+00 4.252721e-16)) ((4.981013e-17 1.843257e-19 -3.065254e-06) (1.994604e-16 -6.536886e-17 -2.309529e+02))
0.35          	((8.661644e+02 1.733947e+01 -1.764161e-17) (4.347169e+02 5.268809e+00 4.252725e-16)) ((4.981191e-17 1.829862e-19 -3.066709e-06) (1.994593e-16 -6.537999e-17 -2.309547e+02))
0.355         	((8.661705e+02 1.734137e+01 -1.763853e-17) (4.347191e+02 5.271042e+00 4.252730e-16)) ((4.981361e-17 1.817158e-19 -3.068049e-06) (1.994583e-16 -6.539085e-17 -2.309566e+02))
0.36          	((8.661763e+02 1.734318e+01 -1.763557e-17) (4.347213e+02 5.273197e+00 4.252736e-16)) ((4.981521e-17 1.805306e-19 -3.069275e-06) (1.994574e-16 -6.540142e-17 -2.309584e+02))
0.365         	((8.661820e+02 1.734495e+01 -1.763269e-17) (4.347235e+02 5.275283e+00 4.252742e-16)) ((4.981676e-17 1.793892e-19 -3.070404e-06) (1.994565e-16 -6.541169e-17 -2.309603e+02))
0.37          	((8.661875e+02 1.734667e+01 -1.762990e-17) (4.347255e+02 5.277306e+00 4.252748e-16)) ((4.981824e-17 1.783002e-19 -3.071443e-06) (1.994557e-16 -6.542178e-17 -2.309621e+02))
0.375         	((8.661927e+02 1.734831e+01 -1.762721e-17) (4.347275e+02 5.279259e+00 4.252754e-16)) ((4.981966e-17 1.772656e-19 -3.072389e-06) (1.994549e-16 -6.543160e-17 -2.309638e+02))
0.38          	((8.661978e+02 1.734990e+01 -1.762461e-17) (4.347294e+02 5.281150e+00 4.252761e-16)) ((4.982101e-17 1.762807e-19 -3.073248e-06) (1.994541e-16 -6.544120e-17 -2.309656e+02))
0.385         	((8.662027e+02 1.735143e+01 -1.762210e-17) (4.347313e+02 5.282978e+00 4.252767e-16)) ((4.982230e-17 1.753434e-19 -3.074027e-06) (1.994534e-16 -6.545056e-17 -2.309673e+02))
0.39          	((8.662074e+02 1.735291e+01 -1.761967e-17) (4.347331e+02 5.284748e+00 4.252774e-16)) ((4.982354e-17 1.744501e-19 -3.074728e-06) (1.994528e-16 -6.545971e-17 -2.309690e+02))
0.395         	((8.662119e+02 1.735433e+01 -1.761733e-17) (4.347348e+02 5.286459e+00 4.252781e-16)) ((4.982472e-17 1.735989e-19 -3.075357e-06) (1.994521e-16 -6.546863e-17 -2.309707e+02))
0.4           	((8.662163e+02 1.735569e+01 -1.761506e-17) (4.347365e+02 5.288114e+00 4.252788e-16)) ((4.982585e-17 1.727868e-19 -3.075918e-06) (1.994516e-16 -6.547735e-17 -2.309723e+02))
0.405         	((8.662205e+02 1.735700e+01 -1.761287e-17) (4.347381e+02 5.289715e+00 4.252795e-16)) ((4.982693e-17 1.720122e-19 -3.076415e-06) (1.994510e-16 -6.548587e-17 -2.309740e+02))
0.41          	((8.662282e+02 1.735880e+01 -1.761083e-17) (4.347398e+02 5.291289e+00 4.252798e-16)) ((4.982808e-17 1.712778e-19 -3.077116e-06) (1.994497e-16 -6.549591e-17 -2.309755e+02))
0.415         	((8.662308e+02 1.735963e+01 -1.760880e-17) (4.347413e+02 5.292771e+00 4.252808e-16)) ((4.982903e-17 1.705800e-19 -3.077391e-06) (1.994497e-16 -6.550363e-17 -2.309771e+02))
0.42          	((8.662346e+02 1.736074e+01 -1.760684e-17) (4.347426e+02 5.294182e+00 4.252812e-16)) ((4.982998e-17 1.699029e-19 -3.077739e-06) (1.994490e-16 -6.551198e-17 -2.309786e+02))
0.425         	((8.662380e+02 1.736179e+01 -1.760492e-17) (4.347440e+02 5.295570e+00 4.252821e-16)) ((4.983088e-17 1.692575e-19 -3.077985e-06) (1.994487e-16 -6.551951e-17 -2.309802e+02))
0.43          	((8.662418e+02 1.736321e+01 -1.760309e-17) (4.347454e+02 5.296943e+00 4.252826e-16)) ((4.983175e-17 1.686312e-19 -3.078213e-06) (1.994482e-16 -6.552731e-17 -2.309816e+02))
0.435         	((8.662457e+02 1.736468e+01 -1.760132e-17) (4.347468e+02 5.298332e+00 4.252835e-16)) ((4.983259e-17 1.680445e-19 -3.078378e-06) (1.994479e-16 -6.553441e-17 -2.309830e+02))
0.44          	((8.662491e+02 1.736584e+01 -1.759961e-17) (4.347482e+02 5.299667e+00 4.252842e-16)) ((4.983338e-17 1.674825e-19 -3.078526e-06) (1.994476e-16 -6.554155e-17 -2.309844e+02))
0.445         	((8.662524e+02 1.736690e+01 -1.759796e-17) (4.347495e+02 5.300961e+00 4.252850e-16)) ((4.983414e-17 1.669467e-19 -3.078627e-06) (1.994473e-16 -6.554840e-17 -2.309858e+02))
0.45          	((8.662555e+02 1.736790e+01 -1.759636e-17) (4.347507e+02 5.302205e+00 4.252858e-16)) ((4.983487e-17 1.664339e-19 -3.078693e-06) (1.994470e-16 -6.555522e-17 -2.309871e+02))
0.455         	((8.662587e+02 1.736887e+01 -1.759482e-17) (4.347519e+02 5.303413e+00 4.252867e-16)) ((4.983558e-17 1.659414e-19 -3.078755e-06) (1.994468e-16 -6.556189e-17 -2.309885e+02))
0.46          	((8.662622e+02 1.737052e+01 -1.759336e-17) (4.347532e+02 5.304653e+00 4.252872e-16)) ((4.983624e-17 1.654832e-19 -3.078691e-06) (1.994465e-16 -6.556834e-17 -2.309897e+02))
0.465         	((8.662652e+02 1.737149e+01 -1.759192e-17) (4.347544e+02 5.305864e+00 4.252883e-16)) ((4.983689e-17 1.650311e-19 -3.078687e-06) (1.994464e-16 -6.557441e-17 -2.309910e+02))
0.47          	((8.662678e+02 1.737226e+01 -1.759054e-17) (4.347555e+02 5.306985e+00 4.252890e-16)) ((4.983750e-17 1.646170e-19 -3.078621e-06) (1.994462e-16 -6.558063e-17 -2.309923e+02))
0.475         	((8.662703e+02 1.737305e+01 -1.758919e-17) (4.347565e+02 5.308075e+00 4.252897e-16)) ((4.983808e-17 1.642086e-19 -3.078509e-06) (1.994461e-16 -6.558659e-17 -2.309935e+02))
0.48          	((8.662727e+02 1.737382e+01 -1.758789e-17) (4.347575e+02 5.309116e+00 4.252903e-16)) ((4.983864e-17 1.638179e-19 -3.078371e-06) (1.994459e-16 -6.559254e-17 -2.309947e+02))
0.485         	((8.662750e+02 1.737460e+01 -1.758663e-17) (4.347585e+02 5.310132e+00 4.252910e-16)) ((4.983917e-17 1.634412e-19 -3.078200e-06) (1.994458e-16 -6.559830e-17 -2.309959e+02))
0.49          	((8.662774e+02 1.737527e+01 -1.758542e-17) (4.347595e+02 5.311100e+00 4.252916e-16)) ((4.983969e-17 1.630833e-19 -3.078044e-06) (1.994456e-16 -6.560398e-17 -2.309970e+02))
0.495         	((8.662797e+02 1.737590e+01 -1.758427e-17) (4.347604e+02 5.312032e+00 4.252923e-16)) ((4.984017e-17 1.627598e-19 -3.077868e-06) (1.994455e-16 -6.560950e-17 -2.309982e+02))
0.5           	((8.662818e+02 1.737656e+01 -1.758316e-17) (4.347613e+02 5.312935e+00 4.252929e-16)) ((4.984062e-17 1.624518e-19 -3.077652e-06) (1.994454e-16 -6.561493e-17 -2.309992e+02))
0.505         	((8.662838e+02 1.737723e+01 -1.758208e-17) (4.347621e+02 5.313817e+00 4.252935e-16)) ((4.984106e-17 1.621493e-19 -3.077412e-06) (1.994454e-16 -6.562022e-17 -2.310003e+02))
0.51          	((8.662858e+02 1.737789e+01 -1.758104e-17) (4.347629e+02 5.314670e+00 4.252940e-16)) ((4.984148e-17 1.618606e-19 -3.077153e-06) (1.994453e-16 -6.562540e-17 -2.310013e+02))
0.515         	((8.662877e+02 1.737852e+01 -1.758003e-17) (4.347637e+02 5.315500e+00 4.252946e-16)) ((4.984188e-17 1.615836e-19 -3.076876e-06) (1.994452e-16 -6.563045e-17 -2.310024e+02))
0.52          	((8.662895e+02 1.737913e+01 -1.757906e-17) (4.347645e+02 5.316304e+00 4.252952e-16)) ((4.984227e-17 1.613187e-19 -3.076585e-06) (1.994452e-16 -6.563540e-17 -2.310033e+02))
0.525         	((8.662912e+02 1.737973e+01 -1.757813e-17) (4.347652e+02 5.317085e+00 4.252957e-16)) ((4.984264e-17 1.610653e-19 -3.076279e-06) (1.994451e-16 -6.564022e-17 -2.310043e+02))
0.53          	((8.662929e+02 1.738030e+01 -1.757722e-17) (4.347660e+02 5.317841e+00 4.252962e-16)) ((4.984299e-17 1.608234e-19 -3.075961e-06) (1.994451e-16 -6.564495e-17 -2.310052e+02))
0.535         	((8.662945e+02 1.738085e+01 -1.757635e-17) (4.347666e+02 5.318575e+00 4.252967e-16)) ((4.984333e-17 1.605922e-19 -3.075631e-06) (1.994451e-16 -6.564956e-17 -2.310062e+02))
0.54          	((8.662961e+02 1.738139e+01 -1.757551e-17) (4.347673e+02 5.319287e+00 4.252972e-16)) ((4.984365e-17 1.603716e-19 -3.075291e-06) (1.994451e-16 -6.565407e-17 -2.310070e+02))
0.545         	((8.662976e+02 1.738191e+01 -1.757470e-17) (4.347680e+02 5.319977e+00 4.252977e-16)) ((4.984396e-17 1.601610e-19 -3.074941e-06) (1.994450e-16 -6.565847e-17 -2.310079e+02))
0.55          	((8.662991e+02 1.738241e+01 -1.757392e-17) (4.347686e+02 5.320646e+00 4.252982e-16)) ((4.984425e-17 1.599604e-19 -3.074583e-06) (1.994450e-16 -6.566278e-17 -2.310088e+02))
0.555         	((8.663005e+02 1.738288e+01 -1.757316e-17) (4.347692e+02 5.321295e+00 4.252986e-16)) ((4.984453e-17 1.597697e-19 -3.074218e-06) (1.994450e-16 -6.566698e-17 -2.310096e+02))
0.56          	((8.663019e+02 1.738334e+01 -1.757244e-17) (4.347698e+02 5.321923e+00 4.252991e-16)) ((4.984480e-17 1.595891e-19 -3.073847e-06) (1.994451e-16 -6.567109e-17 -2.310104e+02))
0.565         	((8.663031e+02 1.738384e+01 -1.757174e-17) (4.347703e+02 5.322538e+00 4.252995e-16)) ((4.984505e-17 1.594169e-19 -3.073448e-06) (1.994451e-16 -6.567510e-17 -2.310112e+02))
0.57          	((8.663043e+02 1.738433e+01 -1.757105e-17) (4.347709e+02 5.323139e+00 4.252999e-16)) ((4.984530e-17 1.592456e-19 -3.073044e-06) (1.994451e-16 -6.567902e-17 -2.310119e+02))
0.575         	((8.663055e+02 1.738477e+01 -1.757039e-17) (4.347714e+02 5.323720e+00 4.253004e-16)) ((4.984553e-17 1.590799e-19 -3.072644e-06) (1.994451e-16 -6.568286e-17 -2.310127e+02))
0.58          	((8.663067e+02 1.738520e+01 -1.756975e-17) (4.347719e+02 5.324283e+00 4.253007e-16)) ((4.984576e-17 1.589222e-19 -3.072239e-06) (1.994452e-16 -6.568660e-17 -2.310134e+02))
0.585         	((8.663078e+02 1.738561e+01 -1.756913e-17) (4.347724e+02 5.324829e+00 4.253011e-16)) ((4.984597e-17 1.587724e-19 -3.071831e-06) (1.994452e-16 -6.569026e-17 -2.310141e+02))
0.59          	((8.663089e+02 1.738595e+01 -1.756856e-17) (4.347729e+02 5.325353e+00 4.253015e-16)) ((4.984617e-17 1.586382e-19 -3.071445e-06) (1.994452e-16 -6.569383e-17 -2.310148e+02))
0.595         	((8.663100e+02 1.738624e+01 -1.756801e-17) (4.347733e+02 5.325854e+00 4.253019e-16)) ((4.984635e-17 1.585206e-19 -3.071066e-06) (1.994452e-16 -6.569732e-17 -2.310155e+02))
0.6           	((8.663110e+02 1.738656e+01 -1.756748e-17) (4.347738e+02 5.326339e+00 4.253023e-16)) ((4.984653e-17 1.584086e-19 -3.070670e-06) (1.994453e-16 -6.570072e-17 -2.310162e+02))
0.605         	((8.663120e+02 1.738689e+01 -1.756697e-17) (4.347742e+02 5.326811e+00 4.253026e-16)) ((4.984670e-17 1.582996e-19 -3.070268e-06) (1.994453e-16 -6.570405e-17 -2.310168e+02))
0.61          	((8.663129e+02 1.738720e+01 -1.756648e-17) (4.347747e+02 5.327271e+00 4.253029e-16)) ((4.984686e-17 1.581951e-19 -3.069861e-06) (1.994454e-16 -6.570730e-17 -2.310174e+02))
0.615         	((8.663135e+02 1.738747e+01 -1.756594e-17) (4.347751e+02 5.327719e+00 4.253033e-16)) ((4.984706e-17 1.580988e-19 -3.069290e-06) (1.994455e-16 -6.570962e-17 -2.310180e+02))
0.62          	((8.663143e+02 1.738767e+01 -1.756552e-17) (4.347755e+02 5.328144e+00 4.253039e-16)) ((4.984714e-17 1.580075e-19 -3.069065e-06) (1.994456e-16 -6.571366e-17 -2.310186e+02))
0.625         	((8.663152e+02 1.738813e+01 -1.756512e-17) (4.347758e+02 5.328568e+00 4.253042e-16)) ((4.984725e-17 1.579486e-19 -3.068612e-06) (1.994458e-16 -6.571675e-17 -2.310192e+02))
0.63          	((8.663160e+02 1.738853e+01 -1.756472e-17) (4.347762e+02 5.329002e+00 4.253045e-16)) ((4.984737e-17 1.578878e-19 -3.068167e-06) (1.994458e-16 -6.571964e-17 -2.310198e+02))
0.635         	((8.663164e+02 1.738880e+01 -1.756426e-17) (4.347766e+02 5.329406e+00 4.253045e-16)) ((4.984752e-17 1.578117e-19 -3.067608e-06) (1.994458e-16 -6.572166e-17 -2.310203e+02))
0.64          	((8.663171e+02 1.738902e+01 -1.756389e-17) (4.347769e+02 5.329803e+00 4.253048e-16)) ((4.984762e-17 1.577604e-19 -3.067201e-06) (1.994459e-16 -6.572443e-17 -2.310209e+02))
0.645         	((8.663179e+02 1.738927e+01 -1.756352e-17) (4.347772e+02 5.330175e+00 4.253050e-16)) ((4.984773e-17 1.577005e-19 -3.066785e-06) (1.994459e-16 -6.572727e-17 -2.310214e+02))
0.65          	((8.663186e+02 1.738953e+01 -1.756316e-17) (4.347776e+02 5.330548e+00 4.253053e-16)) ((4.984783e-17 1.576421e-19 -3.066366e-06) (1.994460e-16 -6.572995e-17 -2.310219e+02))
0.655         	((8.663192e+02 1.738978e+01 -1.756282e-17) (4.347779e+02 5.330899e+00 4.253055e-16)) ((4.984792e-17 1.575896e-19 -3.065950e-06) (1.994461e-16 -6.573263e-17 -2.310224e+02))
0.66          	((8.663199e+02 1.739002e+01 -1.756249e-17) (4.347782e+02 5.331248e+00 4.253058e-16)) ((4.984800e-17 1.575417e-19 -3.065535e-06) (1.994461e-16 -6.573519e-17 -2.310229e+02))
0.665         	((8.663205e+02 1.739026e+01 -1.756217e-17) (4.347784e+02 5.331580e+00 4.253060e-16)) ((4.984808e-17 1.574987e-19 -3.065120e-06) (1.994462e-16 -6.573773e-17 -2.310234e+02))
0.67          	((8.663222e+02 1.739063e+01 -1.756187e-17) (4.347788e+02 5.331913e+00 4.253062e-16)) ((4.984816e-17 1.573698e-19 -3.065078e-06) (1.994455e-16 -6.574243e-17 -2.310239e+02))
0.675         	((8.663222e+02 1.739086e+01 -1.756168e-17) (4.347790e+02 5.332226e+00 4.253066e-16)) ((4.984819e-17 1.574151e-19 -3.064510e-06) (1.994459e-16 -6.574453e-17 -2.310243e+02))
0.68          	((8.663226e+02 1.739111e+01 -1.756139e-17) (4.347792e+02 5.332538e+00 4.253065e-16)) ((4.984826e-17 1.573668e-19 -3.064111e-06) (1.994457e-16 -6.574698e-17 -2.310248e+02))
0.685         	((8.663232e+02 1.739126e+01 -1.756112e-17) (4.347795e+02 5.332818e+00 4.253068e-16)) ((4.984832e-17 1.573435e-19 -3.063699e-06) (1.994459e-16 -6.574912e-17 -2.310252e+02))
0.69          	((8.663236e+02 1.739146e+01 -1.756087e-17) (4.347797e+02 5.333108e+00 4.253069e-16)) ((4.984838e-17 1.573171e-19 -3.063288e-06) (1.994459e-16 -6.575139e-17 -2.310257e+02))
0.695         	((8.663240e+02 1.739174e+01 -1.756063e-17) (4.347799e+02 5.333389e+00 4.253071e-16)) ((4.984842e-17 1.573104e-19 -3.062838e-06) (1.994460e-16 -6.575345e-17 -2.310261e+02))
0.7           	((8.663244e+02 1.739197e+01 -1.756040e-17) (4.347801e+02 5.333675e+00 4.253072e-16)) ((4.984846e-17 1.572987e-19 -3.062418e-06) (1.994461e-16 -6.575557e-17 -2.310265e+02))
0.705         	((8.663248e+02 1.739215e+01 -1.756018e-17) (4.347803e+02 5.333940e+00 4.253073e-16)) ((4.984851e-17 1.572891e-19 -3.062008e-06) (1.994462e-16 -6.575757e-17 -2.310269e+02))
0.71          	((8.663252e+02 1.739233e+01 -1.755997e-17) (4.347805e+02 5.334201e+00 4.253075e-16)) ((4.984854e-17 1.572810e-19 -3.061605e-06) (1.994462e-16 -6.575957e-17 -2.310272e+02))
0.715         	((8.663256e+02 1.739250e+01 -1.755980e-17) (4.347807e+02 5.334451e+00 4.253075e-16)) ((4.984856e-17 1.572757e-19 -3.061254e-06) (1.994463e-16 -6.576160e-17 -2.310276e+02))
0.72          	((8.663261e+02 1.739267e+01 -1.755960e-17) (4.347809e+02 5.334691e+00 4.253077e-16)) ((4.984861e-17 1.572666e-19 -3.060852e-06) (1.994463e-16 -6.576357e-17 -2.310280e+02))
0.725         	((8.663264e+02 1.739283e+01 -1.755941e-17) (4.347811e+02 5.334927e+00 4.253078e-16)) ((4.984863e-17 1.572720e-19 -3.060446e-06) (1.994464e-16 -6.576537e-17 -2.310283e+02))
0.73          	((8.663267e+02 1.739299e+01 -1.755923e-17) (4.347812e+02 5.335157e+00 4.253079e-16)) ((4.984865e-17 1.572762e-19 -3.060049e-06) (1.994465e-16 -6.576719e-17 -2.310287e+02))
0.735         	((8.663270e+02 1.739315e+01 -1.755907e-17) (4.347814e+02 5.335381e+00 4.253080e-16)) ((4.984867e-17 1.572856e-19 -3.059655e-06) (1.994465e-16 -6.576891e-17 -2.310290e+02))
0.74          	((8.663273e+02 1.739330e+01 -1.755891e-17) (4.347816e+02 5.335599e+00 4.253080e-16)) ((4.984869e-17 1.572982e-19 -3.059265e-06) (1.994466e-16 -6.577062e-17 -2.310293e+02))
0.745         	((8.663275e+02 1.739345e+01 -1.755876e-17) (4.347817e+02 5.335811e+00 4.253081e-16)) ((4.984870e-17 1.573139e-19 -3.058878e-06) (1.994467e-16 -6.577227e-17 -2.310297e+02))
0.75          	((8.663278e+02 1.739360e+01 -1.755862e-17) (4.347819e+02 5.336017e+00 4.253082e-16)) ((4.984871e-17 1.573318e-19 -3.058494e-06) (1.994467e-16 -6.577389e-17 -2.310300e+02))
0.755         	((8.663281e+02 1.739374e+01 -1.755849e-17) (4.347820e+02 5.336219e+00 4.253083e-16)) ((4.984872e-17 1.573525e-19 -3.058113e-06) (1.994468e-16 -6.577545e-17 -2.310303e+02))
0.76          	((8.663283e+02 1.739388e+01 -1.755836e-17) (4.347822e+02 5.336414e+00 4.253083e-16)) ((4.984873e-17 1.573756e-19 -3.057735e-06) (1.994468e-16 -6.577698e-17 -2.310306e+02))
0.765         	((8.663285e+02 1.739401e+01 -1.755824e-17) (4.347823e+02 5.336605e+00 4.253084e-16)) ((4.984873e-17 1.574014e-19 -3.057361e-06) (1.994469e-16 -6.577847e-17 -2.310309e+02))
0.77          	((8.663287e+02 1.739415e+01 -1.755813e-17) (4.347825e+02 5.336790e+00 4.253084e-16)) ((4.984873e-17 1.574294e-19 -3.056989e-06) (1.994469e-16 -6.577992e-17 -2.310312e+02))
0.775         	((8.663289e+02 1.739427e+01 -1.755802e-17) (4.347826e+02 5.336970e+00 4.253085e-16)) ((4.984872e-17 1.574599e-19 -3.056621e-06) (1.994470e-16 -6.578133e-17 -2.310314e+02))
0.78          	((8.663291e+02 1.739440e+01 -1.755792e-17) (4.347827e+02 5.337146e+00 4.253085e-16)) ((4.984872e-17 1.574924e-19 -3.056256e-06) (1.994470e-16 -6.578271e-17 -2.310317e+02))
0.785         	((8.663293e+02 1.739452e+01 -1.755783e-17) (4.347828e+02 5.337316e+00 4.253085e-16)) ((4.984871e-17 1.575272e-19 -3.055895e-06) (1.994471e-16 -6.578404e-17 -2.310320e+02))
0.79          	((8.663295e+02 1.739464e+01 -1.755774e-17) (4.347830e+02 5.337483e+00 4.253085e-16)) ((4.984870e-17 1.575639e-19 -3.055537e-06) (1.994471e-16 -6.578535e-17 -2.310322e+02))