# Selection   : all
# Cells       : 440
# Volume      : 7.374263e+01
# Time        	max(p)
2.7           	1.853250e+00
2.75          	1.848764e+00
2.8           	1.843916e+00
