/*--------------------------------*- C++ -*----------------------------------*\
  =========                 |
  \\      /  F ield         | OpenFOAM: The Open Source CFD Toolbox
   \\    /   O peration     | Website:  https://openfoam.org
    \\  /    A nd           | Version:  13
     \\/     M anipulation  |
\*---------------------------------------------------------------------------*/
FoamFile
{
    format      ascii;
    class       volScalarField;
    location    "54";
    object      p;
}
// * * * * * * * * * * * * * * * * * * * * * * * * * * * * * * * * * * * * * //

dimensions      [0 2 -2 0 0 0 0];

internalField   nonuniform List<scalar> 
440
(
-1.16876
-1.19465
-1.25158
-1.25369
-1.30522
-1.09866
-1.08771
-1.09365
-1.10751
-1.11855
-1.18374
-1.14832
-1.11567
-1.07972
-1.03657
-1.2938
-1.2432
-1.15968
-1.05946
-0.956647
-1.37091
-1.30317
-1.15544
-1.00108
-0.859135
-1.20574
-1.18412
-1.15825
-1.13749
-1.11624
-1.19242
-1.17724
-1.16375
-1.15968
-1.16035
-1.11464
-1.12664
-1.15463
-1.17509
-1.18423
-0.925307
-0.973531
-1.05302
-1.10962
-1.12508
-0.883854
-0.974513
-1.08366
-1.14485
-1.16156
-1.07606
-1.25495
-1.17091
-1.38457
0.0731439
-1.25461
-1.12383
-0.959559
-1.32923
0.0356382
-1.16153
-0.849974
-0.803575
-1.1952
-0.00458721
-0.884686
-0.55153
-0.727041
-0.985368
-0.0437459
-0.709779
-0.223347
-0.743169
-0.810563
-0.0766245
-0.475614
0.052935
-0.845283
-0.651703
-0.107242
-0.266802
-0.102123
-0.673932
-0.444145
-0.112091
-0.329113
0.135991
-0.397419
-0.299183
-0.118404
-0.29259
0.257503
-0.211597
-0.244974
-0.123281
-0.249527
0.297666
-0.0142141
-0.177825
-0.127959
-0.616629
-0.753014
-0.928871
-1.10417
-1.28211
-0.369316
-0.490066
-0.569717
-0.595305
-0.589959
-0.200524
-0.303162
-0.369776
-0.409174
-0.425265
-0.0958268
-0.197414
-0.267422
-0.313934
-0.332366
-0.0487843
-0.150817
-0.221093
-0.266472
-0.277205
0.692645
0.555993
0.382716
0.183133
-0.0463049
0.287766
0.136132
-0.0530895
-0.269994
-0.517632
-0.112257
-0.272671
-0.475062
-0.706514
-0.928716
-0.453856
-0.621248
-0.825422
-1.04626
-1.21789
-0.69993
-0.863462
-1.05143
-1.24732
-1.35793
1.91478
1.94704
1.9789
1.99809
1.9996
1.72761
1.74868
1.76573
1.76699
1.7474
1.49868
1.49197
1.46424
1.41415
1.33808
1.23603
1.20319
1.13738
1.04118
0.914668
0.976175
0.884341
0.760518
0.611311
0.427902
1.65499
1.64247
1.63757
1.68606
1.79645
1.64488
1.62979
1.61958
1.65767
1.71121
1.63577
1.61416
1.59905
1.61704
1.60447
1.62782
1.59567
1.5757
1.5669
1.44695
1.62094
1.57737
1.55046
1.51042
1.27574
1.61537
1.54546
1.51636
1.41458
1.08726
1.61271
1.50841
1.48846
1.32085
1.09304
1.61933
1.48904
1.46284
1.26395
1.0281
1.61009
1.46787
1.44987
1.22628
0.97249
1.64993
1.45968
1.44833
1.2072
0.947869
0.660665
0.368369
0.0345342
-0.245773
-0.450221
0.593922
0.385076
0.156206
-0.0452988
-0.221443
0.601432
0.437178
0.261683
0.0921116
-0.0665734
0.638061
0.498196
0.343941
0.181695
0.0325032
0.658604
0.527949
0.381638
0.222053
0.0788753
-1.63315
-1.47115
-1.28881
-1.13645
-1.04574
-1.67559
-1.60567
-1.46252
-1.33937
-1.25791
-1.57449
-1.52438
-1.43274
-1.34346
-1.2719
-1.40062
-1.35525
-1.30265
-1.24921
-1.19935
-1.24277
-1.22066
-1.18666
-1.16138
-1.16018
-1.14699
-1.14153
-1.10135
-1.12353
-1.08234
-1.11291
-1.10474
-1.07947
-1.0789
-1.04937
-1.12097
-1.11128
-1.09172
-1.06941
-1.06055
-1.14825
-1.13527
-1.11497
-1.09398
-1.09009
-1.17512
-1.15544
-1.12445
-1.09227
-1.06158
-1.0461
-0.728188
-0.791071
-0.776511
0.192593
-1.0224
-0.740751
-0.920966
-0.900583
0.177976
-0.906336
-0.835059
-1.10506
-1.12839
0.159456
-0.845118
-1.0583
-1.27225
-1.31665
0.136443
-0.816802
-1.24297
-1.32116
-1.39976
0.107661
-0.450947
-0.854901
-0.78115
-0.725967
0.216224
-0.925834
-0.82195
-0.713907
-0.731771
0.205648
-0.994775
-1.21727
-1.19527
-1.13624
-0.869007
-1.01512
-1.21951
-1.21893
-1.15114
-1.12251
1.5901
1.56098
1.51304
1.44766
1.36203
1.76893
1.78714
1.78825
1.77079
1.73579
1.92266
1.95399
1.9755
1.9835
1.9771
2.00635
2.04583
2.08747
2.1216
2.13712
2.00626
2.04462
2.08709
2.12266
2.13922
-0.58272
-0.698067
-0.878848
-1.09525
-1.3556
0.0326983
-0.113334
-0.30788
-0.543052
-0.849017
0.591297
0.439809
0.258024
0.0428358
-0.23267
1.0368
0.919213
0.776123
0.601626
0.38742
1.39014
1.30762
1.1989
1.06771
0.912934
1.71948
1.67734
1.67506
1.68886
1.71725
1.70389
1.67368
1.67242
1.70265
1.77407
1.69041
1.6685
1.67048
1.71714
1.84666
1.67772
1.66189
1.66305
1.7175
1.85084
1.66588
1.65345
1.65178
1.70736
1.84184
1.77537
1.6838
1.66487
1.61587
1.60342
1.73001
1.67463
1.65925
1.63635
1.6065
1.27214
1.05314
0.662397
0.0856826
-0.547187
1.35681
1.08587
0.676512
0.105167
-0.539609
)
;

boundaryField
{
    left
    {
        type            zeroGradient;
    }
    right
    {
        type            fixedValue;
        value           uniform 0;
    }
    down
    {
        type            zeroGradient;
    }
    up
    {
        type            zeroGradient;
    }
    cylinder
    {
        type            zeroGradient;
    }
    defaultFaces
    {
        type            empty;
    }
}


// ************************************************************************* //
