/*--------------------------------*- C++ -*----------------------------------*\
  =========                 |
  \\      /  F ield         | OpenFOAM: The Open Source CFD Toolbox
   \\    /   O peration     | Website:  https://openfoam.org
    \\  /    A nd           | Version:  13
     \\/     M anipulation  |
\*---------------------------------------------------------------------------*/
FoamFile
{
    format      ascii;
    class       volVectorField;
    location    "54";
    object      U;
}
// * * * * * * * * * * * * * * * * * * * * * * * * * * * * * * * * * * * * * //

dimensions      [0 1 -1 0 0 0 0];

internalField   nonuniform List<vector> 
440
(
(-0.197268 0.19532 5.82538e-20)
(-0.215412 0.270352 -2.70803e-19)
(-0.0247765 0.173875 -1.81635e-19)
(0.388361 0.132793 2.67106e-19)
(0.484968 0.12553 -1.57409e-20)
(-0.0520669 0.0424218 -8.60956e-21)
(0.0898626 0.0654112 -2.19643e-20)
(0.537177 0.025736 6.28447e-20)
(1.07105 -0.00328201 -9.9953e-20)
(1.55792 -0.0285895 -8.15693e-20)
(-0.00233662 0.000448764 3.19668e-20)
(0.472851 -0.043712 6.60624e-19)
(1.20845 -0.0320907 -3.56476e-19)
(1.79424 -0.00906798 -1.03622e-18)
(2.32761 0.00940591 5.58006e-19)
(0.195493 -0.045442 -1.62898e-19)
(1.13475 -0.0011244 -5.34141e-19)
(1.90463 0.0738291 1.62387e-18)
(2.35087 0.12374 1.87051e-18)
(2.44684 0.145375 -4.87335e-19)
(0.535051 -0.00891426 -2.88563e-19)
(1.69126 0.178647 -6.18137e-19)
(2.24977 0.263937 1.90168e-18)
(2.3886 0.280622 2.01827e-18)
(2.45112 0.254852 6.83567e-19)
(0.043652 -0.279822 -2.8404e-20)
(0.179276 -0.656771 -1.9356e-19)
(0.241279 -0.766943 2.62088e-19)
(0.245229 -0.702453 -4.12437e-20)
(0.218675 -0.578391 -3.26665e-19)
(0.134264 -0.4217 5.47261e-20)
(0.284162 -0.778795 1.84869e-19)
(0.257964 -0.767449 2.00702e-21)
(0.168582 -0.596996 6.80369e-21)
(0.0829479 -0.436299 -2.02696e-20)
(0.237154 -0.493385 3.14163e-19)
(0.301406 -0.756462 2.93547e-19)
(0.179943 -0.688458 6.14657e-20)
(0.0499266 -0.558159 -2.37802e-19)
(-0.0192753 -0.467498 2.07382e-21)
(0.173071 -0.37464 1.7576e-19)
(-0.00837847 -0.547904 -3.31413e-19)
(-0.236229 -0.508746 2.50837e-19)
(-0.361049 -0.485379 5.20097e-19)
(-0.405574 -0.451588 -1.84271e-20)
(-0.139678 0.0405265 2.61817e-19)
(-0.323703 -0.130091 3.54373e-19)
(-0.373541 -0.274581 5.30206e-19)
(-0.334579 -0.324774 -2.53962e-19)
(-0.264156 -0.341024 -6.88164e-20)
(-0.0508262 -0.269701 -1.91087e-18)
(1.7527 1.12721 -4.43744e-19)
(0.452217 0.697483 -5.24982e-19)
(1.3078 -0.96119 4.1109e-19)
(1.20381 -0.704621 -7.43286e-20)
(-0.143923 -0.365827 1.92179e-19)
(1.1095 1.13201 2.36738e-19)
(0.52191 0.726484 -6.77527e-20)
(1.54173 -1.02666 -7.87457e-19)
(1.32495 -0.710762 1.46943e-19)
(0.0107892 -0.539746 -9.41908e-19)
(-0.14565 0.920605 -2.90656e-18)
(0.85401 0.542492 4.53081e-20)
(1.83624 -1.04955 -1.54133e-18)
(1.45734 -0.696361 4.23307e-20)
(-0.315321 -0.448762 5.69248e-19)
(-0.848167 0.742458 1.71835e-19)
(1.33585 0.25261 4.48512e-20)
(2.07233 -1.03606 1.2066e-18)
(1.57837 -0.664557 2.30685e-19)
(0.440713 -0.675845 -4.11932e-19)
(-1.04643 0.496974 1.87143e-18)
(1.77707 -0.101457 0)
(2.18485 -1.01851 -8.51068e-19)
(1.61949 -0.617453 4.09269e-20)
(2.06482 -0.365312 -4.78368e-19)
(0.455258 0.190753 -1.97108e-19)
(2.17562 -0.456407 1.24596e-20)
(2.24581 -0.966866 -3.06388e-19)
(1.59719 -0.560469 -3.98484e-20)
(2.09964 -0.316423 5.10977e-20)
(1.6234 0.383865 1.38255e-19)
(2.61212 -0.509019 8.27618e-21)
(2.24489 -0.778544 6.27058e-19)
(1.39079 -0.392266 0)
(1.89305 -0.119726 3.20127e-20)
(2.13786 0.0476235 -1.59113e-21)
(2.55524 -0.596519 6.23413e-19)
(1.89708 -0.561936 -1.73769e-19)
(1.16361 -0.246325 -1.47814e-20)
(1.87786 -0.0946767 -4.3132e-20)
(2.23492 -0.0100255 1.56003e-19)
(2.1082 -0.399653 3.55683e-20)
(1.28986 -0.333873 7.96371e-35)
(0.640567 -0.102456 4.8017e-20)
(1.31319 -0.0114854 6.23573e-20)
(1.41942 -0.136716 2.33476e-20)
(0.735879 -0.100289 -1.40702e-19)
(0.0827699 0.0027557 3.90359e-20)
(-0.188542 -0.00367876 4.13412e-21)
(2.35283 0.249508 -8.36467e-19)
(2.53033 0.087601 -1.12782e-18)
(2.40307 0.0638221 8.74116e-19)
(2.63209 -0.0654754 3.70262e-20)
(1.96036 -0.0186435 -9.91114e-20)
(2.12018 0.119778 6.52265e-20)
(2.36177 0.110525 -4.05327e-20)
(2.21658 -0.0411057 -1.31667e-19)
(2.41651 -0.0666524 -2.5827e-19)
(2.25219 -0.236459 -2.93223e-21)
(2.09183 0.0425311 7.49725e-20)
(2.11697 0.0936777 9.29453e-20)
(2.20468 -0.0572436 -1.16031e-19)
(2.15122 -0.0237605 3.65943e-20)
(2.282 -0.145683 2.64338e-20)
(2.01744 0.0038364 1.16242e-19)
(1.96887 0.0438421 1.48981e-19)
(2.13367 -0.0435077 -1.82921e-20)
(2.03304 -0.0221045 -4.96099e-20)
(2.20756 -0.0838042 2.12547e-20)
(1.43743 -0.0148166 1.81158e-19)
(1.44246 -0.00341883 -1.15545e-20)
(1.48101 -0.0238614 1.95731e-20)
(1.44263 -0.0123018 -2.9477e-20)
(1.51077 -0.0355693 -2.1741e-21)
(1.56255 0.848163 1.03168e-18)
(1.52136 0.943924 -3.00923e-19)
(1.51555 1.06779 -1.248e-18)
(1.44721 1.11251 7.0173e-19)
(0.894954 0.805862 -1.781e-19)
(1.82999 0.793235 -5.45652e-19)
(1.80881 0.877908 -2.85016e-18)
(1.8169 0.987006 -1.11023e-18)
(1.72996 0.998291 -4.0636e-19)
(1.05801 0.69721 -6.45313e-19)
(2.11291 0.69776 7.28626e-19)
(2.09864 0.76326 1.92021e-19)
(2.08186 0.844353 -2.2219e-18)
(1.94847 0.828142 -6.10533e-19)
(1.14323 0.540005 4.52128e-19)
(2.27019 0.567479 2.24371e-18)
(2.27457 0.620538 1.64127e-18)
(2.27052 0.668747 -1.89311e-18)
(2.04543 0.622641 -1.41342e-18)
(1.10295 0.3488 -2.56816e-19)
(2.41863 0.426775 1.07504e-18)
(2.421 0.446665 -7.84816e-19)
(2.32411 0.462907 5.5249e-19)
(1.97734 0.399277 4.40354e-19)
(0.899044 0.145965 -3.67496e-19)
(0.575738 0.39768 -7.09971e-19)
(0.48774 0.429302 -5.797e-19)
(0.36902 0.460893 7.69098e-20)
(0.229018 0.46833 -2.65042e-20)
(0.056114 0.340754 7.12435e-20)
(0.670909 0.5753 7.59839e-20)
(0.607351 0.633488 -3.20656e-19)
(0.519091 0.701423 1.76401e-19)
(0.39181 0.75613 -8.12353e-20)
(0.167484 0.578668 1.16094e-19)
(0.774993 0.76511 2.11545e-19)
(0.701234 0.842145 4.14971e-19)
(0.641236 0.939603 5.26724e-20)
(0.555217 0.994847 -2.76747e-19)
(0.30354 0.747445 2.24054e-19)
(1.03392 0.861495 2.17071e-19)
(0.987475 0.949731 -6.1878e-19)
(0.936608 1.05023 -1.79541e-18)
(0.852898 1.11796 7.3617e-19)
(0.504188 0.837765 -1.81453e-19)
(1.15641 0.891975 -1.36336e-19)
(1.16666 1.01315 -2.12052e-19)
(1.18137 1.13399 -3.25169e-19)
(1.12663 1.17566 -3.80218e-19)
(0.694507 0.857171 -6.285e-21)
(1.0153 0.0540693 -9.13272e-20)
(0.981885 0.0187904 -3.52496e-20)
(1.04722 0.105245 -1.3658e-21)
(0.945644 0.12817 -2.88274e-19)
(0.883404 0.238135 3.06457e-19)
(1.00384 0.0531368 5.71205e-20)
(0.993415 0.0146826 1.25697e-19)
(1.04016 0.111278 1.10439e-19)
(0.97336 0.161374 3.43419e-20)
(0.921242 0.312531 1.52888e-20)
(1.00816 0.0527558 7.70146e-20)
(0.979351 0.00726499 -4.79695e-21)
(1.08992 0.126481 -5.98542e-21)
(0.918527 0.16851 1.63827e-19)
(1.11689 0.447286 -4.34417e-19)
(1.0004 0.0532728 -4.47234e-22)
(1.00146 -0.00433439 -1.78758e-19)
(1.0929 0.144127 -6.16097e-20)
(0.982023 0.186112 -3.96722e-19)
(1.16224 0.485591 9.27629e-20)
(0.995339 0.0458077 -1.35287e-20)
(1.01285 -0.00429126 5.39671e-20)
(1.13641 0.152731 3.07268e-20)
(0.955736 0.207706 4.67272e-19)
(1.41372 0.61073 -4.22516e-19)
(0.953486 0.0470162 -7.10882e-21)
(1.09262 -0.0328733 1.12374e-19)
(1.13148 0.182802 -8.59785e-20)
(1.1514 0.159566 8.21786e-19)
(1.32965 0.623085 -3.99099e-19)
(0.891649 0.0157095 -1.67718e-21)
(1.20256 -0.0459003 -1.00359e-19)
(1.059 0.135318 4.53856e-21)
(1.2098 0.158601 -2.67929e-19)
(1.41683 0.380908 2.92883e-20)
(0.962037 0.00128725 -5.46728e-21)
(1.16261 -0.0604082 1.29636e-35)
(1.03421 0.146539 -4.57062e-20)
(1.2212 0.0762358 8.25077e-20)
(1.48166 0.242128 1.55816e-19)
(1.10954 -0.0530216 4.23232e-21)
(0.955285 -0.0498506 -2.59073e-20)
(1.0926 0.0915812 1.71009e-20)
(1.23905 0.0228823 3.37916e-20)
(1.41773 0.138649 -2.21027e-19)
(1.00751 -0.0257186 -4.31268e-20)
(0.715107 -0.016866 -4.763e-21)
(0.918232 0.00964578 1.9225e-20)
(0.89698 -0.013576 -1.10944e-20)
(1.01971 0.0459284 -4.89527e-20)
(1.75681 0.657359 3.1855e-19)
(1.87038 0.640939 7.36505e-19)
(2.10182 0.548747 -1.03612e-18)
(2.179 0.4847 1.67672e-20)
(2.36524 0.324432 4.57433e-19)
(1.72449 0.490987 4.88147e-20)
(1.79151 0.415558 9.77696e-19)
(1.96886 0.419195 9.58869e-20)
(1.98353 0.284603 -8.91277e-19)
(2.19389 0.265974 -2.87767e-19)
(1.66618 0.382272 -2.03563e-19)
(1.76379 0.271357 -1.43324e-19)
(1.84408 0.316053 2.47889e-19)
(1.94104 0.157132 -2.95481e-19)
(2.01012 0.208647 2.67564e-19)
(1.608 0.225592 2.96039e-19)
(1.68262 0.143842 -1.38579e-21)
(1.74584 0.176872 2.21703e-19)
(1.85897 0.0689374 1.99012e-19)
(1.87735 0.112897 -1.91741e-19)
(1.23517 0.0520396 -3.38326e-20)
(1.25742 0.030176 2.069e-19)
(1.34051 0.0289253 1.06701e-19)
(1.36615 0.00331334 -2.3105e-19)
(1.41675 0.00944414 2.11526e-22)
(1.33821 -0.0379064 6.24371e-20)
(2.44245 -0.0344585 -5.35273e-19)
(2.6697 -0.0252321 1.46194e-18)
(2.66363 0.0237116 6.72606e-19)
(2.44578 0.0426635 -4.46769e-19)
(0.849497 0.0965009 1.17773e-19)
(2.22127 0.105206 -5.51374e-19)
(2.6807 0.110209 -7.67667e-19)
(2.68923 0.125774 1.00606e-18)
(2.48876 0.119692 -6.96043e-19)
(0.240781 0.0861955 -3.84304e-20)
(1.56583 0.178945 6.03504e-19)
(2.37541 0.222889 1.01106e-19)
(2.75753 0.226379 8.8919e-19)
(2.7926 0.217335 5.10305e-19)
(-0.0669153 -0.033865 2.47126e-19)
(0.61448 0.110471 2.5846e-19)
(1.55448 0.214816 -6.64109e-19)
(2.12897 0.280472 5.32671e-20)
(2.74824 0.317528 3.75695e-19)
(-0.137126 -0.112292 1.93755e-19)
(0.0123506 -0.0412797 -2.09956e-19)
(0.636315 0.0972334 -4.33232e-20)
(1.16002 0.166917 9.41875e-20)
(1.82299 0.320037 1.53707e-20)
(-0.103272 -0.110666 4.6644e-20)
(-0.161937 -0.131055 1.44281e-19)
(0.0482116 -0.112829 8.92536e-20)
(0.240329 -0.0817814 -7.796e-20)
(0.933289 0.0989383 1.49622e-20)
(-0.0603844 -0.0838979 -1.76035e-20)
(-0.150686 -0.184885 -1.02425e-19)
(-0.136374 -0.247206 -4.25757e-20)
(-0.0790854 -0.255249 -2.68731e-20)
(0.193651 -0.0821369 3.78639e-21)
(-0.0318955 -0.0653776 2.42561e-21)
(-0.0892545 -0.215207 2.71173e-19)
(-0.0996206 -0.326113 -2.19194e-19)
(-0.0684529 -0.375363 -4.21708e-19)
(-0.0140785 -0.314872 8.51384e-20)
(-0.0198442 -0.0899118 -2.47777e-20)
(-0.0310656 -0.31966 -1.52385e-19)
(-0.00725929 -0.489964 3.84826e-19)
(0.0383361 -0.563673 2.04982e-19)
(0.0548275 -0.570022 -3.09483e-20)
(-0.0051923 -0.159997 1.8106e-20)
(0.0456265 -0.47678 -5.99252e-20)
(0.0991291 -0.646223 2.07484e-20)
(0.127009 -0.665452 3.99446e-21)
(0.124337 -0.601558 -2.08852e-19)
(1.50164 0.747436 -4.36701e-20)
(1.70755 0.416724 3.3432e-19)
(-0.0181031 0.320593 1.27013e-19)
(-0.2224 -0.269299 4.45523e-19)
(0.784817 -0.356188 -1.11151e-20)
(1.33738 0.604929 3.51609e-20)
(1.45037 0.579618 5.35918e-19)
(-0.46085 0.484608 1.01286e-18)
(0.113796 -0.464001 2.16677e-20)
(0.796499 -0.488635 6.67569e-20)
(1.33144 0.456296 3.45167e-19)
(1.12736 0.852478 2.11804e-18)
(-0.536863 0.56715 -3.46214e-20)
(0.387323 -0.635771 -1.99374e-18)
(0.855522 -0.567303 -2.78163e-20)
(0.9778 0.144162 -1.3617e-19)
(1.03653 1.03387 -3.50299e-18)
(-0.135785 0.615266 -3.28525e-19)
(0.61407 -0.81374 1.77891e-20)
(0.927941 -0.645119 -8.39166e-20)
(0.259411 0.0644427 1.35528e-19)
(1.27013 1.22893 -4.34908e-19)
(0.287668 0.638101 -1.20181e-19)
(0.999199 -0.89348 -1.20162e-19)
(1.04492 -0.686025 -2.19637e-19)
(-0.148298 0.151721 -6.21373e-20)
(-0.390501 -0.190662 0)
(-0.629606 -0.107096 -8.84668e-21)
(-0.284307 -0.108048 -8.25722e-21)
(0.439779 -0.0459852 3.53109e-21)
(1.80607 0.675373 0)
(1.32723 0.365929 0)
(0.113535 0.0600717 -9.2216e-20)
(-0.235225 -0.193453 -1.62783e-19)
(0.763163 -0.200248 3.16038e-20)
(0.787111 0.00516245 -1.32111e-19)
(0.82861 -0.00719298 1.70313e-19)
(1.08767 0.0338514 -4.70498e-20)
(0.928692 -0.000933464 3.94522e-19)
(1.46548 0.168102 2.67325e-19)
(1.76903 0.0381204 1.25219e-19)
(1.97502 0.079607 3.15715e-19)
(2.12257 0.109812 -6.52482e-19)
(2.60625 0.246618 1.42787e-19)
(2.52703 0.26723 3.39775e-19)
(0.966398 -0.526245 3.83255e-20)
(0.955643 -0.62375 -2.02452e-19)
(0.954349 -0.729941 -1.92899e-19)
(0.888534 -0.805 1.14223e-19)
(0.544314 -0.635492 1.3901e-19)
(0.867186 -0.438129 1.11258e-19)
(0.811913 -0.507785 1.56235e-19)
(0.735601 -0.582239 -1.02758e-19)
(0.617956 -0.647023 1.40466e-19)
(0.340634 -0.514646 3.29822e-20)
(0.675766 -0.303646 -1.3049e-19)
(0.582781 -0.347386 -5.41222e-20)
(0.482024 -0.4036 8.46568e-21)
(0.368409 -0.453278 -4.85845e-20)
(0.17226 -0.358035 -1.27978e-19)
(0.570959 -0.0701879 -4.46643e-19)
(0.487585 -0.0908362 -3.62263e-19)
(0.380238 -0.12364 2.92952e-19)
(0.252741 -0.16382 1.62403e-19)
(0.0786824 -0.146053 1.38883e-20)
(0.535519 0.133552 -1.55786e-19)
(0.450396 0.133454 -1.68389e-19)
(0.334028 0.130894 -5.21469e-20)
(0.196479 0.131708 4.75021e-20)
(0.0339323 0.0988181 1.46918e-20)
(2.22395 -0.0326753 9.36318e-19)
(2.45678 -0.106982 3.45684e-19)
(2.55286 -0.200919 -8.79076e-19)
(2.42349 -0.225939 -1.86105e-18)
(1.48853 -0.219825 1.32696e-19)
(2.15834 -0.131168 1.56829e-18)
(2.27458 -0.24748 2.03681e-18)
(2.2934 -0.376526 1.67012e-19)
(2.2235 -0.440808 2.85987e-19)
(1.44955 -0.410213 -1.9041e-19)
(1.87889 -0.305041 -4.03153e-18)
(1.92478 -0.42763 4.77761e-19)
(1.96723 -0.560738 1.2648e-18)
(1.92023 -0.644109 -5.1398e-19)
(1.26412 -0.566101 8.08485e-19)
(1.62078 -0.434486 9.82012e-19)
(1.6394 -0.538474 -2.55962e-18)
(1.63357 -0.664407 -2.98765e-18)
(1.57241 -0.762866 9.41438e-19)
(1.02375 -0.645118 6.01002e-19)
(1.32251 -0.50298 2.25024e-19)
(1.26865 -0.601623 2.69756e-19)
(1.25407 -0.73056 -4.56376e-19)
(1.19955 -0.8257 -5.53833e-19)
(0.764555 -0.667119 -5.35885e-21)
(1.06268 0.055859 7.32565e-21)
(0.926177 0.0461034 -2.1746e-21)
(1.13823 0.0687861 -3.25067e-22)
(0.815591 -0.00802403 -2.28566e-19)
(1.19133 -0.245138 -1.42876e-20)
(1.07231 0.0596898 -2.47005e-21)
(0.922346 0.041423 4.09881e-20)
(1.13137 0.0861138 -2.34188e-20)
(0.896241 0.033469 1.53331e-19)
(1.04369 -0.128763 -1.02267e-20)
(1.07027 0.0575963 -5.97273e-20)
(0.925469 0.0345333 3.72939e-22)
(1.11602 0.086862 -1.14823e-20)
(0.888443 0.0541597 4.85567e-20)
(1.00331 -0.0712411 -2.215e-19)
(1.0518 0.0567732 7.20506e-20)
(0.952142 0.0284225 3.04177e-21)
(1.0753 0.091601 2.58738e-20)
(0.9319 0.0808097 9.18351e-21)
(0.88164 0.0419973 8.92224e-20)
(1.02805 0.0544758 1.79046e-20)
(0.977684 0.0251122 -2.81581e-20)
(1.04492 0.0957373 3.62581e-20)
(0.952825 0.109641 7.43944e-20)
(0.845504 0.13336 -5.0234e-20)
(0.887587 0.0335837 0)
(0.711513 0.0271946 8.9398e-21)
(0.629541 0.0216563 4.66132e-21)
(0.369767 -0.00979204 4.91049e-20)
(0.740094 -0.0627206 -1.50307e-19)
(1.03116 0.0747195 -6.35975e-20)
(0.937123 0.0651691 -8.47857e-21)
(1.05022 0.0714127 -4.83838e-20)
(0.829609 -0.00750899 -1.28779e-19)
(1.10219 -0.22209 -1.556e-19)
(1.04195 -0.0669119 -3.48239e-20)
(1.13095 -0.0366098 5.54883e-19)
(1.2394 0.0378974 3.429e-19)
(1.10327 0.0629503 2.46869e-20)
(0.858065 0.0341119 0)
(1.40814 -0.333486 3.50805e-19)
(1.53335 -0.29339 1.63831e-18)
(1.73003 -0.170174 -1.83952e-18)
(1.82826 -0.0212909 -5.85831e-19)
(1.76277 0.0359355 4.26039e-19)
)
;

boundaryField
{
    left
    {
        type            fixedValue;
        value           uniform (1 0 0);
    }
    right
    {
        type            zeroGradient;
    }
    down
    {
        type            noSlip;
    }
    up
    {
        type            noSlip;
    }
    cylinder
    {
        type            noSlip;
    }
    defaultFaces
    {
        type            empty;
    }
}


// ************************************************************************* //
