# Selection   : all
# Cells       : 440
# Volume      : 7.374263e+01
# Time        	max(p)
1.7           	1.993080e+00
1.75          	1.993470e+00
1.8           	1.990003e+00
