/*--------------------------------*- C++ -*----------------------------------*\
  =========                 |
  \\      /  F ield         | OpenFOAM: The Open Source CFD Toolbox
   \\    /   O peration     | Website:  https://openfoam.org
    \\  /    A nd           | Version:  13
     \\/     M anipulation  |
\*---------------------------------------------------------------------------*/
FoamFile
{
    format      ascii;
    class       volScalarField;
    location    "43.3";
    object      p;
}
// * * * * * * * * * * * * * * * * * * * * * * * * * * * * * * * * * * * * * //

dimensions      [0 2 -2 0 0 0 0];

internalField   nonuniform List<scalar> 
440
(
-1.2319
-1.21647
-1.21049
-1.20711
-1.2416
-1.31244
-1.29115
-1.26652
-1.23672
-1.20218
-1.45162
-1.41127
-1.35226
-1.2716
-1.18119
-1.58479
-1.52654
-1.40282
-1.25538
-1.10633
-1.65729
-1.57201
-1.38368
-1.18976
-1.01467
-0.657373
-0.677347
-0.731237
-0.82261
-0.901169
-1.0357
-1.06651
-1.13979
-1.25891
-1.4246
-1.1422
-1.14397
-1.15891
-1.19106
-1.26066
-1.14127
-1.12811
-1.11409
-1.10532
-1.11499
-1.1739
-1.16098
-1.15257
-1.15079
-1.15618
-0.646039
0.109497
-0.66715
-0.179282
-0.240831
-0.962354
0.0292251
-0.957886
-0.19441
-0.241443
-1.10996
0.0516525
-1.0731
-0.291483
-0.229135
-1.09908
0.128653
-0.788629
-0.168838
-0.195413
-1.07656
0.310601
-0.130405
-0.101947
-0.145428
-0.909604
0.563121
0.534537
-0.184425
-0.0966115
-0.436781
0.488811
0.300969
-0.201432
-0.0603591
-0.233299
0.500462
0.640451
-0.0245971
-0.0489658
-0.0914712
0.383583
0.69496
0.140142
-0.0563369
-0.0391027
0.421741
0.746152
0.311817
-0.0298936
-0.716644
-0.828963
-0.985632
-1.12389
-1.28501
-0.412444
-0.529361
-0.608835
-0.660557
-0.678363
-0.214395
-0.312581
-0.360861
-0.387577
-0.387648
-0.0977964
-0.180552
-0.22538
-0.240112
-0.227352
-0.0438184
-0.124138
-0.16659
-0.176541
-0.152436
0.739742
0.579218
0.375382
0.145049
-0.110867
0.283567
0.111361
-0.0976493
-0.337725
-0.616815
-0.162749
-0.342384
-0.567317
-0.816538
-1.08676
-0.556958
-0.74306
-0.97677
-1.2258
-1.43918
-0.826501
-1.02129
-1.24456
-1.4781
-1.62261
1.96225
1.99013
2.01523
2.026
2.01935
1.74892
1.76521
1.77411
1.76506
1.73363
1.50994
1.49507
1.45564
1.39161
1.29916
1.23463
1.19677
1.12168
1.01325
0.871984
0.989196
0.877435
0.73374
0.567057
0.362535
1.75667
1.74196
1.72992
1.78836
1.86251
1.74488
1.72831
1.70651
1.75835
1.75939
1.73418
1.7121
1.68086
1.71603
1.62992
1.72472
1.694
1.65278
1.66326
1.44342
1.71656
1.67437
1.62334
1.6044
1.24959
1.70943
1.64701
1.58626
1.50182
1.03111
1.70268
1.61316
1.55811
1.40831
1.1217
1.70858
1.59001
1.52779
1.35776
1.10581
1.70224
1.56535
1.50823
1.31961
1.07974
1.7394
1.56165
1.49887
1.30096
1.06171
0.708691
0.378167
0.0120282
-0.314882
-0.524341
0.607821
0.383483
0.136489
-0.0812471
-0.268974
0.600446
0.423166
0.237375
0.0686283
-0.0937281
0.63669
0.47287
0.3114
0.160495
0.0163678
0.655441
0.500289
0.350646
0.206207
0.0669666
-0.743401
-0.633036
-0.491021
-0.375922
-0.3073
-0.783353
-0.730823
-0.62551
-0.540817
-0.491083
-0.699302
-0.655178
-0.597788
-0.550817
-0.521352
-0.556408
-0.521738
-0.486862
-0.46132
-0.444787
-0.453597
-0.435332
-0.414029
-0.404164
-0.427991
-0.400579
-0.394443
-0.3762
-0.378381
-0.361228
-0.389644
-0.387542
-0.381809
-0.382205
-0.384228
-0.390193
-0.387741
-0.383062
-0.377799
-0.372325
-0.406292
-0.402148
-0.396453
-0.387115
-0.370549
-0.459243
-0.454048
-0.451816
-0.45103
-0.445295
-0.447577
0.160496
0.171513
-0.252186
-0.057341
-0.401634
0.236314
0.102231
-0.252146
-0.107683
-0.298655
0.285834
0.00470208
-0.250472
-0.1572
-0.298144
0.296087
-0.138793
-0.243518
-0.197756
-0.382864
0.231449
-0.362494
-0.21863
-0.225375
0.0333281
-0.00272582
0.15084
-0.226321
0.0254926
-0.343004
0.0291843
0.216798
-0.209453
-0.00731734
-0.268582
-0.480453
-0.480724
-0.458433
-0.231942
-0.285137
-0.473732
-0.503515
-0.447943
-0.460295
1.79366
1.77834
1.74789
1.70375
1.64547
1.93967
1.96264
1.97213
1.96685
1.94781
2.05862
2.0926
2.11928
2.13474
2.13712
2.11257
2.1512
2.19174
2.22502
2.24097
2.08156
2.11683
2.15515
2.18622
2.19959
0.062226
-0.026695
-0.166119
-0.336313
-0.518828
0.559455
0.443957
0.289153
0.103605
-0.118973
1.00369
0.883007
0.739118
0.570503
0.367887
1.3539
1.26271
1.15123
1.01635
0.857341
1.63162
1.57036
1.48944
1.39234
1.27992
1.82706
1.78452
1.78721
1.81692
1.86874
1.81058
1.77916
1.78184
1.82468
1.90514
1.79607
1.77228
1.77577
1.83225
1.95543
1.78223
1.76401
1.76464
1.82779
1.94905
1.76906
1.7541
1.749
1.81319
1.92299
1.88522
1.79474
1.78316
1.75756
1.76858
1.83863
1.7839
1.77562
1.77432
1.77736
1.53494
1.36928
1.06076
0.598633
0.0889247
1.60126
1.39211
1.07168
0.615143
0.0962084
)
;

boundaryField
{
    left
    {
        type            zeroGradient;
    }
    right
    {
        type            fixedValue;
        value           uniform 0;
    }
    down
    {
        type            zeroGradient;
    }
    up
    {
        type            zeroGradient;
    }
    cylinder
    {
        type            zeroGradient;
    }
    defaultFaces
    {
        type            empty;
    }
}


// ************************************************************************* //
