# Selection   : all
# Cells       : 440
# Volume      : 7.374263e+01
# Time        	minMag(U)
6.415         	1.753198e-02
6.46          	1.397961e-02
6.51          	1.296036e-02
