/*--------------------------------*- C++ -*----------------------------------*\
  =========                 |
  \\      /  F ield         | OpenFOAM: The Open Source CFD Toolbox
   \\    /   O peration     | Website:  https://openfoam.org
    \\  /    A nd           | Version:  13
     \\/     M anipulation  |
\*---------------------------------------------------------------------------*/
FoamFile
{
    format      ascii;
    class       surfaceScalarField;
    location    "0.48";
    object      phi;
}
// * * * * * * * * * * * * * * * * * * * * * * * * * * * * * * * * * * * * * //

dimensions      [0 3 -1 0 0 0 0];

internalField   nonuniform List<scalar> 
823
(
0.023777
-0.0740462
0.0502692
0.0642509
-0.230431
0.189957
0.103311
-0.289675
0.250614
0.13696
-0.300333
0.266684
-0.291383
0.260013
0.16833
0.0297523
-0.103799
0.0707152
-0.271394
0.106883
-0.325842
0.1389
-0.33235
-0.324588
0.172105
0.0323733
-0.136172
0.0682206
-0.307241
0.0953153
-0.352937
0.116759
-0.353794
-0.342052
0.134223
0.0322149
-0.168387
0.0609211
-0.335947
0.0792919
-0.371308
0.0922759
-0.366778
-0.354144
0.104368
0.0270644
-0.195451
0.0444005
-0.353284
0.0507194
-0.377627
0.0539409
-0.369999
0.055999
-0.356202
0.00129761
-0.00604054
0.00474293
0.0289886
-0.0450119
0.0173209
0.0724729
-0.0673398
0.0238555
0.121272
-0.0745121
0.0257135
-0.0775082
0.173048
0.0257318
0.00387825
-0.00991879
0.0345153
-0.075649
0.0795446
-0.112369
0.129202
-0.12417
-0.12907
0.180764
0.00821209
-0.0181309
0.0432273
-0.110664
0.0901712
-0.159313
0.140668
-0.174667
-0.179097
0.190695
0.0136355
-0.0317663
0.0527083
-0.149737
0.100107
-0.206711
0.149286
-0.223846
-0.223728
0.193917
0.0185029
0.0587229
0.102626
0.145464
0.181749
0.337211
-0.351626
0.187463
0.388265
-0.176416
0.125361
0.402519
-0.0947418
0.0804881
0.402903
-0.0481481
0.0477637
-0.011343
0.0172073
0.330578
-0.50144
0.383786
-0.229624
0.400327
-0.111282
0.402703
-0.0505248
-0.00750288
0.317368
-0.628112
0.373904
-0.28616
0.39434
-0.131718
0.400633
-0.0568173
-0.00775325
0.298375
-0.73257
0.358164
-0.345949
0.384475
-0.158029
0.396675
-0.0690168
-0.0141195
0.276048
-0.826869
0.336737
-0.406638
0.370754
-0.192046
0.390776
-0.0890389
-0.0285644
0.746054
-0.65431
-0.918613
0.667373
-0.327957
0.637348
-0.162022
0.62642
-0.0781102
-0.0253973
0.765616
-0.460153
-0.959773
0.683615
-0.245956
0.648237
-0.126644
0.632786
-0.0626593
-0.0205177
0.787398
-0.285917
-0.961633
0.700811
-0.15937
0.658232
-0.0840645
0.638187
-0.0426143
-0.0140733
0.795297
-0.119425
-0.961789
0.707119
-0.0711916
0.662102
-0.0390482
0.63985
-0.020362
-0.00676527
0.711254
-0.830679
0.640062
0.601014
0.580652
0.916549
0.0418872
-0.902437
0.920723
0.100194
0.935983
0.118963
0.917792
0.190296
0.167509
0.859291
0.028121
-0.845524
0.880357
0.0791282
0.903813
0.0955063
0.939881
0.154228
0.147617
0.818631
0.0159312
-0.806441
0.845296
0.0524631
0.873315
0.0674873
0.920694
0.106849
0.106677
0.791136
0.00338065
-0.778586
0.821257
0.0223428
0.85607
0.0326737
0.910148
0.0527713
0.0550363
0.667855
-0.664475
0.690198
0.722872
0.775643
0.134842
0.27015
-0.224105
-0.180888
0.0933007
0.279772
-0.23823
0.0550038
0.292411
-0.254115
0.0202221
0.292687
-0.257905
0.198333
-0.178111
0.122587
0.306698
-0.159135
0.085595
0.316764
0.0494326
0.328574
0.0173956
0.324724
0.215728
0.0844814
0.332859
-0.110643
0.0568283
0.344417
0.0285515
0.356851
0.00551253
0.347762
0.221241
0.0362987
0.349164
-0.0526036
0.0187313
0.361984
0.00246361
0.373118
-0.00742093
0.357647
0.21382
-0.0102091
0.00317095
-0.018224
-0.0227323
-0.0183689
0.193642
0.0741553
-0.240692
-0.0271055
0.144179
0.0776275
-0.0281648
0.091999
0.0817367
-0.0295563
0.0385092
0.083918
-0.0304282
0.0615938
-0.0230846
0.186002
0.120358
-0.232204
0.138118
0.125511
0.0877363
0.132118
0.0366512
0.135003
0.098245
0.166417
0.163918
-0.209977
0.122505
0.169423
0.0769374
0.177686
0.0312162
0.180724
0.129461
0.157387
0.199935
-0.193404
0.117512
0.209298
0.0735585
0.22164
0.0294464
0.224836
0.158908
0.113679
-0.137848
0.0847463
0.0522714
0.0192031
0.408101
0.0273865
-0.0395083
0.409959
0.0642193
-0.0660768
0.399503
0.104919
-0.0944625
0.352448
0.168039
-0.120984
0.302411
-0.190655
0.405497
0.0178691
0.405497
0.0642195
0.392529
0.117886
0.347814
0.212754
0.418021
0.400472
0.0133765
0.396598
0.0680935
0.379398
0.135086
0.338549
0.253603
0.546593
0.393166
0.0161906
0.383428
0.0778308
0.362392
0.156122
0.326317
0.289678
0.679506
0.38397
0.0282006
0.366302
0.0954985
0.338432
0.183992
0.292221
0.335888
0.83388
0.610943
0.0212784
0.623607
0.0828337
0.645731
0.161868
0.695218
0.286402
0.657172
0.871925
0.615233
0.0100659
0.63445
0.0636164
0.667356
0.128962
0.733846
0.219912
0.483311
0.907707
0.619116
-0.00502939
0.643539
0.0391933
0.683617
0.0888837
0.757372
0.146157
0.311219
0.929465
0.620993
-0.0220019
0.648704
0.0114818
0.693359
0.0442295
0.769316
0.070199
0.147961
0.932574
0.582019
0.5935
0.63773
0.707929
0.85589
0.899762
-0.208725
0.896209
-0.155582
0.892278
-0.106712
0.894254
-0.0545794
-0.0050118
0.878926
-0.179944
0.856977
-0.133633
0.841859
-0.0915934
0.840035
-0.0527558
-0.0105013
0.876391
-0.12687
0.840457
-0.0976987
0.817114
-0.0682504
0.805601
-0.0412435
-0.0113409
0.869139
-0.0634358
0.823444
-0.0520037
0.794085
-0.0388906
0.778849
-0.0260079
-0.0110777
0.792454
0.740451
0.70156
0.675552
0.0476656
0.234654
-0.282319
0.0634602
0.434378
-0.450172
0.0575511
0.467857
-0.461948
0.0469449
0.458782
-0.448176
0.422152
0.0367326
-0.41194
0.0812303
0.153423
0.139296
0.376312
0.168868
0.438285
0.184397
0.443253
0.42931
0.177238
0.0809659
0.0724575
0.169456
0.287822
0.231959
0.375783
0.279936
0.395275
0.400093
0.309154
0.0525152
0.0199424
0.140259
0.200078
0.220778
0.295264
0.290573
0.32548
0.325172
0.365494
0.020945
-0.00100268
0.0843754
0.136647
0.158709
0.220931
0.228948
0.25524
0.252966
0.301155
0.00496393
-0.00596661
0.046104
0.0955073
0.106402
0.160633
0.173652
0.18799
0.194582
0.232036
-1.62263e-05
-0.00595039
0.0319457
0.0635454
0.0837476
0.108831
0.144828
0.12691
0.135846
0.203563
-0.000712931
-0.00523745
0.0273909
0.0354416
0.0736328
0.0625888
0.127553
0.0729896
0.0797761
0.183624
-0.000548788
-0.00468866
0.0258908
0.00900199
0.069451
0.0190286
0.119455
0.0229857
0.0263963
0.172835
5.42719e-05
0.0263772
0.0692613
0.11796
0.170089
0.289789
0.382493
-0.440246
0.33142
0.0670322
-0.108663
0.357656
-0.0153786
-0.0108574
0.376845
-0.0281648
0.00897549
-0.0195318
0.00488958
0.307543
0.278513
0.35452
0.0200546
0.374464
-0.0353222
0.385628
-0.0393296
-0.0261345
0.321951
0.140186
0.369623
-0.0276174
0.386621
-0.0523206
0.39253
-0.0452386
-0.0266499
0.332825
-0.0198041
0.381011
-0.0758033
0.395572
-0.0668813
0.397765
-0.047432
-0.0230011
0.337747
0.387305
0.400912
0.401244
0.442025
0.092217
-0.534242
0.427925
0.0141002
0.429728
-0.00180318
0.435187
-0.00545858
-0.00236442
0.602922
-0.950951
0.508359
0.495699
0.499215
0.0994915
-0.00390428
-0.0955872
0.1512
-0.0517082
0.247116
-0.0959164
0.399721
-0.152605
-0.134521
0.23266
-0.199832
0.358191
0.571428
0.784317
0.136123
-0.155075
0.18554
-0.166588
0.103441
-0.164542
0.197224
0.0668446
-0.176851
0.213448
0.0272457
-0.182191
0.22179
-0.131291
0.158536
0.188333
-0.115226
-0.228182
0.143495
-0.119704
0.0925644
-0.12592
0.0392069
-0.128834
-0.0920838
0.185596
-0.0675149
-0.233308
0.137466
-0.0715734
0.0874702
-0.0759249
0.0365925
-0.0779561
-0.0554913
0.195439
-0.0201847
-0.24277
0.145741
-0.0218753
0.0931784
-0.023362
0.0392061
-0.0239839
-0.0162852
0.19674
-0.24403
0.1467
0.0937818
0.0393698
0.0806848
-0.391227
-0.101398
0.0480042
-0.415495
0.0150435
-0.428987
-0.00939767
-0.425731
-0.291717
0.16666
-0.346768
-0.211119
0.114895
-0.36373
0.0633509
-0.377443
0.0194306
-0.381811
-0.272286
0.196628
-0.295452
-0.247944
0.141314
-0.308416
0.0862357
-0.322365
0.0341913
-0.329766
-0.238095
0.210709
-0.246079
-0.260082
0.156036
-0.253742
0.0995613
-0.26589
0.0427089
-0.272914
-0.195386
0.196934
-0.257473
0.140416
0.0879737
0.0368499
0.383778
0.0631347
-0.0509331
0.363739
0.0519969
-0.0319576
0.336385
0.0320282
-0.00467497
0.307091
-0.0282694
0.0575637
-0.242833
0.383335
0.393172
0.0659427
0.3823
0.0628685
0.360779
0.0535496
0.335155
-0.0026456
-0.13586
0.400595
0.0613276
0.396015
0.0674481
0.378445
0.0711198
0.343563
0.0322359
-0.0256042
0.405628
0.0516797
0.405258
0.0678172
0.39232
0.0840586
0.349973
0.0745827
0.081599
0.408151
0.409891
0.399487
0.353086
0.461664
0.0483872
0.437764
0.0238993
0.437742
2.293e-05
0.470928
-0.0331869
-0.188375
0.659303
0.507505
0.499447
0.494795
0.519172
0.714132
0.521749
0.137554
0.398924
0.122825
0.264672
0.134252
0.149375
0.115297
0.0537874
0.594213
0.456956
0.343264
0.247442
)
;

boundaryField
{
    left
    {
        type            calculated;
        value           nonuniform List<scalar> 
17
(
-0.60402
-0.60402
-0.60402
-0.60402
-0.60402
-0.39598
-0.39598
-0.39598
-0.39598
-0.39598
-0.39598
-0.39598
-0.39598
-0.39598
-0.39598
-0.510051
-0.510051
)
;
    }
    right
    {
        type            calculated;
        value           nonuniform List<scalar> 
17
(
0.437551
0.501741
0.391488
0.392231
0.393045
0.394117
0.39545
0.397039
0.398863
0.400883
0.403041
0.405221
0.623253
0.627906
0.631743
0.632542
0.573887
)
;
    }
    down
    {
        type            calculated;
        value           uniform 0;
    }
    up
    {
        type            calculated;
        value           uniform 0;
    }
    cylinder
    {
        type            calculated;
        value           uniform 0;
    }
    defaultFaces
    {
        type            empty;
    }
}


// ************************************************************************* //
