/*--------------------------------*- C++ -*----------------------------------*\
  =========                 |
  \\      /  F ield         | OpenFOAM: The Open Source CFD Toolbox
   \\    /   O peration     | Website:  https://openfoam.org
    \\  /    A nd           | Version:  13
     \\/     M anipulation  |
\*---------------------------------------------------------------------------*/
FoamFile
{
    format      ascii;
    class       volScalarField;
    location    "62.5";
    object      p;
}
// * * * * * * * * * * * * * * * * * * * * * * * * * * * * * * * * * * * * * //

dimensions      [0 2 -2 0 0 0 0];

internalField   nonuniform List<scalar> 
440
(
-1.13138
-1.113
-1.10277
-1.07618
-1.12976
-1.20798
-1.18507
-1.15939
-1.13166
-1.10947
-1.34111
-1.30148
-1.25109
-1.18746
-1.1194
-1.48611
-1.43249
-1.32369
-1.19656
-1.06924
-1.57808
-1.50161
-1.32933
-1.15294
-0.994543
-1.15153
-1.21623
-1.35606
-1.51343
-1.64534
-1.2653
-1.27439
-1.30246
-1.34542
-1.38935
-1.19107
-1.16699
-1.13831
-1.11706
-1.10035
-1.14088
-1.11673
-1.08667
-1.06032
-1.05971
-1.10297
-1.08927
-1.07004
-1.04461
-1.07268
-1.88588
-0.665899
0.676475
0.110415
0.0255917
-1.61348
-0.733436
0.500099
0.0524235
0.0422219
-1.17835
-0.83979
0.199602
-0.0176828
0.0567016
-1.08143
-0.901776
0.0589821
-0.0523768
0.0532026
-1.14927
-0.839712
0.0834277
-0.0277967
0.0261694
-0.993001
-0.567656
0.172908
0.0738877
-0.0103832
-0.541478
-0.199066
0.0695738
0.161627
0.0208064
-0.419563
-0.0658934
0.169354
0.241605
0.0400044
-0.280262
-0.0109223
0.127188
0.20721
0.0289201
-0.165526
-0.0609983
0.157535
0.248492
0.0460348
-0.730158
-0.8332
-0.986538
-1.15458
-1.3157
-0.471091
-0.58291
-0.663051
-0.718761
-0.735032
-0.292499
-0.390083
-0.446088
-0.482924
-0.500529
-0.176759
-0.263726
-0.317153
-0.343863
-0.34983
-0.119463
-0.204098
-0.25235
-0.26687
-0.250208
0.624996
0.464962
0.260968
0.0352204
-0.209232
0.193725
0.0251489
-0.179942
-0.412965
-0.678109
-0.221638
-0.393853
-0.61092
-0.851807
-1.10469
-0.587658
-0.764312
-0.986041
-1.22282
-1.42046
-0.826872
-1.0101
-1.22037
-1.43977
-1.57158
1.73839
1.76585
1.78852
1.79629
1.78699
1.53741
1.55426
1.56435
1.55644
1.527
1.31913
1.30223
1.26083
1.19568
1.10355
1.06794
1.02937
0.953115
0.84524
0.708082
0.848017
0.735677
0.590609
0.42551
0.226833
1.53558
1.52821
1.50174
1.57199
1.63545
1.52517
1.51709
1.48103
1.5508
1.541
1.51585
1.5032
1.45798
1.51723
1.41885
1.5077
1.48751
1.43368
1.46776
1.24617
1.50064
1.47098
1.40841
1.42014
1.05957
1.4957
1.44566
1.37755
1.31688
0.853828
1.49129
1.41575
1.3692
1.18364
0.989209
1.49932
1.40293
1.3554
1.13329
1.03166
1.49606
1.36812
1.34437
1.07222
1.06341
1.53079
1.36911
1.33994
1.03599
1.10514
0.589971
0.278044
-0.0628914
-0.366663
-0.548503
0.486286
0.263024
0.035357
-0.167831
-0.330905
0.471036
0.294313
0.126771
-0.0251438
-0.173288
0.552157
0.381941
0.218969
0.0716159
-0.0645615
0.598073
0.421205
0.259515
0.117093
-0.0117351
-1.30773
-1.19023
-1.04273
-0.922499
-0.850554
-1.39549
-1.33435
-1.22018
-1.12652
-1.06777
-1.34626
-1.29954
-1.2311
-1.17057
-1.12727
-1.23108
-1.19425
-1.15217
-1.11486
-1.08115
-1.13151
-1.11351
-1.09309
-1.07319
-1.06652
-1.11877
-1.1135
-1.10037
-1.09172
-1.04049
-1.03041
-1.02835
-1.02247
-1.02613
-1.01893
-1.14086
-1.18247
-1.23231
-1.26695
-1.28078
-0.860581
-0.909217
-0.995056
-1.08919
-1.14941
-0.58135
-0.744978
-0.981474
-1.17764
-1.30306
-1.04331
0.410834
0.2362
0.271382
-0.0298272
-1.00705
0.482488
0.259738
0.27404
-0.0359411
-0.971196
0.598515
0.323582
0.270681
-0.0288014
-1.05163
0.397885
0.513947
0.252198
-0.0120147
-1.43932
-0.276573
0.642219
0.184782
0.0097472
-0.569263
0.196715
0.167997
0.263004
-0.0050473
-0.898256
0.292185
0.229781
0.280613
-0.0114059
-0.807279
-1.0442
-1.06886
-1.05136
-0.835496
-0.82551
-1.044
-1.09502
-1.05284
-1.04498
1.45298
1.43673
1.40521
1.35974
1.29958
1.62817
1.64937
1.65811
1.65265
1.63315
1.77225
1.80552
1.83334
1.85055
1.85415
1.85072
1.88875
1.92894
1.96163
1.97693
1.83507
1.86937
1.90707
1.93774
1.95097
-0.444026
-0.534853
-0.675761
-0.848345
-1.03351
0.0915339
-0.0250505
-0.181356
-0.367995
-0.590619
0.572422
0.450224
0.30471
0.134821
-0.067662
0.955582
0.861969
0.748289
0.61202
0.451848
1.26157
1.1982
1.11646
1.01905
0.906071
1.59991
1.55938
1.54551
1.55874
1.57613
1.58429
1.55595
1.54377
1.57227
1.63094
1.57089
1.55131
1.5402
1.58883
1.69359
1.55833
1.54538
1.5317
1.59322
1.70078
1.5465
1.53803
1.51832
1.58797
1.68482
1.65714
1.56735
1.53658
1.48996
1.449
1.61084
1.55713
1.53059
1.50655
1.469
1.15958
0.964572
0.623631
0.127882
-0.41654
1.22896
0.991619
0.638919
0.147089
-0.409241
)
;

boundaryField
{
    left
    {
        type            zeroGradient;
    }
    right
    {
        type            fixedValue;
        value           uniform 0;
    }
    down
    {
        type            zeroGradient;
    }
    up
    {
        type            zeroGradient;
    }
    cylinder
    {
        type            zeroGradient;
    }
    defaultFaces
    {
        type            empty;
    }
}


// ************************************************************************* //
