/*--------------------------------*- C++ -*----------------------------------*\
  =========                 |
  \\      /  F ield         | OpenFOAM: The Open Source CFD Toolbox
   \\    /   O peration     | Website:  https://openfoam.org
    \\  /    A nd           | Version:  13
     \\/     M anipulation  |
\*---------------------------------------------------------------------------*/
FoamFile
{
    format      ascii;
    class       volScalarField;
    location    "0.5975";
    object      p;
}
// * * * * * * * * * * * * * * * * * * * * * * * * * * * * * * * * * * * * * //

dimensions      [0 2 -2 0 0 0 0];

internalField   nonuniform List<scalar> 
1800
(
-1.12549
-1.11838
-1.08002
-1.00459
-0.908044
-0.809703
-0.719068
-0.638417
-0.567166
-0.508984
-1.31969
-1.3115
-1.26707
-1.18099
-1.07236
-0.962621
-0.8619
-0.772832
-0.695747
-0.632524
-1.50438
-1.49468
-1.44344
-1.34622
-1.22554
-1.10456
-0.993693
-0.895496
-0.80978
-0.737138
-1.6746
-1.66285
-1.60426
-1.49606
-1.36435
-1.23363
-1.11428
-1.00855
-0.91603
-0.836982
-1.82443
-1.81
-1.74337
-1.62421
-1.48224
-1.34275
-1.21578
-1.10322
-1.00444
-0.918984
-1.94926
-1.93163
-1.85664
-1.72713
-1.57626
-1.42962
-1.29663
-1.17874
-1.07505
-0.984749
-2.04405
-2.02266
-1.93914
-1.80005
-1.64172
-1.48951
-1.35195
-1.23005
-1.12269
-1.02865
-2.10501
-2.0795
-1.98766
-1.84018
-1.67612
-1.52006
-1.37949
-1.25498
-1.14517
-1.04856
-2.12884
-2.09902
-1.99938
-1.84496
-1.67699
-1.51883
-1.37683
-1.25109
-1.14011
-1.0421
-2.11342
-2.07937
-1.97273
-1.81314
-1.64318
-1.48462
-1.34267
-1.21705
-1.10602
-1.00764
0.310535
0.317493
0.328724
0.343026
0.356423
0.366406
0.372323
0.37459
0.373906
0.370868
0.262141
0.268929
0.280816
0.296968
0.313178
0.326361
0.335448
0.340674
0.342705
0.342295
0.186171
0.192723
0.205637
0.224633
0.245148
0.263206
0.277107
0.286821
0.292968
0.296565
0.0839254
0.0904038
0.104709
0.127525
0.153775
0.17828
0.198516
0.214111
0.225636
0.234486
-0.0424675
-0.0361799
-0.0200017
0.00762188
0.0409578
0.0733372
0.101255
0.123941
0.141923
0.157092
-0.190657
-0.184354
-0.1659
-0.132534
-0.0908875
-0.0494059
-0.0126894
0.0180632
0.0433562
0.0656713
-0.357123
-0.350996
-0.329815
-0.289851
-0.23889
-0.187386
-0.141078
-0.1016
-0.0684258
-0.0385055
-0.537849
-0.532092
-0.507789
-0.460546
-0.399643
-0.337673
-0.281491
-0.233133
-0.191955
-0.154595
-0.730659
-0.723951
-0.695485
-0.639923
-0.568274
-0.495335
-0.429021
-0.37171
-0.322505
-0.278255
-0.927234
-0.920612
-0.887589
-0.822541
-0.738772
-0.653425
-0.575441
-0.507405
-0.448305
-0.39659
0.337485
0.267228
0.209526
0.165682
0.131022
0.102401
0.0772603
0.0541545
0.0321714
0.010706
0.325221
0.261231
0.207075
0.164362
0.130027
0.101573
0.0765912
0.053659
0.031858
0.0105846
0.305153
0.25118
0.202914
0.162348
0.128758
0.100647
0.0759044
0.053176
0.0315601
0.0104685
0.276729
0.237196
0.197032
0.159608
0.127198
0.0996123
0.0751911
0.0526991
0.0312735
0.0103568
0.239172
0.219483
0.189426
0.156105
0.125329
0.0984599
0.0744433
0.052222
0.0309949
0.0102489
0.191662
0.198352
0.180107
0.151802
0.123132
0.0971798
0.0736539
0.051739
0.0307209
0.0101446
0.133484
0.1743
0.169219
0.146693
0.120589
0.0957644
0.0728168
0.0512448
0.0304486
0.010044
0.0631363
0.147261
0.156923
0.140822
0.117703
0.0942133
0.0719302
0.0507359
0.0301759
0.00994764
-0.0211825
0.115757
0.142681
0.133944
0.114343
0.0924671
0.070968
0.0502001
0.0298978
0.0098567
-0.114048
0.0803566
0.126842
0.126176
0.110488
0.0904879
0.0699037
0.04962
0.0296041
0.00977097
-0.167416
0.048845
0.108429
0.115156
0.103957
0.0865509
0.0674817
0.0481506
0.0288263
0.00957102
-0.182249
0.0164618
0.0824736
0.0977496
0.0930176
0.0797254
0.0631991
0.045526
0.0274054
0.00912483
-0.180392
-0.00283759
0.0643917
0.083804
0.083318
0.0733174
0.0590591
0.0429524
0.0259965
0.00867798
-0.175235
-0.0196309
0.0475784
0.0706351
0.0740081
0.0670864
0.0550042
0.0404214
0.0246017
0.00822958
-0.166077
-0.0313338
0.0337546
0.0590541
0.0654744
0.0612334
0.0511471
0.0379965
0.0232553
0.0077921
-0.156195
-0.0400368
0.0220914
0.0488774
0.0577733
0.0558559
0.0475666
0.0357301
0.0219854
0.00737419
-0.14765
-0.0467348
0.0122749
0.0400674
0.0509809
0.0510481
0.0443378
0.0336717
0.0208179
0.00698255
-0.142052
-0.0526497
0.00385022
0.0325415
0.0451572
0.0469014
0.0415377
0.0318745
0.0197827
0.0066306
-0.13738
-0.0578395
-0.00353595
0.0260468
0.0401678
0.0433522
0.0391338
0.0303178
0.0188526
0.00629365
-0.14391
-0.0642891
-0.00933761
0.0216725
0.036962
0.0410982
0.0376143
0.029337
0.01826
0.00607989
-0.841839
-0.875398
-0.885347
-0.872895
-0.83999
-0.78882
-0.723428
-0.644314
-0.558776
-0.465327
-0.663957
-0.697154
-0.711431
-0.708128
-0.68789
-0.653837
-0.607915
-0.551904
-0.492023
-0.428981
-0.527766
-0.560159
-0.576784
-0.579108
-0.566732
-0.543823
-0.510073
-0.468909
-0.423795
-0.375354
-0.422865
-0.454656
-0.472704
-0.478565
-0.471531
-0.45579
-0.430097
-0.398661
-0.363121
-0.324933
-0.343395
-0.374456
-0.393425
-0.401537
-0.398252
-0.387196
-0.36721
-0.342492
-0.313719
-0.282615
-0.282897
-0.313645
-0.333443
-0.343191
-0.342688
-0.334852
-0.31894
-0.298771
-0.274567
-0.248123
-0.238192
-0.268956
-0.289511
-0.300506
-0.302067
-0.296476
-0.283439
-0.26631
-0.245282
-0.221974
-0.206199
-0.237786
-0.259343
-0.271456
-0.274582
-0.270575
-0.259481
-0.244312
-0.225379
-0.204472
-0.190248
-0.221353
-0.243714
-0.25723
-0.261858
-0.259036
-0.24891
-0.233969
-0.215055
-0.192104
-0.178919
-0.212632
-0.237306
-0.25324
-0.260811
-0.261003
-0.254241
-0.242131
-0.22511
-0.202592
0.500172
0.446981
0.385311
0.318643
0.245365
0.163083
0.0716119
-0.0233905
-0.102556
-0.137321
0.305473
0.248304
0.183267
0.110687
0.028644
-0.0647031
-0.16884
-0.27692
-0.366593
-0.40533
0.0941493
0.0326568
-0.0367391
-0.114913
-0.203894
-0.305465
-0.418982
-0.53706
-0.63549
-0.676864
-0.105969
-0.173916
-0.25038
-0.33645
-0.434059
-0.54499
-0.668468
-0.79645
-0.903869
-0.946469
-0.289091
-0.364655
-0.44927
-0.544241
-0.65155
-0.773002
-0.907612
-1.04583
-1.1618
-1.20417
-0.456842
-0.539464
-0.631742
-0.735243
-0.852007
-0.983708
-1.12942
-1.27893
-1.3982
-1.44112
-0.609223
-0.697526
-0.796277
-0.907213
-1.03238
-1.17333
-1.32873
-1.48743
-1.60548
-1.64971
-0.743354
-0.836061
-0.940027
-1.05703
-1.18905
-1.33744
-1.50089
-1.66223
-1.78034
-1.82405
-0.855343
-0.951553
-1.05953
-1.181
-1.31823
-1.47213
-1.63996
-1.80285
-1.91925
-1.96069
-0.944226
-1.0423
-1.15252
-1.27687
-1.41732
-1.57455
-1.74447
-1.90701
-2.01945
-2.05748
1.67654
1.69093
1.70715
1.72344
1.73872
1.75237
1.76361
1.77203
1.77884
1.78445
1.62357
1.63594
1.64965
1.66309
1.67521
1.68536
1.69278
1.69726
1.70071
1.70443
1.55041
1.55994
1.5701
1.57944
1.58704
1.59218
1.59411
1.59293
1.59153
1.59261
1.45757
1.46356
1.46923
1.47335
1.47517
1.47391
1.4688
1.46036
1.45274
1.45052
1.34592
1.34787
1.34828
1.34626
1.34121
1.33232
1.3188
1.30166
1.28655
1.28044
1.21719
1.21473
1.20921
1.20014
1.18718
1.16945
1.1462
1.11903
1.09531
1.0849
1.07391
1.06682
1.05499
1.03828
1.01665
0.98916
0.955149
0.916837
0.88351
0.868444
0.922876
0.91035
0.890655
0.864582
0.8326
0.79375
0.74744
0.69662
0.652778
0.632899
0.769076
0.751115
0.722976
0.686562
0.643035
0.591417
0.531289
0.466524
0.411146
0.386163
0.627142
0.593999
0.550116
0.499495
0.442488
0.377146
0.302833
0.224068
0.157282
0.127381
1.51371
1.4189
1.52227
1.41887
1.44721
1.45262
1.45916
1.48463
1.52904
1.61656
1.50784
1.41371
1.51725
1.41292
1.4406
1.44446
1.44868
1.47038
1.50805
1.582
1.50245
1.40859
1.51245
1.40637
1.43359
1.43554
1.43669
1.45345
1.48167
1.53572
1.49751
1.40356
1.50791
1.39925
1.42623
1.42583
1.42319
1.43373
1.4499
1.47724
1.49302
1.39869
1.50359
1.39161
1.41856
1.41532
1.40815
1.41109
1.41278
1.40588
1.48899
1.39402
1.49948
1.38349
1.41063
1.40398
1.39155
1.38541
1.37029
1.32099
1.48541
1.38961
1.49551
1.37496
1.40245
1.39174
1.37334
1.35659
1.32218
1.22141
1.48229
1.38554
1.4916
1.36612
1.39403
1.37858
1.35343
1.32451
1.2682
1.10941
1.47964
1.38188
1.48762
1.35712
1.38539
1.36451
1.33185
1.28899
1.20724
0.981804
1.47792
1.37875
1.48341
1.34812
1.37644
1.3496
1.30895
1.25151
1.14208
0.851837
1.47574
1.37527
1.47809
1.33917
1.36362
1.3306
1.27925
1.20388
1.06876
0.730622
1.4757
1.3715
1.47316
1.33077
1.34878
1.31025
1.24842
1.15859
1.007
0.688186
1.47723
1.36858
1.46908
1.32297
1.33518
1.29139
1.22047
1.11978
0.957787
0.656407
1.48097
1.36678
1.46572
1.31603
1.32294
1.2743
1.1957
1.08711
0.917824
0.634687
1.48724
1.36621
1.46303
1.31008
1.31224
1.25933
1.17449
1.06024
0.886676
0.621824
1.49651
1.36692
1.46096
1.30518
1.30322
1.24669
1.157
1.03882
0.863426
0.61476
1.50895
1.36851
1.45935
1.30129
1.296
1.2365
1.14325
1.02247
0.846902
0.611844
1.52904
1.37233
1.45887
1.29847
1.29069
1.22888
1.13324
1.01089
0.836126
0.612469
1.5442
1.37162
1.45556
1.29648
1.28745
1.2239
1.127
1.00391
0.830069
0.616277
1.60054
1.38148
1.45806
1.29435
1.28697
1.22124
1.12408
1.00048
0.82759
0.618767
0.470621
0.303859
0.119251
-0.0528412
-0.208901
-0.353253
-0.486573
-0.60551
-0.705926
-0.784969
0.408736
0.28042
0.139419
0.00333435
-0.123274
-0.242145
-0.353406
-0.454196
-0.541412
-0.611774
0.381672
0.2775
0.166173
0.0537363
-0.0542643
-0.156438
-0.25254
-0.340459
-0.417236
-0.480462
0.377759
0.285943
0.191439
0.0946305
2.96621e-05
-0.0895753
-0.173972
-0.251826
-0.320539
-0.37798
0.384249
0.300076
0.216495
0.131162
0.0463192
-0.0349131
-0.111748
-0.18311
-0.246783
-0.300778
0.395312
0.316595
0.240011
0.162151
0.0837696
0.00809741
-0.0635744
-0.130338
-0.190325
-0.241641
0.407432
0.332765
0.260873
0.187947
0.113901
0.04194
-0.0263487
-0.0901337
-0.147784
-0.197569
0.4194
0.347319
0.278515
0.208612
0.137111
0.0673045
0.000959813
-0.0610965
-0.117305
-0.166012
0.433472
0.363253
0.29559
0.226146
0.154854
0.0850944
0.0186868
-0.0435045
-0.10007
-0.149429
0.447188
0.380501
0.313529
0.243328
0.171756
0.101727
0.0346371
-0.0284264
-0.085953
-0.136469
-3.16154
-3.10215
-2.9517
-2.75621
-2.56351
-2.3933
-2.24883
-2.12882
-2.03209
-1.95896
-3.24749
-3.19888
-3.06571
-2.87903
-2.68711
-2.51452
-2.3671
-2.24429
-2.14567
-2.07264
-3.23627
-3.19914
-3.08535
-2.90961
-2.71842
-2.54229
-2.39086
-2.26455
-2.16288
-2.087
-3.1333
-3.10749
-3.01261
-2.84817
-2.65692
-2.47548
-2.31813
-2.18683
-2.08081
-1.99982
-2.9465
-2.931
-2.85257
-2.69939
-2.50842
-2.32147
-2.15753
-2.02055
-1.90982
-1.8234
-2.68521
-2.67763
-2.6123
-2.47083
-2.28333
-2.0942
-1.92617
-1.78528
-1.67122
-1.58252
-2.36229
-2.3599
-2.30503
-2.17684
-1.99914
-1.81528
-1.64951
-1.50963
-1.39533
-1.30767
-2.00146
-1.9999
-1.95268
-1.83951
-1.67879
-1.50929
-1.35418
-1.22201
-1.11302
-1.03009
-1.62878
-1.62613
-1.58509
-1.48846
-1.35045
-1.20324
-1.06705
-0.95001
-0.852696
-0.781954
-1.26951
-1.26521
-1.22991
-1.1497
-1.036
-0.914033
-0.800113
-0.700874
-0.615281
-0.550423
-0.942152
-0.935464
-0.905837
-0.840853
-0.750566
-0.654318
-0.56498
-0.488227
-0.423263
-0.367455
-0.654178
-0.646608
-0.621679
-0.569677
-0.499275
-0.425007
-0.356524
-0.297948
-0.249034
-0.204762
-0.407029
-0.399386
-0.378234
-0.336664
-0.282013
-0.22516
-0.173181
-0.128848
-0.0920997
-0.0583538
-0.199235
-0.191774
-0.173679
-0.140587
-0.0987143
-0.0561842
-0.0180573
0.0139285
0.0399676
0.0635083
-0.0285266
-0.0213341
-0.00567907
0.0206205
0.0522509
0.0831893
0.109965
0.131629
0.148566
0.163156
0.107342
0.114247
0.128059
0.149178
0.172971
0.19498
0.212943
0.22649
0.236152
0.243524
0.209967
0.216871
0.229306
0.246682
0.264796
0.280294
0.291785
0.299312
0.303504
0.30544
0.280719
0.287716
0.299229
0.314156
0.328533
0.339717
0.346891
0.350374
0.35085
0.349086
0.320576
0.327633
0.338661
0.352314
0.364733
0.373637
0.378518
0.379825
0.378286
0.374494
0.330283
0.33733
0.348271
0.36173
0.373845
0.382374
0.386856
0.387798
0.385905
0.381723
-0.0483951
0.109925
0.143228
0.142394
0.128352
0.108013
0.0851858
0.0613595
0.0370603
0.0124606
0.0563989
0.144713
0.157903
0.148572
0.129701
0.107518
0.084144
0.0603501
0.0363649
0.0122207
0.139668
0.17296
0.169756
0.152757
0.130646
0.107001
0.083175
0.0594211
0.0357264
0.0119989
0.201991
0.196981
0.180213
0.156729
0.13143
0.106504
0.0822833
0.0585694
0.035141
0.011794
0.249611
0.218112
0.18932
0.159989
0.132003
0.106006
0.0814557
0.0577871
0.0346042
0.0116042
0.285724
0.236015
0.196781
0.162547
0.132376
0.105501
0.0806827
0.0570672
0.0341118
0.0114281
0.312031
0.250268
0.202606
0.164452
0.132547
0.104976
0.0799533
0.0564027
0.0336599
0.0112643
0.329779
0.260647
0.206809
0.165715
0.132508
0.104417
0.0792571
0.0557864
0.033244
0.0111115
0.339737
0.266936
0.209373
0.166344
0.132249
0.103811
0.0785831
0.0552111
0.0328602
0.0109683
0.34228
0.269131
0.210285
0.166336
0.131758
0.103143
0.077921
0.0546695
0.032504
0.0108335
-0.266534
-0.0144484
0.0837805
0.115841
0.11738
0.10455
0.0848691
0.0621276
0.0379386
0.0128697
-0.243656
0.00851781
0.0926846
0.118738
0.11848
0.10483
0.0848542
0.0620137
0.0378118
0.0128121
-0.200086
0.0264104
0.100936
0.122573
0.12015
0.105392
0.084923
0.0619082
0.0376754
0.0127455
-0.157688
0.0500244
0.112658
0.128176
0.122595
0.106325
0.0851552
0.0618701
0.0375697
0.0126896
-0.113377
0.0809026
0.129135
0.136266
0.126092
0.107596
0.0855337
0.0618937
0.037493
0.0126449
-1.89505
-2.00398
-2.02566
-1.96082
-1.81682
-1.63067
-1.39157
-1.16341
-0.924169
-0.698856
-1.89251
-1.99954
-2.01628
-1.94601
-1.79848
-1.60966
-1.36772
-1.13219
-0.89892
-0.673753
-1.89434
-2.00176
-2.01552
-1.93937
-1.78443
-1.58269
-1.33316
-1.0804
-0.842563
-0.628123
-1.90369
-2.01348
-2.02587
-1.94311
-1.77742
-1.55548
-1.29371
-1.02537
-0.789111
-0.589659
-1.92199
-2.03468
-2.04599
-1.95667
-1.77934
-1.53945
-1.26596
-0.991678
-0.750501
-0.538959
1.1055
1.08338
1.05292
1.01747
0.977445
0.930965
0.876761
0.817824
0.767188
0.743349
1.23258
1.22642
1.21239
1.19211
1.16664
1.13496
1.0962
1.05293
1.01582
0.998836
1.35709
1.35617
1.35013
1.33966
1.3252
1.30587
1.28079
1.25173
1.22686
1.21605
1.46619
1.47014
1.47144
1.4698
1.46503
1.45633
1.44284
1.42569
1.41088
1.40518
1.55831
1.56611
1.5728
1.57769
1.58029
1.57981
1.57541
1.56772
1.56107
1.55973
1.63026
1.64128
1.65245
1.66269
1.67125
1.67739
1.68032
1.68018
1.67992
1.68195
1.68131
1.69478
1.70931
1.72351
1.73648
1.74752
1.75585
1.76128
1.76574
1.77028
1.71142
1.72651
1.74326
1.76008
1.77593
1.79017
1.80204
1.81111
1.8186
1.82474
1.72062
1.7364
1.75417
1.77219
1.78938
1.80512
1.81864
1.8294
1.83827
1.84512
1.70897
1.72452
1.74209
1.75993
1.77691
1.79243
1.80573
1.81626
1.82491
1.83157
-1.75702
-1.83184
-1.92744
-2.04454
-2.18566
-2.353
-2.5453
-2.7463
-2.90959
-2.97775
-1.4798
-1.55701
-1.65219
-1.76657
-1.9037
-2.06612
-2.25367
-2.45841
-2.6298
-2.70271
-1.14767
-1.2264
-1.32126
-1.43323
-1.56583
-1.72208
-1.9025
-2.09727
-2.27754
-2.35168
-0.785532
-0.864757
-0.958634
-1.06754
-1.19449
-1.34265
-1.51273
-1.6977
-1.86943
-1.94627
-0.419969
-0.498948
-0.590336
-0.694182
-0.813191
-0.950669
-1.10802
-1.27903
-1.43509
-1.50907
-0.0782272
-0.153587
-0.238901
-0.334107
-0.441842
-0.565476
-0.706585
-0.859414
-0.997167
-1.06467
0.226129
0.159538
0.0847101
0.00174772
-0.0919338
-0.199573
-0.322582
-0.455489
-0.573953
-0.632514
0.500549
0.445179
0.382576
0.312821
0.233306
0.141083
0.0351832
-0.0789748
-0.179245
-0.228447
0.759712
0.712986
0.658926
0.598738
0.529962
0.450038
0.358467
0.260576
0.176262
0.13575
0.985688
0.944149
0.893724
0.83964
0.780326
0.713213
0.637427
0.557228
0.489137
0.457016
1.60928
1.468
1.56908
1.4393
1.49082
1.48855
1.48567
1.48597
1.45085
1.29336
1.59524
1.46396
1.56664
1.4403
1.48809
1.48888
1.48749
1.49632
1.48239
1.37863
1.58257
1.45951
1.56325
1.44082
1.48503
1.48846
1.49025
1.50584
1.50962
1.46413
1.57112
1.45479
1.55908
1.44073
1.48164
1.48712
1.49132
1.51225
1.53022
1.52926
1.5607
1.44988
1.55435
1.43991
1.47792
1.4848
1.49099
1.51608
1.54523
1.58018
1.55118
1.44484
1.54921
1.43832
1.47384
1.48156
1.48929
1.51729
1.55516
1.61684
1.54243
1.43972
1.54384
1.43593
1.46937
1.47742
1.48619
1.51587
1.5602
1.64041
1.53438
1.43455
1.53836
1.43276
1.46449
1.47243
1.48165
1.51188
1.56024
1.65174
1.52694
1.42934
1.53288
1.42883
1.45917
1.46662
1.47564
1.50534
1.55506
1.65141
1.52006
1.42412
1.5275
1.42419
1.45341
1.46001
1.46815
1.49627
1.54468
1.63966
1.74779
1.48163
1.57332
1.43834
1.49287
1.48143
1.46627
1.44013
1.35118
1.15319
1.68916
1.47568
1.57172
1.43992
1.49182
1.48303
1.46774
1.44354
1.35817
1.15736
1.6675
1.47748
1.57314
1.4403
1.49207
1.4843
1.47068
1.44998
1.37224
1.16723
1.6444
1.47519
1.57231
1.44003
1.49219
1.48565
1.47476
1.45923
1.39125
1.18697
1.62518
1.47179
1.57085
1.43922
1.49214
1.48697
1.47936
1.47066
1.41532
1.20884
0.799682
0.64574
0.443647
0.179338
-0.134985
-0.474705
-0.817797
-1.15085
-1.45659
-1.70985
0.798963
0.645977
0.450778
0.195979
-0.109569
-0.446351
-0.792893
-1.13207
-1.44469
-1.7044
0.819498
0.661634
0.463039
0.213918
-0.0842635
-0.420744
-0.77337
-1.11934
-1.43796
-1.70305
0.871745
0.695433
0.481308
0.231041
-0.0632603
-0.400321
-0.759286
-1.11265
-1.43733
-1.70798
0.95237
0.746857
0.507191
0.246899
-0.049249
-0.387521
-0.750971
-1.11099
-1.44257
-1.72035
)
;

boundaryField
{
    left
    {
        type            zeroGradient;
    }
    right
    {
        type            fixedValue;
        value           uniform 0;
    }
    down
    {
        type            zeroGradient;
    }
    up
    {
        type            zeroGradient;
    }
    cylinder
    {
        type            zeroGradient;
    }
    defaultFaces
    {
        type            empty;
    }
}


// ************************************************************************* //
