# Selection   : all
# Cells       : 1800
# Volume      : 7.372328e+01
# Time        	minMag(U)
0.65          	5.428263e-03
0.675         	3.680061e-03
0.7           	3.131598e-03
