/*--------------------------------*- C++ -*----------------------------------*\
  =========                 |
  \\      /  F ield         | OpenFOAM: The Open Source CFD Toolbox
   \\    /   O peration     | Website:  https://openfoam.org
    \\  /    A nd           | Version:  13
     \\/     M anipulation  |
\*---------------------------------------------------------------------------*/
FoamFile
{
    format      ascii;
    class       volVectorField;
    location    "4.25";
    object      U;
}
// * * * * * * * * * * * * * * * * * * * * * * * * * * * * * * * * * * * * * //

dimensions      [0 1 -1 0 0 0 0];

internalField   nonuniform List<vector> 
1800
(
(-0.0319035 0.0267656 1.12512e-20)
(-0.0762642 0.0504735 4.85462e-21)
(-0.100748 0.0600823 -3.5531e-21)
(-0.104115 0.0638399 1.62559e-20)
(-0.0826786 0.0673211 5.99039e-20)
(-0.0327548 0.0734174 2.77919e-20)
(0.0485873 0.0843511 -9.01047e-21)
(0.159658 0.101084 6.62446e-20)
(0.309753 0.147221 1.42783e-19)
(0.387387 0.177677 1.32649e-19)
(-0.0421495 0.0319854 7.32678e-21)
(-0.0841877 0.0598414 -1.98815e-20)
(-0.0869232 0.0672699 1.91563e-22)
(-0.0507474 0.0625461 -3.34377e-20)
(0.0268224 0.0519295 1.26173e-20)
(0.148064 0.0392754 7.52792e-20)
(0.313249 0.027131 -3.24075e-20)
(0.515868 0.0135865 1.07729e-20)
(0.766428 0.0276869 -2.13258e-19)
(0.902961 0.0362806 1.76609e-19)
(-0.0452456 0.0300843 3.35401e-21)
(-0.072577 0.0535551 1.23153e-20)
(-0.0401254 0.0570086 4.01975e-21)
(0.0505786 0.0476033 -9.24383e-21)
(0.199599 0.0319275 -8.84899e-20)
(0.40351 0.0146749 1.7162e-20)
(0.652954 -0.000597154 3.06219e-20)
(0.931927 -0.0131783 -1.28629e-20)
(1.23132 -0.0145169 3.60913e-22)
(1.47198 -0.0260991 2.63093e-21)
(-0.0412565 0.0233357 -6.44238e-21)
(-0.0374379 0.0343603 -2.06284e-20)
(0.0500597 0.0292895 -2.12937e-20)
(0.217247 0.0149089 1.765e-20)
(0.456784 -0.001863 1.70461e-20)
(0.75187 -0.0159487 6.68731e-21)
(1.07686 -0.0245866 -1.84587e-21)
(1.40341 -0.0267741 4.60937e-20)
(1.70812 -0.0244271 3.06085e-20)
(1.95857 -0.0229915 -1.2075e-20)
(-0.0290169 0.0144697 4.82516e-20)
(0.0276333 0.0113039 4.64503e-20)
(0.194357 -0.000806214 -3.04433e-20)
(0.457953 -0.0146205 -3.74116e-20)
(0.792932 -0.0235868 -9.53038e-20)
(1.1604 -0.0248121 1.50803e-21)
(1.51854 -0.0189688 1.10335e-19)
(1.83425 -0.00874013 5.65705e-20)
(2.08679 0.00225086 1.61556e-21)
(2.27795 0.00640501 -5.32562e-20)
(-0.00412188 0.00392129 -4.93637e-20)
(0.131749 -0.0108932 -2.99929e-21)
(0.400022 -0.0233754 1.69084e-19)
(0.766271 -0.0269792 -4.27165e-20)
(1.17584 -0.0193551 -1.05612e-19)
(1.5692 -0.00330162 2.06175e-19)
(1.90203 0.0159234 -2.26672e-19)
(2.15332 0.0334431 -3.2013e-19)
(2.32447 0.0458434 2.7659e-19)
(2.42743 0.0521386 2.52727e-21)
(0.0373193 -0.00662792 6.05865e-20)
(0.278584 -0.025803 -1.2818e-19)
(0.658945 -0.0278858 -4.01096e-19)
(1.1097 -0.0114242 1.82396e-19)
(1.54789 0.0166645 4.03031e-19)
(1.9117 0.0469905 -1.60107e-21)
(2.17589 0.0725084 -9.01664e-19)
(2.34573 0.0899268 3.07653e-21)
(2.44211 0.100008 1.14339e-18)
(2.49067 0.100804 3.19279e-19)
(0.0969173 -0.0138494 5.74e-20)
(0.462801 -0.0250964 3.08978e-19)
(0.946607 -0.00512688 3.16045e-19)
(1.44245 0.0362154 -1.0819e-19)
(1.85955 0.0810774 -3.86246e-19)
(2.15899 0.117666 -1.48222e-19)
(2.34644 0.141979 0)
(2.44925 0.155108 4.98843e-19)
(2.49772 0.159843 -8.46442e-21)
(2.5142 0.158134 -4.86579e-19)
(0.172739 -0.0137406 5.43915e-20)
(0.669187 -0.00143719 3.09255e-19)
(1.2294 0.0493622 5.60698e-19)
(1.72676 0.113549 -5.7118e-19)
(2.09134 0.167442 -5.01255e-19)
(2.3195 0.203155 2.13198e-19)
(2.44243 0.222274 -1.03795e-18)
(2.49768 0.229476 -7.88092e-19)
(2.51458 0.229454 9.83435e-19)
(2.51068 0.223208 8.59293e-19)
(0.259555 -0.002663 -4.92552e-20)
(0.876855 0.0489683 2.40694e-19)
(1.47833 0.133909 1.53751e-19)
(1.94581 0.214561 -1.22001e-18)
(2.24757 0.270029 4.80481e-20)
(2.41211 0.300006 2.53891e-18)
(2.48586 0.311373 -1.48784e-18)
(2.50886 0.311477 -8.85733e-19)
(2.5068 0.305344 3.1316e-19)
(2.49183 0.294775 -7.18542e-19)
(-0.00570304 -0.0501403 -1.90348e-19)
(-0.056748 -0.0556931 -3.31565e-20)
(-0.12615 -0.0383988 1.67496e-21)
(-0.201837 -0.0253143 2.21434e-20)
(-0.275756 -0.0201165 4.73365e-21)
(-0.345973 -0.0189252 2.13029e-19)
(-0.411816 -0.0179436 5.17697e-21)
(-0.473214 -0.0149635 -2.32806e-19)
(-0.532549 -0.00882166 -1.71693e-20)
(-0.594058 0.00129655 4.88692e-20)
(-0.008257 0.0132947 -2.57051e-20)
(-0.0596395 0.0716404 -5.72415e-20)
(-0.126403 0.117874 7.09903e-20)
(-0.198915 0.141799 3.74824e-20)
(-0.270259 0.149389 8.20205e-20)
(-0.338604 0.149153 1.80743e-19)
(-0.403254 0.146705 -1.8827e-19)
(-0.463928 0.144778 -1.77503e-19)
(-0.522152 0.144714 2.90086e-19)
(-0.580929 0.147773 -7.44588e-20)
(-0.0146474 0.05715 5.5333e-21)
(-0.0605344 0.166343 -5.80405e-20)
(-0.113883 0.243882 -2.33486e-20)
(-0.17055 0.286196 -1.17044e-19)
(-0.226656 0.303067 -3.4052e-20)
(-0.280738 0.306285 3.37799e-19)
(-0.331987 0.303838 -3.62527e-20)
(-0.379773 0.299617 -2.42676e-19)
(-0.424286 0.295301 2.55139e-19)
(-0.466903 0.292432 1.43889e-19)
(-0.0195881 0.0703968 1.31042e-20)
(-0.0577136 0.205208 -2.55582e-22)
(-0.0939804 0.311485 -5.71267e-21)
(-0.129158 0.380191 2.94938e-20)
(-0.163453 0.415938 -9.76944e-21)
(-0.196483 0.429612 -1.03045e-19)
(-0.227553 0.431295 -6.43769e-20)
(-0.255797 0.427294 6.32346e-20)
(-0.279945 0.420661 -1.28378e-20)
(-0.297621 0.413576 4.40526e-21)
(-0.0187822 0.0575235 0)
(-0.0483041 0.186386 -1.16293e-20)
(-0.0700314 0.306832 4.36024e-20)
(-0.0861114 0.401503 1.21698e-20)
(-0.0987566 0.464785 8.78004e-20)
(-0.109085 0.500147 -4.64068e-20)
(-0.117347 0.514875 1.21769e-20)
(-0.123282 0.516011 4.77296e-20)
(-0.126074 0.508573 0)
(-0.118946 0.497612 6.56575e-21)
(-0.0124083 0.0326788 -1.73072e-20)
(-0.0335279 0.13014 4.2151e-20)
(-0.0466653 0.240575 4.20538e-20)
(-0.0519495 0.344089 -4.6305e-20)
(-0.050811 0.428162 4.08535e-20)
(-0.0445771 0.488265 -1.89933e-21)
(-0.0342482 0.525379 -3.42022e-20)
(-0.0204191 0.543048 -2.65021e-20)
(-0.0036159 0.544829 1.61255e-21)
(0.0238765 0.535506 2.59659e-21)
(-0.00405376 0.0103565 4.63838e-21)
(-0.017995 0.0686328 7.02171e-20)
(-0.0286947 0.150644 -4.3386e-20)
(-0.0330321 0.239782 -7.42098e-21)
(-0.0299288 0.322912 -9.81732e-21)
(-0.0193995 0.391872 -5.89189e-20)
(-0.0020636 0.443075 -3.78861e-20)
(0.0213729 0.476187 -8.62903e-20)
(0.0499857 0.491912 5.96252e-20)
(0.0871028 0.488403 1.00139e-19)
(0.00119767 -0.00140107 1.26747e-20)
(-0.0103226 0.0262443 -2.84486e-20)
(-0.0245141 0.0762848 -4.6518e-20)
(-0.035751 0.137901 1.46997e-20)
(-0.0405835 0.2015 1.48042e-20)
(-0.0374198 0.25955 1.71157e-19)
(-0.0258286 0.307207 2.07727e-19)
(-0.0056026 0.342034 -1.20659e-19)
(0.0239618 0.361885 -7.88308e-20)
(0.0622041 0.355286 9.74593e-20)
(-0.000542769 -0.0014578 1.20141e-20)
(-0.0185572 0.00995639 -1.69439e-20)
(-0.0415109 0.0343192 5.14127e-20)
(-0.0630788 0.0670494 7.61626e-20)
(-0.0785528 0.103628 -7.83013e-20)
(-0.0852483 0.139296 1.80552e-19)
(-0.0815431 0.170028 -6.99118e-21)
(-0.0658498 0.192484 -3.69422e-19)
(-0.0360862 0.201931 -8.56771e-20)
(0.00949505 0.187576 8.99411e-20)
(-0.0149467 0.0115009 2.11461e-21)
(-0.0502625 0.0237398 1.4611e-22)
(-0.0837588 0.0342141 -9.8729e-21)
(-0.111021 0.0463222 3.68886e-20)
(-0.127568 0.0615255 6.4687e-20)
(-0.130198 0.0791924 -9.56669e-20)
(-0.1166 0.098105 -1.06012e-19)
(-0.0849496 0.116779 7.58947e-20)
(-0.0320345 0.130955 -9.25888e-20)
(0.0445016 0.130921 -5.07251e-20)
(-0.897667 0.0741219 -1.06401e-18)
(-1.06242 0.59836 1.41823e-18)
(-0.711334 0.882928 -2.47668e-19)
(-0.351699 0.289764 6.01885e-19)
(0.230323 -0.335585 -2.78394e-19)
(0.515806 -0.548405 -2.01054e-19)
(0.781344 -0.619081 -8.4243e-20)
(0.916199 -0.516341 1.25312e-20)
(0.998271 -0.454022 3.00486e-20)
(1.08214 -0.294237 3.35152e-21)
(-0.872791 0.176798 -7.59271e-19)
(-1.13699 0.569175 -2.9285e-19)
(-0.695237 0.737063 -1.8553e-20)
(-0.149509 0.145065 -6.10186e-19)
(0.394379 -0.449112 -1.16478e-18)
(0.679833 -0.632277 0)
(0.920798 -0.671174 -8.77535e-20)
(1.02184 -0.546308 -2.56039e-21)
(1.08729 -0.47107 -8.15779e-22)
(1.13207 -0.304575 -1.68558e-20)
(-0.693041 0.276539 4.71266e-19)
(-1.01097 0.542734 1.11174e-19)
(-0.539801 0.572453 2.43523e-19)
(0.0848205 -0.00349417 5.59833e-20)
(0.595334 -0.553246 5.77538e-20)
(0.85938 -0.709666 -7.91305e-20)
(1.06624 -0.715021 0)
(1.12973 -0.56897 0)
(1.17437 -0.480698 -3.19268e-20)
(1.18052 -0.309664 0)
(-0.411349 0.358044 7.11427e-20)
(-0.716853 0.526702 -1.59321e-19)
(-0.277423 0.420308 -8.76137e-21)
(0.349839 -0.140132 0)
(0.822211 -0.644913 6.99425e-19)
(1.04781 -0.77648 -1.41952e-19)
(1.21184 -0.74938 0)
(1.2363 -0.583696 1.1284e-19)
(1.25758 -0.482675 0)
(1.22575 -0.309504 2.2031e-20)
(-0.110117 0.405773 1.16371e-19)
(-0.326889 0.513121 -8.88202e-20)
(0.0474071 0.29871 -3.19754e-21)
(0.636682 -0.255791 0)
(1.06323 -0.721699 2.29599e-19)
(1.23941 -0.829977 2.78556e-19)
(1.35345 -0.773258 -6.13496e-20)
(1.33789 -0.590346 -8.64515e-21)
(1.33523 -0.477148 -2.25593e-20)
(1.26663 -0.304192 5.44219e-22)
(0.152008 0.417887 1.30867e-18)
(0.0735653 0.498732 3.17572e-19)
(0.386824 0.209126 5.56483e-21)
(0.929319 -0.347931 3.68115e-19)
(1.30511 -0.782545 -3.17597e-19)
(1.42695 -0.869475 1.07191e-19)
(1.48775 -0.78644 2.61037e-19)
(1.43165 -0.589126 -2.18219e-19)
(1.40573 -0.464577 1.03209e-21)
(1.30245 -0.293983 -4.82767e-20)
(0.335927 0.381241 1.08731e-19)
(0.421719 0.482502 -1.51253e-19)
(0.700609 0.145696 2.58349e-20)
(1.21312 -0.416946 -5.78854e-21)
(1.53782 -0.826365 -1.16616e-19)
(1.60393 -0.894883 -7.88827e-20)
(1.61191 -0.78939 -9.09713e-20)
(1.5157 -0.580577 2.90671e-20)
(1.46777 -0.445611 3.34059e-20)
(1.33266 -0.279309 1.07256e-21)
(0.412449 0.282726 -4.22755e-19)
(0.683809 0.447622 -2.92768e-19)
(0.969833 0.101418 0)
(1.47901 -0.465465 3.4405e-20)
(1.75428 -0.852188 3.13469e-20)
(1.76556 -0.905949 -3.54465e-20)
(1.72395 -0.782746 -2.51937e-19)
(1.58933 -0.565487 9.06691e-20)
(1.52053 -0.421051 -1.80266e-21)
(1.35691 -0.260729 -2.34444e-20)
(0.366999 0.145395 2.50791e-19)
(0.831263 0.389593 8.29146e-19)
(1.19978 0.0548017 -2.31402e-19)
(1.72446 -0.4989 -1.39166e-20)
(1.94917 -0.860617 3.12894e-20)
(1.90782 -0.902957 -1.23991e-19)
(1.82213 -0.767168 9.40102e-20)
(1.65255 -0.544838 -3.74043e-21)
(1.56365 -0.391953 1.10481e-20)
(1.37495 -0.238896 3.80578e-20)
(0.381789 -0.0359611 -1.31652e-19)
(0.861125 0.271685 7.54995e-19)
(1.41879 0.0284391 8.75161e-20)
(1.95136 -0.519186 2.0442e-19)
(2.11923 -0.855875 7.82925e-20)
(2.02853 -0.88865 -1.54829e-20)
(1.90541 -0.743923 -1.83791e-20)
(1.70568 -0.519708 0)
(1.59699 -0.359685 -5.94872e-20)
(1.3868 -0.214651 4.37931e-20)
(1.07618 -0.0786828 -1.8735e-19)
(1.23251 0.106125 -3.69694e-19)
(1.80379 -0.110855 5.32623e-19)
(2.24823 -0.575777 -4.78828e-20)
(2.31827 -0.84541 -6.87418e-20)
(2.16241 -0.859227 -4.14563e-20)
(1.99394 -0.704529 -1.04943e-19)
(1.75966 -0.480485 5.49323e-20)
(1.62519 -0.313996 -2.33137e-20)
(1.39441 -0.182048 -2.52025e-20)
(1.98528 -0.0429757 -1.67264e-20)
(1.98063 0.0395796 -3.4236e-19)
(2.43507 -0.255743 -9.01977e-19)
(2.62377 -0.635612 1.67761e-19)
(2.4777 -0.82542 -5.98508e-19)
(2.2198 -0.790618 -1.36994e-19)
(2.01513 -0.60838 1.10324e-19)
(1.76062 -0.388281 -3.28863e-20)
(1.6145 -0.23107 1.25934e-19)
(1.37941 -0.131181 1.20654e-20)
(2.30982 -0.0608568 1.46587e-20)
(2.40669 -0.0422978 2.52479e-20)
(2.68438 -0.318392 -2.39962e-20)
(2.61534 -0.598856 5.97517e-36)
(2.41984 -0.734338 -3.51456e-20)
(2.21087 -0.703565 2.4762e-34)
(2.03098 -0.529591 3.72401e-20)
(1.7723 -0.320917 1.37992e-33)
(1.61104 -0.167564 -5.73703e-21)
(1.36376 -0.0884081 1.16388e-20)
(2.3979 -0.0700941 1.43611e-35)
(2.52299 -0.0965473 2.08192e-19)
(2.62791 -0.312876 4.06558e-19)
(2.55827 -0.54817 0)
(2.44726 -0.686942 2.20855e-19)
(2.23664 -0.647441 2.43286e-20)
(2.00941 -0.449158 -1.19907e-19)
(1.71964 -0.234014 3.22151e-33)
(1.53927 -0.0849516 -8.48875e-20)
(1.30415 -0.0373751 -1.42688e-20)
(2.41193 -0.0943537 3.17476e-20)
(2.48767 -0.132513 -5.95282e-21)
(2.54528 -0.307198 0)
(2.52501 -0.52343 0)
(2.3894 -0.629903 0)
(2.11543 -0.548625 0)
(1.8542 -0.338957 6.78068e-21)
(1.57455 -0.142803 3.38158e-33)
(1.41412 -0.01358 -7.62537e-21)
(1.22039 0.00356289 -2.01056e-33)
(2.40195 -0.111104 5.62112e-20)
(2.43347 -0.152221 0)
(2.47984 -0.30188 0)
(2.455 -0.484387 0)
(2.24667 -0.549193 0)
(1.90565 -0.442746 0)
(1.6117 -0.238485 -1.12603e-20)
(1.34878 -0.0648207 8.74736e-20)
(1.21958 0.0438225 -8.44602e-21)
(1.09268 0.035926 -8.38523e-21)
(2.37319 -0.123933 0)
(2.36555 -0.163047 9.66415e-20)
(2.39404 -0.290203 1.53623e-19)
(2.27922 -0.426876 0)
(1.91828 -0.433584 8.163e-20)
(1.49178 -0.30322 6.67075e-21)
(1.20237 -0.126643 -3.69718e-20)
(1.00822 0.00368863 -2.81651e-20)
(0.947207 0.078773 2.61905e-20)
(0.916193 0.0511947 -2.25697e-20)
(2.25609 -0.122396 -5.56083e-21)
(2.20636 -0.157506 -4.16763e-21)
(2.14351 -0.249873 3.58067e-21)
(1.82783 -0.311401 -4.05905e-35)
(1.3261 -0.263069 -3.52807e-21)
(0.901376 -0.153673 1.379e-34)
(0.687098 -0.043093 -9.40018e-21)
(0.603474 0.0338938 -4.99457e-20)
(0.627958 0.077006 -8.4623e-21)
(0.687826 0.0457663 1.9876e-20)
(1.82625 -0.100995 3.48666e-20)
(1.70398 -0.130168 -3.07858e-20)
(1.46397 -0.14849 -2.40904e-20)
(1.00468 -0.122581 0)
(0.569037 -0.0862346 -1.51323e-20)
(0.306196 -0.0525731 -1.69475e-20)
(0.206621 -0.0125195 -2.8949e-20)
(0.212022 0.0255033 -1.32637e-20)
(0.290001 0.0454289 -3.63393e-21)
(0.393407 0.0258747 -2.01794e-20)
(0.74947 -0.0260791 0)
(0.577975 -0.0163072 0)
(0.380915 0.00207187 0)
(0.211617 0.00391489 0)
(0.0812891 -0.00766089 0)
(-0.0286701 -0.0106785 0)
(-0.0882416 -0.00576749 -9.19342e-21)
(-0.0779507 0.00240469 6.63001e-35)
(-0.0202058 0.00618708 -8.77828e-21)
(0.0556588 0.00344472 -1.96887e-20)
(2.43842 0.269863 6.96473e-19)
(2.47779 0.210516 4.14238e-20)
(2.49261 0.152127 -6.33936e-20)
(2.51306 0.108928 -2.04925e-19)
(2.50512 0.0591874 -3.09204e-20)
(2.47556 0.037124 -4.59926e-20)
(2.41179 -0.0106981 -1.55798e-19)
(2.16626 -0.00184257 1.7915e-20)
(1.97424 -0.0452219 0)
(1.26318 0.0205104 6.6006e-20)
(2.36519 0.229785 2.3091e-19)
(2.38122 0.189258 -2.48103e-19)
(2.44459 0.134942 -6.1217e-20)
(2.42766 0.10488 -1.04886e-19)
(2.5115 0.0556672 9.24175e-20)
(2.43611 0.0322099 1.53057e-19)
(2.55033 -0.011021 -1.895e-19)
(2.36043 -0.0395297 9.05541e-21)
(2.45783 -0.062936 -3.29784e-20)
(2.07402 -0.0954003 6.11554e-20)
(2.31916 0.198193 -1.01135e-19)
(2.30469 0.157006 2.35714e-19)
(2.39908 0.121575 1.32786e-19)
(2.35143 0.0820438 -2.3223e-19)
(2.46358 0.0561795 -4.83659e-20)
(2.38205 0.013036 3.2011e-19)
(2.50462 0.000589934 5.48113e-20)
(2.40198 -0.0504839 -5.39101e-20)
(2.49444 -0.0463626 -2.67023e-20)
(2.38304 -0.10131 -2.47484e-20)
(2.2731 0.166131 -2.83107e-19)
(2.26609 0.119966 -6.41861e-20)
(2.34393 0.104192 5.06261e-20)
(2.31979 0.0559147 -1.88454e-21)
(2.39422 0.0492992 -2.20095e-19)
(2.36423 -0.00114551 -6.41728e-20)
(2.42396 0.00136942 1.7304e-19)
(2.40719 -0.048074 -1.30108e-20)
(2.43674 -0.0402675 3.22812e-20)
(2.44197 -0.0833318 1.11671e-20)
(2.22724 0.130359 3.01968e-20)
(2.24357 0.0879743 1.32816e-19)
(2.29192 0.0789814 -6.94578e-21)
(2.30183 0.036045 1.36575e-19)
(2.33821 0.0318543 -5.84878e-20)
(2.34909 -0.0087602 -1.92305e-19)
(2.36995 -0.0104173 2.86361e-20)
(2.38848 -0.0449322 -5.47498e-20)
(2.39453 -0.0478699 -1.79267e-20)
(2.42019 -0.0736111 -2.25081e-20)
(2.1882 0.0916408 -1.56687e-19)
(2.21862 0.0591289 -6.23043e-20)
(2.2513 0.0492205 -1.89465e-20)
(2.27747 0.0179214 9.41701e-20)
(2.30012 0.00964688 2.62383e-19)
(2.32426 -0.0182561 -5.55197e-20)
(2.33758 -0.0267829 4.99683e-21)
(2.36064 -0.0496594 -7.93428e-20)
(2.3674 -0.0599877 -1.15253e-19)
(2.38892 -0.0772354 -1.84018e-20)
(2.14184 0.0536983 -4.77745e-20)
(2.17601 0.0307979 -1.13553e-19)
(2.20398 0.0200876 -1.47941e-19)
(2.23466 -0.00143155 -2.5398e-19)
(2.25594 -0.0117069 8.36484e-20)
(2.28371 -0.0311773 6.7526e-20)
(2.29881 -0.0422457 -1.43226e-20)
(2.32421 -0.0594394 7.86129e-20)
(2.33378 -0.0718626 -6.96413e-20)
(2.35819 -0.086621 -4.59142e-20)
(2.03247 0.0189191 6.02608e-20)
(2.0664 0.0036179 1.92142e-20)
(2.08762 -0.00494496 1.54e-20)
(2.12234 -0.0196781 -3.29054e-20)
(2.13781 -0.0277813 -3.13572e-20)
(2.17479 -0.0422852 -6.04352e-20)
(2.18367 -0.0508582 -4.63579e-20)
(2.22458 -0.0655879 1.06e-19)
(2.22546 -0.0752937 -4.27665e-20)
(2.27273 -0.0905186 2.07366e-21)
(1.71686 -0.00988807 -7.21679e-20)
(1.73845 -0.0175275 -1.703e-20)
(1.74647 -0.0223155 1.26167e-19)
(1.77337 -0.029675 -2.15574e-20)
(1.77639 -0.0340479 -3.5984e-20)
(1.81176 -0.0419961 7.40826e-20)
(1.80707 -0.0467293 -5.75113e-20)
(1.85398 -0.0561397 4.62649e-20)
(1.83747 -0.0622235 -2.34009e-20)
(1.89983 -0.0739689 -9.38019e-20)
(0.871695 -0.0100171 5.12278e-20)
(0.86573 -0.00935956 4.47386e-20)
(0.858549 -0.00872569 4.49317e-20)
(0.856646 -0.00833111 7.52186e-20)
(0.850318 -0.00831819 -3.82812e-20)
(0.853842 -0.00850056 -5.36976e-20)
(0.845156 -0.00928016 2.4296e-20)
(0.856535 -0.010639 -2.13339e-21)
(0.83695 -0.0117018 3.19387e-21)
(0.865373 -0.0172725 -4.83085e-21)
(1.53452 0.939226 -7.94235e-20)
(1.51911 0.984908 2.55866e-20)
(1.52248 1.03804 -6.00213e-19)
(1.53069 1.09824 2.24544e-19)
(1.53665 1.16148 1.13102e-18)
(1.53164 1.21959 -1.40463e-19)
(1.49383 1.25011 -1.00798e-18)
(1.37394 1.20165 -4.64471e-21)
(1.08567 0.981261 -4.93007e-19)
(0.506795 0.468892 1.16517e-19)
(1.69475 0.911597 0)
(1.68406 0.955827 6.9547e-19)
(1.68397 1.00523 1.54431e-18)
(1.69178 1.06289 -9.53371e-19)
(1.70083 1.12448 -2.23106e-18)
(1.69878 1.18024 -1.46511e-19)
(1.65853 1.20638 -1.87568e-19)
(1.52327 1.1523 6.83038e-19)
(1.19742 0.931248 1.01426e-18)
(0.553038 0.437244 4.01779e-19)
(1.84176 0.875919 6.46989e-20)
(1.83986 0.919389 0)
(1.84135 0.965512 -6.40489e-20)
(1.84996 1.01837 9.71367e-19)
(1.86094 1.07475 5.29141e-20)
(1.85974 1.12452 -2.17536e-18)
(1.81418 1.14347 1.37284e-18)
(1.66043 1.08287 8.07091e-19)
(1.29523 0.863726 -8.63993e-19)
(0.589651 0.396467 -2.56569e-19)
(1.97196 0.830383 -1.74413e-19)
(1.97923 0.871846 -1.29213e-19)
(1.98576 0.914316 2.65362e-19)
(1.99712 0.961674 -3.29507e-19)
(2.00974 1.01139 -1.52477e-18)
(2.00743 1.05338 -1.18435e-18)
(1.95364 1.0632 1.23958e-18)
(1.77758 0.994518 8.12191e-19)
(1.37084 0.779518 0)
(0.612192 0.347073 0)
(2.08574 0.771233 -8.66341e-19)
(2.10116 0.809795 -1.58892e-18)
(2.11395 0.848422 -6.11818e-19)
(2.12897 0.890319 -3.15992e-20)
(2.14267 0.932956 0)
(2.13725 0.965289 1.2616e-19)
(2.07073 0.964639 1.44808e-19)
(1.86666 0.889741 1.79526e-19)
(1.41755 0.68127 -2.56392e-19)
(0.617244 0.29023 -6.40004e-20)
(2.18616 0.702338 1.03023e-18)
(2.20753 0.736657 -3.87528e-20)
(2.22552 0.770603 -1.21073e-18)
(2.24345 0.80632 0)
(2.25649 0.840752 0)
(2.24371 0.863228 0)
(2.15818 0.851856 1.36735e-18)
(1.92102 0.769983 -1.49564e-18)
(1.43014 0.570625 -9.38063e-19)
(0.602105 0.228763 1.66444e-20)
(2.27333 0.623582 -1.33108e-18)
(2.29887 0.653093 -2.79466e-18)
(2.32015 0.682266 -4.84421e-21)
(2.33888 0.711734 5.65916e-19)
(2.34783 0.73778 -3.3776e-20)
(2.3222 0.749782 1.18277e-18)
(2.21111 0.727254 -6.51507e-19)
(1.93515 0.639133 -1.69049e-18)
(1.40355 0.452701 8.60004e-20)
(0.565788 0.166804 6.80557e-20)
(2.34887 0.541125 -1.0277e-18)
(2.37532 0.565671 1.43929e-20)
(2.39705 0.589259 3.86201e-19)
(2.41339 0.611613 -3.73376e-19)
(2.41356 0.628409 5.81138e-19)
(2.36829 0.629132 1.5268e-18)
(2.22338 0.595419 -1.23239e-19)
(1.90262 0.502979 -8.7014e-19)
(1.33405 0.33423 1.93875e-19)
(0.509181 0.108918 3.5643e-20)
(2.41001 0.455949 3.70751e-19)
(2.43575 0.476054 7.28927e-20)
(2.45519 0.494005 -3.78984e-19)
(2.46502 0.508985 -8.90526e-19)
(2.45005 0.516213 5.77918e-20)
(2.37632 0.505633 3.94806e-20)
(2.18813 0.461853 -1.04692e-18)
(1.81774 0.368313 4.53244e-19)
(1.22052 0.222579 1.28953e-19)
(0.435412 0.0594158 -3.97393e-20)
(2.45781 0.373745 6.78892e-19)
(2.47977 0.388946 -1.00969e-18)
(2.4932 0.400751 1.48077e-19)
(2.49066 0.408019 1.98041e-18)
(2.45194 0.405588 9.48756e-19)
(2.33898 0.384379 -2.03707e-18)
(2.09792 0.332816 -1.84936e-18)
(1.67645 0.242732 7.57544e-19)
(1.0655 0.125254 -4.01889e-20)
(0.349811 0.0216425 -1.06837e-19)
(0.552654 0.358974 -2.01081e-19)
(0.51149 0.371861 -1.77115e-19)
(0.465032 0.385542 8.75198e-20)
(0.41394 0.400148 -2.79433e-19)
(0.357927 0.415551 -2.93742e-20)
(0.296156 0.430456 2.39011e-19)
(0.227652 0.439503 4.79491e-20)
(0.1529 0.427277 -1.09354e-20)
(0.079148 0.360473 1.3013e-20)
(0.015617 0.183823 1.59054e-20)
(0.590308 0.467487 1.55829e-19)
(0.550362 0.487233 2.014e-19)
(0.505981 0.508383 4.27463e-20)
(0.457406 0.531081 -6.48725e-20)
(0.404031 0.555084 -2.47228e-19)
(0.344757 0.578554 -6.99524e-21)
(0.277944 0.594162 8.66751e-20)
(0.202321 0.580843 3.13283e-20)
(0.121569 0.492497 -1.06716e-19)
(0.0378128 0.252452 -3.66537e-20)
(0.646349 0.568387 -1.45921e-19)
(0.607868 0.594081 -1.32935e-19)
(0.566082 0.621664 1.14661e-19)
(0.520761 0.65159 8.66036e-20)
(0.471017 0.683736 -7.46456e-20)
(0.415459 0.715807 -4.23353e-20)
(0.351431 0.738432 -1.04129e-19)
(0.274901 0.724771 -6.12606e-20)
(0.183875 0.616181 -6.24082e-20)
(0.0702872 0.316169 1.37402e-21)
(0.720325 0.665274 6.07484e-20)
(0.683869 0.697492 -3.70805e-20)
(0.645618 0.731489 -9.04115e-20)
(0.604351 0.76793 -2.98197e-20)
(0.558734 0.806807 -7.02229e-20)
(0.507184 0.845469 8.15806e-22)
(0.446034 0.872714 -2.5512e-19)
(0.367898 0.85657 4.29383e-20)
(0.263352 0.727577 -3.03015e-19)
(0.111472 0.372491 4.89364e-20)
(0.807793 0.745918 -4.85273e-21)
(0.773989 0.783189 7.79564e-21)
(0.740448 0.822771 -4.73303e-20)
(0.705071 0.865702 -2.45191e-19)
(0.665754 0.911751 1.13885e-19)
(0.62012 0.957536 2.36004e-20)
(0.562881 0.989969 5.47441e-20)
(0.482474 0.972241 -1.57301e-19)
(0.360353 0.824994 3.69839e-19)
(0.161002 0.420797 2.70287e-19)
(0.911893 0.825392 -6.66978e-20)
(0.879891 0.86718 -1.56905e-19)
(0.849788 0.910118 3.74793e-20)
(0.818891 0.95663 9.62301e-20)
(0.785057 1.00705 3.40849e-19)
(0.745419 1.05732 2.48235e-19)
(0.692584 1.09212 6.12788e-19)
(0.609809 1.07018 2.54899e-19)
(0.468124 0.904568 1.48886e-19)
(0.215786 0.458503 2.02376e-19)
(1.02234 0.878867 -1.02139e-19)
(0.996407 0.925468 5.46404e-19)
(0.974128 0.97297 3.6541e-19)
(0.950928 1.02386 -4.73934e-19)
(0.924042 1.07863 -2.398e-19)
(0.890438 1.13309 6.45452e-19)
(0.841088 1.17034 -1.03436e-19)
(0.753794 1.14515 -4.3593e-19)
(0.588112 0.964271 1.48903e-20)
(0.275385 0.485022 2.45535e-19)
(1.14017 0.933477 2.7434e-19)
(1.11463 0.980416 5.66243e-20)
(1.09714 1.02819 -7.33042e-19)
(1.08194 1.08082 1.56367e-19)
(1.06443 1.13795 5.60729e-19)
(1.03954 1.19398 -3.13697e-19)
(0.995327 1.23026 -9.70618e-20)
(0.903526 1.1988 -1.80401e-19)
(0.712082 1.00294 1.81563e-20)
(0.336001 0.49927 -2.92229e-19)
(1.26679 0.95341 1.82093e-20)
(1.25166 1.00426 -5.33295e-19)
(1.24156 1.05311 -4.52418e-21)
(1.23203 1.1068 4.60299e-19)
(1.2204 1.1662 -4.78556e-19)
(1.20145 1.22464 9.39566e-19)
(1.16005 1.26109 6.32596e-19)
(1.06087 1.2249 -9.33657e-19)
(0.83969 1.01801 -7.15959e-20)
(0.396424 0.500837 -3.17897e-19)
(1.3681 0.965523 -3.19417e-19)
(1.36424 1.01695 -3.0425e-19)
(1.37096 1.06732 2.8738e-19)
(1.37586 1.1216 7.56069e-19)
(1.37543 1.18028 2.72699e-19)
(1.36476 1.23691 -7.80566e-19)
(1.32645 1.26963 9.97727e-20)
(1.2185 1.22662 2.11243e-19)
(0.965247 1.01089 -2.81933e-19)
(0.453991 0.490552 -2.24024e-19)
(0.997561 0.00865646 5.53614e-22)
(1.01174 0.0361933 -1.60515e-20)
(1.01947 0.0463931 -1.14715e-20)
(1.03173 0.0675809 0)
(1.02753 0.0860421 1.26293e-20)
(1.02456 0.105707 1.88015e-20)
(1.00189 0.131819 2.4402e-20)
(0.96096 0.164928 5.84515e-20)
(0.883729 0.226689 -9.51639e-20)
(0.732263 0.29414 -1.0915e-19)
(0.99904 0.00656218 3.27584e-20)
(1.00916 0.0343578 -5.16036e-20)
(1.01849 0.0433273 2.07987e-22)
(1.02936 0.0671326 -1.45201e-20)
(1.02675 0.0861333 6.56699e-21)
(1.02486 0.110425 -9.93568e-21)
(1.00233 0.140819 -5.72872e-20)
(0.967244 0.183126 0)
(0.890755 0.262972 1.99009e-19)
(0.762227 0.364683 -2.66022e-19)
(0.999902 0.00466148 -2.33927e-20)
(1.00785 0.0330199 1.41558e-20)
(1.01758 0.0399561 3.00686e-20)
(1.02874 0.0673005 7.95407e-21)
(1.02621 0.0856511 -1.62998e-20)
(1.02783 0.115875 1.34139e-21)
(1.00371 0.149064 -4.20191e-20)
(0.978834 0.201853 -7.59367e-21)
(0.901417 0.297884 4.80089e-22)
(0.807336 0.432497 6.48874e-19)
(1.00027 0.00284585 -2.59368e-20)
(1.00753 0.0321059 1.9556e-21)
(1.01683 0.0362738 2.47564e-20)
(1.02961 0.0680317 1.68336e-20)
(1.02617 0.0845347 -8.3129e-21)
(1.03313 0.122104 -1.23106e-20)
(1.0062 0.156179 6.27205e-20)
(0.995442 0.22153 -2.7148e-21)
(0.915307 0.330304 -2.27471e-19)
(0.867111 0.495993 7.41148e-20)
(1.00033 0.00100231 1.78196e-20)
(1.00788 0.0314952 -2.56274e-20)
(1.01642 0.0323127 -2.00711e-20)
(1.03161 0.0692012 1.0059e-20)
(1.02702 0.0828114 0)
(1.04016 0.129005 0)
(1.01066 0.162065 5.48986e-20)
(1.01544 0.241981 1.50843e-21)
(0.934737 0.360091 -1.07428e-19)
(0.93756 0.553703 8.9331e-20)
(1.00032 -0.000890636 4.96789e-21)
(1.00854 0.0310622 2.03026e-20)
(1.01662 0.0281247 -5.57653e-20)
(1.03437 0.0706442 -1.98159e-20)
(1.02916 0.0805436 -4.25213e-22)
(1.04853 0.136468 5.48897e-20)
(1.01729 0.166503 8.61264e-20)
(1.03925 0.26367 1.3536e-22)
(0.956529 0.38501 1.75625e-19)
(1.02464 0.611313 -2.03408e-19)
(1.00041 -0.00284193 -1.89715e-20)
(1.00918 0.0306634 1.05166e-20)
(1.01766 0.0237628 -1.56682e-20)
(1.03753 0.0721545 -4.24013e-20)
(1.0331 0.0778657 1.41511e-21)
(1.0575 0.144184 -1.52738e-21)
(1.02754 0.169746 -3.73154e-21)
(1.06375 0.285809 -1.9212e-19)
(0.98906 0.406212 1.32555e-19)
(1.1071 0.653234 -4.94796e-19)
(1.00069 -0.00484271 -3.15932e-21)
(1.00963 0.0301547 -2.9911e-20)
(1.01968 0.0192726 3.18679e-20)
(1.0409 0.0735061 2.282e-20)
(1.03905 0.0749414 7.61197e-22)
(1.06685 0.151726 -6.53034e-20)
(1.04131 0.172025 -4.97648e-20)
(1.09093 0.308391 3.47785e-19)
(1.02204 0.424415 1.18972e-20)
(1.21859 0.712397 7.83536e-19)
(1.00118 -0.00685907 1.25682e-20)
(1.00993 0.0294116 1.34108e-20)
(1.0226 0.0146833 3.80563e-20)
(1.0446 0.0745568 -2.51928e-20)
(1.0469 0.0718105 -6.68578e-20)
(1.07627 0.159221 8.17127e-22)
(1.05946 0.171889 -7.01412e-20)
(1.11796 0.3293 4.58448e-19)
(1.07542 0.426065 -7.64853e-21)
(1.28617 0.730065 -1.08478e-18)
(1.00183 -0.00883226 3.01519e-22)
(1.01028 0.0282781 2.06485e-20)
(1.02601 0.0105027 1.25015e-20)
(1.04919 0.0750436 -5.07305e-20)
(1.05529 0.0703879 -6.65023e-20)
(1.08554 0.165906 -5.69031e-20)
(1.078 0.179108 -1.30411e-19)
(1.14055 0.353109 -4.2193e-19)
(1.12967 0.455119 -2.30096e-19)
(1.41841 0.801642 -1.14966e-18)
(1.00295 -0.0121285 -9.30336e-22)
(1.01045 0.0267491 -4.38869e-21)
(1.03082 0.00253657 -1.48715e-20)
(1.05689 0.0744235 2.76882e-20)
(1.06584 0.0615897 5.12198e-20)
(1.10452 0.170645 -3.70468e-20)
(1.10039 0.164186 1.32281e-19)
(1.18526 0.364258 -3.9109e-19)
(1.18942 0.396726 -1.77697e-19)
(1.43236 0.791787 6.03184e-19)
(1.00507 -0.0169871 2.04414e-22)
(1.00881 0.0243445 7.12426e-21)
(1.03994 -0.0102713 -1.0598e-20)
(1.06451 0.0705841 5.12545e-20)
(1.08373 0.0459867 8.85893e-20)
(1.1211 0.168684 1.11206e-19)
(1.14148 0.139925 3.07078e-20)
(1.21361 0.351805 1.94559e-19)
(1.28615 0.347813 3.08383e-19)
(1.45228 0.693124 2.17125e-20)
(1.00681 -0.0216379 -1.1778e-21)
(1.00609 0.0198798 -3.58428e-21)
(1.05509 -0.0231849 3.82503e-21)
(1.06859 0.0642387 3.93874e-21)
(1.1091 0.0308002 2.72486e-34)
(1.12926 0.160903 -6.26791e-21)
(1.19148 0.115615 -4.40685e-34)
(1.23033 0.328585 1.64611e-20)
(1.36299 0.29475 -5.04865e-20)
(1.48921 0.604294 -5.20812e-20)
(1.00505 -0.0261724 1.49789e-20)
(1.00744 0.0115813 -4.046e-35)
(1.07231 -0.0348562 -4.37438e-21)
(1.07309 0.0536809 -2.20083e-20)
(1.13437 0.0176014 -4.50206e-20)
(1.13918 0.147946 -3.76863e-20)
(1.23221 0.0922493 -5.86346e-34)
(1.25327 0.300838 -7.69197e-20)
(1.40468 0.243728 -1.39934e-19)
(1.52501 0.515394 8.80746e-20)
(0.997244 -0.0308475 0)
(1.01921 -0.00208793 -1.67571e-35)
(1.08588 -0.0444098 0)
(1.08569 0.0381102 0)
(1.15313 0.00624695 0)
(1.16172 0.127938 0)
(1.2558 0.0715693 -4.34326e-34)
(1.28611 0.266169 0)
(1.42289 0.200466 -1.80025e-20)
(1.55421 0.424087 5.20827e-20)
(0.983587 -0.0369148 2.18481e-21)
(1.04301 -0.0185015 -9.64881e-22)
(1.09363 -0.0518379 -5.53471e-21)
(1.10951 0.0215682 0)
(1.16556 -0.00242243 0)
(1.19459 0.103372 5.77591e-21)
(1.26901 0.0551922 4.30245e-20)
(1.3188 0.225856 -1.19776e-20)
(1.44015 0.163328 -2.63173e-20)
(1.57528 0.337693 1.97871e-19)
(0.968024 -0.0490031 -8.2326e-20)
(1.07649 -0.0435999 2.96142e-21)
(1.09301 -0.0623646 -6.16343e-21)
(1.14043 -0.00271088 -1.41132e-20)
(1.1631 -0.01385 -2.81249e-20)
(1.21999 0.0737868 -1.32749e-20)
(1.2624 0.0413222 -3.68934e-20)
(1.33652 0.180373 -3.05717e-20)
(1.44685 0.129236 -5.27292e-20)
(1.58903 0.257596 6.68026e-20)
(0.957002 -0.054822 -5.11914e-21)
(1.10494 -0.0566283 -1.73134e-20)
(1.06867 -0.0605068 -6.73456e-21)
(1.14382 -0.0169388 -4.73061e-21)
(1.10243 -0.0159573 -4.60756e-35)
(1.19562 0.0475629 6.24413e-21)
(1.18298 0.0314354 -7.98814e-34)
(1.30857 0.131768 -1.14605e-20)
(1.39147 0.0948232 1.63736e-20)
(1.57696 0.180031 2.37223e-20)
(0.952526 -0.0949667 1.97787e-19)
(1.05904 -0.0888916 -4.70752e-21)
(0.950302 -0.0738494 -7.17514e-21)
(0.991868 -0.0347708 1.22205e-20)
(0.883456 -0.0163391 1.58991e-20)
(0.998341 0.0236434 1.56707e-20)
(0.936433 0.02341 1.57022e-20)
(1.1288 0.0779275 -7.64304e-21)
(1.17666 0.0587048 -1.72005e-20)
(1.423 0.101947 1.28595e-19)
(0.824689 -0.0469209 7.84286e-21)
(0.725696 -0.0334799 -9.18336e-35)
(0.529331 -0.018369 -8.26117e-21)
(0.474213 -0.00358146 0)
(0.394957 2.4012e-05 0)
(0.463974 0.00840386 6.2268e-21)
(0.441971 0.00509753 -4.39042e-36)
(0.585036 0.0169095 -1.09931e-20)
(0.638895 0.00945981 -2.40088e-20)
(0.821486 0.0180762 5.13078e-20)
(1.63262 0.82671 -1.8098e-19)
(1.73186 0.809766 -2.69236e-19)
(1.8449 0.779711 0)
(1.9512 0.738749 1.44909e-19)
(2.04836 0.684719 6.16369e-19)
(2.13675 0.623692 -1.10544e-19)
(2.21441 0.554485 1.57158e-18)
(2.28723 0.483363 -7.6141e-20)
(2.34566 0.408619 -3.41632e-19)
(2.40207 0.338694 2.95633e-19)
(1.6583 0.680228 9.08693e-20)
(1.73178 0.665937 1.071e-19)
(1.82564 0.637493 -1.24548e-20)
(1.90925 0.600251 2.02209e-19)
(1.99835 0.5523 -1.6593e-19)
(2.06691 0.503324 -3.86595e-19)
(2.14364 0.446849 -1.13016e-19)
(2.19807 0.395405 5.26653e-19)