/*--------------------------------*- C++ -*----------------------------------*\
  =========                 |
  \\      /  F ield         | OpenFOAM: The Open Source CFD Toolbox
   \\    /   O peration     | Website:  https://openfoam.org
    \\  /    A nd           | Version:  13
     \\/     M anipulation  |
\*---------------------------------------------------------------------------*/
FoamFile
{
    format      ascii;
    class       volScalarField;
    location    "71";
    object      p;
}
// * * * * * * * * * * * * * * * * * * * * * * * * * * * * * * * * * * * * * //

dimensions      [0 2 -2 0 0 0 0];

internalField   nonuniform List<scalar> 
440
(
-0.704304
-0.699746
-0.768798
-0.679392
-0.751124
-0.646517
-0.646092
-0.654525
-0.65528
-0.654663
-0.769749
-0.739292
-0.711564
-0.678153
-0.63885
-0.88609
-0.841526
-0.767616
-0.678783
-0.587715
-0.98116
-0.920218
-0.784969
-0.64248
-0.510374
-1.2694
-1.23856
-1.1961
-1.15488
-1.12697
-1.22844
-1.19413
-1.1481
-1.10288
-1.06453
-1.21853
-1.23159
-1.26806
-1.31685
-1.37029
-1.00082
-1.07214
-1.21291
-1.37295
-1.46756
-0.213519
-0.350036
-0.515972
-0.590041
-0.562728
-0.727671
-1.78633
-1.26075
-0.197384
0.0366438
-0.515454
-1.78605
-1.59078
-0.211379
0.0194568
-0.423456
-1.61272
-1.69358
-0.227064
0.00330727
-0.304318
-1.34731
-1.6812
-0.249894
-0.00994145
-0.217221
-1.03872
-1.54951
-0.269765
-0.0167749
0.293507
-0.723531
-1.29839
-0.257932
-0.02552
-0.168887
-0.528457
-0.911721
-0.237206
-0.0413257
-0.0423609
-0.300504
-0.599845
-0.243292
-0.0618793
-0.0450166
-0.224463
-0.45784
-0.226537
-0.0741301
0.00974221
-0.0619919
-0.344549
-0.251548
-0.0879381
-0.280338
-0.413569
-0.560616
-0.720944
-0.787129
-0.0487114
-0.179273
-0.248453
-0.288739
-0.288877
0.0988086
-0.00415862
-0.069388
-0.107661
-0.125924
0.193812
0.0997495
0.0259715
-0.0182003
-0.0461303
0.238539
0.145353
0.0673224
0.0242818
-0.000921399
0.93568
0.801245
0.630832
0.437146
0.216198
0.556633
0.407031
0.220523
0.00939472
-0.228417
0.176142
0.0209912
-0.174142
-0.397084
-0.605219
-0.144906
-0.3059
-0.500638
-0.711238
-0.869512
-0.367308
-0.522307
-0.700319
-0.885094
-0.986537
2.09639
2.12953
2.16238
2.1826
2.18511
1.92199
1.94431
1.96285
1.96576
1.94815
1.70585
1.69969
1.67275
1.6241
1.55075
1.45445
1.42382
1.36046
1.26727
1.1454
1.19941
1.11116
0.99195
0.848354
0.672047
1.82784
1.82021
1.80919
1.86487
1.97251
1.81894
1.80907
1.79377
1.84402
1.89578
1.81104
1.79469
1.77556
1.81004
1.79958
1.80441
1.77783
1.75476
1.76447
1.64852
1.79897
1.76001
1.73186
1.71571
1.48611
1.79531
1.73086
1.70102
1.62342
1.30788
1.79564
1.69967
1.68318
1.51325
1.31546
1.80146
1.68532
1.67057
1.45483
1.2778
1.79566
1.66203
1.66605
1.41087
1.25258
1.8353
1.65306
1.66635
1.38664
1.25133
0.905842
0.637571
0.319799
0.0616295
-0.133268
0.852225
0.662071
0.440997
0.25465
0.0802653
0.867392
0.707984
0.537701
0.375304
0.224232
0.907461
0.759543
0.608019
0.454924
0.318836
0.933712
0.79065
0.647461
0.497956
0.366715
-1.91856
-1.72928
-1.52488
-1.35348
-1.2497
-1.99405
-1.90608
-1.73779
-1.5865
-1.48116
-1.90824
-1.85145
-1.72984
-1.60569
-1.49765
-1.73957
-1.68704
-1.61796
-1.53818
-1.45546
-1.56697
-1.53659
-1.49773
-1.45662
-1.42077
-1.47267
-1.46103
-1.41871
-1.4518
-1.41001
-1.44916
-1.43732
-1.4101
-1.43862
-1.40105
-1.44381
-1.43572
-1.42957
-1.43805
-1.44799
-1.40789
-1.40391
-1.40459
-1.41693
-1.45114
-1.33937
-1.32474
-1.30931
-1.29594
-1.30035
-1.2337
-1.03178
-0.525791
-0.0137469
0.117801
-1.27493
-1.17025
-0.577653
-0.158306
0.11928
-1.31845
-1.36152
-0.585265
-0.259075
0.116693
-1.28658
-1.54835
-0.503587
-0.240442
0.0953544
-0.99172
-1.69372
-0.756923
-0.202001
0.0607498
-0.690703
-1.09727
-0.619294
0.0725582
0.119262
-1.09702
-1.06557
-0.521155
0.0849951
0.11852
-1.19086
-1.40472
-1.40242
-1.30858
-1.0591
-1.21278
-1.42414
-1.41996
-1.3518
-1.29486
1.66183
1.62824
1.57467
1.50245
1.40778
1.86829
1.88435
1.88266
1.86132
1.82095
2.04718
2.07763
2.09829
2.105
2.09658
2.1536
2.19281
2.23422
2.26766
2.28214
2.17143
2.21039
2.25405
2.29097
2.30834
-0.738304
-0.864995
-1.0635
-1.29852
-1.59052
-0.069325
-0.226823
-0.435468
-0.687583
-1.02165
0.544864
0.383555
0.188883
-0.0423403
-0.341892
1.03886
0.911276
0.75677
0.569134
0.336482
1.43157
1.342
1.22492
1.08359
0.915307
1.88714
1.84682
1.83281
1.83175
1.83266
1.87234
1.84475
1.8332
1.85204
1.90703
1.85981
1.84127
1.83406
1.874
1.99176
1.84821
1.83638
1.82947
1.88142
2.00882
1.83755
1.82968
1.82094
1.87857
2.00893
1.94173
1.85092
1.81785
1.74951
1.69826
1.89696
1.84262
1.81386
1.77336
1.70708
1.30345
1.05119
0.616925
-0.0125259
-0.698187
1.39554
1.08982
0.634364
0.00921203
-0.691195
)
;

boundaryField
{
    left
    {
        type            zeroGradient;
    }
    right
    {
        type            fixedValue;
        value           uniform 0;
    }
    down
    {
        type            zeroGradient;
    }
    up
    {
        type            zeroGradient;
    }
    cylinder
    {
        type            zeroGradient;
    }
    defaultFaces
    {
        type            empty;
    }
}


// ************************************************************************* //
