/*--------------------------------*- C++ -*----------------------------------*\
  =========                 |
  \\      /  F ield         | OpenFOAM: The Open Source CFD Toolbox
   \\    /   O peration     | Website:  https://openfoam.org
    \\  /    A nd           | Version:  13
     \\/     M anipulation  |
\*---------------------------------------------------------------------------*/
FoamFile
{
    format      ascii;
    class       surfaceScalarField;
    location    "71";
    object      phi;
}
// * * * * * * * * * * * * * * * * * * * * * * * * * * * * * * * * * * * * * //

dimensions      [0 3 -1 0 0 0 0];

internalField   nonuniform List<scalar> 
823
(
-0.00133699
0.0252312
-0.0238942
0.00452994
0.0210229
-0.0268898
0.0397034
-0.0285499
-0.00662348
0.116506
-0.0865518
0.00974927
-0.113777
-0.00951739
0.239801
0.0138319
0.0113994
0.0659543
-0.0310996
0.152731
-0.115327
0.260809
-0.194629
-0.263768
0.4108
0.0220362
-0.0106368
0.105282
-0.114346
0.215493
-0.225538
0.323699
-0.302835
-0.350465
0.410395
0.0417384
-0.0523752
0.137039
-0.209646
0.223901
-0.3124
0.27983
-0.358764
-0.373598
0.302963
0.0554736
-0.107849
0.128389
-0.282562
0.17178
-0.355791
0.189051
-0.376035
0.196853
-0.381399
0.00575804
-0.0441308
0.0383728
0.0197389
-0.0908457
0.0768649
0.0320572
-0.101357
0.0890384
0.037576
-0.0869823
0.0814635
-0.0560744
0.0331747
0.0604757
0.0234873
-0.0676182
0.0540867
-0.121445
0.0750707
-0.122341
0.0847322
-0.0966437
-0.0542477
0.0829056
0.0333378
-0.100956
0.0596027
-0.14771
0.0730048
-0.135743
0.0807896
-0.104429
-0.061547
0.0880889
-0.0212736
-0.0796824
-0.0687917
-0.100192
-0.112995
-0.0915393
-0.147453
-0.069971
-0.0334718
-0.175528
-0.103577
-0.230658
-0.328821
-0.389043
-0.432032
-0.192105
1.04877
-0.823487
-0.00913834
1.30592
-1.48889
0.418905
-0.941592
0.513548
0.461658
-1.50956
1.46681
-0.738399
0.693767
0.0470788
1.08459
0.228234
1.12477
0.503228
-1.21659
0.504566
-1.5109
-0.746452
0.308703
0.863979
0.406119
1.02735
0.565607
-1.37607
0.54001
-1.48531
-0.716787
0.206715
0.481736
0.460338
0.773727
0.59097
-1.50671
0.555117
-1.44945
-0.676402
0.105545
-0.0558408
0.596378
0.282893
0.621495
-1.53182
0.548396
-1.37635
-0.632635
0.910544
0.0955401
-1.06192
1.37761
-0.18417
1.30439
-1.4586
0.978007
-1.04997
-0.437222
1.31342
0.133926
-1.35181
1.53808
-0.408833
1.24276
-1.16328
0.845982
-0.6532
-0.255127
1.41483
0.0392048
-1.32011
1.44533
-0.439338
1.05651
-0.774452
0.784602
-0.381294
-0.142931
1.3648
-0.0366348
-1.28896
1.24825
-0.32278
0.81235
-0.338556
0.565302
-0.134246
-0.0521941
0.851114
-0.887749
0.528334
0.189778
0.0555324
1.0682
0.145587
-1.01694
1.13715
0.234016
1.24339
0.304148
1.25168
0.402519
0.429551
0.988835
0.0767677
-0.920015
1.04494
0.177913
1.15029
0.198796
1.24061
0.3122
0.318355
0.942805
0.0330346
-0.899072
1.00194
0.118775
1.0854
0.115339
1.20022
0.197377
0.198471
0.898264
0.00796946
-0.873199
0.972333
0.0447066
1.04528
0.0423967
1.16619
0.0764612
0.0756985
0.648486
-0.640516
0.693193
0.735589
0.81205
0.123949
0.29401
-0.245982
-0.171977
0.0816924
0.30087
-0.258613
0.0438441
0.311377
-0.273528
0.0133624
0.302123
-0.271641
0.194025
-0.180663
0.0899942
0.330893
-0.126877
0.0555378
0.335326
0.0255515
0.341363
0.00288801
0.324786
0.196913
0.0490352
0.35928
-0.0774226
0.0213884
0.362973
-0.00128975
0.364041
-0.00997473
0.333471
0.186939
-0.0247622
0.375322
0.00872062
-0.0384572
0.376668
-0.0429155
0.3685
-0.0304031
0.320959
0.156535
-0.100425
0.0943477
-0.0997922
-0.0870839
-0.0486866
0.20552
0.093316
-0.25891
-0.0399258
0.150852
0.0973202
-0.0426526
0.0943035
0.101836
-0.0452877
0.0386146
0.101795
-0.0461059
0.0720443
-0.0334297
0.197443
0.138489
-0.242616
0.150066
0.144697
0.0976107
0.154292
0.0416043
0.157801
0.113649
0.150604
0.184514
-0.196629
0.10694
0.188361
0.0646108
0.196621
0.0244587
0.197953
0.138107
0.159406
0.220265
-0.195157
0.118003
0.229764
0.0723226
0.242302
0.0280509
0.242225
0.166158
0.103997
-0.129714
0.0751477
0.0439208
0.0145046
0.404047
0.0630335
-0.0711009
0.425632
-0.00629891
-0.0152861
0.415162
0.168696
-0.158225
0.394186
0.168793
-0.147817
0.388818
-0.253542
0.40231
0.0567034
0.420644
-0.0246335
0.403584
0.185756
0.380099
0.192278
0.526301
0.397758
0.0549253
0.415795
-0.0426712
0.380906
0.220645
0.364535
0.208649
0.694208
0.396999
0.0539055
0.402263
-0.0479345
0.36578
0.257128
0.343521
0.230907
0.842572
0.391778
0.0581071
0.390313
-0.0464692
0.336085
0.311356
0.311744
0.255248
1.0246
0.633968
0.02816
0.651641
-0.0641422
0.668873
0.294124
0.752678
0.171443
0.800163
0.977116
0.652077
-0.019897
0.639796
-0.0518613
0.688597
0.245323
0.78842
0.0716204
0.607207
0.981376
0.65163
-0.067507
0.62877
-0.0290011
0.696919
0.177174
0.774438
-0.00589896
0.418094
0.963552
0.61677
-0.0802566
0.612453
-0.0246838
0.732768
0.0568591
0.751473
-0.024604
0.201394
0.968172
0.523764
0.49908
0.555939
0.531335
0.732729
0.991061
-0.185922
0.988297
-0.124112
0.977647
-0.0667725
0.992225
-0.00585821
0.069638
0.927337
-0.131883
0.910512
-0.107287
0.886871
-0.0431312
0.908342
-0.0273295
0.0579649
0.915084
-0.0834149
0.886046
-0.0782489
0.873604
-0.0306893
0.877938
-0.0316633
0.0368305
0.91826
-0.0335024
0.874224
-0.0342133
0.859827
-0.016292
0.846627
-0.0184635
0.0102585
0.699227
0.665014
0.648721
0.630258
0.0534735
0.184168
-0.237642
0.0758432
0.381872
-0.404242
0.0738821
0.43343
-0.431469
0.064288
0.431908
-0.422314
0.397934
0.0509357
-0.384582
0.0849053
0.0992631
0.156601
0.310177
0.187082
0.402949
0.191661
0.427329
0.410696
0.178899
0.0759141
0.023349
0.19853
0.18756
0.284697
0.316782
0.328097
0.383929
0.418838
0.319955
0.0385766
-0.0152276
0.161657
0.0644798
0.294308
0.184131
0.411897
0.266339
0.355622
0.475113
0.00867137
-0.0238989
0.079499
-0.00634777
0.20173
0.0619
0.346202
0.121867
0.232816
0.469008
-0.000456629
-0.0234423
0.0293369
-0.0361413
0.106117
-0.0148802
0.218918
0.00906609
0.108368
0.343366
0.00425639
-0.0276987
0.0209044
-0.0527893
0.0572649
-0.0512408
0.102828
-0.0364965
0.0240963
0.1871
0.00780085
-0.0354996
0.0212059
-0.0661943
0.0407646
-0.0707994
0.0626425
-0.0583745
-0.0275857
0.114325
0.00324994
-0.0387495
0.0100797
-0.0730241
0.0218041
-0.0825239
0.0385663
-0.0751367
-0.0555999
0.0665805
-0.000376691
0.00346415
0.00997863
0.0163054
0.0211812
0.333237
1.14666
-1.13654
0.0368772
0.974719
-0.678359
-0.0291624
0.108161
-0.0421214
0.264893
-0.885897
0.591842
-0.321967
0.201188
0.34667
0.987094
0.0309724
1.29042
-0.0288364
0.16797
0.258549
-1.17328
-0.465767
0.43215
0.669269
0.154212
1.56835
0.129492
0.19269
0.304109
-1.3479
-0.578366
0.138281
0.597568
0.0863618
1.62027
0.327292
-0.0482404
0.39787
-1.41848
-0.639215
-0.204737
-0.0733505
0.391958
0.440291
-0.169891
0.703567
-0.533676
-0.312545
0.142654
-0.170576
-0.141968
0.150495
-0.321072
-0.101118
0.793644
-1.22661
0.257939
0.0738494
0.34462
0.0961086
-0.0113284
-0.0847802
0.154128
-0.0580197
0.243434
-0.0893055
0.386431
-0.142997
-0.147245
0.221206
-0.181598
0.342085
0.572734
0.90485
0.149339
-0.156636
0.188513
-0.181216
0.11428
-0.163448
0.198507
0.074438
-0.17252
0.212362
0.0308436
-0.173781
0.217376
-0.123804
0.154647
0.193956
-0.115602
-0.23499
0.14745
-0.116942
0.0942399
-0.11931
0.0392499
-0.118791
-0.084554
0.189715
-0.0639345
-0.241383
0.137252
-0.0644787
0.0848403
-0.0668984
0.0345258
-0.0684768
-0.0500282
0.206341
-0.011752
-0.258523
0.153469
-0.011607
0.0984041
-0.0118334
0.0417685
-0.0118412
-0.00825966
0.211017
-0.262695
0.156758
0.0996365
0.0416893
0.052562
-0.361101
-0.076043
0.0219712
-0.391723
-0.00426851
-0.405229
-0.0165915
-0.391919
-0.254233
0.138201
-0.325495
-0.173807
0.0930163
-0.346539
0.0468902
-0.359103
0.0106639
-0.355693
-0.24357
0.164261
-0.280733
-0.209023
0.115269
-0.297546
0.0677326
-0.311567
0.0247489
-0.312709
-0.218821
0.179967
-0.240026
-0.220674
0.132837
-0.250416
0.0828624
-0.261592
0.0338227
-0.263669
-0.184998
0.177783
-0.229296
0.125874
0.0766439
0.0303506
0.390049
0.0996576
-0.0937266
0.394054
0.0762876
-0.0802934
0.361462
0.140135
-0.107543
0.31516
0.0195968
0.0267054
-0.276033
0.409976
0.397388
0.0982494
0.408306
0.0653691
0.398474
0.149968
0.356569
0.0615013
-0.154453
0.402312
0.091917
0.417519
0.0501622
0.412364
0.155123
0.378347
0.0955176
-0.0174885
0.40616
0.0817369
0.422519
0.033803
0.422327
0.155314
0.394571
0.123274
0.118559
0.406616
0.425133
0.422222
0.397678
0.416539
0.0935123
0.339908
0.0766303
0.260974
0.0789344
0.27947
-0.0184965
-0.221632
0.501103
0.509837
0.506174
0.477565
0.485774
0.674118
0.401351
0.0997514
0.313187
0.0881643
0.210465
0.102722
0.122965
0.0874994
0.0381853
0.544574
0.412064
0.305763
0.219456
)
;

boundaryField
{
    left
    {
        type            calculated;
        value           nonuniform List<scalar> 
17
(
-0.60402
-0.60402
-0.60402
-0.60402
-0.60402
-0.39598
-0.39598
-0.39598
-0.39598
-0.39598
-0.39598
-0.39598
-0.39598
-0.39598
-0.39598
-0.510051
-0.510051
)
;
    }
    right
    {
        type            calculated;
        value           nonuniform List<scalar> 
17
(
0.251613
0.44469
0.385672
0.402349
0.416707
0.458719
0.494843
0.50629
0.512619
0.510345
0.514732
0.504629
0.782594
0.663888
0.672406
0.474565
0.00333826
)
;
    }
    down
    {
        type            calculated;
        value           uniform 0;
    }
    up
    {
        type            calculated;
        value           uniform 0;
    }
    cylinder
    {
        type            calculated;
        value           uniform 0;
    }
    defaultFaces
    {
        type            empty;
    }
}


// ************************************************************************* //
