/*--------------------------------*- C++ -*----------------------------------*\
  =========                 |
  \\      /  F ield         | OpenFOAM: The Open Source CFD Toolbox
   \\    /   O peration     | Website:  https://openfoam.org
    \\  /    A nd           | Version:  13
     \\/     M anipulation  |
\*---------------------------------------------------------------------------*/
FoamFile
{
    format      ascii;
    class       volVectorField;
    location    "71";
    object      U;
}
// * * * * * * * * * * * * * * * * * * * * * * * * * * * * * * * * * * * * * //

dimensions      [0 1 -1 0 0 0 0];

internalField   nonuniform List<vector> 
440
(
(-0.220405 0.180964 -5.48238e-20)
(-0.24123 0.20933 -2.80348e-19)
(-0.0763784 0.0778135 5.43319e-20)
(0.292587 0.0668428 -7.5992e-20)
(0.26429 0.129544 7.32202e-21)
(-0.0706808 0.0485517 1.80522e-20)
(0.0589463 0.0586947 1.74924e-20)
(0.516511 0.0022126 2.51726e-20)
(1.02955 -0.017884 -6.40998e-22)
(1.49514 -0.0257845 -2.23354e-20)
(-0.0352896 0.0162666 5.22409e-20)
(0.424518 -0.0220933 5.883e-19)
(1.15198 -0.0090708 -2.97627e-19)
(1.7393 0.0155512 -9.7244e-19)
(2.24571 0.0378105 4.44823e-19)
(0.171906 -0.0394257 -1.59752e-19)
(1.09235 0.00542434 -4.65674e-19)
(1.86026 0.0768329 1.46502e-18)
(2.30157 0.124258 1.63503e-18)
(2.41884 0.139419 -4.42369e-19)
(0.502824 -0.00759915 -2.7438e-19)
(1.63224 0.17744 -5.67943e-19)
(2.18659 0.264526 1.72532e-18)
(2.33526 0.283013 1.87892e-18)
(2.39488 0.262405 6.42612e-19)
(0.0193195 -0.236051 -1.10726e-19)
(0.0773056 -0.488106 -3.0332e-19)
(0.119581 -0.558787 5.33682e-19)
(0.134973 -0.498912 -6.91456e-20)
(0.101436 -0.354151 -6.06334e-19)
(0.0993096 -0.309358 1.36351e-19)
(0.274367 -0.604228 4.99098e-19)
(0.334606 -0.629376 3.17979e-20)
(0.334545 -0.491675 2.66703e-20)
(0.246939 -0.259977 -4.51612e-20)
(0.271728 -0.507176 2.67608e-19)
(0.494845 -0.808533 3.72075e-19)
(0.510612 -0.776254 -3.76045e-20)
(0.459122 -0.59243 -7.70999e-19)
(0.31573 -0.328289 -3.24133e-21)
(0.39628 -0.636616 4.18919e-19)
(0.384602 -0.889439 -6.76024e-19)
(0.214522 -0.844748 9.11843e-19)
(0.0286058 -0.724482 1.78429e-18)
(-0.13614 -0.509097 -5.09863e-20)
(-0.0481218 -0.150912 1.35995e-19)
(-0.336188 -0.427034 3.28711e-19)
(-0.527132 -0.617927 5.47074e-19)
(-0.65 -0.650167 -3.46219e-20)
(-0.779954 -0.537991 9.37706e-19)
(0.194513 0.615232 2.13587e-18)
(-1.28934 0.943144 4.63336e-19)
(1.2299 -0.560307 1.20687e-18)
(0.960346 -1.0531 7.08917e-20)
(1.27787 -0.503145 -6.11352e-20)
(0.316312 0.856895 -8.50477e-19)
(-0.489768 0.862445 1.70481e-19)
(1.5844 -0.758552 2.40177e-19)
(1.20939 -1.06824 2.46117e-19)
(1.29394 -0.533361 8.80489e-20)
(0.783544 0.566938 -8.00249e-19)
(0.153647 0.713971 -2.37265e-18)
(1.85434 -0.88981 -1.30639e-19)
(1.46203 -1.02237 1.03721e-19)
(1.28829 -0.507932 6.55166e-21)
(-0.00697696 0.583099 1.48566e-19)
(0.342077 0.679452 4.35395e-19)
(2.0744 -0.967064 3.52749e-19)
(1.61437 -0.985376 -1.00189e-19)
(1.29942 -0.473464 6.39567e-20)
(-0.790906 0.0216566 -3.96155e-19)
(1.09665 0.33205 2.16364e-18)
(2.40518 -0.972597 0)
(1.69698 -0.909423 -9.42006e-20)
(1.27393 -0.419578 7.99212e-21)
(0.997492 -0.0975584 -1.97118e-19)
(1.85527 -0.0956262 -4.56695e-19)
(2.62781 -0.913586 -1.21394e-20)
(1.86822 -0.752963 6.86254e-20)
(1.29527 -0.3545 -3.5152e-20)
(1.83096 0.174651 -3.98264e-21)
(2.4221 -0.150161 7.35171e-19)
(2.59857 -0.865235 -7.04764e-21)
(1.64996 -0.539993 2.60409e-20)
(1.09888 -0.187032 0)
(1.98911 0.0236157 -2.02903e-19)
(2.61037 -0.331783 -1.2986e-20)
(2.1321 -0.571682 6.00293e-19)
(1.45553 -0.294139 -9.3087e-21)
(1.1131 -0.134252 -4.33395e-20)
(2.04107 0.0168838 4.52012e-20)
(2.41012 -0.248827 1.31909e-19)
(1.69233 -0.424395 1.46795e-22)
(1.06209 -0.16516 -4.18016e-34)
(0.785668 -0.0444829 3.50452e-20)
(1.57044 -0.0558351 7.74154e-20)
(1.2238 -0.121953 9.44485e-20)
(0.473919 0.0206346 -8.6655e-20)
(0.179215 -0.0123849 -1.45396e-20)
(0.00555219 -0.0233837 1.21968e-20)
(2.32625 0.25613 -7.97033e-19)
(2.47187 0.0860665 -9.79671e-19)
(2.41505 0.080369 7.06634e-19)
(2.50047 -0.0338323 4.46504e-20)
(2.04258 0.027138 -6.5169e-20)
(2.14097 0.118088 6.82726e-20)
(2.22791 0.122824 -3.72591e-20)
(2.27207 -0.0611453 -1.20671e-19)
(2.28506 -0.0149836 -2.19139e-19)
(2.3092 -0.267054 -4.36114e-21)
(2.09505 0.0284468 7.33245e-20)
(2.10194 0.105075 8.62557e-20)
(2.19934 -0.0923345 -1.00085e-19)
(2.14787 0.000502092 3.49561e-20)
(2.2527 -0.188391 2.05301e-20)
(2.0028 -0.0048507 1.09432e-19)
(2.0332 0.0543758 1.45797e-19)
(2.10833 -0.0671344 -1.7705e-20)
(2.08783 -0.00312804 -6.10647e-20)
(2.17792 -0.114792 2.50126e-20)
(1.43628 -0.0124398 1.74531e-19)
(1.486 -0.0129703 -1.13949e-20)
(1.46007 -0.0211282 1.73245e-20)
(1.49874 -0.0234672 -3.44165e-20)
(1.46903 -0.0290806 -2.13492e-20)
(1.53368 0.854456 1.00485e-18)
(1.49671 0.94739 -3.01995e-19)
(1.49592 1.06838 -1.21337e-18)
(1.42555 1.10618 6.76392e-19)
(0.876874 0.790472 -1.69738e-19)
(1.79973 0.794135 -5.28934e-19)
(1.77568 0.874632 -2.81105e-18)
(1.78332 0.981369 -1.09098e-18)
(1.69306 0.985912 -3.85209e-19)
(1.02682 0.675285 -6.148e-19)
(2.08274 0.695693 7.09092e-19)
(2.06627 0.756993 1.82157e-19)
(2.04717 0.834095 -2.15422e-18)
(1.90628 0.814142 -5.82776e-19)
(1.10542 0.519719 4.18521e-19)
(2.22852 0.569573 2.17752e-18)
(2.22983 0.618805 1.57523e-18)
(2.2202 0.662955 -1.79683e-18)
(1.99059 0.612209 -1.33732e-18)
(1.05983 0.334143 -2.33947e-19)
(2.38561 0.419556 1.02069e-18)
(2.37904 0.440566 -7.32962e-19)
(2.27766 0.454482 5.28351e-19)
(1.92215 0.389886 4.02521e-19)
(0.860323 0.138338 -3.3169e-19)
(0.579574 0.386443 -7.23243e-19)
(0.490269 0.41815 -5.96489e-19)
(0.3706 0.450668 7.99595e-20)
(0.229778 0.457119 -2.92357e-20)
(0.0557575 0.328005 6.46187e-20)
(0.670619 0.564956 5.21808e-20)
(0.605557 0.621005 -3.2243e-19)
(0.515582 0.686585 1.67736e-19)
(0.387747 0.740278 -7.75046e-20)
(0.164886 0.564756 1.11308e-19)
(0.771295 0.761305 2.05532e-19)
(0.696123 0.838059 3.96698e-19)
(0.634845 0.93323 5.29079e-20)
(0.547519 0.983315 -2.67053e-19)
(0.297982 0.733562 2.15727e-19)
(1.03871 0.855261 2.00823e-19)
(0.988031 0.940989 -5.86645e-19)
(0.932989 1.03862 -1.73618e-18)
(0.845326 1.10331 7.11302e-19)
(0.496909 0.822996 -1.75326e-19)
(1.14341 0.895835 -1.30016e-19)
(1.15879 1.01436 -2.04003e-19)
(1.1721 1.13024 -3.12432e-19)
(1.11424 1.16662 -3.64853e-19)
(0.684406 0.844984 -6.03819e-21)
(1.00757 0.0496225 -8.08855e-20)
(0.993699 0.0055854 -3.04699e-20)
(1.05199 0.116342 -1.40551e-21)
(0.943815 0.110369 -1.98923e-19)
(0.892443 0.227838 2.86756e-19)
(0.993998 0.0488726 4.976e-20)
(1.01125 -0.00220162 1.13558e-19)
(1.03997 0.127944 9.71103e-20)
(0.967686 0.13749 2.1778e-20)
(0.925476 0.307738 2.36361e-20)
(0.998971 0.0480211 6.55658e-20)
(1.00129 -0.0116504 -4.40753e-21)
(1.08124 0.145447 -3.86119e-21)
(0.913412 0.144216 1.46757e-19)
(1.12397 0.443996 -4.07206e-19)
(0.993197 0.0472268 -3.70971e-22)
(1.02669 -0.02348 -1.68686e-19)
(1.07001 0.171333 -5.55243e-20)
(0.987801 0.149489 -3.51256e-19)
(1.17015 0.483235 8.54822e-20)
(0.993807 0.0376224 -1.02989e-20)
(1.03512 -0.0203182 5.07442e-20)
(1.10448 0.17642 2.73527e-20)
(0.971194 0.173549 4.32108e-19)
(1.37425 0.618399 -3.99623e-19)
(0.959833 0.0351523 -1.94141e-21)
(1.11514 -0.0462182 9.98477e-20)
(1.06391 0.214578 -6.98356e-20)
(1.18687 0.118379 8.41981e-19)
(1.34756 0.624121 -3.77894e-19)
(0.909801 0.000123032 -1.54338e-21)
(1.21525 -0.0366501 -8.1006e-20)
(0.940977 0.158683 4.51088e-21)
(1.3099 0.0850542 -2.99878e-19)
(1.37452 0.419091 1.59586e-20)
(0.979991 -0.0230955 -1.84318e-21)
(1.13937 -0.0244238 1.21029e-35)
(0.985761 0.147805 -1.71332e-20)
(1.28043 0.00942843 8.93182e-20)
(1.35679 0.320265 1.43666e-19)
(1.10483 -0.0671987 3.97669e-21)
(0.895359 -0.0142669 -2.83785e-20)
(1.18192 0.0745349 1.77783e-20)
(1.19226 -0.0174439 2.92674e-20)
(1.36614 0.194333 -2.07631e-19)
(0.988574 -0.0240881 -4.25798e-20)
(0.699884 -0.0157112 -5.21599e-21)
(1.00172 -0.00215466 1.85841e-20)
(0.789394 -0.0150401 -1.40901e-20)
(1.02887 0.0644129 -4.65173e-20)
(1.74134 0.665568 2.96074e-19)
(1.85398 0.641774 7.12227e-19)
(2.07298 0.554213 -9.94361e-19)
(2.15173 0.484297 3.73558e-20)
(2.32942 0.323508 4.23432e-19)
(1.66036 0.494164 3.50222e-20)
(1.73803 0.421105 9.1808e-19)
(1.87964 0.421202 8.9912e-20)
(1.96369 0.287152 -8.47143e-19)
(2.08235 0.268359 -2.68046e-19)
(1.61963 0.359633 -1.9145e-19)
(1.71848 0.268272 -1.39695e-19)
(1.82033 0.294859 2.11638e-19)
(1.92988 0.152832 -2.78044e-19)
(1.99219 0.201013 2.52369e-19)
(1.63634 0.207207 3.13093e-19)
(1.69846 0.14667 -2.74072e-21)
(1.80536 0.163926 2.13166e-19)
(1.86363 0.0715558 1.84301e-19)
(1.94194 0.109338 -1.80107e-19)
(1.24379 0.0534559 -3.77644e-20)
(1.29355 0.0359348 2.143e-19)
(1.37007 0.027493 1.00228e-19)
(1.38633 0.00751772 -2.12337e-19)
(1.44854 0.00266352 3.45811e-22)
(1.41289 -0.0368767 7.79832e-20)
(2.52517 -0.0161129 -6.15584e-19)
(2.74638 -0.0110096 1.64262e-18)
(2.72049 0.0413152 7.62479e-19)
(2.46596 0.0483447 -5.1494e-19)
(0.943612 0.107103 1.70378e-19)
(2.31523 0.135321 -6.55636e-19)
(2.73938 0.145527 -9.29912e-19)
(2.73994 0.154844 1.26185e-18)
(2.55633 0.153984 -9.2526e-19)
(0.318012 0.110347 -2.45776e-20)
(1.70304 0.22704 7.74548e-19)
(2.47867 0.279937 1.26361e-19)
(2.78981 0.294593 1.31166e-18)
(2.75216 0.265031 7.36587e-19)
(-0.0263156 -0.00594254 2.7067e-19)
(0.777209 0.175448 3.03352e-19)
(1.72277 0.30169 -8.92923e-19)
(2.29953 0.373082 8.3729e-20)
(2.79704 0.412204 7.39116e-19)
(-0.119054 -0.0952238 2.11409e-19)
(0.110503 0.0111756 -2.48678e-19)
(0.801479 0.18607 -9.98299e-20)
(1.3764 0.303513 1.71933e-19)
(2.08775 0.487477 9.0212e-20)
(-0.0977039 -0.113453 2.2083e-20)
(-0.112597 -0.126857 1.64625e-19)
(0.192597 -0.0643826 5.55442e-20)
(0.423793 0.0154602 -4.32362e-20)
(1.27811 0.282233 5.55058e-21)
(-0.078477 -0.136311 -2.17522e-20)
(-0.137089 -0.263501 -1.17963e-19)
(-0.0445279 -0.283472 1.21064e-21)
(0.048029 -0.215036 -6.53388e-21)
(0.505441 0.110407 2.07531e-20)
(-0.0690331 -0.190497 -2.10787e-20)
(-0.10856 -0.369694 1.04694e-19)
(-0.0757301 -0.396949 1.61313e-20)
(-0.00697353 -0.330564 2.56537e-19)
(0.139733 -0.121499 -3.75549e-20)
(-0.0514184 -0.231932 -7.12898e-21)
(-0.0858323 -0.43204 1.84656e-20)
(-0.0728747 -0.4805 -2.20404e-19)
(-0.0258232 -0.432687 -3.54721e-19)
(0.025825 -0.312091 9.92127e-20)
(-0.0212001 -0.236363 1.33899e-20)
(-0.0344032 -0.458451 -3.2324e-20)
(-0.0230744 -0.531465 1.22447e-20)
(-0.00149377 -0.49315 -4.88169e-20)
(0.00333496 -0.37428 -2.16102e-19)
(1.64008 0.75069 -9.03733e-20)
(1.04598 0.49454 -4.18843e-19)
(-0.560997 0.0591307 -7.07045e-20)
(0.303148 -0.452485 6.9593e-19)
(0.973201 -0.149864 4.62585e-21)
(1.49612 0.757307 5.46508e-20)
(0.983082 0.738468 1.72082e-18)
(-0.515978 0.0586626 1.505e-20)
(0.208468 -0.72922 1.99136e-20)
(1.01496 -0.250444 -7.25198e-21)
(1.52101 0.547542 -1.22008e-20)
(1.0394 0.991614 2.37615e-18)
(0.0777427 0.164276 1.15182e-19)
(0.422313 -0.853785 -4.26219e-19)
(1.05097 -0.342689 6.10326e-21)
(0.947898 0.386934 -5.94755e-19)
(-0.0473663 1.13626 -2.98338e-18)
(0.699237 0.139916 -1.43107e-19)
(0.771599 -0.924502 1.47463e-20)
(1.15723 -0.415673 -7.55138e-20)
(0.350633 0.500173 -3.94514e-19)
(-1.30289 1.0855 -2.82852e-19)
(1.03988 -0.211503 9.19737e-19)
(0.864062 -1.00852 -7.84922e-20)
(1.24878 -0.466913 -1.72005e-19)
(-0.259618 0.11242 -5.0272e-20)
(-0.472504 -0.188538 0)
(-0.700843 -0.133813 -8.02666e-20)
(0.0728321 -0.111032 1.76938e-20)
(0.49272 -0.0285984 -1.96565e-20)
(1.81671 0.686591 0)
(1.18719 0.376556 0)
(-0.129713 -0.0215899 3.03513e-19)
(0.447342 -0.264979 -2.55538e-19)
(0.871293 -0.0964584 4.20816e-21)
(0.785391 0.00712413 -1.38782e-19)
(0.872054 -0.000907133 3.35183e-19)
(1.0047 0.0460026 -3.38357e-20)
(0.901454 0.0101566 4.01809e-19)
(1.30579 0.214586 2.47136e-19)
(1.77275 0.0446907 1.34227e-19)
(2.01696 0.0906124 5.04369e-19)
(2.10217 0.177891 -8.57823e-19)
(2.50073 0.272436 3.07603e-19)
(2.5034 0.416349 5.37226e-19)
(0.994259 -0.54536 4.74678e-20)
(0.984556 -0.646298 -2.29014e-19)
(0.984451 -0.756379 -2.133e-19)
(0.920465 -0.835746 1.26071e-19)
(0.569069 -0.666411 1.52974e-19)
(0.889575 -0.456869 1.03468e-19)
(0.834309 -0.529531 1.13884e-19)
(0.757967 -0.607411 -1.29593e-19)
(0.640797 -0.676479 1.57139e-19)
(0.357997 -0.544169 3.49792e-20)
(0.693073 -0.320986 -1.09879e-19)
(0.601026 -0.367494 -6.2636e-20)
(0.500488 -0.426939 -3.44497e-20)
(0.385677 -0.480265 -6.18731e-20)
(0.183578 -0.383632 -1.46081e-19)
(0.582359 -0.0890754 -4.39731e-19)
(0.498021 -0.111981 -3.51542e-19)
(0.389174 -0.146485 2.89111e-19)
(0.260449 -0.187262 1.41151e-19)
(0.0838264 -0.167031 1.30768e-20)
(0.546695 0.119182 -1.36657e-19)
(0.461373 0.116976 -1.58187e-19)
(0.343359 0.110983 -3.56979e-20)
(0.202652 0.108202 6.15988e-20)
(0.03663 0.0788761 1.53966e-20)
(2.29545 -0.0238078 1.02649e-18)
(2.51328 -0.102295 3.79304e-19)
(2.60979 -0.198047 -9.55772e-19)
(2.49802 -0.224384 -2.05538e-18)
(1.55667 -0.228137 1.51682e-19)
(2.18991 -0.135082 1.69734e-18)
(2.32094 -0.25319 2.20364e-18)
(2.35701 -0.386018 1.82655e-19)
(2.29337 -0.449967 3.16188e-19)
(1.50989 -0.428772 -2.1184e-19)
(1.93073 -0.310533 -4.28788e-18)
(1.97906 -0.436552 4.9066e-19)
(2.01828 -0.573467 1.36389e-18)
(1.97877 -0.66163 -5.53334e-19)
(1.3149 -0.590224 8.79343e-19)
(1.65138 -0.446292 1.05834e-18)
(1.67234 -0.554972 -2.77702e-18)
(1.67718 -0.68713 -3.2132e-18)
(1.6242 -0.789429 1.01513e-18)
(1.06652 -0.674862 6.57075e-19)
(1.35471 -0.517224 2.42755e-19)
(1.30749 -0.620473 3.00334e-19)
(1.29519 -0.75308 -4.94504e-19)
(1.24247 -0.853308 -6.02101e-19)
(0.798512 -0.697932 -5.82848e-21)
(1.05901 0.0528033 6.90198e-21)
(0.941482 0.0435854 1.2622e-21)
(1.13718 0.0697246 8.64288e-21)
(0.836495 -0.0148521 -2.6764e-19)
(1.20721 -0.250474 -2.15564e-20)
(1.06868 0.0556879 -2.31943e-21)
(0.935311 0.0375602 2.54809e-20)
(1.13274 0.0876778 5.22836e-21)
(0.909504 0.0244376 2.24268e-19)
(1.06535 -0.135333 5.47669e-21)
(1.06611 0.0527336 -5.51393e-20)
(0.937782 0.0288862 5.38852e-23)
(1.11594 0.0908317 -3.74544e-21)
(0.901288 0.0417993 1.13493e-19)
(1.01683 -0.0776372 -2.79372e-19)
(1.04749 0.0515854 6.53234e-20)
(0.961596 0.0209158 2.60357e-21)
(1.07786 0.096919 1.82809e-20)
(0.938894 0.0676428 -4.69537e-20)
(0.894693 0.0331779 5.73459e-20)
(1.02211 0.0493726 1.60651e-20)
(0.98772 0.0151651 -2.37509e-20)
(1.0482 0.104311 2.88578e-20)
(0.955546 0.0922198 4.48675e-20)
(0.856195 0.127345 -6.58625e-21)
(0.886376 0.0334837 0)
(0.720082 0.0270938 8.08754e-21)
(0.630516 0.0208197 6.95763e-21)
(0.381778 -0.0113385 5.71797e-20)
(0.763969 -0.0636501 -1.85261e-19)
(1.02796 0.0729931 -6.1945e-20)
(0.951448 0.0638627 8.24695e-22)
(1.05116 0.072279 -6.82506e-20)
(0.842586 -0.0131862 -1.58509e-19)
(1.12516 -0.228983 -1.93035e-19)
(1.07439 -0.0679451 -4.24055e-20)
(1.16673 -0.0378247 6.24412e-19)
(1.28158 0.0378948 3.7423e-19)
(1.14235 0.0650227 2.91002e-20)
(0.895014 0.0356522 0)
(1.43352 -0.340495 4.20335e-19)
(1.56425 -0.299635 1.80397e-18)
(1.76944 -0.173744 -1.97526e-18)
(1.86634 -0.0207191 -6.3435e-19)
(1.82566 0.0411343 4.70332e-19)
)
;

boundaryField
{
    left
    {
        type            fixedValue;
        value           uniform (1 0 0);
    }
    right
    {
        type            zeroGradient;
    }
    down
    {
        type            noSlip;
    }
    up
    {
        type            noSlip;
    }
    cylinder
    {
        type            noSlip;
    }
    defaultFaces
    {
        type            empty;
    }
}


// ************************************************************************* //
