/*--------------------------------*- C++ -*----------------------------------*\
  =========                 |
  \\      /  F ield         | OpenFOAM: The Open Source CFD Toolbox
   \\    /   O peration     | Website:  https://openfoam.org
    \\  /    A nd           | Version:  13
     \\/     M anipulation  |
\*---------------------------------------------------------------------------*/
FoamFile
{
    format      ascii;
    class       surfaceScalarField;
    location    "6.9";
    object      phi;
}
// * * * * * * * * * * * * * * * * * * * * * * * * * * * * * * * * * * * * * //

dimensions      [0 3 -1 0 0 0 0];

internalField   nonuniform List<scalar> 
823
(
0.00544468
0.0125703
-0.0180149
0.0282894
0.00643874
-0.0292834
0.0857771
-0.0314859
-0.0260018
0.179983
-0.0932494
-0.000957006
-0.108237
-0.0170485
0.305269
0.00565617
0.00691411
0.0504277
-0.0383328
0.140495
-0.121553
0.2469
-0.199655
-0.267116
0.405779
0.0212244
-0.0143103
0.105205
-0.122314
0.219608
-0.235956
0.334216
-0.314263
-0.365242
0.432343
0.043401
-0.0577113
0.143116
-0.222028
0.234165
-0.327005
0.294158
-0.374257
-0.387375
0.316291
0.0591888
-0.1169
0.135737
-0.298577
0.180738
-0.372006
0.197751
-0.39127
0.208352
-0.397977
-0.0145218
-0.021734
0.0362558
-0.0421218
-0.0426077
0.0702077
-0.0733641
-0.0474067
0.078649
-0.102954
-0.048026
0.0776163
-0.0495428
-0.128108
0.0746967
-0.0195972
-0.00213673
-0.0525047
-0.00970024
-0.0877141
-0.0121973
-0.121581
-0.014159
-0.01928
-0.151844
-0.0187584
0.0166217
-0.0501056
0.021647
-0.0842714
0.0219684
-0.118077
0.0196465
0.0125999
-0.149957
-0.00610484
0.0227265
-0.0208572
0.0363994
-0.0394225
0.0405337
-0.0568772
0.0371012
0.0341051
-0.0783825
0.00471157
0.0118275
0.0263594
0.0625036
0.0795602
0.0574145
-0.695862
0.510339
0.276959
0.0853661
-0.30491
0.138368
1.49514
-1.35655
0.292162
0.281667
-0.435461
-0.777417
0.621428
-0.00949436
-0.838211
0.146202
-0.0703303
0.166886
1.47446
0.44843
0.00012234
-0.890851
-0.111728
-0.87644
-0.0516384
-0.13042
0.179457
1.24336
0.579278
-0.399699
-0.972715
-0.108932
-0.84589
-0.112324
-0.127028
0.261836
0.869202
0.677322
-0.815185
-1.03563
0.0649122
-0.831242
0.0219704
-0.0840866
0.422663
0.468509
0.739919
-1.13244
-1.08807
0.949239
-0.651706
-1.12878
0.75465
0.110502
1.17932
0.0438388
1.3545
-1.30762
-0.984358
1.18715
-0.445753
-1.39311
1.19577
0.10188
1.50693
-0.267316
1.37616
-1.17685
-0.757673
1.18872
-0.264517
-1.36996
1.29052
7.80438e-05
1.45556
-0.432348
1.1132
-0.834493
-0.455568
1.17013
-0.131823
-1.30283
1.2563
-0.086089
1.1828
-0.358851
0.729825
-0.381514
-0.142699
0.787982
-0.919805
0.701893
0.343043
-0.0384713
1.10772
0.171494
-1.07086
1.1897
0.234306
1.28616
0.335886
1.2721
0.419833
0.448597
1.02974
0.108194
-0.966443
1.10214
0.161908
1.19904
0.238985
1.3069
0.311972
0.362395
0.96342
0.0584184
-0.913644
1.02113
0.104198
1.11384
0.146273
1.23595
0.189863
0.228388
0.896978
0.0192885
-0.857848
0.959941
0.0412354
1.0496
0.0566113
1.16563
0.0738341
0.0911906
0.656933
-0.637645
0.698169
0.75478
0.828614
0.140849
0.301252
-0.246277
-0.195825
0.0936328
0.30663
-0.259414
0.0520163
0.317088
-0.275471
0.0176332
0.308797
-0.274414
0.199986
-0.182352
0.100107
0.338363
-0.137218
0.0639784
0.342759
0.0318377
0.349229
0.00651316
0.334122
0.206499
0.0653185
0.373375
-0.10033
0.0327413
0.375336
0.00561159
0.376358
-0.00764334
0.347377
0.198855
-0.0194355
0.388845
0.00396497
-0.0344584
0.390359
-0.0406899
0.38259
-0.0303344
0.337021
0.168521
-0.0997387
0.0906077
-0.100649
-0.0900652
-0.0516209
0.198825
0.101417
-0.251834
-0.0484083
0.144969
0.105636
-0.0517799
0.089965
0.110207
-0.0552028
0.0365352
0.110098
-0.0566687
0.0783271
-0.0417919
0.196387
0.145649
-0.240619
0.149534
0.152489
0.0971954
0.162546
0.0413406
0.165953
0.119668
0.14226
0.190345
-0.186956
0.100601
0.194148
0.0604598
0.202687
0.0224296
0.203983
0.142097
0.157174
0.223322
-0.190151
0.117246
0.234076
0.0721823
0.24775
0.0281905
0.247975
0.170288
0.0915621
-0.114517
0.0662243
0.0385033
0.0120645
0.40471
0.0764893
-0.0852197
0.423764
0.00795544
-0.0270099
0.410989
0.184957
-0.172182
0.391743
0.199133
-0.179887
0.444925
-0.305016
0.402465
0.0700043
0.418988
-0.00856841
0.401163
0.202783
0.37923
0.221066
0.583536
0.397262
0.0687216
0.414128
-0.0254338
0.379967
0.236943
0.364467
0.236566
0.761046
0.395229
0.0694717
0.401176
-0.0313807
0.365739
0.272381
0.339418
0.262887
0.910314
0.389579
0.0758725
0.389894
-0.0316963
0.335912
0.326363
0.317358
0.281441
1.11316
0.630984
0.0489084
0.654754
-0.0554659
0.682272
0.298845
0.756084
0.207629
0.870094
0.999145
0.649059
0.00386967
0.648961
-0.0553678
0.703309
0.244497
0.766687
0.144251
0.608388
1.02839
0.652472
-0.0445817
0.640513
-0.0434089
0.704517
0.180493
0.797407
0.0513603
0.372334
1.03346
0.628706
-0.0692677
0.621233
-0.0359357
0.73285
0.0688766
0.797447
-0.0132364
0.17557
0.994211
0.534753
0.498817
0.567694
0.554457
0.730027
1.03075
-0.227426
1.02343
-0.129901
1.02878
-0.105684
1.02687
0.00587951
0.04662
0.975759
-0.174792
0.959638
-0.113781
0.933941
-0.0799866
0.948643
-0.00882209
0.02882
0.96253
-0.103861
0.931362
-0.0826127
0.89761
-0.0462341
0.906509
-0.0177216
0.0216852
0.926825
-0.036475
0.877814
-0.0336021
0.849488
-0.0179081
0.843695
-0.0119288
0.00753211
0.693552
0.65995
0.642042
0.630113
0.0546372
0.154021
-0.208658
0.0811228
0.342768
-0.369254
0.0816515
0.399693
-0.400221
0.0707186
0.40361
-0.392677
0.371656
0.0580059
-0.358943
0.080323
0.0736983
0.160135
0.262956
0.197436
0.362392
0.20191
0.399136
0.395194
0.178373
0.0649916
0.00870661
0.192688
0.13526
0.296629
0.25845
0.369895
0.32587
0.386744
0.378345
0.0288201
-0.0201135
0.137916
0.0261644
0.273926
0.12244
0.407392
0.192404
0.269485
0.524651
0.00313333
-0.0232468
0.0527136
-0.0234159
0.16092
0.0142329
0.296019
0.0573052
0.108099
0.457405
-0.00929066
-0.0139562
-0.00248542
-0.0302211
0.0443523
-0.0326048
0.125796
-0.0241384
0.00304305
0.230852
-0.00164743
-0.0123088
0.00651138
-0.03838
0.029807
-0.0559004
0.0680625
-0.0623939
-0.0591679
0.130273
0.011611
-0.0239197
0.0357443
-0.0625133
0.0634102
-0.0835662
0.0907993
-0.0897831
-0.0879714
0.119603
0.0129523
-0.0368721
0.0302331
-0.079794
0.0425033
-0.0958364
0.0498492
-0.0971291
-0.0919006
0.0537784
-0.000616275
-0.0102026
-0.0273901
-0.0469028
-0.0641067
0.479755
0.512087
-0.760991
0.462812
0.561658
-0.544714
0.292558
0.377605
-0.207352
0.134226
0.24402
-0.0856879
-0.0893736
0.0767834
0.493854
0.148507
0.461355
0.594157
0.230266
0.608694
0.0789954
0.395291
-0.144293
0.397625
-0.129515
0.407424
0.584358
0.141007
0.875111
0.0469735
0.489325
-0.267361
0.247514
-0.323251
0.343002
0.48887
0.0816845
1.13643
0.067442
0.503567
-0.439984
0.122981
0.306941
0.0868199
0.154927
0.112563
0.575202
-0.687765
-0.118936
0.231499
-0.0793918
-0.0395445
0.00658863
-0.0859805
-0.0697405
0.970306
-1.15609
0.657091
0.410195
0.238527
0.0940044
-0.0161557
-0.0778487
0.152131
-0.0581264
0.275639
-0.123508
0.459963
-0.184324
-0.227802
0.211082
-0.169232
0.331328
0.586166
0.926492
0.145232
-0.144194
0.174978
-0.176015
0.11141
-0.149918
0.183741
0.0723068
-0.157384
0.196487
0.0296445
-0.157261
0.199923
-0.110037
0.139682
0.184948
-0.103959
-0.225184
0.139679
-0.104649
0.0886861
-0.106392
0.0365939
-0.105168
-0.0734433
0.187026
-0.0537741
-0.237211
0.13587
-0.0534927
0.0841832
-0.0547056
0.0341976
-0.0551828
-0.0392458
0.201698
-0.00230788
-0.253164
0.149644
-0.00143844
0.0957647
-0.000826527
0.0405617
2.0246e-05
0.00131596
0.206372
-0.257088
0.153154
0.0971244
0.040476
0.0408471
-0.335764
-0.0640261
0.0150093
-0.366839
-0.0085045
-0.376708
-0.0179215
-0.359837
-0.22658
0.129447
-0.30282
-0.162391
0.0836838
-0.321076
0.0399523
-0.332976
0.00754547
-0.32743
-0.219034
0.14731
-0.260631
-0.189499
0.104093
-0.27786
0.0612962
-0.290179
0.0218586
-0.287992
-0.197176
0.170328
-0.224158
-0.206801
0.125026
-0.232558
0.0764371
-0.24159
0.0303974
-0.241952
-0.166778
0.163046
-0.212226
0.114229
0.0691263
0.0270967
0.385644
0.106809
-0.0964731
0.391623
0.0762371
-0.0822159
0.358384
0.157313
-0.124074
0.307022
0.0499088
0.00145332
-0.232225
0.363231
0.393089
0.109699
0.403262
0.0660647
0.39626
0.164314
0.350967
0.0952019
-0.106442
0.399609
0.10607
0.411765
0.0539091
0.409137
0.166942
0.374152
0.130187
0.0305002
0.405502
0.0965475
0.417792
0.0416186
0.417111
0.167623
0.390707
0.156591
0.168043
0.407307
0.421916
0.417357
0.394061
0.416828
0.0932234
0.336895
0.0799327
0.248805
0.0880895
0.256792
-0.00798681
-0.196248
0.45304
0.506801
0.504518
0.468534
0.462
0.628983
0.362906
0.0901337
0.28302
0.0798867
0.189607
0.0934124
0.110145
0.0794628
0.0322958
0.506891
0.379977
0.28389
0.200962
)
;

boundaryField
{
    left
    {
        type            calculated;
        value           nonuniform List<scalar> 
17
(
-0.60402
-0.60402
-0.60402
-0.60402
-0.60402
-0.39598
-0.39598
-0.39598
-0.39598
-0.39598
-0.39598
-0.39598
-0.39598
-0.39598
-0.39598
-0.510051
-0.510051
)
;
    }
    right
    {
        type            calculated;
        value           nonuniform List<scalar> 
17
(
0.0763292
0.24557
0.146816
0.133915
0.170041
0.240065
0.33637
0.448151
0.561864
0.661141
0.740238
0.792357
1.25079
1.14947
0.811094
0.416955
-0.18117
)
;
    }
    down
    {
        type            calculated;
        value           uniform 0;
    }
    up
    {
        type            calculated;
        value           uniform 0;
    }
    cylinder
    {
        type            calculated;
        value           uniform 0;
    }
    defaultFaces
    {
        type            empty;
    }
}


// ************************************************************************* //
