/*--------------------------------*- C++ -*----------------------------------*\
  =========                 |
  \\      /  F ield         | OpenFOAM: The Open Source CFD Toolbox
   \\    /   O peration     | Website:  https://openfoam.org
    \\  /    A nd           | Version:  13
     \\/     M anipulation  |
\*---------------------------------------------------------------------------*/
FoamFile
{
    format      ascii;
    class       volScalarField;
    location    "0.225";
    object      strainRateViscosityModel:nu;
}
// * * * * * * * * * * * * * * * * * * * * * * * * * * * * * * * * * * * * * //

dimensions      [0 2 -1 0 0 0 0];

internalField   nonuniform List<scalar> 
1800
(
9.40502
9.19768
9.01005
8.80081
8.57585
8.34367
8.11483
7.89738
7.62334
7.37815
9.58529
9.41883
9.2669
9.09727
8.91103
8.71119
8.50322
8.28821
8.02676
7.70137
9.70222
9.56272
9.42804
9.27094
9.08861
8.87886
8.6407
8.36874
8.03023
7.61014
9.77541
9.65616
9.53325
9.38287
9.20046
8.98165
8.72269
8.4158
8.02858
7.55431
9.82169
9.71832
9.6056
9.46167
9.2807
9.05693
8.78544
8.45881
8.04766
7.55604
9.85186
9.76083
9.65732
9.5206
9.34356
9.11896
8.84033
8.50014
8.07149
7.57017
9.8718
9.78992
9.694
9.56398
9.39149
9.1677
8.88422
8.53253
8.08737
7.57569
9.88476
9.80926
9.7189
9.59397
9.42497
9.20148
8.91312
8.55008
8.08857
7.5636
9.89261
9.82108
9.73418
9.61223
9.44469
9.21966
8.92487
8.54927
8.07126
7.52878
9.89647
9.82687
9.74155
9.62072
9.45312
9.22576
8.92516
8.53958
8.05043
7.49293
1.77939
1.39537
1.18436
1.29132
1.71688
2.25112
2.48613
2.42507
2.33533
2.31548
3.74254
1.75416
1.46746
1.97899
2.71343
2.97595
2.79964
2.65443
2.67984
2.73814
4.71623
2.5443
2.42678
3.196
3.61312
3.34102
3.07457
3.12178
3.26677
3.34727
5.27454
3.86953
3.81569
4.2254
4.18677
3.83152
3.73032
3.86854
3.96834
4.01471
6.05934
5.27198
5.11857
5.12608
4.91987
4.66049
4.58825
4.62131
4.61866
4.65712
6.96302
6.46005
6.22749
6.04035
5.79133
5.5496
5.39383
5.29715
5.22518
5.27758
7.77403
7.37857
7.11727
6.86094
6.58826
6.3216
6.08834
5.90198
5.77125
5.8249
8.40149
8.05597
7.79223
7.51573
7.22624
6.93077
6.64163
6.38578
6.19185
6.22909
8.85004
8.54574
8.29103
8.01003
7.70509
7.37855
7.03445
6.69985
6.41453
6.42088
9.16196
8.90171
8.66629
8.3964
8.09516
7.76491
7.40533
7.03435
6.70724
6.7514
2.17956
1.71767
1.31415
0.891254
0.511753
0.169753
0.0330859
0.013072
0.0107732
0.010044
2.52729
1.85205
1.40927
0.912686
0.50986
0.1627
0.0310015
0.0129096
0.0107448
0.0100437
2.95531
1.99239
1.4991
0.937949
0.508374
0.161422
0.0313034
0.013023
0.0107964
0.0100554
3.44891
2.16748
1.58213
0.965129
0.506829
0.16332
0.0323724
0.0131877
0.0108615
0.0100703
3.9897
2.40564
1.66508
0.992144
0.504212
0.165986
0.0338332
0.0133926
0.0109384
0.0100877
4.53322
2.71458
1.76233
1.02016
0.500106
0.167411
0.0354728
0.0136403
0.0110236
0.0101065
4.99978
3.07205
1.88319
1.04964
0.49298
0.165186
0.0368098
0.0139262
0.0111128
0.0101257
5.31431
3.45381
2.04978
1.09715
0.489248
0.159835
0.0376234
0.0142491
0.011203
0.0101439
5.34433
3.73665
2.19877
1.13195
0.476975
0.146713
0.0363411
0.0144147
0.0112543
0.0101562
5.20221
4.00392
2.43781
1.24157
0.499198
0.144191
0.0378693
0.0150882
0.0111865
0.0100727
4.94798
3.96218
2.50168
1.26237
0.469169
0.111529
0.0256439
0.0105185
0.0101145
0.0125412
5.34269
3.38372
2.18682
1.03886
0.322497
0.0327187
0.0151398
0.0516529
0.0991654
0.147517
4.91687
3.05188
2.21684
1.12026
0.427947
0.132102
0.193274
0.30366
0.361466
0.396948
4.54005
3.59928
2.61597
1.5446
0.759921
0.384932
0.371511
0.44358
0.497583
0.537636
5.1028
4.72707
3.30155
2.104
1.14215
0.632773
0.548076
0.603745
0.654249
0.690765
6.25208
5.66401
4.04339
2.64757
1.54569
0.929971
0.752244
0.754096
0.785511
0.812556
7.26343
6.37449
4.71266
3.14746
1.93561
1.22953
0.961428
0.902188
0.906802
0.91926
8.00078
6.9135
5.26195
3.5909
2.30228
1.52879
1.17621
1.04741
1.01651
1.00881
8.51892
7.33127
5.69885
3.97506
2.63765
1.80873
1.3774
1.17856
1.1089
1.07968
8.93082
7.69056
6.04968
4.29049
2.95876
2.10673
1.60179
1.32458
1.20708
1.14753
6.51297
6.43971
6.43049
6.44882
6.48748
6.53012
6.58215
6.71054
6.89503
6.82567
0.261094
1.05803
2.00908
2.92477
3.70641
4.3198
4.73736
4.98781
5.22811
5.73434
3.85007
3.54313
3.28344
3.10972
3.1049
3.2494
3.47318
3.71637
4.17016
4.85298
6.64492
6.62783
6.53748
6.34452
6.04213
5.65521
5.24515
4.89011
4.73287
4.54388
7.69225
7.67694
7.63254
7.54172
7.39651
7.19002
6.92668
6.61806
6.28296
5.65077
8.44975
8.43335
8.39459
8.32799
8.2299
8.09711
7.92881
7.71724
7.42811
6.90744
8.93979
8.92405
8.8904
8.83692
8.76182
8.6631
8.53842
8.37929
8.15515
7.80925
9.27303
9.25985
9.23251
9.1899
9.13058
9.05252
8.95279
8.82496
8.65303
8.43125
9.50447
9.49418
9.47308
9.44025
9.39427
9.3332
9.25425
9.15289
9.02292
8.87541
9.68989
9.68284
9.66852
9.64603
9.61404
9.57069
9.51359
9.43972
9.34632
9.24402
7.25128
7.5281
7.83727
8.08717
8.34397
8.5988
8.84076
9.06123
9.25451
9.46043
7.58476
7.94869
8.24074
8.48054
8.7087
8.92427
9.12194
9.29884
9.45391
9.61819
7.49955
7.95762
8.32562
8.61999
8.87525
9.09736
9.28783
9.44943
9.58538
9.72234
7.44762
7.95774
8.37348
8.70162
8.97624
9.20572
9.39458
9.54802
9.67133
9.78829
7.45682
7.98073
8.41841
8.76465
9.05033
9.28342
9.46971
9.6159
9.72871
9.83026
7.4827
8.0117
8.46389
8.82132
9.11222
9.34467
9.52603
9.66447
9.76798
9.85767
7.5038
8.03786
8.5027
8.86855
9.16192
9.39187
9.56763
9.69891
9.79481
9.87572
7.51125
8.05247
8.52869
8.90206
9.19745
9.42521
9.59641
9.72214
9.81245
9.8873
7.49846
8.05049
8.53743
8.91899
9.2177
9.44505
9.61373
9.73608
9.82291
9.89406
7.48297
8.04364
8.53596
8.92347
9.22528
9.45333
9.62126
9.74219
9.82747
9.89695
2.50225
2.46261
2.48304
2.68361
2.84076
2.45481
1.62913
1.14464
1.47885
4.05165
2.93245
2.84566
2.69271
2.69567
3.07437
3.37444
2.75205
1.84532
2.05648
5.06851
3.45107
3.40518
3.24861
3.06731
3.26661
3.81459
3.77263
3.10297
3.21233
5.41307
3.96755
3.95413
3.92435
3.81314
3.9017
4.3214
4.57866
4.43219
4.60692
5.87459
4.52892
4.50019
4.57065
4.63588
4.79246
5.11846
5.43343
5.60029
5.86793
6.60641
5.12892
5.08547
5.2198
5.41107
5.66499
5.98284
6.30576
6.58649
6.88804
7.39469
5.67403
5.63641
5.83205
6.09874
6.41105
6.74085
7.06616
7.37378
7.67351
8.0822
6.08049
6.06398
6.32243
6.64552
6.99524
7.33843
7.66516
7.97182
8.25685
8.60989
6.26981
6.2864
6.63435
7.02648
7.41908
7.78273
8.11502
8.4153
8.68196
8.98783
6.60679
6.57472
6.95773
7.37929
7.78023
8.1418
8.4654
8.74968
8.99268
9.252
0.0886333
0.116894
0.046412
0.0193525
0.0125641
0.232442
0.793708
1.3781
1.87575
2.37362
0.057796
0.114159
0.0476588
0.0217131
0.0165911
0.240793
0.82451
1.47063
1.98636
2.67016
0.0389023
0.117228
0.0513719
0.0274882
0.0267798
0.265987
0.867797
1.55693
2.09194
3.01268
0.0284008
0.124676
0.0572119
0.0367697
0.0445993
0.30341
0.917069
1.63114
2.22443
3.42088
0.0233054
0.1356
0.0648316
0.0491412
0.0690269
0.346962
0.965547
1.6986
2.41878
3.89858
0.021751
0.149372
0.0737848
0.0636116
0.097299
0.391159
1.01164
1.77746
2.68959
4.3944
0.0230956
0.165577
0.0835061
0.0784343
0.124787
0.429691
1.05502
1.88297
3.01899
4.82104
0.0279764
0.184014
0.093623
0.0924129
0.150479
0.467084
1.11655
2.04386
3.38183
5.102
0.0403742
0.204681
0.103831
0.1019
0.163365
0.483541
1.16053
2.19198
3.65626
5.10299
0.0670359
0.2268
0.115472
0.112036
0.189136
0.540807
1.29765
2.44855
3.90631
4.91014
0.123383
0.257147
0.136081
0.117207
0.181039
0.525773
1.3416
2.55687
3.91426
4.69328
0.227872
0.296409
0.139794
0.106801
0.120321
0.373307
1.15652
2.34323
3.46569
5.21652
0.392918
0.306952
0.135946
0.0394119
0.0191961
0.226271
1.05433
2.31119
3.24817
4.95273
0.646618
0.30311
0.0336213
0.0756607
0.134741
0.394307
1.29503
2.53141
3.65764
4.68022
1.02096
0.0938926
0.219221
0.363361
0.426944
0.81647
1.85063
3.14004
4.66667
5.15232
1.50545
0.0696362
0.55138
0.562375
0.720719
1.27148
2.43288
3.88751
5.5834
6.21554
2.17603
0.683397
0.873492
0.857542
1.08225
1.74311
2.98143
4.58487
6.29993
7.21645
3.78355
1.67769
1.30517
1.19746
1.45971
2.18736
3.47162
5.16655
6.8555
7.96983
6.85793
3.56875
1.99454
1.56606
1.81767
2.58529
3.89887
5.63718
7.29678
8.50763
9.04883
6.38495
2.88742
2.12217
2.24292
2.98116
4.26628
6.02855
7.68723
8.9378
6.6321
6.69386
6.5159
6.39307
6.35157
6.32437
6.3066
6.31786
6.36218
6.47642
5.54814
5.02879
4.78222
4.53844
4.13779
3.54947
2.80526
1.9366
1.04736
0.285198
4.86303
4.24295
3.82907
3.61443
3.42449
3.30322
3.30808
3.4519
3.65176
3.8726
4.69761
4.86922
5.01339
5.32645
5.69494
6.04892
6.33299
6.52178
6.6174
6.64246
5.67408
6.27781
6.60791
6.90956
7.17211
7.38191
7.53246
7.62879
7.67726
7.69287
6.86341
7.38801
7.68472
7.90297
8.07729
8.21545
8.31831
8.38897
8.43088
8.44916
7.76582
8.12118
8.35259
8.51842
8.64836
8.75129
8.82979
8.88601
8.92179
8.93912
8.40512
8.63305
8.80913
8.94111
9.04414
9.12475
9.18603
9.23012
9.25859
9.27264
8.86624
9.01621
9.1476
9.25058
9.3308
9.39281
9.43942
9.47266
9.494
9.50442
9.24843
9.35023
9.44284
9.51617
9.57284
9.61581
9.64743
9.66953
9.68346
9.6901
9.50914
8.98479
8.23515
6.92744
5.59736
0.131174
3.36015
5.95959
7.21319
8.15108
9.46506
8.92097
8.16737
6.88974
5.54876
0.56369
2.62161
5.70524
6.91551
7.91311
9.36526
8.78217
8.01946
6.80872
5.36566
1.60325
1.41309
5.2059
6.3084
7.40237
9.18202
8.54436
7.77358
6.65415
5.18564
2.73965
0.722766
4.23766
5.42063
6.57045
8.86739
8.17266
7.40297
6.37587
5.0256
3.36743
0.970716
2.63085
4.31601
5.39269
8.34953
7.62858
6.87219
5.91601
4.76399
3.43922
1.71917
1.30145
3.04812
3.9869
7.53473
6.89522
6.1541
5.22592
4.29799
3.26843
2.14306
1.1731
1.65492
2.55576
6.32394
6.03595
5.27974
4.22996
3.5309
2.91057
2.11843
1.4367
1.06894
1.2331
4.63101
5.23023
4.47252
2.99808
2.43471
2.27181
1.85579
1.38691
1.12471
0.659049
2.6743
4.53716
4.0185
1.96529
1.39572
1.48738
1.4108
1.21466
1.06661
0.847727
1.27983
3.78753
3.6627
1.33572
0.816397
0.899878
0.975295
0.960968
0.975298
1.02243
0.616458
2.96975
3.07974
0.957349
0.578376
0.646575
0.768123
0.82846
0.851126
0.883087
0.35758
2.18505
2.2814
0.694116
0.501216
0.606245
0.737787
0.821695
0.858297
0.882161
0.26676
1.53592
1.47741
0.531876
0.547891
0.686118
0.798531
0.869104
0.891904
0.901657
0.240601
0.993798
0.828953
0.523879
0.678872
0.81063
0.910626
0.973672
0.988943
0.985714
0.242488
0.47127
0.488451
0.633463
0.815317
0.953105
1.05038
1.10721
1.11719
1.1092
0.171701
0.196828
0.495962
0.741915
0.96113
1.10706
1.19563
1.24212
1.25951
1.26084
0.0435782
0.245448
0.63236
0.903423
1.11385
1.2277
1.30319
1.37547
1.43391
1.45587
0.0593517
0.48295
0.8074
1.07356
1.19859
1.30581
1.46158
1.62431
1.71015
1.72338
0.675461
0.859054
1.02565
1.15233
1.28932
1.57338
1.89407
2.05946
2.05456
2.01983
0.363202
0.0775955
0.22357
0.549903
0.781763
0.859324
0.86076
0.860032
0.867591
0.886962
0.465894
0.211648
0.314515
0.51321
0.703795
0.769282
0.76925
0.77167
0.782993
0.803921
0.532398
0.377567
0.434139
0.497975
0.624875
0.678104
0.676292
0.68016
0.69416
0.715279
0.645627
0.587265
0.587208
0.533518
0.548447
0.578548
0.57701
0.583679
0.60059
0.621119
0.807517
0.792322
0.727149
0.610444
0.491913
0.477344
0.474432
0.483799
0.502768
0.522036
1.00136
0.97723
0.850301
0.701284
0.469693
0.380221
0.368923
0.379469
0.399901
0.417409
1.20834
1.139
0.954053
0.776693
0.479258
0.297671
0.26504
0.274172
0.293149
0.30766
1.42433
1.28775
1.04496
0.826318
0.499206
0.240979
0.165096
0.165528
0.184983
0.198359
1.65375
1.4329
1.13106
0.854935
0.511167
0.207924
0.0846459
0.0540066
0.0548982
0.0529392
1.90014
1.57739
1.22003
0.87348
0.513417
0.184722
0.0448408
0.0169946
0.0132696
0.0111639
2.00916
0.74821
0.728796
0.976199
1.20231
1.28886
1.29173
1.27346
1.2535
1.24668
1.39426
0.484659
0.591305
0.885097
1.11158
1.19629
1.20105
1.18843
1.17613
1.17616
0.751062
0.289542
0.493328
0.806989
1.03472
1.11807
1.12341
1.11474
1.1081
1.11344
0.252111
0.177106
0.416239
0.733033
0.95617
1.03455
1.03825
1.03273
1.03149
1.04217
0.432801
0.0332798
0.275374
0.617439
0.856803
0.942258
0.948088
0.946238
0.950286
0.966301
9.35424
9.28961
9.14047
8.87242
8.43666
7.77773
6.86994
5.75789
4.58087
3.53647
9.192
9.09513
8.88048
8.51086
7.9405
7.1352
6.10816
4.95359
3.84348
2.78599
9.02334
8.89967
8.62591
8.16016
7.46067
6.51485
5.36993
4.16713
3.07993
1.94155
8.81571
8.66153
8.32071
7.74697
6.90504
5.81298
4.55355
3.29326
2.22417
1.08809
8.58681
8.37864
7.92496
7.17643
6.11137
4.79083
3.34907
2.08317
0.990921
0.30066
1.06392
1.02912
1.02307
1.02753
0.921532
0.803887
1.2963
3.67381
3.85148
1.32834
0.955411
0.940982
0.935212
0.880448
0.727984
0.596408
0.918698
3.12887
3.09508
0.651614
0.993063
0.989895
0.973898
0.901342
0.757303
0.597083
0.712136
2.35182
2.3187
0.380116
1.05734
1.06858
1.06425
1.0049
0.896375
0.752783
0.671168
1.52754
1.5913
0.278933
1.18054
1.2032
1.20805
1.16093
1.0729
0.951452
0.789843
0.880626
0.876752
0.24772
1.33083
1.34949
1.35653
1.32952
1.25834
1.12551
0.906125
0.645831
0.342193
0.212901
1.51538
1.51123
1.47975
1.43584
1.3795
1.26684
1.03027
0.718342
0.264361
0.0644891
1.76054
1.75303
1.67289
1.5269
1.3918
1.2915
1.14884
0.849037
0.468101
0.0458935
2.02706
2.06985
2.06202
1.87217
1.54682
1.27535
1.14187
1.00278
0.802772
0.642076
2.24032
2.28604
2.40124
2.43652
2.132
1.55776
1.13913
1.03345
1.25
1.90789
8.15088
7.21284
5.95924
3.35965
0.131431
5.59589
6.92694
8.23496
8.9848
9.50924
7.91243
6.9144
5.70424
2.62099
0.563574
5.5449
6.88828
8.16678
8.92102
9.46537
7.40091
6.30652
5.20411
1.41493
1.5996
5.36114
6.80644
8.01857
8.78229
9.36585
6.5678
5.41774
4.2354
0.725912
2.7315
5.18088
6.65127
7.77258
8.54469
9.18305
5.38827
4.31146
2.63139
0.971053
3.35628
5.01961
6.37236
7.40198
8.17338
8.86918
3.97836
3.03985
1.30912
1.71406
3.42617
4.7551
5.91113
6.87117
7.62997
8.35259
2.53868
1.65086
1.18816
2.13406
3.25013
4.2815
5.21725
6.15287
6.8978
7.54034
1.21364
1.08755
1.4544
2.10858
2.87932
3.50151
4.21611
5.27962
6.04101
6.33552
0.670859
1.15545
1.41032
1.8441
2.23168
2.40026
2.98347
4.47541
5.23954
4.6572
0.888027
1.10555
1.2517
1.41684
1.46667
1.37128
1.94398
4.01959
4.55932
2.72133
2.07994
0.534792
1.04154
0.703843
0.736889
0.768998
0.626374
0.296603
0.0661946
0.358482
1.6167
0.244932
0.839588
0.549537
0.638091
0.683982
0.577723
0.35102
0.274225
0.493199
1.32371
0.0404436
0.607957
0.407816
0.539722
0.593868
0.537577
0.454869
0.476432
0.597283
1.07308
0.0232033
0.35294
0.2851
0.440534
0.498718
0.532783
0.617995
0.724388
0.761293
0.817224
0.10732
0.157152
0.201727
0.342133
0.411081
0.576504
0.783424
0.949331
0.969772
0.603601
0.169091
0.0261853
0.0803046
0.24822
0.345924
0.651929
0.929868
1.14752
1.19961
0.431402
0.187052
0.0538031
0.0109204
0.148676
0.314677
0.719984
1.04469
1.31677
1.43406
0.300313
0.172079
0.0549659
0.0247881
0.0501241
0.298827
0.758132
1.13372
1.46837
1.66778
0.203899
0.147365
0.0521748
0.0238113
0.0176974
0.269585
0.77125
1.21038
1.61155
1.89611
0.135552
0.127547
0.0477076
0.020315
0.0123514
0.243291
0.777834
1.28971
1.74908
2.12216
9.33643
6.76902
2.68204
1.76594
1.27675
1.1723
1.00719
0.806763
0.80342
2.03483
8.21068
4.63373
2.22556
1.48667
1.14962
1.08204
0.924913
0.672207
0.532967
1.3992
6.11888
3.06028
1.7922
1.28222
1.04672
1.01081
0.857384
0.577759
0.332135
0.740518
4.129
1.8699
1.49588
1.07698
0.941622
0.935693
0.791652
0.499417
0.232537
0.22196
2.82761
1.0583
1.23733
0.878128
0.834411
0.846265
0.690259
0.360118
0.044589
0.396037
3.54745
4.58814
5.76179
6.87208
7.77925
8.43778
8.87319
9.14094
9.28988
9.35433
2.78028
3.83996
4.95096
6.10646
7.13462
7.94051
8.51108
8.8807
9.09529
9.19207
1.92746
3.07073
4.16086
5.36531
6.51236
7.45954
8.15974
8.62582
8.8997
9.02337
1.05166
2.20056
3.27979
4.54536
5.80883
6.90285
7.74585
8.32024
8.66138
8.81568
0.298527
0.958168
2.06117
3.33555
4.78381
6.10779
7.17445
7.92401
8.37827
8.58672
)
;

boundaryField
{
    left
    {
        type            calculated;
        value           nonuniform List<scalar> 
35
(
0.284853
0.560261
0.992442
1.63377
2.53121
3.6938
5.06052
6.47525
8.15836
9.44176
0.199611
0.132138
0.093643
0.0734999
0.06391
0.0606498
0.0624346
0.0712264
0.0962372
0.152588
4.93152
4.0542
3.2241
2.50476
1.90634
1.40717
1.00566
0.697372
0.469266
0.307832
9.61569
8.97919
7.9225
6.84841
5.85932
)
;
    }
    right
    {
        type            calculated;
        value           nonuniform List<scalar> 
35
(
1.24664
1.17649
1.1142
1.04342
0.968005
0.888775
0.805532
0.716247
0.621116
0.520915
0.415189
0.304567
0.194894
0.0508132
0.0108931
0.0100163
0.0100142
0.0100162
0.0100194
0.0100236
0.0100286
0.0100343
0.0100403
0.010045
0.0100129
0.0137237
0.159577
0.414427
0.553937
0.704981
0.823576
0.926804
1.01303
1.08129
1.1463
)
;
    }
    down
    {
        type            calculated;
        value           nonuniform List<scalar> 
40
(
9.45418
7.26487
2.91081
1.85254
1.31539
1.20234
1.03558
0.849398
0.904409
2.26181
3.83245
4.88129
6.03244
7.09141
7.94344
8.55414
8.95381
9.19874
9.33522
9.39449
9.3944
9.33494
9.19823
8.95295
8.55282
7.94153
7.08855
6.02734
4.87207
3.81827
2.23224
0.847926
0.772189
1.00812
1.23458
1.31999
1.32093
1.30017
1.27738
1.26836
)
;
    }
    up
    {
        type            calculated;
        value           nonuniform List<scalar> 
40
(
9.03387
7.80789
6.16669
4.40107
3.06804
2.20465
1.67167
1.36608
1.23367
1.16631
9.72926
9.72304
9.71044
9.69063
9.66233
9.62376
9.5726
9.50582
9.42069
9.32804
9.33476
9.42631
9.51021
9.57609
9.62655
9.66454
9.69233
9.71165
9.72376
9.7295
9.27056
7.09722
3.27541
2.26338
2.35763
3.10494
4.39024
6.15744
7.8138
9.04452
)
;
    }
    cylinder
    {
        type            calculated;
        value           nonuniform List<scalar> 
80
(
1.96637
4.60151
5.57118
5.79436
6.3119
7.09497
7.86459
8.47632
8.91322
9.21325
9.44595
9.61878
9.72985
9.79831
9.84097
9.86847
9.88651
9.89818
9.90523
9.9087
9.50063
9.65077
9.74912
9.81052
9.84904
9.87392
9.89018
9.90056
9.90658
9.90914
5.15508
6.18141
6.19008
6.28788
6.81302
7.5159
8.17244
8.68518
9.05074
9.30276
0.999079
0.474634
0.265946
0.184359
0.161674
0.166106
0.0829833
0.0405712
0.718928
2.25819
9.59418
9.55558
9.46708
9.3014
9.00915
8.51054
7.68542
6.36669
4.39072
2.24482
9.59408
9.55526
9.46647
9.30031
9.00726
8.50724
7.67923
6.35311
4.35796
2.19349
0.955635
0.444605
0.245993
0.172006
0.151477
0.167054
0.158504
0.0830381
0.0420444
0.704394
)
;
    }
    defaultFaces
    {
        type            empty;
    }
}


// ************************************************************************* //
