/*--------------------------------*- C++ -*----------------------------------*\
  =========                 |
  \\      /  F ield         | OpenFOAM: The Open Source CFD Toolbox
   \\    /   O peration     | Website:  https://openfoam.org
    \\  /    A nd           | Version:  13
     \\/     M anipulation  |
\*---------------------------------------------------------------------------*/
FoamFile
{
    format      ascii;
    class       surfaceScalarField;
    location    "8.145";
    object      phi;
}
// * * * * * * * * * * * * * * * * * * * * * * * * * * * * * * * * * * * * * //

dimensions      [0 3 -1 0 0 0 0];

internalField   nonuniform List<scalar> 
823
(
0.00306927
0.0134735
-0.0165428
0.0302166
0.00186427
-0.0290116
0.0994539
-0.0468453
-0.022392
0.202515
-0.115749
0.012688
-0.152177
0.00971957
0.344972
0.00692797
0.00654553
0.0616825
-0.0528903
0.164405
-0.149568
0.281426
-0.23277
-0.305502
0.434752
0.0262869
-0.0197414
0.120441
-0.147044
0.237464
-0.266591
0.347067
-0.342373
-0.384229
0.425794
0.0496721
-0.0694136
0.149765
-0.247138
0.231469
-0.348295
0.277667
-0.388571
-0.398737
0.292174
0.0615009
-0.130914
0.130764
-0.316401
0.167393
-0.384924
0.180826
-0.402004
0.190496
-0.408407
-0.0237985
0.0663216
-0.0425231
-0.0637715
0.0913407
-0.0513677
-0.104573
0.088747
-0.0479461
-0.142364
0.0789792
-0.0411879
0.064187
-0.176948
-0.0296025
0.00126161
0.06506
-0.00967424
0.102277
-0.0256463
0.104719
-0.0419136
0.0952465
0.0787456
-0.0564722
0.0195573
0.0455028
0.0387466
0.0830872
0.0535661
0.0898996
0.0668603
0.0819522
0.0690392
0.0765667
0.0227274
0.0227754
0.0571975
0.0486171
0.0921764
0.0549207
0.129738
0.0443911
0.040296
0.158481
0.0062326
0.0258381
0.0583668
0.115446
0.165461
-0.175687
-0.412092
0.410831
0.151281
-1.37409
1.04712
0.237711
0.324351
-0.410781
0.157552
1.04434
-0.964181
0.0498832
-0.18107
-0.153049
-0.315515
0.0644787
-1.59161
0.208929
0.1799
0.177799
1.07547
-0.133756
0.111805
-0.350753
0.229308
-1.70912
0.267169
0.14204
0.26234
1.0803
-0.337994
0.384545
-0.576818
0.383248
-1.70782
0.271049
0.254239
0.366024
0.985324
-0.563791
0.429806
-0.841162
0.280113
-1.55813
0.189346
0.345006
0.537361
0.637309
-0.743809
1.30762
-0.911693
-1.23709
0.816777
-1.06728
0.602157
0.559627
1.19129
0.0481727
-0.807225
1.31981
-0.777417
-1.45409
0.81873
-0.566198
0.907897
0.47046
1.35154
-0.39547
-0.730049
1.19741
-0.578699
-1.39613
0.848418
-0.217201
1.1145
0.20438
1.27412
-0.555091
-0.513997
1.0245
-0.288416
-1.31478
0.86798
-0.0606829
1.10981
-0.0374492
0.921628
-0.36691
-0.207854
0.564669
-0.853085
0.503986
0.466537
0.0996272
1.1286
0.159704
-1.09781
1.21646
0.204316
1.31473
0.327517
1.36142
0.388061
0.469302
1.03465
0.101294
-0.976239
1.11268
0.126288
1.21328
0.226914
1.32949
0.271847
0.34471
0.990069
0.0481967
-0.936972
1.04356
0.0727948
1.13935
0.131126
1.25382
0.157373
0.202402
0.942977
0.00999463
-0.904775
0.992773
0.0229987
1.07921
0.0446854
1.18295
0.053639
0.0705681
0.661194
-0.651199
0.684193
0.728878
0.782517
0.141188
0.307195
-0.25069
-0.197692
0.0940686
0.311859
-0.26474
0.0527732
0.322457
-0.281162
0.0183189
0.313762
-0.279308
0.20274
-0.184421
0.102317
0.343522
-0.138645
0.0661829
0.347993
0.0341463
0.354494
0.00856965
0.339339
0.21131
0.0734734
0.380379
-0.11033
0.0400438
0.381423
0.0114715
0.383066
-0.00481757
0.355628
0.206492
-0.00772675
0.396193
-0.00808763
-0.0249077
0.398604
-0.0335714
0.39173
-0.0265791
0.348636
0.179913
-0.0846388
0.0724248
-0.0880396
-0.0812335
-0.0489983
0.195062
0.112053
-0.24817
-0.0589449
0.141591
0.116606
-0.0631351
0.0875264
0.121526
-0.067461
0.0354061
0.1214
-0.0692801
0.0863143
-0.0509081
0.194668
0.155041
-0.237656
0.148437
0.162837
0.0963959
0.173566
0.0409179
0.176878
0.127232
0.133245
0.199944
-0.178148
0.0928144
0.203267
0.0548314
0.21155
0.0195761
0.212134
0.146808
0.156304
0.231708
-0.188068
0.116781
0.24279
0.0719353
0.256396
0.0282001
0.255869
0.175008
0.0795676
-0.0985493
0.0576179
0.0328517
0.00941251
0.405245
0.0763081
-0.0855734
0.421601
0.0393797
-0.0557355
0.409284
0.196347
-0.18403
0.395533
0.222406
-0.208656
0.51328
-0.365917
0.402375
0.0699122
0.415482
0.0262727
0.400916
0.210913
0.385294
0.238028
0.660918
0.396159
0.0697325
0.410342
0.0120903
0.380829
0.240426
0.37377
0.245087
0.85654
0.393115
0.072597
0.39709
0.00811516
0.372823
0.264694
0.35296
0.26495
1.02143
0.385697
0.0828798
0.388833
0.00497871
0.344192
0.309335
0.323248
0.285893
1.24613
0.624065
0.0628355
0.65841
-0.0293666
0.706292
0.261454
0.794507
0.197677
1.02429
1.01635
0.639888
0.0269682
0.662346
-0.0518253
0.743544
0.180256
0.768574
0.172647
0.773378
1.01949
0.648845
-0.0178563
0.664886
-0.0678659
0.727828
0.117314
0.759616
0.140859
0.511184
1.02181
0.642438
-0.0562737
0.634245
-0.059673
0.697904
0.053655
0.77951
0.0592531
0.233677
1.05702
0.547747
0.488074
0.541729
0.600982
0.834659
1.05487
-0.236221
1.04173
-0.125497
1.05253
-0.121137
1.04575
-0.00130811
0.0203729
0.971986
-0.188718
0.957063
-0.110573
0.94084
-0.104914
0.952685
-0.0131533
-0.00318085
0.958011
-0.124921
0.942224
-0.0947857
0.914615
-0.0773049
0.930419
-0.0289568
-0.00973394
0.989812
-0.0577153
0.945278
-0.0502521
0.908473
-0.0404995
0.903312
-0.0237963
-0.0111963
0.776944
0.726692
0.686192
0.662396
0.048824
0.135373
-0.184197
0.0747879
0.307847
-0.333811
0.0761415
0.36453
-0.365883
0.0655803
0.369713
-0.359152
0.338438
0.0535395
-0.326397
0.0695463
0.0658267
0.144325
0.233068
0.18135
0.327505
0.186387
0.364676
0.362388
0.162437
0.0558977
0.00992895
0.170895
0.118071
0.269313
0.229087
0.34136
0.292629
0.350666
0.353081
0.025221
-0.0152921
0.120392
0.0228999
0.244376
0.105102
0.367108
0.169897
0.236099
0.481676
0.00376502
-0.0190571
0.046539
-0.019874
0.141269
0.0103721
0.261234
0.0499325
0.0892164
0.408117
-0.00787577
-0.0111813
-0.00391123
-0.0238386
0.0330687
-0.0266078
0.102025
-0.0190236
0.00042702
0.190814
-0.00452812
-0.0066532
-0.00484043
-0.0235263
0.00620675
-0.037655
0.0323445
-0.0451614
-0.0439896
0.0767612
-0.00145188
-0.00520132
-0.000910904
-0.0240673
-0.000647102
-0.0379188
-0.00115661
-0.0446519
-0.0470558
0.00190951
-0.0141802
0.00897888
-0.03881
0.00056256
-0.0696962
-0.00703252
-0.103663
-0.0106854
-0.0158864
-0.134832
-0.0335443
-0.0843493
-0.139328
-0.191201
-0.23669
0.444252
0.337925
-0.591363
0.546095
0.303797
-0.40564
0.473703
0.266345
-0.193953
0.303121
0.256324
-0.0857417
0.0726592
0.0063878
0.377976
0.0367104
0.5616
0.120173
0.500169
0.327776
0.297342
0.459151
0.1631
0.172537
-0.133917
0.498181
-0.205471
0.461448
0.364509
0.261103
0.659496
0.229051
0.00561331
-0.274362
0.423544
-0.623402
0.389346
0.398707
0.216677
0.832166
0.240272
-0.100221
0.323493
0.31142
0.179404
0.17344
0.462444
-0.635883
-0.0395115
0.212951
-0.0348689
-0.00464264
0.0501306
-0.0849994
-0.0638135
0.914967
-1.04389
0.722278
0.523682
0.352941
0.0842956
-0.0155627
-0.0687329
0.13617
-0.0518748
0.25095
-0.11478
0.425543
-0.174593
-0.210341
0.190163
-0.152186
0.300726
0.539028
0.84611
0.139302
-0.130493
0.160698
-0.169506
0.106051
-0.135098
0.168348
0.0681515
-0.141245
0.179145
0.0275773
-0.14007
0.180645
-0.096767
0.124344
0.176841
-0.0914238
-0.215911
0.13335
-0.0916061
0.0846022
-0.0924977
0.0347766
-0.0902448
-0.0619904
0.185539
-0.0425905
-0.234373
0.135316
-0.0413827
0.0839104
-0.0410922
0.0339954
-0.0403299
-0.027995
0.198542
0.00850191
-0.249635
0.146835
0.0103243
0.0935845
0.0121586
0.0393554
0.0138992
0.0113604
0.203042
-0.253485
0.150231
0.0949286
0.0395477
0.0353589
-0.305963
-0.0557925
0.0122883
-0.336081
-0.00893262
-0.344662
-0.0165913
-0.326152
-0.200788
0.116872
-0.276518
-0.146317
0.0749704
-0.29418
0.0353485
-0.30504
0.00624519
-0.297049
-0.194543
0.133717
-0.238512
-0.171724
0.0943324
-0.254795
0.0548957
-0.265604
0.0190832
-0.261237
-0.17546
0.154419
-0.205226
-0.187705
0.112735
-0.213111
0.0681645
-0.221033
0.0264781
-0.21955
-0.148982
0.150194
-0.194721
0.105431
0.063543
0.0246376
0.385816
0.111628
-0.101465
0.386428
0.0956618
-0.0962733
0.353828
0.162191
-0.129591
0.297149
0.0782869
-0.021607
-0.178372
0.306014
0.394322
0.113286
0.400129
0.0898548
0.391898
0.170422
0.3446
0.125585
-0.0496825
0.400971
0.108295
0.410586
0.0802398
0.406145
0.174862
0.369949
0.161781
0.0858935
0.406513
0.097761
0.417845
0.068908
0.414497
0.17821
0.388403
0.187875
0.224662
0.408167
0.42134
0.41552
0.394739
0.413858
0.0961931
0.328483
0.0853745
0.236556
0.091927
0.232367
0.00418936
-0.167852
0.400219
0.504779
0.49388
0.456216
0.438798
0.57696
0.320566
0.0796529
0.249406
0.07116
0.165922
0.0834836
0.0961192
0.0698031
0.0273863
0.461892
0.345346
0.257106
0.180593
)
;

boundaryField
{
    left
    {
        type            calculated;
        value           nonuniform List<scalar> 
17
(
-0.60402
-0.60402
-0.60402
-0.60402
-0.60402
-0.39598
-0.39598
-0.39598
-0.39598
-0.39598
-0.39598
-0.39598
-0.39598
-0.39598
-0.39598
-0.510051
-0.510051
)
;
    }
    right
    {
        type            calculated;
        value           nonuniform List<scalar> 
17
(
0.113944
0.295515
0.224074
0.206902
0.195151
0.205456
0.238607
0.288738
0.361439
0.466578
0.59182
0.717379
1.25471
1.27436
1.05807
0.615484
-0.108227
)
;
    }
    down
    {
        type            calculated;
        value           uniform 0;
    }
    up
    {
        type            calculated;
        value           uniform 0;
    }
    cylinder
    {
        type            calculated;
        value           uniform 0;
    }
    defaultFaces
    {
        type            empty;
    }
}


// ************************************************************************* //
