# Selection   : all
# Cells       : 1800
# Volume      : 7.372328e+01
# Time        	maxMag(U)
1.45          	3.137455e+00
1.475         	3.129407e+00
1.5           	3.121240e+00
