# Selection   : all
# Cells       : 440
# Volume      : 7.374263e+01
# Time        	maxMag(U)
5.615         	2.826273e+00
5.66          	2.831197e+00
5.71          	2.836398e+00
