/*--------------------------------*- C++ -*----------------------------------*\
  =========                 |
  \\      /  F ield         | OpenFOAM: The Open Source CFD Toolbox
   \\    /   O peration     | Website:  https://openfoam.org
    \\  /    A nd           | Version:  13
     \\/     M anipulation  |
\*---------------------------------------------------------------------------*/
FoamFile
{
    format      ascii;
    class       volScalarField;
    location    "0.245";
    object      p;
}
// * * * * * * * * * * * * * * * * * * * * * * * * * * * * * * * * * * * * * //

dimensions      [0 2 -2 0 0 0 0];

internalField   nonuniform List<scalar> 
1800
(
-0.984462
-0.95636
-0.889745
-0.797306
-0.700675
-0.610801
-0.531064
-0.461049
-0.399365
-0.349058
-1.16632
-1.13483
-1.05908
-0.954479
-0.845716
-0.74474
-0.655192
-0.57691
-0.509259
-0.454064
-1.33921
-1.30392
-1.21855
-1.10174
-0.981045
-0.869123
-0.769661
-0.682391
-0.606316
-0.542152
-1.49789
-1.45855
-1.36342
-1.23496
-1.10337
-0.981759
-0.873729
-0.778825
-0.695907
-0.625355
-1.63669
-1.59308
-1.48813
-1.34872
-1.20722
-1.0769
-0.961127
-0.859246
-0.769982
-0.693131
-1.75048
-1.70253
-1.58808
-1.43884
-1.28886
-1.15129
-1.02914
-0.921566
-0.827112
-0.745189
-1.83424
-1.78196
-1.65858
-1.50088
-1.344
-1.20069
-1.07354
-0.961491
-0.862947
-0.776959
-1.88375
-1.8273
-1.69596
-1.53147
-1.3695
-1.22213
-1.09149
-0.976313
-0.874871
-0.785912
-1.89565
-1.83531
-1.6973
-1.52792
-1.36275
-1.21304
-1.08045
-0.963534
-0.860436
-0.769623
-1.86781
-1.80409
-1.66097
-1.48865
-1.32222
-1.17186
-1.03876
-0.92137
-0.817722
-0.726114
0.342497
0.357278
0.372345
0.386626
0.397734
0.404693
0.407818
0.407853
0.405496
0.401344
0.30044
0.315479
0.332127
0.348999
0.363137
0.373137
0.379107
0.38175
0.381775
0.37993
0.232382
0.247835
0.266915
0.287756
0.306512
0.321137
0.331428
0.338023
0.341656
0.343331
0.139571
0.155607
0.177952
0.204084
0.228942
0.249648
0.265601
0.277357
0.285686
0.291949
0.0237086
0.0405244
0.0669464
0.099615
0.131924
0.159999
0.182783
0.200731
0.214663
0.226395
-0.112936
-0.0951091
-0.0638326
-0.0234879
0.0174524
0.0539853
0.0845635
0.109531
0.129769
0.147623
-0.267436
-0.248329
-0.211479
-0.162478
-0.111958
-0.0661343
-0.0270475
0.00552618
0.032553
0.0569063
-0.436128
-0.415426
-0.372343
-0.313885
-0.253112
-0.197481
-0.149501
-0.109055
-0.0750288
-0.0441696
-0.614744
-0.592054
-0.541988
-0.473202
-0.40145
-0.335457
-0.278188
-0.229616
-0.188361
-0.151237
-0.798949
-0.773795
-0.715827
-0.635566
-0.551664
-0.474071
-0.406129
-0.347818
-0.297572
-0.253708
0.359793
0.278715
0.22054
0.176055
0.140524
0.110785
0.0842077
0.0593413
0.0353355
0.0117309
0.35267
0.275549
0.219831
0.176039
0.140573
0.110757
0.0841261
0.0592482
0.0352623
0.0116946
0.339015
0.269146
0.217691
0.17547
0.140468
0.110727
0.0840947
0.0592121
0.0352298
0.0116721
0.31805
0.259731
0.214179
0.17435
0.140197
0.110687
0.0841058
0.0592271
0.0352346
0.0116628
0.288727
0.247578
0.209374
0.172687
0.13975
0.110626
0.0841519
0.0592874
0.0352733
0.0116662
0.249925
0.232933
0.203375
0.170495
0.139117
0.110535
0.0842254
0.0593871
0.0353423
0.0116818
0.200635
0.215926
0.196321
0.167803
0.13829
0.110403
0.0843181
0.0595198
0.0354382
0.0117094
0.139722
0.196052
0.188279
0.164634
0.137264
0.110222
0.0844221
0.0596793
0.0355574
0.0117487
0.0666286
0.172121
0.178929
0.160851
0.135965
0.109956
0.0845208
0.0598567
0.0356959
0.0118
-0.0130614
0.144841
0.168645
0.156595
0.134432
0.109609
0.0846119
0.0600482
0.0358509
0.0118667
-0.0570705
0.121628
0.158021
0.150537
0.131059
0.107796
0.0836365
0.0595189
0.0356108
0.0118519
-0.0720986
0.0940457
0.138772
0.13838
0.123614
0.103283
0.0808871
0.0578678
0.034736
0.0115938
-0.069804
0.0781536
0.125012
0.128331
0.11684
0.0989316
0.0781552
0.0562044
0.0338434
0.0113238
-0.063588
0.0653403
0.112393
0.118901
0.110336
0.0946588
0.075433
0.054533
0.0329381
0.0110449
-0.054
0.0564386
0.101642
0.110399
0.104265
0.09057
0.0727865
0.0528928
0.0320411
0.010764
-0.0438471
0.0498563
0.0924055
0.102769
0.0986837
0.0867399
0.0702744
0.0513215
0.0311728
0.0104872
-0.0352173
0.0445742
0.0844317
0.0959889
0.0936434
0.0832352
0.0679506
0.0498549
0.0303516
0.0102197
-0.0294421
0.0396261
0.0773649
0.0899863
0.0891694
0.0801059
0.0658605
0.0485249
0.0295941
0.00996736
-0.0263538
0.0343176
0.0704731
0.0842608
0.0849363
0.0771444
0.0638701
0.0472439
0.0288338
0.00969303
-0.03171
0.0298611
0.0660875
0.0808592
0.0824793
0.0754347
0.0627223
0.0465064
0.0283979
0.00953771
-0.572523
-0.614692
-0.634537
-0.632996
-0.611982
-0.573925
-0.522083
-0.458102
-0.38757
-0.310525
-0.406988
-0.449776
-0.474405
-0.481975
-0.473402
-0.451572
-0.417777
-0.37593
-0.328453
-0.278827
-0.279881
-0.321382
-0.348101
-0.360997
-0.360258
-0.349086
-0.327079
-0.299108
-0.26487
-0.22892
-0.18161
-0.2225
-0.250545
-0.266665
-0.270912
-0.266251
-0.251911
-0.232644
-0.207478
-0.180982
-0.107011
-0.147053
-0.175804
-0.19396
-0.201636
-0.201264
-0.192385
-0.179083
-0.160527
-0.140696
-0.0501057
-0.0896797
-0.119035
-0.138664
-0.148833
-0.151452
-0.146502
-0.13731
-0.123296
-0.107915
-0.00784182
-0.0472867
-0.0772196
-0.0979967
-0.110018
-0.114766
-0.112579
-0.106173
-0.0953063
-0.0830203
0.0221241
-0.0176426
-0.0483656
-0.0702313
-0.0837327
-0.0900538
-0.089761
-0.0851132
-0.0762134
-0.0659378
0.0388544
-0.00103823
-0.032704
-0.0559271
-0.0709105
-0.0785066
-0.0793537
-0.0752253
-0.0667248
-0.0554161
0.0500234
0.00710992
-0.0274161
-0.0537575
-0.0722449
-0.0833945
-0.0879116
-0.0865726
-0.0801922
-0.0687121
0.833859
0.783437
0.724649
0.661457
0.592815
0.516111
0.429765
0.335978
0.249221
0.201638
0.639723
0.583962
0.521081
0.451651
0.373976
0.285907
0.18646
0.0785745
-0.0209116
-0.0750388
0.424893
0.365506
0.299243
0.224791
0.140202
0.043514
-0.0661344
-0.185489
-0.295806
-0.355392
0.219379
0.154978
0.0827796
0.00113755
-0.091732
-0.197759
-0.317825
-0.44849
-0.569256
-0.63343
0.0308528
-0.0400199
-0.119561
-0.209457
-0.311464
-0.427572
-0.558597
-0.700813
-0.832136
-0.899574
-0.142156
-0.21941
-0.306055
-0.403853
-0.514625
-0.640412
-0.781776
-0.934533
-1.07679
-1.14418
-0.300029
-0.382535
-0.475196
-0.579776
-0.698122
-0.832247
-0.982717
-1.14391
-1.29532
-1.361
-0.440121
-0.526677
-0.624144
-0.734194
-0.858676
-0.999458
-1.1562
-1.33079
-1.47607
-1.54428
-0.558783
-0.648486
-0.749743
-0.864047
-0.993317
-1.13966
-1.30301
-1.47541
-1.62296
-1.6911
-0.653176
-0.745533
-0.849184
-0.966009
-1.09822
-1.24757
-1.41347
-1.58661
-1.73305
-1.79947
2.01031
2.02682
2.04642
2.0672
2.08732
2.1059
2.12227
2.13588
2.14735
2.15643
1.95765
1.97226
1.98947
2.00748
2.02454
2.03976
2.05243
2.06213
2.07001
2.07669
1.885
1.89689
1.9106
1.92454
1.93711
1.94739
1.95462
1.95854
1.96115
1.96437
1.79305
1.80144
1.81063
1.8193
1.82607
1.82997
1.83014
1.82654
1.82221
1.8211
1.68264
1.68691
1.69074
1.69313
1.69294
1.68916
1.68085
1.66814
1.65524
1.6492
1.55503
1.55481
1.55265
1.54789
1.53971
1.52707
1.50896
1.48576
1.46293
1.45109
1.41236
1.40762
1.39912
1.38658
1.36954
1.34701
1.31793
1.283
1.2491
1.23073
1.26019
1.2504
1.23442
1.21273
1.1855
1.15176
1.11041
1.06249
1.01652
0.991138
1.10522
1.09004
1.06547
1.03319
0.994234
0.947729
0.892567
0.830208
0.771083
0.738297
0.959931
0.930723
0.891379
0.845213
0.792902
0.73276
0.663251
0.586092
0.513643
0.473459
1.95162
1.62899
1.90623
1.74837
1.7491
1.75518
1.76492
1.78971
1.84328
1.94527
1.94503
1.62286
1.90076
1.7417
1.74172
1.74627
1.75352
1.77459
1.82094
1.90983
1.93909
1.61647
1.89577
1.73431
1.73375
1.73642
1.74036
1.75658
1.79233
1.86259
1.93378
1.60989
1.8913
1.72622
1.72522
1.72564
1.72549
1.73556
1.75719
1.80371
1.92904
1.6032
1.88733
1.71745
1.71617
1.71396
1.70891
1.71135
1.71567
1.73286
1.92488
1.5965
1.88384
1.70799
1.70668
1.70138
1.69066
1.68387
1.66868
1.64891
1.92127
1.58989
1.88081
1.69785
1.6968
1.6879
1.6707
1.65314
1.61692
1.55037
1.91821
1.5835
1.87816
1.68706
1.6866
1.67352
1.64904
1.61918
1.56077
1.43807
1.91569
1.57745
1.87581
1.67566
1.67614
1.65825
1.62577
1.58204
1.49932
1.30933
1.91379
1.57194
1.87366
1.66371
1.66548
1.64216
1.6013
1.54325
1.43511
1.17732
1.912
1.56599
1.86926
1.65276
1.65135
1.62109
1.5687
1.49231
1.3585
1.04302
1.91269
1.56051
1.86323
1.64446
1.63565
1.59877
1.53568
1.44454
1.29159
0.986362
1.91509
1.55647
1.85796
1.63688
1.62125
1.5782
1.50597
1.40366
1.23724
0.947025
1.91964
1.55394
1.85355
1.63014
1.60841
1.55979
1.47996
1.36929
1.19388
0.920783
1.9268
1.55292
1.85009
1.62439
1.59733
1.54385
1.45794
1.34104
1.16061
0.903411
1.9372
1.55333
1.84756
1.6197
1.58814
1.53058
1.43997
1.31857
1.13618
0.892351
1.9512
1.555
1.84582
1.61612
1.58095
1.52009
1.42603
1.30153
1.11922
0.886154
1.97151
1.55825
1.84484
1.61369
1.57582
1.51244
1.41605
1.28962
1.10848
0.88411
1.98857
1.56066
1.84222
1.61251
1.57293
1.50777
1.41016
1.2829
1.1035
0.887212
2.04339
1.56979
1.84469
1.61058
1.57213
1.50536
1.40715
1.27936
1.10143
0.888656
0.80127
0.635965
0.446499
0.265917
0.101822
-0.0490408
-0.188394
-0.313643
-0.421019
-0.508461
0.727823
0.601151
0.456313
0.311875
0.17698
0.0514795
-0.0658567
-0.173165
-0.267589
-0.346228
0.691923
0.589212
0.474795
0.354462
0.238025
0.128557
0.0257908
-0.0689725
-0.152996
-0.223804
0.677538
0.587751
0.491342
0.388305
0.28617
0.189258
0.0979891
0.0132258
-0.0628425
-0.128202
0.675396
0.593535
0.508547
0.417874
0.326231
0.238077
0.154589
0.0765463
0.00574057
-0.0559295
0.679372
0.602855
0.525202
0.442833
0.358539
0.276554
0.198531
0.125276
0.0583186
-0.000586689
0.685918
0.613173
0.540433
0.463597
0.384314
0.306572
0.232281
0.162283
0.0979274
0.0407933
0.693534
0.623346
0.553854
0.480462
0.404246
0.329115
0.257104
0.189086
0.126332
0.0703061
0.704438
0.636172
0.568236
0.495901
0.420477
0.345916
0.274258
0.206392
0.143558
0.087273
0.718993
0.654517
0.587769
0.515086
0.439418
0.364541
0.292119
0.223151
0.158962
0.100903
-3.03704
-2.94313
-2.74866
-2.53529
-2.34182
-2.17708
-2.04033
-1.92866
-1.83979
-1.77281
-3.10783
-3.0229
-2.83847
-2.62798
-2.43334
-2.26646
-2.12767
-2.01416
-1.92399
-1.85727
-3.06645
-2.99123
-2.82031
-2.61499
-2.42027
-2.2516
-2.11083
-1.99533
-1.90288
-1.83331
-2.92275
-2.85706
-2.7021
-2.50457
-2.31143
-2.14171
-1.99919
-1.88179
-1.78697
-1.71349
-2.69453
-2.63783
-2.49987
-2.31307
-2.1243
-1.95559
-1.81272
-1.69446
-1.5982
-1.52216
-2.40427
-2.35585
-2.23486
-2.06197
-1.88171
-1.71774
-1.57754
-1.46082
-1.36512
-1.28956
-2.07662
-2.03553
-1.93082
-1.77509
-1.60844
-1.45438
-1.32134
-1.20999
-1.11784
-1.04597
-1.73545
-1.70036
-1.61084
-1.47463
-1.32618
-1.1871
-1.06586
-0.963751
-0.878719
-0.81304
-1.40119
-1.3709
-1.29525
-1.17959
-1.05239
-0.932242
-0.826927
-0.737922
-0.663548
-0.608978
-1.08794
-1.0616
-0.998205
-0.9023
-0.796643
-0.696439
-0.608116
-0.532715
-0.467621
-0.417851
-0.804042
-0.780741
-0.728098
-0.6503
-0.565285
-0.485228
-0.415497
-0.357224
-0.308494
-0.26635
-0.552602
-0.531576
-0.488072
-0.425803
-0.358681
-0.296123
-0.242186
-0.197528
-0.160921
-0.127541
-0.333487
-0.314194
-0.278228
-0.228706
-0.176262
-0.128013
-0.0868527
-0.0529973
-0.0255698
-0.000291804
-0.145834
-0.1279
-0.0981715
-0.0591713
-0.0189338
0.0172709
0.0474914
0.0718405
0.0911085
0.108559
0.0111549
0.0280101
0.0526258
0.0830208
0.113208
0.139402
0.160423
0.176631
0.188802
0.199273
0.138214
0.154232
0.174816
0.19844
0.220681
0.238913
0.252571
0.262184
0.26851
0.273177
0.235948
0.251348
0.268936
0.287532
0.303838
0.316093
0.32419
0.328772
0.330575
0.330728
0.304829
0.319809
0.335388
0.350603
0.362892
0.371083
0.37538
0.376497
0.375151
0.372143
0.345263
0.360009
0.374521
0.387927
0.398046
0.404035
0.406263
0.405481
0.402393
0.397613
0.357653
0.372331
0.386678
0.399794
0.409541
0.415139
0.416995
0.415867
0.412454
0.407306
-0.00674663
0.13194
0.151964
0.147466
0.133013
0.112684
0.0893509
0.0645712
0.0389956
0.0130312
0.0877409
0.163872
0.165497
0.153225
0.134443
0.112306
0.0883988
0.0636281
0.0383468
0.0128114
0.164141
0.189438
0.176351
0.157335
0.135538
0.111944
0.0875475
0.0627869
0.037768
0.0126139
0.222813
0.210643
0.186092
0.16138
0.136564
0.111644
0.0868054
0.062047
0.0372568
0.0124381
0.267929
0.229009
0.194852
0.16497
0.137477
0.111397
0.0861679
0.0614046
0.0368104
0.0122828
0.302219
0.244826
0.202472
0.168082
0.138279
0.111202
0.0856302
0.0608555
0.036426
0.0121471
0.327452
0.257908
0.208853
0.17071
0.13897
0.111053
0.085186
0.0603951
0.036101
0.01203
0.345039
0.268014
0.213913
0.172837
0.139546
0.110945
0.0848288
0.0600187
0.0358324
0.0119306
0.355987
0.274929
0.217574
0.174445
0.140002
0.11087
0.0845516
0.0597211
0.0356173
0.0118482
0.360847
0.278517
0.219789
0.175521
0.14033
0.110819
0.0843471
0.0594971
0.0354528
0.0117819
-0.211157
0.017552
0.0957853
0.12103
0.12171
0.108764
0.0886512
0.0650361
0.039654
0.013359
-0.175519
0.0368477
0.104102
0.124349
0.122896
0.109109
0.0886803
0.0649602
0.039562
0.0133148
-0.143567
0.0551195
0.113124
0.128585
0.124742
0.109779
0.0888131
0.0648931
0.0394495
0.0132554
-0.108352
0.0770625
0.124575
0.134172
0.127255
0.110809
0.0891299
0.0649211
0.0393908
0.0132173
-0.0659562
0.105487
0.139643
0.141656
0.130699
0.112171
0.0896057
0.0650285
0.0393745
0.0131957
-1.70572
-1.78913
-1.78084
-1.69031
-1.5345
-1.34647
-1.13154
-0.931843
-0.736627
-0.562408
-1.70516
-1.78881
-1.77579
-1.67854
-1.51577
-1.3205
-1.09912
-0.891973
-0.694417
-0.516669
-1.70887
-1.79179
-1.77398
-1.66894
-1.49739
-1.2903
-1.06189
-0.84492
-0.647263
-0.483721
-1.71947
-1.80264
-1.78066
-1.66724
-1.48539
-1.26488
-1.02981
-0.806003
-0.612468
-0.454361
-1.73779
-1.82203
-1.79626
-1.67486
-1.48291
-1.25131
-1.01006
-0.781494
-0.583737
-0.411179
1.43658
1.41554
1.38593
1.35091
1.31139
1.26579
1.21231
1.15189
1.09465
1.06172
1.56504
1.55943
1.54622
1.52689
1.5025
1.47228
1.43502
1.39159
1.35016
1.3271
1.68975
1.68956
1.68505
1.67667
1.66448
1.64756
1.62477
1.59663
1.56945
1.55503
1.80015
1.80483
1.80766
1.80831
1.80611
1.8001
1.78924
1.77379
1.75848
1.75112
1.89223
1.90102
1.90963
1.91733
1.92305
1.92581
1.92465
1.9196
1.91408
1.91238
1.96381
1.97614
1.98961
2.00309
2.0152
2.02499
2.0316
2.03485
2.03696
2.03998
2.01459
2.02964
2.04683
2.06468
2.08159
2.09665
2.10911
2.11855
2.12629
2.13298
2.04468
2.06152
2.08118
2.10195
2.12206
2.14064
2.15698
2.17055
2.18205
2.19118
2.05405
2.0717
2.09256
2.11476
2.13645
2.15678
2.17506
2.19072
2.20418
2.21443
2.04248
2.06002
2.08087
2.10306
2.12473
2.14503
2.16327
2.17883
2.19203
2.20245
-1.58247
-1.65191
-1.74063
-1.85056
-1.98475
-2.14639
-2.33758
-2.55174
-2.75332
-2.85403
-1.29984
-1.37186
-1.46132
-1.57012
-1.70167
-1.85929
-2.04499
-2.25768
-2.46358
-2.56895
-0.946441
-1.02126
-1.11224
-1.22081
-1.35
-1.5031
-1.68269
-1.88642
-2.08926
-2.20019
-0.552009
-0.630731
-0.723615
-0.831754
-0.957809
-1.10505
-1.27616
-1.46902
-1.65836
-1.77083
-0.154452
-0.235893
-0.328745
-0.433984
-0.554145
-0.692468
-0.851669
-1.02965
-1.20282
-1.30878
0.212789
0.13382
0.0458233
-0.0520428
-0.162206
-0.287787
-0.431372
-0.590927
-0.745102
-0.840193
0.536996
0.466199
0.388053
0.301827
0.205181
0.0951945
-0.0304123
-0.169618
-0.303301
-0.385495
0.827191
0.766788
0.700076
0.626696
0.544248
0.449955
0.341974
0.222477
0.108656
0.0395797
1.09578
1.04428
0.985533
0.921557
0.850434
0.769467
0.677102
0.575555
0.480038
0.423398
1.32208
1.27812
1.22461
1.16805
1.1078
1.04104
0.965765
0.88349
0.806732
0.762151
2.06337
1.67259
1.97362
1.76396
1.78922
1.79219
1.78872
1.7871
1.74855
1.61942
2.04741
1.6696
1.96766
1.76726
1.78735
1.79254
1.79203
1.79856
1.77915
1.70883
2.03274
1.66635
1.96107
1.76947
1.7852
1.79211
1.79531
1.80895
1.80749
1.79435
2.01931
1.66281
1.95406
1.77054
1.78268
1.7908
1.79703
1.81664
1.83071
1.86009
2.00698
1.65897
1.94681
1.77046
1.77971
1.78857
1.79725
1.82153
1.84931
1.91039
1.99565
1.65482
1.93951
1.76924
1.7762
1.78539
1.79595
1.82346
1.86319
1.94619
1.98524
1.65034
1.93229
1.76694
1.77209
1.78127
1.79309
1.82239
1.87149
1.96938
1.97567
1.64552
1.92527
1.76363
1.76734
1.7762
1.78861
1.81839
1.87356
1.98093
1.96691
1.64035
1.91854
1.75939
1.76192
1.77015
1.78245
1.81159
1.86955
1.98076
1.95891
1.63483
1.91217
1.75428
1.75584
1.76315
1.77457
1.80203
1.85946
1.9689
2.20678
1.69259
1.98187
1.76537
1.79117
1.78553
1.7676
1.74099
1.64374
1.47168
2.15028
1.68579
1.98035
1.76645
1.79059
1.78653
1.76926
1.74418
1.65019
1.47423
2.12732
1.68359
1.98178
1.76566
1.79068
1.78776
1.77227
1.75015
1.664
1.4797
2.10285
1.67998
1.98026
1.76442
1.7906
1.78915
1.77655
1.759
1.68428
1.49843
2.08127
1.67596
1.97789
1.76275
1.79032
1.79061
1.78168
1.77051
1.7104
1.52618
1.14577
1.00625
0.802028
0.519243
0.172189
-0.212029
-0.60092
-0.9644
-1.28128
-1.53306
1.13492
0.993562
0.796314
0.525398
0.192524
-0.182126
-0.570578
-0.941216
-1.26788
-1.52825
1.15649
1.0043
0.801296
0.535525
0.213298
-0.155051
-0.546314
-0.92536
-1.26089
-1.52825
1.20962
1.03518
0.814856
0.54794
0.231701
-0.133725
-0.528939
-0.916474
-1.26042
-1.53447
1.29059
1.08629
0.837978
0.561111
0.244485
-0.120184
-0.517981
-0.912347
-1.26493
-1.54716
)
;

boundaryField
{
    left
    {
        type            zeroGradient;
    }
    right
    {
        type            fixedValue;
        value           uniform 0;
    }
    down
    {
        type            zeroGradient;
    }
    up
    {
        type            zeroGradient;
    }
    cylinder
    {
        type            zeroGradient;
    }
    defaultFaces
    {
        type            empty;
    }
}


// ************************************************************************* //
