/*--------------------------------*- C++ -*----------------------------------*\
  =========                 |
  \\      /  F ield         | OpenFOAM: The Open Source CFD Toolbox
   \\    /   O peration     | Website:  https://openfoam.org
    \\  /    A nd           | Version:  13
     \\/     M anipulation  |
\*---------------------------------------------------------------------------*/
FoamFile
{
    format      ascii;
    class       surfaceScalarField;
    location    "0.245";
    object      phi;
}
// * * * * * * * * * * * * * * * * * * * * * * * * * * * * * * * * * * * * * //

dimensions      [0 3 -1 0 0 0 0];

internalField   nonuniform List<scalar> 
3485
(
0.00315465
-0.0266026
0.023448
0.0107422
-0.0846728
0.0770852
0.020374
-0.122883
0.113251
0.0304908
-0.140387
0.13027
0.040431
-0.145304
0.135364
0.0500091
-0.144432
0.134854
0.0591929
-0.141432
0.132248
0.0679527
-0.137847
0.129088
0.0762204
-0.134138
0.12587
-0.1302
0.122311
0.0841089
0.00336679
-0.0299694
0.0109701
-0.0922761
0.0202862
-0.132199
0.0298635
-0.149964
0.0391919
-0.154633
0.0482116
-0.153452
0.0569969
-0.150217
0.0656492
-0.1465
0.0743254
-0.142814
-0.139235
0.0833603
0.00355352
-0.033523
0.0110855
-0.099808
0.019946
-0.141059
0.0287967
-0.158815
0.0372585
-0.163095
0.0453457
-0.161539
0.0531515
-0.158023
0.0607489
-0.154097
0.0681792
-0.150244
-0.146509
0.0754537
0.00372763
-0.0372506
0.0111244
-0.107205
0.0194547
-0.14939
0.0275318
-0.166892
0.0351332
-0.170696
0.0423698
-0.168776
0.0493796
-0.165033
0.0562521
-0.16097
0.063046
-0.157038
-0.153365
0.0699019
0.00384169
-0.0410923
0.0109691
-0.114332
0.01861
-0.157031
0.0257516
-0.174034
0.0323245
-0.177269
0.0385198
-0.174971
0.0445027
-0.171016
0.0503681
-0.166835
0.0561745
-0.162845
-0.159174
0.0619833
0.00389361
-0.0449859
0.0106213
-0.12106
0.0174455
-0.163855
0.023556
-0.180144
0.0290377
-0.182751
0.0341548
-0.180088
0.0390943
-0.175955
0.0439508
-0.171691
0.0487723
-0.167666
-0.164012
0.05361
0.00385325
-0.0488391
0.0100215
-0.127228
0.015881
-0.169714
0.0208426
-0.185106
0.0251383
-0.187046
0.0290905
-0.18404
0.0328977
-0.179762
0.0366515
-0.175445
0.0403942
-0.171409
-0.167766
0.0441484
0.0037101
-0.0525492
0.0091627
-0.132681
0.0139281
-0.17448
0.0176535
-0.188831
0.0207054
-0.190098
0.0234456
-0.186781
0.0260732
-0.18239
0.0286709
-0.178043
0.0312718
-0.17401
-0.170373
0.0338787
0.00345111
-0.0560003
0.00803405
-0.137264
0.0115885
-0.178034
0.0140121
-0.191255
0.0157778
-0.191864
0.0172708
-0.188274
0.0186835
-0.183803
0.0200878
-0.179447
0.0215085
-0.17543
-0.171797
0.0229324
0.00307953
-0.0590799
0.00665558
-0.14084
0.00891566
-0.180294
0.0100023
-0.192341
0.0104609
-0.192322
0.0106931
-0.188506
0.0108723
-0.183982
0.0110607
-0.179636
0.0112842
-0.175654
0.0115225
-0.172035
0.00154411
-0.00370441
0.0021603
0.00804788
-0.013404
0.00690021
0.018368
-0.0205008
0.0101807
0.0307154
-0.0241665
0.0118191
0.0438184
-0.0254837
0.0123807
0.0570037
-0.0255819
0.0123965
0.0699768
-0.0251562
0.0121831
0.0826322
-0.0245489
0.0118935
0.0949477
-0.0239071
0.0115917
-0.0234435
0.107077
0.0113145
0.00160008
-0.00530449
0.00815718
-0.0199611
0.0184839
-0.0308275
0.0307924
-0.036475
0.0438264
-0.0385176
0.0569277
-0.0386832
0.0698121
-0.0380406
0.0823803
-0.0371172
0.0946148
-0.0361416
-0.0354961
0.106667
0.0016809
-0.00698539
0.00831846
-0.0265986
0.0186603
-0.0411694
0.030919
-0.0487337
0.0438598
-0.0514584
0.0568458
-0.0516692
0.069607
-0.0508018
0.0820522
-0.0495623
0.0941704
-0.0482598
-0.047436
0.10611
0.00179186
-0.00877725
0.00854125
-0.033348
0.018906
-0.0515341
0.0310993
-0.0609271
0.0439169
-0.064276
0.0567505
-0.0645028
0.0693493
-0.0634006
0.0816326
-0.0618457
0.0935977
-0.0602249
-0.059224
0.105386
0.00193706
-0.0107143
0.00883082
-0.0402418
0.0192228
-0.0619261
0.0313292
-0.0730335
0.0439871
-0.0769339
0.0566264
-0.0771421
0.0690209
-0.0757952
0.0811035
-0.0739283
0.09288
-0.0720015
-0.0708192
0.104475
0.00211759
-0.0128319
0.00918364
-0.0473078
0.0195982
-0.0723406
0.0315859
-0.0850213
0.0440386
-0.0893866
0.0564355
-0.089539
0.0685822
-0.0879418
0.0804276
-0.0857737
0.0919849
-0.0835587
-0.0821763
0.103342
0.00232957
-0.0151615
0.00958263
-0.0545609
0.019998
-0.082756
0.0318181
-0.0968414
0.0440046
-0.101573
0.0560988
-0.101633
0.0679461
-0.0997891
0.0795165
-0.0973441
0.0908262
-0.0948684
-0.0932314
0.101881
0.00255794
-0.0177194
0.00998332
-0.0619863
0.0203456
-0.0931182
0.0319181
-0.108414
0.0437479
-0.113403
0.0554496
-0.113335
0.0669151
-0.111255
0.0781382
-0.108567
0.0891292
-0.105859
-0.103834
0.0997322
0.00277133
-0.0204907
0.0103051
-0.0695201
0.0205087
-0.103322
0.0317008
-0.119606
0.0430251
-0.124727
0.0541745
-0.124484
0.0650882
-0.122168
0.0757804
-0.119259
0.0862393
-0.116318
-0.113641
0.0960455
0.00295726
0.0105224
0.0204514
0.0311157
0.0417526
0.0521227
0.0622024
0.0720307
0.0815826
0.0902533
0.15651
-0.1404
0.0909669
0.181939
-0.101071
0.0756419
0.194671
-0.0752321
0.0625001
0.20079
-0.0567056
0.0505869
0.203443
-0.0426344
0.0399815
0.204162
-0.0315229
0.0308033
0.203752
-0.0225818
0.0229916
0.202648
-0.0152202
0.0163243
0.201105
-0.00928444
0.0108276
-0.002356
0.00430119
0.155503
-0.189236
0.180971
-0.12654
0.193946
-0.0882066
0.200309
-0.0630684
0.203159
-0.045485
0.20404
-0.0324034
0.203767
-0.0223095
0.202789
-0.0142418
0.201366
-0.0078619
-0.000534618
0.153758
-0.236883
0.179134
-0.151916
0.192382
-0.101454
0.199082
-0.0697686
0.202244
-0.0486462
0.203408
-0.0335673
0.2034
-0.0223024
0.202679
-0.0135198
0.20151
-0.00669288
0.00102789
0.151233
-0.28273
0.176413
-0.177097
0.189977
-0.115019
0.197113
-0.0769039
0.200699
-0.0522327
0.202269
-0.0351368
0.202654
-0.0226872
0.202318
-0.0131838
0.201534
-0.00590894
0.00219734
0.147897
-0.326152
0.172798
-0.201998
0.186734
-0.128954
0.194405
-0.0845755
0.198533
-0.0563603
0.200629
-0.0372331
0.201531
-0.0235884
0.201708
-0.0133607
0.201438
-0.00563945
0.00284125
0.143709
-0.366519
0.168276
-0.226565
0.182657
-0.143335
0.19097
-0.0928879
0.195755
-0.0611459
0.198498
-0.0399762
0.200038
-0.0251278
0.200851
-0.0141745
0.201223
-0.00601075
0.00282964
0.138568
-0.403206
0.162801
-0.250797
0.177744
-0.158278
0.186815
-0.101959
0.192378
-0.0667093
0.195887
-0.0434843
0.198183
-0.027424
0.199753
-0.0157453
0.200888
-0.00714539
0.00203589
0.132394
-0.435868
0.156236
-0.274639
0.171941
-0.173983
0.181935
-0.111954
0.188411
-0.0731849
0.192806
-0.047879
0.195975
-0.0305939
0.198419
-0.0181891
0.200435
-0.00916157
0.000337571
0.124968
-0.464791
0.148322
-0.297992
0.165048
-0.190709
0.176236
-0.123142
0.183821
-0.0807701
0.189251
-0.0533089
0.19342
-0.0347631
0.196854
-0.0216224
0.199866
-0.0121741
-0.00238334
0.117308
-0.491846
0.140094
-0.320779
0.157662
-0.208277
0.169974
-0.135453
0.178716
-0.089512
0.185271
-0.0598644
0.190541
-0.0400327
0.195067
-0.026149
0.199183
-0.0162898
-0.00623982
0.368285
-0.43572
-0.42441
0.33947
-0.291964
0.325432
-0.194239
0.319027
-0.129048
0.315726
-0.086211
0.313724
-0.0578622
0.312374
-0.0386831
0.31145
-0.0252252
0.310842
-0.0156816
-0.00599368
0.381154
-0.372018
-0.444856
0.349888
-0.260698
0.333658
-0.178009
0.324912
-0.120301
0.319765
-0.0810643
0.316489
-0.0545858
0.314312
-0.0365058
0.312869
-0.023783
0.311955
-0.0147672
-0.00563778
0.395543
-0.311233
-0.456328
0.361531
-0.226687
0.341997
-0.158474
0.330598
-0.108903
0.323608
-0.0740748
0.319113
-0.050091
0.31615
-0.0335424
0.314215
-0.0218478
0.313006
-0.0135585
-0.00517372
0.405282
-0.254454
-0.46206
0.370417
-0.191823
0.348943
-0.137
0.335582
-0.0955414
0.327069
-0.0655625
0.32151
-0.0445317
0.317839
-0.0298713
0.315453
-0.0194615
0.313971
-0.0120766
-0.00460778
0.412305
-0.202073
-0.464685
0.377467
-0.156985
0.354709
-0.114242
0.33985
-0.0806818
0.330093
-0.0558061
0.323629
-0.0380672
0.319341
-0.0255834
0.316556
-0.0166764
0.314829
-0.0103501
-0.00394938
0.417242
-0.153857
-0.465458
0.382903
-0.122647
0.359339
-0.0906773
0.343373
-0.0647161
0.332635
-0.0450686
0.325429
-0.0308612
0.320624
-0.0207786
0.317501
-0.0135525
0.315563
-0.00841296
-0.00321027
0.420588
-0.10917
-0.465275
0.386924
-0.0889821
0.362886
-0.0666402
0.346137
-0.0479671
0.334661
-0.0335919
0.326877
-0.0230774
0.321661
-0.015563
0.318265
-0.0101561
0.316156
-0.00630389
-0.00240414
0.422486
-0.0669173
-0.464739
0.389466
-0.0559623
0.365216
-0.0423903
0.34798
-0.0307314
0.336008
-0.0216192
0.327822
-0.0148914
0.322314
-0.0100557
0.318723
-0.00656441
0.316488
-0.00406938
-0.0015483
0.418768
-0.0245188
-0.461167
0.38647
-0.0236639
0.362604
-0.0185243
0.345471
-0.0135987
0.333469
-0.00961728
0.32522
-0.00664212
0.319655
-0.00449144
0.316026
-0.00293496
0.31377
-0.00181318
-0.000683626
0.3403
-0.364819
0.316636
0.298112
0.284513
0.274896
0.268254
0.263763
0.260828
0.259014
0.456689
0.0103103
-0.455477
0.457087
0.0225347
0.456642
0.0343232
0.455306
0.0454846
0.452808
0.0561083
0.449664
0.0651267
0.444018
0.0755485
0.439879
0.0795925
0.428723
0.0945165
0.0884215
0.43822
0.00927139
-0.437181
0.439441
0.0213137
0.440746
0.0330186
0.442129
0.0441009
0.443291
0.0549467
0.444645
0.0637723
0.445121
0.0750727
0.44616
0.0785537
0.447087
0.0935894
0.0906528
0.422834
0.00804203
-0.421605
0.42475
0.0193979
0.427282
0.0304868
0.430408
0.0409748
0.43402
0.0513342
0.438054
0.0597388
0.442658
0.0704686
0.446801
0.0744111
0.452688
0.0877021
0.0870122
0.4109
0.00675558
-0.409613
0.413217
0.0170808
0.416526
0.0271776
0.420763
0.0367373
0.425948
0.0461489
0.431746
0.0539415
0.438805
0.063409
0.445486
0.067731
0.454467
0.0787211
0.0794184
0.401558
0.00542554
-0.400228
0.404164
0.0144747
0.408014
0.0233285
0.413026
0.0317253
0.419257
0.0399178
0.426339
0.0468589
0.434939
0.054809
0.443597
0.0590736
0.454506
0.0678123
0.0692386
0.394454
0.0040514
-0.39308
0.397267
0.011662
0.401489
0.0191062
0.407041
0.0261741
0.413962
0.0329966
0.421945
0.0388755
0.431496
0.0452579
0.441495
0.0490749
0.453549
0.0557578
0.0573298
0.389247
0.00262294
-0.387818
0.392223
0.00868534
0.39672
0.0146096
0.402657
0.0202368
0.410039
0.0256146
0.418625
0.0302899
0.428744
0.0351388
0.439603
0.0382155
0.452317
0.0430441
0.0443724
0.385109
0.00105109
-0.383537
0.388302
0.00549251
0.393103
0.00980888
0.399425
0.0139145
0.407221
0.0178181
0.416288
0.0212235
0.426779
0.024647
0.438168
0.0268265
0.451204
0.0300086
0.0308375
0.373064
-0.000508263
-0.371504
0.376698
0.00185789
0.382189
0.00431844
0.389438
0.00666576
0.398327
0.00892813
0.4086
0.0109514
0.420273
0.0129733
0.432809
0.0142911
0.446674
0.0161427
0.0163454
0.272345
-0.272853
0.274203
0.278521
0.285187
0.294115
0.305066
0.31804
0.332331
0.348474
0.0785027
0.125491
-0.114027
-0.0899677
0.0680141
0.127805
-0.117316
0.058191
0.130675
-0.120852
0.0486462
0.134219
-0.124674
0.0390888
0.138162
-0.128604
0.0294001
0.142164
-0.132475
0.0196798
0.144915
-0.135195
0.0104715
0.14153
-0.132322
0.00315404
0.119508
-0.112191
0.0588255
-0.0556714
0.0773389
0.135455
-0.0873027
0.0672281
0.137916
0.0572434
0.140659
0.0474589
0.144003
0.0377843
0.147836
0.0281473
0.151801
0.0186424
0.15442
0.00978775
0.150385
0.00288204
0.126414
0.0617075
0.0703656
0.143897
-0.0788077
0.0615192
0.146762
0.0525214
0.149657
0.0434991
0.153026
0.0344729
0.156863
0.0254526
0.160821
0.0165929
0.16328
0.00845999
0.158518
0.0023281
0.132546
0.0640356
0.0602202
0.150893
-0.0672155
0.0528876
0.154095
0.0452718
0.157273
0.037454
0.160843
0.0294949
0.164822
0.0214689
0.168847
0.0136065
0.171142
0.00654638
0.165578
0.00153991
0.137553
0.0655755
0.0495982
0.156729
-0.0554349
0.0435387
0.160154
0.0371962
0.163616
0.030601
0.167438
0.0238091
0.171614
0.0169238
0.175732
0.010233
0.177833
0.00443009
0.171381
0.000684747
0.141298
0.0662603
0.0394548
0.161656
-0.0443813
0.0343975
0.165212
0.0291253
0.168888
0.0236412
0.172923
0.0179848
0.17727
0.0122669
0.18145
0.00680311
0.183297
0.00234358
0.17584
-0.000146258
0.143788
0.066114
0.0295702
0.165729
-0.0336432
0.0254327
0.169349
0.0211535
0.173167
0.0167262
0.17735
0.0121811
0.181815
0.00763364
0.185998
0.00342731
0.187503
0.000143142
0.179125
-0.000848316
0.144779
0.0652657
0.0195931
0.168855
-0.0227187
0.0164358
0.172506
0.013181
0.176422
0.00982564
0.180705
0.00639843
0.185242
0.00302356
0.189372
2.8108e-05
0.190498
-0.00164512
0.180798
-0.00148982
0.144624
0.0637759
0.00942722
0.17095
-0.0115225
0.00732417
0.17461
0.00516015
0.178586
0.00294417
0.182921
0.000708628
0.187478
-0.00140864
0.19149
-0.00297556
0.192065
-0.00339509
0.181217
-0.00208193
0.143311
0.0616939
-0.000716681
-0.000368483
-0.00176116
-0.00281085
-0.00387155
-0.00489945
-0.00573217
-0.0060082
-0.00508509
-0.00261406
0.106275
0.0228217
-0.117608
-0.0114879
0.0945892
0.0234303
-0.0117448
0.0825571
0.0240514
-0.0120193
0.0701627
0.0247083
-0.012314
0.0573902
0.0254069
-0.0126344
0.0442304
0.0261357
-0.0129759
0.0307563
0.0267464
-0.0132723
0.0174415
0.026501
-0.0131862
0.00593241
0.0231395
-0.0116304
0.0122427
-0.00631033
0.105394
0.0341192
-0.116691
0.093761
0.0350628
0.0817944
0.036018
0.0694779
0.0370248
0.0567955
0.0380893
0.0437377
0.0391935
0.0303793
0.0401048
0.0171967
0.0396835
0.00583083
0.0345054
0.0180736
0.104125
0.0453592
-0.115365
0.0925786
0.0466092
0.0807133
0.0478833
0.0685132
0.0492249
0.0559617
0.0506408
0.0430499
0.0521053
0.0298555
0.0532992
0.0168587
0.0526803
0.00568879
0.0456753
0.0237624
0.102389
0.0565096
-0.113539
0.0909677
0.0580306
0.0792468
0.0596041
0.0672097
0.0612619
0.0548391
0.0630115
0.0421265
0.0648179
0.0291546
0.0662712
0.0164098
0.0654251
0.00550028
0.0565849
0.0292626
0.100078
0.0675355
-0.111104
0.0888324
0.069276
0.0773157
0.0711209
0.0655062
0.0730715
0.0533826
0.0751351
0.0409355
0.0772649
0.0282536
0.0789531
0.0158354
0.0778432
0.00527565
0.0671446
0.0345383
0.0970363
0.0783793
-0.10788
0.0860341
0.0802781
0.0747917
0.0823633
0.0632842
0.0845789
0.0514873
0.086932
0.0393904
0.0893617
0.0270871
0.0912564
0.0150862
0.0898442
0.00496473
0.0772661
0.039503
0.0932303
0.0888939
-0.103745
0.0826467
0.0908617
0.0718416
0.0931684
0.0607633
0.0956572
0.049381
0.0983144
0.0376928
0.10105
0.0258125
0.103137
0.0142734
0.101383
0.00463569
0.0869038
0.0441387
0.0875268
0.0988893
-0.0975221
0.0775224
0.100866
0.0673587
0.103332
0.0569608
0.106055
0.0462678
0.109007
0.0352585
0.112059
0.0240467
0.114348
0.0131795
0.11225
0.00419493
0.0958884
0.0483336
0.0838935
0.107782
-0.0927865
0.074749
0.110011
0.0650664
0.113015
0.0549439
0.116178
0.0444778
0.119473
0.0337311
0.122806
0.0228567
0.125223
0.0124151
0.122692
0.00389731
0.104406
0.052231
0.0732664
-0.0795107
0.0659605
0.0581236
0.049627
0.040496
0.0308271
0.0208552
0.0112253
0.00344047
0.20148
0.0137656
-0.0172557
0.203992
0.0251582
-0.0276702
0.204197
0.0307698
-0.0309744
0.205103
0.0326704
-0.0335764
0.204575
0.0387669
-0.0382398
0.202271
0.0473324
-0.0450285
0.196742
0.0593127
-0.0537833
0.186018
0.0754258
-0.0647022
0.162076
0.100813
-0.0768706
0.136378
-0.091911
0.201259
0.010496
0.203639
0.0227789
0.203788
0.0306207
0.204622
0.0318358
0.203992
0.0393976
0.201535
0.0497887
0.195815
0.0650331
0.184785
0.0864557
0.160739
0.124859
0.180427
0.200913
0.00757317
0.203005
0.020686
0.203003
0.0306229
0.203632
0.0312069
0.202764
0.0402656
0.200031
0.0525221
0.194018
0.0710461
0.182581
0.097893
0.158393
0.149047
0.223455
0.200435
0.00512809
0.202096
0.0190249
0.201854
0.0308653
0.202143
0.030918
0.200905
0.0415036
0.197769
0.0556578
0.191348
0.0774669
0.179395
0.109846
0.154991
0.17345
0.264907
0.199819
0.00329848
0.200915
0.0179289
0.200353
0.0314276
0.200166
0.0311047
0.198428
0.0432417
0.194764
0.0593217
0.187805
0.0844265
0.175229
0.122422
0.150856
0.197823
0.304659
0.199058
0.00223
0.199471
0.0175163
0.198519
0.0323798
0.197718
0.0319056
0.195354
0.0456059
0.191034
0.0636414
0.183385
0.0920754
0.170075
0.135731
0.146318
0.22158
0.343097
0.198143
0.00207726
0.197772
0.017887
0.19637
0.0337821
0.194813
0.0334625
0.191703
0.0487157
0.186597
0.0687473
0.178116
0.100557
0.163888
0.149959
0.141333
0.244135
0.380686
0.197063
0.00300396
0.195832
0.0191184
0.193927
0.0356867
0.191469
0.0359209
0.187503
0.0526815
0.181481
0.0747694
0.172068
0.10997
0.156693
0.165334
0.135377
0.265451
0.418541
0.19582
0.00517388
0.193677
0.0212615
0.191215
0.0381483
0.187705
0.0394313
0.182781
0.0576051
0.17573
0.08182
0.165386
0.120314
0.149456
0.181264
0.129845
0.285062
0.455599
0.194533
0.0086306
0.191334
0.0244602
0.188288
0.0411944
0.183503
0.044217
0.177618
0.0634894
0.169415
0.0900237
0.157513
0.132216
0.13989
0.198887
0.119234
0.305717
0.495323
0.303158
0.00748233
0.305523
0.0220958
0.309231
0.0374865
0.310926
0.0425221
0.313377
0.061038
0.316233
0.0871679
0.320963
0.127485
0.33075
0.189101
0.356471
0.279995
0.435808
0.415986
0.303943
0.00554982
0.306653
0.0193858
0.310741
0.033398
0.313395
0.0398687
0.317139
0.0572934
0.322177
0.0821306
0.33029
0.119372
0.344911
0.174479
0.375107
0.2498
0.376678
0.434237
0.304687
0.00287278
0.307918
0.016155
0.312261
0.0290553
0.315813
0.0363168
0.320695
0.0524111
0.327557
0.0752688
0.338334
0.108596
0.356166
0.156646
0.388889
0.217077
0.318019
0.447548
0.305442
-0.000558792
0.309181
0.0124156
0.313761
0.0244758
0.318073
0.0320044
0.323976
0.0465081
0.332384
0.0668612
0.345233
0.0957463
0.365385
0.136494
0.398914
0.183548
0.261865
0.455068
0.306239
-0.00478806
0.310452
0.00820292
0.315203
0.0197249
0.320125
0.0270825
0.326899
0.0397339
0.336574
0.0571859
0.35099
0.0813306
0.372761
0.114723
0.405976
0.150333
0.209143
0.458698
0.307152
-0.00993008
0.31176
0.00359478
0.316559
0.0149258
0.321925
0.0217172
0.329406
0.0322531
0.340081
0.0465102
0.355647
0.0657648
0.378464
0.0919061
0.410864
0.117933
0.160042
0.459965
0.308225
-0.0161454
0.313134
-0.00131387
0.317802
0.0102584
0.323432
0.0160868
0.331451
0.0242336
0.342878
0.0350836
0.359259
0.0493842
0.382684
0.0684804
0.41416
0.0864575
0.114224
0.459978
0.309519
-0.0236543
0.314569
-0.00636345
0.318825
0.00600227
0.324526
0.0103859
0.332926
0.0158336
0.344881
0.0231282
0.361818
0.0324472
0.385555
0.0447431
0.416215
0.0557978
0.071168
0.459271
0.308901
-0.030545
0.313171
-0.0106339
0.316856
0.00231769
0.322555
0.00468677
0.331182
0.00720661
0.343479
0.0108312
0.360788
0.0151387
0.384647
0.0208841
0.414844
0.0256007
0.0318174
0.454194
0.271465
0.260831
0.263149
0.267836
0.275042
0.285874
0.301012
0.321896
0.347497
0.379315
0.429773
-0.103755
0.433715
-0.0912446
0.435947
-0.0810399
0.438567
-0.0698354
0.441776
-0.0586439
0.445204
-0.0478087
0.44851
-0.0369501
0.45141
-0.0256183
0.453781
-0.0138935
-0.00206456
0.434639
-0.104157
0.434527
-0.0911326
0.433678
-0.080191
0.433535
-0.0696927
0.433937
-0.059045
0.434467
-0.048339
0.43498
-0.0374636
0.435589
-0.026227
0.436345
-0.0146491
-0.0029011
0.44125
-0.0978584
0.436501
-0.0863835
0.432148
-0.0758385
0.428452
-0.0659966
0.42562
-0.056213
0.423516
-0.0462352
0.422066
-0.0360133
0.421286
-0.0254464
0.421151
-0.0145146
-0.00335472
0.444756
-0.0875466
0.436412
-0.0780392
0.429315
-0.0687417
0.423306
-0.059988
0.418453
-0.0513601
0.414691
-0.0424724
0.411928
-0.0332508
0.410148
-0.0236663
0.409365
-0.0137319
-0.00360266
0.446134
-0.0749827
0.435518
-0.0674225
0.426518
-0.0597416
0.418896
-0.0523667
0.412603
-0.0450672
0.407611
-0.0374803
0.403881
-0.0295201
0.401403
-0.0211888
0.400193
-0.0125215
-0.00363817
0.446145
-0.0611622
0.434137
-0.0554149
0.423851
-0.0494552
0.415116
-0.0436325
0.407849
-0.0377993
0.402027
-0.0316584
0.397638
-0.0251313
0.394682
-0.0182326
0.393165
-0.0110048
-0.00355359
0.445441
-0.0466252
0.432594
-0.0425684
0.421492
-0.0383529
0.412038
-0.0341782
0.404137
-0.0298987
0.397771
-0.0252925
0.392944
-0.0203044
0.389668
-0.0149561
0.38796
-0.00929684
-0.0034119
0.44424
-0.0315936
0.430825
-0.0291543
0.419204
-0.0267315
0.409277
-0.0242509
0.400941
-0.0215635
0.394189
-0.0185399
0.389041
-0.0151562
0.385527
-0.0114422
0.383681
-0.00745075
-0.00326845
0.438036
-0.015435
0.423836
-0.0149549
0.411478
-0.0143729
0.400778
-0.0135511
0.391645
-0.0124302
0.384099
-0.0109948
0.378222
-0.00927835
0.374111
-0.00733162
0.371859
-0.00519859
-0.00291396
0.36388
0.348925
0.334552
0.321001
0.30857
0.297576
0.288297
0.280966
0.275767
0.00810362
0.0725912
-0.0806948
0.0158227
0.175752
-0.183471
0.0191167
0.22468
-0.227974
0.0192542
0.239643
-0.239781
0.0179662
0.240495
-0.239207
0.0162486
0.237282
-0.235564
0.0144631
0.233457
-0.231671
0.0126963
0.229514
-0.227747
0.011
0.224077
-0.222381
0.212465
0.00952021
-0.210985
0.00969556
0.0628956
0.0213739
0.164074
0.0291599
0.216894
0.0335126
0.23529
0.0361862
0.237821
0.038385
0.235083
0.0405975
0.231244
0.0428318
0.22728
0.0445917
0.222318
0.212632
0.0444248
0.0102834
0.0526121
0.0249209
0.149436
0.0367899
0.205025
0.0453275
0.226753
0.052001
0.231148
0.0581004
0.228983
0.06427
0.225075
0.0705949
0.220955
0.076444
0.216468
0.20959
0.0794857
0.00984811
0.042764
0.0260358
0.133249
0.0410318
0.190029
0.0532647
0.21452
0.0636416
0.220771
0.0733355
0.21929
0.0830795
0.215331
0.0931228
0.210912
0.10314
0.206451
0.201363
0.111367
0.00861921
0.0341448
0.0248336
0.117034
0.041639
0.173223
0.0566661
0.199493
0.0701157
0.207321
0.0828381
0.206567
0.0955177
0.202651
0.108507
0.197922
0.121815
0.193144
0.188276
0.134902
0.00695641
0.0271884
0.0219356
0.102055
0.0391554
0.156004
0.0558101
0.182838
0.0714068
0.191725
0.086339
0.191635
0.1011
0.18789
0.116024
0.182999
0.131279
0.177888
0.17244
0.147114
0.00524732
0.0219411
0.0183012
0.0890012
0.0348443
0.139461
0.0520036
0.165679
0.0687441
0.174984
0.0849879
0.175391
0.100956
0.171922
0.116872
0.167082
0.132864
0.161897
0.155962
0.149342
0.00378207
0.018159
0.0148118
0.0779714
0.0300719
0.1242
0.0468591
0.148892
0.0637971
0.158046
0.080418
0.15877
0.0966668
0.155674
0.112615
0.151134
0.128381
0.14613
0.140335
0.144008
0.00273495
0.0154241
0.0121023
0.0686041
0.0260164
0.110286
0.0420386
0.13287
0.0586526
0.141432
0.0751607
0.142262
0.0913333
0.139501
0.107161
0.135306
0.122753
0.130539
0.124425
0.138664
0.00208458
0.0133395
0.0102698
0.0604189
0.0230104
0.0975457
0.038093
0.117787
0.053957
0.125568
0.0697522
0.126467
0.0850695
0.124184
0.0997049
0.120671
0.113426
0.116817
0.111846
0.126005
0.00176579
0.0115737
0.00925393
0.0529308
0.0211837
0.085616
0.0355178
0.103453
0.0507525
0.110333
0.0660487
0.111171
0.0810226
0.10921
0.0955498
0.106143
0.10961
0.102757
0.0997058
0.121751
0.0016438
0.0099299
0.00876691
0.0458077
0.0201902
0.0741926
0.0339853
0.0896578
0.0487135
0.0956052
0.0635635
0.0963206
0.0781526
0.0946207
0.0923298
0.0919663
0.106061
0.089025
0.0870588
0.118708
0.00158423
0.00834567
0.00848081
0.0389111
0.0195405
0.063133
0.0328886
0.0763097
0.0471315
0.0813622
0.0614846
0.0819676
0.075574
0.0805312
0.0892458
0.0782945
0.10245
0.0758204
0.0744155
0.115094
0.00154248
0.00680319
0.00827788
0.0321757
0.0190692
0.0523417
0.0320701
0.0633088
0.0459204
0.0675119
0.0598624
0.0680255
0.0735381
0.0668556
0.0867989
0.0650336
0.0995925
0.0630268
0.0619766
0.112031
0.00151344
0.00528975
0.00813693
0.0255522
0.0187444
0.0417342
0.0315067
0.0505465
0.0450872
0.0539313
0.0587509
0.0543619
0.0721559
0.0534506
0.085164
0.0520255
0.0977307
0.0504601
0.0496838
0.110023
0.00149359
0.00379616
0.0080409
0.0190049
0.0185274
0.0312476
0.031136
0.037938
0.044546
0.0405213
0.0580394
0.0408685
0.0712875
0.0402025
0.0841621
0.0391509
0.0966265
0.0379958
0.0374567
0.108854
0.00148186
0.0023143
0.00797975
0.012507
0.0183889
0.0208385
0.0309014
0.0254255
0.0442083
0.0272144
0.0576026
0.0274742
0.070765
0.0270401
0.0835739
0.026342
0.0959973
0.0255724
0.0252519
0.108202
0.00147932
0.000834973
0.00795011
0.0060362
0.018312
0.0104766
0.0307644
0.012973
0.0440075
0.0139713
0.0573423
0.0141394
0.0704557
0.0139267
0.0832308
0.0135669
0.0956378
0.0131654
0.013052
0.107838
0.00148725
-0.000652277
0.00795126
-0.000427812
0.018286
0.00014189
0.0306979
0.000561144
0.0438952
0.000773983
0.0571859
0.000848669
0.0702622
0.000850463
0.0830105
0.000818552
0.0954029
0.000772968
0.000859569
0.107595
0.00150802
0.00798042
0.018303
0.0306832
0.0438379
0.0570831
0.0701167
0.0828288
0.0951934
0.107368
0.138225
0.271155
-0.28763
0.150263
0.117724
-0.129762
0.159729
0.0403945
-0.0498602
0.167035
0.00563946
-0.012946
0.173164
-0.00801319
0.00188479
0.17862
-0.0121038
0.00664791
0.183626
-0.0121202
0.00711371
0.188277
-0.0105241
0.00587293
0.19262
-0.00849342
0.00415071
-0.00560047
0.00167397
0.141326
0.248538
0.156416
0.102634
0.166377
0.0304331
0.173377
-0.00136048
0.178714
-0.0133502
0.183198
-0.016588
0.18714
-0.0160621
0.190679
-0.0140631
0.193893
-0.0117074
-0.00840578
0.144243
0.219389
0.161813
0.0850643
0.172268
0.0199774
0.178968
-0.00806048
0.183708
-0.0180901
0.187355
-0.0202346
0.190349
-0.0190565
0.192888
-0.0166016
0.195083
-0.0139027
-0.0101969
0.147066
0.184354
0.166642
0.0654889
0.177555
0.00906346
0.184024
-0.0145289
0.188186
-0.0222519
0.191088
-0.023137
0.193242
-0.0212106
0.194894
-0.0182532
0.196185
-0.0151943
-0.011086
0.149839
0.144539
0.170921
0.0444067
0.182196
-0.00221146
0.188458
-0.0207907
0.192127
-0.0259209
0.194384
-0.0253942
0.195809
-0.0226357
0.19669
-0.0191347
0.197196
-0.0157003
-0.0111901
0.152224
0.101168
0.174583
0.0220479
0.186161
-0.0137897
0.192251
-0.0268804
0.195509
-0.0291796
0.197225
-0.0271102
0.198037
-0.0234472
0.198269
-0.0193667
0.198111
-0.0155426
-0.0106303
0.154167
0.0552036
0.177575
-0.00136048
0.189413
-0.0256278
0.195376
-0.0328428
0.198313
-0.0321172
0.199597
-0.028394
0.199914
-0.0237645
0.199621
-0.0190735
0.198925
-0.0148469
-0.00953174
0.155619
0.00742241
0.179844
-0.0255855
0.191917
-0.0377007
0.197809
-0.0387347
0.200521
-0.0348291
0.201486
-0.0293591
0.201432
-0.0237106
0.200741
-0.0183822
0.199635
-0.0137417
-0.00802293
0.15652
-0.0415019
0.181351
-0.0504165
0.193642
-0.0499922
0.199531
-0.0446241
0.202118
-0.0374157
0.202881
-0.0301224
0.202581
-0.0234106
0.201621
-0.0174221
0.200237
-0.0123578
-0.00623501
0.156832
0.182058
0.194566
0.200529
0.203094
0.203775
0.203356
0.202258
0.200728
0.146733
0.0134622
-0.160195
0.136463
0.0102695
0.131383
0.00507996
0.129991
0.00139181
0.130395
-0.000403418
0.131396
-0.00100106
0.132422
-0.00102589
0.133254
-0.000831945
0.133825
-0.000571375
-0.000221384
0.235002
0.0819016
-0.303441
0.204751
0.0405206
0.192987
0.0168436
0.189576
0.00480278
0.189586
-0.000413721
0.190786
-0.00220047
0.192181
-0.00242142
0.193364
-0.0020146
0.194208
-0.00141576
-0.000563
0.244678
0.157245
-0.320022
0.212214
0.0729853
0.199819
0.0292384
0.196312
0.00830931
0.196385
-0.000485951
0.197665
-0.00348084
0.199139
-0.00389555
0.200386
-0.00326163
0.201282
-0.00231119
-0.000928253
0.239796
0.226318
-0.308869
0.210076
0.102705
0.199042
0.0402726
0.196257
0.0110943
0.196679
-0.00090822
0.198147
-0.00494884
0.199704
-0.00545228
0.200989
-0.00454651
0.201901
-0.00322339
-0.00129898
0.23393
-0.295242
0.206873
0.197286
0.195434
0.196411
0.19811
0.199771
0.201098
0.202025
0.0156299
6.05379e-05
-0.0156904
0.0175436
-0.0019137
0.0214388
-0.00389522
0.0277321
-0.00629337
0.0374815
-0.00974938
0.0515271
-0.0140455
0.0723263
-0.0207993
0.0967759
-0.0244496
0.129456
-0.03268
-0.0307389
0.0440678
-0.000572938
-0.0434343
0.0503488
-0.00819468
0.0627914
-0.0163379
0.0824129
-0.0259148
0.10993
-0.0372666
0.144798
-0.0489136
0.185679
-0.0616798
0.226649
-0.0654204
0.269022
-0.0750528
-0.0651577
0.0678996
-0.00236795
-0.0661045
0.0779209
-0.018216
0.0967076
-0.0351245
0.124437
-0.0536443
0.159492
-0.0723211
0.198369
-0.0877913
0.235934
-0.0992444
0.268743
-0.0982299
0.297533
-0.103842
-0.0876472
0.0860652
-0.00539812
-0.0830351
0.0985289
-0.0306797
0.12042
-0.0570155
0.150128
-0.0833523
0.183719
-0.105912
0.21656
-0.120632
0.244356
-0.12704
0.269127
-0.123002
0.290148
-0.124863
-0.106367
0.0987938
-0.0946717
0.112539
0.135009
0.163024
0.192013
0.218495
0.240797
0.261804
0.275605
0.0955186
-0.0896714
0.0979791
-0.103826
0.086498
-0.0921415
0.101162
0.077048
-0.0954652
0.104915
0.0667466
-0.098886
0.109187
0.0554831
-0.102323
0.113586
0.043311
-0.10575
0.117922
0.0304211
-0.10853
0.12142
0.0174002
-0.107411
0.120432
0.00597539
-0.0928789
0.104304
-0.0477876
0.053763
0.105093
-0.0793698
-0.115395
0.0944372
-0.0814853
0.0829579
-0.0839859
0.0707536
-0.0866816
0.0579809
-0.0895503
0.044744
-0.0925134
0.031166
-0.0949517
0.0177326
-0.093978
0.00608085
-0.0812272
-0.0417068
0.103976
-0.0680999
-0.115245
0.0925756
-0.0700854
0.0809013
-0.0723116
0.0688963
-0.0746766
0.0564968
-0.0771508
0.0436565
-0.0796731
0.0304304
-0.0817256
0.0172899
-0.0808375
0.00588637
-0.0698236
-0.0358204
0.10587
-0.0567294
-0.11724
0.0943296
-0.0585453
0.0824571
-0.0604391
0.0701943
-0.0624138
0.0575051
-0.0644616
0.0443788
-0.0665468
0.0308976
-0.0682445
0.0175492
-0.0674891
0.00598886
-0.0582633
-0.0298316
0.106599
-0.0453358
-0.117992
0.0949208
-0.0468676
0.0828936
-0.0484118
0.070494
-0.0500142
0.0577017
-0.0516693
0.0445048
-0.0533499
0.0309748
-0.0547145
0.0175848
-0.054099
0.00598347
-0.046662
-0.0238481
0.10705
-0.0339594
-0.118426
0.0953428
-0.0351603
0.0832741
-0.0363432
0.0708257
-0.0375657
0.0579792
-0.0388229
0.0447243
-0.040095
0.0311334
-0.0411236
0.0176798
-0.0406455
0.00602293
-0.035005
-0.0178252
0.107291
-0.022589
-0.118661
0.0955634
-0.0234332
0.0834689
-0.0242486
0.0709909
-0.0250877
0.0581141
-0.0259461
0.0448295
-0.0268104
0.0312094
-0.0275034
0.0177268
-0.0271629
0.00604544
-0.0233237
-0.0117797
0.107349
-0.0112211
-0.118717
0.0956114
-0.0116957
0.083507
-0.0121442
0.0710206
-0.0126013
0.0581373
-0.0130627
0.0448479
-0.013521
0.0312245
-0.01388
0.0177394
-0.0136778
0.00605272
-0.011637
-0.00572699
0.107205
0.00011613
-0.118542
0.0954724
3.72144e-05
0.0833755
-4.73205e-05
0.0709005
-0.000126303
0.0580321
-0.000194332
0.0447612
-0.000250148
0.0311595
-0.000278334
0.0176984
-0.000216761
0.0060387
2.27107e-05
0.000311713
0.106829
-0.118201
0.0951215
0.0830549
0.0706147
0.0577859
0.0445599
0.0310093
0.0176063
0.00599862
0.0219303
-0.208111
-0.0248046
0.0170416
-0.217492
0.011582
-0.222288
0.00607454
-0.226164
0.000698763
-0.230188
-0.00430046
-0.234208
-0.00812662
-0.235954
-0.00911861
-0.226982
-0.00577051
-0.186819
-0.0864653
0.0525846
-0.202343
-0.058353
0.0443081
-0.209216
0.0354694
-0.213449
0.0266883
-0.217382
0.0181139
-0.221614
0.00988941
-0.225983
0.00253425
-0.228599
-0.00251526
-0.221932
-0.0030966
-0.186238
-0.0895619
0.0786106