/*--------------------------------*- C++ -*----------------------------------*\
  =========                 |
  \\      /  F ield         | OpenFOAM: The Open Source CFD Toolbox
   \\    /   O peration     | Website:  https://openfoam.org
    \\  /    A nd           | Version:  13
     \\/     M anipulation  |
\*---------------------------------------------------------------------------*/
FoamFile
{
    format      ascii;
    class       volVectorField;
    location    "1";
    object      U;
}
// * * * * * * * * * * * * * * * * * * * * * * * * * * * * * * * * * * * * * //

dimensions      [0 1 -1 0 0 0 0];

internalField   nonuniform List<vector> 
440
(
(-0.0876151 0.0762187 -1.1741e-19)
(0.473271 -0.245104 5.5308e-20)
(1.12357 -0.558433 5.46852e-19)
(1.55989 -0.733256 -1.36806e-18)
(1.73387 -0.811982 4.08516e-20)
(0.0491333 -0.0321576 1.18049e-19)
(0.895859 -0.32354 -3.72707e-19)
(1.60125 -0.526397 -5.21758e-19)
(1.96619 -0.609137 1.69095e-19)
(2.11267 -0.655855 8.40965e-20)
(0.295531 -0.112871 6.24507e-20)
(1.37566 -0.301 1.90125e-18)
(2.01388 -0.400365 -1.85259e-18)
(2.26304 -0.435351 -5.16657e-18)
(2.29395 -0.432833 1.9438e-18)
(0.622984 -0.108089 -2.24455e-19)
(1.79097 -0.161543 -1.20418e-18)
(2.28742 -0.188893 3.66553e-18)
(2.41172 -0.195796 3.75314e-18)
(2.3986 -0.20863 -1.03206e-18)
(0.943381 -0.00390386 -5.20409e-19)
(2.06272 0.0473001 -1.0673e-18)
(2.40619 0.0528604 3.04636e-18)
(2.44569 0.0261268 3.00365e-18)
(2.39515 0.00725117 9.69695e-19)
(-0.0304111 0.0784687 7.35677e-20)
(-0.0961299 0.00461725 -1.76893e-19)
(-0.081843 -0.123693 4.28977e-19)
(-0.0269063 -0.236296 -1.29066e-19)
(0.0668418 -0.326818 -1.23467e-18)
(-0.0608406 0.179865 4.69063e-20)
(-0.0848761 0.0574479 1.28841e-19)
(-0.00112144 -0.181838 1.04492e-19)
(0.111532 -0.397165 6.6706e-20)
(0.26745 -0.573612 -5.56591e-20)
(-0.104798 0.2332 -5.90838e-19)
(-0.0551261 0.060299 -1.97661e-19)
(0.14711 -0.26731 -2.86554e-19)
(0.354557 -0.552412 1.33731e-18)
(0.594394 -0.771894 -2.89866e-20)
(-0.13701 0.226202 -1.11344e-19)
(0.0236126 -0.00578109 1.45097e-19)
(0.377176 -0.384973 -4.34567e-19)
(0.700358 -0.687551 -1.27506e-18)
(0.99302 -0.888883 3.1044e-19)
(-0.138295 0.167344 1.68449e-19)
(0.187552 -0.123193 8.46085e-20)
(0.702641 -0.500379 -2.33142e-19)
(1.11632 -0.761769 6.74798e-19)
(1.38882 -0.901008 2.07642e-18)
(0.497614 -0.283775 -4.5866e-20)
(0.857405 -0.150864 8.53491e-20)
(0.947315 -0.0919328 6.62218e-21)
(0.992958 -0.0565014 -1.52619e-20)
(1.01612 -0.0227476 -4.14238e-21)
(0.499326 -0.442101 4.40132e-19)
(0.882699 -0.209886 -4.08923e-21)
(0.962054 -0.116115 -8.70567e-22)
(1.00277 -0.0661471 1.11686e-20)
(1.0215 -0.0258002 8.72562e-21)
(0.574303 -0.554849 1.99598e-19)
(0.916823 -0.27027 6.14237e-20)
(0.98221 -0.139404 7.78993e-23)
(1.01468 -0.0745943 2.02725e-20)
(1.02756 -0.0283199 -3.10437e-21)
(0.77417 -0.623784 -4.67233e-19)
(0.966512 -0.326021 -9.60556e-21)
(1.00799 -0.160715 -1.67914e-20)
(1.02821 -0.0814858 -1.6846e-20)
(1.03403 -0.0300814 3.96205e-21)
(1.08069 -0.646773 -1.00176e-19)
(1.05572 -0.364096 -9.3488e-20)
(1.04601 -0.17869 0)
(1.04467 -0.087788 1.9525e-20)
(1.04094 -0.0314848 3.44613e-21)
(1.55616 -0.606054 2.07872e-21)
(1.25079 -0.353546 5.34293e-20)
(1.12941 -0.174156 4.1261e-23)
(1.07896 -0.0846533 1.11053e-20)
(1.05316 -0.0302511 -1.18156e-20)
(1.56252 -0.381968 5.64681e-20)
(1.25083 -0.216081 -5.83321e-20)
(1.13927 -0.116984 -6.90517e-22)
(1.09036 -0.0630109 -2.53007e-20)
(1.05998 -0.0236841 0)
(1.6054 -0.275434 -4.38914e-20)
(1.3036 -0.1627 5.32394e-21)
(1.16998 -0.0894022 -2.13134e-20)
(1.10706 -0.0472335 9.0687e-21)
(1.06689 -0.0174755 -4.87588e-21)
(1.60254 -0.142687 -6.28532e-20)
(1.30203 -0.0774363 8.36481e-21)
(1.16419 -0.0443137 -3.21873e-21)
(1.10061 -0.0256136 -1.31779e-35)
(1.05873 -0.00994704 -1.48165e-21)
(1.20165 -0.0197912 2.75499e-21)
(1.01812 -0.00830911 -7.44718e-21)
(0.940176 -0.00590016 3.31976e-21)
(0.90013 -0.00406542 -2.29321e-21)
(0.869667 -0.00163793 1.07893e-21)
(2.19751 -0.0407349 -1.16591e-18)
(2.27007 -0.156338 -1.39889e-18)
(2.14852 -0.39406 1.42949e-18)
(2.13004 -0.475792 -2.00665e-19)
(1.87543 -0.777585 -9.93219e-20)
(2.03427 -0.0456186 2.06156e-20)
(2.09121 -0.0595633 -3.49425e-20)
(2.04019 -0.247964 -7.44866e-20)
(2.01237 -0.235396 -1.58966e-19)
(1.93711 -0.473431 4.9446e-21)
(1.9588 -0.0590598 5.47941e-20)
(1.98083 -0.0517913 1.05846e-19)
(1.95788 -0.178129 -1.56543e-19)
(1.91522 -0.160421 4.04299e-20)
(1.87646 -0.301795 9.30255e-20)
(1.87342 -0.0480376 9.59453e-20)
(1.87631 -0.0482331 6.31194e-20)
(1.87454 -0.115067 -1.02786e-20)
(1.83266 -0.105775 5.88077e-20)
(1.83011 -0.174409 -4.24333e-21)
(1.48033 -0.0321819 1.35562e-19)
(1.44698 -0.0281902 -1.08714e-20)
(1.42282 -0.0380137 1.9198e-20)
(1.36811 -0.029533 1.93496e-21)
(1.35732 -0.0405464 3.84652e-20)
(1.45322 0.787496 1.01073e-18)
(1.43135 0.88297 -2.88369e-19)
(1.44115 1.00583 -1.1792e-18)
(1.38058 1.05174 6.63922e-19)
(0.860238 0.77185 -1.79696e-19)
(1.74833 0.693225 -5.33682e-19)
(1.7385 0.783769 -2.78804e-18)
(1.75116 0.896523 -1.09528e-18)
(1.68162 0.930923 -4.10652e-19)
(1.04783 0.681654 -6.66617e-19)
(2.01265 0.579237 7.51906e-19)
(2.01725 0.655542 1.97372e-19)
(2.02905 0.750747 -2.23434e-18)
(1.93242 0.75431 -6.71662e-19)
(1.18392 0.537818 5.45276e-19)
(2.19941 0.407167 2.41569e-18)
(2.23499 0.468244 1.8086e-18)
(2.25422 0.543027 -2.15159e-18)
(2.11164 0.534422 -1.75098e-18)
(1.23439 0.361509 -3.63874e-19)
(2.34106 0.228264 1.27189e-18)
(2.38235 0.2681 -9.59857e-19)
(2.38417 0.311942 7.01329e-19)
(2.15916 0.295323 6.64022e-19)
(1.15677 0.170283 -6.61611e-19)
(0.522522 0.355579 -5.39466e-19)
(0.446015 0.381823 -4.60759e-19)
(0.341806 0.410715 6.71487e-20)
(0.215386 0.425329 -2.7613e-20)
(0.0549215 0.318192 6.95157e-20)
(0.633052 0.53841 1.34752e-19)
(0.565517 0.586618 -2.69316e-19)
(0.473112 0.646758 1.71976e-19)
(0.351892 0.694794 -7.83479e-20)
(0.151051 0.532359 1.1047e-19)
(0.740274 0.727301 2.09629e-19)
(0.676306 0.795999 3.93433e-19)
(0.612223 0.878652 2.54311e-20)
(0.520936 0.922648 -2.45305e-19)
(0.283463 0.688121 1.90206e-19)
(0.978538 0.805752 1.95727e-19)
(0.931772 0.885769 -5.19359e-19)
(0.881872 0.977311 -1.59322e-18)
(0.796624 1.03434 6.54059e-19)
(0.469683 0.774581 -1.8364e-19)
(1.12072 0.844613 -1.34749e-19)
(1.12927 0.950436 -2.08478e-19)
(1.13602 1.05717 -2.80671e-19)
(1.07692 1.10079 -3.2611e-19)
(0.664508 0.811667 -5.55382e-21)
(0.823911 0.0251401 -1.01774e-19)
(1.14431 0.0586263 -3.86933e-20)
(0.929699 0.0932611 -3.3303e-21)
(0.954391 0.123939 -3.3873e-19)
(0.79383 0.228004 2.89181e-19)
(0.823232 0.0201139 7.64063e-20)
(1.14492 0.0619706 1.29605e-19)
(0.939159 0.103536 1.25189e-19)
(0.967544 0.158291 5.69963e-20)
(0.873989 0.310446 -1.11761e-20)
(0.82253 0.0158843 1.00851e-19)
(1.14425 0.064021 -4.49133e-21)
(0.952628 0.114235 -3.49485e-22)
(0.978345 0.181473 1.55221e-19)
(1.0122 0.422017 -4.66975e-19)
(0.821371 0.0126058 -3.46198e-21)
(1.14366 0.0646682 -1.62233e-19)
(0.964004 0.123676 -6.23523e-20)
(1.0165 0.196599 -4.20713e-19)
(1.12161 0.478387 9.99891e-20)
(0.81878 0.0116915 -2.54097e-20)
(1.14483 0.0653139 4.20636e-20)
(0.976531 0.131765 2.99159e-20)
(1.04164 0.216776 4.56432e-19)
(1.30938 0.593923 -4.58375e-19)
(0.808632 0.00943012 -1.29309e-20)
(1.16438 0.0603948 7.60541e-20)
(0.98855 0.129282 -9.09222e-20)
(1.16245 0.180685 8.03569e-19)
(1.27242 0.613688 -3.85913e-19)
(0.806747 -0.00136879 -3.74293e-21)
(1.17594 0.0480915 -7.18587e-20)
(1.0207 0.0997655 3.67406e-21)
(1.1927 0.161636 -2.41931e-19)
(1.34246 0.441717 6.68268e-21)
(0.806054 -0.00682272 -6.45097e-21)
(1.18694 0.0319708 1.00213e-35)
(1.04943 0.0737605 -4.46251e-20)
(1.20715 0.113588 8.30449e-20)
(1.41476 0.319271 1.55396e-19)
(0.804517 -0.0270743 7.81152e-21)
(1.18653 0.00719179 -1.5017e-20)
(1.06272 0.0426557 1.52473e-20)
(1.21008 0.0717861 3.5225e-20)
(1.46282 0.186678 -2.4662e-19)
(0.764901 -0.0210847 -3.55113e-20)
(1.02791 -0.00992427 -1.64583e-21)
(0.892234 0.0106454 2.35007e-20)
(1.04041 0.0138986 -1.28201e-20)
(1.2635 0.0465342 -5.76644e-20)
(1.60576 0.596888 3.2047e-19)
(1.76365 0.520829 7.39749e-19)
(1.96164 0.441018 -1.06145e-18)
(2.07147 0.281 3.29604e-20)
(2.21128 0.163502 4.37118e-19)
(1.63912 0.366263 5.27855e-20)
(1.73625 0.317422 9.3775e-19)
(1.87078 0.275947 1.03881e-19)
(1.939 0.155819 -8.92118e-19)
(2.04693 0.112568 -2.83133e-19)
(1.67002 0.231721 -2.19578e-19)
(1.75036 0.188329 -1.45518e-19)
(1.8346 0.159679 1.45933e-19)
(1.88236 0.0744101 -2.72215e-19)
(1.94879 0.0527339 2.39185e-19)
(1.66016 0.127753 3.42802e-19)
(1.72622 0.0956412 -6.25926e-21)
(1.78385 0.0760521 2.02519e-19)
(1.81658 0.0280682 1.67148e-19)
(1.85639 0.0149632 -1.59282e-19)
(1.43683 0.0231766 -4.09584e-20)
(1.48226 0.00957121 2.2052e-19)
(1.50107 0.000279389 9.3615e-20)
(1.49863 -0.0130381 -1.85204e-19)
(1.49247 -0.0179088 7.65167e-22)
(1.41309 -0.0411225 5.89583e-20)
(2.50854 -0.00437926 -5.74624e-19)
(2.72511 -0.00252767 1.55176e-18)
(2.71113 0.0579283 7.40955e-19)
(2.49337 0.0598099 -4.76595e-19)
(0.964682 0.0964721 1.15719e-19)
(2.32712 0.14079 -6.22518e-19)
(2.72795 0.16798 -9.02971e-19)
(2.72515 0.174895 1.29537e-18)
(2.52644 0.192786 -9.63096e-19)
(0.286445 0.0924107 -5.86573e-20)
(1.77114 0.224972 6.44951e-19)
(2.52292 0.289711 1.24193e-19)
(2.80655 0.346714 1.37823e-18)
(2.75231 0.291706 7.79927e-19)
(-0.124653 -0.0721192 2.06291e-19)
(0.841624 0.142406 2.25307e-19)
(1.87117 0.316143 -7.78063e-19)
(2.408 0.395827 9.60658e-20)
(2.84381 0.488476 1.00531e-18)
(-0.262491 -0.253856 2.24277e-19)
(0.0830797 -0.105057 -1.12591e-19)
(0.96546 0.192293 -4.52116e-20)
(1.63189 0.415694 4.03712e-19)
(2.23452 0.600265 2.72638e-19)
(-0.288622 -0.382453 2.7079e-19)
(-0.206233 -0.320885 -3.48959e-20)
(0.317462 0.00785889 4.71213e-20)
(0.819994 0.338766 -5.99845e-19)
(1.5886 0.662296 7.20915e-20)
(-0.254393 -0.421095 -2.15711e-19)
(-0.280693 -0.370419 3.75743e-20)
(-0.0301168 -0.0752861 2.15099e-19)
(0.253545 0.277976 -4.19779e-19)
(0.775274 0.644292 -1.72017e-19)
(-0.166785 -0.344113 -2.18536e-19)
(-0.258588 -0.296042 2.62252e-20)
(-0.181709 -0.0694024 -6.26595e-19)
(-0.0542138 0.190602 -2.13551e-18)
(0.208604 0.465897 1.00467e-18)
(-0.0781069 -0.202058 -3.60541e-20)
(-0.178491 -0.185788 -1.2248e-19)
(-0.173272 -0.0678202 5.23876e-19)
(-0.112314 0.0661362 1.4547e-18)
(0.0162019 0.212552 -1.79306e-19)
(-0.0316317 -0.0537683 1.414e-20)
(-0.119085 -0.080543 -5.24064e-20)
(-0.129053 -0.085932 2.87511e-20)
(-0.0901068 -0.0783442 -1.428e-20)
(-0.0101584 -0.0588755 -3.84482e-19)
(1.02218 0.406758 2.83618e-19)
(0.923458 0.152379 5.71374e-20)
(0.929923 0.0330353 -1.92584e-21)
(0.968121 -0.00339304 1.71569e-20)
(0.998856 -0.00479285 6.03449e-22)
(0.527056 0.399105 2.96807e-19)
(0.861725 0.0764645 -6.60497e-20)
(0.929062 -0.00830507 -3.29262e-20)
(0.97523 -0.0195954 1.86231e-21)
(1.00268 -0.00933546 -2.90976e-21)
(0.432079 0.279876 2.52984e-19)
(0.855086 0.0219771 -1.07177e-19)
(0.929853 -0.0155491 -4.48231e-22)
(0.976123 -0.0243855 -4.63003e-21)
(1.00469 -0.0120431 4.27182e-21)
(0.474013 0.110948 -6.83958e-20)
(0.841321 -0.0458382 2.43665e-19)
(0.930398 -0.0466661 2.40936e-21)
(0.979739 -0.0363062 -1.20593e-21)
(1.00771 -0.0158623 4.07378e-22)
(0.500791 -0.0908509 -2.03244e-20)
(0.84406 -0.09628 -3.77563e-20)
(0.937197 -0.0678996 5.33345e-21)
(0.985314 -0.0461675 5.11779e-21)
(1.0115 -0.0193374 2.98637e-22)
(0.484287 -0.0699955 -1.17102e-19)
(0.614135 -0.089581 0)
(0.687613 -0.0332098 -9.07752e-21)
(0.732159 -0.00909408 1.82056e-20)
(0.756277 -0.00182372 -3.84089e-21)
(1.88316 0.308392 0)
(1.2545 0.0454371 0)
(1.02733 0.00264985 3.63035e-20)
(0.981417 -0.0069048 5.68504e-21)
(0.986745 -0.00376999 8.08082e-22)
(0.765951 0.0087386 -9.81158e-20)
(0.874552 0.00993549 3.70196e-19)
(0.774577 0.0307008 6.68914e-20)
(0.980809 0.0553766 4.38704e-19)
(1.01097 0.162226 1.57395e-19)
(1.79617 0.0534076 9.65639e-20)
(1.98373 0.113453 5.16033e-19)
(2.00679 0.242342 -4.14581e-19)
(2.46883 0.225999 4.63962e-19)
(2.38373 0.606468 7.0016e-19)
(0.885035 -0.489949 7.71307e-20)
(0.889105 -0.591834 -1.89893e-19)
(0.904772 -0.707718 -1.91159e-19)
(0.851953 -0.785268 1.09729e-19)
(0.52128 -0.61361 1.27515e-19)
(0.844759 -0.395482 1.00151e-19)
(0.79784 -0.461911 1.7805e-19)
(0.725306 -0.535895 -6.58804e-20)
(0.607865 -0.606581 1.23327e-19)
(0.328433 -0.483601 3.36408e-20)
(0.622623 -0.28042 -9.32861e-20)
(0.54167 -0.326594 -4.08428e-20)
(0.451204 -0.386282 9.72234e-21)
(0.34327 -0.426549 -4.12915e-20)
(0.155084 -0.322216 -9.59071e-20)
(0.531957 -0.0653894 -3.52856e-19)
(0.459343 -0.0899403 -3.04327e-19)
(0.359384 -0.126759 2.52844e-19)
(0.236136 -0.165191 1.54767e-19)
(0.0715156 -0.135467 1.23557e-20)
(0.493919 0.131068 -1.50963e-19)
(0.417142 0.132138 -1.55476e-19)
(0.30978 0.131164 -6.3343e-20)
(0.1814 0.128607 2.93603e-20)
(0.0302208 0.0953659 1.25299e-20)
(2.29542 0.00376726 8.90637e-19)
(2.50759 -0.0754546 3.37439e-19)
(2.57803 -0.170427 -8.54868e-19)
(2.46718 -0.205934 -1.9292e-18)
(1.54679 -0.224964 1.36287e-19)
(2.22128 -0.100495 1.50695e-18)
(2.29668 -0.211266 1.95165e-18)
(2.30095 -0.339281 1.63848e-19)
(2.22955 -0.413888 2.842e-19)
(1.47267 -0.414759 -1.94435e-19)
(1.93406 -0.26953 -3.83837e-18)
(1.96051 -0.390171 4.19765e-19)
(1.96795 -0.523472 1.20235e-18)
(1.90771 -0.618118 -4.91171e-19)
(1.25558 -0.555983 7.85487e-19)
(1.63465 -0.392177 9.04557e-19)
(1.60416 -0.48664 -2.4175e-18)
(1.58279 -0.615355 -2.84231e-18)
(1.53119 -0.727437 9.00024e-19)
(0.998021 -0.62342 5.77117e-19)
(1.2968 -0.460778 2.12176e-19)
(1.22683 -0.556619 2.43941e-19)
(1.21382 -0.689606 -4.34547e-19)
(1.16495 -0.791451 -5.27684e-19)
(0.737726 -0.63815 -5.14657e-21)
(0.825071 0.0406209 2.74747e-21)
(1.12529 0.0391228 -6.87889e-21)
(0.922494 0.017933 -2.53088e-20)
(0.880982 -0.00696382 -1.20513e-19)
(1.11721 -0.212349 -1.09501e-20)
(0.826709 0.0425387 -2.7405e-21)
(1.12792 0.0437043 5.04777e-20)
(0.92841 0.0389228 -7.97181e-20)
(0.895937 0.00587747 6.01509e-20)
(0.970079 -0.0994486 -1.42186e-20)
(0.826629 0.0392373 -4.77981e-20)
(1.13217 0.0471248 6.96689e-22)
(0.929805 0.0542514 -2.27866e-20)
(0.892395 0.024604 -3.74387e-20)
(0.899355 -0.0547632 -1.51009e-19)
(0.825803 0.0352294 7.65184e-20)
(1.13753 0.0505747 3.51854e-21)
(0.925496 0.0696598 3.77678e-20)
(0.922008 0.0518014 7.42854e-20)
(0.791025 0.0568144 1.128e-19)
(0.824789 0.0303416 1.75012e-20)
(1.14183 0.0546053 -3.23517e-20)
(0.925149 0.0820485 4.58473e-20)
(0.939722 0.0890684 8.7436e-20)
(0.765413 0.129174 -1.12909e-19)
(0.755433 0.0283737 0)
(0.907125 0.0184219 7.32821e-21)
(0.686849 0.00348374 -3.10175e-21)
(0.755597 -0.0100603 5.26604e-20)
(0.870715 -0.0291618 -1.41329e-19)
(0.817562 0.0518657 -4.55814e-20)
(1.12252 0.0387049 -2.17732e-20)
(0.89802 0.00965994 1.282e-21)
(0.970623 -0.00996989 -8.87239e-20)
(0.999562 -0.211373 -1.39006e-19)
(1.23211 -0.039977 -2.80411e-20)
(1.30404 -0.0198903 5.16191e-19)
(1.40153 0.0482475 3.37477e-19)
(1.21555 0.0741566 9.88767e-21)
(0.897751 0.0405988 0)
(1.44836 -0.299449 3.13779e-19)
(1.60039 -0.262176 1.53644e-18)
(1.81612 -0.142489 -1.80929e-18)
(1.92656 0.00495787 -5.85419e-19)
(1.83057 0.0620632 4.08642e-19)
)
;

boundaryField
{
    left
    {
        type            fixedValue;
        value           uniform (1 0 0);
    }
    right
    {
        type            zeroGradient;
    }
    down
    {
        type            noSlip;
    }
    up
    {
        type            noSlip;
    }
    cylinder
    {
        type            noSlip;
    }
    defaultFaces
    {
        type            empty;
    }
}


// ************************************************************************* //
