# Selection   : all
# Cells       : 1800
# Volume      : 7.372328e+01
# Time        	minMag(U)
0             	0.000000e+00
0.025         	3.820198e-02
0.05          	3.405004e-02
0.075         	3.056581e-02
0.1           	2.757767e-02
0.125         	2.509815e-02
0.15          	1.944225e-02
0.175         	1.311636e-02
0.2           	8.086032e-03
0.225         	3.959585e-03
0.25          	5.236795e-04
0.275         	2.554358e-03
0.3           	4.858613e-03
