/*--------------------------------*- C++ -*----------------------------------*\
  =========                 |
  \\      /  F ield         | OpenFOAM: The Open Source CFD Toolbox
   \\    /   O peration     | Website:  https://openfoam.org
    \\  /    A nd           | Version:  13
     \\/     M anipulation  |
\*---------------------------------------------------------------------------*/
FoamFile
{
    format      ascii;
    class       volScalarField;
    location    "66.6";
    object      p;
}
// * * * * * * * * * * * * * * * * * * * * * * * * * * * * * * * * * * * * * //

dimensions      [0 2 -2 0 0 0 0];

internalField   nonuniform List<scalar> 
440
(
-1.33052
-1.31832
-1.31866
-1.31825
-1.33625
-1.34037
-1.31845
-1.2954
-1.26949
-1.23782
-1.45291
-1.41175
-1.35417
-1.27811
-1.18922
-1.56509
-1.50647
-1.39288
-1.25462
-1.1146
-1.62514
-1.54399
-1.36634
-1.18242
-1.01464
-0.746982
-0.735424
-0.716234
-0.691604
-0.664643
-0.869322
-0.867371
-0.866404
-0.869308
-0.867184
-1.07506
-1.09361
-1.12482
-1.16586
-1.2132
-1.25567
-1.2881
-1.34049
-1.41144
-1.52115
-1.32012
-1.32789
-1.3454
-1.36396
-1.38048
-0.528711
-0.0619128
-0.998743
-1.12108
-0.117692
-0.690634
0.228113
-1.04078
-1.10413
-0.124602
-1.03363
0.269431
-1.08379
-0.983112
-0.123934
-1.22671
0.27002
-1.00404
-0.934612
-0.121689
-1.16152
0.49446
-0.633522
-0.896468
-0.120356
-0.692497
0.693207
-0.0765655
-0.785252
-0.123457
-0.268478
0.333025
0.0167625
-0.486269
-0.124295
-0.215046
0.44322
0.200611
-0.204064
-0.121741
-0.125833
0.478578
0.29059
-0.0668628
-0.118726
-0.109703
0.489485
0.408391
0.0765543
-0.109122
-0.73168
-0.847877
-0.996592
-1.13394
-1.26487
-0.437515
-0.549055
-0.616454
-0.644794
-0.625605
-0.239875
-0.337059
-0.384458
-0.406501
-0.399296
-0.123119
-0.212183
-0.262369
-0.280149
-0.270235
-0.0709286
-0.158734
-0.207906
-0.225548
-0.208682
0.652956
0.503474
0.31566
0.100885
-0.144107
0.219
0.0554454
-0.145524
-0.376012
-0.642939
-0.2047
-0.377413
-0.595102
-0.837714
-1.08814
-0.576651
-0.757511
-0.980154
-1.21942
-1.41614
-0.837699
-1.02257
-1.23511
-1.45678
-1.5888
1.92316
1.95274
1.98091
1.99572
1.99311
1.71764
1.73544
1.74734
1.74224
1.71568
1.47408
1.46342
1.43024
1.37352
1.28942
1.1978
1.16068
1.08857
0.984483
0.848084
0.932985
0.832044
0.698546
0.539572
0.344458
1.6934
1.67796
1.67204
1.72326
1.8176
1.6821
1.66409
1.65052
1.69136
1.72181
1.6718
1.64756
1.62659
1.6477
1.59942
1.66269
1.62885
1.5999
1.59472
1.42577
1.65479
1.60878
1.57166
1.53623
1.23926
1.64761
1.57917
1.53503
1.43536
1.0328
1.64217
1.54076
1.50358
1.34554
1.05947
1.64885
1.51697
1.47325
1.29262
1.01061
1.63857
1.49506
1.45487
1.25698
0.957704
1.6779
1.48904
1.44865
1.23902
0.931704
0.63073
0.311601
-0.038343
-0.346196
-0.549886
0.558258
0.341523
0.102336
-0.114335
-0.292987
0.564477
0.395563
0.213304
0.0424447
-0.117023
0.594185
0.451793
0.296277
0.141378
-0.00649105
0.612228
0.481077
0.335865
0.185155
0.0424678
-1.0619
-0.932164
-0.774348
-0.644636
-0.567737
-1.09197
-1.03474
-0.915479
-0.817011
-0.756076
-0.992699
-0.946314
-0.877818
-0.816866
-0.773234
-0.830404
-0.791188
-0.751657
-0.718931
-0.694075
-0.705633
-0.685667
-0.659325
-0.647877
-0.667748
-0.638531
-0.633187
-0.605943
-0.621608
-0.594539
-0.614462
-0.609859
-0.593713
-0.588635
-0.569718
-0.62719
-0.62056
-0.604355
-0.580464
-0.561435
-0.659155
-0.650017
-0.636127
-0.618944
-0.601451
-0.68727
-0.675492
-0.659313
-0.640656
-0.620359
-0.629285
-0.394941
-0.295703
-0.626328
0.0262996
-0.583303
-0.401097
-0.406148
-0.625022
-0.0239982
-0.428804
-0.409347
-0.554
-0.67688
-0.0665356
-0.486791
-0.447865
-0.731093
-0.792511
-0.0935486
-0.543993
-0.409636
-0.894806
-0.972952
-0.107021
-0.0906126
-0.509338
-0.264158
-0.599162
0.105891
-0.523792
-0.491091
-0.20561
-0.610341
0.0759787
-0.52502
-0.737503
-0.72048
-0.683838
-0.4364
-0.542944
-0.731454
-0.743336
-0.681307
-0.678972
1.71475
1.69375
1.6561
1.60316
1.53363
1.86787
1.88925
1.89539
1.88504
1.85939
1.99562
2.02871
2.05308
2.06515
2.0638
2.05745
2.09664
2.13782
2.17169
2.18768
2.03527
2.07185
2.11204
2.14525
2.16023
-0.166745
-0.266406
-0.423154
-0.61203
-0.826602
0.37261
0.244368
0.0728689
-0.133772
-0.391555
0.857364
0.723738
0.563935
0.375514
0.141989
1.24052
1.13859
1.01404
0.862305
0.680025
1.54394
1.47393
1.38109
1.26925
1.1388
1.76242
1.71989
1.72395
1.75074
1.80061
1.74614
1.71485
1.71879
1.75888
1.84144
1.73185
1.7082
1.71392
1.7681
1.89798
1.71825
1.7001
1.70375
1.76363
1.89465
1.7054
1.6902
1.68943
1.74877
1.87348
1.81981
1.72902
1.71827
1.68862
1.70123
1.7737
1.71871
1.7109
1.70597
1.70503
1.43973
1.25821
0.921985
0.418277
-0.136693
1.51297
1.28402
0.933107
0.435433
-0.129181
)
;

boundaryField
{
    left
    {
        type            zeroGradient;
    }
    right
    {
        type            fixedValue;
        value           uniform 0;
    }
    down
    {
        type            zeroGradient;
    }
    up
    {
        type            zeroGradient;
    }
    cylinder
    {
        type            zeroGradient;
    }
    defaultFaces
    {
        type            empty;
    }
}


// ************************************************************************* //
