/*--------------------------------*- C++ -*----------------------------------*\
  =========                 |
  \\      /  F ield         | OpenFOAM: The Open Source CFD Toolbox
   \\    /   O peration     | Website:  https://openfoam.org
    \\  /    A nd           | Version:  13
     \\/     M anipulation  |
\*---------------------------------------------------------------------------*/
FoamFile
{
    format      ascii;
    class       volVectorField;
    location    "66.6";
    object      U;
}
// * * * * * * * * * * * * * * * * * * * * * * * * * * * * * * * * * * * * * //

dimensions      [0 1 -1 0 0 0 0];

internalField   nonuniform List<vector> 
440
(
(-0.0617582 0.0653651 -3.83852e-20)
(-0.0380638 0.121861 3.41293e-20)
(0.156539 0.0825307 4.11083e-22)
(0.572208 0.031445 1.07012e-19)
(0.815042 -0.0232804 -3.03831e-20)
(-0.0170755 0.00797435 1.72289e-20)
(0.191015 -0.0414556 -1.37457e-19)
(0.697771 -0.0969873 -9.56453e-20)
(1.25201 -0.139689 -1.60408e-20)
(1.77107 -0.182873 -4.33242e-20)
(0.0406616 -0.0222761 3.6972e-20)
(0.625539 -0.0958575 9.39847e-19)
(1.41005 -0.0995866 -7.01862e-19)
(1.98236 -0.0859632 -2.18368e-18)
(2.46407 -0.0736216 1.03531e-18)
(0.263873 -0.0609663 -1.72897e-19)
(1.30474 -0.0231856 -6.9634e-19)
(2.06277 0.0335457 2.19729e-18)
(2.46243 0.0675856 2.55602e-18)
(2.49098 0.0744159 -6.93798e-19)
(0.625904 -0.00807237 -3.27344e-19)
(1.82496 0.168087 -7.3567e-19)
(2.35163 0.235175 2.29679e-18)
(2.45954 0.239615 2.39625e-18)
(2.53602 0.214213 8.08175e-19)
(0.00041351 -0.085932 6.76367e-20)
(-0.0059613 -0.303715 -1.3476e-19)
(-0.0633835 -0.367068 2.18996e-19)
(-0.15662 -0.33221 -5.26035e-20)
(-0.250761 -0.303607 -5.10391e-19)
(-0.00629659 -0.0163871 1.36135e-20)
(-0.0346361 -0.152264 -6.92537e-20)
(-0.134328 -0.135978 9.27877e-20)
(-0.235569 -0.07542 8.72782e-20)
(-0.295356 -0.0870536 -1.55803e-19)
(-0.0309 0.0559242 -4.5512e-19)
(-0.0797362 -0.00571024 3.53249e-19)
(-0.169274 0.0136515 -2.67168e-19)
(-0.222083 0.0313891 -6.27002e-19)
(-0.195085 -0.0277226 -1.40894e-21)
(-0.0778262 0.123109 6.0078e-20)
(-0.139454 0.143187 -1.81163e-19)
(-0.158285 0.131603 7.60922e-20)
(-0.089538 0.0806418 1.45585e-18)
(0.0393781 -0.0179155 -3.50621e-19)
(-0.100904 0.132119 4.41629e-20)
(-0.123993 0.177907 4.7571e-20)
(-0.0421479 0.115402 1.00655e-19)
(0.14015 0.0180177 -1.00422e-19)
(0.34227 -0.0589843 -5.97999e-20)
(-0.705012 -0.420909 -3.42131e-19)
(1.24468 0.589514 -2.45762e-18)
(0.0666491 1.11087 2.12752e-19)
(1.16238 -0.548415 -4.95572e-19)
(1.18636 -0.7084 1.96772e-20)
(-0.423649 -0.654789 1.88379e-18)
(1.69947 0.320796 2.07926e-19)
(0.665258 1.14755 -1.62461e-19)
(1.44999 -0.592802 -5.6407e-19)
(1.38105 -0.71764 -8.17496e-20)
(0.472035 -0.977491 1.07969e-18)
(1.45857 0.035737 -2.09095e-19)
(0.864259 1.14839 1.29746e-19)
(1.65567 -0.653422 -7.72589e-19)
(1.53856 -0.726794 5.36794e-20)
(1.38278 -1.12415 -2.88334e-19)
(0.207506 -0.0179211 5.73315e-20)
(0.402607 1.15289 5.5477e-19)
(1.89075 -0.729962 2.85605e-19)
(1.63532 -0.720361 -5.69835e-21)
(1.97096 -1.06193 -5.33753e-19)
(-1.10793 0.0172343 1.17577e-18)
(0.588558 0.888669 0)
(2.18254 -0.785974 -3.61643e-19)
(1.71425 -0.694052 -2.89804e-20)
(2.52727 -0.703604 -8.39017e-19)
(0.131023 0.0313031 3.02354e-20)
(1.34798 0.251236 4.37529e-20)
(2.44626 -0.869425 -3.79441e-19)
(1.76365 -0.64562 5.27986e-20)
(2.18939 -0.684741 7.88978e-20)
(0.92088 0.297205 -4.3803e-19)
(2.00653 0.0635085 1.98251e-20)
(2.54528 -0.771038 1.03381e-18)
(1.66595 -0.494301 0)
(2.07199 -0.242485 -2.55389e-19)
(1.39244 0.138175 9.6823e-21)
(2.3738 -0.293797 3.78656e-19)
(2.20262 -0.687189 -3.65917e-19)
(1.27118 -0.358148 7.3528e-21)
(1.83403 -0.216491 -7.20635e-20)
(1.75294 0.0504926 1.17213e-19)
(2.16922 -0.256808 3.86094e-20)
(1.54008 -0.399785 8.33699e-34)
(0.611091 -0.155929 3.30424e-20)
(1.10309 -0.00613871 2.41947e-20)
(1.23398 -0.0626741 6.34048e-21)
(0.921541 -0.139065 -7.48362e-20)
(0.141959 -0.0305964 8.3372e-20)
(-0.271292 -0.000808514 -8.49093e-21)
(2.35938 0.215429 -1.03129e-18)
(2.63721 0.0161898 -1.36458e-18)
(2.34816 -0.00598488 1.21262e-18)
(2.75028 -0.204062 -3.13788e-20)
(1.95848 -0.125027 -1.04407e-19)
(2.09764 0.145559 3.9171e-20)
(2.47029 0.00580355 -4.45871e-20)
(2.19396 -0.023852 -1.39383e-19)
(2.47227 -0.1961 -2.73767e-19)
(2.25912 -0.243672 -1.41339e-21)
(2.0936 0.0637971 6.71027e-20)
(2.18601 0.0252098 1.23569e-19)
(2.18992 -0.0579678 -1.75084e-19)
(2.19831 -0.0930473 5.19636e-20)
(2.24144 -0.190207 7.54833e-20)
(2.02013 0.0192899 1.12641e-19)
(1.95496 -0.000476198 1.07778e-19)
(2.11517 -0.0415761 -1.56635e-20)
(2.00682 -0.0690103 2.75696e-20)
(2.16256 -0.100028 7.85707e-21)
(1.44893 -0.0156658 1.58713e-19)
(1.39034 -0.00999996 -1.20534e-20)
(1.47973 -0.0298308 2.33178e-20)
(1.3657 -0.0169455 -6.41296e-21)
(1.48581 -0.0462072 4.03845e-20)
(1.59714 0.859557 1.13055e-18)
(1.54922 0.956358 -3.35133e-19)
(1.54504 1.08555 -1.34056e-18)
(1.4798 1.13375 7.48529e-19)
(0.917238 0.825832 -1.863e-19)
(1.87085 0.805641 -5.86963e-19)
(1.84394 0.887766 -3.04826e-18)
(1.85402 0.998782 -1.17967e-18)
(1.77151 1.01366 -4.30994e-19)
(1.09046 0.718328 -6.94751e-19)
(2.16955 0.690847 7.95977e-19)
(2.15259 0.758615 2.06295e-19)
(2.13259 0.847249 -2.35069e-18)
(2.00581 0.835481 -6.63558e-19)
(1.19296 0.558552 5.04515e-19)
(2.33464 0.561344 2.44067e-18)
(2.32881 0.612025 1.78152e-18)
(2.33292 0.66702 -2.06262e-18)
(2.12289 0.626417 -1.56158e-18)
(1.17006 0.366851 -2.96284e-19)
(2.47461 0.396765 1.23117e-18)
(2.4979 0.422523 -8.85541e-19)
(2.40618 0.446687 6.2241e-19)
(2.07849 0.394296 5.16195e-19)
(0.985747 0.160125 -4.44127e-19)
(0.574109 0.441094 -6.6061e-19)
(0.485716 0.475272 -5.21456e-19)
(0.367535 0.509578 6.45375e-20)
(0.228882 0.519183 -1.49384e-20)
(0.0570889 0.380433 8.45744e-20)
(0.674682 0.618906 1.19302e-19)
(0.61098 0.679261 -2.99271e-19)
(0.52385 0.748304 1.89022e-19)
(0.398141 0.801624 -8.73996e-20)
(0.17267 0.612261 1.23599e-19)
(0.789432 0.801376 1.81456e-19)
(0.715274 0.88007 4.61016e-19)
(0.656204 0.979541 7.63887e-20)
(0.571234 1.03479 -3.01478e-19)
(0.313961 0.776602 2.47662e-19)
(1.05118 0.898934 2.46156e-19)
(1.00647 0.987014 -6.99913e-19)
(0.955991 1.08641 -1.94432e-18)
(0.872983 1.15154 7.90021e-19)
(0.51759 0.863406 -1.83456e-19)
(1.16137 0.918189 -1.34204e-19)
(1.18152 1.04268 -2.13086e-19)
(1.2038 1.16528 -3.52473e-19)
(1.15282 1.20624 -4.08896e-19)
(0.712421 0.881078 -6.685e-21)
(1.02143 0.0532827 -1.01303e-19)
(0.980158 0.0363921 -3.87793e-20)
(1.03976 0.108681 -1.41596e-21)
(0.947898 0.146537 -3.34168e-19)
(0.88474 0.26809 3.19297e-19)
(1.01195 0.0511814 6.42714e-20)
(0.989254 0.0353552 1.35316e-19)
(1.03302 0.112803 1.29956e-19)
(0.981043 0.17922 4.33828e-20)
(0.929931 0.345399 -8.2847e-21)
(1.0178 0.0503242 8.76338e-20)
(0.970324 0.0300486 -5.01201e-21)
(1.08578 0.128268 -7.225e-21)
(0.932122 0.182867 1.68328e-19)
(1.13525 0.481089 -4.8448e-19)
(1.01111 0.0511816 -4.57476e-22)
(0.985775 0.0200986 -1.88779e-19)
(1.09486 0.140046 -6.96159e-20)
(1.00614 0.198944 -4.12569e-19)
(1.16082 0.522539 1.04526e-19)
(1.00508 0.0455375 -1.59907e-20)
(0.991504 0.0189124 5.35505e-20)
(1.14836 0.146053 3.37329e-20)
(0.967228 0.225976 4.79373e-19)
(1.43472 0.647755 -4.62901e-19)
(0.963463 0.0487517 -1.19557e-20)
(1.05959 -0.00723656 1.10837e-19)
(1.15486 0.172499 -9.39441e-20)
(1.1769 0.164968 8.52285e-19)
(1.32594 0.6628 -4.11563e-19)
(0.898305 0.0235483 -1.63085e-21)
(1.15905 -0.0298571 -1.10641e-19)
(1.1343 0.110524 4.72389e-21)
(1.23333 0.186094 -2.53904e-19)
(1.3254 0.401262 1.22736e-20)
(0.953683 0.0194583 -6.76165e-21)
(1.1538 -0.0643226 1.46169e-35)
(1.11121 0.116668 -5.91376e-20)
(1.19281 0.137033 7.72654e-20)
(1.49183 0.230241 1.66662e-19)
(1.09369 -0.0376939 4.27077e-21)
(1.01176 -0.0664536 -2.47002e-20)
(1.07397 0.0789305 1.68526e-20)
(1.22044 0.0669852 3.51925e-20)
(1.51755 0.120469 -2.4477e-19)
(1.00723 -0.0254591 -4.26198e-20)
(0.760057 -0.0201577 -3.49892e-21)
(0.855387 0.0149963 2.31843e-20)
(0.943072 -0.00580982 -1.04378e-20)
(1.07485 0.0353017 -5.50769e-20)
(1.83173 0.673299 3.45684e-19)
(1.91179 0.661285 8.13247e-19)
(2.19051 0.543885 -1.14637e-18)
(2.21348 0.483753 4.53659e-20)
(2.4641 0.292939 4.88157e-19)
(1.79344 0.489112 5.41828e-20)
(1.7952 0.429525 1.01954e-18)
(2.07219 0.394422 9.62729e-20)
(1.97961 0.306985 -9.48906e-19)
(2.32148 0.20432 -3.11927e-19)
(1.71298 0.348492 -2.14548e-19)
(1.80064 0.265376 -1.48424e-19)
(1.90965 0.279003 2.56618e-19)
(1.96504 0.17444 -3.04187e-19)
(2.08643 0.152873 2.70526e-19)
(1.63066 0.201021 3.03524e-19)
(1.72484 0.14203 -2.23369e-21)
(1.74656 0.151055 2.17938e-19)
(1.88106 0.0819258 1.87939e-19)
(1.86766 0.0743819 -1.81944e-19)
(1.24948 0.0473615 -3.43818e-20)
(1.28119 0.0269504 2.06447e-19)
(1.32511 0.0247967 1.01522e-19)
(1.38121 0.00231755 -2.22112e-19)
(1.38397 0.00258201 3.97283e-22)
(1.20982 -0.0306804 5.15247e-20)
(2.27288 -0.0461932 -4.46504e-19)
(2.50642 -0.0346941 1.25523e-18)
(2.50386 0.0110458 5.70892e-19)
(2.32156 0.0357839 -3.76304e-19)
(0.740761 0.0900972 8.88032e-20)
(2.04633 0.0836159 -4.60515e-19)
(2.52335 0.0877006 -6.23661e-19)
(2.5568 0.102178 7.86244e-19)
(2.32939 0.0943227 -5.12124e-19)
(0.193604 0.0705274 -3.78306e-20)
(1.38795 0.146286 4.82474e-19)
(2.18699 0.178401 7.78897e-20)
(2.59623 0.177124 5.64039e-19)
(2.70894 0.175742 3.14339e-19)
(-0.0742483 -0.0419682 2.15024e-19)
(0.48514 0.0695132 2.12671e-19)
(1.36739 0.156788 -4.70726e-19)
(1.91445 0.208518 2.97789e-20)
(2.55947 0.246266 1.33796e-19)
(-0.130791 -0.107975 1.50091e-19)
(-0.0363028 -0.0727279 -1.68365e-19)
(0.491338 0.0301999 -1.80412e-20)
(0.981751 0.0745064 2.04934e-20)
(1.55228 0.191136 -2.79089e-20)
(-0.101207 -0.109886 2.8371e-20)
(-0.175183 -0.155151 1.01798e-19)
(-0.0345365 -0.16146 5.61129e-20)
(0.146718 -0.138038 -4.53493e-20)
(0.686996 -0.0216322 1.1935e-20)
(-0.0578351 -0.0763445 -9.03517e-21)
(-0.15173 -0.167994 -6.39718e-20)
(-0.1687 -0.232811 -3.66538e-20)
(-0.132048 -0.251282 -2.03306e-20)
(0.060558 -0.141242 -2.17282e-21)
(-0.0240909 -0.0450553 8.49163e-21)
(-0.081116 -0.169711 2.19745e-19)
(-0.108478 -0.290137 -2.08442e-19)
(-0.105518 -0.371147 -5.8785e-19)
(-0.0744129 -0.368821 1.43348e-19)
(-0.0142281 -0.0636403 -1.71896e-20)
(-0.031683 -0.25644 -1.11622e-19)
(-0.0242994 -0.425082 3.14568e-19)
(-0.0105245 -0.519112 2.76605e-19)
(-0.00202686 -0.555978 -6.36422e-20)
(-0.00967402 -0.0952661 1.13299e-20)
(-0.0131019 -0.336603 -3.44309e-20)
(-0.0206588 -0.483352 1.08288e-20)
(-0.0519295 -0.517056 1.08931e-20)
(-0.0899149 -0.490751 -9.33663e-20)
(1.43158 0.657644 -2.60594e-20)
(1.71164 0.378712 3.86622e-19)
(0.675075 0.388983 1.36749e-19)
(-0.334057 -0.141526 3.28466e-21)
(0.590682 -0.40264 -3.88461e-20)
(1.13315 0.48286 1.02568e-20)
(1.8117 0.412412 1.08594e-19)
(0.649132 0.598857 8.50461e-19)
(-0.0141535 -0.145775 -6.3936e-21)
(0.604708 -0.506539 1.76342e-19)
(0.870248 0.220995 2.04363e-19)
(1.70234 0.544099 3.27667e-19)
(0.334602 0.798276 -2.87238e-20)
(0.259963 -0.177369 -7.947e-19)
(0.688545 -0.581414 -3.57166e-20)
(0.394892 -0.147978 2.32242e-19)
(1.63166 0.538473 2.30642e-20)
(0.0976899 0.943281 -5.05064e-19)
(0.584667 -0.271777 1.88648e-21)
(0.828689 -0.642739 -7.16106e-20)
(-0.307779 -0.266079 1.69678e-20)
(1.32549 0.653769 3.94306e-19)
(-0.0894078 1.07863 3.83687e-19)
(0.907046 -0.396744 -4.39556e-20)
(1.01375 -0.673321 -1.12364e-19)
(0.0249112 0.179535 -4.3653e-20)
(-0.299609 -0.176583 0)
(-0.443951 -0.0923888 6.16316e-21)
(-0.467683 -0.07951 -1.59045e-20)
(0.38092 -0.0503398 1.28617e-20)
(1.85782 0.596533 0)
(1.32276 0.345266 0)
(0.408755 0.113971 -1.72021e-19)
(-0.507092 -0.151285 -7.47556e-20)
(0.640084 -0.233789 1.0846e-19)
(0.739867 0.00285765 -1.18775e-19)
(0.768574 -0.00811667 9.56462e-20)
(1.04923 0.0148343 -4.58222e-20)
(0.936758 -0.0013615 3.50094e-19)
(1.46646 0.119441 2.44683e-19)
(1.67544 0.0298697 1.1141e-19)
(1.85167 0.0699958 2.06506e-19)
(2.02509 0.0618846 -4.21625e-19)
(2.57436 0.208894 3.67554e-20)
(2.38273 0.167264 2.10032e-19)
(0.915667 -0.486554 7.304e-21)
(0.902895 -0.577395 -1.63753e-19)
(0.897701 -0.676313 -1.44686e-19)
(0.828037 -0.744426 8.67436e-20)
(0.500385 -0.580137 1.22034e-19)
(0.821444 -0.39627 1.22925e-19)
(0.765913 -0.461149 2.25577e-19)
(0.689528 -0.530182 -5.91949e-20)
(0.572135 -0.587828 1.23965e-19)
(0.309243 -0.462149 3.71737e-20)
(0.64908 -0.258582 -1.56248e-19)
(0.556761 -0.297361 -4.58014e-20)
(0.455257 -0.347505 8.30312e-20)
(0.340698 -0.391904 -2.49534e-20)
(0.152896 -0.307761 -1.08237e-19)
(0.551646 -0.0253059 -4.46091e-19)
(0.467235 -0.0414176 -3.67856e-19)
(0.359564 -0.0684791 2.90174e-19)
(0.23338 -0.103421 1.80837e-19)
(0.066327 -0.0977975 1.41215e-20)
(0.525301 0.178374 -1.7673e-19)
(0.440054 0.181889 -1.78348e-19)
(0.324553 0.184082 -7.37443e-20)
(0.188482 0.189048 2.65402e-20)
(0.0292649 0.143303 1.3069e-20)
(2.07901 -0.0376557 8.12415e-19)
(2.32488 -0.106624 2.98594e-19)
(2.40955 -0.194072 -7.66142e-19)
(2.2629 -0.220226 -1.57373e-18)
(1.3621 -0.198279 1.13293e-19)
(2.04314 -0.124843 1.37063e-18)
(2.14374 -0.235747 1.78636e-18)
(2.155 -0.357874 1.45538e-19)
(2.07596 -0.418785 2.48387e-19)
(1.3309 -0.372894 -1.6436e-19)
(1.76222 -0.289789 -3.55871e-18)
(1.81167 -0.406231 4.29001e-19)
(1.85364 -0.531129 1.10722e-18)
(1.79521 -0.607069 -4.40501e-19)
(1.16459 -0.517899 6.85218e-19)
(1.53217 -0.411179 8.54291e-19)
(1.54872 -0.508497 -2.22241e-18)
(1.53525 -0.62597 -2.59942e-18)
(1.46609 -0.715143 8.07367e-19)
(0.942712 -0.591085 5.18827e-19)
(1.24419 -0.473008 1.87091e-19)
(1.19012 -0.565247 2.3297e-19)
(1.17466 -0.686347 -3.90952e-19)
(1.1174 -0.772128 -4.72704e-19)
(0.704482 -0.612291 -4.51611e-21)
(1.0681 0.0573574 7.7555e-21)
(0.916905 0.0526917 -5.40822e-21)
(1.12918 0.0734101 -7.25659e-21)
(0.796707 0.00440977 -1.85616e-19)
(1.13582 -0.221576 -7.68516e-21)
(1.07762 0.061231 -2.59597e-21)
(0.915113 0.0499744 5.43971e-20)
(1.12313 0.0905588 -4.9811e-20)
(0.884406 0.0505034 9.77673e-20)
(1.00122 -0.104591 -2.3788e-20)
(1.0758 0.0589753 -6.36441e-20)
(0.919127 0.0455385 5.9385e-22)
(1.10957 0.0907719 -1.95359e-20)
(0.88001 0.0731665 3.92265e-21)
(0.973409 -0.0469467 -1.67104e-19)
(1.05697 0.057805 7.77356e-20)
(0.948005 0.0413348 3.53115e-21)
(1.06915 0.095776 3.36232e-20)
(0.925719 0.0996414 4.69526e-20)
(0.865671 0.0677783 1.14759e-19)
(1.03344 0.0547571 1.95582e-20)
(0.975275 0.0403528 -3.20625e-20)
(1.0383 0.0987617 4.51114e-20)
(0.951432 0.129723 9.16395e-20)
(0.837981 0.162068 -1.08902e-19)
(0.889552 0.0337945 0)
(0.704202 0.0277492 1.00524e-20)
(0.615754 0.0227334 2.77219e-21)
(0.3478 -0.00669658 4.15968e-20)
(0.685814 -0.0568991 -1.14865e-19)
(1.03571 0.0759082 -6.55288e-20)
(0.9279 0.0694917 -1.81904e-20)
(1.03685 0.0749499 -3.04252e-20)
(0.808799 0.00110753 -9.78768e-20)
(1.04465 -0.201395 -1.19707e-19)
(0.959048 -0.063721 -2.72902e-20)
(1.04274 -0.0332483 4.71962e-19)
(1.13774 0.0373176 2.99287e-19)
(1.00682 0.0569402 2.20126e-20)
(0.780827 0.0299786 0)
(1.32788 -0.316474 2.73938e-19)
(1.44373 -0.278926 1.41075e-18)
(1.62433 -0.160329 -1.61607e-18)
(1.71564 -0.021337 -5.0882e-19)
(1.63094 0.0296658 3.68053e-19)
)
;

boundaryField
{
    left
    {
        type            fixedValue;
        value           uniform (1 0 0);
    }
    right
    {
        type            zeroGradient;
    }
    down
    {
        type            noSlip;
    }
    up
    {
        type            noSlip;
    }
    cylinder
    {
        type            noSlip;
    }
    defaultFaces
    {
        type            empty;
    }
}


// ************************************************************************* //
