/*--------------------------------*- C++ -*----------------------------------*\
  =========                 |
  \\      /  F ield         | OpenFOAM: The Open Source CFD Toolbox
   \\    /   O peration     | Website:  https://openfoam.org
    \\  /    A nd           | Version:  13
     \\/     M anipulation  |
\*---------------------------------------------------------------------------*/
FoamFile
{
    format      ascii;
    class       volVectorField;
    location    "9.065";
    object      U;
}
// * * * * * * * * * * * * * * * * * * * * * * * * * * * * * * * * * * * * * //

dimensions      [0 1 -1 0 0 0 0];

internalField   nonuniform List<vector> 
440
(
(-0.0895626 0.063692 -7.55575e-20)
(-0.110021 0.0965757 3.31545e-20)
(0.0440476 0.0832349 8.0905e-20)
(0.507605 0.0784827 1.99951e-19)
(0.528838 0.190906 1.81e-20)
(-0.0938858 0.0513549 4.25893e-20)
(0.077591 0.00781084 -1.35185e-19)
(0.615395 -0.0447303 -1.15889e-19)
(1.19398 -0.0782828 6.4569e-20)
(1.73547 -0.102141 9.32624e-21)
(-0.0180502 0.00408505 5.64052e-20)
(0.56898 -0.0509208 8.07508e-19)
(1.38993 -0.0482796 -4.88021e-19)
(1.99943 -0.0255504 -1.52621e-18)
(2.48654 -0.0152869 6.35254e-19)
(0.216679 -0.0495081 -1.82492e-19)
(1.29016 -0.000363164 -5.96475e-19)
(2.07535 0.0609092 1.93105e-18)
(2.47922 0.0903195 2.11451e-18)
(2.5329 0.0983977 -5.88853e-19)
(0.604733 -0.00338223 -3.15211e-19)
(1.82499 0.183433 -6.7637e-19)
(2.35819 0.252517 2.06429e-18)
(2.48231 0.259928 2.19285e-18)
(2.5638 0.233716 7.35102e-19)
(-0.0258489 0.360556 7.60696e-20)
(-0.110994 0.589149 1.24715e-19)
(-0.193066 0.607342 -3.14923e-19)
(-0.24385 0.57901 6.8773e-20)
(-0.273559 0.545567 8.93465e-19)
(-0.0585378 0.34391 2.63128e-20)
(-0.099549 0.66812 5.53612e-20)
(-0.124897 0.73042 1.7456e-21)
(-0.13974 0.680368 -4.85943e-21)
(-0.121579 0.596504 2.74852e-20)
(-0.0672591 0.210851 1.70423e-20)
(-0.105541 0.548535 -1.49825e-19)
(-0.100742 0.702336 2.15621e-20)
(-0.0711762 0.726734 -4.96014e-20)
(-0.00326813 0.679238 4.08595e-21)
(-0.0396827 0.0760461 -3.53988e-20)
(-0.0912709 0.294112 7.607e-20)
(-0.0885452 0.457613 -2.95314e-21)
(-0.048026 0.533049 -1.07007e-19)
(0.0288859 0.552395 -3.29065e-21)
(-0.051632 0.0451053 -3.86044e-20)
(-0.131068 0.13958 -6.1677e-20)
(-0.147192 0.233287 -1.48645e-19)
(-0.0397754 0.281881 6.50836e-20)
(0.0593249 0.375636 -1.99118e-19)
(-0.609488 0.514591 -1.48829e-19)
(1.45141 -0.813409 1.7985e-18)
(1.10617 -1.0665 5.62119e-20)
(1.01401 0.251958 -5.39522e-19)
(0.770107 0.29969 1.09086e-20)
(-0.375865 0.284207 -1.05315e-18)
(1.91939 -1.10302 -3.55421e-19)
(1.47624 -0.981171 1.13184e-19)
(0.806571 0.345271 8.43942e-19)
(0.735165 0.314609 -8.05748e-21)
(-0.0620898 0.0871211 -5.04043e-19)
(1.8603 -1.34144 1.39887e-18)
(1.27559 -0.930683 -8.61049e-20)
(0.665621 0.445948 5.08444e-19)
(0.805397 0.300333 1.50673e-21)
(0.334879 0.043659 3.42151e-19)
(2.16351 -1.29754 -2.26188e-19)
(0.793061 -0.816097 3.33095e-19)
(0.600709 0.446964 3.78682e-19)
(0.954979 0.269898 8.24784e-20)
(0.841399 -0.206166 -1.56761e-19)
(2.34479 -1.24878 2.64139e-19)
(0.648944 -0.61881 0)
(0.101937 0.447685 -7.91275e-19)
(1.14501 0.174808 7.16833e-20)
(1.88651 -0.211366 -5.07432e-19)
(2.44864 -1.08162 9.29013e-20)
(1.40436 -0.480048 -2.20023e-20)
(0.436663 0.270852 -2.40433e-19)
(1.47978 -0.0378151 -2.06478e-19)
(2.39771 -0.366944 2.32249e-20)
(2.48315 -0.963544 1.13698e-18)
(0.834776 -0.0581489 -1.51573e-20)
(1.0658 0.37201 1.28458e-19)
(1.75 -0.149898 0)
(2.30489 -0.344967 -4.48874e-19)
(2.10638 -0.4781 1.22061e-20)
(0.628255 0.0271872 -1.40534e-19)
(1.65476 0.0221817 -1.01309e-19)
(1.75709 -0.250027 6.21514e-20)
(2.23322 -0.29034 7.15308e-20)
(1.55891 -0.315242 1.63047e-19)
(0.86926 0.0727707 -2.59062e-20)
(1.68321 -0.12273 7.26483e-35)
(1.19542 -0.202949 -1.11849e-20)
(1.26333 -0.093466 1.63654e-19)
(0.495675 0.0376189 -7.43384e-21)
(0.656399 -0.0308691 -4.16869e-20)
(0.566837 -0.0904094 2.86915e-20)
(0.00340131 -0.00803942 -2.98185e-20)
(2.43737 0.242676 -9.04654e-19)
(2.63374 0.0140768 -1.13845e-18)
(2.49753 0.0575185 8.4101e-19)
(2.76147 -0.146935 7.29233e-20)
(2.16727 0.0168912 -1.46639e-20)
(2.12771 0.162063 5.66161e-20)
(2.42262 -0.0123985 -3.96011e-20)
(2.26446 -0.0136848 -1.35054e-19)
(2.50625 -0.157296 -2.24096e-19)
(2.3721 -0.229791 -6.54172e-21)
(2.08728 0.0694978 6.89521e-20)
(2.21617 -0.0236919 1.02814e-19)
(2.1954 -0.0611323 -1.37189e-19)
(2.26054 -0.128813 4.64613e-20)
(2.27717 -0.192406 2.59316e-20)
(2.08694 0.0065923 1.1001e-19)
(2.12023 -0.0473887 1.20509e-19)
(2.155 -0.0678323 -1.77349e-20)
(2.17059 -0.11604 -1.38496e-20)
(2.18994 -0.145141 2.66409e-20)
(1.58011 -0.0281316 1.57424e-19)
(1.51489 -0.0303754 -1.23062e-20)
(1.55352 -0.0403313 2.57571e-20)
(1.46436 -0.0414878 -1.2786e-20)
(1.50033 -0.0579425 3.12544e-20)
(1.57276 0.835382 1.15906e-18)
(1.54123 0.943028 -3.83582e-19)
(1.54856 1.08007 -1.39456e-18)
(1.47772 1.12734 7.49534e-19)
(0.902125 0.804896 -1.7071e-19)
(1.87669 0.813245 -5.88215e-19)
(1.84349 0.890006 -3.11453e-18)
(1.8507 0.996571 -1.20029e-18)
(1.76139 1.00747 -4.13657e-19)
(1.07238 0.702904 -6.76316e-19)
(2.17599 0.671873 7.70828e-19)
(2.16542 0.747345 2.00757e-19)
(2.14385 0.839837 -2.34086e-18)
(2.00637 0.827878 -6.59309e-19)
(1.18426 0.549206 4.84582e-19)
(2.35445 0.565507 2.32713e-18)
(2.34085 0.614719 1.72903e-18)
(2.33779 0.667773 -1.99872e-18)
(2.12445 0.626085 -1.52509e-18)
(1.16424 0.364156 -2.79536e-19)
(2.50093 0.39702 1.16471e-18)
(2.52003 0.423706 -8.33845e-19)
(2.42516 0.451652 6.01414e-19)
(2.08582 0.398551 4.77023e-19)
(0.981848 0.162742 -4.06478e-19)
(0.568424 0.498216 -6.17736e-19)
(0.474185 0.537628 -4.5143e-19)
(0.355982 0.576721 4.4585e-20)
(0.222098 0.576897 4.09013e-21)
(0.0544625 0.406054 8.53914e-20)
(0.690529 0.652024 9.57313e-20)
(0.625399 0.708965 -2.85048e-19)
(0.535094 0.775049 1.78695e-19)
(0.40853 0.834555 -8.36436e-20)
(0.178431 0.632644 1.18479e-19)
(0.777959 0.865506 9.64288e-20)
(0.708315 0.951555 4.71731e-19)
(0.655082 1.04724 1.25395e-19)
(0.57045 1.07836 -3.14227e-19)
(0.311978 0.787334 2.66646e-19)
(1.06024 0.913227 2.46275e-19)
(1.01073 0.996374 -7.69987e-19)
(0.963999 1.10017 -2.00439e-18)
(0.884935 1.16995 7.93026e-19)
(0.520257 0.863966 -1.57606e-19)
(1.1416 0.98266 -9.7684e-20)
(1.1745 1.09988 -1.74093e-19)
(1.1953 1.20853 -3.88254e-19)
(1.13997 1.22471 -4.34129e-19)
(0.69793 0.869309 -6.78469e-21)
(1.01401 0.051619 -8.91859e-20)
(0.997234 0.0362259 -3.17474e-20)
(1.03459 0.143669 -1.42198e-21)
(0.937488 0.14356 -2.12012e-19)
(0.907426 0.301093 2.95288e-19)
(1.00308 0.0494734 5.53055e-20)
(1.01217 0.0328213 1.17882e-19)
(1.01563 0.155928 1.18169e-19)
(0.982285 0.16446 2.96555e-20)
(0.943084 0.384972 -1.04548e-20)
(1.00854 0.0484057 7.33261e-20)
(0.996875 0.026247 -4.61076e-21)
(1.05706 0.173961 -4.30893e-21)
(0.940256 0.16426 1.42713e-19)
(1.15587 0.528633 -4.77524e-19)
(1.00255 0.0481313 -3.12515e-22)
(1.01477 0.0178627 -1.71884e-19)
(1.04543 0.195935 -5.87309e-20)
(1.04341 0.151396 -3.65431e-19)
(1.18455 0.588371 8.61275e-20)
(0.999944 0.0411157 -1.12349e-20)
(1.01266 0.0216769 4.811e-20)
(1.09467 0.19013 2.7368e-20)
(1.03486 0.183972 4.61593e-19)
(1.38918 0.715856 -4.68678e-19)
(0.959528 0.0443353 -4.60927e-21)
(1.07949 -0.00218329 1.07228e-19)
(1.07319 0.218987 -5.40582e-20)
(1.29711 0.0930128 1.03162e-18)
(1.35218 0.783415 -3.43521e-19)
(0.898445 0.0149853 -1.56095e-21)
(1.17384 -0.00308493 -9.50309e-20)
(0.999257 0.131201 5.54301e-21)
(1.43908 0.0737647 -3.5845e-19)
(1.32626 0.5881 -8.28108e-20)
(0.941988 0.00838699 3.70132e-21)
(1.13978 -0.00904977 1.49614e-35)
(1.08942 0.0770922 -1.30311e-20)
(1.35212 0.0363162 1.03368e-19)
(1.32864 0.432852 1.77238e-19)
(1.05802 -0.0356719 4.39098e-21)
(1.00711 -0.0324942 -3.16423e-20)
(1.21597 0.0149514 2.13375e-20)
(1.08331 0.0328708 1.92619e-20)
(1.47372 0.30602 -2.73031e-19)
(0.98553 -0.0230183 -4.05232e-20)
(0.792804 -0.0236676 -2.2146e-21)
(0.927478 0.00311875 2.48405e-20)
(0.72152 0.00552597 -2.2343e-20)
(1.20171 0.0851558 -6.22924e-20)
(1.79999 0.588262 2.86102e-19)
(1.91969 0.646904 7.30787e-19)
(2.16153 0.485888 -1.0572e-18)
(2.25087 0.486517 1.25929e-20)
(2.44445 0.264985 4.53182e-19)
(1.75044 0.364759 9.25652e-20)
(1.77913 0.438919 1.0014e-18)
(1.9983 0.299594 1.17319e-19)
(1.97649 0.329435 -8.70841e-19)
(2.23744 0.140883 -2.77756e-19)
(1.69236 0.278716 -2.43802e-19)
(1.77442 0.29078 -1.49902e-19)
(1.91743 0.197013 1.99766e-19)
(1.94764 0.193472 -2.70373e-19)
(2.09926 0.083403 2.50722e-19)
(1.7117 0.179871 4.19356e-19)
(1.83502 0.159372 -6.04219e-23)
(1.89765 0.0995899 2.12884e-19)
(1.98237 0.0828817 1.69682e-19)
(2.02935 0.0231115 -1.70543e-19)
(1.41264 0.0364982 -5.50689e-20)
(1.51485 0.0191916 2.56147e-19)
(1.52067 0.00207327 1.01165e-19)
(1.57715 -0.010004 -2.03039e-19)
(1.53643 -0.0188276 5.1942e-22)
(1.12781 -0.0170103 6.7703e-20)
(2.12072 -0.0390411 -4.28285e-19)
(2.35184 -0.0311423 1.16558e-18)
(2.32584 0.00783343 5.15756e-19)
(2.1733 0.0323087 -3.69369e-19)
(0.721736 0.0988266 1.31298e-19)
(1.90162 0.0959561 -4.38463e-19)
(2.34924 0.0993801 -6.0411e-19)
(2.40642 0.103808 7.54736e-19)
(2.14386 0.093034 -5.08788e-19)
(0.252885 0.0884248 -9.19836e-21)
(1.29598 0.163168 4.81121e-19)
(2.01681 0.183302 6.29768e-20)
(2.37848 0.176518 4.91103e-19)
(2.53761 0.161866 1.98594e-19)
(-0.00258441 -0.00160813 1.78425e-19)
(0.511632 0.104355 1.85597e-19)
(1.26853 0.177035 -4.4843e-19)
(1.74853 0.204064 3.01812e-20)
(2.28107 0.231229 1.48837e-19)
(-0.0728094 -0.0588198 1.16851e-19)
(0.0478573 -0.0174019 -1.40975e-19)
(0.470249 0.0655194 -6.4404e-20)
(0.930059 0.106061 6.86365e-20)
(1.32358 0.168651 7.5063e-21)
(-0.0598396 -0.0627283 1.33451e-20)
(-0.0809446 -0.0784686 5.78439e-20)
(0.0330778 -0.0524345 6.81445e-20)
(0.244021 0.000186793 -1.61368e-19)
(0.577192 0.0630938 -1.51002e-21)
(-0.0338063 -0.0538281 -9.39899e-21)
(-0.0661865 -0.103248 9.11432e-22)
(-0.0587801 -0.123368 7.92563e-21)
(-0.0092944 -0.106986 3.14358e-20)
(0.120813 -0.0504055 2.89619e-20)
(-0.0309053 -0.0793424 -2.33884e-20)
(-0.0640948 -0.136123 -3.12157e-19)
(-0.0885325 -0.148084 2.59161e-19)
(-0.110262 -0.125098 7.32531e-19)
(-0.0986284 -0.0754863 -1.17708e-19)
(-0.0251632 -0.0199918 2.33404e-20)
(-0.119196 0.00927499 1.99077e-19)
(-0.212951 0.0701865 -6.34021e-19)
(-0.302746 0.13925 -6.03627e-19)
(-0.366884 0.20172 1.03977e-19)
(-0.0165116 0.196175 -1.77152e-20)
(-0.15364 0.330618 6.85776e-20)
(-0.285501 0.3735 -3.09103e-20)
(-0.384828 0.395972 1.05567e-20)
(-0.463882 0.41635 4.65631e-19)
(1.40993 0.525981 -3.89461e-20)
(0.894725 0.118007 1.40451e-18)
(1.46565 -0.0682142 -9.95062e-20)
(1.50703 0.0648918 9.70959e-20)
(1.00762 0.0335232 1.09964e-21)
(1.06448 0.432081 1.49143e-19)
(0.243891 0.0314356 -6.57332e-19)
(1.28949 -0.152045 -2.14514e-19)
(1.59748 0.132566 1.7065e-20)
(1.05848 0.0893006 -1.06376e-20)
(0.20677 0.411079 -2.63767e-19)
(-0.635959 -0.0548182 1.63802e-19)
(1.07931 -0.406285 7.0677e-22)
(1.53164 0.168221 -2.55346e-19)
(1.01902 0.156905 1.20619e-20)
(-0.586291 0.538317 9.84817e-19)
(-0.863978 -0.317023 -4.79418e-18)
(0.923728 -0.78169 -2.91349e-19)
(1.38252 0.186858 -7.0389e-21)
(0.931915 0.214732 -9.65867e-23)
(-0.837594 0.553725 3.24223e-19)
(0.0841202 -0.658502 -5.08367e-19)
(0.829346 -1.05743 1.52956e-19)
(1.18375 0.219595 1.25801e-20)
(0.837559 0.2657 1.58007e-20)
(0.529249 0.152642 -1.00539e-19)
(-0.185696 -0.0492033 0)
(0.0216882 -0.101017 -2.46114e-20)
(0.0928333 -0.0645364 4.41403e-20)
(0.33025 -0.0322771 -1.23027e-20)
(1.82177 0.436603 0)
(1.13923 0.202731 0)
(1.28772 0.0144382 5.17223e-19)
(1.10465 -0.020028 4.70342e-20)
(0.834725 -0.0410024 7.97558e-21)
(0.697108 0.000422563 -1.27216e-19)
(0.757739 -0.00147904 3.0839e-19)
(0.881448 -0.0103606 -2.20546e-20)
(1.01796 0.0154305 2.7805e-19)
(1.26796 0.064558 1.81687e-19)
(1.58131 0.0212395 1.21894e-19)
(1.69726 0.0744622 3.52779e-19)
(1.86862 0.0498483 -2.38705e-19)
(2.41361 0.173682 3.87481e-20)
(2.08485 0.143321 1.83946e-19)
(0.885761 -0.458519 -3.15838e-20)
(0.870155 -0.544492 -1.58952e-19)
(0.855895 -0.63743 -1.02849e-19)
(0.783413 -0.70267 6.35639e-20)
(0.476602 -0.551825 1.26264e-19)
(0.777854 -0.358704 1.21597e-19)
(0.722124 -0.42153 2.40038e-19)
(0.650483 -0.491275 -4.45659e-20)
(0.541793 -0.551177 1.38379e-19)
(0.29601 -0.441195 5.41111e-20)
(0.64006 -0.216954 -1.43314e-19)
(0.555304 -0.254568 -5.33287e-20)
(0.454333 -0.301007 1.16932e-19)
(0.333276 -0.342836 -1.32491e-20)
(0.145877 -0.278828 -1.21018e-19)
(0.541353 0.0147628 -4.29561e-19)
(0.454643 0.0026687 -3.52579e-19)
(0.343438 -0.0166448 2.81002e-19)
(0.216709 -0.0454136 1.66745e-19)
(0.0568819 -0.061536 1.33725e-20)
(0.524028 0.219416 -1.55859e-19)
(0.438796 0.223182 -1.64026e-19)
(0.321839 0.226002 -6.34355e-20)
(0.183205 0.234285 2.81527e-20)
(0.0262272 0.173923 1.20286e-20)
(1.93147 -0.0398427 7.69288e-19)
(2.19625 -0.102506 2.52434e-19)
(2.26807 -0.181784 -6.79109e-19)
(2.12326 -0.208276 -1.40475e-18)
(1.27485 -0.177877 1.22434e-19)
(1.91523 -0.120285 1.28132e-18)
(2.00226 -0.227183 1.70823e-18)
(2.02736 -0.344452 1.44241e-19)
(1.94794 -0.399715 2.55113e-19)
(1.24394 -0.344105 -1.67963e-19)
(1.63552 -0.275998 -3.30813e-18)
(1.70818 -0.390336 3.55993e-19)
(1.75552 -0.509838 1.04146e-18)
(1.69391 -0.579458 -3.83526e-19)
(1.09663 -0.484274 6.10526e-19)
(1.4385 -0.394774 7.87049e-19)
(1.45832 -0.490405 -2.09891e-18)
(1.44779 -0.603709 -2.38281e-18)
(1.38056 -0.684441 7.20695e-19)
(0.889888 -0.558419 5.01057e-19)
(1.16436 -0.448912 1.622e-19)
(1.12735 -0.54008 2.43547e-19)
(1.11975 -0.656265 -3.614e-19)
(1.06415 -0.736995 -4.35274e-19)
(0.67404 -0.583382 -4.01314e-21)
(1.06118 0.0566109 7.49703e-21)
(0.927716 0.0580233 -2.07966e-21)
(1.10342 0.0846436 3.68575e-21)
(0.808586 0.012255 -2.33584e-19)
(1.05758 -0.187214 -1.508e-20)
(1.07459 0.0604072 -2.4459e-21)
(0.922628 0.0552679 3.59055e-20)
(1.10389 0.102817 -2.18592e-20)
(0.886686 0.0598911 1.68623e-19)
(0.96657 -0.0739517 -6.90073e-21)
(1.07381 0.0576868 -5.90665e-20)
(0.929229 0.0517415 1.06942e-22)
(1.09135 0.10695 -1.46745e-20)
(0.888644 0.0818983 8.55352e-20)
(0.935045 -0.012325 -2.1049e-19)
(1.05397 0.0561389 7.03677e-20)
(0.958529 0.0468314 3.15458e-21)
(1.06165 0.116241 2.79378e-20)
(0.920385 0.106741 -2.97956e-20)
(0.856304 0.093615 8.36949e-20)
(1.0275 0.0528795 1.74988e-20)
(0.990154 0.0436677 -2.6647e-20)
(1.03199 0.126066 4.01948e-20)
(0.947884 0.131596 4.96362e-20)
(0.837551 0.19661 -7.86859e-20)
(0.884765 0.0338024 0)
(0.713417 0.0287668 9.77377e-21)
(0.588563 0.0233751 5.53059e-21)
(0.333307 -0.005555 3.59496e-20)
(0.633882 -0.049744 -1.4188e-19)
(1.02483 0.0752533 -6.46766e-20)
(0.943647 0.0736914 -1.12731e-20)
(1.00579 0.0845076 -4.98748e-20)
(0.799334 0.00551926 -1.32782e-19)
(0.992012 -0.174461 -1.52656e-19)
(0.871401 -0.0643342 -3.33911e-20)
(0.956907 -0.0311465 5.02273e-19)
(1.04154 0.0347897 2.97771e-19)
(0.925794 0.0488724 3.21295e-20)
(0.720952 0.0258383 0)
(1.22874 -0.301117 3.18334e-19)
(1.33791 -0.266788 1.41296e-18)
(1.50244 -0.150353 -1.53459e-18)
(1.59913 -0.0228636 -4.70867e-19)
(1.49884 0.0248633 3.63743e-19)
)
;

boundaryField
{
    left
    {
        type            fixedValue;
        value           uniform (1 0 0);
    }
    right
    {
        type            zeroGradient;
    }
    down
    {
        type            noSlip;
    }
    up
    {
        type            noSlip;
    }
    cylinder
    {
        type            noSlip;
    }
    defaultFaces
    {
        type            empty;
    }
}


// ************************************************************************* //
