/*--------------------------------*- C++ -*----------------------------------*\
  =========                 |
  \\      /  F ield         | OpenFOAM: The Open Source CFD Toolbox
   \\    /   O peration     | Website:  https://openfoam.org
    \\  /    A nd           | Version:  13
     \\/     M anipulation  |
\*---------------------------------------------------------------------------*/
FoamFile
{
    format      ascii;
    class       surfaceScalarField;
    location    "0.65";
    object      phi;
}
// * * * * * * * * * * * * * * * * * * * * * * * * * * * * * * * * * * * * * //

dimensions      [0 3 -1 0 0 0 0];

internalField   nonuniform List<scalar> 
3485
(
0.00253888
-0.000777978
-0.0017609
0.00946799
-0.0240298
0.0171007
0.0198247
-0.0568616
0.0465048
0.0322013
-0.0893873
0.0770107
0.045198
-0.115767
0.10277
0.0578001
-0.134029
0.121427
0.0694725
-0.144766
0.133094
0.080042
-0.149688
0.139119
0.0895408
-0.150574
0.141075
-0.148782
0.139789
0.0985347
0.00312205
-0.00390003
0.0112138
-0.0321216
0.0227618
-0.0684095
0.0359282
-0.102554
0.0491483
-0.128987
0.0614885
-0.146369
0.0726448
-0.155922
0.0827503
-0.159794
0.0922185
-0.160042
-0.158217
0.101653
0.00367766
-0.00757768
0.0128099
-0.0412539
0.025271
-0.0808706
0.038799
-0.116082
0.0517151
-0.141903
0.0631929
-0.157847
0.0730989
-0.165828
0.0816792
-0.168374
0.0892808
-0.167644
-0.165083
0.0961471
0.00420292
-0.0117806
0.0142127
-0.0512637
0.0272573
-0.0939151
0.0407467
-0.129571
0.0530311
-0.154187
0.0635152
-0.168331
0.0723199
-0.174633
0.0798757
-0.17593
0.0866517
-0.17442
-0.171585
0.0931532
0.00466459
-0.0164452
0.0152889
-0.0618879
0.0284591
-0.107085
0.0413724
-0.142485
0.0525192
-0.165334
0.0615664
-0.177378
0.0688483
-0.181915
0.0749086
-0.18199
0.0802468
-0.179758
-0.176556
0.0852175
0.00505963
-0.0215048
0.0160106
-0.0728389
0.0288723
-0.119947
0.0408035
-0.154416
0.0505649
-0.175095
0.058133
-0.184946
0.0640499
-0.187832
0.0689459
-0.186886
0.0733124
-0.184124
-0.18073
0.0774871
0.00532952
-0.0268343
0.01622
-0.0837294
0.028271
-0.131998
0.0387573
-0.164902
0.0467841
-0.183122
0.0526191
-0.190781
0.0569494
-0.192162
0.0604253
-0.190362
0.0634931
-0.187192
-0.183623
0.0663855
0.00545976
-0.0322941
0.0159083
-0.094178
0.0267337
-0.142823
0.0354844
-0.173653
0.0416611
-0.189299
0.0457953
-0.194915
0.0486697
-0.195037
0.0509162
-0.192609
0.0529109
-0.189187
-0.185523
0.0548107
0.00538791
-0.037682
0.0149648
-0.103755
0.0241234
-0.151982
0.0308287
-0.180358
0.0349715
-0.193442
0.037283
-0.197227
0.0385777
-0.196331
0.0394306
-0.193461
0.0401381
-0.189894
-0.186153
0.0407689
0.00510989
-0.0427919
0.0134349
-0.11208
0.0206266
-0.159174
0.0251565
-0.184888
0.0272682
-0.195553
0.0278199
-0.197779
0.0276079
-0.196119
0.0271332
-0.192987
0.0266179
-0.189379
0.0260758
-0.185611
-0.00159952
0.00169613
-9.66117e-05
-0.00278032
-0.000550996
0.00173179
-0.00173131
-0.00561076
0.00456175
0.00222181
-0.0115537
0.00760056
0.00902753
-0.0171327
0.010327
0.0182455
-0.0217036
0.0124857
0.0292975
-0.0250638
0.0140118
0.041624
-0.0272911
0.0149645
0.0547809
-0.0286196
0.0154627
-0.0293734
0.0685233
0.015631
-0.0014466
0.00314273
-0.00234483
0.000347227
-0.000989831
-0.00696576
0.00325344
-0.015797
0.0103047
-0.0241839
0.0197042
-0.0311032
0.030862
-0.0362216
0.0432117
-0.0396408
0.0563064
-0.0417142
-0.0429817
0.0699147
-0.0012462
0.00438893
-0.00179669
0.000897711
-3.46804e-05
-0.00872777
0.00460372
-0.0204353
0.0119914
-0.0315717
0.0216431
-0.0407549
0.0329528
-0.0475313
0.0453459
-0.0520339
0.0583711
-0.0547393
-0.0564249
0.0718142
-0.000986943
0.00537588
-0.00104463
0.000955395
0.00127053
-0.0110429
0.00645084
-0.0256157
0.014307
-0.0394278
0.0243149
-0.0507628
0.0358481
-0.0590645
0.0483242
-0.0645101
0.0612884
-0.0677035
-0.069682
0.0745455
-0.000657825
0.0060337
-8.5924e-05
0.000383494
0.00300178
-0.0141306
0.00892278
-0.0315367
0.0174126
-0.0479176
0.0278978
-0.061248
0.0397294
-0.070896
0.0523243
-0.077105
0.0652315
-0.0806107
-0.0827169
0.0782664
-0.000198503
0.0062322
0.00118845
-0.00100346
0.00522731
-0.0181695
0.0120761
-0.0383854
0.0213514
-0.057193
0.0324097
-0.0723063
0.0445795
-0.0830658
0.0572907
-0.0898163
0.0701138
-0.0934338
-0.0954614
0.0828583
0.000295326
0.00593688
0.00267098
-0.00337912
0.00784886
-0.0233474
0.0157872
-0.0463238
0.025953
-0.0673588
0.0376214
-0.0839747
0.0501057
-0.0955501
0.0628709
-0.102581
0.075537
-0.1061
-0.107806
0.0878818
0.000830799
0.00510608
0.00427671
-0.00682503
0.0107006
-0.0297712
0.0198005
-0.0554237
0.0308632
-0.0784215
0.0430777
-0.0961893
0.0557583
-0.108231
0.0684308
-0.115254
0.0807942
-0.118463
-0.119548
0.0925363
0.0013854
0.00372067
0.00594308
-0.0113827
0.0136509
-0.037479
0.0238942
-0.065667
0.0357487
-0.090276
0.0483187
-0.108759
0.0609456
-0.120858
0.0732515
-0.12756
0.0850477
-0.13026
-0.130344
0.0958432
0.00195978
0.00767777
0.0167036
0.0280473
0.0405414
0.0532089
0.0654451
0.0770041
0.0878197
0.0972645
0.141984
-0.199583
0.126122
0.174783
-0.133545
0.100746
0.192108
-0.100305
0.0829794
0.20099
-0.0759806
0.0670992
0.205208
-0.0573218
0.0531035
0.206851
-0.0428384
0.0411949
0.207016
-0.0315799
0.0314156
0.206271
-0.0221776
0.0229222
0.205052
-0.0164744
0.0176936
-0.00699389
0.0087534
0.140515
-0.270183
0.173805
-0.166835
0.191495
-0.117995
0.200614
-0.0850994
0.205023
-0.0617312
0.206813
-0.044628
0.207094
-0.0318612
0.206455
-0.0215384
0.205334
-0.0153531
-0.00534374
0.138149
-0.336518
0.171968
-0.200654
0.190084
-0.136111
0.199517
-0.0945332
0.204219
-0.0664325
0.20627
-0.0466787
0.206792
-0.0323833
0.206387
-0.021134
0.205496
-0.0144619
-0.0039387
0.13508
-0.397053
0.16928
-0.234853
0.18786
-0.154692
0.197701
-0.104373
0.202798
-0.0715302
0.205225
-0.0491052
0.20611
-0.0332688
0.206068
-0.0210922
0.205537
-0.0139308
-0.00291343
0.131533
-0.450319
0.165728
-0.269048
0.184802
-0.173766
0.195163
-0.114734
0.200767
-0.0771348
0.203685
-0.0520226
0.205054
-0.0346388
0.2055
-0.0215379
0.205457
-0.0138877
-0.00240082
0.12779
-0.495251
0.161332
-0.30259
0.180866
-0.1933
0.191893
-0.125761
0.198129
-0.0833712
0.201656
-0.0555493
0.20363
-0.0366129
0.204686
-0.0225935
0.205255
-0.0144571
-0.00253126
0.124289
-0.531658
0.156141
-0.334441
0.176038
-0.213197
0.187872
-0.137595
0.194881
-0.0903805
0.199144
-0.0598119
0.201843
-0.0393124
0.203629
-0.0243789
0.204931
-0.0157598
-0.00343205
0.121446
-0.560568
0.150506
-0.363501
0.170468
-0.233159
0.183121
-0.150248
0.191022
-0.0982815
0.19615
-0.06494
0.199699
-0.0428611
0.202333
-0.0270128
0.204487
-0.0179139
-0.00522701
0.11907
-0.583795
0.145032
-0.389463
0.164577
-0.252704
0.177812
-0.163483
0.186609
-0.107078
0.192695
-0.0710263
0.197207
-0.0473728
0.200804
-0.0306096
0.203922
-0.0210325
-0.00803575
0.11672
-0.60325
0.140088
-0.412832
0.158945
-0.271561
0.172397
-0.176935
0.181892
-0.116573
0.1889
-0.0780342
0.194423
-0.0528961
0.199066
-0.0352528
0.203247
-0.025213
-0.0119699
0.414843
-0.527204
-0.490889
0.368994
-0.366983
0.345041
-0.247608
0.332889
-0.164783
0.326412
-0.110096
0.322623
-0.0742454
0.320201
-0.0504741
0.318613
-0.0336642
0.317466
-0.0240662
-0.011418
0.422248
-0.441232
-0.508219
0.375207
-0.319942
0.351293
-0.223694
0.338518
-0.152008
0.330859
-0.102438
0.325882
-0.0692679
0.322516
-0.0471084
0.320259
-0.0314071
0.318643
-0.0224503
-0.010655
0.438854
-0.364504
-0.515582
0.391827
-0.272915
0.363266
-0.195133
0.346287
-0.135029
0.335891
-0.0920417
0.329214
-0.0625903
0.324773
-0.0426678
0.321832
-0.028466
0.319752
-0.0203699
-0.00968157
0.446861
-0.294031
-0.517335
0.401288
-0.227342
0.371314
-0.16516
0.352291
-0.116006
0.340128
-0.0798793
0.332145
-0.0546072
0.326798
-0.0373207
0.323256
-0.0249236
0.320753
-0.0178676
-0.00851129
0.453215
-0.230415
-0.51683
0.408887
-0.183014
0.378027
-0.1343
0.357392
-0.0953712
0.343768
-0.0662548
0.334685
-0.0455241
0.328562
-0.031198
0.3245
-0.0208617
0.321626
-0.0149934
-0.00716294
0.457745
-0.172635
-0.515525
0.414451
-0.13972
0.383167
-0.103017
0.361439
-0.0736426
0.346716
-0.0515318
0.336767
-0.0355756
0.330018
-0.024449
0.325531
-0.0163748
0.322344
-0.0118063
-0.00565989
0.460614
-0.118984
-0.514265
0.418087
-0.0971927
0.386618
-0.0715476
0.36423
-0.051254
0.348773
-0.0360757
0.338217
-0.0250187
0.331014
-0.017247
0.326217
-0.0115769
0.322791
-0.00838057
-0.00403316
0.459704
-0.066293
-0.512395
0.417317
-0.0548063
0.386024
-0.0402539
0.363686
-0.0289166
0.348126
-0.0205156
0.337417
-0.0143095
0.330074
-0.00990459
0.325172
-0.00667466
0.321651
-0.00485979
-0.00235119
0.43188
-0.017423
-0.48075
0.392383
-0.0153092
0.363968
-0.0118382
0.34404
-0.00898886
0.330171
-0.00664692
0.320593
-0.00473162
0.314003
-0.00331384
0.30959
-0.00226204
0.306405
-0.00167432
-0.000820755
0.253312
-0.270735
0.238003
0.226165
0.217176
0.210529
0.205797
0.202484
0.200222
0.198547
0.494752
0.0215895
-0.490265
0.499314
0.0362062
0.502775
0.0513501
0.506394
0.062767
0.507612
0.0762687
0.509448
0.0833814
0.506486
0.0961157
0.505669
0.096964
0.49511
0.112211
0.102756
0.472893
0.0174674
-0.468771
0.478037
0.0310619
0.482874
0.0465125
0.488638
0.0570036
0.493296
0.0716109
0.498656
0.0780207
0.502407
0.0923649
0.506135
0.0932363
0.509477
0.108869
0.104015
0.456013
0.0136745
-0.45222
0.461042
0.0260332
0.46678
0.0407738
0.473325
0.0504586
0.480358
0.0645777
0.487487
0.0708918
0.495301
0.0845514
0.501951
0.086586
0.510309
0.100511
0.0987414
0.442903
0.0101332
-0.439362
0.447727
0.0212091
0.454027
0.0344735
0.46102
0.0434663
0.469432
0.0561651
0.477803
0.0625212
0.487794
0.0745604
0.496759
0.0776211
0.507905
0.0893655
0.0893113
0.432984
0.00679667
-0.429648
0.437688
0.0165051
0.444237
0.0279246
0.451579
0.0361249
0.460719
0.0470242
0.470042
0.0531983
0.48127
0.0633332
0.491986
0.0669044
0.504928
0.0764241
0.0774089
0.425344
0.00360978
-0.422157
0.430053
0.0117959
0.436759
0.0212189
0.444469
0.0284147
0.454072
0.0374217
0.464173
0.0430972
0.476159
0.0513476
0.488104
0.0549589
0.502039
0.062489
0.0639229
0.418854
0.000492265
-0.415736
0.423737
0.006912
0.430664
0.0142927
0.438851
0.0202269
0.448912
0.027361
0.459777
0.0322328
0.47236
0.0387638
0.485246
0.0420731
0.499841
0.0478938
0.0494994
0.408282
-0.00255657
-0.405233
0.413272
0.00192192
0.42052
0.00704452
0.429438
0.0113082
0.440392
0.0164077
0.452486
0.020138
0.46633
0.02492
0.480657
0.0277468
0.496609
0.0319411
0.0337139
0.368121
-0.00369722
-0.366981
0.371641
-0.00159718
0.377919
0.000766035
0.386407
0.00282043
0.397593
0.00522121
0.410612
0.00711968
0.426072
0.00945999
0.4427
0.0111186
0.461356
0.0132854
0.014319
0.208222
-0.211919
0.206625
0.207391
0.210212
0.215433
0.222552
0.232012
0.243131
0.256416
0.0728596
0.131923
-0.121207
-0.0835754
0.0628234
0.134
-0.123964
0.0533684
0.136542
-0.127087
0.0440676
0.139948
-0.130647
0.034679
0.143681
-0.134292
0.0252496
0.146766
-0.137337
0.0161322
0.146834
-0.137717
0.0080752
0.138503
-0.130446
0.00225413
0.111988
-0.106167
0.0535724
-0.0513183
0.070459
0.141617
-0.0801529
0.0607335
0.143725
0.0511789
0.146096
0.041821
0.149306
0.0325431
0.152959
0.023379
0.15593
0.0146737
0.15554
0.0071577
0.146019
0.00190492
0.117241
0.0554774
0.0652242
0.15029
-0.073897
0.056151
0.152799
0.0470489
0.155198
0.0380898
0.158265
0.0292765
0.161772
0.0206763
0.16453
0.0126365
0.163579
0.00588149
0.152774
0.00139777
0.121725
0.0568751
0.0578787
0.15805
-0.0656384
0.0497093
0.160968
0.0413545
0.163553
0.0330353
0.166584
0.0248709
0.169937
0.0170122
0.172389
0.00985075
0.170741
0.00411614
0.158508
0.000679666
0.125161
0.0575548
0.0493524
0.164963
-0.056266
0.0421044
0.168216
0.0345984
0.171059
0.0270385
0.174144
0.0196257
0.17735
0.0126118
0.179403
0.0064554
0.176897
0.00191356
0.16305
-0.00018703
0.127262
0.0573678
0.0398152
0.171067
-0.0459193
0.0334624
0.174569
0.0268479
0.177674
0.02014
0.180852
0.0135781
0.183912
0.0075172
0.185464
0.00251459
0.1819
-0.000602544
0.166167
-0.00110052
0.12776
0.0562673
0.0289296
0.176297
-0.0341594
0.0235207
0.179978
0.01788
0.183314
0.0121518
0.18658
0.00661446
0.189449
0.00168566
0.190393
-0.00185706
0.185443
-0.00314289
0.167453
-0.00203618
0.126653
0.0542311
0.0164748
0.180543
-0.0207204
0.0121231
0.18433
0.00760547
0.187832
0.00304235
0.191143
-0.00125872
0.19375
-0.00469301
0.193827
-0.00651357
0.187263
-0.0059561
0.166896
-0.002984
0.123681
0.0512471
0.00267284
0.183727
-0.0058568
-0.000506811
0.187509
-0.00376534
0.19109
-0.00697798
0.194356
-0.00979571
0.196568
-0.0115988
0.19563
-0.0114918
0.187156
-0.00875733
0.164161
-0.00386779
0.118792
0.0473793
-0.0118905
0.0100061
-0.0137605
-0.0156568
-0.0174201
-0.018631
-0.0185546
-0.0162866
-0.0112991
-0.0045874
0.104585
0.0268456
-0.116111
-0.0153198
0.0927797
0.0275482
-0.0157427
0.0806713
0.0283012
-0.0161928
0.0682289
0.0291038
-0.0166614
0.0554278
0.0299477
-0.0171465
0.0422853
0.0307585
-0.0176161
0.0289819
0.0312129
-0.0179095
0.0161563
0.0303143
-0.0174887
0.00542334
0.0257571
-0.0150241
0.0133953
-0.00797197
0.103895
0.0383647
-0.115414
0.0921151
0.0393276
0.0800454
0.0403709
0.0676542
0.041495
0.0549167
0.0426852
0.041852
0.0438233
0.0286445
0.0444205
0.0159362
0.0430227
0.00533135
0.0363619
0.0187267
0.102853
0.0498675
-0.114355
0.0911121
0.0510682
0.0790992
0.0523838
0.0667828
0.0538113
0.0541395
0.0553285
0.0411916
0.0567711
0.028131
0.0574811
0.0156044
0.0555492
0.00519704
0.0467692
0.0239237
0.10118
0.0613688
-0.112682
0.0895194
0.0627292
0.0776112
0.064292
0.0654228
0.0659997
0.0529326
0.0678187
0.0401705
0.0695332
0.0273376
0.070314
0.0150855
0.0678014
0.00497664
0.0568781
0.0289003
0.0992629
0.0727185
-0.110613
0.0877533
0.0742388
0.0760322
0.0760131
0.064048
0.0779839
0.0517637
0.080103
0.0392049
0.082092
0.0265911
0.0829279
0.0146026
0.0797899
0.00478859
0.0666921
0.0336889
0.0953315
0.0840275
-0.106641
0.0839957
0.0855746
0.0724874
0.0875215
0.0607904
0.0896809
0.048889
0.0920044
0.0368131
0.0941679
0.0247764
0.0949646
0.013447
0.0911193
0.00431794
0.0758211
0.0380069
0.0925293
0.0948429
-0.103345
0.0816648
0.0964391
0.0705992
0.0985871
0.0592392
0.101041
0.047574
0.10367
0.0356938
0.106048
0.0238843
0.106774
0.0128594
0.102144
0.00408561
0.0845949
0.0420925
0.0853332
0.105299
-0.095789
0.0750201
0.106752
0.0646684
0.108939
0.0541711
0.111538
0.0434267
0.114414
0.0324513
0.117023
0.0215244
0.117701
0.0113949
0.112274
0.00350294
0.0924868
0.0455954
0.0808282
0.114359
-0.0898888
0.0714882
0.116092
0.0616262
0.118801
0.051379
0.121785
0.0408756
0.124917
0.0302461
0.127653
0.0198082
0.128139
0.0103065
0.121775
0.00308573
0.0997076
0.0486811
0.0714232
-0.0782714
0.0635516
0.0552658
0.0464038
0.0370287
0.027345
0.0177671
0.00909688
0.00263718
0.201935
0.00841942
-0.0123646
0.205685
0.0268027
-0.0305523
0.207269
0.039425
-0.0410095
0.208253
0.0442246
-0.0452089
0.207621
0.0503672
-0.049735
0.20537
0.0595074
-0.0572561
0.198998
0.0731372
-0.0667654
0.188425
0.0923883
-0.0818155
0.163328
0.122981
-0.0978841
0.166206
-0.118989
0.201625
0.00478409
0.205153
0.0232746
0.206645
0.0379334
0.207594
0.0432752
0.206924
0.0510373
0.204547
0.0618847
0.198102
0.0795821
0.18716
0.103331
0.161873
0.148268
0.212665
0.201218
0.00155595
0.204386
0.0201068
0.205666
0.0366531
0.20644
0.0425012
0.205599
0.0518786
0.202938
0.0645452
0.196356
0.0861641
0.184857
0.11483
0.159711
0.173414
0.25802
0.200708
-0.0011625
0.203382
0.0174331
0.204342
0.0356934
0.204807
0.0420357
0.20366
0.0530253
0.200565
0.0676411
0.193756
0.0929729
0.181482
0.127103
0.156902
0.197995
0.30224
0.200091
-0.00326402
0.202143
0.0153814
0.202682
0.0351546
0.202713
0.0420043
0.201127
0.0546117
0.197452
0.0713162
0.19029
0.100134
0.176973
0.14042
0.15349
0.221479
0.345117
0.19936
-0.00463432
0.20067
0.0140715
0.200698
0.0351264
0.200177
0.0425255
0.198017
0.0567718
0.193631
0.0757017
0.186005
0.107761
0.171231
0.155194
0.149407
0.243304
0.387883
0.198511
-0.00515575
0.198968
0.0136143
0.198406
0.0356884
0.197219
0.043713
0.194352
0.0596384
0.189141
0.0809133
0.180909
0.115993
0.164616
0.171487
0.144688
0.263231
0.429227
0.197544
-0.00470988
0.197052
0.0141065
0.195826
0.0369139
0.193861
0.0456783
0.190156
0.0633436
0.184014
0.0870554
0.174974
0.125032
0.157321
0.18914
0.13906
0.281492
0.472498
0.196471
-0.00319105
0.194961
0.0156168
0.192989
0.0388856
0.190131
0.0485363
0.185453
0.068022
0.178288
0.0942196
0.168273
0.135047
0.150661
0.206752
0.132765
0.299388
0.515374
0.195382
-0.000583346
0.192737
0.0182614
0.189971
0.0416525
0.186012
0.052495
0.180325
0.0737086
0.171992
0.102553
0.160212
0.146827
0.140617
0.226348
0.125394
0.31461
0.562497
0.304182
-0.00275466
0.307621
0.0148219
0.312459
0.0368143
0.316254
0.0487
0.319982
0.0699813
0.323872
0.098663
0.330167
0.140531
0.340783
0.215733
0.38009
0.275303
0.510876
0.431711
0.304879
-0.00562322
0.308923
0.0107773
0.314328
0.0314092
0.318947
0.0440818
0.324071
0.0648569
0.3305
0.0922336
0.339562
0.131469
0.35787
0.197424
0.392394
0.24078
0.456559
0.446712
0.305669
-0.00928176
0.310523
0.00592299
0.31635
0.0255826
0.321698
0.0387332
0.328007
0.0585483
0.336281
0.0839596
0.348346
0.119404
0.369622
0.176148
0.402132
0.208269
0.393995
0.464696
0.306612
-0.0138831
0.312302
0.000232313
0.318442
0.019443
0.324361
0.0328141
0.331703
0.051206
0.341449
0.0742138
0.356039
0.104814
0.378644
0.153544
0.411567
0.175347
0.327913
0.477649
0.307772
-0.0196445
0.314307
-0.00630341
0.320582
0.0131686
0.326873
0.026523
0.335037
0.0430415
0.346004
0.0632474
0.362341
0.088477
0.386289
0.129596
0.418739
0.142897
0.262241
0.48441
0.309221
-0.0268557
0.316634
-0.0137162
0.322787
0.00701583
0.329185
0.0201248
0.337937
0.0342896
0.349891
0.0512933
0.367282
0.0710857
0.39268
0.104198
0.423811
0.111766
0.199544
0.486508
0.311066
-0.0359117
0.319358
-0.0220081
0.324906
0.00146767
0.331149
0.0138824
0.340292
0.0251459
0.352995
0.0385907
0.370985
0.0530956
0.397617
0.0775667
0.427206
0.0821768
0.140438
0.486311
0.312837
-0.0467386
0.321373
-0.0305441
0.326188
-0.00334723
0.331811
0.00825958
0.341118
0.0158387
0.35436
0.0253488
0.372843
0.0346127
0.400238
0.0501719
0.428973
0.0534417
0.0852203
0.484191
0.308125
-0.0528532
0.310558
-0.0329778
0.313199
-0.00598745
0.318791
0.00266738
0.32835
0.00627981
0.342161
0.0115372
0.361386
0.0153881
0.388828
0.0227296
0.418793
0.0234771
0.0356685
0.468345
0.249157
0.216179
0.210192
0.212859
0.219139
0.230676
0.246064
0.268794
0.292271
0.32794
0.443857
-0.0957221
0.449121
-0.0854166
0.454023
-0.0787986
0.459263
-0.0708787
0.464901
-0.0619039
0.470537
-0.0515557
0.475762
-0.039384
0.480682
-0.0256408
0.485316
-0.0104903
0.00505638
0.448834
-0.0978447
0.451462
-0.0880445
0.453002
-0.080339
0.454593
-0.0724689
0.456248
-0.0635592
0.457986
-0.0532936
0.459975
-0.0413731
0.462302
-0.0279676
0.465094
-0.0132824
0.00137959
0.460507
-0.0936562
0.458068
-0.0856055
0.455481
-0.0777515
0.45281
-0.0697983
0.450555
-0.0613039
0.44897
-0.051709
0.448185
-0.0405874
0.448391
-0.0281745
0.449655
-0.0145455
-0.00118591
0.468852
-0.0848587
0.461644
-0.0783975
0.455421
-0.0715288
0.449799
-0.0641762
0.444942
-0.0564475
0.441093
-0.0478598
0.438447
-0.0379414
0.437205
-0.0269322
0.437507
-0.0148476
-0.00304057
0.472817
-0.0732653
0.46266
-0.068241
0.453891
-0.0627595
0.446268
-0.056553
0.439716
-0.0498962
0.434419
-0.0425627
0.430634
-0.034156
0.428539
-0.0248371
0.428256
-0.0145652
-0.00443187
0.473497
-0.060254
0.461776
-0.0565199
0.451445
-0.0524285
0.442524
-0.0476327
0.434954
-0.0423256
0.428826
-0.0364353
0.424363
-0.0296932
0.421723
-0.0221967
0.421046
-0.0138878
-0.0055436
0.472455
-0.0463977
0.459854
-0.0439185
0.448564
-0.0411384
0.438765
-0.037834
0.43046
-0.0340203
0.423705
-0.0296807
0.418711
-0.0246992
0.415654
-0.01914
0.414712
-0.0129458
-0.00656735
0.469542
-0.0317484
0.455853
-0.0302299
0.443505
-0.0287906
0.432653
-0.0269822
0.423338
-0.0247052
0.415669
-0.0220118
0.409881
-0.0189106
0.406149
-0.0154084
0.404611
-0.0114078
-0.00718907
0.450756
-0.0141595
0.434744
-0.0142183
0.420148
-0.0141945
0.40702
-0.0138543
0.395469
-0.0131544
0.385655
-0.0121975
0.377758
-0.011014
0.371916
-0.00956615
0.368309
-0.00780017
-0.00586129
0.31378
0.299562
0.285367
0.271513
0.258359
0.246161
0.235147
0.225581
0.217781
0.00907641
0.0561116
-0.065188
0.0197536
0.146373
-0.15705
0.0253834
0.201335
-0.206964
0.0259952
0.226613
-0.227225
0.0235513
0.23471
-0.232267
0.0197133
0.234995
-0.231157
0.0154167
0.231997
-0.227701
0.0112186
0.226559
-0.222361
0.00773392
0.216673
-0.213189
0.197367
0.00575227
-0.195385
0.0108671
0.0452445
0.0266903
0.13055
0.038093
0.189932
0.0435837
0.221122
0.0448909
0.233403
0.0440079
0.235878
0.0421988
0.233807
0.0400311
0.228727
0.037649
0.219055
0.200228
0.0347883
0.0116361
0.0336084
0.0320149
0.110171
0.0495669
0.17238
0.0606824
0.210007
0.0663588
0.227727
0.068726
0.233511
0.0693902
0.233142
0.0690422
0.229075
0.067489
0.220609
0.204176
0.0635411
0.0113012
0.0223073
0.0348371
0.0866351
0.0583481
0.148869
0.0756796
0.192675
0.0864203
0.216986
0.0924804
0.227451
0.0957887
0.229834
0.0973491
0.227515
0.0969812
0.220977
0.207944
0.0932124
0.0100932
0.0122141
0.0346711
0.0620573
0.0630383
0.120502
0.0869054
0.168808
0.103657
0.200235
0.114315
0.216793
0.120902
0.223248
0.124875
0.223541
0.126358
0.219494
0.210719
0.123584
0.00845921
0.00375485
0.0316687
0.0388478
0.0624683
0.0897021
0.0920316
0.139245
0.115412
0.176854
0.13183
0.200375
0.142706
0.212371
0.149748
0.216499
0.15386
0.215382
0.210722
0.153857
0.00695116
-0.00319631
0.0270926
0.0187063
0.056885
0.0599097
0.0893783
0.106751
0.118585
0.147648
0.141742
0.177218
0.158849
0.195264
0.171244
0.204104
0.180189
0.206437
0.205127
0.185783
0.00585035
-0.00904667
0.0222867
0.00226993
0.0479074
0.034289
0.0789423
0.0757164
0.110382
0.116208
0.138486
0.149114
0.161673
0.172077
0.179948
0.185829
0.194383
0.192002
0.194143
0.205367
0.00497784
-0.0140245
0.0173798
-0.0101321
0.0370159
0.0146529
0.062719
0.0500133
0.0917001
0.0872273
0.120814
0.12
0.147856
0.145035
0.171912
0.161772
0.193023
0.170891
0.172803
0.214363
0.00357914
-0.0176036
0.0116549
-0.0182078
0.0245444
0.0017634
0.0428473
0.0317104
0.0656694
0.0644053
0.0911109
0.0945586
0.117091
0.119055
0.142056
0.136807
0.164596
0.148352
0.151921
0.185477
0.0014903
-0.0190939
0.00499522
-0.0217127
0.0116464
-0.00488774
0.0228047
0.020552
0.0386828
0.0485272
0.0585151
0.0747264
0.0809577
0.0966126
0.104686
0.113078
0.12884
0.124198
0.131194
0.149568
-0.000709309
-0.0183846
-0.00104034
-0.0213817
0.00111413
-0.0070422
0.00707649
0.0145897
0.0174941
0.0381095
0.0322291
0.0599914
0.0505061
0.0783357
0.071271
0.0923133
0.0934774
0.101991
0.109517
0.115154
-0.00218111
-0.0162035
-0.00474336
-0.0188195
-0.00514324
-0.00664232
-0.00217013
0.0116166
0.00489681
0.0310426
0.0160459
0.0488422
0.030752
0.0636296
0.0481754
0.07489
0.0672913
0.0828754
0.0893897
0.0874186
-0.00282366
-0.0133799
-0.00622509
-0.015418
-0.0075589
-0.00530851
-0.00567071
0.00972837
-9.41042e-05
0.025466
0.00909969
0.0396484
0.0214626
0.0512666
0.0363007
0.0600519
0.0528085
0.0663676
0.0714839
0.0707143
-0.00286424
-0.0105156
-0.00619864
-0.0120836
-0.00744097
-0.00406618
-0.00555461
0.007842
-0.000268545
0.0201799
0.00819145
0.0311884
0.0193814
0.0400767
0.0326897
0.0467436
0.047504
0.0515534
0.0553866
0.0636013
-0.00261971
-0.00789592
-0.00550439
-0.00919895
-0.00626621
-0.00330437
-0.00395809
0.00553389
0.00154248
0.0146793
0.00994007
0.0227909
0.0207153
0.0293015
0.0332981
0.0341607
0.0471822
0.0376694
0.0404462
0.0621225
-0.0023209
-0.00557502
-0.00471059
-0.00680927
-0.00494875
-0.00306621
-0.00216214
0.00274728
0.00368926
0.00882792
0.0122396
0.0142405
0.0229483
0.0185927
0.035257
0.0218521
0.0487007
0.0242257
0.026135
0.0630119
-0.00206852
-0.0035065
-0.00405019
-0.0048276
-0.0038595
-0.00325689
-0.000670585
-0.000441633
0.00547912
0.00267821
0.0142192
0.0055005
0.024991
0.00782091
0.0372383
0.00960475
0.0505099
0.0109541
0.0121114
0.0645336
-0.001877
-0.00162949
-0.003548
-0.0031566
-0.00302783
-0.00377706
0.000424449
-0.00389391
0.00682776
-0.00372509
0.0157467
-0.00341845
0.0266176
-0.00304996
0.0388862
-0.00266391
0.0521074
-0.00226707
-0.00179485
0.0660136
-0.00172611
-0.00315092
-0.00236623
0.00134041
0.00794231
0.0170095
0.0279714
0.040272
0.0534676
0.0673038
0.149836
0.428849
-0.429118
0.154646
0.178656
-0.183466
0.161458
0.059074
-0.0658862
0.168229
0.00884519
-0.0156164
0.174586
-0.00974131
0.00338487
0.180525
-0.0150274
0.00908821
0.186098
-0.0151063
0.00953289
0.191289
-0.0131004
0.00790914
0.196237
-0.0113493
0.00640187
-0.00750384
0.00315414
0.134683
0.409321
0.154456
0.158882
0.166155
0.0473754
0.174091
0.000909751
0.180098
-0.0157489
0.185201
-0.0201303
0.189727
-0.0196319
0.193784
-0.0171575
0.197562
-0.0151275
-0.0106961
0.127846
0.368894
0.156666
0.130062
0.171072
0.0329693
0.179392
-0.00741033
0.185094
-0.0214503
0.189444
-0.0244802
0.193034
-0.0232223
0.19607
-0.0201937
0.198793
-0.01785
-0.0128411
0.127222
0.312386
0.160067
0.0972167
0.175859
0.0171776
0.184307
-0.0158583
0.189583
-0.0267265
0.193255
-0.0281518
0.196014
-0.0259821
0.198145
-0.0223247
0.199932
-0.0196363
-0.0140553
0.129929
0.246058
0.163871
0.0632745
0.180159
0.000889436
0.18862
-0.0243195
0.19354
-0.0316459
0.196623
-0.0312348
0.198661
-0.0280204
0.200005
-0.0236689
0.200977
-0.020608
-0.0144584
0.133688
0.174493
0.167338
0.0296238
0.183867
-0.0156392
0.192331
-0.032784
0.19695
-0.0362646
0.199536
-0.0338203
0.200964
-0.0294488
0.201642
-0.0243472
0.201924
-0.0208894
-0.0141744
0.137247
0.100258
0.170267
-0.00339587
0.186931
-0.0323033
0.195416
-0.041269
0.199795
-0.0406438
0.201979
-0.0360046
0.202913
-0.0303827
0.20305
-0.0244839
0.202769
-0.020608
-0.0133304
0.140023
0.0247692
0.172566
-0.0359393
0.189321
-0.0490581
0.197845
-0.0497935
0.202056
-0.0448549
0.203942
-0.03789
0.2045
-0.0309407
0.204222
-0.0242058
0.203507
-0.0198935
-0.0120567
0.14178
-0.0509969
0.174129
-0.0682884
0.191
-0.0659291
0.199595
-0.0583888
0.203719
-0.0489789
0.205412
-0.0395832
0.205716
-0.0312439
0.205152
-0.0236419
0.204136
-0.0188778
-0.0104862
0.142429
0.174887
0.191937
0.200648
0.204772
0.206384
0.206556
0.205836
0.204652
0.0486563
-0.00995293
-0.0387034
0.0689668
-0.0203105
0.0767053
-0.00773854
0.079966
-0.00326075
0.0820784
-0.00211239
0.0836813
-0.00160288
0.0848697
-0.00118839
0.0857108
-0.000841069
0.0863126
-0.000601836
-0.000273626
0.180929
0.0364793
-0.227361
0.17123
-0.0106124
0.167082
-0.00359056
0.166293
-0.00247122
0.167578
-0.00339783
0.169556
-0.00358082
0.171482
-0.00311359
0.173039
-0.00239814
0.17427
-0.00183304
-0.000868167
0.267389
0.151538
-0.382448
0.216057
0.0407203
0.197466
0.0149999
0.192475
0.00251992
0.192618
-0.00354091
0.19441
-0.00537242
0.196476
-0.00517945
0.198249
-0.00417101
0.199715
-0.00329933
-0.00159755
0.299504
0.299643
-0.447609
0.228516
0.111709
0.204132
0.0393832
0.197704
0.00894812
0.197535
-0.003372
0.199318
-0.00715505
0.201447
-0.00730884
0.203294
-0.00601728
0.204834
-0.00483919
-0.00237008
0.302989
-0.432464
0.231232
0.204729
0.19806
0.198073
0.200007
0.202231
0.204122
0.205685
0.0129498
0.000235899
-0.0131857
0.014143
-0.00119318
0.0163988
-0.00225578
0.0191631
-0.00276436
0.0224023
-0.00323911
0.0238383
-0.00143606
0.0262708
-0.00243247
0.0267586
-0.000487862
0.0313845
-0.00462585
-0.00731887
0.0364614
0.000285849
-0.0365114
0.0405561
-0.00528786
0.0482982
-0.00999784
0.059597
-0.0140631
0.074507
-0.0181491
0.0914922
-0.0184212
0.11685
-0.0277905
0.143625
-0.0272627
0.183926
-0.0449267
-0.0507537
0.0570921
-0.00048287
-0.0563233
0.064285
-0.0124808
0.0776539
-0.0233667
0.0978216
-0.0342309
0.124803
-0.0451304
0.159532
-0.0531505
0.205754
-0.0740127
0.257142
-0.0786499
0.323144
-0.110929
-0.110058
0.0742506
-0.00244043
-0.072293
0.0842276
-0.0224578
0.102458
-0.0415969
0.12964
-0.0614137
0.165979
-0.0814687
0.213893
-0.101065
0.269383
-0.129503
0.334045
-0.143312
0.400226
-0.17711
-0.157441
0.0878571
-0.0845453
0.100188
0.122132
0.153931
0.196046
0.248838
0.305119
0.367174
0.404427
0.0932782
-0.0869689
0.0954791
-0.101788
0.084186
-0.0887201
0.0978123
0.0748048
-0.0914197
0.100801
0.0645389
-0.0942738
0.10454
0.0532152
-0.0971638
0.108487
0.0410036
-0.0998476
0.112059
0.0282965
-0.101106
0.113813
0.0158585
-0.0973574
0.109795
0.00534861
-0.0811362
0.0916461
-0.040566
0.0459146
0.102791
-0.0767489
-0.113011
0.0920331
-0.077962
0.0803202
-0.0797067
0.0678352
-0.0817888
0.0548883
-0.0842169
0.0417064
-0.0866656
0.0285084
-0.0879078
0.0158777
-0.0847267
0.00533612
-0.0705947
-0.0352299
0.0988073
-0.0651122
-0.110444
0.0872313
-0.066386
0.0755901
-0.0680656
0.063875
-0.0700736
0.0519622
-0.0723041
0.0397198
-0.0744232
0.0272312
-0.0754193
0.0151231
-0.0726185
0.00501716
-0.0604888
-0.0302127
0.103924
-0.0538794
-0.115156
0.092517
-0.0549794
0.0808263
-0.0563748
0.0686949
-0.0579422
0.0560308
-0.05964
0.0428605
-0.0612529
0.0294253
-0.0619841
0.0164309
-0.0596241
0.00553268
-0.0495906
-0.02468
0.103333
-0.0422375
-0.114975
0.0915611
-0.0432073
0.0794935
-0.0443072
0.0671126
-0.0455614
0.0544158
-0.0469432
0.0414367
-0.0482738
0.028347
-0.0488943
0.0157548
-0.0470319
0.00524503
-0.0390808
-0.019435
0.10454
-0.0307274
-0.11605
0.092777
-0.0314448
0.0807212
-0.0322515
0.0683301
-0.0331702
0.0555662
-0.0341793
0.0424349
-0.0351425
0.0291136
-0.035573
0.016248
-0.0341664
0.00546408
-0.0282969
-0.0139709
0.104819
-0.019212
-0.116334
0.0930409
-0.0196671
0.0809527
-0.0201633
0.0685187
-0.0207362
0.0557093
-0.0213699
0.0425385
-0.0219718
0.0291834
-0.0222178
0.0162823
-0.0212653
0.00546684
-0.0174814
-0.00850409
0.105061
-0.00771526
-0.116557
0.0932666
-0.00787314
0.0811542
-0.0080509
0.0686913
-0.00827332
0.0558523
-0.00853085
0.0426531
-0.00877255
0.0292712
-0.00883594
0.0163442
-0.00833831
0.00549885
-0.00663607
-0.00300524
0.105108
0.00379174
-0.116615
0.0933031
0.00393139
0.081182
0.00407025
0.0687123
0.00419639
0.055868
0.0043134
0.0426647
0.0044308
0.029279
0.0045497
0.0163488
0.00459193
0.00550037
0.00421236
0.00249513
0.104962
-0.116491
0.0931511
0.0810286
0.0685636
0.0557305
0.0425452
0.0291854
0.0162886
0.00547685
0.0216112
-0.193419
-0.0235775
0.0165086
-0.208086
0.0100702
-0.215923
0.00325873
-0.220889
-0.00338038
-0.224518
-0.00910006
-0.226547
-0.0125675
-0.223757
-0.0121064
-0.207425
-0.00658287
-0.162574
-0.0717709
0.0496056
-0.189582
-0.0534432
0.0421071