/*--------------------------------*- C++ -*----------------------------------*\
  =========                 |
  \\      /  F ield         | OpenFOAM: The Open Source CFD Toolbox
   \\    /   O peration     | Website:  https://openfoam.org
    \\  /    A nd           | Version:  13
     \\/     M anipulation  |
\*---------------------------------------------------------------------------*/
FoamFile
{
    format      ascii;
    class       volScalarField;
    location    "11";
    object      p;
}
// * * * * * * * * * * * * * * * * * * * * * * * * * * * * * * * * * * * * * //

dimensions      [0 2 -2 0 0 0 0];

internalField   nonuniform List<scalar> 
440
(
-0.656452
-0.634857
-0.672745
-0.606629
-0.703617
-0.679588
-0.666826
-0.653639
-0.63391
-0.627304
-0.78799
-0.759292
-0.728648
-0.692311
-0.652675
-0.910644
-0.865649
-0.792035
-0.703973
-0.615032
-1.00609
-0.945826
-0.812747
-0.673076
-0.543929
-1.35949
-1.3404
-1.31723
-1.29876
-1.28642
-1.27729
-1.27311
-1.28165
-1.30269
-1.3325
-1.05841
-1.07146
-1.115
-1.18612
-1.26413
-0.781157
-0.79431
-0.826521
-0.864188
-0.872532
-0.496967
-0.50979
-0.512682
-0.473872
-0.439265
-1.05752
-1.59989
-0.754954
-0.0915104
0.060245
-0.899244
-1.55838
-1.16033
-0.0619064
0.0456435
-0.75437
-1.47154
-1.40385
-0.0675207
0.0310315
-0.536167
-1.26653
-1.4427
-0.0982721
0.0151108
-0.4378
-1.09059
-1.33421
-0.15031
-0.00318786
-0.133989
-0.923202
-1.10073
-0.19566
-0.0490201
-0.209637
-0.688693
-0.768597
-0.208453
-0.0581792
-0.180987
-0.474865
-0.49647
-0.203901
-0.0570348
-0.0788299
-0.35205
-0.428211
-0.206461
-0.0639263
-0.0381162
-0.186322
-0.354399
-0.237641
-0.0764325
-0.318527
-0.448205
-0.595233
-0.757472
-0.830428
-0.0882648
-0.220956
-0.289254
-0.329867
-0.319603
0.059498
-0.0462848
-0.110212
-0.155968
-0.183918
0.152474
0.0557689
-0.0192425
-0.0648733
-0.0942988
0.195275
0.0996625
0.020427
-0.0232812
-0.0503889
0.913439
0.777467
0.604443
0.408879
0.188423
0.529697
0.379433
0.193361
-0.0172657
-0.253293
0.147824
-0.00695435
-0.201139
-0.423677
-0.63043
-0.175859
-0.335808
-0.529063
-0.7379
-0.895045
-0.399463
-0.55302
-0.72922
-0.91196
-1.01229
2.05827
2.09064
2.12192
2.14034
2.14148
1.88345
1.90592
1.92459
1.92756
1.91022
1.66746
1.66065
1.63291
1.58354
1.50949
1.41656
1.38595
1.32255
1.22943
1.10782
1.17023
1.07921
0.957669
0.812994
0.636168
1.79751
1.78993
1.77433
1.83574
1.9355
1.78878
1.77894
1.75824
1.8161
1.85732
1.78108
1.765
1.73925
1.78403
1.75835
1.77467
1.74859
1.71785
1.74047
1.60513
1.76947
1.73097
1.69459
1.69342
1.44084
1.76598
1.70414
1.66419
1.59787
1.25483
1.76541
1.67325
1.65074
1.48361
1.28451
1.77262
1.65774
1.64078
1.42611
1.26048
1.76719
1.6332
1.63563
1.37771
1.24015
1.80591
1.62523
1.63452
1.35203
1.2412
0.880968
0.611096
0.292531
0.0310083
-0.167362
0.815778
0.623467
0.405604
0.219279
0.0421009
0.827665
0.666336
0.497599
0.338062
0.185027
0.87012
0.718305
0.565831
0.414861
0.277935
0.899518
0.751585
0.60577
0.45698
0.323968
-1.8878
-1.70678
-1.50864
-1.34291
-1.24281
-1.9675
-1.88267
-1.71996
-1.5751
-1.47481
-1.88792
-1.83098
-1.7159
-1.59979
-1.5003
-1.72736
-1.67677
-1.61069
-1.53554
-1.45737
-1.56588
-1.53891
-1.50206
-1.46141
-1.42373
-1.48275
-1.47528
-1.44035
-1.46455
-1.41647
-1.43742
-1.42956
-1.40548
-1.42023
-1.38709
-1.42922
-1.4141
-1.39296
-1.37579
-1.37051
-1.45138
-1.44307
-1.44189
-1.45461
-1.49059
-1.40939
-1.39723
-1.38757
-1.39264
-1.41584
-1.23109
-1.10858
-0.531762
-0.0275457
0.147216
-1.27552
-1.25549
-0.663308
-0.187913
0.139883
-1.25687
-1.41761
-0.681371
-0.275946
0.133819
-1.34846
-1.57758
-0.466764
-0.276177
0.118922
-1.30673
-1.64605
-0.437291
-0.174646
0.0891267
-0.641371
-1.12538
-0.599763
0.186405
0.160787
-1.05787
-1.08534
-0.521414
0.158917
0.157324
-1.18563
-1.40468
-1.40834
-1.31773
-1.04915
-1.20751
-1.42096
-1.42837
-1.35894
-1.29837
1.62657
1.59469
1.54356
1.47412
1.38283
1.83289
1.84912
1.84782
1.82725
1.78823
2.00975
2.04014
2.06145
2.06931
2.06223
2.11592
2.1548
2.19574
2.2286
2.2428
2.1325
2.17095
2.21411
2.25073
2.26799
-0.738555
-0.861541
-1.05366
-1.28259
-1.56299
-0.0779348
-0.231279
-0.434883
-0.680953
-1.00396
0.526831
0.368219
0.177939
-0.0471743
-0.337022
1.01318
0.888897
0.738237
0.554947
0.328805
1.40104
1.31261
1.19751
1.05961
0.89614
1.85624
1.81582
1.7996
1.79923
1.7983
1.84149
1.81387
1.80003
1.81991
1.87157
1.82907
1.81051
1.8006
1.84181
1.95562
1.8176
1.80574
1.79572
1.84992
1.97262
1.80707
1.79917
1.78672
1.84807
1.97211
1.91088
1.81999
1.78468
1.71836
1.66209
1.86608
1.81162
1.78074
1.74223
1.67261
1.27436
1.02543
0.597082
-0.0233582
-0.699843
1.3653
1.06299
0.614716
-0.00188645
-0.692465
)
;

boundaryField
{
    left
    {
        type            zeroGradient;
    }
    right
    {
        type            fixedValue;
        value           uniform 0;
    }
    down
    {
        type            zeroGradient;
    }
    up
    {
        type            zeroGradient;
    }
    cylinder
    {
        type            zeroGradient;
    }
    defaultFaces
    {
        type            empty;
    }
}


// ************************************************************************* //
