/*--------------------------------*- C++ -*----------------------------------*\
  =========                 |
  \\      /  F ield         | OpenFOAM: The Open Source CFD Toolbox
   \\    /   O peration     | Website:  https://openfoam.org
    \\  /    A nd           | Version:  13
     \\/     M anipulation  |
\*---------------------------------------------------------------------------*/
FoamFile
{
    format      ascii;
    class       surfaceScalarField;
    location    "11";
    object      phi;
}
// * * * * * * * * * * * * * * * * * * * * * * * * * * * * * * * * * * * * * //

dimensions      [0 3 -1 0 0 0 0];

internalField   nonuniform List<scalar> 
823
(
-0.00477692
0.0170996
-0.0123226
0.00340813
0.0129042
-0.0210892
0.0490586
-0.0278058
-0.0178447
0.13253
-0.0828974
-0.000573967
-0.0981422
-0.0305544
0.261227
0.00605695
0.0110426
0.0498695
-0.0309083
0.134766
-0.112702
0.242203
-0.190335
-0.256319
0.40038
0.0214573
-0.0104146
0.103406
-0.112857
0.214256
-0.223552
0.324839
-0.300919
-0.349469
0.41799
0.0414727
-0.0518873
0.137012
-0.208396
0.224842
-0.311382
0.282447
-0.358523
-0.374121
0.307099
0.0556277
-0.107515
0.129314
-0.282083
0.173744
-0.355812
0.191914
-0.376694
0.200762
-0.382969
0.014177
-0.061622
0.047445
0.0291644
-0.104485
0.0894979
0.0383875
-0.106461
0.0972374
0.0416546
-0.0886499
0.0853828
-0.0584935
0.0379103
0.0622378
0.0151472
-0.0767692
0.0253175
-0.114656
0.0307018
-0.111845
0.0346338
-0.0925819
-0.062513
0.0386533
-0.00974647
-0.0670227
-0.0321534
-0.0922486
-0.0556193
-0.088379
-0.0748454
-0.0733559
-0.0461116
-0.0912467
-0.0323801
-0.0346427
-0.0846024
-0.0400263
-0.140283
-0.0326986
-0.191807
-0.0218312
0.00425161
-0.242171
-0.0469653
-0.108081
-0.158624
-0.181029
-0.207332
-0.194136
0.736208
-0.504162
0.0345558
1.25526
-1.48395
0.496953
-0.969211
0.506814
0.440457
-1.3943
1.4508
-0.594063
0.625368
-0.0452024
0.820064
0.136286
1.07377
0.502633
-1.33556
0.455213
-1.34688
-0.549475
0.0531436
0.675674
0.311544
0.815369
0.561527
-1.58554
0.503335
-1.28869
-0.482907
0.0687505
0.364753
0.458083
0.426037
0.57464
-1.7021
0.524081
-1.23813
-0.413788
0.123989
0.0334319
0.587701
-0.0376756
0.601145
-1.71554
0.562849
-1.19984
-0.355168
0.954427
0.131719
-1.05271
1.39093
-0.474183
1.20736
-1.53197
0.938663
-0.931143
-0.233995
1.36507
0.134166
-1.36752
1.53306
-0.642174
1.1329
-1.1318
0.752469
-0.550713
-0.147895
1.44771
0.0358215
-1.34936
1.38457
-0.579032
0.92794
-0.675174
0.675008
-0.297781
-0.125267
1.37458
-0.0455064
-1.29325
1.17526
-0.379717
0.795168
-0.295081
0.605886
-0.108499
-0.0583885
0.856649
-0.902155
0.476932
0.181851
0.073352
1.07462
0.152678
-1.02654
1.14525
0.236466
1.2445
0.318743
1.23849
0.406385
0.447006
1.00383
0.0825405
-0.933689
1.06374
0.17655
1.17106
0.211432
1.25998
0.31746
0.339467
0.950531
0.0371653
-0.905156
1.00954
0.117537
1.09881
0.122161
1.21593
0.200346
0.206031
0.89597
0.01013
-0.868935
0.968667
0.04484
1.04517
0.045662
1.1673
0.0782172
0.0800775
0.653359
-0.643229
0.698199
0.743861
0.822078
0.125913
0.294655
-0.245397
-0.175172
0.0829828
0.300906
-0.257975
0.0447327
0.311133
-0.272883
0.0138774
0.301484
-0.270629
0.19318
-0.179303
0.0898504
0.330863
-0.126059
0.0556234
0.335133
0.025894
0.340862
0.00322606
0.324152
0.196406
0.0508304
0.360664
-0.0806313
0.022467
0.363496
-0.000757177
0.364086
-0.00968668
0.333081
0.18672
-0.0246962
0.376252
0.00910826
-0.038294
0.377094
-0.0426553
0.368448
-0.030307
0.320733
0.156413
-0.100584
0.0938676
-0.100183
-0.087548
-0.0488975
0.202758
0.0944734
-0.25621
-0.0410212
0.148299
0.0983058
-0.0438475
0.0924564
0.102484
-0.0466409
0.0377745
0.102092
-0.0474103
0.0720335
-0.034259
0.199528
0.13974
-0.244794
0.151852
0.145981
0.0988964
0.15544
0.0422305
0.158758
0.114264
0.148966
0.185613
-0.194839
0.105614
0.189333
0.0636196
0.197435
0.0238996
0.198478
0.138164
0.158232
0.220338
-0.192957
0.117443
0.230122
0.0720221
0.242856
0.0279049
0.242595
0.166069
0.0991481
-0.124207
0.0712945
0.0412676
0.0132342
0.405262
0.0576807
-0.0669634
0.425718
0.00393826
-0.0243942
0.412673
0.181724
-0.168679
0.394375
0.16613
-0.147831
0.399735
-0.26157
0.403771
0.049889
0.420327
-0.0126175
0.400211
0.20184
0.381739
0.184602
0.536679
0.399442
0.0464268
0.414317
-0.0274927
0.377465
0.238692
0.366575
0.195492
0.708415
0.397626
0.0447807
0.399724
-0.0295914
0.362924
0.275492
0.343856
0.21456
0.859315
0.391116
0.0496444
0.386838
-0.0253134
0.333611
0.328719
0.318904
0.229267
1.05401
0.628808
0.0248572
0.642478
-0.0389839
0.673117
0.298081
0.768559
0.133825
0.844491
0.97808
0.640843
-0.0119653
0.636451
-0.034592
0.701833
0.232698
0.783719
0.0519389
0.648062
0.980148
0.642543
-0.0504879
0.636089
-0.0281376
0.714136
0.154651
0.775627
-0.00955185
0.439217
0.984472
0.622992
-0.0694594
0.626945
-0.032091
0.737003
0.0445931
0.749975
-0.0225237
0.213268
0.975924
0.534561
0.50247
0.547063
0.524539
0.737808
0.994378
-0.19147
0.99101
-0.122691
0.984961
-0.0745823
0.997603
-0.00353352
0.064935
0.931385
-0.142707
0.918551
-0.109857
0.897415
-0.0534469
0.919925
-0.0260432
0.0511706
0.931079
-0.0893144
0.900767
-0.0795443
0.883551
-0.0362316
0.887434
-0.0299257
0.0334484
0.921034
-0.0344251
0.875672
-0.0341821
0.857334
-0.0178939
0.844903
-0.0174943
0.00941656
0.703382
0.6692
0.651306
0.633812
0.0532409
0.179941
-0.233182
0.0760047
0.375459
-0.398223
0.0745954
0.427399
-0.42599
0.0650087
0.426484
-0.416897
0.392734
0.052158
-0.379883
0.0833907
0.09655
0.155965
0.302885
0.187147
0.396217
0.191426
0.422205
0.406926
0.177233
0.0733202
0.0232297
0.19559
0.180615
0.28417
0.307638
0.331693
0.374682
0.413273
0.325345
0.0366586
-0.0134289
0.156148
0.061126
0.287933
0.175853
0.408369
0.254245
0.342774
0.478869
0.0081008
-0.0215297
0.0748963
-0.00566958
0.192024
0.058725
0.330736
0.115533
0.215664
0.457847
-0.000388934
-0.0211408
0.0247679
-0.0308264
0.0953067
-0.0118138
0.197239
0.0136007
0.0930649
0.319838
-0.00270941
-0.0184314
0.00428913
-0.037825
0.0311217
-0.0386463
0.0720672
-0.0273449
0.0164222
0.14871
0.00512525
-0.0235566
0.0186127
-0.0513124
0.0384124
-0.0584459
0.0622353
-0.0511678
-0.0318257
0.110483
0.0145428
-0.0380995
0.0392249
-0.0759945
0.0669526
-0.0861737
0.0945455
-0.0787606
-0.0630673
0.125787
0.00934555
0.022849
0.0339127
0.0405349
0.0397055
0.337152
1.14052
-1.15784
0.0122677
1.08647
-0.761587
-0.0356588
-0.0619132
0.10984
0.316108
-1.14366
0.791897
-0.411792
0.244732
0.229202
1.06003
0.0159534
1.29972
0.0749637
-0.120924
0.305553
-1.37425
-0.547432
0.419792
0.75072
0.194847
1.52466
0.209771
-0.135848
0.320985
-1.48547
-0.628179
0.426889
0.449618
0.286302
1.66525
0.334153
-0.183699
0.360548
-1.51186
-0.651796
-0.0148386
0.166464
0.489579
0.428517
-0.193216
0.742889
-0.549672
-0.340496
0.14728
-0.0960174
-0.244479
0.249566
-0.345584
-0.0902459
0.790041
-1.20499
0.175735
0.0410958
0.487409
0.0958518
-0.0121168
-0.083735
0.153608
-0.0577559
0.247547
-0.0939398
0.393248
-0.145701
-0.156424
0.219515
-0.179473
0.338992
0.570398
0.903565
0.14856
-0.1547
0.185909
-0.179769
0.114228
-0.161488
0.19582
0.0745869
-0.170229
0.209871
0.0308955
-0.171216
0.214907
-0.121805
0.152701
0.191804
-0.113742
-0.232762
0.145385
-0.115069
0.0926961
-0.117541
0.0385211
-0.117041
-0.0832839
0.189261
-0.0625726
-0.24043
0.137306
-0.0631138
0.0851211
-0.0653559
0.034709
-0.0666288
-0.048575
0.205077
-0.010507
-0.257142
0.152333
-0.0103702
0.0975179
-0.0105407
0.0413182
-0.0104291
-0.00725683
0.210755
-0.262283
0.156537
0.0993553
0.0415158
0.0501978
-0.356541
-0.0735402
0.0208175
-0.387517
-0.00486314
-0.400309
-0.0166374
-0.386449
-0.249819
0.137474
-0.32164
-0.172375
0.0917836
-0.341826
0.0458497
-0.354375
0.0102053
-0.350804
-0.239614
0.160199
-0.277082
-0.204757
0.112669
-0.294297
0.0664443
-0.308151
0.0242504
-0.30861
-0.215363
0.179476
-0.237562
-0.218995
0.132463
-0.247284
0.0821974
-0.257885
0.0333713
-0.259784
-0.181992
0.173647
-0.2253
0.122183
0.0741682
0.0292914
0.390593
0.0987716
-0.0933846
0.392985
0.081693
-0.0840854
0.359357
0.143591
-0.109963
0.312657
0.021941
0.0247585
-0.26786
0.400748
0.3981
0.0966509
0.407752
0.0720414
0.396072
0.155271
0.354302
0.0637116
-0.14632
0.403148
0.0894823
0.417302
0.0578876
0.410422
0.162151
0.376484
0.0976497
-0.0102665
0.406858
0.0786035
0.422671
0.0420752
0.420783
0.164038
0.393619
0.124814
0.12621
0.40762
0.425301
0.42066
0.397642
0.416561
0.0934903
0.338583
0.0779775
0.258523
0.08006
0.27691
-0.0183867
-0.215181
0.49209
0.510157
0.504049
0.474146
0.480518
0.666086
0.394273
0.0978171
0.307715
0.0865579
0.206827
0.100889
0.12072
0.0861069
0.0369848
0.538602
0.406165
0.302297
0.216029
)
;

boundaryField
{
    left
    {
        type            calculated;
        value           nonuniform List<scalar> 
17
(
-0.60402
-0.60402
-0.60402
-0.60402
-0.60402
-0.39598
-0.39598
-0.39598
-0.39598
-0.39598
-0.39598
-0.39598
-0.39598
-0.39598
-0.39598
-0.510051
-0.510051
)
;
    }
    right
    {
        type            calculated;
        value           nonuniform List<scalar> 
17
(
0.339812
0.641895
0.483168
0.441194
0.401732
0.384164
0.402089
0.409153
0.410625
0.436767
0.454961
0.50423
0.817489
0.66637
0.652379
0.539008
0.0149635
)
;
    }
    down
    {
        type            calculated;
        value           uniform 0;
    }
    up
    {
        type            calculated;
        value           uniform 0;
    }
    cylinder
    {
        type            calculated;
        value           uniform 0;
    }
    defaultFaces
    {
        type            empty;
    }
}


// ************************************************************************* //
