/*--------------------------------*- C++ -*----------------------------------*\
  =========                 |
  \\      /  F ield         | OpenFOAM: The Open Source CFD Toolbox
   \\    /   O peration     | Website:  https://openfoam.org
    \\  /    A nd           | Version:  13
     \\/     M anipulation  |
\*---------------------------------------------------------------------------*/
FoamFile
{
    format      ascii;
    class       volVectorField;
    location    "11";
    object      U;
}
// * * * * * * * * * * * * * * * * * * * * * * * * * * * * * * * * * * * * * //

dimensions      [0 1 -1 0 0 0 0];

internalField   nonuniform List<vector> 
440
(
(-0.116528 0.0839243 -8.47915e-20)
(-0.145653 0.114412 -9.67198e-20)
(-0.0436029 0.0596642 8.14632e-20)
(0.310468 0.105593 1.1171e-19)
(0.183776 0.243472 2.74205e-20)
(-0.0821681 0.0468675 2.95945e-20)
(0.0315574 0.0309645 -7.92831e-20)
(0.46398 -0.0178654 -7.31153e-20)
(0.982838 -0.0364035 5.08752e-20)
(1.4091 -0.0291061 5.87209e-21)
(-0.0303743 0.0130822 5.06607e-20)
(0.420439 -0.0243983 6.0142e-19)
(1.14144 -0.008368 -3.20152e-19)
(1.71821 0.0237168 -1.02812e-18)
(2.23339 0.0516818 3.89119e-19)
(0.167245 -0.0383065 -1.62684e-19)
(1.07977 0.00714664 -4.65137e-19)
(1.84557 0.0813142 1.46248e-18)
(2.29669 0.130035 1.59748e-18)
(2.41805 0.147721 -4.38454e-19)
(0.500245 -0.00753599 -2.7211e-19)
(1.62864 0.179136 -5.60033e-19)
(2.18881 0.267928 1.69163e-18)
(2.33883 0.289156 1.83953e-18)
(2.4051 0.268547 6.28283e-19)
(0.0460131 -0.337332 -9.83305e-20)
(0.119517 -0.607602 -1.7162e-19)
(0.144259 -0.635109 2.71083e-19)
(0.145871 -0.530675 -3.15208e-20)
(0.114511 -0.35012 -3.20262e-19)
(0.136787 -0.440767 6.5364e-21)
(0.235485 -0.696179 3.06298e-20)
(0.244293 -0.6944 -5.11898e-20)
(0.225334 -0.578661 -1.88305e-20)
(0.164332 -0.388909 -8.57995e-21)
(0.182925 -0.434481 5.83746e-19)
(0.201555 -0.633718 4.08884e-19)
(0.129656 -0.627928 2.53871e-19)
(0.0353598 -0.548767 -1.2085e-18)
(-0.0647808 -0.392753 1.62836e-20)
(0.166907 -0.316925 1.37577e-19)
(0.101584 -0.487736 -1.94972e-19)
(-0.0337452 -0.534416 4.49187e-19)
(-0.187892 -0.522506 1.44751e-19)
(-0.34619 -0.403106 1.75423e-19)
(-0.0230083 -0.0549409 -3.30151e-20)
(-0.196435 -0.140993 -2.95531e-20)
(-0.338334 -0.185074 -1.6162e-19)
(-0.389063 -0.184546 2.77569e-19)
(-0.515508 -0.128874 6.44315e-19)
(0.170987 0.417339 1.83279e-18)
(-1.24663 0.934677 -3.95868e-19)
(1.41292 -0.574181 1.04784e-18)
(1.11978 -0.999994 5.59479e-19)
(1.03264 -0.432405 -7.01876e-20)
(0.359292 0.558279 -8.23978e-19)
(-0.880341 0.805475 9.42408e-20)
(1.54606 -0.829783 2.61754e-19)
(1.21955 -0.955052 -2.02107e-20)
(1.03653 -0.397762 9.14385e-20)
(0.0659112 0.533805 -1.02884e-18)
(-0.258608 0.674118 -1.57142e-18)
(1.84341 -1.00873 -1.42028e-19)
(1.44543 -0.916097 1.05847e-19)
(1.10265 -0.368633 -3.09902e-21)
(-0.641801 0.424461 4.19071e-19)
(0.520448 0.455755 2.78701e-19)
(2.02095 -1.1068 2.44153e-19)
(1.56923 -0.830953 -2.31106e-19)
(1.14864 -0.301041 1.07968e-19)
(-0.837211 0.0365918 -1.76713e-19)
(1.42373 0.0769349 1.23696e-18)
(2.24749 -1.09095 0)
(1.72957 -0.790464 1.22246e-19)
(1.27309 -0.243955 5.58636e-20)
(0.840751 0.0144533 -2.46006e-19)
(2.15884 -0.205021 -2.74142e-19)
(2.46372 -0.999973 -1.7915e-20)
(1.6786 -0.705591 1.49966e-19)
(1.3533 -0.20523 -1.23816e-19)
(1.77019 0.12149 -9.32341e-21)
(2.61901 -0.363161 7.84476e-19)
(2.5057 -0.88397 -1.16208e-20)
(1.34191 -0.451432 -1.4659e-20)
(1.10315 -0.0788134 0)
(2.03948 0.046911 -2.12805e-19)
(2.65158 -0.414213 -7.34885e-21)
(1.98494 -0.490544 4.44668e-19)
(1.13623 -0.224869 -1.73789e-21)
(1.07999 -0.100431 -7.59352e-21)
(2.11709 0.00476049 9.34073e-20)
(2.34048 -0.336145 1.87268e-19)
(1.58584 -0.38711 -1.03057e-20)
(1.0951 -0.137292 -4.33809e-34)
(0.892336 -0.0583707 3.1078e-20)
(1.6345 -0.062466 5.73116e-20)
(1.15392 -0.1052 9.63423e-20)
(0.399355 0.0333434 -6.1565e-20)
(0.22357 -0.00681246 -1.81261e-20)
(0.0247558 -0.0176387 1.10463e-20)
(2.34216 0.269692 -7.79162e-19)
(2.49321 0.0909356 -9.45556e-19)
(2.42618 0.104942 6.2351e-19)
(2.501 -0.0225532 7.86929e-20)
(2.03533 0.0770694 -2.99058e-20)
(2.16796 0.135986 7.07123e-20)
(2.26728 0.116989 -3.66961e-20)
(2.31476 -0.0278412 -1.19379e-19)
(2.31709 -0.0127102 -2.18138e-19)
(2.35174 -0.218737 -3.54865e-21)
(2.10701 0.0363455 7.4479e-20)
(2.11965 0.0983528 8.451e-20)
(2.22253 -0.0762669 -9.29795e-20)
(2.17062 0.00560945 3.27787e-20)
(2.29177 -0.166041 -5.73699e-21)
(1.99156 0.00484246 1.09452e-19)
(2.02957 0.052933 1.50797e-19)
(2.0987 -0.0534395 -1.75927e-20)
(2.0954 0.000806953 -6.45204e-20)
(2.17241 -0.0991379 2.56644e-20)
(1.44562 -0.0114706 1.76855e-19)
(1.49567 -0.0117881 -1.11615e-20)
(1.47287 -0.018299 1.6579e-20)
(1.51859 -0.0220104 -3.54422e-20)
(1.48554 -0.0245288 -2.318e-20)
(1.53545 0.848276 1.01176e-18)
(1.4962 0.941943 -3.08958e-19)
(1.49384 1.06386 -1.22502e-18)
(1.42209 1.10179 6.77338e-19)
(0.872806 0.784923 -1.67792e-19)
(1.8004 0.796037 -5.31981e-19)
(1.77534 0.874418 -2.81274e-18)
(1.78199 0.979585 -1.08809e-18)
(1.68934 0.983171 -3.84019e-19)
(1.02311 0.671922 -6.10915e-19)
(2.08808 0.692125 7.08286e-19)
(2.06871 0.754129 1.82358e-19)
(2.04575 0.831201 -2.14527e-18)
(1.90363 0.811418 -5.79971e-19)
(1.10349 0.518241 4.17389e-19)
(2.23549 0.570543 2.16734e-18)
(2.23301 0.619761 1.56267e-18)
(2.22183 0.662261 -1.78447e-18)
(1.98903 0.611236 -1.32493e-18)
(1.05922 0.333884 -2.32864e-19)
(2.39151 0.420441 1.00976e-18)
(2.38198 0.441266 -7.27582e-19)
(2.2756 0.4558 5.22159e-19)
(1.92035 0.390689 3.98392e-19)
(0.859185 0.138498 -3.28032e-19)
(0.574561 0.395992 -7.08084e-19)
(0.48403 0.428359 -5.75102e-19)
(0.364863 0.461238 7.48409e-20)
(0.226203 0.465013 -2.50208e-20)
(0.0546133 0.33069 6.53144e-20)
(0.677035 0.569239 5.13786e-20)
(0.611409 0.623722 -3.23532e-19)
(0.520145 0.687383 1.67518e-19)
(0.39098 0.74172 -7.72578e-20)
(0.166243 0.566203 1.10892e-19)
(0.770843 0.770779 1.99292e-19)
(0.69602 0.848743 4.00897e-19)
(0.635401 0.943386 5.67781e-20)
(0.547945 0.990097 -2.68861e-19)
(0.298135 0.736467 2.17401e-19)
(1.03705 0.859915 1.99509e-19)
(0.987818 0.944503 -5.8892e-19)
(0.93357 1.04183 -1.73441e-18)
(0.846518 1.10678 7.09688e-19)
(0.497535 0.82392 -1.73719e-19)
(1.13255 0.90401 -1.24056e-19)
(1.15107 1.02279 -1.97958e-19)
(1.16686 1.13773 -3.18963e-19)
(1.10937 1.16955 -3.68532e-19)
(0.680891 0.84217 -6.05195e-21)
(1.01009 0.0462933 -7.94838e-20)
(0.997189 0.0123002 -2.96309e-20)
(1.0475 0.124192 -1.44464e-21)
(0.940834 0.109908 -1.83745e-19)
(0.894129 0.234304 2.85597e-19)
(0.99752 0.0448308 4.86599e-20)
(1.01511 0.00515375 1.11337e-19)
(1.03399 0.138116 1.01356e-19)
(0.962038 0.133858 1.9984e-20)
(0.930937 0.3161 2.07002e-20)
(1.00115 0.042825 6.36987e-20)
(1.00752 -0.00225163 -4.34515e-21)
(1.06791 0.156614 -3.60909e-21)
(0.915121 0.137986 1.38731e-19)
(1.12728 0.449786 -4.15455e-19)
(0.994987 0.0411516 -3.65995e-22)
(1.02909 -0.0123367 -1.65719e-19)
(1.05598 0.183976 -5.67777e-20)
(0.992136 0.138664 -3.36795e-19)
(1.16017 0.496011 8.53105e-20)
(0.992878 0.0319971 -9.86962e-21)
(1.03445 -0.00841743 4.7736e-20)
(1.08876 0.18705 2.72098e-20)
(0.977962 0.163687 4.34227e-19)
(1.3788 0.629579 -4.12786e-19)
(0.955389 0.03056 -2.66205e-21)
(1.10388 -0.0295622 9.57644e-20)
(1.04074 0.225288 -6.44539e-20)
(1.22936 0.0907942 8.72883e-19)
(1.33776 0.649295 -3.73161e-19)
(0.901747 -0.000492296 -1.48198e-21)
(1.18734 -0.0214296 -8.25322e-20)
(0.956265 0.154111 4.58886e-21)
(1.34083 0.0666641 -3.05527e-19)
(1.32807 0.454349 -2.27588e-22)
(0.964352 -0.0128618 4.41702e-22)
(1.12521 -0.018837 1.29136e-35)
(1.02403 0.135376 -1.44241e-20)
(1.29847 0.00304756 9.23939e-20)
(1.34638 0.335377 1.48904e-19)
(1.09477 -0.0553892 3.98711e-21)
(0.925662 -0.0189059 -2.85969e-20)
(1.20012 0.0567746 1.80854e-20)
(1.18671 -0.0161595 2.79942e-20)
(1.37152 0.203947 -2.16318e-19)
(0.997147 -0.0231409 -4.17171e-20)
(0.726912 -0.019699 -4.63312e-21)
(0.985676 -0.000230683 2.03099e-20)
(0.775324 -0.0135679 -1.49257e-20)
(1.02433 0.0698736 -4.83623e-20)
(1.74951 0.654191 2.85941e-19)
(1.85433 0.647704 7.04412e-19)
(2.08546 0.546303 -9.92547e-19)
(2.15918 0.491776 2.8797e-20)
(2.34992 0.32055 4.29115e-19)
(1.67383 0.473631 4.3963e-20)
(1.74612 0.423205 9.1458e-19)
(1.90647 0.400556 9.39723e-20)
(1.97774 0.295325 -8.49529e-19)
(2.11847 0.253235 -2.66696e-19)
(1.65744 0.346277 -1.96917e-19)
(1.7423 0.266122 -1.40084e-19)
(1.85602 0.279017 1.997e-19)
(1.94163 0.15522 -2.76193e-19)
(2.01718 0.188017 2.52884e-19)
(1.64419 0.204074 3.26659e-19)
(1.70227 0.149151 -2.652e-21)
(1.80701 0.158192 2.12342e-19)
(1.85649 0.0770223 1.84443e-19)
(1.93652 0.105027 -1.81166e-19)
(1.25013 0.0545686 -3.98635e-20)
(1.30297 0.0357357 2.20122e-19)
(1.37678 0.0263963 1.00807e-19)
(1.39414 0.00683752 -2.13464e-19)
(1.45346 0.00247625 2.57912e-22)
(1.38491 -0.0350289 7.77182e-20)
(2.4868 -0.0204231 -5.95012e-19)
(2.70913 -0.0138417 1.5902e-18)
(2.68587 0.0351285 7.3474e-19)
(2.45935 0.0479388 -4.98033e-19)
(0.91599 0.106486 1.67542e-19)
(2.27287 0.129122 -6.32279e-19)
(2.70294 0.136891 -8.97045e-19)
(2.7081 0.148004 1.2109e-18)
(2.50003 0.141038 -8.8841e-19)
(0.310323 0.108641 -1.96226e-20)
(1.65495 0.218702 7.47375e-19)
(2.43177 0.268845 1.18438e-19)
(2.75867 0.277156 1.21864e-18)
(2.75891 0.257003 6.75712e-19)
(-0.0203017 -0.00408291 2.58628e-19)
(0.734841 0.165559 2.88354e-19)
(1.65776 0.280872 -8.45209e-19)
(2.22465 0.349465 7.90233e-20)
(2.74319 0.379777 6.98682e-19)
(-0.106901 -0.0853529 1.92983e-19)
(0.105556 0.0131797 -2.27704e-19)
(0.760586 0.176406 -1.09872e-19)
(1.29978 0.275938 1.68829e-19)
(1.98575 0.458095 9.21718e-20)
(-0.0924692 -0.109749 4.13787e-20)
(-0.108339 -0.120051 1.33032e-19)
(0.155087 -0.0653771 6.23303e-20)
(0.397509 0.0185957 -1.06033e-19)
(1.1279 0.236779 7.94694e-21)
(-0.0654204 -0.098539 -2.65099e-20)
(-0.124279 -0.177017 -9.72918e-20)
(-0.0605351 -0.182674 -4.30569e-21)
(0.0429345 -0.116134 -4.75642e-20)
(0.394782 0.122034 -4.31778e-21)
(-0.043597 -0.110658 -1.01221e-20)
(-0.072256 -0.257536 3.2773e-19)
(-0.0443733 -0.304421 -2.02399e-19)
(0.0211866 -0.279736 -3.28039e-19)
(0.118198 -0.136415 5.01849e-20)
(-0.0315169 -0.192195 -1.38891e-20)
(-0.0186436 -0.415022 -2.98243e-20)
(0.0294553 -0.493121 -1.20443e-19)
(0.101222 -0.473837 -4.6784e-19)
(0.137539 -0.403457 7.52569e-20)
(-0.0118442 -0.266956 1.10104e-20)
(0.010671 -0.521269 -2.35223e-20)
(0.0346304 -0.577379 2.96058e-21)
(0.0573346 -0.514926 -2.68757e-20)
(0.05561 -0.393169 -6.34025e-21)
(1.71644 0.726069 -1.13924e-19)
(1.01016 0.572401 -6.73675e-19)
(-0.673598 -0.0242559 -1.86505e-20)
(0.294023 -0.653076 9.79025e-19)
(1.2192 -0.203485 -2.60618e-22)
(1.40692 0.804078 3.53495e-20)
(0.518538 0.799996 1.60135e-18)
(-0.161401 -0.0816598 3.05774e-19)
(0.336958 -0.858763 1.68279e-20)
(1.11286 -0.313621 1.08551e-20)
(1.55817 0.66989 -1.18071e-19)
(0.957861 0.95064 2.03406e-18)
(0.300706 -0.0837545 1.11341e-19)
(0.539804 -0.969468 -4.57788e-19)
(1.013 -0.392059 7.52628e-21)
(1.19902 0.321335 1.01852e-19)
(1.00964 1.14033 -2.09318e-18)
(0.631872 -0.0598015 4.37561e-19)
(0.813831 -1.02853 1.56387e-20)
(0.968705 -0.43796 -5.95757e-20)
(0.285008 0.325155 -1.93298e-19)
(-0.285577 1.15127 1.71123e-19)
(1.19373 -0.180793 2.97474e-19)
(1.09028 -1.00289 -6.26443e-20)
(1.0144 -0.447456 -1.6836e-19)
(-0.172196 0.130425 -5.27098e-20)
(-0.660236 -0.178846 0)
(-0.617556 -0.161828 -9.00064e-20)
(0.274802 -0.0874445 -3.91075e-20)
(0.665619 -0.0203674 -3.05302e-20)
(1.82901 0.71694 0)
(1.15717 0.378445 0)
(-0.42713 -0.115905 2.41576e-19)
(0.612371 -0.317582 -5.65123e-19)
(1.25785 -0.0905033 2.25708e-20)
(0.785609 0.00599848 -1.38617e-19)
(0.862368 -0.000977645 3.18502e-19)
(1.00543 0.0347767 -3.89254e-20)
(0.923573 0.0155497 4.23232e-19)
(1.32417 0.192578 2.66065e-19)
(1.77179 0.0408064 1.3371e-19)
(1.98848 0.0891337 4.84207e-19)
(2.07897 0.15753 -8.17609e-19)
(2.52735 0.263765 2.93447e-19)
(2.46096 0.373504 5.5091e-19)
(0.983746 -0.538449 3.93693e-20)
(0.977639 -0.638871 -2.21911e-19)
(0.977375 -0.747076 -2.00061e-19)
(0.91066 -0.824337 1.19035e-19)
(0.561689 -0.65647 1.50792e-19)
(0.878553 -0.448789 1.03826e-19)
(0.822087 -0.52 1.18571e-19)
(0.745225 -0.596842 -1.25435e-19)
(0.630064 -0.665486 1.55661e-19)
(0.352174 -0.535411 3.62591e-20)
(0.687329 -0.313137 -1.09817e-19)
(0.597298 -0.359721 -6.22408e-20)
(0.498189 -0.418942 -2.13604e-20)
(0.382765 -0.47087 -5.72504e-20)
(0.181126 -0.375876 -1.45098e-19)
(0.577583 -0.0818828 -4.3559e-19)
(0.493066 -0.104078 -3.48015e-19)
(0.383865 -0.136959 2.85041e-19)
(0.255532 -0.176147 1.39002e-19)
(0.0812857 -0.158914 1.28252e-20)
(0.545412 0.124965 -1.35599e-19)
(0.460295 0.122652 -1.56888e-19)
(0.342249 0.116648 -3.65547e-20)
(0.201211 0.114852 6e-20)
(0.0360845 0.0844493 1.52327e-20)
(2.24621 -0.0281741 1.0024e-18)
(2.48282 -0.103031 3.63786e-19)
(2.57953 -0.197742 -9.24545e-19)
(2.46254 -0.223521 -1.984e-18)
(1.52928 -0.223543 1.4934e-19)
(2.18068 -0.133043 1.65362e-18)
(2.29788 -0.250822 2.1555e-18)
(2.32625 -0.381949 1.79265e-19)
(2.261 -0.445898 3.11305e-19)
(1.48496 -0.420627 -2.08092e-19)
(1.8934 -0.308043 -4.21496e-18)
(1.9463 -0.432501 4.78208e-19)
(1.9932 -0.568093 1.33259e-18)
(1.95261 -0.654235 -5.34516e-19)
(1.29475 -0.58033 8.50844e-19)
(1.64018 -0.441696 1.03187e-18)
(1.6622 -0.54885 -2.71066e-18)
(1.65933 -0.678297 -3.13479e-18)
(1.60154 -0.778786 9.87703e-19)
(1.04973 -0.663322 6.42488e-19)
(1.33273 -0.511552 2.39582e-19)
(1.28138 -0.612756 2.95666e-19)
(1.2725 -0.745096 -4.84676e-19)
(1.22403 -0.844231 -5.87539e-19)
(0.786931 -0.688149 -5.65981e-21)
(1.05935 0.0524548 6.88663e-21)
(0.943631 0.0465662 1.39691e-21)
(1.12714 0.0715354 8.96012e-21)
(0.834662 -0.013299 -2.64289e-19)
(1.1892 -0.24451 -2.16474e-20)
(1.06992 0.0548925 -2.30633e-21)
(0.937373 0.0414837 2.42837e-20)
(1.12548 0.0905048 4.25721e-21)
(0.905069 0.0258927 2.25875e-19)
(1.05363 -0.130619 5.81693e-21)
(1.06756 0.0513779 -5.45922e-20)
(0.940278 0.0338107 -1.00643e-23)
(1.10986 0.0951788 -4.7153e-21)
(0.899795 0.0432791 1.16372e-19)
(1.0055 -0.071611 -2.7694e-19)
(1.04915 0.0496116 6.45782e-20)
(0.963134 0.0265259 2.66831e-21)
(1.07484 0.102374 1.92558e-20)
(0.936783 0.0691847 -5.33215e-20)
(0.889545 0.0380781 5.6809e-20)
(1.02397 0.0469636 1.5846e-20)
(0.990074 0.0210117 -2.34924e-20)
(1.04482 0.110868 3.04349e-20)
(0.954904 0.0928995 4.00324e-20)
(0.854707 0.133093 -1.03132e-20)
(0.886153 0.0335088 0)
(0.720484 0.0270989 8.15762e-21)
(0.624292 0.0210534 6.97358e-21)
(0.38001 -0.0114037 5.7238e-20)
(0.754472 -0.0602609 -1.82926e-19)
(1.02722 0.0729376 -6.20131e-20)
(0.95348 0.0654839 8.04052e-22)
(1.04001 0.0734311 -6.80546e-20)
(0.84109 -0.0128364 -1.56331e-19)
(1.10458 -0.22379 -1.91401e-19)
(1.05433 -0.067676 -4.17323e-20)
(1.14706 -0.0377768 6.16562e-19)
(1.25861 0.0373091 3.68241e-19)
(1.12377 0.0630352 2.88334e-20)
(0.876437 0.0346824 0)
(1.4178 -0.337974 4.1489e-19)
(1.54465 -0.297165 1.7773e-18)
(1.74551 -0.171885 -1.94111e-18)
(1.84845 -0.0216565 -6.18552e-19)
(1.78639 0.0389721 4.607e-19)
)
;

boundaryField
{
    left
    {
        type            fixedValue;
        value           uniform (1 0 0);
    }
    right
    {
        type            zeroGradient;
    }
    down
    {
        type            noSlip;
    }
    up
    {
        type            noSlip;
    }
    cylinder
    {
        type            noSlip;
    }
    defaultFaces
    {
        type            empty;
    }
}


// ************************************************************************* //
