/*--------------------------------*- C++ -*----------------------------------*\
  =========                 |
  \\      /  F ield         | OpenFOAM: The Open Source CFD Toolbox
   \\    /   O peration     | Website:  https://openfoam.org
    \\  /    A nd           | Version:  13
     \\/     M anipulation  |
\*---------------------------------------------------------------------------*/
FoamFile
{
    format      ascii;
    class       surfaceScalarField;
    location    "0.58";
    object      phi;
}
// * * * * * * * * * * * * * * * * * * * * * * * * * * * * * * * * * * * * * //

dimensions      [0 3 -1 0 0 0 0];

internalField   nonuniform List<scalar> 
3485
(
0.00137165
-0.0112581
0.00988644
0.00505113
-0.0319069
0.0282274
0.0107642
-0.051383
0.0456699
0.0183126
-0.0696769
0.0621284
0.0275456
-0.0868347
0.0776017
0.038349
-0.1029
0.0920971
0.0506341
-0.117905
0.10562
0.0643579
-0.131869
0.118145
0.0796179
-0.144859
0.129599
-0.156892
0.1395
0.09701
0.00150032
-0.0127584
0.00544579
-0.0358524
0.0114762
-0.0574134
0.0193236
-0.0775243
0.028773
-0.0962842
0.039647
-0.113775
0.0518015
-0.13006
0.0651286
-0.145196
0.0795367
-0.159267
-0.172195
0.0948398
0.00147417
-0.0142326
0.00532696
-0.0397052
0.0111745
-0.0632609
0.0187208
-0.0850706
0.0277254
-0.105289
0.0379886
-0.124038
0.0493448
-0.141416
0.0616542
-0.157506
0.0747849
-0.172398
-0.186036
0.0886254
0.00133885
-0.0155714
0.00485901
-0.0432253
0.0102108
-0.0686127
0.0171171
-0.0919769
0.0253539
-0.113526
0.0347404
-0.133424
0.0451305
-0.151806
0.0564042
-0.168779
0.0684548
-0.184448
-0.19879
0.081209
0.00116693
-0.0167384
0.00425598
-0.0463144
0.00897315
-0.0733298
0.0150817
-0.0980855
0.0223918
-0.120836
0.0307526
-0.141785
0.0400464
-0.1611
0.0501806
-0.178914
0.0610777
-0.195345
-0.210402
0.0726896
0.000980023
-0.0177184
0.00358796
-0.0489223
0.00758663
-0.0773285
0.012784
-0.103283
0.0190262
-0.127078
0.0261927
-0.148952
0.0341917
-0.169099
0.0429538
-0.187676
0.052424
-0.204816
-0.220549
0.0625712
0.000780729
-0.0184991
0.00286502
-0.0510066
0.00606902
-0.0805325
0.0102429
-0.107457
0.0152667
-0.132101
0.0210469
-0.154732
0.0275146
-0.175566
0.0346209
-0.194782
0.0423318
-0.212527
-0.228851
0.0506336
0.000569707
-0.0190688
0.00209348
-0.0525304
0.00443792
-0.082877
0.00749277
-0.110512
0.0111688
-0.135778
0.015397
-0.15896
0.0201278
-0.180297
0.0253299
-0.199984
0.030987
-0.218184
-0.234967
0.0371037
0.000352513
-0.0194213
0.00129578
-0.0534737
0.00274507
-0.0843262
0.00462842
-0.112395
0.00688661
-0.138036
0.00947328
-0.161547
0.0123555
-0.183179
0.0155146
-0.203143
0.0189452
-0.221614
-0.238684
0.0226621
0.000137801
-0.0195591
0.000502484
-0.0538383
0.00105701
-0.0848808
0.00176961
-0.113108
0.00261383
-0.13888
0.00356855
-0.162501
0.0046183
-0.184229
0.00575355
-0.204278
0.00697086
-0.222832
0.00827531
-0.239989
0.000492691
-0.00187125
0.00137856
0.00210001
-0.0062552
0.00464788
0.00544313
-0.0114077
0.00806457
0.010132
-0.0161729
0.011484
0.0155602
-0.0201643
0.0147362
0.0214633
-0.0235617
0.0176586
0.0279348
-0.026743
0.0202715
0.0351216
-0.0299355
0.0227487
0.0430093
-0.0330931
0.0252054
-0.0360648
0.0514651
0.027609
0.000427525
-0.00229878
0.00211356
-0.00794124
0.00544397
-0.0147381
0.00982748
-0.0205564
0.0149076
-0.0252445
0.0207908
-0.0294449
0.0276486
-0.0336007
0.0354302
-0.0377171
0.0439259
-0.0415888
-0.0451101
0.0529711
0.000682512
-0.00298129
0.00271556
-0.0099743
0.00578372
-0.0178063
0.00977351
-0.0245462
0.0148345
-0.0303054
0.0211375
-0.035748
0.0286141
-0.0410773
0.0369864
-0.0460894
0.046036
-0.0506384
-0.0547454
0.0556714
0.000867858
-0.00384915
0.00305987
-0.0121663
0.00608194
-0.0208283
0.010209
-0.0286732
0.0157118
-0.0358082
0.0225736
-0.0426098
0.0305534
-0.0490572
0.039415
-0.054951
0.0490624
-0.0602858
-0.0650965
0.0594135
0.000922499
-0.00477165
0.00319994
-0.0144438
0.00652087
-0.0241493
0.011122
-0.0332744
0.017143
-0.0418293
0.0244594
-0.0499262
0.0328799
-0.0574776
0.0423063
-0.0643774
0.0526754
-0.0706549
-0.0762757
0.0638546
0.000943536
-0.00571519
0.00337243
-0.0168727
0.00709233
-0.0278692
0.012177
-0.038359
0.0186372
-0.0482895
0.0263622
-0.0576512
0.0352549
-0.0663703
0.0452677
-0.0743903
0.0563219
-0.0817091
-0.0882134
0.0682596
0.000979791
-0.00669498
0.0035839
-0.0194768
0.00764166
-0.0319269
0.0131081
-0.0438255
0.0199277
-0.0551091
0.0280143
-0.0657378
0.0373057
-0.0756617
0.0477557
-0.0848403
0.0592913
-0.0932447
-0.10069
0.0717675
0.00101793
-0.00771291
0.00376766
-0.0222265
0.00807116
-0.0362304
0.0138202
-0.0495745
0.0209202
-0.0622092
0.0292825
-0.0741
0.0388374
-0.0852166
0.0495283
-0.0955312
0.0612965
-0.105013
-0.113435
0.0740418
0.00105459
-0.00876749
0.00393666
-0.0251086
0.00846095
-0.0407547
0.0144821
-0.0555957
0.0218741
-0.0696011
0.0305264
-0.0827524
0.0403439
-0.0950342
0.0512379
-0.106425
0.0631272
-0.116902
-0.126315
0.0760072
0.00111895
0.00423781
0.00915305
0.0156858
0.0236864
0.0330312
0.0436171
0.0553373
0.068034
0.0812192
0.114376
-0.414182
0.351271
0.168171
-0.471266
0.417471
0.210256
-0.421162
0.379077
0.244
-0.325637
0.291894
0.270578
-0.213238
0.18666
0.290754
-0.108447
0.0882711
0.303264
-0.0280752
0.015565
0.307568
0.0115843
-0.0158882
0.307856
0.0184403
-0.0187284
0.0137032
-0.0123024
0.115978
-0.477189
0.169771
-0.525059
0.211855
-0.463247
0.245362
-0.359144
0.272067
-0.239943
0.292881
-0.129261
0.307686
-0.04288
0.315432
0.00383786
0.318408
0.0154646
0.01379
0.117796
-0.539314
0.170621
-0.577884
0.212329
-0.504956
0.245263
-0.392078
0.271851
-0.266531
0.292868
-0.150278
0.308614
-0.0586251
0.318432
-0.00598065
0.324793
0.00910357
0.0110583
0.120176
-0.600076
0.170999
-0.628707
0.211849
-0.545805
0.243911
-0.424141
0.270151
-0.292771
0.291246
-0.171372
0.3072
-0.0745794
0.317695
-0.0164755
0.325428
0.00137036
0.00680537
0.123067
-0.659288
0.17111
-0.676751
0.210544
-0.585239
0.241482
-0.455079
0.267123
-0.318412
0.288268
-0.192517
0.30436
-0.090672
0.315487
-0.0276025
0.324028
-0.00717074
0.00174489
0.125916
-0.716944
0.17099
-0.721826
0.208504
-0.622753
0.238111
-0.484685
0.262888
-0.34319
0.284019
-0.213648
0.300458
-0.10711
0.312519
-0.0396641
0.322295
-0.0169465
-0.00457533
0.127846
-0.773023
0.170455
-0.764434
0.205783
-0.658081
0.233923
-0.512825
0.257581
-0.366848
0.278533
-0.2346
0.295571
-0.124148
0.308948
-0.0530412
0.320236
-0.028234
-0.0124256
0.127921
-0.826902
0.169025
-0.805537
0.202247
-0.691304
0.228897
-0.539474
0.251262
-0.389213
0.271804
-0.255142
0.289657
-0.142001
0.304832
-0.068217
0.316082
-0.039484
-0.0198297
0.125837
-0.876732
0.166293
-0.845994
0.197847
-0.722858
0.223126
-0.564753
0.244077
-0.410164
0.263827
-0.274892
0.282634
-0.160808
0.298631
-0.0842135
0.307213
-0.0480669
-0.0251995
0.122148
-0.917661
0.161458
-0.885303
0.191709
-0.75311
0.2159
-0.588943
0.235533
-0.429798
0.254388
-0.293747
0.273526
-0.179946
0.287158
-0.0978451
0.293568
-0.0544773
-0.0312576
0.583934
-0.920129
-0.581465
0.561184
-0.862553
0.523981
-0.715907
0.487939
-0.5529
0.460457
-0.402316
0.445288
-0.278578
0.438865
-0.173523
0.43446
-0.09344
0.430524
-0.0505416
-0.0295623
0.682857
-0.871538
-0.731448
0.619712
-0.799408
0.553996
-0.650192
0.496669
-0.495573
0.451837
-0.357484
0.420922
-0.247662
0.404665
-0.157266
0.39764
-0.0864154
0.393108
-0.0460096
-0.0270642
0.754013
-0.775126
-0.850425
0.655186
-0.700581
0.563603
-0.558608
0.487745
-0.419715
0.43025
-0.299989
0.390732
-0.208145
0.368339
-0.134873
0.358281
-0.0763579
0.352832
-0.0405605
-0.0239206
0.779026
-0.641655
-0.912497
0.653821
-0.575376
0.546414
-0.451201
0.461265
-0.334566
0.398548
-0.237272
0.355282
-0.164878
0.329184
-0.108776
0.31659
-0.0637634
0.310251
-0.0342219
-0.0202635
0.753007
-0.492417
-0.902245
0.617612
-0.439981
0.50627
-0.339859
0.420248
-0.248544
0.357833
-0.174857
0.314626
-0.121672
0.287406
-0.0815558
0.273153
-0.0495104
0.265989
-0.027058
-0.0162031
0.685119
-0.345826
-0.83171
0.552729
-0.307591
0.446503
-0.233633
0.366083
-0.168124
0.308466
-0.11724
0.268522
-0.0817278
0.242547
-0.0555802
0.227934
-0.034898
0.220339
-0.0194628
-0.0119274
0.582627
-0.213857
-0.714597
0.462906
-0.18787
0.369347
-0.140074
0.299993
-0.0987698
0.251003
-0.0682498
0.217021
-0.0477456
0.194368
-0.0329265
0.180832
-0.0213625
0.173463
-0.0120936
-0.00773088
0.448763
-0.105522
-0.557098
0.351188
-0.0902938
0.277074
-0.0659612
0.223553
-0.0452484
0.186319
-0.0310159
0.160447
-0.0218735
0.142822
-0.0153011
0.131739
-0.0102804
0.12544
-0.0057942
-0.00400838
0.286593
-0.0302202
-0.361895
0.220915
-0.024615
0.172498
-0.017545
0.138721
-0.0114713
0.115499
-0.00779376
0.0992207
-0.00559495
0.0879062
-0.00398664
0.0804649
-0.00283907
0.0761959
-0.0015252
-0.00125897
0.101316
-0.131536
0.0767011
0.0591561
0.0476849
0.0398911
0.0342962
0.0303095
0.0274705
0.0259453
0.738822
0.0102228
-0.740769
0.733075
0.0284083
0.723436
0.046743
0.710163
0.0639073
0.693569
0.0791649
0.674074
0.0921844
0.652269
0.103014
0.628707
0.112187
0.604261
0.119286
0.119806
0.845549
0.0133989
-0.848725
0.837321
0.0366361
0.827287
0.0567771
0.816592
0.0746023
0.805248
0.0905088
0.792893
0.10454
0.779278
0.116629
0.76458
0.126885
0.749113
0.134753
0.13747
0.844985
0.0114261
-0.843012
0.848885
0.0327359
0.853023
0.0526395
0.856474
0.0711506
0.858836
0.0881473
0.859922
0.103453
0.859597
0.116954
0.857967
0.128514
0.855299
0.137422
0.142344
0.800214
0.00930509
-0.798093
0.805822
0.0271277
0.81442
0.0440413
0.825639
0.0599314
0.839006
0.074781
0.853856
0.0886026
0.869428
0.101383
0.885064
0.112879
0.899951
0.122535
0.129798
0.737866
0.00703928
-0.735601
0.744155
0.0208389
0.754125
0.0340719
0.767505
0.0465507
0.784086
0.0582006
0.803665
0.0690236
0.825995
0.0790529
0.850631
0.0882424
0.876555
0.0966103
0.104108
0.653921
0.00485438
-0.651736
0.660203
0.0145564
0.670379
0.0238966
0.684222
0.0327077
0.701526
0.0408963
0.722113
0.0484364
0.745809
0.0553575
0.772334
0.0617171
0.801224
0.0677206
0.0736217
0.549112
0.00291636
-0.547174
0.554813
0.00885609
0.564138
0.0145707
0.576906
0.0199401
0.592915
0.0248868
0.611969
0.0293828
0.633872
0.0334543
0.658409
0.0371805
0.685382
0.0407469
0.0444071
0.422792
0.00137586
-0.421252
0.427413
0.00423603
0.435008
0.00697565
0.445422
0.00952587
0.45847
0.0118387
0.473957
0.0138957
0.491697
0.0157138
0.511528
0.0173498
0.533348
0.0189273
0.0206565
0.273828
0.0003667
-0.272819
0.276915
0.00114946
0.281999
0.00189175
0.288955
0.0025694
0.297629
0.00316445
0.307856
0.00366912
0.319482
0.00408803
0.332395
0.00443667
0.346562
0.00476042
0.00532327
0.100484
-0.100117
0.101633
0.103525
0.106094
0.109259
0.112928
0.117016
0.121453
0.126213
0.077937
0.159498
-0.142483
-0.0949519
0.0630316
0.147455
-0.13255
0.0496212
0.134402
-0.120992
0.0376052
0.12033
-0.108314
0.0270276
0.105169
-0.0945915
0.0179785
0.0888935
-0.0798444
0.0105732
0.0714603
-0.064055
0.00496343
0.0528095
-0.0471998
0.00134804
0.0328746
-0.0292592
0.0116391
-0.0102911
0.077945
0.174429
-0.0928765
0.0638741
0.161526
0.0508417
0.147435
0.0389394
0.132232
0.0282768
0.115832
0.0190006
0.0981697
0.0112898
0.0791712
0.00535964
0.0587396
0.00147722
0.036757
0.0131164
0.0731828
0.187925
-0.0866789
0.0603723
0.174337
0.0483518
0.159455
0.0372496
0.143334
0.0272036
0.125878
0.0183795
0.106994
0.0109767
0.086574
0.00523535
0.064481
0.00144962
0.0405427
0.014566
0.0667735
0.200351
-0.0791995
0.0550348
0.186075
0.0440505
0.170439
0.0339223
0.153462
0.0247668
0.135033
0.0167271
0.115034
0.00998167
0.0933194
0.00475144
0.0697112
0.00130964
0.0439845
0.0158756
0.0593143
0.211656
-0.0706189
0.0487166
0.196673
0.0388682
0.180288
0.0298416
0.162489
0.0217245
0.14315
0.0146296
0.122128
0.00870232
0.0992467
0.00412642
0.0742871
0.00113095
0.04698
0.0170066
0.0505994
0.22152
-0.060464
0.0414119
0.205861
0.032928
0.188772
0.0251975
0.17022
0.0182838
0.150064
0.0122721
0.12814
0.00727494
0.104244
0.00343651
0.0781255
0.000937271
0.0494792
0.0179438
0.0404581
0.229564
-0.0485015
0.0330133
0.213305
0.0261767
0.195608
0.0199775
0.176419
0.0144574
0.155584
0.00967745
0.13292
0.00572041
0.108201
0.00269374
0.0811522
0.000731829
0.0514411
0.0186757
0.0290546
0.235442
-0.0349324
0.0236515
0.218708
0.0187148
0.200545
0.0142552
0.180878
0.0102962
0.159543
0.0068775
0.136339
0.00405557
0.111023
0.00190425
0.0833035
0.000515273
0.0528301
0.0191909
0.0169176
0.238926
-0.0204022
0.0137419
0.221884
0.0108549
0.203432
0.00825478
0.183479
0.00595143
0.161846
0.00396644
0.138324
0.00233214
0.112657
0.00109064
0.084545
0.000293233
0.0536275
0.0194842
0.00482773
-0.00589036
0.0038803
0.00303391
0.00228329
0.00162807
0.00107194
0.00062157
0.000285803
7.49634e-05
0.0436331
0.0413679
-0.0525247
-0.0324762
0.0352615
0.0383202
-0.0299486
0.027597
0.0349228
-0.0272583
0.0208652
0.0313114
-0.0245795
0.0150669
0.0277474
-0.0219492
0.00996123
0.0241909
-0.0190852
0.00543245
0.0200556
-0.0155268
0.00196999
0.0144473
-0.0109848
0.000385227
0.00738685
-0.00580208
0.0020854
-0.00170017
0.0437629
0.0505405
-0.0529355
0.0351097
0.0469734
0.0270677
0.0429648
0.0199197
0.0384593
0.0139812
0.0336859
0.00925792
0.0289142
0.00550493
0.0238086
0.00257329
0.0173789
0.000620498
0.00933965
0.0027059
0.0449688
0.0601025
-0.0545309
0.0360395
0.0559027
0.0277943
0.0512101
0.0203505
0.0459031
0.0140344
0.0400021
0.00910983
0.0338388
0.00552199
0.0273965
0.00289459
0.0200063
0.000809666
0.0114246
0.00351556
0.0474069
0.0702954
-0.0575998
0.0379647
0.0653449
0.0293879
0.0597869
0.0217146
0.0535764
0.0150707
0.046646
0.00971544
0.039194
0.0057706
0.0313413
0.00296342
0.0228135
0.000876234
0.0135118
0.0043918
0.0508722
0.0812278
-0.0618046
0.0407623
0.0754548
0.0316387
0.0689105
0.0235639
0.0616513
0.0165611
0.0536487
0.0107578
0.0449973
0.00628935
0.0358098
0.0030655
0.0260374
0.000881673
0.0156956
0.00527347
0.054563
0.0928305
-0.0661656
0.0438362
0.0861815
0.0341485
0.0785982
0.0255747
0.070225
0.018137
0.0610864
0.0118916
0.0512427
0.00693404
0.0407674
0.00328141
0.02969
0.00090947
0.0180675
0.00618294
0.0576089
0.104917
-0.0696955
0.0464446
0.0973459
0.036337
0.0887058
0.0273463
0.0792157
0.0195086
0.0689241
0.0128745
0.0578768
0.0075235
0.0461184
0.003527
0.0336865
0.000960179
0.0206344
0.00714312
0.0596588
0.117248
-0.0719899
0.0482776
0.108727
0.0379317
0.0990517
0.0286665
0.0884808
0.0205338
0.0770569
0.0136024
0.0648082
0.00796369
0.0517571
0.0037228
0.0379274
0.00100561
0.0233516
0.00814873
0.0614673
0.129705
-0.0739245
0.0499666
0.120228
0.0394148
0.109603
0.0298835
0.0980121
0.021459
0.0854814
0.0142382
0.0720289
0.0083357
0.0576597
0.00388509
0.042378
0.00104204
0.0261946
0.00919077
0.0663197
-0.079097
0.0539976
0.0426092
0.0323076
0.0231975
0.015382
0.00898668
0.0041649
0.00110033
0.214128
0.0609224
-0.077061
0.236675
0.0897978
-0.112345
0.260925
0.123517
-0.147767
0.275695
0.113874
-0.128643
0.275116
0.110487
-0.109908
0.252495
0.179453
-0.156832
0.21851
0.293774
-0.25979
0.174633
0.412247
-0.36837
0.118317
0.494212
-0.437897
0.46126
-0.395468
0.213489
0.0454234
0.234866
0.0684203
0.258195
0.100189
0.27344
0.098629
0.274433
0.109494
0.252858
0.201029
0.218784
0.327848
0.174467
0.456565
0.118049
0.55063
0.526374
0.213154
0.0302592
0.233677
0.0478977
0.256137
0.0777284
0.271504
0.0832618
0.272766
0.108233
0.251736
0.222058
0.217657
0.361927
0.173258
0.500964
0.117902
0.605987
0.589745
0.21305
0.0151986
0.233115
0.0278333
0.254814
0.0560295
0.269951
0.0681241
0.270334
0.10785
0.249232
0.24316
0.215259
0.395899
0.171371
0.544852
0.118448
0.65891
0.650593
0.213138
5.04808e-05
0.233074
0.00789763
0.25405
0.0350534
0.268351
0.0538227
0.267014
0.109188
0.245386
0.264787
0.211762
0.429523
0.169209
0.587405
0.119816
0.708303
0.708604
0.213397
-0.0153568
0.233385
-0.0120904
0.25358
0.0148588
0.266354
0.0410482
0.262674
0.112868
0.240286
0.287175
0.207404
0.462405
0.167041
0.627768
0.121547
0.753798
0.763985
0.21371
-0.0310768
0.233864
-0.0322449
0.253147
-0.00442427
0.263751
0.0304448
0.25727
0.119349
0.234117
0.310328
0.202455
0.494067
0.164857
0.665365
0.122757
0.795899
0.817047
0.213886
-0.0469728
0.234349
-0.0527077
0.252517
-0.0225926
0.260314
0.0226482
0.2507
0.128963
0.226982
0.334045
0.196965
0.524085
0.162237
0.700093
0.122428
0.835707
0.867485
0.213802
-0.0627854
0.234756
-0.0736609
0.251528
-0.0393648
0.256063
0.0181126
0.2432
0.141826
0.219237
0.358009
0.191056
0.552265
0.158761
0.732388
0.120169
0.874299
0.913729
0.2137
-0.0784959
0.234998
-0.0949582
0.250133
-0.0545003
0.250623
0.0176227
0.234225
0.158224
0.210243
0.381991
0.183811
0.578697
0.153562
0.762637
0.116483
0.911379
0.951115
0.33189
-0.108376
0.370617
-0.133685
0.407007
-0.0908902
0.424757
-0.000127262
0.439502
0.143479
0.467554
0.353939
0.506626
0.539625
0.549585
0.719678
0.581352
0.879612
0.945982
0.586485
0.333428
-0.139793
0.37299
-0.173247
0.408288
-0.126188
0.423514
-0.0153527
0.436832
0.130161
0.476341
0.31443
0.53442
0.481546
0.604502
0.649596
0.675389
0.808725
0.888405
0.732966
0.336045
-0.173828
0.374926
-0.212128
0.408578
-0.15984
0.419824
-0.0265988
0.42928
0.120705
0.474708
0.269002
0.546813
0.409441
0.638946
0.557463
0.742325
0.705346
0.784318
0.846411
0.340143
-0.211961
0.373015
-0.245
0.384932
-0.171756
0.38277
-0.0244373
0.400124
0.103351
0.453482
0.215644
0.53448
0.328444
0.640704
0.451238
0.767171
0.578879
0.646967
0.904523
0.348256
-0.258207
0.356263
-0.253007
0.338013
-0.153506
0.335513
-0.0219368
0.359319
0.0795447
0.414402
0.16056
0.497492
0.245354
0.60802
0.34071
0.743814
0.443085
0.495811
0.894971
0.340858
-0.297055
0.321199
-0.233348
0.288236
-0.120544
0.284758
-0.0184591
0.309439
0.0548642
0.361351
0.108648
0.439907
0.166798
0.545842
0.234775
0.67881
0.310117
0.347957
0.826664
0.314282
-0.309327
0.271577
-0.190643
0.233861
-0.0828281
0.229123
-0.0137204
0.251416
0.0325713
0.296353
0.0637109
0.364713
0.0984376
0.458375
0.141113
0.57882
0.189672
0.215092
0.711685
0.273779
-0.281095
0.212895
-0.12976
0.174497
-0.0444294
0.169079
-0.00830298
0.186512
0.0151387
0.221102
0.0291212
0.274238
0.0453015
0.348709
0.0666421
0.447059
0.0913224
0.106135
0.556016
0.214644
-0.193728
0.14048
-0.0555961
0.109454
-0.0134034
0.104232
-0.00308062
0.115511
0.00385916
0.137361
0.00727198
0.17113
0.0115318
0.219981
0.0177915
0.286341
0.0249625
0.0304067
0.362069
0.108282
0.0526856
0.0392823
0.0362016
0.0400608
0.0473328
0.0588645
0.076656
0.101618
0.132025
0.608644
-0.117112
0.632312
-0.116544
0.655132
-0.109499
0.676286
-0.100353
0.695231
-0.0895643
0.711369
-0.0766021
0.724264
-0.0613955
0.733591
-0.0442597
0.739076
-0.0258876
-0.0075834
0.750304
-0.134449
0.765211
-0.131451
0.779416
-0.123705
0.792643
-0.113579
0.804708
-0.10163
0.815845
-0.0877392
0.826402
-0.071952
0.836392
-0.05425
0.844841
-0.0343372
-0.0114672
0.851036
-0.139074
0.853482
-0.133897
0.854999
-0.125222
0.855378
-0.113958
0.85453
-0.100782
0.852629
-0.0858385
0.849902
-0.0692247
0.846744
-0.0510918
0.84395
-0.0315432
-0.0105294
0.892577
-0.127128
0.878557
-0.119877
0.863872
-0.110538
0.849304
-0.0993896
0.835455
-0.0869331
0.823025
-0.0734085
0.812639
-0.0588388
0.804758
-0.0432109
0.799746
-0.0265309
-0.00887649
0.870335
-0.102492
0.845566
-0.0951078
0.821956
-0.0869274
0.800496
-0.0779301
0.781658
-0.068095
0.765717
-0.0574668
0.752891
-0.0460137
0.743404
-0.0337235
0.737524
-0.020651
-0.00695299
0.797009
-0.0728379
0.768941
-0.0670392
0.743126
-0.0611127
0.720039
-0.0548431
0.699972
-0.0480283
0.683112
-0.0406068
0.669642
-0.032543
0.659769
-0.0238508
0.653726
-0.0146079
-0.00496326
0.682987
-0.0441406
0.656501
-0.0405528
0.632401
-0.0370126
0.610878
-0.0333198
0.592144
-0.0292948
0.576395
-0.0248573
0.563828
-0.0199757
0.554646
-0.014669
0.549043
-0.00900509
-0.00309438
0.532509
-0.0206338
0.510907
-0.0189505
0.491273
-0.0173792
0.473702
-0.0157484
0.458349
-0.0139418
0.445396
-0.0119042
0.435036
-0.00961578
0.427457
-0.0070905
0.422824
-0.00437125
-0.00152269
0.346787
-0.00535153
0.332645
-0.00480888
0.31975
-0.00448464
0.308135
-0.00413336
0.297907
-0.00371344
0.289214
-0.00321068
0.282218
-0.00261986
0.277074
-0.00194727
0.273913
-0.00120937
-0.000429158
0.126674
0.121865
0.11738
0.113247
0.109533
0.106323
0.103703
0.101756
0.100546
0.000185054
0.011609
-0.011794
0.000623727
0.0304459
-0.0308845
0.00123715
0.0462409
-0.0468543
0.0019773
0.0594665
-0.0602066
0.00277658
0.0700204
-0.0708197
0.00376948
0.0798878
-0.0808807
0.00396342
0.077266
-0.07746
0.00408479
0.0700413
-0.0701626
0.00394491
0.0610786
-0.0609388
0.0499552
0.00350716
-0.0495174
0.000533388
0.0110756
0.00180384
0.0291754
0.00358503
0.0444597
0.00574116
0.0573104
0.00807271
0.0676888
0.0110395
0.0769211
0.0116758
0.0766297
0.0120807
0.0696364
0.0117735
0.0613859
0.0510776
0.0106511
0.000835485
0.0102401
0.00283179
0.0271791
0.00563903
0.0416524
0.00904143
0.053908
0.0127393
0.063991
0.0172472
0.0724131
0.0187899
0.075087
0.0195716
0.0688548
0.0193854
0.0615721
0.052434
0.0180289
0.00105596
0.00918415
0.00359695
0.0246381
0.00719352
0.0380559
0.0115557
0.0495458
0.0163564
0.0591903
0.0217475
0.067022
0.0250725
0.071762
0.0263548
0.0675725
0.0266031
0.0613238
0.0535658
0.0254712
0.00115143
0.00803272
0.00397926
0.0218103
0.00804162
0.0339935
0.0129968
0.0445907
0.0185515
0.0536356
0.0245574
0.0610162
0.0299519
0.0663675
0.0320898
0.0654346
0.0330112
0.0604025
0.0540906
0.0324864
0.00111147
0.00692125
0.00396594
0.0189559
0.00818551
0.0297739
0.0133901
0.039386
0.0193179
0.0477078
0.0257719
0.0545622
0.0324158
0.0597236
0.0363123
0.061538
0.0381241
0.0585907
0.0537066
0.0385082
0.000926231
0.00599502
0.00357295
0.0163091
0.00771062
0.0256363
0.0128817
0.034215
0.0187866
0.0418029
0.0253382
0.0480106
0.032321
0.0527408
0.038275
0.055584
0.0415869
0.0552787
0.0521825
0.043111
0.000567854
0.00542717
0.00278666
0.0140903
0.00665755
0.0217654
0.0116214
0.0292511
0.0172045
0.0362199
0.0234475
0.0417676
0.0302861
0.0459022
0.0371839
0.0486862
0.0425607
0.0499019
0.048924
0.0458192
0.000103855
0.00532331
0.00176868
0.0124255
0.00517588
0.0183582
0.00981516
0.0246118
0.0149573
0.0310777
0.0206216
0.0361033
0.0269037
0.0396201
0.0335871
0.0420028
0.0400846
0.0434044
0.0437961
0.0452124
-0.00017552
0.00549883
0.00108701
0.011163
0.00385618
0.015589
0.0078869
0.0205811
0.0125015
0.0264631
0.0175718
0.031033
0.0231773
0.0340146
0.0292489
0.0359312
0.035635
0.0370184
0.0373702
0.0420608
-2.10419e-05
0.00551988
0.00114019
0.0100017
0.00327784
0.0134514
0.00641333
0.0174456
0.0102949
0.0225815
0.014836
0.0264919
0.0199551
0.0288955
0.0254865
0.0303997
0.0312233
0.0312816
0.0316973
0.0368963
0.000377465
0.00514241
0.00153161
0.00884759
0.00318029
0.0118027
0.00549073
0.0151352
0.00870906
0.0193632
0.0128932
0.0223078
0.0177435
0.0240452
0.0230091
0.025134
0.0284989
0.0257917
0.0260624
0.0341338
0.000623833
0.00451858
0.0017062
0.00776521
0.00302614
0.0104827
0.00484458
0.0133167
0.00783302
0.0163747
0.0119199
0.018221
0.0166693
0.0192958
0.0218413
0.019962
0.0273033
0.0203296
0.0204115
0.0329542
0.000676379
0.0038422
0.0016417
0.00679989
0.00282023
0.00930421
0.00469992
0.011437
0.00797125
0.0131034
0.0121996
0.0139926
0.0170145
0.0144809
0.0222541
0.0147224
0.0278218
0.0147619
0.0146015
0.0336319
0.000663384
0.00317881
0.001553
0.00591027
0.00299257
0.00786463
0.00557799
0.00885162
0.00936926
0.00931212
0.0138917
0.00947022
0.0189355
0.00943702
0.0244014
0.00925659
0.0302211
0.00894217
0.00849946
0.0363231
0.000593725
0.00258508
0.00171506
0.00478892
0.00406098
0.00551871
0.0075205
0.00539209
0.0117767
0.00505596
0.016628
0.0046189
0.0219728
0.00409217
0.0277519
0.0034775
0.0339138
0.00278029
0.0020135
0.0403997
0.000524478
0.00206059
0.00248688
0.0028265
0.00575709
0.00224849
0.00975841
0.00139077
0.0143526
0.000461719
0.0194937
-0.000522196
0.0251514
-0.00156547
0.0312827
-0.00265387
0.0378271
-0.00376411
-0.00488399
0.0447246
0.00087533
0.00118526
0.00362329
7.85281e-05
0.00718835
-0.00131658
0.0113771
-0.00279803
0.016176
-0.00433711
0.0215951
-0.00594136
0.0275934
-0.0075637
0.0340803
-0.00914083
0.040973
-0.0106568
-0.0121413
0.0482302
0.0015064
-0.000321147
0.00413757
-0.00255266
0.00756164
-0.00474066
0.0117788
-0.00701515
0.0167961
-0.00935443
0.0225357
-0.011681
0.0288313
-0.0138593
0.0355618
-0.0158713
0.042701
-0.017796
-0.0196892
0.050249
0.00105741
0.00315263
0.00647654
0.0109454
0.0163271
0.0223047
0.0287169
0.0355943
0.0430037
0.0509235
0.0513851
0.0837841
-0.0982729
0.0772479
-0.00736831
-0.0184946
0.0998506
-0.0510354
0.0284327
0.113494
-0.0469507
0.0333072
0.121421
-0.0266697
0.0187429
0.12501
-0.00785992
0.00427124
0.126024
0.00343736
-0.00445181
0.126273
0.00682561
-0.00707442
0.126648
0.00627354
-0.00664875
0.0034332
-0.00457938
0.0585808
0.0593371
0.091611
-0.0403987
0.118764
-0.0781888
0.134739
-0.0629257
0.143428
-0.035358
0.147045
-0.0114774
0.147769
0.00271413
0.14768
0.00691476
0.147801
0.00615249
0.00256655
0.0665948
0.0256965
0.104992
-0.0787961
0.135981
-0.109177
0.155577
-0.0825219
0.165535
-0.0453158
0.169215
-0.0151583
0.169533
0.00239638
0.168938
0.00751039
0.168625
0.00646522
0.00213659
0.0754808
-0.0161524
0.117835
-0.12115
0.151716
-0.143058
0.175072
-0.105878
0.187076
-0.0573204
0.191083
-0.019165
0.191023
0.00245628
0.189859
0.00867444
0.189016
0.00730874
0.00224338
0.0845454
-0.0643747
0.129672
-0.166276
0.165718
-0.179105
0.192383
-0.132542
0.20729
-0.0722271
0.212219
-0.0240945
0.211968
0.00270694
0.210267
0.0103765
0.208864
0.00871102
0.0029323
0.0930168
-0.116992
0.140169
-0.213429
0.177897
-0.216833
0.207121
-0.161766
0.225316
-0.0904217
0.232084
-0.0308627
0.232046
0.00274436
0.229956
0.012467
0.228048
0.0106186
0.00418905
0.100233
-0.1725
0.149054
-0.262251
0.188156
-0.255935
0.219207
-0.192817
0.240455
-0.11167
0.250033
-0.0404408
0.250888
0.00189014
0.2487
0.0146548
0.246428
0.01289
0.00593732
0.105843
-0.230113
0.156201
-0.312609
0.196441
-0.296175
0.22875
-0.225126
0.252383
-0.135303
0.265333
-0.0533904
0.26804
-0.000817153
0.26623
0.0164645
0.263842
0.0152789
0.00803363
0.109829
-0.289693
0.161643
-0.364423
0.202781
-0.337314
0.235927
-0.258272
0.261149
-0.160525
0.277339
-0.0695802
0.282942
-0.00642073
0.282213
0.0171939
0.280081
0.0174109
0.0102586
0.112502
0.16555
0.207314
0.240936
0.267071
0.285762
0.294907
0.296212
0.294895
0.0131991
0.00607869
-0.0192778
0.0109825
0.00221662
0.011495
-0.000512566
0.0129124
-0.00141736
0.0136182
-0.000705785
0.0137316
-0.000113408
0.01351
0.00022162
0.0131872
0.000322828
0.0129313
0.000255867
0.000289331
0.0372445
0.0232189
-0.0543847
0.031474
0.00798712
0.033966
-0.00300459
0.0380056
-0.00545695
0.0401562
-0.00285647
0.0405404
-0.000497523
0.0399093
0.000852682
0.0389902
0.00124199
0.0381524
0.00109367
0.000959941
0.0579568
0.0481058
-0.0828438
0.0508492
0.0150948
0.05583
-0.00798543
0.0623814
-0.0120084
0.0660166
-0.00649165
0.0667508
-0.00123167
0.0657721
0.00183132
0.0642981
0.00271607
0.0629016
0.00249015
0.00193672
0.073892
0.0754206
-0.101207
0.0680337
0.020953
0.0763619
-0.0163136
0.0856594
-0.0213059
0.0909368
-0.011769
0.0921619
-0.00245676
0.0909316
0.00306163
0.0889618
0.00468593
0.0870811
0.00437088
0.00316465
0.0813824
-0.104235
0.0838406
0.0959596
0.107961
0.114935
0.116749
0.115359
0.112971
0.110693
0.00273363
-0.000172923
-0.00256071
0.00326449
-0.000530864
0.00417671
-0.000912218
0.00548775
-0.00131104
0.00718414
-0.00169639
0.00922868
-0.00204454
0.0115853
-0.00235657
0.0141735
-0.00258828
0.0168586
-0.00268505
-0.00241923
0.00778731
-0.000645689
-0.00731454
0.00923418
-0.00197774
0.0117135
-0.00339155
0.0152698
-0.00486738
0.0198841
-0.0063106
0.025482
-0.00764248
0.0319642
-0.00883882
0.0391555
-0.00977958
0.0467666
-0.0102962
-0.0100373
0.0124779
-0.00138374
-0.0117398
0.0147275
-0.0042274
0.0185603
-0.00722437
0.0240242
-0.0103313
0.0310788
-0.0133651
0.0395855
-0.0161493
0.0493274
-0.0185807
0.0600505
-0.0205027
0.0714142
-0.0216599
-0.0214669
0.0168072
-0.00234767
-0.0158433
0.0197314
-0.00715159
0.0246745
-0.0121675
0.0316509
-0.0173077
0.0405494
-0.0222637
0.0511055
-0.0267053
0.0629365
-0.0304116
0.0756929
-0.0332591
0.0888586
-0.0348256
-0.0338151
0.0207927
-0.0196332
0.0242922
0.0301536
0.0383172
0.0485399
0.0603428
0.0730422
0.0856023
0.0959891
0.0314542
-0.0313014
0.0371079
-0.0372607
0.0255925
-0.0308984
0.0367601
0.0199327
-0.0300657
0.0357255
0.014685
-0.0286698
0.0339176
0.0100636
-0.0264617
0.0310831
0.00620684
-0.0227756
0.0266323
0.00311538
-0.0176467
0.0207382
0.00101861
-0.0136214
0.0157182
-8.59882e-05
-0.0101604
0.011265
-0.00564043
0.00555445
0.0294757
-0.0254364
-0.0353407
0.0237584
-0.025181
0.0182669
-0.0245743
0.0131792
-0.0235821
0.00874788
-0.0220304
0.00535503
-0.0193827
0.00302284
-0.0153145
0.00139869
-0.0119972
0.000299422
-0.00906108
-0.00534101
0.02945
-0.0194467
-0.0354396
0.0236445
-0.0193755
0.0181257
-0.0190555
0.0130107
-0.018467
0.00850207
-0.0175218
0.00505073
-0.0159314
0.00300937
-0.0132732
0.00164807
-0.0106359
0.000584319
-0.00799733
-0.00475668
0.0313655
-0.0131831
-0.0376292
0.0253365
-0.0133464
0.0196254
-0.0133444
0.0143188
-0.0131604
0.00955543
-0.0127584
0.00565979
-0.0120357
0.00320321
-0.0108166
0.00176501
-0.0091977
0.000728976
-0.00696129
-0.0040277
0.0349526
-0.00652918
-0.0416065
0.0285806
-0.00697442
0.0225625
-0.00732632
0.0169646
-0.00756247
0.0118777
-0.00767147
0.00748602
-0.00764406
0.00413993
-0.0074705
0.00199571
-0.00705347
0.000799347
-0.00576491
-0.00322835
0.0392508
0.000574402
-0.0463543
0.0324724
-0.000196004
0.0260915
-0.000945424
0.0201824
-0.00165342
0.0148058
-0.00229483
0.0100247
-0.00286294
0.0059228
-0.00336859
0.0026738
-0.00380447
0.000720504
-0.00381161
-0.00250784
0.0430639
0.00808471
-0.0505742
0.0358938
0.0069741
0.0291175
0.00583081
0.0228348
0.00462934
0.017147
0.00339299
0.0120934
0.00219061
0.00765613
0.00106872
0.0038423
9.37137e-06
0.000977468
-0.000946761
-0.00153037
0.0453228
0.0158801
-0.0531182
0.0379033
0.0143937
0.0308572
0.0128769
0.0242215
0.011265
0.0181391
0.0094754
0.0127948
0.00753496
0.00826625
0.00559723
0.00453006
0.00374557
0.00162645
0.00195686
9.60887e-05
0.0454708
0.0239722
-0.0535629
0.0378624
0.0220021
0.0307411
0.0199982
0.0240203
0.0179858
0.0176695
0.0158262
0.0118834
0.0133211
0.00703689
0.0104438
0.003413
0.00736946
0.00114564
0.00422424
0.00124173
0.0444221
-0.0529261
0.0364756
0.0292155
0.0226218
0.0164988
0.0107347