/*--------------------------------*- C++ -*----------------------------------*\
  =========                 |
  \\      /  F ield         | OpenFOAM: The Open Source CFD Toolbox
   \\    /   O peration     | Website:  https://openfoam.org
    \\  /    A nd           | Version:  13
     \\/     M anipulation  |
\*---------------------------------------------------------------------------*/
FoamFile
{
    format      ascii;
    class       volVectorField;
    location    "0.58";
    object      U;
}
// * * * * * * * * * * * * * * * * * * * * * * * * * * * * * * * * * * * * * //

dimensions      [0 1 -1 0 0 0 0];

internalField   nonuniform List<vector> 
1800
(
(0.0978016 -0.0883293 -4.49052e-20)
(0.286896 -0.241952 -3.41262e-20)
(0.473973 -0.379045 -4.85041e-19)
(0.657691 -0.500157 1.91476e-19)
(0.836609 -0.607168 7.43772e-20)
(1.00991 -0.70137 -3.90524e-20)
(1.17715 -0.783458 5.54859e-20)
(1.33792 -0.853663 1.97236e-19)
(1.49158 -0.912938 5.92158e-19)
(1.63351 -0.966867 8.09942e-19)
(0.119061 -0.0915033 -7.91183e-20)
(0.344292 -0.24771 -7.70618e-19)
(0.563283 -0.38475 3.78152e-21)
(0.775364 -0.504236 1.25778e-19)
(0.979504 -0.60892 -1.26276e-19)
(1.17521 -0.700691 7.66094e-20)
(1.36231 -0.780781 -2.80883e-19)
(1.54077 -0.850087 -5.02219e-20)
(1.71009 -0.910687 -6.93353e-19)
(1.86784 -0.96702 6.29654e-19)
(0.141651 -0.0923234 4.88231e-20)
(0.403681 -0.247732 2.09289e-19)
(0.653756 -0.382118 5.43337e-19)
(0.892178 -0.497905 -1.90269e-19)
(1.11866 -0.598384 -1.43004e-19)
(1.33321 -0.68581 7.5619e-20)
(1.53605 -0.761701 9.8277e-20)
(1.72742 -0.827289 1.94073e-19)
(1.9072 -0.884789 2.73564e-21)
(2.0742 -0.937852 1.50985e-19)
(0.163907 -0.0897212 -4.57193e-20)
(0.461699 -0.239471 -2.04392e-19)
(0.741429 -0.367619 -1.81262e-19)
(1.00451 -0.476977 -1.42303e-19)
(1.25162 -0.571021 1.81317e-19)
(1.48351 -0.652126 -5.70922e-20)
(1.70092 -0.721903 -4.31107e-21)
(1.90453 -0.781617 2.94329e-21)
(2.09455 -0.833357 -1.60427e-19)
(2.27025 -0.880344 -1.05969e-19)
(0.184658 -0.0833567 -1.14042e-19)
(0.515895 -0.221808 8.76359e-20)
(0.823293 -0.339431 1.79845e-19)
(1.10931 -0.439063 2.43311e-19)
(1.37561 -0.524071 -2.8503e-19)
(1.62371 -0.596776 -3.58078e-21)
(1.85494 -0.658765 4.24995e-19)
(2.07042 -0.711259 -1.85053e-19)
(2.27083 -0.756158 -1.2399e-19)
(2.45577 -0.796389 -5.35783e-20)
(0.20319 -0.0735003 1.73593e-19)
(0.564472 -0.1952 1.02986e-18)
(0.896793 -0.298075 1.43256e-19)
(1.20351 -0.384735 -5.03148e-19)
(1.48719 -0.458227 -1.75507e-19)
(1.75003 -0.520669 6.37704e-19)
(1.9939 -0.573524 -1.45386e-19)
(2.22036 -0.617898 -4.31606e-19)
(2.43047 -0.655441 -3.16634e-19)
(2.62419 -0.688738 2.61591e-19)
(0.218899 -0.0605915 1.16341e-19)
(0.605746 -0.160701 -7.47599e-19)
(0.959315 -0.245031 -1.08562e-18)
(1.28371 -0.315798 3.83792e-19)
(1.58223 -0.375564 4.49953e-19)
(1.85768 -0.426128 -9.02088e-22)
(2.11239 -0.468739 -6.397e-19)
(2.34829 -0.504324 2.19316e-19)
(2.56683 -0.534211 -3.6444e-19)
(2.76827 -0.560567 -3.11192e-19)
(0.231236 -0.0451724 -3.4249e-19)
(0.638201 -0.119684 -6.9261e-19)
(1.00849 -0.182294 1.21222e-18)
(1.34677 -0.2347 5.98707e-19)
(1.65694 -0.278853 -2.69762e-19)
(1.94225 -0.316135 -2.11499e-19)
(2.20543 -0.347515 0)
(2.44875 -0.373688 1.1681e-19)
(2.67398 -0.395621 -2.95844e-19)
(2.88172 -0.414968 -7.74419e-20)
(0.239767 -0.0278755 -2.04467e-19)
(0.660654 -0.0737559 5.62391e-19)
(1.04249 -0.112198 1.71012e-19)
(1.39031 -0.144289 -5.125e-19)
(1.70841 -0.171277 -7.84202e-19)
(2.00037 -0.194053 3.66205e-20)
(2.26924 -0.213245 1.67123e-19)
(2.51753 -0.229293 -5.46847e-19)
(2.74732 -0.242783 -2.89761e-19)
(2.95954 -0.254776 -5.6359e-19)
(0.24426 -0.00940243 4.51412e-19)
(0.672454 -0.024704 3.44154e-19)
(1.0603 -0.0373615 -9.38599e-20)
(1.41303 -0.0477883 -1.29811e-20)
(1.73514 -0.0564619 -3.8751e-19)
(2.03042 -0.0637227 -8.57322e-20)
(2.30206 -0.0698095 -2.9058e-19)
(2.55276 -0.0748896 6.46563e-19)
(2.78481 -0.0791702 1.71004e-19)
(2.99945 -0.0830109 2.22449e-21)
(-0.00234722 -0.0218043 -3.28119e-20)
(0.00864438 -0.0693348 -7.08854e-20)
(0.0249416 -0.120364 -7.30483e-21)
(0.0493622 -0.170971 -3.42001e-20)
(0.0777166 -0.216332 -1.27209e-20)
(0.106578 -0.254489 -3.89933e-19)
(0.135627 -0.288435 -1.93997e-20)
(0.166425 -0.321742 1.19924e-19)
(0.199255 -0.355238 1.09803e-20)
(0.233148 -0.387586 -3.59096e-20)
(0.000843078 -0.0247112 -9.77479e-20)
(0.0149577 -0.0850913 -2.11224e-19)
(0.0393441 -0.160195 -5.54702e-20)
(0.0692759 -0.225044 -1.10641e-19)
(0.0995267 -0.275335 -9.70624e-20)
(0.130528 -0.31778 -2.80454e-19)
(0.164564 -0.358761 2.00911e-19)
(0.202227 -0.400134 1.68275e-19)
(0.24173 -0.440024 -2.56059e-19)
(0.281249 -0.47639 8.1112e-20)
(0.00549247 -0.0315168 -8.54155e-20)
(0.0287818 -0.107431 -8.63521e-19)
(0.0628376 -0.196005 -1.28682e-19)
(0.0974479 -0.268829 9.41517e-20)
(0.131847 -0.327073 6.79442e-20)
(0.169708 -0.380125 -4.5235e-19)
(0.213006 -0.432115 3.59012e-20)
(0.259198 -0.481572 3.66899e-19)
(0.305556 -0.526014 -3.86029e-19)
(0.351518 -0.565397 -2.58328e-19)
(0.0113681 -0.0410074 -1.78718e-21)
(0.0466245 -0.130884 1.89302e-19)
(0.0896267 -0.225278 1.64059e-21)
(0.133073 -0.306957 -1.09273e-20)
(0.177808 -0.377781 -3.01883e-20)
(0.227272 -0.443737 8.77408e-20)
(0.281123 -0.505464 7.36681e-20)
(0.335701 -0.560706 -1.36296e-19)
(0.389777 -0.60917 9.21102e-21)
(0.443957 -0.651723 -1.04414e-20)
(0.0185098 -0.050785 0)
(0.0672372 -0.152433 5.44262e-21)
(0.121931 -0.253612 -5.08645e-19)
(0.178691 -0.345436 5.13442e-20)
(0.237813 -0.428519 -1.10368e-20)
(0.300523 -0.505003 6.7561e-21)
(0.365317 -0.57426 -2.56932e-20)
(0.42982 -0.635293 -7.7946e-21)
(0.493967 -0.688678 0)
(0.558166 -0.73467 -2.05884e-20)
(0.0273271 -0.0596579 3.17572e-20)
(0.0918949 -0.172861 -1.53861e-19)
(0.161762 -0.282516 -4.56697e-20)
(0.234626 -0.38387 -5.84535e-20)
(0.309734 -0.476718 4.96948e-20)
(0.386734 -0.561479 4.89326e-21)
(0.464239 -0.637621 9.08708e-20)
(0.540936 -0.704841 -2.17592e-20)
(0.616909 -0.76332 -6.96792e-19)
(0.692159 -0.812506 -1.01082e-20)
(0.0379763 -0.0676091 6.93565e-22)
(0.121238 -0.192183 5.59943e-20)
(0.209161 -0.310615 -7.86128e-20)
(0.299923 -0.420166 -1.67188e-20)
(0.392131 -0.520649 -7.29048e-20)
(0.48477 -0.612092 -9.89575e-21)
(0.576691 -0.69427 9.49624e-21)
(0.666929 -0.76707 -2.12191e-19)
(0.755511 -0.830172 3.83815e-19)
(0.842301 -0.88221 9.71929e-19)
(0.0503626 -0.0746036 1.51626e-20)
(0.15513 -0.209613 -1.42356e-19)
(0.263461 -0.335964 -2.1392e-19)
(0.373667 -0.452105 8.90671e-20)
(0.484097 -0.558252 -6.43277e-20)
(0.593535 -0.654592 9.90728e-20)
(0.700931 -0.741238 1.97295e-19)
(0.805392 -0.818245 -1.09439e-19)
(0.907001 -0.885042 -3.06115e-19)
(1.00567 -0.939442 7.25614e-19)
(0.064291 -0.0803613 -2.64611e-20)
(0.193286 -0.224028 -5.78158e-19)
(0.324296 -0.35656 5.24381e-19)
(0.455681 -0.477227 3.37554e-19)
(0.585733 -0.586736 -8.59455e-20)
(0.713216 -0.685643 3.08876e-19)
(0.837117 -0.774407 -1.59993e-19)
(0.956548 -0.85342 -7.73492e-19)
(1.07171 -0.921984 -4.03845e-19)
(1.18265 -0.977216 4.53844e-19)
(0.0795459 -0.084667 -7.98312e-20)
(0.235846 -0.234418 -5.4435e-19)
(0.392392 -0.370525 -8.24472e-21)
(0.54754 -0.492793 6.87936e-20)
(0.69959 -0.602457 3.37806e-19)
(0.847385 -0.700422 -1.85442e-19)
(0.990003 -0.787423 -1.69581e-19)
(1.12652 -0.8638 1.89111e-19)
(1.25679 -0.928612 -3.51737e-19)
(1.38005 -0.980308 -5.84751e-19)
(0.403073 -0.531603 9.8898e-19)
(0.685002 -0.6179 -2.53108e-19)
(0.913795 -0.557024 -1.45379e-19)
(1.08737 -0.430337 2.73547e-19)
(1.23928 -0.279301 -2.32839e-19)
(1.3607 -0.138376 -2.99044e-19)
(1.4559 -0.0318252 -2.62267e-19)
(1.511 0.0181467 -3.16922e-20)
(1.53129 0.0245681 3.55518e-20)
(1.54773 0.0161016 3.09705e-20)
(0.46904 -0.619482 9.68213e-19)
(0.741708 -0.693328 7.30547e-20)
(0.966467 -0.617026 1.09239e-20)
(1.12478 -0.479449 -2.20782e-19)
(1.265 -0.319427 -7.32346e-19)
(1.37915 -0.17057 0)
(1.47466 -0.055433 -2.4162e-19)
(1.54456 0.00464334 5.20813e-20)
(1.58078 0.0178742 4.45617e-21)
(1.60764 0.0128048 -2.34482e-20)
(0.556362 -0.705165 -9.98179e-19)
(0.811023 -0.766316 -7.11019e-20)
(1.02579 -0.674918 1.56896e-19)
(1.16633 -0.526424 -5.36056e-20)
(1.29099 -0.358327 -3.60282e-20)
(1.39549 -0.20249 6.47836e-20)
(1.48599 -0.0803368 0)
(1.55995 -0.0123214 0)
(1.60471 0.00557408 -3.89448e-20)
(1.65411 0.00588402 0)
(0.665807 -0.786947 -2.24671e-19)
(0.895818 -0.834912 4.02842e-19)
(1.09223 -0.72964 2.68503e-20)
(1.21271 -0.570297 0)
(1.31806 -0.395157 6.13561e-19)
(1.41068 -0.233176 -1.49981e-19)
(1.49395 -0.104919 0)
(1.56371 -0.0298713 1.36208e-19)
(1.6071 -0.00767336 0)
(1.665 -0.00335676 1.36989e-20)
(0.795797 -0.86367 -1.49039e-19)
(0.997798 -0.897127 4.53053e-19)
(1.16644 -0.780026 -1.46977e-20)
(1.2641 -0.610245 0)
(1.34683 -0.429141 1.79096e-19)
(1.42497 -0.26202 2.80186e-19)
(1.50017 -0.128139 4.8022e-20)
(1.56264 -0.0465479 6.80908e-21)
(1.60459 -0.0208146 -2.62754e-20)
(1.66201 -0.0117373 3.08828e-20)
(0.942262 -0.934575 -1.32876e-18)
(1.11659 -0.951602 -9.39434e-19)
(1.24905 -0.824797 4.78492e-21)
(1.32029 -0.645533 5.72047e-19)
(1.37766 -0.45951 -3.01148e-19)
(1.43833 -0.288579 1.4889e-19)
(1.50462 -0.149591 2.41242e-19)
(1.55986 -0.0624963 -1.88139e-19)
(1.60124 -0.0339551 -1.83529e-21)
(1.65961 -0.020085 2.80656e-20)
(1.10009 -0.999286 -2.5976e-19)
(1.25008 -0.998144 2.85877e-19)
(1.34033 -0.862827 3.9999e-21)
(1.381 -0.675455 -1.75093e-20)
(1.41066 -0.485471 -5.8237e-19)
(1.45071 -0.312339 5.42316e-20)
(1.50667 -0.169219 -9.44421e-20)
(1.55609 -0.0779561 -2.81319e-20)
(1.59782 -0.0467835 -1.12955e-21)
(1.65692 -0.0285828 -2.20645e-20)
(1.26429 -1.0567 -1.20124e-18)
(1.39477 -1.03736 2.09489e-19)
(1.43927 -0.89352 0)
(1.44529 -0.699564 3.42474e-20)
(1.4452 -0.506462 5.13397e-19)
(1.46177 -0.332772 -1.21346e-21)
(1.50543 -0.187111 -2.99371e-19)
(1.55086 -0.0930629 4.95321e-20)
(1.59497 -0.0582475 -4.05892e-23)
(1.63369 -0.0364399 2.54089e-21)
(1.43196 -1.10338 3.39106e-18)
(1.54804 -1.07016 2.46543e-19)
(1.54569 -0.917582 4.6306e-19)
(1.51342 -0.718277 -3.16804e-20)
(1.48142 -0.522593 -3.41935e-20)
(1.4714 -0.349707 -4.21481e-19)
(1.49934 -0.203482 8.33752e-20)
(1.54366 -0.106514 3.08821e-21)
(1.5755 -0.067585 -2.56497e-20)
(1.57863 -0.0397472 -1.3776e-21)
(1.5992 -1.12809 -2.99843e-18)
(1.70184 -1.0954 1.2728e-18)
(1.65402 -0.937658 -2.31837e-19)
(1.58151 -0.735081 -7.85493e-19)
(1.51631 -0.537441 -6.53264e-19)
(1.47719 -0.366792 -2.56036e-19)
(1.48705 -0.220529 -6.0379e-20)
(1.5228 -0.120627 0)
(1.51754 -0.0693269 -3.65877e-20)
(1.51323 -0.0394537 9.12365e-20)
(1.88814 -1.17013 -6.71415e-18)
(1.92736 -1.10496 -1.6928e-18)
(1.80492 -0.931893 -5.87694e-20)
(1.67317 -0.726984 1.12267e-19)
(1.56278 -0.532693 1.6334e-19)
(1.4848 -0.370277 -1.07714e-19)
(1.45975 -0.228981 -3.81826e-20)
(1.44443 -0.123049 6.2558e-20)
(1.43123 -0.0665801 -5.10768e-20)
(1.41985 -0.0383686 -4.16367e-20)
(2.28929 -1.13476 4.95497e-19)
(2.17883 -1.05653 -2.82332e-19)
(1.94289 -0.865031 5.10044e-19)
(1.73604 -0.664328 -8.85518e-20)
(1.56362 -0.47979 3.00111e-20)
(1.42926 -0.331364 -5.50907e-20)
(1.3524 -0.209768 9.85908e-20)
(1.32429 -0.113582 -3.23252e-20)
(1.30838 -0.0605741 1.88006e-19)
(1.29337 -0.0355776 8.41535e-20)
(2.61058 -1.04352 2.27091e-18)
(2.35207 -0.948662 3.25959e-19)
(2.00862 -0.759275 -1.18114e-19)
(1.73322 -0.572607 1.54159e-36)
(1.50697 -0.409917 -2.54621e-20)
(1.34126 -0.284799 1.50897e-33)
(1.24088 -0.18403 -1.75633e-20)
(1.19676 -0.102764 -1.58484e-33)
(1.1761 -0.0544622 6.83473e-21)
(1.15795 -0.0320574 -1.74823e-20)
(2.78709 -0.893922 3.88872e-33)
(2.36962 -0.795545 2.96647e-18)
(1.97396 -0.630331 1.81978e-18)
(1.65403 -0.469149 0)
(1.40769 -0.334371 8.39244e-19)
(1.23131 -0.232353 4.36834e-19)
(1.11816 -0.152368 1.63342e-19)
(1.0613 -0.0881637 -2.72506e-33)
(1.03605 -0.0470666 -6.178e-20)
(1.01535 -0.0277924 1.25041e-20)
(2.76371 -0.70586 3.84313e-18)
(2.24602 -0.629829 -1.46843e-19)
(1.84677 -0.490928 0)
(1.51587 -0.361571 0)
(1.27201 -0.255398 0)
(1.09836 -0.17754 0)
(0.983488 -0.11822 -1.24398e-20)
(0.919772 -0.0709056 -4.03169e-33)
(0.890331 -0.0385104 7.42878e-21)
(0.867541 -0.0229202 1.21395e-33)
(2.55121 -0.517021 3.26617e-18)
(2.02012 -0.462894 0)
(1.63868 -0.353604 0)
(1.32694 -0.256691 0)
(1.10136 -0.179548 0)
(0.942387 -0.124974 0)
(0.835151 -0.0844395 3.28225e-20)
(0.771222 -0.0523756 -8.15489e-20)
(0.739656 -0.0290576 8.2377e-21)
(0.715749 -0.0176128 3.94004e-20)
(2.19013 -0.342706 0)
(1.70266 -0.303505 1.09871e-18)
(1.36135 -0.227592 1.09094e-18)
(1.09141 -0.161979 0)
(0.898618 -0.112267 6.68958e-19)
(0.764407 -0.0783678 4.08159e-19)
(0.672634 -0.0537425 2.51412e-19)
(0.614829 -0.0344433 7.79438e-20)
(0.584216 -0.0194751 -1.29339e-20)
(0.560854 -0.0122012 -5.58537e-21)
(1.70286 -0.191134 -6.73857e-19)
(1.3002 -0.165591 -2.7414e-19)
(1.02509 -0.12175 1.75617e-19)
(0.81513 -0.084438 -2.11484e-34)
(0.66781 -0.0580533 -7.69786e-20)
(0.566407 -0.0408647 3.72385e-33)
(0.496238 -0.0285427 4.91066e-20)
(0.450022 -0.0189625 9.8092e-20)
(0.423941 -0.0108374 9.58115e-21)
(0.403444 -0.0071655 -4.45714e-21)
(1.10089 -0.0758205 3.40798e-18)
(0.823166 -0.0626777 -1.86474e-19)
(0.640599 -0.0442908 -5.88698e-19)
(0.506166 -0.0289908 0)
(0.413861 -0.0195599 -6.40058e-19)
(0.350774 -0.0140549 -4.3229e-19)
(0.306495 -0.0101787 -2.01497e-19)
(0.276226 -0.00721561 -1.36906e-19)
(0.258218 -0.00421398 1.52821e-19)
(0.243614 -0.00305475 -2.04328e-20)
(0.397352 -0.00331877 0)
(0.287868 0.00159377 0)
(0.220896 0.00409409 0)
(0.173555 0.00624487 0)
(0.142382 0.00584877 0)
(0.121238 0.00470277 0)
(0.105996 0.00363117 5.64543e-20)
(0.0950635 0.00247284 -2.16086e-34)
(0.0881124 0.00191862 1.21338e-20)
(0.0821128 0.000762152 1.16984e-20)
(3.36711 -0.0863106 5.39205e-19)
(3.32642 -0.265084 -8.41889e-20)
(3.24735 -0.430653 8.52083e-19)
(3.13238 -0.582153 -6.04788e-19)
(2.98634 -0.718118 6.66369e-19)
(2.81523 -0.836371 2.75175e-19)
(2.62659 -0.934043 -1.92774e-18)
(2.42949 -1.00782 -7.73796e-20)
(2.22466 -1.05365 0)
(1.98483 -1.06651 4.26306e-19)
(3.86191 -0.0750578 7.07362e-18)
(3.79859 -0.23421 1.95636e-18)
(3.70428 -0.387306 -4.86719e-18)
(3.58425 -0.531985 -4.49053e-19)
(3.44238 -0.665884 3.5587e-18)
(3.28185 -0.787306 1.92329e-18)
(3.10649 -0.895048 -5.16819e-18)
(2.92203 -0.987674 -1.95198e-18)
(2.72757 -1.06335 2.20296e-18)
(2.49234 -1.12046 8.52133e-19)
(3.83309 -0.0532989 -1.26248e-19)
(3.82025 -0.171563 4.40369e-18)
(3.78547 -0.299758 -1.08832e-18)
(3.72435 -0.430914 -3.44615e-18)
(3.63619 -0.558724 -6.80033e-18)
(3.52372 -0.678792 1.02786e-17)
(3.39118 -0.788777 4.18058e-18)
(3.2435 -0.887962 -3.91165e-18)
(3.08161 -0.978684 -2.90263e-18)
(2.88722 -1.06295 -3.42481e-18)
(3.62867 -0.0472838 -4.83943e-18)
(3.61961 -0.144929 -4.3535e-18)
(3.59964 -0.243738 5.47228e-18)
(3.56736 -0.34309 1.91195e-18)
(3.52242 -0.442372 -8.97169e-18)
(3.46418 -0.540799 4.92238e-19)
(3.39185 -0.637034 3.88656e-18)
(3.30515 -0.730415 -1.05404e-18)
(3.20502 -0.823044 1.27689e-18)
(3.08309 -0.914747 2.81754e-19)
(3.34405 -0.0365765 -9.15998e-19)
(3.339 -0.111654 3.00412e-18)
(3.32711 -0.188675 1.61958e-18)
(3.30745 -0.267171 -1.8942e-18)
(3.27987 -0.346069 -2.0014e-18)
(3.24466 -0.424134 -2.43418e-18)
(3.20205 -0.50033 3.79703e-19)
(3.15178 -0.574485 1.38967e-19)
(3.09551 -0.647745 -2.13986e-18)
(3.0329 -0.721286 -2.03455e-18)
(2.96257 -0.026553 -1.8225e-18)
(2.95981 -0.0798878 -5.87241e-20)
(2.95331 -0.134598 -1.63754e-18)
(2.9424 -0.190902 3.12135e-19)
(2.92676 -0.24855 5.36785e-18)
(2.9063 -0.306929 -3.66766e-19)
(2.88092 -0.365114 4.43419e-20)
(2.85024 -0.422057 -2.60863e-18)
(2.81645 -0.476878 -3.49577e-18)
(2.78602 -0.529857 3.72738e-19)
(2.48713 -0.0175097 -2.89317e-20)
(2.48578 -0.051934 -8.14318e-19)
(2.48259 -0.0872477 -2.61486e-18)
(2.47708 -0.123771 -3.43103e-18)
(2.4688 -0.161533 2.49656e-18)
(2.45745 -0.200267 1.50225e-18)
(2.44262 -0.239353 -1.38507e-18)
(2.4237 -0.27779 1.62449e-18)
(2.40275 -0.314481 -4.29732e-19)
(2.38954 -0.349538 -9.63785e-19)
(1.91464 -0.00968772 7.72462e-19)
(1.91408 -0.0282972 -8.31802e-19)
(1.91278 -0.0474394 -3.27687e-20)
(1.91031 -0.0673589 -3.47253e-20)
(1.90624 -0.08813 -7.27422e-20)
(1.90013 -0.109614 -2.33195e-18)
(1.89151 -0.131404 -6.78677e-19)
(1.87978 -0.152782 2.6261e-18)
(1.86664 -0.172974 -6.03499e-19)
(1.86192 -0.192205 -1.35112e-18)
(1.23988 -0.00373735 -1.64282e-18)
(1.23967 -0.0106955 -8.48913e-19)
(1.23923 -0.0179011 2.33921e-18)
(1.23823 -0.0254786 -8.89777e-19)
(1.23625 -0.0334753 -6.74126e-19)
(1.2329 -0.0418316 1.35203e-18)
(1.22775 -0.0503499 -1.29589e-18)
(1.22038 -0.0586653 1.28699e-18)
(1.21202 -0.0663421 -1.21031e-18)
(1.21008 -0.0735076 -4.24822e-18)
(0.454916 -0.000257953 6.63083e-19)
(0.454827 -0.000700518 7.03056e-19)
(0.454692 -0.00115911 7.48184e-19)
(0.454325 -0.00164006 1.35397e-18)
(0.453495 -0.00214019 -6.71987e-19)
(0.451983 -0.0026372 -1.29962e-18)
(0.449567 -0.00309912 6.14714e-19)
(0.445992 -0.00359294 2.48369e-20)
(0.441736 -0.00439222 -4.96527e-20)
(0.44035 -0.00504562 1.1057e-19)
(1.65352 0.9972 -2.85712e-19)
(1.51224 0.941801 1.80002e-20)
(1.35877 0.880703 -2.2842e-19)
(1.19766 0.808408 1.76378e-19)
(1.02956 0.723958 -1.9212e-19)
(0.854819 0.627065 -1.01127e-19)
(0.673758 0.516936 2.32001e-19)
(0.487036 0.392145 -3.04963e-19)
(0.295892 0.250644 3.09879e-19)
(0.101431 0.0916446 2.38747e-19)
(1.88636 0.992139 0)
(1.72966 0.9347 6.39088e-19)
(1.56082 0.87274 3.32194e-19)
(1.38227 0.801834 1.62884e-19)
(1.19453 0.719866 4.31443e-19)
(0.997531 0.625892 -8.68639e-20)
(0.79136 0.5186 -7.85534e-20)
(0.576348 0.39599 8.88044e-20)
(0.35332 0.255176 -1.0452e-18)
(0.122699 0.094356 -1.66261e-20)
(2.09102 0.959002 1.56805e-19)
(1.92522 0.905042 0)
(1.74613 0.846444 -1.00744e-19)
(1.55493 0.779538 -3.83498e-19)
(1.3517 0.702076 5.37111e-20)
(1.13609 0.612787 3.97174e-19)
(0.907784 0.510089 -6.0692e-19)
(0.666592 0.391639 -2.00878e-19)
(0.412598 0.254046 7.836e-19)
(0.145252 0.0947359 -1.75955e-19)
(2.28483 0.898331 1.88079e-19)
(2.11043 0.850544 1.20193e-20)
(1.92129 0.79785 2.44959e-20)
(1.71811 0.736994 3.6106e-20)
(1.50058 0.665852 -2.92499e-20)
(1.26793 0.583131 2.7328e-19)
(1.01927 0.487169 -2.06883e-19)
(0.753677 0.375532 -8.55599e-19)
(0.470273 0.244679 0)
(0.167389 0.0916971 0)
(2.46795 0.811804 -1.07067e-18)
(2.28435 0.770826 -6.09005e-19)
(2.08493 0.725055 -1.2065e-19)
(1.87003 0.671519 -6.65739e-20)
(1.63891 0.608294 0)
(1.39031 0.534137 2.40759e-19)
(1.12275 0.447435 2.67786e-19)
(0.834558 0.345836 2.86251e-19)
(0.523842 0.225954 -4.23759e-19)
(0.187909 0.0848985 -8.12374e-20)
(2.634 0.702085 7.66269e-19)
(2.44156 0.668058 -1.39175e-19)
(2.23244 0.629676 -2.21547e-19)
(2.00665 0.584304 0)
(1.76301 0.530279 0)
(1.49988 0.466488 0)
(1.21523 0.391465 -3.89817e-20)
(0.906688 0.303091 3.70277e-19)
(0.571501 0.198349 3.79143e-19)
(0.206084 0.0746246 -3.08571e-19)
(2.7758 0.572351 -1.19346e-18)
(2.57551 0.545257 -1.48127e-18)
(2.35787 0.514528 -3.0322e-22)
(2.12261 0.477946 -1.87668e-19)
(1.86818 0.434182 -9.28813e-20)
(1.59258 0.382319 -1.78847e-19)
(1.29333 0.321126 4.591e-19)
(0.967492 0.248838 2.14862e-19)
(0.611586 0.162967 5.40034e-19)
(0.221315 0.0613405 2.02856e-19)
(2.88707 0.425746 -1.15705e-18)
(2.68027 0.405632 8.47063e-20)
(2.45576 0.38282 1.64524e-19)
(2.21297 0.355612 1.68195e-20)
(1.95004 0.323052 -3.1441e-19)
(1.66466 0.284469 -1.74216e-19)
(1.35398 0.238938 -6.21217e-19)
(1.01464 0.185141 1.1853e-19)
(0.642607 0.121237 5.14772e-20)
(0.233067 0.0456129 -6.26884e-21)
(2.9628 0.265186 1.01355e-19)
(2.75121 0.252354 3.97009e-19)
(2.5219 0.237905 -3.30294e-19)
(2.27394 0.220741 3.63022e-19)
(2.00524 0.200298 3.72552e-19)
(1.71323 0.176177 4.91901e-19)
(1.39481 0.14781 -6.35745e-19)
(1.04633 0.11439 -3.24418e-19)
(0.663414 0.07481 -4.58504e-20)
(0.240917 0.0280952 -3.26998e-19)
(3.00053 0.0935778 5.8181e-19)
(2.78613 0.0887864 -1.86154e-19)
(2.55426 0.0834448 4.79566e-19)
(2.30367 0.0771509 -3.10674e-19)
(2.03208 0.0697286 2.66479e-19)
(1.73679 0.0610625 6.05417e-19)
(1.41457 0.0509789 3.78888e-19)
(1.06162 0.0392349 3.09347e-19)
(0.673398 0.0255067 2.65863e-19)
(0.244655 0.00950727 5.43619e-19)
(0.239441 0.451746 -4.68707e-19)
(0.203858 0.41804 -1.86827e-19)
(0.168317 0.380988 1.38952e-19)
(0.134818 0.343363 -4.19515e-19)
(0.105105 0.307265 -1.19605e-19)
(0.0782076 0.270014 6.92457e-19)
(0.0518266 0.223605 3.35893e-19)
(0.0259216 0.158798 -1.56537e-19)
(0.00704861 0.0796318 1.1404e-19)
(-0.00113066 0.0224307 -6.06645e-20)
(0.288591 0.543991 4.10892e-19)
(0.24869 0.507208 4.57601e-19)
(0.208145 0.465176 -1.19425e-20)
(0.167832 0.418186 -1.32341e-19)
(0.131129 0.37011 -3.12084e-19)
(0.100603 0.322551 8.27674e-20)
(0.0734638 0.269247 2.2445e-19)
(0.0458691 0.196817 1.6495e-19)
(0.0183204 0.101798 -5.89998e-19)
(0.00277964 0.0288429 -1.23484e-19)
(0.359685 0.632804 -6.00278e-19)
(0.313814 0.592674 -4.80964e-19)
(0.268007 0.546853 2.57049e-19)
(0.221356 0.493568 1.37752e-19)
(0.175812 0.433848 -5.80234e-21)
(0.136277 0.371688 -1.39657e-19)
(0.102121 0.305466 -2.90763e-20)
(0.0684304 0.224784 -5.55497e-19)
(0.0336533 0.125936 -2.69462e-19)
(0.0076278 0.0377599 -3.90821e-20)
(0.454271 0.717568 5.02856e-19)
(0.400106 0.673397 1.64712e-19)
(0.346402 0.622411 -1.49151e-19)
(0.292252 0.563394 6.33864e-20)
(0.23776 0.495332 -5.06824e-22)
(0.186591 0.420697 1.40654e-21)
(0.140105 0.340525 -1.31847e-19)
(0.0954571 0.250157 3.79062e-19)
(0.0514243 0.147669 -4.19486e-19)
(0.0135715 0.0476794 -6.52477e-20)
(0.572045 0.797579 -2.8212e-19)
(0.507893 0.74951 -8.89185e-20)
(0.443606 0.692694 -1.4314e-20)
(0.378987 0.627007 -6.97869e-20)
(0.313729 0.551784 5.82949e-20)
(0.249664 0.467922 5.23138e-20)
(0.188378 0.376607 -2.77788e-20)
(0.12932 0.276577 -2.82436e-19)
(0.0725188 0.167592 2.1848e-19)
(0.0209107 0.0568196 8.73277e-20)
(0.709427 0.870714 6.43544e-19)
(0.634377 0.819356 3.21198e-19)
(0.558138 0.757221 2.0382e-19)
(0.48086 0.685191 4.81884e-20)
(0.402414 0.603388 1.54452e-19)
(0.323868 0.512253 7.79899e-20)
(0.246463 0.412438 1.42904e-19)
(0.17086 0.303858 5.79061e-20)
(0.0980472 0.186767 -1.61185e-20)
(0.0299919 0.0650192 -1.34399e-20)
(0.862008 0.934682 -1.19738e-19)
(0.77553 0.880508 -8.26023e-19)
(0.686693 0.813911 -7.71925e-20)
(0.595716 0.736697 -5.0815e-20)
(0.502554 0.649524 -1.92001e-20)
(0.408118 0.552635 1.51178e-19)
(0.313472 0.446257 -4.38394e-20)
(0.219705 0.330378 6.50718e-20)
(0.128289 0.205061 -1.44612e-19)
(0.0409012 0.0724885 -1.22938e-21)
(1.0267 0.98589 -8.85175e-19)
(0.928445 0.929513 5.94222e-20)
(0.826637 0.859602 -2.33236e-19)
(0.721447 0.778802 -7.2809e-20)
(0.612756 0.687942 -2.44929e-20)
(0.501448 0.58702 -7.51433e-20)
(0.38852 0.475861 5.63298e-20)
(0.275159 0.354176 6.03307e-20)
(0.16298 0.221549 -9.82231e-21)
(0.053543 0.0791188 -1.03833e-19)
(1.20386 1.01783 1.23836e-19)
(1.09347 0.960852 5.23527e-19)
(0.978231 0.889647 1.55673e-21)
(0.858206 0.807498 -2.98869e-20)
(0.733133 0.715259 1.51105e-19)
(0.603883 0.612521 -3.47568e-19)
(0.471398 0.498732 -2.44484e-19)
(0.336828 0.373199 3.56173e-19)
(0.201771 0.235004 1.44212e-19)
(0.0677021 0.0845324 -3.62575e-20)
(1.40055 1.01539 7.40116e-19)
(1.27803 0.962282 3.23908e-19)
(1.14781 0.895316 5.5857e-20)
(1.01086 0.816367 -1.95251e-19)
(0.867261 0.726497 -1.64691e-20)
(0.717895 0.625321 4.65738e-19)
(0.563581 0.511995 -2.68288e-19)
(0.40534 0.385471 -1.84506e-19)
(0.244705 0.244319 3.35826e-19)
(0.0831146 0.0884415 -6.0643e-21)
(0.97556 0.0977344 8.80516e-21)
(1.14547 0.141798 1.46182e-22)
(1.21288 0.190178 -2.29513e-20)
(1.32374 0.17126 0)
(1.37263 0.156227 2.40529e-21)
(1.27628 0.235272 -4.62069e-20)
(1.12762 0.385909 -5.54312e-20)
(0.948394 0.543354 -1.78032e-20)
(0.71117 0.648031 -2.98123e-19)
(0.416341 0.595209 4.36397e-19)
(0.980085 0.0784983 1.92169e-19)
(1.13792 0.114356 -2.93675e-20)
(1.20846 0.160125 1.92274e-21)
(1.31506 0.153523 1.24678e-20)
(1.37406 0.15836 3.75718e-21)
(1.2959 0.269439 -3.84708e-21)
(1.15769 0.435808 2.68001e-20)
(0.993233 0.606234 0)
(0.761256 0.726979 7.8182e-19)
(0.479338 0.68636 -5.60285e-19)
(0.983938 0.059544 -1.12863e-19)
(1.1346 0.0879788 7.18013e-21)
(1.20721 0.130923 7.72239e-20)
(1.31239 0.13459 1.92978e-20)
(1.3768 0.159571 -2.23245e-20)
(1.31594 0.301284 -3.51521e-20)
(1.19107 0.484128 1.44051e-21)
(1.04363 0.667533 4.42323e-20)
(0.823047 0.803368 -1.20349e-21)
(0.564524 0.774116 -3.87067e-19)
(0.987033 0.0404542 -8.18585e-20)
(1.13506 0.0621466 1.5602e-20)
(1.2097 0.102389 7.49469e-20)
(1.31576 0.11533 2.94623e-20)
(1.38274 0.160255 -2.31649e-20)
(1.33641 0.330923 -2.44763e-20)
(1.22803 0.530222 5.86199e-20)
(1.10004 0.726151 2.67371e-20)
(0.89999 0.874952 -5.39188e-19)
(0.673795 0.856524 -1.78366e-19)
(0.989577 0.0209651 3.69862e-20)
(1.13868 0.0363389 -4.78524e-20)
(1.21562 0.0744213 -6.71477e-20)
(1.32378 0.0962642 2.11992e-20)
(1.3907 0.16145 0)
(1.35694 0.358888 0)
(1.26854 0.573486 6.80191e-20)
(1.16355 0.780725 -2.81662e-20)
(0.994828 0.939256 -1.17514e-19)
(0.805195 0.931938 -5.74195e-20)
(0.991875 0.000974437 3.33601e-21)
(1.14483 0.0101634 5.71919e-20)
(1.22413 0.0469482 -2.05595e-19)
(1.33483 0.078004 -7.49502e-20)
(1.39935 0.163918 -5.03832e-21)
(1.37739 0.385381 1.14209e-19)
(1.31277 0.613099 1.46241e-19)
(1.2357 0.829543 -1.80324e-20)
(1.10798 0.994478 -4.20792e-20)
(0.95381 0.999703 2.09901e-21)
(0.993412 -0.0199442 5.03646e-22)
(1.15278 -0.0166895 2.80051e-20)
(1.23428 0.0199975 -6.47866e-20)
(1.34761 0.0611406 -1.49222e-19)
(1.40772 0.167883 1.21055e-20)
(1.39799 0.410109 7.52473e-21)
(1.36127 0.647969 -5.90579e-20)
(1.31758 0.870948 -1.13284e-19)
(1.23743 1.04032 -2.88083e-20)
(1.11388 1.05995 -9.80893e-19)
(0.992732 -0.0419097 1.47089e-20)
(1.16191 -0.0444842 -1.37844e-19)
(1.24522 -0.00626932 1.30533e-19)
(1.36097 0.0464664 9.94821e-20)
(1.4146 0.173827 5.10698e-21)
(1.41864 0.432668 -1.2524e-19)
(1.41391 0.67708 -2.142e-21)
(1.40857 0.903991 -1.20631e-19)
(1.37942 1.07763 1.11157e-20)
(1.27984 1.1121 2.8839e-18)
(0.988922 -0.0641532 -8.55661e-20)
(1.17192 -0.0733306 7.76814e-20)
(1.25635 -0.0317248 1.87768e-19)
(1.37423 0.0340956 -1.12094e-19)
(1.42046 0.181519 -2.13561e-19)
(1.44086 0.4528 9.25521e-21)
(1.472 0.700296 1.64457e-19)
(1.50867 0.929352 -5.61017e-19)
(1.5309 1.10768 -2.68279e-20)
(1.4483 1.15314 -6.47381e-18)
(0.982688 -0.0870318 4.13721e-21)
(1.18304 -0.103186 1.37107e-19)
(1.26731 -0.0561949 5.99182e-20)
(1.38607 0.0262443 -2.72085e-19)
(1.42304 0.194955 -2.34258e-19)
(1.46221 0.474111 -6.77758e-20)
(1.53123 0.721372 7.16615e-20)
(1.61174 0.950364 -2.19299e-19)
(1.68375 1.13011 -1.08808e-18)
(1.61557 1.17216 -7.95212e-18)
(0.973574 -0.118147 -1.45047e-20)
(1.19643 -0.142844 -3.14316e-20)
(1.27724 -0.0895265 -7.4095e-20)
(1.39748 0.0109441 1.29357e-19)
(1.42693 0.193556 1.94686e-19)
(1.49235 0.469881 -5.71516e-20)
(1.61201 0.710913 -1.40024e-19)
(1.75389 0.939548 -1.20812e-18)
(1.90278 1.13214 -1.60043e-18)
(1.89928 1.20851 3.28678e-18)
(0.961812 -0.156687 -4.07869e-19)
(1.2137 -0.192367 1.38043e-20)
(1.28101 -0.135818 -5.55774e-20)
(1.3986 -0.0108312 3.13086e-19)
(1.40833 0.171831 3.39114e-19)
(1.49478 0.425905 -1.79194e-20)
(1.66851 0.646842 -7.03934e-20)
(1.88085 0.865201 -3.03356e-19)
(2.13955 1.071 2.71417e-19)
(2.28446 1.16063 -3.2324e-19)
(0.949431 -0.1969 -2.78604e-20)
(1.23799 -0.242303 -5.45785e-20)
(1.27951 -0.17994 3.03274e-20)
(1.39426 -0.0300908 2.71826e-20)
(1.38419 0.16015 1.7367e-33)
(1.47242 0.369527 2.513e-21)
(1.6815 0.560623 -2.0587e-33)
(1.94949 0.759096 1.85659e-19)
(2.30208 0.95614 -9.31382e-19)
(2.58732 1.05829 -6.2933e-19)
(0.937125 -0.243262 1.41549e-18)
(1.26885 -0.282259 -7.7234e-34)
(1.25039 -0.226548 -3.98334e-20)
(1.27432 -0.0350507 -2.27159e-19)
(1.26667 0.143212 -4.49387e-19)
(1.39106 0.301191 -8.93185e-19)
(1.62018 0.459432 -5.0847e-33)
(1.92979 0.630701 -1.73873e-18)
(2.32608 0.801896 -3.17667e-18)
(2.75382 0.902477 1.67548e-18)
(0.927304 -0.300532 0)
(1.31488 -0.326879 -1.63281e-33)
(1.11344 -0.206238 0)
(1.10979 -0.0287208 0)
(1.12196 0.114566 0)
(1.25962 0.232121 0)
(1.49036 0.355003 -8.10835e-33)
(1.81544 0.491281 0)
(2.2137 0.634136 -3.3984e-19)
(2.73511 0.711935 1.25775e-18)
(0.916446 -0.360756 1.16087e-19)
(1.25205 -0.326268 -4.6877e-19)
(0.960408 -0.173507 -5.48676e-20)
(0.935836 -0.0253239 0)
(0.95815 0.0825006 0)
(1.09084 0.165042 6.0765e-20)
(1.30686 0.253626 1.18146e-18)
(1.61623 0.354516 -1.95071e-19)
(1.99686 0.466122 -4.95303e-19)
(2.53253 0.520435 4.67269e-18)
(0.88345 -0.40531 -1.52015e-17)
(1.09217 -0.279846 1.08729e-18)
(0.792914 -0.130164 -7.26932e-20)
(0.748245 -0.0208148 -7.81312e-20)
(0.774221 0.0525154 -5.10035e-19)
(0.890105 0.104278 -7.72123e-19)
(1.07669 0.161092 -1.04992e-18)
(1.34621 0.22892 -1.38446e-18)
(1.6877 0.306079 -1.6069e-18)
(2.17996 0.34443 3.61391e-18)
(0.808987 -0.394517 -4.13621e-19)
(0.886542 -0.20757 -1.21641e-18)
(0.605659 -0.082702 -1.25774e-19)
(0.550434 -0.015188 -8.40264e-20)
(0.572721 0.0276462 -9.77542e-34)
(0.662004 0.0544237 9.41641e-20)
(0.805701 0.0844769 -1.4875e-32)
(1.0163 0.122888 -1.93429e-19)
(1.29251 0.167291 2.98885e-19)
(1.6993 0.192066 7.05716e-19)
(0.664243 -0.288846 3.42553e-17)
(0.618272 -0.108083 -3.14036e-18)
(0.393416 -0.0350638 -2.40915e-19)
(0.339763 -0.00734322 -1.55154e-19)
(0.354228 0.00928888 3.92713e-19)
(0.410721 0.01832 7.83335e-19)
(0.501342 0.0291457 7.94729e-19)
(0.636774 0.0448656 4.59798e-19)
(0.820766 0.0634505 -1.90279e-19)
(1.10156 0.0762243 3.5691e-18)
(0.336833 -0.0768254 5.58797e-19)
(0.261855 -0.00230564 -6.76615e-33)
(0.144397 0.0190675 -3.05125e-19)
(0.120507 0.00333237 0)
(0.123758 -0.00233113 0)
(0.141948 -0.00540183 9.66824e-20)
(0.172427 -0.00623961 9.31187e-35)
(0.220309 -0.00417176 -1.23577e-19)
(0.28813 -0.00161797 -2.82547e-19)
(0.399006 0.00331861 1.00149e-18)
(2.00201 1.09633 -1.78955e-18)
(2.23903 1.07839 -2.30489e-18)
(2.44205 1.02906 0)
(2.63706 0.952472 -7.5825e-19)
(2.82357 0.852489 -1.78324e-18)
(2.99276 0.732379 -2.24948e-18)
(3.13709 0.595035 -4.76332e-19)
(3.25055 0.442695 1.26929e-18)
(3.32825 0.276964 -3.5479e-18)
(3.36764 0.0986987 1.35669e-18)
(2.49862 1.14187 2.67587e-19)
(2.73052 1.08184 1.39714e-18)
(2.92384 1.00414 1.43885e-19)
(3.10671 0.909763 6.75697e-19)
(3.28058 0.800635 -1.10391e-18)
(3.43996 0.678309 -5.0001e-18)
(3.58096 0.544003 2.46775e-18)
(3.70047 0.399315 1.2703e-17)
(3.79428 0.246321 1.04061e-19)