# Selection   : all
# Cells       : 440
# Volume      : 7.374263e+01
# Time        	minMag(U)
2.9           	3.163152e-02
2.95          	3.013144e-02
3             	2.863207e-02
