/*--------------------------------*- C++ -*----------------------------------*\
  =========                 |
  \\      /  F ield         | OpenFOAM: The Open Source CFD Toolbox
   \\    /   O peration     | Website:  https://openfoam.org
    \\  /    A nd           | Version:  13
     \\/     M anipulation  |
\*---------------------------------------------------------------------------*/
FoamFile
{
    format      ascii;
    class       surfaceScalarField;
    location    "0.3";
    object      phi;
}
// * * * * * * * * * * * * * * * * * * * * * * * * * * * * * * * * * * * * * //

dimensions      [0 3 -1 0 0 0 0];

internalField   nonuniform List<scalar> 
3485
(
0.00137158
-0.0112585
0.00988693
0.00505101
-0.0319077
0.0282282
0.0107642
-0.0513836
0.0456705
0.018313
-0.069677
0.0621282
0.0275467
-0.0868341
0.0776003
0.0383512
-0.102899
0.092094
0.0506381
-0.117901
0.105615
0.0643642
-0.131863
0.118137
0.0796273
-0.14485
0.129587
-0.15688
0.139485
0.097023
0.00150029
-0.0127588
0.00544577
-0.0358531
0.0114763
-0.0574141
0.019324
-0.0775248
0.028774
-0.0962841
0.0396491
-0.113774
0.051805
-0.130057
0.0651341
-0.145192
0.079545
-0.159261
-0.172187
0.0948518
0.00147415
-0.014233
0.00532697
-0.039706
0.0111746
-0.0632618
0.0187213
-0.0850714
0.0277264
-0.105289
0.0379905
-0.124038
0.0493479
-0.141415
0.0616591
-0.157504
0.0747922
-0.172394
-0.186031
0.0886357
0.00133885
-0.0155718
0.00485906
-0.0432262
0.010211
-0.0686138
0.0171176
-0.091978
0.0253549
-0.113526
0.0347422
-0.133425
0.0451334
-0.151806
0.0564086
-0.168779
0.0684612
-0.184447
-0.198787
0.0812179
0.00116694
-0.0167387
0.00425608
-0.0463153
0.00897344
-0.0733311
0.0150824
-0.0980869
0.0223929
-0.120837
0.0307544
-0.141786
0.0400492
-0.161101
0.0501847
-0.178914
0.0610833
-0.195346
-0.210401
0.0726973
0.000980054
-0.0177188
0.0035881
-0.0489234
0.007587
-0.07733
0.0127847
-0.103285
0.0190274
-0.12708
0.0261945
-0.148954
0.0341944
-0.169101
0.0429575
-0.187677
0.0524289
-0.204817
-0.22055
0.0625777
0.000780771
-0.0184996
0.0028652
-0.0510078
0.00606943
-0.0805342
0.0102437
-0.107459
0.0152679
-0.132104
0.0210487
-0.154734
0.027517
-0.175569
0.0346242
-0.194785
0.0423361
-0.212529
-0.228853
0.0506391
0.000569758
-0.0190693
0.00209368
-0.0525317
0.00443835
-0.0828789
0.00749351
-0.110514
0.01117
-0.13578
0.0153987
-0.158963
0.02013
-0.1803
0.0253328
-0.199987
0.0309907
-0.218187
-0.234971
0.0371083
0.000352567
-0.0194219
0.00129598
-0.0534751
0.00274548
-0.0843284
0.00462911
-0.112398
0.00688763
-0.138039
0.00947468
-0.16155
0.0123574
-0.183183
0.0155169
-0.203147
0.018948
-0.221618
-0.238688
0.0226654
0.000137856
-0.0195598
0.000502672
-0.0538399
0.00105738
-0.0848831
0.00177021
-0.11311
0.00261465
-0.138883
0.00356961
-0.162505
0.00461959
-0.184233
0.00575506
-0.204282
0.00697258
-0.222836
0.0082772
-0.239993
0.000504951
-0.00188011
0.00137516
0.00212457
-0.00625044
0.00463082
0.00545749
-0.0113443
0.0080114
0.0101391
-0.0160867
0.0114052
0.0155719
-0.0200833
0.0146505
0.0214818
-0.023488
0.017578
0.0279538
-0.0266673
0.0201953
0.0351353
-0.0298516
0.0226701
0.0430161
-0.033001
0.0251202
-0.0359664
0.0514656
0.0275168
0.000424995
-0.00230511
0.00211208
-0.00793753
0.00545373
-0.014686
0.00985935
-0.0204924
0.01496
-0.025184
0.0208546
-0.0293825
0.0277165
-0.0335293
0.0355015
-0.0376366
0.044003
-0.0415025
-0.0450193
0.0530559
0.000679918
-0.00298502
0.00271265
-0.00997026
0.00580161
-0.0177749
0.00981529
-0.0245061
0.0148938
-0.0302625
0.0212087
-0.0356975
0.0286964
-0.041017
0.0370821
-0.0460223
0.0461466
-0.050567
-0.0546695
0.0557968
0.000866996
-0.00385202
0.00306102
-0.0121643
0.00609846
-0.0208124
0.0102423
-0.0286499
0.0157593
-0.0357795
0.022635
-0.0425732
0.0306302
-0.0490122
0.0395078
-0.0548998
0.0491703
-0.0602295
-0.065035
0.0595358
0.000921869
-0.00477389
0.00320128
-0.0144437
0.00653127
-0.0241424
0.0111435
-0.0332621
0.0171758
-0.0418118
0.0245047
-0.0499021
0.0329387
-0.0574462
0.0423784
-0.0643395
0.0527598
-0.0706109
-0.0762261
0.0639509
0.000942992
-0.00571688
0.00337301
-0.0168737
0.00709762
-0.027867
0.0121888
-0.0383533
0.0186565
-0.0482796
0.0263904
-0.0576359
0.0352929
-0.0663487
0.0453158
-0.0743623
0.0563798
-0.081675
-0.0881736
0.0683274
0.000979374
-0.00669626
0.00358382
-0.0194782
0.00764362
-0.0319268
0.0131134
-0.043823
0.0199373
-0.0551035
0.0280294
-0.065728
0.0373275
-0.0756469
0.047785
-0.0848198
0.0593284
-0.0932185
-0.100658
0.0718127
0.00101758
-0.00771384
0.00376719
-0.0222278
0.0080713
-0.0362309
0.0138217
-0.0495734
0.020924
-0.0622058
0.0292895
-0.0740935
0.0388489
-0.0852062
0.0495452
-0.0955162
0.0613195
-0.104993
-0.11341
0.0740714
0.00105431
-0.00876815
0.0039361
-0.0251096
0.00846044
-0.0407552
0.0144822
-0.0555951
0.0218753
-0.0695989
0.0305296
-0.0827478
0.0403501
-0.0950267
0.0512479
-0.106414
0.063142
-0.116887
-0.126295
0.0760274
0.00111878
0.00423745
0.0091527
0.0156858
0.0236873
0.0330334
0.0436214
0.0553445
0.0680448
0.0812342
0.114308
-0.413023
0.350181
0.167905
-0.469274
0.415677
0.209495
-0.418008
0.376418
0.242265
-0.32183
0.289059
0.267104
-0.20917
0.184332
0.284016
-0.103955
0.0870422
0.292742
-0.0363099
0.0275842
0.296329
-0.0119549
0.00836789
0.297361
-0.00631371
0.00528185
-0.00138931
0.00257561
0.116072
-0.476039
0.169765
-0.522967
0.211485
-0.459728
0.244053
-0.354398
0.268764
-0.233881
0.285193
-0.120384
0.293337
-0.044454
0.296582
-0.0152003
0.297535
-0.00726608
-0.00019742
0.117991
-0.538233
0.170816
-0.575792
0.212335
-0.501247
0.244498
-0.386561
0.269052
-0.258436
0.285025
-0.136356
0.292851
-0.0522796
0.296154
-0.018504
0.297273
-0.00838512
0.000763179
0.120404
-0.599101
0.171308
-0.626696
0.212142
-0.542081
0.243695
-0.418113
0.268058
-0.282799
0.283799
-0.152097
0.29168
-0.0601603
0.29537
-0.022194
0.296894
-0.00990962
0.00125382
0.123283
-0.658433
0.171458
-0.674871
0.21101
-0.581633
0.241726
-0.44883
0.265825
-0.306898
0.281605
-0.167876
0.289905
-0.0684607
0.294255
-0.0265436
0.296408
-0.0120623
0.00104808
0.126103
-0.716209
0.171329
-0.720097
0.20904
-0.619343
0.238677
-0.478468
0.262387
-0.330608
0.278462
-0.183951
0.287541
-0.0775396
0.292817
-0.0318193
0.295812
-0.0150573
-7.65247e-05
0.128003
-0.772399
0.170766
-0.76286
0.206321
-0.654899
0.234658
-0.506804
0.257805
-0.353755
0.274375
-0.200521
0.284592
-0.0877565
0.291063
-0.0382905
0.295109
-0.019103
-0.00233486
0.128051
-0.826379
0.169304
-0.804113
0.202756
-0.688351
0.229675
-0.533722
0.252087
-0.376168
0.269291
-0.217725
0.281037
-0.0995019
0.288995
-0.0462482
0.294292
-0.0244007
-0.0059472
0.125945
-0.876296
0.166544
-0.844712
0.198326
-0.720133
0.223866
-0.559263
0.245367
-0.397668
0.263252
-0.235611
0.276888
-0.113138
0.286611
-0.055971
0.293351
-0.0311413
-0.0111315
0.12224
-0.917301
0.161685
-0.884157
0.192166
-0.750615
0.216598
-0.583695
0.237215
-0.418285
0.255882
-0.254278
0.271941
-0.129197
0.283758
-0.0677875
0.291966
-0.0393499
-0.0179518
0.583807
-0.919687
-0.581421
0.560982
-0.861333
0.523652
-0.713285
0.487066
-0.547108
0.459047
-0.390266
0.447088
-0.242319
0.448752
-0.130861
0.449845
-0.0688802
0.446596
-0.0361009
-0.0165267
0.682715
-0.871014
-0.731388
0.619608
-0.798226
0.554166
-0.647843
0.497872
-0.490814
0.45674
-0.349134
0.4372
-0.222779
0.428916
-0.122578
0.420627
-0.0605915
0.414026
-0.0294993
-0.0140819
0.754056
-0.774673
-0.850396
0.655554
-0.699723
0.564763
-0.557053
0.490586
-0.416637
0.435662
-0.29421
0.403521
-0.190637
0.388764
-0.107821
0.381064
-0.0528908
0.375921
-0.0243569
-0.0117593
0.779298
-0.641398
-0.912574
0.654475
-0.5749
0.54772
-0.450298
0.463718
-0.332635
0.402703
-0.233196
0.365037
-0.152971
0.346732
-0.0895164
0.338102
-0.0442603
0.333208
-0.0194627
-0.00943052
0.753248
-0.492302
-0.902344
0.618098
-0.43975
0.507167
-0.339367
0.421912
-0.24738
0.360786
-0.172069
0.321667
-0.113852
0.301069
-0.068918
0.291719
-0.0349107
0.287193
-0.0149359
-0.00724199
0.685246
-0.345783
-0.831765
0.552988
-0.307492
0.44701
-0.233389
0.367105
-0.167474
0.310476
-0.11544
0.273547
-0.0769243
0.252756
-0.0481262
0.243018
-0.0251734
0.238697
-0.0106145
-0.00518097
0.582682
-0.213844
-0.71462
0.463024
-0.187834
0.369606
-0.139972
0.300581
-0.0984489
0.252335
-0.0671942
0.22051
-0.0450992
0.201547
-0.0291631
0.192191
-0.0158182
0.188195
-0.0066183
-0.00330403
0.448782
-0.105521
-0.557105
0.351233
-0.0902847
0.27719
-0.0659282
0.223864
-0.0451228
0.187177
-0.030507
0.162769
-0.0206916
0.147483
-0.0138768
0.139486
-0.00782175
0.136085
-0.00321719
-0.00169925
0.286595
-0.0302214
-0.361895
0.220925
-0.0246145
0.172536
-0.0175388
0.138855
-0.0114422
0.115991
-0.00764262
0.100578
-0.00527928
0.0904405
-0.00373897
0.0848518
-0.00223295
0.0825207
-0.00088617
-0.000541705
0.101313
-0.131535
0.0766988
0.05916
0.0477178
0.0400752
0.034796
0.031057
0.028824
0.0279379
0.738832
0.0102248
-0.74078
0.733085
0.0284128
0.723443
0.0467497
0.710167
0.0639159
0.693569
0.0791754
0.674069
0.0921971
0.652257
0.10303
0.628687
0.112206
0.604231
0.119308
0.119833
0.845557
0.013401
-0.848734
0.837327
0.0366428
0.82729
0.0567867
0.816592
0.0746146
0.805243
0.0905241
0.792881
0.104559
0.779258
0.116653
0.764549
0.126915
0.749068
0.134789
0.137513
0.845001
0.0114297
-0.84303
0.848903
0.0327412
0.853043
0.0526467
0.856496
0.0711613
0.858857
0.0881633
0.85994
0.103476
0.859608
0.116985
0.857968
0.128554
0.855286
0.137471
0.142402
0.800223
0.00930864
-0.798102
0.805833
0.0271313
0.814435
0.0440451
0.82566
0.0599362
0.839035
0.0747883
0.853897
0.0886143
0.86948
0.101402
0.885127
0.112907
0.900023
0.122575
0.129851
0.737873
0.00704255
-0.735607
0.744163
0.0208417
0.754134
0.0340742
0.767517
0.046553
0.784102
0.0582034
0.803688
0.0690277
0.82603
0.0790598
0.850683
0.088254
0.876629
0.0966292
0.104136
0.653925
0.00485703
-0.651739
0.660208
0.0145584
0.670384
0.023898
0.684229
0.0327087
0.701535
0.0408972
0.722125
0.0484375
0.745825
0.0553594
0.772359
0.0617206
0.801261
0.0677268
0.0736323
0.549114
0.0029182
-0.547175
0.554815
0.00885737
0.564141
0.0145715
0.576909
0.0199405
0.59292
0.024887
0.611974
0.0293828
0.633879
0.0334544
0.658419
0.037181
0.685398
0.0407481
0.0444097
0.422792
0.00137686
-0.421251
0.427413
0.00423668
0.435008
0.00697599
0.445423
0.00952595
0.458471
0.0118386
0.473959
0.0138954
0.4917
0.0157135
0.511531
0.0173494
0.533352
0.0189271
0.0206565
0.273827
0.00036701
-0.272817
0.276914
0.00114965
0.281999
0.00189183
0.288955
0.00256939
0.297629
0.00316435
0.307856
0.00366895
0.319481
0.0040878
0.332394
0.00443639
0.346561
0.00476012
0.00532298
0.100483
-0.100116
0.101633
0.103525
0.106094
0.109258
0.112927
0.117015
0.121452
0.126212
0.0779817
0.159457
-0.142429
-0.0950099
0.0630647
0.147424
-0.132507
0.0496448
0.134379
-0.120959
0.0376213
0.120314
-0.10829
0.027038
0.105159
-0.0945759
0.0179846
0.0888883
-0.079835
0.0105764
0.0714585
-0.0640502
0.00496473
0.0528099
-0.0471983
0.00134834
0.0328759
-0.0292595
0.0116401
-0.0102918
0.0779783
0.174401
-0.0929219
0.0638975
0.161505
0.0508576
0.147419
0.0389496
0.132222
0.028283
0.115826
0.019004
0.0981673
0.0112913
0.0791712
0.0053602
0.0587411
0.00147731
0.0367588
0.0131174
0.0732074
0.187907
-0.0867133
0.0603892
0.174323
0.0483628
0.159446
0.0372562
0.143329
0.0272073
0.125875
0.0183812
0.106993
0.0109773
0.0865751
0.00523544
0.0644829
0.00144958
0.0405447
0.014567
0.0667919
0.20034
-0.0792253
0.0550472
0.186068
0.0440583
0.170435
0.0339269
0.15346
0.0247691
0.135033
0.016728
0.115034
0.00998188
0.0933213
0.00475137
0.0697134
0.00130956
0.0439865
0.0158766
0.0593278
0.21165
-0.0706378
0.0487257
0.19667
0.0388739
0.180286
0.0298449
0.162489
0.0217261
0.143151
0.0146302
0.12213
0.0087024
0.0992491
0.00412632
0.0742895
0.00113088
0.0469819
0.0170074
0.0506089
0.221519
-0.0604773
0.0414183
0.20586
0.0329321
0.188772
0.0251998
0.170221
0.018285
0.150066
0.0122725
0.128143
0.00727497
0.104247
0.00343642
0.078128
0.000937213
0.0494811
0.0179447
0.0404644
0.229565
-0.0485104
0.0330175
0.213307
0.0261794
0.195611
0.0199789
0.176422
0.0144581
0.155587
0.00967764
0.132923
0.00572038
0.108204
0.00269365
0.0811548
0.000731781
0.051443
0.0186764
0.0290584
0.235444
-0.0349379
0.0236539
0.218712
0.0187162
0.200548
0.0142559
0.180882
0.0102965
0.159546
0.00687748
0.136342
0.00405545
0.111026
0.00190414
0.0833061
0.000515228
0.0528319
0.0191917
0.0169191
0.23893
-0.0204047
0.0137428
0.221888
0.0108552
0.203436
0.00825478
0.183482
0.00595125
0.16185
0.0039662
0.138327
0.00233193
0.11266
0.0010905
0.0845475
0.000293185
0.0536292
0.0194848
0.00482738
-0.0058903
0.00387978
0.0030333
0.00228268
0.00162752
0.00107149
0.000621262
0.000285635
7.49105e-05
0.0434389
0.0410964
-0.0522912
-0.0322441
0.0351085
0.0380593
-0.0297289
0.0274875
0.0346788
-0.0270578
0.0207916
0.0310943
-0.0243984
0.0150105
0.0275577
-0.0217765
0.00990488
0.0240158
-0.0189101
0.00537734
0.0198864
-0.0153589
0.00193441
0.0143044
-0.0108615
0.000375566
0.00731712
-0.00575828
0.00206562
-0.00169006
0.0437721
0.0502665
-0.0529421
0.035121
0.0467103
0.0270863
0.0427135
0.0199514
0.0382292
0.0140216
0.0334875
0.00929046
0.0287469
0.00551216
0.0236647
0.00255628
0.0172603
0.000612314
0.00926109
0.00267794
0.045149
0.0598499
-0.0547323
0.0361955
0.0556638
0.0279239
0.0509851
0.0204578
0.0456953
0.0141247
0.0398207
0.00918196
0.0336896
0.00556721
0.0272795
0.00290954
0.019918
0.000810327
0.0113603
0.00348827
0.0476665
0.0700749
-0.0578916
0.0381902
0.0651401
0.0295755
0.0595998
0.0218621
0.0534087
0.0151816
0.0465012
0.00979501
0.0390761
0.00582255
0.0312519
0.00299074
0.0227498
0.000883672
0.0134674
0.00437194
0.05113
0.0810433
-0.0620983
0.0409836
0.0752864
0.0318218
0.0687615
0.0237072
0.0615234
0.0166661
0.0535423
0.0108294
0.0449129
0.00633415
0.0357471
0.00308981
0.0259941
0.000889593
0.0156676
0.00526153
0.0547796
0.0926807
-0.066417
0.0440181
0.0860479
0.0342959
0.0784838
0.0256886
0.0701307
0.0182195
0.0610113
0.0119469
0.0511854
0.00696768
0.0407264
0.00329897
0.0296629
0.00091523
0.0180513
0.00617676
0.057775
0.104798
-0.0698925
0.0465803
0.0972425
0.0364439
0.0886202
0.0274269
0.0791476
0.019566
0.0688722
0.0129123
0.0578391
0.00754601
0.0460927
0.00353825
0.0336706
0.000963699
0.0206259
0.00714046
0.0597799
0.117156
-0.0721373
0.0483736
0.108649
0.0380049
0.0989889
0.02872
0.0884326
0.0205707
0.0770215
0.0136262
0.0647837
0.00797735
0.0517415
0.00372931
0.0379187
0.0010075
0.0233477
0.00814797
0.0615543
0.129634
-0.0740332
0.0500335
0.12017
0.0394642
0.109558
0.0299184
0.0979784
0.0214823
0.0854576
0.0142527
0.0720133
0.00834364
0.0576505
0.00388864
0.0423736
0.00104298
0.0261933
0.00919095
0.0663818
-0.0791764
0.0540446
0.0426434
0.0323313
0.023213
0.0153913
0.00899164
0.00416701
0.00110084
0.215117
0.0568941
-0.0740215
0.235621
0.0940209
-0.114524
0.257092
0.123683
-0.145155
0.267782
0.114855
-0.125545
0.267746
0.116131
-0.116095
0.248319
0.181815
-0.162388
0.216009
0.29412
-0.26181
0.173306
0.410196
-0.367493
0.117697
0.491232
-0.435622
0.458442
-0.393036
0.214267
0.040617
0.23386
0.0744274
0.254685
0.102859
0.266062
0.103479
0.267167
0.115026
0.248869
0.200113
0.216736
0.326253
0.173619
0.453313
0.117815
0.547036
0.523315
0.213487
0.0251202
0.232617
0.0552974
0.252816
0.082659
0.264614
0.0916812
0.265948
0.113691
0.24823
0.217831
0.216232
0.358251
0.172937
0.496608
0.118034
0.601938
0.586616
0.212821
0.0102889
0.231869
0.0362491
0.251456
0.0630721
0.263367
0.0797706
0.264177
0.112881
0.24643
0.235579
0.214523
0.390158
0.171531
0.539601
0.118846
0.654623
0.647571
0.212395
-0.0041163
0.231606
0.0170378
0.250532
0.044146
0.262125
0.0681784
0.261769
0.113236
0.243458
0.253891
0.211687
0.421928
0.169733
0.581555
0.12035
0.704006
0.705822
0.212306
-0.0184328
0.23179
-0.00244627
0.249928
0.0260086
0.260658
0.0574479
0.258564
0.11533
0.239311
0.273144
0.20788
0.453359
0.167783
0.621652
0.122108
0.749682
0.761514
0.212563
-0.0330059
0.232339
-0.0222225
0.2495
0.00884781
0.258787
0.0481608
0.25446
0.119657
0.234074
0.29353
0.203321
0.484112
0.165687
0.659286
0.123283
0.792086
0.814904
0.213041
-0.0480566
0.233119
-0.0423008
0.249081
-0.00711451
0.25629
0.0409524
0.249279
0.126667
0.227761
0.315048
0.198054
0.513819
0.163063
0.694276
0.122894
0.832255
0.86566
0.213464
-0.0635313
0.23397
-0.062806
0.248511
-0.021656
0.253163
0.0363006
0.243177
0.136653
0.220665
0.33756
0.192227
0.542257
0.159535
0.726968
0.120568
0.871223
0.912195
0.21381
-0.0793511
0.234629
-0.0836252
0.247711
-0.0347377
0.249
0.0350108
0.235555
0.150098
0.212132
0.360984
0.184978
0.569411
0.15426
0.757686
0.116817
0.908667
0.949835
0.332732
-0.110073
0.37164
-0.122533
0.406396
-0.0694939
0.42566
0.015747
0.441776
0.133982
0.468425
0.334335
0.506849
0.530987
0.54961
0.714925
0.581218
0.877058
0.944684
0.586369
0.334061
-0.142124
0.374523
-0.162995
0.409813
-0.104784
0.42761
-0.00205009
0.442183
0.119409
0.478397
0.298122
0.535115
0.474269
0.604667
0.645373
0.675286
0.806439
0.887136
0.732834
0.335972
-0.176086
0.376148
-0.203171
0.41189
-0.140526
0.428771
-0.0189309
0.438325
0.109855
0.47869
0.257757
0.548629
0.40433
0.639683
0.554319
0.742522
0.7036
0.783285
0.846372
0.339103
-0.213178
0.374655
-0.238723
0.393101
-0.158972
0.394645
-0.0204744
0.407803
0.0966957
0.457264
0.208297
0.536685
0.324909
0.641872
0.449131
0.767721
0.577751
0.646311
0.904695
0.346287
-0.257455
0.356858
-0.249294
0.344724
-0.146838
0.343695
-0.0194456
0.364563
0.075828
0.417048
0.155811
0.499152
0.242805
0.608981
0.339303
0.744324
0.442407
0.495448
0.895188
0.341388
-0.296833
0.32352
-0.231426
0.29302
-0.116338
0.290584
-0.0170094
0.313218
0.0531935
0.363258
0.105772
0.44102
0.165043
0.546444
0.233878
0.679116
0.309736
0.347774
0.826789
0.31442
-0.309243
0.272763
-0.189768
0.237061
-0.0806365
0.233
-0.0129484
0.254125
0.0320687
0.29774
0.0621569
0.365437
0.0973463
0.458716
0.140599
0.578972
0.189479
0.215012
0.711735
0.273869
-0.281102
0.213524
-0.129423
0.176405
-0.0435173
0.171476
-0.00801924
0.188388
0.0151568
0.222092
0.0284531
0.274688
0.0447499
0.348883
0.0664043
0.447119
0.0912426
0.106108
0.556023
0.214645
-0.193737
0.140725
-0.055504
0.110414
-0.0132059
0.105459
-0.00306401
0.116647
0.00396873
0.137986
0.00711366
0.171372
0.0113635
0.220052
0.0177251
0.286352
0.0249422
0.0304026
0.362058
0.108273
0.0527694
0.0395635
0.0364995
0.0404682
0.0475819
0.0589454
0.0766705
0.101613
0.132015
0.60856
-0.1172
0.63225
-0.116613
0.65509
-0.109553
0.67626
-0.100395
0.695217
-0.0895953
0.711365
-0.0766246
0.724265
-0.0614112
0.733597
-0.0442699
0.739085
-0.0258928
-0.00758447
0.750198
-0.134563
0.76513
-0.131545
0.779358
-0.123782
0.792603
-0.113639
0.804682
-0.101675
0.81583
-0.0877726
0.826395
-0.0719759
0.836392
-0.0542666
0.844847
-0.0343476
-0.0114715
0.851025
-0.139216
0.853495
-0.134015
0.855029
-0.125316
0.855419
-0.114029
0.854577
-0.100832
0.852675
-0.085871
0.849942
-0.069243
0.846775
-0.0511
0.843973
-0.0315453
-0.0105281
0.892736
-0.127257
0.878696
-0.119974
0.863986
-0.110606
0.84939
-0.099433
0.835515
-0.0869576
0.823064
-0.0734202
0.812664
-0.0588425
0.804774
-0.0432103
0.799757
-0.0265283
-0.00887322
0.870498
-0.102567
0.845681
-0.0951574
0.822031
-0.0869567
0.800543
-0.0779453
0.781687
-0.068101
0.765734
-0.0574674
0.752903
-0.0460113
0.743412
-0.0337197
0.737531
-0.020647
-0.00694925
0.797093
-0.0728697
0.768992
-0.0670569
0.743156
-0.0611208
0.720056
-0.0548451
0.699982
-0.0480267
0.683118
-0.0406033
0.669645
-0.0325387
0.659772
-0.0238465
0.653729
-0.0146039
-0.00495992
0.683015
-0.0441501
0.656514
-0.0405563
0.632406
-0.0370124
0.610878
-0.0333173
0.592143
-0.0292911
0.576393
-0.0248533
0.563826
-0.0199717
0.554645
-0.0146654
0.549043
-0.00900204
-0.00309193
0.532508
-0.0206348
0.510901
-0.0189495
0.491266
-0.017377
0.473694
-0.0157457
0.458342
-0.0139388
0.44539
-0.0119013
0.435031
-0.00961323
0.427454
-0.00708832
0.422822
-0.00436948
-0.00152131
0.346774
-0.00535088
0.332632
-0.00480785
0.319739
-0.00448343
0.308125
-0.00413211
0.297899
-0.00371225
0.289207
-0.00320961
0.282213
-0.00261895
0.277071
-0.00194652
0.27391
-0.00120878
-0.000428716
0.126664
0.121857
0.117373
0.113241
0.109529
0.106319
0.1037
0.101754
0.100545
0.000185032
0.0116071
-0.0117921
0.000623653
0.0304412
-0.0308799
0.001237
0.0462343
-0.0468476
0.00197706
0.0594586
-0.0601986
0.00277624
0.0700113
-0.0708105
0.00376902
0.0798776
-0.0808704
0.00396292
0.0772563
-0.0774501
0.00408426
0.0700323
-0.0701536
0.00394437
0.0610706
-0.0609307
0.0499483
0.00350665
-0.0495105
0.000533322
0.0110737
0.00180362
0.0291709
0.0035846
0.0444533
0.00574049
0.0573027
0.00807174
0.0676801
0.0110381
0.0769112
0.0116743
0.07662
0.0120791
0.0696275
0.0117719
0.0613778
0.0510706
0.0106496
0.000835379
0.0102384
0.00283144
0.0271749
0.00563835
0.0416464
0.00904036
0.0539007
0.0127377
0.0639827
0.0172451
0.0724038
0.0187876
0.0750776
0.0195691
0.0688461
0.0193828
0.0615641
0.052427
0.0180264
0.00105582
0.00918255
0.00359649
0.0246342
0.00719264
0.0380503
0.0115543
0.049539
0.0163544
0.0591826
0.0217449
0.0670134
0.0250695
0.0717529
0.0263516
0.067564
0.0265997
0.061316
0.0535589
0.0254678
0.00115127
0.00803128
0.00397872
0.0218068
0.00804058
0.0339884
0.0129952
0.0445844
0.0185492
0.0536285
0.0245544
0.0610082
0.0299486
0.0663588
0.0320862
0.0654264
0.0330073
0.060395
0.0540838
0.0324824
0.00111131
0.00691997
0.00396538
0.0189527
0.00818439
0.0297694
0.0133884
0.0393805
0.0193155
0.0477014
0.0257688
0.0545549
0.0324123
0.0597153
0.036309
0.0615297
0.0381204
0.0585835
0.0537001
0.0385041
0.000926115
0.00599386
0.00357242
0.0163064
0.00770947
0.0256324
0.0128799
0.0342101
0.0187842
0.0417971
0.0253352
0.0480039
0.0323177
0.0527328
0.0382723
0.0555751
0.0415847
0.0552712
0.0521764
0.0431084
0.000567923
0.00542594
0.00278635
0.014088
0.00665644
0.0217623
0.0116195
0.029247
0.017202
0.0362146
0.0234448
0.0417611
0.0302834
0.0458942
0.0371817
0.0486767
0.0425601
0.0498928
0.0489168
0.0458197
0.000104346
0.00532159
0.00176895
0.0124234
0.0051752
0.018356
0.00981331
0.0246089
0.014955
0.0310729
0.0206195
0.0360966
0.0269022
0.0396115
0.0335863
0.0419927
0.0400852
0.0433939
0.0437868
0.0452152
-0.000174471
0.00549607
0.00108808
0.0111608
0.00385649
0.0155876
0.00788609
0.0205793
0.0125006
0.0264584
0.017572
0.0310252
0.0231792
0.0340043
0.0292526
0.0359193
0.0356402
0.0370062
0.0373587
0.0420683
-1.93233e-05
0.00551539
0.00114232
0.00999919
0.00327984
0.0134501
0.00641503
0.0174441
0.0102982
0.0225752
0.014842
0.0264814
0.0199639
0.0288824
0.025498
0.0303852
0.0312378
0.0312664
0.0316817
0.0369147
0.000380678
0.00513471
0.00153676
0.0088431
0.00318696
0.0117999
0.00549976
0.0151313
0.00872443
0.0193505
0.0129149
0.0222909
0.0177704
0.0240269
0.0230408
0.0251148
0.0285357
0.0257715
0.0260412
0.0341762
0.000629195
0.00450551
0.00171617
0.00775612
0.00304051
0.0104755
0.00486581
0.013306
0.00786402
0.0163523
0.0119589
0.0181961
0.0167145
0.0192712
0.0218922
0.0199372
0.0273598
0.0203039
0.0203847
0.0330162
0.000683116
0.0038224
0.00165527
0.00678396
0.00284097
0.00928983
0.00472959
0.0114174
0.00800632
0.0130756
0.0122383
0.0139641
0.0170564
0.0144531
0.0222989
0.0146947
0.027869
0.0147338
0.0145724
0.0336813
0.000667734
0.00315466
0.00156283
0.00588885
0.00300737
0.00784529
0.00559412
0.00883062
0.00938049
0.00928923
0.0138977
0.00944695
0.0189367
0.00941397
0.0243977
0.00923376
0.0302121
0.00891941
0.00847604
0.0363084
0.000592463
0.00256219
0.00170948
0.00477183
0.00404835
0.00550641
0.00749697
0.00538199
0.0117398
0.00504642
0.0165772
0.00460955
0.0219077
0.00408346
0.0276715
0.00346992
0.0338172
0.0027737
0.00200697
0.0402863
0.000514891
0.0020473
0.00245693
0.00282978
0.00570845
0.00225488
0.00969226
0.00139818
0.0142685
0.000470141
0.0193893
-0.00051125
0.0250238
-0.00155103
0.0311302
-0.00263643
0.0376487
-0.00374489
-0.00486394
0.0445196
0.000849592
0.0011977
0.00357722
0.000102138
0.00712488
-0.00129279
0.0112961
-0.00277302
0.016073
-0.00430679
0.0214652
-0.00590347
0.0274344
-0.00752027
0.0338929
-0.00909489
0.0407574
-0.0106094
-0.0120921
0.0479855
0.00149362
-0.000295935
0.00411953
-0.00252378
0.0075302
-0.00470346
0.0117245
-0.00696728
0.0167118
-0.00929417
0.0224227
-0.0116143
0.0286945
-0.0137921
0.0354038
-0.0158042
0.0425207
-0.0177262
-0.0196151
0.0500437
0.00107922
0.00318625
0.00649419
0.0109321
0.0162884
0.0222521
0.0286553
0.0355212
0.0429152
0.0508169
0.0515416
0.0834792
-0.0981061
0.0774307
-0.00768144
-0.0182077
0.0998998
-0.0508243
0.0283551
0.113416
-0.0464128
0.0328969
0.121303
-0.0264359
0.0185488
0.12506
-0.00838508
0.00462768
0.126972
0.000357881
-0.00226992
0.128708
0.00169779
-0.00343317
0.130799
0.000474087
-0.00256568
-0.00144991
-0.000980447
0.058708
0.0589473
0.0916798
-0.0406533
0.118733
-0.077878
0.134611
-0.0622903
0.143264
-0.0350889
0.147083
-0.0122039
0.148868
-0.00142685
0.15051
5.51629e-05
0.15255
-0.00156555
-0.00366808
0.0666358
0.0253277
0.104902
-0.0789194
0.135801
-0.108777
0.155367
-0.0818561
0.165305
-0.0450274
0.169201
-0.0160991
0.170728
-0.00295434
0.172084
-0.00130089
0.173842
-0.00332368
-0.00547467
0.0753952
-0.0163862
0.11756
-0.121085
0.151337
-0.142553
0.174713
-0.105233
0.186744
-0.0570584
0.190959
-0.0203135
0.19223
-0.00422532
0.193201
-0.00227193
0.194524
-0.00464688
-0.00672553
0.084312
-0.0643898
0.129206
-0.165978
0.165102
-0.17845
0.191787
-0.131918
0.206784
-0.0720557
0.211896
-0.0254253
0.213053
-0.00538262
0.213621
-0.00283969
0.214423
-0.00544888
-0.00733478
0.0926444
-0.116748
0.139527
-0.212861
0.177034
-0.215957
0.206203
-0.161087
0.224511
-0.0903637
0.231423
-0.0323371
0.232808
-0.00676724
0.23306
-0.00309205
0.233337
-0.00572575
-0.0072811
0.0997659
-0.171994
0.148284
-0.261379
0.187073
-0.254746
0.217916
-0.191931
0.239182
-0.111629
0.248821
-0.0419766
0.25103
-0.00897593
0.251189
-0.00325044
0.251021
-0.00555781
-0.00660686
0.10536
-0.229369
0.155394
-0.311412
0.195216
-0.294568
0.227102
-0.223817
0.250472
-0.134999
0.263246
-0.0547502
0.267099
-0.0128289
0.267567
-0.00371849
0.267168
-0.00515911
-0.00544302
0.109423
-0.288748
0.160917
-0.362906
0.201547
-0.335198
0.234033
-0.256303
0.258517
-0.159484
0.273966
-0.0701987
0.280215
-0.0190784
0.281632
-0.00513494
0.281259
-0.00478626
-0.00395028
0.112249
0.16502
0.20624
0.238996
0.263845
0.280688
0.289194
0.292427
0.292923
0.0132003
0.00607648
-0.0192768
0.0109914
0.00220887
0.0115117
-0.000520284
0.0129074
-0.00139573
0.0136138
-0.000706341
0.0137557
-0.000141977
0.013627
0.000128708
0.0134512
0.000175831
0.0132961
0.000155167
7.90577e-05
0.03725
0.0232075
-0.0543811
0.031512
0.00794691
0.0340142
-0.00302253
0.0379987
-0.00538024
0.0401354
-0.00284299
0.040584
-0.000590623
0.0402281
0.000484596
0.0397397
0.000664301
0.0393442
0.000550726
0.000252056
0.057978
0.0480684
-0.0828389
0.0509261
0.0149987
0.0559067
-0.00800309
0.0623741
-0.0118477
0.0659747
-0.00644361
0.0667958
-0.00141172
0.0662654
0.00101507
0.0655124
0.00141733
0.0649328
0.00113034
0.00048544
0.0739357
0.0753384
-0.101206
0.0681545
0.0207798
0.0764644
-0.0163129
0.0856491
-0.0210323
0.0908668
-0.0116613
0.0921841
-0.00272907
0.0915618
0.00163743
0.0906129
0.00236621
0.0899183
0.00182502
0.000740752
0.0814612
-0.104229
0.0840332
0.0960753
0.10794
0.114827
0.116726
0.116094
0.115027
0.114286
0.00273319
-0.000172894
-0.0025603
0.00326396
-0.000530774
0.00417603
-0.000912062
0.00548684
-0.00131082
0.00718296
-0.00169611
0.0092272
-0.00204424
0.0115835
-0.00235631
0.0141717
-0.00258821
0.016857
-0.00268526
-0.0024198
0.0077861
-0.000645585
-0.00731341
0.00923274
-0.00197742
0.0117117
-0.003391
0.0152675
-0.00486661
0.019881
-0.00630965
0.0254782
-0.00764145
0.0319598
-0.00883791
0.0391508
-0.00977921
0.0467622
-0.0102967
-0.0100387
0.012476
-0.00138352
-0.011738
0.0147253
-0.00422674
0.0185576
-0.00722326
0.0240207
-0.0103297
0.0310743
-0.0133633
0.0395801
-0.0161472
0.049321
-0.0185788
0.0600437
-0.0205019
0.0714078
-0.0216608
-0.0214698
0.0168047
-0.00234732
-0.0158409
0.0197285
-0.00715052
0.024671
-0.0121657
0.0316465
-0.0173052
0.0405439
-0.0222607
0.0510989
-0.0267022
0.0629291
-0.0304091
0.0756859
-0.0332587
0.0888536
-0.0348286
-0.0338219
0.0207897
-0.0196304
0.0242887
0.0301494
0.038312
0.0485337
0.0603356
0.073035
0.085596
0.0959826
0.0315082
-0.0312721
0.0370883
-0.0373245
0.0256383
-0.0308687
0.0367386
0.019971
-0.030036
0.0357033
0.014715
-0.0286407
0.0338967
0.010084
-0.0264351
0.0310661
0.0062184
-0.0227566
0.0266223
0.00312412
-0.0176412
0.0207355
0.00102544
-0.0136171
0.0157158
-8.15451e-05
-0.0101532
0.0112602
-0.00562928
0.00554774
0.0295626
-0.0253969
-0.0354378
0.0238357
-0.0251417
0.018335
-0.0245352
0.0132367
-0.0235424
0.00879146
-0.0219899
0.00538197
-0.0193471
0.00304096
-0.0153002
0.00141151
-0.0119876
0.000306785
-0.00904848
-0.00532249
0.0295551
-0.0193981
-0.0355539
0.0237409
-0.0193275
0.0182133
-0.0190075
0.0130883
-0.0184174
0.00856738
-0.017469
0.00509968
-0.0158794
0.00304161
-0.0132421
0.00166965
-0.0106157
0.000595823
-0.00797465
-0.00472666
0.0314415
-0.0131308
-0.0377088
0.0254094
-0.0132953
0.019695
-0.0132931
0.0143852
-0.0131076
0.00961927
-0.012703
0.00571975
-0.0119799
0.00324744
-0.0107698
0.00179284
-0.00916105
0.000743063
-0.00692487
-0.0039836
0.0349353
-0.00648633
-0.0415798
0.0285732
-0.00693314
0.0225646
-0.0072846
0.0169767
-0.00751969
0.0119012
-0.00762758
0.00752055
-0.00759918
0.00417419
-0.00742343
0.00201654
-0.00700338
0.000806144
-0.00571447
-0.00317745
0.03909
0.000588066
-0.0461644
0.0323411
-0.000184171
0.0259889
-0.000932421
0.0201061
-0.00163688
0.0147527
-0.00227418
0.00999202
-0.00283848
0.00590759
-0.00333899
0.00266929
-0.00376508
0.000718728
-0.0037639
-0.00245871
0.0427462
0.00804977
-0.0502079
0.0356245
0.0069375
0.0288974
0.00579474
0.0226619
0.00459864
0.0170142
0.00337352
0.0119914
0.00218433
0.00758046
0.00107193
0.00379638
1.90161e-05
0.000961289
-0.000928796
-0.00149742
0.0448918
0.0157842
-0.0526262
0.0375298
0.0142995
0.0305405
0.0127841
0.0239652
0.0111739
0.0179458
0.00939295
0.0126573
0.00747284
0.00816925
0.00555995
0.00446435
0.00372392
0.00159172
0.00194385
9.43108e-05
0.0450281
0.0238067
-0.0530507
0.0374821
0.0218455
0.0304144
0.0198518
0.0237444
0.0178439
0.017454
0.0156834
0.0117419
0.013185
0.00696695
0.0103348
0.00338778
0.0073031
0.00113638
0.00419526
0.00123069