/*--------------------------------*- C++ -*----------------------------------*\
  =========                 |
  \\      /  F ield         | OpenFOAM: The Open Source CFD Toolbox
   \\    /   O peration     | Website:  https://openfoam.org
    \\  /    A nd           | Version:  13
     \\/     M anipulation  |
\*---------------------------------------------------------------------------*/
FoamFile
{
    format      ascii;
    class       volScalarField;
    location    "0.1925";
    object      p;
}
// * * * * * * * * * * * * * * * * * * * * * * * * * * * * * * * * * * * * * //

dimensions      [0 2 -2 0 0 0 0];

internalField   nonuniform List<scalar> 
1800
(
-0.958133
-0.919195
-0.837638
-0.737606
-0.640278
-0.553112
-0.477096
-0.410646
-0.352069
-0.304067
-1.13556
-1.09244
-1.00022
-0.887408
-0.777838
-0.679565
-0.593715
-0.518893
-0.45416
-0.401241
-1.30354
-1.25593
-1.15286
-1.0275
-0.906051
-0.796936
-0.701273
-0.617578
-0.54461
-0.483009
-1.45694
-1.40466
-1.29094
-1.15384
-1.0216
-0.902848
-0.798614
-0.707272
-0.627458
-0.559503
-1.59017
-1.53312
-1.40911
-1.26125
-1.11934
-0.991967
-0.880018
-0.781729
-0.695629
-0.62151
-1.69807
-1.63628
-1.50271
-1.34542
-1.19531
-1.06071
-0.942337
-0.838274
-0.746927
-0.667699
-1.77571
-1.70936
-1.5672
-1.40207
-1.24538
-1.10507
-0.98161
-0.872973
-0.777453
-0.694113
-1.81889
-1.7483
-1.59886
-1.42775
-1.26629
-1.12191
-0.994839
-0.882951
-0.784423
-0.698036
-1.8243
-1.74993
-1.5949
-1.41978
-1.25547
-1.10872
-0.979542
-0.865757
-0.765439
-0.677111
-1.7899
-1.71249
-1.5537
-1.37659
-1.21136
-1.06395
-0.934122
-0.819712
-0.718727
-0.629526
0.351154
0.36889
0.385143
0.39879
0.408193
0.413242
0.414714
0.413458
0.410151
0.40538
0.310261
0.328601
0.346929
0.363523
0.376093
0.384142
0.388349
0.389573
0.388518
0.385915
0.243146
0.262423
0.283944
0.305047
0.322433
0.335036
0.343386
0.348362
0.35071
0.351405
0.151151
0.171684
0.197488
0.224583
0.248303
0.266881
0.280651
0.290513
0.297279
0.302263
0.0361167
0.0582225
0.0893547
0.123815
0.155231
0.181039
0.201334
0.217048
0.229074
0.239148
-0.0995154
-0.0755183
-0.0380757
0.00498618
0.0452837
0.0793846
0.107128
0.129473
0.14741
0.163166
-0.252634
-0.226422
-0.181774
-0.129044
-0.0788887
-0.0356376
0.000287666
0.0298679
0.0542003
0.0760236
-0.419438
-0.390671
-0.338021
-0.274754
-0.214001
-0.160983
-0.116365
-0.0791544
-0.0480984
-0.0200398
-0.59556
-0.563846
-0.502393
-0.427751
-0.355696
-0.292318
-0.238532
-0.193333
-0.15519
-0.120917
-0.776547
-0.741431
-0.670267
-0.583234
-0.498831
-0.423944
-0.359676
-0.304948
-0.257992
-0.217024
0.360722
0.280643
0.224447
0.180471
0.144862
0.114685
0.0874283
0.0617302
0.0367958
0.0122143
0.354958
0.279006
0.224552
0.180986
0.145291
0.114931
0.0875403
0.0617661
0.036797
0.0122035
0.342627
0.274613
0.223418
0.181047
0.145626
0.115215
0.0877285
0.0618754
0.0368482
0.0122096
0.322969
0.26761
0.221098
0.180654
0.145854
0.115525
0.0879849
0.0620523
0.0369459
0.0122321
0.294967
0.258131
0.217664
0.179812
0.145962
0.115852
0.088301
0.0622907
0.0370867
0.0122701
0.257574
0.246206
0.213193
0.178531
0.145936
0.116183
0.088668
0.062584
0.0372669
0.0123234
0.210053
0.231692
0.207756
0.176822
0.145762
0.116505
0.0890763
0.0629253
0.0374826
0.0123913
0.151972
0.213829
0.201334
0.17469
0.145428
0.116805
0.0895162
0.0633075
0.03773
0.0124733
0.0831508
0.191368
0.193505
0.171987
0.144868
0.117053
0.0899732
0.0637225
0.0380054
0.0125699
0.00879044
0.165364
0.184606
0.168848
0.144127
0.11726
0.0904483
0.0641684
0.0383069
0.0126842
-0.0296744
0.143961
0.175769
0.16422
0.141784
0.116148
0.0899421
0.0639416
0.0382382
0.0127259
-0.042615
0.118302
0.158244
0.1534
0.13531
0.112299
0.0876386
0.0625784
0.0375255
0.0125211
-0.0389088
0.103418
0.145104
0.144142
0.129271
0.108516
0.0853105
0.0611811
0.0367845
0.0123015
-0.031081
0.0919205
0.133296
0.135479
0.123428
0.104757
0.082958
0.0597558
0.0360207
0.0120705
-0.0201393
0.0839452
0.123261
0.127623
0.117921
0.101118
0.0806415
0.0583379
0.0352531
0.011834
-0.00894875
0.0780919
0.114669
0.120555
0.11282
0.0976768
0.0784178
0.0569627
0.0345004
0.0115978
0.000388236
0.0733758
0.107247
0.114253
0.108184
0.0944992
0.0763388
0.055664
0.03378
0.0113667
0.00653231
0.0688889
0.100652
0.108649
0.104037
0.0916327
0.0744455
0.0544699
0.0331062
0.0111454
0.00922067
0.0637276
0.0941245
0.103259
0.100075
0.0888843
0.0726135
0.0532987
0.0324176
0.0108996
0.00551441
0.0598787
0.0901964
0.100179
0.0978425
0.0873383
0.0715826
0.0526409
0.0320347
0.0107667
-0.479625
-0.526022
-0.550409
-0.553776
-0.537964
-0.505472
-0.459096
-0.401132
-0.336077
-0.26566
-0.317925
-0.364734
-0.39373
-0.405916
-0.402309
-0.385643
-0.356893
-0.320748
-0.278078
-0.23405
-0.193751
-0.239113
-0.27003
-0.287248
-0.291237
-0.284782
-0.267545
-0.244852
-0.214941
-0.184074
-0.0977566
-0.142342
-0.174411
-0.19464
-0.20339
-0.203111
-0.193317
-0.17885
-0.157846
-0.136175
-0.0247371
-0.0683941
-0.101046
-0.123184
-0.135181
-0.138993
-0.134503
-0.125638
-0.111091
-0.0957493
0.0309118
-0.0121796
-0.0453108
-0.0688238
-0.0831471
-0.0897993
-0.089076
-0.0840226
-0.0738874
-0.0627829
0.0722545
0.0293934
-0.00422295
-0.0288304
-0.0448931
-0.0535803
-0.0554886
-0.0530186
-0.0459281
-0.0377743
0.101519
0.0584576
0.0241526
-0.00150777
-0.0190044
-0.0292444
-0.032991
-0.0321604
-0.0269566
-0.0206635
0.118057
0.0751189
0.0398478
0.0128221
-0.00616528
-0.0177834
-0.0228042
-0.0226933
-0.017999
-0.0109387
0.130585
0.0834464
0.044823
0.0143494
-0.0083524
-0.0236563
-0.0323483
-0.0349082
-0.0322403
-0.0244339
0.948242
0.899119
0.842336
0.781531
0.71543
0.641344
0.557306
0.464563
0.375697
0.322561
0.752894
0.698107
0.637017
0.569809
0.49458
0.409167
0.312091
0.205086
0.102744
0.0418856
0.538671
0.480302
0.415645
0.343058
0.260554
0.166179
0.0584928
-0.0606182
-0.174843
-0.242414
0.334082
0.270782
0.200108
0.12018
0.0292158
-0.0747563
-0.193289
-0.324427
-0.450218
-0.523724
0.144941
0.075392
-0.00246392
-0.090504
-0.19048
-0.30448
-0.434102
-0.577295
-0.714378
-0.792785
-0.0302628
-0.105854
-0.190529
-0.28618
-0.394609
-0.517991
-0.657857
-0.812091
-0.959852
-1.04111
-0.190994
-0.271577
-0.362033
-0.464216
-0.579953
-0.711469
-0.860027
-1.02286
-1.18169
-1.26037
-0.334128
-0.418585
-0.513671
-0.621135
-0.742822
-0.881004
-1.03685
-1.20785
-1.3687
-1.44776
-0.456009
-0.543415
-0.642015
-0.75342
-0.879565
-1.02275
-1.18391
-1.35944
-1.52051
-1.60043
-0.554614
-0.643824
-0.744331
-0.858183
-0.987143
-1.13348
-1.29783
-1.47498
-1.63567
-1.71508
2.13605
2.15301
2.17353
2.19552
2.21699
2.23703
2.25502
2.27034
2.28341
2.29362
2.08342
2.09854
2.11672
2.136
2.15449
2.17126
2.18562
2.19707
2.20648
2.21416
2.01064
2.02308
2.03781
2.05309
2.06717
2.07909
2.08808
2.09377
2.09777
2.10176
1.91843
1.92743
1.93767
1.94775
1.95609
1.9617
1.9637
1.96184
1.95874
1.95807
1.80784
1.81271
1.81757
1.82138
1.8228
1.82078
1.81433
1.8033
1.79136
1.78534
1.68008
1.68036
1.67915
1.67579
1.66925
1.65843
1.64221
1.62062
1.59844
1.58597
1.53719
1.53278
1.5251
1.51388
1.49849
1.47778
1.45058
1.41713
1.38347
1.36368
1.38342
1.37398
1.35902
1.33889
1.3135
1.28176
1.24237
1.19584
1.14963
1.12193
1.22633
1.21157
1.18806
1.15739
1.12039
1.07604
1.02297
0.96195
0.902099
0.865991
1.07721
1.04946
1.01194
0.967838
0.91774
0.859875
0.792422
0.716344
0.642449
0.59785
2.13462
1.7162
2.07397
1.88861
1.87701
1.87984
1.8887
1.91282
1.96843
2.07126
2.12779
1.70959
2.0683
1.88163
1.86928
1.87059
1.87695
1.89739
1.94568
2.03564
2.12169
1.70262
2.06327
1.8739
1.86083
1.86031
1.86339
1.87901
1.91652
1.988
2.11625
1.69535
2.05891
1.86544
1.85173
1.84902
1.84803
1.85756
1.88082
1.92835
2.11144
1.6879
2.05521
1.85624
1.84201
1.83675
1.83091
1.83288
1.83826
1.85692
2.10723
1.68036
2.05213
1.84627
1.83174
1.82354
1.81207
1.80483
1.78953
1.77296
2.10359
1.6729
2.04965
1.83553
1.821
1.80939
1.79149
1.77341
1.73581
1.67479
2.10049
1.66564
2.04767
1.82398
1.80986
1.79433
1.76917
1.7387
1.67775
1.56268
2.09795
1.65875
2.04609
1.81166
1.79843
1.77839
1.74522
1.70077
1.61461
1.43437
2.09596
1.65249
2.04479
1.79858
1.78679
1.76165
1.72003
1.66111
1.54922
1.3023
2.09413
1.64583
2.04056
1.7872
1.77188
1.73978
1.68639
1.60884
1.47004
1.16459
2.09497
1.63983
2.03391
1.77927
1.75582
1.71672
1.65235
1.55952
1.40096
1.10037
2.09749
1.63548
2.02807
1.7719
1.7412
1.69552
1.62174
1.51719
1.34508
1.05689
2.10208
1.63283
2.02319
1.7653
1.72822
1.67661
1.595
1.48153
1.30079
1.02754
2.10923
1.63182
2.01936
1.75963
1.71706
1.66028
1.57238
1.45223
1.26693
1.00772
2.11969
1.63242
2.01657
1.75502
1.70785
1.64673
1.55397
1.42898
1.24211
0.994859
2.13392
1.63446
2.01473
1.75154
1.70066
1.63608
1.53972
1.41142
1.22489
0.987387
2.15403
1.63793
2.01361
1.74921
1.69557
1.62838
1.52958
1.39922
1.21404
0.98447
2.17233
1.64171
2.01183
1.74816
1.69274
1.62376
1.52366
1.39242
1.20916
0.987104
2.22538
1.65019
2.0141
1.74636
1.69177
1.62132
1.52053
1.38874
1.20691
0.988122
0.917147
0.750373
0.560558
0.379675
0.213978
0.0601451
-0.0824336
-0.210801
-0.321218
-0.411349
0.841536
0.713715
0.56752
0.421853
0.285119
0.156662
0.0360992
-0.0740783
-0.171315
-0.253305
0.804147
0.700435
0.58343
0.46077
0.342327
0.230313
0.124675
0.0270973
-0.0599038
-0.134012
0.786884
0.696381
0.597432
0.491931
0.387889
0.288651
0.194533
0.106833
0.0277313
-0.0408609
0.781824
0.699634
0.612469
0.519207
0.425522
0.335166
0.249025
0.168192
0.0945142
0.0297473
0.783299
0.706672
0.627159
0.542229
0.455871
0.371835
0.291352
0.215425
0.145671
0.0837381
0.787967
0.71521
0.640807
0.561469
0.480135
0.400453
0.323843
0.251264
0.184178
0.124098
0.794263
0.724134
0.653108
0.577294
0.499089
0.422124
0.347902
0.277362
0.211889
0.152911
0.804345
0.736074
0.666735
0.592216
0.515042
0.438869
0.365197
0.294951
0.229457
0.170128
0.81824
0.753962
0.686047
0.611538
0.534303
0.457795
0.383333
0.311978
0.24516
0.184285
-3.00949
-2.89896
-2.68755
-2.46759
-2.27375
-2.11119
-1.97754
-1.86917
-1.78346
-1.71906
-3.07837
-2.97597
-2.77069
-2.5515
-2.35578
-2.19108
-2.05575
-1.946
-1.85938
-1.79557
-3.03163
-2.93837
-2.74304
-2.52678
-2.33056
-2.16445
-2.02767
-1.91641
-1.82786
-1.7614
-2.88076
-2.79672
-2.61466
-2.40461
-2.21024
-2.04418
-1.90676
-1.79439
-1.704
-1.63399
-2.64598
-2.571
-2.40459
-2.20465
-2.0157
-1.85245
-1.71639
-1.60437
-1.51326
-1.44133
-2.35262
-2.28637
-2.13721
-1.95155
-1.77261
-1.61617
-1.48474
-1.37572
-1.28603
-1.21501
-2.02725
-1.96921
-1.83816
-1.67071
-1.50666
-1.36173
-1.23907
-1.13668
-1.05148
-0.984498
-1.69366
-1.64304
-1.53008
-1.38353
-1.23826
-1.10888
-0.998683
-0.906202
-0.828776
-0.768364
-1.37021
-1.32614
-1.23049
-1.10587
-0.98163
-0.870541
-0.775698
-0.695965
-0.629034
-0.5793
-1.06833
-1.02985
-0.949986
-0.846491
-0.743217
-0.650775
-0.571651
-0.504615
-0.446603
-0.401722
-0.794024
-0.76026
-0.694415
-0.610412
-0.527209
-0.453486
-0.391398
-0.340237
-0.297744
-0.260875
-0.54924
-0.519397
-0.46553
-0.39839
-0.33266
-0.275125
-0.227294
-0.18837
-0.156803
-0.127963
-0.333879
-0.307239
-0.263322
-0.210217
-0.159017
-0.114842
-0.0785868
-0.049368
-0.0260335
-0.00455045
-0.147639
-0.123618
-0.0879511
-0.0465298
-0.00753106
0.0253274
0.0516512
0.0723505
0.0884208
0.10295
0.00961753
0.0315063
0.0604305
0.0922669
0.121168
0.144591
0.162555
0.175972
0.185745
0.194123
0.13799
0.158191
0.181799
0.206053
0.226904
0.242767
0.253985
0.261454
0.265998
0.269213
0.237562
0.256495
0.276144
0.294726
0.309501
0.319637
0.325707
0.328588
0.329039
0.328182
0.308438
0.326503
0.343484
0.358226
0.368851
0.375063
0.377585
0.377277
0.374849
0.371105
0.350787
0.368371
0.383922
0.396594
0.404964
0.40904
0.409621
0.407559
0.403533
0.398159
0.364877
0.382355
0.397677
0.41
0.41798
0.421683
0.421926
0.419556
0.415243
0.409533
-0.0179056
0.132236
0.155645
0.151163
0.136464
0.115748
0.0918973
0.066476
0.040159
0.0134079
0.0743239
0.166011
0.169368
0.156854
0.137835
0.11534
0.0909327
0.0655284
0.0395102
0.0131888
0.150542
0.192659
0.180096
0.160797
0.138868
0.114963
0.0900818
0.0646917
0.0389366
0.0129938
0.210634
0.214016
0.189497
0.164701
0.139858
0.114667
0.0893541
0.0639662
0.0384361
0.0128224
0.258045
0.23173
0.197868
0.168197
0.140769
0.114448
0.0887478
0.0633494
0.0380067
0.0126736
0.294674
0.246622
0.205194
0.171286
0.141612
0.114309
0.08826
0.0628382
0.0376464
0.0125466
0.322013
0.258877
0.211439
0.173973
0.142393
0.114247
0.0878866
0.0624291
0.0373528
0.0124407
0.341442
0.268485
0.216543
0.176246
0.143111
0.11426
0.0876226
0.0621181
0.0371235
0.0123552
0.354022
0.275367
0.220436
0.178094
0.143764
0.114341
0.0874624
0.0619012
0.0369561
0.0122895
0.360369
0.279436
0.223076
0.179504
0.14435
0.114486
0.0873999
0.0617735
0.0368478
0.0122427
-0.215358
0.0176247
0.100014
0.125034
0.125314
0.111836
0.091158
0.0668818
0.0407584
0.0137102
-0.176586
0.0356635
0.107624
0.128163
0.12645
0.112189
0.0911959
0.0668182
0.0406807
0.0136729
-0.14846
0.0539043
0.116958
0.132546
0.128337
0.11287
0.09134
0.0667622
0.0405786
0.0136182
-0.115891
0.0760478
0.128489
0.138154
0.130811
0.113902
0.0916688
0.0668045
0.040533
0.0135859
-0.0752018
0.104173
0.143127
0.145443
0.134227
0.115255
0.0921571
0.0669291
0.0405317
0.0135705
-1.6512
-1.72824
-1.71268
-1.61652
-1.4598
-1.27268
-1.06735
-0.878935
-0.698323
-0.540962
-1.65154
-1.72903
-1.7088
-1.60568
-1.44149
-1.24627
-1.03312
-0.836241
-0.648921
-0.487041
-1.65584
-1.73251
-1.707
-1.59556
-1.42193
-1.21545
-0.995171
-0.790881
-0.607826
-0.462718
-1.66672
-1.74316
-1.71256
-1.59208
-1.40804
-1.19072
-0.966196
-0.758797
-0.580608
-0.436879
-1.68495
-1.76181
-1.72647
-1.59754
-1.40399
-1.17821
-0.949881
-0.738365
-0.555609
-0.396354
1.54856
1.52781
1.49863
1.46418
1.42528
1.38026
1.32714
1.26644
1.20725
1.17062
1.68141
1.67518
1.66171
1.64259
1.6187
1.58915
1.55256
1.50932
1.46676
1.44113
1.80861
1.80785
1.80332
1.79544
1.78396
1.76784
1.74586
1.71814
1.69035
1.67433
1.92105
1.92541
1.92828
1.92939
1.92786
1.92263
1.91262
1.89776
1.88233
1.87421
2.01426
2.02293
2.03182
2.04017
2.04671
2.05039
2.05024
2.04602
2.04084
2.039
2.0868
2.09919
2.11312
2.12738
2.14041
2.15121
2.15894
2.16324
2.16606
2.16936
2.13845
2.15368
2.17146
2.1902
2.20812
2.22429
2.23796
2.24864
2.25741
2.26474
2.16929
2.18638
2.20673
2.22847
2.24967
2.26944
2.28709
2.30204
2.3148
2.32487
2.17922
2.19718
2.21881
2.24206
2.26493
2.28652
2.3062
2.32333
2.33814
2.34962
2.168
2.18596
2.20766
2.23099
2.25393
2.27561
2.29538
2.31262
2.3275
2.33897
-1.53136
-1.59871
-1.6848
-1.79206
-1.9237
-2.08317
-2.27407
-2.49296
-2.70867
-2.82463
-1.24607
-1.31631
-1.40371
-1.51055
-1.64021
-1.79624
-1.98168
-2.19582
-2.41518
-2.53492
-0.885024
-0.958683
-1.04835
-1.15569
-1.2837
-1.43568
-1.61493
-1.82116
-2.03185
-2.16034
-0.479484
-0.558238
-0.650815
-0.758612
-0.884295
-1.0311
-1.20239
-1.39744
-1.59324
-1.72074
-0.0707239
-0.153101
-0.246417
-0.352001
-0.472456
-0.610965
-0.770723
-0.950826
-1.13018
-1.24878
0.30633
0.226031
0.137129
0.0384457
-0.0725204
-0.198778
-0.343281
-0.505037
-0.665005
-0.770878
0.63831
0.565921
0.486577
0.399236
0.301499
0.190608
0.0639926
-0.0772833
-0.216141
-0.307565
0.932981
0.870802
0.802863
0.728477
0.645137
0.550247
0.441714
0.320785
0.202728
0.125939
1.2032
1.14999
1.09038
1.02608
0.954874
0.874119
0.782012
0.679895
0.581215
0.518342
1.43075
1.38591
1.3324
1.27639
1.21686
1.15087
1.0762
0.993671
0.914453
0.864975
2.25107
1.76063
2.15148
1.90321
1.9145
1.91617
1.91241
1.90937
1.86764
1.74072
2.23462
1.75753
2.14397
1.90741
1.91326
1.91669
1.91593
1.92115
1.89861
1.8322
2.21943
1.75427
2.13591
1.91024
1.91172
1.91644
1.91935
1.93186
1.92789
1.91795
2.20545
1.75078
2.12751
1.91169
1.90977
1.91533
1.92118
1.93986
1.95231
1.98444
2.19258
1.747
2.119
1.91178
1.90727
1.9133
1.9215
1.94494
1.97224
2.03501
2.18071
1.7429
2.11057
1.91057
1.90412
1.91029
1.92027
1.94699
1.98727
2.07115
2.16978
1.73842
2.10237
1.90817
1.90025
1.90629
1.91743
1.94596
1.99612
2.09494
2.15975
1.73353
2.09453
1.90468
1.89562
1.90126
1.91292
1.94196
1.99863
2.10684
2.15056
1.7282
2.08713
1.9002
1.8902
1.89518
1.90666
1.93509
1.99487
2.1068
2.1422
1.72241
2.08026
1.89482
1.88399
1.88804
1.8986
1.92537
1.98482
2.09495
2.39599
1.7836
2.16238
1.9057
1.91631
1.90977
1.89137
1.8631
1.76285
1.5829
2.34104
1.77682
2.16047
1.90659
1.91581
1.91063
1.893
1.86621
1.76903
1.5855
2.31684
1.77324
2.16141
1.90557
1.91579
1.91177
1.89594
1.87211
1.78227
1.59125
2.29179
1.7689
2.15954
1.90391
1.91564
1.9131
1.90016
1.88093
1.80232
1.61163
2.2695
1.76432
2.15677
1.90171
1.9153
1.91454
1.90531
1.89246
1.82857
1.64398
1.26584
1.1278
0.9193
0.628175
0.270426
-0.12879
-0.53383
-0.90835
-1.22947
-1.48153
1.25268
1.11136
0.909309
0.630583
0.288691
-0.0984329
-0.501619
-0.883518
-1.21551
-1.47697
1.2727
1.11969
0.911718
0.63865
0.30819
-0.0710225
-0.475694
-0.866429
-1.20834
-1.47741
1.32335
1.14794
0.923682
0.650453
0.326082
-0.0495659
-0.457247
-0.856692
-1.20781
-1.48399
1.4024
1.1967
0.945677
0.663522
0.338874
-0.0357971
-0.445473
-0.8517
-1.21198
-1.49668
)
;

boundaryField
{
    left
    {
        type            zeroGradient;
    }
    right
    {
        type            fixedValue;
        value           uniform 0;
    }
    down
    {
        type            zeroGradient;
    }
    up
    {
        type            zeroGradient;
    }
    cylinder
    {
        type            zeroGradient;
    }
    defaultFaces
    {
        type            empty;
    }
}


// ************************************************************************* //
