/*--------------------------------*- C++ -*----------------------------------*\
  =========                 |
  \\      /  F ield         | OpenFOAM: The Open Source CFD Toolbox
   \\    /   O peration     | Website:  https://openfoam.org
    \\  /    A nd           | Version:  13
     \\/     M anipulation  |
\*---------------------------------------------------------------------------*/
FoamFile
{
    format      ascii;
    class       surfaceScalarField;
    location    "3.14";
    object      phi;
}
// * * * * * * * * * * * * * * * * * * * * * * * * * * * * * * * * * * * * * //

dimensions      [0 3 -1 0 0 0 0];

internalField   nonuniform List<scalar> 
823
(
-0.00110687
0.0151607
-0.0140538
0.0224081
0.0130833
-0.0365983
0.0906716
-0.0240493
-0.0442141
0.199302
-0.085139
-0.0234913
-0.112253
-0.0355272
0.347082
0.00188091
0.0132798
0.0483649
-0.0334006
0.14764
-0.123324
0.269146
-0.206645
-0.279934
0.436827
0.0224978
-0.00921802
0.112679
-0.123582
0.233543
-0.244188
0.352574
-0.325676
-0.375447
0.448086
0.0462421
-0.0554601
0.150741
-0.228081
0.243161
-0.336608
0.30164
-0.384154
-0.39782
0.324012
0.0625182
-0.117978
0.141129
-0.306691
0.18699
-0.38247
0.205433
-0.402597
0.217367
-0.409754
-0.0222533
0.0687266
-0.0464733
-0.0611014
0.106921
-0.0680733
-0.104118
0.110627
-0.0676106
-0.146694
0.105708
-0.0631316
0.0974873
-0.186436
-0.057745
0.000269134
0.0684574
-0.0137948
0.120985
-0.0346886
0.131521
-0.0555223
0.126541
0.11431
-0.0723451
0.0207219
0.0477355
0.0400611
0.101646
0.0520865
0.119496
0.0620074
0.11662
0.105354
0.0709635
0.0247176
0.0230179
0.0630868
0.0632768
0.099298
0.0832845
0.132621
0.0832969
0.0822378
0.155738
0.0089641
0.0356426
0.074713
0.134519
0.181229
-0.121534
0.14519
-0.210092
0.110913
-0.6464
0.413953
0.254829
-0.637522
0.493606
0.349085
-0.461852
0.367596
-0.215694
0.178437
0.0492138
0.0236312
0.217887
-0.815074
0.313344
-0.732979
0.375911
-0.524419
-0.24185
0.243983
-0.149388
0.35809
-0.929181
0.402299
-0.777188
0.418991
-0.541111
-0.250073
0.36783
-0.36148
0.446136
-1.00749
0.475687
-0.806739
0.464877
-0.530301
-0.24314
0.407332
-0.587584
0.478739
-1.07889
0.506964
-0.834963
0.493476
-0.516813
-0.233276
1.27024
-0.665297
-1.19253
1.158
-0.96665
0.988667
-0.66563
0.838654
-0.3668
-0.156561
1.35955
-0.562373
-1.46248
1.11081
-0.717909
0.883144
-0.437961
0.749124
-0.23278
-0.105021
1.31607
-0.45833
-1.42011
1.12725
-0.529096
0.939004
-0.249712
0.787411
-0.0811871
-0.0339459
1.18886
-0.292248
-1.35495
0.933165
-0.273398
0.760933
-0.0774807
0.664758
0.0149882
0.00878035
0.65085
-0.943097
0.377452
0.299971
0.31496
1.13889
0.18133
-1.10286
1.22596
0.236944
1.31951
0.354536
1.32931
0.427033
0.483856
1.04664
0.120904
-0.986212
1.12898
0.154606
1.23287
0.250647
1.35235
0.307545
0.373732
0.988867
0.0665563
-0.93452
1.04965
0.0938192
1.14812
0.152179
1.27321
0.182462
0.226829
0.940602
0.0208307
-0.894876
1.00011
0.0343105
1.09562
0.0566678
1.21203
0.0660497
0.0839167
0.702153
-0.681322
0.736463
0.793131
0.85918
0.143029
0.310638
-0.255297
-0.19837
0.0953563
0.315973
-0.2683
0.0533112
0.32632
-0.284275
0.0182347
0.317985
-0.282908
0.205912
-0.187677
0.102504
0.348074
-0.139941
0.065231
0.353246
0.03197
0.359581
0.00620381
0.343751
0.212115
0.0655056
0.383933
-0.101364
0.032947
0.385805
0.00548301
0.387045
-0.00818052
0.357414
0.203935
-0.0209543
0.39913
0.00575765
-0.0365456
0.401396
-0.0429646
0.393464
-0.0319087
0.346359
0.172026
-0.103508
0.0928843
-0.104709
-0.0937154
-0.0540479
0.198203
0.109872
-0.249417
-0.0586575
0.145362
0.11464
-0.0617994
0.090771
0.120282
-0.0656902
0.0371153
0.12134
-0.0676842
0.0861088
-0.0489936
0.183989
0.152465
-0.226582
0.139157
0.159473
0.0892764
0.170162
0.037277
0.173339
0.123386
0.14631
0.197614
-0.19146
0.10409
0.201693
0.0631234
0.211129
0.0238701
0.212593
0.147256
0.15151
0.230893
-0.184789
0.112275
0.240928
0.0687686
0.254635
0.0266945
0.254667
0.17395
0.0989797
-0.123384
0.0716073
0.0419681
0.0137266
0.410407
0.0310281
-0.0454553
0.421957
0.0593067
-0.0708569
0.415952
0.191067
-0.185062
0.384002
0.275757
-0.243807
0.505855
-0.37127
0.408505
0.0185028
0.415119
0.0526928
0.406007
0.200179
0.373564
0.3082
0.652836
0.402412
0.0120701
0.409848
0.0452571
0.381038
0.228989
0.365133
0.324105
0.82651
0.397471
0.0105792
0.394303
0.048425
0.365151
0.25814
0.336462
0.352795
0.978183
0.388557
0.0180016
0.381291
0.0556913
0.332831
0.3066
0.316293
0.369332
1.17109
0.619609
0.00241268
0.646613
0.0286877
0.671003
0.28221
0.741895
0.298441
0.891975
1.02101
0.627097
-0.0206643
0.645519
0.0102664
0.707203
0.220525
0.77172
0.233924
0.630175
1.03352
0.627819
-0.0444625
0.648331
-0.0102466
0.731024
0.137833
0.820406
0.144541
0.397597
1.05298
0.618264
-0.0587061
0.642899
-0.0348818
0.736089
0.0446431
0.824509
0.0561219
0.191616
1.03049
0.545314
0.510432
0.555076
0.611197
0.802813
1.05318
-0.230533
1.04438
-0.131149
1.05405
-0.111035
1.05083
0.0089832
0.0408568
0.988814
-0.185827
0.974176
-0.11651
0.950975
-0.0878337
0.964366
-0.00440794
0.0190107
0.981535
-0.114379
0.948973
-0.0839478
0.91792
-0.0567814
0.926607
-0.013095
0.0110977
0.962333
-0.0462212
0.916527
-0.0381415
0.885986
-0.0262405
0.884841
-0.0119501
0.00106212
0.756592
0.71845
0.69221
0.68026
0.046952
0.139248
-0.1862
0.0718751
0.307369
-0.332292
0.0731875
0.361658
-0.362971
0.0631226
0.365929
-0.355864
0.335095
0.05114
-0.323112
0.0674444
0.0718039
0.139008
0.235805
0.174812
0.325855
0.180392
0.360349
0.356793
0.158694
0.0560013
0.0158026
0.166297
0.125509
0.260623
0.231529
0.329632
0.291339
0.344233
0.342191
0.026604
-0.0108013
0.119933
0.0321806
0.239414
0.112048
0.35638
0.174373
0.235141
0.465473
0.00530846
-0.0161098
0.0497793
-0.0122903
0.142531
0.0192961
0.256667
0.0602374
0.0955918
0.396216
-0.00310005
-0.0130097
0.00776617
-0.0231565
0.0466486
-0.0195863
0.111744
-0.00485774
0.0183173
0.189018
0.00301134
-0.0160211
0.0100377
-0.0301829
0.0233017
-0.0328503
0.0468015
-0.0283575
-0.0183351
0.0834539
-0.00810018
-0.0079209
-0.0218784
-0.0164047
-0.0352428
-0.019486
-0.0443849
-0.0192154
-0.0166099
-0.0461101
-0.0256653
0.0177444
-0.0651576
0.0230876
-0.104893
0.020249
-0.141142
0.0170336
0.0147879
-0.172539
-0.0287289
-0.0737145
-0.121076
-0.167174
-0.210131
0.358645
0.432071
-0.601698
0.418359
0.133595
-0.193309
0.393745
0.012836
0.0117779
0.386543
0.015475
-0.00827289
0.00365677
-0.0200286
0.223243
0.292282
0.224303
0.132535
0.261946
-0.0248069
0.331813
-0.0543916
-0.0409712
-0.0136171
0.259789
0.0777604
0.0411574
0.217379
-0.164425
0.320087
-0.1571
-0.0905729
-0.152592
0.239842
0.0545516
-0.165986
0.219864
-0.329737
0.3262
-0.263436
-0.136434
-0.180381
0.0675858
0.231454
0.335614
0.226895
0.394947
-0.621842
0.107616
0.119279
0.16378
-0.056164
0.230126
-0.0663463
-0.0268698
0.805405
-1.01216
0.731375
0.686989
0.61237
0.0836563
-0.014695
-0.0689614
0.134292
-0.0506356
0.246519
-0.112227
0.415889
-0.16937
-0.205953
0.187768
-0.151323
0.295826
0.52579
0.821893
0.13684
-0.125266
0.156629
-0.168203
0.103009
-0.129916
0.163748
0.065604
-0.136467
0.173872
0.0264132
-0.136027
0.175218
-0.0947357
0.121149
0.171807
-0.0871906
-0.209882
0.129792
-0.0879011
0.0826128
-0.0892885
0.0340701
-0.0874842
-0.0606656
0.182036
-0.0399487
-0.229278
0.133172
-0.0390366
0.0826789
-0.0387956
0.0334641
-0.0382695
-0.0272015
0.194396
0.00930429
-0.243649
0.143959
0.0114012
0.0914651
0.0136979
0.0381447
0.015051
0.0109432
0.193074
-0.242427
0.142676
0.0906836
0.0380504
0.0372838
-0.303744
-0.0566522
0.0144156
-0.332996
-0.00696312
-0.341592
-0.015378
-0.323877
-0.201578
0.118544
-0.274075
-0.148212
0.0767985
-0.291251
0.036994
-0.301787
0.00723339
-0.294117
-0.194345
0.136634
-0.235868
-0.174841
0.09675
-0.251366
0.0566512
-0.261689
0.0200337
-0.257499
-0.174311
0.156629
-0.20197
-0.190527
0.11449
-0.209227
0.0694596
-0.216659
0.0271887
-0.215228
-0.147122
0.15425
-0.199592
0.108771
0.0659843
0.0259735
0.393736
0.0804756
-0.0782321
0.39138
0.128204
-0.125848
0.343511
0.145806
-0.0979378
0.289495
0.0517298
0.0022867
-0.148446
0.269738
0.399074
0.0773807
0.409945
0.117333
0.386645
0.169107
0.330072
0.108303
-0.0282563
0.402556
0.0708045
0.419641
0.100249
0.407075
0.181673
0.354394
0.160984
0.0968591
0.407052
0.0597325
0.423256
0.0840439
0.420138
0.18479
0.375834
0.205289
0.229043
0.410257
0.423444
0.423172
0.384654
0.424323
0.0857278
0.324073
0.10025
0.259558
0.0645149
0.27004
-0.0104813
-0.145429
0.415469
0.517547
0.491948
0.458525
0.450331
0.574639
0.330836
0.0846324
0.255276
0.0755604
0.168439
0.0868371
0.0968763
0.0715625
0.027915
0.45968
0.344714
0.25671
0.18006
)
;

boundaryField
{
    left
    {
        type            calculated;
        value           nonuniform List<scalar> 
17
(
-0.60402
-0.60402
-0.60402
-0.60402
-0.60402
-0.39598
-0.39598
-0.39598
-0.39598
-0.39598
-0.39598
-0.39598
-0.39598
-0.39598
-0.39598
-0.510051
-0.510051
)
;
    }
    right
    {
        type            calculated;
        value           nonuniform List<scalar> 
17
(
0.256996
0.565471
0.402915
0.376441
0.369688
0.372061
0.377618
0.386342
0.402067
0.427213
0.457944
0.483612
0.761938
0.697585
0.716336
0.622032
0.32374
)
;
    }
    down
    {
        type            calculated;
        value           uniform 0;
    }
    up
    {
        type            calculated;
        value           uniform 0;
    }
    cylinder
    {
        type            calculated;
        value           uniform 0;
    }
    defaultFaces
    {
        type            empty;
    }
}


// ************************************************************************* //
