/*--------------------------------*- C++ -*----------------------------------*\
  =========                 |
  \\      /  F ield         | OpenFOAM: The Open Source CFD Toolbox
   \\    /   O peration     | Website:  https://openfoam.org
    \\  /    A nd           | Version:  13
     \\/     M anipulation  |
\*---------------------------------------------------------------------------*/
FoamFile
{
    format      ascii;
    class       volVectorField;
    location    "0.35";
    object      U;
}
// * * * * * * * * * * * * * * * * * * * * * * * * * * * * * * * * * * * * * //

dimensions      [0 1 -1 0 0 0 0];

internalField   nonuniform List<vector> 
440
(
(0.218268 -0.176702 -1.81077e-19)
(0.613085 -0.436666 1.07909e-18)
(0.984288 -0.640899 4.23673e-19)
(1.32752 -0.795352 1.24148e-18)
(1.63252 -0.916664 -2.60033e-19)
(0.3049 -0.177689 -5.4457e-19)
(0.819144 -0.428708 -1.01968e-18)
(1.27998 -0.618905 1.14465e-19)
(1.6919 -0.761628 -1.21526e-18)
(2.05373 -0.875077 -1.02098e-18)
(0.384887 -0.152409 -6.98111e-19)
(1.00469 -0.36302 1.58991e-18)
(1.53977 -0.518389 -1.93485e-18)
(2.00473 -0.632631 1.37866e-18)
(2.40596 -0.721463 1.4304e-18)
(0.445876 -0.102747 5.62412e-19)
(1.14611 -0.243087 -1.29958e-18)
(1.73747 -0.344815 -7.5078e-19)
(2.24297 -0.418221 1.96677e-18)
(2.67449 -0.474458 2.5001e-18)
(0.479267 -0.036159 6.86937e-19)
(1.22366 -0.0847555 1.69146e-19)
(1.84593 -0.119364 2.53141e-18)
(2.37406 -0.143865 -1.06206e-18)
(2.82299 -0.162495 -4.83751e-19)
(-0.000864027 -0.0514208 2.83611e-19)
(0.0502511 -0.143818 -3.80642e-19)
(0.10613 -0.221754 1.09837e-18)
(0.171627 -0.291583 -1.75243e-19)
(0.239749 -0.353168 -1.58866e-18)
(0.0136924 -0.0841853 -2.62011e-19)
(0.0894041 -0.227487 -4.22206e-19)
(0.174272 -0.349626 1.12235e-19)
(0.268617 -0.449412 6.06348e-20)
(0.364942 -0.52942 -3.80151e-20)
(0.0433167 -0.114224 6.9131e-20)
(0.165482 -0.303019 5.19824e-19)
(0.296219 -0.467082 9.39562e-20)
(0.432955 -0.598385 1.4645e-18)
(0.568045 -0.696819 -2.50251e-20)
(0.0866141 -0.140999 6.67747e-20)
(0.276373 -0.367789 -3.36115e-20)
(0.469494 -0.562895 2.16643e-19)
(0.661408 -0.718299 -2.04254e-18)
(0.844113 -0.830135 9.58709e-19)
(0.142129 -0.161731 -2.36149e-19)
(0.420085 -0.412852 -4.43186e-19)
(0.691393 -0.621441 -7.71879e-19)
(0.950122 -0.782321 9.55269e-19)
(1.18517 -0.892686 3.46102e-18)
(0.592612 -0.590819 -4.14566e-18)
(0.959213 -0.514623 1.14285e-18)
(1.28304 -0.210071 3.59798e-19)
(1.44435 -0.0538348 -6.41427e-19)
(1.50066 -0.0124865 -9.78687e-20)
(0.786048 -0.741972 4.8743e-18)
(1.04345 -0.619634 -3.3224e-19)
(1.31389 -0.276327 -1.39973e-19)
(1.46671 -0.08268 4.23034e-19)
(1.50834 -0.021681 1.71716e-19)
(1.03688 -0.876748 1.53401e-18)
(1.17907 -0.704822 4.08818e-18)
(1.34457 -0.338337 6.53486e-20)
(1.47648 -0.10782 4.65758e-19)
(1.51202 -0.0297692 -5.49296e-20)
(1.33064 -0.987808 1.23364e-18)
(1.35884 -0.767029 -4.18163e-19)
(1.39263 -0.391095 -7.82884e-19)
(1.47706 -0.129221 -3.04679e-19)
(1.51652 -0.0367842 1.97511e-20)
(1.62986 -1.04693 -2.36127e-21)
(1.55368 -0.808517 -1.67163e-18)
(1.45094 -0.437659 0)
(1.46689 -0.161463 2.53758e-19)
(1.51631 -0.0458217 2.87117e-20)
(2.15616 -1.11464 -1.57707e-18)
(1.83149 -0.80017 -4.96462e-19)
(1.56208 -0.439617 -1.0778e-20)
(1.45467 -0.168469 3.26118e-20)
(1.43441 -0.043846 -1.15215e-19)
(2.63325 -0.889305 -1.61298e-18)
(1.90194 -0.590868 2.9585e-18)
(1.44413 -0.307849 4.86035e-21)
(1.20917 -0.126956 2.18009e-19)
(1.16171 -0.0358607 0)
(2.47905 -0.522528 -6.93109e-18)
(1.60659 -0.338455 -1.49592e-19)
(1.15105 -0.172767 2.02499e-18)
(0.920011 -0.0771027 -3.01236e-19)
(0.865228 -0.0216896 -6.56379e-20)
(1.76244 -0.219942 6.83749e-18)
(1.08906 -0.135745 1.26847e-18)
(0.751693 -0.0662067 2.24362e-19)
(0.585287 -0.0320279 2.82508e-33)
(0.53458 -0.0101517 -9.52802e-20)
(0.683141 0.00014595 1.5541e-18)
(0.395336 0.0234777 7.16216e-19)
(0.267469 0.0238134 -5.15951e-19)
(0.209466 0.0127484 2.0143e-19)
(0.186412 0.00408302 -5.4028e-20)
(3.58192 -0.168158 1.25612e-17)
(3.4172 -0.502918 -1.0443e-17)
(3.13669 -0.786953 7.1084e-18)
(2.78058 -0.996009 2.32009e-18)
(2.33305 -1.10163 -4.14702e-19)
(3.78461 -0.103587 1.03952e-17)
(3.71756 -0.324458 -6.63945e-19)
(3.57785 -0.551817 -4.27037e-18)
(3.37843 -0.785738 2.69066e-18)
(3.10049 -1.01972 -6.62795e-19)
(3.11486 -0.0605649 3.65438e-18)
(3.09869 -0.181695 -2.51863e-18)
(3.05966 -0.309677 5.01258e-18)
(2.99899 -0.444849 -1.52789e-19)
(2.9245 -0.593576 -4.79041e-18)
(2.19087 -0.0276238 2.7887e-18)
(2.18385 -0.0833826 8.43e-18)
(2.16462 -0.144031 -6.53247e-19)
(2.13407 -0.207313 -6.60762e-18)
(2.11305 -0.269467 1.94586e-18)
(0.879438 -0.00184252 5.21217e-18)
(0.876486 -0.00524043 -1.16431e-19)
(0.867361 -0.00957107 -4.2593e-20)
(0.850489 -0.01626 -2.00912e-18)
(0.84113 -0.0229162 -3.60457e-18)
(1.65302 0.939858 2.27057e-18)
(1.34825 0.816611 -7.70691e-20)
(1.00338 0.658637 -3.38631e-20)
(0.627895 0.449506 -1.96398e-19)
(0.225251 0.182319 -1.34329e-19)
(2.07044 0.892439 -1.21762e-18)
(1.71065 0.777719 -1.19916e-18)
(1.29832 0.632603 7.32765e-19)
(0.834062 0.438748 -4.84345e-19)
(0.312159 0.182101 -4.15036e-21)
(2.41859 0.735826 -5.90208e-19)
(2.01967 0.645355 5.25258e-19)
(1.55501 0.528773 2.43717e-18)
(1.01755 0.37021 8.08404e-19)
(0.39135 0.155291 5.26149e-19)
(2.68204 0.48671 1.44904e-20)
(2.25241 0.428294 -2.71894e-19)
(1.74746 0.352331 -6.46748e-19)
(1.15479 0.247652 2.05654e-18)
(0.450336 0.104148 -3.26851e-19)
(2.82551 0.173868 -1.17075e-18)
(2.37732 0.152647 -1.60653e-18)
(1.84944 0.125349 -7.2873e-19)
(1.22674 0.0878363 7.96311e-19)
(0.480868 0.0366878 -3.2584e-19)
(0.240002 0.415666 -2.12954e-18)
(0.170107 0.352236 -1.80708e-18)
(0.102888 0.275958 3.12435e-19)
(0.0454858 0.182836 -4.23657e-20)
(-0.00172816 0.0671967 3.3662e-20)
(0.370936 0.592774 -8.05522e-19)
(0.274034 0.508595 -6.60375e-19)
(0.178708 0.398225 6.82436e-21)
(0.0925014 0.258729 -2.35295e-20)
(0.0167386 0.09619 2.43827e-20)
(0.581774 0.752171 2.17734e-18)
(0.446269 0.648593 -1.57227e-19)
(0.307943 0.5064 -1.44281e-19)
(0.174346 0.328073 -2.14503e-19)
(0.0483037 0.123788 1.68344e-19)
(0.862071 0.87403 -1.29909e-18)
(0.679196 0.757722 1.9861e-18)
(0.485296 0.593744 3.17243e-19)
(0.288326 0.38821 1.00705e-19)
(0.0924978 0.149132 -1.18144e-19)
(1.20361 0.924742 -4.42268e-19)
(0.969094 0.811533 -4.58769e-19)
(0.708609 0.644962 3.62041e-19)
(0.433352 0.429147 3.60413e-19)
(0.148472 0.16855 1.89871e-21)
(0.919277 0.159128 -3.75665e-19)
(1.47337 0.140008 5.37173e-20)
(1.29642 0.198573 2.14405e-20)
(1.00501 0.502203 -4.52161e-19)
(0.596418 0.643939 1.19938e-20)
(0.918154 0.0851727 1.58952e-19)
(1.47603 0.120241 2.68107e-19)
(1.32043 0.242044 1.93023e-19)
(1.05704 0.614573 -8.39156e-20)
(0.784244 0.800618 7.67165e-19)
(0.916311 0.0138244 3.76581e-20)
(1.48963 0.0994476 -1.95488e-20)
(1.32674 0.285981 -5.69792e-20)
(1.16695 0.707529 -4.76105e-19)
(1.03749 0.934399 1.50517e-19)
(0.915953 -0.0545897 -2.13712e-20)
(1.50317 0.080281 -6.11806e-19)
(1.34453 0.329407 1.0752e-19)
(1.32955 0.772094 1.23646e-18)
(1.33486 1.0393 9.40279e-19)
(0.916189 -0.122113 -2.14486e-20)
(1.50861 0.067484 1.62307e-19)
(1.37615 0.373916 -6.82148e-20)
(1.51292 0.813836 -4.06692e-19)
(1.63562 1.09024 -2.75003e-18)
(0.912064 -0.216408 2.17654e-19)
(1.49877 0.0348518 4.34975e-19)
(1.46393 0.375432 -1.89855e-20)
(1.76927 0.794837 2.99457e-18)
(2.15233 1.14214 -5.52242e-18)
(0.877291 -0.338386 -2.56532e-20)
(1.37977 -0.0238274 -6.32709e-19)
(1.42368 0.271662 7.87378e-21)
(1.84829 0.591427 -3.05085e-18)
(2.59522 0.900153 1.66687e-18)
(0.7841 -0.411657 5.44873e-18)
(1.09939 -0.0855801 6.71593e-35)
(1.142 0.146641 -2.16221e-18)
(1.57881 0.337457 2.67053e-18)
(2.45734 0.529253 5.0325e-18)
(0.633118 -0.29126 1.49789e-19)
(0.7207 -0.0706716 5.25738e-19)
(0.736355 0.051761 2.52689e-19)
(1.07619 0.134376 6.24466e-19)
(1.75839 0.220447 -8.64035e-18)
(0.322134 -0.0432493 -4.30383e-18)
(0.295219 0.00511558 2.80473e-19)
(0.266486 -0.0129179 1.10258e-18)
(0.393699 -0.0239982 -7.72645e-19)
(0.686106 -0.000405785 -1.46501e-18)
(2.3484 1.12083 4.68645e-18)
(2.78718 1.01238 3.46924e-18)
(3.14083 0.803294 -5.68825e-18)
(3.41899 0.519558 -1.4614e-17)
(3.58242 0.18586 1.57625e-17)
(3.07918 1.01876 5.00805e-18)
(3.35432 0.795191 2.56434e-17)
(3.55717 0.560657 7.24379e-18)
(3.70125 0.331818 -3.08333e-17)
(3.77803 0.111132 -5.17362e-18)
(2.90596 0.591929 -7.23087e-18)
(2.98609 0.448085 -3.381e-18)
(3.05223 0.312132 -6.30019e-18)
(3.09527 0.181754 -6.88931e-18)
(3.11403 0.0584485 6.52263e-18)
(2.10623 0.265963 5.41241e-18)
(2.13008 0.205814 -4.04822e-19)
(2.16251 0.143091 4.87051e-18)
(2.18311 0.0821647 6.28882e-18)
(2.19077 0.026011 -5.88761e-18)
(0.842471 0.0220767 -5.74297e-19)
(0.851885 0.0156659 3.52003e-18)
(0.868606 0.00913802 2.44279e-18)
(0.87748 0.00479588 -5.16904e-18)
(0.879834 0.00136285 -3.84261e-20)
(0.281934 0.020757 5.52036e-19)
(0.656676 0.040467 -7.43463e-19)
(0.973145 0.0440675 -8.18562e-19)
(0.944321 0.0274319 -1.51796e-18)
(0.69785 0.0163858 -6.63709e-19)
(0.245577 0.0554606 7.45572e-19)
(0.591269 0.107076 1.44151e-18)
(0.864684 0.125144 -6.97151e-19)
(0.939952 0.0969998 1.96061e-18)
(0.724175 0.05324 -2.70085e-18)
(0.185618 0.0742656 4.96123e-19)
(0.476388 0.145896 -1.39911e-18)
(0.70777 0.184762 -9.1383e-19)
(0.857311 0.175413 -1.8103e-18)
(0.741563 0.101226 -2.86201e-18)
(0.123302 0.0774752 -7.72675e-19)
(0.344757 0.160356 -1.37659e-18)
(0.534528 0.214878 4.39835e-18)
(0.677706 0.233305 -3.6661e-19)
(0.713054 0.180021 2.2539e-18)
(0.0752697 0.0723678 -6.2307e-19)
(0.230703 0.160103 1.56399e-18)
(0.372259 0.224515 6.11375e-19)
(0.482779 0.25773 -1.29514e-18)
(0.561248 0.258401 -1.75117e-19)
(0.0451409 0.0637767 8.39881e-20)
(0.149939 0.148751 -1.22127e-18)
(0.247712 0.212097 -9.43338e-19)
(0.325378 0.233995 -8.99186e-20)
(0.371136 0.223703 -5.01942e-20)
(0.0264363 0.0556781 3.11972e-19)
(0.0950783 0.134204 5.94214e-19)
(0.160897 0.184618 -2.08912e-19)
(0.213767 0.195173 2.59328e-19)
(0.25362 0.185059 1.71449e-19)
(0.0132779 0.0487858 2.49217e-19)
(0.058576 0.111284 1.30006e-18)
(0.103631 0.121052 -1.23517e-18)
(0.14256 0.10727 -2.78193e-18)
(0.178701 0.0858326 4.08526e-19)
(0.00608692 0.0393347 -2.36448e-19)
(0.0422601 0.0491539 -1.80105e-18)
(0.0794384 0.0221934 3.21093e-18)
(0.11934 -0.00952176 1.31734e-18)
(0.160677 -0.0432678 -2.697e-19)
(0.00998226 0.00289688 2.09189e-19)
(0.0419274 -0.0491578 -4.50639e-19)
(0.0818754 -0.0953586 8.94813e-20)
(0.130416 -0.143329 1.0587e-19)
(0.180955 -0.189534 5.71614e-21)
(0.338562 0.0715036 -7.73613e-20)
(0.614733 -0.0420981 -1.22278e-18)
(0.702445 -0.013784 2.54475e-19)
(0.719752 0.00255479 3.85398e-19)
(0.715973 0.00136868 1.5394e-20)
(0.30289 -0.0347882 -1.00327e-19)
(0.750689 -0.11468 1.44826e-18)
(0.885682 -0.0239611 9.19084e-19)
(0.919264 0.00331061 7.69114e-20)
(0.922278 0.00237862 -4.02448e-20)
(0.318902 -0.149767 -7.9859e-19)
(0.833397 -0.197719 3.0953e-18)
(1.04551 -0.0439276 -1.82749e-19)
(1.10466 0.00213153 -3.57745e-19)
(1.11438 0.00295268 8.07103e-20)
(0.374283 -0.287976 1.09824e-18)
(0.880459 -0.296683 -2.65831e-18)
(1.16407 -0.0854958 -5.21886e-19)
(1.26569 -0.00445149 -3.35865e-20)
(1.28489 0.00245589 -7.23601e-21)
(0.461501 -0.435991 5.07542e-19)
(0.914656 -0.403396 -5.62386e-19)
(1.23801 -0.144387 4.60579e-19)
(1.38634 -0.023747 1.26309e-19)
(1.43279 -0.0026043 -3.87143e-20)
(0.182968 -0.044952 9.5462e-19)
(0.145224 -0.00520941 0)
(0.162469 0.00115756 1.1732e-19)
(0.163172 1.85633e-05 6.47658e-21)
(0.159904 -0.000370582 -7.72187e-20)
(0.39991 0.0699718 0)
(0.409413 -0.000525241 0)
(0.466083 -0.00429845 5.99099e-20)
(0.470955 0.00184185 3.41503e-21)
(0.463359 0.000632167 3.23101e-20)
(0.162666 -0.000821176 -3.68409e-19)
(0.18638 -0.00179221 3.10736e-18)
(0.213187 -0.00502167 -6.86389e-19)
(0.229786 -0.0149905 -3.11669e-18)
(0.245682 -0.0170073 -7.96988e-19)
(0.43198 0.00444075 6.09849e-19)
(0.484505 0.019693 4.11536e-18)
(0.5364 0.0466874 -6.73057e-18)
(0.567589 0.0805918 2.20915e-18)
(0.598309 0.162195 3.79587e-18)
(0.37061 -0.220257 -3.33568e-19)
(0.324211 -0.231277 -9.17434e-20)
(0.24832 -0.212476 -3.24328e-19)
(0.15075 -0.150705 3.86158e-19)
(0.0458527 -0.0645848 1.14208e-19)
(0.257635 -0.168719 4.20381e-19)
(0.215099 -0.18087 1.41262e-18)
(0.162381 -0.176383 2.6356e-19)
(0.0967328 -0.134797 2.35587e-19)
(0.0268414 -0.0571499 -1.82647e-20)
(0.193117 -0.0538507 -3.09244e-19)
(0.151538 -0.0764124 -1.03499e-19)
(0.108684 -0.0939565 1.63149e-18)
(0.0623019 -0.0963497 2.87967e-19)
(0.0131402 -0.0477751 -3.10746e-19)
(0.177757 0.0872473 -6.34437e-19)
(0.131945 0.0534693 -7.05891e-19)
(0.0872407 0.0198985 1.30371e-18)
(0.0491417 -0.0100393 1.59454e-18)
(0.0111994 -0.029427 1.98545e-19)
(0.187179 0.243587 1.23569e-19)
(0.133144 0.197364 -1.20034e-19)
(0.0810949 0.147676 2.48124e-19)
(0.0377065 0.0967045 6.15665e-19)
(-0.00243359 0.0354722 9.02546e-20)
(0.697847 -0.0163409 1.53132e-18)
(0.944328 -0.0274084 -1.80073e-18)
(0.972953 -0.0441927 2.26975e-18)
(0.656688 -0.0405293 3.64462e-19)
(0.281967 -0.0207656 5.36594e-19)
(0.724166 -0.0531309 1.77213e-18)
(0.939812 -0.097013 7.9465e-18)
(0.864479 -0.125246 1.03358e-18)
(0.59132 -0.107115 1.34932e-18)
(0.245672 -0.0554817 -4.78429e-19)
(0.741491 -0.100972 -1.222e-18)
(0.856704 -0.175241 -2.29563e-18)
(0.707687 -0.184819 2.92412e-18)
(0.476453 -0.145964 -1.08371e-19)
(0.18574 -0.0743011 3.39562e-19)
(0.71255 -0.179827 2.01439e-20)
(0.676981 -0.233231 -7.68283e-18)
(0.534557 -0.215199 -5.99667e-18)
(0.34489 -0.160692 1.09139e-18)
(0.123483 -0.0775803 5.08032e-19)
(0.558785 -0.256778 4.70797e-19)
(0.481712 -0.257061 5.3296e-19)
(0.372316 -0.2252 -8.97988e-19)
(0.230956 -0.160976 -8.87648e-19)
(0.0756179 -0.072629 -5.14214e-21)
(0.726361 0.372757 1.17276e-18)
(0.887136 0.125839 -1.9202e-19)
(0.682766 0.018964 2.5865e-19)
(0.648324 0.0381875 -7.66292e-19)
(0.362925 -0.0611512 -1.01175e-19)
(0.825395 0.397299 -1.68687e-19)
(1.10096 0.154304 -5.39229e-19)
(0.874187 0.037853 8.30176e-19)
(0.807055 0.102699 1.68303e-18)
(0.341129 0.0551233 1.0527e-19)
(0.88834 0.371125 -2.17329e-18)
(1.28729 0.16769 -3.70098e-20)
(1.04232 0.0634282 2.37293e-19)
(0.90829 0.182987 1.62963e-18)
(0.364387 0.17751 -1.38984e-18)
(0.91346 0.311544 1.39464e-18)
(1.44561 0.168064 1.99411e-20)
(1.16997 0.103565 -1.89108e-19)
(0.960171 0.281504 -5.90665e-19)
(0.413258 0.323449 -5.59305e-19)
(0.918586 0.235617 1.53414e-19)
(1.48345 0.154818 1.55549e-20)
(1.24891 0.150291 -4.60426e-20)
(0.984642 0.38865 -3.63486e-20)
(0.482195 0.479952 1.35378e-18)
(0.275415 0.0483751 0)
(0.244822 -0.0109527 6.43391e-19)
(0.158865 -0.0158298 1.28157e-19)
(0.151371 0.0053992 -1.19053e-19)
(0.18444 0.0440013 -1.80755e-18)
(0.572623 0.266173 -1.01941e-17)
(0.611976 0.0747213 -2.53684e-18)
(0.449294 0.0124552 5.01787e-19)
(0.426806 0.0012323 -6.68735e-19)
(0.40808 -0.0681846 -6.62496e-19)
(0.245828 0.0169625 -1.14437e-21)
(0.229884 0.015077 1.9285e-18)
(0.213264 0.00506429 5.24133e-19)
(0.18643 0.00180193 3.23103e-19)
(0.162681 0.000825018 0)
(0.599269 -0.162061 -1.09661e-19)
(0.568179 -0.080275 2.54933e-18)
(0.536513 -0.0464592 -1.3621e-19)
(0.484565 -0.0196397 -2.70109e-19)
(0.432004 -0.00441853 7.60353e-19)
)
;

boundaryField
{
    left
    {
        type            fixedValue;
        value           uniform (1 0 0);
    }
    right
    {
        type            zeroGradient;
    }
    down
    {
        type            noSlip;
    }
    up
    {
        type            noSlip;
    }
    cylinder
    {
        type            noSlip;
    }
    defaultFaces
    {
        type            empty;
    }
}


// ************************************************************************* //
