# Selection   : all
# Cells       : 440
# Volume      : 7.374263e+01
# Time        	maxMag(U)
6.015         	2.861317e+00
6.06          	2.863815e+00
6.11          	2.866160e+00
