/*--------------------------------*- C++ -*----------------------------------*\
  =========                 |
  \\      /  F ield         | OpenFOAM: The Open Source CFD Toolbox
   \\    /   O peration     | Website:  https://openfoam.org
    \\  /    A nd           | Version:  13
     \\/     M anipulation  |
\*---------------------------------------------------------------------------*/
FoamFile
{
    format      ascii;
    class       volVectorField;
    location    "3.295";
    object      U;
}
// * * * * * * * * * * * * * * * * * * * * * * * * * * * * * * * * * * * * * //

dimensions      [0 1 -1 0 0 0 0];

internalField   nonuniform List<vector> 
1800
(
(0.0375648 -0.0372792 1.39985e-19)
(0.464064 -0.394566 6.47801e-20)
(0.950972 -0.77319 -3.62115e-19)
(1.27507 -0.995751 4.86407e-19)
(1.43004 -1.07088 1.296e-18)
(1.48587 -1.06081 5.74557e-19)
(1.49696 -1.0149 -3.01074e-19)
(1.49053 -0.958745 -7.65758e-19)
(1.47971 -0.897753 -4.0381e-19)
(1.44725 -0.846565 -3.30682e-19)
(0.0645155 -0.0530567 5.83562e-20)
(0.562936 -0.405267 -2.97287e-19)
(1.1052 -0.763332 4.1899e-21)
(1.45364 -0.967333 -4.37201e-19)
(1.61171 -1.03192 1.17738e-19)
(1.66183 -1.01744 1.31566e-18)
(1.66552 -0.970235 -9.61984e-19)
(1.65324 -0.913482 4.907e-19)
(1.6378 -0.854242 8.09383e-19)
(1.6149 -0.809485 -4.15736e-19)
(0.0987491 -0.0680059 6.66088e-21)
(0.670439 -0.406201 8.90578e-20)
(1.26208 -0.734893 2.76551e-19)
(1.62797 -0.915895 -2.7657e-19)
(1.78413 -0.969492 -1.52257e-18)
(1.82503 -0.95265 3.52081e-19)
(1.81819 -0.907853 6.29187e-19)
(1.79579 -0.856108 -7.45641e-20)
(1.77061 -0.803808 -5.32958e-21)
(1.73748 -0.762066 -3.35781e-20)
(0.14018 -0.0802486 -1.04919e-20)
(0.784663 -0.394322 -1.02623e-19)
(1.41835 -0.685156 -2.4113e-19)
(1.79521 -0.839085 6.76328e-20)
(1.94641 -0.880635 3.9611e-19)
(1.9778 -0.861335 3.58941e-20)
(1.96165 -0.818527 -2.54042e-20)
(1.93124 -0.770116 5.76295e-19)
(1.89903 -0.72137 4.80002e-19)
(1.86279 -0.684259 -1.62218e-19)
(0.188497 -0.0884685 1.06583e-19)
(0.903262 -0.36898 1.62672e-19)
(1.56981 -0.615822 -7.79508e-20)
(1.94992 -0.741029 -9.14746e-20)
(2.09214 -0.771691 -1.19034e-18)
(2.11274 -0.752293 1.07581e-20)
(2.08738 -0.714328 9.77127e-19)
(2.04955 -0.672457 3.32043e-19)
(2.01098 -0.631154 2.07755e-20)
(1.97048 -0.599047 -2.1284e-19)
(0.242408 -0.0907423 -7.54154e-20)
(1.02237 -0.328017 2.21338e-19)
(1.71145 -0.525967 9.62966e-19)
(2.08743 -0.621708 -7.73472e-19)
(2.21773 -0.642505 -8.63692e-19)
(2.22731 -0.624154 1.48334e-18)
(2.19355 -0.591791 -1.07417e-18)
(2.14927 -0.556793 -1.19863e-18)
(2.1053 -0.522595 8.63199e-19)
(2.06153 -0.496482 -2.92508e-20)
(0.300393 -0.0857766 8.17548e-20)
(1.13825 -0.271259 -5.4209e-19)
(1.83898 -0.41781 -2.57247e-18)
(2.20397 -0.485257 1.29009e-18)
(2.32005 -0.498396 2.18259e-18)
(2.31888 -0.48304 -6.44856e-21)
(2.27799 -0.457852 -2.89814e-18)
(2.22874 -0.431008 2.78567e-21)
(2.18083 -0.40503 2.61244e-18)
(2.13463 -0.385338 6.86943e-19)
(0.360122 -0.0723811 -2.77705e-21)
(1.24618 -0.198631 4.2834e-19)
(1.94758 -0.29315 2.00887e-18)
(2.29575 -0.334572 -6.39461e-20)
(2.39629 -0.342417 -1.40559e-18)
(2.38516 -0.331602 -4.45619e-19)
(2.33847 -0.314551 0)
(2.28554 -0.29651 1.01524e-18)
(2.23488 -0.279186 4.55051e-21)
(2.18714 -0.26655 -8.30987e-19)
(0.418955 -0.0500134 2.01479e-21)
(1.34172 -0.111397 9.22362e-19)
(2.03349 -0.155237 1.81796e-18)
(2.36047 -0.173935 -1.91575e-18)
(2.44511 -0.179042 -1.441e-18)
(2.42532 -0.174205 4.51199e-19)
(2.37445 -0.166051 -1.90607e-18)
(2.31931 -0.157249 -1.31356e-18)
(2.26721 -0.148794 1.54965e-18)
(2.21885 -0.143363 1.32008e-18)
(0.473974 -0.0187498 1.12334e-19)
(1.42059 -0.0115348 6.36542e-19)
(2.0935 -0.00757363 3.43097e-19)
(2.39645 -0.00747067 -2.78905e-18)
(2.46565 -0.012209 3.02808e-20)
(2.43884 -0.0145292 4.29149e-18)
(2.38541 -0.0156829 -2.29372e-18)
(2.32947 -0.0162961 -1.27528e-18)
(2.2772 -0.0167011 4.23414e-19)
(2.2292 -0.0184657 -9.58801e-19)
(-0.00301186 -0.000961123 9.88522e-20)
(-0.00175466 -0.0732371 5.47272e-20)
(0.0353064 -0.158871 -1.67688e-21)
(0.0918327 -0.216074 -8.75426e-21)
(0.156716 -0.241633 -2.40259e-21)
(0.222065 -0.247252 -6.43066e-20)
(0.283835 -0.24333 8.93784e-21)
(0.340741 -0.235779 -6.81828e-21)
(0.392425 -0.227367 3.20744e-21)
(0.440477 -0.220469 -8.25859e-21)
(-0.00387708 0.00699079 2.85598e-20)
(0.00897846 -0.107807 7.47465e-20)
(0.0605854 -0.250849 -1.03175e-19)
(0.126881 -0.347064 -4.79903e-20)
(0.195833 -0.389012 -7.86203e-20)
(0.261731 -0.396448 -1.02601e-19)
(0.32239 -0.387393 5.2646e-20)
(0.377581 -0.372162 4.33115e-22)
(0.427283 -0.355673 -1.81424e-20)
(0.474272 -0.34308 -3.60025e-21)
(-0.00575948 0.0134261 -4.37767e-20)
(0.025805 -0.142776 1.70643e-19)
(0.101364 -0.3403 7.02191e-20)
(0.183816 -0.472968 2.74497e-19)
(0.259533 -0.529855 5.42192e-20)
(0.326375 -0.538529 -3.40251e-19)
(0.385239 -0.524268 -2.03116e-20)
(0.437636 -0.501526 1.20196e-19)
(0.484119 -0.477298 -6.3861e-20)
(0.529489 -0.459191 -1.77611e-20)
(-0.00811322 0.0177422 -1.17318e-19)
(0.0493502 -0.178025 -2.81846e-20)
(0.157728 -0.425726 3.27427e-20)
(0.262169 -0.59115 -1.3888e-19)
(0.346982 -0.660931 7.02589e-20)
(0.41497 -0.670064 2.12358e-19)
(0.471288 -0.650532 6.8268e-20)
(0.519819 -0.620553 -2.58287e-20)
(0.561916 -0.589079 2.23642e-20)
(0.605132 -0.565679 -3.0763e-21)
(-0.0101667 0.0194542 0)
(0.0804787 -0.213452 8.96949e-20)
(0.229679 -0.505681 2.20046e-19)
(0.361148 -0.699046 -2.62835e-19)
(0.456895 -0.779119 -5.95121e-19)
(0.526004 -0.787781 2.17855e-19)
(0.578979 -0.762968 -3.53116e-20)
(0.62262 -0.726153 -1.04321e-19)
(0.659305 -0.688077 0)
(0.699869 -0.65961 -9.93657e-21)
(-0.0111677 0.0180473 4.21811e-20)
(0.119939 -0.248924 1.06001e-19)
(0.317137 -0.578649 2.17397e-20)
(0.479589 -0.794149 2.48924e-19)
(0.587441 -0.881469 -1.96846e-19)
(0.657367 -0.888666 -3.16206e-19)
(0.706177 -0.858679 5.68462e-19)
(0.744013 -0.815614 5.61818e-20)
(0.77448 -0.771714 -3.4963e-19)
(0.811878 -0.738301 -7.68077e-21)
(-0.0100639 0.013041 5.80305e-21)
(0.168611 -0.283981 4.39062e-20)
(0.419703 -0.642959 1.46891e-19)
(0.615793 -0.874036 2.79309e-20)
(0.736113 -0.965319 3.27257e-19)
(0.806222 -0.970143 -4.2995e-19)
(0.850018 -0.935327 -4.41037e-19)
(0.881245 -0.886891 -3.83209e-19)
(0.904981 -0.838078 2.79974e-19)
(0.938312 -0.799561 3.0705e-19)
(-0.00558795 0.00440667 -1.29792e-19)
(0.227445 -0.317776 4.22276e-20)
(0.536514 -0.696857 3.14703e-19)
(0.76731 -0.936543 -1.79052e-19)
(0.89958 -1.02855 3.38715e-19)
(0.9689 -1.03046 8.41385e-19)
(1.00681 -0.991687 6.03775e-19)
(1.03068 -0.939427 -4.66434e-19)
(1.04739 -0.886986 -2.24864e-19)
(1.07426 -0.843096 3.22258e-19)
(0.00336032 -0.00764205 -2.25544e-19)
(0.296459 -0.349098 -3.69785e-19)
(0.665467 -0.738385 5.77013e-19)
(0.930157 -0.979508 7.02658e-19)
(1.07274 -1.06912 -7.5504e-19)
(1.13977 -1.06786 8.77985e-19)
(1.17065 -1.02648 1.3702e-19)
(1.18616 -0.972637 -1.09555e-18)
(1.19533 -0.918253 -2.67142e-19)
(1.21045 -0.869402 3.55157e-19)
(0.017557 -0.0219356 5.58261e-20)
(0.375341 -0.375486 -3.63865e-19)
(0.803941 -0.764732 -4.18911e-19)
(1.09982 -1.00005 7.33556e-19)
(1.24979 -1.08397 6.13623e-19)
(1.31199 -1.07878 -7.84398e-19)
(1.33355 -1.03533 -6.62957e-19)
(1.33854 -0.980893 3.97181e-19)
(1.33829 -0.92444 -4.09009e-19)
(1.33394 -0.872139 -2.52628e-19)
(0.622361 -0.179318 4.05272e-20)
(0.801221 -0.135552 -5.47575e-20)
(0.88962 -0.106263 6.62583e-21)
(0.940842 -0.08327 1.00287e-20)
(0.970653 -0.064614 -5.00151e-21)
(0.988424 -0.0493596 -2.27124e-21)
(0.999444 -0.0368679 -4.02264e-21)
(1.00643 -0.0264743 -3.01577e-21)
(1.01067 -0.0183994 7.31926e-21)
(1.01355 -0.00777111 2.84799e-21)
(0.639946 -0.255721 1.10394e-19)
(0.81368 -0.175118 1.15511e-20)
(0.898159 -0.127612 3.95429e-21)
(0.947339 -0.0952947 -4.82434e-21)
(0.975807 -0.0716697 -1.22527e-20)
(0.992566 -0.0535949 0)
(1.0028 -0.039461 -4.25555e-21)
(1.00918 -0.0280673 3.65594e-21)
(1.013 -0.0193856 4.60022e-22)
(1.01554 -0.00816535 -3.47284e-21)
(0.667984 -0.329309 -7.63261e-20)
(0.831657 -0.213998 -3.4412e-20)
(0.909508 -0.148759 1.41579e-20)
(0.955259 -0.107203 -8.35215e-21)
(0.981741 -0.0786172 -3.6889e-21)
(0.997166 -0.0577257 5.89695e-21)
(1.00643 -0.0419551 0)
(1.01211 -0.029574 0)
(1.01547 -0.0203007 -1.97241e-21)
(1.01761 -0.00852655 0)
(0.706595 -0.398545 -3.51706e-20)
(0.854814 -0.251662 7.08673e-20)
(0.923643 -0.169486 7.4365e-21)
(0.964605 -0.118878 0)
(0.988454 -0.085385 1.81717e-20)
(1.00222 -0.0617088 -2.85151e-21)
(1.01033 -0.0443224 0)
(1.0152 -0.0309772 3.75218e-21)
(1.01804 -0.0211335 0)
(1.01977 -0.00884957 6.0368e-22)
(0.7559 -0.461898 -3.99403e-20)
(0.882729 -0.287608 9.62067e-20)
(0.940514 -0.189577 -3.94091e-21)
(0.975378 -0.130206 0)
(0.995936 -0.0919047 3.67341e-21)
(1.00771 -0.0655016 5.60364e-21)
(1.01449 -0.0465351 5.75917e-21)
(1.01844 -0.0322581 1.06238e-21)
(1.0207 -0.0218731 -2.0959e-21)
(1.02198 -0.00913041 2.60279e-21)
(0.815706 -0.517814 -7.1661e-19)
(0.914866 -0.321468 -1.81563e-19)
(0.96001 -0.208901 1.49284e-21)
(0.987567 -0.141096 2.77892e-20)
(1.00418 -0.0981159 -5.75595e-21)
(1.01362 -0.0690633 4.29873e-21)
(1.01889 -0.0485675 4.07473e-21)
(1.02183 -0.0333994 -8.42451e-21)
(1.02345 -0.022507 -2.04473e-22)
(1.02425 -0.00936424 1.05462e-22)
(0.884961 -0.564333 -3.36775e-21)
(0.950062 -0.35238 7.05099e-20)
(0.981782 -0.227295 2.47134e-21)
(1.00111 -0.15149 -8.05167e-22)
(1.01315 -0.10398 -2.13265e-20)
(1.01994 -0.072362 5.15848e-21)
(1.02351 -0.0503964 -3.08594e-21)
(1.02533 -0.034385 -4.16036e-21)
(1.02626 -0.0230242 1.01707e-21)
(1.02656 -0.00954638 -1.80455e-21)
(0.962957 -0.600088 2.83304e-19)
(0.986238 -0.379101 8.47904e-20)
(1.00453 -0.244065 0)
(1.01555 -0.161062 -4.93666e-22)
(1.02268 -0.109346 1.73167e-20)
(1.02659 -0.0753275 1.16471e-21)
(1.02833 -0.0519867 -1.40822e-20)
(1.02893 -0.0351959 4.0072e-21)
(1.02912 -0.0234152 -3.77919e-23)
(1.02889 -0.00967349 -3.12684e-22)
(1.0543 -0.629257 -4.2064e-19)
(1.02515 -0.404286 -2.27542e-19)
(1.02724 -0.260478 5.14352e-20)
(1.02998 -0.170253 -2.46595e-22)
(1.03226 -0.11429 -2.20248e-21)
(1.03331 -0.0779302 -1.35495e-20)
(1.0332 -0.0532997 3.56943e-21)
(1.03258 -0.0358044 5.14545e-22)
(1.03197 -0.0236639 -3.12199e-21)
(1.03123 -0.00974382 -2.66289e-21)
(1.16165 -0.655042 2.95866e-19)
(1.07768 -0.42812 -2.24046e-19)
(1.05457 -0.278805 -3.80904e-20)
(1.04567 -0.181578 -4.04536e-20)
(1.04209 -0.120519 -2.18078e-20)
(1.04005 -0.0811288 -1.06945e-20)
(1.03807 -0.0548197 -5.30303e-21)
(1.03622 -0.036431 0)
(1.03482 -0.0238635 -3.59882e-22)
(1.03355 -0.00976847 2.05285e-21)
(1.32062 -0.63966 4.6596e-19)
(1.18151 -0.428701 1.46122e-19)
(1.11458 -0.280828 -1.16518e-19)
(1.0801 -0.183505 7.36518e-21)
(1.06213 -0.121618 8.71295e-21)
(1.05227 -0.0815052 -4.86085e-21)
(1.04595 -0.0547478 4.55019e-22)
(1.04156 -0.036159 4.36857e-21)
(1.0387 -0.0235471 -3.06569e-21)
(1.03658 -0.00961832 5.22455e-23)
(1.37221 -0.522294 -6.44941e-21)
(1.21225 -0.363168 1.37343e-19)
(1.14133 -0.24769 1.16962e-19)
(1.10203 -0.167188 -1.42256e-20)
(1.07819 -0.112931 5.47725e-20)
(1.06356 -0.0764415 3.51117e-20)
(1.05388 -0.0515834 2.39402e-20)
(1.04722 -0.0341388 -2.35727e-21)
(1.04298 -0.0222587 8.38874e-21)
(1.03994 -0.0090841 3.75964e-21)
(1.43092 -0.449537 -1.43825e-19)
(1.26444 -0.326267 -1.16067e-20)
(1.17811 -0.227184 6.12985e-21)
(1.12707 -0.154996 5.44147e-37)
(1.09496 -0.105128 7.43179e-22)
(1.07485 -0.0712518 -9.72935e-35)
(1.06164 -0.0480665 -2.886e-21)
(1.05271 -0.0317747 -2.08592e-34)
(1.04707 -0.0206957 8.29866e-22)
(1.04312 -0.00844103 -2.44955e-21)
(1.46739 -0.367718 -2.2034e-34)
(1.3003 -0.276061 -3.78144e-20)
(1.20674 -0.197494 -4.0677e-20)
(1.14817 -0.137396 0)
(1.10976 -0.0941714 -2.36797e-20)
(1.08505 -0.064144 -1.60345e-20)
(1.06872 -0.0433586 -9.25321e-21)
(1.05773 -0.0286729 -2.56152e-34)
(1.05082 -0.0186792 -2.85632e-21)
(1.04601 -0.00762014 2.32056e-21)
(1.49013 -0.295775 -8.76518e-20)
(1.32771 -0.228779 4.64762e-21)
(1.23003 -0.166959 0)
(1.16597 -0.11785 0)
(1.12254 -0.0814602 0)
(1.09399 -0.0557302 0)
(1.07497 -0.0377477 -5.62525e-22)
(1.06217 -0.0249794 -2.8611e-34)
(1.05414 -0.0162828 7.31323e-22)
(1.04855 -0.00664596 2.77186e-34)
(1.50415 -0.229404 -3.26987e-20)
(1.34797 -0.181849 0)
(1.24825 -0.135028 0)
(1.18037 -0.0965502 0)
(1.13316 -0.0672612 0)
(1.10152 -0.0462095 0)
(1.08027 -0.0313637 9.37951e-22)
(1.06596 -0.0207736 5.73495e-21)
(1.05696 -0.0135522 6.86566e-22)
(1.0507 -0.00553495 3.14596e-21)
(1.51225 -0.168253 0)
(1.36231 -0.136072 -1.1e-20)
(1.26186 -0.102479 -1.5913e-20)
(1.19142 -0.074081 0)
(1.14148 -0.051961 -1.10095e-20)
(1.10748 -0.0358336 -7.81373e-21)
(1.0845 -0.0243702 -4.451e-21)
(1.06898 -0.0161578 -3.3641e-21)
(1.05922 -0.010551 4.48868e-21)
(1.0524 -0.00431354 1.29528e-21)
(1.51513 -0.11178 8.99276e-21)
(1.37012 -0.0909403 6.78665e-21)
(1.26982 -0.0689648 -3.96601e-21)
(1.19808 -0.0502449 2.58985e-36)
(1.14647 -0.0354178 6.69742e-22)
(1.11094 -0.0244977 -6.03088e-35)
(1.08679 -0.0166896 7.00349e-22)
(1.07044 -0.0110766 3.04223e-21)
(1.06015 -0.00723316 5.65576e-22)
(1.05292 -0.0029534 -1.86823e-21)
(1.48939 -0.0526545 -4.45601e-20)
(1.34688 -0.0481665 1.00815e-20)
(1.24934 -0.0379936 1.14434e-20)
(1.17942 -0.0281837 0)
(1.12879 -0.020014 7.12829e-21)
(1.09369 -0.0138935 5.04857e-21)
(1.06975 -0.0094867 4.02073e-21)
(1.05352 -0.00630728 2.20782e-21)
(1.0433 -0.00411948 -2.06715e-21)
(1.03613 -0.00167909 2.2728e-21)
(1.07249 -0.000689554 0)
(0.989685 -0.00555949 0)
(0.926381 -0.00549596 0)
(0.878256 -0.00433364 0)
(0.842548 -0.00312717 0)
(0.817598 -0.00219488 0)
(0.800484 -0.00151141 5.48059e-22)
(0.78882 -0.00101743 -3.55694e-36)
(0.781445 -0.00065271 5.62667e-22)
(0.776329 -0.000255025 1.71898e-21)
(2.14394 -0.0189063 8.89458e-19)
(2.13579 -0.12621 6.14542e-20)
(2.10975 -0.231813 -1.31098e-19)
(2.06589 -0.333285 -3.54555e-19)
(2.00637 -0.428602 -1.21516e-19)
(1.92856 -0.518147 -1.83004e-19)
(1.84684 -0.58901 -4.44774e-19)
(1.72992 -0.670575 1.40772e-19)
(1.65381 -0.692042 0)
(1.48825 -0.774442 4.70406e-20)
(2.05748 -0.0131186 2.27429e-19)
(2.051 -0.0936032 -3.43072e-19)
(2.03152 -0.173264 -7.38143e-21)
(1.99635 -0.251123 -1.40128e-19)
(1.95366 -0.323504 2.52351e-20)
(1.88857 -0.399469 1.30928e-19)
(1.8348 -0.446687 9.43783e-21)
(1.73627 -0.533979 9.51681e-20)
(1.68332 -0.536147 -1.17027e-19)
(1.57016 -0.626237 2.71327e-20)
(1.98268 -0.00963253 -1.16797e-19)
(1.97774 -0.0735707 2.16963e-19)
(1.96284 -0.136609 1.92784e-19)
(1.93417 -0.198855 -2.3359e-19)
(1.9017 -0.254988 9.85345e-20)
(1.84814 -0.318647 1.3572e-19)
(1.80686 -0.351466 -6.17287e-20)
(1.73057 -0.430275 7.36537e-20)
(1.6824 -0.428545 7.56576e-20)
(1.60015 -0.508475 9.87031e-20)
(1.92557 -0.0101175 -2.02308e-19)
(1.92162 -0.0590156 4.31272e-20)
(1.90926 -0.107154 -1.03209e-19)
(1.88536 -0.155521 -6.47448e-20)
(1.85822 -0.198563 1.88388e-20)
(1.81457 -0.249874 -1.06098e-19)
(1.77847 -0.274727 8.84735e-20)
(1.71975 -0.339758 2.84867e-20)
(1.67512 -0.338996 -1.29501e-20)
(1.61312 -0.404753 9.7585e-21)
(1.8809 -0.00910451 5.38848e-20)
(1.8777 -0.0463646 5.27698e-20)
(1.86704 -0.0829363 -6.16091e-20)
(1.84694 -0.119916 2.29693e-19)
(1.82293 -0.152664 1.23239e-20)
(1.78703 -0.192247 -1.4195e-19)
(1.75397 -0.211784 2.15751e-20)
(1.7072 -0.261941 -8.89049e-20)
(1.66636 -0.263027 1.13523e-19)
(1.61682 -0.313948 8.27094e-20)
(1.84714 -0.00959982 -1.07613e-19)
(1.84461 -0.0368102 -5.88243e-20)
(1.8351 -0.0634915 3.36802e-20)
(1.81772 -0.0905915 8.17521e-20)
(1.79566 -0.114757 4.82327e-20)
(1.76511 -0.14395 -4.16865e-20)
(1.73409 -0.159258 3.30552e-21)
(1.69478 -0.19622 5.18585e-20)
(1.65716 -0.198714 9.88961e-20)
(1.615 -0.236747 -5.48625e-20)
(1.82246 -0.0105562 -4.35296e-20)
(1.82053 -0.0290732 -8.14553e-20)
(1.81194 -0.0471867 -5.5262e-20)
(1.79652 -0.0656839 -1.0812e-19)
(1.77586 -0.0823698 -1.7966e-20)
(1.7488 -0.102567 -3.07914e-21)
(1.71923 -0.113787 4.6492e-20)
(1.68436 -0.139641 -1.45096e-20)
(1.64925 -0.142472 -3.40525e-20)
(1.61112 -0.169642 9.43205e-21)
(1.79972 -0.0105544 3.66464e-20)
(1.79922 -0.0214138 3.30968e-20)
(1.79221 -0.0319317 1.26071e-20)
(1.77909 -0.0426749 -2.22955e-20)
(1.76039 -0.0525206 -1.81349e-20)
(1.73643 -0.0649106 3.29621e-20)
(1.70857 -0.0720344 -2.5502e-21)
(1.67657 -0.0891331 -4.45301e-20)
(1.64349 -0.0912242 1.01305e-20)
(1.60743 -0.111046 5.00561e-20)
(1.71012 -0.0168508 -2.93979e-20)
(1.71075 -0.0191063 2.95429e-21)
(1.70814 -0.0208424 4.44634e-20)
(1.70187 -0.0225623 2.21808e-21)
(1.69133 -0.0236637 -3.59864e-21)
(1.67724 -0.0267659 -4.37448e-21)
(1.65851 -0.0265902 1.75287e-20)
(1.63744 -0.034161 -2.75033e-20)
(1.61043 -0.032471 3.57594e-20)
(1.58681 -0.0432565 1.18209e-19)
(1.08616 -0.0101537 3.11852e-20)
(1.07626 -0.00709596 2.04763e-20)
(1.06962 -0.00402201 1.65544e-20)
(1.06684 -0.00100441 1.85402e-20)
(1.06693 0.00197713 -3.65563e-21)
(1.07103 0.00448261 4.97474e-21)
(1.07444 0.00749486 -8.4081e-21)
(1.08496 0.00759961 1.92896e-21)
(1.08363 0.0115608 -3.1335e-21)
(1.10231 0.00817293 3.48057e-21)
(1.37799 0.750812 -5.6279e-20)
(1.36328 0.797098 2.50636e-20)
(1.36769 0.853754 -4.53478e-19)
(1.37874 0.918567 2.17216e-19)
(1.39 0.986896 8.76765e-19)
(1.39535 1.05442 -1.377e-19)
(1.37421 1.10434 -8.50998e-19)
(1.26858 1.07966 -4.59072e-20)
(0.982415 0.8739 -4.17531e-19)
(0.440211 0.401387 1.51626e-19)
(1.55596 0.72194 0)
(1.54612 0.770304 5.4036e-19)
(1.54381 0.823755 1.22102e-18)
(1.54963 0.885608 -7.43791e-19)
(1.56056 0.952774 -1.79985e-18)
(1.56874 1.02036 -1.40766e-19)
(1.54857 1.07059 -1.79705e-19)
(1.4317 1.0461 6.46857e-19)
(1.10699 0.843109 8.5039e-19)
(0.49254 0.382947 3.85906e-19)
(1.70147 0.700804 6.30616e-20)
(1.70487 0.747965 0)
(1.70774 0.796694 -6.59989e-20)
(1.71575 0.852418 7.64624e-19)
(1.72919 0.914129 5.30219e-20)
(1.74034 0.977314 -1.88437e-18)
(1.71999 1.02384 1.19367e-18)
(1.59023 0.997048 7.53105e-19)
(1.22564 0.798543 -7.72749e-19)
(0.540337 0.357118 -2.82776e-19)
(1.8156 0.669966 -1.28965e-19)
(1.8318 0.712274 -1.00556e-19)
(1.84554 0.755684 2.28464e-19)
(1.86231 0.805296 -2.86031e-19)
(1.88307 0.860913 -1.37292e-18)
(1.89987 0.918291 -1.06388e-18)
(1.87993 0.959229 1.16706e-18)
(1.73622 0.928471 7.37514e-19)
(1.3305 0.736727 0)
(0.578127 0.321879 0)
(1.91109 0.617123 -8.02231e-19)
(1.93733 0.654152 -1.41581e-18)
(1.96217 0.692919 -5.58337e-19)
(1.98957 0.737173 -3.41637e-20)
(2.01971 0.786768 0)
(2.0434 0.837698 1.43935e-19)
(2.02362 0.872174 1.71697e-19)
(1.8641 0.837009 2.19833e-19)
(1.41559 0.65575 -3.28729e-19)
(0.602633 0.277682 -8.30388e-20)
(1.99669 0.541337 9.76717e-19)
(2.03009 0.573704 -4.29431e-20)
(2.064 0.608239 -1.15382e-18)
(2.10088 0.647329 0)
(2.13976 0.690694 0)
(2.16959 0.73447 0)
(2.14809 0.762158 1.4997e-18)
(1.97035 0.72421 -1.73173e-18)
(1.47708 0.557639 -1.0781e-18)
(0.61283 0.226535 -4.17074e-20)
(2.07339 0.447756 -1.31488e-18)
(2.11183 0.475431 -2.75745e-18)
(2.15254 0.505148 -4.82973e-21)
(2.19684 0.538396 5.6817e-19)
(2.2426 0.574783 -4.18531e-20)
(2.27651 0.610987 1.30366e-18)
(2.25147 0.630422 -7.46406e-19)
(2.05092 0.594165 -2.15509e-18)
(1.51423 0.449264 1.82293e-19)
(0.608538 0.172082 1.28424e-19)
(2.13797 0.341666 -1.06504e-18)
(2.18019 0.363846 1.65901e-20)
(2.22592 0.387617 4.16643e-19)
(2.27565 0.413993 -4.0943e-19)
(2.32624 0.442478 6.46329e-19)
(2.36211 0.469428 1.85596e-18)
(2.3296 0.484001 -2.28101e-19)
(2.10398 0.451378 -1.23662e-18)
(1.52713 0.332754 2.90236e-19)
(0.591385 0.118398 4.76754e-20)
(2.18688 0.226714 4.0926e-19)
(2.232 0.24257 8.35656e-20)
(2.28129 0.259305 -4.44204e-19)
(2.33469 0.277774 -1.05493e-18)
(2.38813 0.297571 9.53654e-20)
(2.42324 0.316346 9.85071e-20)
(2.38021 0.325868 -1.68902e-18)
(2.12921 0.300567 6.96838e-19)
(1.51468 0.214724 2.03058e-19)
(0.562234 0.0668725 -1.68977e-19)
(2.21792 0.105657 8.08765e-19)
(2.2649 0.114381 -1.24202e-18)
(2.3163 0.123363 1.92003e-19)
(2.37171 0.133255 2.63939e-18)
(2.42605 0.143832 1.38149e-18)
(2.45807 0.154247 -3.19028e-18)
(2.40294 0.160533 -3.31381e-18)
(2.12566 0.145887 1.60686e-18)
(1.47908 0.0983809 8.45559e-21)
(0.522478 0.0206135 5.6218e-20)
(0.512439 0.209928 -1.67123e-19)
(0.475308 0.217172 -1.52374e-19)
(0.431768 0.225101 8.31522e-20)
(0.38367 0.23364 -2.6991e-19)
(0.330721 0.242773 -3.30371e-20)
(0.272169 0.252211 2.27098e-19)
(0.207158 0.259539 5.48557e-20)
(0.135768 0.25495 -2.52985e-20)
(0.0656115 0.215555 2.8892e-21)
(0.0113028 0.109551 1.60395e-20)
(0.540617 0.310053 1.3529e-19)
(0.504311 0.324021 1.87841e-19)
(0.462139 0.339667 3.53204e-20)
(0.415611 0.356578 -7.22534e-20)
(0.364352 0.374589 -2.55862e-19)
(0.307586 0.393177 5.67071e-21)
(0.244023 0.408148 1.24649e-19)
(0.17214 0.402716 1.37274e-20)
(0.09642 0.339243 -6.67227e-20)
(0.0270317 0.170244 -2.21481e-20)
(0.586047 0.406135 -1.3862e-19)
(0.551198 0.426566 -1.42035e-19)
(0.511387 0.449523 1.25997e-19)
(0.467531 0.474366 1.0806e-19)
(0.41911 0.500804 -6.27185e-20)
(0.365307 0.528066 -7.9208e-20)
(0.304089 0.550196 -8.58721e-20)
(0.23123 0.543653 -1.17862e-20)
(0.14606 0.456663 -4.09708e-20)
(0.0519947 0.227361 3.66958e-21)
(0.647609 0.496105 6.86594e-20)
(0.614823 0.522611 -1.97832e-20)
(0.578303 0.552268 -1.05741e-19)
(0.538159 0.584389 3.23629e-20)
(0.49367 0.6186 -7.78692e-20)
(0.443948 0.653855 2.04989e-20)
(0.385925 0.682468 -1.63251e-19)
(0.311583 0.674489 -1.38847e-20)
(0.213202 0.564942 -2.27234e-19)
(0.0853766 0.279282 4.74732e-20)
(0.723678 0.578037 -1.74531e-20)
(0.693536 0.610161 -3.19364e-21)
(0.66124 0.645793 -4.27006e-20)
(0.625883 0.6844 -1.78318e-19)
(0.586447 0.725565 7.99057e-20)
(0.541907 0.767952 -4.31193e-20)
(0.487857 0.802191 1.14042e-19)
(0.411541 0.792343 -4.81599e-20)
(0.296148 0.661545 2.87044e-19)
(0.126096 0.324621 2.15698e-19)
(0.812277 0.65023 -2.3608e-20)
(0.785141 0.687092 -9.01026e-20)
(0.757689 0.727493 1.16843e-19)
(0.727883 0.771429 8.75983e-20)
(0.694408 0.818513 2.31972e-19)
(0.656049 0.867021 1.39896e-19)
(0.606705 0.905882 4.35437e-19)
(0.527946 0.893634 1.9462e-19)
(0.392162 0.743179 1.68172e-19)
(0.172646 0.36162 1.91588e-19)
(0.911394 0.710228 -9.3898e-20)
(0.888684 0.751349 3.42363e-19)
(0.867763 0.795751 2.11751e-19)
(0.845001 0.843969 -2.46201e-19)
(0.818589 0.895771 -1.30698e-19)
(0.787113 0.949175 4.88535e-19)
(0.742603 0.991612 -9.49919e-20)
(0.660238 0.976695 -3.0316e-19)
(0.500163 0.808683 -6.13516e-20)
(0.224061 0.38972 2.0106e-19)
(1.01096 0.759839 1.85505e-19)
(0.990937 0.802785 5.26718e-20)
(0.976415 0.849024 -5.68531e-19)
(0.962075 0.900216 7.60023e-20)
(0.945127 0.955708 3.76152e-19)
(0.923229 1.01275 -2.54426e-19)
(0.885676 1.05714 -6.11285e-20)
(0.800208 1.03833 -1.32658e-19)
(0.613799 0.854569 1.28578e-20)
(0.277191 0.407102 -2.87361e-19)
(1.13344 0.781333 2.09582e-20)
(1.12243 0.827281 -3.89261e-19)
(1.11568 0.874569 -3.10468e-21)
(1.10736 0.927388 3.25251e-19)
(1.09606 0.986075 -3.28997e-19)
(1.08005 1.0472 6.74773e-19)
(1.04622 1.09481 4.74327e-19)
(0.954147 1.07469 -7.28322e-19)
(0.736298 0.880564 -3.64099e-20)
(0.332702 0.414825 -2.88649e-19)
(1.20194 0.798899 -2.29335e-19)
(1.20443 0.846598 -2.25656e-19)
(1.21893 0.896509 2.38776e-19)
(1.23027 0.951359 5.49765e-19)
(1.23534 1.01063 2.16286e-19)
(1.23245 1.07133 -5.67173e-19)
(1.20637 1.11726 4.12276e-20)
(1.10888 1.09221 1.57802e-19)
(0.858594 0.888491 -2.03546e-19)
(0.387043 0.413061 -2.05576e-19)
(0.82626 0.0211114 4.04948e-21)
(1.15368 0.0430652 -1.67914e-20)
(0.921258 0.0503642 -1.40109e-20)
(1.04027 0.0532908 0)
(0.988615 0.0609367 1.67913e-20)
(0.97371 0.0717655 2.23255e-20)
(0.95096 0.0869853 2.86742e-20)
(0.900136 0.107102 5.89788e-20)
(0.831374 0.135755 -8.55603e-20)
(0.664718 0.172996 -1.07335e-19)
(0.825716 0.017923 3.35488e-20)
(1.15347 0.0427711 -5.36452e-20)
(0.921643 0.0522157 8.68937e-23)
(1.04197 0.0549197 -1.398e-20)
(0.991249 0.064973 9.08077e-21)
(0.977763 0.0779891 -1.14341e-20)
(0.956311 0.0981321 -7.1025e-20)
(0.908488 0.124493 0)
(0.841124 0.173492 1.84522e-19)
(0.687422 0.237591 -2.26567e-19)
(0.824944 0.0149317 -3.08579e-20)
(1.15347 0.042354 1.65181e-20)
(0.92196 0.0538106 3.36162e-20)
(1.04416 0.0563087 1.1832e-20)
(0.994208 0.0687596 -2.20244e-20)
(0.982594 0.0840121 9.20479e-23)
(0.962677 0.108983 -5.03676e-20)
(0.91981 0.141814 -4.27382e-21)
(0.854447 0.210159 1.22327e-22)
(0.723104 0.30038 5.99807e-19)
(0.823939 0.0121991 -2.29013e-20)
(1.15365 0.0418066 -3.02251e-22)
(0.922224 0.0551032 2.57797e-20)
(1.04683 0.0574578 1.70769e-20)
(0.997507 0.0722618 -9.59396e-21)
(0.988189 0.0897887 -1.30962e-20)
(0.97016 0.119415 7.53373e-20)
(0.933887 0.158985 -1.22753e-21)
(0.871629 0.245206 -2.23069e-19)
(0.7711 0.360329 7.01797e-20)
(0.8227 0.00974266 1.64503e-20)
(1.15392 0.0411016 -2.94072e-20)
(0.922452 0.0560434 -1.92331e-20)
(1.05001 0.05837 9.2269e-21)
(1.00115 0.0754477 0)
(0.994528 0.0952712 0)
(0.978878 0.129327 6.44227e-20)
(0.950472 0.175959 1.51732e-22)
(0.893003 0.278115 -1.06765e-19)
(0.830504 0.41645 8.55346e-20)
(0.82123 0.00763964 3.83131e-21)
(1.15419 0.0402093 2.15548e-20)
(0.922678 0.0565814 -4.85953e-20)
(1.05367 0.0590525 -2.64663e-20)
(1.00514 0.0782864 6.30176e-22)
(1.00159 0.100417 5.33783e-20)
(0.988952 0.138642 1.01102e-19)
(0.969272 0.192685 -7.441e-22)
(0.918988 0.307948 1.84972e-19)
(0.900414 0.469272 -1.94422e-19)
(0.819526 0.0059563 -2.13952e-20)
(1.15439 0.0390947 1.3303e-20)
(0.92294 0.0566713 -1.25724e-20)
(1.05781 0.0595171 -4.95842e-20)
(1.00946 0.0807463 -1.1862e-21)
(1.00936 0.105193 -8.60404e-22)
(1.00048 0.147337 -6.38692e-21)
(0.989874 0.209031 -1.84533e-19)
(0.950396 0.333145 1.41782e-19)
(0.977951 0.516047 -4.64864e-19)
(0.81759 0.00472634 -4.38661e-22)
(1.15442 0.0376967 -3.09556e-20)
(0.923291 0.0562792 2.49091e-20)
(1.0624 0.0597789 3.13323e-20)
(1.0141 0.0827846 -3.49645e-22)
(1.01783 0.109558 -6.31872e-20)
(1.01351 0.155433 -5.6435e-20)
(1.01198 0.225301 3.35758e-19)
(0.987792 0.356414 1.32515e-20)
(1.06265 0.567659 7.38066e-19)
(0.815413 0.003951 9.53048e-21)
(1.15433 0.0358795 1.23339e-20)
(0.923806 0.0553614 2.99988e-20)
(1.06744 0.0598446 -3.25266e-20)
(1.01901 0.0843167 -6.06406e-20)
(1.02694 0.113253 1.59284e-21)
(1.02793 0.161949 -7.80207e-20)
(1.03579 0.237612 4.40734e-19)
(1.03498 0.366654 -8.07428e-21)
(1.14371 0.59192 -1.01065e-18)
(0.812995 0.00409576 1.71416e-21)
(1.15515 0.0338874 1.62178e-20)
(0.924309 0.0540411 9.63252e-21)
(1.07295 0.0600131 -6.61347e-20)
(1.02386 0.0860453 -5.9623e-20)
(1.03558 0.118116 -5.27691e-20)
(1.04056 0.171894 -1.39601e-19)
(1.05432 0.257399 -4.0676e-19)
(1.07614 0.394031 -2.465e-19)
(1.23972 0.659803 -1.05717e-18)
(0.810398 0.00369325 -4.82682e-21)
(1.15847 0.030603 -3.34288e-21)
(0.925721 0.051026 -1.0351e-20)
(1.07992 0.0585727 1.58987e-20)
(1.03291 0.0848291 4.78822e-20)
(1.05096 0.117996 -3.72459e-20)
(1.06538 0.17189 1.23925e-19)
(1.09294 0.255238 -4.02877e-19)
(1.1476 0.373094 -1.75125e-19)
(1.23585 0.649274 5.7645e-19)
(0.810835 0.00100235 3.05084e-21)
(1.1627 0.0261126 8.82166e-21)
(0.930174 0.0454702 -6.86705e-21)
(1.0861 0.0546586 4.27968e-20)
(1.0437 0.0797243 7.52858e-20)
(1.06676 0.111663 1.08437e-19)
(1.08961 0.161629 2.65971e-20)
(1.13149 0.2362 2.11572e-19)
(1.19897 0.341785 2.60589e-19)
(1.31556 0.543421 3.75864e-21)
(0.811018 -0.00228763 -5.07069e-21)
(1.16745 0.0212214 -6.7275e-22)
(0.935113 0.0397277 3.1427e-21)
(1.09235 0.0498734 9.40474e-21)
(1.05417 0.0734182 2.09459e-34)
(1.08163 0.103411 -8.12633e-21)
(1.11149 0.148594 -5.29414e-34)
(1.16501 0.214311 1.85766e-20)
(1.23608 0.300398 -5.43366e-20)
(1.38328 0.467155 -4.98901e-20)
(0.811285 -0.00681196 1.83304e-20)
(1.17245 0.0155902 -1.11241e-35)
(0.940174 0.0335337 -3.50538e-21)
(1.0984 0.044139 -1.70135e-20)
(1.06389 0.065702 -3.03753e-20)
(1.0951 0.0930182 -3.64948e-20)
(1.13077 0.132608 -6.53554e-34)
(1.19294 0.189431 -9.18302e-20)
(1.26585 0.257338 -1.26106e-19)
(1.42882 0.38943 8.92931e-20)
(0.811738 -0.0124367 0)
(1.17786 0.00930474 -2.33597e-36)
(0.945298 0.0270461 0)
(1.10411 0.0376267 0)
(1.07262 0.0568187 0)
(1.10688 0.0808575 0)
(1.1473 0.114398 -3.89065e-34)
(1.21532 0.162206 0)
(1.29025 0.213634 -2.04085e-20)
(1.45571 0.315847 5.36545e-20)
(0.812438 -0.0192417 6.18401e-21)
(1.18399 0.00252828 -3.13626e-21)
(0.950512 0.0204948 -4.28286e-21)
(1.10931 0.03054 0)
(1.08019 0.047012 0)
(1.11681 0.0673085 6.81391e-21)
(1.161 0.0945914 2.72113e-20)
(1.23267 0.133268 -1.36623e-20)
(1.3096 0.170806 -2.99936e-20)
(1.47019 0.246881 2.04444e-19)
(0.813535 -0.0291495 -6.32887e-20)
(1.19116 -0.00524216 4.95403e-21)
(0.955801 0.0139998 -4.67209e-21)
(1.11381 0.0230996 -5.81938e-21)
(1.08647 0.0365164 -1.09179e-20)
(1.12481 0.0527198 -8.39083e-21)
(1.17184 0.0736805 -2.06904e-20)
(1.24557 0.103249 -3.81381e-20)
(1.3241 0.129438 -5.28114e-20)
(1.47735 0.182715 7.24018e-20)
(0.814994 -0.0347596 -9.81013e-21)
(1.19979 -0.0119149 -8.25563e-21)
(0.960858 0.00928699 -5.01061e-21)
(1.11696 0.0153917 -7.79359e-21)
(1.09078 0.025358 2.21921e-35)
(1.1303 0.037159 7.33574e-21)
(1.17935 0.0516556 -9.44945e-34)
(1.25426 0.0720391 -1.38266e-20)
(1.33372 0.0887913 1.85458e-20)
(1.4807 0.120798 2.60343e-20)
(0.812189 -0.0604694 1.61489e-19)
(1.19018 -0.0239163 -8.31058e-21)
(0.949256 0.00217582 -5.23544e-21)
(1.10277 0.00897854 3.6173e-21)
(1.07756 0.0144839 3.2312e-21)
(1.1179 0.0221897 1.41239e-20)
(1.16833 0.0306515 7.97738e-21)
(1.24403 0.0427485 -4.74552e-21)
(1.32326 0.0515165 -1.99855e-20)
(1.46922 0.0677161 1.39388e-19)
(0.72962 -0.038895 1.03527e-20)
(0.932615 -0.0195363 -5.55528e-35)
(0.706461 0.00255078 -6.07784e-21)
(0.845148 0.000118271 0)
(0.812386 0.0028607 0)
(0.847884 0.0044083 7.58089e-21)
(0.890224 0.00596864 -8.99335e-36)
(0.95237 0.00865324 -1.37823e-20)
(1.01916 0.00990216 -2.69663e-20)
(1.12971 0.0125901 5.63513e-20)
(1.47421 0.640297 -1.78977e-19)
(1.58604 0.614742 -2.7321e-19)
(1.68966 0.59867 0)
(1.77831 0.578133 1.13469e-19)
(1.85848 0.536355 5.39852e-19)
(1.9341 0.470577 -1.18543e-19)
(2.0034 0.387129 1.54198e-18)
(2.06185 0.293024 -7.79165e-20)
(2.1059 0.192171 -3.48838e-19)
(2.13365 0.0882348 3.30276e-19)
(1.51697 0.517699 7.98734e-20)
(1.59373 0.500604 1.08325e-19)
(1.67193 0.484509 -8.42113e-21)
(1.74776 0.45921 1.7659e-19)
(1.81986 0.417819 -1.50872e-19)
(1.88685 0.36158 -3.6939e-19)
(1.94587 0.295168 -1.10367e-19)
(1.99363 0.222507 5.10048e-19)
(2.02878 0.146027 -2.17448e-20)
(2.05004 0.0673034 -4.42531e-19)