# Forces      
# CofR        : (0.000000e+00 0.000000e+00 0.000000e+00)
# Time        forces(pressure viscous)	moments(pressure viscous)
8.415         	((8.108790e+00 3.437343e+00 6.456248e-19) (1.161380e+00 3.732837e-01 1.028869e-18)) ((2.061360e-19 -4.804448e-19 3.093539e-07) (4.337074e-18 5.242968e-19 -5.788509e-02))
8.42          	((8.113095e+00 3.424380e+00 6.472177e-19) (1.161556e+00 3.732732e-01 1.023390e-18)) ((2.066727e-19 -4.820845e-19 3.048774e-07) (4.334550e-18 5.292480e-19 -5.765757e-02))
8.425         	((8.115107e+00 3.421210e+00 6.494571e-19) (1.161732e+00 3.732626e-01 1.017903e-18)) ((2.080298e-19 -4.840084e-19 3.034392e-07) (4.332038e-18 5.341689e-19 -5.742999e-02))
8.43          	((8.118679e+00 3.415839e+00 6.514551e-19) (1.161909e+00 3.732495e-01 1.012453e-18)) ((2.090866e-19 -4.857760e-19 3.004932e-07) (4.329541e-18 5.390509e-19 -5.720237e-02))
8.435         	((8.127054e+00 3.401216e+00 6.522006e-19) (1.162094e+00 3.732226e-01 1.007046e-18)) ((2.090623e-19 -4.867485e-19 2.930966e-07) (4.327033e-18 5.438979e-19 -5.697474e-02))
8.44          	((8.115141e+00 3.430552e+00 6.590679e-19) (1.162263e+00 3.732350e-01 1.001377e-18)) ((2.142791e-19 -4.916056e-19 3.057539e-07) (4.324523e-18 5.488877e-19 -5.674713e-02))
8.445         	((8.109129e+00 3.446260e+00 6.637087e-19) (1.162421e+00 3.732700e-01 9.960002e-19)) ((2.177770e-19 -4.949924e-19 3.126642e-07) (4.322132e-18 5.536476e-19 -5.651959e-02))
8.45          	((8.096729e+00 3.456950e+00 6.696599e-19) (1.162563e+00 3.733212e-01 9.907889e-19)) ((2.223546e-19 -4.995850e-19 3.262702e-07) (4.319779e-18 5.582926e-19 -5.629213e-02))
8.455         	((8.111789e+00 3.398651e+00 6.672513e-19) (1.162721e+00 3.733052e-01 9.861430e-19)) ((2.192394e-19 -4.991348e-19 3.122239e-07) (4.317520e-18 5.625849e-19 -5.606471e-02))
8.46          	((8.127611e+00 3.375794e+00 6.659753e-19) (1.162896e+00 3.732656e-01 9.814380e-19)) ((2.171220e-19 -4.986722e-19 2.970755e-07) (4.315283e-18 5.667922e-19 -5.583731e-02))
8.465         	((8.135886e+00 3.363879e+00 6.663721e-19) (1.163078e+00 3.732157e-01 9.766090e-19)) ((2.167902e-19 -4.992877e-19 2.896110e-07) (4.313002e-18 5.710728e-19 -5.560994e-02))
8.47          	((8.132770e+00 3.364392e+00 6.691239e-19) (1.163255e+00 3.731708e-01 9.717217e-19)) ((2.182857e-19 -5.016301e-19 2.894249e-07) (4.310759e-18 5.753956e-19 -5.538261e-02))
8.475         	((8.126483e+00 3.369304e+00 6.728443e-19) (1.163421e+00 3.731361e-01 9.668646e-19)) ((2.204439e-19 -5.046949e-19 2.912089e-07) (4.308578e-18 5.796995e-19 -5.515532e-02))
8.48          	((8.130343e+00 3.359841e+00 6.748501e-19) (1.163589e+00 3.730942e-01 9.620756e-19)) ((2.213578e-19 -5.065802e-19 2.881095e-07) (4.306392e-18 5.839601e-19 -5.492807e-02))
8.485         	((8.134764e+00 3.349324e+00 6.766747e-19) (1.163761e+00 3.730438e-01 9.573230e-19)) ((2.221577e-19 -5.083303e-19 2.841373e-07) (4.304186e-18 5.881805e-19 -5.470088e-02))
8.49          	((8.139229e+00 3.338503e+00 6.784926e-19) (1.163936e+00 3.729846e-01 9.525893e-19)) ((2.229477e-19 -5.100808e-19 2.803690e-07) (4.301967e-18 5.923767e-19 -5.447376e-02))
8.495         	((8.143391e+00 3.327854e+00 6.802689e-19) (1.164113e+00 3.729169e-01 9.479006e-19)) ((2.237192e-19 -5.117922e-19 2.764520e-07) (4.299727e-18 5.965249e-19 -5.424674e-02))
8.5           	((8.147540e+00 3.317212e+00 6.820175e-19) (1.164294e+00 3.728408e-01 9.432219e-19)) ((2.244687e-19 -5.134811e-19 2.731373e-07) (4.297486e-18 6.006573e-19 -5.401982e-02))
8.505         	((8.151126e+00 3.308114e+00 6.836021e-19) (1.164475e+00 3.727583e-01 9.385563e-19)) ((2.251339e-19 -5.150010e-19 2.702208e-07) (4.295248e-18 6.047669e-19 -5.379301e-02))
8.51          	((8.154453e+00 3.299548e+00 6.851050e-19) (1.164659e+00 3.726700e-01 9.339108e-19)) ((2.257557e-19 -5.164416e-19 2.674821e-07) (4.293016e-18 6.088511e-19 -5.356632e-02))
8.515         	((8.161181e+00 3.278212e+00 6.876916e-19) (1.164848e+00 3.725607e-01 9.293125e-19)) ((2.269318e-19 -5.190467e-19 2.622923e-07) (4.290753e-18 6.129123e-19 -5.333977e-02))
