/*--------------------------------*- C++ -*----------------------------------*\
  =========                 |
  \\      /  F ield         | OpenFOAM: The Open Source CFD Toolbox
   \\    /   O peration     | Website:  https://openfoam.org
    \\  /    A nd           | Version:  13
     \\/     M anipulation  |
\*---------------------------------------------------------------------------*/
FoamFile
{
    format      ascii;
    class       volScalarField;
    location    "0.94";
    object      p;
}
// * * * * * * * * * * * * * * * * * * * * * * * * * * * * * * * * * * * * * //

dimensions      [0 2 -2 0 0 0 0];

internalField   nonuniform List<scalar> 
1800
(
5.75236
7.85946
10.0123
11.4407
12.275
12.6855
12.8164
12.6586
11.412
7.31929
9.60107
12.0768
14.5817
16.2657
17.3222
17.9848
18.4394
18.6782
17.9535
15.2752
15.9927
18.6174
21.2901
23.1533
24.4135
25.2951
25.9458
26.329
25.8576
24.0263
24.9873
27.5567
30.2051
32.1195
33.4847
34.4937
35.2561
35.708
35.3017
33.6168
36.0454
38.4062
40.8585
42.67
43.9944
44.9905
45.745
46.1942
45.844
44.2882
48.7219
50.7745
52.9181
54.5243
55.7153
56.6175
57.2997
57.7102
57.429
56.0695
62.6701
64.3428
66.0985
67.4305
68.4325
69.2021
69.7935
70.1704
69.9953
68.9065
77.5956
78.8371
80.1482
81.1575
81.9334
82.5472
83.0413
83.3962
83.3627
82.6263
93.2135
93.9932
94.8247
95.4796
96.0024
96.4398
96.8226
97.1459
97.2562
96.9217
109.242
109.547
109.879
110.153
110.391
110.612
110.829
111.043
111.204
111.231
-0.601013
-0.854244
-0.631238
-0.216335
0.256722
0.72513
1.08482
1.29553
1.44068
1.58773
-0.467028
-0.984229
-1.09568
-0.890729
-0.467024
-0.0435147
0.248288
0.49048
0.771025
1.04496
0.539014
-0.430757
-1.26681
-1.43411
-1.10724
-0.802702
-0.590859
-0.286199
0.121329
0.507357
0.933615
-0.209842
-1.4119
-1.75154
-1.53138
-1.37961
-1.25687
-0.952821
-0.496132
0.0115848
0.501178
-0.468444
-1.41174
-1.70371
-1.64699
-1.65961
-1.62541
-1.36506
-0.874539
-0.180712
-0.205258
-0.723217
-1.12539
-1.25553
-1.27676
-1.34362
-1.33784
-1.13087
-0.607396
0.324468
-0.543562
-0.506336
-0.330681
-0.185124
-0.101052
-0.0815722
-0.0445065
0.123948
0.700539
1.92995
-0.0626676
0.523438
1.24404
1.74821
2.07746
2.29013
2.43876
2.65438
3.38399
5.04555
1.38265
2.49053
3.73882
4.66018
5.33003
5.8221
6.16169
6.50024
7.48637
9.77326
3.62311
5.26598
7.08411
8.45999
9.48266
10.2427
10.7649
11.2175
12.2781
14.4408
2.3067
2.44594
2.33813
2.09197
1.58623
1.1833
0.868921
0.599538
0.355911
0.141099
1.95893
2.42365
2.23517
2.01013
1.50403
1.10467
0.817835
0.583437
0.364217
0.153522
1.48183
2.39461
2.13458
1.91931
1.4301
1.03944
0.771718
0.563251
0.368816
0.165184
0.856848
2.31178
2.03446
1.81393
1.35572
0.982566
0.732623
0.5453
0.365225
0.17603
0.161979
2.13516
1.92327
1.6917
1.2747
0.929289
0.699157
0.5301
0.355554
0.182825
-0.411657
1.85543
1.78391
1.55133
1.18354
0.876221
0.669567
0.516424
0.36035
0.182875
-0.561994
1.50625
1.60332
1.39061
1.08054
0.821308
0.641922
0.504171
0.36321
0.175534
0.165985
1.17634
1.37256
1.20075
0.962399
0.762788
0.614592
0.492257
0.353351
0.162094
2.42205
1.03955
1.071
0.957135
0.820974
0.698331
0.587221
0.474717
0.332644
0.142675
6.65672
1.40817
0.712967
0.639474
0.64913
0.628031
0.557396
0.451634
0.306947
0.120778
9.98118
2.57713
0.688407
0.397136
0.473956
0.552711
0.518428
0.417218
0.271864
0.0920125
11.7659
2.57397
0.269415
0.0667063
0.364769
0.521169
0.483682
0.371626
0.225125
0.0550527
12.8656
2.78268
0.402905
0.164583
0.480144
0.582803
0.485694
0.340815
0.184092
0.0197065
14.1882
4.37178
1.28837
0.737994
0.798624
0.728753
0.528649
0.329244
0.152628
-0.0115773
16.365
7.11481
2.70658
1.59885
1.24717
0.942373
0.611907
0.340004
0.134268
-0.0359734
19.2543
9.87841
4.33743
2.56178
1.77496
1.20567
0.727404
0.372293
0.130753
-0.0512803
21.7578
11.9391
5.85428
3.52058
2.33982
1.49945
0.865039
0.422805
0.141857
-0.0563351
23.0367
13.122
7.05144
4.42039
2.91298
1.80991
1.01744
0.488201
0.16641
-0.0508143
22.9767
13.5011
7.91239
5.26773
3.50224
2.14472
1.19129
0.572876
0.208191
-0.0331936
22.4239
13.7262
8.6839
6.12892
4.12871
2.52369
1.40884
0.694717
0.288402
0.00258708
111.787
97.8416
84.077
71.0719
59.1326
48.3525
38.7712
30.0947
20.0837
4.97908
112.767
99.4793
85.9786
72.9723
60.9293
50.0485
40.5154
32.2572
23.5922
11.4793
113.299
100.214
87.3339
75.0078
63.4692
52.8774
43.4476
35.2589
27.4725
18.3387
114.511
102.771
90.8128
78.9823
67.6261
57.0312
47.3984
38.7982
31.0917
23.8287
115.088
104.078
93.1571
82.4662
72.1195
62.1954
52.7334
43.8233
36.0055
29.8269
115.438
104.711
94.2046
84.0431
74.3227
65.0934
56.3343
48.0931
41.0516
36.0348
115.669
105.111
94.7994
84.8675
75.4249
66.5446
58.236
50.5685
44.2146
40.0951
115.77
105.249
94.9825
85.1113
75.7574
67.0117
58.908
51.5147
45.398
41.4383
115.72
105.034
94.6081
84.5892
75.1102
66.2778
58.1479
50.7785
44.5548
40.1019
115.596
104.649
93.9621
83.6849
73.9596
64.9096
56.615
49.1203
42.6114
37.4165
234.12
229.756
228.188
227.746
227.654
227.906
228.64
230.021
232.172
234.311
225.559
222.539
221.489
221.45
221.675
222.16
223.09
224.698
227.169
229.645
216.045
213.871
213.097
213.222
213.653
214.356
215.481
217.25
219.864
222.462
205.74
203.712
203.008
203.203
203.747
204.576
205.8
207.608
210.177
212.696
194.417
192.507
191.852
192.04
192.572
193.383
194.56
196.254
198.609
200.899
182.05
180.326
179.732
179.874
180.326
181.038
182.073
183.551
185.58
187.545
168.705
167.242
166.748
166.851
167.207
167.779
168.618
169.812
171.439
173.01
154.571
153.454
153.099
153.177
153.433
153.845
154.452
155.314
156.485
157.613
139.962
139.248
139.041
139.091
139.236
139.47
139.821
140.323
141.004
141.661
125.438
125.094
124.953
124.906
124.894
124.916
124.982
125.102
125.279
125.455
246.558
246.797
247.05
247.268
247.566
248.067
248.62
248.957
248.961
248.447
246.629
246.96
247.364
247.67
247.871
248.207
248.632
248.547
247.729
246.708
246.637
247.033
247.478
247.79
247.873
248.004
248.286
247.926
246.538
245.282
246.513
247.015
247.445
247.677
247.609
247.494
247.529
247.106
245.812
244.656
246.02
246.674
247.063
247.168
246.99
246.711
246.534
246.173
245.365
244.576
244.813
245.656
245.991
245.954
245.722
245.436
245.239
245.067
244.827
244.542
242.468
243.564
243.901
243.784
243.572
243.407
243.371
243.502
243.809
244.049
238.584
240.069
240.537
240.47
240.385
240.435
240.672
241.167
241.98
242.719
233.111
235.164
235.872
235.938
236.064
236.409
236.997
237.901
239.206
240.418
227.756
229.621
230.365
230.531
230.838
231.455
232.396
233.747
235.594
237.302
246.937
246.719
246.678
246.492
246.423
246.311
245.936
245.679
245.576
245.722
246.895
246.718
246.673
246.494
246.423
246.323
245.945
245.66
245.382
245.74
246.867
246.714
246.664
246.489
246.415
246.325
245.943
245.602
245.142
245.821
246.848
246.707
246.652
246.476
246.401
246.319
245.928
245.508
244.922
246.005
246.836
246.698
246.635
246.457
246.38
246.304
245.899
245.397
244.787
246.242
246.83
246.687
246.617
246.433
246.355
246.275
245.86
245.304
244.761
246.351
246.828
246.672
246.597
246.405
246.324
246.235
245.823
245.253
244.809
246.019
246.832
246.653
246.575
246.375
246.288
246.191
245.807
245.258
244.831
244.783
246.841
246.631
246.551
246.342
246.25
246.158
245.84
245.336
244.654
242.007
246.859
246.606
246.521
246.306
246.216
246.153
245.944
245.463
243.976
237.292
246.897
246.578
246.48
246.248
246.15
246.081
245.875
245.137
242.445
233.743
247.012
246.557
246.44
246.194
246.094
246.116
246.068
245.335
242.179
231.801
247.253
246.562
246.402
246.114
246.017
246.076
246.056
245.234
241.883
230.535
247.703
246.619
246.372
246.028
245.881
245.812
245.609
244.529
240.476
229.314
248.541
246.685
246.396
245.937
245.67
245.307
244.741
243.225
238.006
227.458
250.379
246.752
246.505
245.868
245.378
244.646
243.657
241.569
235.374
224.913
254.258
247.063
246.66
245.812
245.023
243.932
242.561
239.959
233.312
222.585
262.563
248.199
246.935
245.77
244.649
243.242
241.56
238.67
232.075
221.329
280.123
250.934
247.585
245.807
244.295
242.589
240.651
237.739
231.632
221.359
306.094
254.98
249.091
246.021
244.004
241.967
239.766
236.922
231.361
221.886
236.417
221.067
210.445
201.131
190.97
179.666
167.271
153.899
139.854
125.724
230.029
217.735
208.583
199.862
189.924
178.686
166.34
153.089
139.365
125.891
223.495
214.131
205.952
197.424
187.71
176.869
165.117
152.617
139.599
126.422
218.379
210.872
202.88
194.03
184.188
173.423
161.931
149.989
137.926
126.093
212.982
206.588
198.596
189.502
179.833
169.696
159.146
148.279
137.223
126.131
207.385
202.089
194.83
186.359
177.361
167.906
157.986
147.664
137.044
126.257
203.591
199.151
192.561
184.664
176.131
167.045
157.425
147.35
136.94
126.329
202.31
198.051
191.705
184.093
175.78
166.843
157.324
147.321
136.963
126.394
203.636
198.921
192.471
184.886
176.554
167.538
157.901
147.755
137.24
126.508
206.31
200.875
194.138
186.427
177.931
168.699
158.817
148.413
137.637
126.645
112.191
112.361
112.446
112.297
111.79
111.429
111.245
111.529
111.522
111.273
89.6166
90.0799
90.2986
89.865
88.433
87.3466
86.7257
87.3873
87.425
86.8384
68.7735
69.4012
69.6626
68.9958
67.0564
65.3447
64.3244
64.8732
65.1776
64.6224
50.6557
51.2622
51.4519
50.6288
48.6497
46.4836
45.1536
45.189
45.9274
45.694
36.0105
36.4189
36.4693
35.588
33.7961
31.4801
29.8363
29.2711
30.0787
30.2664
24.9582
25.0617
24.9397
24.0166
22.439
20.4096
18.6187
17.6771
17.9322
18.4322
17.0718
16.9214
16.7067
15.7157
14.3013
12.7979
11.3104
10.2454
9.90566
10.2721
11.5848
11.4079
11.3595
10.3601
9.04108
8.0392
7.14769
6.3049
5.7164
5.63253
7.91064
7.82245
8.11851
7.25061
6.08452
5.49409
5.16546
4.78101
4.29708
3.91722
6.04161
5.83674
6.22228
5.48438
4.615
4.33914
4.36345
4.35432
4.20183
3.80574
5.27411
5.03737
5.11989
4.42551
3.89338
3.83753
3.98768
4.13064
4.25185
4.3085
4.84652
4.73745
4.46023
3.79394
3.50835
3.59606
3.79961
3.96738
4.08719
4.17343
4.46758
4.42284
3.9911
3.44069
3.32109
3.48437
3.70943
3.8883
4.00633
4.06666
4.01274
3.95776
3.55169
3.20061
3.21098
3.41464
3.62777
3.7852
3.88382
3.92513
3.46426
3.37096
3.09811
2.97881
3.096
3.31306
3.50333
3.64105
3.72238
3.74611
2.81245
2.71851
2.6598
2.75075
2.94777
3.15232
3.31822
3.43772
3.50469
3.51811
2.08897
2.10616
2.2418
2.47692
2.71283
2.91148
3.06683
3.18064
3.24703
3.26255
1.4165
1.53487
1.78661
2.07997
2.33625
2.55087
2.72698
2.86592
2.95364
2.98179
0.739732
0.874176
1.14927
1.47893
1.78948
2.06182
2.29988
2.48515
2.59011
2.62777
0.0671671
-0.0182273
0.217553
0.630192
1.05166
1.4349
1.75992
1.97533
2.07858
2.14192
3.66226
3.70583
3.57532
3.24879
2.59662
1.90476
1.30869
0.833432
0.448742
0.0830121
3.73476
3.67922
3.52456
3.23273
2.55715
1.84883
1.25738
0.796895
0.425101
0.0804697
3.76091
3.5727
3.41234
3.17837
2.51309
1.79623
1.20928
0.763123
0.403955
0.0800389
3.72141
3.39585
3.25903
3.07546
2.4557
1.74526
1.16441
0.732254
0.385532
0.0813206
3.61312
3.18723
3.09029
2.92143
2.37304
1.69136
1.12207
0.704255
0.370054
0.0844673
3.44934
2.98926
2.92938
2.73682
2.25879
1.63059
1.08198
0.679488
0.357916
0.0896232
3.25577
2.82203
2.78561
2.55375
2.11586
1.55921
1.04346
0.658282
0.349533
0.0968095
3.04881
2.68547
2.65963
2.39653
1.95963
1.47442
1.00502
0.640597
0.345201
0.105907
2.827
2.57506
2.54711
2.27231
1.81157
1.37745
0.964324
0.625867
0.345027
0.116643
2.58327
2.4935
2.44169
2.17495
1.68643
1.2765
0.919077
0.612859
0.348832
0.128576
5.42363
3.97707
3.27811
2.8978
2.41515
1.89016
1.38481
0.927475
0.540094
0.127385
4.61979
3.75658
3.31456
2.95935
2.45618
1.89926
1.37221
0.908568
0.517039
0.114811
3.94979
3.66472
3.3756
3.02916
2.49589
1.90745
1.36108
0.891756
0.499409
0.103971
3.62992
3.66533
3.46135
3.10984
2.53747
1.91542
1.35056
0.876331
0.484108
0.0952178
3.61523
3.70865
3.56344
3.20265
2.58376
1.92364
1.33934
0.860721
0.469291
0.088403
112.022
88.9552
67.904
50.1322
36.1172
25.7967
18.6266
13.751
10.5689
8.75467
111.801
88.3928
67.1977
49.3977
35.3149
24.7924
17.3228
12.2174
9.07452
7.57426
111.615
87.9124
66.5593
48.657
34.4036
23.6197
15.9024
10.6825
7.53773
6.07958
111.405
87.3386
65.7188
47.5921
33.0788
22.0254
14.1306
8.89768
5.81207
4.43634
111.15
86.6104
64.5894
46.1188
31.2785
19.9575
11.9617
6.9252
4.44212
3.62635
243.771
243.81
243.929
244.101
244.313
244.322
243.817
243.115
243.219
242.996
243.984
244.056
244.169
244.359
244.629
244.804
244.585
243.935
243.679
243.572
244.18
244.228
244.341
244.538
244.823
245.085
245.059
244.552
244.124
244.074
244.422
244.455
244.553
244.727
244.985
245.275
245.381
245.111
244.724
244.657
244.697
244.715
244.797
244.946
245.162
245.428
245.632
245.634
245.469
245.378
244.99
245.003
245.072
245.195
245.368
245.599
245.871
246.114
246.22
246.209
245.265
245.283
245.366
245.501
245.678
245.908
246.21
246.572
246.877
247.001
245.552
245.569
245.666
245.858
246.113
246.414
246.775
247.189
247.556
247.737
245.934
245.963
246.039
246.262
246.634
247.088
247.595
248.117
248.463
248.425
246.328
246.438
246.539
246.729
247.129
247.7
248.303
248.856
249.209
249.004
136.505
136.246
136.223
136.486
136.268
135.87
135.328
135.157
135.228
135.393
160.955
160.359
160.38
161.018
160.365
159.242
157.778
157.322
157.528
157.986
183.2
182.634
182.921
183.444
182.393
180.648
178.679
177.991
178.239
178.862
202.167
201.921
202.639
202.65
201.291
199.094
197.087
196.243
196.421
197.023
217.638
217.812
218.597
218.009
216.341
213.996
212.175
211.273
211.312
211.717
229.518
230
230.23
229.27
227.462
225.406
223.796
222.85
222.717
222.818
237.717
238.054
237.691
236.617
235.125
233.597
232.146
231.13
230.905
230.753
242.373
242.253
241.644
240.81
239.931
238.913
237.56
236.534
236.475
236.298
244.097
243.679
243.186
242.827
242.53
241.944
240.754
239.858
240.144
240.06
244.237
243.811
243.658
243.679
243.751
243.508
242.634
241.872
242.258
242.068
254.848
246.873
247.501
246.286
246.036
245.529
244.998
244.636
244.506
244.544
252.014
246.809
247.315
246.264
246.089
245.592
245.014
244.669
244.582
244.516
250.092
246.816
247.092
246.26
246.144
245.66
245.057
244.762
244.752
244.548
248.904
246.844
246.879
246.279
246.202
245.734
245.138
244.916
244.982
244.654
248.218
246.847
246.74
246.317
246.259
245.818
245.266
245.108
245.224
244.825
247.77
246.805
246.703
246.367
246.312
245.911
245.434
245.297
245.432
245.032
247.455
246.751
246.702
246.412
246.358
246.014
245.61
245.452
245.588
245.243
247.239
246.723
246.694
246.447
246.391
246.12
245.758
245.563
245.688
245.438
247.095
246.717
246.685
246.471
246.407
246.212
245.858
245.633
245.727
245.597
247
246.718
246.681
246.485
246.417
246.277
245.912
245.669
245.693
245.692
317.352
253.757
249.911
246.973
246.141
245.569
245.253
244.933
244.24
242.723
295.619
251.368
248.789
246.741
246.058
245.54
245.208
244.903
244.453
243.525
277.178
249.212
248.192
246.567
246.018
245.522
245.159
244.846
244.535
244.198
265.776
247.867
247.868
246.437
245.999
245.51
245.101
244.764
244.526
244.526
259.004
247.136
247.646
246.328
245.997
245.503
245.033
244.661
244.48
244.559
239.303
237.453
234.238
229.33
222.128
211.774
197.723
179.918
158.842
135.76
240.485
238.95
235.775
230.639
223.136
212.579
198.46
180.626
159.405
135.982
241.998
240.501
237.32
232.067
224.315
213.495
199.203
181.266
159.886
136.168
243.66
242.255
239.127
233.852
225.918
214.824
200.271
182.108
160.46
136.378
244.45
243.612
241.11
236.039
227.996
216.629
201.746
183.237
161.188
136.631
)
;

boundaryField
{
    left
    {
        type            zeroGradient;
    }
    right
    {
        type            fixedValue;
        value           uniform 0;
    }
    down
    {
        type            zeroGradient;
    }
    up
    {
        type            zeroGradient;
    }
    cylinder
    {
        type            zeroGradient;
    }
    defaultFaces
    {
        type            empty;
    }
}


// ************************************************************************* //
