/*--------------------------------*- C++ -*----------------------------------*\
  =========                 |
  \\      /  F ield         | OpenFOAM: The Open Source CFD Toolbox
   \\    /   O peration     | Website:  https://openfoam.org
    \\  /    A nd           | Version:  13
     \\/     M anipulation  |
\*---------------------------------------------------------------------------*/
FoamFile
{
    format      ascii;
    class       surfaceScalarField;
    location    "0.05";
    object      phi;
}
// * * * * * * * * * * * * * * * * * * * * * * * * * * * * * * * * * * * * * //

dimensions      [0 3 -1 0 0 0 0];

internalField   nonuniform List<scalar> 
823
(
0.011127
-0.0509246
0.0397976
0.037877
-0.13427
0.10752
0.0769513
-0.207024
0.167949
0.126923
-0.270193
0.220221
-0.324491
0.262171
0.189243
0.0105359
-0.0614605
0.0355413
-0.159275
0.0713662
-0.242849
0.115799
-0.314626
-0.375874
0.167182
0.00826664
-0.0697272
0.0278878
-0.178896
0.0559039
-0.270865
0.0904799
-0.349202
-0.415807
0.130413
0.00522983
-0.074957
0.0177495
-0.191416
0.0357391
-0.288854
0.0581245
-0.371587
-0.441914
0.0842312
0.0019241
-0.0768811
0.00649822
-0.19599
0.0130286
-0.295385
0.021116
-0.379674
0.0305116
-0.45131
0.00445687
-0.0134662
0.00900937
0.0176398
-0.0377575
0.0245746
0.0397101
-0.0587344
0.0366642
0.068891
-0.0756577
0.0464767
-0.0889424
0.103212
0.0546214
0.00480568
-0.0182719
0.0184369
-0.0513887
0.0412472
-0.0815448
0.0724658
-0.106876
-0.126662
0.110185
0.00592872
-0.0242006
0.0217963
-0.0672562
0.0470208
-0.106769
0.0810719
-0.140927
-0.168148
0.122558
0.00717838
-0.031379
0.0256812
-0.085759
0.0540065
-0.135095
0.0911721
-0.178093
-0.213131
0.136155
0.00841864
0.0301791
0.0630338
0.105162
0.154202
0.33149
-1.02904
0.800762
0.444972
-0.667815
0.554333
0.481122
-0.295409
0.259258
0.488139
-0.124685
0.117668
-0.0261453
0.0321612
0.329955
-1.24881
0.446192
-0.784052
0.48439
-0.333606
0.492055
-0.13235
-0.0220005
0.325394
-1.45164
0.440781
-0.89944
0.482869
-0.375694
0.493769
-0.14325
-0.0223448
0.321237
-1.63673
0.431626
-1.00983
0.477139
-0.421207
0.493176
-0.159287
-0.0296741
0.311377
-1.7939
0.416154
-1.11461
0.466279
-0.471332
0.490099
-0.183107
-0.0463992
1.12919
-1.58814
-1.33495
0.926374
-0.911786
0.831069
-0.376026
0.794229
-0.146267
-0.0374657
1.28272
-1.10742
-1.76345
0.984137
-0.613199
0.857181
-0.24907
0.807449
-0.0965352
-0.0246916
1.18973
-0.59633
-1.70081
0.893452
-0.316923
0.777292
-0.132911
0.729251
-0.0484935
-0.0118287
0.817213
-0.182352
-1.23119
0.589492
-0.0892017
0.495279
-0.0386974
0.46112
-0.014335
-0.00346468
0.304964
-0.487316
0.215762
0.177065
0.16273
1.56184
0.0458801
-1.57721
1.5201
0.125972
1.46027
0.190243
1.39308
0.234375
0.247372
1.65676
0.0352371
-1.64611
1.68069
0.102032
1.71183
0.159109
1.74439
0.201811
0.228315
1.37361
0.0181947
-1.35657
1.42264
0.0530056
1.49951
0.0822414
1.59597
0.105348
0.123469
0.965733
0.0052394
-0.952777
1.00349
0.0152518
1.06288
0.0228515
1.14049
0.0277362
0.0327659
0.388711
-0.383471
0.403962
0.426814
0.45455
0.126041
0.327938
-0.2661
-0.18788
0.0765023
0.273846
-0.224307
0.0377099
0.210487
-0.171695
0.0110976
0.137038
-0.110425
0.052257
-0.0411595
0.114041
0.378543
-0.164646
0.070302
0.317585
0.0350235
0.245765
0.0103848
0.161676
0.0626419
0.087809
0.417603
-0.126868
0.0541304
0.351263
0.026941
0.272955
0.00796283
0.180654
0.0706047
0.0548768
0.442802
-0.0800757
0.0335022
0.372638
0.0165141
0.289943
0.00482225
0.192346
0.0754269
0.0175754
-0.0260832
0.0105392
0.00509765
0.00145414
0.0701458
0.0939781
-0.105317
-0.0588065
0.0402209
0.080595
-0.0506702
0.0176966
0.0630454
-0.0405211
0.00442306
0.0407479
-0.0274744
0.0146888
-0.0102658
0.0728998
0.132017
-0.110939
0.0414411
0.112054
0.0185495
0.0859369
0.00486493
0.0544324
0.0195537
0.0809546
0.173328
-0.122265
0.047048
0.14596
0.021914
0.111071
0.00600188
0.0703446
0.0255556
0.0905562
0.217769
-0.134997
0.0537967
0.18272
0.0256936
0.139174
0.00722164
0.0888165
0.0327773
0.104099
-0.15243
0.0625115
0.029991
0.00838222
0.458587
0.170361
-0.232968
0.473882
0.202092
-0.217388
0.445452
0.32164
-0.29321
0.336733
0.669051
-0.560332
1.05516
-0.82375
0.454889
0.111451
0.472576
0.184406
0.444173
0.350043
0.332665
0.780558
1.27689
0.452225
0.0552057
0.468445
0.168186
0.436654
0.381834
0.325206
0.892006
1.47983
0.45026
0.000925153
0.462095
0.156352
0.426098
0.417831
0.318776
0.999327
1.66361
0.44952
-0.0526151
0.451941
0.153931
0.409842
0.459929
0.307047
1.10212
1.81823
0.733749
-0.182344
0.807048
0.080632
0.907809
0.359168
1.11536
0.894574
1.59445
1.33914
0.757675
-0.335999
0.838953
-0.000645804
0.966324
0.231797
1.26211
0.598786
1.10542
1.75114
0.724912
-0.45689
0.790965
-0.0666986
0.894766
0.127996
1.18167
0.311882
0.594102
1.69299
0.515138
-0.368008
0.505197
-0.0567571
0.593189
0.0400035
0.817139
0.0879314
0.181862
1.22938
0.236013
0.179255
0.219259
0.30719
0.489052
1.39675
-0.245491
1.46147
-0.229367
1.5201
-0.185503
1.56166
-0.12163
-0.0416381
1.73295
-0.2273
1.70207
-0.198483
1.67328
-0.156719
1.65261
-0.100963
-0.0351353
1.5896
-0.123914
1.49591
-0.104793
1.42099
-0.0818016
1.37307
-0.0530394
-0.0186345
1.13885
-0.033386
1.06208
-0.0280217
1.00331
-0.0230275
0.965789
-0.0155231
-0.00562273
0.455666
0.427644
0.404617
0.389094
0.00267767
0.0471318
-0.0498095
0.00780687
0.109707
-0.114836
0.016847
0.159163
-0.168203
0.0176846
0.162968
-0.163806
0.123829
0.016033
-0.122177
0.00735819
0.0397736
0.021612
0.0954532
0.0432161
0.137559
0.0512335
0.154951
0.125755
0.0493075
0.00966156
0.0301121
0.0293972
0.0757175
0.0559654
0.110991
0.077686
0.13323
0.122988
0.080453
0.00872941
0.0213827
0.0281291
0.0563178
0.0542851
0.084835
0.083582
0.103933
0.107914
0.0986557
0.00566886
0.0157138
0.0198081
0.0421786
0.0405134
0.0641296
0.0658588
0.0785878
0.0843426
0.0894304
0.00391825
0.0117955
0.0147292
0.0313676
0.0326865
0.0461722
0.0558341
0.0554402
0.0600248
0.080152
0.0031958
0.00859973
0.0135776
0.0209857
0.0316164
0.0281335
0.054931
0.0321256
0.0339646
0.0809912
0.00429818
0.00430154
0.0180058
0.00727811
0.0383732
0.00776616
0.0631036
0.00739517
0.00628833
0.09078
0.00739093
-0.00308936
0.0240051
-0.00933603
0.0459661
-0.0141948
0.0720976
-0.0187364
-0.0230052
0.101391
0.00592006
0.0211587
0.0436281
0.0713686
0.102985
0.183998
0.00466732
-0.108514
0.273817
-0.132168
0.0423493
0.311962
-0.0823608
0.0442162
0.3381
-0.0474688
0.0213301
-0.0229926
0.00630226
0.250733
-0.165074
0.354287
-0.235722
0.403177
-0.131251
0.429913
-0.0742048
-0.0350995
0.289288
-0.363581
0.39429
-0.340724
0.4433
-0.180261
0.464249
-0.0951536
-0.0392892
0.314273
-0.576463
0.41916
-0.445612
0.460905
-0.222005
0.474468
-0.108717
-0.0374126
0.327284
0.436006
0.473259
0.48221
0.0737948
0.0415179
-0.115313
0.0838568
-0.0100619
0.0969801
-0.0131233
0.102875
-0.00589472
-0.00166456
0.217349
-0.284344
0.249636
0.28073
0.296165
0.0228329
-0.00473001
-0.0181029
0.0374754
-0.0146425
0.061287
-0.0238116
0.0912099
-0.0299229
-0.0241028
0.0589773
-0.0476744
0.0936424
0.150284
0.219017
0.0561983
-0.059677
0.0841641
-0.0806854
0.0328176
-0.0551394
0.0785201
0.0146927
-0.0461058
0.0642306
0.00387391
-0.0315218
0.0423406
-0.011937
0.0158109
0.0570681
-0.0329738
-0.0837713
0.0330702
-0.0311418
0.0143032
-0.0273388
0.00335327
-0.020572
-0.00858376
0.0670277
-0.00441214
-0.0955894
0.04136
-0.00547414
0.0199865
-0.00596536
0.00519449
-0.00578003
-0.00338932
0.0758932
0.0259925
-0.106298
0.048632
0.0217869
0.025582
0.0170846
0.00802131
0.0117806
0.00463194
0.0736478
-0.106462
0.0447643
0.0213277
0.00563387
0.0176872
-0.123824
-0.0160411
0.0168346
-0.162953
0.00777806
-0.159147
0.00266152
-0.10972
-0.047148
0.051236
-0.125732
-0.0493276
0.0431819
-0.154899
0.0215901
-0.137555
0.0073473
-0.0954769
-0.0398007
0.0776751
-0.12291
-0.0804968
0.0559309
-0.133155
0.0293801
-0.111004
0.00965591
-0.0757526
-0.0301448
0.0834533
-0.107748
-0.098616
0.0541769
-0.103878
0.0280644
-0.0848918
0.00870866
-0.0563969
-0.0214361
0.0657012
-0.0892847
0.0403427
0.0196815
0.00562522
0.379979
0.514599
-0.498598
0.335186
0.175457
-0.130664
0.281642
0.102496
-0.0489518
0.188823
0.140187
-0.0473686
0.00311221
0.105026
0.458369
0.45221
0.427284
0.206541
0.364406
0.165375
0.258248
0.246345
0.177588
0.47444
0.373749
0.456984
0.223996
0.403431
0.218928
0.297847
0.351929
0.379846
0.46927
0.300459
0.467074
0.226192
0.42567
0.260332
0.322382
0.455217
0.59593
0.46347
0.472275
0.439397
0.334282
0.164648
0.345403
0.0990181
0.0656295
0.0877192
0.0112989
0.0750978
0.0126213
-0.0403258
0.115424
0.356856
0.291822
0.254168
0.219421
0.28412
0.091259
0.0241646
0.0613245
0.0299344
0.0374895
0.023835
0.0228369
0.0146526
0.00473403
0.219
0.150318
0.0936563
0.0589815
)
;

boundaryField
{
    left
    {
        type            calculated;
        value           nonuniform List<scalar> 
17
(
-0.60402
-0.60402
-0.60402
-0.60402
-0.60402
-0.39598
-0.39598
-0.39598
-0.39598
-0.39598
-0.39598
-0.39598
-0.39598
-0.39598
-0.39598
-0.510051
-0.510051
)
;
    }
    right
    {
        type            calculated;
        value           nonuniform List<scalar> 
17
(
0.104539
0.300803
0.354791
0.44202
0.468439
0.472591
0.476959
0.482123
0.487911
0.494113
0.500506
0.506824
0.785295
0.794675
0.716388
0.452756
0.159265
)
;
    }
    down
    {
        type            calculated;
        value           uniform 0;
    }
    up
    {
        type            calculated;
        value           uniform 0;
    }
    cylinder
    {
        type            calculated;
        value           uniform 0;
    }
    defaultFaces
    {
        type            empty;
    }
}


// ************************************************************************* //
