/*--------------------------------*- C++ -*----------------------------------*\
  =========                 |
  \\      /  F ield         | OpenFOAM: The Open Source CFD Toolbox
   \\    /   O peration     | Website:  https://openfoam.org
    \\  /    A nd           | Version:  13
     \\/     M anipulation  |
\*---------------------------------------------------------------------------*/
FoamFile
{
    format      ascii;
    class       volVectorField;
    location    "0.05";
    object      U;
}
// * * * * * * * * * * * * * * * * * * * * * * * * * * * * * * * * * * * * * //

dimensions      [0 1 -1 0 0 0 0];

internalField   nonuniform List<vector> 
440
(
(0.220601 -0.178603 -1.70042e-19)
(0.61754 -0.442198 1.03755e-18)
(0.989539 -0.650095 3.02366e-19)
(1.33224 -0.808282 1.47633e-18)
(1.63582 -0.931802 -2.83831e-19)
(0.306333 -0.178596 -5.47622e-19)
(0.821737 -0.431373 -9.74931e-19)
(1.28265 -0.623357 1.72689e-19)
(1.69367 -0.767952 -1.25939e-18)
(2.05388 -0.882707 -1.06766e-18)
(0.385648 -0.152781 -7.02572e-19)
(1.00574 -0.364138 1.48893e-18)
(1.54035 -0.520314 -1.86191e-18)
(2.00432 -0.635434 1.69266e-18)
(2.4042 -0.725038 1.34913e-18)
(0.446151 -0.102859 5.73414e-19)
(1.146 -0.243479 -1.28064e-18)
(1.73651 -0.345564 -8.54484e-19)
(2.24104 -0.419378 1.89854e-18)
(2.67144 -0.476083 2.60751e-18)
(0.479231 -0.0361848 6.98334e-19)
(1.22281 -0.0849152 1.81142e-19)
(1.84407 -0.119727 2.54313e-18)
(2.37127 -0.144473 -1.11179e-18)
(2.81927 -0.163408 -5.11279e-19)
(-0.0015044 -0.0701051 5.81277e-20)
(0.0413864 -0.193542 3.78395e-20)
(0.0975967 -0.293101 1.20928e-18)
(0.163899 -0.369583 -2.54153e-19)
(0.233098 -0.430251 -2.63617e-18)
(0.0176186 -0.0966989 -3.25745e-19)
(0.09097 -0.262942 -8.82501e-19)
(0.175355 -0.40804 -7.58413e-21)
(0.269027 -0.5215 -7.43144e-21)
(0.364363 -0.605082 1.08076e-19)
(0.0483213 -0.122571 2.26553e-19)
(0.17224 -0.327524 8.66127e-19)
(0.303835 -0.50885 2.59276e-19)
(0.440355 -0.654364 1.03165e-18)
(0.574122 -0.758723 -1.82106e-20)
(0.0910707 -0.146568 7.11489e-20)
(0.28399 -0.384034 -1.08103e-19)
(0.478619 -0.590323 4.14536e-19)
(0.670724 -0.756433 -1.65295e-18)
(0.852084 -0.873841 9.39684e-19)
(0.14553 -0.165174 -2.50001e-19)
(0.426343 -0.422798 -4.29194e-19)
(0.698845 -0.638021 -6.38658e-19)
(0.957667 -0.805627 7.96714e-19)
(1.19097 -0.919652 3.04386e-18)
(0.593316 -0.6381 -1.11068e-18)
(0.977967 -0.425029 -1.29913e-18)
(1.13598 -0.196407 -1.0644e-19)
(1.19066 -0.0878405 -2.48014e-19)
(1.21741 -0.0238528 -1.52197e-19)
(0.770703 -0.796455 3.36959e-18)
(1.03613 -0.507422 1.42755e-19)
(1.18004 -0.226007 -3.65095e-19)
(1.21538 -0.0983675 -4.35186e-19)
(1.23206 -0.0264024 2.73207e-19)
(1.01726 -0.932458 3.74187e-19)
(1.13007 -0.584774 -1.15009e-19)
(1.22602 -0.252515 2.6932e-19)
(1.24254 -0.106452 -3.63972e-19)
(1.24776 -0.0282031 -1.72432e-19)
(1.31238 -1.03838 1.97621e-18)
(1.27721 -0.645498 -7.50121e-20)
(1.27731 -0.272917 7.80391e-20)
(1.27131 -0.111408 4.17815e-19)
(1.26394 -0.0291422 -1.29953e-19)
(1.61476 -1.08969 -2.43084e-19)
(1.44515 -0.686762 1.19916e-18)
(1.33166 -0.290791 0)
(1.2994 -0.113352 -1.20774e-19)
(1.27993 -0.0290911 7.10226e-20)
(2.12892 -1.12656 -2.07687e-18)
(1.69233 -0.66561 -1.00346e-18)
(1.43982 -0.273468 7.1461e-20)
(1.34067 -0.10435 -3.46925e-19)
(1.30018 -0.0264681 -2.16923e-19)
(2.56626 -0.88575 -1.6749e-18)
(1.84155 -0.50618 2.33451e-18)
(1.50114 -0.206953 7.59658e-20)
(1.37173 -0.079798 1.88085e-19)
(1.31575 -0.0201177 0)
(2.46186 -0.513333 -7.26144e-18)
(1.65769 -0.269889 -1.89539e-19)
(1.36324 -0.115228 1.99028e-18)
(1.24201 -0.0461178 -2.84727e-19)
(1.18631 -0.0120224 3.96114e-20)
(1.74591 -0.210645 7.25698e-18)
(1.1042 -0.103051 1.57491e-18)
(0.87042 -0.0427094 3.9303e-19)
(0.785152 -0.0162151 4.84109e-33)
(0.750106 -0.00433822 -3.42334e-19)
(0.677263 -0.000569157 1.80862e-18)
(0.402725 0.0197952 8.31097e-19)
(0.31382 0.0102072 -2.17863e-19)
(0.279154 0.00553408 1.57782e-19)
(0.264243 0.00224081 -6.68192e-20)
(3.58102 -0.169231 1.32643e-17)
(3.41434 -0.50385 -1.07736e-17)
(3.13217 -0.788963 7.25577e-18)
(2.7747 -1.00012 2.40811e-18)
(2.32809 -1.10994 -4.58627e-19)
(3.74015 -0.101805 1.04434e-17)
(3.67589 -0.317303 -6.67961e-19)
(3.53884 -0.541456 -4.29654e-18)
(3.3403 -0.771973 2.67392e-18)
(3.06299 -1.00134 -6.63879e-19)
(3.08243 -0.0603019 3.72857e-18)
(3.06679 -0.180039 -2.56269e-18)
(3.02938 -0.305857 5.13044e-18)
(2.97112 -0.438269 -1.57364e-19)
(2.89988 -0.584161 -5.02154e-18)
(2.16404 -0.0273608 2.84121e-18)
(2.15708 -0.0823217 8.59063e-18)
(2.13826 -0.141866 -6.71888e-19)
(2.10861 -0.203444 -6.81565e-18)
(2.08915 -0.263436 2.03618e-18)
(0.869853 -0.00179043 5.28132e-18)
(0.866913 -0.00508749 -1.20562e-19)
(0.857942 -0.00928859 -3.10069e-20)
(0.841498 -0.0158169 -2.06085e-18)
(0.832762 -0.0223975 -3.70563e-18)
(1.65226 0.949294 2.39177e-18)
(1.34976 0.825645 -1.13179e-19)
(1.00642 0.665538 -1.45112e-19)
(0.631136 0.453959 -1.67692e-19)
(0.22722 0.183987 -1.40579e-19)
(2.06716 0.896817 -1.28678e-18)
(1.70953 0.781801 -1.43696e-18)
(1.29887 0.635652 6.67415e-19)
(0.835383 0.440677 -4.9962e-19)
(0.313181 0.182793 -1.45667e-20)
(2.4142 0.73729 -5.55851e-19)
(2.01693 0.646642 5.40771e-19)
(1.55376 0.529692 2.37748e-18)
(1.01741 0.370767 7.99438e-19)
(0.391671 0.155481 5.35716e-19)
(2.67724 0.48672 9.13161e-20)
(2.2489 0.428294 -2.35051e-19)
(1.74522 0.352338 -6.89454e-19)
(1.1538 0.247662 2.0545e-18)
(0.450267 0.104156 -3.32094e-19)
(2.82113 0.173307 -1.18654e-18)
(2.37394 0.152231 -1.63699e-18)
(1.8471 0.125105 -7.36219e-19)
(1.22556 0.0877301 8.06839e-19)
(0.4807 0.0366713 -3.29994e-19)
(0.239326 0.459325 -3.2305e-18)
(0.168467 0.39858 -2.33315e-18)
(0.100275 0.31908 3.14403e-19)
(0.0424255 0.211801 4.8303e-20)
(-0.000926957 0.0776092 1.06522e-19)
(0.37363 0.636926 -7.76931e-19)
(0.277267 0.552616 -7.7665e-19)
(0.181926 0.434603 1.20314e-19)
(0.0954865 0.281115 -6.77681e-20)
(0.0198979 0.104154 5.16551e-20)
(0.586723 0.789616 2.36169e-18)
(0.452503 0.684268 7.16095e-20)
(0.314325 0.534066 -6.61487e-20)
(0.179935 0.345143 -2.65175e-19)
(0.0520033 0.129975 1.58382e-19)
(0.866787 0.901254 -1.19833e-18)
(0.685724 0.783093 1.72039e-18)
(0.492188 0.613071 -1.47058e-19)
(0.294374 0.400483 1.48296e-19)
(0.0960321 0.153734 -1.44582e-19)
(1.20567 0.941696 -4.87913e-19)
(0.973658 0.827561 -4.95623e-19)
(0.713954 0.657186 3.13336e-19)
(0.438362 0.437063 3.48421e-19)
(0.151368 0.171571 1.89051e-21)
(0.745832 0.141844 -1.57096e-18)
(1.30016 0.149508 -3.64271e-20)
(1.12524 0.21724 5.08567e-20)
(0.990721 0.427721 -3.53249e-18)
(0.604051 0.655186 1.14259e-18)
(0.740575 0.102873 6.12831e-19)
(1.30931 0.143807 1.30901e-18)
(1.16216 0.240578 8.17873e-19)
(1.04521 0.506746 4.89025e-19)
(0.778397 0.815228 9.2721e-19)
(0.735149 0.0645701 -1.10075e-19)
(1.32767 0.133768 -7.10319e-20)
(1.20258 0.259916 -2.68377e-19)
(1.13328 0.581208 7.16318e-19)
(1.02282 0.951619 -6.07652e-19)
(0.729764 0.0261978 -6.26946e-20)
(1.35385 0.120344 -1.75106e-18)
(1.24909 0.273393 -4.81588e-19)
(1.27399 0.639155 -1.59989e-18)
(1.316 1.05647 1.05851e-18)
(0.724879 -0.0107147 2.90518e-19)
(1.38762 0.104147 1.97139e-19)
(1.299 0.285918 2.60155e-19)
(1.43494 0.679668 2.42769e-18)
(1.61581 1.10636 -3.52713e-18)
(0.727732 -0.0679183 1.11392e-18)
(1.43546 0.074815 7.92062e-19)
(1.39921 0.261155 -5.72382e-19)
(1.67041 0.651675 6.03853e-18)
(2.1188 1.13479 -6.14606e-18)
(0.742604 -0.158142 -7.59241e-20)
(1.48307 0.0303142 -2.49528e-19)
(1.46847 0.19383 7.71305e-20)
(1.81319 0.496731 -2.90029e-18)
(2.53475 0.88756 1.69933e-18)
(0.740336 -0.332145 4.87337e-18)
(1.39977 -0.0304905 3.01184e-35)
(1.37326 0.110258 -1.81559e-18)
(1.64934 0.265972 3.0097e-18)
(2.44835 0.51361 5.30032e-18)
(0.623965 -0.279663 2.12861e-19)
(0.899356 -0.0559578 6.7011e-20)
(0.876722 0.0380026 4.15926e-19)
(1.10477 0.100509 7.57648e-19)
(1.74706 0.208543 -9.00073e-18)
(0.318618 -0.0395305 -4.08872e-18)
(0.344148 -0.00838352 7.62149e-20)
(0.317457 -0.00113026 9.96957e-19)
(0.406206 -0.0198211 -8.63977e-19)
(0.68208 0.000446101 -1.51354e-18)
(2.33832 1.12194 4.72701e-18)
(2.77707 1.01203 3.53216e-18)
(3.13302 0.802246 -5.98993e-18)
(3.41374 0.517956 -1.52163e-17)
(3.58049 0.184302 1.64988e-17)
(3.04299 0.998186 4.95552e-18)
(3.31842 0.778916 2.5729e-17)
(3.52081 0.548103 7.3271e-18)
(3.66224 0.322295 -3.10272e-17)
(3.73488 0.106126 -5.17771e-18)
(2.88601 0.580012 -7.54878e-18)
(2.96172 0.439388 -3.51565e-18)
(3.02424 0.306692 -6.62375e-18)
(3.06459 0.179028 -7.0426e-18)
(3.08195 0.0575383 6.64693e-18)
(2.08493 0.259218 5.5689e-18)
(2.10639 0.201548 -4.31988e-19)
(2.13729 0.140685 4.9761e-18)
(2.15698 0.0809098 6.42347e-18)
(2.16415 0.0255435 -5.99493e-18)
(0.834836 0.0217499 -5.73544e-19)
(0.843342 0.0153251 3.58727e-18)
(0.859462 0.00890464 2.49762e-18)
(0.868053 0.00466537 -5.24281e-18)
(0.870294 0.0013198 -3.9156e-20)
(0.308727 0.0224732 5.83479e-19)
(0.712669 0.0438328 -7.89257e-19)
(1.0428 0.0479041 -7.09644e-19)
(1.01646 0.0306662 -1.4833e-18)
(0.760095 0.0184679 -6.3458e-19)
(0.269988 0.0600456 8.23854e-19)
(0.64321 0.116317 1.33811e-18)
(0.930345 0.135887 -7.79727e-19)
(1.00776 0.106503 1.92807e-18)
(0.785298 0.0599107 -2.57005e-18)
(0.20512 0.0801522 5.40568e-19)
(0.519592 0.158441 -1.15108e-18)
(0.764575 0.19976 -8.96389e-19)
(0.918877 0.189194 -1.84165e-18)
(0.798777 0.1125 -2.89476e-18)
(0.136488 0.0830599 -6.97189e-19)
(0.37648 0.173431 -1.25036e-18)
(0.579183 0.23149 4.22827e-18)
(0.731396 0.250687 -3.76673e-19)
(0.766447 0.194571 2.10166e-18)
(0.0831102 0.0774883 -5.4394e-19)
(0.251438 0.173059 1.32744e-18)
(0.403822 0.241592 5.60604e-19)
(0.522504 0.27779 -1.16638e-18)
(0.610835 0.279822 -1.92646e-19)
(0.0491806 0.0686886 7.94238e-20)
(0.163693 0.159145 -9.02448e-19)
(0.269352 0.221911 -4.24166e-19)
(0.35589 0.245149 -4.11765e-19)
(0.415914 0.238664 3.74409e-20)
(0.0264514 0.0581095 2.30412e-19)
(0.103422 0.132267 9.69795e-20)
(0.174401 0.1711 -3.84108e-19)
(0.237199 0.180168 1.62211e-20)
(0.290296 0.172301 1.91643e-20)
(0.0122224 0.0433567 8.97137e-20)
(0.0654185 0.0788024 3.06421e-18)
(0.114361 0.0795748 -2.14776e-18)
(0.164442 0.0684814 -3.68573e-18)
(0.212481 0.0514096 9.14284e-19)
(0.0112216 0.00423555 -5.86781e-19)
(0.045082 -0.0165041 -2.3752e-18)
(0.0856369 -0.0396785 4.08799e-18)
(0.133577 -0.0664499 2.27385e-18)
(0.18265 -0.0950023 -3.92556e-19)
(-0.00747696 -0.0424047 5.01396e-20)
(0.0278627 -0.115296 -3.24843e-19)
(0.0727423 -0.16744 1.1759e-19)
(0.12584 -0.213279 5.30692e-20)
(0.181212 -0.2552 -6.77356e-19)
(0.44762 0.0764697 5.92488e-19)
(0.681526 -0.0348565 6.6241e-19)
(0.792595 -0.0329535 1.59892e-19)
(0.858868 -0.0171769 2.85301e-19)
(0.895795 -0.00522877 4.53993e-20)
(0.406048 -0.0556123 4.38258e-19)
(0.804198 -0.115297 -1.30584e-19)
(0.970994 -0.0594148 7.39916e-19)
(1.06441 -0.0290603 1.2196e-19)
(1.11607 -0.00849907 -1.26019e-19)
(0.412104 -0.171413 4.40328e-19)
(0.855542 -0.181546 3.65294e-19)
(1.03231 -0.0939516 -2.16494e-19)
(1.1327 -0.0458924 -5.1089e-19)
(1.18279 -0.0129733 2.22104e-19)
(0.439792 -0.318381 2.02707e-19)
(0.894213 -0.26172 1.08827e-18)
(1.0624 -0.129462 -3.59393e-19)
(1.15036 -0.0608991 -6.1965e-20)
(1.1933 -0.0168863 5.58764e-21)
(0.491791 -0.473771 2.98423e-20)
(0.93424 -0.342526 1.16672e-19)
(1.09625 -0.163847 1.85247e-19)
(1.16893 -0.0751575 2.47117e-19)
(1.20435 -0.0206368 5.99258e-20)
(0.184789 -0.0479219 7.35306e-19)
(0.149293 -0.00604043 0)
(0.180549 0.0034048 9.1279e-20)
(0.197294 0.00259955 1.29513e-19)
(0.204795 0.00102684 -1.39129e-19)
(0.446727 0.0663985 0)
(0.438123 -0.00512346 0)
(0.523681 -0.0140679 6.94652e-19)
(0.568784 -0.00694217 3.68036e-19)
(0.589556 -0.00212778 -2.9675e-20)
(0.179693 -0.00086536 -3.85439e-19)
(0.204985 -0.00141821 3.1114e-18)
(0.232401 -0.00337463 -6.44539e-19)
(0.247012 -0.0122246 -2.9561e-18)
(0.259127 -0.0141729 -6.16591e-19)
(0.474403 0.00515055 6.26721e-19)
(0.529242 0.0226825 4.00028e-18)
(0.581669 0.0532806 -6.27317e-18)
(0.610633 0.0902628 2.22242e-18)
(0.641574 0.174633 4.11147e-18)
(0.415723 -0.237108 -4.30051e-19)
(0.355798 -0.244221 8.58528e-20)
(0.269864 -0.222228 -9.22785e-20)
(0.164341 -0.160138 2.93962e-19)
(0.0496524 -0.0692324 9.35822e-20)
(0.292917 -0.165819 6.44444e-19)
(0.238936 -0.17469 2.08254e-18)
(0.175815 -0.16767 6.33583e-19)
(0.104597 -0.131615 1.39086e-19)
(0.0269216 -0.0585022 -2.78178e-21)
(0.218656 -0.0393917 -7.63404e-19)
(0.168881 -0.0571283 -4.01247e-20)
(0.117411 -0.0699106 2.41302e-18)
(0.0679735 -0.0722071 5.40881e-19)
(0.0132448 -0.0424682 -2.68969e-19)
(0.18908 0.112146 -1.31278e-18)
(0.137722 0.0834787 -1.19015e-18)
(0.0874601 0.0558259 1.76195e-18)
(0.0450465 0.031497 2.23485e-18)
(0.00839653 0.00813867 3.18222e-19)
(0.18608 0.27832 -2.42136e-19)
(0.128372 0.23652 -3.80203e-19)
(0.0728784 0.189139 1.12516e-19)
(0.0256711 0.132028 4.8075e-19)
(-0.00907932 0.0491366 4.68239e-20)
(0.760084 -0.0184257 1.60458e-18)
(1.01644 -0.0306653 -1.77464e-18)
(1.04263 -0.0480675 2.289e-18)
(0.71269 -0.0439138 4.55922e-19)
(0.308773 -0.0224863 5.66684e-19)
(0.785251 -0.059824 1.93645e-18)
(1.00755 -0.106531 7.7648e-18)
(0.930166 -0.136022 1.01471e-18)
(0.643288 -0.116385 1.37584e-18)
(0.270118 -0.0600779 -5.03469e-19)
(0.79856 -0.11234 -1.53278e-18)
(0.9183 -0.189098 -2.21368e-18)
(0.76452 -0.199852 2.84996e-18)
(0.519713 -0.158542 -3.04058e-20)
(0.205293 -0.0802114 2.78057e-19)
(0.765794 -0.194501 1.00857e-19)
(0.730923 -0.250794 -7.81168e-18)
(0.579233 -0.231815 -5.79541e-18)
(0.376683 -0.173732 9.30149e-19)
(0.136713 -0.0831851 4.76604e-19)
(0.609586 -0.279401 5.3476e-19)
(0.522071 -0.277965 4.24844e-19)
(0.403991 -0.242281 -7.90979e-19)
(0.251798 -0.173736 -7.54436e-19)
(0.0834539 -0.0777618 -4.43129e-21)
(0.695066 0.358941 1.05754e-18)
(1.04626 0.098732 -1.86904e-20)
(0.810496 0.0418953 8.59499e-20)
(0.694425 0.0397951 4.23061e-19)
(0.457028 -0.0727375 9.71026e-20)
(0.751799 0.338684 -1.63397e-19)
(1.29231 0.114602 -1.0642e-18)
(0.993827 0.0794959 1.86974e-20)
(0.824076 0.121147 -1.24989e-19)
(0.420294 0.0631742 -3.91956e-19)
(0.758602 0.272144 -2.30055e-18)
(1.33003 0.1296 -9.01592e-20)
(1.04879 0.118763 -3.10365e-20)
(0.876011 0.189014 -1.52874e-19)
(0.429284 0.181325 3.04397e-19)
(0.755648 0.224334 2.41096e-18)
(1.31151 0.143466 1.32634e-19)
(1.07008 0.156057 -4.55967e-21)
(0.911911 0.268848 1.12446e-18)
(0.456359 0.33063 5.56684e-19)
(0.750946 0.18206 4.3149e-19)
(1.3009 0.14978 -3.39775e-19)
(1.09432 0.18892 1.52517e-19)
(0.949334 0.348037 8.44917e-19)
(0.505638 0.488452 4.27178e-19)
(0.271203 0.0468907 0)
(0.269454 -0.00279972 5.11808e-19)
(0.183366 -0.0152597 7.78013e-20)
(0.153536 0.00533781 -2.92264e-19)
(0.186132 0.047111 -1.41548e-18)
(0.5578 0.253822 -9.96206e-18)
(0.70131 0.0632774 -1.63363e-18)
(0.531528 0.0183706 1.4795e-18)
(0.445497 0.007111 2.83676e-19)
(0.448901 -0.064876 2.3405e-19)
(0.259295 0.0142373 9.18374e-20)
(0.24711 0.0123262 1.77407e-18)
(0.232493 0.00342949 5.7051e-19)
(0.205042 0.0014318 2.7958e-19)
(0.17971 0.000870288 0)
(0.641513 -0.174315 -1.02285e-18)
(0.610782 -0.0901746 2.17895e-18)
(0.581702 -0.0531144 -4.77189e-19)
(0.529289 -0.0226273 -4.24849e-19)
(0.474425 -0.00512585 8.11698e-19)
)
;

boundaryField
{
    left
    {
        type            fixedValue;
        value           uniform (1 0 0);
    }
    right
    {
        type            zeroGradient;
    }
    down
    {
        type            noSlip;
    }
    up
    {
        type            noSlip;
    }
    cylinder
    {
        type            noSlip;
    }
    defaultFaces
    {
        type            empty;
    }
}


// ************************************************************************* //
