/*--------------------------------*- C++ -*----------------------------------*\
  =========                 |
  \\      /  F ield         | OpenFOAM: The Open Source CFD Toolbox
   \\    /   O peration     | Website:  https://openfoam.org
    \\  /    A nd           | Version:  13
     \\/     M anipulation  |
\*---------------------------------------------------------------------------*/
FoamFile
{
    format      ascii;
    class       surfaceScalarField;
    location    "37.7";
    object      phi;
}
// * * * * * * * * * * * * * * * * * * * * * * * * * * * * * * * * * * * * * //

dimensions      [0 3 -1 0 0 0 0];

internalField   nonuniform List<scalar> 
823
(
0.00318592
0.0167891
-0.019975
0.0329703
0.000254833
-0.0300392
0.107517
-0.0592948
-0.015252
0.216914
-0.132383
0.0229855
-0.193858
0.0476135
0.363159
0.0099787
0.00681041
0.0723925
-0.062159
0.181403
-0.168305
0.305493
-0.256473
-0.330341
0.441976
0.0293461
-0.0225357
0.127859
-0.160672
0.243239
-0.283685
0.344315
-0.357549
-0.393602
0.407576
0.0526531
-0.0751888
0.152311
-0.26033
0.229148
-0.360522
0.269634
-0.398035
-0.407564
0.283597
0.0628434
-0.138032
0.129823
-0.327309
0.163731
-0.39443
0.176409
-0.410714
0.18551
-0.416665
-0.0182599
0.0912313
-0.0729714
-0.0577164
0.137208
-0.0977513
-0.0958265
0.143867
-0.105757
-0.12346
0.13414
-0.106507
0.112954
-0.144067
-0.0923464
0.0322969
0.0589344
0.0642226
0.105282
0.0940818
0.114008
0.125164
0.103059
0.088203
0.149914
0.0256491
0.0332854
0.0621276
0.0688034
0.0967625
0.0793728
0.127287
0.0725341
0.0600801
0.15541
0.0101752
0.0231102
0.0324167
0.0465619
0.0603535
0.0514361
0.0932286
0.0396589
0.0244102
0.128898
0.00313515
0.0196578
0.0558419
0.118486
0.19051
0.25293
-0.967172
0.570174
0.528254
-1.55386
1.27854
0.446311
1.45661
-1.37466
0.386337
0.695764
-0.635791
-0.48077
0.453147
0.351622
-1.16888
0.383458
-1.5857
0.431358
1.40871
0.410903
0.716219
-0.544668
0.0803167
-1.09379
0.0452439
-1.55063
0.327622
1.12633
0.452882
0.590959
-0.640921
0.057154
-1.02204
0.0579252
-1.5514
0.380781
0.803473
0.559482
0.412258
-0.728228
0.372018
-1.20355
0.297243
-1.47662
0.431945
0.668771
0.664804
0.179399
-0.794361
1.38357
-1.27917
-1.30795
0.933183
-1.02624
0.822561
0.779393
1.19297
-0.191011
-0.783432
1.11321
-0.932114
-1.46027
0.578319
-0.491345
0.810709
0.547002
1.19254
-0.572846
-0.700257
1.06923
-0.628307
-1.37304
0.72556
-0.147672
1.0825
0.190062
1.15352
-0.643869
-0.484615
0.931363
-0.300387
-1.25928
0.82874
-0.045049
1.07905
-0.0602511
0.793071
-0.357887
-0.175662
0.508484
-0.80887
0.463435
0.403183
0.0452966
1.1499
0.151392
-1.11578
1.2341
0.199399
1.32816
0.313516
1.39318
0.376956
0.448389
1.03663
0.0888344
-0.974075
1.11502
0.121015
1.21647
0.212065
1.33525
0.258173
0.32337
0.976403
0.0385347
-0.926104
1.0276
0.0698191
1.12187
0.117793
1.23288
0.147168
0.183207
0.909992
0.00701815
-0.878476
0.958081
0.0217308
1.03741
0.0384647
1.13687
0.0477075
0.0607913
0.640176
-0.633158
0.661907
0.700371
0.748079
0.147216
0.3107
-0.251857
-0.206059
0.0982757
0.31463
-0.26569
0.0557395
0.325248
-0.282712
0.0197218
0.317863
-0.281845
0.206997
-0.187275
0.108438
0.348128
-0.145865
0.0705838
0.352484
0.0367038
0.359128
0.00973022
0.344836
0.216727
0.0797833
0.387058
-0.118713
0.0450318
0.387235
0.0148378
0.389322
-0.00370051
0.363375
0.213027
-0.00244756
0.402542
-0.013037
-0.0210319
0.40582
-0.0314135
0.399703
-0.0259038
0.357865
0.187123
-0.0800259
0.0659029
-0.0849198
-0.0796464
-0.0490909
0.198825
0.111159
-0.251847
-0.0581374
0.144968
0.115797
-0.0619405
0.0899202
0.120877
-0.0658294
0.0364877
0.121008
-0.0675757
0.0860821
-0.0495944
0.192631
0.153698
-0.23517
0.147072
0.161356
0.0955248
0.172424
0.0405037
0.176029
0.126586
0.137477
0.199652
-0.18343
0.0957507
0.203082
0.0568474
0.211327
0.0206487
0.212228
0.147234
0.158271
0.231274
-0.189893
0.118598
0.242755
0.073285
0.25664
0.0289051
0.256608
0.17614
0.0853789
-0.105961
0.0624442
0.0363726
0.0111357
0.408637
0.0555908
-0.0682481
0.420147
0.0689625
-0.080473
0.40954
0.184168
-0.173561
0.394517
0.238523
-0.2235
0.508554
-0.365883
0.406042
0.0455281
0.413263
0.0617414
0.400033
0.197398
0.380409
0.258147
0.653793
0.398607
0.0429008
0.406865
0.0534835
0.378875
0.225388
0.372632
0.264389
0.842995
0.393254
0.0456263
0.392027
0.054711
0.372028
0.245387
0.345456
0.290962
0.998557
0.383236
0.0583703
0.382309
0.0556379
0.341598
0.286097
0.323853
0.308708
1.21645
0.612577
0.0498133
0.645219
0.0229964
0.703623
0.227693
0.772679
0.239652
0.956056
1.03307
0.618721
0.0351132
0.658469
-0.0167517
0.758761
0.127401
0.762173
0.23624
0.709599
1.00863
0.633063
0.00607072
0.683047
-0.0667359
0.747979
0.0624691
0.781085
0.203134
0.457703
1.03298
0.651293
-0.0412014
0.656155
-0.0715987
0.689996
0.0286286
0.801122
0.0920075
0.204788
1.05404
0.562819
0.49122
0.519849
0.611856
0.816644
1.06837
-0.241362
1.05695
-0.134441
1.06695
-0.128712
1.06251
-0.00859769
0.0126325
0.961264
-0.193997
0.952717
-0.125894
0.935317
-0.111312
0.953562
-0.0268428
-0.00788001
0.969097
-0.130113
0.946744
-0.103541
0.913692
-0.0782599
0.923924
-0.0370747
-0.0100594
0.982429
-0.0585045
0.930003
-0.0511159
0.890408
-0.0386641
0.878391
-0.0250579
-0.0101441
0.75814
0.707024
0.66836
0.643302
0.0476902
0.136795
-0.184485
0.0726244
0.308227
-0.333162
0.0734839
0.363938
-0.364798
0.0634086
0.368326
-0.358251
0.33753
0.0507775
-0.324899
0.0685389
0.0682557
0.14094
0.235826
0.17616
0.328718
0.180657
0.363829
0.358143
0.160044
0.056172
0.0120837
0.168531
0.123467
0.263697
0.233552
0.330184
0.297342
0.351692
0.336635
0.0259118
-0.0138281
0.121176
0.0282031
0.242593
0.112135
0.363681
0.176254
0.249543
0.46583
0.00461101
-0.0184391
0.0504106
-0.0175965
0.147629
0.0149173
0.269454
0.054428
0.103325
0.415673
-0.00384273
-0.0145964
0.00641844
-0.0278577
0.0492437
-0.027908
0.121493
-0.0178216
0.0134124
0.211406
-0.00290476
-0.0116916
-0.00247773
-0.0282847
0.0100275
-0.0404132
0.0375272
-0.0453213
-0.0358099
0.0867495
-0.00635321
-0.00533841
-0.013989
-0.0206489
-0.0197869
-0.0346153
-0.0223943
-0.0427139
-0.0434105
-0.0147937
-0.0203086
0.0149702
-0.0537282
0.0127706
-0.100132
0.0117885
-0.15542
0.0125739
0.00791049
-0.206741
-0.0580012
-0.142982
-0.23695
-0.330883
-0.415319
0.361723
0.795933
-0.946251
0.418613
0.256177
-0.313067
0.196793
0.62778
-0.40596
0.0783928
0.0895029
0.0288972
-0.437649
0.379908
0.378757
0.503926
0.518081
0.116854
0.326035
0.819826
0.167253
0.248285
-0.45165
0.275275
0.213857
0.571673
-0.179544
0.39656
0.994938
0.235074
0.409771
-0.452488
0.102059
-0.0949432
0.625406
-0.702891
0.430965
1.18938
0.302299
0.538437
-0.449211
0.0599118
0.635561
0.450277
0.352924
-0.0258563
0.625767
-0.59991
-0.110211
0.0843546
-0.125781
0.0155703
-0.013708
-0.112073
-0.180298
0.728229
-1.04871
0.499517
0.109127
0.0259513
0.0820306
-0.013653
-0.0683776
0.134426
-0.0523952
0.242455
-0.108029
0.397237
-0.154782
-0.202673
0.188411
-0.151287
0.29606
0.524666
0.835714
0.136534
-0.130294
0.160185
-0.166425
0.103815
-0.135157
0.167876
0.0667078
-0.141558
0.178665
0.0269896
-0.140384
0.180103
-0.0969123
0.123902
0.176016
-0.0919111
-0.214399
0.133083
-0.0922235
0.0845601
-0.0930352
0.034743
-0.0905673
-0.0621693
0.183601
-0.0431871
-0.232326
0.133479
-0.0421015
0.0824274
-0.0419832
0.0332783
-0.0414181
-0.028891
0.198506
0.00761577
-0.249309
0.146901
0.00950349
0.0935753
0.0113423
0.0392747
0.0128825
0.0103837
0.200828
-0.25135
0.148391
0.0939039
0.0392107
0.0365553
-0.30511
-0.0563449
0.0130171
-0.334713
-0.00808155
-0.343699
-0.0159987
-0.325244
-0.200484
0.116653
-0.275941
-0.145822
0.0756212
-0.293681
0.0359606
-0.304038
0.00665241
-0.295936
-0.193831
0.134265
-0.237894
-0.172312
0.0942012
-0.253617
0.0547165
-0.264554
0.0190721
-0.260292
-0.174759
0.152956
-0.204444
-0.186406
0.111876
-0.212537
0.0678769
-0.220554
0.0264523
-0.218867
-0.148307
0.14972
-0.193979
0.105058
0.0631695
0.0244049
0.389557
0.105303
-0.0988811
0.385734
0.109698
-0.105875
0.352851
0.158944
-0.126061
0.294149
0.0820886
-0.0233874
-0.180905
0.30863
0.39809
0.103193
0.400889
0.106899
0.392611
0.167222
0.342392
0.132307
-0.0529117
0.403667
0.0955061
0.411394
0.099172
0.408201
0.170415
0.368747
0.17176
0.0835102
0.408593
0.0828925
0.417546
0.0902188
0.417374
0.170587
0.388309
0.200826
0.22251
0.410624
0.42037
0.417397
0.394723
0.413451
0.0965996
0.325246
0.0882056
0.23596
0.0892859
0.230517
0.00544247
-0.168976
0.399493
0.50777
0.4901
0.453326
0.435381
0.575034
0.320208
0.0792854
0.249067
0.0711409
0.165439
0.083628
0.0957512
0.0696879
0.0273736
0.460341
0.345076
0.256392
0.180258
)
;

boundaryField
{
    left
    {
        type            calculated;
        value           nonuniform List<scalar> 
17
(
-0.60402
-0.60402
-0.60402
-0.60402
-0.60402
-0.39598
-0.39598
-0.39598
-0.39598
-0.39598
-0.39598
-0.39598
-0.39598
-0.39598
-0.39598
-0.510051
-0.510051
)
;
    }
    right
    {
        type            calculated;
        value           nonuniform List<scalar> 
17
(
0.16659
0.225561
0.136134
0.181254
0.235912
0.299021
0.35686
0.41396
0.474801
0.549135
0.646789
0.730938
1.18204
1.10937
0.937882
0.484118
-0.130366
)
;
    }
    down
    {
        type            calculated;
        value           uniform 0;
    }
    up
    {
        type            calculated;
        value           uniform 0;
    }
    cylinder
    {
        type            calculated;
        value           uniform 0;
    }
    defaultFaces
    {
        type            empty;
    }
}


// ************************************************************************* //
