/*--------------------------------*- C++ -*----------------------------------*\
  =========                 |
  \\      /  F ield         | OpenFOAM: The Open Source CFD Toolbox
   \\    /   O peration     | Website:  https://openfoam.org
    \\  /    A nd           | Version:  13
     \\/     M anipulation  |
\*---------------------------------------------------------------------------*/
FoamFile
{
    format      ascii;
    class       volScalarField;
    location    "0.51";
    object      p;
}
// * * * * * * * * * * * * * * * * * * * * * * * * * * * * * * * * * * * * * //

dimensions      [0 2 -2 0 0 0 0];

internalField   nonuniform List<scalar> 
440
(
7.84101
10.5975
12.9603
13.1432
10.1691
20.734
24.1174
27.1129
27.8138
25.9268
41.2717
44.303
47.0061
47.7989
46.6383
67.4051
69.5029
71.4163
72.073
71.3856
96.6819
97.4989
98.2959
98.6959
98.6624
-0.42438
-0.52362
-0.0518985
0.507551
0.848725
-1.67708
-2.33896
-2.07435
-1.3765
-0.738622
-2.03023
-2.90931
-2.8263
-2.06737
-0.948105
-0.680424
-0.811928
-0.403793
0.563611
2.43044
3.09236
4.4041
5.83449
7.26787
9.51947
2.10659
2.29
1.37255
0.704864
0.238691
1.07211
2.09265
1.25031
0.647015
0.225274
-0.0807826
1.67621
1.11306
0.599125
0.215158
-0.385385
1.0734
0.901313
0.555998
0.209479
1.527
0.488877
0.61418
0.507515
0.207032
4.40077
0.262594
0.340581
0.456329
0.194467
6.73895
0.718094
0.434697
0.453022
0.134462
10.0013
2.46017
1.08765
0.574993
0.0958267
13.8924
4.76952
2.14552
0.840631
0.0944941
16.6293
7.13451
3.46896
1.3074
0.181772
100.706
75.8578
53.3424
33.1681
12.3658
102.402
78.96
57.5548
39.0747
23.501
104.303
82.7199
62.4926
45.2518
32.905
105.186
85.0395
66.5217
51.2029
40.6769
105.105
84.762
66.3475
51.2704
40.9165
219.888
216.41
216.118
218.235
220.968
202.707
200.242
200.502
203.243
206.535
180.559
178.787
179.15
181.573
184.452
154.76
153.417
153.622
155.216
157.113
126.879
126.166
126.105
126.565
127.158
235.578
236.006
236.643
237.066
236.81
236.164
236.8
237.356
237.333
236.379
234.97
235.946
236.363
236.091
235.103
230.085
231.686
232.253
232.391
232.3
221.595
223.46
224.474
225.685
227.041
235.766
234.731
234.909
234.112
234.268
235.736
234.716
234.856
234.072
234.807
235.726
234.678
234.8
234.194
235.338
235.728
234.618
234.799
234.453
234.93
235.731
234.538
234.872
234.654
232.237
235.739
234.403
234.926
234.432
228.739
235.919
234.266
234.814
233.95
226.374
236.81
234.032
234.176
232.259
223.352
240.841
234.017
232.992
229.789
219.673
249.809
234.739
231.775
227.242
216.919
217.777
196.251
175.044
151.751
126.465
207.385
191.389
172.343
150.44
126.67
198.897
186.216
168.633
148.106
126.352
191.759
180.8
165.116
146.279
125.938
191.541
180.781
165.371
146.679
126.168
96.4107
95.5338
95.0861
94.3192
94.1626
57.3317
55.3848
53.6794
51.7577
50.9919
29.5032
27.1599
24.3973
22.0984
20.774
15.0524
12.6359
10.1705
8.15039
7.17998
9.22355
7.33596
5.94904
4.97349
4.38642
5.99458
4.89237
4.31207
4.2229
4.31107
4.08894
3.62863
3.55532
3.71014
3.86348
2.78587
2.76991
3.00169
3.30402
3.46212
1.68597
1.98935
2.43887
2.7889
2.9336
0.639791
1.03681
1.60818
2.0089
2.18249
3.63295
3.20132
2.09
0.990653
0.291658
3.68663
3.0309
1.99795
0.935494
0.280071
3.48981
2.77154
1.86956
0.883426
0.269729
3.17171
2.53066
1.70842
0.829033
0.259943
2.75471
2.38347
1.52929
0.769764
0.251828
4.50086
3.18615
2.00296
1.0283
0.32093
3.76389
3.27918
2.09265
1.0248
0.304488
94.9182
54.1619
27.5262
14.5036
9.48398
93.697
51.1526
23.0031
9.48854
5.27858
232.147
232.228
232.178
231.663
230.586
232.736
232.91
233.14
233.179
232.805
233.298
233.47
233.856
234.254
234.424
233.892
234.042
234.445
235.045
235.462
234.628
234.864
235.366
235.976
236.233
141.992
141.8
140.972
140.461
139.55
185.224
184.415
182.436
180.669
178.692
215.521
214.15
211.801
208.987
206.613
229.155
228.148
226.098
223.6
221.155
232.003
231.388
230.417
229.035
227.136
238.827
234.455
234.563
233.512
232.903
237.128
234.495
234.651
233.683
232.922
236.37
234.583
234.754
233.906
233.251
236.007
234.664
234.856
234.101
233.624
235.837
234.715
234.916
234.171
233.932
252.264
235.792
234.919
233.448
231.988
243.171
234.701
234.5
233.391
232.705
226.942
221.868
208.761
182.046
141.241
231.138
226.896
213.315
185.07
142.464
)
;

boundaryField
{
    left
    {
        type            zeroGradient;
    }
    right
    {
        type            fixedValue;
        value           uniform 0;
    }
    down
    {
        type            zeroGradient;
    }
    up
    {
        type            zeroGradient;
    }
    cylinder
    {
        type            zeroGradient;
    }
    defaultFaces
    {
        type            empty;
    }
}


// ************************************************************************* //
