/*--------------------------------*- C++ -*----------------------------------*\
  =========                 |
  \\      /  F ield         | OpenFOAM: The Open Source CFD Toolbox
   \\    /   O peration     | Website:  https://openfoam.org
    \\  /    A nd           | Version:  13
     \\/     M anipulation  |
\*---------------------------------------------------------------------------*/
FoamFile
{
    format      ascii;
    class       volVectorField;
    location    "0.51";
    object      U;
}
// * * * * * * * * * * * * * * * * * * * * * * * * * * * * * * * * * * * * * //

dimensions      [0 1 -1 0 0 0 0];

internalField   nonuniform List<vector> 
440
(
(0.218263 -0.176698 -1.81097e-19)
(0.613081 -0.436663 1.07887e-18)
(0.984291 -0.640907 4.23393e-19)
(1.32753 -0.795382 1.24237e-18)
(1.63255 -0.916729 -2.60004e-19)
(0.304895 -0.177685 -5.44511e-19)
(0.819136 -0.428703 -1.01959e-18)
(1.27997 -0.618903 1.14509e-19)
(1.6919 -0.761637 -1.21518e-18)
(2.05374 -0.875104 -1.02099e-18)
(0.384881 -0.152407 -6.98079e-19)
(1.00468 -0.363016 1.58979e-18)
(1.53976 -0.518387 -1.93468e-18)
(2.00471 -0.632633 1.37927e-18)
(2.40594 -0.721474 1.42995e-18)
(0.445868 -0.102746 5.62396e-19)
(1.1461 -0.243084 -1.29952e-18)
(1.73744 -0.344812 -7.50805e-19)
(2.24294 -0.418221 1.96659e-18)
(2.67446 -0.474462 2.50017e-18)
(0.479257 -0.0361584 6.86911e-19)
(1.22364 -0.0847545 1.6914e-19)
(1.8459 -0.119363 2.53133e-18)
(2.37403 -0.143864 -1.06202e-18)
(2.82296 -0.162494 -4.83734e-19)
(-0.000870468 -0.0516376 2.77702e-19)
(0.0501953 -0.144264 -3.85622e-19)
(0.106125 -0.222298 1.10772e-18)
(0.171665 -0.292152 -1.76295e-19)
(0.239832 -0.353752 -1.59619e-18)
(0.0137111 -0.0843047 -2.61932e-19)
(0.0893467 -0.227796 -4.21765e-19)
(0.174181 -0.350098 1.11098e-19)
(0.26849 -0.449982 5.98949e-20)
(0.36478 -0.530059 -3.63874e-20)
(0.0433349 -0.114264 7.04515e-20)
(0.165466 -0.303154 5.23996e-19)
(0.296176 -0.467337 9.48175e-20)
(0.432884 -0.598752 1.46191e-18)
(0.567948 -0.697271 -2.5001e-20)
(0.0866186 -0.141 6.6904e-20)
(0.276372 -0.367821 -3.45397e-20)
(0.469493 -0.562986 2.17591e-19)
(0.661407 -0.718463 -2.03841e-18)
(0.844115 -0.830361 9.5777e-19)
(0.142126 -0.161726 -2.35942e-19)
(0.420083 -0.412854 -4.42795e-19)
(0.6914 -0.621467 -7.70892e-19)
(0.95014 -0.782385 9.54015e-19)
(1.1852 -0.892791 3.45612e-18)
(0.592892 -0.591455 -4.07511e-18)
(0.962147 -0.51615 1.0458e-18)
(1.29199 -0.211197 3.7112e-19)
(1.47995 -0.0400905 -6.09762e-19)
(1.5515 -0.00361761 -8.43383e-20)
(0.785701 -0.742913 4.84254e-18)
(1.04412 -0.622397 -3.16093e-19)
(1.31874 -0.282388 -1.41065e-19)
(1.51636 -0.078725 3.94269e-19)
(1.59455 -0.0195686 1.58368e-19)
(1.0366 -0.877624 1.53773e-18)
(1.17887 -0.708389 4.05463e-18)
(1.34446 -0.350961 6.71063e-20)
(1.52504 -0.115728 4.27388e-19)
(1.59524 -0.033463 -5.00929e-20)
(1.33058 -0.988394 1.22395e-18)
(1.35937 -0.770245 -4.19044e-19)
(1.39 -0.409634 -7.76593e-19)
(1.51262 -0.146467 -2.96819e-19)
(1.5912 -0.0456992 2.10483e-20)
(1.62985 -1.04729 2.57837e-21)
(1.55524 -0.810629 -1.69769e-18)
(1.44956 -0.458155 0)
(1.48462 -0.190151 2.66216e-19)
(1.55126 -0.0594998 3.96619e-20)
(2.15623 -1.11513 -1.57854e-18)
(1.83386 -0.800771 -4.94845e-19)
(1.55983 -0.452417 -1.03342e-20)
(1.42593 -0.192821 5.51686e-20)
(1.38643 -0.0598454 -1.97386e-19)
(2.63273 -0.889679 -1.61231e-18)
(1.90047 -0.591014 2.97429e-18)
(1.43437 -0.31693 5.90727e-21)
(1.17052 -0.142727 2.03061e-19)
(1.11638 -0.0446557 0)
(2.47868 -0.522762 -6.92774e-18)
(1.6058 -0.338857 -1.49327e-19)
(1.14925 -0.177547 1.99655e-18)
(0.899426 -0.0859017 -3.14621e-19)
(0.826683 -0.0285025 -4.95181e-20)
(1.76239 -0.219976 6.83595e-18)
(1.08888 -0.135729 1.24987e-18)
(0.751739 -0.067457 2.24248e-19)
(0.574582 -0.0345699 2.87758e-33)
(0.510118 -0.0128331 -8.08469e-20)
(0.683158 0.000159469 1.55247e-18)
(0.395308 0.0235337 7.1331e-19)
(0.267575 0.0240333 -5.17918e-19)
(0.206456 0.0142038 2.18164e-19)
(0.178691 0.00490185 -6.64582e-20)
(3.58189 -0.168158 1.25616e-17)
(3.41718 -0.502932 -1.04434e-17)
(3.13668 -0.786984 7.10864e-18)
(2.7806 -0.996073 2.32065e-18)
(2.33311 -1.10176 -4.14377e-19)
(3.78455 -0.103586 1.03948e-17)
(3.71749 -0.324458 -6.63909e-19)
(3.57776 -0.551818 -4.27001e-18)
(3.37832 -0.78575 2.69004e-18)
(3.10035 -1.01976 -6.62792e-19)
(3.11484 -0.0605667 3.65445e-18)
(3.09867 -0.181684 -2.51877e-18)
(3.05963 -0.309665 5.01273e-18)
(2.99893 -0.444851 -1.52916e-19)
(2.92438 -0.593606 -4.79055e-18)
(2.19087 -0.0276238 2.78876e-18)
(2.18384 -0.0833714 8.43032e-18)
(2.16463 -0.144008 -6.5326e-19)
(2.13408 -0.207283 -6.60849e-18)
(2.11307 -0.269438 1.94593e-18)
(0.879439 -0.00184247 5.21224e-18)
(0.87649 -0.00523924 -1.16438e-19)
(0.86737 -0.00956845 -4.25799e-20)
(0.850507 -0.0162551 -2.00937e-18)
(0.841156 -0.0229074 -3.60537e-18)
(1.65312 0.940052 2.27484e-18)
(1.34829 0.816698 -7.84845e-20)
(1.00338 0.658651 -3.50259e-20)
(0.627873 0.449485 -1.96293e-19)
(0.225231 0.182299 -1.34132e-19)
(2.07049 0.892507 -1.21837e-18)
(1.71067 0.777735 -1.20249e-18)
(1.29832 0.632591 7.32063e-19)
(0.834044 0.438727 -4.84136e-19)
(0.312144 0.18209 -4.08842e-21)
(2.4186 0.735852 -5.89375e-19)
(2.01967 0.645357 5.2525e-19)
(1.555 0.528765 2.43666e-18)
(1.01754 0.3702 8.08321e-19)
(0.391339 0.155286 5.26079e-19)
(2.68202 0.48672 1.52854e-20)
(2.25239 0.428295 -2.7166e-19)
(1.74744 0.352327 -6.46756e-19)
(1.15477 0.247647 2.05642e-18)
(0.450327 0.104145 -3.26835e-19)
(2.82548 0.173873 -1.17059e-18)
(2.37729 0.152648 -1.6065e-18)
(1.84941 0.125348 -7.28698e-19)
(1.22672 0.0878351 7.96284e-19)
(0.480859 0.0366871 -3.25832e-19)
(0.240871 0.416916 -2.14543e-18)
(0.170745 0.3534 -1.81967e-18)
(0.103304 0.276981 3.16046e-19)
(0.0456964 0.183596 -4.63949e-20)
(-0.00164248 0.0675404 3.41288e-20)
(0.371088 0.594453 -8.02233e-19)
(0.274157 0.510067 -6.69751e-19)
(0.17881 0.39941 1.14495e-20)
(0.0925895 0.259515 -2.53199e-20)
(0.0168466 0.0965071 2.59313e-20)
(0.581705 0.75367 2.18317e-18)
(0.446231 0.649796 -1.53046e-19)
(0.307951 0.507258 -1.44671e-19)
(0.174398 0.328581 -2.15241e-19)
(0.0483946 0.123969 1.67565e-19)
(0.862061 0.874973 -1.29587e-18)
(0.679175 0.758404 1.97772e-18)
(0.485288 0.594161 3.0594e-19)
(0.288339 0.388417 1.01949e-19)
(0.0925358 0.149185 -1.18336e-19)
(1.20368 0.925183 -4.41458e-19)
(0.96911 0.811811 -4.58098e-19)
(0.708598 0.645089 3.60439e-19)
(0.433332 0.429179 3.59506e-19)
(0.148464 0.16854 1.89681e-21)
(0.934415 0.16464 -4.13317e-19)
(1.49028 0.135207 5.27079e-20)
(1.32252 0.196235 1.97963e-20)
(1.01179 0.500311 -4.99226e-19)
(0.598484 0.645318 4.78487e-20)
(0.938289 0.087238 1.60082e-19)
(1.49739 0.111479 2.89688e-19)
(1.34904 0.244393 2.53392e-19)
(1.0598 0.615269 -6.36962e-20)
(0.784635 0.80298 7.60289e-19)
(0.940722 0.0109076 5.40025e-20)
(1.5118 0.0882019 -2.04504e-20)
(1.35036 0.292742 -5.69438e-20)
(1.16573 0.711983 -4.3782e-19)
(1.03731 0.937196 1.18532e-19)
(0.941783 -0.0630018 -1.96796e-20)
(1.51952 0.0683689 -6.83935e-19)
(1.35768 0.341286 9.07126e-20)
(1.32737 0.778593 1.21002e-18)
(1.33493 1.04168 9.44657e-19)
(0.940022 -0.135428 -2.7417e-20)
(1.50888 0.0581979 1.97276e-19)
(1.38148 0.389523 -6.50394e-20)
(1.511 0.820201 -3.88447e-19)
(1.63598 1.09181 -2.73692e-18)
(0.928384 -0.230203 2.29509e-19)
(1.4747 0.0246499 4.78518e-19)
(1.46287 0.388266 -3.03305e-20)
(1.76783 0.799457 3.074e-18)
(2.15298 1.14321 -5.52086e-18)
(0.882947 -0.343875 -2.51222e-20)
(1.33969 -0.0278815 -6.45932e-19)
(1.40805 0.279739 7.26864e-21)
(1.84388 0.594385 -3.06536e-18)
(2.59456 0.900591 1.6691e-18)
(0.785838 -0.411984 5.50882e-18)
(1.08371 -0.0890299 6.81678e-35)
(1.13677 0.149389 -2.1394e-18)
(1.57694 0.339547 2.64295e-18)
(2.45677 0.529585 5.03203e-18)
(0.634111 -0.291665 1.50347e-19)
(0.714773 -0.0715988 5.27397e-19)
(0.7334 0.0519668 2.49225e-19)
(1.0756 0.134968 6.23213e-19)
(1.75836 0.220496 -8.64348e-18)
(0.322492 -0.043176 -4.30656e-18)
(0.294003 0.00554352 2.82845e-19)
(0.265486 -0.0132363 1.10974e-18)
(0.393523 -0.0240247 -7.70837e-19)
(0.686166 -0.000447306 -1.46593e-18)
(2.34859 1.12115 4.68992e-18)
(2.78728 1.01254 3.47238e-18)
(3.14087 0.803375 -5.6913e-18)
(3.41899 0.519598 -1.46157e-17)
(3.5824 0.185878 1.57634e-17)
(3.07892 1.01883 5.00874e-18)
(3.3541 0.79522 2.56364e-17)
(3.55699 0.560667 7.24277e-18)
(3.70113 0.331823 -3.08297e-17)
(3.77795 0.111137 -5.17341e-18)
(2.90576 0.591993 -7.22888e-18)
(2.98599 0.448099 -3.38052e-18)
(3.05218 0.312116 -6.29785e-18)
(3.09525 0.181729 -6.88931e-18)
(3.11401 0.058431 6.5228e-18)
(2.10626 0.265913 5.41513e-18)
(2.13012 0.205759 -4.04652e-19)
(2.16254 0.143049 4.87111e-18)
(2.18312 0.0821389 6.28918e-18)
(2.19077 0.0259994 -5.88784e-18)
(0.842527 0.0220603 -5.74598e-19)
(0.851926 0.0156565 3.52088e-18)
(0.86863 0.00913291 2.44311e-18)
(0.877491 0.00479325 -5.16934e-18)
(0.879838 0.00136178 -3.84283e-20)
(0.281972 0.0207595 5.52116e-19)
(0.656755 0.0404718 -7.43577e-19)
(0.973248 0.0440725 -8.18499e-19)
(0.944418 0.0274352 -1.51801e-18)
(0.697931 0.016388 -6.6373e-19)
(0.245611 0.0554674 7.45729e-19)
(0.591341 0.107089 1.44151e-18)
(0.864778 0.125158 -6.97352e-19)
(0.940046 0.0970113 1.9608e-18)
(0.724255 0.0532482 -2.70088e-18)
(0.185645 0.0742745 4.96232e-19)
(0.476448 0.145914 -1.39891e-18)
(0.70785 0.184783 -9.13915e-19)
(0.8574 0.175435 -1.81023e-18)
(0.741637 0.101244 -2.86228e-18)
(0.123319 0.0774834 -7.72674e-19)
(0.344801 0.160373 -1.37664e-18)
(0.534591 0.214902 4.39909e-18)
(0.677792 0.233339 -3.66694e-19)
(0.713118 0.180048 2.25504e-18)
(0.0752793 0.0723734 -6.22984e-19)
(0.230733 0.160115 1.56425e-18)
(0.372309 0.224545 6.12348e-19)
(0.482859 0.257799 -1.29588e-18)
(0.561369 0.258493 -1.74885e-19)
(0.0451467 0.063776 8.43071e-20)
(0.149953 0.148759 -1.22235e-18)
(0.247749 0.21215 -9.45823e-19)
(0.325463 0.234122 -8.67199e-20)
(0.371251 0.223876 -5.00164e-20)
(0.0264587 0.0556905 3.12103e-19)
(0.09507 0.134284 5.95152e-19)
(0.160891 0.184854 -2.08107e-19)
(0.213776 0.195524 2.59451e-19)
(0.253623 0.185483 1.71349e-19)
(0.0133283 0.0488543 2.49941e-19)
(0.0585988 0.111508 1.30759e-18)
(0.103691 0.121391 -1.23672e-18)
(0.142653 0.107628 -2.78639e-18)
(0.178821 0.0862169 4.08376e-19)
(0.00615109 0.0393919 -2.37382e-19)
(0.0424848 0.0492262 -1.80775e-18)
(0.0797611 0.0222521 3.21791e-18)
(0.119779 -0.00949339 1.31543e-18)
(0.161241 -0.0432481 -2.69685e-19)
(0.010011 0.00238291 2.10052e-19)
(0.0421197 -0.0495498 -4.52347e-19)
(0.0821889 -0.095722 8.98601e-20)
(0.130857 -0.143676 1.05324e-19)
(0.181534 -0.189875 3.40887e-21)
(0.338645 0.0720548 -7.51026e-20)
(0.613147 -0.0420825 -1.22356e-18)
(0.70241 -0.0132963 2.53946e-19)
(0.715068 0.00558216 3.97635e-19)
(0.702396 0.00303905 1.29587e-20)
(0.302739 -0.0340725 -1.00182e-19)
(0.749516 -0.114598 1.46207e-18)
(0.886051 -0.022956 9.18185e-19)
(0.913982 0.00839183 7.58755e-20)
(0.906486 0.00519492 -3.51072e-20)
(0.319366 -0.149325 -8.07988e-19)
(0.833938 -0.197741 3.13986e-18)
(1.04722 -0.042235 -1.8147e-19)
(1.10041 0.00978352 -3.64091e-19)
(1.09826 0.00722231 7.30192e-20)
(0.375577 -0.287938 1.10549e-18)
(0.883074 -0.297087 -2.70645e-18)
(1.1692 -0.082924 -5.31649e-19)
(1.26542 0.00568419 -3.22793e-20)
(1.27385 0.00776072 -2.19434e-22)
(0.462732 -0.436261 5.03049e-19)
(0.918472 -0.404284 -5.51941e-19)
(1.24701 -0.142495 4.77071e-19)
(1.39732 -0.00904321 1.18883e-19)
(1.42707 0.00568329 -1.2057e-20)
(0.182961 -0.0449834 9.54842e-19)
(0.144896 -0.0052629 0)
(0.162358 0.00100884 1.16479e-19)
(0.161983 -0.00030683 -3.92162e-21)
(0.156704 -0.000659611 -7.32722e-20)
(0.399675 0.0700231 0)
(0.408296 -0.000433171 0)
(0.465894 -0.00409389 5.13108e-20)
(0.467582 0.00305869 -2.39138e-20)
(0.453987 0.00126719 4.24647e-20)
(0.162687 -0.000821275 -3.6846e-19)
(0.186404 -0.00179211 3.10763e-18)
(0.213215 -0.00502098 -6.86297e-19)
(0.229813 -0.0149896 -3.11696e-18)
(0.245707 -0.0170125 -7.97006e-19)
(0.432034 0.0044413 6.0992e-19)
(0.484563 0.0196958 4.11554e-18)
(0.536458 0.0466975 -6.73001e-18)
(0.567628 0.0806169 2.20942e-18)
(0.598316 0.16222 3.79759e-18)
(0.370706 -0.220579 -3.32738e-19)
(0.324332 -0.231568 -9.28285e-20)
(0.248378 -0.212642 -3.29965e-19)
(0.150764 -0.150736 3.8797e-19)
(0.0458655 -0.0645786 1.14082e-19)
(0.257533 -0.169526 4.2204e-19)
(0.215076 -0.181622 1.41355e-18)
(0.162385 -0.176988 2.59826e-19)
(0.0967197 -0.135051 2.36327e-19)
(0.0268957 -0.057188 -1.85719e-20)
(0.193186 -0.054697 -3.10817e-19)
(0.151612 -0.0772593 -1.05049e-19)
(0.108771 -0.0948143 1.63336e-18)
(0.062321 -0.0970707 2.86464e-19)
(0.0132273 -0.0479734 -3.13264e-19)
(0.178584 0.0869252 -6.3572e-19)
(0.132577 0.0530859 -7.05906e-19)
(0.0877037 0.0194009 1.30882e-18)
(0.0494415 -0.0106613 1.60044e-18)
(0.0112309 -0.0298064 1.9896e-19)
(0.188529 0.244085 1.23612e-19)
(0.134168 0.1978 -1.20264e-19)
(0.0818088 0.148018 2.48277e-19)
(0.0381486 0.0969426 6.21567e-19)
(-0.00229207 0.0355986 9.22023e-20)
(0.697928 -0.0163433 1.53153e-18)
(0.944424 -0.0274122 -1.80082e-18)
(0.973056 -0.0441984 2.27e-18)
(0.656767 -0.0405343 3.646e-19)
(0.282006 -0.0207682 5.36671e-19)
(0.724246 -0.0531406 1.77254e-18)
(0.939904 -0.0970257 7.9468e-18)
(0.864575 -0.125262 1.03366e-18)
(0.591393 -0.107128 1.34948e-18)
(0.245706 -0.0554886 -4.785e-19)
(0.741556 -0.100996 -1.22155e-18)
(0.856795 -0.175269 -2.29637e-18)
(0.70777 -0.184844 2.92443e-18)
(0.476515 -0.145982 -1.08289e-19)
(0.185767 -0.0743101 3.39526e-19)
(0.712596 -0.179866 1.79038e-20)
(0.677085 -0.233284 -7.6856e-18)
(0.534626 -0.215232 -5.99923e-18)
(0.344937 -0.160708 1.09162e-18)
(0.123501 -0.0775876 5.08041e-19)
(0.558942 -0.25695 4.68519e-19)
(0.481827 -0.257201 5.33393e-19)
(0.372378 -0.225263 -8.99292e-19)
(0.230988 -0.16099 -8.88208e-19)
(0.0756277 -0.0726321 -5.14409e-21)
(0.727413 0.373091 1.17534e-18)
(0.88146 0.127498 -1.91478e-19)
(0.677937 0.0192553 2.52565e-19)
(0.64578 0.0365648 -7.57751e-19)
(0.36267 -0.0617711 -1.00832e-19)
(0.827081 0.397982 -1.70248e-19)
(1.09057 0.15733 -5.63838e-19)
(0.869451 0.0377279 8.34633e-19)
(0.805478 0.0999233 1.68043e-18)
(0.340612 0.0542344 1.03692e-19)
(0.891512 0.372537 -2.23909e-18)
(1.27153 0.171361 -3.7333e-20)
(1.03992 0.0620152 2.48955e-19)
(0.908945 0.179442 1.68925e-18)
(0.364804 0.176801 -1.43251e-18)
(0.9217 0.316711 1.47628e-18)
(1.41902 0.173435 1.64752e-20)
(1.17576 0.100127 -2.10689e-19)
(0.963823 0.278037 -7.23252e-19)
(0.415316 0.323362 -5.83819e-19)
(0.930137 0.242684 1.71747e-19)
(1.48875 0.156803 3.58244e-20)
(1.26723 0.14651 -7.19653e-20)
(0.991327 0.385748 -7.93947e-20)
(0.485239 0.480551 1.35878e-18)
(0.275624 0.0483701 0)
(0.244356 -0.011209 6.4877e-19)
(0.157789 -0.0159114 1.27326e-19)
(0.150644 0.00552163 -1.10734e-19)
(0.184395 0.044084 -1.80756e-18)
(0.573255 0.266323 -1.01976e-17)
(0.609759 0.0751368 -2.5598e-18)
(0.445765 0.012972 4.99432e-19)
(0.424613 0.00061878 -6.59542e-19)
(0.407677 -0.0683116 -6.62018e-19)
(0.245845 0.016975 -9.74851e-22)
(0.229909 0.0150778 1.92873e-18)
(0.213292 0.0050643 5.24454e-19)
(0.186454 0.00180199 3.23033e-19)
(0.162703 0.000825134 0)
(0.59922 -0.16211 -1.13837e-19)
(0.568194 -0.0803191 2.54747e-18)
(0.536567 -0.0464734 -1.37456e-19)
(0.484623 -0.0196427 -2.70447e-19)
(0.432057 -0.00441904 7.60482e-19)
)
;

boundaryField
{
    left
    {
        type            fixedValue;
        value           uniform (1 0 0);
    }
    right
    {
        type            zeroGradient;
    }
    down
    {
        type            noSlip;
    }
    up
    {
        type            noSlip;
    }
    cylinder
    {
        type            noSlip;
    }
    defaultFaces
    {
        type            empty;
    }
}


// ************************************************************************* //
