/*--------------------------------*- C++ -*----------------------------------*\
  =========                 |
  \\      /  F ield         | OpenFOAM: The Open Source CFD Toolbox
   \\    /   O peration     | Website:  https://openfoam.org
    \\  /    A nd           | Version:  13
     \\/     M anipulation  |
\*---------------------------------------------------------------------------*/
FoamFile
{
    format      ascii;
    class       volScalarField;
    location    "4.8";
    object      p;
}
// * * * * * * * * * * * * * * * * * * * * * * * * * * * * * * * * * * * * * //

dimensions      [0 2 -2 0 0 0 0];

internalField   nonuniform List<scalar> 
1800
(
-0.788089
-0.788308
-0.787611
-0.785633
-0.782324
-0.77965
-0.779148
-0.784694
-0.797055
-0.848467
-0.798464
-0.79704
-0.794317
-0.789936
-0.784292
-0.778149
-0.773017
-0.771467
-0.772407
-0.812016
-0.818768
-0.815024
-0.810499
-0.804748
-0.798109
-0.791163
-0.784536
-0.779427
-0.77645
-0.791595
-0.848189
-0.841877
-0.834841
-0.826978
-0.818418
-0.809274
-0.799652
-0.789909
-0.781197
-0.776944
-0.89025
-0.881079
-0.871434
-0.860993
-0.849294
-0.835749
-0.819973
-0.802086
-0.783041
-0.764145
-0.946272
-0.934178
-0.921426
-0.907216
-0.889893
-0.86831
-0.842313
-0.812654
-0.780612
-0.747538
-1.01549
-1.00064
-0.983862
-0.963479
-0.936689
-0.90277
-0.862974
-0.819527
-0.774568
-0.730184
-1.0934
-1.07615
-1.05361
-1.02324
-0.982376
-0.932174
-0.876217
-0.818122
-0.760535
-0.70519
-1.17153
-1.15199
-1.12111
-1.0765
-1.01762
-0.948977
-0.876497
-0.804559
-0.735616
-0.670959
-1.23815
-1.21584
-1.17392
-1.1117
-1.03279
-0.945675
-0.857766
-0.773317
-0.694217
-0.621054
-1.07344
-1.07993
-1.08904
-1.10225
-1.12078
-1.14445
-1.17244
-1.20411
-1.24027
-1.28301
-0.988205
-0.994972
-1.00328
-1.01405
-1.02876
-1.04744
-1.06945
-1.09431
-1.12269
-1.15563
-0.92351
-0.928943
-0.934919
-0.941989
-0.951588
-0.963905
-0.978457
-0.994659
-1.01223
-1.03102
-0.882052
-0.885021
-0.888152
-0.891494
-0.896208
-0.902572
-0.910237
-0.918433
-0.925597
-0.930093
-0.85713
-0.857998
-0.858295
-0.858554
-0.859449
-0.861132
-0.86339
-0.865634
-0.865836
-0.860215
-0.83808
-0.837024
-0.835747
-0.834149
-0.832413
-0.830581
-0.828483
-0.82572
-0.821383
-0.81059
-0.820554
-0.819187
-0.817331
-0.814664
-0.811025
-0.806322
-0.80048
-0.793418
-0.784804
-0.772363
-0.804449
-0.803761
-0.802568
-0.79977
-0.795341
-0.789098
-0.780987
-0.771106
-0.759674
-0.746297
-0.791889
-0.792406
-0.792019
-0.790035
-0.786396
-0.781189
-0.77472
-0.767529
-0.760414
-0.750193
-0.784094
-0.785217
-0.785163
-0.783506
-0.780506
-0.776701
-0.772876
-0.770577
-0.770358
-0.768029
-1.54267
-1.74211
-1.32987
-0.992056
-0.965552
-0.85076
-0.567097
-0.253732
-0.0875888
0.0158631
-1.36058
-1.54167
-1.29179
-1.11162
-1.12386
-0.92903
-0.609767
-0.270515
-0.0927941
0.0123658
-1.16381
-1.30133
-1.20688
-1.22247
-1.28739
-1.00296
-0.646353
-0.287753
-0.0983981
0.00802039
-0.986551
-1.05714
-1.07067
-1.30708
-1.42369
-1.06983
-0.675847
-0.304387
-0.104575
0.00298043
-0.850369
-0.841159
-0.917527
-1.35532
-1.5128
-1.12447
-0.698617
-0.319766
-0.111498
-0.00262735
-0.756929
-0.667256
-0.786873
-1.36799
-1.55795
-1.16305
-0.715454
-0.334002
-0.119377
-0.00871594
-0.699916
-0.538712
-0.689661
-1.35248
-1.56744
-1.18342
-0.72665
-0.347674
-0.128499
-0.0152594
-0.66439
-0.449147
-0.610825
-1.30935
-1.54611
-1.18452
-0.731635
-0.361083
-0.139211
-0.022304
-0.665886
-0.385933
-0.533776
-1.24007
-1.49822
-1.16741
-0.729953
-0.373957
-0.151864
-0.0299298
-0.688445
-0.360536
-0.457031
-1.15036
-1.43012
-1.13676
-0.723248
-0.386301
-0.1666
-0.0383168
-0.643316
-0.318361
-0.403263
-1.08049
-1.3338
-1.06355
-0.691775
-0.393217
-0.184698
-0.0497416
-0.563186
-0.321412
-0.409493
-0.950178
-1.14451
-0.923258
-0.637271
-0.401425
-0.209835
-0.0637295
-0.51151
-0.342564
-0.401947
-0.789806
-0.937548
-0.790584
-0.593901
-0.419792
-0.241859
-0.0781808
-0.463227
-0.350833
-0.371272
-0.636796
-0.752507
-0.674234
-0.559351
-0.445339
-0.279861
-0.0941762
-0.413548
-0.338813
-0.339191
-0.507597
-0.59414
-0.571795
-0.533338
-0.473324
-0.314918
-0.105807
-0.362866
-0.31874
-0.306151
-0.397478
-0.459319
-0.481857
-0.511648
-0.492288
-0.337651
-0.110191
-0.31608
-0.294981
-0.272206
-0.306323
-0.35023
-0.408594
-0.487521
-0.495757
-0.347096
-0.109099
-0.274904
-0.272008
-0.240142
-0.239791
-0.27767
-0.360996
-0.461393
-0.478333
-0.335771
-0.103285
-0.2443
-0.259055
-0.228933
-0.20898
-0.245419
-0.341989
-0.443081
-0.45738
-0.321556
-0.0974706
-0.222275
-0.250223
-0.236166
-0.233487
-0.26457
-0.343451
-0.432663
-0.439798
-0.307125
-0.0945457
-0.494319
-0.555416
-0.603686
-0.644818
-0.681082
-0.722278
-0.76193
-0.800879
-0.801705
-0.841749
-0.3482
-0.416972
-0.473382
-0.52459
-0.565819
-0.604414
-0.630621
-0.654851
-0.667171
-0.698043
-0.231698
-0.302176
-0.361206
-0.414207
-0.455242
-0.49088
-0.51569
-0.538245
-0.555563
-0.575005
-0.13641
-0.205879
-0.265598
-0.318002
-0.360298
-0.396264
-0.424829
-0.449948
-0.470838
-0.489511
-0.0589561
-0.126588
-0.186052
-0.237932
-0.281782
-0.319134
-0.35055
-0.377214
-0.39962
-0.418536
0.00333145
-0.0626132
-0.12139
-0.17287
-0.217316
-0.255179
-0.287281
-0.314039
-0.336279
-0.354457
0.052163
-0.0124191
-0.0703536
-0.121135
-0.165163
-0.202417
-0.233762
-0.25952
-0.280783
-0.298103
0.0879181
0.0243926
-0.0327573
-0.082524
-0.125654
-0.161542
-0.191552
-0.21553
-0.235189
-0.250581
0.109314
0.0464685
-0.0102494
-0.0593858
-0.102049
-0.136913
-0.165948
-0.187858
-0.205451
-0.217047
0.118539
0.0553117
-0.00152978
-0.0511068
-0.0938762
-0.129014
-0.157836
-0.178942
-0.195085
-0.202398
0.878608
0.81191
0.735239
0.652833
0.56342
0.464761
0.35709
0.246816
0.154653
0.110617
0.682997
0.610828
0.530045
0.441278
0.342749
0.232989
0.113272
-0.00831536
-0.108747
-0.155482
0.469268
0.394397
0.311193
0.21851
0.114346
-0.00236175
-0.1297
-0.258349
-0.363776
-0.411314
0.264651
0.186613
0.0995441
0.00209015
-0.107419
-0.229823
-0.362938
-0.495743
-0.602728
-0.648989
0.0800386
-0.00222568
-0.0940966
-0.196707
-0.311373
-0.438487
-0.576279
-0.710255
-0.813806
-0.859443
-0.0841
-0.170528
-0.266634
-0.373294
-0.491718
-0.622024
-0.759606
-0.890924
-0.99028
-1.03396
-0.22926
-0.318326
-0.416505
-0.524784
-0.6441
-0.77373
-0.908174
-1.03334
-1.12536
-1.16549
-0.35786
-0.446189
-0.543176
-0.649797
-0.766491
-0.891615
-1.01865
-1.13311
-1.2145
-1.25
-0.466206
-0.551432
-0.644757
-0.746831
-0.857383
-0.973776
-1.08858
-1.18799
-1.25652
-1.28706
-0.553789
-0.633869
-0.721162
-0.815754
-0.916572
-1.02003
-1.1183
-1.19959
-1.25445
-1.28045
2.15474
2.17272
2.19133
2.20935
2.22586
2.24008
2.25122
2.25906
2.26535
2.27103
2.09014
2.105
2.11972
2.13321
2.14469
2.1534
2.15853
2.16019
2.16111
2.16354
2.00456
2.01532
2.02494
2.03249
2.03742
2.03899
2.03643
2.03015
2.02411
2.0225
1.90001
1.9061
1.90955
1.90982
1.90667
1.89938
1.8872
1.87101
1.85631
1.84997
1.77657
1.77698
1.77332
1.76542
1.75331
1.73622
1.71344
1.68628
1.66185
1.65042
1.63797
1.63253
1.62088
1.60353
1.58094
1.55243
1.51743
1.47783
1.4426
1.42543
1.48439
1.47257
1.45285
1.42608
1.39289
1.35254
1.30463
1.25176
1.20507
1.18196
1.32433
1.30515
1.2754
1.23713
1.19161
1.13815
1.07646
1.00985
0.95161
0.922596
1.16253
1.13592
1.09572
1.04524
0.986329
0.918388
0.841429
0.759833
0.689484
0.654728
1.01236
0.968905
0.912115
0.846684
0.773535
0.691158
0.599426
0.503601
0.422068
0.38227
1.84376
1.83027
1.8211
1.81379
1.81428
1.82021
1.84128
1.88277
1.95527
2.07263
1.83783
1.82519
1.81709
1.8087
1.80921
1.81281
1.8324
1.8689
1.93264
2.0334
1.8325
1.82017
1.8129
1.80315
1.80357
1.80423
1.82204
1.85185
1.90433
1.98249
1.82767
1.81528
1.80851
1.7972
1.79733
1.79447
1.81026
1.83144
1.87088
1.91939
1.8233
1.81055
1.80395
1.79089
1.79048
1.78357
1.79705
1.80751
1.83291
1.84318
1.81937
1.80603
1.79919
1.78425
1.78297
1.77159
1.78233
1.78007
1.79065
1.75315
1.81588
1.80175
1.79423
1.77733
1.77476
1.75859
1.76599
1.74912
1.74427
1.64787
1.81284
1.79771
1.78909
1.77015
1.76583
1.74466
1.74787
1.71487
1.6935
1.52882
1.81028
1.79393
1.78376
1.76274
1.75623
1.72994
1.72788
1.67755
1.63675
1.39406
1.80822
1.79042
1.77832
1.75512
1.74613
1.71459
1.70697
1.63878
1.57715
1.25507
1.80619
1.78664
1.77104
1.74564
1.73175
1.6941
1.67612
1.58912
1.50432
1.12019
1.80528
1.78338
1.76284
1.73523
1.71472
1.67224
1.64082
1.54518
1.43193
1.09469
1.80619
1.78134
1.75458
1.72544
1.69729
1.65226
1.60706
1.50929
1.37312
1.08069
1.80952
1.78052
1.74648
1.71641
1.68007
1.6344
1.57552
1.48019
1.3249
1.0726
1.81619
1.78066
1.73843
1.7081
1.6626
1.61888
1.54631
1.45722
1.28726
1.06771
1.82672
1.78189
1.73067
1.7007
1.64551
1.6058
1.51984
1.43935
1.25924
1.06318
1.84103
1.78135
1.72215
1.69088
1.62823
1.594
1.4967
1.42506
1.23918
1.05968
1.86616
1.78526
1.71687
1.68378
1.61309
1.58365
1.4775
1.41449
1.22581
1.05845
1.87898
1.77711
1.70545
1.67222
1.60022
1.57598
1.46501
1.40907
1.21936
1.06078
1.9558
1.79016
1.70873
1.66976
1.59474
1.5726
1.45912
1.40847
1.2166
1.06549
0.862599
0.702669
0.513354
0.33154
0.168421
0.0227803
-0.107932
-0.225549
-0.329469
-0.419619
0.812914
0.68693
0.543365
0.399138
0.265146
0.14153
0.0276231
-0.0800639
-0.179324
-0.270203
0.796453
0.689775
0.574647
0.456094
0.341112
0.230637
0.125895
0.0255045
-0.0672991
-0.15445
0.806375
0.707665
0.604985
0.501977
0.400577
0.301082
0.204698
0.111312
0.0231184
-0.0604561
0.82135
0.72896
0.634485
0.541445
0.449844
0.358832
0.268889
0.180549
0.0957537
0.015234
0.837388
0.750826
0.6627
0.576327
0.491202
0.405875
0.320398
0.23562
0.153582
0.0756323
0.853047
0.771788
0.688791
0.606949
0.525715
0.443783
0.361139
0.278896
0.198934
0.122959
0.867621
0.790939
0.712143
0.633218
0.553759
0.473185
0.391775
0.310975
0.232394
0.157798
0.881218
0.80797
0.732209
0.654464
0.574767
0.493613
0.41193
0.331274
0.252877
0.178609
0.892654
0.820776
0.74546
0.666633
0.585429
0.503159
0.421029
0.340263
0.262067
0.18784
-1.86899
-1.8223
-1.72139
-1.59511
-1.46802
-1.3528
-1.25382
-1.1721
-1.10781
-1.06146
-1.94244
-1.90217
-1.81774
-1.70844
-1.59468
-1.48926
-1.39753
-1.32117
-1.2612
-1.21909
-1.94147
-1.9068
-1.8405
-1.7523
-1.65616
-1.5638
-1.48124
-1.41089
-1.35433
-1.31332
-1.88099
-1.85086
-1.80153
-1.73571
-1.66012
-1.58376
-1.51282
-1.45042
-1.39877
-1.35997
-1.7835
-1.75738
-1.72174
-1.67596
-1.62101
-1.56203
-1.5041
-1.45052
-1.40351
-1.36442
-1.67281
-1.65065
-1.6249
-1.59412
-1.55648
-1.5135
-1.46838
-1.42367
-1.38214
-1.34576
-1.56779
-1.54984
-1.53095
-1.51
-1.4849
-1.45529
-1.42228
-1.38789
-1.35357
-1.32164
-1.47875
-1.46529
-1.45142
-1.43652
-1.41932
-1.39883
-1.37495
-1.34764
-1.31968
-1.29116
-1.40861
-1.39932
-1.38947
-1.37863
-1.3664
-1.35208
-1.33523
-1.3158
-1.29369
-1.27789
-1.35509
-1.34932
-1.34268
-1.33471
-1.32557
-1.31514
-1.30286
-1.28907
-1.26977
-1.25825
-1.3149
-1.31182
-1.30726
-1.30102
-1.29365
-1.2856
-1.27707
-1.26814
-1.25615
-1.22596
-1.2872
-1.28542
-1.28173
-1.27588
-1.26898
-1.26166
-1.25432
-1.24689
-1.2378
-1.20151
-1.27238
-1.27033
-1.2659
-1.25886
-1.25013
-1.24075
-1.23157
-1.22243
-1.21088
-1.18578
-1.27215
-1.26836
-1.26259
-1.25453
-1.24494
-1.23503
-1.22589
-1.21829
-1.2129
-1.2127
-1.28226
-1.27665
-1.27017
-1.26331
-1.25686
-1.25196
-1.24976
-1.25137
-1.25832
-1.27484
-1.29508
-1.28847
-1.28297
-1.28014
-1.28065
-1.28516
-1.29424
-1.30835
-1.3281
-1.35498
-1.30031
-1.29472
-1.29229
-1.29544
-1.30447
-1.3193
-1.33975
-1.36555
-1.39645
-1.43219
-1.28444
-1.28189
-1.2835
-1.29218
-1.30787
-1.33005
-1.3581
-1.39139
-1.42933
-1.47194
-1.23847
-1.23977
-1.24494
-1.25707
-1.2761
-1.30142
-1.33208
-1.36706
-1.40521
-1.44525
-1.16374
-1.16834
-1.1763
-1.19005
-1.21019
-1.23627
-1.26739
-1.30261
-1.34192
-1.3875
-1.14481
-1.35339
-0.987483
-0.892148
-0.794238
-0.530739
-0.338614
-0.179989
-0.0676641
-0.00351599
-1.21117
-1.4857
-1.05126
-0.862375
-0.718937
-0.503682
-0.336164
-0.180051
-0.0670666
-0.00118182
-1.29092
-1.58431
-1.1069
-0.80775
-0.665419
-0.480105
-0.335065
-0.179813
-0.0655501
0.00270998
-1.38755
-1.65293
-1.15661
-0.739753
-0.605604
-0.464916
-0.338487
-0.181346
-0.0644595
0.00744418
-1.50214
-1.73739
-1.20421
-0.676456
-0.565078
-0.467076
-0.350187
-0.185665
-0.0647299
0.0120384
-1.62255
-1.84558
-1.24636
-0.636888
-0.552252
-0.48951
-0.371145
-0.192489
-0.0665069
0.0158059
-1.72513
-1.94388
-1.27842
-0.634757
-0.574147
-0.533145
-0.400615
-0.201369
-0.0695213
0.0184181
-1.77999
-1.9897
-1.30053
-0.677672
-0.631374
-0.599378
-0.436452
-0.212032
-0.0734125
0.0197271
-1.76913
-1.96772
-1.31796
-0.763605
-0.717901
-0.681309
-0.477199
-0.224328
-0.0778616
0.0196854
-1.68355
-1.88211
-1.33443
-0.874053
-0.829801
-0.767768
-0.521588
-0.238232
-0.0826267
0.0183535
-0.989922
-0.917951
-0.776025
-0.848819
-0.765977
-0.503718
-0.298381
-0.152391
-0.056038
-0.00310325
-0.977697
-0.897732
-0.763694
-0.850855
-0.779793
-0.513301
-0.302955
-0.154776
-0.0569696
-0.00323794
-0.985155
-0.928013
-0.771755
-0.85993
-0.787166
-0.52649
-0.311179
-0.159625
-0.0589256
-0.0034719
-1.01826
-1.01734
-0.814471
-0.887089
-0.824948
-0.538331
-0.322457
-0.166783
-0.0619047
-0.00388452
-1.08164
-1.19009
-0.894977
-0.890455
-0.793172
-0.542319
-0.334434
-0.175474
-0.065711
-0.00427951
-1.01593
-1.16608
-1.25971
-1.31519
-1.31484
-1.30342
-1.2656
-1.21947
-1.16684
-1.1122
-1.01639
-1.16886
-1.26023
-1.31352
-1.30716
-1.29476
-1.25661
-1.20502
-1.16055
-1.0999
-1.01926
-1.17321
-1.26329
-1.31433
-1.30583
-1.29325
-1.25591
-1.20857
-1.1706
-1.12027
-1.02645
-1.18241
-1.27302
-1.3215
-1.31584
-1.30074
-1.26787
-1.23056
-1.20125
-1.17655
-1.03894
-1.19758
-1.28983
-1.33623
-1.33569
-1.31724
-1.29168
-1.26195
-1.24299
-1.2398
1.63849
1.62443
1.60202
1.57492
1.54422
1.50867
1.46724
1.42182
1.38199
1.36217
1.75766
1.75818
1.75081
1.73779
1.72057
1.69857
1.67105
1.63949
1.61153
1.59816
1.8757
1.88273
1.88396
1.88087
1.87449
1.86432
1.84952
1.83092
1.81416
1.80664
1.98144
1.99379
2.00258
2.00834
2.01144
2.01128
2.00696
1.99891
1.9913
1.98879
2.07241
2.08879
2.10287
2.11479
2.12466
2.13185
2.13552
2.13578
2.13553
2.13722
2.14245
2.16145
2.17965
2.19667
2.21218
2.2255
2.2358
2.24282
2.2484
2.25364
2.19112
2.21194
2.2329
2.25327
2.27243
2.28968
2.30419
2.31555
2.32493
2.33257
2.21649
2.23806
2.26044
2.28266
2.30384
2.32328
2.34013
2.35387
2.36532
2.37425
2.21868
2.24008
2.26256
2.285
2.3064
2.32603
2.34307
2.35699
2.3686
2.37762
2.19792
2.21814
2.23937
2.2604
2.28023
2.29811
2.31323
2.32517
2.33503
2.34296
-0.842311
-0.894902
-0.963834
-1.04983
-1.15391
-1.2757
-1.41189
-1.55033
-1.6639
-1.71657
-0.5683
-0.627433
-0.701581
-0.791595
-0.898888
-1.02393
-1.16547
-1.312
-1.43435
-1.49102
-0.256355
-0.322021
-0.401366
-0.494845
-0.603966
-0.72973
-0.870869
-1.0177
-1.14766
-1.20608
0.0688859
-0.00177691
-0.084558
-0.179569
-0.288178
-0.411516
-0.548642
-0.69222
-0.817883
-0.879373
0.38236
0.309849
0.227102
0.134196
0.0298606
-0.0872769
-0.216785
-0.352111
-0.469398
-0.529064
0.665607
0.596134
0.518259
0.432058
0.336238
0.229266
0.111309
-0.0117852
-0.118119
-0.173046
0.914437
0.852621
0.783945
0.708309
0.624319
0.530371
0.426495
0.317934
0.224297
0.175783
1.13788
1.08563
1.02771
0.963995
0.892901
0.812789
0.723652
0.630172
0.549648
0.508136
1.34581
1.30231
1.25311
1.19945
1.13995
1.07289
0.998108
0.91957
0.852084
0.817668
1.52637
1.49157
1.4497
1.40522
1.35747
1.30442
1.24529
1.18286
1.12909
1.10196
1.95557
1.86544
1.84245
1.83196
1.82644
1.8309
1.8358
1.85635
1.84263
1.77586
1.93833
1.86481
1.8428
1.83364
1.82883
1.8352
1.84381
1.87034
1.87776
1.85667
1.92278
1.86318
1.84231
1.83435
1.8303
1.83819
1.85075
1.88465
1.91208
1.93531
1.90882
1.86071
1.84116
1.83418
1.83092
1.83995
1.85592
1.89538
1.94026
1.99929
1.89628
1.85756
1.83946
1.83321
1.83077
1.84058
1.85921
1.90299
1.96198
2.05007
1.88501
1.85384
1.83729
1.8315
1.82987
1.84007
1.86064
1.90738
1.97703
2.08668
1.87489
1.84966
1.8347
1.8291
1.82819
1.83839
1.86024
1.90854
1.98538
2.1095
1.8658
1.84512
1.83175
1.82609
1.82576
1.83556
1.85808
1.90655
1.98713
2.11904
1.85765
1.84032
1.82846
1.82251
1.82261
1.83158
1.85419
1.90154
1.98255
2.11593
1.85033
1.83534
1.8249
1.8184
1.81876
1.82646
1.84857
1.89361
1.97192
2.10029
2.12189
1.86711
1.83378
1.8183
1.8138
1.81258
1.80309
1.80315
1.72481
1.68148
2.04746
1.86122
1.83478
1.82131
1.81574
1.81402
1.80393
1.80451
1.72731
1.67549
2.02456
1.86639
1.83851
1.82434
1.81791
1.8164
1.80697
1.80863
1.73865
1.67036
1.99805
1.86633
1.84041
1.82712
1.82044
1.81996
1.81377
1.81851
1.76119
1.67683
1.97508
1.86578
1.84161
1.82962
1.82329
1.82476
1.82248
1.83397
1.79479
1.69764
1.40909
1.28688
1.12264
0.910342
0.653013
0.360233
0.046707
-0.267209
-0.559778
-0.812115
1.40248
1.28443
1.12648
0.920227
0.669329
0.381009
0.0680872
-0.249342
-0.548418
-0.807869
1.41157
1.29076
1.13137
0.927945
0.682264
0.397442
0.0842366
-0.236813
-0.541472
-0.806716
1.44362
1.30893
1.13865
0.933992
0.691735
0.409192
0.0950604
-0.229575
-0.539217
-0.809744
1.50141
1.34254
1.15105
0.938526
0.696021
0.414955
0.100856
-0.226332
-0.540851
-0.817367
)
;

boundaryField
{
    left
    {
        type            zeroGradient;
    }
    right
    {
        type            fixedValue;
        value           uniform 0;
    }
    down
    {
        type            zeroGradient;
    }
    up
    {
        type            zeroGradient;
    }
    cylinder
    {
        type            zeroGradient;
    }
    defaultFaces
    {
        type            empty;
    }
}


// ************************************************************************* //
