/*--------------------------------*- C++ -*----------------------------------*\
  =========                 |
  \\      /  F ield         | OpenFOAM: The Open Source CFD Toolbox
   \\    /   O peration     | Website:  https://openfoam.org
    \\  /    A nd           | Version:  13
     \\/     M anipulation  |
\*---------------------------------------------------------------------------*/
FoamFile
{
    format      ascii;
    class       surfaceScalarField;
    location    "4.8";
    object      phi;
}
// * * * * * * * * * * * * * * * * * * * * * * * * * * * * * * * * * * * * * //

dimensions      [0 3 -1 0 0 0 0];

internalField   nonuniform List<scalar> 
3485
(
-0.000853451
0.00260572
-0.00175227
-0.00200534
0.00556328
-0.0044114
-0.00214151
0.00651583
-0.00637966
-3.70833e-05
0.00556161
-0.00766604
0.00543787
0.00273286
-0.00820782
0.0154065
-0.00203846
-0.00793019
0.0309873
-0.00886305
-0.00671772
0.0529696
-0.0174986
-0.00448364
0.0814106
-0.0272902
-0.00115078
-0.0312638
0.00158319
0.111091
-0.000486247
0.00309197
-0.000400463
0.0054775
0.00157944
0.00453593
0.00676964
0.00037141
0.0164058
-0.00690333
0.031551
-0.0171836
0.052821
-0.0301331
0.0805056
-0.0451832
0.11471
-0.061495
-0.0723937
0.15584
0.000132644
0.00295932
0.00203395
0.0035762
0.00718511
-0.000615225
0.0170124
-0.00945593
0.0326339
-0.0225247
0.0545657
-0.0391154
0.0825076
-0.0580749
0.115355
-0.0780304
0.151714
-0.0978546
-0.114044
0.193364
0.000709382
0.00224994
0.00468883
-0.000403257
0.0136815
-0.00960792
0.0289669
-0.0247413
0.0510781
-0.0446359
0.0793838
-0.0674212
0.112194
-0.090885
0.147173
-0.113009
0.181711
-0.132393
-0.147917
0.215584
0.00154017
0.000709768
0.00816236
-0.00702545
0.0215614
-0.023007
0.0424168
-0.0455967
0.0698373
-0.0720564
0.101473
-0.0990573
0.134267
-0.123679
0.165312
-0.144054
0.192414
-0.159495
-0.170475
0.214972
0.00264166
-0.00193189
0.012325
-0.0167088
0.0301337
-0.0408157
0.0552324
-0.0706954
0.0847818
-0.101606
0.115038
-0.129314
0.142694
-0.151334
0.165678
-0.167038
0.18333
-0.177147
-0.183001
0.195856
0.0039208
-0.00585269
0.0166452
-0.0294332
0.0377837
-0.0619542
0.0643756
-0.0972872
0.0920492
-0.129279
0.116999
-0.154264
0.137106
-0.171441
0.152
-0.181932
0.162435
-0.187582
-0.190238
0.169671
0.00520723
-0.0110599
0.0202997
-0.0445257
0.0427178
-0.0843724
0.0676475
-0.122217
0.090532
-0.152164
0.108815
-0.172547
0.12203
-0.184656
0.130993
-0.190895
0.136935
-0.193524
-0.194135
0.140832
0.00627742
-0.0173373
0.0225165
-0.0607648
0.043926
-0.105782
0.0649875
-0.143278
0.0821871
-0.169364
0.0945167
-0.184876
0.102595
-0.192735
0.10762
-0.19592
0.110671
-0.196575
-0.195902
0.112439
0.00693764
-0.024275
0.0228899
-0.076717
0.0415516
-0.124444
0.0579074
-0.159634
0.0698291
-0.181285
0.0774037
-0.192451
0.0816963
-0.197027
0.083867
-0.19809
0.0847682
-0.197476
0.0848524
-0.195986
-0.00284526
-0.011355
0.0142002
-0.00973725
-0.0214218
0.0283138
-0.0189396
-0.0251691
0.0343715
-0.0291454
-0.0265275
0.0367333
-0.0395601
-0.0273213
0.037736
-0.0497793
-0.0280089
0.0382281
-0.0596075
-0.0285049
0.0383331
-0.0689296
-0.0286514
0.0379734
-0.0776604
-0.028361
0.0370918
-0.0277594
-0.0857993
0.0358983
-0.00404705
-0.00730791
-0.0127123
-0.0127565
-0.0237731
-0.0141083
-0.0359646
-0.014336
-0.048601
-0.0146849
-0.0613006
-0.0153093
-0.0738236
-0.0159819
-0.0859933
-0.0164817
-0.0976803
-0.016674
-0.0165308
-0.108909
-0.00381926
-0.00348865
-0.0117769
-0.00479892
-0.0220355
-0.00384963
-0.0336672
-0.00270432
-0.0461361
-0.00221607
-0.0590528
-0.0023926
-0.0720903
-0.00294442
-0.0849879
-0.00358412
-0.0975349
-0.00412697
-0.0044049
-0.109661
-0.00248427
-0.00100438
-0.00772705
0.000443862
-0.0148376
0.00326088
-0.0234146
0.00587275
-0.0331842
0.00755346
-0.0437915
0.00821474
-0.0548433
0.00810739
-0.0659747
0.00754726
-0.076874
0.00677235
0.0060069
-0.0872858
-0.000931346
-7.30314e-05
-0.00294073
0.00245325
-0.00582103
0.00614117
-0.00974866
0.00980038
-0.0148387
0.0126435
-0.0209919
0.0143679
-0.0279031
0.0150186
-0.0351548
0.014799
-0.0423495
0.013967
0.0126468
-0.0489894
5.09052e-05
-0.000123936
0.000394551
0.0021096
0.000845683
0.00569004
0.00105843
0.00958763
0.000686612
0.0130154
-0.000454175
0.0155086
-0.00232264
0.0168871
-0.00467966
0.017156
-0.00706476
0.0163521
0.0144813
-0.00889933
0.000265329
-0.000389265
0.00121501
0.00115992
0.00278596
0.00411909
0.00474601
0.00762758
0.00676135
0.011
0.00852784
0.0137422
0.00987127
0.0155436
0.0108126
0.0162147
0.0115824
0.0155823
0.0132873
0.0127765
-0.000122686
-0.000266579
2.07832e-05
0.00101645
0.000705877
0.003434
0.00195187
0.00638159
0.00359473
0.00935717
0.00537913
0.0119578
0.0070684
0.0138544
0.00855873
0.0147244
0.0100051
0.0141359
0.0113144
0.011978
-0.000757818
0.00049124
-0.00199654
0.00225518
-0.00302915
0.0044666
-0.00347786
0.00683031
-0.00321582
0.00909513
-0.00227965
0.0110216
-0.000783494
0.0123582
0.00115531
0.0127856
0.00359298
0.0116982
0.00786961
0.00703778
-0.00126103
-0.00341725
-0.00533031
-0.00616604
-0.00527873
-0.00218734
0.00345314
0.0117551
0.0223025
0.0317553
-0.0997511
-0.234779
0.24873
-0.0470744
0.280662
-0.333339
-0.0444759
0.842429
-0.845028
-0.0350094
0.717578
-0.727044
0.0323491
0.224731
-0.29209
0.0988342
-0.23277
0.166285
0.155948
-0.496528
0.439415
0.195423
-0.497819
0.458344
0.218213
-0.497811
0.475021
-0.340436
0.330133
-0.138963
-0.204725
-0.0875249
0.229225
-0.0730334
0.827938
-0.0338565
0.678401
0.0607437
0.130131
0.129844
-0.30187
0.18341
-0.550094
0.219789
-0.534199
0.237582
-0.515604
-0.346702
-0.158335
-0.15605
-0.111341
0.18223
-0.0654993
0.782096
-0.00725874
0.62016
0.0942577
0.0286147
0.164223
-0.371836
0.212119
-0.59799
0.243873
-0.565952
0.256322
-0.528054
-0.34893
-0.147688
-0.0956478
-0.113052
0.147594
-0.0344784
0.703522
0.0424098
0.543272
0.132451
-0.061426
0.19976
-0.439145
0.241091
-0.639322
0.267026
-0.591886
0.273948
-0.534976
-0.34722
-0.105483
-0.0391546
-0.0893661
0.131478
0.00475147
0.609405
0.098036
0.449987
0.173267
-0.136657
0.234214
-0.500092
0.268902
-0.67401
0.288568
-0.611552
0.290031
-0.536439
-0.341762
-0.0443667
-0.00368724
-0.0392091
0.12632
0.0526296
0.517566
0.148762
0.353855
0.213178
-0.201073
0.266059
-0.552973
0.294197
-0.702148
0.307863
-0.625218
0.304204
-0.53278
-0.332822
0.0143886
-0.00529937
0.0278856
0.112823
0.106271
0.43918
0.193651
0.266475
0.249512
-0.256934
0.294015
-0.597476
0.315958
-0.72409
0.324389
-0.63365
0.316115
-0.524506
-0.320797
0.0476606
-0.040982
0.0921752
0.0683085
0.160784
0.370572
0.2328
0.19446
0.280606
-0.304741
0.317087
-0.633957
0.333558
-0.740561
0.33776
-0.637852
0.325457
-0.512203
-0.306216
0.0607567
-0.0947009
0.13442
-0.00535463
0.204672
0.30032
0.264402
0.134729
0.305521
-0.34586
0.334761
-0.663197
0.346768
-0.752568
0.347777
-0.63886
0.332095
-0.496522
-0.289632
0.0769629
-0.139908
0.148875
-0.0772672
0.228778
0.220417
0.28877
0.0747369
0.323618
-0.380708
0.346658
-0.686238
0.355911
-0.761821
0.354559
-0.637508
0.336056
-0.478019
-0.271563
0.355152
-0.141971
-0.353089
0.364763
-0.0868781
0.465414
0.119767
0.615054
-0.0749035
0.697078
-0.462731
0.707035
-0.696195
0.668984
-0.72377
0.61245
-0.580974
0.539901
-0.40547
-0.217607
0.601176
-0.136899
-0.606249
0.58192
-0.0676215
0.65229
0.0493963
0.752507
-0.175121
0.776425
-0.486649
0.741473
-0.661244
0.678716
-0.661012
0.609144
-0.511403
0.530472
-0.326798
-0.161156
0.688125
-0.120207
-0.704816
0.690961
-0.0704576
0.761114
-0.0207567
0.800634
-0.214641
0.775807
-0.461822
0.730946
-0.616382
0.669412
-0.599478
0.597317
-0.439309
0.516081
-0.245561
-0.103481
0.708397
-0.10431
-0.724293
0.726858
-0.0889192
0.777359
-0.0712578
0.786241
-0.223523
0.767683
-0.443263
0.726944
-0.575643
0.651753
-0.524287
0.564633
-0.352189
0.478032
-0.15896
-0.0479041
0.711832
-0.0969312
-0.719212
0.728982
-0.106069
0.757706
-0.0999818
0.766303
-0.23212
0.748447
-0.425408
0.683691
-0.510887
0.585042
-0.425638
0.490645
-0.257792
0.412327
-0.0806415
-0.00347331
0.710419
-0.0966558
-0.710694
0.719232
-0.114881
0.73561
-0.11636
0.74077
-0.237281
0.701553
-0.386191
0.603662
-0.412996
0.487989
-0.309965
0.394199
-0.164001
0.330479
-0.0169217
0.0264802
0.702572
-0.0969125
-0.702315
0.699955
-0.112264
0.70515
-0.121555
0.687308
-0.219438
0.600027
-0.29891
0.462556
-0.275525
0.33994
-0.187349
0.263075
-0.0871362
0.229044
0.0171093
0.0356834
0.664656
-0.0841382
-0.67743
0.645099
-0.0927071
0.628154
-0.104611
0.557708
-0.148992
0.418024
-0.159226
0.27235
-0.129851
0.174543
-0.0895416
0.128881
-0.0414746
0.126585
0.0194053
0.02673
0.530624
-0.048076
-0.566686
0.488238
-0.0503211
0.42799
-0.0443637
0.316917
-0.0379183
0.190603
-0.0329124
0.0968256
-0.0360743
0.0405759
-0.0332919
0.0184035
-0.0193022
0.0315659
0.00624293
0.0106421
0.208983
-0.257059
0.158662
0.114298
0.07638
0.0434676
0.00739326
-0.0258986
-0.0452008
-0.0389578
0.538022
0.0735975
-0.526768
0.55014
0.100321
0.56515
0.125822
0.580266
0.154556
0.595347
0.180775
0.603952
0.206367
0.58968
0.229856
0.547173
0.235872
0.452065
0.250947
0.210068
0.519533
0.0620161
-0.507951
0.533707
0.0861469
0.550398
0.109131
0.571709
0.133244
0.592533
0.159952
0.618318
0.180582
0.635457
0.212717
0.647901
0.223428
0.642643
0.256205
0.246462
0.505784
0.0517911
-0.495559
0.520243
0.0716871
0.536181
0.0931933
0.557029
0.112397
0.57934
0.13764
0.605313
0.154609
0.634718
0.183311
0.661267
0.196879
0.692848
0.224624
0.234494
0.496124
0.0419911
-0.486324
0.509728
0.0580827
0.525766
0.0771553
0.544753
0.0934097
0.568101
0.114293
0.59242
0.13029
0.624284
0.151447
0.653879
0.167284
0.692118
0.186385
0.202318
0.488522
0.032056
-0.478586
0.501216
0.0453884
0.517496
0.0608747
0.53579
0.0751157
0.559056
0.0910269
0.583496
0.10585
0.613905
0.121039
0.645051
0.136138
0.681731
0.149705
0.164838
0.481226
0.0222128
-0.471382
0.493562
0.0330519
0.509694
0.0447432
0.528222
0.0565875
0.550951
0.0682974
0.576092
0.0807093
0.605325
0.091806
0.637178
0.104284
0.67249
0.114394
0.126633
0.470962
0.0128271
-0.461577
0.483251
0.0207629
0.49906
0.0289346
0.518003
0.0376445
0.5405
0.0458007
0.566286
0.0549234
0.595442
0.0626492
0.627924
0.0718023
0.66355
0.0787676
0.0878685
0.446563
0.00453596
-0.438272
0.458127
0.00919855
0.473041
0.0140205
0.491577
0.0191089
0.513477
0.0239008
0.539225
0.0291757
0.568285
0.0335887
0.601207
0.0388803
0.637433
0.0425413
0.0478716
0.376116
-0.000626942
-0.370953
0.384239
0.00107546
0.395444
0.00281485
0.409946
0.00460755
0.427604
0.00624248
0.448783
0.0079966
0.473004
0.00936751
0.500933
0.0109513
0.531611
0.0118641
0.0127964
0.189343
-0.18997
0.190418
0.193233
0.197841
0.204083
0.21208
0.221447
0.232399
0.244263
0.0708853
0.144141
-0.13262
-0.0824068
0.0602637
0.146339
-0.135717
0.0504423
0.148952
-0.139131
0.0409238
0.15241
-0.142891
0.0314732
0.156073
-0.146622
0.0221897
0.158819
-0.149535
0.0135079
0.157965
-0.149283
0.00624539
0.147692
-0.140429
0.00147556
0.117921
-0.113151
0.0552914
-0.0538159
0.066693
0.154474
-0.0770259
0.056495
0.156537
0.0466214
0.158826
0.0370985
0.161932
0.0278472
0.165324
0.0189905
0.167675
0.0109913
0.165964
0.00464439
0.154039
0.000855184
0.12171
0.0561466
0.0587715
0.163566
-0.0678632
0.0494019
0.165906
0.0401461
0.168081
0.0311938
0.170885
0.0226041
0.173914
0.014562
0.175717
0.00756864
0.172957
0.00245002
0.159157
-1.64036e-05
0.124177
0.0561302
0.047314
0.171397
-0.0551449
0.0391701
0.17405
0.0309753
0.176276
0.0229791
0.178881
0.0153749
0.181518
0.0084892
0.182603
0.00287616
0.17857
-0.000542926
0.162577
-0.00111371
0.124748
0.0550165
0.0336595
0.178117
-0.0403796
0.0267568
0.180953
0.019768
0.183265
0.0129356
0.185713
0.00654743
0.187906
0.00104978
0.188101
-0.00267747
0.182298
-0.00385435
0.163753
-0.00236544
0.123259
0.0526511
0.0181708
0.183765
-0.0238188
0.0124707
0.186653
0.00675693
0.188979
0.00125823
0.191212
-0.00363876
0.192803
-0.0072943
0.191756
-0.00890271
0.183906
-0.00762774
0.162478
-0.00366912
0.1193
0.0489819
0.00137216
0.188556
-0.00616321
-0.00323847
0.191264
-0.00771112
0.193451
-0.0118091
0.19531
-0.0150612
0.196055
-0.016707
0.193402
-0.0157567
0.182956
-0.0115372
0.158259
-0.0049063
0.112669
0.0440756
-0.017455
0.192188
0.0138228
-0.0208346
0.194643
-0.0239365
0.196553
-0.0264525
0.197826
-0.0277661
0.197369
-0.0269377
0.192574
-0.0229364
0.178954
-0.0153834
0.150706
-0.00597268
0.103258
0.038103
-0.0380008
0.194702
0.0354863
-0.0401315
0.196774
-0.0417666
0.198188
-0.0424734
0.198533
-0.0414621
0.196358
-0.0376473
0.188759
-0.0300645
0.171372
-0.0188492
0.139491
-0.00673872
0.091148
0.0313642
-0.0605865
0.0593025
-0.061289
-0.061191
-0.0596852
-0.0557784
-0.0483047
-0.0365674
-0.0215202
-0.00708927
0.110766
0.0349108
-0.123053
-0.0226239
0.0981877
0.0359272
-0.0233488
0.085305
0.0370384
-0.0241556
0.0720911
0.0382235
-0.0250097
0.0585272
0.0394652
-0.0259013
0.0446371
0.0406391
-0.026749
0.0306073
0.0412561
-0.0272262
0.0170897
0.0399175
-0.0263999
0.00575522
0.0335875
-0.022253
0.0171273
-0.0113721
0.108953
0.0471031
-0.121145
0.0965405
0.0483393
0.0838399
0.0497389
0.0708198
0.0512437
0.0574538
0.0528312
0.0437637
0.0543292
0.0299448
0.055075
0.0166624
0.0532
0.00557747
0.0446724
0.0227048
0.106853
0.059113
-0.118863
0.0945724
0.06062
0.0820272
0.0622842
0.0691912
0.0640797
0.0560435
0.0659789
0.0426051
0.0677676
0.0290715
0.0686086
0.0161103
0.0661612
0.00535658
0.0554261
0.0280614
0.104247
0.0710751
-0.116209
0.092154
0.0727133
0.0797964
0.0746418
0.0671489
0.0767271
0.0542062
0.0789216
0.0410208
0.080953
0.0278207
0.0818088
0.0152878
0.078694
0.00501358
0.0657003
0.033075
0.101217
0.0827942
-0.112936
0.0893494
0.0845805
0.0773057
0.0866855
0.0650195
0.0890133
0.0524427
0.0914984
0.0396073
0.0937884
0.0267585
0.0946575
0.0146137
0.0908388
0.00475307
0.075561
0.037828
0.0971669
0.0945074
-0.10888
0.085445
0.0963024
0.0735567
0.0985738
0.0615107
0.101059
0.0493009
0.103708
0.0369621
0.106127
0.0247294
0.10689
0.0133091
0.102259
0.00421718
0.0846529
0.0420452
0.092911
0.105612
-0.104016
0.0818092
0.107404
0.0705193
0.109864
0.0589475
0.112631
0.0471023
0.115553
0.0351012
0.118128
0.0232668
0.118725
0.0123563
0.11317
0.00383839
0.0931708
0.0458836
0.0855974
0.116493
-0.0964776
0.0749122
0.118089
0.0642571
0.120519
0.0535183
0.12337
0.0425946
0.126477
0.0315281
0.129195
0.0206411
0.129612
0.0107217
0.123089
0.00318993
0.100703
0.0490735
0.0806178
0.125737
-0.0898621
0.0709977
0.12771
0.0608242
0.130692
0.0503106
0.133883
0.0396223
0.137165
0.0289243
0.139893
0.018587
0.139949
0.0094015
0.132275
0.00267733
0.107427
0.0517509
0.0698313
-0.0767139
0.0618238
0.0533854
0.0443778
0.0349208
0.0252786
0.0159445
0.00778962
0.00206501
0.201877
0.00347736
-0.00736424
0.205392
0.0225394
-0.0260546
0.209655
0.0286705
-0.0329338
0.212442
0.0434663
-0.0462533
0.21463
0.0549186
-0.057106
0.213798
0.0735392
-0.0727075
0.209057
0.0922924
-0.0875517
0.197851
0.1142
-0.102994
0.173315
0.160492
-0.135957
0.221028
-0.170766
0.201608
-0.000141286
0.204518
0.01963
0.208751
0.024437
0.210842
0.0413752
0.213105
0.0526556
0.211426
0.0752188
0.206806
0.0969121
0.194842
0.126165
0.170162
0.185172
0.270045
0.201287
-0.003438
0.203526
0.0173902
0.207641
0.0203228
0.208934
0.040082
0.211182
0.0504076
0.208438
0.0779624
0.203964
0.101387
0.190806
0.139323
0.166548
0.20943
0.31773
0.200888
-0.0063357
0.202418
0.0158592
0.206302
0.0164397
0.206721
0.0396625
0.208845
0.0482838
0.204885
0.081922
0.200561
0.105711
0.185852
0.154032
0.162483
0.232799
0.364004
0.200398
-0.00874361
0.201192
0.015065
0.204714
0.0129176
0.204215
0.0401611
0.206067
0.0464326
0.200799
0.0871893
0.196544
0.109966
0.180108
0.170468
0.157893
0.255013
0.408961
0.199806
-0.0105598
0.199845
0.0150257
0.202864
0.00989895
0.20143
0.0415953
0.202838
0.0450245
0.196198
0.0938291
0.191922
0.114242
0.173413
0.188977
0.152953
0.275474
0.453034
0.199106
-0.0116762
0.19838
0.0157518
0.200741
0.00753755
0.198386
0.0439503
0.199135
0.0442762
0.191167
0.101796
0.186526
0.118883
0.166235
0.209268
0.147132
0.294577
0.49615
0.1983
-0.0119867
0.196799
0.017253
0.198346
0.00599042
0.1951
0.0471962
0.194962
0.0444142
0.185705
0.111054
0.180478
0.12411
0.157884
0.231862
0.140989
0.311472
0.540661
0.197404
-0.0114006
0.195102
0.0195543
0.19569
0.00540254
0.191582
0.0513042
0.190282
0.0457149
0.179933
0.121402
0.173707
0.130337
0.15071
0.254858
0.134245
0.327937
0.585044
0.196467
-0.00987789
0.193243
0.0227783
0.192858
0.00578802
0.187734
0.0564282
0.185045
0.0484037
0.173241
0.133207
0.165088
0.13849
0.140168
0.279778
0.127426
0.340678
0.635757
0.306046
-0.013914
0.307728
0.0210963
0.316087
-0.00257064
0.318169
0.0543466
0.329487
0.0370854
0.328838
0.133855
0.34611
0.121218
0.349276
0.276612
0.396971
0.292984
0.567789
0.464939
0.306309
-0.018213
0.309138
0.0182675
0.318086
-0.0115186
0.322171
0.0502617
0.334529
0.0247269
0.337502
0.130883
0.356386
0.102333
0.369203
0.263796
0.412587
0.249599
0.502871
0.477505
0.306222
-0.022425
0.311329
0.0131612
0.319945
-0.0201355
0.327264
0.0429436
0.339052
0.0129388
0.346476
0.123459
0.365331
0.083478
0.384801
0.244326
0.423015
0.211386
0.433262
0.492623
0.306029
-0.0264434
0.314511
0.00467919
0.322115
-0.0277397
0.333231
0.0318271
0.342501
0.00366875
0.35457
0.11139
0.371935
0.0661132
0.396887
0.219373
0.4339
0.174373
0.362535
0.504627
0.306358
-0.030791
0.318291
-0.00725429
0.325867
-0.0353152
0.339785
0.0179088
0.346689
-0.00323541
0.363713
0.094366
0.379054
0.0507723
0.409486
0.188942
0.441142
0.142716
0.294898
0.508779
0.307696
-0.0364772
0.323129
-0.0226868
0.330756
-0.0429423
0.346133
0.00253184
0.351702
-0.00880423
0.372168
0.0738995
0.385439
0.037502
0.419012
0.155368
0.447046
0.114682
0.23109
0.510854
0.310757
-0.0452244
0.328333
-0.0402624
0.335399
-0.0500082
0.350338
-0.0124073
0.353842
-0.0123087
0.376592
0.0511499
0.387035
0.0270589
0.423458
0.118945
0.450152
0.0879877
0.170585
0.510658
0.314245
-0.0574594
0.329264
-0.0552814
0.331555
-0.0522986
0.341057
-0.02191
0.340771
-0.0120222
0.362516
0.0294051
0.370401
0.0191736
0.410269
0.0790768
0.438618
0.0596383
0.109591
0.499613
0.307563
-0.0630126
0.303776
-0.0514944
0.289959
-0.0384811
0.284586
-0.0165366
0.278916
-0.00635316
0.295752
0.0125698
0.304661
0.0102641
0.348258
0.0354799
0.380775
0.0271219
0.0459946
0.444371
0.238998
0.187503
0.149022
0.132485
0.126132
0.138702
0.148966
0.184446
0.211568
0.257563
0.477652
-0.0951195
0.482127
-0.0815011
0.485533
-0.0712697
0.488795
-0.0584065
0.493235
-0.0448198
0.497903
-0.028487
0.503647
-0.0119064
0.509932
0.00753703
0.518044
0.0273749
0.0505787
0.478431
-0.0960455
0.479075
-0.0821448
0.479151
-0.0713459
0.479315
-0.05857
0.480764
-0.0462689
0.482824
-0.0305469
0.486944
-0.0160263
0.492002
0.00247856
0.499324
0.0200532
0.0419514
0.486404
-0.089826
0.482847
-0.0785874
0.479496
-0.0679957
0.477019
-0.0560929
0.475492
-0.0447417
0.475879
-0.0309336
0.477537
-0.0176844
0.481369
-0.00135413
0.486916
0.0145071
0.0333085
0.493897
-0.0790954
0.485759
-0.0704496
0.479263
-0.0614999
0.474855
-0.0516852
0.47132
-0.0412067
0.470339
-0.0299519
0.470391
-0.0177368
0.473585
-0.00454829
0.478113
0.00997888
0.0250979
0.496828
-0.0671438
0.486798
-0.0604199
0.478445
-0.053147
0.47229
-0.0455299
0.467648
-0.0365647
0.465386
-0.0276898
0.464799
-0.0171499
0.467011
-0.00676076
0.471288
0.00570227
0.0177994
0.497899
-0.054189
0.486572
-0.0490925
0.47702
-0.0435955
0.469452
-0.0379623
0.463958
-0.0310704
0.460591
-0.0243229
0.459529
-0.0160879
0.460801
-0.00803221
0.464817
0.00168547
0.0112345
0.496454
-0.0399848
0.48382
-0.0364594
0.473055
-0.0328296
0.464248
-0.0291555
0.457753
-0.0245761
0.453388
-0.0199575
0.451553
-0.0142529
0.452066
-0.00854511
0.455473
-0.00172203
0.00513125
0.483755
-0.0241268
0.469724
-0.022429
0.457706
-0.020811
0.447692
-0.0191416
0.439997
-0.0168811
0.434453
-0.0144133
0.431441
-0.0112415
0.43082
-0.0079239
0.433096
-0.00399828
-4.42312e-05
0.428738
-0.00849439
0.414908
-0.00859893
0.402758
-0.00866056
0.392184
-0.00856776
0.383419
-0.00811604
0.376429
-0.00742311
0.371582
-0.00639525
0.368881
-0.00522305
0.368692
-0.00380909
-0.00230476
0.249068
0.240469
0.231809
0.223241
0.215125
0.207702
0.201307
0.196084
0.192274
0.00808638
0.0483916
-0.056478
0.0187272
0.126165
-0.136806
0.0255359
0.176739
-0.183548
0.0277317
0.20284
-0.205036
0.0266142
0.213171
-0.212053
0.0236168
0.21512
-0.212122
0.0197159
0.212776
-0.208875
0.0155322
0.207259
-0.203076
0.0116638
0.197226
-0.193358
0.178893
0.00876664
-0.175996
0.00963811
0.0387535
0.0250411
0.110762
0.0375552
0.164225
0.0448374
0.195558
0.0477556
0.210252
0.0479039
0.214971
0.0465128
0.214167
0.0442562
0.209516
0.0413314
0.200151
0.182723
0.0375019
0.0102296
0.0285239
0.0297193
0.0912727
0.0483365
0.145608
0.0616416
0.182253
0.0695055
0.202388
0.0734023
0.211074
0.0747733
0.212796
0.0743875
0.209902
0.0722471
0.202292
0.187686
0.0672841
0.00973199
0.0187919
0.0316654
0.0693393
0.0560451
0.121228
0.0761732
0.162124
0.0901257
0.188436
0.0987571
0.202443
0.103599
0.207954
0.105725
0.207776
0.105145
0.202872
0.191973
0.100858
0.00830273
0.0104892
0.0301919
0.0474501
0.0586294
0.0927905
0.0857454
0.135008
0.107157
0.167025
0.122108
0.187492
0.131736
0.198326
0.137361
0.202151
0.139579
0.200653
0.194714
0.136838
0.00632638
0.00416278
0.0255688
0.0282077
0.0546652
0.0636941
0.0869685
0.102705
0.116337
0.137657
0.139487
0.164341
0.155884
0.181929
0.166459
0.191576
0.172191
0.194921
0.19364
0.173265
0.00427895
-0.000116165
0.0192083
0.0132784
0.0450297
0.0378728
0.0782583
0.0694765
0.113334
0.102581
0.145332
0.132343
0.171332
0.155929
0.190517
0.172391
0.203467
0.181971
0.187349
0.209757
0.00255004
-0.00266621
0.0128139
0.00301455
0.0327258
0.0179608
0.0618664
0.040336
0.0971819
0.0672655
0.134299
0.0952258
0.169168
0.12106
0.198656
0.142903
0.221809
0.158818
0.170466
0.238693
0.00124693
-0.00391313
0.00747694
-0.00321547
0.0209494
0.00448839
0.0429246
0.0183608
0.072912
0.0372781
0.10866
0.0594781
0.146962
0.0827584
0.184657
0.105208
0.217922
0.125553
0.138538
0.24985
0.000334327
-0.00424746
0.00345402
-0.00633517
0.0113736
-0.00343115
0.0257733
0.00396103
0.0475507
0.0155007
0.0764247
0.0306042
0.11089
0.0482927
0.148884
0.0672139
0.18745
0.0869867
0.103789
0.222199
-0.000350993
-0.00389647
0.000565559
-0.00725172
0.00438424
-0.00724983
0.0125791
-0.00423387
0.0263632
0.00171659
0.0464496
0.0105178
0.0728551
0.0218873
0.104776
0.0352933
0.141521
0.0502415
0.0701846
0.175125
-0.000752114
-0.00314435
-0.00111142
-0.00689242
0.000215546
-0.0085768
0.00424011
-0.00825844
0.0118636
-0.0059069
0.0238224
-0.001441
0.0406599
0.0050498
0.0623542
0.013599
0.0882883
0.0243073
0.0402887
0.118184
-0.000738315
-0.00240604
-0.00118101
-0.00644972
-0.000481684
-0.00927613
0.0017758
-0.0105159
0.00589662
-0.0100277
0.0122246
-0.00776894
0.0209935
-0.00371911
0.0323924
0.00220012
0.0465015
0.0101983
0.0211448
0.0656453
8.5157e-05
-0.0024912
0.00134236
-0.00770692
0.00402179
-0.0119556
0.00797491
-0.014469
0.0129805
-0.0150333
0.0189423
-0.0137308
0.0259617
-0.0107385
0.0343576
-0.00619579
0.04475
-0.000194175
0.00756603
0.0583288
0.00139858
-0.00388978
0.00539982
-0.0117082
0.0114354
-0.0179911
0.0188611
-0.0218948
0.0272115
-0.0233837
0.0362703
-0.0227896
0.0460613
-0.0205295
0.0568324
-0.0169668
0.0689793
-0.0123411
-0.00647726
0.0830226
0.0026965
-0.00658627
0.00900244
-0.0180141
0.017405
-0.0263936
0.0268703
-0.0313601
0.0369012
-0.0334146
0.0473945
-0.0332828
0.0584718
-0.0316068
0.0703634
-0.0288585
0.0833594
-0.0253371
-0.0209188
0.0978009
0.00347115
-0.0100574
0.0104156
-0.0249586
0.0186106
-0.0345887
0.027003
-0.0397525
0.0353614
-0.041773
0.0438674
-0.0417888
0.0528201
-0.0405596
0.0624834
-0.0385217
0.073041
-0.0358948
-0.0326733
0.0847956
0.00316635
-0.0132238
0.00832145
-0.0301137
0.0133303
-0.0395975
0.0176604
-0.0440826
0.0215764
-0.045689
0.0255455
-0.045758
0.0299491
-0.0449632
0.0350045
-0.0435771
0.0408126
-0.0417028
-0.0394975
0.0476368
0.001632
-0.0148558
0.00298709
-0.0314688
0.00295592
-0.0395663
0.00184601
-0.0429727
0.000334364
-0.0441773
-0.00103724
-0.0443864
-0.00200282
-0.0439976
-0.0025047
-0.0430752
-0.00261636
-0.0415912
-0.0396091
-0.00250474
-0.000655547
-0.00381051
-0.00900535
-0.0152448
-0.0216861
-0.0278444
-0.0335088
-0.0386106
-0.04311
-0.0468208
0.240872
0.193309
-0.259056
0.209682
0.627243
-0.596053
0.12683
0.68897
-0.606118
0.0823338
0.378913
-0.334416
0.0848787
-0.00385913
0.00131423
0.0858415
-0.168338
0.167375
0.0916347
-0.179468
0.173674
0.111587
-0.163531
0.143579
0.142596
-0.158824
0.127814
-0.100741
0.0759142
0.200686
0.110808
0.216021
0.611907
0.149673
0.755318
0.113435
0.415151
0.10446
0.00511637
0.0826166
-0.146495
0.079596
-0.176447
0.0983406
-0.182276
0.132176
-0.192659
-0.129001
0.167422
0.00903138
0.215779
0.56355
0.164356
0.806741
0.134161
0.445346
0.105996
0.0332812
0.0671135
-0.107612
0.0637282
-0.173062
0.0850489
-0.203597
0.121993
-0.229603
-0.159985
0.158969
-0.0916092
0.207484
0.515035
0.170866
0.843359
0.140666
0.475546
0.0929171
0.0810297
0.0475433
-0.0622382
0.0528645
-0.178383
0.0792806
-0.230013
0.118195
-0.268517
-0.191782
0.159454
-0.16804
0.188755
0.485733
0.167681
0.864433
0.132173
0.511054
0.0696754
0.143528
0.031675
-0.0242378
0.0512442
-0.197952
0.0827959
-0.261565
0.122007
-0.307728
-0.222471
0.143629
-0.213868
0.16088
0.468482
0.153822
0.871491
0.109923
0.554954
0.042089
0.211362
0.0242295
-0.00637828
0.0578902
-0.231613
0.0933073
-0.296982
0.131589
-0.346009
-0.250821
0.107842
-0.236914
0.125407
0.450916
0.128322
0.868576
0.0771287
0.606147
0.0173775
0.271113
0.0260445
-0.0150453
0.0702002
-0.275768
0.108537
-0.335319
0.145091
-0.382563
-0.276102
0.0586301
-0.247907
0.0843237
0.425223
0.0931414
0.859758
0.0407186
0.65857
0.000970852
0.310861
0.0359838
-0.0500582
0.0868234
-0.326608
0.127282
-0.375777
0.16142
-0.416702
-0.297861
0.002019
-0.252431
0.0420722
0.38517
0.0522608
0.849569
0.00748103
0.70335
-0.0018311
0.320173
0.0518599
-0.103749
0.107103
-0.381851
0.148546
-0.41722
0.179599
-0.447756
-0.3159
-0.0505215
0.00130881
0.00585059
-0.0178435
0.0102393
0.0727754
0.130339
0.171463
0.198728
0.0317561
0.0418493
-0.0736054
-0.00267959
0.0344357
-0.025878
0.0231984
-0.0507928
0.0249148
-0.0606444
0.00985159
-0.0376178
-0.0230266
-0.0106686
-0.0269492
0.0084858
-0.0191544
0.0228431
-0.0143573
-0.007406
0.170958
0.144136
-0.273244
0.0512359
0.154158
-0.0336299
0.108064
-0.0800907
0.0713755
-0.0775419
0.00730285
-0.031535
-0.0690335
0.013658
-0.0721423
0.0465036
-0.052
0.0722322
-0.040086
-0.0213131
0.328923
0.241619
-0.426406
0.157183
0.325898
0.0100255
0.255221
-0.056179
0.13758
-0.0419063
-0.00696989
0.00649211
-0.117432
0.0506387
-0.116289
0.0844657
-0.0858269
0.113011
-0.0686316
-0.0378054
0.435173
0.286457
-0.480011
0.262077
0.498994
0.0793521
0.437947
-0.00350187
0.220434
0.00936083
-0.0198326
0.0459843
-0.154055
0.0813569
-0.151661
0.112091
-0.116561
0.140839
-0.0973797
-0.0555661
0.457072
-0.429671
0.360013
0.191841
0.0778588
0.0593404
0.0726606
0.0946734
0.121692
0.152126
0.0123584
-7.94608e-05
-0.0122789
0.0140421
-0.00168372
0.0171506
-0.00310852
0.0215641
-0.00441343
0.0279924
-0.00642839
0.0345348
-0.00654232
0.0439806
-0.00944586
0.0524259
-0.00844533
0.0639489
-0.0115229
-0.00965652
0.0340274
-0.000696594
-0.0334103
0.0389645
-0.00662085
0.047956
-0.0121
0.0618382
-0.0182956
0.0814261
-0.0260163
0.10475
-0.0298662
0.138317
-0.0430125
0.174012
-0.0441406
0.220939
-0.0584497
-0.0619623
0.0525715
-0.00223375
-0.0510343
0.0605369
-0.0145863
0.0748789
-0.026442
0.0972512
-0.0406679
0.127529
-0.0562944
0.167166
-0.0695031
0.218932
-0.0947788
0.276456
-0.101664
0.350883
-0.132877
-0.137485
0.0678186
-0.00490221
-0.0651502
0.0782757
-0.0250434
0.0970597
-0.045226
0.125408
-0.0690158
0.163236
-0.0941226
0.214112
-0.12038
0.271649
-0.152315
0.341732
-0.171747
0.419098
-0.210244
-0.198398
0.0799161
-0.0760517
0.0923746
0.114433
0.146275
0.18899
0.241876
0.299318
0.366264
0.40587
0.0896805
-0.086883
0.0948684
-0.0976659
0.0805928
-0.0881548
0.0972425
0.0710026
-0.0901982
0.0997884
0.0606597
-0.0923675
0.10271
0.0495097
-0.0945772
0.105727
0.0376993
-0.0965751
0.108385
0.0256075
-0.0972249
0.109317
0.0140366
-0.0932519
0.104823
0.00458261
-0.0776973
0.0871513
-0.0390817
0.0436643
0.099429
-0.0767093
-0.109603
0.0887753
-0.0775011
0.0773611
-0.078784
0.0652853
-0.0802917
0.0527336
-0.0820255
0.0398854
-0.0837269
0.0270208
-0.0843603
0.0148326
-0.0810637
0.00487394
-0.0677386
-0.0342077
0.101531
-0.0649995
-0.113241
0.0897335
-0.0657036
0.0777335
-0.066784
0.0655287
-0.0680869
0.0530649
-0.0695617
0.0403103
-0.0709723
0.0274347
-0.0714847
0.0151143
-0.0687432
0.00496657
-0.0575909
-0.0292411
0.107403
-0.0529277
-0.119475
0.0951874
-0.0534878
0.0827314
-0.054328
0.0699404
-0.055296
0.0567537
-0.0563749
0.0431974
-0.0574161
0.0295029
-0.0577901
0.0163738
-0.0556142
0.00546464
-0.0466818
-0.0237765
0.109596
-0.0403458
-0.122178
0.0969154
-0.0408072
0.0839875
-0.0414
0.0707876
-0.0420961
0.0573033
-0.0428907
0.0435654
-0.0436781
0.0297613
-0.043986
0.0165329
-0.0423858
0.00551774
-0.0356666
-0.0182588
0.112131
-0.0277323
-0.124744
0.0992983
-0.027975
0.0862154
-0.0283171
0.0728447
-0.0287254
0.0591529
-0.0291989
0.045144
-0.0296692
0.0309871
-0.0298291
0.01733
-0.0287287
0.00585491
-0.0241916
-0.0124038
0.112991
-0.0150029
-0.125721
0.100083
-0.0150667
0.0869099
-0.0151438
0.0734407
-0.0152562
0.0596465
-0.0154047
0.045536
-0.0155587
0.0312772
-0.0155703
0.0175093
-0.0149607
0.00592083
-0.0126031
-0.00648302
0.113368
-0.00237388
-0.125997
0.100479
-0.00217766
0.0873033
-0.00196807
0.0738112
-0.00176409
0.0599773
-0.00157079
0.0458145
-0.00139588
0.0314934
-0.00124926
0.0176542
-0.0011215
0.00598574
-0.000934645
-0.000497275
0.113011
0.0101802
-0.125565
0.100193
0.0106397
0.0870791
0.0111461
0.0736407
0.0116743
0.0598531
0.0122167
0.0457287
0.0127285
0.0314376
0.0130418
0.0176212
0.0126949
0.00597152
0.010715
0.00547425
0.112084
-0.124528
0.0993752
0.0863657
0.0730304
0.0593457
0.0453252
0.0311409
0.0174359
0.00589787
0.0156458
-0.173467
-0.0181753
0.0106196
-0.188332
0.0045814
-0.197037
-0.00158625
-0.202707
-0.00725539
-0.206453
-0.0116508
-0.207658
-0.0136147
-0.203072
-0.0117955
-0.185367
-0.0058988
-0.142703
-0.0623768
0.0408455
-0.169615
-0.0446966
0.0339327
-0.181419
0.0258688