/*--------------------------------*- C++ -*----------------------------------*\
  =========                 |
  \\      /  F ield         | OpenFOAM: The Open Source CFD Toolbox
   \\    /   O peration     | Website:  https://openfoam.org
    \\  /    A nd           | Version:  13
     \\/     M anipulation  |
\*---------------------------------------------------------------------------*/
FoamFile
{
    format      ascii;
    class       volVectorField;
    location    "4.8";
    object      U;
}
// * * * * * * * * * * * * * * * * * * * * * * * * * * * * * * * * * * * * * //

dimensions      [0 1 -1 0 0 0 0];

internalField   nonuniform List<vector> 
1800
(
(-0.0220126 0.0185444 5.13822e-21)
(-0.0553163 0.0379989 1.96968e-21)
(-0.0738311 0.0487315 -8.49736e-21)
(-0.0746577 0.0555482 1.48971e-20)
(-0.0537121 0.0629646 3.5865e-20)
(-0.0074099 0.0738053 8.3102e-21)
(0.0671319 0.0902403 7.34459e-21)
(0.169023 0.113102 1.02935e-19)
(0.307863 0.164114 1.81219e-19)
(0.376291 0.203484 1.7848e-19)
(-0.0298669 0.0222108 3.93764e-21)
(-0.0607391 0.0418239 -2.36886e-20)
(-0.0602481 0.0473172 2.28295e-22)
(-0.0259989 0.043863 -2.34682e-20)
(0.045562 0.0361824 5.88541e-21)
(0.157349 0.0273076 6.96304e-20)
(0.310303 0.019522 -3.59469e-20)
(0.499216 0.0109133 2.11068e-21)
(0.734687 0.0303912 -2.36011e-19)
(0.857779 0.0461033 1.92612e-19)
(-0.0333852 0.0218151 3.24577e-21)
(-0.0509463 0.037009 1.20806e-20)
(-0.0177202 0.0374303 1.17291e-20)
(0.0674959 0.0281218 -1.31802e-20)
(0.206423 0.0143806 -9.36696e-20)
(0.397078 0.00010181 2.05308e-20)
(0.631862 -0.0116706 3.5403e-20)
(0.896771 -0.0209277 -6.04519e-21)
(1.18561 -0.0177562 4.16522e-22)
(1.41259 -0.0258556 6.68769e-21)
(-0.0304976 0.0171229 -5.91036e-21)
(-0.0188998 0.0219813 -1.9464e-20)
(0.0669029 0.0145537 -2.1487e-20)
(0.225632 0.000326478 1.40247e-20)
(0.452198 -0.0148134 2.27614e-20)
(0.732414 -0.026496 5.34796e-21)
(1.04347 -0.0324088 -2.19315e-21)
(1.35943 -0.0318525 5.37714e-20)
(1.65858 -0.0267277 3.68021e-20)
(1.90617 -0.0232015 -1.76164e-20)
(-0.0192365 0.00985187 4.20894e-20)
(0.0425468 0.00272262 4.25708e-20)
(0.204395 -0.0106234 -2.56511e-20)
(0.456528 -0.0240155 -3.10022e-20)
(0.777102 -0.0317456 -1.06857e-19)
(1.13112 -0.0313549 1.48758e-21)
(1.47976 -0.0237075 1.31304e-19)
(1.79124 -0.0115051 5.62947e-20)
(2.04464 0.00135331 -1.1776e-21)
(2.23943 0.00742124 -5.86559e-20)
(0.00458306 0.000568612 -4.31416e-20)
(0.142236 -0.0165951 9.27269e-21)
(0.402147 -0.0295656 1.63567e-19)
(0.754974 -0.0327762 -5.51518e-20)
(1.15134 -0.0243552 -1.12961e-19)
(1.53563 -0.00718273 2.31226e-19)
(1.86488 0.0134507 -2.38749e-19)
(2.11722 0.032547 -3.43805e-19)
(2.2918 0.0463712 2.86642e-19)
(2.3994 0.0537606 5.9373e-21)
(0.0445382 -0.0088249 5.86773e-20)
(0.28387 -0.0293108 -1.32528e-19)
(0.653133 -0.0316855 -4.12164e-19)
(1.09078 -0.0151132 1.91378e-19)
(1.51944 0.0135029 4.17815e-19)
(1.87924 0.0448178 -1.64155e-21)
(2.14383 0.0716043 -9.28242e-19)
(2.31609 0.0902668 7.34807e-21)
(2.41512 0.101293 1.17256e-18)
(2.46476 0.102998 3.26188e-19)
(0.102227 -0.0150922 4.77583e-20)
(0.462684 -0.0271922 2.8584e-19)
(0.934286 -0.00767634 3.3712e-19)
(1.41937 0.0335553 -9.34036e-20)
(1.83094 0.0789244 -3.91119e-19)
(2.12943 0.116467 -1.52446e-19)
(2.31822 0.141791 0)
(2.42279 0.155712 5.0382e-19)
(2.47244 0.160951 -1.27443e-20)
(2.49005 0.159433 -4.94952e-19)
(0.175965 -0.014305 4.79421e-20)
(0.664273 -0.00287254 3.14254e-19)
(1.21279 0.0471795 5.56654e-19)
(1.70226 0.111201 -5.75484e-19)
(2.06392 0.165624 -5.11599e-19)
(2.29226 0.202141 2.12129e-19)
(2.41644 0.221975 -1.02918e-18)
(2.47284 0.229663 -7.93973e-19)
(2.49042 0.229905 9.81453e-19)
(2.48647 0.22393 8.57766e-19)
(0.260744 -0.00286086 -3.67622e-20)
(0.86824 0.0475474 2.44689e-19)
(1.45939 0.131473 1.49929e-19)
(1.9212 0.211958 -1.20328e-18)
(2.22141 0.267899 4.06812e-20)
(2.38645 0.298498 2.50763e-18)
(2.46112 0.310358 -1.47729e-18)
(2.48469 0.310744 -8.69705e-19)
(2.48268 0.304729 3.13082e-19)
(2.46762 0.294149 -7.14697e-19)
(0.00304793 -0.163228 -2.10425e-19)
(-0.02112 -0.317772 -8.73027e-21)
(-0.0657329 -0.38101 1.45145e-21)
(-0.118273 -0.406156 2.38223e-20)
(-0.169981 -0.419537 4.68647e-21)
(-0.217797 -0.429072 2.13596e-19)
(-0.260642 -0.434741 4.6193e-21)
(-0.298143 -0.434988 -2.35972e-19)
(-0.331925 -0.429032 -1.70667e-20)
(-0.367023 -0.41725 4.69712e-20)
(0.00805204 -0.117075 -2.71428e-20)
(-0.0210906 -0.217984 -6.69706e-20)
(-0.0736804 -0.256293 7.93115e-20)
(-0.135212 -0.274144 3.781e-20)
(-0.196251 -0.289427 1.18965e-19)
(-0.253859 -0.305247 1.88563e-19)
(-0.30709 -0.319353 -1.86943e-19)
(-0.355644 -0.329339 -1.62375e-19)
(-0.400825 -0.33402 3.05613e-19)
(-0.445851 -0.332889 -7.54446e-20)
(0.00715862 -0.0649745 2.2696e-20)
(-0.0224138 -0.11102 -9.9372e-20)
(-0.0728575 -0.122917 -3.40271e-20)
(-0.131911 -0.12957 -1.14098e-19)
(-0.191465 -0.141831 -3.03052e-20)
(-0.248879 -0.159638 2.83158e-19)
(-0.303246 -0.179193 1.46882e-20)
(-0.35406 -0.19715 -2.3506e-19)
(-0.401379 -0.21144 2.26096e-19)
(-0.446091 -0.220234 1.21366e-19)
(0.00299726 -0.0239301 3.39702e-20)
(-0.0224035 -0.0249661 7.90383e-21)
(-0.062618 -0.010078 -1.11163e-20)
(-0.109709 0.00095457 5.31851e-20)
(-0.158026 0.000189705 -6.51255e-20)
(-0.205457 -0.0116901 -7.14126e-20)
(-0.251179 -0.0302907 -2.30609e-20)
(-0.294548 -0.051309 2.23371e-21)
(-0.33402 -0.0715112 -2.1797e-20)
(-0.367108 -0.087656 2.7322e-21)
(-0.000313752 -0.00303723 0)
(-0.0193232 0.0216296 -1.55651e-20)
(-0.046831 0.0578406 2.52844e-20)
(-0.0779504 0.0898957 4.67607e-21)
(-0.109576 0.108799 4.75769e-20)
(-0.140412 0.112546 -2.19597e-21)
(-0.169965 0.103747 -9.23081e-21)
(-0.198001 0.086587 4.84663e-20)
(-0.222763 0.0653744 0)
(-0.236984 0.0452071 4.65103e-22)
(-0.000335284 0.000519462 -8.35796e-21)
(-0.0129813 0.0302423 9.93268e-21)
(-0.0304966 0.0750461 2.59611e-20)
(-0.049287 0.12118 -4.02205e-20)
(-0.0669355 0.158604 3.34326e-20)
(-0.0823105 0.182134 -2.34363e-20)
(-0.0949777 0.190796 4.16664e-20)
(-0.104642 0.186253 -1.91645e-20)
(-0.111616 0.170809 -1.59669e-19)
(-0.107365 0.150495 -1.17123e-21)
(0.00196796 -0.00309518 1.29998e-21)
(-0.00668353 0.0188447 2.91451e-20)
(-0.0204452 0.0585704 -2.98497e-20)
(-0.0349413 0.104881 -5.54065e-21)
(-0.04733 0.148498 -9.07463e-21)
(-0.0561153 0.182927 -4.67085e-20)
(-0.0606365 0.204604 -4.18002e-20)
(-0.0605411 0.212188 -9.42343e-20)
(-0.055348 0.205166 9.45772e-20)
(-0.0387319 0.186311 1.80354e-19)
(0.0028798 -0.00492611 9.91089e-21)
(-0.00644367 0.00769567 -1.37328e-20)
(-0.0226702 0.0361398 -3.42766e-20)
(-0.0405883 0.0727466 1.27577e-20)
(-0.0564744 0.110801 4.69739e-21)
(-0.0683625 0.144537 1.02933e-19)
(-0.0751049 0.169625 1.33492e-19)
(-0.075599 0.182778 -8.86457e-20)
(-0.0681451 0.18047 -7.19405e-20)
(-0.0468634 0.15928 1.213e-19)
(-0.000501714 -0.00129757 1.20281e-20)
(-0.0166313 0.0071337 3.77807e-21)
(-0.0391561 0.024824 1.97067e-20)
(-0.0627681 0.0485753 3.51628e-20)
(-0.0834863 0.0752597 -3.36881e-20)
(-0.0989298 0.101309 8.64434e-20)
(-0.107323 0.122996 -4.72382e-21)
(-0.106522 0.136142 -1.64363e-19)
(-0.0934967 0.134182 -5.00832e-20)
(-0.0572392 0.112281 7.93151e-20)
(-0.0109924 0.00879937 1.2318e-21)
(-0.0391802 0.0213169 6.93992e-21)
(-0.0670642 0.033515 4.4984e-22)
(-0.0903694 0.0475224 1.10664e-20)
(-0.105272 0.0647814 3.09883e-20)
(-0.109154 0.0854413 -3.5274e-20)
(-0.0996951 0.108598 -2.81162e-20)
(-0.0749492 0.131696 8.04792e-21)
(-0.0312702 0.147187 -1.95233e-20)
(0.0446405 0.147682 -6.75484e-21)
(-0.548585 -0.334213 -1.02192e-18)
(-0.400767 0.432292 2.10726e-18)
(-0.0533811 1.16645 -2.36341e-20)
(-0.406702 1.01068 4.4455e-19)
(0.0183636 0.367578 -4.16366e-19)
(0.291429 -0.277106 -3.49306e-19)
(0.693116 -0.65286 -2.48749e-19)
(0.873292 -0.666423 3.21062e-20)
(1.05105 -0.678767 3.95667e-20)
(1.15387 -0.468869 -1.83437e-21)
(-0.662872 -0.3015 -1.06013e-18)
(-0.655832 0.363155 -7.76759e-19)
(-0.269937 1.16664 -1.76973e-20)
(-0.584882 0.97118 -4.35614e-19)
(0.151073 0.246542 -1.92931e-18)
(0.45641 -0.373756 0)
(0.863344 -0.731373 -2.08193e-19)
(1.0146 -0.721248 -1.11219e-20)
(1.17735 -0.709061 -3.23686e-21)
(1.23132 -0.483005 -2.09804e-20)
(-0.663207 -0.244693 7.02656e-19)
(-0.848834 0.295376 6.5642e-19)
(-0.398186 1.13677 -2.90122e-19)
(-0.524611 0.89975 -9.9513e-21)
(0.321499 0.102179 2.96479e-20)
(0.659162 -0.472434 -7.12004e-20)
(1.04857 -0.801592 0)
(1.16165 -0.768989 0)
(1.30198 -0.730672 -3.35856e-20)
(1.3056 -0.490347 0)
(-0.535237 -0.167378 1.7725e-19)
(-0.901812 0.232516 -1.19862e-18)
(-0.443823 1.04395 2.46737e-20)
(-0.279436 0.805041 0)
(0.534399 -0.0323212 1.06039e-18)
(0.890177 -0.567427 -1.85746e-19)
(1.24309 -0.860822 0)
(1.31047 -0.806997 1.51527e-19)
(1.42204 -0.742772 0)
(1.37476 -0.49067 3.27403e-20)
(-0.308322 -0.0855714 -1.91661e-20)
(-0.758067 0.190747 -9.42035e-19)
(-0.417426 0.899639 -3.16254e-20)
(0.0407814 0.677232 0)
(0.783921 -0.14602 2.08506e-19)
(1.13428 -0.653342 2.98987e-19)
(1.43875 -0.908332 -9.99168e-20)
(1.45632 -0.833764 -1.78369e-20)
(1.53483 -0.744901 -1.44929e-20)
(1.43708 -0.483933 -5.41546e-21)
(-0.0603447 -0.0184444 9.63294e-19)
(-0.436232 0.172793 1.20764e-18)
(-0.283804 0.749358 2.22368e-20)
(0.35742 0.532542 -1.97264e-21)
(1.04988 -0.241948 -1.42048e-19)
(1.37861 -0.726244 7.85687e-20)
(1.62784 -0.943754 1.94063e-19)
(1.59466 -0.849012 -1.72261e-19)
(1.63788 -0.737052 2.20147e-21)
(1.49111 -0.470294 -7.19372e-20)
(0.117857 0.00658989 2.30632e-19)
(-0.0380751 0.162409 -3.15153e-19)
(-0.014803 0.622907 7.36618e-20)
(0.655728 0.397763 6.42717e-21)
(1.31597 -0.320879 5.17003e-20)
(1.61312 -0.78332 -8.10012e-20)
(1.80385 -0.966457 -2.89719e-20)
(1.72172 -0.853314 6.11728e-20)
(1.72918 -0.719629 3.15193e-20)
(1.53571 -0.450113 5.6425e-21)
(0.167406 -0.0213344 -1.73637e-19)
(0.316355 0.126941 -2.25456e-19)
(0.332511 0.522103 0)
(0.937905 0.289155 -9.62028e-20)
(1.57118 -0.381968 -1.72465e-19)
(1.83001 -0.822551 -2.5205e-20)
(1.96161 -0.97569 5.04286e-20)
(1.83453 -0.847509 4.31524e-20)
(1.8071 -0.693464 -1.82733e-21)
(1.57001 -0.424 -3.49577e-20)
(0.212506 -0.0898029 -5.6171e-21)
(0.549013 0.0515236 2.73993e-19)
(0.654352 0.433978 -2.32408e-19)
(1.19632 0.196401 6.93681e-20)
(1.80862 -0.427658 1.46861e-20)
(2.02407 -0.843915 1.80119e-19)
(2.09792 -0.971453 -1.47565e-20)
(1.93117 -0.832245 -7.23212e-21)
(1.87036 -0.659759 2.66479e-20)
(1.59345 -0.392817 6.46758e-20)
(0.453491 -0.164333 2.17045e-21)
(0.720163 -0.0696819 9.63476e-20)
(0.854668 0.327526 6.66765e-20)
(1.42066 0.143125 4.48274e-19)
(2.02407 -0.456128 3.64032e-19)
(2.19159 -0.85073 1.84773e-19)
(2.21114 -0.95638 7.23804e-20)
(2.01032 -0.80866 0)
(1.9178 -0.61987 -6.55121e-20)
(1.60597 -0.357744 6.61924e-20)
(1.20504 -0.172015 -2.24944e-19)
(1.19275 -0.135566 -8.84619e-20)
(1.2178 0.182068 3.75825e-19)
(1.76986 -0.00434441 -9.15931e-20)
(2.30206 -0.524404 -1.49016e-19)
(2.38259 -0.856061 1.01396e-19)
(2.33043 -0.927983 -3.03438e-20)
(2.08848 -0.769113 7.2191e-21)
(1.9555 -0.560704 -1.68933e-20)
(1.60896 -0.310366 -4.19613e-20)
(2.06141 -0.183981 5.49439e-20)
(1.95022 -0.0898974 6.40881e-20)
(1.87628 0.106334 -3.48505e-21)
(2.35037 -0.171627 1.31561e-19)
(2.65977 -0.606018 -1.04924e-18)
(2.54688 -0.858899 -7.22796e-19)
(2.38616 -0.86927 -2.83445e-19)
(2.09661 -0.679849 -1.20279e-20)
(1.93428 -0.451444 1.43198e-19)
(1.56952 -0.232862 1.86635e-20)
(2.36533 -0.164659 -6.78706e-20)
(2.22925 -0.0842397 -5.19683e-21)
(2.31906 0.0166288 -3.16188e-20)
(2.64142 -0.252952 -1.53956e-35)
(2.68529 -0.591375 5.50423e-23)
(2.50343 -0.788232 1.91632e-33)
(2.35156 -0.78166 3.51752e-20)
(2.0693 -0.594937 1.77687e-33)
(1.89501 -0.362011 -8.25594e-21)
(1.51783 -0.167903 2.23515e-20)
(2.4083 -0.137931 -1.89211e-34)
(2.31699 -0.0939769 4.96617e-21)
(2.47621 -0.0649679 8.30865e-20)
(2.60833 -0.276525 0)
(2.61945 -0.561735 4.54662e-19)
(2.50106 -0.749542 2.8967e-19)
(2.3165 -0.714883 6.95327e-20)
(1.98631 -0.505743 2.71361e-33)
(1.76913 -0.255713 -1.05215e-19)
(1.39882 -0.0925833 -2.63956e-20)
(2.38326 -0.120677 -1.46473e-20)
(2.35982 -0.123259 1.7299e-21)
(2.45144 -0.113559 0)
(2.52106 -0.285341 0)
(2.5728 -0.547347 0)
(2.40227 -0.688576 0)
(2.1157 -0.598922 2.37983e-21)
(1.74655 -0.38037 2.21949e-33)
(1.5236 -0.145221 -8.88201e-21)
(1.21816 -0.0280766 -3.62045e-33)
(2.36212 -0.118485 4.09396e-20)
(2.3642 -0.139461 0)
(2.38743 -0.136875 0)
(2.45787 -0.29449 0)
(2.46531 -0.513248 0)
(2.17796 -0.587626 0)
(1.79997 -0.468952 4.85345e-22)
(1.42185 -0.266654 2.97006e-20)
(1.21086 -0.0562436 -9.23437e-21)
(0.995069 0.0196123 -2.70559e-20)
(2.34355 -0.1212 0)
(2.32393 -0.144396 4.07215e-20)
(2.30733 -0.150876 5.75188e-20)
(2.35595 -0.292113 0)
(2.20945 -0.442134 1.58284e-19)
(1.74991 -0.439763 1.05316e-19)
(1.28982 -0.307514 4.78467e-20)
(0.952982 -0.146264 1.21599e-20)
(0.808644 0.0128562 -1.26211e-20)
(0.727886 0.0467493 -2.54795e-20)
(2.24885 -0.118036 -1.94673e-21)
(2.16119 -0.131106 1.61748e-21)
(2.12183 -0.145434 -1.49904e-21)
(2.04307 -0.24838 -3.70842e-35)
(1.65439 -0.299725 -5.63963e-21)
(1.09636 -0.24417 5.24625e-34)
(0.687284 -0.154116 5.4597e-21)
(0.461405 -0.0661089 -1.75354e-20)
(0.406114 0.0324303 -8.38689e-21)
(0.448735 0.043838 3.03916e-20)
(1.83125 -0.0931266 1.7564e-20)
(1.68076 -0.103141 -1.89822e-20)
(1.56867 -0.115398 -3.46474e-21)
(1.27968 -0.115676 0)
(0.815669 -0.0922588 -1.14152e-20)
(0.432362 -0.0827094 -1.52882e-20)
(0.196589 -0.0673952 -1.9665e-20)
(0.0666433 -0.0350893 -3.3579e-20)
(0.0604331 0.0173274 4.12247e-20)
(0.157728 0.0239179 -3.68352e-20)
(0.765361 -0.0225196 0)
(0.609447 -0.0201267 0)
(0.451009 -0.000328951 0)
(0.311269 0.0129193 0)
(0.197714 0.00309562 0)
(0.0847689 -0.0108454 0)
(-0.0391878 -0.0135384 4.47811e-21)
(-0.136534 -0.0103747 1.694e-35)
(-0.155587 -0.00015465 -8.33481e-21)
(-0.0938061 0.00292061 -2.78255e-20)
(2.41291 0.269713 6.9568e-19)
(2.45509 0.21045 4.14328e-20)
(2.4665 0.154636 -6.26275e-20)
(2.4917 0.110275 -2.12834e-19)
(2.4775 0.0631851 -2.99497e-20)
(2.45309 0.0397663 -4.74284e-20)
(2.37701 -0.00794845 -1.81589e-19)
(2.12591 0.00474838 1.7186e-20)
(1.92927 -0.0503354 0)
(1.19983 0.0492992 7.42845e-20)
(2.33974 0.22842 2.34426e-19)
(2.35857 0.190929 -2.49707e-19)
(2.41968 0.134675 -6.52731e-20)
(2.40343 0.109909 -1.0949e-19)
(2.49049 0.0538677 1.01999e-19)
(2.40671 0.0420946 1.6988e-19)
(2.53668 -0.0186277 -2.28808e-19)
(2.31858 -0.0227559 -5.0829e-21)
(2.4488 -0.0801594 -1.33266e-20)
(2.01643 -0.0704094 8.12589e-20)
(2.29943 0.193834 -1.0173e-19)
(2.2732 0.162784 2.40069e-19)
(2.3829 0.116427 1.3633e-19)
(2.31462 0.092658 -2.42948e-19)
(2.45345 0.0481321 -5.17955e-20)
(2.33925 0.0288115 3.53408e-19)
(2.50086 -0.0122264 6.56701e-20)
(2.35551 -0.0316102 -7.24717e-20)
(2.49195 -0.0645736 -4.17327e-20)
(2.33466 -0.0860006 -4.34652e-20)
(2.25576 0.160695 -2.852e-19)
(2.23082 0.128065 -6.36842e-20)
(2.3296 0.0974048 4.87927e-20)
(2.28007 0.0685496 -3.93509e-21)
(2.38248 0.0404117 -2.24279e-19)
(2.32211 0.0149012 -7.1932e-20)
(2.41249 -0.00962364 1.91333e-19)
(2.36577 -0.0321548 -1.24052e-20)
(2.42179 -0.0533036 3.73496e-20)
(2.40102 -0.0733952 1.63881e-20)
(2.20693 0.12598 3.08089e-20)
(2.2124 0.095673 1.32544e-19)
(2.27184 0.0740215 -9.49017e-21)
(2.26824 0.0470531 1.47987e-19)
(2.31728 0.0265628 -5.69315e-20)
(2.31464 0.00401208 -2.04662e-19)
(2.34649 -0.015301 3.14105e-20)
(2.35396 -0.0331558 -6.93901e-20)
(2.36697 -0.0519605 1.8512e-21)
(2.38446 -0.0659712 -5.88926e-21)
(2.16385 0.0895091 -1.56546e-19)
(2.19066 0.066042 -6.3453e-20)
(2.22563 0.0473613 -1.60843e-20)
(2.24789 0.0272273 9.72545e-20)
(2.27281 0.00858231 2.57856e-19)
(2.29343 -0.00756128 -5.84176e-20)
(2.30796 -0.0263663 5.32021e-21)
(2.32809 -0.0387757 -6.8742e-20)
(2.33465 -0.0577296 -9.39175e-20)
(2.35347 -0.0671053 -3.14322e-20)
(2.11492 0.0538111 -4.8278e-20)
(2.1479 0.0370403 -1.14006e-19)
(2.17644 0.0208101 -1.45435e-19)
(2.20549 0.00673785 -2.51615e-19)
(2.22794 -0.00988078 7.74772e-20)
(2.25335 -0.0214119 6.36868e-20)
(2.27001 -0.038677 -6.58204e-21)
(2.29195 -0.0482771 7.1935e-20)
(2.30336 -0.0659353 -7.31899e-20)
(2.32287 -0.0740485 -4.13882e-20)
(2.00458 0.0205 5.98102e-20)
(2.03868 0.00862842 2.10904e-20)
(2.06074 -0.00283836 1.58215e-20)
(2.09474 -0.0131213 -3.35605e-20)
(2.11244 -0.0248212 -3.19841e-20)
(2.14701 -0.0340164 -5.20572e-20)
(2.15992 -0.0464989 -4.41438e-20)
(2.19592 -0.0552783 9.10682e-20)
(2.20297 -0.0687679 -3.7858e-20)
(2.24221 -0.0776483 1.3193e-20)
(1.69132 -0.0079922 -7.00996e-20)
(1.71505 -0.0144044 -1.54508e-20)
(1.7231 -0.0199052 1.22811e-19)
(1.75228 -0.0256834 -1.94281e-20)
(1.75587 -0.03091 -3.44262e-20)
(1.79307 -0.0368674 6.98416e-20)
(1.79016 -0.0424603 -5.19915e-20)
(1.83759 -0.049399 3.88241e-20)
(1.82498 -0.0561631 -1.44248e-20)
(1.88546 -0.0648525 -6.23013e-20)
(0.859226 -0.00940138 5.04765e-20)
(0.855162 -0.0085645 4.36221e-20)
(0.84881 -0.00811366 4.35226e-20)
(0.849152 -0.00747067 7.20602e-20)
(0.843673 -0.00759179 -3.63339e-20)
(0.849832 -0.00740866 -4.8808e-20)
(0.842242 -0.0082432 2.13329e-20)
(0.856673 -0.00906139 -2.12149e-21)
(0.838957 -0.0100593 3.06473e-21)
(0.870638 -0.0148755 -4.68017e-21)
(1.51669 0.923315 -7.62913e-20)
(1.50173 0.969239 2.57632e-20)
(1.50516 1.02246 -5.80911e-19)
(1.51343 1.08271 2.25477e-19)
(1.51952 1.14599 1.09657e-18)
(1.51473 1.20415 -1.41039e-19)
(1.47738 1.23493 -9.85869e-19)
(1.35883 1.18754 -1.156e-20)
(1.07394 0.970233 -4.83748e-19)
(0.501791 0.464211 1.20065e-19)
(1.67556 0.896938 0)
(1.66546 0.941444 6.76826e-19)
(1.66557 0.990986 1.50474e-18)
(1.67343 1.04866 -9.26677e-19)
(1.68255 1.11023 -2.17356e-18)
(1.68065 1.16599 -1.45857e-19)
(1.64085 1.19235 -1.86351e-19)
(1.50705 1.13928 6.76222e-19)
(1.18492 0.921169 9.90463e-19)
(0.547852 0.433098 3.99435e-19)
(1.821 0.862514 6.47904e-20)
(1.81978 0.906284 0)
(1.82169 0.952615 -6.4459e-20)
(1.83048 1.00552 9.43358e-19)
(1.84153 1.06188 5.28971e-20)
(1.84044 1.11162 -2.12921e-18)
(1.79533 1.13074 1.34003e-18)
(1.64315 1.07109 7.93164e-19)
(1.28207 0.854661 -8.46428e-19)
(0.584361 0.392846 -2.57526e-19)
(1.95025 0.81844 -1.65699e-19)
(1.95806 0.860125 -1.24296e-19)
(1.96505 0.902786 2.59433e-19)
(1.97664 0.950214 -3.22413e-19)
(1.98933 0.999915 -1.49744e-18)
(1.98709 1.04187 -1.1597e-18)
(1.93373 1.05183 1.21658e-18)
(1.75941 0.984 7.88998e-19)
(1.35718 0.771531 0)
(0.606898 0.344051 0)
(2.06288 0.760775 -8.52496e-19)
(2.07888 0.799564 -1.55126e-18)
(2.09222 0.838394 -6.00205e-19)
(2.10755 0.880376 -3.19661e-20)
(2.12134 0.922984 0)
(2.11596 0.955264 1.27656e-19)
(2.04988 0.954704 1.46551e-19)
(1.84772 0.88054 1.81184e-19)
(1.40351 0.674385 -2.59084e-19)
(0.612103 0.287802 -6.47585e-20)
(2.16294 0.6935 1.00991e-18)
(2.18465 0.727979 -3.97558e-20)
(2.20308 0.762102 -1.18909e-18)
(2.22129 0.797905 0)
(2.23439 0.83231 0)
(2.22159 0.854692 0)
(2.13652 0.843358 1.34541e-18)
(1.90144 0.762118 -1.47013e-18)
(1.41594 0.564852 -9.2485e-19)
(0.597312 0.226937 1.22203e-20)
(2.24938 0.6165 -1.31013e-18)
(2.27537 0.646166 -2.74922e-18)
(2.29712 0.675472 -4.75685e-21)
(2.31612 0.704985 5.53789e-19)
(2.32507 0.730958 -3.44931e-20)
(2.29935 0.742798 1.16095e-18)
(2.18871 0.720211 -6.3454e-19)
(1.9151 0.632595 -1.66403e-18)
(1.38946 0.448043 9.22556e-20)
(0.561579 0.165569 7.10468e-20)
(2.3249 0.535715 -1.01609e-18)
(2.35157 0.560373 1.50856e-20)
(2.37364 0.584079 3.81704e-19)
(2.39015 0.606459 -3.67241e-19)
(2.3902 0.623142 5.67636e-19)
(2.34474 0.623635 1.49978e-18)
(2.20033 0.589768 -1.30457e-19)
(1.88228 0.497715 -8.56192e-19)
(1.3204 0.330645 1.92948e-19)
(0.505844 0.108209 3.54821e-20)
(2.38569 0.452331 3.65405e-19)
(2.41176 0.472515 7.60845e-20)
(2.43151 0.490507 -3.77417e-19)
(2.44138 0.505426 -8.72884e-19)
(2.42611 0.512442 6.2183e-20)
(2.35205 0.501523 4.61937e-20)
(2.16446 0.457478 -1.04007e-18)
(1.79735 0.364221 4.41802e-19)
(1.20779 0.219951 1.27208e-19)
(0.433266 0.059097 -4.67308e-20)
(2.4336 0.371712 6.75408e-19)
(2.45578 0.386924 -1.00006e-18)
(2.46931 0.398727 1.52335e-19)
(2.46657 0.405862 1.95142e-18)
(2.42729 0.40311 9.39743e-19)
(2.31387 0.381437 -1.99706e-18)
(2.07369 0.3295 -1.81464e-18)
(1.65643 0.239617 7.52524e-19)
(1.05435 0.123382 -3.51235e-20)
(0.349182 0.0215118 -9.31725e-20)
(0.553288 0.337884 -2.12586e-19)
(0.512102 0.350794 -1.84826e-19)
(0.465586 0.364531 9.25774e-20)
(0.414396 0.379214 -2.95718e-19)
(0.358251 0.394716 -3.21928e-20)
(0.29632 0.409822 2.52223e-19)
(0.227638 0.419497 5.3004e-20)
(0.152712 0.40911 -1.52337e-20)
(0.078832 0.346629 1.15969e-20)
(0.0154097 0.177992 1.68712e-20)
(0.588215 0.446571 1.65321e-19)
(0.548316 0.466351 2.14218e-19)
(0.503953 0.487576 4.30077e-20)
(0.455369 0.510385 -7.0685e-20)
(0.401974 0.534544 -2.63265e-19)
(0.342686 0.558297 -4.12931e-21)
(0.275899 0.574618 1.01093e-19)
(0.200416 0.563171 2.87004e-20)
(0.120035 0.479052 -1.03153e-19)
(0.037143 0.246762 -3.5429e-20)
(0.641868 0.547886 -1.60128e-19)
(0.603495 0.57366 -1.47316e-19)
(0.561795 0.601356 1.23652e-19)
(0.516529 0.631415 9.60212e-20)
(0.466827 0.663718 -7.47808e-20)
(0.411334 0.696052 -5.29181e-20)
(0.347463 0.719335 -1.0413e-19)
(0.271324 0.707428 -5.27351e-20)
(0.181128 0.60288 -6.04349e-20)
(0.0691337 0.310452 1.7983e-21)
(0.713477 0.644903 7.21822e-20)
(0.677193 0.677181 -3.16643e-20)
(0.639121 0.711302 -9.7449e-20)
(0.598029 0.747917 -1.65477e-20)
(0.552585 0.787001 -7.39545e-20)
(0.501229 0.82596 4.95205e-21)
(0.440375 0.853866 -2.43927e-19)
(0.362836 0.839421 3.33225e-20)
(0.259492 0.714334 -2.97753e-19)
(0.109842 0.366697 4.97249e-20)
(0.799032 0.726157 -1.08773e-20)
(0.765373 0.76347 4.64877e-21)
(0.731966 0.80313 -4.73864e-20)
(0.696727 0.846184 -2.37313e-19)
(0.657587 0.892407 1.09896e-19)
(0.612204 0.938455 1.16019e-20)
(0.555373 0.971464 6.68099e-20)
(0.47576 0.955268 -1.41918e-19)
(0.355226 0.811725 3.6398e-19)
(0.158806 0.414883 2.67204e-19)
(0.901118 0.805799 -5.37757e-20)
(0.869437 0.847666 -1.43882e-19)
(0.839621 0.890735 5.26041e-20)
(0.808954 0.937386 9.62714e-20)
(0.775327 0.987956 3.28235e-19)
(0.735942 1.03845 2.34288e-19)
(0.683541 1.07379 5.93556e-19)
(0.601664 1.05331 2.49454e-19)
(0.461842 0.891306 1.53356e-19)
(0.213042 0.452533 2.0328e-19)
(1.00985 0.859937 -1.01668e-19)
(0.984084 0.906543 5.13964e-19)
(0.962018 0.954144 3.44972e-19)
(0.93908 1.00519 -4.44582e-19)
(0.912488 1.06013 -2.26048e-19)
(0.879218 1.11477 6.29476e-19)
(0.830369 1.15244 -1.03459e-19)
(0.744093 1.12856 -4.21697e-19)
(0.580581 0.95113 5.48165e-21)
(0.272065 0.479082 2.42566e-19)
(1.12628 0.914995 2.59535e-19)
(1.1011 0.961987 5.66578e-20)
(1.08379 1.00984 -7.16535e-19)
(1.06873 1.06256 1.46154e-19)
(1.05141 1.11983 5.39398e-19)
(1.02681 1.17605 -3.08228e-19)
(0.98309 1.21275 -9.25456e-20)
(0.892386 1.18255 -1.75194e-19)
(0.703388 0.990048 1.76393e-20)
(0.332153 0.493471 -2.93353e-19)
(1.25123 0.935541 1.89244e-20)
(1.23642 0.986505 -5.17022e-19)
(1.22663 1.03554 -4.3634e-21)
(1.21734 1.08938 4.45249e-19)
(1.20592 1.14887 -4.61087e-19)
(1.18724 1.20741 9.08145e-19)
(1.14633 1.24419 6.13762e-19)
(1.04832 1.20916 -9.1059e-19)
(0.829883 1.00555 -6.76525e-20)
(0.392104 0.495306 -3.16221e-19)
(1.35195 0.948675 -3.06022e-19)
(1.34812 1.00007 -2.93929e-19)
(1.35484 1.05053 2.82846e-19)
(1.35985 1.10496 7.3078e-19)
(1.3596 1.16376 2.66476e-19)
(1.34916 1.22049 -7.53249e-19)
(1.31133 1.25351 9.10931e-20)
(1.20463 1.21162 2.04347e-19)
(0.954424 0.999078 -2.73183e-19)
(0.449284 0.485405 -2.22698e-19)
(0.996778 0.00900629 5.65699e-22)
(1.01355 0.0350477 -1.66091e-20)
(1.01817 0.044323 -1.17953e-20)
(1.03103 0.0636493 0)
(1.02868 0.0793779 1.32661e-20)
(1.02589 0.102935 1.98145e-20)
(1.004 0.126339 2.57389e-20)
(0.960898 0.152226 6.09428e-20)
(0.883521 0.206807 -9.82969e-20)
(0.733105 0.273125 -1.09753e-19)
(0.998301 0.00669957 3.34387e-20)
(1.01129 0.0334757 -5.33679e-20)
(1.01697 0.0413259 2.06278e-22)
(1.02865 0.0631056 -1.517e-20)
(1.02735 0.0791537 6.89958e-21)
(1.02601 0.107374 -1.03737e-20)
(1.0041 0.13554 -6.03601e-20)
(0.966686 0.170695 0)
(0.888964 0.243033 2.04558e-19)
(0.760227 0.343735 -2.76775e-19)
(0.999171 0.00453813 -2.39991e-20)
(1.01021 0.0324426 1.46842e-20)
(1.01592 0.0380523 3.12165e-20)
(1.02813 0.0631726 8.26535e-21)
(1.02634 0.0783978 -1.71027e-20)
(1.02881 0.112573 1.44629e-21)
(1.00496 0.143946 -4.41172e-20)
(0.977731 0.189722 -7.91221e-21)
(0.898098 0.27812 5.17509e-22)
(0.802848 0.411726 6.60169e-19)
(0.999512 0.00243563 -2.67579e-20)
(1.01005 0.0318389 1.94365e-21)
(1.01512 0.0344843 2.57754e-20)
(1.02913 0.063792 1.7495e-20)
(1.02588 0.0770657 -8.66784e-21)
(1.03396 0.118605 -1.2693e-20)
(1.00683 0.151223 6.56872e-20)
(0.993669 0.209664 -2.86193e-21)
(0.910663 0.310935 -2.32823e-19)
(0.860173 0.475455 7.28469e-20)
(0.999529 0.000301059 1.84934e-20)
(1.0105 0.0315156 -2.64711e-20)
(1.01477 0.0306429 -2.09245e-20)
(1.03124 0.064847 1.04476e-20)
(1.02639 0.0751925 0)
(1.04084 0.125377 0)
(1.01055 0.157299 5.73502e-20)
(1.01301 0.230347 1.64158e-21)
(0.928617 0.341189 -1.1011e-19)
(0.928767 0.533681 9.18138e-20)
(0.999448 -0.00187659 5.19243e-21)
(1.01125 0.0313263 2.0883e-20)
(1.0151 0.0265799 -5.80824e-20)
(1.03404 0.066183 -2.05533e-20)
(1.02827 0.0728393 -4.00495e-22)
(1.04901 0.132783 5.63172e-20)
(1.01644 0.161982 8.97017e-20)
(1.03601 0.252183 2.1639e-22)
(0.94937 0.366702 1.78976e-19)
(1.01331 0.591411 -2.05724e-19)
(0.999457 -0.00410259 -1.99666e-20)
(1.01203 0.0311151 1.08491e-20)
(1.01633 0.0223608 -1.62801e-20)
(1.03712 0.0675979 -4.40165e-20)
(1.032 0.070132 1.36264e-21)
(1.05774 0.140522 -1.57206e-21)
(1.02589 0.16552 -3.76342e-21)
(1.0598 0.274359 -1.94875e-19)
(0.980488 0.388728 1.35376e-19)
(1.09466 0.634147 -4.93884e-19)
(0.999654 -0.0063707 -3.38341e-21)
(1.01272 0.0307331 -3.06006e-20)
(1.01852 0.018051 3.31635e-20)
(1.04029 0.0688692 2.36852e-20)
(1.0378 0.0672058 7.41735e-22)
(1.06679 0.148199 -6.68517e-20)
(1.03885 0.16807 -5.14294e-20)
(1.08621 0.296882 3.52103e-19)
(1.01258 0.407364 1.14916e-20)
(1.2034 0.693282 7.82644e-19)
(1.00003 -0.00865361 1.36139e-20)
(1.0134 0.0300665 1.36325e-20)
(1.02151 0.013695 3.95668e-20)
(1.04366 0.069844 -2.61803e-20)
(1.04554 0.0641092 -6.87172e-20)
(1.07583 0.155862 8.35762e-22)
(1.0562 0.168389 -7.25645e-20)
(1.11235 0.317766 4.64473e-19)
(1.06535 0.410495 -7.45816e-21)
(1.27076 0.711587 -1.07939e-18)
(1.00052 -0.0109093 3.02573e-22)
(1.01431 0.0289788 2.08496e-20)
(1.02483 0.0098071 1.30042e-20)
(1.04786 0.0701959 -5.26503e-20)
(1.0538 0.0628151 -6.83206e-20)
(1.08472 0.162919 -5.82273e-20)
(1.07397 0.17548 -1.34061e-19)
(1.13405 0.34105 -4.28357e-19)
(1.1172 0.439691 -2.34182e-19)
(1.40042 0.783411 -1.14958e-18)
(1.00136 -0.0146479 -9.23481e-22)
(1.01541 0.0274601 -4.39522e-21)
(1.02937 0.00255494 -1.53113e-20)
(1.0549 0.0696284 2.88905e-20)
(1.06458 0.0540474 5.2864e-20)
(1.10321 0.168033 -3.7949e-20)
(1.09608 0.161679 1.35352e-19)
(1.17837 0.352814 -3.98011e-19)
(1.17782 0.383867 -1.79713e-19)
(1.41441 0.773213 6.04755e-19)
(1.00346 -0.0201723 1.02809e-21)
(1.01462 0.02498 7.02078e-21)
(1.03781 -0.00886417 -1.08518e-20)
(1.06157 0.0659011 5.34851e-20)
(1.08343 0.0382618 9.12479e-20)
(1.11908 0.166361 1.14252e-19)
(1.13641 0.138834 3.12563e-20)
(1.20757 0.341057 2.01643e-19)
(1.27423 0.337815 3.15556e-19)
(1.43421 0.675845 1.81659e-20)
(1.00612 -0.0256117 -1.13751e-21)
(1.01119 0.0205705 -3.55515e-21)
(1.05199 -0.0200555 3.95171e-21)
(1.06525 0.0591851 4.05058e-21)
(1.11054 0.0229019 2.80057e-34)
(1.12599 0.159518 -6.3789e-21)
(1.18539 0.115423 -4.45366e-34)
(1.22556 0.318766 1.65389e-20)
(1.3504 0.287789 -5.0244e-20)
(1.47225 0.588235 -5.16082e-20)
(1.00617 -0.0308017 1.42215e-20)
(1.0093 0.0124617 -4.00066e-35)
(1.06873 -0.0301479 -4.53256e-21)
(1.07081 0.0478821 -2.29689e-20)
(1.13721 0.00969938 -4.59263e-20)
(1.13342 0.148031 -3.93201e-20)
(1.22537 0.092545 -5.94214e-34)
(1.24822 0.29168 -8.06071e-20)
(1.39465 0.239153 -1.42497e-19)
(1.51188 0.499949 8.81454e-20)
(0.999987 -0.0355282 0)
(1.01627 -0.000887848 -1.73412e-35)
(1.08305 -0.0392981 0)
(1.0862 0.0312725 0)
(1.15532 -0.00077356 0)
(1.15266 0.129815 0)
(1.24904 0.0717284 -4.39332e-34)
(1.28077 0.256923 0)
(1.41753 0.197052 -1.81236e-20)
(1.54292 0.41113 5.22203e-20)
(0.986508 -0.0411196 2.10614e-21)
(1.03636 -0.0165718 -9.04735e-22)
(1.09244 -0.0479925 -5.73979e-21)
(1.11334 0.0144515 0)
(1.16434 -0.0071279 0)
(1.18317 0.106767 5.84709e-21)
(1.26421 0.0542458 4.32284e-20)
(1.31432 0.216198 -1.21257e-20)
(1.43663 0.16066 -2.65942e-20)
(1.56536 0.327894 1.96262e-19)
(0.969264 -0.0518994 -8.21678e-20)
(1.06979 -0.0416412 3.04513e-21)
(1.09344 -0.0608508 -6.3958e-21)
(1.14546 -0.00865652 -1.4744e-20)
(1.1564 -0.0154407 -2.8245e-20)
(1.20997 0.0771617 -1.31787e-20)
(1.26043 0.0386891 -3.6893e-20)
(1.33318 0.17111 -3.36502e-20)
(1.44171 0.12678 -5.49614e-20)
(1.58131 0.250259 7.17318e-20)
(0.956025 -0.0565479 -5.00313e-21)
(1.10098 -0.0551827 -1.72315e-20)
(1.06969 -0.0608907 -6.99064e-21)
(1.14583 -0.0209712 -4.82882e-21)
(1.09178 -0.0153245 -4.81175e-35)
(1.19106 0.0493646 6.30888e-21)
(1.18236 0.0276242 -8.28124e-34)
(1.30372 0.124059 -1.17112e-20)
(1.38092 0.0925829 1.65662e-20)
(1.56483 0.175403 2.38239e-20)
(0.951266 -0.0958475 1.97905e-19)
(1.05697 -0.0886632 -4.4401e-21)
(0.950236 -0.0741151 -7.4156e-21)
(0.989287 -0.0360719 1.22207e-20)
(0.874961 -0.015745 1.59954e-20)
(0.997737 0.0230701 1.59239e-20)
(0.933614 0.020263 1.60169e-20)
(1.11615 0.073748 -6.1902e-21)
(1.15824 0.057965 -1.65966e-20)
(1.40119 0.100002 1.28135e-19)
(0.824288 -0.0470667 7.77288e-21)
(0.723553 -0.0335382 -9.15838e-35)
(0.528797 -0.0180953 -8.50283e-21)
(0.471987 -0.00381708 0)
(0.391252 -0.000116982 0)
(0.461976 0.00810856 6.30313e-21)
(0.437065 0.00486796 -4.67471e-36)
(0.572863 0.0163396 -1.12722e-20)
(0.624255 0.00955414 -2.42213e-20)
(0.804382 0.0175689 5.16357e-20)
(1.61245 0.811065 -1.80615e-19)
(1.71119 0.795303 -2.71062e-19)
(1.82314 0.766367 0)
(1.92901 0.726981 1.3795e-19)
(2.02511 0.674322 5.94242e-19)
(2.11368 0.615035 -1.15197e-19)
(2.19019 0.547507 1.5368e-18)
(2.26379 0.477966 -7.16727e-20)
(2.32074 0.405197 -3.43879e-19)
(2.37865 0.336303 2.95084e-19)
(1.63814 0.66646 8.85551e-20)
(1.71189 0.653245 1.08246e-19)
(1.80525 0.625584 -1.10245e-20)
(1.88883 0.590235 1.96377e-19)
(1.97696 0.542946 -1.63197e-19)
(2.04569 0.496452 -3.84712e-19)