/*--------------------------------*- C++ -*----------------------------------*\
  =========                 |
  \\      /  F ield         | OpenFOAM: The Open Source CFD Toolbox
   \\    /   O peration     | Website:  https://openfoam.org
    \\  /    A nd           | Version:  13
     \\/     M anipulation  |
\*---------------------------------------------------------------------------*/
FoamFile
{
    format      ascii;
    class       surfaceScalarField;
    location    "0.5575";
    object      phi;
}
// * * * * * * * * * * * * * * * * * * * * * * * * * * * * * * * * * * * * * //

dimensions      [0 3 -1 0 0 0 0];

internalField   nonuniform List<scalar> 
3485
(
0.00199181
-0.00284896
0.000857156
0.0086007
-0.0580391
0.0514302
0.0180424
-0.111331
0.10189
0.0283344
-0.139594
0.129302
0.0385052
-0.148931
0.13876
0.0482761
-0.149204
0.139433
0.0576145
-0.146199
0.13686
0.0665189
-0.142325
0.133421
0.0749353
-0.138261
0.129845
-0.134005
0.125851
0.0830896
0.00248197
-0.00533094
0.00948576
-0.0650429
0.0188749
-0.12072
0.0287914
-0.14951
0.0385011
-0.15864
0.0479174
-0.15862
0.0571464
-0.155428
0.0663062
-0.151485
0.0755734
-0.147528
-0.143767
0.0853353
0.00290982
-0.00824076
0.0101614
-0.0722945
0.0192492
-0.129808
0.0284306
-0.158691
0.0371626
-0.167372
0.0454649
-0.166923
0.0534639
-0.163427
0.0612535
-0.159274
0.0689045
-0.155179
-0.151213
0.0763504
0.00334905
-0.0115898
0.0108004
-0.0797459
0.0195368
-0.138545
0.0279889
-0.167144
0.0358481
-0.175231
0.0432788
-0.174353
0.0504709
-0.170619
0.0575348
-0.166338
0.0645286
-0.162173
-0.158256
0.0715717
0.00370576
-0.0152956
0.0111827
-0.0872229
0.0193569
-0.146719
0.0268591
-0.174646
0.0336122
-0.181985
0.0399034
-0.180645
0.0459653
-0.176681
0.051918
-0.172291
0.0578299
-0.168085
-0.164158
0.0637315
0.00400054
-0.0192961
0.0113526
-0.0945749
0.0188214
-0.154188
0.0252787
-0.181103
0.0308813
-0.187587
0.0360249
-0.185788
0.0409729
-0.181629
0.0458445
-0.177163
0.0506904
-0.172931
-0.169016
0.0555489
0.00418703
-0.0234831
0.011219
-0.101607
0.017802
-0.160771
0.0230807
-0.186382
0.0274359
-0.191942
0.0313493
-0.189702
0.0351035
-0.185383
0.0388155
-0.180875
0.0425305
-0.176646
-0.172756
0.046271
0.00425278
-0.0277359
0.0107701
-0.108124
0.0163048
-0.166305
0.0203105
-0.190387
0.0233654
-0.194997
0.0260085
-0.192345
0.0285264
-0.187901
0.0310245
-0.183373
0.0335392
-0.179161
-0.175304
0.0360865
0.00417309
-0.031909
0.00997958
-0.113931
0.0143163
-0.170642
0.0169887
-0.19306
0.0187108
-0.196719
0.0200611
-0.193695
0.0213191
-0.189159
0.0225763
-0.18463
0.0238635
-0.180448
-0.176634
0.025194
0.00394335
-0.0358524
0.00885454
-0.118842
0.0118878
-0.173675
0.0131996
-0.194371
0.013574
-0.197094
0.0136318
-0.193753
0.0136276
-0.189154
0.0136411
-0.184643
0.0136888
-0.180495
0.0137793
-0.176725
-0.000889995
0.000594938
0.000295057
0.00256172
-0.00853514
0.00508343
0.0113265
-0.0185093
0.00974454
0.0233433
-0.0243787
0.0123619
0.036692
-0.0266888
0.01334
0.0503136
-0.0270858
0.0134642
0.0637571
-0.0266861
0.0132426
0.0768707
-0.0260276
0.012914
0.0896249
-0.0253258
0.0125715
-0.0248498
0.102211
0.012264
-0.000806187
0.00140112
0.00275777
-0.0120991
0.01157
-0.0273216
0.0235602
-0.0363688
0.0368321
-0.0399607
0.0503513
-0.0406049
0.0636826
-0.0400175
0.0766828
-0.0390278
0.0893285
-0.0379715
-0.037333
0.101812
-0.000685211
0.00208634
0.00304253
-0.0158268
0.0119287
-0.0362078
0.0238881
-0.0483282
0.0370581
-0.0531307
0.0504384
-0.0539852
0.0636158
-0.0531949
0.0764583
-0.0518703
0.0889511
-0.0504642
-0.0496682
0.101286
-0.000515983
0.00260232
0.00343747
-0.0197803
0.0124278
-0.0451981
0.0243507
-0.0602512
0.03739
-0.0661699
0.0505918
-0.067187
0.0635722
-0.0661754
0.0762138
-0.0645118
0.0885115
-0.062762
-0.0618117
0.100655
-0.000290027
0.00289234
0.00395774
-0.0240281
0.0130844
-0.0543247
0.0249635
-0.0721303
0.0378415
-0.0790479
0.0508257
-0.0801711
0.0635695
-0.0789192
0.0759737
-0.0769161
0.0880436
-0.0748318
-0.0737247
0.0999565
-4.13208e-05
0.00293367
0.00459428
-0.0286637
0.0138926
-0.063623
0.0257168
-0.0839545
0.0384
-0.0917311
0.0511284
-0.0928996
0.0636036
-0.0913944
0.0757482
-0.0890607
0.0875755
-0.086659
-0.0853726
0.0992234
0.000319003
0.00261466
0.00537709
-0.0337218
0.0148426
-0.0730885
0.0265722
-0.0956842
0.0390069
-0.104166
0.0514305
-0.105323
0.0636042
-0.103568
0.0754791
-0.100936
0.0870701
-0.09825
-0.0967077
0.0984052
0.000742833
0.00187183
0.00625291
-0.0392318
0.0158553
-0.0826909
0.0274197
-0.107249
0.0395185
-0.116265
0.0515504
-0.117355
0.0633481
-0.115366
0.0748993
-0.112487
0.0862138
-0.109565
-0.107575
0.0970813
0.00116741
0.000704414
0.00710104
-0.0451655
0.0167499
-0.0923398
0.0280177
-0.118516
0.039624
-0.127871
0.051087
-0.128818
0.0623031
-0.126582
0.0732847
-0.123468
0.0840125
-0.120292
-0.117514
0.0939511
0.00156157
0.00782635
0.0173761
0.0281612
0.0390502
0.0496654
0.0599439
0.0698961
0.0794483
0.0877853
0.155097
-0.151561
0.0986752
0.181414
-0.107745
0.0814282
0.194602
-0.0805506
0.0673623
0.201101
-0.0609473
0.0544487
0.204037
-0.0459731
0.0430374
0.204943
-0.0341544
0.0332482
0.204659
-0.024688
0.0249718
0.203643
-0.0169329
0.0179494
0.20217
-0.0108306
0.012303
-0.00316557
0.00507983
0.153899
-0.203648
0.180395
-0.134241
0.193879
-0.0940347
0.200635
-0.0677034
0.203772
-0.0491106
0.20484
-0.0352223
0.204692
-0.0245401
0.203799
-0.0160398
0.202445
-0.00947597
-0.00137366
0.151895
-0.254256
0.178478
-0.160825
0.192313
-0.10787
0.199425
-0.0748147
0.202876
-0.0525622
0.204228
-0.0365741
0.204344
-0.0246556
0.203703
-0.0153997
0.202599
-0.00837155
0.000159307
0.149075
-0.302677
0.175654
-0.187403
0.189904
-0.12212
0.197472
-0.0823823
0.201352
-0.0564423
0.20311
-0.038332
0.203615
-0.0251608
0.203359
-0.0151435
0.202637
-0.00764949
0.00130028
0.145446
-0.348166
0.171914
-0.213872
0.186654
-0.136861
0.194783
-0.0905107
0.199207
-0.0608662
0.201491
-0.0406163
0.20251
-0.0261801
0.202764
-0.0153968
0.202553
-0.00743875
0.00191502
0.140994
-0.389937
0.16724
-0.240118
0.182568
-0.152188
0.191367
-0.0993102
0.196451
-0.0659503
0.19938
-0.0435453
0.201035
-0.0278342
0.201922
-0.0162839
0.20235
-0.00786675
0.00187317
0.135643
-0.427175
0.161581
-0.266056
0.177632
-0.16824
0.187232
-0.10891
0.193098
-0.0718168
0.196791
-0.0472382
0.199199
-0.0302416
0.200838
-0.0179235
0.202027
-0.0090549
0.00104814
0.129271
-0.459364
0.154791
-0.291576
0.171776
-0.185225
0.182366
-0.1195
0.189153
-0.0786043
0.19373
-0.0518147
0.197009
-0.0335211
0.19952
-0.0204338
0.201585
-0.0111209
-0.000682934
0.121919
-0.487332
0.146642
-0.316299
0.164772
-0.203354
0.176651
-0.131379
0.184576
-0.0865292
0.190192
-0.0574303
0.194469
-0.0377984
0.197967
-0.023932
0.201028
-0.014182
-0.0034387
0.114529
-0.514076
0.138268
-0.340038
0.15683
-0.221917
0.170033
-0.144582
0.179298
-0.0957938
0.186142
-0.0642748
0.191572
-0.0432279
0.196183
-0.0285435
0.200355
-0.0183537
-0.00733497
0.376372
-0.455156
-0.435292
0.34521
-0.308876
0.329608
-0.206315
0.322214
-0.137188
0.318367
-0.0919465
0.316062
-0.0619701
0.314528
-0.0416932
0.313479
-0.0274949
0.312775
-0.0176501
-0.00704245
0.388868
-0.386179
-0.457845
0.354646
-0.274653
0.337358
-0.189027
0.328081
-0.127911
0.322527
-0.0863928
0.31896
-0.0584029
0.316572
-0.0393052
0.314974
-0.0258975
0.313933
-0.0166088
-0.00661979
0.404699
-0.322085
-0.468793
0.367724
-0.237678
0.346536
-0.167839
0.334262
-0.115637
0.326692
-0.0788227
0.321798
-0.0535086
0.318551
-0.0360584
0.31641
-0.0237569
0.315034
-0.0152325
-0.00606898
0.414951
-0.262652
-0.474385
0.377338
-0.200065
0.354041
-0.144541
0.339625
-0.101222
0.330418
-0.069615
0.324376
-0.0474669
0.320363
-0.0320448
0.317727
-0.0211215
0.31604
-0.0135451
-0.00539706
0.422118
-0.208025
-0.476745
0.384852
-0.162799
0.360238
-0.119928
0.344204
-0.0851878
0.333664
-0.0590744
0.326649
-0.0404524
0.32197
-0.0273652
0.318897
-0.0180488
0.316932
-0.01158
-0.00461569
0.427024
-0.15779
-0.477259
0.390531
-0.126306
0.365165
-0.0945622
0.347962
-0.0679843
0.336376
-0.0474891
0.328572
-0.0326482
0.323336
-0.0221295
0.319895
-0.0146071
0.317693
-0.00937829
-0.00373981
0.430255
-0.111183
-0.476863
0.394647
-0.0906984
0.368901
-0.0688156
0.350893
-0.0499764
0.338528
-0.0351241
0.33011
-0.0242301
0.324433
-0.0164524
0.320696
-0.0108705
0.318301
-0.00698298
-0.0027846
0.431927
-0.0669962
-0.476113
0.39711
-0.0558815
0.371257
-0.0429632
0.35278
-0.0314997
0.339906
-0.0222498
0.331069
-0.0153931
0.325087
-0.0104699
0.321141
-0.00692453
0.318604
-0.0044468
-0.00177048
0.426218
-0.0217593
-0.471455
0.392141
-0.021804
0.366924
-0.0177466
0.348725
-0.0133
0.335935
-0.0094601
0.32711
-0.00656822
0.321119
-0.00447879
0.317167
-0.00297239
0.314624
-0.00190389
-0.000752769
0.319554
-0.341313
0.29775
0.280003
0.266703
0.257243
0.250675
0.246196
0.243224
0.24132
0.469127
0.0121967
-0.467544
0.469941
0.02438
0.469862
0.036165
0.468782
0.0473513
0.466427
0.0579037
0.463426
0.0667333
0.457331
0.0776663
0.453766
0.0799155
0.441739
0.0973623
0.0895365
0.450505
0.0106853
-0.448994
0.452095
0.0227903
0.45369
0.0345696
0.455303
0.045738
0.456541
0.0566663
0.458086
0.0651879
0.458241
0.0775115
0.459454
0.078702
0.460062
0.0967552
0.0917528
0.434312
0.00909948
-0.432726
0.436532
0.0205702
0.439312
0.0317896
0.442648
0.042402
0.446364
0.0529506
0.450488
0.0610641
0.455116
0.0728836
0.459042
0.0747755
0.465222
0.0905752
0.0881825
0.421955
0.00749952
-0.420355
0.424538
0.0179874
0.428061
0.0282663
0.43248
0.0379832
0.437806
0.0476248
0.443656
0.0552137
0.450962
0.0655773
0.457429
0.0683084
0.466802
0.081202
0.0806004
0.412273
0.00589162
-0.410665
0.415123
0.0151378
0.419184
0.0242052
0.424377
0.0327898
0.430781
0.0412212
0.437926
0.0480682
0.446822
0.0566817
0.455296
0.0598342
0.466541
0.0699571
0.0703968
0.404957
0.00425748
-0.403323
0.408004
0.0120903
0.412436
0.0197738
0.418165
0.0270609
0.42526
0.0341253
0.433314
0.0400149
0.443112
0.0468834
0.452968
0.0499787
0.465303
0.0576219
0.0584411
0.399634
0.00258308
-0.397959
0.402847
0.00887686
0.407558
0.0150625
0.413677
0.0209424
0.421227
0.0265751
0.429894
0.0313478
0.440206
0.0365718
0.450961
0.0392238
0.463857
0.0447258
0.0454348
0.395241
0.000718103
-0.393376
0.398727
0.00539162
0.403791
0.00999818
0.410341
0.014392
0.418337
0.0185798
0.427525
0.0221591
0.438177
0.0259198
0.449518
0.0278835
0.462629
0.0316146
0.0319507
0.378912
-0.00121242
-0.376982
0.382926
0.00137745
0.388938
0.00398643
0.396772
0.00655805
0.406285
0.00906723
0.417152
0.0112919
0.429447
0.013625
0.442422
0.0149077
0.456808
0.0172292
0.0173033
0.245967
-0.24718
0.247345
0.251331
0.257889
0.266956
0.278248
0.291873
0.306781
0.32401
0.0802337
0.128004
-0.115283
-0.0929545
0.0686163
0.129776
-0.118159
0.0579763
0.132572
-0.121932
0.0478187
0.136203
-0.126045
0.0377649
0.140264
-0.13021
0.0276606
0.144254
-0.134149
0.0176727
0.146155
-0.136167
0.00860837
0.138883
-0.129819
0.00217264
0.108311
-0.101875
0.0453864
-0.0432137
0.0804477
0.139178
-0.0916218
0.0690038
0.14122
0.0579513
0.143625
0.04734
0.146814
0.0369919
0.150612
0.0267914
0.154454
0.0168972
0.156049
0.00808635
0.147694
0.00196803
0.114429
0.0473544
0.0719904
0.148208
-0.081021
0.0624511
0.150759
0.0527332
0.153343
0.0430286
0.156519
0.0333758
0.160265
0.0238069
0.164023
0.014583
0.165273
0.00655876
0.155718
0.00130041
0.119688
0.0486548
0.0598535
0.155302
-0.066947
0.0523379
0.158275
0.0444036
0.161277
0.0361756
0.164747
0.0277644
0.168676
0.0193085
0.172479
0.0111934
0.173388
0.00439481
0.162517
0.000443237
0.123639
0.049098
0.0480012
0.161077
-0.0537768
0.0419224
0.164354
0.0354339
0.167765
0.0285876
0.171593
0.0214794
0.175785
0.0142785
0.17968
0.00744652
0.18022
0.00205754
0.167906
-0.000495791
0.126193
0.0486022
0.0373551
0.165981
-0.0422591
0.0322501
0.169459
0.0268424
0.173173
0.021148
0.177287
0.015232
0.181701
0.00925886
0.185653
0.0037025
0.185776
-0.000360509
0.171969
-0.00139144
0.127224
0.0472108
0.0273198
0.170114
-0.0314528
0.0230659
0.173713
0.0186203
0.177619
0.0139898
0.181918
0.00922582
0.186465
0.00450319
0.190376
0.000314918
0.189964
-0.00221825
0.174502
-0.00200592
0.127011
0.0452049
0.0172949
0.173365
-0.0205458
0.0139633
0.177045
0.0105082
0.181074
0.00693814
0.185488
0.00329657
0.190106
-0.000226569
0.193899
-0.00302372
0.192762
-0.00414586
0.175624
-0.00259739
0.125463
0.0426075
0.00707614
0.175619
-0.00932965
0.00477846
0.179342
0.0024158
0.183436
-7.41967e-06
0.187911
-0.00244332
0.192542
-0.00467389
0.196129
-0.00618745
0.194275
-0.0059121
0.175349
-0.00315958
0.12271
0.0394479
-0.00326189
0.00215567
-0.00441508
-0.00562216
-0.00686547
-0.00807637
-0.00904095
-0.00913722
-0.00746397
-0.00359553
0.103308
0.0237174
-0.114587
-0.0124382
0.0916969
0.0243421
-0.012731
0.0797163
0.0250189
-0.0130383
0.0673527
0.0257323
-0.0133686
0.0545995
0.0264798
-0.0137266
0.0414605
0.027242
-0.0141029
0.0280647
0.0277912
-0.0143954
0.0151202
0.027057
-0.0141125
0.00468274
0.0223598
-0.0119223
0.010632
-0.00594922
0.102548
0.0349802
-0.113811
0.0909677
0.0359222
0.0790334
0.0369533
0.0667304
0.0380352
0.0540516
0.0391586
0.0410006
0.0402929
0.0277098
0.041082
0.0148911
0.0398756
0.00459079
0.0326602
0.0152227
0.101453
0.0462096
-0.112682
0.0899255
0.0474494
0.0780637
0.0488151
0.0658518
0.0502471
0.0532811
0.0517292
0.0403555
0.0532185
0.0272124
0.0542251
0.0145711
0.052517
0.00446057
0.0427707
0.0196833
0.0999107
0.0573789
-0.11108
0.0884699
0.0588902
0.0767192
0.0605657
0.0646411
0.0623253
0.0522246
0.0641457
0.0394735
0.0659696
0.0265323
0.0671663
0.014134
0.0649153
0.00428279
0.0526219
0.0239661
0.097767
0.0684436
-0.108832
0.0864692
0.0701881
0.0748951
0.0721398
0.0630198
0.0742006
0.0508263
0.0763393
0.0383171
0.0784788
0.0256449
0.0798384
0.0135583
0.077002
0.00404765
0.0621325
0.0280138
0.0948559
0.0793233
-0.105736
0.0837786
0.0812654
0.0724536
0.0834647
0.0608547
0.0857995
0.0489634
0.0882305
0.0367827
0.0906595
0.0244747
0.0921464
0.0128042
0.0886725
0.00374086
0.0711959
0.0317546
0.0910701
0.0898244
-0.101571
0.0804355
0.0919
0.0695645
0.0943356
0.0583991
0.096965
0.0469144
0.0997151
0.0351257
0.102448
0.023224
0.104048
0.0120101
0.0998863
0.00343222
0.0797738
0.0351868
0.0851008
0.0997864
-0.0950628
0.075032
0.101969
0.0648002
0.104567
0.0543423
0.107423
0.0435922
0.110465
0.0325312
0.113509
0.0213472
0.115232
0.0108548
0.110379
0.00296983
0.0876588
0.0381567
0.0822282
0.108321
-0.0907629
0.0731427
0.111054
0.0633864
0.114324
0.0531022
0.117707
0.0424273
0.12114
0.0314651
0.124471
0.0204698
0.126228
0.0102857
0.120563
0.00277245
0.095172
0.0409291
0.0699824
-0.0769441
0.0628778
0.0552693
0.0469313
0.0378611
0.028183
0.018244
0.00898796
0.00228459
0.202117
0.0130736
-0.0172008
0.204565
0.0282159
-0.0306634
0.204956
0.0341333
-0.0345243
0.205926
0.0357461
-0.0367166
0.20502
0.0423433
-0.0414373
0.20249
0.0509827
-0.0484528
0.196403
0.0636989
-0.0576122
0.1856
0.0804346
-0.0696316
0.159759
0.108446
-0.0826049
0.144253
-0.0990812
0.20185
0.00921364
0.204163
0.0259027
0.204506
0.0337905
0.205413
0.0348387
0.204426
0.0433309
0.20176
0.0536482
0.195529
0.0699298
0.184415
0.0915483
0.158641
0.134221
0.189083
0.201456
0.00574724
0.203493
0.0238656
0.203693
0.0335904
0.204395
0.0341376
0.2032
0.0445256
0.200277
0.0565706
0.193819
0.0763883
0.182281
0.103086
0.15675
0.159752
0.233151
0.200928
0.002809
0.202555
0.0222388
0.202528
0.0336172
0.202879
0.0337863
0.201356
0.046049
0.198058
0.0598688
0.191277
0.0831691
0.17918
0.115183
0.154135
0.184797
0.276206
0.200262
0.00053643
0.201355
0.0211465
0.201022
0.0339495
0.200879
0.0339295
0.198911
0.0480175
0.19512
0.0636597
0.187915
0.0903739
0.175076
0.128022
0.150878
0.208995
0.318252
0.199453
-0.000927269
0.199899
0.0207008
0.199192
0.0346563
0.198405
0.0347166
0.195884
0.0505388
0.191484
0.0680601
0.183745
0.0981124
0.169981
0.141786
0.147014
0.231962
0.359531
0.198494
-0.00143107
0.198195
0.0209995
0.197059
0.0357917
0.195474
0.0363023
0.1923
0.0537125
0.187167
0.0731931
0.178762
0.106517
0.164022
0.156527
0.142574
0.25341
0.400534
0.197382
-0.000823202
0.196255
0.022126
0.194645
0.0374021
0.192099
0.0388482
0.188187
0.0576248
0.182188
0.0791916
0.172924
0.115781
0.157123
0.172328
0.136708
0.273824
0.442179
0.196128
0.0010381
0.194107
0.0241473
0.191971
0.0395383
0.188291
0.0425283
0.183577
0.0623391
0.176623
0.0861451
0.166514
0.12589
0.150591
0.188252
0.131849
0.292567
0.483264
0.19484
0.00418775
0.191831
0.0271568
0.189044
0.0423253
0.184019
0.0475531
0.178302
0.0680558
0.169851
0.0945961
0.157815
0.137927
0.140221
0.205846
0.120501
0.312286
0.526821
0.303292
0.00290586
0.306766
0.0236829
0.310333
0.038758
0.31291
0.044976
0.315781
0.0651849
0.319228
0.091149
0.32481
0.132345
0.335871
0.194785
0.360621
0.287536
0.461193
0.42625
0.304197
0.000718622
0.307856
0.0200242
0.31209
0.0345237
0.315409
0.0416573
0.319724
0.06087
0.325318
0.0855545
0.334264
0.1234
0.349929
0.179119
0.379761
0.257704
0.397058
0.443896
0.305085
-0.0023562
0.309161
0.0159487
0.313828
0.0298558
0.317913
0.0375723
0.323447
0.0553361
0.330881
0.0781204
0.342457
0.111825
0.361017
0.160559
0.394658
0.224063
0.334894
0.456822
0.305989
-0.0063348
0.310532
0.011406
0.315504
0.0248833
0.320284
0.0327927
0.326844
0.048776
0.335818
0.0691457
0.349413
0.0982304
0.370157
0.139815
0.405144
0.189076
0.275857
0.46418
0.306968
-0.0112924
0.311972
0.00640178
0.317105
0.0197499
0.322453
0.0274455
0.329847
0.0413811
0.340071
0.0589225
0.355168
0.0831328
0.377528
0.117455
0.412282
0.154323
0.220437
0.467702
0.30808
-0.0173623
0.313522
0.000960048
0.318609
0.0146631
0.324368
0.0216865
0.332417
0.0333318
0.343607
0.0477329
0.359787
0.066953
0.383253
0.0939888
0.417059
0.120516
0.168583
0.468913
0.309363
-0.0247154
0.315234
-0.00491023
0.319994
0.00990264
0.325989
0.0156919
0.334513
0.0248071
0.346409
0.0358374
0.363341
0.0500207
0.38749
0.06984
0.420187
0.0878188
0.119922
0.468848
0.310994
-0.0336995
0.31713
-0.0110455
0.321137
0.00589533
0.327161
0.00966764
0.335997
0.0159708
0.34838
0.0234546
0.365824
0.0325768
0.390332
0.0453317
0.422118
0.0560328
0.0739872
0.468053
0.309586
-0.0412753
0.315005
-0.0164648
0.317994
0.00290688
0.324123
0.00353807
0.333094
0.0070007
0.345787
0.0107612
0.363578
0.0147861
0.388197
0.0207124
0.419548
0.0246813
0.0323226
0.461213
0.260735
0.24427
0.247177
0.250715
0.257716
0.268477
0.283263
0.303975
0.328657
0.360979
0.438997
-0.105702
0.443632
-0.0962563
0.445595
-0.0829846
0.447756
-0.0691073
0.450858
-0.0568787
0.454627
-0.0460286
0.458541
-0.035367
0.462164
-0.0241686
0.46521
-0.0123755
-0.000178682
0.443812
-0.105618
0.442124
-0.094568
0.441035
-0.0818959
0.441467
-0.0695392
0.442716
-0.0581276
0.444043
-0.0473564
0.445245
-0.0365688
0.44641
-0.0253333
0.447636
-0.0136014
-0.00153656
0.450479
-0.0992742
0.444971
-0.0890605
0.440462
-0.0773868
0.437136
-0.0662132
0.434745
-0.055737
0.433035
-0.0456464
0.431961
-0.035494
0.431548
-0.0249208
0.431806
-0.0138587
-0.00245747
0.453751
-0.0888444
0.444833
-0.0801425
0.437471
-0.0700257
0.43169
-0.060432
0.427287
-0.0513333
0.423971
-0.0423308
0.421604
-0.033127
0.420187
-0.0235042
0.419764
-0.0134355
-0.00304832
0.454992
-0.0761339
0.444001
-0.0691516
0.434855
-0.0608801
0.427406
-0.0529834
0.421458
-0.0453853
0.416824
-0.0376964
0.413416
-0.0297189
0.41124
-0.0213283
0.410321
-0.0125168
-0.0033921
0.454944
-0.0621648
0.442649
-0.0568567
0.432274
-0.050505
0.423672
-0.0443812
0.416674
-0.0383881
0.41116
-0.0321825
0.407064
-0.0256223
0.404381
-0.0186451
0.403129
-0.0112651
-0.00358582
0.454142
-0.0474588
0.441048
-0.0437625
0.429898
-0.0393553
0.420572
-0.0350551
0.412913
-0.0307291
0.406833
-0.0261022
0.40229
-0.0210793
0.399286
-0.0156413
0.397841
-0.00981944
-0.00370441
0.452702
-0.0321077
0.439
-0.0300607
0.427311
-0.0276663
0.417491
-0.0252353
0.409377
-0.0226153
0.402894
-0.019619
0.398022
-0.0162074
0.394787
-0.0124058
0.393229
-0.00826135
-0.00385218
0.444379
-0.015274
0.429568
-0.015249
0.416833
-0.0149321
0.405954
-0.0143558
0.39675
-0.0134111
0.389175
-0.0120443
0.383297
-0.0103289
0.379234
-0.008343
0.377104
-0.00613208
-0.00372942
0.345705
0.330456
0.315524
0.301168
0.287757
0.275713
0.265384
0.257041
0.250909
0.0104797
0.0453503
-0.05583
0.0212035
0.152016
-0.16274
0.0255323
0.219863
-0.224192
0.0250402
0.245146
-0.244654
0.0222946
0.249396
-0.24665
0.0188536
0.246917
-0.243476
0.0152345
0.243116
-0.239497
0.0115137
0.238799
-0.235078
0.00773113
0.231796
-0.228014
0.214544
0.00444807
-0.211261
0.0119867
0.0333636
0.026993
0.13701
0.0363742
0.210482
0.0405091
0.241011
0.0420255
0.247879
0.0427542
0.246188
0.0434059
0.242465
0.0439026
0.238302
0.0432925
0.232406
0.218579
0.0392576
0.0121707
0.0211929
0.0301364
0.119044
0.0440261
0.196592
0.0528587
0.232179
0.0588451
0.241893
0.063922
0.241111
0.0690175
0.237369
0.0741853
0.233134
0.0783056
0.228286
0.219497
0.0773878
0.0110414
0.0101515
0.0300701
0.100016
0.0472399
0.179423
0.0602675
0.219151
0.0705481
0.231612
0.0798257
0.231834
0.0891425
0.228053
0.0988082
0.223469
0.108289
0.218805
0.213159
0.114627
0.0089264
0.00122509
0.0270397
0.0819022
0.0458215
0.160641
0.0620205
0.202952
0.0760004
0.217632
0.089012
0.218822
0.102008
0.215057
0.115442
0.210034
0.129325
0.204922
0.199683
0.142801
0.00633131
-0.00510621
0.0219887
0.0662449
0.0406762
0.141953
0.0586681
0.18496
0.0753108
0.200989
0.0911671
0.202966
0.106904
0.19932
0.122947
0.193991
0.139525
0.188344
0.182246
0.156962
0.00380141
-0.00890762
0.0163113
0.053735
0.0336672
0.124597
0.052136
0.166492
0.0702466
0.182879
0.0878501
0.185362
0.105212
0.181958
0.122602
0.176601
0.140164
0.170783
0.164077
0.158333
0.0017095
-0.0106171
0.0111832
0.0442612
0.0266042
0.109176
0.044512
0.148584
0.0628944
0.164496
0.081017
0.16724
0.0987563
0.164219
0.116179
0.159178
0.133465
0.153496
0.147
0.150542
0.000224143
-0.0108413
0.00741052
0.0370748
0.0210114
0.0955756
0.0379727
0.131622
0.0560474
0.146422
0.0741616
0.149126
0.0919541
0.146426
0.109373
0.14176
0.126478
0.136391
0.129484
0.143994
-0.000532821
-0.0103084
0.00499336
0.0315487
0.0169721
0.0835969
0.0326551
0.115939
0.0496888
0.129388
0.0667694
0.132045
0.0833121
0.129883
0.0991016
0.12597
0.11386
0.121633
0.115947
0.127397
-0.000856536
-0.00945191
0.00376341
0.0269287
0.0146863
0.072674
0.0294226
0.101203
0.0456857
0.113125
0.0621673
0.115563
0.0782794
0.113771
0.0938192
0.11043
0.108729
0.106723
0.103565
0.121112
-0.000975348
-0.00847656
0.00319097
0.0227624
0.0134432
0.0624217
0.0274558
0.0871907
0.0430328
0.0975479
0.058906
0.0996902
0.0745047
0.0981725
0.0896265
0.0953086
0.104263
0.0920857
0.0902134
0.117615
-0.00103049
-0.00744607
0.00283101
0.0189009
0.0125662
0.0526866
0.0259411
0.0738158
0.0408324
0.0826566
0.0560154
0.0845073
0.0709361
0.0832518
0.0853879
0.0808568
0.0993264
0.0781472
0.0768971
0.112643
-0.00105463
-0.00639144
0.0025938
0.0152524
0.0119482
0.0433322
0.024831
0.0609329
0.0391744
0.0683132
0.0537922
0.0698894
0.0681473
0.0688967
0.0820327
0.0669713
0.0953825
0.0647974
0.0638979
0.108382
-0.00105638
-0.00533506
0.00244983
0.0117462
0.0115441
0.0342379
0.0240876
0.0483894
0.0380528
0.0543481
0.0522868
0.0556553
0.0662727
0.0549109
0.0798157
0.0534283
0.0928564
0.0517567
0.0511091
0.105645
-0.00104916
-0.0042859
0.00236344
0.00833364
0.0112869
0.0253144
0.0236123
0.036064
0.0373405
0.0406199
0.0513434
0.0416524
0.0651216
0.0411327
0.0784931
0.0400569
0.0914081
0.0388417
0.0384087
0.104108
-0.00103695
-0.00324895
0.00232072
0.00497596
0.0111396
0.0164955
0.0233334
0.0238702
0.0369229
0.0270304
0.0507965
0.0277788
0.0644672
0.027462
0.0777612
0.0267628
0.0906353
0.0259676
0.0257326
0.103311
-0.00101737
-0.00223158
0.00231818
0.00164042
0.0110798
0.00773389
0.0231973
0.0117527
0.0367062
0.0135216
0.0505065
0.0139785
0.0641199
0.0138486
0.0773787
0.0135041
0.0902431
0.0131032
0.0130561
0.10292
-0.000988338
-0.00124325
0.00235516
-0.00170308
0.0110935
-0.00100442
0.0231657
-0.000319518
0.0366205
6.67576e-05
0.0503689
0.00023009
0.0639401
0.000277342
0.0771711
0.000273199
0.0900248
0.000249416
0.000382934
0.102698
-0.00094819
0.00243216
0.0111723
0.0232147
0.0366214
0.0503157
0.0638357
0.0770229
0.0898439
0.102491
0.137416
0.284558
-0.300862
0.149483
0.120601
-0.132669
0.159353
0.0409171
-0.0507866
0.167096
0.00484846
-0.0125914
0.173482
-0.00893679
0.00255011
0.179125
-0.0129815
0.00733921
0.184287
-0.0129046
0.00774201
0.189076
-0.0112108
0.00642227
0.193547
-0.00914436
0.00467286
-0.00596072
0.0019573
0.139701
0.262472
0.155543
0.104759
0.166321
0.0301389
0.1736
-0.00242993
0.179138
-0.0144753
0.18377
-0.0176131
0.187848
-0.0169824
0.191508
-0.0148716
0.194837
-0.012473
-0.00883297
0.14226
0.232854
0.16095
0.0860687
0.172203
0.0188858
0.179223
-0.00944927
0.184143
-0.0193955
0.187953
-0.0214236
0.191084
-0.0201133
0.193739
-0.017526
0.196041
-0.0147753
-0.010684
0.14513
0.196107
0.16584
0.065358
0.177475
0.00725143
0.184277
-0.0162515
0.188642
-0.0237608
0.191713
-0.0244941
0.194002
-0.0224028
0.195765
-0.0192888
0.197157
-0.0161674
-0.0116271
0.147949
0.153803
0.170182
0.0431246
0.182101
-0.00466738
0.188704
-0.0228548
0.192601
-0.0276577
0.195033
-0.0269255
0.196592
-0.0239625
0.197581
-0.0202773
0.198182
-0.0167681
-0.0117799
0.150483
0.107428
0.173911
0.0196967
0.186062
-0.016818
0.1925
-0.0292932
0.196003
-0.031161
0.197898
-0.02882
0.198843
-0.0249074
0.199178
-0.0206124
0.19911
-0.0167003
-0.0112644
0.152602
0.0581373
0.176965
-0.00466674
0.189316
-0.0291688
0.195633
-0.0356097
0.198827
-0.0343555
0.200293
-0.0302852
0.200742
-0.0253569
0.200548
-0.0204187
0.199938
-0.0160898
-0.0102063
0.154206
0.00685056
0.179293
-0.0297532
0.191825
-0.0417011
0.198077
-0.0418617
0.201055
-0.0373336
0.202204
-0.0314337
0.20228
-0.0254337
0.201685
-0.0198236
0.200661
-0.0150658
-0.00873473
0.155198
-0.0456495
0.180836
-0.0553913
0.193559
-0.0544244
0.199813
-0.0481154
0.202672
-0.0401931
0.20362
-0.0323816
0.20345
-0.025263
0.202583
-0.0189569
0.201277
-0.0137594
-0.0069814
0.155516
0.181553
0.194491
0.200825
0.203669
0.204535
0.204244
0.203237
0.20178
0.115371
-0.001183
-0.114188
0.111318
0.00405289
0.10856
0.00275772
0.108195
0.000365882
0.109048
-0.000853706
0.110201
-0.00115315
0.111266
-0.00106496
0.112106
-0.000839851
0.112687
-0.000580489
-0.000231356
0.234624
0.0720206
-0.307828
0.202129
0.0365481
0.189941
0.0149457
0.186616
0.00369099
0.18678
-0.00101742
0.188134
-0.00250756
0.189667
-0.00259745
0.190968
-0.00214119
0.191925
-0.00153743
-0.000633214
0.248519
0.156656
-0.333155
0.213372
0.0716954
0.200116
0.028202
0.196454
0.00735309
0.19658
-0.00114328
0.197996
-0.003924
0.199614
-0.00421561
0.200997
-0.00352379
0.202022
-0.00256268
-0.00106765
0.243201
0.234039
-0.320584
0.211368
0.103528
0.199579
0.0399901
0.19661
0.0103226
0.197088
-0.00162094
0.198677
-0.0055134
0.200383
-0.00592207
0.201807
-0.00494693
0.202851
-0.00360669
-0.0015089
0.23807
-0.304892
0.20893
0.198133
0.195864
0.196793
0.198619
0.200439
0.201915
0.202981
0.0107275
0.000814057
-0.0115416
0.010725
2.47803e-06
0.011056
-0.000330974
0.0115725
-0.000516472
0.01351
-0.00193752
0.0187447
-0.00523474
0.0321832
-0.0134384
0.050937
-0.0187539
0.0826083
-0.0316712
-0.0315798
0.0325337
0.00178734
-0.033507
0.0356544
-0.00311822
0.0436793
-0.00835584
0.0589324
-0.0157695
0.0842547
-0.0272599
0.121247
-0.0422273
0.168607
-0.0607982
0.217841
-0.0679882
0.269004
-0.082834
-0.0704034
0.0553731
0.00159667
-0.0551824
0.0634078
-0.0111529
0.0812088
-0.0261569
0.111051
-0.0456119
0.152311
-0.06852
0.200053
-0.089969
0.245377
-0.106123
0.282398
-0.105009
0.311621
-0.112057
-0.0919371
0.0767266
-0.000472744
-0.0746572
0.0893238
-0.0237502
0.113888
-0.0507209
0.149443
-0.0811666
0.190359
-0.109437
0.228917
-0.128527
0.258801
-0.136006
0.283498
-0.129706
0.302665
-0.131225
-0.109856
0.0939845
-0.0900092
0.109492
0.136159
0.16962
0.202984
0.231419
0.253746
0.274582
0.287351
0.0917796
-0.087751
0.0973692
-0.101398
0.0827705
-0.0907205
0.0997297
0.0736282
-0.0943474
0.10349
0.063693
-0.098026
0.107961
0.0527187
-0.101593
0.112568
0.0407283
-0.105011
0.117001
0.0279741
-0.107303
0.120057
0.0152892
-0.103774
0.116459
0.00482415
-0.0835815
0.0940465
-0.0373588
0.0421829
0.104194
-0.0779349
-0.11401
0.0936561
-0.0801823
0.0821061
-0.0827974
0.0696876
-0.0856074
0.0566295
-0.0885351
0.0430934
-0.0914744
0.0292803
-0.0934898
0.0159189
-0.0904122
0.00505634
-0.0727189
-0.0323025
0.101826
-0.0667559
-0.113005
0.0903684
-0.0687251
0.0786224
-0.0710513
0.0665557
-0.0735408
0.0541046
-0.076084
0.041218
-0.0785878
0.0279948
-0.0802666
0.0151357
-0.0775531
0.00470009
-0.0622832
-0.0276024
0.103622
-0.0554818
-0.114896
0.0921046
-0.0572081
0.0802358
-0.0591825
0.0679429
-0.0612479
0.0551956
-0.0633367
0.0419984
-0.0653906
0.0284935
-0.0667618
0.0154089
-0.0644684
0.00481167
-0.051686
-0.0227907
0.104174
-0.0441274
-0.115528
0.0925092
-0.0455437
0.0804776
-0.0471508
0.0680512
-0.0488216
0.0552179
-0.0505035
0.0419788
-0.0521514
0.0284619
-0.0532449
0.0153779
-0.0513844
0.00478255
-0.0410907
-0.0180081
0.104406
-0.0327821
-0.115751
0.0927328
-0.0338706
0.080685
-0.0351031
0.0682382
-0.0363747
0.0553797
-0.037645
0.0421112
-0.0388828
0.0285616
-0.0396954
0.01544
-0.0382628
0.00481098
-0.0304617
-0.0131972
0.104464
-0.0214587
-0.115787
0.0927963
-0.0222029
0.0807427
-0.0230494
0.068285
-0.0239171
0.0554156
-0.0247756
0.042138
-0.0256052
0.0285799
-0.0261372
0.0154466
-0.0251295
0.00481154
-0.0198266
-0.00838564
0.104391
-0.0101475
-0.115703
0.0927315
-0.010543
0.0806835
-0.0110015
0.0682319
-0.0114655
0.0553703
-0.011914
0.0421022
-0.0123372
0.0285545
-0.0125895
0.0154319
-0.0120069
0.00480648
-0.00920119
-0.00357916
0.104176
0.0011491
-0.115472
0.0925309
0.0011019
0.0804988
0.00103066
0.0680656
0.000967691
0.0552259
0.000925786
0.0419832
0.00090546
0.0284648
0.000928924
0.0153756
0.00108232
0.0047835
0.00139091
0.00120434
0.103809
-0.115098
0.0921798
0.0801722
0.0677712
0.0549704
0.0417729
0.0283065
0.0152763
0.00474487
0.0254665
-0.208613
-0.0281142
0.0192732
-0.22182
0.0120798
-0.227885
0.00480537
-0.232223
-0.0022437
-0.236427
-0.00869934
-0.240194
-0.0133393
-0.240014
-0.0138555
-0.223676
-0.0079849
-0.168611
-0.0638149
0.0553825
-0.203859
-0.0601371
0.0463674
-0.212805
0.0362166
-0.217734
0.0260011
-0.222007
0.0160299
-0.226456
0.00659619
-0.230761
-0.00146139