/*--------------------------------*- C++ -*----------------------------------*\
  =========                 |
  \\      /  F ield         | OpenFOAM: The Open Source CFD Toolbox
   \\    /   O peration     | Website:  https://openfoam.org
    \\  /    A nd           | Version:  13
     \\/     M anipulation  |
\*---------------------------------------------------------------------------*/
FoamFile
{
    format      ascii;
    class       volVectorField;
    location    "0.5575";
    object      U;
}
// * * * * * * * * * * * * * * * * * * * * * * * * * * * * * * * * * * * * * //

dimensions      [0 1 -1 0 0 0 0];

internalField   nonuniform List<vector> 
1800
(
(0.0110544 -0.0203518 1.4366e-19)
(0.520196 -0.444703 6.62532e-20)
(1.03251 -0.848544 -4.12046e-19)
(1.32558 -1.04596 5.08988e-19)
(1.44591 -1.08938 1.3001e-18)
(1.48109 -1.05968 5.64266e-19)
(1.48292 -1.00538 -2.92895e-19)
(1.47289 -0.947378 -7.33198e-19)
(1.46173 -0.886214 -3.92154e-19)
(1.42895 -0.834922 -3.23515e-19)
(0.0344615 -0.036844 6.40481e-20)
(0.623735 -0.451085 -3.15258e-19)
(1.1922 -0.83353 4.64786e-21)
(1.50576 -1.01419 -4.51234e-19)
(1.62603 -1.04913 1.19603e-19)
(1.65416 -1.01622 1.29563e-18)
(1.64831 -0.960901 -9.31595e-19)
(1.63255 -0.901714 4.76823e-19)
(1.6168 -0.840812 7.88803e-19)
(1.59459 -0.796915 -4.07979e-19)
(0.0652613 -0.0529608 2.97136e-21)
(0.734281 -0.446539 9.57124e-20)
(1.35253 -0.798681 3.17224e-19)
(1.6806 -0.959064 -2.89582e-19)
(1.79698 -0.986223 -1.53418e-18)
(1.81559 -0.953163 3.46996e-19)
(1.79979 -0.901382 6.14793e-19)
(1.77484 -0.847558 -7.66133e-20)
(1.75025 -0.793985 -5.21366e-21)
(1.71887 -0.752328 -3.42622e-20)
(0.103452 -0.066783 -7.45084e-21)
(0.849832 -0.428408 -1.10934e-19)
(1.51018 -0.74176 -2.64105e-19)
(1.84709 -0.878304 6.95821e-20)
(1.9572 -0.897088 3.97801e-19)
(1.96614 -0.863945 3.65422e-20)
(1.94124 -0.815292 -2.49125e-20)
(1.90839 -0.765251 5.6449e-19)
(1.87654 -0.715432 4.70498e-19)
(1.8415 -0.67856 -1.58022e-19)
(0.148722 -0.0768806 1.07397e-19)
(0.967751 -0.396169 1.73721e-19)
(1.66079 -0.664424 -8.0611e-20)
(1.99998 -0.775661 -9.49779e-20)
(2.10113 -0.787428 -1.19736e-18)
(2.10004 -0.756509 1.07427e-20)
(2.06664 -0.713573 9.57105e-19)
(2.02684 -0.670088 3.29172e-19)
(1.98879 -0.627449 2.20592e-20)
(1.94969 -0.59512 -2.08843e-19)
(0.19989 -0.081365 -7.8359e-20)
(1.08441 -0.348334 2.46658e-19)
(1.79976 -0.566655 1.03072e-18)
(2.13486 -0.651945 -7.94141e-19)
(2.22497 -0.657885 -8.68403e-19)
(2.21398 -0.63044 1.46684e-18)
(2.17295 -0.594134 -1.06013e-18)
(2.12705 -0.557816 -1.1769e-18)
(2.0836 -0.522423 8.53619e-19)
(2.04105 -0.495836 -3.08297e-20)
(0.255451 -0.0788542 7.83019e-20)
(1.19607 -0.284938 -5.83469e-19)
(1.92291 -0.450654 -2.72994e-18)
(2.24802 -0.510883 1.31903e-18)
(2.32571 -0.513006 2.19183e-18)
(2.30553 -0.490723 -6.41166e-21)
(2.2582 -0.462382 -2.86389e-18)
(2.2076 -0.434321 2.19679e-22)
(2.16015 -0.407104 2.58606e-18)
(2.11499 -0.386681 6.82322e-19)
(0.313189 -0.0681619 9.24674e-22)
(1.29851 -0.206385 4.57074e-19)
(2.026 -0.318732 2.10405e-18)
(2.336 -0.355802 -7.17605e-20)
(2.40063 -0.356281 -1.40995e-18)
(2.37231 -0.340509 -4.41682e-19)
(2.32008 -0.321044 0)
(2.26608 -0.30193 1.00577e-18)
(2.21578 -0.283417 7.2465e-21)
(2.16886 -0.269834 -8.24715e-19)
(0.370463 -0.0486792 4.00129e-21)
(1.38763 -0.114163 9.74018e-19)
(2.10549 -0.174231 1.88684e-18)
(2.39652 -0.190898 -1.93485e-18)
(2.44829 -0.191998 -1.43701e-18)
(2.41325 -0.183819 4.49785e-19)
(2.35766 -0.173879 -1.89742e-18)
(2.30163 -0.164133 -1.30038e-18)
(2.24976 -0.154597 1.54355e-18)
(2.20201 -0.148111 1.31832e-18)
(0.424313 -0.0204803 1.10666e-19)
(1.45969 -0.0105074 6.647e-19)
(2.15849 -0.020838 3.5348e-19)
(2.42824 -0.0205044 -2.80926e-18)
(2.46788 -0.0242877 3.51012e-20)
(2.42778 -0.0244523 4.28475e-18)
(2.37044 -0.0243647 -2.28079e-18)
(2.31374 -0.0241434 -1.2759e-18)
(2.26156 -0.0236515 4.20519e-19)
(2.21399 -0.0243212 -9.58109e-19)
(-0.00461754 0.00192854 9.93559e-20)
(-0.00242766 -0.0850702 4.80176e-20)
(0.0423959 -0.175102 -1.52517e-21)
(0.1039 -0.225995 -8.98138e-21)
(0.171516 -0.244037 -1.95058e-21)
(0.237546 -0.244757 -4.27098e-20)
(0.298784 -0.238472 1.5784e-20)
(0.354726 -0.230082 -2.44755e-20)
(0.405096 -0.221537 3.31137e-21)
(0.452931 -0.214764 -8.70673e-21)
(-0.0061996 0.012183 2.6592e-20)
(0.0102951 -0.128318 7.23207e-20)
(0.0703929 -0.280169 -9.83177e-20)
(0.140395 -0.366113 -4.30987e-20)
(0.210706 -0.39514 -7.97801e-20)
(0.276448 -0.394 -8.1199e-20)
(0.336176 -0.380738 3.108e-20)
(0.390281 -0.363947 -1.90333e-20)
(0.438645 -0.347119 -3.0876e-21)
(0.485477 -0.334651 -7.03461e-21)
(-0.00926771 0.0208827 -4.63061e-20)
(0.0304767 -0.171418 1.69487e-19)
(0.115855 -0.381858 6.93545e-20)
(0.200026 -0.5005 2.56108e-19)
(0.274864 -0.539393 4.76921e-20)
(0.340163 -0.536077 -2.76512e-19)
(0.397433 -0.515931 -3.49565e-20)
(0.448529 -0.491002 9.55125e-20)
(0.493616 -0.466291 -4.19446e-20)
(0.538904 -0.448332 -7.90553e-21)
(-0.0132774 0.0273867 -1.19471e-19)
(0.0586233 -0.214035 -2.7442e-20)
(0.178632 -0.478327 3.35691e-20)
(0.282118 -0.626263 -1.41538e-19)
(0.363008 -0.673445 8.53657e-20)
(0.427566 -0.667543 1.89127e-19)
(0.481397 -0.640684 5.14842e-20)
(0.528336 -0.608007 -9.35014e-21)
(0.568958 -0.575986 2.30987e-20)
(0.612175 -0.552791 -2.74039e-21)
(-0.0174419 0.0310675 0)
(0.0953975 -0.255795 9.25922e-20)
(0.258418 -0.567757 2.29334e-19)
(0.385615 -0.740576 -2.61156e-19)
(0.473678 -0.794065 -5.70494e-19)
(0.537041 -0.785116 1.92397e-19)
(0.586451 -0.751814 -2.54705e-20)
(0.628156 -0.711938 -1.06385e-19)
(0.663274 -0.67334 0)
(0.703921 -0.645186 -9.25504e-21)
(-0.0208442 0.0316151 5.72534e-20)
(0.1416 -0.29633 8.49309e-20)
(0.35467 -0.648403 3.09037e-20)
(0.508994 -0.840762 2.52989e-19)
(0.60485 -0.898239 -1.99417e-19)
(0.666405 -0.885797 -2.90985e-19)
(0.710456 -0.846472 5.1493e-19)
(0.745983 -0.800119 5.75984e-20)
(0.774794 -0.755816 -3.01962e-19)
(0.812377 -0.722903 -7.29259e-21)
(-0.0227721 0.0283418 5.58248e-22)
(0.197428 -0.335202 2.58422e-20)
(0.466712 -0.718301 1.43409e-19)
(0.650272 -0.924226 2.80857e-20)
(0.753882 -0.983246 3.25835e-19)
(0.812818 -0.966997 -4.04963e-19)
(0.850637 -0.922293 -4.13543e-19)
(0.879213 -0.87042 -3.47092e-19)
(0.901245 -0.821371 2.54483e-19)
(0.935037 -0.783626 2.76131e-19)
(-0.0215976 0.0207704 -1.32091e-19)
(0.263541 -0.371293 4.72056e-20)
(0.59315 -0.775498 3.10744e-19)
(0.806719 -0.988718 -1.81201e-19)
(0.917423 -1.04697 3.38021e-19)
(0.97279 -1.02698 8.02817e-19)
(1.00361 -0.978001 5.56882e-19)
(1.0246 -0.92212 -4.38435e-19)
(1.03974 -0.869506 -2.07999e-19)
(1.0678 -0.826526 3.01457e-19)
(-0.0159807 0.00937403 -2.11238e-19)
(0.33998 -0.403053 -3.53843e-19)
(0.731553 -0.817958 6.38243e-19)
(0.974348 -1.03218 7.33122e-19)
(1.09076 -1.08767 -7.51484e-19)
(1.14139 -1.06448 8.39545e-19)
(1.16442 -1.01298 1.39079e-19)
(1.1771 -0.955548 -1.01915e-18)
(1.18525 -0.901081 -2.5027e-19)
(1.20246 -0.852874 3.41846e-19)
(-0.00534772 -0.00471059 6.75298e-20)
(0.425646 -0.428307 -3.67863e-19)
(0.878555 -0.843168 -4.3927e-19)
(1.14803 -1.05209 7.57125e-19)
(1.26759 -1.10269 6.09478e-19)
(1.31138 -1.07653 -7.60322e-19)
(1.3247 -1.02377 -6.31125e-19)
(1.32703 -0.966595 3.75821e-19)
(1.3266 -0.910627 -3.91508e-19)
(1.32382 -0.858664 -2.38366e-19)
(0.628642 -0.174833 4.43187e-20)
(0.804573 -0.132557 -5.8312e-20)
(0.890209 -0.103989 5.73068e-21)
(0.940396 -0.0814988 1.18278e-20)
(0.969553 -0.0632434 -6.00007e-21)
(0.986968 -0.0482808 -3.17525e-21)
(0.997774 -0.0359862 -4.86997e-21)
(1.0046 -0.0257397 -3.15439e-21)
(1.00872 -0.0175895 7.71368e-21)
(1.01145 -0.00725351 2.91466e-21)
(0.646371 -0.249233 1.19048e-19)
(0.816723 -0.171304 1.16475e-20)
(0.898548 -0.124874 4.04799e-21)
(0.94675 -0.0932619 -6.15828e-21)
(0.974601 -0.0701518 -1.57939e-20)
(0.991036 -0.0524298 0)
(1.00108 -0.0385245 -5.05848e-21)
(1.00733 -0.0272951 3.88901e-21)
(1.01106 -0.0185386 4.80643e-22)
(1.01345 -0.00762378 -3.33449e-21)
(0.67468 -0.320946 -7.95554e-20)
(0.834275 -0.209423 -3.36678e-20)
(0.909635 -0.145576 1.48465e-20)
(0.95449 -0.104923 -8.65854e-21)
(0.980411 -0.0769612 -3.80339e-21)
(0.995553 -0.0564811 6.12885e-21)
(1.00466 -0.0409695 0)
(1.01023 -0.0287694 0)
(1.0135 -0.0194218 -2.04711e-21)
(1.01554 -0.00796457 0)
(0.713543 -0.388499 -3.77128e-20)
(0.856928 -0.246398 6.96019e-20)
(0.923462 -0.165884 7.76216e-21)
(0.963624 -0.11637 0)
(0.986982 -0.0836032 2.10136e-20)
(1.00051 -0.060393 -3.47697e-21)
(1.0085 -0.0432948 0)
(1.01329 -0.0301456 4.36202e-21)
(1.01607 -0.0202286 0)
(1.01771 -0.00827118 3.0162e-22)
(0.762927 -0.450446 -3.90943e-20)
(0.884313 -0.281715 9.49721e-20)
(0.939984 -0.185587 -4.19404e-21)
(0.974151 -0.127497 0)
(0.994308 -0.0900129 4.47076e-21)
(1.0059 -0.0641251 6.83547e-21)
(1.0126 -0.0454741 5.96027e-21)
(1.01651 -0.031407 1.09197e-21)
(1.01873 -0.0209478 -2.1503e-21)
(1.01994 -0.00853905 2.68898e-21)
(0.822548 -0.50539 -7.45368e-19)
(0.915989 -0.314993 -1.82984e-19)
(0.959111 -0.204537 1.63583e-21)
(0.986068 -0.138205 2.99691e-20)
(1.00238 -0.0961309 -6.98742e-21)
(1.01171 -0.0676369 4.96226e-21)
(1.01693 -0.0474811 5.28643e-21)
(1.01985 -0.0325355 -9.42772e-21)
(1.02146 -0.021569 -2.12218e-22)
(1.02223 -0.00876469 8.86557e-22)
(0.89127 -0.551612 -7.66636e-21)
(0.951031 -0.345504 7.24063e-20)
(0.980591 -0.222614 2.85797e-21)
(0.999337 -0.148448 -8.69552e-22)
(1.01117 -0.101921 -2.35293e-20)
(1.01792 -0.0708991 5.36064e-21)
(1.0215 -0.0492921 -3.61049e-21)
(1.02332 -0.0335142 -4.2783e-21)
(1.02426 -0.0220811 1.01068e-21)
(1.02456 -0.00894316 -1.88021e-21)
(0.967431 -0.587315 2.90023e-19)
(0.987238 -0.37191 8.96579e-20)
(1.00326 -0.239142 0)
(1.01361 -0.157922 -4.75989e-22)
(1.02056 -0.107252 1.91127e-20)
(1.02445 -0.073851 1.15175e-21)
(1.02623 -0.0508795 -1.58889e-20)
(1.02689 -0.034327 4.39172e-21)
(1.0271 -0.0224735 -3.69791e-23)
(1.0269 -0.0090705 9.63852e-23)
(1.05443 -0.615231 -4.26175e-19)
(1.02455 -0.396401 -2.44004e-19)
(1.02553 -0.254964 5.51329e-20)
(1.02779 -0.1668 -2.94052e-22)
(1.03 -0.11207 -2.33125e-21)
(1.03108 -0.0764091 -1.5277e-20)
(1.03104 -0.0521835 4.12151e-21)
(1.0305 -0.0349409 5.26527e-22)
(1.02995 -0.0227295 -3.19955e-21)
(1.02926 -0.00914494 -3.41708e-21)
(1.15788 -0.641564 2.98973e-19)
(1.07319 -0.420858 -2.41545e-19)
(1.05074 -0.273835 -4.19819e-20)
(1.04248 -0.178255 -4.39521e-20)
(1.03938 -0.118312 -2.40078e-20)
(1.03758 -0.0796037 -1.18198e-20)
(1.03581 -0.0537056 -5.71031e-21)
(1.03409 -0.0355765 0)
(1.03278 -0.0229409 -3.24651e-22)
(1.03162 -0.00917727 1.32691e-21)
(1.31271 -0.628413 4.73732e-19)
(1.17566 -0.42038 1.61035e-19)
(1.1095 -0.275477 -1.26426e-19)
(1.07606 -0.180072 7.98374e-21)
(1.05895 -0.119388 9.45635e-21)
(1.04959 -0.0799862 -5.50768e-21)
(1.04356 -0.0536528 1.2066e-22)
(1.03937 -0.0353257 4.61977e-21)
(1.03664 -0.0226528 -3.09662e-21)
(1.03467 -0.00904232 4.81647e-22)
(1.36321 -0.514249 -7.83402e-21)
(1.20736 -0.358239 1.52675e-19)
(1.13724 -0.244318 1.28325e-19)
(1.09832 -0.164809 -1.54355e-20)
(1.07499 -0.11124 5.90514e-20)
(1.06079 -0.0752071 3.777e-20)
(1.05141 -0.0506475 2.55227e-20)
(1.04499 -0.033401 -2.48693e-21)
(1.04091 -0.0214375 8.44944e-21)
(1.03808 -0.00854808 3.59763e-21)
(1.42066 -0.442672 -1.45075e-19)
(1.25754 -0.321387 -1.19817e-20)
(1.17303 -0.223824 6.56261e-21)
(1.12286 -0.152742 6.27201e-37)
(1.09149 -0.103601 6.47679e-22)
(1.07193 -0.0701639 -1.05004e-34)
(1.05908 -0.0472405 -2.86419e-21)
(1.05043 -0.031119 -2.09769e-34)
(1.045 -0.0199516 8.31162e-22)
(1.0413 -0.00794928 -2.65186e-21)
(1.45683 -0.362651 -2.19281e-34)
(1.29278 -0.272668 -4.1937e-20)
(1.20134 -0.195114 -4.48313e-20)
(1.14373 -0.135711 0)
(1.10612 -0.0929797 -2.56146e-20)
(1.08201 -0.0632725 -1.72384e-20)
(1.06609 -0.0426773 -9.986e-21)
(1.05542 -0.0281219 -2.52686e-34)
(1.04875 -0.0180313 -2.89068e-21)
(1.04422 -0.00718375 2.53826e-21)
(1.47935 -0.291988 -8.95425e-20)
(1.31968 -0.226112 4.83337e-21)
(1.22435 -0.165185 0)
(1.16131 -0.116616 0)
(1.11879 -0.0805825 0)
(1.09086 -0.0550783 0)
(1.0723 -0.0372246 -5.41172e-22)
(1.05985 -0.0245435 -2.8082e-34)
(1.05207 -0.0157429 7.21396e-22)
(1.04681 -0.00627379 3.05083e-34)
(1.49325 -0.226784 -3.47469e-20)
(1.33959 -0.180013 0)
(1.24236 -0.133903 0)
(1.17559 -0.0957845 0)
(1.1293 -0.066709 0)
(1.09834 -0.0457872 0)
(1.07757 -0.0310093 8.84472e-22)
(1.06363 -0.0204612 5.98558e-21)
(1.05492 -0.0131327 6.72245e-22)
(1.04902 -0.0052359 3.2074e-21)
(1.50132 -0.166701 0)
(1.35371 -0.135075 -1.21736e-20)
(1.25585 -0.102001 -1.70705e-20)
(1.18661 -0.0737842 0)
(1.13759 -0.0517385 -1.16998e-20)
(1.1043 -0.0356471 -8.26126e-21)
(1.0818 -0.0241894 -4.77928e-21)
(1.06666 -0.0159762 -3.49011e-21)
(1.0572 -0.0102624 4.49288e-21)
(1.05077 -0.00409464 1.63568e-21)
(1.50459 -0.110933 9.35185e-21)
(1.36195 -0.0906148 7.1787e-21)
(1.26425 -0.0690618 -4.30946e-21)
(1.19366 -0.0503833 2.44362e-36)
(1.14295 -0.0355104 8.46241e-22)
(1.10807 -0.0245392 -6.29404e-35)
(1.08439 -0.0166794 6.29702e-22)
(1.06841 -0.0110263 2.89956e-21)
(1.0584 -0.00708208 5.46825e-22)
(1.05158 -0.00282169 -2.12296e-21)
(1.48444 -0.0544543 -4.60166e-20)
(1.34461 -0.0491397 9.99599e-21)
(1.24924 -0.0387248 1.13975e-20)
(1.17994 -0.0286907 0)
(1.12974 -0.0203557 7.22885e-21)
(1.09498 -0.0141139 5.11339e-21)
(1.07127 -0.0096125 3.97834e-21)
(1.05526 -0.0063647 2.21148e-21)
(1.04524 -0.0040887 -2.03003e-21)
(1.03839 -0.00162633 2.48567e-21)
(1.10429 -0.00222549 0)
(1.0172 -0.00641072 0)
(0.951781 -0.00601854 0)
(0.90174 -0.00467983 0)
(0.864715 -0.00336619 0)
(0.838887 -0.00235608 0)
(0.821189 -0.00161602 4.74228e-22)
(0.809179 -0.00108128 -3.34015e-36)
(0.801636 -0.000681939 5.41083e-22)
(0.796546 -0.000260045 1.98234e-21)
(2.12943 -0.0233 8.91163e-19)
(2.12014 -0.129405 6.16457e-20)
(2.093 -0.233603 -1.32437e-19)
(2.04824 -0.3334 -3.51985e-19)
(1.98764 -0.427207 -1.2232e-19)
(1.91031 -0.513585 -1.82353e-19)
(1.82632 -0.584336 -4.35161e-19)
(1.71314 -0.661113 1.39496e-19)
(1.63446 -0.680064 0)
(1.4679 -0.763942 4.41822e-20)
(2.04404 -0.0164664 2.21752e-19)
(2.0364 -0.0959461 -3.45004e-19)
(2.01543 -0.174636 -3.63609e-21)
(1.97999 -0.251097 -1.3956e-19)
(1.93549 -0.323377 2.13803e-20)
(1.87207 -0.395236 1.27064e-19)
(1.81561 -0.44541 1.8491e-20)
(1.71964 -0.527148 9.75087e-20)
(1.66792 -0.526535 -1.19055e-19)
(1.55156 -0.618563 2.552e-20)
(1.9697 -0.0126388 -1.16355e-19)
(1.96387 -0.0760674 2.11767e-19)
(1.94763 -0.138515 1.92896e-19)
(1.91899 -0.199389 -2.29231e-19)
(1.88465 -0.255984 1.03893e-19)
(1.83265 -0.315343 1.23565e-19)
(1.7895 -0.35197 -6.58835e-20)
(1.71403 -0.425601 7.79434e-20)
(1.66761 -0.421637 7.96465e-20)
(1.58333 -0.504231 1.02933e-19)
(1.91316 -0.0119381 -1.94123e-19)
(1.9084 -0.060356 4.97875e-20)
(1.89486 -0.108172 -1.10756e-19)
(1.87099 -0.155445 -6.70294e-20)
(1.84235 -0.199221 2.9689e-20)
(1.79977 -0.246941 -1.06127e-19)
(1.76273 -0.275273 8.28436e-20)
(1.70413 -0.335982 2.95163e-20)
(1.66112 -0.333677 -1.49297e-20)
(1.59802 -0.401473 9.27547e-21)
(1.86885 -0.0102075 5.54144e-20)
(1.86493 -0.0471409 4.73578e-20)
(1.85329 -0.0835379 -6.40692e-20)
(1.83309 -0.119676 2.31578e-19)
(1.80803 -0.153067 1.52158e-20)
(1.77273 -0.189939 -1.37728e-19)
(1.73922 -0.212186 2.08984e-20)
(1.69244 -0.25903 -8.84219e-20)
(1.65277 -0.259231 1.16758e-19)
(1.60264 -0.311681 8.50644e-20)
(1.83536 -0.00989243 -1.03769e-19)
(1.83209 -0.0369215 -5.83984e-20)
(1.82178 -0.0635619 3.63819e-20)
(1.80414 -0.0901328 8.05422e-20)
(1.78138 -0.114841 3.88683e-20)
(1.75112 -0.142212 -4.07508e-20)
(1.71987 -0.159517 3.20762e-21)
(1.68061 -0.194138 5.56404e-20)
(1.64382 -0.196212 1.0544e-19)
(1.60147 -0.235287 -5.53134e-20)
(1.81096 -0.0100612 -4.33058e-20)
(1.80827 -0.0285461 -7.94158e-20)
(1.79894 -0.0467466 -5.00943e-20)
(1.78313 -0.0649964 -1.01008e-19)
(1.76193 -0.0821462 -2.2141e-20)
(1.73495 -0.101239 -5.75189e-21)
(1.70523 -0.113885 4.8221e-20)
(1.67054 -0.138231 -1.73714e-20)
(1.63597 -0.140947 -3.29607e-20)
(1.59796 -0.168939 1.09485e-20)
(1.79042 -0.00954043 3.486e-20)
(1.78889 -0.0204876 3.4404e-20)
(1.78097 -0.0311807 1.25401e-20)
(1.76708 -0.0419723 -2.19869e-20)
(1.74761 -0.0523198 -1.78237e-20)
(1.72328 -0.064192 3.67977e-20)
(1.69492 -0.0723838 -1.38224e-21)
(1.66304 -0.0884897 -4.9155e-20)
(1.63006 -0.0907079 1.14368e-20)
(1.59414 -0.11082 5.16253e-20)
(1.71565 -0.0143493 -2.60976e-20)
(1.7158 -0.0166062 4.37705e-21)
(1.71223 -0.0184931 3.9676e-20)
(1.70455 -0.0203813 3.6342e-21)
(1.69233 -0.0220831 -2.13286e-21)
(1.67648 -0.0252204 -7.45357e-21)
(1.65578 -0.0262615 2.00442e-20)
(1.63294 -0.0338266 -3.00979e-20)
(1.60473 -0.0325885 3.78185e-20)
(1.57841 -0.044827 1.23031e-19)
(1.11792 -0.00892679 2.95953e-20)
(1.10961 -0.00581815 1.88338e-20)
(1.10444 -0.00271444 1.47812e-20)
(1.10287 0.000317313 1.55501e-20)
(1.10392 0.0031965 -1.98924e-21)
(1.10851 0.00560659 7.15849e-21)
(1.11215 0.00817609 -9.52912e-21)
(1.12214 0.00808872 2.19943e-21)
(1.12017 0.0117457 -3.60167e-21)
(1.1371 0.00716319 4.05142e-21)
(1.38581 0.742903 -5.70278e-20)
(1.37023 0.788876 2.49359e-20)
(1.37352 0.847365 -4.41393e-19)
(1.38256 0.912915 2.16245e-19)
(1.39234 0.981748 8.65469e-19)
(1.39849 1.05077 -1.36847e-19)
(1.38284 1.10555 -8.47315e-19)
(1.28361 1.0884 -4.62658e-20)
(0.981991 0.875725 -4.00607e-19)
(0.411531 0.371964 1.63101e-19)
(1.56104 0.725599 0)
(1.5509 0.771772 5.37239e-19)
(1.54859 0.824507 1.20825e-18)
(1.55367 0.885568 -7.35409e-19)
(1.56396 0.952098 -1.78189e-18)
(1.57346 1.0202 -1.39563e-19)
(1.55965 1.07439 -1.78305e-19)
(1.45025 1.05672 6.39943e-19)
(1.10798 0.846913 7.99902e-19)
(0.460447 0.354538 3.67184e-19)
(1.6972 0.708695 6.09391e-20)
(1.70105 0.752355 0)
(1.70547 0.799595 -6.40362e-20)
(1.71503 0.854388 7.67598e-19)
(1.72986 0.91538 5.20392e-20)
(1.74406 0.978823 -1.88169e-18)
(1.73197 1.02892 1.19247e-18)
(1.61137 1.00856 7.47062e-19)
(1.22742 0.803842 -7.23661e-19)
(0.504349 0.329864 -2.79121e-19)
(1.80498 0.674939 -1.38753e-19)
(1.82148 0.714117 -1.04287e-19)
(1.83734 0.756545 2.2948e-19)
(1.8568 0.805703 -2.86768e-19)
(1.88032 0.860887 -1.37056e-18)
(1.90181 0.91858 -1.0679e-18)
(1.89232 0.963086 1.16639e-18)
(1.75975 0.939013 7.5424e-19)
(1.33288 0.742779 0)
(0.538028 0.296088 0)
(1.89855 0.616545 -8.03843e-19)
(1.92474 0.651603 -1.42894e-18)
(1.95145 0.690193 -5.58928e-19)
(1.98146 0.734489 -3.30937e-20)
(2.01466 0.78395 0)
(2.04407 0.835353 1.39743e-19)
(2.03673 0.87357 1.66456e-19)
(1.89046 0.845727 2.12609e-19)
(1.42003 0.661951 -3.29398e-19)
(0.559102 0.253545 -8.2288e-20)
(1.98461 0.536519 9.81784e-19)
(2.01774 0.567766 -4.14167e-20)
(2.05293 0.602472 -1.15274e-18)
(2.09181 0.64174 0)
(2.13354 0.685067 0)
(2.16975 0.729648 0)
(2.16293 0.761392 1.47469e-18)
(2.00062 0.730417 -1.83006e-18)
(1.48603 0.56375 -1.10788e-18)
(0.565628 0.204807 -8.62396e-20)
(2.06193 0.440857 -1.31605e-18)
(2.10005 0.46769 -2.7511e-18)
(2.14154 0.497459 -4.82167e-21)
(2.18721 0.530679 5.69135e-19)
(2.23557 0.56685 -4.06282e-20)
(2.27668 0.603494 1.31031e-18)
(2.26801 0.628954 -7.47461e-19)
(2.0874 0.59753 -2.19239e-18)
(1.52843 0.45505 1.66942e-19)
(0.558627 0.15503 1.27022e-19)
(2.12645 0.334151 -1.06246e-18)
(2.16836 0.355497 1.59304e-20)
(2.21449 0.379064 4.13237e-19)
(2.26514 0.405179 -4.06627e-19)
(2.31826 0.433308 6.43665e-19)
(2.36222 0.461158 1.89293e-18)
(2.34918 0.479547 -2.20878e-19)
(2.14758 0.450676 -1.23438e-18)
(1.54613 0.339296 2.93041e-19)
(0.540689 0.10563 4.82098e-20)
(2.17451 0.219331 4.10105e-19)
(2.21933 0.234315 8.02636e-20)
(2.2688 0.250561 -4.4015e-19)
(2.32288 0.268522 -1.05164e-18)
(2.37915 0.28773 9.21628e-20)
(2.42379 0.306663 9.48049e-20)
(2.40406 0.318933 -1.67971e-18)
(2.17956 0.29619 7.08846e-19)
(1.54023 0.220446 2.10029e-19)
(0.51138 0.0580929 -1.66794e-19)
(2.20425 0.0989996 8.09484e-19)
(2.25091 0.106557 -1.23956e-18)
(2.30234 0.114957 1.87004e-19)
(2.35841 0.124068 2.63221e-18)
(2.41604 0.133786 1.37705e-18)
(2.45935 0.14302 -3.20317e-18)
(2.43077 0.150787 -3.32627e-18)
(2.18321 0.137497 1.63112e-18)
(1.51138 0.102113 4.91787e-21)
(0.472035 0.0155388 4.77287e-20)
(0.511214 0.206238 -1.58549e-19)
(0.473616 0.213459 -1.45287e-19)
(0.430026 0.221376 7.87109e-20)
(0.381968 0.229843 -2.53595e-19)
(0.328982 0.238888 -3.05587e-20)
(0.270472 0.248356 2.11639e-19)
(0.205594 0.256222 4.90014e-20)
(0.133999 0.252726 -1.93997e-20)
(0.0622328 0.21248 5.15381e-21)
(0.00985678 0.103638 1.33446e-20)
(0.539031 0.306058 1.2802e-19)
(0.502337 0.320201 1.78207e-19)
(0.460175 0.335991 3.43384e-20)
(0.413682 0.352849 -6.72622e-20)
(0.362378 0.370751 -2.40381e-19)
(0.30569 0.389455 3.72625e-21)
(0.24242 0.405433 1.1016e-19)
(0.170506 0.401804 1.62239e-20)
(0.0928934 0.33603 -6.97481e-20)
(0.0247965 0.16027 -2.32651e-20)
(0.584054 0.401846 -1.28999e-19)
(0.548957 0.422642 -1.32491e-19)
(0.509263 0.44588 1.18749e-19)
(0.465435 0.470695 1.00497e-19)
(0.416956 0.497015 -6.1436e-20)
(0.363289 0.524485 -7.10386e-20)
(0.302629 0.548083 -8.41532e-20)
(0.23 0.544045 -1.9817e-20)
(0.142398 0.453368 -4.19978e-20)
(0.0484173 0.213488 3.27301e-21)
(0.645172 0.491537 6.13071e-20)
(0.612333 0.518585 -2.23349e-20)
(0.576083 0.548643 -1.0009e-19)
(0.535968 0.580775 2.42992e-20)
(0.49141 0.614879 -7.45498e-20)
(0.441915 0.650451 1.77576e-20)
(0.384822 0.680979 -1.68247e-19)
(0.311083 0.676194 -5.64639e-21)
(0.20943 0.561721 -2.26265e-19)
(0.0798762 0.261757 4.6555e-20)
(0.720823 0.573232 -1.36365e-20)
(0.690867 0.606048 -1.31715e-21)
(0.659011 0.642141 -4.20905e-20)
(0.623661 0.680783 -1.80228e-19)
(0.584123 0.721856 8.08438e-20)
(0.539909 0.764668 -3.59534e-20)
(0.487238 0.801251 1.04516e-19)
(0.412071 0.795246 -5.81465e-20)
(0.292217 0.65851 2.84398e-19)
(0.118074 0.303831 2.1138e-19)
(0.809053 0.645118 -3.21713e-20)
(0.782442 0.682822 -9.7416e-20)
(0.755699 0.723756 1.06714e-19)
(0.725955 0.767815 8.65183e-20)
(0.692401 0.814868 2.34683e-19)
(0.654511 0.863939 1.44632e-19)
(0.607056 0.905596 4.40353e-19)
(0.530062 0.897857 1.94866e-19)
(0.388334 0.740594 1.65907e-19)
(0.161777 0.338051 1.90248e-19)
(0.907413 0.70539 -9.33584e-20)
(0.88539 0.747403 3.6138e-19)
(0.865262 0.792221 2.21965e-19)
(0.842484 0.84055 -2.57773e-19)
(0.816011 0.892345 -1.35043e-19)
(0.785282 0.9464 4.90133e-19)
(0.743421 0.991957 -9.38656e-20)
(0.663702 0.982053 -3.05026e-19)
(0.496218 0.80652 -6.3352e-20)
(0.209888 0.363766 1.95696e-19)
(1.00785 0.753457 1.9495e-19)
(0.989343 0.797467 5.23516e-20)
(0.97608 0.844141 -5.72288e-19)
(0.96161 0.895559 7.84815e-20)
(0.9443 0.951194 3.7865e-19)
(0.923021 1.0092 -2.53985e-19)
(0.888563 1.05742 -6.23445e-20)
(0.806397 1.04461 -1.32502e-19)
(0.610569 0.853216 1.2433e-20)
(0.259625 0.379367 -2.87824e-19)
(1.12707 0.776017 2.0772e-20)
(1.11792 0.823365 -3.99542e-19)
(1.11301 0.871113 -3.15833e-21)
(1.10519 0.924469 3.26667e-19)
(1.09426 0.983406 -3.29653e-19)
(1.07966 1.04535 6.7713e-19)
(1.05002 1.09666 4.75733e-19)
(0.96237 1.08258 -7.23284e-19)
(0.733362 0.880339 -3.24399e-20)
(0.311374 0.385913 -2.83482e-19)
(1.19705 0.788467 -2.28847e-19)
(1.20218 0.838721 -2.22789e-19)
(1.21747 0.890017 2.36992e-19)
(1.22845 0.945975 5.41795e-19)
(1.23353 1.00601 2.14773e-19)
(1.23234 1.06821 -5.67768e-19)
(1.2116 1.11869 4.30295e-20)
(1.11983 1.10062 1.56466e-19)
(0.85648 0.889243 -1.91538e-19)
(0.361943 0.383525 -2.00048e-19)
(0.820458 0.0222267 3.80024e-21)
(1.1612 0.0426456 -1.62367e-20)
(0.913511 0.0490752 -1.44692e-20)
(1.04008 0.0519139 0)
(0.987039 0.0596811 1.62336e-20)
(0.972515 0.0705102 2.14927e-20)
(0.949141 0.0856452 2.73463e-20)
(0.898219 0.105485 5.5725e-20)
(0.828922 0.133874 -8.01481e-20)
(0.661534 0.17001 -1.03088e-19)
(0.819895 0.0190216 3.20877e-20)
(1.16106 0.042629 -5.13596e-20)
(0.913974 0.0511216 1.71915e-22)
(1.04182 0.0535238 -1.28914e-20)
(0.989701 0.0637351 8.87386e-21)
(0.976547 0.0767941 -1.10369e-20)
(0.954455 0.0967703 -6.81539e-20)
(0.906452 0.123063 0)
(0.838523 0.17178 1.73985e-19)
(0.683748 0.234178 -2.14079e-19)
(0.819096 0.0160026 -2.93836e-20)
(1.16114 0.0424697 1.65907e-20)
(0.91436 0.0529113 3.22532e-20)
(1.04405 0.0549031 1.24407e-20)
(0.992699 0.0675494 -2.16101e-20)
(0.981343 0.0828768 5.19053e-23)
(0.960803 0.107609 -4.84492e-20)
(0.917623 0.140539 -3.9632e-21)
(0.851715 0.208589 8.8854e-23)
(0.718778 0.296612 5.80349e-19)
(0.818059 0.013243 -2.19659e-20)
(1.16136 0.0421566 -1.48724e-21)
(0.914682 0.0543923 2.39037e-20)
(1.04678 0.056053 1.64447e-20)
(0.99604 0.07109 -9.33038e-21)
(0.986891 0.088706 -1.26601e-20)
(0.968278 0.118039 7.2672e-20)
(0.931526 0.157817 -1.12331e-21)
(0.868774 0.243783 -2.12897e-19)
(0.765987 0.356248 6.99911e-20)
(0.816775 0.0107767 1.5722e-20)
(1.16166 0.0416609 -2.88602e-20)
(0.914965 0.0555086 -1.72857e-20)
(1.04999 0.0569797 8.69729e-21)
(0.999733 0.0743224 0)
(0.993173 0.0942296 0)
(0.976983 0.12796 6.22778e-20)
(0.947926 0.174837 9.84708e-23)
(0.890002 0.276786 -1.02325e-19)
(0.824562 0.412186 8.20923e-20)
(0.815244 0.00865904 3.65879e-21)
(1.16196 0.0409505 2.02591e-20)
(0.915244 0.0562062 -4.33024e-20)
(1.05367 0.0576972 -2.77171e-20)
(1.00377 0.0772101 7.34304e-22)
(1.00017 0.0994006 5.16156e-20)
(0.987025 0.137296 9.80044e-20)
(0.966526 0.191527 -7.49984e-22)
(0.915837 0.306615 1.79934e-19)
(0.893616 0.464851 -1.88697e-19)
(0.813462 0.00696237 -2.02601e-20)
(1.16215 0.0399897 1.35528e-20)
(0.915566 0.0564278 -1.1526e-20)
(1.05785 0.0582312 -5.07304e-20)
(1.00812 0.0797145 -1.47982e-21)
(1.00786 0.104187 -8.2726e-22)
(0.998487 0.146015 -6.24232e-21)
(0.986923 0.207725 -1.79115e-19)
(0.947038 0.331783 1.38842e-19)
(0.97054 0.512126 -4.56105e-19)
(0.811424 0.00574781 -4.57588e-22)
(1.16215 0.0387247 -2.87408e-20)
(0.915988 0.0561237 2.22945e-20)
(1.0625 0.0586176 3.31286e-20)
(1.01278 0.0817852 -4.90018e-22)
(1.01626 0.108566 -6.13301e-20)
(1.0114 0.154164 -5.49804e-20)
(1.00882 0.223812 3.27127e-19)
(0.984272 0.355007 1.33931e-20)
(1.0545 0.563122 7.21707e-19)
(0.809123 0.00502737 9.56816e-21)
(1.16199 0.0370166 1.06716e-20)
(0.916593 0.0552313 2.95814e-20)
(1.06756 0.0588745 -3.3714e-20)
(1.01766 0.0832864 -5.81969e-20)
(1.02529 0.112213 1.55894e-21)
(1.02565 0.160597 -7.60694e-20)
(1.03243 0.235695 4.29678e-19)
(1.03084 0.365187 -8.06489e-21)
(1.13664 0.588697 -9.93524e-19)
(0.806617 0.00528039 1.59783e-21)
(1.16263 0.0350927 1.22211e-20)
(0.917192 0.0538913 8.91284e-21)
(1.07303 0.0593543 -6.75097e-20)
(1.02245 0.0850212 -5.79986e-20)
(1.03371 0.117225 -5.14506e-20)
(1.03787 0.170789 -1.36179e-19)
(1.05045 0.25567 -3.96284e-19)
(1.07082 0.393614 -2.4268e-19)
(1.22654 0.656813 -1.03565e-18)
(0.804326 0.00502242 -4.47832e-21)
(1.16575 0.0318036 -2.43072e-21)
(0.918713 0.051006 -9.85982e-21)
(1.07999 0.0581276 1.11292e-20)
(1.03147 0.0838584 4.76071e-20)
(1.04921 0.11712 -3.64164e-20)
(1.06282 0.170739 1.21081e-19)
(1.08991 0.253169 -3.9503e-19)
(1.1404 0.37489 -1.72613e-19)
(1.23324 0.636723 5.78745e-19)
(0.804978 0.00242076 3.1856e-21)
(1.16999 0.0273407 8.18783e-21)
(0.923094 0.0457477 -7.08172e-21)
(1.08598 0.0542938 3.89489e-20)
(1.04214 0.0789051 7.42841e-20)
(1.06486 0.110729 1.06318e-19)
(1.08681 0.16029 2.60694e-20)
(1.12806 0.234248 2.08958e-19)
(1.19172 0.342111 2.56697e-19)
(1.31751 0.531029 3.23717e-21)
(0.805312 -0.000780866 -4.69209e-21)
(1.17476 0.0225969 5.32722e-22)
(0.927878 0.0402222 4.09548e-21)
(1.09207 0.0496594 1.07473e-20)
(1.0525 0.0727734 2.05694e-34)
(1.07963 0.102566 -7.92954e-21)
(1.10863 0.147377 -5.19738e-34)
(1.16119 0.212608 1.84318e-20)
(1.23007 0.300782 -5.41276e-20)
(1.382 0.455851 -4.95275e-20)
(0.805712 -0.0051382 1.74184e-20)
(1.17966 0.0172109 7.89589e-37)
(0.932736 0.0341928 -4.44246e-21)
(1.09793 0.0440849 -1.55174e-20)
(1.06209 0.0651968 -2.97192e-20)
(1.09298 0.0922545 -3.58552e-20)
(1.12785 0.131525 -6.42469e-34)
(1.18875 0.187893 -9.0943e-20)
(1.26086 0.257588 -1.23824e-19)
(1.42528 0.379707 8.80004e-20)
(0.806288 -0.0106604 0)
(1.18489 0.011235 -1.85451e-35)
(0.937604 0.0278484 0)
(1.10345 0.0377166 0)
(1.07066 0.0564474 0)
(1.10464 0.0801971 0)
(1.14431 0.11349 -3.82201e-34)
(1.21092 0.160828 0)
(1.2858 0.213857 -2.03092e-20)
(1.45086 0.30835 5.26609e-20)
(0.80713 -0.017313 5.68021e-21)
(1.19074 0.0047423 -5.27993e-21)
(0.942481 0.0214155 -5.23584e-21)
(1.10843 0.0307327 0)
(1.0781 0.0467669 0)
(1.11448 0.0667651 6.66167e-21)
(1.15794 0.0938735 2.66408e-20)
(1.22814 0.132094 -1.35139e-20)
(1.30536 0.171031 -2.98078e-20)
(1.46486 0.241445 2.00851e-19)
(0.808339 -0.026805 -6.23436e-20)
(1.19749 -0.00250109 6.20753e-21)
(0.947366 0.0151084 -5.65768e-21)
(1.11275 0.0233505 -5.31091e-21)
(1.08424 0.0363931 -1.06112e-20)
(1.1224 0.0523079 -8.14813e-21)
(1.16869 0.0731577 -2.02033e-20)
(1.24102 0.102333 -3.75428e-20)
(1.31993 0.12966 -5.16484e-20)
(1.47191 0.17917 6.88399e-20)
(0.810024 -0.0322415 -9.01798e-21)
(1.20569 -0.00926439 -5.57989e-21)
(0.952019 0.010285 -5.99445e-21)
(1.11586 0.0155248 -8.82123e-21)
(1.08863 0.0253502 1.98087e-35)
(1.12798 0.0368597 7.17387e-21)
(1.17632 0.0512942 -9.29886e-34)
(1.2498 0.0713843 -1.36543e-20)
(1.32975 0.0888495 1.83777e-20)
(1.47527 0.11889 2.5442e-20)
(0.80782 -0.0572414 1.37115e-19)
(1.19924 -0.0200277 -9.52343e-21)
(0.943389 0.00356493 -6.30433e-21)
(1.10486 0.00901108 4.62308e-21)
(1.07873 0.0146768 2.92918e-21)
(1.1188 0.0220732 1.36008e-20)
(1.16847 0.0305573 7.69002e-21)
(1.2427 0.0424667 -4.82726e-21)
(1.32262 0.0516303 -2.01821e-20)
(1.466 0.0670702 1.37176e-19)
(0.72781 -0.0381515 9.17337e-21)
(0.955357 -0.0179246 -4.49138e-35)
(0.716822 0.00321994 -7.2625e-21)
(0.864881 0.000180233 0)
(0.831601 0.00287412 0)
(0.86678 0.00444347 7.41997e-21)
(0.908716 0.00603825 -8.90831e-36)
(0.970337 0.00865598 -1.36001e-20)
(1.03766 0.0100423 -2.66829e-20)
(1.14731 0.0125841 5.50993e-20)
(1.47584 0.63052 -1.83018e-19)
(1.58567 0.616045 -2.66083e-19)
(1.68219 0.609496 0)
(1.76763 0.587485 1.20515e-19)
(1.84753 0.538791 5.56637e-19)
(1.92384 0.46728 -1.12875e-19)
(1.99335 0.381174 1.55817e-18)
(2.05125 0.28645 -8.15797e-20)
(2.0945 0.185993 -3.43449e-19)
(2.12083 0.0829973 3.29314e-19)
(1.51288 0.51629 8.40104e-20)
(1.58795 0.506052 1.05516e-19)
(1.66502 0.493535 -9.9074e-21)
(1.74194 0.464397 1.7717e-19)
(1.81479 0.417366 -1.49975e-19)
(1.88133 0.357511 -3.64661e-19)
(1.9388 0.289813 -1.13437e-19)
(1.98462 0.217172 5.00277e-19)
(2.01787 0.141227 -2.1823e-20)
(2.03774 0.0629343 -4.33857e-19)