/*--------------------------------*- C++ -*----------------------------------*\
  =========                 |
  \\      /  F ield         | OpenFOAM: The Open Source CFD Toolbox
   \\    /   O peration     | Website:  https://openfoam.org
    \\  /    A nd           | Version:  13
     \\/     M anipulation  |
\*---------------------------------------------------------------------------*/
FoamFile
{
    format      ascii;
    class       volScalarField;
    location    "74";
    object      p;
}
// * * * * * * * * * * * * * * * * * * * * * * * * * * * * * * * * * * * * * //

dimensions      [0 2 -2 0 0 0 0];

internalField   nonuniform List<scalar> 
440
(
-1.10615
-1.08538
-1.07666
-1.06063
-1.12387
-1.1771
-1.15226
-1.12566
-1.0993
-1.07614
-1.31201
-1.26971
-1.21601
-1.14784
-1.07729
-1.452
-1.3952
-1.27782
-1.14277
-1.00719
-1.5345
-1.45275
-1.27147
-1.08643
-0.920816
-1.10319
-1.16358
-1.32471
-1.5448
-1.78818
-1.25586
-1.26374
-1.29534
-1.3479
-1.42215
-1.20068
-1.18176
-1.16712
-1.16987
-1.2017
-1.14556
-1.12208
-1.09898
-1.08606
-1.1049
-1.08036
-1.0598
-1.03156
-1.00073
-1.00049
-1.06072
-0.209925
0.174609
0.14084
-0.0240937
-1.29225
-0.243236
0.475207
0.120859
-0.00931301
-1.35424
-0.274916
0.761552
0.0965214
-0.027572
-1.28225
-0.33666
0.716339
0.124388
-0.0792859
-1.16873
-0.406739
0.427437
0.190968
-0.0987893
-0.923383
-0.31443
0.224077
0.269047
-0.0725905
-0.483244
0.0418383
0.174441
0.298979
0.0233204
-0.311822
0.194871
0.376357
0.290654
0.0534947
-0.158984
0.166623
0.376325
0.283969
0.0378199
-0.0649209
0.115501
0.434275
0.366861
0.0630347
-0.642185
-0.757174
-0.929651
-1.08941
-1.27974
-0.373619
-0.489399
-0.582294
-0.63803
-0.671828
-0.187882
-0.290914
-0.34974
-0.385354
-0.402467
-0.0740092
-0.164589
-0.217227
-0.241123
-0.242014
-0.0193745
-0.107878
-0.156358
-0.171605
-0.154384
0.784734
0.622506
0.414825
0.183597
-0.0677867
0.337617
0.165374
-0.0432869
-0.281532
-0.55596
-0.0933993
-0.270409
-0.493877
-0.741246
-1.00763
-0.477739
-0.658196
-0.889125
-1.13383
-1.34401
-0.736103
-0.92651
-1.14468
-1.37235
-1.5135
1.94407
1.9709
1.993
1.99999
1.98971
1.73256
1.74856
1.7577
1.74879
1.71779
1.50591
1.48742
1.44408
1.37659
1.28106
1.24191
1.20265
1.12506
1.01489
0.873864
1.01661
0.901147
0.752863
0.58397
0.379442
1.74582
1.73657
1.71293
1.78135
1.84519
1.73438
1.7243
1.68981
1.75596
1.74292
1.72404
1.70937
1.66457
1.71775
1.61504
1.7149
1.69272
1.63762
1.66579
1.43375
1.70701
1.67471
1.60954
1.61413
1.24071
1.70079
1.64856
1.5749
1.50521
1.02801
1.69448
1.61807
1.5587
1.38541
1.16597
1.70322
1.59989
1.53516
1.34183
1.19374
1.69366
1.57077
1.5222
1.28498
1.21534
1.73152
1.56913
1.51425
1.25325
1.23787
0.745222
0.426283
0.0735661
-0.241764
-0.444762
0.63216
0.404104
0.166359
-0.0458965
-0.225838
0.619594
0.436324
0.256793
0.0949439
-0.0649684
0.69526
0.514517
0.341499
0.187062
0.0420877
0.728742
0.545313
0.37833
0.231416
0.094191
-0.816623
-0.709939
-0.571617
-0.459628
-0.392715
-0.882282
-0.827736
-0.723795
-0.64033
-0.590548
-0.820488
-0.776909
-0.718862
-0.670614
-0.63971
-0.696172
-0.662708
-0.626495
-0.598472
-0.577697
-0.606463
-0.58799
-0.568135
-0.554806
-0.569242
-0.560127
-0.553216
-0.53977
-0.537825
-0.511762
-0.551514
-0.549365
-0.543677
-0.541495
-0.532472
-0.569322
-0.593378
-0.642477
-0.703386
-0.756725
-0.417653
-0.424401
-0.450189
-0.487341
-0.492861
-0.394483
-0.499807
-0.720972
-0.971092
-1.10556
-0.609479
0.755519
0.186855
0.100787
-0.0305132
-0.522746
0.83926
0.10891
0.10364
-0.047871
-0.368808
0.92134
0.0426964
0.115826
-0.0521048
-0.277287
0.687682
0.0264445
0.134109
-0.0463635
-0.584839
0.111348
0.00365333
0.141829
-0.0322375
-0.159002
0.526201
0.181157
0.102176
0.0134224
-0.494458
0.588718
0.239046
0.116864
-0.00211687
-0.353264
-0.577171
-0.592483
-0.585582
-0.370118
-0.370092
-0.573005
-0.618311
-0.57538
-0.58683
1.73328
1.71962
1.69131
1.64976
1.59466
1.89047
1.91312
1.92347
1.91999
1.90314
2.01818
2.05212
2.08025
2.09783
2.10207
2.08079
2.11888
2.15893
2.19153
2.20701
2.05393
2.08795
2.12496
2.15484
2.16744
-0.0174672
-0.103213
-0.236735
-0.400889
-0.572743
0.480825
0.36982
0.220758
0.0431873
-0.166302
0.926601
0.810356
0.671878
0.510383
0.319454
1.27946
1.19127
1.08381
0.95486
0.804131
1.56047
1.50166
1.42499
1.33339
1.22753
1.8143
1.7736
1.76734
1.79089
1.82749
1.79809
1.76906
1.7635
1.8009
1.87093
1.78396
1.76321
1.7579
1.8123
1.92484
1.77054
1.75608
1.74731
1.81199
1.9241
1.75778
1.74748
1.73178
1.80204
1.90108
1.87243
1.78322
1.76168
1.72844
1.71406
1.82575
1.77245
1.7548
1.74452
1.73011
1.46449
1.29081
0.977752
0.516185
0.00831914
1.5293
1.31453
0.990646
0.533708
0.0154436
)
;

boundaryField
{
    left
    {
        type            zeroGradient;
    }
    right
    {
        type            fixedValue;
        value           uniform 0;
    }
    down
    {
        type            zeroGradient;
    }
    up
    {
        type            zeroGradient;
    }
    cylinder
    {
        type            zeroGradient;
    }
    defaultFaces
    {
        type            empty;
    }
}


// ************************************************************************* //
