/*--------------------------------*- C++ -*----------------------------------*\
  =========                 |
  \\      /  F ield         | OpenFOAM: The Open Source CFD Toolbox
   \\    /   O peration     | Website:  https://openfoam.org
    \\  /    A nd           | Version:  13
     \\/     M anipulation  |
\*---------------------------------------------------------------------------*/
FoamFile
{
    format      ascii;
    class       surfaceScalarField;
    location    "74";
    object      phi;
}
// * * * * * * * * * * * * * * * * * * * * * * * * * * * * * * * * * * * * * //

dimensions      [0 3 -1 0 0 0 0];

internalField   nonuniform List<scalar> 
823
(
-0.000564079
0.0156885
-0.0151244
0.0256466
0.000660551
-0.0268712
0.0998946
-0.0565988
-0.0176493
0.211297
-0.128071
0.0166689
-0.1835
0.0297582
0.365039
0.00839126
0.00729721
0.0695542
-0.0605024
0.179044
-0.166089
0.304878
-0.253905
-0.328122
0.4495
0.0291402
-0.021843
0.128484
-0.159846
0.245458
-0.283062
0.348716
-0.357163
-0.394095
0.414689
0.0527805
-0.0746235
0.152593
-0.259658
0.228931
-0.359401
0.268414
-0.396647
-0.405956
0.280275
0.0625634
-0.137187
0.128399
-0.325494
0.161138
-0.392141
0.172731
-0.40824
0.180557
-0.413781
0.0127278
0.102355
-0.115083
0.00910356
0.167675
-0.164051
0.00541788
0.174872
-0.171186
0.00754883
0.156891
-0.159022
0.129313
0.0190103
-0.140775
0.0455086
0.0568464
0.0927478
0.120436
0.128539
0.139081
0.156924
0.128505
0.107392
0.178846
0.0313263
0.0255201
0.0805528
0.0712095
0.127091
0.0925422
0.165447
0.0901493
0.0823692
0.19047
0.0133816
0.0121384
0.0465275
0.0380636
0.0887776
0.0502922
0.134969
0.0439575
0.0391462
0.178192
-0.00298596
0.00820644
0.0408493
0.101476
0.17038
0.0402048
-0.242345
0.221151
0.235222
-1.86482
1.6698
0.507236
0.285406
-0.55742
0.411295
0.939035
-0.843093
-0.0953819
0.109979
0.219613
-0.283112
0.261603
-1.90681
0.525582
0.0214265
0.435639
1.02898
-0.101264
0.327157
-0.419799
0.351106
-1.93076
0.413809
-0.0412768
0.416213
1.02657
-0.17688
0.554115
-0.795722
0.52071
-1.89735
0.341426
0.138007
0.446431
0.921569
-0.310158
0.485178
-1.11052
0.508037
-1.92021
0.400238
0.245806
0.537032
0.784775
-0.446526
1.28713
-1.07752
-1.32013
0.888194
-1.52127
0.728565
0.405434
1.04763
0.465712
-0.538707
1.24531
-0.857402
-1.46543
0.551289
-0.827255
0.583547
0.373177
1.10168
-0.0524175
-0.549088
1.17585
-0.659534
-1.37372
0.667833
-0.319241
0.806851
0.234159
1.13104
-0.376607
-0.4344
0.954969
-0.340139
-1.27436
0.711366
-0.0756377
0.93004
0.0154844
0.848308
-0.294875
-0.176827
0.470464
-0.810603
0.394827
0.410311
0.115436
1.13916
0.146054
-1.10466
1.23268
0.186755
1.33534
0.312027
1.40765
0.377188
0.452562
1.02326
0.0839831
-0.961192
1.10145
0.108564
1.20908
0.204404
1.33142
0.254849
0.318549
0.981344
0.0346045
-0.931966
1.0298
0.0601051
1.12105
0.113158
1.23567
0.140227
0.180505
0.93272
0.00365585
-0.901771
0.976571
0.0162541
1.05438
0.0353507
1.1513
0.0433073
0.0574391
0.658252
-0.654596
0.674506
0.709857
0.753164
0.145249
0.308313
-0.251425
-0.202138
0.0974599
0.313306
-0.265517
0.0555331
0.324071
-0.282144
0.0197898
0.316165
-0.280422
0.204962
-0.185172
0.105935
0.344635
-0.142258
0.0690396
0.350202
0.0358749
0.357236
0.00944469
0.342595
0.214406
0.0774826
0.383048
-0.115895
0.0435355
0.38415
0.0140492
0.386722
-0.00386198
0.360506
0.210544
-0.00115811
0.398929
-0.0147232
-0.0200033
0.402995
-0.0304272
0.397146
-0.0251748
0.355254
0.18537
-0.0777036
0.0628513
-0.0829486
-0.077943
-0.0481827
0.197058
0.112383
-0.250436
-0.0590053
0.143097
0.116876
-0.062915
0.0883948
0.121633
-0.0669299
0.0357899
0.121161
-0.068556
0.0856899
-0.0498999
0.194398
0.154632
-0.236647
0.148642
0.162632
0.0967656
0.173509
0.041148
0.176778
0.126838
0.135773
0.200204
-0.181345
0.0947517
0.203654
0.0562173
0.212043
0.0202325
0.212763
0.14707
0.155672
0.231801
-0.187269
0.116457
0.242869
0.0718485
0.256651
0.0282035
0.256408
0.175274
0.0820525
-0.101677
0.0594046
0.0339114
0.00989813
0.408976
0.0504378
-0.0634339
0.422055
0.0674084
-0.0804872
0.408109
0.199012
-0.185067
0.395615
0.233822
-0.221328
0.51858
-0.373401
0.406662
0.0397554
0.414825
0.0592458
0.398586
0.21525
0.382109
0.250299
0.664042
0.399475
0.0362598
0.40803
0.0506905
0.376197
0.247084
0.37389
0.252606
0.856587
0.394496
0.0377435
0.39122
0.0539667
0.36973
0.268574
0.349954
0.272382
1.01927
0.384031
0.0496916
0.380402
0.057596
0.339991
0.308985
0.323987
0.288386
1.24158
0.613622
0.0400902
0.638262
0.0329559
0.701536
0.245711
0.791386
0.198536
1.01579
1.01718
0.619396
0.0247151
0.640222
0.0121292
0.760826
0.125107
0.788779
0.170583
0.801606
1.00297
0.627896
0.000839655
0.674176
-0.0341513
0.767246
0.0320366
0.780083
0.157746
0.554187
1.0275
0.644817
-0.0399565
0.670605
-0.0599401
0.699257
0.00338466
0.773166
0.0838376
0.258992
1.06836
0.564064
0.504124
0.507508
0.591346
0.850338
1.0515
-0.236462
1.03857
-0.129331
1.05016
-0.127481
1.04559
-0.0101564
0.00378908
0.950655
-0.184153
0.938751
-0.117427
0.923106
-0.111836
0.939749
-0.0267992
-0.0176536
0.966424
-0.123074
0.94832
-0.0993226
0.918705
-0.0822211
0.930761
-0.0388553
-0.0188582
1.00183
-0.0565389
0.954198
-0.051695
0.914982
-0.043006
0.904574
-0.0284473
-0.0160549
0.793799
0.742104
0.699098
0.670651
0.0464008
0.137227
-0.183628
0.07101
0.305811
-0.33042
0.072069
0.360563
-0.361622
0.0623348
0.364457
-0.354723
0.333635
0.0498715
-0.321172
0.0665914
0.070636
0.137125
0.235277
0.171713
0.325976
0.176281
0.359889
0.35339
0.156525
0.0552889
0.0153471
0.164445
0.12612
0.257141
0.23328
0.321874
0.295156
0.346822
0.328442
0.0260655
-0.0107184
0.119233
0.0329523
0.237361
0.115153
0.354271
0.178247
0.248069
0.453023
0.00536295
-0.0160813
0.051099
-0.0127837
0.14589
0.020362
0.263735
0.060401
0.106646
0.405158
-0.00302563
-0.0130557
0.00791497
-0.0237243
0.0492676
-0.0209906
0.11738
-0.00771118
0.0231492
0.200877
-0.000161666
-0.012894
0.00260174
-0.0264877
0.0133932
-0.031782
0.0356414
-0.0299594
-0.0183061
0.0770967
0.00400461
-0.0168986
0.00629403
-0.0287771
0.00153483
-0.0270228
-0.0071559
-0.0212687
-0.0190189
-0.00644311
-0.043096
0.0261973
-0.111857
0.0399837
-0.194324
0.0554446
-0.281588
0.0659951
0.0602118
-0.360819
-0.0888854
-0.212953
-0.328694
-0.421721
-0.502284
0.318602
0.86138
-0.979106
0.450433
-0.0201429
-0.111688
0.261672
0.531901
-0.34314
0.120868
0.217705
-0.0769009
-0.279232
0.258991
0.325051
0.613426
0.499105
-0.194197
0.376153
0.654853
0.220514
0.373345
-0.253123
0.1803
0.426683
0.504811
-0.518707
0.466021
0.693642
0.300969
0.538397
-0.206063
-0.0686714
0.134536
0.527168
-1.11455
0.524862
0.695948
0.362448
0.700811
-0.155095
-0.146597
0.408659
0.547186
0.404904
-0.0291667
0.612753
-0.583586
-0.0455214
0.0163547
-0.0510268
0.00550544
0.0167009
-0.0677277
-0.132484
0.660494
-1.02685
0.565161
0.227526
0.0828975
0.0813175
-0.0135104
-0.0678071
0.132214
-0.0508964
0.237877
-0.105663
0.387522
-0.149645
-0.196064
0.185966
-0.149605
0.291595
0.514375
0.817753
0.136237
-0.129486
0.159234
-0.165985
0.103404
-0.134354
0.167186
0.0662168
-0.14079
0.177977
0.0266786
-0.139852
0.17939
-0.0969815
0.12366
0.174943
-0.0910457
-0.213384
0.132133
-0.0915437
0.0839741
-0.0926308
0.0345404
-0.090418
-0.062441
0.185128
-0.0425509
-0.233623
0.135109
-0.0415249
0.0837638
-0.0412852
0.0339151
-0.0405693
-0.0285259
0.199068
0.00847947
-0.250098
0.147301
0.0102418
0.0938563
0.0121596
0.0394168
0.0138702
0.0108909
0.201138
-0.251664
0.148465
0.0936949
0.0390091
0.0363831
-0.301941
-0.0556139
0.0131809
-0.331521
-0.00766646
-0.340775
-0.0154842
-0.322602
-0.199112
0.114902
-0.272938
-0.143905
0.0744131
-0.291032
0.0354247
-0.301787
0.00656225
-0.29374
-0.19255
0.132491
-0.235522
-0.169906
0.0930458
-0.251587
0.0540011
-0.262742
0.0188175
-0.258556
-0.173733
0.15046
-0.202495
-0.183487
0.109898
-0.211025
0.0665198
-0.219364
0.0258031
-0.217839
-0.14793
0.147944
-0.191205
0.104105
0.062719
0.0242695
0.390559
0.102652
-0.097232
0.386462
0.112369
-0.108272
0.352965
0.163171
-0.129674
0.293024
0.0835901
-0.0236491
-0.173215
0.300254
0.398923
0.0997087
0.401879
0.109413
0.392387
0.172663
0.342371
0.133606
-0.0442275
0.40434
0.0913479
0.412413
0.10134
0.40807
0.177006
0.369045
0.172631
0.0911949
0.408954
0.0783734
0.418821
0.0914728
0.416348
0.179479
0.388681
0.200298
0.229777
0.410919
0.421905
0.416318
0.395288
0.413922
0.0961291
0.324557
0.0893651
0.23376
0.0907971
0.228281
0.00547843
-0.165417
0.393698
0.508948
0.490041
0.451165
0.432994
0.567832
0.316045
0.077653
0.246046
0.0699992
0.163526
0.0825195
0.0947908
0.0687354
0.0269837
0.45428
0.340792
0.253405
0.178235
)
;

boundaryField
{
    left
    {
        type            calculated;
        value           nonuniform List<scalar> 
17
(
-0.60402
-0.60402
-0.60402
-0.60402
-0.60402
-0.39598
-0.39598
-0.39598
-0.39598
-0.39598
-0.39598
-0.39598
-0.39598
-0.39598
-0.39598
-0.510051
-0.510051
)
;
    }
    right
    {
        type            calculated;
        value           nonuniform List<scalar> 
17
(
0.149185
0.209404
0.141109
0.194405
0.253909
0.311481
0.359787
0.396698
0.441521
0.49183
0.579709
0.6734
1.13981
1.11206
1.01635
0.590735
-0.0613906
)
;
    }
    down
    {
        type            calculated;
        value           uniform 0;
    }
    up
    {
        type            calculated;
        value           uniform 0;
    }
    cylinder
    {
        type            calculated;
        value           uniform 0;
    }
    defaultFaces
    {
        type            empty;
    }
}


// ************************************************************************* //
