/*--------------------------------*- C++ -*----------------------------------*\
  =========                 |
  \\      /  F ield         | OpenFOAM: The Open Source CFD Toolbox
   \\    /   O peration     | Website:  https://openfoam.org
    \\  /    A nd           | Version:  13
     \\/     M anipulation  |
\*---------------------------------------------------------------------------*/
FoamFile
{
    format      ascii;
    class       volVectorField;
    location    "74";
    object      U;
}
// * * * * * * * * * * * * * * * * * * * * * * * * * * * * * * * * * * * * * //

dimensions      [0 1 -1 0 0 0 0];

internalField   nonuniform List<vector> 
440
(
(-0.086219 0.0618834 -7.79965e-20)
(-0.0913633 0.0882018 5.3449e-20)
(0.116874 0.0665272 7.26162e-20)
(0.58796 0.0539267 1.89422e-19)
(0.776375 0.0749784 1.89968e-20)
(-0.0839876 0.0458115 4.27786e-20)
(0.13627 -0.0115058 -1.54211e-19)
(0.740989 -0.0744222 -1.26364e-19)
(1.34639 -0.120261 5.42692e-20)
(1.94254 -0.151119 -2.4811e-21)
(0.00928823 -0.00920089 5.27543e-20)
(0.687444 -0.0759205 9.39156e-19)
(1.544 -0.0841773 -6.16959e-19)
(2.15845 -0.0658188 -1.85031e-18)
(2.58647 -0.0718675 7.99064e-19)
(0.269295 -0.0596605 -1.86358e-19)
(1.42164 -0.01245 -6.96613e-19)
(2.19436 0.0373928 2.23034e-18)
(2.54895 0.0538333 2.46459e-18)
(2.58037 0.0569718 -6.72059e-19)
(0.682463 -0.000325526 -3.42838e-19)
(1.92978 0.176346 -7.51025e-19)
(2.43222 0.230017 2.30688e-18)
(2.54843 0.22923 2.39276e-18)
(2.63172 0.198666 7.96573e-19)
(-0.0169645 0.818619 5.52308e-19)
(-0.0568934 1.18362 9.46897e-19)
(-0.0855283 1.19473 -2.43144e-18)
(-0.0697226 1.09287 4.68027e-19)
(-0.0669818 0.958152 3.07758e-18)
(-0.0630193 0.529427 -4.5749e-20)
(-0.0179199 1.00806 -2.65815e-19)
(0.0364226 1.10955 -5.00021e-20)
(0.139194 1.02072 -6.4398e-20)
(0.159605 0.833226 1.28634e-19)
(-0.0633174 0.217857 1.30169e-19)
(-0.0633789 0.603953 -2.36152e-19)
(-0.0172813 0.773886 1.10379e-19)
(0.0939335 0.776212 -2.87517e-19)
(0.135188 0.692594 1.07081e-20)
(-0.0424323 0.0802416 -4.83154e-20)
(-0.0881201 0.301018 9.6316e-20)
(-0.064331 0.4528 1.9613e-20)
(0.026144 0.511757 1.25691e-21)
(0.0752489 0.531596 -2.87918e-20)
(-0.0571231 0.0518281 -6.03133e-20)
(-0.135028 0.150328 -8.54431e-20)
(-0.12035 0.221029 -1.80822e-19)
(0.023146 0.237104 1.03919e-19)
(0.159163 0.281255 -4.12247e-20)
(0.66091 -0.192073 -2.19139e-18)
(-0.386479 -1.24434 1.22804e-18)
(1.51311 0.346929 -6.85556e-19)
(0.961711 0.627706 -1.07762e-19)
(1.00231 -0.0723715 3.3341e-20)
(1.4317 -0.137913 1.15103e-18)
(-0.0454181 -1.2646 -1.328e-19)
(1.49591 0.0586368 -2.37309e-20)
(0.976557 0.66619 1.65323e-19)
(1.11534 -0.0633924 1.71239e-20)
(1.14948 -0.25671 -7.94731e-20)
(1.08434 -1.29778 6.6228e-19)
(1.07379 -0.0389216 -3.68767e-20)
(0.770332 0.700214 1.06797e-20)
(1.24245 -0.103217 -5.33635e-21)
(1.33548 -0.339292 2.42695e-19)
(2.51451 -1.28708 -3.98543e-19)
(0.786258 -0.0357854 -4.61847e-19)
(0.719123 0.636014 2.81853e-19)
(1.46478 -0.176944 2.2143e-19)
(1.63762 -0.69435 -2.15203e-19)
(2.58375 -1.25914 -3.98343e-19)
(0.865668 0.165313 0)
(0.975565 0.565636 -2.91854e-19)
(1.70159 -0.242865 4.19231e-22)
(2.23016 -0.623359 -5.84735e-19)
(2.0729 -1.0871 1.20585e-19)
(0.889778 0.121019 -1.68045e-20)
(1.48106 0.387426 -1.45265e-19)
(1.88802 -0.316433 2.46924e-19)
(2.67492 -0.666005 5.39995e-20)
(1.53413 -0.733387 9.21257e-19)
(0.241485 0.366616 -6.22226e-21)
(1.73064 0.178097 3.84346e-20)
(1.84157 -0.330892 0)
(2.30979 -0.446898 -5.55232e-19)
(1.67103 -0.294011 1.60304e-20)
(0.565389 0.142816 2.65305e-19)
(2.05362 -0.246886 1.30962e-20)
(1.68291 -0.363717 1.91223e-20)
(2.04445 -0.361106 4.65016e-20)
(1.16569 -0.126536 2.95406e-20)
(1.23874 0.123454 -8.30644e-21)
(1.7835 -0.239733 4.67101e-34)
(0.978358 -0.196347 -3.10064e-20)
(1.05565 -0.0511815 1.33652e-19)
(0.491689 0.0242968 -2.97181e-20)
(0.864651 -0.0996211 -6.89682e-20)
(0.460708 -0.102966 4.81873e-20)
(-0.101268 -0.0126075 -2.22801e-20)
(2.47078 0.214442 -9.66871e-19)
(2.69416 -0.0376677 -1.27762e-18)
(2.54493 0.0249874 9.9943e-19)
(2.84382 -0.241108 5.74694e-20)
(2.27422 -0.0246581 -2.33789e-20)
(2.13645 0.146857 5.28925e-20)
(2.43263 -0.0969531 -4.21498e-20)
(2.26936 -0.0205424 -1.4747e-19)
(2.54981 -0.255195 -2.35706e-19)
(2.36691 -0.247739 -8.01752e-21)
(2.11941 0.0377551 6.99303e-20)
(2.24067 -0.067831 1.11676e-19)
(2.19851 -0.0918178 -1.64117e-19)
(2.27477 -0.181701 5.37111e-20)
(2.26961 -0.237381 4.10527e-20)
(2.08549 -0.014801 1.12867e-19)
(2.07203 -0.072228 1.10978e-19)
(2.12515 -0.0812623 -1.73701e-20)
(2.09105 -0.143435 1.3155e-20)
(2.13735 -0.1569 2.23876e-20)
(1.51281 -0.0268205 1.59408e-19)
(1.41906 -0.0236897 -1.26266e-20)
(1.48007 -0.0427965 2.61207e-20)
(1.35156 -0.033764 -7.08921e-21)
(1.42364 -0.0659525 4.11051e-20)
(1.60047 0.835793 1.18437e-18)
(1.55463 0.939868 -3.90549e-19)
(1.56072 1.07913 -1.43561e-18)
(1.49313 1.13115 7.74055e-19)
(0.915391 0.815607 -1.77598e-19)
(1.90603 0.814554 -6.08815e-19)
(1.87015 0.890071 -3.18537e-18)
(1.87249 0.995195 -1.22604e-18)
(1.78763 1.01204 -4.31789e-19)
(1.0971 0.719031 -7.09586e-19)
(2.20557 0.662481 8.12371e-19)
(2.19252 0.740205 2.09803e-19)
(2.1739 0.837966 -2.41012e-18)
(2.04379 0.829488 -6.95216e-19)
(1.22216 0.564453 5.25194e-19)
(2.40344 0.551078 2.45103e-18)
(2.38218 0.601065 1.81576e-18)
(2.37818 0.658099 -2.12105e-18)
(2.18015 0.623896 -1.63456e-18)
(1.21758 0.378014 -3.11129e-19)
(2.53485 0.372065 1.26414e-18)
(2.56619 0.402666 -9.06516e-19)
(2.48497 0.436533 6.42223e-19)
(2.16172 0.392147 5.32528e-19)
(1.053 0.17509 -4.689e-19)
(0.572241 0.510493 -6.04748e-19)
(0.479444 0.547646 -4.39916e-19)
(0.360646 0.583213 4.31471e-20)
(0.225252 0.584252 6.07191e-21)
(0.0558551 0.417702 9.23799e-20)
(0.688152 0.671093 1.25255e-19)
(0.626602 0.731064 -2.79443e-19)
(0.539506 0.798971 1.88566e-19)
(0.413387 0.857442 -8.81516e-20)
(0.181578 0.651268 1.24559e-19)
(0.778762 0.871911 8.40329e-20)
(0.705749 0.957037 5.01416e-19)
(0.654286 1.05615 1.35152e-19)
(0.573629 1.09117 -3.28035e-19)
(0.315829 0.799647 2.7882e-19)
(1.0712 0.927778 2.53492e-19)
(1.02153 1.00875 -7.80246e-19)
(0.972199 1.10992 -2.05195e-18)
(0.893134 1.18049 8.14777e-19)
(0.526932 0.875394 -1.63768e-19)
(1.13531 0.987901 -1.01566e-19)
(1.17663 1.10937 -1.79824e-19)
(1.20235 1.21971 -3.97285e-19)
(1.14934 1.23576 -4.44971e-19)
(0.706315 0.880559 -6.98774e-21)
(1.0221 0.042793 -1.01744e-19)
(0.997578 0.0529681 -3.355e-20)
(1.03023 0.137853 -1.40476e-21)
(0.944811 0.156409 -2.67755e-19)
(0.901953 0.318459 3.12501e-19)
(1.01358 0.0382318 6.43803e-20)
(1.01129 0.0530114 1.22217e-19)
(1.01393 0.146933 1.38475e-19)
(0.990166 0.18298 3.85087e-20)
(0.935519 0.394613 -2.36462e-20)
(1.02376 0.0361409 8.77628e-20)
(0.988493 0.0470144 -4.65558e-21)
(1.06181 0.16767 -6.38872e-21)
(0.935871 0.176386 1.51863e-19)
(1.17438 0.546043 -5.07169e-19)
(1.02261 0.0347582 -2.44032e-22)
(0.996021 0.0423148 -1.69165e-19)
(1.05247 0.183605 -6.97914e-20)
(1.05372 0.17546 -3.80787e-19)
(1.16331 0.59594 9.62922e-20)
(1.0241 0.0296261 -1.48269e-20)
(0.980625 0.0444249 4.63616e-20)
(1.11421 0.178774 3.25018e-20)
(1.01512 0.205723 4.71407e-19)
(1.42112 0.728145 -4.87269e-19)
(0.995415 0.0349676 -1.21647e-20)
(1.02044 0.0196622 9.60738e-20)
(1.0988 0.207348 -7.45286e-20)
(1.2773 0.113624 9.84821e-19)
(1.31328 0.782714 -3.68357e-19)
(0.943571 0.0127529 -1.22869e-21)
(1.08209 0.0193754 -8.65807e-20)
(1.06534 0.107598 5.6299e-21)
(1.45111 0.121489 -2.9061e-19)
(1.24082 0.555981 -7.2568e-20)
(0.961397 0.0208987 -2.71728e-21)
(1.08671 -0.00265776 1.51947e-35)
(1.17718 0.0436302 -4.21424e-20)
(1.33366 0.10368 8.76151e-20)
(1.33985 0.414822 1.88299e-19)
(1.03255 -0.0206431 3.65703e-21)
(1.06548 -0.0436826 -2.7144e-20)
(1.19483 -0.00227543 2.02293e-20)
(1.07497 0.0852048 2.17212e-20)
(1.57954 0.273026 -2.79651e-19)
(0.964576 -0.0229729 -4.0124e-20)
(0.862758 -0.0271144 -9.5132e-22)
(0.844232 0.00598179 2.93727e-20)
(0.791468 0.0156333 -1.84465e-20)
(1.25208 0.0575521 -6.48368e-20)
(1.85657 0.596667 2.92609e-19)
(1.92758 0.647713 7.58859e-19)
(2.21388 0.479492 -1.1079e-18)
(2.26269 0.469405 2.2414e-20)
(2.50058 0.236859 4.9803e-19)
(1.72305 0.354714 8.97233e-20)
(1.74236 0.412665 1.03467e-18)
(1.99567 0.262306 1.24164e-19)
(1.96506 0.299591 -9.19277e-19)
(2.245 0.0798641 -2.86784e-19)
(1.72592 0.287541 -2.34856e-19)
(1.81711 0.262322 -1.54003e-19)
(1.9644 0.181825 2.22796e-19)
(1.99612 0.157045 -2.922e-19)
(2.14075 0.0515057 2.65244e-19)
(1.76191 0.153324 4.17721e-19)
(1.88446 0.122782 -1.87142e-21)
(1.91938 0.0726614 2.29841e-19)
(2.0094 0.0529435 1.87465e-19)
(2.01694 -0.00295295 -1.79502e-19)
(1.40355 0.0261771 -5.15598e-20)
(1.48723 0.0110118 2.61986e-19)
(1.47405 0.00257043 1.11243e-19)
(1.52222 -0.00929492 -2.14455e-19)
(1.46017 -0.0135422 5.56931e-22)
(1.07263 -0.0156225 5.77901e-20)
(2.05174 -0.0428185 -3.89997e-19)
(2.28554 -0.032045 1.09257e-18)
(2.27106 0.00546775 4.88215e-19)
(2.1091 0.031773 -3.39971e-19)
(0.674115 0.0929772 1.08073e-19)
(1.83363 0.0871135 -4.05599e-19)
(2.29004 0.0902933 -5.49731e-19)
(2.34456 0.0983628 6.80844e-19)
(2.10273 0.0856562 -4.40279e-19)
(0.220106 0.0776114 -1.57959e-20)
(1.23191 0.146891 4.33085e-19)
(1.95183 0.168977 5.9526e-20)
(2.33229 0.160507 4.33425e-19)
(2.47427 0.155303 2.06041e-19)
(-0.0214856 -0.0129361 1.73348e-19)
(0.46026 0.0845556 1.76763e-19)
(1.20996 0.15511 -4.03818e-19)
(1.68841 0.189982 2.52681e-20)
(2.25923 0.217862 9.11419e-20)
(-0.0824472 -0.0667436 1.10881e-19)
(0.0173064 -0.0368425 -1.33121e-19)
(0.428982 0.0379095 -3.92069e-20)
(0.881136 0.069205 1.98956e-20)
(1.27885 0.132094 -2.4136e-20)
(-0.0655577 -0.0689955 5.73954e-21)
(-0.103821 -0.102659 6.24553e-20)
(-0.00294736 -0.097364 5.5441e-20)
(0.183645 -0.0608302 -1.29161e-19)
(0.533501 -0.00467745 1.53993e-21)
(-0.0397589 -0.0645124 5.11653e-22)
(-0.0835684 -0.134594 -2.57878e-20)
(-0.0811202 -0.164718 -3.96321e-20)
(-0.0371604 -0.151018 9.41687e-20)
(0.0970426 -0.0793265 7.34423e-20)
(-0.0338581 -0.0985631 -1.95121e-20)
(-0.0611449 -0.193295 -7.22779e-19)
(-0.0807845 -0.239934 5.96836e-19)
(-0.112057 -0.242768 1.59851e-18)
(-0.119172 -0.214352 -2.41914e-19)
(-0.0533785 -0.0682321 7.49385e-21)
(-0.232775 -0.0455622 1.46732e-19)
(-0.400574 0.0973579 -4.31907e-19)
(-0.578849 0.247896 -4.49915e-19)
(-0.705498 0.29555 -8.98585e-20)
(-0.0602733 0.470185 -8.42468e-20)
(-0.394643 0.701377 3.59939e-19)
(-0.712594 0.795486 -1.68027e-19)
(-0.937911 0.764804 2.19168e-19)
(-0.993204 0.648894 1.30354e-18)
(1.25541 0.629289 1.32142e-20)
(1.19575 0.0256429 1.17108e-18)
(1.317 0.2856 1.46539e-19)
(0.242519 0.0996391 5.62256e-20)
(0.356752 -0.185708 -1.42609e-20)
(1.09008 0.533682 1.50217e-19)
(1.02691 -0.0408627 -6.38824e-19)
(1.5529 0.418147 5.9387e-19)
(0.600789 0.194446 3.51728e-21)
(0.491488 -0.173388 3.64116e-20)
(0.345424 0.32058 5.46686e-19)
(0.692124 -0.171708 8.31342e-19)
(1.72536 0.482938 -9.17858e-20)
(0.834748 0.320755 1.45292e-19)
(0.64183 -0.150554 -1.91587e-21)
(-0.922215 0.30227 4.81889e-19)
(0.5941 -0.518499 -7.08085e-18)
(1.79186 0.523453 -9.00858e-20)
(0.971647 0.438222 -3.70798e-22)
(0.787237 -0.116666 2.69515e-20)
(-0.8113 -0.153571 4.45213e-19)
(0.0794019 -1.12192 -1.14092e-18)
(1.73466 0.409212 -1.91427e-19)
(1.03588 0.544361 2.27446e-21)
(0.909153 -0.0820468 6.65488e-20)
(0.151071 0.16754 -1.10877e-19)
(-0.243177 -0.137646 0)
(0.0376545 -0.0864582 2.9094e-20)
(-0.228773 -0.0473612 2.08963e-20)
(0.292619 -0.0296219 -6.51033e-21)
(1.59922 0.53225 0)
(1.11799 0.155405 0)
(0.993506 0.0968865 -6.78631e-20)
(-0.0886397 -0.0305212 -2.96889e-21)
(0.410818 -0.138834 6.19054e-20)
(0.67318 0.000675219 -1.16118e-19)
(0.69169 -0.00465321 1.56901e-19)
(0.928196 -0.00327549 -5.22373e-20)
(0.896459 0.00982593 2.81865e-19)
(1.31621 0.0787031 2.04159e-19)
(1.52871 0.0238213 1.0943e-19)
(1.64238 0.0650542 2.31324e-19)
(1.84102 0.0387203 -3.69074e-19)
(2.34587 0.188369 -4.67008e-23)
(2.11394 0.112018 1.6851e-19)
(0.858808 -0.441463 -3.60154e-20)
(0.842411 -0.524781 -1.3917e-19)
(0.828642 -0.6151 -8.89997e-20)
(0.755767 -0.676492 5.52957e-20)
(0.454907 -0.525045 1.14986e-19)
(0.759653 -0.342667 1.27396e-19)
(0.704794 -0.403489 2.71253e-19)
(0.632641 -0.469771 -2.52268e-20)
(0.522042 -0.524695 1.24818e-19)
(0.280474 -0.414918 5.11507e-20)
(0.624555 -0.2004 -1.59759e-19)
(0.537912 -0.235565 -4.6246e-20)
(0.436127 -0.279292 1.43173e-19)
(0.316806 -0.318535 -5.40912e-21)
(0.135523 -0.256184 -1.05217e-19)
(0.535019 0.0315866 -4.31947e-19)
(0.448565 0.0203308 -3.58371e-19)
(0.338029 0.00114627 2.80634e-19)
(0.211091 -0.0274344 1.80127e-19)
(0.0524946 -0.0442707 1.35414e-20)
(0.514262 0.238621 -1.71575e-19)
(0.427781 0.244738 -1.70529e-19)
(0.311767 0.251376 -7.75406e-20)
(0.176577 0.260162 1.30426e-20)
(0.0233145 0.191854 1.06017e-20)
(1.88397 -0.0400495 7.15689e-19)
(2.1367 -0.101037 2.42566e-19)
(2.20745 -0.178471 -6.45531e-19)
(2.05546 -0.204683 -1.30018e-18)
(1.21893 -0.169537 1.09261e-19)
(1.8615 -0.117045 1.18996e-18)
(1.95168 -0.22113 1.58067e-18)
(1.97034 -0.334859 1.31721e-19)
(1.88506 -0.389018 2.31133e-19)
(1.19101 -0.327881 -1.51936e-19)
(1.59697 -0.269042 -3.08427e-18)
(1.66183 -0.379702 3.47233e-19)
(1.7045 -0.495541 9.66142e-19)
(1.63756 -0.561646 -3.56974e-19)
(1.04986 -0.462113 5.60486e-19)
(1.39843 -0.383698 7.31388e-19)
(1.41723 -0.476121 -1.93602e-18)
(1.40495 -0.585644 -2.21212e-18)
(1.33396 -0.662044 6.65654e-19)
(0.851644 -0.532648 4.57278e-19)
(1.13425 -0.436245 1.46338e-19)
(1.09517 -0.523969 2.18832e-19)
(1.08428 -0.635984 -3.30979e-19)
(1.02558 -0.711519 -3.98266e-19)
(0.643606 -0.555991 -3.66781e-21)
(1.07554 0.0549559 7.81614e-21)
(0.922365 0.0642205 -4.85768e-21)
(1.10735 0.085028 -3.47862e-21)
(0.795101 0.0212514 -1.96131e-19)
(1.03858 -0.181182 -9.35923e-21)
(1.08463 0.0571271 -2.56922e-21)
(0.921157 0.0634591 4.82246e-20)
(1.10709 0.10305 -4.58495e-20)
(0.881973 0.0689042 1.17814e-19)
(0.946275 -0.0660381 -1.89017e-20)
(1.08222 0.0528941 -6.29759e-20)
(0.92566 0.0615664 3.37671e-22)
(1.09558 0.105356 -2.19508e-20)
(0.884858 0.09525 3.28305e-20)
(0.926441 -0.00476877 -1.64906e-19)
(1.06191 0.0503231 7.68377e-20)
(0.954662 0.0581973 3.44866e-21)
(1.06125 0.113578 3.54967e-20)
(0.92142 0.119692 1.28527e-20)
(0.85101 0.106502 1.08209e-19)
(1.0358 0.0456633 1.94905e-20)
(0.987274 0.057885 -2.90258e-20)
(1.02955 0.120635 4.88828e-20)
(0.951129 0.146609 7.14025e-20)
(0.834535 0.207977 -1.2052e-19)
(0.892634 0.0340856 0)
(0.702641 0.0286644 1.04999e-20)
(0.586536 0.0233761 3.75851e-21)
(0.321034 -0.00502976 3.85586e-20)
(0.610843 -0.0483108 -1.14049e-19)
(1.0419 0.0753674 -6.64662e-20)
(0.932016 0.0775638 -1.88406e-20)
(1.00623 0.0841149 -3.21988e-20)
(0.781183 0.0108041 -1.057e-19)
(0.967415 -0.168997 -1.23746e-19)
(0.841086 -0.0617058 -2.76453e-20)
(0.922213 -0.0291007 4.44927e-19)
(1.00121 0.0348142 2.71791e-19)
(0.884244 0.0472092 2.74763e-20)
(0.688101 0.024376 0)
(1.19811 -0.293589 2.62194e-19)
(1.30443 -0.259679 1.27606e-18)
(1.46383 -0.146224 -1.41838e-18)
(1.55032 -0.021569 -4.36507e-19)
(1.45248 0.0221888 3.3313e-19)
)
;

boundaryField
{
    left
    {
        type            fixedValue;
        value           uniform (1 0 0);
    }
    right
    {
        type            zeroGradient;
    }
    down
    {
        type            noSlip;
    }
    up
    {
        type            noSlip;
    }
    cylinder
    {
        type            noSlip;
    }
    defaultFaces
    {
        type            empty;
    }
}


// ************************************************************************* //
