/*--------------------------------*- C++ -*----------------------------------*\
  =========                 |
  \\      /  F ield         | OpenFOAM: The Open Source CFD Toolbox
   \\    /   O peration     | Website:  https://openfoam.org
    \\  /    A nd           | Version:  13
     \\/     M anipulation  |
\*---------------------------------------------------------------------------*/
FoamFile
{
    format      ascii;
    class       volScalarField;
    location    "0.5";
    object      p;
}
// * * * * * * * * * * * * * * * * * * * * * * * * * * * * * * * * * * * * * //

dimensions      [0 2 -2 0 0 0 0];

internalField   nonuniform List<scalar>
1800
(
-1.55959671342
-1.57207974148
-1.52467920659
-1.43688238187
-1.33746450968
-1.24254551181
-1.15784015035
-1.08337921046
-1.01796384478
-0.965379668
-1.75915622497
-1.77253264356
-1.71700880991
-1.61710770047
-1.50530787993
-1.39896807321
-1.30422359518
-1.22145091364
-1.1502397656
-1.0925838679
-1.95082232267
-1.96432516441
-1.89973020552
-1.7874067692
-1.66321401771
-1.54535746834
-1.44011237351
-1.3477471922
-1.26736051576
-1.19968767295
-2.12927967703
-2.14217201658
-2.06792274639
-1.94369056447
-1.80819515956
-1.68024829804
-1.56607523612
-1.46574594406
-1.3781858473
-1.30383594727
-2.28853379424
-2.30002995039
-2.21559332635
-2.08003852518
-1.9342057553
-1.79711194931
-1.67479779904
-1.56710234705
-1.47280123746
-1.39168433222
-2.42334806311
-2.43276777876
-2.33802150338
-2.19229765831
-2.03759640193
-1.89293484896
-1.76399738271
-1.65038166072
-1.55066032108
-1.46422757759
-2.52848758942
-2.53515068648
-2.43023769084
-2.27582370793
-2.11380218081
-1.96316460313
-1.82904606923
-1.71080228344
-1.60684227341
-1.51617771298
-2.59954235212
-2.60292764694
-2.48849212075
-2.3271327501
-2.15957051734
-2.00471328395
-1.86702946935
-1.7456056642
-1.63867869397
-1.54494129545
-2.6328763511
-2.6327681071
-2.50985091799
-2.34333489617
-2.1721000856
-2.01486106181
-1.87520487907
-1.75204016529
-1.64344394635
-1.54779801697
-2.62623416709
-2.62285230887
-2.49234940049
-2.32321169507
-2.14973338668
-1.99185823639
-1.85171375411
-1.72810118346
-1.61896254059
-1.52248273595
-0.138877504693
-0.129126181317
-0.117875946946
-0.104334222713
-0.0927837771005
-0.0855174566524
-0.0825352025096
-0.0830660170522
-0.0863339539664
-0.0917060389833
-0.186312143468
-0.1778465052
-0.165739918713
-0.14979386541
-0.13505992536
-0.124494570999
-0.118384213595
-0.11602042444
-0.116623487047
-0.119384914496
-0.259725633525
-0.253145976178
-0.239711759103
-0.220094017891
-0.20053698184
-0.184963855225
-0.174107203728
-0.167360537196
-0.163923836185
-0.16270219856
-0.358219101989
-0.353958738731
-0.338663442936
-0.314143104406
-0.288220408781
-0.266070590656
-0.248999846177
-0.236527234777
-0.227830716893
-0.221403720966
-0.480492801366
-0.478821959994
-0.461079890941
-0.430454742836
-0.396773518534
-0.366660450419
-0.342102040312
-0.322769050188
-0.307796260762
-0.295155329279
-0.624692998933
-0.625741042656
-0.604924661587
-0.567070920713
-0.524421276663
-0.485196876747
-0.452120242549
-0.42503711468
-0.403024738914
-0.383443776598
-0.788263379232
-0.792050776824
-0.767534089203
-0.72149589486
-0.668945609978
-0.619780156701
-0.57747162824
-0.542054727114
-0.512523958856
-0.485645724209
-0.967792827981
-0.974239861988
-0.945420975006
-0.890457637432
-0.827443015885
-0.767944471688
-0.716152120872
-0.672270271786
-0.635106812284
-0.601071592587
-1.1590908027
-1.16796189248
-1.13405351913
-1.06930440735
-0.995198840561
-0.924966305705
-0.863489816436
-0.811103260902
-0.766241820184
-0.725620651229
-1.35781689819
-1.36871570409
-1.32858713024
-1.25274275982
-1.16628154471
-1.08401153698
-1.01141265898
-0.948830238079
-0.894547770495
-0.847300423936
-0.134638499567
-0.211982539526
-0.280888355684
-0.331130437246
-0.369561435635
-0.400431990685
-0.427065600842
-0.451337228522
-0.474356242043
-0.496778004437
-0.146158828067
-0.220049459897
-0.284617000233
-0.333194702642
-0.370965856337
-0.401503320095
-0.427882822169
-0.451918286714
-0.47470849682
-0.49690590416
-0.164087289796
-0.232614320851
-0.29038715346
-0.33613064108
-0.372705086687
-0.402686838266
-0.428719998679
-0.452485830953
-0.475043881722
-0.497027641976
-0.189375602711
-0.249173550492
-0.298115042997
-0.339928109967
-0.374786339545
-0.40399005844
-0.429583887173
-0.453045446348
-0.475366039755
-0.497144077361
-0.223406684058
-0.269018457891
-0.307658358873
-0.34455790248
-0.377212554687
-0.405419258436
-0.430480835041
-0.453602948675
-0.475678338838
-0.497255624154
-0.267898673961
-0.291296799648
-0.318789946437
-0.349976154546
-0.379983063716
-0.406979029927
-0.431416039009
-0.454162895032
-0.475984033906
-0.497362426664
-0.324754595863
-0.315205861966
-0.331133587585
-0.356098454435
-0.383090023345
-0.408671856726
-0.432394369997
-0.454730252229
-0.476285911984
-0.49746478615
-0.395817103058
-0.341460394534
-0.344412503178
-0.362837991254
-0.386519707751
-0.410502258986
-0.433420267558
-0.455309551069
-0.476586575986
-0.497562387901
-0.481533560702
-0.372074179396
-0.358936396752
-0.370333030648
-0.390361562362
-0.412512838237
-0.434514197112
-0.455910819559
-0.476890291743
-0.497653677498
-0.575352485216
-0.406522198273
-0.374439672015
-0.378440961279
-0.394573196512
-0.414702187527
-0.435679028263
-0.456540290916
-0.477202416332
-0.49773748444
-0.634926844912
-0.443180974069
-0.392833694729
-0.389909236603
-0.401632988847
-0.418972385063
-0.438273888038
-0.458094688503
-0.47801421475
-0.497936845196
-0.658366663376
-0.480206164808
-0.418633789365
-0.406967092966
-0.412630695302
-0.425952010426
-0.442681211094
-0.460802767625
-0.479475657362
-0.498383152902
-0.664104355334
-0.501899093306
-0.43714307298
-0.420925763271
-0.422436638487
-0.432501837074
-0.446927338382
-0.463445148087
-0.480916593081
-0.49882974172
-0.665993550173
-0.519872304838
-0.454059937357
-0.43380503549
-0.431632443033
-0.438757408006
-0.451032988427
-0.466018011089
-0.482330305445
-0.499273759759
-0.663405008545
-0.532835429968
-0.468338063914
-0.445214035046
-0.440019266435
-0.444587922143
-0.454911805769
-0.468468382785
-0.483687503562
-0.499705640184
-0.658929723292
-0.542734343276
-0.480485046367
-0.455267648044
-0.44755546396
-0.449908360083
-0.458490598706
-0.470746862262
-0.484961226866
-0.50011683728
-0.654605559245
-0.550687240103
-0.490806725538
-0.464016664287
-0.454194142995
-0.454644066718
-0.461704107549
-0.472808249477
-0.48612694436
-0.500500564412
-0.651795043216
-0.557730326462
-0.499726660216
-0.471563893985
-0.459919208178
-0.458740455564
-0.464497001316
-0.474611509072
-0.487162914414
-0.500848486787
-0.649624576235
-0.5644251345
-0.508122457902
-0.478564219714
-0.465170309241
-0.462480536235
-0.467050581699
-0.476273911481
-0.488156280289
-0.501207652968
-0.65843632975
-0.571722407346
-0.514734215937
-0.48360699427
-0.468820307572
-0.465045703414
-0.468791307369
-0.477400795726
-0.488824253913
-0.501445860234
-1.36129663116
-1.38613500682
-1.38766295336
-1.36725423662
-1.32706588622
-1.26976074001
-1.19909124507
-1.11617191355
-1.02839480186
-0.931783660054
-1.18933992148
-1.21533882575
-1.22262012376
-1.21246736145
-1.18577557919
-1.14600061811
-1.09431002492
-1.03482192249
-0.971320502054
-0.903113481578
-1.0567657077
-1.08239398592
-1.09280336011
-1.0892249101
-1.07165548086
-1.04412372802
-1.00555862557
-0.961666724695
-0.912490275639
-0.859347404089
-0.954108201668
-0.98005035687
-0.992709805488
-0.993324657734
-0.981774378539
-0.961836318687
-0.931984319851
-0.898026000546
-0.858649235359
-0.81649758654
-0.876413289203
-0.902134136084
-0.916190101754
-0.91955771297
-0.912258341695
-0.897387908584
-0.873896909276
-0.846885670182
-0.814874550562
-0.780837719612
-0.817051481363
-0.842849609052
-0.858080211998
-0.863483101015
-0.859335524779
-0.848054922025
-0.829243989216
-0.807106306132
-0.78026862008
-0.751762377534
-0.772958658365
-0.799044401093
-0.815266864819
-0.822207592748
-0.820372024525
-0.811628683128
-0.796117800276
-0.777301690581
-0.754133178752
-0.729539105514
-0.741663827857
-0.768405546325
-0.785707181177
-0.793973316737
-0.793874973544
-0.786913147962
-0.773597173307
-0.756828303664
-0.735969467926
-0.714011039749
-0.725296168319
-0.751853669468
-0.770090862351
-0.779783108269
-0.781214051908
-0.775466434341
-0.763198290479
-0.746724546583
-0.726105027291
-0.702860199955
-0.712540076321
-0.742859013622
-0.764393316348
-0.777645418319
-0.783167655422
-0.781636728539
-0.773857631412
-0.760847141668
-0.742859436178
-0.720104579874
-0.0794770429551
-0.132956112236
-0.197527729314
-0.267425631896
-0.342834190328
-0.426673694627
-0.520542063211
-0.620529818806
-0.706924876828
-0.734605148358
-0.267184263572
-0.325832024054
-0.393585922876
-0.468572455332
-0.552328751601
-0.647282303056
-0.75413916455
-0.868056316717
-0.966199892594
-0.995920520447
-0.478397812977
-0.540709112722
-0.610890408064
-0.689853797472
-0.779683212547
-0.882509532385
-0.998801484205
-1.12343432948
-1.23107293727
-1.26141048
-0.677491937505
-0.744801418401
-0.820721746891
-0.906723755046
-1.00465936013
-1.11654424078
-1.24281781226
-1.37824293683
-1.49522817379
-1.52514069692
-0.855454654375
-0.929614706632
-1.01324296012
-1.10785995996
-1.21524712008
-1.3374369964
-1.47470800703
-1.62158514033
-1.74831432286
-1.77639099239
-1.01555064708
-1.09659639399
-1.18780432973
-1.29078840036
-1.40739597749
-1.5396514194
-1.68749061138
-1.84508572048
-1.98191457286
-2.00440738401
-1.15954348273
-1.24621363199
-1.34382248335
-1.45400002173
-1.57861395172
-1.71957220887
-1.87627683267
-2.04192395247
-2.18905411998
-2.20178753268
-1.28502094032
-1.37604377048
-1.47876383142
-1.59474482492
-1.72587668035
-1.87388936551
-2.03726357264
-2.21256887032
-2.35611936091
-2.3642515725
-1.38820654924
-1.48270248467
-1.58946745466
-1.70995132774
-1.84628955985
-2.00088667147
-2.17240806335
-2.33635260686
-2.48828568292
-2.48807664003
-1.46733790352
-1.56396926293
-1.67307033816
-1.7957087203
-1.93460037583
-2.09094125478
-2.26833518572
-2.4357476065
-2.57257599082
-2.5784216313
1.02877659144
1.04299257575
1.05916868854
1.0756631551
1.09108478527
1.10453394549
1.11521890678
1.12260817794
1.12777297657
1.13297488656
0.978864644819
0.991181735584
1.00491081151
1.01855014954
1.0308014694
1.04075410512
1.04759554942
1.05100823088
1.05279942914
1.05617343188
0.909409213033
0.919036355479
0.929260183405
0.938764994809
0.946428999727
0.951336869847
0.952603323299
0.950219080473
0.947244080474
0.947835200958
0.821136170715
0.827323231442
0.833055445607
0.837259406098
0.839041393837
0.83748243968
0.831606147741
0.821746578326
0.812548132385
0.809534874832
0.714870093648
0.717022435253
0.717480089693
0.715397613424
0.710195241323
0.700900730596
0.686454661703
0.667571855114
0.650482075406
0.644220637951
0.591677096918
0.58955171504
0.584215269112
0.575061967447
0.561866506483
0.543694121104
0.519421011841
0.490180858004
0.46383738769
0.454041450758
0.453684940379
0.447465442372
0.436186813285
0.419453232076
0.397501139024
0.369446870755
0.334200602474
0.293383956152
0.25671457923
0.243180031806
0.307590237395
0.296745666111
0.278223462227
0.252380269456
0.220170407997
0.180823928997
0.133225219644
0.0795214394814
0.031592555829
0.0143276278407
0.161245780169
0.145438473869
0.118509036618
0.0819529879135
0.0377550905309
-0.0146455106648
-0.0763247689194
-0.144520048816
-0.204853687754
-0.225890971569
0.0308751864539
-0.0010679458587
-0.044600062262
-0.0962614615003
-0.154476038366
-0.220905972216
-0.297159288608
-0.38012088092
-0.452875099552
-0.477337681991
0.853999752343
0.975042339213
0.955170081587
0.771510702623
0.782406075165
0.792603566602
0.801397121607
0.822557888469
0.863975267811
0.967793386904
0.848213840927
0.970827903098
0.950398592158
0.765682306442
0.776101825129
0.78491242069
0.791476677404
0.809331065106
0.844639334653
0.934661637713
0.842730949583
0.966964248103
0.94549743736
0.758817606155
0.769249266044
0.776439235768
0.779989592748
0.793567158346
0.819989638213
0.889918712108
0.837564146372
0.963471391206
0.940494409462
0.750984829078
0.761902498849
0.767184068281
0.766976143384
0.775116478469
0.789493584331
0.833924893495
0.832734896545
0.960370472636
0.935333749225
0.742210559309
0.754124960234
0.757160092736
0.752430245565
0.753774505959
0.75294081481
0.766732227953
0.828322984589
0.957666898408
0.929952808211
0.732571375951
0.746013926457
0.746356957561
0.73638130053
0.729405751847
0.711462643921
0.68669535821
0.824404374821
0.955351612262
0.924287725195
0.722160360223
0.737658653864
0.734766411432
0.718774624405
0.702108795141
0.666718895876
0.59081591783
0.821051992089
0.953414561106
0.918277160442
0.711078075256
0.729142322933
0.722363399147
0.699632738171
0.671941317809
0.617997969917
0.481052155573
0.818382986532
0.951823232388
0.911869784561
0.699522839075
0.72050629837
0.709163246662
0.679064569408
0.638809559006
0.563308003016
0.35418286265
0.816704514137
0.950583675615
0.905043896082
0.687628000927
0.711748191936
0.695152006635
0.657442059252
0.604180025262
0.5047973894
0.225865890734
0.815077643537
0.948303857508
0.900555579563
0.676684741829
0.699239623149
0.676821975462
0.629041020112
0.559725985504
0.439756021711
0.105153235335
0.815369361978
0.94518106463
0.899427053558
0.668467369224
0.684352105788
0.656999637031
0.600117010908
0.518071680065
0.381443092156
0.0679300819228
0.817896867796
0.942731372027
0.89829937056
0.661224699556
0.670659666012
0.638595707526
0.573903432809
0.4824220095
0.333279654955
0.0412007827652
0.822890482533
0.94115330048
0.897222849434
0.654961802157
0.658487641862
0.622050945345
0.550885800393
0.452468096722
0.294308859181
0.0252374487386
0.82895357494
0.940449381154
0.896327187584
0.649736374472
0.648023512931
0.607681725706
0.531354157082
0.427760740446
0.264292026819
0.0163329444116
0.838779240061
0.940727788074
0.895625836865
0.645522916871
0.639376164363
0.595661070553
0.515379482404
0.408019867788
0.242362973583
0.0119949176543
0.84953334567
0.941850832739
0.895098480629
0.64231351968
0.632634463224
0.586105512446
0.502941120011
0.392965168216
0.22730144184
0.0108668718963
0.870997502021
0.944406783947
0.894855471141
0.640157541909
0.627842879513
0.579092767506
0.493994087922
0.382375186201
0.217890722203
0.0124462767226
0.885613601658
0.944902002926
0.891777544597
0.639227548065
0.625246769514
0.574781887919
0.488711631191
0.376428402025
0.213671025744
0.0180388988901
0.944946854734
0.955712097457
0.895221028203
0.63741178748
0.625297312945
0.573045305651
0.486700955507
0.374095026688
0.213149704524
0.021523254413
-0.113931153993
-0.270536835652
-0.452735540022
-0.624954316472
-0.777436294756
-0.914794555754
-1.04023306983
-1.15106190843
-1.24278242481
-1.31297712256
-0.179469242954
-0.297656405075
-0.43381995733
-0.569116405076
-0.692539853208
-0.804641620151
-0.908074303838
-1.00120262092
-1.08116160876
-1.14502672291
-0.206047690782
-0.299887814902
-0.403325213236
-0.513784574535
-0.619797464703
-0.717404444507
-0.807661542057
-0.889545220926
-0.960009820143
-1.01614578419
-0.210449985581
-0.292300195539
-0.378120356255
-0.471378063677
-0.563644699238
-0.649365998855
-0.728590141747
-0.800834979468
-0.86375892765
-0.915209408681
-0.20343695662
-0.278378096397
-0.35350289083
-0.434462140577
-0.516589479745
-0.594218923191
-0.666285132224
-0.732380589078
-0.790692975253
-0.839200237136
-0.191869337378
-0.262255066819
-0.330813369784
-0.403724136091
-0.478832398589
-0.550829661819
-0.617946072624
-0.679700141586
-0.734618606357
-0.780853728333
-0.179606682492
-0.246743142536
-0.310967139063
-0.378604579836
-0.44897604238
-0.517127056142
-0.580896612461
-0.639725374192
-0.69236546479
-0.737205156574
-0.168049843458
-0.233019462116
-0.29437650919
-0.358791853298
-0.426334100723
-0.492169137543
-0.553932634605
-0.611014997836
-0.662240748161
-0.70613621396
-0.15440852926
-0.217742712365
-0.277855247278
-0.341532478335
-0.408611247309
-0.474215335462
-0.535989298985
-0.593272778477
-0.644913434912
-0.689359442356
-0.137053204412
-0.195940434607
-0.25460397584
-0.31892625436
-0.386552872882
-0.452767377113
-0.515675171317
-0.574418752949
-0.627677784326
-0.674067669512
-3.77805228574
-3.75867063938
-3.57756839191
-3.36557823913
-3.16290093698
-2.98795808785
-2.84136500312
-2.72046277188
-2.62323114732
-2.54906955918
-3.82880508996
-3.81956568865
-3.65309705703
-3.44328176355
-3.23902163295
-3.06073233513
-2.9110925627
-2.78752083396
-2.68851375922
-2.61492961793
-3.76636197692
-3.76765332041
-3.61806734275
-3.41296695131
-3.20757824938
-3.02608299466
-2.87334400933
-2.74697897948
-2.6449968446
-2.56809184941
-3.59854161463
-3.60865651743
-3.4778638108
-3.27993521161
-3.07464827936
-2.89040734338
-2.73455556127
-2.60540729642
-2.50042900235
-2.41876224327
-3.34177678494
-3.35846397164
-3.24659458349
-3.05896242513
-2.85660663034
-2.67159333898
-2.51392384165
-2.38292974315
-2.27590436149
-2.19093207888
-3.0188611386
-3.03960979548
-2.94553709524
-2.77177844471
-2.57707346427
-2.39551962947
-2.23930798434
-2.10892525482
-2.00181736152
-1.91695297379
-2.6561489691
-2.67862603654
-2.60063132974
-2.44451651818
-2.26366848406
-2.09187203237
-1.94248086415
-1.81715375455
-1.71328625079
-1.63213837771
-2.28017943929
-2.30218595095
-2.23822650444
-2.10255700967
-1.94129715043
-1.78563276531
-1.64880315467
-1.53323830231
-1.43686471104
-1.36236231927
-1.91442403487
-1.93432606599
-1.88237487066
-1.76834158747
-1.63057271228
-1.49619657374
-1.37729534486
-1.27652179186
-1.19225768537
-1.13080117895
-1.5753956102
-1.59192420283
-1.54988140352
-1.45645719144
-1.34259288193
-1.23082119779
-1.1312420154
-1.04590549233
-0.972145109063
-0.916436904853
-1.27253252036
-1.2847944482
-1.25088721308
-1.17604525076
-1.08495590719
-0.995950363156
-0.917381322509
-0.851187196833
-0.795266755422
-0.747008295734
-1.00855490827
-1.01675543707
-0.989217543299
-0.929988703728
-0.858500213232
-0.789275384782
-0.728729035951
-0.678146605544
-0.636252015242
-0.597743764037
-0.782690823259
-0.786981093024
-0.764313172647
-0.717612155291
-0.662015541404
-0.608853712737
-0.562843107598
-0.524650702094
-0.493470480794
-0.464450528706
-0.592961993327
-0.5936690288
-0.574820230278
-0.538314456084
-0.495877954659
-0.456230298182
-0.422701565384
-0.395482431194
-0.373839115341
-0.354089374289
-0.437409270259
-0.434945298406
-0.419086280501
-0.390816017073
-0.359168418315
-0.330723387421
-0.307663934214
-0.289817521526
-0.27641392746
-0.264856362079
-0.314196139335
-0.308988866986
-0.295343043314
-0.27343309087
-0.250252182489
-0.230649698645
-0.215909405056
-0.205601589891
-0.198939235327
-0.194152490814
-0.221757752282
-0.214291001672
-0.202159708357
-0.184884622419
-0.167971488495
-0.154953622475
-0.146448738986
-0.141851363936
-0.140374028882
-0.140816504943
-0.158856198017
-0.149720957903
-0.138508510428
-0.124287646734
-0.111581726173
-0.103005360723
-0.098731017223
-0.0980412955945
-0.100150636258
-0.104222136374
-0.124570241077
-0.114445887371
-0.103643596653
-0.0909967565855
-0.080542129024
-0.0743572029911
-0.072373428443
-0.0738140227533
-0.0778985210258
-0.0839914328869
-0.118101259485
-0.10778385447
-0.0969615030434
-0.0845468719721
-0.0744399452992
-0.0686574936807
-0.0670777307019
-0.0689015757795
-0.0733536985686
-0.079860594373
-0.463656358922
-0.351494866022
-0.344036999099
-0.353510548906
-0.371045561661
-0.393404846168
-0.417948836329
-0.443322503707
-0.469047836381
-0.494927902042
-0.366532338689
-0.320898409379
-0.330795312107
-0.347868641879
-0.369785758845
-0.393969931242
-0.419079305979
-0.444404177302
-0.46978432131
-0.495177896414
-0.290855164412
-0.296358829162
-0.32002997659
-0.343905056055
-0.368882861179
-0.394566687725
-0.42014596628
-0.445408646123
-0.470464422583
-0.49540984868
-0.235272001476
-0.275744084897
-0.310022904896
-0.339862669017
-0.36809343225
-0.395156932247
-0.42114352491
-0.446338646469
-0.471092287109
-0.495625279928
-0.19464046463
-0.257434263642
-0.300856448263
-0.33637972225
-0.367518834773
-0.395763060823
-0.422082383327
-0.447200734073
-0.471671746744
-0.495825416307
-0.165893299254
-0.240845988114
-0.2929650877
-0.333560114914
-0.367176084315
-0.396395248907
-0.422972404511
-0.448001713608
-0.472206965873
-0.496011624504
-0.146488786475
-0.226958921501
-0.286656309482
-0.33145833973
-0.367082353907
-0.397068198696
-0.42382457106
-0.448748916731
-0.472701734889
-0.496185399049
-0.134528506158
-0.216248665604
-0.282169961841
-0.330127124616
-0.367258541467
-0.397794522564
-0.424649639154
-0.449449031401
-0.473160067602
-0.496347798651
-0.128942013609
-0.210154546573
-0.279676643399
-0.329611959761
-0.367720907362
-0.398589413241
-0.42545817172
-0.450109169099
-0.473586039015
-0.496499976214
-0.128971994552
-0.208673471204
-0.279241239762
-0.329940709199
-0.368484125066
-0.399465185619
-0.426260330042
-0.450736444756
-0.473983426295
-0.496643046031
-0.677040932813
-0.479331463074
-0.4051798634
-0.382659917782
-0.383499148981
-0.397381067825
-0.418352267569
-0.442513374314
-0.468121853842
-0.494495094848
-0.632269398314
-0.455627862065
-0.395430601424
-0.378784392751
-0.382147063613
-0.397023303225
-0.41836436727
-0.442636498586
-0.468252599229
-0.494555965721
-0.601353186084
-0.436507330736
-0.385983110122
-0.374251850087
-0.379951049446
-0.396314983244
-0.418260320539
-0.442747362383
-0.46840477815
-0.49463300919
-0.566540750612
-0.412996392293
-0.37390987621
-0.368266634127
-0.377180288364
-0.395243984515
-0.417987447592
-0.442780492023
-0.468513352483
-0.494691161989
-0.52447891435
-0.381068325417
-0.357416391815
-0.359951561747
-0.373503947094
-0.39385237281
-0.417575173635
-0.442753710786
-0.468591994094
-0.494736370183
-2.48079673922
-2.54908152127
-2.52151938769
-2.40446113483
-2.21191016724
-1.98167866058
-1.71600277403
-1.47467279514
-1.24302091318
-1.04204148589
-2.47776686853
-2.54373526771
-2.50928096151
-2.38526028906
-2.18832038597
-1.95704703586
-1.69550973654
-1.45533766873
-1.22554735308
-1.01237598685
-2.47988808592
-2.54439777731
-2.5046436733
-2.37291584268
-2.16851608269
-1.92518405845
-1.65584847331
-1.40107167683
-1.17152339355
-0.979054154891
-2.49050177962
-2.55579580242
-2.51200344552
-2.37075236101
-2.1542795564
-1.89442459081
-1.61791007874
-1.3559004406
-1.13310736094
-0.948946838764
-2.51002998973
-2.57643798535
-2.52844899194
-2.37775448037
-2.14917505914
-1.87613692209
-1.59346177871
-1.32768923162
-1.10265423237
-0.907893863664
0.458696726898
0.437709113395
0.406959702113
0.369377089292
0.326903043583
0.278073181278
0.220753052949
0.157028233352
0.100773240921
0.0798122685618
0.579977586423
0.575565935794
0.562122794501
0.540702022659
0.513338950979
0.479594006312
0.438158075272
0.390920564489
0.349222900055
0.334241554556
0.702232149723
0.702292885746
0.696665132179
0.685696644319
0.670248730563
0.649577418139
0.622492479092
0.590260969689
0.561853264374
0.552167233162
0.811451075025
0.815758211177
0.816974064976
0.81473195184
0.809054235978
0.799097048208
0.783745127072
0.763862125867
0.746342326935
0.740887496453
0.903377296387
0.911165416607
0.917581017667
0.921995689546
0.923939627337
0.922508826143
0.916624395572
0.906767787018
0.898085822249
0.896070397788
0.975030283644
0.986002378866
0.996903443443
1.00682933611
1.01495215931
1.02034291043
1.02204100733
1.0201312441
1.01804522357
1.01945026744
1.02632045268
1.03970016665
1.05405210107
1.06814658552
1.08088388936
1.09136185003
1.09871512451
1.10268726651
1.10529886309
1.1095712208
1.05746941356
1.07237776867
1.08897216502
1.10579937318
1.12156834555
1.13540249415
1.14648232132
1.1542941545
1.16002487405
1.16587199612
1.06843803411
1.08391082449
1.10148123629
1.11958017173
1.13678612107
1.15221907486
1.16506412386
1.17472093789
1.18194060676
1.18839190755
1.05851345169
1.07390286454
1.09142847624
1.10944398984
1.12654168075
1.1418491537
1.15456361494
1.16404436095
1.17101764001
1.17725423444
-2.37851721032
-2.45544774883
-2.55194055028
-2.66990848725
-2.81264942245
-2.98340230466
-3.18622969077
-3.3930535936
-3.5887750268
-3.61534955052
-2.12332300095
-2.20124502659
-2.29661900125
-2.41136618122
-2.54956242492
-2.71466573988
-2.90660719902
-3.12130498712
-3.3242078835
-3.34943919929
-1.80631699814
-1.88246283454
-1.97555597817
-2.08682994336
-2.21971617312
-2.37750362232
-2.56216769607
-2.77075399501
-2.96726619231
-3.01301075036
-1.44759943254
-1.52320318228
-1.61470841053
-1.72276821843
-1.85021361454
-2.00037986092
-2.17565451003
-2.37229650027
-2.55383841669
-2.61402135339
-1.0769837205
-1.15386765742
-1.24395143578
-1.34777597701
-1.46803911877
-1.60816602663
-1.77064678686
-1.95130660362
-2.11718463856
-2.17922203402
-0.729385859498
-0.804215001402
-0.889429456884
-0.985508310551
-1.09515243669
-1.2218018536
-1.367920238
-1.52938775321
-1.6768657569
-1.73465686282
-0.420338992737
-0.487578636561
-0.563189921446
-0.647529497656
-0.743339448899
-0.853976881835
-0.981658032009
-1.12238114152
-1.25006186906
-1.30080249538
-0.139450085499
-0.196686026198
-0.261381651362
-0.333229049598
-0.415088041564
-0.510300620729
-0.620645455408
-0.742020247714
-0.851048565976
-0.894135190576
0.126773952774
0.0784961405828
0.0204248958047
-0.043727246183
-0.115742156136
-0.198965878523
-0.294908178173
-0.399476165198
-0.491918589713
-0.527759262925
0.35241054846
0.311001938417
0.256307378026
0.197010188741
0.1337577758
0.0633967693853
-0.0162837347785
-0.102221414576
-0.177236244781
-0.205710728522
0.94594576231
1.0264355617
0.979270763216
0.769639731969
0.81977494642
0.825880157896
0.820306983424
0.818649448936
0.781839103435
0.627387744632
0.931907060316
1.02179650652
0.980896590089
0.77404267488
0.81706396189
0.826125130677
0.823539757554
0.829336098078
0.811188003815
0.714757606373
0.919429322167
1.01669614417
0.981236394588
0.77787945902
0.814298937788
0.825582762811
0.826871900884
0.83900361631
0.837068697838
0.802218005006
0.908358293226
1.0113024188
0.980386246434
0.780936166093
0.81146224844
0.824220029146
0.828631339347
0.846081083627
0.85689689572
0.869557722738
0.898444861008
1.00576986814
0.978514982855
0.783019139697
0.808501846756
0.822055531362
0.829027175704
0.850663980332
0.87226740637
0.921579850247
0.889485238787
1.00023432363
0.97580432682
0.784001921722
0.805299367093
0.819085244184
0.828052538559
0.852505276201
0.884291609678
0.958268575519
0.881305401596
0.994775772539
0.972431402921
0.783835278499
0.801751363625
0.815363754838
0.825682903276
0.85151774704
0.890936245288
0.983042261586
0.873767706272
0.989486843499
0.968552703686
0.782475262049
0.797740309701
0.810854328212
0.821876184093
0.847906418655
0.891878137348
0.996743028345
0.866748977259
0.98439193671
0.964323583165
0.779948789706
0.793217770274
0.805567295674
0.816581525617
0.841831735678
0.887564476814
0.998685176319
0.860173988783
0.979571515734
0.959824717704
0.776281805944
0.788107999083
0.799492835924
0.809772847927
0.833381111517
0.878236184857
0.989112463759
1.081549893
1.04304697285
0.982761869701
0.766360461717
0.821414904093
0.818984008053
0.800068005618
0.775523299751
0.683191917493
0.496334413872
1.02182007807
1.03568914837
0.981806074241
0.768190827144
0.82066670953
0.820182047558
0.801672971338
0.778505317498
0.68947927878
0.498953609102
1.00294507025
1.0356057179
0.98379844015
0.767983545696
0.820948732587
0.821519928365
0.80470693227
0.784423506699
0.703787444
0.503884122027
0.980834403979
1.03333845676
0.982085818277
0.767702207526
0.82117311581
0.822966380997
0.808867003913
0.792908771201
0.723544201372
0.520426000528
0.961901017072
1.03025375695
0.979470372191
0.767357350396
0.821218751297
0.824457657443
0.813747372983
0.803692564397
0.747868106982
0.54087764711
0.146629544055
0.00542729164502
-0.192259850562
-0.467409611819
-0.802368110483
-1.15695730915
-1.49608354307
-1.80590205703
-2.08741769118
-2.32092209927
0.1388833819
-0.000316898694501
-0.187888546089
-0.450021742862
-0.772453439618
-1.12358748488
-1.46991975328
-1.79134460074
-2.08004669912
-2.31762822531
0.165928486464
0.0168185712871
-0.175747623132
-0.431499064122
-0.74252815564
-1.09099208003
-1.44750953148
-1.78102058612
-2.07659962582
-2.31804993356
0.225422275138
0.0528347875239
-0.159069171648
-0.415156916672
-0.717999894316
-1.06429244309
-1.42895333517
-1.77413644124
-2.07773541808
-2.32443075513
0.311418888268
0.109501150182
-0.132871698026
-0.399557157419
-0.701679348519
-1.04725583884
-1.41678338898
-1.77158681448
-2.08451657139
-2.3386357854
)
;

boundaryField
{
    left
    {
        type            zeroGradient;
    }
    right
    {
        type            fixedValue;
        value           uniform 0;
    }
    down
    {
        type            zeroGradient;
    }
    up
    {
        type            zeroGradient;
    }
    cylinder
    {
        type            zeroGradient;
    }
    defaultFaces
    {
        type            empty;
    }
}


// ************************************************************************* //
