/*--------------------------------*- C++ -*----------------------------------*\
  =========                 |
  \\      /  F ield         | OpenFOAM: The Open Source CFD Toolbox
   \\    /   O peration     | Website:  https://openfoam.org
    \\  /    A nd           | Version:  13
     \\/     M anipulation  |
\*---------------------------------------------------------------------------*/
FoamFile
{
    format      ascii;
    class       volVectorField;
    location    "0.525";
    object      U;
}
// * * * * * * * * * * * * * * * * * * * * * * * * * * * * * * * * * * * * * //

dimensions      [0 1 -1 0 0 0 0];

internalField   nonuniform List<vector> 
440
(
(0.218262 -0.176697 -1.811e-19)
(0.613081 -0.436662 1.07885e-18)
(0.984291 -0.640908 4.23369e-19)
(1.32753 -0.795384 1.24244e-18)
(1.63256 -0.916734 -2.60002e-19)
(0.304894 -0.177685 -5.44507e-19)
(0.819135 -0.428702 -1.01958e-18)
(1.27997 -0.618902 1.14512e-19)
(1.6919 -0.761637 -1.21517e-18)
(2.05374 -0.875106 -1.02099e-18)
(0.38488 -0.152407 -6.98077e-19)
(1.00468 -0.363015 1.58978e-18)
(1.53976 -0.518386 -1.93467e-18)
(2.00471 -0.632633 1.37931e-18)
(2.40594 -0.721474 1.42992e-18)
(0.445868 -0.102746 5.62395e-19)
(1.14609 -0.243084 -1.29952e-18)
(1.73744 -0.344812 -7.50806e-19)
(2.24294 -0.418221 1.96658e-18)
(2.67446 -0.474463 2.50017e-18)
(0.479257 -0.0361583 6.8691e-19)
(1.22364 -0.0847544 1.69139e-19)
(1.8459 -0.119363 2.53133e-18)
(2.37403 -0.143864 -1.06202e-18)
(2.82296 -0.162494 -4.83734e-19)
(-0.000873948 -0.0516555 2.77309e-19)
(0.0501828 -0.144306 -3.85663e-19)
(0.106113 -0.222353 1.10813e-18)
(0.171653 -0.292212 -1.76361e-19)
(0.23982 -0.353817 -1.59676e-18)
(0.0137119 -0.0843133 -2.6201e-19)
(0.0893406 -0.22782 -4.22164e-19)
(0.174171 -0.350138 1.11016e-19)
(0.268476 -0.450034 5.98535e-20)
(0.364762 -0.530118 -3.6303e-20)
(0.043336 -0.114266 7.04866e-20)
(0.165465 -0.303163 5.24484e-19)
(0.296173 -0.467356 9.4856e-20)
(0.432878 -0.598782 1.46152e-18)
(0.567941 -0.697309 -2.49973e-20)
(0.0866187 -0.141 6.69115e-20)
(0.276372 -0.367823 -3.46149e-20)
(0.469493 -0.562992 2.17663e-19)
(0.661407 -0.718476 -2.03802e-18)
(0.844116 -0.83038 9.5768e-19)
(0.142126 -0.161725 -2.35923e-19)
(0.420083 -0.412853 -4.42762e-19)
(0.6914 -0.621469 -7.70809e-19)
(0.950142 -0.78239 9.53909e-19)
(1.1852 -0.8928 3.45572e-18)
(0.59288 -0.591541 -4.07077e-18)
(0.962263 -0.516297 1.03971e-18)
(1.29246 -0.211322 3.71466e-19)
(1.48173 -0.0392662 -6.07803e-19)
(1.55341 -0.00296649 -8.31104e-20)
(0.785663 -0.743008 4.84112e-18)
(1.04409 -0.622612 -3.15092e-19)
(1.3189 -0.282769 -1.41244e-19)
(1.51912 -0.0784596 3.92642e-19)
(1.60131 -0.0193062 1.57119e-19)
(1.03658 -0.877704 1.53832e-18)
(1.17881 -0.708629 4.05247e-18)
(1.34421 -0.35171 6.72883e-20)
(1.52802 -0.116526 4.23535e-19)
(1.60232 -0.0339001 -4.98962e-20)
(1.33057 -0.988447 1.2233e-18)
(1.35937 -0.770434 -4.19193e-19)
(1.38961 -0.410738 -7.75721e-19)
(1.51473 -0.148146 -2.95664e-19)
(1.59722 -0.0466943 2.25996e-20)
(1.62985 -1.04732 2.83965e-21)
(1.5553 -0.810734 -1.69965e-18)
(1.44938 -0.459316 0)
(1.48557 -0.192548 2.68379e-19)
(1.55163 -0.0607921 4.15982e-20)
(2.15623 -1.11517 -1.57868e-18)
(1.83395 -0.80078 -4.94554e-19)
(1.55969 -0.453013 -1.02767e-20)
(1.4232 -0.194659 5.7101e-20)
(1.38242 -0.0612748 -2.04424e-19)
(2.63271 -0.889706 -1.61226e-18)
(1.90037 -0.591012 2.97476e-18)
(1.434 -0.317336 5.98143e-21)
(1.16852 -0.143692 2.03002e-19)
(1.11335 -0.045372 0)
(2.47866 -0.522779 -6.92763e-18)
(1.60574 -0.338868 -1.49303e-19)
(1.14921 -0.17776 1.99455e-18)
(0.898352 -0.086463 -3.16007e-19)
(0.823991 -0.0290652 -4.78449e-20)
(1.76239 -0.219979 6.83586e-18)
(1.08885 -0.135725 1.24907e-18)
(0.751774 -0.0675105 2.24243e-19)
(0.574113 -0.0347294 2.88239e-33)
(0.508525 -0.0130464 -8.004e-20)
(0.683158 0.000160342 1.55241e-18)
(0.395301 0.0235369 7.13191e-19)
(0.267589 0.0240407 -5.17902e-19)
(0.206326 0.0142909 2.19131e-19)
(0.178194 0.00497078 -6.74369e-20)
(3.58189 -0.168158 1.25616e-17)
(3.41717 -0.502933 -1.04434e-17)
(3.13668 -0.786987 7.10864e-18)
(2.7806 -0.996077 2.32069e-18)
(2.33312 -1.10177 -4.14357e-19)
(3.78455 -0.103586 1.03948e-17)
(3.71749 -0.324458 -6.63907e-19)
(3.57775 -0.551819 -4.27e-18)
(3.37831 -0.785751 2.69e-18)
(3.10035 -1.01976 -6.62792e-19)
(3.11484 -0.0605669 3.65445e-18)
(3.09866 -0.181684 -2.51878e-18)
(3.05962 -0.309665 5.01274e-18)
(2.99893 -0.444852 -1.52922e-19)
(2.92438 -0.593609 -4.79055e-18)
(2.19087 -0.0276238 2.78877e-18)
(2.18384 -0.0833709 8.43034e-18)
(2.16463 -0.144007 -6.5326e-19)
(2.13408 -0.207282 -6.60853e-18)
(2.11307 -0.269438 1.94593e-18)
(0.879439 -0.00184246 5.21224e-18)
(0.87649 -0.00523918 -1.16438e-19)
(0.86737 -0.00956832 -4.25795e-20)
(0.850508 -0.0162549 -2.00938e-18)
(0.841157 -0.0229071 -3.6054e-18)
(1.65313 0.940062 2.27509e-18)
(1.3483 0.816703 -7.85662e-20)
(1.00338 0.658652 -3.50938e-20)
(0.627872 0.449483 -1.96286e-19)
(0.22523 0.182298 -1.3412e-19)
(2.0705 0.89251 -1.21841e-18)
(1.71067 0.777736 -1.20267e-18)
(1.29832 0.63259 7.32024e-19)
(0.834043 0.438726 -4.84123e-19)
(0.312143 0.182089 -4.08456e-21)
(2.4186 0.735853 -5.89329e-19)
(2.01967 0.645357 5.25249e-19)
(1.555 0.528764 2.43663e-18)
(1.01754 0.370199 8.08316e-19)
(0.391339 0.155286 5.26075e-19)
(2.68202 0.486721 1.53281e-20)
(2.25239 0.428295 -2.71647e-19)
(1.74744 0.352327 -6.46755e-19)
(1.15477 0.247647 2.05642e-18)
(0.450326 0.104145 -3.26834e-19)
(2.82548 0.173873 -1.17058e-18)
(2.37729 0.152648 -1.6065e-18)
(1.84941 0.125348 -7.28696e-19)
(1.22672 0.087835 7.96282e-19)
(0.480858 0.036687 -3.25831e-19)
(0.240924 0.416986 -2.14628e-18)
(0.170783 0.353466 -1.82033e-18)
(0.103329 0.277038 3.16238e-19)
(0.0457094 0.183638 -4.66142e-20)
(-0.00163759 0.0675594 3.41503e-20)
(0.371099 0.594548 -8.02038e-19)
(0.274166 0.510151 -6.70293e-19)
(0.178817 0.399478 1.17156e-20)
(0.0925953 0.25956 -2.54218e-20)
(0.016853 0.0965254 2.60191e-20)
(0.5817 0.753756 2.18354e-18)
(0.446228 0.649865 -1.52808e-19)
(0.307951 0.507307 -1.44707e-19)
(0.174401 0.328611 -2.1528e-19)
(0.0483999 0.123979 1.67518e-19)
(0.862059 0.875027 -1.29569e-18)
(0.679173 0.758443 1.97724e-18)
(0.485287 0.594185 3.0529e-19)
(0.28834 0.388429 1.02021e-19)
(0.0925379 0.149188 -1.18348e-19)
(1.20368 0.925207 -4.41408e-19)
(0.969111 0.811826 -4.58057e-19)
(0.708597 0.645096 3.60343e-19)
(0.433331 0.42918 3.59451e-19)
(0.148464 0.16854 1.89669e-21)
(0.935322 0.165014 -4.17335e-19)
(1.49111 0.134862 5.26023e-20)
(1.32405 0.196157 1.97048e-20)
(1.01218 0.500171 -5.00585e-19)
(0.598608 0.645394 4.96819e-20)
(0.939516 0.0874323 1.60827e-19)
(1.49868 0.11088 2.91462e-19)
(1.3508 0.244555 2.56471e-19)
(1.05997 0.615268 -6.24727e-20)
(0.784662 0.803112 7.59836e-19)
(0.942273 0.0108005 5.45523e-20)
(1.51322 0.087461 -2.05331e-20)
(1.35188 0.293185 -5.69649e-20)
(1.16564 0.712214 -4.35296e-19)
(1.0373 0.937356 1.16527e-19)
(0.94344 -0.0634821 -1.95932e-20)
(1.52056 0.0675537 -6.89345e-19)
(1.35854 0.342071 8.94757e-20)
(1.32723 0.77896 1.208e-18)
(1.33494 1.04182 9.44901e-19)
(0.941528 -0.136186 -2.70559e-20)
(1.5087 0.0575718 1.99362e-19)
(1.38185 0.390537 -6.47725e-20)
(1.51088 0.82056 -3.87192e-19)
(1.636 1.0919 -2.73612e-18)
(0.929405 -0.230919 2.31129e-19)
(1.47276 0.0241155 4.80846e-19)
(1.4628 0.389 -3.09721e-20)
(1.76773 0.799708 3.07839e-18)
(2.15302 1.14327 -5.52074e-18)
(0.88334 -0.344095 -2.51133e-20)
(1.33727 -0.0280427 -6.45835e-19)
(1.4072 0.280174 7.23532e-21)
(1.84363 0.594547 -3.06598e-18)
(2.59452 0.900614 1.66921e-18)
(0.78597 -0.411972 5.51183e-18)
(1.08297 -0.0892823 6.8242e-35)
(1.13652 0.149524 -2.13772e-18)
(1.57683 0.339658 2.64142e-18)
(2.45674 0.529602 5.03202e-18)
(0.63418 -0.291682 1.50404e-19)
(0.714495 -0.071639 5.27316e-19)
(0.733244 0.0519725 2.49025e-19)
(1.07556 0.134998 6.23154e-19)
(1.75836 0.220498 -8.64366e-18)
(0.322514 -0.0431707 -4.3067e-18)
(0.293951 0.00556317 2.83043e-19)
(0.265435 -0.0132509 1.11005e-18)
(0.393513 -0.0240261 -7.70748e-19)
(0.686169 -0.000449642 -1.46599e-18)
(2.3486 1.12117 4.69011e-18)
(2.78728 1.01255 3.47255e-18)
(3.14087 0.803379 -5.69147e-18)
(3.41899 0.5196 -1.46158e-17)
(3.5824 0.185879 1.57635e-17)
(3.0789 1.01884 5.00878e-18)
(3.35409 0.795222 2.56361e-17)
(3.55698 0.560667 7.24271e-18)
(3.70112 0.331823 -3.08295e-17)
(3.77795 0.111137 -5.17339e-18)
(2.90574 0.591996 -7.22877e-18)
(2.98599 0.4481 -3.3805e-18)
(3.05218 0.312115 -6.29773e-18)
(3.09524 0.181728 -6.88931e-18)
(3.11401 0.0584301 6.5228e-18)
(2.10626 0.26591 5.41527e-18)
(2.13012 0.205756 -4.04643e-19)
(2.16254 0.143046 4.87114e-18)
(2.18312 0.0821375 6.2892e-18)
(2.19077 0.0259988 -5.88785e-18)
(0.84253 0.0220595 -5.74613e-19)
(0.851928 0.015656 3.52092e-18)
(0.868631 0.00913264 2.44313e-18)
(0.877492 0.00479312 -5.16936e-18)
(0.879838 0.00136173 -3.84284e-20)
(0.281974 0.0207596 5.5212e-19)
(0.656759 0.0404721 -7.43583e-19)
(0.973253 0.0440728 -8.18496e-19)
(0.944423 0.0274354 -1.51802e-18)
(0.697936 0.0163881 -6.63732e-19)
(0.245613 0.0554678 7.45736e-19)
(0.591345 0.10709 1.44151e-18)
(0.864783 0.125159 -6.97361e-19)
(0.940051 0.0970119 1.96081e-18)
(0.72426 0.0532486 -2.70088e-18)
(0.185646 0.074275 4.96237e-19)
(0.476451 0.145915 -1.39891e-18)
(0.707854 0.184784 -9.13919e-19)
(0.857405 0.175436 -1.81023e-18)
(0.741641 0.101244 -2.8623e-18)
(0.12332 0.0774838 -7.72675e-19)
(0.344804 0.160374 -1.37664e-18)
(0.534594 0.214904 4.39911e-18)
(0.677796 0.233341 -3.66697e-19)
(0.713122 0.18005 2.25506e-18)
(0.0752799 0.0723737 -6.22986e-19)
(0.230734 0.160116 1.56426e-18)
(0.372311 0.224547 6.12354e-19)
(0.482861 0.257801 -1.29589e-18)
(0.561372 0.258495 -1.74884e-19)
(0.0451473 0.0637764 8.42934e-20)
(0.149954 0.14876 -1.22234e-18)
(0.247751 0.212152 -9.4581e-19)
(0.325465 0.234125 -8.67241e-20)
(0.371255 0.223878 -5.00136e-20)
(0.0264598 0.0556921 3.12117e-19)
(0.0950705 0.134289 5.94996e-19)
(0.160892 0.184857 -2.08223e-19)
(0.213776 0.195526 2.59499e-19)
(0.253624 0.185486 1.71376e-19)
(0.0133299 0.0488564 2.49944e-19)
(0.058603 0.111507 1.30894e-18)
(0.103698 0.121382 -1.23708e-18)
(0.142664 0.107615 -2.78673e-18)
(0.178837 0.0862024 4.08372e-19)
(0.00615673 0.0393887 -2.37464e-19)
(0.0425025 0.0491978 -1.80806e-18)
(0.0797816 0.0222202 3.2182e-18)
(0.119808 -0.00952941 1.3153e-18)
(0.161277 -0.0432868 -2.69666e-19)
(0.0100062 0.00231893 2.10048e-19)
(0.0421246 -0.0496051 -4.52361e-19)
(0.082199 -0.0957764 8.98801e-20)
(0.130873 -0.143731 1.05285e-19)
(0.181556 -0.189931 3.1902e-21)
(0.338656 0.0720607 -7.5059e-20)
(0.613142 -0.0420927 -1.22374e-18)
(0.702503 -0.013286 2.53962e-19)
(0.714938 0.00576309 3.98518e-19)
(0.701657 0.00316 1.28272e-20)
(0.302755 -0.0340724 -1.00171e-19)
(0.749544 -0.114613 1.4631e-18)
(0.886186 -0.0229256 9.18334e-19)
(0.913848 0.00869568 7.58312e-20)
(0.90564 0.00539884 -3.49418e-20)
(0.319418 -0.149349 -8.08647e-19)
(0.834042 -0.197772 3.14242e-18)
(1.04743 -0.0421754 -1.81441e-19)
(1.10034 0.0102453 -3.63728e-19)
(1.0974 0.0075299 7.25899e-20)
(0.375655 -0.287987 1.10568e-18)
(0.883256 -0.297151 -2.70818e-18)
(1.16956 -0.0828383 -5.32246e-19)
(1.26558 0.00628864 -3.22144e-20)
(1.27331 0.00813789 2.3748e-22)
(0.462781 -0.436328 5.02663e-19)
(0.918677 -0.404386 -5.51151e-19)
(1.24752 -0.142456 4.7791e-19)
(1.39799 -0.008233 1.1852e-19)
(1.42692 0.00614181 -9.88824e-21)
(0.182962 -0.0449839 9.54859e-19)
(0.144893 -0.00526171 0)
(0.162374 0.00100168 1.16449e-19)
(0.161947 -0.000329752 -4.45862e-21)
(0.15653 -0.000679488 -7.30591e-20)
(0.399674 0.0700228 0)
(0.40829 -0.000433506 0)
(0.465949 -0.00408988 5.09628e-20)
(0.467486 0.00312665 -2.54418e-20)
(0.453478 0.00131332 4.31344e-20)
(0.162688 -0.00082128 -3.68463e-19)
(0.186406 -0.0017921 3.10764e-18)
(0.213216 -0.00502092 -6.86296e-19)
(0.229814 -0.0149895 -3.11698e-18)
(0.245708 -0.0170124 -7.97009e-19)
(0.432036 0.00444133 6.09924e-19)
(0.484566 0.0196959 4.11555e-18)
(0.536461 0.0466978 -6.73001e-18)
(0.567631 0.0806176 2.20942e-18)
(0.598319 0.162221 3.79763e-18)
(0.370712 -0.220595 -3.32728e-19)
(0.324338 -0.231583 -9.28757e-20)
(0.248381 -0.21265 -3.30247e-19)
(0.150765 -0.150738 3.88063e-19)
(0.0458661 -0.0645783 1.14075e-19)
(0.257527 -0.169567 4.22151e-19)
(0.215075 -0.18166 1.41365e-18)
(0.162385 -0.177019 2.59636e-19)
(0.096719 -0.135063 2.36361e-19)
(0.0268984 -0.0571899 -1.85919e-20)
(0.193188 -0.0547414 -3.10937e-19)
(0.151614 -0.0773037 -1.05131e-19)
(0.108774 -0.0948594 1.63346e-18)
(0.0623215 -0.0971087 2.86378e-19)
(0.0132318 -0.0479838 -3.13396e-19)
(0.178626 0.0869075 -6.35846e-19)
(0.132609 0.0530649 -7.0593e-19)
(0.087727 0.0193736 1.3091e-18)
(0.0494565 -0.0106959 1.60074e-18)
(0.0112321 -0.0298277 1.98978e-19)
(0.188604 0.244112 1.23653e-19)
(0.134224 0.197824 -1.20255e-19)
(0.081848 0.148036 2.48311e-19)
(0.038173 0.0969543 6.21907e-19)
(-0.00228426 0.0356043 9.231e-20)
(0.697932 -0.0163434 1.53154e-18)
(0.944429 -0.0274124 -1.80083e-18)
(0.973061 -0.0441987 2.27001e-18)
(0.656771 -0.0405345 3.64607e-19)
(0.282008 -0.0207683 5.36675e-19)
(0.72425 -0.0531411 1.77256e-18)
(0.939909 -0.0970264 7.94681e-18)
(0.86458 -0.125263 1.03367e-18)
(0.591397 -0.107129 1.34949e-18)
(0.245708 -0.0554889 -4.78504e-19)
(0.741559 -0.100998 -1.22152e-18)
(0.8568 -0.17527 -2.29641e-18)
(0.707775 -0.184845 2.92445e-18)
(0.476518 -0.145983 -1.08285e-19)
(0.185769 -0.0743106 3.39524e-19)
(0.712599 -0.179868 1.77896e-20)
(0.67709 -0.233286 -7.68574e-18)
(0.534629 -0.215234 -5.99936e-18)
(0.344939 -0.160709 1.09163e-18)
(0.123502 -0.077588 5.08042e-19)
(0.55895 -0.256959 4.68396e-19)
(0.481833 -0.257209 5.33418e-19)
(0.372381 -0.225266 -8.99357e-19)
(0.23099 -0.16099 -8.88236e-19)
(0.0756283 -0.0726323 -5.14418e-21)
(0.727468 0.373103 1.17545e-18)
(0.881224 0.127564 -1.91381e-19)
(0.677724 0.0193198 2.52257e-19)
(0.645614 0.0364558 -7.56983e-19)
(0.362664 -0.0618002 -1.00813e-19)
(0.827171 0.398012 -1.70324e-19)
(1.09006 0.157458 -5.65501e-19)
(0.869249 0.0377913 8.34908e-19)
(0.80536 0.0997493 1.67985e-18)
(0.340589 0.0541903 1.03608e-19)
(0.89167 0.372588 -2.24252e-18)
(1.27079 0.171513 -3.73723e-20)
(1.03984 0.0620445 2.49465e-19)
(0.908939 0.179222 1.69232e-18)
(0.364825 0.176763 -1.43478e-18)
(0.922141 0.316958 1.48089e-18)
(1.41728 0.173643 1.63587e-20)
(1.17607 0.100034 -2.11893e-19)
(0.963979 0.277816 -7.31088e-19)
(0.415425 0.323356 -5.85245e-19)
(0.930835 0.243099 1.72998e-19)
(1.48842 0.156955 3.67218e-20)
(1.26823 0.146389 -7.39698e-20)
(0.991669 0.385558 -8.23507e-20)
(0.485409 0.480583 1.35946e-18)
(0.275634 0.04837 0)
(0.24434 -0.0112203 6.49035e-19)
(0.157741 -0.0159143 1.2728e-19)
(0.150599 0.00552582 -1.10473e-19)
(0.184393 0.0440882 -1.80758e-18)
(0.573286 0.266329 -1.01977e-17)
(0.609671 0.07515 -2.56083e-18)
(0.445606 0.0130182 4.99534e-19)
(0.424473 0.000576715 -6.58812e-19)
(0.407662 -0.0683163 -6.62011e-19)
(0.245845 0.0169753 -9.61503e-22)
(0.22991 0.0150778 1.92874e-18)
(0.213293 0.0050643 5.24471e-19)
(0.186456 0.00180199 3.23029e-19)
(0.162704 0.00082514 0)
(0.599217 -0.162113 -1.14098e-19)
(0.568194 -0.0803215 2.54738e-18)
(0.536569 -0.0464742 -1.37523e-19)
(0.484625 -0.0196429 -2.70465e-19)
(0.43206 -0.00441907 7.60489e-19)
)
;

boundaryField
{
    left
    {
        type            fixedValue;
        value           uniform (1 0 0);
    }
    right
    {
        type            zeroGradient;
    }
    down
    {
        type            noSlip;
    }
    up
    {
        type            noSlip;
    }
    cylinder
    {
        type            noSlip;
    }
    defaultFaces
    {
        type            empty;
    }
}


// ************************************************************************* //
