/*--------------------------------*- C++ -*----------------------------------*\
  =========                 |
  \\      /  F ield         | OpenFOAM: The Open Source CFD Toolbox
   \\    /   O peration     | Website:  https://openfoam.org
    \\  /    A nd           | Version:  13
     \\/     M anipulation  |
\*---------------------------------------------------------------------------*/
FoamFile
{
    format      ascii;
    class       volVectorField;
    location    "4.4";
    object      U;
}
// * * * * * * * * * * * * * * * * * * * * * * * * * * * * * * * * * * * * * //

dimensions      [0 1 -1 0 0 0 0];

internalField   nonuniform List<vector> 
1800
(
(-0.0299575 0.0252981 9.72568e-21)
(-0.072378 0.0491677 4.12622e-21)
(-0.0960371 0.0600408 -3.964e-21)
(-0.099437 0.0653882 1.44098e-20)
(-0.0790336 0.0706327 4.846e-20)
(-0.0313722 0.078712 1.97147e-20)
(0.0465739 0.0920035 -2.40714e-21)
(0.153471 0.111511 8.82827e-20)
(0.299011 0.160201 1.63606e-19)
(0.374079 0.193213 1.55243e-19)
(-0.0393362 0.029783 6.34347e-21)
(-0.0794034 0.0564884 -2.09508e-20)
(-0.0823027 0.0643563 1.9874e-22)
(-0.0477759 0.0607755 -3.01504e-20)
(0.0268271 0.0516608 1.05154e-20)
(0.143936 0.040795 6.86695e-20)
(0.304112 0.0306555 -2.61967e-20)
(0.501335 0.019221 2.99532e-21)
(0.746493 0.0357263 -2.3403e-19)
(0.877983 0.047027 1.89527e-19)
(-0.0424663 0.0281336 3.33717e-21)
(-0.0683672 0.0501947 1.22803e-20)
(-0.0371621 0.0536985 6.26585e-21)
(0.0503543 0.0451387 -1.01473e-20)
(0.194693 0.0307386 -8.73536e-20)
(0.392964 0.0149794 1.69468e-20)
(0.636607 0.00125992 2.83682e-20)
(0.910411 -0.00998847 -1.08789e-20)
(1.20662 -0.00955722 4.5147e-22)
(1.44237 -0.0197298 3.95273e-21)
(-0.038895 0.0219346 -6.2901e-21)
(-0.0345129 0.0319857 -2.02839e-20)
(0.0505987 0.0270319 -2.12552e-20)
(0.213273 0.013415 1.66135e-20)
(0.447006 -0.0022577 1.78542e-20)
(0.736086 -0.0151136 6.28506e-21)
(1.05602 -0.0225175 -1.79915e-21)
(1.37936 -0.0235428 4.34081e-20)
(1.68323 -0.0200675 2.64384e-20)
(1.93395 -0.0177841 -1.06927e-20)
(-0.0271753 0.0135561 4.64709e-20)
(0.0288704 0.00997597 4.52468e-20)
(0.191899 -0.00181252 -2.91048e-20)
(0.449894 -0.0149162 -3.56741e-20)
(0.77884 -0.0230206 -9.57318e-20)
(1.1414 -0.0233399 1.47068e-21)
(1.49684 -0.0165828 1.09626e-19)
(1.81231 -0.00541552 5.43329e-20)
(2.06675 0.00642421 1.03454e-21)
(2.26082 0.0114287 -5.17574e-20)
(-0.00289737 0.00339783 -4.76513e-20)
(0.130959 -0.0114162 -1.96129e-22)
(0.394278 -0.02347 1.66427e-19)
(0.754523 -0.0265014 -4.43963e-20)
(1.15911 -0.0182402 -1.05008e-19)
(1.54988 -0.00146538 2.05528e-19)
(1.88272 0.0185611 -2.23291e-19)
(2.13593 0.0369071 -3.16093e-19)
(2.3098 0.050002 2.71435e-19)
(2.41568 0.0568581 3.3358e-21)
(0.0377899 -0.0068369 5.99018e-20)
(0.275586 -0.0258106 -1.28231e-19)
(0.650221 -0.0275317 -3.98863e-19)
(1.09565 -0.0106713 1.81247e-19)
(1.53087 0.0179553 3.98601e-19)
(1.89441 0.0489835 -1.5792e-21)
(2.16017 0.0752673 -8.89879e-19)
(2.3322 0.0933678 3.76074e-21)
(2.43057 0.103947 1.12938e-18)
(2.4803 0.10514 3.15257e-19)
(0.0965355 -0.0138509 5.51437e-20)
(0.457729 -0.0249161 3.02516e-19)
(0.935825 -0.00474739 3.15442e-19)
(1.4278 0.0369095 -1.04836e-19)
(1.84383 0.082339 -3.81179e-19)
(2.14419 0.119632 -1.46663e-19)
(2.33333 0.144593 0)
(2.43774 0.158201 4.93166e-19)
(2.48736 0.163225 -9.25721e-21)
(2.50482 0.161671 -4.82267e-19)
(0.171519 -0.0136632 5.29704e-20)
(0.662513 -0.00136362 3.07507e-19)
(1.21771 0.0494762 5.53464e-19)
(1.71269 0.113994 -5.64056e-19)
(2.07728 0.168488 -4.96035e-19)
(2.30662 0.204832 2.10478e-19)
(2.43093 0.224452 -1.02492e-18)
(2.4873 0.231982 -7.8093e-19)
(2.50496 0.232148 9.73057e-19)
(2.50144 0.226043 8.50309e-19)
(0.257611 -0.0026344 -4.70918e-20)
(0.869214 0.048721 2.39066e-19)
(1.46662 0.133603 1.51535e-19)
(1.93274 0.214622 -1.20345e-18)
(2.23495 0.270667 4.65345e-20)
(2.40058 0.30118 2.50868e-18)
(2.47536 0.312936 -1.47233e-18)
(2.49907 0.313275 -8.74953e-19)
(2.4974 0.307265 3.10532e-19)
(2.48271 0.296757 -7.11743e-19)
(-0.0030425 -0.0950032 -2.25677e-19)
(-0.0482803 -0.149599 -2.31141e-20)
(-0.112767 -0.155064 1.72312e-21)
(-0.183738 -0.151299 2.64278e-20)
(-0.252839 -0.150098 5.06378e-21)
(-0.317895 -0.15094 2.24209e-19)
(-0.378198 -0.150785 -3.57651e-21)
(-0.433658 -0.147417 -2.40638e-19)
(-0.486511 -0.139747 -2.01207e-20)
(-0.541326 -0.127289 5.72653e-20)
(-0.00309942 -0.0325622 -2.71073e-20)
(-0.0506332 -0.0242389 -6.49122e-20)
(-0.116415 -0.00225314 7.79868e-20)
(-0.188715 0.0106075 3.78643e-20)
(-0.259788 0.0124487 1.10703e-19)
(-0.32763 0.00846633 1.83691e-19)
(-0.391585 0.0035396 -1.80064e-19)
(-0.451438 0.000492336 -1.52878e-19)
(-0.508671 0.000730558 2.87444e-19)
(-0.566177 0.00539553 -6.94185e-20)
(-0.00823232 0.0179848 1.46875e-20)
(-0.0519856 0.0804285 -7.55358e-20)
(-0.107273 0.132284 -2.76299e-20)
(-0.167423 0.161246 -1.07139e-19)
(-0.22726 0.170692 -2.98563e-20)
(-0.285065 0.168966 2.85522e-19)
(-0.340064 0.162888 -1.505e-21)
(-0.391683 0.156256 -2.21329e-19)
(-0.440042 0.150967 2.17941e-19)
(-0.486295 0.148771 1.19445e-19)
(-0.0131143 0.0422276 2.26058e-20)
(-0.049384 0.137764 2.10965e-21)
(-0.0888705 0.2181 -8.3734e-21)
(-0.129537 0.27098 4.13168e-20)
(-0.169795 0.297355 -4.22442e-20)
(-0.208851 0.305135 -7.91036e-20)
(-0.245983 0.302726 -3.74085e-20)
(-0.280394 0.295835 2.56929e-20)
(-0.310797 0.287673 -1.70007e-20)
(-0.334687 0.280278 3.29392e-21)
(-0.0138123 0.0406882 0)
(-0.0415576 0.140681 -1.39076e-20)
(-0.0660853 0.237726 4.98403e-20)
(-0.0876518 0.315285 1.57946e-21)
(-0.106882 0.366919 5.70914e-20)
(-0.124184 0.394542 -1.67301e-20)
(-0.13946 0.404102 -1.5645e-21)
(-0.151925 0.401936 4.89258e-20)
(-0.162264 0.392154 0)
(-0.162691 0.380365 3.44665e-21)
(-0.00944279 0.0245249 -1.51583e-20)
(-0.029099 0.104192 3.48479e-20)
(-0.044216 0.19685 4.1019e-20)
(-0.053967 0.284828 -4.586e-20)
(-0.0587597 0.356579 3.90573e-20)
(-0.0592513 0.407463 -2.21534e-20)
(-0.0560339 0.437884 2.04756e-20)
(-0.049456 0.450712 -2.43191e-20)
(-0.0397865 0.448817 -9.05101e-20)
(-0.0187821 0.438386 8.61624e-22)
(-0.00293597 0.00757525 3.80514e-21)
(-0.0162207 0.0569971 6.09891e-20)
(-0.0282687 0.127934 -4.07925e-20)
(-0.0357826 0.205661 -7.06599e-21)
(-0.0373107 0.278399 -6.3135e-21)
(-0.0324959 0.338598 -6.69798e-20)
(-0.0216253 0.382717 -5.38993e-20)
(-0.00514255 0.410099 -1.11593e-19)
(0.0163692 0.420882 9.18008e-20)
(0.0477773 0.414669 1.56572e-19)
(0.00102129 -0.00144241 1.17135e-20)
(-0.010738 0.0232218 -2.49328e-20)
(-0.0259476 0.0679311 -4.29282e-20)
(-0.0392895 0.123034 1.35523e-20)
(-0.0474166 0.179978 1.47179e-20)
(-0.048704 0.231896 1.65296e-19)
(-0.0425602 0.274176 2.03429e-19)
(-0.0285038 0.304177 -1.27862e-19)
(-0.00564404 0.318998 -8.93784e-20)
(0.0280193 0.309279 1.26298e-19)
(-0.00125432 -0.000488536 1.1383e-20)
(-0.0196442 0.0111854 -1.22363e-20)
(-0.0430092 0.0342446 4.40163e-20)
(-0.0655305 0.064761 6.66584e-20)
(-0.0829158 0.0988334 -6.95933e-20)
(-0.0926981 0.132182 1.60467e-19)
(-0.0933036 0.160949 -3.76217e-21)
(-0.0830529 0.181551 -3.39013e-19)
(-0.0595876 0.188569 -8.6529e-20)
(-0.0178852 0.172676 1.07571e-19)
(-0.0147219 0.0116835 2.13369e-21)
(-0.0491866 0.0251667 2.31303e-21)
(-0.0819009 0.0367359 -7.5923e-21)
(-0.108747 0.0497296 2.96736e-20)
(-0.125663 0.0658613 5.179e-20)
(-0.129724 0.0848562 -7.4668e-20)
(-0.118646 0.105598 -7.76352e-20)
(-0.0905129 0.12628 5.00129e-20)
(-0.0419161 0.141272 -6.62991e-20)
(0.0337476 0.141078 -2.77282e-20)
(-0.813674 -0.0401383 -1.23944e-18)
(-0.892836 0.592466 1.95892e-18)
(-0.605192 1.05152 -1.84152e-19)
(-0.485731 0.499685 6.00504e-19)
(0.175082 -0.208558 -3.53048e-19)
(0.462345 -0.513888 -2.40387e-19)
(0.767758 -0.64877 -1.10735e-19)
(0.91385 -0.562795 1.70237e-20)
(1.0125 -0.510077 3.30942e-20)
(1.09726 -0.335578 2.6132e-21)
(-0.848139 0.0483855 -1.08803e-18)
(-1.05744 0.56186 -5.44497e-19)
(-0.688591 0.951032 -1.59756e-20)
(-0.279201 0.372244 -5.98443e-19)
(0.333041 -0.331063 -1.38896e-18)
(0.631422 -0.604438 0)
(0.91601 -0.707661 -1.07394e-19)
(1.02966 -0.597667 -5.31784e-21)
(1.1115 -0.52891 -1.29525e-21)
(1.15438 -0.346218 -1.85876e-20)
(-0.724212 0.144126 5.78377e-19)
(-1.0437 0.528979 3.15871e-19)
(-0.623921 0.799788 8.20928e-20)
(-0.032281 0.23018 3.19956e-20)
(0.53532 -0.441714 5.35071e-20)
(0.821132 -0.689589 -8.66074e-20)
(1.07063 -0.758625 0)
(1.14789 -0.625208 0)
(1.20855 -0.539857 -3.36712e-20)
(1.20935 -0.351166 0)
(-0.474366 0.231033 1.11899e-19)
(-0.838974 0.508205 -4.62811e-19)
(-0.427859 0.639603 1.09032e-20)
(0.235099 0.0874107 0)
(0.767644 -0.538785 7.44495e-19)
(1.02422 -0.764202 -1.57724e-19)
(1.227 -0.799592 0)
(1.26423 -0.644669 1.19477e-19)
(1.30138 -0.542718 0)
(1.26058 -0.350355 2.51151e-20)
(-0.175272 0.290665 6.93744e-20)
(-0.489587 0.495999 -2.67384e-19)
(-0.135365 0.500558 -1.84057e-20)
(0.518837 -0.0428124 0)
(1.01666 -0.622267 2.2347e-19)
(1.23253 -0.8255 2.95118e-19)
(1.38138 -0.829092 -7.33897e-20)
(1.37509 -0.655545 -1.07103e-20)
(1.38775 -0.537684 -2.23078e-20)
(1.30685 -0.343899 -4.80204e-22)
(0.098016 0.315282 1.1992e-18)
(-0.0816985 0.482541 4.62226e-19)
(0.205692 0.391392 1.39905e-20)
(0.812181 -0.149299 3.06444e-19)
(1.26898 -0.690508 -2.82527e-19)
(1.43691 -0.872596 1.05e-19)
(1.5295 -0.846896 2.6322e-19)
(1.47779 -0.657737 -2.18171e-19)
(1.46572 -0.52519 1.2844e-21)
(1.34721 -0.332107 -5.4935e-20)
(0.289419 0.290769 1.46952e-19)
(0.298705 0.463933 -1.74752e-19)
(0.539521 0.313231 4.96158e-20)
(1.09988 -0.229568 -2.93704e-21)
(1.51403 -0.741757 -6.93277e-20)
(1.6302 -0.90481 -8.61572e-20)
(1.66756 -0.85344 -8.50641e-20)
(1.57061 -0.651611 3.65048e-20)
(1.53392 -0.505796 3.48688e-20)
(1.38091 -0.315467 1.93418e-21)
(0.357599 0.201774 -3.54927e-19)
(0.599035 0.419675 -2.86752e-19)
(0.826803 0.258159 0)
(1.36941 -0.287896 1.7414e-21)
(1.74343 -0.774917 -2.59125e-20)
(1.80656 -0.921456 -3.57309e-20)
(1.79228 -0.849283 -2.11758e-19)
(1.65272 -0.637911 8.84874e-20)
(1.59161 -0.480208 -1.90817e-21)
(1.40747 -0.294581 -2.6494e-20)
(0.316862 0.0802587 7.78568e-20)
(0.777389 0.351631 7.57808e-19)
(1.05715 0.204268 -2.17373e-19)
(1.61778 -0.331978 6.93477e-21)
(1.9516 -0.790768 2.95891e-20)
(1.9615 -0.922758 -6.23801e-20)
(1.90089 -0.835017 7.94657e-20)
(1.7237 -0.617635 -4.58429e-21)
(1.63849 -0.44946 1.43084e-20)
(1.42664 -0.270137 4.43241e-20)
(0.395057 -0.0788446 -2.74549e-20)
(0.817855 0.223651 6.44873e-19)
(1.24702 0.163157 8.70375e-20)
(1.84805 -0.360927 2.69572e-19)
(2.13461 -0.793321 1.61095e-19)
(2.09263 -0.911917 2.88031e-20)
(1.99194 -0.812185 -2.15163e-21)
(1.78334 -0.591894 0)
(1.6744 -0.414928 -6.43995e-20)
(1.43842 -0.243039 4.94745e-20)
(1.1212 -0.118052 -2.08471e-19)
(1.17079 0.0787473 -2.76775e-19)
(1.62567 0.010598 5.94443e-19)
(2.16909 -0.445337 -5.88874e-20)
(2.35245 -0.798463 -9.59484e-20)
(2.23804 -0.887915 -1.26904e-20)
(2.08787 -0.773299 -9.70347e-20)
(1.84389 -0.551069 5.10953e-20)
(1.70424 -0.365492 -2.38948e-20)
(1.44467 -0.206694 -2.91304e-20)
(2.02532 -0.0899258 7.23333e-22)
(1.9063 0.0519345 -1.30031e-19)
(2.29128 -0.13745 -6.99882e-19)
(2.61389 -0.537288 1.66693e-19)
(2.55853 -0.801704 -7.54756e-19)
(2.31525 -0.834745 -2.68325e-19)
(2.11429 -0.682693 4.77636e-20)
(1.84639 -0.455561 -3.21654e-20)
(1.69026 -0.274196 1.38251e-19)
(1.42372 -0.149154 1.34563e-20)
(2.33183 -0.0907914 -9.72299e-21)
(2.32094 -0.0136783 1.9949e-20)
(2.6304 -0.220084 -3.1722e-20)
(2.66752 -0.532735 8.60091e-37)
(2.50085 -0.722363 -2.89692e-20)
(2.29122 -0.747005 6.17336e-34)
(2.11789 -0.600142 3.81669e-20)
(1.8507 -0.382723 1.50934e-33)
(1.68019 -0.203835 -6.56863e-21)
(1.40086 -0.101088 1.41345e-20)
(2.39555 -0.0873489 -3.27823e-35)
(2.46756 -0.0696523 1.38481e-19)
(2.62316 -0.243149 3.50475e-19)
(2.58973 -0.493148 0)
(2.50639 -0.676717 2.87958e-19)
(2.31476 -0.694981 8.47901e-20)
(2.09361 -0.522837 -8.96872e-20)
(1.79144 -0.293736 3.3069e-33)
(1.59675 -0.114005 -9.54278e-20)
(1.32836 -0.0437242 -1.71859e-20)
(2.40219 -0.100451 1.971e-20)
(2.46172 -0.112716 -4.60584e-21)
(2.53601 -0.249464 0)
(2.54559 -0.476131 0)
(2.45605 -0.632481 0)
(2.19304 -0.602602 0)
(1.91945 -0.407649 5.87472e-21)
(1.61823 -0.193101 3.32136e-33)
(1.44207 -0.0331107 -8.42053e-21)
(1.22307 0.00273459 -2.41012e-33)
(2.39388 -0.112841 5.18227e-20)
(2.4195 -0.135086 0)
(2.46617 -0.25325 0)
(2.48044 -0.45015 0)
(2.317 -0.559829 0)
(1.97309 -0.493846 0)
(1.65574 -0.299026 -8.59842e-21)
(1.36536 -0.10692 8.41944e-20)
(1.21709 0.0306285 -9.21734e-21)
(1.0723 0.0382517 -1.1386e-20)
(2.37045 -0.123052 0)
(2.3552 -0.147446 7.8106e-20)
(2.38426 -0.251002 1.37807e-19)
(2.32511 -0.405991 0)
(2.00013 -0.451712 1.06408e-19)
(1.54482 -0.347878 3.05044e-20)
(1.21334 -0.173535 -1.91141e-20)
(0.988489 -0.0273509 -2.35033e-20)
(0.910319 0.0720322 2.26582e-20)
(0.87295 0.0552745 -2.52305e-20)
(2.25823 -0.120602 -4.82654e-21)
(2.19625 -0.142635 -2.98793e-21)
(2.15971 -0.223761 2.92146e-21)
(1.90334 -0.306417 -4.26436e-35)
(1.40528 -0.281132 -4.78328e-21)
(0.932341 -0.181821 2.36734e-34)
(0.670044 -0.0727884 -5.71451e-21)
(0.556568 0.0130755 -4.54813e-20)
(0.567372 0.0733584 -9.07487e-21)
(0.6303 0.0489496 2.30993e-20)
(1.83048 -0.0974308 3.15441e-20)
(1.70863 -0.121067 -2.76346e-20)
(1.51346 -0.142648 -1.99682e-20)
(1.08264 -0.124254 0)
(0.623168 -0.0910607 -1.47288e-20)
(0.322759 -0.0638733 -1.76651e-20)
(0.184893 -0.028772 -2.86972e-20)
(0.160432 0.0127714 -2.05626e-20)
(0.225465 0.0432011 6.03607e-21)
(0.335305 0.027116 -2.35936e-20)
(0.758926 -0.0253069 0)
(0.59491 -0.0177558 0)
(0.407243 0.00186311 0)
(0.241633 0.00641045 0)
(0.112084 -0.00578728 0)
(-0.00609299 -0.0116374 0)
(-0.0902904 -0.00877829 -5.86282e-21)
(-0.105601 -0.00064196 5.74365e-35)
(-0.060682 0.00575963 -9.2483e-21)
(0.0179966 0.0034759 -2.25721e-20)
(2.42935 0.272013 6.90593e-19)
(2.46967 0.213159 4.09986e-20)
(2.48327 0.156009 -6.22532e-20)
(2.50547 0.113019 -2.03561e-19)
(2.49492 0.0646691 -2.95376e-20)
(2.4673 0.0427002 -4.41533e-20)
(2.39732 -0.00436305 -1.54692e-19)
(2.14926 0.00598424 1.57118e-20)
(1.95242 -0.0404917 0)
(1.2328 0.0369294 6.67476e-20)
(2.35647 0.231551 2.30294e-19)
(2.37336 0.192156 -2.45789e-19)
(2.43626 0.137905 -6.21343e-20)
(2.41963 0.10958 -1.04645e-19)
(2.50468 0.0591705 9.42577e-20)
(2.42639 0.0394017 1.55379e-19)
(2.54618 -0.00847607 -1.98313e-19)
(2.34495 -0.0289124 4.7991e-21)
(2.45522 -0.0630824 -2.60617e-20)
(2.04782 -0.0805791 6.64496e-20)
(2.31204 0.199155 -1.00431e-19)
(2.29469 0.160669 2.35146e-19)
(2.39363 0.123026 1.31944e-19)
(2.33992 0.0878234 -2.32558e-19)
(2.46087 0.057545 -5.00673e-20)
(2.36848 0.0213159 3.25902e-19)
(2.50503 0.00120195 5.7735e-20)
(2.3865 -0.0399849 -5.86664e-20)
(2.49584 -0.0469381 -3.09599e-20)
(2.36572 -0.0903529 -3.01077e-20)
(2.26661 0.166815 -2.82672e-19)
(2.25595 0.123793 -6.49615e-20)
(2.33887 0.105075 5.17521e-20)
(2.30853 0.0617216 -1.58548e-21)
(2.39067 0.0501544 -2.21517e-19)
(2.35247 0.0066116 -6.47028e-20)
(2.42118 0.0021471 1.75725e-19)
(2.39619 -0.0390377 -1.31652e-20)
(2.43301 -0.0395977 3.3361e-20)
(2.43218 -0.0743305 1.2195e-20)
(2.22002 0.131153 2.96481e-20)
(2.2347 0.0915446 1.32864e-19)
(2.28511 0.0800464 -6.56706e-21)
(2.29262 0.0412619 1.36338e-19)
(2.33167 0.0332146 -5.84947e-20)
(2.34014 -0.00206335 -1.93278e-19)
(2.36323 -0.00855859 2.89023e-20)
(2.38029 -0.0372637 -5.64993e-20)
(2.38718 -0.0453587 -1.52348e-20)
(2.41254 -0.0656107 -1.98477e-20)
(2.18005 0.092778 -1.56149e-19)
(2.21025 0.0624705 -6.19873e-20)
(2.24322 0.0507142 -1.91488e-20)
(2.26915 0.0225876 9.38954e-20)
(2.2922 0.011634 2.61663e-19)
(2.31618 -0.0123547 -5.5533e-20)
(2.32975 -0.0240874 5.01056e-21)
(2.35274 -0.0427067 -7.78964e-20)
(2.35956 -0.0564542 -1.1186e-19)
(2.38079 -0.0693672 -2.03137e-20)
(2.13361 0.0550862 -4.74292e-20)
(2.16793 0.0337154 -1.13023e-19)
(2.19623 0.0218364 -1.47587e-19)
(2.22692 0.00252223 -2.53001e-19)
(2.24883 -0.00945189 8.3246e-20)
(2.27628 -0.026157 6.7016e-20)
(2.29235 -0.0392946 -1.36675e-20)
(2.3169 -0.0533262 7.74121e-20)
(2.32783 -0.0680429 -6.95704e-20)
(2.35061 -0.0793462 -4.48744e-20)
(2.02481 0.020287 6.00796e-20)
(2.05924 0.00578971 1.8836e-20)
(2.08086 -0.00325398 1.53e-20)
(2.11597 -0.0167749 -3.2709e-20)
(2.13216 -0.0256668 -3.11858e-20)
(2.16919 -0.0385177 -5.98134e-20)
(2.17926 -0.0481768 -4.5874e-20)
(2.21957 -0.0607997 1.03768e-19)
(2.22226 -0.0718602 -4.18024e-20)
(2.26799 -0.084524 3.39511e-21)
(1.71033 -0.00882567 -7.21345e-20)
(1.73281 -0.016154 -1.71323e-20)
(1.74115 -0.020975 1.25879e-19)
(1.7692 -0.0279049 -2.15327e-20)
(1.77256 -0.0323453 -3.58084e-20)
(1.80926 -0.0397156 7.35098e-20)
(1.80501 -0.0445456 -5.67904e-20)
(1.85327 -0.0532085 4.52672e-20)
(1.83745 -0.0593897 -2.22998e-20)
(1.90089 -0.0701864 -8.89744e-20)
(0.86881 -0.00972727 5.11017e-20)
(0.863619 -0.00902568 4.46535e-20)
(0.857035 -0.00841979 4.48295e-20)
(0.856087 -0.00795116 7.49917e-20)
(0.850391 -0.0079463 -3.81076e-20)
(0.855105 -0.00800993 -5.32874e-20)
(0.847109 -0.00878663 2.39879e-20)
(0.859937 -0.00995987 -2.10339e-21)
(0.841195 -0.0110367 3.12534e-21)
(0.871219 -0.0162543 -4.73285e-21)
(1.52857 0.934225 -7.83237e-20)
(1.51328 0.979941 2.55508e-20)
(1.51662 1.03304 -5.93254e-19)
(1.52478 1.09319 2.24085e-19)
(1.53071 1.15636 1.11877e-18)
(1.52568 1.21439 -1.4018e-19)
(1.48792 1.24487 -9.99363e-19)
(1.36836 1.19661 -6.39086e-21)
(1.08112 0.977096 -4.89013e-19)
(0.50465 0.466898 1.17192e-19)
(1.68822 0.907062 0)
(1.67769 0.951344 6.88377e-19)
(1.67762 1.00075 1.52924e-18)
(1.6854 1.05835 -9.4364e-19)
(1.6944 1.11986 -2.20976e-18)
(1.6923 1.17551 -1.45874e-19)
(1.65208 1.20158 -1.8666e-19)
(1.51716 1.14764 6.79107e-19)
(1.19244 0.927382 1.00464e-18)
(0.5507 0.435397 3.99687e-19)
(1.83464 0.871935 6.44931e-20)
(1.8329 0.915437 0)
(1.83447 0.961566 -6.39215e-20)
(1.84308 1.01437 9.61287e-19)
(1.854 1.07065 5.27225e-20)
(1.85273 1.12029 -2.15703e-18)
(1.80716 1.13913 1.36037e-18)
(1.65376 1.07861 8.00866e-19)
(1.28978 0.860168 -8.56177e-19)
(0.587117 0.39478 -2.55802e-19)
(1.9644 0.826971 -1.71609e-19)
(1.97177 0.868447 -1.27548e-19)
(1.97839 0.910917 2.6297e-19)
(1.98975 0.958224 -3.26631e-19)
(2.00231 1.00784 -1.51281e-18)
(1.99988 1.04968 -1.17438e-18)
(1.94606 1.05934 1.2297e-18)
(1.77032 0.990697 8.03459e-19)
(1.36491 0.776315 0)
(0.609478 0.345554 0)
(2.07775 0.768451 -8.59489e-19)
(2.09324 0.80701 -1.57368e-18)
(2.10611 0.845633 -6.06691e-19)
(2.12114 0.887481 -3.15484e-20)
(2.13475 0.930003 0)
(2.12918 0.962128 1.25918e-19)
(2.06255 0.961302 1.44494e-19)
(1.85876 0.886389 1.78967e-19)
(1.41115 0.678399 -2.55647e-19)
(0.614359 0.288891 -6.38258e-20)
(2.1779 0.700247 1.02094e-18)
(2.19927 0.734544 -3.8808e-20)
(2.21729 0.768471 -1.2006e-18)
(2.2352 0.804123 0)
(2.2481 0.838433 0)
(2.23508 0.860693 0)
(2.14936 0.849077 1.35577e-18)
(1.9125 0.767093 -1.48224e-18)
(1.42326 0.56812 -9.29996e-19)
(0.599089 0.227637 1.57195e-20)
(2.26476 0.62225 -1.31991e-18)
(2.2903 0.651725 -2.77115e-18)
(2.31157 0.680866 -4.80151e-21)
(2.33023 0.710258 5.60553e-19)
(2.33897 0.736153 -3.37319e-20)
(2.313 0.747903 1.17196e-18)
(2.20162 0.725062 -6.44432e-19)
(1.92598 0.636739 -1.67457e-18)
(1.39622 0.450612 8.64169e-20)
(0.56271 0.165927 6.80525e-20)
(2.34016 0.540572 -1.01956e-18)
(2.36652 0.565084 1.44665e-20)
(2.38818 0.58863 3.83079e-19)
(2.40436 0.610888 -3.69995e-19)
(2.4042 0.627497 5.7509e-19)
(2.35846 0.627914 1.51201e-18)
(2.21316 0.593821 -1.23504e-19)
(1.89275 0.501106 -8.61082e-19)
(1.32632 0.332597 1.92167e-19)
(0.506145 0.108308 3.53483e-20)
(2.40107 0.456253 3.67313e-19)
(2.42672 0.476321 7.31166e-20)
(2.44603 0.494206 -3.76242e-19)
(2.4556 0.509053 -8.81266e-19)
(2.44014 0.51604 5.8144e-20)
(2.36575 0.505085 4.02406e-20)
(2.17706 0.460852 -1.03676e-18)
(1.80715 0.36698 4.47514e-19)
(1.21252 0.221424 1.27595e-19)
(0.432562 0.0590671 -4.02582e-20)
(2.44879 0.374875 6.73414e-19)
(2.47059 0.390024 -1.00053e-18)
(2.48376 0.401749 1.47828e-19)
(2.48078 0.408852 1.95985e-18)
(2.44134 0.406121 9.39327e-19)
(2.3275 0.384464 -2.01226e-18)
(2.08589 0.332381 -1.82579e-18)
(1.66521 0.24193 7.48826e-19)
(1.05747 0.124572 -3.9253e-20)
(0.347319 0.0215176 -1.04433e-19)
(0.553078 0.351845 -2.05422e-19)
(0.511894 0.364679 -1.79397e-19)
(0.465399 0.378306 8.94114e-20)
(0.414252 0.392853 -2.85232e-19)
(0.35817 0.408193 -3.05294e-20)
(0.296318 0.423056 2.43034e-19)
(0.227724 0.432187 4.98102e-20)
(0.15288 0.42044 -1.27573e-20)
(0.0790505 0.35501 1.22407e-20)
(0.0155329 0.181283 1.62741e-20)
(0.58979 0.460448 1.59069e-19)
(0.549848 0.480151 2.05856e-19)
(0.505454 0.50126 4.25118e-20)
(0.456852 0.523917 -6.6974e-20)
(0.403442 0.547882 -2.52281e-19)
(0.344131 0.571343 -5.79638e-21)
(0.277288 0.587068 9.17006e-20)
(0.201669 0.574244 3.01485e-20)
(0.121004 0.487238 -1.04715e-19)
(0.0375329 0.250004 -3.59416e-20)
(0.644993 0.561504 -1.50967e-19)
(0.606536 0.587174 -1.38095e-19)
(0.564758 0.614734 1.17612e-19)
(0.519429 0.644633 8.97892e-20)
(0.46967 0.67675 -7.43044e-20)
(0.4141 0.708814 -4.59573e-20)
(0.350084 0.731548 -1.03652e-19)
(0.273637 0.718351 -5.80127e-20)
(0.18285 0.611038 -6.14329e-20)
(0.0698101 0.313754 1.53142e-21)
(0.718158 0.658463 6.48385e-20)
(0.681745 0.690657 -3.48348e-20)
(0.643529 0.72464 -9.25448e-20)
(0.602289 0.761071 -2.49934e-20)
(0.556693 0.799937 -7.12011e-20)
(0.505167 0.838608 2.19124e-21)
(0.44407 0.865968 -2.50497e-19)
(0.366083 0.850274 3.96338e-20)
(0.261903 0.722509 -3.00193e-19)
(0.110802 0.370081 4.9055e-20)
(0.804958 0.739314 -6.98231e-21)
(0.771191 0.776563 6.6599e-21)
(0.737674 0.816125 -4.71513e-20)
(0.702315 0.85904 -2.41636e-19)
(0.663021 0.905076 1.12182e-19)
(0.617426 0.950863 1.97531e-20)
(0.56027 0.983385 5.82863e-20)
(0.48007 0.966053 -1.52015e-19)
(0.358438 0.819963 3.66822e-19)
(0.160111 0.418372 2.6845e-19)
(0.908378 0.818863 -6.20785e-20)
(0.876465 0.860641 -1.52022e-19)
(0.84643 0.903576 4.20937e-20)
(0.815579 0.95008 9.58977e-20)
(0.781776 1.00049 3.35883e-19)
(0.742177 1.05075 2.43284e-19)
(0.689431 1.08564 6.05228e-19)
(0.606893 1.06407 2.52525e-19)
(0.465783 0.899585 1.49865e-19)
(0.214681 0.456085 2.02129e-19)
(1.01822 0.872578 -1.01592e-19)
(0.992328 0.919157 5.34399e-19)
(0.970093 0.966656 3.5808e-19)
(0.946945 1.01755 -4.63849e-19)
(0.920115 1.07231 -2.35101e-19)
(0.886573 1.12675 6.38948e-19)
(0.83733 1.16405 -1.03138e-19)
(0.750308 1.13918 -4.30622e-19)
(0.585301 0.959362 1.20212e-20)
(0.27405 0.482628 2.43952e-19)
(1.13562 0.927338 2.68874e-19)
(1.11017 0.974266 5.64372e-20)
(1.0927 1.02203 -7.25957e-19)
(1.07751 1.07464 1.53038e-19)
(1.06 1.13176 5.53157e-19)
(1.03515 1.18779 -3.1128e-19)
(0.991036 1.22412 -9.55558e-20)
(0.899522 1.19297 -1.7846e-19)
(0.708835 0.998136 1.79572e-20)
(0.334452 0.496932 -2.91821e-19)
(1.26163 0.947554 1.83492e-20)
(1.24658 0.998426 -5.26999e-19)
(1.23655 1.0473 -4.46624e-21)
(1.22706 1.10099 4.54847e-19)
(1.21545 1.16036 -4.72469e-19)
(1.19652 1.21875 9.28498e-19)
(1.15521 1.25521 6.25798e-19)
(1.05633 1.21928 -9.24829e-19)
(0.836001 1.01337 -7.02817e-20)
(0.394666 0.49859 -3.16545e-19)
(1.3628 0.960001 -3.1463e-19)
(1.35889 1.0114 -3.00453e-19)
(1.36555 1.06177 2.85281e-19)
(1.37042 1.11606 7.47134e-19)
(1.36999 1.17473 2.7027e-19)
(1.35932 1.23133 -7.71238e-19)
(1.32108 1.26404 9.72475e-20)
(1.21344 1.22127 2.08829e-19)
(0.961126 1.00647 -2.78716e-19)
(0.452036 0.488423 -2.22999e-19)
(0.997408 0.00864737 5.5575e-22)
(1.01225 0.0356107 -1.60509e-20)
(1.01893 0.045562 -1.13973e-20)
(1.03175 0.0660729 0)
(1.02809 0.0842239 1.25375e-20)
(1.0251 0.104902 1.87258e-20)
(1.0025 0.129352 2.42711e-20)
(0.960966 0.160103 5.81599e-20)
(0.883958 0.220086 -9.47982e-20)
(0.732801 0.287285 -1.06117e-19)
(0.998924 0.00649147 3.26646e-20)
(1.00973 0.033876 -5.15811e-20)
(1.01786 0.0424756 2.0726e-22)
(1.02935 0.065568 -1.44826e-20)
(1.02713 0.0842128 6.53397e-21)
(1.02535 0.109577 -9.89116e-21)
(1.00278 0.138426 -5.70185e-20)
(0.966977 0.178348 0)
(0.890346 0.256319 1.98163e-19)
(0.761773 0.357852 -2.68313e-19)
(0.999803 0.00451355 -2.33402e-20)
(1.00847 0.032659 1.41476e-20)
(1.0169 0.0390887 2.99352e-20)
(1.02873 0.06568 7.9402e-21)
(1.02644 0.0836406 -1.62407e-20)
(1.02825 0.114992 1.37428e-21)
(1.00396 0.146736 -4.19154e-20)
(0.978303 0.197152 -7.71967e-21)
(0.900411 0.291254 5.04547e-22)
(0.806012 0.425721 6.47272e-19)
(1.00017 0.00261082 -2.58759e-20)
(1.00819 0.0318715 1.94307e-21)
(1.01614 0.0353963 2.46739e-20)
(1.0296 0.0663549 1.67963e-20)
(1.02625 0.0824542 -8.28036e-21)
(1.03348 0.121199 -1.2257e-20)
(1.00622 0.153914 6.26271e-20)
(0.994631 0.21691 -2.78228e-21)
(0.913783 0.32377 -2.26808e-19)
(0.864949 0.489287 7.30083e-20)
(1.00022 0.000680113 1.77889e-20)
(1.00858 0.0313818 -2.55603e-20)
(1.01575 0.0314306 -2.00232e-20)
(1.03159 0.0674713 1.00392e-20)
(1.02698 0.0806849 0)
(1.04042 0.128095 0)
(1.01041 0.159865 5.48849e-20)
(1.01436 0.237439 1.57966e-21)
(0.932675 0.353686 -1.07341e-19)
(0.934742 0.547144 8.96602e-20)
(1.00019 -0.00129967 4.96198e-21)
(1.00927 0.0310573 2.02202e-20)
(1.01597 0.0272457 -5.5675e-20)
(1.03432 0.0688677 -1.97957e-20)
(1.02903 0.0783956 -4.13322e-22)
(1.04867 0.135571 5.47421e-20)
(1.01678 0.164377 8.61173e-20)
(1.03788 0.259187 1.86468e-22)
(0.954063 0.378779 1.75134e-19)
(1.02099 0.6048 -2.03087e-19)
(1.00026 -0.00333704 -1.89701e-20)
(1.00996 0.030752 1.04626e-20)
(1.01704 0.0228989 -1.56536e-20)
(1.03742 0.0703376 -4.23747e-20)
(1.03288 0.0757194 1.38574e-21)
(1.05751 0.14332 -1.53284e-21)
(1.02675 0.167698 -3.65324e-21)
(1.06213 0.281357 -1.91278e-19)
(0.986096 0.400237 1.32429e-19)
(1.10305 0.646956 -4.92127e-19)
(1.00054 -0.00542439 -3.16138e-21)
(1.01049 0.0303222 -2.96966e-20)
(1.01907 0.018441 3.18661e-20)
(1.0407 0.0716531 2.28201e-20)
(1.03878 0.0728129 7.48595e-22)
(1.0667 0.150922 -6.51869e-20)
(1.04025 0.170034 -4.97493e-20)
(1.08904 0.303943 3.46344e-19)
(1.01876 0.418582 1.16597e-20)
(1.21367 0.706124 7.79861e-19)
(1.00102 -0.00752977 1.25985e-20)
(1.01091 0.0296494 1.32847e-20)
(1.02195 0.0138995 3.80869e-20)
(1.04429 0.0726679 -2.52057e-20)
(1.04659 0.0697161 -6.66914e-20)
(1.07594 0.158484 8.08523e-22)
(1.05814 0.170008 -7.02267e-20)
(1.11579 0.324868 4.56999e-19)
(1.07188 0.420701 -7.53395e-21)
(1.28108 0.723978 -1.07868e-18)
(1.00166 -0.00959873 3.00661e-22)
(1.01142 0.0285833 2.04121e-20)
(1.02525 0.00979031 1.25078e-20)
(1.04877 0.0731073 -5.07543e-20)
(1.05493 0.0683735 -6.64029e-20)
(1.08504 0.165262 -5.6879e-20)
(1.07643 0.177127 -1.3042e-19)
(1.13806 0.348575 -4.21234e-19)
(1.12536 0.449851 -2.30054e-19)
(1.4126 0.795663 -1.1451e-18)
(1.00274 -0.0130482 -9.24608e-22)
(1.01185 0.0271515 -4.32333e-21)
(1.02986 0.00202731 -1.48649e-20)
(1.0563 0.072456 2.77179e-20)
(1.06554 0.0596189 5.12699e-20)
(1.10379 0.170166 -3.7033e-20)
(1.09873 0.162542 1.32427e-19)
(1.18267 0.359936 -3.90794e-19)
(1.18532 0.392222 -1.77456e-19)
(1.42647 0.785653 6.01242e-19)
(1.00491 -0.0181417 2.95863e-22)
(1.01043 0.0248868 6.9019e-21)
(1.03863 -0.0103937 -1.05982e-20)
(1.06376 0.0685244 5.13415e-20)
(1.0837 0.0440024 8.86795e-20)
(1.12001 0.16841 1.11316e-19)
(1.13969 0.138714 3.07322e-20)
(1.21138 0.347757 1.95689e-19)
(1.28162 0.344256 3.09561e-19)
(1.44625 0.687393 2.06371e-20)
(1.00694 -0.0230573 -1.16093e-21)
(1.00739 0.020628 -3.56402e-21)
(1.05351 -0.0228616 3.84753e-21)
(1.06792 0.0619287 3.94251e-21)
(1.10947 0.0288911 2.72796e-34)
(1.12756 0.160988 -6.25231e-21)
(1.18959 0.114636 -4.38059e-34)
(1.22836 0.325001 1.63606e-20)
(1.35833 0.292066 -5.01051e-20)
(1.48427 0.598684 -5.17227e-20)
(1.00564 -0.0277901 1.48875e-20)
(1.00768 0.0125361 -4.01868e-35)
(1.07088 -0.0341554 -4.40542e-21)
(1.07283 0.0510534 -2.21031e-20)
(1.13485 0.0158899 -4.50068e-20)
(1.13656 0.148485 -3.78084e-20)
(1.23026 0.0913566 -5.84552e-34)
(1.25135 0.297542 -7.76993e-20)
(1.4014 0.241593 -1.40335e-19)
(1.52089 0.510156 8.76979e-20)
(0.998124 -0.0324392 0)
(1.01802 -0.00104064 -1.91367e-35)
(1.08518 -0.0436667 0)
(1.08606 0.0352483 0)
(1.15297 0.00499932 0)
(1.15827 0.128901 0)
(1.25411 0.0704987 -4.34205e-34)
(1.28454 0.26287 0)
(1.42094 0.198857 -1.79318e-20)
(1.54953 0.420024 5.18643e-20)
(0.984294 -0.038292 2.15216e-21)
(1.04088 -0.017382 -1.13279e-21)
(1.09389 -0.0514879 -5.58442e-21)
(1.11037 0.0189052 0)
(1.16401 -0.00286566 0)
(1.19105 0.104486 5.77291e-21)
(1.26812 0.0536757 4.3052e-20)
(1.31746 0.222635 -1.19391e-20)
(1.43837 0.162266 -2.62408e-20)
(1.57104 0.33462 1.96333e-19)
(0.968091 -0.0499227 -8.24042e-20)
(1.07458 -0.0427134 3.07116e-21)
(1.09382 -0.0625464 -6.22472e-21)
(1.14113 -0.00462488 -1.42829e-20)
(1.16002 -0.013536 -2.80887e-20)
(1.21764 0.0745085 -1.30975e-20)
(1.26223 0.0394406 -3.68962e-20)
(1.33505 0.177514 -3.13697e-20)
(1.44461 0.128391 -5.31525e-20)
(1.5856 0.255348 6.79056e-20)
(0.95641 -0.0553552 -5.06998e-21)
(1.10404 -0.056129 -1.72673e-20)
(1.06919 -0.0609932 -6.80477e-21)
(1.14347 -0.0179797 -4.73005e-21)
(1.09888 -0.0153594 -4.70692e-35)
(1.19526 0.0475812 6.24321e-21)
(1.18255 0.0295446 -8.0409e-34)
(1.30614 0.129527 -1.14479e-20)
(1.3874 0.094178 1.63277e-20)
(1.57187 0.178825 2.36217e-20)
(0.95197 -0.0952531 1.97879e-19)
(1.05863 -0.0888472 -4.63614e-21)
(0.95001 -0.0740136 -7.23717e-21)
(0.990557 -0.035042 1.2156e-20)
(0.881222 -0.0161481 1.58696e-20)
(0.998643 0.0230848 1.57256e-20)
(0.934426 0.0221891 1.58064e-20)
(1.12376 0.0768164 -7.21577e-21)
(1.17005 0.0585392 -1.6919e-20)
(1.41532 0.101473 1.27896e-19)
(0.824509 -0.0469774 7.81195e-21)
(0.725046 -0.0334919 -9.17187e-35)
(0.528953 -0.0182929 -8.32235e-21)
(0.473372 -0.00367564 0)
(0.393914 -3.1004e-05 0)
(0.463187 0.00828921 6.23302e-21)
(0.439451 0.00500692 -4.42511e-36)
(0.58052 0.016755 -1.09855e-20)
(0.633752 0.00946832 -2.39178e-20)
(0.815645 0.0179328 5.11205e-20)
(1.62589 0.821966 -1.80223e-19)
(1.72495 0.805403 -2.68773e-19)
(1.83758 0.775892 0)
(1.94365 0.735496 1.42584e-19)
(2.04044 0.682099 6.08333e-19)
(2.12873 0.621773 -1.11211e-19)
(2.206 0.553325 1.55555e-18)
(2.27892 0.482927 -7.46719e-20)
(2.33687 0.409058 -3.4025e-19)
(2.39368 0.339796 2.9353e-19)
(1.65161 0.676235 8.99203e-20)
(1.72533 0.662169 1.07018e-19)
(1.81881 0.634314 -1.20221e-20)
(1.90242 0.597599 1.99881e-19)
(1.99097 0.55022 -1.64542e-19)
(2.05951 0.502015 -3.84454e-19)
(2.13567 0.446 -1.11048e-19)
(2.19027 0.395446 5.24568e-19)
(2.25743 0.336754 -1.94021e-20)