/*--------------------------------*- C++ -*----------------------------------*\
  =========                 |
  \\      /  F ield         | OpenFOAM: The Open Source CFD Toolbox
   \\    /   O peration     | Website:  https://openfoam.org
    \\  /    A nd           | Version:  13
     \\/     M anipulation  |
\*---------------------------------------------------------------------------*/
FoamFile
{
    format      ascii;
    class       volScalarField;
    location    "8.3";
    object      p;
}
// * * * * * * * * * * * * * * * * * * * * * * * * * * * * * * * * * * * * * //

dimensions      [0 2 -2 0 0 0 0];

internalField   nonuniform List<scalar> 
440
(
-1.10972
-1.08409
-1.08314
-1.06309
-1.14513
-1.16191
-1.13767
-1.11278
-1.08965
-1.07115
-1.28935
-1.24998
-1.20275
-1.14541
-1.08681
-1.42505
-1.3708
-1.26672
-1.14601
-1.02495
-1.51173
-1.43651
-1.26939
-1.09837
-0.944438
-0.865728
-0.878682
-0.913192
-0.965517
-1.01837
-1.07675
-1.08577
-1.11593
-1.16887
-1.23668
-1.15817
-1.15681
-1.16882
-1.19997
-1.24364
-1.14048
-1.12504
-1.11215
-1.11143
-1.1266
-1.08808
-1.06695
-1.04556
-1.02527
-1.04241
-1.16833
-0.268264
0.471875
-0.0639438
0.104006
-1.50753
-0.476938
0.728064
-0.126243
0.0641601
-1.49286
-0.636873
0.804911
-0.148095
0.00381468
-1.29484
-0.663276
0.722237
-0.148614
-0.11782
-1.22044
-0.575651
0.702007
-0.048401
-0.192221
-0.984222
-0.333058
0.721395
0.207529
-0.207199
-0.55812
-0.0387461
0.380707
0.238426
-0.0983365
-0.401808
0.0740629
0.468026
0.3079
-0.00682581
-0.26181
0.0880544
0.512159
0.305836
-0.021687
-0.161625
0.0518201
0.524002
0.411148
0.0256768
-0.682922
-0.800112
-0.971733
-1.1425
-1.3004
-0.420698
-0.542972
-0.635971
-0.695319
-0.726308
-0.240454
-0.348342
-0.411585
-0.452476
-0.476505
-0.131213
-0.227072
-0.286682
-0.31814
-0.328199
-0.0796003
-0.173308
-0.230119
-0.253135
-0.244163
0.758399
0.595125
0.387273
0.157116
-0.0924101
0.311592
0.139363
-0.0688274
-0.304826
-0.573406
-0.122955
-0.296908
-0.515526
-0.75856
-1.01233
-0.505777
-0.683955
-0.90467
-1.14095
-1.33767
-0.764406
-0.944272
-1.15089
-1.36725
-1.49653
1.93555
1.96178
1.98278
1.98859
1.97723
1.72232
1.73828
1.74672
1.73657
1.70437
1.48852
1.46901
1.42495
1.35706
1.26095
1.22344
1.18329
1.10491
0.993852
0.851951
0.990493
0.875242
0.727272
0.559369
0.355714
1.73478
1.72762
1.7037
1.77643
1.83874
1.72342
1.71418
1.68051
1.75019
1.73482
1.71302
1.69794
1.6552
1.71157
1.60544
1.70396
1.67916
1.6285
1.65694
1.42035
1.69634
1.65947
1.60069
1.60524
1.22448
1.69011
1.62888
1.56571
1.492
1.00826
1.68697
1.5923
1.55216
1.36846
1.13363
1.69428
1.57209
1.53663
1.31592
1.18958
1.68743
1.54371
1.52935
1.26222
1.217
1.72501
1.53659
1.52711
1.22659
1.23226
0.724569
0.399522
0.0383697
-0.283548
-0.490472
0.608262
0.379678
0.137262
-0.080386
-0.266713
0.588383
0.399768
0.219333
0.0540845
-0.111063
0.648085
0.463432
0.291697
0.137835
-0.0100147
0.684807
0.498668
0.330534
0.180209
0.0389265
-0.803859
-0.699777
-0.563836
-0.455733
-0.391239
-0.863071
-0.810681
-0.712066
-0.633772
-0.590885
-0.795416
-0.752918
-0.700189
-0.662213
-0.643542
-0.669609
-0.63759
-0.605938
-0.584474
-0.574006
-0.58147
-0.564596
-0.547004
-0.533102
-0.547908
-0.531584
-0.525977
-0.513268
-0.504634
-0.491163
-0.521828
-0.519318
-0.514416
-0.511879
-0.509754
-0.530538
-0.528411
-0.52885
-0.529879
-0.527244
-0.526698
-0.528548
-0.534905
-0.543572
-0.548035
-0.633956
-0.644975
-0.671084
-0.704346
-0.72815
-0.520087
0.0246726
0.0353193
0.131727
0.0957821
-0.495684
0.117567
0.0587374
0.135955
0.106111
-0.502556
0.187584
0.095016
0.122239
0.112421
-0.567942
0.143258
0.154916
0.0836007
0.117313
-0.769398
-0.0330733
0.266225
0.0214053
0.117523
-0.222962
-0.100741
-0.0937874
0.0824077
0.0810995
-0.435969
-0.0954044
-0.0342929
0.120596
0.0956388
-0.353747
-0.575379
-0.635469
-0.599666
-0.425576
-0.369568
-0.576969
-0.641754
-0.58579
-0.585449
1.73782
1.72494
1.6973
1.65618
1.60134
1.89394
1.9172
1.92797
1.92475
1.90804
2.01888
2.0533
2.082
2.10024
2.10505
2.07953
2.11794
2.1582
2.19085
2.20624
2.04777
2.08213
2.11993
2.15076
2.16377
-0.0139194
-0.0985585
-0.23147
-0.394689
-0.56625
0.486594
0.375123
0.225638
0.0474751
-0.163221
0.931975
0.815323
0.676533
0.514537
0.322051
1.28481
1.19684
1.08933
0.959896
0.808071
1.56557
1.50702
1.43057
1.33906
1.23289
1.80429
1.76692
1.76061
1.78713
1.82777
1.78787
1.76222
1.75613
1.79684
1.86975
1.77337
1.75611
1.75012
1.8077
1.92203
1.75971
1.74862
1.73892
1.80723
1.91971
1.74681
1.73944
1.72294
1.797
1.8952
1.86203
1.7768
1.75533
1.72493
1.71508
1.81608
1.76608
1.74807
1.74104
1.73075
1.4679
1.29588
0.983714
0.521936
0.0108589
1.53379
1.31975
0.996641
0.539464
0.0184379
)
;

boundaryField
{
    left
    {
        type            zeroGradient;
    }
    right
    {
        type            fixedValue;
        value           uniform 0;
    }
    down
    {
        type            zeroGradient;
    }
    up
    {
        type            zeroGradient;
    }
    cylinder
    {
        type            zeroGradient;
    }
    defaultFaces
    {
        type            empty;
    }
}


// ************************************************************************* //
