/*--------------------------------*- C++ -*----------------------------------*\
  =========                 |
  \\      /  F ield         | OpenFOAM: The Open Source CFD Toolbox
   \\    /   O peration     | Website:  https://openfoam.org
    \\  /    A nd           | Version:  13
     \\/     M anipulation  |
\*---------------------------------------------------------------------------*/
FoamFile
{
    format      ascii;
    class       volScalarField;
    location    "1.2";
    object      p;
}
// * * * * * * * * * * * * * * * * * * * * * * * * * * * * * * * * * * * * * //

dimensions      [0 2 -2 0 0 0 0];

internalField   nonuniform List<scalar> 
1800
(
-1.3987
-1.38925
-1.38371
-1.38263
-1.38188
-1.37377
-1.35109
-1.31013
-1.25068
-1.18537
-1.48648
-1.4759
-1.46873
-1.46435
-1.45721
-1.43993
-1.4074
-1.3587
-1.29742
-1.2335
-1.58272
-1.57126
-1.5619
-1.55243
-1.53587
-1.50601
-1.46044
-1.40085
-1.33194
-1.26085
-1.68769
-1.67537
-1.66271
-1.64565
-1.61665
-1.57197
-1.51238
-1.44216
-1.36654
-1.29222
-1.79813
-1.78477
-1.76698
-1.73914
-1.6947
-1.63302
-1.55828
-1.47647
-1.39307
-1.31306
-1.90806
-1.89325
-1.86808
-1.82639
-1.76434
-1.6851
-1.59597
-1.50383
-1.41354
-1.32889
-2.00947
-1.99235
-1.95734
-1.89932
-1.81813
-1.72145
-1.61868
-1.51668
-1.41958
-1.32987
-2.09339
-2.07273
-2.0259
-1.95006
-1.84995
-1.73748
-1.62302
-1.51284
-1.41
-1.31588
-2.15054
-2.12515
-2.06536
-1.97126
-1.85367
-1.72756
-1.60336
-1.48634
-1.37859
-1.28063
-2.17286
-2.14213
-2.06902
-1.95779
-1.82543
-1.68867
-1.55729
-1.43538
-1.3241
-1.22321
-0.378461
-0.382205
-0.383675
-0.380711
-0.372638
-0.358487
-0.337784
-0.311009
-0.279309
-0.24354
-0.441267
-0.444285
-0.445123
-0.442003
-0.434109
-0.420088
-0.399168
-0.371447
-0.337866
-0.29987
-0.534489
-0.53665
-0.536951
-0.534139
-0.527165
-0.514119
-0.493605
-0.465141
-0.429286
-0.387761
-0.650994
-0.652279
-0.652412
-0.650746
-0.645829
-0.634865
-0.615497
-0.586421
-0.547304
-0.498822
-0.780521
-0.780901
-0.781201
-0.781499
-0.779907
-0.772579
-0.755895
-0.727627
-0.686298
-0.630703
-0.911144
-0.910341
-0.910576
-0.912936
-0.915167
-0.911894
-0.898445
-0.871622
-0.828932
-0.767236
-1.03246
-1.03005
-1.03002
-1.03355
-1.03824
-1.03832
-1.02796
-1.00285
-0.959897
-0.892946
-1.13903
-1.13472
-1.13363
-1.13725
-1.14306
-1.14493
-1.13611
-1.11155
-1.06805
-0.99722
-1.23171
-1.22546
-1.22297
-1.22575
-1.23104
-1.23241
-1.22244
-1.19575
-1.14917
-1.0748
-1.31584
-1.30782
-1.30376
-1.30479
-1.30815
-1.30633
-1.2917
-1.25922
-1.206
-1.12962
-0.0330674
0.10162
0.138188
0.117875
0.0936421
0.0729364
0.0549096
0.0383732
0.0226971
0.00764401
-0.0797506
0.0844371
0.128947
0.112756
0.0903831
0.0706075
0.0532074
0.0372035
0.0220169
0.00738588
-0.148647
0.0625042
0.117032
0.106531
0.0866468
0.0680467
0.051388
0.0359794
0.0213144
0.00711957
-0.234146
0.0350014
0.102308
0.0991776
0.082406
0.0652398
0.0494429
0.0346948
0.020585
0.00684446
-0.328308
0.00151194
0.0851406
0.0907167
0.0776349
0.0621711
0.047364
0.033344
0.0198247
0.00656041
-0.427524
-0.0381591
0.0659995
0.0812078
0.0723353
0.0588351
0.0451475
0.0319229
0.01903
0.00626791
-0.52825
-0.0848435
0.0446143
0.0705561
0.0664986
0.0552393
0.0427981
0.0304319
0.0181994
0.0059687
-0.625482
-0.138842
0.0199902
0.058327
0.0599681
0.0513446
0.0403099
0.02887
0.0173329
0.00566666
-0.711595
-0.197768
-0.0082288
0.0441023
0.05244
0.0470025
0.0376212
0.0272111
0.0164193
0.00536491
-0.782377
-0.256956
-0.0386485
0.0283112
0.0439407
0.0421482
0.0346792
0.0254224
0.0154378
0.00506228
-0.769263
-0.282116
-0.0623662
0.0110599
0.0328287
0.0351792
0.0302861
0.0226859
0.0139248
0.00462305
-0.670838
-0.277666
-0.0839251
-0.00988416
0.0178995
0.0253761
0.0240236
0.0187997
0.0118248
0.00395418
-0.595156
-0.271541
-0.0940799
-0.0223073
0.00717515
0.017429
0.0185611
0.0152755
0.00987494
0.0033231
-0.531619
-0.266958
-0.108362
-0.0377916
-0.00503173
0.00896749
0.0130057
0.0117879
0.0079661
0.00269297
-0.483033
-0.263476
-0.118975
-0.0494402
-0.0150535
0.00152321
0.00793959
0.00856162
0.00618653
0.00209819
-0.446116
-0.262486
-0.13064
-0.0611804
-0.0246791
-0.00549042
0.0032151
0.00558198
0.00454689
0.00154346
-0.42064
-0.265162
-0.142988
-0.0722621
-0.0333552
-0.0117551
-0.00100601
0.0029339
0.00308521
0.00104
-0.40659
-0.271849
-0.155925
-0.082856
-0.0411213
-0.0171878
-0.00461546
0.00070288
0.00185215
0.000609867
-0.40425
-0.281869
-0.167535
-0.0907628
-0.0463772
-0.0208269
-0.00707496
-0.000818924
0.000986509
0.000313965
-0.40157
-0.290201
-0.17782
-0.0986214
-0.0513188
-0.0239327
-0.00908987
-0.00205321
0.000255975
7.09916e-05
-1.05054
-1.10985
-1.15008
-1.17138
-1.17842
-1.17168
-1.15676
-1.13337
-1.10444
-1.07302
-0.85995
-0.91925
-0.962433
-0.988587
-1.00114
-1.00025
-0.989412
-0.970121
-0.944846
-0.919104
-0.710465
-0.767842
-0.810969
-0.839654
-0.855094
-0.858463
-0.851193
-0.835943
-0.814155
-0.789468
-0.59063
-0.646077
-0.688502
-0.718655
-0.73601
-0.742588
-0.738514
-0.726658
-0.707472
-0.684147
-0.495757
-0.549118
-0.590796
-0.621626
-0.64042
-0.649193
-0.647742
-0.638575
-0.622112
-0.601376
-0.420932
-0.472493
-0.513483
-0.544526
-0.56452
-0.575024
-0.57597
-0.569426
-0.5559
-0.537921
-0.362692
-0.412912
-0.453419
-0.484624
-0.505721
-0.517756
-0.520979
-0.516881
-0.506225
-0.490659
-0.31968
-0.369077
-0.40952
-0.44096
-0.463053
-0.476393
-0.481702
-0.479662
-0.471689
-0.457984
-0.294584
-0.344181
-0.384704
-0.416123
-0.438853
-0.453316
-0.460264
-0.459733
-0.453801
-0.441491
-0.28238
-0.332915
-0.374685
-0.407804
-0.432149
-0.448142
-0.456239
-0.45691
-0.451345
-0.438305
0.474904
0.409299
0.334074
0.253489
0.166371
0.0704449
-0.0342671
-0.14195
-0.232782
-0.277604
0.262256
0.19041
0.110281
0.022511
-0.0746348
-0.182744
-0.300853
-0.421566
-0.52238
-0.571232
0.0290719
-0.0464931
-0.130128
-0.223036
-0.327233
-0.443968
-0.57174
-0.701975
-0.81016
-0.861421
-0.195859
-0.276075
-0.365243
-0.464837
-0.576608
-0.70153
-0.837707
-0.975572
-1.08928
-1.14131
-0.401615
-0.488044
-0.584288
-0.691616
-0.811498
-0.94475
-1.08915
-1.23354
-1.35008
-1.40114
-0.587135
-0.680163
-0.783581
-0.898457
-1.02606
-1.16683
-1.31871
-1.46672
-1.58138
-1.63234
-0.754058
-0.852754
-0.962166
-1.08321
-1.217
-1.36386
-1.51855
-1.66638
-1.77834
-1.82769
-0.902458
-1.00507
-1.11833
-1.24326
-1.38072
-1.5299
-1.68472
-1.82931
-1.93556
-1.98166
-1.0327
-1.13637
-1.25075
-1.37684
-1.51499
-1.66339
-1.81474
-1.95204
-2.04934
-2.09094
-1.14026
-1.24309
-1.35664
-1.48165
-1.61779
-1.76211
-1.90596
-2.03196
-2.11792
-2.15421
1.84627
1.86159
1.87762
1.89326
1.90762
1.92001
1.92973
1.93665
1.9424
1.9478
1.77497
1.7875
1.80012
1.81182
1.8218
1.82936
1.83383
1.83532
1.83637
1.8389
1.68329
1.69213
1.70026
1.70676
1.711
1.71228
1.70994
1.70439
1.69926
1.69816
1.57236
1.57699
1.57961
1.5796
1.57662
1.56996
1.55899
1.54452
1.53159
1.52614
1.44228
1.44183
1.43804
1.43061
1.41943
1.40378
1.38304
1.35842
1.33646
1.32624
1.29591
1.2901
1.27898
1.26285
1.24199
1.21576
1.18363
1.14734
1.11515
1.09944
1.13353
1.12179
1.10308
1.07803
1.04714
1.00973
0.965375
0.916447
0.873201
0.85161
0.962922
0.944269
0.915988
0.879861
0.837053
0.786931
0.729175
0.666775
0.61203
0.584339
0.788665
0.76301
0.724642
0.676566
0.620588
0.556152
0.483201
0.405709
0.338525
0.304661
0.623709
0.581518
0.52669
0.463668
0.393413
0.314452
0.226522
0.134376
0.0553574
0.0157731
1.59804
1.54487
1.56907
1.55297
1.55116
1.5636
1.58086
1.61726
1.67614
1.77801
1.5911
1.53912
1.5631
1.546
1.54283
1.55256
1.56654
1.59689
1.64586
1.73133
1.5847
1.53329
1.55705
1.5386
1.53391
1.54055
1.55068
1.57346
1.61
1.67323
1.5788
1.52741
1.55096
1.5308
1.52445
1.52755
1.53329
1.54686
1.56888
1.60307
1.5734
1.52154
1.54486
1.52263
1.51445
1.51357
1.51438
1.51696
1.523
1.51983
1.56848
1.51572
1.53877
1.51413
1.50394
1.49861
1.49391
1.48361
1.47286
1.42264
1.56405
1.50999
1.5327
1.50533
1.49292
1.48268
1.47185
1.44682
1.41862
1.30987
1.56015
1.50437
1.52666
1.49626
1.48137
1.46583
1.44817
1.40677
1.36003
1.18279
1.5568
1.49891
1.52066
1.48694
1.46932
1.44818
1.42285
1.36365
1.29562
1.03898
1.55405
1.49368
1.5147
1.47744
1.45682
1.42988
1.39658
1.31883
1.22786
0.889915
1.55124
1.4876
1.50705
1.46594
1.44058
1.40616
1.3612
1.26313
1.14805
0.744845
1.54982
1.48128
1.49859
1.45367
1.42269
1.38091
1.32451
1.21322
1.07109
0.707957
1.55035
1.47575
1.4906
1.44201
1.40558
1.35796
1.29149
1.17229
1.0077
0.6842
1.55336
1.47109
1.48303
1.43111
1.38944
1.33766
1.26176
1.13961
0.956121
0.670486
1.55938
1.46734
1.47557
1.42088
1.37448
1.31998
1.23532
1.1143
0.916963
0.66454
1.56903
1.46448
1.46973
1.41151
1.3611
1.30488
1.21274
1.09538
0.88914
0.661212
1.58219
1.46105
1.46132
1.40239
1.34935
1.29236
1.1943
1.08176
0.869724
0.65928
1.60562
1.46187
1.45658
1.39481
1.33992
1.28256
1.1803
1.07229
0.85676
0.658883
1.61755
1.45341
1.44407
1.38627
1.33275
1.27568
1.17113
1.06671
0.849627
0.66043
1.68977
1.46533
1.44539
1.38279
1.33033
1.27198
1.16699
1.06416
0.846089
0.663004
0.452682
0.275907
0.0692309
-0.129594
-0.309647
-0.471478
-0.618776
-0.751829
-0.869413
-0.96963
0.394168
0.254429
0.0964487
-0.0604086
-0.20666
-0.341339
-0.466702
-0.583265
-0.689671
-0.782825
0.372858
0.255107
0.128981
0.000929441
-0.122902
-0.240958
-0.353208
-0.458661
-0.555061
-0.639076
0.380304
0.273092
0.162536
0.0525786
-0.0552073
-0.160232
-0.261416
-0.357212
-0.445063
-0.523447
0.396367
0.29674
0.195836
0.097315
0.000991221
-0.0939137
-0.186643
-0.275641
-0.358057
-0.432113
0.414282
0.320806
0.226955
0.13611
0.0476021
-0.0401021
-0.126741
-0.210818
-0.289224
-0.360027
0.431321
0.342994
0.254582
0.169043
0.0855631
0.00253798
-0.079894
-0.160229
-0.235426
-0.303549
0.446997
0.363007
0.278805
0.196671
0.11586
0.0351802
-0.0449528
-0.122911
-0.195903
-0.262005
0.461562
0.381427
0.300521
0.219954
0.139449
0.0587981
-0.021053
-0.0983719
-0.170766
-0.236615
0.47431
0.397019
0.317756
0.236664
0.154558
0.0725326
-0.0078878
-0.0851627
-0.157533
-0.223719
-1.56882
-1.52409
-1.42572
-1.30231
-1.17826
-1.06588
-0.96907
-0.88855
-0.824558
-0.777979
-1.60606
-1.56749
-1.48542
-1.37842
-1.26675
-1.163
-1.07218
-0.99583
-0.935143
-0.892032
-1.5693
-1.53598
-1.4722
-1.3865
-1.29234
-1.20128
-1.1191
-1.04809
-0.989872
-0.946574
-1.47445
-1.44512
-1.39848
-1.33592
-1.26297
-1.18823
-1.11775
-1.05458
-1.00123
-0.960229
-1.34518
-1.31907
-1.28607
-1.24446
-1.1937
-1.13804
-1.08233
-1.02986
-0.98292
-0.94324
-1.20667
-1.18349
-1.15964
-1.13331
-1.10149
-1.06448
-1.02455
-0.983606
-0.944234
-0.908116
-1.07846
-1.05861
-1.03991
-1.02213
-1.00365
-0.983239
-0.960397
-0.935484
-0.908854
-0.882893
-0.972761
-0.955428
-0.938722
-0.923945
-0.913195
-0.906239
-0.90069
-0.892888
-0.882252
-0.866912
-0.899092
-0.881759
-0.864123
-0.848484
-0.841033
-0.843986
-0.854434
-0.86619
-0.873622
-0.878189
-0.870482
-0.852978
-0.833649
-0.817226
-0.812385
-0.823461
-0.84652
-0.874826
-0.897997
-0.920058
-0.885961
-0.870035
-0.854389
-0.845749
-0.850239
-0.869385
-0.901277
-0.935483
-0.960236
-0.95098
-0.914178
-0.903879
-0.899764
-0.908378
-0.931136
-0.965887
-1.00662
-1.04353
-1.06999
-1.04835
-0.907539
-0.905644
-0.914129
-0.938417
-0.97672
-1.02361
-1.07145
-1.10977
-1.13004
-1.09547
-0.8409
-0.844907
-0.857503
-0.88306
-0.918939
-0.95922
-0.9963
-1.02185
-1.03065
-0.99016
-0.725669
-0.730658
-0.739641
-0.754568
-0.774192
-0.794173
-0.809288
-0.814194
-0.803266
-0.771814
-0.598247
-0.602646
-0.607116
-0.612186
-0.617482
-0.620513
-0.618376
-0.608581
-0.589155
-0.560152
-0.486256
-0.490335
-0.492684
-0.492758
-0.490421
-0.484237
-0.472829
-0.455511
-0.431944
-0.401571
-0.404535
-0.408724
-0.410671
-0.408929
-0.403279
-0.39276
-0.376749
-0.355422
-0.329208
-0.297747
-0.358757
-0.363084
-0.365119
-0.362822
-0.355774
-0.343146
-0.324614
-0.300711
-0.272335
-0.239385
-0.350239
-0.354442
-0.356358
-0.353741
-0.346007
-0.3323
-0.312347
-0.286771
-0.256703
-0.222452
-0.906909
-0.177517
0.0831678
0.117238
0.104237
0.0868555
0.0682123
0.0489658
0.029473
0.0101124
-0.886646
-0.0767757
0.11616
0.123922
0.105776
0.0860307
0.0669547
0.0478357
0.028698
0.00984164
-0.794332
0.00741757
0.133314
0.12646
0.104999
0.0850119
0.0657251
0.0467591
0.0279715
0.00958571
-0.626615
0.0676427
0.138369
0.127518
0.104907
0.0840034
0.0645207
0.0457188
0.0272763
0.00933796
-0.435018
0.104244
0.141129
0.128291
0.10444
0.0828692
0.0633
0.0446952
0.0266024
0.00909558
-0.270418
0.124195
0.144771
0.128565
0.103588
0.0816102
0.0620528
0.0436793
0.0259444
0.0088567
-0.14742
0.131755
0.148366
0.12813
0.102366
0.0802171
0.0607645
0.0426612
0.025297
0.00861917
-0.0659125
0.1307
0.15007
0.12694
0.100781
0.0786712
0.0594196
0.0416308
0.0246543
0.00838094
-0.0231308
0.124633
0.148866
0.124904
0.0988167
0.0769533
0.058004
0.0405787
0.0240105
0.00814011
-0.0130067
0.11489
0.144841
0.12191
0.0964458
0.0750468
0.0565047
0.0394957
0.0233599
0.00789498
-0.735727
-0.398433
-0.0727291
0.0683693
0.0927958
0.0857995
0.0695903
0.0506501
0.0308737
0.0106799
-0.738445
-0.404457
-0.0719717
0.070532
0.0934179
0.0856331
0.0693125
0.0504176
0.0306915
0.0106139
-0.761902
-0.390848
-0.0568169
0.0764556
0.0948535
0.0855891
0.0690376
0.0501602
0.0304822
0.0105314
-0.80489
-0.342827
-0.0261255
0.0862577
0.0972643
0.0859526
0.0688914
0.0499211
0.0302627
0.0104345
-0.87137
-0.257
0.0427198
0.110016
0.103803
0.0872028
0.06895
0.049713
0.0300364
0.0103358
-0.736243
-0.847121
-0.901326
-0.927866
-0.903386
-0.876092
-0.83209
-0.792148
-0.755723
-0.723943
-0.735398
-0.847634
-0.898799
-0.922191
-0.893227
-0.861046
-0.822178
-0.771222
-0.753687
-0.711025
-0.737326
-0.849954
-0.899256
-0.919606
-0.890071
-0.854777
-0.823417
-0.773062
-0.768814
-0.739618
-0.743707
-0.857315
-0.906916
-0.923999
-0.897589
-0.861647
-0.83483
-0.804134
-0.804527
-0.815732
-0.755464
-0.870643
-0.922009
-0.936232
-0.914837
-0.879256
-0.85654
-0.844905
-0.853459
-0.914013
1.54128
1.52941
1.50987
1.48605
1.45902
1.42762
1.39099
1.35112
1.31721
1.30134
1.63297
1.63409
1.62788
1.61645
1.60117
1.58154
1.55703
1.52934
1.50592
1.49558
1.72085
1.72709
1.72803
1.72509
1.71922
1.70999
1.69679
1.68065
1.66705
1.6617
1.79605
1.80667
1.81428
1.81927
1.82189
1.82157
1.81762
1.81069
1.80484
1.80381
1.85841
1.87246
1.88461
1.8949
1.90335
1.90941
1.91242
1.91271
1.91308
1.91549
1.90318
1.91939
1.93512
1.94995
1.96346
1.97505
1.98402
1.9903
1.99566
2.00105
1.9309
1.94874
1.96685
1.98452
2.00113
2.01605
2.02858
2.0385
2.04699
2.05426
1.93935
1.95783
1.97715
1.9964
2.01477
2.03161
2.04621
2.05819
2.0684
2.07667
1.9284
1.94674
1.96615
1.98558
2.00415
2.02117
2.03595
2.04809
2.05841
2.06671
1.89746
1.91474
1.93305
1.95129
1.96851
1.98405
1.9972
2.00765
2.01648
2.02382
-0.606827
-0.657845
-0.724554
-0.807471
-0.907644
-1.0249
-1.15655
-1.29114
-1.40171
-1.45212
-0.381294
-0.437032
-0.507057
-0.592108
-0.693625
-0.812263
-0.947002
-1.08851
-1.20703
-1.26108
-0.117546
-0.177779
-0.25086
-0.337234
-0.43847
-0.555809
-0.68855
-0.828497
-0.953138
-1.00869
0.162831
0.0996875
0.025174
-0.0608717
-0.159864
-0.273202
-0.400501
-0.53542
-0.654755
-0.712529
0.436709
0.373295
0.300237
0.217579
0.124041
0.018014
-0.100548
-0.225999
-0.335885
-0.39125
0.686855
0.627229
0.559621
0.484129
0.399478
0.303938
0.197299
0.0846602
-0.013427
-0.0635605
0.908273
0.856116
0.797374
0.732063
0.65881
0.57585
0.482949
0.384799
0.299823
0.256452
1.10847
1.06492
1.01585
0.961311
0.899747
0.829404
0.750147
0.666349
0.594359
0.558083
1.29572
1.25926
1.21709
1.17073
1.11882
1.05964
0.993042
0.922904
0.863324
0.83394
1.45561
1.42542
1.3882
1.34864
1.30616
1.25882
1.20598
1.15046
1.10365
1.08111
1.71272
1.58239
1.6094
1.58871
1.59898
1.6212
1.64117
1.67499
1.68671
1.64572
1.69586
1.58176
1.60847
1.58851
1.59707
1.6195
1.64072
1.6785
1.70477
1.70279
1.68053
1.58005
1.60648
1.58749
1.59456
1.61699
1.63975
1.68169
1.72175
1.7578
1.66665
1.57748
1.60361
1.58567
1.59144
1.61365
1.63752
1.68237
1.73394
1.79873
1.65405
1.57418
1.60002
1.58306
1.58768
1.60941
1.63388
1.68082
1.74123
1.82864
1.64259
1.57027
1.59582
1.57969
1.58327
1.60422
1.62883
1.67686
1.74366
1.84723
1.63211
1.56586
1.59111
1.5756
1.57818
1.59805
1.62233
1.67034
1.74099
1.85499
1.62251
1.56104
1.58601
1.57083
1.57242
1.5909
1.61431
1.66118
1.73302
1.852
1.61368
1.55588
1.58058
1.56543
1.56598
1.58277
1.60474
1.64932
1.71962
1.83826
1.60555
1.55047
1.57492
1.55946
1.55889
1.57367
1.59359
1.6347
1.70071
1.81361
1.8728
1.58308
1.59849
1.58158
1.59714
1.61437
1.62473
1.6402
1.5915
1.56062
1.8009
1.57675
1.59865
1.58317
1.59757
1.6154
1.62552
1.64206
1.59675
1.55709
1.77933
1.58208
1.6039
1.58533
1.59846
1.61694
1.62804
1.64664
1.60947
1.558
1.75382
1.58263
1.60702
1.58709
1.59921
1.61885
1.63234
1.65467
1.62913
1.56722
1.73162
1.58253
1.60896
1.5882
1.59964
1.62064
1.63676
1.66449
1.65464
1.58235
1.32549
1.22108
1.0801
0.895981
0.671645
0.417037
0.146085
-0.122752
-0.369338
-0.576688
1.31911
1.21779
1.08334
0.905154
0.686445
0.435476
0.164814
-0.107309
-0.359575
-0.572792
1.33155
1.22634
1.08905
0.912446
0.697908
0.449675
0.178471
-0.096917
-0.353925
-0.571835
1.36929
1.24923
1.09912
0.919288
0.706714
0.459758
0.187218
-0.091456
-0.352681
-0.574947
1.43015
1.28762
1.11553
0.92609
0.711561
0.464693
0.191449
-0.0897422
-0.355247
-0.582662
)
;

boundaryField
{
    left
    {
        type            zeroGradient;
    }
    right
    {
        type            fixedValue;
        value           uniform 0;
    }
    down
    {
        type            zeroGradient;
    }
    up
    {
        type            zeroGradient;
    }
    cylinder
    {
        type            zeroGradient;
    }
    defaultFaces
    {
        type            empty;
    }
}


// ************************************************************************* //
