/*--------------------------------*- C++ -*----------------------------------*\
  =========                 |
  \\      /  F ield         | OpenFOAM: The Open Source CFD Toolbox
   \\    /   O peration     | Website:  https://openfoam.org
    \\  /    A nd           | Version:  13
     \\/     M anipulation  |
\*---------------------------------------------------------------------------*/
FoamFile
{
    format      ascii;
    class       surfaceScalarField;
    location    "66";
    object      phi;
}
// * * * * * * * * * * * * * * * * * * * * * * * * * * * * * * * * * * * * * //

dimensions      [0 3 -1 0 0 0 0];

internalField   nonuniform List<scalar> 
823
(
0.0149689
0.0225597
-0.0375287
0.0389915
0.0193153
-0.0433379
0.0872807
-0.0284162
-0.019873
0.168943
-0.0947485
0.0130863
-0.135113
0.0250358
0.27902
0.0168541
0.00570564
0.0747208
-0.0385514
0.168912
-0.122607
0.277205
-0.203042
-0.276755
0.418848
0.0211936
-0.015488
0.105036
-0.122394
0.21672
-0.23429
0.324922
-0.311245
-0.358932
0.407099
0.0422044
-0.0576924
0.139016
-0.219205
0.227163
-0.322437
0.283994
-0.368075
-0.380911
0.305973
0.0564893
-0.114182
0.12984
-0.292556
0.172461
-0.365058
0.188207
-0.383821
0.196057
-0.388762
0.0227384
-0.0557566
0.0330182
0.0525155
-0.117454
0.0876772
0.0689712
-0.126417
0.109961
0.0699492
-0.107283
0.106305
-0.0837912
0.0624583
0.0912821
0.018752
-0.0745086
0.0260676
-0.12477
0.0145583
-0.114908
-0.00431879
-0.0884062
-0.0680475
-0.0200625
0.000355481
-0.0748641
-0.0240744
-0.10034
-0.0585574
-0.080425
-0.08535
-0.0616137
-0.0520929
-0.101305
-0.0555517
-0.0193124
-0.132795
-0.0230964
-0.195488
-0.0177324
-0.239742
-0.0173594
-0.0215287
-0.270306
-0.0568411
-0.123275
-0.160881
-0.165154
-0.161647
0.378278
-0.458209
0.14239
0.470279
1.57865
-1.67065
0.387882
1.04699
-0.964596
0.466464
-1.40525
1.32666
-1.01624
1.00529
0.263778
-0.74205
0.417425
1.425
0.439372
1.02504
0.524708
-1.49058
-1.01759
0.0258983
-0.869252
0.234491
1.21641
0.53494
0.724595
0.596431
-1.55207
-1.00326
-0.185756
-0.953802
0.166618
0.864035
0.630782
0.260432
0.649064
-1.57036
-0.983796
-0.131754
-0.983695
0.157752
0.574529
0.660954
-0.242769
0.660934
-1.57034
-0.96606
0.749558
-0.590792
-1.14246
0.803683
0.520404
1.29841
-0.737491
1.14863
-1.42056
-0.784571
1.10466
-0.35697
-1.33848
1.29587
0.329195
1.43782
-0.879437
1.11284
-1.09559
-0.52157
1.16787
-0.196909
-1.32793
1.44803
0.049039
1.32517
-0.756582
0.939396
-0.709813
-0.289999
1.19147
-0.0980643
-1.29032
1.34934
-0.108826
1.01753
-0.42477
0.589938
-0.282224
-0.0850944
0.786056
-0.88412
0.67723
0.25246
-0.0297636
1.08511
0.144727
-1.03378
1.15305
0.238031
1.26106
0.299095
1.27
0.409903
0.406559
1.01109
0.0797674
-0.946133
1.07226
0.176863
1.16269
0.208668
1.26542
0.307172
0.333495
0.94517
0.0390901
-0.904493
1.00944
0.112594
1.08863
0.129481
1.21033
0.185466
0.215896
0.889487
0.00978091
-0.860178
0.959727
0.0423535
1.04178
0.0474284
1.1562
0.0710483
0.0817742
0.641516
-0.631735
0.68387
0.731298
0.802346
0.131914
0.29809
-0.248405
-0.1816
0.0875923
0.305015
-0.260694
0.0478409
0.315525
-0.275773
0.0153387
0.307356
-0.274854
0.199388
-0.184049
0.0969698
0.33532
-0.134199
0.0613411
0.340644
0.0295451
0.347321
0.00482118
0.33208
0.204209
0.0527222
0.365306
-0.0827089
0.0239253
0.369441
-3.3659e-05
0.371279
-0.00987582
0.341922
0.194333
-0.0198576
0.382059
0.00310532
-0.0350427
0.384626
-0.0411318
0.377369
-0.0302532
0.331043
0.16408
-0.101501
0.0947982
-0.100696
-0.0883861
-0.0498986
0.203724
0.0953203
-0.256519
-0.0425254
0.149564
0.0995554
-0.0453952
0.0934354
0.104281
-0.0481525
0.0382276
0.104517
-0.049309
0.0745813
-0.0363537
0.196594
0.140087
-0.24136
0.149672
0.146477
0.0974998
0.156453
0.0415686
0.160448
0.11615
0.151614
0.185598
-0.197125
0.108094
0.189997
0.0656102
0.198937
0.0249942
0.201064
0.141144
0.156717
0.220626
-0.191745
0.116342
0.230372
0.0714007
0.243878
0.0276658
0.244799
0.16881
0.107511
-0.13529
0.0771894
0.0452943
0.0152395
0.404834
0.0691613
-0.0780159
0.421019
0.0175253
-0.0337106
0.4163
0.148532
-0.143813
0.390949
0.200801
-0.17545
0.402402
-0.267972
0.402171
0.0629696
0.415684
0.00401232
0.405984
0.158233
0.37514
0.231645
0.536181
0.396366
0.0625827
0.411482
-0.0111036
0.384907
0.184809
0.361527
0.255025
0.700583
0.39365
0.0649128
0.400119
-0.0175727
0.369697
0.21523
0.335951
0.288771
0.844789
0.38738
0.0735124
0.389922
-0.0201152
0.339284
0.265869
0.310361
0.317694
1.01986
0.625388
0.0521445
0.663723
-0.0584495
0.680864
0.248728
0.733681
0.264876
0.770192
0.98335
0.642505
0.01366
0.672511
-0.0884555
0.694125
0.227114
0.769285
0.189717
0.514791
1.02468
0.65354
-0.0358592
0.652332
-0.0872476
0.691107
0.188339
0.79619
0.0846332
0.307715
1.00327
0.637275
-0.0691136
0.605498
-0.0554712
0.714555
0.0792823
0.788458
0.0107302
0.143772
0.952401
0.534907
0.479436
0.558718
0.569448
0.713221
1.00291
-0.201159
1.00027
-0.131562
0.99402
-0.0764568
1.00556
-0.00843682
0.0665814
0.962527
-0.139001
0.946809
-0.115845
0.916535
-0.0461829
0.936401
-0.0283024
0.0568486
0.941669
-0.077403
0.906173
-0.0803489
0.883406
-0.0234159
0.886751
-0.0316479
0.0391072
0.903906
-0.0289086
0.85795
-0.034393
0.846076
-0.0115415
0.833519
-0.0190906
0.0124481
0.684312
0.649919
0.638378
0.619287
0.0551374
0.169502
-0.224639
0.0792992
0.365497
-0.389659
0.0780854
0.420238
-0.419024
0.0679445
0.421468
-0.411327
0.389367
0.0539003
-0.375323
0.0847651
0.0847367
0.161444
0.288818
0.194724
0.386957
0.198485
0.417707
0.406027
0.181826
0.0719074
0.0128292
0.200015
0.160711
0.296931
0.29004
0.353592
0.361046
0.409888
0.349731
0.0339541
-0.0211248
0.152846
0.0418189
0.289374
0.153513
0.420814
0.229606
0.323753
0.506948
0.00534929
-0.0264741
0.0657035
-0.0185353
0.183703
0.0355134
0.329292
0.084018
0.174097
0.478948
-0.00651778
-0.0199563
0.0101985
-0.0352516
0.073012
-0.0273
0.172559
-0.0155286
0.0514015
0.295254
-0.00650414
-0.0134522
-0.00557928
-0.0361765
0.015619
-0.0484983
0.0508191
-0.0507287
-0.0224026
0.124623
-0.00108483
-0.0123674
0.00489565
-0.042157
0.0198658
-0.0634685
0.0401201
-0.0709829
-0.0655443
0.0832617
0.00695828
-0.0193256
0.0263146
-0.0615133
0.0513462
-0.0885001
0.0766796
-0.0963164
-0.0931951
0.10433
0.0136926
0.0398565
0.0613179
0.071307
0.069394
0.408362
1.01688
-1.12999
0.257319
0.750845
-0.599801
-0.0385254
0.653327
-0.357483
0.105516
-0.534722
0.390681
-0.682601
0.48123
0.411547
0.729958
0.143384
1.01901
-0.0545167
0.851228
0.177672
-0.766911
-0.816278
0.425404
0.387815
0.0660201
1.37839
-0.0243886
0.941637
0.23903
-1.03033
-0.911744
0.394089
0.098057
0.132549
1.63993
0.10645
0.967735
0.296351
-1.22023
-0.979468
0.309841
0.279122
0.282262
0.388695
-0.120999
0.732683
-0.611684
-0.265725
0.144726
-0.224263
-0.0414617
0.0262542
-0.250518
-0.200228
0.821693
-1.219
0.366618
-0.0323268
0.107836
0.0949191
-0.0127579
-0.0821613
0.155464
-0.0605451
0.26181
-0.106346
0.418698
-0.156888
-0.192986
0.218312
-0.17717
0.339593
0.582978
0.933038
0.14577
-0.151072
0.182666
-0.177364
0.111515
-0.157422
0.191676
0.0725591
-0.165892
0.204849
0.0299664
-0.166425
0.209017
-0.117189
0.147155
0.190128
-0.110976
-0.230225
0.144582
-0.111875
0.0922919
-0.113603
0.0383173
-0.11245
-0.0788717
0.185706
-0.059844
-0.236837
0.133847
-0.0600168
0.0823257
-0.0620811
0.0332694
-0.0633938
-0.0456023
0.203711
-0.00861782
-0.254937
0.15167
-0.00797571
0.0972728
-0.00768378
0.041191
-0.007312
-0.00441131
0.206593
-0.257736
0.153222
0.097386
0.040765
0.0472997
-0.351756
-0.0708669
0.0182614
-0.382289
-0.00666311
-0.394099
-0.0175569
-0.378765
-0.242196
0.135886
-0.3175
-0.170142
0.0905129
-0.336916
0.0446421
-0.348229
0.0094981
-0.343621
-0.232698
0.158282
-0.273261
-0.202521
0.11086
-0.289494
0.0651705
-0.302539
0.0235874
-0.302038
-0.209111
0.177548
-0.233958
-0.216851
0.131161
-0.243107
0.0814268
-0.252805
0.0330544
-0.253666
-0.176056
0.172936
-0.224228
0.121505
0.0735491
0.0289007
0.388309
0.105458
-0.0977873
0.39051
0.0818165
-0.0840175
0.358556
0.138505
-0.106551
0.310506
0.0337016
0.0143488
-0.264703
0.397845
0.396239
0.105198
0.404662
0.0733937
0.397128
0.146039
0.351979
0.078851
-0.142949
0.401542
0.0996362
0.414193
0.0607429
0.41169
0.148541
0.374534
0.116007
-0.00525178
0.406204
0.0894122
0.4192
0.047746
0.422391
0.145351
0.391257
0.147141
0.131068
0.407376
0.421411
0.422949
0.39464
0.414893
0.0951576
0.336838
0.0780558
0.257665
0.0791724
0.269817
-0.0121518
-0.214123
0.48394
0.507421
0.50146
0.474081
0.476278
0.66
0.387196
0.0967446
0.301653
0.0855421
0.202297
0.0993569
0.117713
0.0845834
0.0355519
0.532516
0.401208
0.298043
0.212485
)
;

boundaryField
{
    left
    {
        type            calculated;
        value           nonuniform List<scalar> 
17
(
-0.60402
-0.60402
-0.60402
-0.60402
-0.60402
-0.39598
-0.39598
-0.39598
-0.39598
-0.39598
-0.39598
-0.39598
-0.39598
-0.39598
-0.39598
-0.510051
-0.510051
)
;
    }
    right
    {
        type            calculated;
        value           nonuniform List<scalar> 
17
(
0.226483
0.388838
0.306887
0.31135
0.334496
0.364074
0.414521
0.477407
0.526063
0.582105
0.629596
0.643197
0.967143
0.84984
0.707825
0.385033
-0.114858
)
;
    }
    down
    {
        type            calculated;
        value           uniform 0;
    }
    up
    {
        type            calculated;
        value           uniform 0;
    }
    cylinder
    {
        type            calculated;
        value           uniform 0;
    }
    defaultFaces
    {
        type            empty;
    }
}


// ************************************************************************* //
