# Selection   : all
# Cells       : 440
# Volume      : 7.374263e+01
# Time        	minMag(U)
4.31          	5.401968e-03
4.355         	4.229817e-03
4.405         	5.104242e-03
