/*--------------------------------*- C++ -*----------------------------------*\
  =========                 |
  \\      /  F ield         | OpenFOAM: The Open Source CFD Toolbox
   \\    /   O peration     | Website:  https://openfoam.org
    \\  /    A nd           | Version:  13
     \\/     M anipulation  |
\*---------------------------------------------------------------------------*/
FoamFile
{
    format      ascii;
    class       surfaceScalarField;
    location    "1.14";
    object      phi;
}
// * * * * * * * * * * * * * * * * * * * * * * * * * * * * * * * * * * * * * //

dimensions      [0 3 -1 0 0 0 0];

internalField   nonuniform List<scalar> 
823
(
0.0213037
0.0138451
-0.0351489
0.0815241
-0.089405
0.0291846
0.153387
-0.204805
0.132942
0.215565
-0.27907
0.216892
-0.316536
0.268994
0.263107
0.0335554
-0.0197103
0.109452
-0.165302
0.183401
-0.278754
0.240102
-0.335771
-0.358716
0.282282
0.0461047
-0.065815
0.120942
-0.240139
0.177622
-0.335433
0.211872
-0.370022
-0.375633
0.22879
0.0521314
-0.117946
0.111095
-0.299102
0.145552
-0.36989
0.161796
-0.386267
-0.385078
0.171241
0.0451873
-0.163134
0.0800129
-0.333928
0.0916131
-0.38149
0.0917605
-0.386414
0.0870008
-0.380318
-0.0238942
0.0274197
-0.00352544
-0.0459995
0.0189193
0.00318592
-0.0502793
-0.00969887
0.0139787
-0.0339816
-0.0402456
0.0239479
-0.0686634
0.00309878
0.031583
-0.0171675
0.0445872
-0.0306197
0.0323715
-0.0265876
-0.0137309
-0.00391214
-0.0629211
-0.108784
0.0362081
-0.00675087
0.0513381
-0.00510726
0.0307279
0.0148475
-0.0336857
0.0514136
-0.0994871
-0.159187
0.101817
0.00382209
0.047516
0.0242476
0.0103024
0.0644363
-0.0738744
0.117354
-0.152405
-0.215301
0.173468
0.0123671
0.0518541
0.110922
0.175409
0.229102
0.278331
-0.565461
0.290229
0.364916
-0.27848
0.191895
0.397738
-0.157578
0.124757
0.40648
-0.090365
0.0816228
-0.0314841
0.0344355
0.255011
-0.784264
0.359429
-0.382898
0.396365
-0.194515
0.406839
-0.100839
-0.0303922
0.240926
-0.923373
0.349321
-0.491292
0.391444
-0.236637
0.405509
-0.114904
-0.033149
0.250678
-1.00058
0.340018
-0.580632
0.383541
-0.28016
0.402489
-0.133852
-0.041644
0.276777
-1.04826
0.336222
-0.640078
0.375488
-0.319426
0.398447
-0.156811
-0.0572079
0.911816
-0.824417
-1.13566
0.751206
-0.479468
0.67859
-0.24681
0.649037
-0.127258
-0.0479791
0.892438
-0.56209
-1.15477
0.746638
-0.333667
0.683036
-0.183208
0.654037
-0.0982596
-0.0374016
0.910334
-0.345304
-1.12712
0.77275
-0.196084
0.699092
-0.109549
0.661511
-0.0606787
-0.0236361
0.892807
-0.140999
-1.09711
0.764077
-0.0673544
0.692267
-0.0377391
0.654677
-0.0230885
-0.00953129
0.650391
-0.79139
0.583037
0.545298
0.522209
1.02108
0.0447482
-0.978826
1.04668
0.145645
1.10903
0.16644
1.11872
0.272586
0.246172
0.938877
0.0190247
-0.913153
0.980196
0.104326
1.0316
0.115039
1.10553
0.198651
0.196938
0.894824
0.00359769
-0.879397
0.939158
0.0599924
0.98406
0.0701368
1.05909
0.123621
0.128908
0.849583
-0.00608252
-0.839903
0.892372
0.0172033
0.939434
0.0230747
1.01698
0.0460768
0.0487742
0.656261
-0.662344
0.673464
0.696539
0.742616
0.122987
0.281027
-0.237641
-0.166374
0.0834762
0.289572
-0.250061
0.0472542
0.300785
-0.264563
0.0159765
0.294899
-0.263622
0.193656
-0.177679
0.111447
0.318875
-0.149294
0.0751772
0.325842
0.0409578
0.335004
0.0125497
0.323307
0.206205
0.0751478
0.347496
-0.10377
0.045687
0.355303
0.0189105
0.361781
-8.96263e-05
0.342308
0.206116
0.0312921
0.369006
-0.0528019
0.00978862
0.376806
-0.00723988
0.378809
-0.0124454
0.347513
0.19367
-0.0318329
0.0205207
-0.0414407
-0.0441218
-0.0305367
0.185966
0.0903785
-0.233604
-0.0427406
0.137091
0.0939582
-0.0450829
0.0864764
0.098419
-0.0478045
0.0357111
0.0998354
-0.0490702
0.0722198
-0.0365087
0.186757
0.136052
-0.23243
0.139534
0.141181
0.0888486
0.149104
0.0370733
0.151611
0.109293
0.14642
0.178256
-0.188624
0.105074
0.182527
0.0636876
0.190491
0.0242489
0.19105
0.133542
0.147425
0.213068
-0.182238
0.108766
0.221186
0.0668166
0.23244
0.0259733
0.231893
0.159515
0.110891
-0.135463
0.0820153
0.0498926
0.0181638
0.410526
0.0256632
-0.0402099
0.41482
0.0803752
-0.0846693
0.406846
0.14332
-0.135345
0.365336
0.203407
-0.161898
0.40731
-0.275578
0.407764
0.0138789
0.410053
0.078086
0.398931
0.154442
0.361338
0.241001
0.536218
0.402739
0.00711926
0.401309
0.0795165
0.383563
0.172188
0.352899
0.271664
0.700493
0.395837
0.00726158
0.387653
0.0877005
0.366814
0.193027
0.333112
0.305367
0.851367
0.387229
0.0160117
0.370902
0.104028
0.340139
0.22379
0.308294
0.337212
1.0242
0.615691
0.00434126
0.630866
0.0888535
0.665298
0.189357
0.729972
0.272538
0.842245
0.911925
0.61881
-0.0104484
0.643418
0.0642456
0.689837
0.142938
0.749644
0.212731
0.641697
0.950191
0.622238
-0.0286661
0.655455
0.0310282
0.704531
0.0938629
0.770926
0.146336
0.415782
0.996841
0.621358
-0.0460037
0.658352
-0.0059654
0.709357
0.0428578
0.785126
0.0705668
0.196201
1.00471
0.558017
0.552051
0.594909
0.665476
0.861676
0.94043
-0.194879
0.946894
-0.155758
0.949254
-0.106129
0.964088
-0.0676357
0.00578222
0.93114
-0.175828
0.91637
-0.140988
0.903503
-0.0932627
0.904003
-0.0681357
-0.00336764
0.944588
-0.123575
0.909118
-0.105518
0.886721
-0.0708655
0.87262
-0.054035
-0.0101446
0.940091
-0.0589585
0.888376
-0.0538024
0.858062
-0.0405516
0.83704
-0.0330128
-0.0130076
0.802718
0.748916
0.708364
0.675351
0.0522774
0.174894
-0.227171
0.0736525
0.367791
-0.389166
0.07081
0.41993
-0.417088
0.0616626
0.420819
-0.411671
0.389803
0.0492076
-0.377348
0.0863724
0.0885214
0.154712
0.299451
0.1826
0.392043
0.184712
0.418707
0.403696
0.170819
0.0796899
0.00883141
0.202391
0.17675
0.281628
0.312806
0.317755
0.38258
0.419946
0.301505
0.0449926
-0.0361612
0.179653
0.0420888
0.312071
0.180388
0.420244
0.274407
0.363738
0.476452
0.0225365
-0.0586977
0.111639
-0.0470141
0.24002
0.0520077
0.367012
0.147415
0.272686
0.458063
0.0198897
-0.0785874
0.0621001
-0.0892245
0.143137
-0.0290296
0.245249
0.0453035
0.166504
0.351431
0.0012183
-0.0798057
0.00459157
-0.0925978
0.0273842
-0.0518223
0.0667348
0.00595289
0.0870079
0.146231
-0.0254697
-0.054336
-0.0556585
-0.062409
-0.0692845
-0.0381963
-0.0603916
-0.00294002
0.0415719
-0.0149556
-0.0303368
-0.0239992
-0.0625057
-0.0302401
-0.0773312
-0.0233707
-0.0691152
-0.011156
0.00418606
-0.0317294
-0.0275247
-0.0545788
-0.0639708
-0.051179
-0.01541
0.311318
0.622024
-0.581911
0.321026
0.201791
-0.211499
0.351562
0.022031
-0.052567
0.378235
-0.0295751
0.00290264
-0.0244316
0.00625756
0.216743
0.551512
0.325411
0.0931231
0.36979
-0.0223483
0.388515
-0.0482998
-0.0341156
0.226101
0.310455
0.343369
-0.0241456
0.381025
-0.0600041
0.395274
-0.0625484
-0.037773
0.266338
0.0123879
0.35691
-0.114717
0.390348
-0.0934423
0.400693
-0.0728933
-0.0372139
0.287207
0.364384
0.395699
0.404428
0.263228
0.236163
-0.499391
0.311284
-0.0480551
0.349519
-0.0382353
0.367989
-0.01847
-0.00587121
0.869557
-1.2153
0.610002
0.5192
0.503633
0.0922519
-0.0110809
-0.081171
0.145379
-0.0531272
0.217447
-0.0720674
0.376148
-0.158701
-0.123243
0.215604
-0.177478
0.333296
0.562733
0.880484
0.134989
-0.138569
0.169293
-0.165713
0.103381
-0.146144
0.177752
0.0670618
-0.155643
0.191963
0.0272802
-0.156824
0.196605
-0.109664
0.136944
0.193047
-0.100991
-0.230624
0.148832
-0.101929
0.0964494
-0.103261
0.0408726
-0.101247
-0.068791
0.170178
-0.0513936
-0.219776
0.121421
-0.0531723
0.0741962
-0.0560359
0.0297732
-0.0568238
-0.0390178
0.191647
-0.00466964
-0.238371
0.142702
-0.00422729
0.0908101
-0.00414406
0.0377831
-0.00379687
-0.00123469
0.191869
-0.239279
0.142559
0.0906104
0.0377434
0.0606246
-0.355529
-0.0824433
0.0300448
-0.381091
0.00186104
-0.388904
-0.014074
-0.373231
-0.241245
0.148204
-0.319091
-0.184642
0.100538
-0.333426
0.0521894
-0.340556
0.0138712
-0.334912
-0.227374
0.173227
-0.271018
-0.2213
0.121063
-0.281261
0.0709771
-0.29047
0.0263937
-0.290329
-0.20098
0.18582
-0.225895
-0.230943
0.135025
-0.230467
0.0838449
-0.239289
0.0345785
-0.241063
-0.166402
0.173957
-0.230559
0.121242
0.0739153
0.0294579
0.390039
0.0785748
-0.0726341
0.372575
0.085495
-0.068031
0.334368
0.0642934
-0.0260867
0.309534
0.0183679
0.00646585
-0.204899
0.34872
0.398227
0.0763276
0.391126
0.0925963
0.363439
0.0919804
0.334325
0.0474819
-0.101199
0.404399
0.0679083
0.404457
0.0925377
0.382082
0.114355
0.350164
0.0794007
0.0291892
0.408784
0.055104
0.412034
0.0892872
0.399359
0.127031
0.359604
0.119155
0.150422
0.410874
0.415492
0.407177
0.364435
0.435959
0.074092
0.381653
0.0543056
0.366365
0.0152883
0.380937
-0.0145722
-0.174769
0.555706
0.511509
0.497783
0.486985
0.478879
0.65283
0.437561
0.118145
0.333089
0.104472
0.218049
0.11504
0.122855
0.0951939
0.0416844
0.540416
0.413945
0.307684
0.218237
)
;

boundaryField
{
    left
    {
        type            calculated;
        value           nonuniform List<scalar> 
17
(
-0.60402
-0.60402
-0.60402
-0.60402
-0.60402
-0.39598
-0.39598
-0.39598
-0.39598
-0.39598
-0.39598
-0.39598
-0.39598
-0.39598
-0.39598
-0.510051
-0.510051
)
;
    }
    right
    {
        type            calculated;
        value           nonuniform List<scalar> 
17
(
0.37386
0.504019
0.396409
0.398199
0.398931
0.400134
0.40165
0.403529
0.405747
0.408265
0.410984
0.414011
0.639808
0.64346
0.647745
0.640572
0.512678
)
;
    }
    down
    {
        type            calculated;
        value           uniform 0;
    }
    up
    {
        type            calculated;
        value           uniform 0;
    }
    cylinder
    {
        type            calculated;
        value           uniform 0;
    }
    defaultFaces
    {
        type            empty;
    }
}


// ************************************************************************* //
