# Selection   : all
# Cells       : 1800
# Volume      : 7.372328e+01
# Time        	max(p)
4.95          	1.196698e+00
4.975         	1.799721e+00
5             	1.852414e+00
