/*--------------------------------*- C++ -*----------------------------------*\
  =========                 |
  \\      /  F ield         | OpenFOAM: The Open Source CFD Toolbox
   \\    /   O peration     | Website:  https://openfoam.org
    \\  /    A nd           | Version:  13
     \\/     M anipulation  |
\*---------------------------------------------------------------------------*/
FoamFile
{
    format      ascii;
    class       volVectorField;
    location    "0.0975";
    object      U;
}
// * * * * * * * * * * * * * * * * * * * * * * * * * * * * * * * * * * * * * //

dimensions      [0 1 -1 0 0 0 0];

internalField   nonuniform List<vector> 
1800
(
(0.557335 -0.494608 1.12164e-19)
(1.16467 -0.999865 4.84834e-20)
(1.35572 -1.09987 -7.79472e-19)
(1.39237 -1.0683 5.59724e-19)
(1.39265 -1.00673 1.1156e-18)
(1.38607 -0.943895 4.44668e-19)
(1.37851 -0.885719 -2.23691e-19)
(1.37092 -0.832774 -5.94646e-19)
(1.36417 -0.782798 -3.04051e-19)
(1.34228 -0.737106 -2.42509e-19)
(0.6419 -0.485517 -2.93568e-20)
(1.32389 -0.975222 -1.17141e-18)
(1.52778 -1.06814 7.51908e-21)
(1.55796 -1.036 -4.05187e-19)
(1.54848 -0.975309 8.16859e-20)
(1.53247 -0.913466 1.05322e-18)
(1.51636 -0.855984 -7.6972e-19)
(1.50124 -0.803056 3.84318e-19)
(1.48717 -0.753071 6.3818e-19)
(1.46506 -0.712311 -3.22084e-19)
(0.726409 -0.464857 9.06007e-20)
(1.4798 -0.927643 3.33141e-19)
(1.6947 -1.01119 6.30159e-19)
(1.71814 -0.979504 -3.31829e-19)
(1.69918 -0.921336 -1.34152e-18)
(1.67415 -0.862257 2.89001e-19)
(1.64991 -0.807397 5.00505e-19)
(1.6275 -0.75695 -4.36508e-20)
(1.60685 -0.709772 -4.22218e-21)
(1.58019 -0.670577 -1.94267e-20)
(0.809115 -0.432617 -9.95069e-20)
(1.62872 -0.857725 -3.61331e-19)
(1.85232 -0.930016 -4.07401e-19)
(1.86878 -0.899909 4.34959e-20)
(1.84077 -0.845818 3.66635e-19)
(1.80726 -0.791038 2.47238e-20)
(1.7754 -0.740219 -2.05135e-20)
(1.74613 -0.69347 4.63354e-19)
(1.71918 -0.649865 3.8984e-19)
(1.68863 -0.614355 -1.40462e-19)
(0.888126 -0.389 1.75945e-19)
(1.7669 -0.766587 4.2045e-19)
(1.99652 -0.826212 -5.47855e-20)
(2.00597 -0.798944 -5.79405e-20)
(1.96956 -0.750431 -1.07815e-18)
(1.9283 -0.70143 8.56957e-21)
(1.88951 -0.65603 8.16862e-19)
(1.85404 -0.614271 2.55952e-19)
(1.82146 -0.575514 7.94886e-21)
(1.78746 -0.54419 -1.80758e-19)
(0.961431 -0.334481 -5.33197e-20)
(1.89065 -0.655921 1.09056e-18)
(2.1234 -0.702019 1.42941e-18)
(2.12604 -0.678921 -8.81429e-19)
(2.0821 -0.637339 -7.829e-19)
(2.03404 -0.595448 1.28068e-18)
(1.98919 -0.556684 -8.87087e-19)
(1.94829 -0.521034 -1.01588e-18)
(1.91086 -0.488095 7.03825e-19)
(1.87384 -0.46172 -1.04929e-20)
(1.02696 -0.269863 4.93714e-19)
(1.9965 -0.527997 -1.64166e-18)
(2.22943 -0.560281 -3.91398e-18)
(2.22577 -0.542683 1.39777e-18)
(2.17537 -0.509143 1.98538e-18)
(2.12163 -0.475517 -5.48355e-21)
(2.07178 -0.444432 -2.44143e-18)
(2.02641 -0.415844 1.85814e-20)
(1.985 -0.389545 2.18306e-18)
(1.9455 -0.368742 5.66114e-19)
(1.08269 -0.196338 -2.42652e-19)
(2.08128 -0.385659 8.92141e-19)
(2.31165 -0.404412 3.01543e-18)
(2.30248 -0.393571 -1.21007e-20)
(2.24688 -0.36887 -1.28009e-18)
(2.18874 -0.344481 -3.9418e-19)
(2.13507 -0.321924 0)
(2.0863 -0.301167 8.58163e-19)
(2.04192 -0.282162 -1.76935e-20)
(2.00055 -0.26748 -7.11399e-19)
(1.12679 -0.115424 -2.83109e-20)
(2.1423 -0.23221 2.27208e-18)
(2.36781 -0.238342 2.54032e-18)
(2.35414 -0.235295 -2.02025e-18)
(2.29463 -0.219847 -1.35499e-18)
(2.23352 -0.205487 3.887e-19)
(2.17733 -0.192084 -1.59319e-18)
(2.12633 -0.179723 -1.14986e-18)
(2.08002 -0.168472 1.29341e-18)
(2.03748 -0.160295 1.09192e-18)
(1.15773 -0.028844 3.66433e-19)
(2.17752 -0.071537 1.43593e-18)
(2.39672 -0.0665369 4.58943e-19)
(2.3792 -0.0716153 -2.85322e-18)
(2.3173 -0.0655328 -3.47421e-21)
(2.25475 -0.0618982 3.6907e-18)
(2.19741 -0.0580595 -1.9759e-18)
(2.14538 -0.0544346 -1.03012e-18)
(2.09817 -0.0511936 3.73086e-19)
(2.0552 -0.0496892 -8.13437e-19)
(0.0105988 -0.0930558 1.35843e-19)
(0.0732951 -0.191648 1.73846e-19)
(0.14484 -0.216995 -2.22829e-21)
(0.21526 -0.215836 -4.19759e-21)
(0.280145 -0.208245 -1.27487e-21)
(0.338698 -0.199865 -2.26625e-20)
(0.391515 -0.191919 6.82968e-21)
(0.439238 -0.184583 -1.89858e-20)
(0.48253 -0.177794 9.61892e-22)
(0.520324 -0.172446 -2.3752e-21)
(0.0260092 -0.15774 1.05342e-19)
(0.10494 -0.328482 1.59749e-19)
(0.180431 -0.370418 -1.33822e-19)
(0.250076 -0.365263 -4.20362e-20)
(0.31318 -0.348794 -4.81544e-20)
(0.369895 -0.331136 -5.09127e-20)
(0.421013 -0.314471 1.67737e-20)
(0.467206 -0.299096 -1.42211e-20)
(0.509066 -0.28488 3.74666e-21)
(0.54596 -0.27433 -6.46407e-21)
(0.0517409 -0.220095 3.27196e-20)
(0.158196 -0.459727 3.74563e-19)
(0.240454 -0.517231 8.91394e-20)
(0.308859 -0.508135 2.62844e-19)
(0.368991 -0.483138 3.79596e-20)
(0.422623 -0.456609 -1.94489e-19)
(0.470873 -0.431625 -2.16915e-20)
(0.514464 -0.408593 5.98647e-20)
(0.553877 -0.387348 -2.51635e-20)
(0.589271 -0.371836 -1.70635e-21)
(0.0874673 -0.278922 -9.88499e-20)
(0.232106 -0.582572 -9.0532e-20)
(0.323705 -0.654137 2.48272e-20)
(0.390345 -0.641194 -1.00862e-19)
(0.446323 -0.608183 4.23524e-20)
(0.495656 -0.573371 1.37231e-19)
(0.539907 -0.540645 3.66435e-20)
(0.579862 -0.510502 -6.97306e-21)
(0.615866 -0.482799 1.54287e-20)
(0.649158 -0.462651 -1.75838e-21)
(0.132733 -0.333035 0)
(0.325326 -0.694273 7.50973e-20)
(0.428485 -0.777934 5.33499e-19)
(0.492776 -0.761285 -2.81697e-19)
(0.543446 -0.720947 -4.63924e-19)
(0.587319 -0.678624 1.46163e-19)
(0.626497 -0.638909 -1.9019e-20)
(0.661835 -0.602366 -7.38276e-20)
(0.69354 -0.568943 0)
(0.724107 -0.544559 -6.26511e-21)
(0.186935 -0.381253 -3.88471e-20)
(0.436102 -0.792192 3.98851e-19)
(0.552593 -0.885589 1.76864e-19)
(0.613898 -0.865441 1.78544e-19)
(0.658167 -0.81863 -1.4331e-19)
(0.695502 -0.769746 -2.21777e-19)
(0.728612 -0.723957 3.73335e-19)
(0.758424 -0.681877 4.04409e-20)
(0.785013 -0.643615 -2.10249e-19)
(0.812181 -0.615434 -5.02236e-21)
(0.249291 -0.422399 4.85357e-20)
(0.562257 -0.873868 5.3522e-19)
(0.693334 -0.974333 1.42071e-20)
(0.750989 -0.950967 1.49429e-20)
(0.787862 -0.898694 2.53924e-19)
(0.817701 -0.844346 -3.10297e-19)
(0.843864 -0.793531 -3.00784e-19)
(0.867341 -0.746889 -2.49097e-19)
(0.888085 -0.704759 1.78211e-19)
(0.911094 -0.673193 1.90131e-19)
(0.318805 -0.455317 -1.10015e-19)
(0.701212 -0.937101 -2.40421e-19)
(0.847589 -1.04178 1.28046e-19)
(0.90093 -1.01555 -1.31134e-19)
(0.929554 -0.958955 2.68566e-19)
(0.951105 -0.900356 6.24429e-19)
(0.969608 -0.845647 4.21422e-19)
(0.986092 -0.795473 -3.1564e-19)
(1.00041 -0.75044 -1.47885e-19)
(1.01838 -0.715694 2.11207e-19)
(0.394271 -0.478923 -3.6258e-19)
(0.850069 -0.980057 -1.28942e-18)
(1.01192 -1.08603 1.13588e-18)
(1.06032 -1.05742 8.31301e-19)
(1.08004 -0.997764 -6.39112e-19)
(1.09273 -0.936255 6.77208e-19)
(1.10312 -0.878906 9.31783e-20)
(1.11221 -0.826369 -7.70886e-19)
(1.11986 -0.779335 -1.83558e-19)
(1.13143 -0.741047 2.39748e-19)
(0.474289 -0.492266 -8.23341e-20)
(1.00566 -1.00132 -1.08294e-18)
(1.18258 -1.10571 -4.77948e-19)
(1.22542 -1.07531 7.26183e-19)
(1.23567 -1.01402 5.6321e-19)
(1.23904 -0.951122 -6.08056e-19)
(1.24092 -0.892652 -4.91632e-19)
(1.24234 -0.839307 2.8753e-19)
(1.24352 -0.790952 -2.85926e-19)
(1.24486 -0.748082 -1.84673e-19)
(0.645418 -0.140219 -2.48965e-20)
(0.817506 -0.108723 4.68377e-20)
(0.891174 -0.0852105 1.83885e-20)
(0.935416 -0.0668103 -5.56504e-21)
(0.961045 -0.0517629 3.12093e-21)
(0.976205 -0.0392413 6.58799e-21)
(0.985415 -0.028745 4.46904e-21)
(0.991039 -0.0198303 -3.52766e-21)
(0.994306 -0.0121297 9.8513e-22)
(0.996223 -0.00429034 3.44947e-21)
(0.662641 -0.202823 4.59668e-20)
(0.826595 -0.14248 -2.83049e-20)
(0.898055 -0.103277 3.35312e-21)
(0.940655 -0.0768285 1.14071e-20)
(0.965242 -0.0575519 2.58907e-20)
(0.979641 -0.0426805 0)
(0.988267 -0.0308151 4.72103e-21)
(0.993455 -0.0210586 2.70064e-21)
(0.996427 -0.0128052 5.83598e-22)
(0.998131 -0.00451477 -2.80437e-21)
(0.691009 -0.263636 -2.20564e-20)
(0.839876 -0.175523 1.93175e-21)
(0.907297 -0.121153 -5.60124e-21)
(0.947103 -0.0867828 -8.24797e-21)
(0.970092 -0.0632854 -4.25891e-21)
(0.983456 -0.0460598 6.55871e-21)
(0.991352 -0.0328266 0)
(0.996025 -0.0222376 0)
(0.998658 -0.013446 2.19656e-21)
(1.00013 -0.00472652 0)
(0.730153 -0.32159 -2.28383e-20)
(0.85738 -0.207342 -1.23431e-20)
(0.918815 -0.138632 7.89253e-21)
(0.95475 -0.0965785 0)
(0.975594 -0.0689112 -1.8989e-20)
(0.987645 -0.0493478 5.62468e-21)
(0.994662 -0.0347599 0)
(0.998738 -0.0233549 -8.38815e-21)
(1.00099 -0.0140449 0)
(1.0022 -0.00492315 -1.0085e-21)
(0.779546 -0.375682 -1.8912e-20)
(0.879174 -0.237505 1.41342e-20)
(0.932503 -0.155525 -4.91411e-21)
(0.963575 -0.106127 0)
(0.981739 -0.0743805 -9.5082e-21)
(0.992198 -0.0525141 -1.28477e-20)
(0.998186 -0.036595 7.14689e-21)
(1.00158 -0.0243977 1.61687e-21)
(1.00341 -0.0145942 1.91691e-22)
(1.00434 -0.00510192 3.43422e-21)
(0.838417 -0.424876 -4.83865e-19)
(0.905357 -0.265795 -4.41378e-20)
(0.948262 -0.171691 2.35656e-21)
(0.973553 -0.115349 -1.14989e-20)
(0.988518 -0.0796487 1.66954e-20)
(0.997105 -0.0555293 -5.21575e-21)
(1.00191 -0.038312 -1.85916e-20)
(1.00454 -0.0253526 1.25932e-20)
(1.0059 -0.0150862 -3.28392e-22)
(1.00653 -0.00525977 3.80159e-21)
(0.905607 -0.467893 -2.95789e-21)
(0.935957 -0.292328 2.54077e-20)
(0.966046 -0.187086 5.83173e-21)
(0.984652 -0.124195 4.29185e-22)
(0.995916 -0.0846808 8.18701e-21)
(1.00235 -0.058368 5.73314e-21)
(1.00583 -0.0398922 5.79407e-21)
(1.00761 -0.0262067 -5.8528e-21)
(1.00845 -0.0155125 -2.0458e-21)
(1.00876 -0.00539333 -2.50829e-21)
(0.979202 -0.503544 1.83029e-19)
(0.970393 -0.316536 3.86714e-20)
(0.985766 -0.201522 0)
(0.996822 -0.132586 -5.75226e-21)
(1.00391 -0.0894373 -7.40638e-21)
(1.00792 -0.0610068 2.56698e-21)
(1.00991 -0.0413197 1.42152e-20)
(1.01076 -0.0269484 -3.89881e-21)
(1.01104 -0.0158659 1.18062e-22)
(1.01102 -0.00549962 1.31885e-21)
(1.05539 -0.531482 -2.63096e-19)
(1.00637 -0.337697 -1.17821e-19)
(1.00624 -0.214747 1.14687e-20)
(1.00955 -0.14032 3.47969e-21)
(1.01227 -0.0937882 -1.7528e-21)
(1.01372 -0.0633746 1.23181e-20)
(1.01412 -0.0425585 -6.31922e-21)
(1.01397 -0.0275601 7.42984e-22)
(1.01365 -0.0161379 -4.51735e-21)
(1.01328 -0.00557975 -6.40451e-21)
(1.13124 -0.553348 1.71864e-19)
(1.03903 -0.359719 -1.10131e-19)
(1.0237 -0.229458 -7.30843e-21)
(1.02053 -0.148686 8.71934e-21)
(1.01978 -0.0982161 1.02659e-20)
(1.01914 -0.0655872 5.4177e-21)
(1.01819 -0.0435939 -1.6581e-22)
(1.01713 -0.028 0)
(1.01625 -0.016297 4.29892e-21)
(1.01553 -0.00561206 -3.58152e-22)
(1.26227 -0.535017 2.32271e-19)
(1.11753 -0.353646 5.35312e-20)
(1.06738 -0.229081 -1.73985e-20)
(1.04567 -0.14958 -1.66697e-21)
(1.0349 -0.0988974 -1.2932e-21)
(1.0287 -0.0658453 6.47132e-21)
(1.02454 -0.0435595 9.63087e-21)
(1.02162 -0.027839 3.87976e-23)
(1.01969 -0.016132 -1.97647e-21)
(1.0184 -0.00553329 1.86804e-21)
(1.31227 -0.459369 3.05897e-21)
(1.15927 -0.315649 6.4969e-20)
(1.09943 -0.212047 5.0149e-20)
(1.06792 -0.141485 -4.93237e-21)
(1.04982 -0.0944852 1.47669e-20)
(1.03874 -0.0631095 7.11059e-21)
(1.0315 -0.0417377 6.1749e-21)
(1.02667 -0.026632 -2.63969e-22)
(1.02364 -0.0154058 2.07454e-21)
(1.02171 -0.0052722 4.23915e-21)
(1.35766 -0.392353 -8.36278e-20)
(1.20147 -0.279634 -7.11532e-21)
(1.12994 -0.19292 5.3972e-22)
(1.08896 -0.130847 -1.16533e-36)
(1.06404 -0.0881183 3.89748e-21)
(1.04838 -0.0590513 -2.23037e-35)
(1.03819 -0.0390683 -5.73558e-21)
(1.03151 -0.0249048 -3.40504e-34)
(1.0274 -0.0143888 1.43948e-21)
(1.02484 -0.0049168 -4.18498e-21)
(1.38701 -0.326072 -1.48904e-34)
(1.23427 -0.241188 -1.3024e-20)
(1.15551 -0.170557 -1.80913e-20)
(1.10741 -0.11751 0)
(1.07687 -0.0798224 -8.04692e-21)
(1.05721 -0.0537015 -4.56593e-21)
(1.04436 -0.035567 2.65888e-22)
(1.03598 -0.0226651 -5.31614e-34)
(1.03087 -0.013085 7.77856e-22)
(1.02772 -0.00446723 4.16718e-21)
(1.40553 -0.264352 -3.75204e-20)
(1.25945 -0.202198 2.36138e-21)
(1.17649 -0.146084 0)
(1.12315 -0.10206 0)
(1.08807 -0.0698927 0)
(1.06505 -0.0472117 0)
(1.04987 -0.031315 -1.40232e-21)
(1.03999 -0.0199574 -5.99308e-34)
(1.03398 -0.0115172 1.41807e-21)
(1.03029 -0.00392978 5.16419e-34)
(1.41676 -0.207427 -2.07607e-23)
(1.27827 -0.163395 0)
(1.1932 -0.120228 0)
(1.13612 -0.0850044 0)
(1.09752 -0.0586347 0)
(1.07174 -0.0397585 0)
(1.05462 -0.0264135 2.64203e-21)
(1.04345 -0.0168391 1.69371e-21)
(1.03666 -0.00971598 1.40533e-21)
(1.03251 -0.00331389 4.37508e-21)
(1.42319 -0.154973 0)
(1.29184 -0.125164 -3.7171e-21)
(1.206 -0.0935009 -8.36691e-21)
(1.14635 -0.0667598 0)
(1.10512 -0.0463306 -5.02862e-21)
(1.07718 -0.0315207 -3.2304e-21)
(1.0585 -0.0209724 6.06586e-22)
(1.04629 -0.013376 -1.17363e-21)
(1.03887 -0.00771686 2.65049e-21)
(1.03433 -0.00263104 3.8841e-21)
(1.4265 -0.106108 1.23138e-21)
(1.301 -0.0875981 2.14473e-21)
(1.21513 -0.0662446 -7.15601e-23)
(1.15385 -0.0476631 5.33218e-36)
(1.11076 -0.0332343 -1.93293e-21)
(1.08126 -0.0226704 -2.87171e-35)
(1.06142 -0.0151022 2.53221e-21)
(1.04842 -0.00963487 7.87047e-21)
(1.04052 -0.00555558 1.2752e-21)
(1.03568 -0.00189123 -4.0508e-21)
(1.42465 -0.0614644 -2.64586e-21)
(1.30367 -0.0526007 4.17005e-21)
(1.21843 -0.0403006 5.79255e-21)
(1.15645 -0.0292071 0)
(1.11238 -0.0204516 3.41385e-21)
(1.08199 -0.0139832 2.2687e-21)
(1.06147 -0.0093252 3.9247e-21)
(1.04801 -0.00595133 8.90994e-22)
(1.03983 -0.00343125 3.52955e-22)
(1.03482 -0.00116773 4.1881e-21)
(1.3083 -0.0114506 0)
(1.20209 -0.0109297 0)
(1.12477 -0.00858805 0)
(1.06766 -0.0062721 0)
(1.02674 -0.00440968 0)
(0.998391 -0.00302333 0)
(0.979209 -0.00201941 2.45595e-21)
(0.966609 -0.00129036 -1.15035e-35)
(0.958943 -0.000737161 1.35676e-21)
(0.954265 -0.000245942 3.99221e-21)
(1.98123 -0.0442409 7.61984e-19)
(1.96653 -0.139292 5.03817e-20)
(1.93555 -0.231418 -9.47597e-20)
(1.88915 -0.318774 -3.05572e-19)
(1.82871 -0.399655 -8.57198e-20)
(1.75574 -0.472366 -1.40141e-19)
(1.67283 -0.535453 -3.84152e-19)
(1.579 -0.589382 1.05489e-19)
(1.48875 -0.621915 0)
(1.36353 -0.683068 5.19483e-20)
(1.90039 -0.0329327 2.39103e-19)
(1.88911 -0.104875 -2.77456e-19)
(1.86591 -0.175199 -4.79226e-20)
(1.83133 -0.242576 -1.23114e-19)
(1.78642 -0.305794 6.55229e-20)
(1.73173 -0.363772 1.38239e-19)
(1.67073 -0.414841 -8.47966e-20)
(1.59847 -0.462586 4.23444e-20)
(1.536 -0.485929 -6.05703e-20)
(1.43931 -0.550349 2.79291e-20)
(1.83478 -0.0254126 -1.00258e-19)
(1.82593 -0.082103 2.30247e-19)
(1.80753 -0.137539 1.49115e-19)
(1.78004 -0.190924 -2.3079e-19)
(1.74439 -0.241447 3.36051e-21)
(1.70092 -0.288497 2.37876e-19)
(1.65273 -0.330451 9.13554e-21)
(1.59538 -0.371477 8.04865e-22)
(1.54455 -0.392172 1.65799e-20)
(1.47319 -0.448574 2.55452e-20)
(1.78329 -0.0199515 -2.61779e-19)
(1.77602 -0.0639659 -4.48458e-20)
(1.76084 -0.107174 1.35806e-20)
(1.73817 -0.149022 -1.84375e-20)
(1.70882 -0.188914 -1.32952e-19)
(1.67317 -0.226485 -7.40516e-20)
(1.63352 -0.260354 1.30478e-19)
(1.58742 -0.294043 5.22199e-21)
(1.54442 -0.312292 1.16507e-20)
(1.49062 -0.357847 1.04184e-20)
(1.74299 -0.0154479 2.55454e-20)
(1.73683 -0.0492733 1.1193e-19)
(1.7239 -0.0825417 -1.49322e-20)
(1.7046 -0.114883 1.4207e-19)
(1.67961 -0.14588 -3.27675e-20)
(1.64947 -0.175297 -1.5576e-19)
(1.6157 -0.202081 2.31596e-20)
(1.57763 -0.228819 -6.31804e-20)
(1.54013 -0.244496 3.65868e-20)
(1.49797 -0.279799 2.16625e-20)
(1.71204 -0.0118509 -1.3674e-19)
(1.70666 -0.0371854 -5.21284e-20)
(1.69528 -0.0621556 -1.13833e-20)
(1.67831 -0.0865256 7.6679e-20)
(1.65633 -0.110015 1.72363e-19)
(1.62998 -0.132462 -4.21366e-20)
(1.60026 -0.15312 3.56123e-21)
(1.56765 -0.173742 -2.02059e-20)
(1.53404 -0.186729 -2.04534e-20)
(1.4995 -0.21324 -2.54019e-20)
(1.68909 -0.00887508 -3.83071e-20)
(1.68425 -0.0269457 -9.20405e-20)
(1.67396 -0.0447968 -1.16313e-19)
(1.65858 -0.062299 -1.85307e-19)
(1.63864 -0.0792837 5.12409e-20)
(1.61483 -0.0956478 3.77269e-20)
(1.58781 -0.110898 1.21402e-21)
(1.55879 -0.126166 3.18988e-20)
(1.52786 -0.136392 -3.56905e-20)
(1.49817 -0.15565 -1.56025e-20)
(1.67295 -0.00637029 5.28223e-20)
(1.66854 -0.0179694 1.08662e-20)
(1.65903 -0.0294577 1.12395e-20)
(1.64475 -0.0407967 -2.25874e-20)
(1.62618 -0.0519097 -1.98476e-20)
(1.60403 -0.0627479 -3.61516e-20)
(1.57872 -0.0730214 -2.27281e-20)
(1.55188 -0.0834409 4.0781e-20)
(1.52258 -0.0908317 -1.45856e-20)
(1.49578 -0.104192 4.41711e-21)
(1.65453 -0.00438149 -6.62222e-20)
(1.65094 -0.00996023 -1.73061e-20)
(1.6427 -0.0155277 1.04276e-19)
(1.63005 -0.0211256 -2.10396e-20)
(1.61333 -0.0267721 -2.35688e-20)
(1.59315 -0.0324892 3.93292e-20)
(1.56972 -0.0381075 -2.60009e-20)
(1.54483 -0.044174 1.76879e-20)
(1.51665 -0.0484806 -1.31335e-20)
(1.49203 -0.0574963 -2.6217e-20)
(1.4288 -0.00147724 4.89786e-20)
(1.42589 -0.00130595 4.12348e-20)
(1.42191 -0.00120246 3.98037e-20)
(1.41681 -0.00123019 6.26329e-20)
(1.41039 -0.00145068 -2.66546e-20)
(1.40264 -0.00189157 -4.05722e-20)
(1.39287 -0.00256694 1.42067e-20)
(1.38277 -0.00359568 1.83295e-21)
(1.3674 -0.00402868 -3.02685e-21)
(1.36057 -0.00817455 2.95564e-21)
(1.34296 0.711265 -4.77199e-20)
(1.3433 0.755748 2.7332e-20)
(1.34976 0.806065 -3.39292e-19)
(1.35671 0.862013 2.36158e-19)
(1.36424 0.922227 6.40598e-19)
(1.37206 0.98708 -1.50052e-19)
(1.37793 1.05628 -7.50809e-19)
(1.36505 1.11682 -6.24036e-20)
(1.24417 1.0773 -5.68948e-19)
(0.691734 0.647275 3.16111e-20)
(1.46936 0.691569 0)
(1.47707 0.733679 4.75689e-19)
(1.48712 0.782263 1.03491e-18)
(1.49916 0.836359 -5.97781e-19)
(1.51314 0.894977 -1.46038e-18)
(1.52856 0.958571 -1.40716e-19)
(1.54288 1.02671 -1.80289e-19)
(1.53671 1.08637 6.77888e-19)
(1.4071 1.04635 1.30104e-18)
(0.784509 0.627982 5.54318e-19)
(1.58228 0.659989 6.44804e-20)
(1.59772 0.700279 0)
(1.6148 0.746012 -6.8695e-20)
(1.63411 0.796414 6.2539e-19)
(1.65572 0.851331 5.34836e-20)
(1.67944 0.911387 -1.65871e-18)
(1.70258 0.976136 1.09102e-18)
(1.70307 1.03291 8.01038e-19)
(1.56438 0.992274 -1.19764e-18)
(0.873088 0.594534 -3.09853e-19)
(1.68507 0.610337 -8.92648e-20)
(1.7075 0.648367 -7.64295e-20)
(1.73197 0.690781 1.99313e-19)
(1.75888 0.737125 -2.5023e-19)
(1.78844 0.787692 -1.23564e-18)
(1.82067 0.843163 -9.51313e-19)
(1.85266 0.903177 1.11942e-18)
(1.85953 0.955793 8.15305e-19)
(1.71141 0.91494 0)
(0.95437 0.546991 0)
(1.77959 0.544329 -7.41877e-19)
(1.80785 0.579188 -1.20465e-18)
(1.8387 0.617536 -4.93401e-19)
(1.87243 0.659148 -3.69883e-20)
(1.90932 0.704526 0)
(1.94952 0.754338 1.53003e-19)
(1.98973 0.808359 1.80948e-19)
(2.0022 0.855779 2.31692e-19)
(1.84413 0.815441 -3.57285e-19)
(1.02578 0.486387 -9.31318e-20)
(1.86422 0.465071 8.52641e-19)
(1.89715 0.495646 -5.12685e-20)
(1.93325 0.528918 -1.01236e-18)
(1.97274 0.564838 0)
(2.01601 0.603975 0)
(2.06321 0.646945 0)
(2.11059 0.693684 1.45774e-18)
(2.12752 0.735022 -1.94211e-18)
(1.95901 0.696067 -1.79539e-18)
(1.08528 0.414434 1.95778e-19)
(1.93612 0.375019 -1.1648e-18)
(1.97274 0.4003 -2.41817e-18)
(2.01307 0.427506 -4.16146e-21)
(2.0573 0.456763 4.76713e-19)
(2.10584 0.488616 -4.57844e-20)
(2.15886 0.523562 1.16762e-18)
(2.21217 0.561789 -7.02187e-19)
(2.23236 0.596435 -2.49285e-18)
(2.05292 0.559867 1.63366e-19)
(1.13118 0.333179 1.42849e-19)
(1.99277 0.27631 -9.61935e-19)
(2.03223 0.295494 2.17616e-20)
(2.07581 0.315808 3.71629e-19)
(2.12371 0.337597 -3.52736e-19)
(2.17637 0.361304 5.35661e-19)
(2.23386 0.387209 1.65563e-18)
(2.29175 0.415503 -2.57059e-19)
(2.31389 0.443383 -1.49352e-18)
(2.12327 0.410633 5.19507e-19)
(1.16157 0.244933 1.43495e-19)
(2.03221 0.171113 3.48827e-19)
(2.0737 0.183612 1.04365e-19)
(2.11959 0.196397 -4.09213e-19)
(2.17009 0.210096 -8.76214e-19)
(2.22568 0.225152 1.17137e-19)
(2.28636 0.2412 1.31208e-19)
(2.34671 0.258085 -1.7338e-18)
(2.36978 0.27908 8.81628e-19)
(2.16812 0.253076 4.07212e-19)
(1.17577 0.153394 -3.13208e-19)
(2.05328 0.061666 7.17284e-19)
(2.09594 0.0670113 -1.06824e-18)
(2.14304 0.0718516 2.04778e-19)
(2.19493 0.0769719 2.24018e-18)
(2.25211 0.0827361 1.22434e-18)
(2.31449 0.0900923 -2.78268e-18)
(2.37627 0.0942346 -3.31607e-18)
(2.39774 0.106772 2.11548e-18)
(2.1862 0.091622 -1.46562e-20)
(1.17427 0.0615352 -8.09001e-20)
(0.531862 0.173369 -2.26115e-19)
(0.50049 0.179316 -2.05934e-19)
(0.459141 0.185823 1.33939e-19)
(0.411588 0.192893 -4.54745e-19)
(0.359781 0.200565 -6.8164e-20)
(0.302865 0.20895 3.93787e-19)
(0.239603 0.217976 1.29363e-19)
(0.169206 0.22549 -1.01827e-19)
(0.0946186 0.21611 -2.82764e-20)
(0.0173885 0.13191 4.10678e-20)
(0.556367 0.271507 1.83465e-19)
(0.525887 0.283927 2.78711e-19)
(0.48587 0.297614 3.62699e-20)
(0.439823 0.312506 -1.34994e-19)
(0.389662 0.328632 -4.33521e-19)
(0.33458 0.346223 4.03255e-20)
(0.273335 0.365184 3.11663e-19)
(0.204697 0.381666 -2.46498e-20)
(0.128866 0.368234 -9.47043e-21)
(0.0379478 0.224148 -1.04055e-21)
(0.597649 0.365534 -2.09143e-19)
(0.568761 0.384158 -2.39977e-19)
(0.531052 0.404641 2.07128e-19)
(0.487575 0.426949 2.03956e-19)
(0.440196 0.451108 -6.4137e-20)
(0.388192 0.477459 -1.96927e-19)
(0.330314 0.505882 -8.75062e-20)
(0.264573 0.530895 9.25383e-20)
(0.186423 0.513524 -1.85682e-20)
(0.0722568 0.312061 9.23874e-21)
(0.654564 0.453274 1.24016e-19)
(0.627946 0.477722 1.47307e-20)
(0.593487 0.504453 -1.66265e-19)
(0.553611 0.533595 1.57978e-19)
(0.510116 0.565187 -1.15857e-19)
(0.462399 0.599659 6.29014e-20)
(0.409195 0.636858 -5.26564e-20)
(0.34746 0.669765 -1.11127e-19)
(0.265977 0.648657 -1.9556e-19)
(0.119547 0.393764 5.68739e-20)
(0.725571 0.532625 -4.44806e-20)
(0.701882 0.562422 -2.1735e-20)
(0.671571 0.594695 -4.41007e-20)
(0.63628 0.629929 -1.13521e-19)
(0.597719 0.668185 4.5831e-20)
(0.555433 0.70996 -1.59494e-19)
(0.508124 0.755058 2.344e-19)
(0.45142 0.795039 7.66262e-20)
(0.365983 0.770354 2.741e-19)
(0.178951 0.467237 2.26163e-19)
(0.808797 0.601567 2.76054e-20)
(0.788649 0.636139 -2.37874e-20)
(0.763314 0.673109 2.27467e-19)
(0.733527 0.713543 9.10737e-20)
(0.700891 0.757548 1.33351e-19)
(0.66511 0.805654 2.19698e-20)
(0.624832 0.857613 2.91545e-19)
(0.574107 0.903702 1.69085e-19)
(0.484245 0.875589 1.82217e-19)
(0.249053 0.530451 1.94648e-19)
(0.902095 0.658376 -9.62471e-20)
(0.886081 0.697043 2.02177e-19)
(0.8665 0.737717 8.63695e-20)
(0.843087 0.782303 -3.26079e-20)
(0.817296 0.83099 -2.54424e-20)
(0.788994 0.884305 3.80644e-19)
(0.756753 0.941936 -1.00501e-19)
(0.712827 0.993027 -2.45707e-19)
(0.618045 0.961655 -4.11024e-20)
(0.328058 0.5817 2.42523e-19)
(1.0023 0.701254 1.43001e-19)
(0.990868 0.742936 5.60358e-20)
(0.97781 0.786165 -4.91686e-19)
(0.961727 0.833846 1.7314e-21)
(0.943787 0.886169 2.24567e-19)
(0.923977 0.943574 -2.24679e-19)
(0.900753 1.00565 -3.08724e-20)
(0.864364 1.06059 -1.1867e-19)
(0.764165 1.02622 1.62865e-20)
(0.413894 0.619623 -2.68109e-19)
(1.10887 0.728167 2.61114e-20)
(1.10315 0.772317 -3.38448e-19)
(1.09743 0.816919 -2.25829e-21)
(1.08917 0.866461 2.32826e-19)
(1.0794 0.921247 -2.09969e-19)
(1.06842 0.981557 4.6071e-19)
(1.05459 1.04685 3.68739e-19)
(1.02597 1.10452 -6.94277e-19)
(0.919586 1.06763 -7.1365e-20)
(0.504555 0.643416 -3.35714e-19)
(1.20186 0.736561 -1.61157e-19)
(1.20658 0.782949 -1.67395e-19)
(1.21307 0.828559 2.19703e-19)
(1.2161 0.879235 3.81457e-19)
(1.21704 0.9355 1.79165e-19)
(1.21672 0.997512 -3.84248e-19)
(1.21354 1.06465 -1.36626e-20)
(1.19336 1.12382 1.50998e-19)
(1.08038 1.08489 -3.11663e-19)
(0.597722 0.652601 -2.5507e-19)
(0.645113 0.0243074 3.61137e-20)
(1.21873 0.0322598 -2.78295e-20)
(0.920366 0.0366863 1.31007e-20)
(0.991421 0.0406736 0)
(0.980599 0.048077 2.5509e-20)
(0.964063 0.0582251 2.85637e-20)
(0.93909 0.0714382 3.59948e-20)
(0.89408 0.0883062 7.28801e-20)
(0.828409 0.111109 -1.04799e-19)
(0.655261 0.141736 -1.15959e-19)
(0.644905 0.0227602 4.41392e-20)
(1.21925 0.0326385 -1.00654e-19)
(0.921233 0.0394957 -3.90465e-21)
(0.993258 0.0426587 -1.14812e-20)
(0.983225 0.0514617 1.16013e-20)
(0.96763 0.0638922 -1.52932e-20)
(0.943774 0.0811652 -9.10128e-20)
(0.900718 0.10549 0)
(0.836861 0.144312 2.31789e-19)
(0.674145 0.202646 -2.59967e-19)
(0.644529 0.0211547 -9.55393e-20)
(1.21988 0.0328813 2.2078e-20)
(0.921959 0.0420845 2.27246e-20)
(0.99537 0.0444675 1.88598e-20)
(0.986222 0.0547037 -2.75191e-20)
(0.971828 0.0694435 -6.73607e-22)
(0.949571 0.0907871 -6.48982e-20)
(0.909774 0.122525 -6.16986e-21)
(0.849138 0.17683 2.94327e-22)
(0.705208 0.261807 6.55057e-19)
(0.64398 0.0196352 1.54767e-20)
(1.22059 0.0329922 1.56923e-20)
(0.922556 0.0443923 2.90631e-20)
(0.997775 0.0460764 1.38641e-20)
(0.9896 0.057781 -1.51567e-20)
(0.976664 0.074838 -1.80904e-20)
(0.956506 0.100227 9.72581e-20)
(0.921149 0.139259 -1.93653e-21)
(0.865415 0.208256 -2.85531e-19)
(0.747818 0.318116 6.84714e-20)
(0.643242 0.018308 -6.34931e-21)
(1.22132 0.0329619 -5.54737e-20)
(0.923037 0.0463549 -2.52298e-20)
(1.0005 0.0474703 4.67706e-21)
(0.993367 0.0606749 0)
(0.982143 0.0800391 0)
(0.964602 0.109422 8.29276e-20)
(0.934737 0.155568 5.64301e-22)
(0.885917 0.238408 -1.39484e-19)
(0.801094 0.3704 9.67086e-20)
(0.642292 0.0172741 -1.03553e-20)
(1.22198 0.0327675 5.54134e-20)
(0.923425 0.0479037 -3.36966e-20)
(1.00357 0.0486456 -3.63035e-20)
(0.997525 0.0633704 -1.69589e-21)
(0.988267 0.0850156 7.22121e-20)
(0.97388 0.118324 1.29233e-19)
(0.95048 0.171357 -7.11938e-22)
(0.910836 0.267457 2.33596e-19)
(0.863914 0.417406 -2.04877e-19)
(0.641098 0.016643 -2.94331e-20)
(1.22246 0.0323695 2.20394e-20)
(0.923751 0.0489662 9.70512e-21)
(1.00702 0.0496143 -5.58268e-20)
(1.00207 0.065854 4.30402e-21)
(0.995037 0.0897418 -1.15425e-21)
(0.984357 0.126901 -7.58084e-21)
(0.968418 0.186524 -2.23618e-19)
(0.94018 0.294801 1.78018e-19)
(0.934928 0.458426 -4.66899e-19)
(0.63962 0.0165245 2.91075e-20)
(1.22266 0.0317039 -8.8045e-20)
(0.924061 0.0494675 1.11376e-21)
(1.01089 0.0504062 4.88688e-20)
(1.00698 0.0681055 1.88549e-21)
(1.00245 0.0941848 -8.31948e-20)
(0.996055 0.135101 -7.05937e-20)
(0.988444 0.201011 4.01906e-19)
(0.974218 0.319332 1.00731e-20)
(1.01235 0.49461 7.49711e-19)
(0.637805 0.0170677 -2.41275e-20)
(1.22247 0.0306966 4.19655e-20)
(0.924424 0.0493238 -5.06219e-20)
(1.01519 0.0510475 -5.17129e-20)
(1.01222 0.0700504 -9.89097e-20)
(1.01046 0.0981653 1.8806e-21)
(1.00889 0.14241 -9.73299e-20)
(1.01038 0.213333 5.21694e-19)
(1.0138 0.336505 -6.57191e-21)
(1.09439 0.519762 -1.0298e-18)
(0.635658 0.0183616 1.55773e-20)
(1.22225 0.0294936 6.73655e-20)
(0.92487 0.0484648 2.3116e-20)
(1.0198 0.0514855 -1.18763e-19)
(1.01726 0.0717003 -8.96864e-20)
(1.01772 0.102116 -6.93893e-20)
(1.01962 0.150542 -1.74633e-19)
(1.02712 0.22876 -4.93942e-19)
(1.04518 0.360899 -2.8294e-19)
(1.16368 0.559445 -1.18236e-18)
(0.637519 0.0188461 -4.36357e-20)
(1.22367 0.0278882 -1.40045e-20)
(0.927016 0.0459082 -1.49955e-20)
(1.02517 0.0511643 -4.59492e-21)
(1.02577 0.071368 5.711e-20)
(1.03152 0.102279 -4.76689e-20)
(1.04243 0.150775 1.58026e-19)
(1.06562 0.226903 -4.92501e-19)
(1.10917 0.347799 -2.00973e-19)
(1.24989 0.532191 6.52434e-19)
(0.637964 0.0172515 3.88061e-20)
(1.22706 0.0261078 1.9286e-20)
(0.93123 0.0415855 2.44167e-20)
(1.03009 0.0490984 4.10211e-20)
(1.03514 0.068408 8.55975e-20)
(1.04611 0.0982211 1.36544e-19)
(1.06504 0.144038 3.29668e-20)
(1.10028 0.213708 2.61852e-19)
(1.15769 0.316236 3.39944e-19)
(1.31239 0.465757 -2.48146e-20)
(0.638198 0.01508 -4.3383e-20)
(1.23034 0.0238072 -1.34054e-20)
(0.935489 0.0372142 -3.40959e-20)
(1.03517 0.0457897 2.37683e-20)
(1.04413 0.0639097 2.32293e-34)
(1.05984 0.091666 -9.84993e-21)
(1.08566 0.133402 -6.10031e-34)
(1.13025 0.194771 2.16808e-20)
(1.19757 0.279054 -5.58409e-20)
(1.35653 0.395863 -4.58378e-20)
(0.638472 0.0122204 5.97892e-20)
(1.23337 0.0208736 -1.3239e-34)
(0.939522 0.0326161 3.38675e-20)
(1.0401 0.041463 -1.751e-20)
(1.05241 0.058055 -3.35564e-20)
(1.07227 0.0831109 -4.43205e-20)
(1.10381 0.120002 -7.62178e-34)
(1.15531 0.17258 -1.12492e-19)
(1.22925 0.240312 -1.47879e-19)
(1.38538 0.329541 8.73843e-20)
(0.638824 0.00867064 0)
(1.23624 0.0173755 1.76839e-35)
(0.943261 0.0277574 0)
(1.04471 0.0362807 0)
(1.05981 0.0509985 0)
(1.08317 0.0728511 0)
(1.11932 0.104397 -4.57174e-34)
(1.17572 0.148089 0)
(1.2538 0.201277 -2.19609e-20)
(1.40298 0.267652 5.36591e-20)
(0.639284 0.00445257 4.57896e-20)
(1.23906 0.0133976 -3.25067e-21)
(0.946663 0.0226689 3.31701e-20)
(1.04882 0.0304001 0)
(1.06618 0.0429249 0)
(1.09238 0.0611954 8.37787e-21)
(1.13211 0.0871029 3.17026e-20)
(1.1919 0.122081 -1.60322e-20)
(1.2723 0.162636 -3.29297e-20)
(1.41316 0.210342 1.98345e-19)
(0.639891 -0.000600663 -2.54846e-20)
(1.24194 0.00903692 5.46657e-21)
(0.949694 0.017437 3.27445e-20)
(1.0523 0.02398 -5.61991e-21)
(1.0714 0.034031 -1.13263e-20)
(1.0998 0.0484422 -8.6413e-21)
(1.14222 0.0685605 -2.3573e-20)
(1.20424 0.0951391 -4.51665e-20)
(1.28574 0.124718 -5.97588e-20)
(1.41865 0.157398 9.83458e-20)
(0.640709 -0.00573624 -6.19612e-20)
(1.24505 0.00430098 -3.17671e-20)
(0.95231 0.0121875 3.14627e-20)
(1.05502 0.017186 -1.66928e-20)
(1.07537 0.024518 1.19046e-34)
(1.10536 0.034873 9.03182e-21)
(1.14966 0.0491336 -1.10532e-33)
(1.21307 0.0676373 -1.62319e-20)
(1.29491 0.0875063 2.10379e-20)
(1.42128 0.107921 2.75375e-20)
(0.641037 -0.0149889 1.98251e-19)
(1.24636 0.000274665 -1.15198e-20)
(0.95288 0.00682345 3.17556e-20)
(1.05522 0.0106437 2.7654e-21)
(1.07635 0.0151147 4.37895e-21)
(1.10737 0.0214877 1.62065e-20)
(1.15286 0.0301605 9.2781e-21)
(1.21706 0.04125 -5.35377e-21)
(1.2988 0.0527845 -2.32842e-20)
(1.42048 0.0635018 1.40094e-19)
(0.609662 -0.012841 4.97006e-20)
(1.15966 -0.004714 -1.15724e-34)
(0.875537 0.00289092 3.11291e-20)
(0.974945 0.0020265 0)
(0.994238 0.00329711 0)
(1.02359 0.00472322 9.28327e-21)
(1.06653 0.00662209 -1.02746e-35)
(1.12663 0.00907336 -1.61538e-20)
(1.20266 0.0114882 -3.11325e-20)
(1.31153 0.0132044 6.12471e-20)
(1.39835 0.617418 -1.87951e-19)
(1.48049 0.615139 -2.90594e-19)
(1.57292 0.587511 0)
(1.66042 0.539291 8.38878e-20)
(1.74165 0.477063 4.21165e-19)
(1.81499 0.404671 -1.6176e-19)
(1.87754 0.324234 1.29455e-18)
(1.92687 0.237405 -3.99936e-20)
(1.96131 0.145865 -3.64658e-19)
(1.97955 0.051558 3.05157e-19)
(1.44279 0.507945 6.50856e-20)
(1.50869 0.497079 1.17675e-19)
(1.58712 0.463695 8.80344e-23)
(1.6595 0.41858 1.50419e-19)
(1.72312 0.366806 -1.42521e-19)
(1.77855 0.309478 -3.83092e-19)
(1.8249 0.247177 -6.03113e-20)
(1.86101 0.180685 5.49049e-19)
(1.886 0.111023 -1.76712e-20)
(1.89931 0.0393505 -4.47459e-19)
(1.47264 0.408216 1.0755e-19)