/*--------------------------------*- C++ -*----------------------------------*\
  =========                 |
  \\      /  F ield         | OpenFOAM: The Open Source CFD Toolbox
   \\    /   O peration     | Website:  https://openfoam.org
    \\  /    A nd           | Version:  13
     \\/     M anipulation  |
\*---------------------------------------------------------------------------*/
FoamFile
{
    format      ascii;
    class       volScalarField;
    location    "34";
    object      p;
}
// * * * * * * * * * * * * * * * * * * * * * * * * * * * * * * * * * * * * * //

dimensions      [0 2 -2 0 0 0 0];

internalField   nonuniform List<scalar> 
440
(
-0.574528
-0.560721
-0.568076
-0.524293
-0.57757
-0.61868
-0.601897
-0.581738
-0.555594
-0.535087
-0.722475
-0.690855
-0.653611
-0.606962
-0.553483
-0.849799
-0.802658
-0.7198
-0.620277
-0.519761
-0.941021
-0.878073
-0.736407
-0.588603
-0.451976
-1.19321
-1.20807
-1.24215
-1.29844
-1.37461
-1.03698
-1.05969
-1.11059
-1.19216
-1.29943
-0.816114
-0.810703
-0.802779
-0.788778
-0.764704
-0.631916
-0.625505
-0.609714
-0.576272
-0.529376
-0.504394
-0.500081
-0.48195
-0.431811
-0.372573
-1.40303
-1.50274
-1.04309
0.454128
-0.0127091
-1.00738
-1.24173
-0.927497
0.318424
-0.0135965
-0.715457
-1.04305
-0.773383
0.133322
-0.0410691
-0.507072
-1.11454
-0.636617
0.0304665
-0.0825956
-0.358374
-1.18391
-0.532866
-0.0092684
-0.0697575
-0.135847
-1.10554
-0.396743
-0.0537709
-0.0318706
-0.0215969
-0.786661
-0.227702
-0.0595631
-0.0607421
0.0510201
-0.522917
-0.187578
-0.0322055
-0.0220088
0.0979224
-0.343861
-0.173049
-0.051877
-0.0440225
0.186624
-0.231358
-0.205281
-0.0543016
-0.0295046
-0.214084
-0.3318
-0.450487
-0.586582
-0.646156
0.0230785
-0.0920264
-0.151651
-0.188275
-0.176262
0.176355
0.0870989
0.0300264
-0.00146254
-0.0203935
0.27372
0.190546
0.125323
0.0923985
0.0674445
0.319262
0.234043
0.16986
0.141587
0.131068
1.02149
0.876639
0.694482
0.493185
0.272884
0.633334
0.478519
0.289395
0.0762242
-0.158901
0.246751
0.0886368
-0.107716
-0.329985
-0.541735
-0.082046
-0.244134
-0.440652
-0.652332
-0.815614
-0.312124
-0.46936
-0.649387
-0.83671
-0.942401
2.1225
2.15449
2.18481
2.20192
2.20152
1.94275
1.965
1.98279
1.98414
1.96453
1.72785
1.71782
1.68618
1.63302
1.55525
1.48352
1.45107
1.38442
1.28805
1.16458
1.25399
1.15673
1.02931
0.881616
0.704239
1.87342
1.86837
1.84491
1.91712
2.00069
1.8647
1.858
1.82796
1.89997
1.92005
1.85706
1.84445
1.808
1.87109
1.81554
1.8507
1.82844
1.78648
1.82651
1.65787
1.84562
1.81166
1.76411
1.78217
1.4898
1.84218
1.78635
1.73532
1.67696
1.29546
1.84285
1.75755
1.73225
1.5652
1.37477
1.84742
1.74499
1.73205
1.5039
1.40255
1.84762
1.71779
1.72968
1.443
1.40895
1.88377
1.71365
1.72905
1.4079
1.43336
1.00088
0.721801
0.398843
0.125635
-0.0707393
0.918066
0.722633
0.5077
0.317061
0.148644
0.91251
0.744947
0.58394
0.429985
0.293931
0.953583
0.794465
0.647987
0.509507
0.387362
0.997808
0.839597
0.694044
0.556962
0.433066
-1.76553
-1.58313
-1.38035
-1.21041
-1.10552
-1.87073
-1.77586
-1.60038
-1.43904
-1.3232
-1.81332
-1.75125
-1.61683
-1.47611
-1.3478
-1.67091
-1.62025
-1.54028
-1.43634
-1.32077
-1.51621
-1.49235
-1.45043
-1.3829
-1.28236
-1.41932
-1.41316
-1.38949
-1.39418
-1.28774
-1.35423
-1.35648
-1.34522
-1.37309
-1.28863
-1.2636
-1.26008
-1.25336
-1.26382
-1.23013
-1.19628
-1.17802
-1.15638
-1.13807
-1.12506
-1.19231
-1.18194
-1.17339
-1.17316
-1.18246
-0.771764
-0.987205
0.126575
0.44426
0.0520065
-0.821505
-1.02955
0.0725201
0.512689
0.0451005
-0.967595
-1.24698
-0.467544
0.557043
0.0134826
-1.27326
-1.6395
-0.929086
0.557764
0.00208867
-1.50519
-1.75189
-1.05306
0.528454
-0.00530658
-0.475185
-1.11369
0.0394296
0.359395
0.0668264
-0.726833
-1.00583
0.111881
0.400031
0.0686386
-1.04491
-1.23543
-1.23885
-1.11719
-0.886635
-1.06691
-1.25819
-1.25567
-1.16668
-1.05278
1.69149
1.66289
1.61581
1.55105
1.46516
1.90041
1.91791
1.9192
1.90221
1.86732
2.07816
2.10953
2.13312
2.14387
2.13973
2.18458
2.22362
2.26464
2.29746
2.31178
2.19806
2.23567
2.27749
2.31236
2.32852
-0.617851
-0.739458
-0.92888
-1.15428
-1.42604
0.021932
-0.126258
-0.323433
-0.562132
-0.869913
0.611646
0.459146
0.275489
0.0581501
-0.217477
1.08563
0.966167
0.82153
0.645932
0.43084
1.46552
1.38139
1.27208
1.14102
0.985614
1.93172
1.89258
1.87163
1.87124
1.86535
1.91703
1.89078
1.87255
1.89256
1.9395
1.90471
1.88776
1.87283
1.91623
2.0239
1.89336
1.88332
1.8677
1.92642
2.04038
1.88291
1.87729
1.85808
1.9269
2.03923
1.98663
1.89692
1.85655
1.79012
1.72237
1.94159
1.88828
1.85255
1.81362
1.7387
1.34272
1.09698
0.677814
0.0741382
-0.578402
1.42944
1.1327
0.69518
0.0950932
-0.572239
)
;

boundaryField
{
    left
    {
        type            zeroGradient;
    }
    right
    {
        type            fixedValue;
        value           uniform 0;
    }
    down
    {
        type            zeroGradient;
    }
    up
    {
        type            zeroGradient;
    }
    cylinder
    {
        type            zeroGradient;
    }
    defaultFaces
    {
        type            empty;
    }
}


// ************************************************************************* //
