/*--------------------------------*- C++ -*----------------------------------*\
  =========                 |
  \\      /  F ield         | OpenFOAM: The Open Source CFD Toolbox
   \\    /   O peration     | Website:  https://openfoam.org
    \\  /    A nd           | Version:  13
     \\/     M anipulation  |
\*---------------------------------------------------------------------------*/
FoamFile
{
    format      ascii;
    class       surfaceScalarField;
    location    "34";
    object      phi;
}
// * * * * * * * * * * * * * * * * * * * * * * * * * * * * * * * * * * * * * //

dimensions      [0 3 -1 0 0 0 0];

internalField   nonuniform List<scalar> 
823
(
-0.00433424
0.0168584
-0.0125242
0.0077494
0.00980363
-0.0218873
0.0606876
-0.0352272
-0.017711
0.151666
-0.0950879
0.00410942
-0.128074
-0.00265548
0.282395
0.0061938
0.0106646
0.0539608
-0.0379634
0.145461
-0.126727
0.257845
-0.207472
-0.278878
0.408649
0.0234998
-0.0128352
0.109795
-0.124258
0.221139
-0.238072
0.327916
-0.314249
-0.357814
0.406852
0.0442815
-0.0571167
0.139875
-0.219852
0.222508
-0.320705
0.272464
-0.364204
-0.378039
0.292689
0.0566332
-0.11375
0.125926
-0.289145
0.164953
-0.359732
0.180194
-0.379445
0.188708
-0.386553
0.0115218
-0.0455945
0.0340727
0.0201809
-0.0617444
0.0530853
0.036267
-0.0622415
0.0461554
0.0656683
-0.0535147
0.0241134
-0.0296104
0.105675
-0.0103962
-0.00767168
-0.0379229
-0.0271413
-0.0422748
-0.0488822
-0.0405005
-0.0624576
-0.0399394
-0.0274732
-0.0645948
-0.0084101
-0.0295128
-0.0243584
-0.0263265
-0.0512594
-0.0135996
-0.0844801
-0.00671871
0.0030779
-0.115031
-0.0166734
-0.0128393
-0.037735
-0.00526486
-0.0580663
0.00673173
-0.076815
0.0120299
0.0189089
-0.0926459
-0.0253635
-0.0525156
-0.0634949
-0.0473556
-0.0311022
0.404836
1.61681
-1.91597
0.448645
0.201328
-0.245136
0.452409
-1.93285
1.92908
0.517766
-0.868841
0.803484
-0.0486534
0.0357349
0.343408
1.2088
0.607403
-0.0626669
0.61136
-1.93681
0.558607
-0.816088
-0.0267001
0.248139
0.845634
0.632764
-0.447291
0.599133
-1.90318
0.570324
-0.787278
0.00866086
0.246204
0.506784
0.617961
-0.819049
0.534076
-1.81929
0.506277
-0.759479
0.0154391
0.301349
0.174333
0.599338
-1.11704
0.510106
-1.73006
0.431644
-0.681017
0.00691888
1.22645
0.0604067
-1.11253
1.35965
-1.25023
0.978157
-1.34857
0.697414
-0.400274
0.02506
1.49504
-0.0599984
-1.37463
1.30903
-1.06422
0.731143
-0.770681
0.5328
-0.201931
-0.0786756
1.42964
-0.155336
-1.3343
1.1529
-0.787485
0.76382
-0.381602
0.666061
-0.104172
-0.132852
1.33162
-0.200504
-1.28645
0.906002
-0.36187
0.633569
-0.10917
0.61731
-0.0879121
-0.0858168
0.687368
-0.887873
0.325498
0.216328
0.128416
1.08667
0.14448
-1.04244
1.14841
0.230951
1.25307
0.302191
1.25888
0.402841
0.428743
1.01103
0.0830447
-0.949595
1.07722
0.164765
1.17403
0.205374
1.27191
0.304964
0.326022
0.944766
0.0439603
-0.905682
1.00896
0.10057
1.09007
0.124264
1.20921
0.185821
0.200937
0.896867
0.0129158
-0.865822
0.962293
0.0351439
1.04067
0.0458825
1.15989
0.0666017
0.0743831
0.665861
-0.652946
0.701005
0.746888
0.81349
0.124541
0.294779
-0.243909
-0.175411
0.0817522
0.299704
-0.256915
0.0442112
0.309595
-0.272054
0.0138971
0.299265
-0.268951
0.190502
-0.176605
0.0931164
0.330865
-0.129202
0.0583813
0.334439
0.0283672
0.33961
0.00531005
0.322322
0.195812
0.0567348
0.362445
-0.0883153
0.0277018
0.363472
0.00369208
0.363619
-0.00746748
0.333481
0.188345
-0.014362
0.379069
-0.00226183
-0.0302
0.37931
-0.0368282
0.370247
-0.0272828
0.323936
0.161062
-0.0924831
0.0849996
-0.0926184
-0.0821029
-0.0473119
0.203822
0.0990321
-0.257521
-0.0453331
0.149345
0.102771
-0.0482941
0.0932731
0.10703
-0.0509581
0.0382092
0.106556
-0.0514924
0.0749158
-0.0367066
0.199241
0.144003
-0.244212
0.151453
0.150559
0.0984842
0.159999
0.0420429
0.162998
0.116959
0.141494
0.18916
-0.186651
0.0995556
0.192497
0.0591102
0.200445
0.0214968
0.200611
0.138456
0.153436
0.22222
-0.186496
0.113859
0.232074
0.0697305
0.244573
0.0269041
0.243438
0.16536
0.0890802
-0.110769
0.0642395
0.0367583
0.0112452
0.406028
0.0477852
-0.0578333
0.428669
0.00602815
-0.0286691
0.411636
0.197375
-0.180342
0.397751
0.16666
-0.152774
0.432937
-0.292708
0.404975
0.0387901
0.422414
-0.0114112
0.399617
0.220171
0.387456
0.178821
0.576182
0.39995
0.0348196
0.415947
-0.0274076
0.377227
0.258891
0.372916
0.183133
0.762446
0.398932
0.0318669
0.399065
-0.0275403
0.363534
0.294422
0.351318
0.195348
0.927269
0.392231
0.0356156
0.383398
-0.018707
0.333992
0.343827
0.324043
0.205298
1.14054
0.631545
0.00809083
0.633533
-0.0206952
0.67981
0.29755
0.786092
0.0990157
0.953452
0.973182
0.645997
-0.0338857
0.61464
0.0106619
0.701035
0.211156
0.759236
0.0408141
0.738398
0.974291
0.638056
-0.0679209
0.621432
0.0272854
0.718897
0.113691
0.77726
-0.017549
0.515404
1.00025
0.607365
-0.0712651
0.643342
-0.00869191
0.747579
0.0094544
0.7524
-0.0223704
0.261824
1.00598
0.532755
0.524063
0.533518
0.511147
0.772971
1.004
-0.206224
0.999364
-0.12457
1.00413
-0.0930827
1.01033
-0.00845851
0.0528855
0.939508
-0.171442
0.928062
-0.113124
0.913608
-0.078628
0.92952
-0.0243707
0.0328104
0.939189
-0.110378
0.910031
-0.0839662
0.887441
-0.0560377
0.888313
-0.0252428
0.0154412
0.937709
-0.0421066
0.89013
-0.0363877
0.860494
-0.0264008
0.851403
-0.0161525
0.00102203
0.730865
0.694477
0.668076
0.651924
0.0487675
0.179038
-0.227806
0.0696799
0.367364
-0.388277
0.0679913
0.416645
-0.414957
0.058956
0.413869
-0.404834
0.378793
0.04695
-0.366787
0.0766413
0.102397
0.142185
0.30182
0.170126
0.388704
0.174037
0.409959
0.390646
0.162184
0.0698626
0.0325343
0.179895
0.191788
0.25626
0.312339
0.293477
0.372742
0.399415
0.284708
0.0377916
-0.00525731
0.150172
0.0794071
0.268753
0.193758
0.369033
0.272462
0.347511
0.420937
0.0119096
-0.0171669
0.0799897
0.011327
0.189516
0.0842317
0.308208
0.15377
0.250812
0.404907
0.00270647
-0.0198734
0.0311285
-0.017095
0.0990151
0.0163451
0.190621
0.0621645
0.152716
0.288717
0.00119666
-0.02107
0.00911746
-0.0250158
0.031971
-0.00650849
0.069307
0.0248286
0.0829006
0.139123
-0.00395148
-0.0171186
-0.00632279
-0.0226445
-0.00664083
-0.00619045
-0.00471688
0.0229046
0.0651876
0.0129961
0.00297851
-0.0200971
0.0124729
-0.0321389
0.0253853
-0.0191028
0.0366358
0.0116541
0.0559668
0.0458566
0.0139757
0.0349221
0.0619747
0.0977421
0.143313
0.148929
1.21779
-1.07801
0.0502889
0.454636
-0.355996
0.290339
-0.458194
0.218144
0.371678
-0.258824
0.177485
0.00285108
0.0254798
-0.0790638
1.43598
-0.165755
0.541328
0.321008
-0.944958
0.440961
-0.378776
0.0248509
-0.329612
1.77859
-0.27214
0.483856
0.315827
-1.53292
0.459212
-0.522161
0.0146176
-0.167068
1.99151
-0.0215595
0.338347
0.301787
-1.85627
0.460478
-0.680852
-0.017059
0.218857
0.312068
0.384881
0.507513
-0.157955
0.609532
-0.451577
-0.169893
0.0119389
-0.000948865
-0.168945
0.145963
-0.146912
-0.0521396
0.651863
-1.12034
0.307806
0.357005
0.387579
0.0900587
-0.0101482
-0.0799105
0.141429
-0.0513699
0.216369
-0.07494
0.341419
-0.12505
-0.110158
0.20912
-0.172318
0.319934
0.529702
0.825589
0.146776
-0.150584
0.181418
-0.177609
0.112545
-0.1572
0.191431
0.0731912
-0.165855
0.205209
0.030163
-0.167012
0.21004
-0.119015
0.149178
0.190007
-0.109837
-0.230754
0.144104
-0.111298
0.0921076
-0.113858
0.038332
-0.113236
-0.0806827
0.192043
-0.0589936
-0.242886
0.140108
-0.0593629
0.0872627
-0.0610127
0.0356913
-0.0616646
-0.0449913
0.20501
-0.00652215
-0.257481
0.151842
-0.00619492
0.0969449
-0.00611577
0.0410278
-0.00574752
-0.00396349
0.209473
-0.261328
0.154984
0.0979101
0.0406701
0.0506791
-0.34556
-0.071906
0.0222155
-0.37637
-0.00296647
-0.389775
-0.0150126
-0.376231
-0.242818
0.132994
-0.311774
-0.16678
0.089106
-0.332482
0.0448373
-0.345506
0.0102746
-0.341668
-0.232544
0.154985
-0.268937
-0.197822
0.10893
-0.286427
0.0639846
-0.300561
0.023212
-0.300895
-0.209332
0.172987
-0.230907
-0.211017
0.127735
-0.241175
0.0792102
-0.252036
0.0319923
-0.253678
-0.177339
0.16837
-0.217859
0.118627
0.0717995
0.0281616
0.392364
0.0940099
-0.0903938
0.394203
0.0875834
-0.0894225
0.360485
0.15155
-0.117832
0.309648
0.0320425
0.0187938
-0.244327
0.376366
0.399574
0.0904152
0.409119
0.0780383
0.397787
0.162883
0.355203
0.0746258
-0.119877
0.404352
0.0820425
0.418382
0.0640085
0.411655
0.16961
0.37827
0.108011
0.0155057
0.407734
0.0702882
0.424143
0.047599
0.420718
0.173035
0.395843
0.132886
0.153868
0.408435
0.427364
0.420057
0.400169
0.417334
0.0927169
0.336354
0.0809799
0.252649
0.0837051
0.268003
-0.0153535
-0.204013
0.472016
0.512374
0.503931
0.469805
0.473245
0.645598
0.378935
0.0930806
0.296027
0.0829084
0.198575
0.0974519
0.115582
0.0829925
0.0356719
0.520819
0.39271
0.29234
0.208552
)
;

boundaryField
{
    left
    {
        type            calculated;
        value           nonuniform List<scalar> 
17
(
-0.60402
-0.60402
-0.60402
-0.60402
-0.60402
-0.39598
-0.39598
-0.39598
-0.39598
-0.39598
-0.39598
-0.39598
-0.39598
-0.39598
-0.39598
-0.510051
-0.510051
)
;
    }
    right
    {
        type            calculated;
        value           nonuniform List<scalar> 
17
(
0.198102
0.360919
0.343347
0.418961
0.469445
0.492155
0.526189
0.530684
0.536654
0.534963
0.499499
0.440164
0.679273
0.636536
0.720237
0.570275
0.042599
)
;
    }
    down
    {
        type            calculated;
        value           uniform 0;
    }
    up
    {
        type            calculated;
        value           uniform 0;
    }
    cylinder
    {
        type            calculated;
        value           uniform 0;
    }
    defaultFaces
    {
        type            empty;
    }
}


// ************************************************************************* //
