/*--------------------------------*- C++ -*----------------------------------*\
  =========                 |
  \\      /  F ield         | OpenFOAM: The Open Source CFD Toolbox
   \\    /   O peration     | Website:  https://openfoam.org
    \\  /    A nd           | Version:  13
     \\/     M anipulation  |
\*---------------------------------------------------------------------------*/
FoamFile
{
    format      ascii;
    class       volVectorField;
    location    "34";
    object      U;
}
// * * * * * * * * * * * * * * * * * * * * * * * * * * * * * * * * * * * * * //

dimensions      [0 1 -1 0 0 0 0];

internalField   nonuniform List<vector> 
440
(
(-0.0972487 0.0722183 -5.70437e-20)
(-0.126444 0.0922111 -1.42093e-20)
(0.00741332 0.0539926 1.06301e-19)
(0.386816 0.069897 1.88238e-20)
(0.394156 0.170726 2.33084e-20)
(-0.090073 0.051892 3.15497e-20)
(0.0471285 0.0227441 -1.11451e-19)
(0.527065 -0.0281011 -1.02556e-19)
(1.06639 -0.0564928 5.14254e-20)
(1.58031 -0.0814704 8.02939e-21)
(-0.0211961 0.00789794 4.77547e-20)
(0.488887 -0.0376262 6.8684e-19)
(1.24933 -0.030575 -4.14191e-19)
(1.84086 -0.0110454 -1.34938e-18)
(2.32598 0.01074 5.78662e-19)
(0.189467 -0.042799 -1.66748e-19)
(1.16225 0.00302177 -5.12317e-19)
(1.92253 0.0663951 1.64139e-18)
(2.33681 0.105711 1.80355e-18)
(2.41778 0.11325 -5.07906e-19)
(0.542654 -0.00565118 -2.79594e-19)
(1.68804 0.173844 -5.9095e-19)
(2.22144 0.248579 1.79844e-18)
(2.35942 0.258755 1.95024e-18)
(2.44352 0.237466 6.6737e-19)
(0.0431353 -0.278612 -4.54377e-20)
(0.080226 -0.407063 2.16516e-19)
(0.0969849 -0.38324 -5.36455e-19)
(0.144126 -0.275798 1.34161e-19)
(0.188288 -0.0939471 1.09392e-18)
(0.0594792 -0.255318 -9.34268e-20)
(0.0332098 -0.325766 -3.54058e-19)
(-0.0200464 -0.365899 -1.22252e-19)
(-0.0697668 -0.37376 -8.68309e-20)
(-0.113243 -0.262351 1.16639e-19)
(0.0730613 -0.191167 4.76911e-19)
(0.0323648 -0.190251 -1.00772e-19)
(-0.0400096 -0.153696 2.81514e-19)
(-0.116659 -0.16619 2.4791e-19)
(-0.196594 -0.145876 4.61984e-21)
(0.0676655 -0.143229 3.22568e-20)
(0.000293867 -0.160924 1.19382e-20)
(-0.0848637 -0.108309 1.00365e-19)
(-0.15299 -0.0749872 -7.18302e-19)
(-0.206257 -0.0294345 2.26387e-19)
(-0.0310645 -0.008893 -3.64324e-20)
(-0.151175 -0.0187115 -5.60708e-20)
(-0.228778 0.000170518 -2.17982e-19)
(-0.205287 0.0212447 3.5899e-19)
(-0.169415 0.0788254 8.66044e-19)
(0.955655 1.30669 2.02674e-18)
(0.814561 0.157461 -2.07933e-18)
(1.31941 -1.3802 -1.85281e-19)
(1.08363 -0.586581 -8.21441e-19)
(1.34132 -0.0295743 -2.6129e-20)
(0.215077 1.01208 -2.02647e-18)
(1.10991 0.111694 2.72581e-19)
(2.01337 -1.28996 1.64145e-19)
(1.32316 -0.610359 1.50783e-18)
(1.35607 -0.0489597 1.02834e-19)
(-0.601779 0.642499 -1.21621e-18)
(1.60608 -0.202562 -6.10937e-19)
(1.98246 -1.34948 -9.05612e-20)
(1.45664 -0.568087 1.22518e-18)
(1.35156 -0.0162632 -5.19401e-21)
(-0.811653 0.488951 5.26955e-19)
(2.00632 -0.467717 -1.7146e-20)
(1.9426 -1.24428 5.1554e-19)
(1.29836 -0.527808 -4.27431e-19)
(1.26204 -0.00513932 8.72815e-20)
(-0.306073 0.161563 -1.38168e-19)
(2.24063 -0.665082 -4.64242e-20)
(2.10109 -1.14107 0)
(1.13267 -0.446604 1.57997e-19)
(1.11199 0.00956596 -5.17672e-20)
(1.21995 0.040893 -2.6834e-19)
(2.61983 -0.693137 -1.12351e-19)
(2.04822 -0.954437 -2.50435e-20)
(1.14423 -0.389872 8.94448e-20)
(1.12469 0.00035023 5.81217e-20)
(1.95802 0.0266196 -1.59936e-20)
(2.80074 -0.802603 1.03156e-18)
(1.68294 -0.690444 -1.75942e-20)
(0.691305 -0.114633 3.83602e-20)
(1.05409 0.0242528 0)
(2.20586 -0.103958 -1.88613e-19)
(2.37602 -0.52342 -5.5579e-21)
(1.55135 -0.297692 6.05754e-20)
(0.979539 -0.124054 -6.7058e-21)
(1.19248 -0.112713 2.20836e-20)
(2.26244 -0.100345 1.05587e-19)
(2.02813 -0.458539 2.04369e-19)
(1.04608 -0.173318 -2.06683e-20)
(1.06701 -0.0143653 -1.68126e-34)
(0.944298 -0.0640337 1.43524e-20)
(1.48327 -0.131285 1.24581e-19)
(0.710031 0.0191611 6.54011e-20)
(0.399743 0.0274621 1.59431e-20)
(0.339635 -0.0906641 -1.40944e-21)
(0.0705967 -0.0360347 -1.28214e-20)
(2.36404 0.239619 -8.46076e-19)
(2.52415 0.0588359 -1.01605e-18)
(2.41037 0.049688 7.81171e-19)
(2.55953 -0.0782372 3.20882e-20)
(2.06047 -0.0243172 -4.03715e-20)
(2.15271 0.125035 5.40088e-20)
(2.33328 0.0912806 -3.72798e-20)
(2.28747 -0.0527272 -1.15243e-19)
(2.36371 -0.0454033 -2.13753e-19)
(2.34416 -0.25437 -2.59474e-21)
(2.07667 0.0527017 6.50374e-20)
(2.14108 0.0514665 9.54777e-20)
(2.18033 -0.0624218 -1.12415e-19)
(2.19206 -0.0419804 3.69712e-20)
(2.23679 -0.16552 1.76949e-20)
(1.97844 0.0234338 1.02828e-19)
(2.04138 0.0134838 1.2543e-19)
(2.06384 -0.0434389 -1.61687e-20)
(2.11643 -0.0399888 -4.19492e-20)
(2.12517 -0.107833 2.4856e-20)
(1.49576 -0.0163509 1.56953e-19)
(1.48346 -0.0196399 -1.05798e-20)
(1.50869 -0.0235439 1.88435e-20)
(1.48797 -0.0345413 -2.24977e-20)
(1.49485 -0.0315495 3.68957e-21)
(1.52167 0.842555 1.07343e-18)
(1.48356 0.936943 -3.3929e-19)
(1.48571 1.06121 -1.26278e-18)
(1.41114 1.09538 6.82015e-19)
(0.860744 0.771271 -1.63189e-19)
(1.80724 0.79134 -5.45341e-19)
(1.7735 0.864675 -2.87723e-18)
(1.77569 0.967303 -1.10552e-18)
(1.68045 0.971575 -3.81851e-19)
(1.0144 0.662717 -6.08952e-19)
(2.0927 0.678006 7.29904e-19)
(2.07154 0.740012 1.8456e-19)
(2.04423 0.817891 -2.15322e-18)
(1.8993 0.798555 -5.86401e-19)
(1.10539 0.513593 4.27405e-19)
(2.26368 0.551175 2.1914e-18)
(2.24268 0.59772 1.58619e-18)
(2.22691 0.644327 -1.8139e-18)
(2.00126 0.59835 -1.35454e-18)
(1.07781 0.335319 -2.42799e-19)
(2.40206 0.401785 1.04147e-18)
(2.40017 0.421986 -7.43805e-19)
(2.29411 0.438362 5.33113e-19)
(1.94962 0.380921 4.15292e-19)
(0.896467 0.145246 -3.47128e-19)
(0.580279 0.426861 -7.01126e-19)
(0.489242 0.461463 -5.62373e-19)
(0.37031 0.496045 7.12517e-20)
(0.230377 0.49519 -2.10308e-20)
(0.0559418 0.347318 6.79609e-20)
(0.682276 0.590998 5.52978e-20)
(0.615317 0.64322 -3.21747e-19)
(0.523097 0.705678 1.70879e-19)
(0.395223 0.763847 -7.9189e-20)
(0.169753 0.584414 1.13434e-19)
(0.764758 0.805721 1.61698e-19)
(0.692566 0.887041 4.19654e-19)
(0.63455 0.980589 7.67779e-20)
(0.548154 1.0178 -2.78573e-19)
(0.299335 0.747924 2.27262e-19)
(1.03357 0.877607 2.0899e-19)
(0.983443 0.958472 -6.39309e-19)
(0.93139 1.05511 -1.79536e-18)
(0.846423 1.11666 7.21299e-19)
(0.496591 0.823003 -1.64336e-19)
(1.1134 0.929466 -1.09101e-19)
(1.14148 1.0451 -1.83376e-19)
(1.15974 1.15339 -3.35845e-19)
(1.10193 1.17513 -3.77519e-19)
(0.674239 0.835318 -6.06765e-21)
(1.00683 0.0399635 -7.91691e-20)
(1.00759 0.0140111 -2.78437e-20)
(1.04803 0.134143 -1.5427e-21)
(0.942464 0.11201 -1.54234e-19)
(0.90404 0.254571 2.86239e-19)
(0.993771 0.0373282 4.83056e-20)
(1.02947 0.00663986 1.07389e-19)
(1.02657 0.149453 1.06836e-19)
(0.9745 0.132503 1.71499e-20)
(0.940145 0.342235 1.21236e-20)
(1.00237 0.0352736 6.31055e-20)
(1.01594 -0.00189179 -4.30525e-21)
(1.06429 0.169505 -2.81801e-21)
(0.927058 0.133689 1.32141e-19)
(1.1327 0.477107 -4.31871e-19)
(1.00098 0.0333331 -2.97694e-22)
(1.03618 -0.0125462 -1.59806e-19)
(1.04237 0.197323 -5.58156e-20)
(1.01528 0.125345 -3.29282e-19)
(1.15023 0.539654 8.29522e-20)
(1.00838 0.0234097 -9.54664e-21)
(1.0293 -0.00555249 4.46567e-20)
(1.07251 0.198194 2.5797e-20)
(1.00313 0.154104 4.50495e-19)
(1.37364 0.670638 -4.31058e-19)
(0.986101 0.0211542 -1.68666e-21)
(1.08595 -0.0230903 9.08551e-20)
(1.01849 0.230492 -5.0857e-20)
(1.28062 0.0640985 9.19506e-19)
(1.29695 0.716292 -3.44199e-19)
(0.945843 -0.0108356 -1.37165e-21)
(1.16237 -0.0044283 -7.35666e-20)
(0.906811 0.149908 4.65446e-21)
(1.38837 0.0526012 -3.0783e-19)
(1.19905 0.53256 -4.63368e-20)
(0.99179 -0.02983 4.4977e-21)
(1.08522 0.0196171 1.28983e-35)
(1.01544 0.116188 2.43209e-21)
(1.31572 0.00281746 1.06623e-19)
(1.3484 0.373333 1.57967e-19)
(1.06345 -0.0599299 3.86374e-21)
(0.90601 0.0111409 -2.75515e-20)
(1.277 0.0232476 1.94514e-20)
(1.1345 -0.0268076 2.27037e-20)
(1.4513 0.254806 -2.39613e-19)
(0.954047 -0.0213092 -3.90113e-20)
(0.765337 -0.0207276 -2.40297e-21)
(1.02149 -0.0112251 2.2194e-20)
(0.685195 -0.00325355 -2.04037e-20)
(1.0883 0.0842867 -5.3584e-20)
(1.76109 0.642832 2.83398e-19)
(1.86415 0.647468 7.2289e-19)
(2.1139 0.531028 -1.02233e-18)
(2.19057 0.477341 2.28767e-20)
(2.38556 0.304242 4.24776e-19)
(1.69505 0.406972 6.54586e-20)
(1.7348 0.410342 9.12123e-19)
(1.95868 0.348282 1.02979e-19)
(1.971 0.290475 -8.39847e-19)
(2.19053 0.22216 -2.68904e-19)
(1.67509 0.269808 -2.19429e-19)
(1.76365 0.251376 -1.40955e-19)
(1.87672 0.215904 1.65493e-19)
(1.93614 0.165211 -2.59057e-19)
(2.03596 0.136606 2.3753e-19)
(1.66649 0.181641 3.62871e-19)
(1.74839 0.158817 -1.63155e-21)
(1.81675 0.129651 2.00079e-19)
(1.8729 0.0939511 1.60763e-19)
(1.93918 0.0696638 -1.62187e-19)
(1.28691 0.0501393 -4.71019e-20)
(1.37286 0.0314204 2.29082e-19)
(1.40276 0.0178622 9.23601e-20)
(1.45552 0.00110799 -1.94694e-19)
(1.45761 -0.00557581 3.86679e-22)
(1.35393 -0.0260432 8.45887e-20)
(2.42571 -0.00811892 -6.06594e-19)
(2.64253 -0.00118603 1.63008e-18)
(2.60695 0.0461233 7.64362e-19)
(2.35906 0.0519011 -5.19946e-19)
(0.92826 0.115038 2.04053e-19)
(2.22324 0.150789 -6.87028e-19)
(2.62473 0.164634 -9.86165e-19)
(2.62247 0.170098 1.36319e-18)
(2.41991 0.164333 -1.01892e-18)
(0.366391 0.127143 -7.35279e-22)
(1.66749 0.254322 8.66411e-19)
(2.38522 0.311234 1.33102e-19)
(2.65552 0.328271 1.53719e-18)
(2.6011 0.289377 8.61748e-19)
(0.0308928 0.0257105 2.49934e-19)
(0.831008 0.221149 3.04318e-19)
(1.70606 0.353315 -1.06356e-18)
(2.2318 0.421174 1.13229e-19)
(2.63349 0.460241 1.07845e-18)
(-0.0760272 -0.0624201 1.94093e-19)
(0.206008 0.0741939 -2.33842e-19)
(0.866158 0.268789 -2.0537e-19)
(1.41874 0.410019 3.20927e-19)
(2.03519 0.574891 2.05483e-19)
(-0.0790646 -0.0949468 6.24848e-20)
(-0.0312918 -0.0558527 1.02249e-19)
(0.286338 0.0669258 9.18143e-20)
(0.598349 0.248754 -4.72124e-19)
(1.32502 0.509156 7.83358e-21)
(-0.0678954 -0.119781 -4.99393e-20)
(-0.0841902 -0.138499 -2.57485e-20)
(0.0323513 -0.0596972 6.30308e-20)
(0.173263 0.130101 -6.66263e-20)
(0.597454 0.424421 2.67002e-22)
(-0.0480357 -0.103727 -5.71128e-20)
(-0.0686998 -0.119173 1.57482e-20)
(-0.0254803 -0.0287372 -4.24524e-20)
(0.0244439 0.136277 -2.31576e-19)
(0.167405 0.371008 2.92572e-19)
(-0.0220481 -0.0916303 -3.79578e-20)
(-0.0117982 -0.139434 -1.54486e-19)
(0.040557 -0.0477889 2.98385e-19)
(0.113978 0.143981 3.49666e-19)
(0.205886 0.409135 -1.58681e-20)
(0.00279508 -0.173535 9.5893e-21)
(0.0493242 -0.291488 -2.27433e-20)
(0.106214 -0.230789 2.02242e-21)
(0.189994 -0.0563049 3.00657e-20)
(0.295659 0.200911 2.44213e-19)
(1.49402 0.736333 -3.40498e-20)
(-0.0986823 0.236746 1.62665e-20)
(0.473244 -0.155646 -1.22323e-19)
(0.975633 -0.121224 -3.48629e-19)
(0.867678 -0.00153292 1.73299e-22)
(1.3242 0.885288 1.54164e-19)
(-1.20917 0.36633 1.43527e-18)
(0.41104 -0.384565 1.49952e-18)
(1.07854 -0.184154 -2.11652e-20)
(1.05885 0.0219752 3.29996e-20)
(0.68269 1.09369 -7.87268e-19)
(-1.95193 0.320724 3.91782e-18)
(0.490882 -0.96986 1.8663e-19)
(0.972424 -0.297797 1.87024e-19)
(1.18669 0.0317325 3.23846e-20)
(0.256356 1.26434 9.54251e-19)
(-0.78909 0.252643 -4.445e-18)
(0.555346 -1.1845 -7.09601e-19)
(0.883535 -0.401182 1.89707e-20)
(1.24414 0.0143638 -1.74326e-20)
(0.618825 1.41034 1.46235e-19)
(0.533177 0.218054 2.4305e-19)
(0.918937 -1.29035 4.24924e-20)
(1.02045 -0.530131 -8.9265e-20)
(1.33009 -0.0221392 -2.66002e-20)
(-0.259325 0.0654554 -4.03173e-20)
(-0.440266 -0.188312 0)
(-0.15298 -0.101995 -1.01074e-19)
(0.148223 -0.0679809 5.78128e-20)
(0.388726 -0.0234677 -2.55812e-20)
(1.72736 0.635196 0)
(0.692489 0.209182 0)
(0.610525 -0.0893384 3.23545e-19)
(0.75336 -0.106192 1.98459e-19)
(0.708023 -0.0379372 2.61881e-20)
(0.744313 0.00684107 -1.29129e-19)
(0.813592 0.003025 3.52226e-19)
(0.89737 0.0410426 -3.18259e-20)
(0.821828 0.0293398 4.0377e-19)
(1.12336 0.206009 2.23322e-19)
(1.69087 0.0448227 1.25277e-19)
(1.89468 0.0959449 5.47711e-19)
(1.93935 0.19909 -9.8813e-19)
(2.31776 0.281596 4.42879e-19)
(2.26094 0.498685 7.29862e-19)
(0.964568 -0.522935 1.95446e-20)
(0.957128 -0.621229 -2.11417e-19)
(0.955062 -0.727754 -1.75819e-19)
(0.889404 -0.80485 1.06087e-19)
(0.549275 -0.641561 1.49282e-19)
(0.86013 -0.429013 1.09334e-19)
(0.804525 -0.4994 1.50785e-19)
(0.730181 -0.57633 -1.07009e-19)
(0.616911 -0.645255 1.57382e-19)
(0.344291 -0.52143 4.3695e-20)
(0.683679 -0.290971 -1.14903e-19)
(0.595942 -0.336795 -6.27626e-20)
(0.495857 -0.393726 1.13993e-20)
(0.376829 -0.443597 -4.72219e-20)
(0.1755 -0.357063 -1.44433e-19)
(0.572762 -0.0594948 -4.37112e-19)
(0.486607 -0.0798745 -3.49866e-19)
(0.375336 -0.109245 2.85052e-19)
(0.246473 -0.144643 1.42958e-19)
(0.0757999 -0.13608 1.28473e-20)
(0.541261 0.150775 -1.36181e-19)
(0.454663 0.14817 -1.55184e-19)
(0.335718 0.141494 -3.914e-20)
(0.195197 0.138866 5.3522e-20)
(0.0333112 0.100852 1.42318e-20)
(2.18321 -0.023169 9.86527e-19)
(2.41197 -0.0955664 3.61618e-19)
(2.5093 -0.187097 -9.11397e-19)
(2.39789 -0.214398 -1.93509e-18)
(1.48931 -0.212452 1.51112e-19)
(2.10871 -0.128764 1.59715e-18)
(2.23256 -0.244539 2.09031e-18)
(2.26916 -0.372768 1.74896e-19)
(2.20277 -0.435213 3.06067e-19)
(1.44236 -0.405974 -2.05342e-19)
(1.83775 -0.300367 -4.04391e-18)
(1.89398 -0.422952 4.53437e-19)
(1.94179 -0.556377 1.28937e-18)
(1.90134 -0.640268 -5.08315e-19)
(1.25851 -0.562437 8.09264e-19)
(1.59047 -0.431677 9.89285e-19)
(1.6171 -0.538145 -2.60921e-18)
(1.61921 -0.666042 -3.00152e-18)
(1.56234 -0.763228 9.38773e-19)
(1.02247 -0.645376 6.21297e-19)
(1.29567 -0.499778 2.23595e-19)
(1.25109 -0.600235 2.90765e-19)
(1.24334 -0.730323 -4.63965e-19)
(1.19443 -0.826555 -5.62913e-19)
(0.768159 -0.671373 -5.3795e-21)
(1.06384 0.0499086 6.90075e-21)
(0.948956 0.0502125 1.66959e-21)
(1.12372 0.076938 1.04039e-20)
(0.84119 -0.00869896 -2.68215e-19)
(1.15101 -0.228659 -2.21231e-20)
(1.07325 0.0512996 -2.28916e-21)
(0.94239 0.0452308 2.20104e-20)
(1.12393 0.095449 5.55564e-21)
(0.912739 0.0335816 2.38031e-19)
(1.03803 -0.114768 6.57377e-21)
(1.07022 0.0465825 -5.41514e-20)
(0.944931 0.0380604 -1.1315e-22)
(1.10692 0.100156 -5.69989e-21)
(0.911007 0.0503942 1.33379e-19)
(0.992073 -0.0531693 -2.76117e-19)
(1.05049 0.0442772 6.39046e-20)
(0.967908 0.0303333 2.64997e-21)
(1.07391 0.108086 2.03291e-20)
(0.940841 0.0758553 -7.02974e-20)
(0.888024 0.0540705 5.74005e-20)
(1.02288 0.0407151 1.57387e-20)
(0.997861 0.0250024 -2.25656e-20)
(1.04363 0.11733 3.24243e-20)
(0.958761 0.0975175 3.0111e-20)
(0.857249 0.15609 -1.90244e-20)
(0.888571 0.0336215 0)
(0.721627 0.0275866 8.41808e-21)
(0.613245 0.0209434 7.32788e-21)
(0.370498 -0.00931489 5.6344e-20)
(0.726649 -0.0575013 -1.81232e-19)
(1.03193 0.0718684 -6.23615e-20)
(0.9582 0.0685745 8.04316e-22)
(1.03351 0.0779354 -6.95446e-20)
(0.831458 -0.011133 -1.58975e-19)
(1.08436 -0.21108 -1.92213e-19)
(1.01128 -0.0690843 -4.1957e-20)
(1.10375 -0.0378609 6.06753e-19)
(1.21059 0.0360954 3.58959e-19)
(1.07653 0.0596108 2.85842e-20)
(0.839164 0.0325279 0)
(1.37031 -0.329806 4.09439e-19)
(1.49414 -0.290032 1.7299e-18)
(1.6875 -0.166353 -1.86979e-18)
(1.7859 -0.0196404 -5.96405e-19)
(1.72322 0.0382455 4.52119e-19)
)
;

boundaryField
{
    left
    {
        type            fixedValue;
        value           uniform (1 0 0);
    }
    right
    {
        type            zeroGradient;
    }
    down
    {
        type            noSlip;
    }
    up
    {
        type            noSlip;
    }
    cylinder
    {
        type            noSlip;
    }
    defaultFaces
    {
        type            empty;
    }
}


// ************************************************************************* //
