/*--------------------------------*- C++ -*----------------------------------*\
  =========                 |
  \\      /  F ield         | OpenFOAM: The Open Source CFD Toolbox
   \\    /   O peration     | Website:  https://openfoam.org
    \\  /    A nd           | Version:  13
     \\/     M anipulation  |
\*---------------------------------------------------------------------------*/
FoamFile
{
    format      ascii;
    class       volVectorField;
    location    "3.3";
    object      U;
}
// * * * * * * * * * * * * * * * * * * * * * * * * * * * * * * * * * * * * * //

dimensions      [0 1 -1 0 0 0 0];

internalField   nonuniform List<vector>
1800
(
(-0.00502763413399 -0.0118322618923 -3.1751139038e-17)
(0.543369145934 -0.463744325652 1.76955024196e-17)
(1.05591816609 -0.862281695937 -5.26347231165e-19)
(1.33342705798 -1.04685295831 -4.60437560342e-19)
(1.4459263072 -1.08575479683 1.85539345042e-18)
(1.48034094763 -1.05728810206 -1.70808075816e-18)
(1.48390323509 -1.00529453162 -4.06879723083e-18)
(1.47619882408 -0.948432209638 3.09427509368e-18)
(1.46516787393 -0.889779264834 1.19294790114e-18)
(1.43194483961 -0.841642188553 1.05467823518e-18)
(0.0164525592419 -0.029011086846 1.73251676193e-19)
(0.648951945793 -0.468530254674 8.68518149219e-19)
(1.21695636238 -0.846147566997 -1.64193075995e-19)
(1.51308489625 -1.01549753272 -8.70550572087e-19)
(1.62456660405 -1.04674993442 -3.56225952018e-19)
(1.65136467685 -1.0154008404 8.37521688961e-19)
(1.64665257275 -0.962418181882 -1.2599493845e-18)
(1.63221326696 -0.90462078472 7.22888346366e-19)
(1.61574243734 -0.846669526762 7.48828041295e-19)
(1.59185810803 -0.803293605401 -3.37703758962e-19)
(0.045279811704 -0.0458071925823 -6.87991307963e-21)
(0.76103353304 -0.46145151889 -1.76244915813e-19)
(1.37836891512 -0.809184374431 3.02752806152e-19)
(1.68783048646 -0.959744779895 -2.99352292513e-19)
(1.79504826089 -0.983613420484 -1.52732944829e-18)
(1.81229500293 -0.951712011347 3.37632264325e-19)
(1.79754086397 -0.901488474265 5.95671904465e-19)
(1.77368049646 -0.848268092255 -7.74664500555e-20)
(1.74852143636 -0.796469325686 -4.99066295406e-21)
(1.71583533927 -0.755854318672 -3.43468375617e-20)
(0.0815786229289 -0.0605031911996 1.19014345007e-20)
(0.87747551928 -0.440511615645 -8.99298862295e-20)
(1.53657900345 -0.750220191632 -2.84370995659e-19)
(1.85404687251 -0.878836873309 7.10841893652e-20)
(1.95480626694 -0.895076545106 3.94352930471e-19)
(1.96236171715 -0.863175689758 3.68162484799e-20)
(1.93846790596 -0.815950455199 -2.42254135677e-20)
(1.90669943957 -0.766438020542 5.4686541756e-19)
(1.87447901673 -0.718422399794 4.51954241661e-19)
(1.83841923637 -0.682245900236 -1.49232244504e-19)
(0.125078267552 -0.0715856262928 8.9077486825e-20)
(0.995624733014 -0.405055309747 1.54646978894e-19)
(1.68722065404 -0.670547945877 -8.3885646404e-20)
(2.00664750734 -0.77573773611 -9.83406156332e-20)
(2.09844761351 -0.785525992935 -1.19218061926e-18)
(2.09592393963 -0.755706447633 1.06378372642e-20)
(2.06337297618 -0.713813985884 9.30256660143e-19)
(2.02439289361 -0.670585731043 3.23318112595e-19)
(1.9860227743 -0.629381164684 2.3192275972e-20)
(1.94606469349 -0.598042317846 -1.99745656944e-19)
(0.174733356285 -0.0772463834852 -8.1140517804e-20)
(1.11187376839 -0.354003737713 1.73908685884e-19)
(1.82580945448 -0.570669064847 1.11824098053e-18)
(2.14128949889 -0.651817355107 -8.20845024935e-19)
(2.22229197425 -0.656372720362 -8.66298073823e-19)
(2.20994675059 -0.629999694671 1.43844968519e-18)
(2.16970099647 -0.594500142639 -1.03885843584e-18)
(2.12453446707 -0.558265575253 -1.14391697293e-18)
(2.08098047544 -0.524039021765 8.30517678654e-19)
(2.03788486604 -0.49840867864 -3.22152914673e-20)
(0.229034116666 -0.0760249525018 -2.37532655908e-20)
(1.22245060942 -0.287485067666 -4.99613640708e-19)
(1.94812412656 -0.452798340875 -2.97775878788e-18)
(2.25412800288 -0.510608136711 1.36397693055e-18)
(2.32306128788 -0.511863542889 2.18895577282e-18)
(2.30157852933 -0.490649392871 -6.33175581161e-21)
(2.25489657117 -0.462932970251 -2.81118033072e-18)
(2.2049145469 -0.434864007331 -2.77528525439e-21)
(2.15745730664 -0.408607400376 2.52134485324e-18)
(2.11194049157 -0.389221272337 6.64098366796e-19)
(0.28577005035 -0.0666776533473 5.93264710623e-20)
(1.32315238968 -0.206070355267 4.3558870614e-19)
(2.05003802864 -0.319331299161 2.29339027079e-18)
(2.34174931469 -0.35540251752 -8.2815790634e-20)
(2.3981025597 -0.355512646767 -1.40987681594e-18)
(2.36861112054 -0.340836133311 -4.34759191384e-19)
(2.31693468447 -0.321830920018 0)
(2.26345738025 -0.302610643812 9.88231880674e-19)
(2.21324716352 -0.284794530354 1.04940751221e-20)
(2.16612865256 -0.272194114061 -8.02543758036e-19)
(0.342243440575 -0.0485617695103 9.08064027306e-21)
(1.41002035343 -0.111399603335 8.74226095273e-19)
(2.12815349595 -0.173640547184 2.06554776926e-18)
(2.40176369679 -0.190350043188 -1.99209007751e-18)
(2.44588904907 -0.191672073125 -1.43056913796e-18)
(2.40983402654 -0.18463612311 4.46130526295e-19)
(2.35472894015 -0.175024717676 -1.87917848025e-18)
(2.29914754838 -0.165113599538 -1.27654954186e-18)
(2.24745484776 -0.156007469527 1.51903701525e-18)
(2.19958547699 -0.150362195011 1.29271948292e-18)
(0.395469969355 -0.021763024354 4.43316649143e-20)
(1.4795923181 -0.00585927298522 6.03693788864e-19)
(2.17947943947 -0.0193339319167 3.8950474702e-19)
(2.43276918887 -0.0197405218961 -2.90134889279e-18)
(2.46565370154 -0.0245788874439 4.05456035836e-20)
(2.42465770428 -0.0257139549264 4.26172596438e-18)
(2.3676075787 -0.025853828232 -2.25760107899e-18)
(2.31126326778 -0.0254683486035 -1.26784868603e-18)
(2.25924362142 -0.0250977321635 4.13088026772e-19)
(2.21155168761 -0.0263698602137 -9.37632188353e-19)
(-0.00573322843646 0.00287715488473 1.09050200626e-19)
(-0.00411521947541 -0.0904417807957 6.5896091929e-20)
(0.0427361212044 -0.179191876638 -1.62735083445e-21)
(0.104410209087 -0.22665456253 -8.81405572125e-21)
(0.170701528522 -0.243172255915 -2.01116748043e-21)
(0.235530029978 -0.24386204982 -4.27844493225e-20)
(0.295986037834 -0.237967477274 1.59072360462e-20)
(0.351381459608 -0.229875650664 -2.81270926202e-20)
(0.401617336903 -0.221430021203 3.17950605518e-21)
(0.449296312274 -0.214574920329 -8.373490075e-21)
(-0.00788444420077 0.0160243786875 3.52489597081e-20)
(0.00951058176251 -0.135901887553 8.01037754236e-20)
(0.0717101715792 -0.285976054642 -1.02764825191e-19)
(0.141334277507 -0.366026589962 -4.55859666162e-20)
(0.210040661398 -0.392410166222 -7.5956424592e-20)
(0.274585013062 -0.391245873023 -8.09435805451e-20)
(0.333659957221 -0.37871367258 2.95735753473e-20)
(0.387318478603 -0.362508438978 -2.0779447238e-20)
(0.435661662371 -0.345913246841 2.90725919404e-21)
(0.482367743083 -0.333333267199 -8.41997527447e-21)
(-0.0119944323763 0.0272378201847 -4.11593016988e-20)
(0.0310716990053 -0.181230841671 1.72868771382e-19)
(0.118639786122 -0.389366895045 7.11499488528e-20)
(0.201521200227 -0.49982000885 2.7168298648e-19)
(0.274296985699 -0.535054390273 4.95626832622e-20)
(0.338404421639 -0.531731750459 -2.81321905914e-19)
(0.395214657671 -0.512622438267 -3.05555605825e-20)
(0.446013857699 -0.488532992973 8.90950491453e-20)
(0.491249404221 -0.464147410211 -3.59225443936e-20)
(0.536463945442 -0.446012032472 -4.67540291905e-21)
(-0.0174331747538 0.035772088615 -1.13092333744e-19)
(0.0610699196169 -0.226097144417 -2.65134372987e-20)
(0.183358330021 -0.487499492385 3.20615226166e-20)
(0.284315135951 -0.625186918879 -1.34527070957e-19)
(0.362545109938 -0.667840114589 6.9181939963e-20)
(0.42592963319 -0.661964779684 1.89271587176e-19)
(0.479550929444 -0.636402781186 5.29396298742e-20)
(0.526386389885 -0.60477871015 -1.16126771267e-20)
(0.567378655233 -0.573117017635 2.13532782082e-20)
(0.610576087138 -0.549636169319 -2.5419357195e-21)
(-0.0233527184641 0.040905900811 0)
(0.100112327245 -0.270125832322 8.84865800839e-20)
(0.265539309369 -0.578516705201 2.57788423717e-19)
(0.388675447852 -0.739327945695 -2.75541094481e-19)
(0.473376261263 -0.787592802126 -5.76867615276e-19)
(0.53560647931 -0.778724363029 1.96179122285e-19)
(0.585106559156 -0.74693031203 -2.7381535591e-20)
(0.626935544605 -0.708273427622 -1.00062699861e-19)
(0.6626779423 -0.670016216023 0)
(0.703342435229 -0.641417998017 -8.85232625646e-21)
(-0.0286845427319 0.0420178350527 5.47709163232e-20)
(0.148858192706 -0.312812281187 8.50732685929e-20)
(0.364610241224 -0.660532678799 4.19899155017e-20)
(0.513090796307 -0.839538761157 2.41688251075e-19)
(0.604804496764 -0.891316598038 -1.91390255255e-19)
(0.665287891779 -0.879040362897 -2.92171039168e-19)
(0.709757547898 -0.841388076177 5.10625120742e-19)
(0.745655135324 -0.796382093164 5.48445927509e-20)
(0.775357159138 -0.752357650949 -3.02714732833e-19)
(0.812945317132 -0.718823309473 -7.08073137022e-21)
(-0.0321711279891 0.0386945589603 -3.39486315822e-21)
(0.207906105228 -0.353399401463 7.3453142933e-21)
(0.479640330399 -0.731609624097 1.32462836186e-19)
(0.65547417522 -0.923287014143 2.61372396218e-20)
(0.754181188008 -0.976372836195 3.22315877986e-19)
(0.812158601484 -0.960416073112 -4.02946751571e-19)
(0.850746443077 -0.91752100641 -4.07308922577e-19)
(0.879959168971 -0.867118101307 -3.43109073671e-19)
(0.903124288609 -0.818287993038 2.52330779204e-19)
(0.936853924048 -0.779824154291 2.74332274248e-19)
(-0.0324944174225 0.030893774693 -1.28198850336e-19)
(0.277536721162 -0.390746906148 6.12986608279e-20)
(0.609043426202 -0.78974531385 2.98209630243e-19)
(0.812910329639 -0.988314932404 -1.77401929412e-19)
(0.917981330622 -1.04065227374 3.35819262241e-19)
(0.972562662679 -1.02113475015 7.93259166887e-19)
(1.00454431276 -0.974105174699 5.46900702208e-19)
(1.02653120794 -0.919825404601 -4.30595616514e-19)
(1.04300281463 -0.867456114318 -2.05103687443e-19)
(1.07106615549 -0.823893979722 2.96594973075e-19)
(-0.0285780855463 0.0191454148322 -1.79213065171e-19)
(0.357243437982 -0.423128396013 -2.8079931552e-19)
(0.75009802245 -0.832652100849 6.7423131993e-19)
(0.981090047994 -1.03235164855 7.62571520909e-19)
(1.09104473475 -1.08214983454 -7.50471382876e-19)
(1.14095616052 -1.05961043262 8.24689117513e-19)
(1.16544407518 -1.01013703548 1.38036111857e-19)
(1.17957731502 -0.954272983721 -9.94073789578e-19)
(1.18926909603 -0.900016402638 -2.45549569453e-19)
(1.20705768374 -0.851552672943 3.36058229312e-19)
(-0.0197011587995 0.00452302657096 8.95477226096e-20)
(0.445987450256 -0.448215502273 -3.05578126605e-19)
(0.899616683502 -0.857622448935 -4.47477161331e-19)
(1.15526802422 -1.05262873676 7.71851088132e-19)
(1.26756030666 -1.09799721888 6.07546709409e-19)
(1.31048304714 -1.0727020339 -7.45287287429e-19)
(1.32525790952 -1.02205077396 -6.15031531589e-19)
(1.32937412254 -0.966147034302 3.66483426481e-19)
(1.33025908554 -0.910467624379 -3.84720220977e-19)
(1.32852479668 -0.859125270785 -2.2867559632e-19)
(0.620893723491 -0.174245480671 3.88417930079e-20)
(0.799716173698 -0.133040424895 -7.71813817094e-20)
(0.888050799513 -0.103924471987 5.67374133987e-21)
(0.939049741154 -0.0812341587639 1.33277220785e-20)
(0.969016899772 -0.0629316589246 -6.29504591973e-21)
(0.98673424866 -0.0479627626769 -3.1735744808e-21)
(0.997606153546 -0.0356837563157 -4.85034311456e-21)
(1.00444031333 -0.0254678549128 -3.15617846663e-21)
(1.0085650483 -0.0173526539669 7.9301877194e-21)
(1.01134866899 -0.00714927743655 2.95780116333e-21)
(0.63866709367 -0.247947297906 1.05825416004e-19)
(0.811572067271 -0.172739232322 1.69148412219e-20)
(0.89652097115 -0.125479625886 4.62404415359e-21)
(0.94547598241 -0.0931984052183 -7.76546963259e-21)
(0.974079771294 -0.0698742699684 -1.73375850084e-20)
(0.990802699331 -0.0521103844645 0)
(1.00090720014 -0.0382087941515 -5.07903274942e-21)
(1.00715329803 -0.0270081399074 3.90285686104e-21)
(1.01087832391 -0.0182882010338 4.78740214325e-22)
(1.01332306094 -0.00751318263724 -3.61309706308e-21)
(0.666930696753 -0.319151138912 -6.06425806297e-20)
(0.828569914012 -0.211532029129 -4.18967952887e-20)
(0.907783131531 -0.14673127485 1.8864302146e-20)
(0.953364927852 -0.105028324772 -9.25287931027e-21)
(0.979926745231 -0.0767049236444 -3.9290418226e-21)
(0.995323489069 -0.0561534094592 6.23648905761e-21)
(1.00448294353 -0.0406380492879 0)
(1.01003833388 -0.0284667110115 0)
(1.01331032459 -0.019158161651 -2.19317547392e-21)
(1.01537935046 -0.0078468455282 0)
(0.705766864908 -0.386468825425 -3.31975384075e-20)
(0.850480618229 -0.248834085718 7.91825873946e-20)
(0.921758582376 -0.167407676941 8.67751956945e-21)
(0.962700963142 -0.116596760385 0)
(0.986553001837 -0.0833514176681 2.3380462563e-20)
(1.00029009589 -0.0600486318351 -3.62840897196e-21)
(1.00831817162 -0.0429443864129 0)
(1.01309556764 -0.0298266578926 4.44985669163e-21)
(1.01585571283 -0.0199519308664 0)
(1.01752139768 -0.00814594452306 6.24910633724e-22)
(0.755260072436 -0.448548956921 -3.0355009518e-20)
(0.877035347735 -0.284112931576 1.05829411681e-19)
(0.938340005376 -0.187248498181 -4.68774546283e-21)
(0.973454218618 -0.127780325248 0)
(0.99394883279 -0.0897452641629 5.22098812466e-21)
(1.00569172382 -0.0637540425887 7.14943102643e-21)
(1.01241472993 -0.0451014081733 5.98913427567e-21)
(1.01629179078 -0.0310709009395 1.09329412423e-21)
(1.01848181242 -0.02065838206 -2.24319074889e-21)
(1.01971853138 -0.00840611755694 2.69887945393e-21)
(0.815230453427 -0.504017512054 -6.83530029031e-19)
(0.907905000749 -0.316898897252 -1.88504840275e-19)
(0.95737162593 -0.206047142331 1.88179751274e-21)
(0.985576539126 -0.138466295838 3.39644737226e-20)
(1.00209975048 -0.0958254747944 -8.12985447127e-21)
(1.01150858362 -0.0672307860634 5.11022528943e-21)
(1.01674490956 -0.0470836023782 5.26214697527e-21)
(1.0196369872 -0.0321822056252 -9.50621556606e-21)
(1.02120270053 -0.0212668930625 -2.10819100354e-22)
(1.02196608506 -0.00862307100479 1.28814078062e-22)
(0.884776149262 -0.551305258704 -1.98403702846e-20)
(0.942337715147 -0.34630786693 7.24396153781e-20)
(0.978531268773 -0.223572968609 3.68719454237e-21)
(0.998975929193 -0.148554307632 -9.5110436381e-22)
(1.01096728342 -0.101539424038 -2.48575636321e-20)
(1.01771907015 -0.0704456393913 5.36910171047e-21)
(1.02128865644 -0.0488675078877 -3.57928851435e-21)
(1.0230977474 -0.0331444478733 -4.29474701278e-21)
(1.02397867748 -0.0217668153173 1.11296935539e-21)
(1.02426375113 -0.00879263223496 -1.87045313549e-21)
(0.962580856865 -0.589618195798 3.00408330144e-19)
(0.978636747688 -0.371851357415 8.2768033476e-20)
(1.0007425184 -0.239471215501 0)
(1.01324811224 -0.157840578301 -4.26344068814e-22)
(1.02040615839 -0.106791264688 1.97914548852e-20)
(1.02427040852 -0.0733521795541 1.13969445562e-21)
(1.02601309442 -0.0504291478381 -1.56842108263e-20)
(1.02664155412 -0.0339433488789 4.37663166657e-21)
(1.02679580373 -0.0221493624591 -4.16429525906e-23)
(1.02657346702 -0.00891218509712 -3.12372943194e-22)
(1.0510329502 -0.621973600863 -4.36755863453e-19)
(1.01678319207 -0.39689451511 -2.18309229895e-19)
(1.0226845212 -0.255447602848 5.19367813171e-20)
(1.02746146116 -0.166995324303 -1.93236930334e-22)
(1.02991987372 -0.111797065065 -2.31351658688e-21)
(1.03091054278 -0.0760018670346 -1.50962698523e-20)
(1.03082569986 -0.0517701476584 3.97012112859e-21)
(1.03024022858 -0.0345698705986 5.29874025108e-22)
(1.02963311212 -0.0224063916588 -3.22389246852e-21)
(1.02888488094 -0.00898082404194 -2.78337984565e-21)
(1.15607154601 -0.645516595405 3.04420421628e-19)
(1.06731671138 -0.418027403258 -2.19593116951e-19)
(1.04842588273 -0.272089441989 -3.98312471055e-20)
(1.04263123623 -0.177200148089 -4.18726896761e-20)
(1.03965694357 -0.117403790147 -2.37012554643e-20)
(1.0375927263 -0.0788671663089 -1.16007221874e-20)
(1.03564593646 -0.0531172243409 -5.59582319751e-21)
(1.03385127882 -0.0351163330264 0)
(1.03245339474 -0.0225708825343 -3.99102778378e-22)
(1.03120252786 -0.00899246921752 2.07967195806e-21)
(1.31099321793 -0.63192938433 5.09178486004e-19)
(1.16724282607 -0.418507161992 1.63890026365e-19)
(1.1044225328 -0.273903758959 -1.12261401899e-19)
(1.07471508295 -0.178907299273 7.27664427788e-21)
(1.05853809638 -0.118356817414 9.08546103779e-21)
(1.04923635939 -0.0791510255325 -5.27473830388e-21)
(1.04322268496 -0.053000242967 3.07450676891e-22)
(1.03901973274 -0.0348328362471 4.54201416668e-21)
(1.03626173157 -0.0222652781619 -3.16399112045e-21)
(1.03417750579 -0.00885333419511 8.91019275611e-23)
(1.36354815792 -0.518778155775 -1.32367956348e-20)
(1.20217607233 -0.357285489921 1.55520348616e-19)
(1.13354494052 -0.242764458309 1.17310797316e-19)
(1.09761161777 -0.163794621856 -1.40348426463e-20)
(1.07489215591 -0.110408073777 5.50870678099e-20)
(1.06054521447 -0.0745167013969 3.58272754007e-20)
(1.05109274454 -0.0500918424627 2.45379106977e-20)
(1.04465308996 -0.0329687936049 -2.42180705462e-21)
(1.04049156388 -0.0210877760482 8.59450595649e-21)
(1.0375228893 -0.00837785368733 3.85517872866e-21)
(1.42142600669 -0.445005186346 -1.41186738127e-19)
(1.25317071331 -0.318303032744 -1.07652527343e-20)
(1.1689057859 -0.220239612452 5.72440299219e-21)
(1.12163664415 -0.150564191561 4.23192369274e-37)
(1.09113164369 -0.102252313864 8.17982230181e-22)
(1.07156320893 -0.0692438052622 -9.83409832191e-35)
(1.05868083141 -0.0465879164764 -2.93470204477e-21)
(1.05002974584 -0.0306510108062 -2.13863020029e-34)
(1.04454069326 -0.0195950477726 8.55041017549e-22)
(1.0406553485 -0.00778142615931 -2.5458121517e-21)
(1.45725326303 -0.366363886687 -2.0088583909e-34)
(1.28977025605 -0.271458872267 -4.09666232781e-20)
(1.19733011443 -0.192240103424 -4.1291349769e-20)
(1.14216903665 -0.133660768913 0)
(1.10554461861 -0.0916855198157 -2.32779405955e-20)
(1.08151731157 -0.062396851716 -1.60008364422e-20)
(1.06561255939 -0.042064293598 -9.30338340921e-21)
(1.05496124174 -0.0276858311145 -2.63440507958e-34)
(1.04824239847 -0.0177029118642 -2.86552573399e-21)
(1.04351370212 -0.00703175251501 2.41674514722e-21)
(1.48001182414 -0.294982945643 -8.76909465807e-20)
(1.31781219205 -0.225559809752 4.53820702174e-21)
(1.22055332188 -0.162803855314 0)
(1.15949318198 -0.114724419578 0)
(1.11798416907 -0.0793752309036 0)
(1.09023478339 -0.0542735349483 0)
(1.07172899722 -0.0366678609912 -5.76973881941e-22)
(1.05933526919 -0.0241518200589 -2.94564320315e-34)
(1.05151095172 -0.0154525114316 7.54794083352e-22)
(1.04604348429 -0.00614169035823 2.89151581131e-34)
(1.49400167214 -0.229233431427 -3.72695949279e-20)
(1.33865357205 -0.180024181154 0)
(1.23887051699 -0.132121986205 0)
(1.17359442675 -0.0941780897139 0)
(1.1283115097 -0.0656556428124 0)
(1.09759566787 -0.0450892376172 0)
(1.07693213033 -0.0305300466361 9.6932924004e-22)
(1.06306251916 -0.0201272563531 5.74612402264e-21)
(1.05432351669 -0.0128884134051 7.09663384546e-22)
(1.04820026803 -0.00512675230328 3.22338895728e-21)
(1.50209556863 -0.168558090076 0)
(1.35346897453 -0.135338733994 -1.30692006424e-20)
(1.25265491817 -0.100700290754 -1.67660609942e-20)
(1.18448178608 -0.0724641634963 0)
(1.13644090128 -0.0508452343051 -1.07738117624e-20)
(1.10345499277 -0.0350544505764 -7.69648874714e-21)
(1.081092098 -0.0237855425682 -4.38893297403e-21)
(1.06605682202 -0.0156962229002 -3.3676465869e-21)
(1.05657084292 -0.0100603382305 4.50651547788e-21)
(1.04990797563 -0.00400563889071 1.4051438411e-21)
(1.50536419208 -0.111821448128 9.13310444117e-21)
(1.36216258087 -0.0914647043647 7.07503950938e-21)
(1.26128111397 -0.0686878585393 -4.00955268369e-21)
(1.19144428745 -0.0497764863447 2.92085702903e-36)
(1.14163992844 -0.0351002014014 5.97031160967e-22)
(1.10709875018 -0.0242747320351 -6.13506222831e-35)
(1.08360860431 -0.0165001946487 7.38186019641e-22)
(1.06773179273 -0.0108978075985 3.16313077696e-21)
(1.05772117896 -0.00698557085561 5.8658320296e-22)
(1.05064726573 -0.0027772895221 -1.9676502609e-21)
(1.48432658962 -0.0557286774278 -4.50659674291e-20)
(1.34507658106 -0.0506099664164 1.21778255923e-20)
(1.24677595346 -0.0391736072883 1.30638211973e-20)
(1.17801622316 -0.0287574612892 0)
(1.1286487604 -0.0204120761432 7.75095040768e-21)
(1.09422251286 -0.0141653531583 5.49008755999e-21)
(1.07069881168 -0.00964679144402 4.38103691919e-21)
(1.05480891515 -0.00637843730123 2.42882098618e-21)
(1.04476287376 -0.00409024737538 -2.29054923041e-21)
(1.03768490065 -0.00162300188134 2.40920196582e-21)
(1.11111874736 -0.00314995798703 0)
(1.0227157838 -0.00701596047524 0)
(0.953992265781 -0.00624411840285 0)
(0.904047640051 -0.00476391553179 0)
(0.867591103161 -0.00342626443999 0)
(0.841962366023 -0.0023999339371 0)
(0.824340321889 -0.00164508629419 5.74090315455e-22)
(0.812380744263 -0.00109728323282 -3.61009297274e-36)
(0.804784102927 -0.000690545533788 5.80383164054e-22)
(0.799429003662 -0.000262454975436 1.80547395411e-21)
(2.12719340086 -0.0262360502362 8.62375248325e-19)
(2.117661521 -0.132676901303 5.99090457232e-20)
(2.09035413118 -0.236938144987 -1.30057506964e-19)
(2.04537436846 -0.336787646963 -3.37533024713e-19)
(1.98486733764 -0.430126984405 -1.19889099371e-19)
(1.90728583584 -0.516722189212 -1.76194149096e-19)
(1.82405319404 -0.587278621896 -4.09712149384e-19)
(1.71143190599 -0.664090906959 1.33186827601e-19)
(1.6342450484 -0.68357876686 0)
(1.4679969832 -0.772310499269 3.37273595847e-20)
(2.04090937323 -0.019176943133 2.13292051035e-19)
(2.03311062935 -0.0988557300721 -3.34161325779e-19)
(2.01217250064 -0.177559841798 9.03538603981e-22)
(1.97680124016 -0.254331507147 -1.32682188174e-19)
(1.93238650863 -0.326002591825 1.34027823551e-20)
(1.86940872281 -0.398240122979 1.14773449057e-19)
(1.81258788337 -0.448494213467 3.49288277093e-20)
(1.71808465858 -0.528822624797 9.85760955233e-20)
(1.6666705648 -0.52913726347 -1.20122653364e-19)
(1.54945833865 -0.62428458787 2.18004558736e-20)
(1.96705861599 -0.0142612220099 -1.14129065926e-19)
(1.96118903056 -0.0775474900941 2.03842309829e-19)
(1.94511206493 -0.139676523067 1.89506676492e-19)
(1.91678210952 -0.200624387675 -2.1947759979e-19)
(1.88243379972 -0.256571646757 1.0853468624e-19)
(1.8314683255 -0.31607338549 1.02800427403e-19)
(1.78753877642 -0.353231058459 -7.06611041705e-20)
(1.71384111853 -0.424683818779 8.3559600754e-20)
(1.66768349474 -0.422371859276 8.40904640171e-20)
(1.58219244528 -0.50647994805 1.07966614119e-19)
(1.91031475356 -0.0131743496921 -1.84898234271e-19)
(1.90562746512 -0.0616824360072 5.4260235848e-20)
(1.89226708324 -0.109446814085 -1.15468307509e-19)
(1.86873640163 -0.156957117829 -6.80371083505e-20)
(1.84000729306 -0.200487224711 4.16053216775e-20)
(1.79841928031 -0.248333036058 -1.0387352943e-19)
(1.76039873016 -0.277604850355 7.3430720128e-20)
(1.7030525744 -0.336279747837 3.05588235228e-20)
(1.66001453708 -0.335978122348 -1.77148424535e-20)
(1.5958591313 -0.404424850423 8.24692893023e-21)
(1.86602166383 -0.0112386368152 5.58940631463e-20)
(1.86216875955 -0.0482133824672 4.22266991302e-20)
(1.85067106203 -0.0845931275992 -6.52725766985e-20)
(1.83073388543 -0.12094990034 2.29700520271e-19)
(1.80557303034 -0.154321810039 1.79182583372e-20)
(1.77099549104 -0.191333611817 -1.30246617602e-19)
(1.73669626937 -0.21453596932 1.958625082e-20)
(1.6908496965 -0.259816598695 -8.53612711315e-20)
(1.65116644394 -0.26172292936 1.17332821723e-19)
(1.60033136435 -0.314442257827 8.53208645349e-20)
(1.83248078995 -0.0105743066272 -9.98949057667e-20)
(1.82928943848 -0.0376572919299 -5.75632203945e-20)
(1.81909024042 -0.0643133076624 3.82772548275e-20)
(1.80165081268 -0.0910628475439 7.86036706968e-20)
(1.77885387311 -0.115825738069 3.00766342907e-20)
(1.74910138009 -0.143305530984 -3.90706114407e-20)
(1.71734814175 -0.161342196126 3.02344048534e-21)
(1.67890220497 -0.194857855394 5.81611768438e-20)
(1.64203811299 -0.198222923983 1.09252675071e-19)
(1.5991535018 -0.237410755092 -5.29303544217e-20)
(1.80799346894 -0.0103446462156 -4.28007347425e-20)
(1.80540596246 -0.0288678927683 -7.74364438321e-20)
(1.79618006463 -0.0470724846156 -4.55459339399e-20)
(1.78050105156 -0.0654251581622 -9.46350416884e-20)
(1.75934151886 -0.0826239617914 -2.50903201998e-20)
(1.73270940497 -0.101803322764 -7.53891237992e-21)
(1.70269805519 -0.115002680678 4.82262633416e-20)
(1.66871774507 -0.138678201507 -1.91584574455e-20)
(1.63403677201 -0.142416434561 -3.04987232056e-20)
(1.59566878232 -0.170516807729 1.19659692946e-20)
(1.78734978921 -0.0100552712061 3.34393079318e-20)
(1.78584862712 -0.0208790427162 3.59503670661e-20)
(1.77799931811 -0.0314275340212 1.25402611621e-20)
(1.7642132048 -0.0420572537364 -2.17193628875e-20)
(1.74481300408 -0.0521511136439 -1.73986467098e-20)
(1.72071913577 -0.0637881278797 3.85361640254e-20)
(1.69228025718 -0.0720615448532 -5.40955466342e-22)
(1.66105954589 -0.0875049188204 -5.077365396e-20)
(1.62791390698 -0.0903952384657 1.21813105747e-20)
(1.59190907596 -0.110311522457 4.98201214342e-20)
(1.71467013511 -0.0141870286869 -2.11927377777e-20)
(1.71472524818 -0.0167141296854 6.379899737e-21)
(1.71101014984 -0.0188955137761 3.57669855997e-20)
(1.70317342113 -0.0211152390208 3.94309556374e-21)
(1.69074210782 -0.0231050493291 -7.95508874256e-22)
(1.67467028166 -0.0264842157525 -1.08812227875e-20)
(1.6535834762 -0.0280576071 2.24029674964e-20)
(1.63084518942 -0.0353348689409 -3.12470402525e-20)
(1.60219552802 -0.0350876203271 3.55657278606e-20)
(1.57560207016 -0.0471183054789 1.19073085383e-19)
(1.12429239525 -0.00836941231383 2.9103409932e-20)
(1.11634484226 -0.00554155855995 1.80068527808e-20)
(1.11147846424 -0.00272706610933 1.42200421273e-20)
(1.11001666129 -4.39439719706e-05 1.46756530454e-20)
(1.11106251499 0.00245558296509 -7.22331758142e-22)
(1.11532780838 0.00449433760898 6.54133938028e-21)
(1.11865267852 0.00659705003991 -9.85980457698e-21)
(1.1278947 0.00640325378021 3.16348872621e-21)
(1.12568237689 0.00944739477465 -4.99368244499e-21)
(1.14267473306 0.00475943786465 5.57729951848e-21)
(1.3831485032 0.750878387062 -5.56844052507e-20)
(1.36704496359 0.802365611959 2.34575929129e-20)
(1.37180368591 0.85850477877 -4.8469495614e-19)
(1.38235511547 0.921143311148 2.07530540316e-19)
(1.39267561609 0.988244378003 9.11338044923e-19)
(1.3988449598 1.05675525969 -1.32208015399e-19)
(1.38371084113 1.1135871024 -8.80197138037e-19)
(1.28718676598 1.10223196343 -2.03766564132e-20)
(0.984182153612 0.886696634082 -4.17551793774e-19)
(0.398287433237 0.358728862342 1.70065412822e-19)
(1.54869115529 0.724745611875 0)
(1.54065714875 0.774243421966 5.59433250489e-19)
(1.54119865153 0.82664460412 1.26721547941e-18)
(1.54871771768 0.887209245169 -7.70635330113e-19)
(1.56052239362 0.953807475876 -1.84401123191e-18)
(1.57093705474 1.02268452296 -1.38560966381e-19)
(1.55864556952 1.07999915132 -1.78816840023e-19)
(1.45325279693 1.06906125548 6.60374330994e-19)
(1.10960084919 0.856748427835 8.51627388429e-19)
(0.443690151945 0.339896333832 3.54052402992e-19)
(1.68798230151 0.703092432476 6.3012077354e-20)
(1.69270959799 0.74904553424 0)
(1.69857158005 0.797248946417 -6.48642439821e-20)
(1.70972747021 0.852494518407 7.79264451041e-19)
(1.72575137391 0.91386828485 5.20699194481e-20)
(1.74080256045 0.978285572729 -1.91808064041e-18)
(1.73064587203 1.03179713438 1.25054069301e-18)
(1.61502809491 1.01874476516 7.95072231432e-19)
(1.2293532907 0.81192752469 -7.65540778721e-19)
(0.484553973551 0.314342430309 -2.76697905195e-19)
(1.80073921883 0.66781158995 -1.27919688036e-19)
(1.81695361941 0.709332918139 -1.00466149927e-19)
(1.83312210547 0.75314678234 2.27642763943e-19)
(1.85320609283 0.802895025085 -2.86538010847e-19)
(1.87716376317 0.858366509821 -1.3756139096e-18)
(1.89903092307 0.916971357269 -1.08082544273e-18)
(1.89175927498 0.964855671103 1.20632307052e-18)
(1.76521940911 0.94844711435 8.1841580531e-19)
(1.33668368402 0.74988830875 0)
(0.516286557448 0.280475850405 0)
(1.89679220689 0.610086138779 -7.82315184986e-19)
(1.92246378926 0.647406171875 -1.39686101308e-18)
(1.94905870598 0.687068911133 -5.53163475664e-19)
(1.97911678352 0.73166279124 -3.28824177755e-20)
(2.01221376384 0.781236958565 0)
(2.04175414736 0.833486551368 1.38553840148e-19)
(2.03723332174 0.874858879207 1.65009620413e-19)
(1.89851277322 0.854995048194 2.13721722826e-19)
(1.42634238992 0.669223995385 -3.23688516719e-19)
(0.535573450781 0.238729601887 -8.03881436169e-20)
(1.98325202906 0.531405584413 9.53331158721e-19)
(2.01604840069 0.5645931653 -4.04986922957e-20)
(2.05107148589 0.599939791439 -1.14250312767e-18)
(2.08974959791 0.639194010148 0)
(2.13110424599 0.682476863192 0)
(2.16740134916 0.727724749016 0)
(2.16415259895 0.761877221732 1.53667511328e-18)
(2.01109275049 0.739079223638 -1.87926714414e-18)
(1.4951425358 0.572006075471 -1.06613709482e-18)
(0.540826288284 0.191720235654 -9.33914276529e-20)
(2.06022174367 0.436989519012 -1.28147607914e-18)
(2.09817454482 0.465414518079 -2.7098834146e-18)
(2.13952406977 0.495544422912 -4.78767855957e-21)
(2.1849450404 0.528628470492 5.68096156642e-19)
(2.23289012838 0.564825127906 -3.9704668206e-20)
(2.274159441 0.602244659347 1.30960835573e-18)
(2.26982503213 0.628910608608 -7.77810056091e-19)
(2.10052842468 0.603766748025 -2.39900897779e-18)
(1.54049229104 0.462579253056 1.79188724252e-19)
(0.532110092753 0.143602842361 1.22828951984e-19)
(2.12431093625 0.331236826309 -1.03455614326e-18)
(2.16613150268 0.353808786254 1.51026657928e-20)
(2.21218649094 0.377523417602 4.09937895569e-19)
(2.26263125761 0.403422059629 -4.06397346874e-19)
(2.31539650608 0.431664524897 6.48848725276e-19)
(2.35973323844 0.460661308102 1.85294270292e-18)
(2.35212970443 0.478943306822 -2.14212241711e-19)
(2.16324561128 0.454568292674 -1.41135704372e-18)
(1.5603782793 0.347507959798 2.72561285334e-19)
(0.511827904848 0.0972502135426 1.07280393089e-20)
(2.17208032721 0.217120739202 4.00276758676e-19)
(2.21684532432 0.232960577327 7.60271770464e-20)
(2.26630711469 0.249256153781 -4.340579955e-19)
(2.32026888323 0.267004151163 -1.05281290178e-18)
(2.37618675547 0.286324484998 8.66346456221e-20)
(2.4215937672 0.306054393709 8.62413237868e-20)
(2.4082595099 0.318276697472 -1.72669966587e-18)
(2.19635935744 0.298263405017 8.03959152928e-19)
(1.55628877808 0.228274590737 1.91132484202e-19)
(0.481833146687 0.0530232187763 -1.20981613914e-19)
(2.20170551731 0.0970211179841 7.86546034669e-19)