/*--------------------------------*- C++ -*----------------------------------*\
  =========                 |
  \\      /  F ield         | OpenFOAM: The Open Source CFD Toolbox
   \\    /   O peration     | Website:  https://openfoam.org
    \\  /    A nd           | Version:  13
     \\/     M anipulation  |
\*---------------------------------------------------------------------------*/
FoamFile
{
    format      ascii;
    class       volScalarField;
    location    "0.145";
    object      p;
}
// * * * * * * * * * * * * * * * * * * * * * * * * * * * * * * * * * * * * * //

dimensions      [0 2 -2 0 0 0 0];

internalField   nonuniform List<scalar> 
1800
(
6.39064
8.49485
10.6443
12.0692
12.8988
13.3024
13.4232
13.2514
11.9878
7.88344
10.2392
12.7117
15.2127
16.8926
17.9443
18.6007
19.0472
19.2757
18.5381
15.8481
16.6281
19.2499
21.9192
23.7789
25.035
25.9119
26.5569
26.9331
26.4532
24.6132
25.6204
28.1875
30.8331
32.7447
34.107
35.1126
35.8711
36.3183
35.9064
34.2156
36.6775
39.0365
41.4866
43.296
44.6181
45.6118
46.3636
46.8097
46.4556
44.8959
49.3541
51.4054
53.5474
55.152
56.3413
57.2417
57.922
58.3304
58.0466
56.6844
63.3036
64.9755
66.73
68.0607
69.0614
69.8297
70.4196
70.7951
70.6183
69.5276
78.2316
79.4725
80.7828
81.7912
82.5661
83.1789
83.6719
84.0256
83.991
83.2531
93.853
94.6323
95.4633
96.1175
96.6396
97.0762
97.458
97.7805
97.8897
97.5541
109.886
110.191
110.522
110.796
111.033
111.254
111.47
111.683
111.843
111.869
0.0567073
-0.205856
-0.0380115
0.337001
0.792271
1.22325
1.5432
1.75878
1.93733
2.1014
0.382672
-0.219516
-0.463881
-0.315545
0.0723875
0.434511
0.702939
0.970475
1.2693
1.5377
1.21899
0.224406
-0.657148
-0.835699
-0.559305
-0.312346
-0.104281
0.210744
0.601843
0.969848
1.42034
0.313373
-0.800687
-1.13189
-0.99222
-0.889399
-0.764518
-0.464241
-0.0294808
0.468046
0.937187
0.0321074
-0.809517
-1.11002
-1.12152
-1.15605
-1.11451
-0.867492
-0.398898
0.287792
0.267626
-0.199069
-0.539798
-0.675691
-0.725122
-0.795211
-0.793765
-0.613623
-0.116076
0.807526
-0.0134642
0.0516793
0.257408
0.405569
0.48255
0.498424
0.521195
0.662463
1.2166
2.43852
0.516014
1.11369
1.84648
2.35339
2.68001
2.88683
3.02156
3.21669
3.92883
5.58261
1.99398
3.10473
4.35591
5.27743
5.94443
6.43021
6.75825
7.08085
8.05151
10.3286
4.25359
5.89523
7.71196
9.08586
10.1048
10.8581
11.3691
11.806
12.8494
14.9988
2.82509
2.98362
2.92539
2.70846
2.2163
1.76118
1.36128
0.97843
0.590462
0.198091
2.4416
2.92198
2.78489
2.59246
2.12373
1.69421
1.31649
0.94975
0.574608
0.193047
1.93793
2.86616
2.65319
2.46938
2.03212
1.6307
1.27498
0.92367
0.560367
0.188576
1.3066
2.77691
2.53781
2.34285
1.9408
1.56979
1.23658
0.900194
0.547762
0.184679
0.62279
2.6133
2.43247
2.2168
1.84983
1.51082
1.20117
0.879348
0.536813
0.181363
0.0692795
2.36038
2.32037
2.09311
1.75987
1.45358
1.16864
0.861179
0.527551
0.178641
-0.0585737
2.04522
2.18428
1.96958
1.67137
1.39834
1.13904
0.845764
0.520012
0.176539
0.688786
1.74998
2.00776
1.83341
1.58053
1.34496
1.11257
0.833212
0.514238
0.175096
2.958
1.64236
1.76131
1.65101
1.47435
1.29157
1.08954
0.823723
0.510292
0.174373
7.20129
2.03755
1.45913
1.39453
1.33682
1.23434
1.06943
0.817111
0.508103
0.174423
10.5647
3.31449
1.58367
1.2839
1.21749
1.16747
1.03991
0.802693
0.500867
0.173654
12.4271
3.36589
1.12386
0.814952
0.968161
1.08612
1.01201
0.787269
0.492276
0.172901
13.5399
3.47437
1.01666
0.636032
0.907694
1.10727
1.03194
0.793052
0.491961
0.171876
14.7867
4.89887
1.69934
1.06499
1.17165
1.23403
1.06894
0.800202
0.491588
0.165319
16.9192
7.59598
3.13212
2.00828
1.69242
1.43308
1.11266
0.802699
0.487288
0.155512
19.8342
10.4444
4.90938
3.14406
2.32583
1.67999
1.17032
0.803698
0.47815
0.144483
22.377
12.5894
6.54989
4.23862
2.97031
1.95355
1.24738
0.81276
0.471498
0.13645
23.6702
13.8073
7.80536
5.20799
3.57973
2.23628
1.34362
0.834332
0.471151
0.13296
23.6103
14.1925
8.68232
6.07399
4.16464
2.53149
1.46492
0.874891
0.481648
0.135117
23.0568
14.4162
9.44857
6.91907
4.7551
2.85505
1.62684
0.948082
0.512735
0.144634
112.424
98.4728
84.7025
71.6917
59.7464
48.9595
39.3698
30.6818
20.6598
5.55876
113.404
100.111
86.6056
73.5949
61.5486
50.6655
41.1311
32.872
24.2055
12.0932
113.939
100.848
87.9618
75.6312
64.0897
53.4971
44.0692
35.8855
28.1054
18.9738
115.147
103.402
91.4386
79.6022
68.2397
57.6393
48.0027
39.4013
31.6946
24.4311
115.724
104.71
93.7863
83.0915
72.7398
62.8089
53.3377
44.4164
36.5865
30.3978
116.074
105.343
94.834
84.6697
74.947
65.7157
56.954
48.7087
41.6605
36.6338
116.304
105.742
95.4281
85.4933
76.0484
67.1665
58.8571
51.1896
44.8358
40.716
116.404
105.88
95.6109
85.7367
76.3802
67.6324
59.5275
52.1338
46.0179
42.0609
116.354
105.665
95.2362
85.2144
75.7327
66.8981
58.7665
51.3965
45.1731
40.7224
116.23
105.281
94.5901
84.3098
74.5817
65.5294
57.2333
49.738
43.2298
38.0372
234.867
230.521
228.965
228.53
228.443
228.697
229.431
230.812
232.963
235.101
226.284
223.279
222.237
222.203
222.431
222.917
223.848
225.455
227.925
230.4
216.755
214.59
213.822
213.949
214.382
215.087
216.212
217.981
220.593
223.189
206.435
204.415
203.714
203.912
204.457
205.287
206.51
208.318
210.886
213.403
195.101
193.197
192.544
192.733
193.266
194.078
195.254
196.948
199.302
201.591
182.725
181.004
180.412
180.555
181.008
181.72
182.755
184.232
186.261
188.226
169.371
167.911
167.419
167.522
167.878
168.451
169.29
170.484
172.11
173.681
155.23
154.115
153.761
153.839
154.095
154.508
155.115
155.978
157.148
158.276
140.615
139.902
139.695
139.745
139.891
140.126
140.477
140.979
141.66
142.317
126.083
125.74
125.6
125.554
125.542
125.564
125.631
125.751
125.929
126.105
247.036
247.256
247.512
247.756
248.051
248.496
249
249.305
249.254
248.729
247.224
247.526
247.898
248.211
248.427
248.721
249.088
249.01
248.22
247.227
247.346
247.724
248.137
248.448
248.559
248.672
248.878
248.525
247.239
246.031
247.309
247.803
248.215
248.448
248.423
248.326
248.31
247.88
246.681
245.566
246.863
247.519
247.904
248.015
247.877
247.638
247.454
247.092
246.338
245.576
245.658
246.512
246.861
246.841
246.639
246.391
246.21
246.05
245.84
245.567
243.292
244.403
244.764
244.673
244.489
244.349
244.333
244.478
244.803
245.049
239.387
240.887
241.38
241.339
241.275
241.343
241.594
242.1
242.923
243.665
233.899
235.966
236.694
236.78
236.919
237.275
237.87
238.781
240.091
241.305
228.53
230.408
231.167
231.346
231.661
232.282
233.226
234.579
236.428
238.136
247.912
247.656
247.625
247.347
247.093
246.792
246.416
246.192
246.114
246.243
247.874
247.649
247.616
247.345
247.096
246.808
246.457
246.243
246.018
246.365
247.848
247.643
247.609
247.341
247.096
246.822
246.501
246.269
245.881
246.55
247.832
247.638
247.605
247.336
247.094
246.836
246.542
246.257
245.741
246.809
247.825
247.634
247.602
247.328
247.091
246.847
246.568
246.207
245.645
247.074
247.827
247.631
247.602
247.32
247.087
246.855
246.575
246.136
245.616
247.17
247.837
247.63
247.602
247.31
247.082
246.855
246.562
246.066
245.627
246.805
247.856
247.628
247.602
247.299
247.076
246.851
246.541
246.016
245.597
245.536
247.884
247.629
247.602
247.288
247.069
246.853
246.552
246.025
245.371
242.738
247.918
247.632
247.6
247.277
247.064
246.877
246.627
246.086
244.65
238.005
247.972
247.642
247.595
247.27
247.046
246.826
246.452
245.597
242.985
234.363
248.084
247.656
247.606
247.275
247.051
246.918
246.717
245.817
242.681
232.356
248.314
247.685
247.628
247.269
247.016
246.95
246.896
245.921
242.507
231.126
248.788
247.775
247.662
247.252
246.899
246.725
246.571
245.408
241.281
230.023
249.688
247.929
247.721
247.163
246.676
246.197
245.626
244.077
238.839
228.213
251.48
248.043
247.807
247.041
246.399
245.513
244.378
242.246
236.077
225.604
255.327
248.274
247.895
246.936
246.089
244.807
243.158
240.481
233.883
223.197
263.616
249.336
248.07
246.836
245.763
244.146
242.103
239.113
232.58
221.908
281.187
252.024
248.615
246.812
245.45
243.536
241.192
238.161
232.119
221.932
307.175
256.055
250.037
246.964
245.192
242.962
240.337
237.359
231.852
222.461
237.113
221.751
211.118
201.797
191.632
180.325
167.928
154.553
140.504
126.368
230.672
218.362
209.213
200.5
190.569
179.336
166.992
153.741
140.014
126.534
224.131
214.764
206.597
198.081
188.373
177.534
165.78
153.276
140.252
127.068
219.085
211.576
203.586
194.735
184.885
174.108
162.603
150.648
138.575
126.734
213.724
207.313
199.298
190.184
180.499
170.351
159.794
148.924
137.865
126.77
208.055
202.744
195.474
187
178.001
168.546
158.628
148.305
137.684
126.895
204.209
199.772
193.188
185.297
176.768
167.685
158.066
147.991
137.579
126.967
202.917
198.669
192.331
184.725
176.416
167.482
157.965
147.961
137.602
127.031
204.243
199.539
193.096
185.517
177.189
168.177
158.54
148.394
137.879
127.145
206.917
201.491
194.763
187.058
178.567
169.338
159.457
149.053
138.276
127.282
112.763
112.933
113.018
112.869
112.362
112.001
111.817
112.101
112.094
111.844
90.1867
90.6513
90.8708
90.4377
89.0053
87.9189
87.2983
87.9606
87.9972
87.4094
69.3428
69.9724
70.2346
69.5681
67.629
65.917
64.8972
65.4464
65.7499
65.1927
51.2261
51.8344
52.0244
51.2014
49.2231
47.0562
45.7254
45.7611
46.4993
46.2632
36.5861
36.9944
37.0429
36.1613
34.3695
32.052
30.4067
29.841
30.6489
30.8333
25.548
25.6439
25.5145
24.5927
23.013
20.9781
19.1852
18.2427
18.497
18.995
17.6927
17.5146
17.2765
16.2962
14.8832
13.3649
11.8731
10.8064
10.4625
10.8273
12.259
12.0237
11.9163
10.9338
9.63159
8.60701
7.70821
6.86894
6.27395
6.18378
8.58304
8.44589
8.66251
7.80907
6.66534
6.05324
5.71387
5.34277
4.85949
4.47039
6.60949
6.40353
6.74602
6.03103
5.17075
4.88383
4.90191
4.90408
4.75858
4.35717
5.77174
5.526
5.62048
4.95756
4.42754
4.37395
4.53096
4.68076
4.80565
4.86053
5.3094
5.18057
4.92725
4.29446
4.02328
4.12415
4.34037
4.51286
4.63211
4.71584
4.91439
4.85292
4.43126
3.90883
3.81335
3.99709
4.23578
4.41915
4.53633
4.59408
4.45331
4.38295
3.97943
3.65384
3.68763
3.90972
4.13267
4.29415
4.3932
4.43317
3.8941
3.78813
3.53187
3.43941
3.57536
3.80042
3.9945
4.13472
4.21747
4.24152
3.23327
3.1435
3.11146
3.2291
3.43868
3.64558
3.81188
3.93288
4.00257
4.01816
2.52881
2.56441
2.71817
2.96436
3.20667
3.40993
3.57065
3.69097
3.76265
3.78099
1.90471
2.0267
2.27702
2.56899
2.8315
3.05776
3.24824
3.39624
3.4852
3.51389
1.25806
1.3678
1.63213
1.9639
2.28707
2.57824
2.82865
3.01192
3.11173
3.15354
0.58575
0.494325
0.731046
1.13487
1.55979
1.95021
2.26372
2.46568
2.57859
2.65946
4.19169
4.25631
4.13603
3.78627
3.09959
2.40562
1.78478
1.23266
0.719816
0.249979
4.25763
4.21172
4.08947
3.76702
3.05059
2.34868
1.74253
1.20694
0.707277
0.248305
4.27311
4.08703
3.97923
3.71336
2.99824
2.29407
1.70282
1.18327
0.695915
0.244979
4.22161
3.90763
3.82691
3.61518
2.93537
2.24058
1.66551
1.16151
0.685564
0.239866
4.10839
3.71354
3.66435
3.47171
2.85292
2.18471
1.62947
1.14101
0.675835
0.233569
3.95366
3.54267
3.51984
3.30718
2.74883
2.12395
1.59455
1.12215
0.667334
0.227539
3.7805
3.40368
3.39894
3.15439
2.63109
2.05569
1.55668
1.1023
0.658222
0.221957
3.59429
3.28481
3.29174
3.02783
2.51508
1.98117
1.51065
1.07519
0.644243
0.215967
3.38164
3.17294
3.18283
2.91982
2.40919
1.90602
1.46045
1.04308
0.626698
0.209943
3.12885
3.06877
3.06109
2.81645
2.31086
1.8321
1.40951
1.00972
0.607926
0.203732
5.96879
4.51088
3.82026
3.45072
2.93489
2.35925
1.77224
1.22569
0.710904
0.242245
5.16252
4.29196
3.86133
3.51241
2.9787
2.38074
1.78264
1.23055
0.71483
0.244113
4.49045
4.2042
3.92545
3.58049
3.01827
2.39864
1.79142
1.2356
0.718373
0.246192
4.1694
4.20846
4.01239
3.65702
3.05697
2.41398
1.79909
1.24077
0.722134
0.248181
4.15246
4.26162
4.11729
3.74418
3.09726
2.42666
1.80464
1.24513
0.725745
0.250246
112.592
89.5224
68.4681
50.6934
36.6756
26.352
19.1787
14.3012
11.1181
9.30302
112.372
88.9613
67.764
49.962
35.8769
25.3511
17.8775
12.7688
9.62347
8.12193
112.186
88.4823
67.128
49.2244
34.969
24.1814
16.4596
11.236
8.08764
6.62675
111.976
87.9092
66.2887
48.1609
33.6453
22.5877
14.6889
9.45302
6.36272
4.98206
111.722
87.181
65.1594
46.6876
31.8447
20.5195
12.5182
7.47712
4.99034
4.17152
244.369
244.406
244.524
244.694
244.903
244.907
244.403
243.729
243.837
243.604
244.583
244.652
244.763
244.95
245.22
245.396
245.182
244.559
244.317
244.19
244.783
244.829
244.939
245.133
245.419
245.683
245.664
245.178
244.756
244.688
245.027
245.058
245.154
245.325
245.58
245.867
245.977
245.721
245.339
245.258
245.29
245.307
245.388
245.533
245.74
245.996
246.2
246.213
246.056
245.957
245.549
245.562
245.63
245.751
245.92
246.143
246.408
246.649
246.756
246.744
245.781
245.798
245.875
246.011
246.193
246.425
246.718
247.063
247.351
247.47
246.031
246.053
246.143
246.324
246.577
246.881
247.237
247.628
247.967
248.134
246.374
246.42
246.511
246.72
247.062
247.496
247.983
248.468
248.785
248.751
246.75
246.868
247.001
247.205
247.57
248.086
248.649
249.153
249.45
249.251
137.076
136.817
136.794
137.057
136.839
136.441
135.899
135.728
135.799
135.964
161.527
160.929
160.95
161.588
160.936
159.813
158.349
157.893
158.099
158.559
183.773
183.204
183.491
184.014
182.964
181.218
179.25
178.562
178.811
179.436
202.74
202.492
203.21
203.221
201.862
199.664
197.657
196.813
196.992
197.596
218.214
218.385
219.17
218.581
216.911
214.566
212.745
211.842
211.88
212.286
230.097
230.577
230.807
229.846
228.035
225.975
224.364
223.419
223.28
223.376
238.304
238.64
238.274
237.196
235.699
234.159
232.712
231.705
231.46
231.285
242.966
242.842
242.227
241.392
240.504
239.468
238.131
237.12
237.012
236.785
244.692
244.268
243.773
243.419
243.107
242.503
241.334
240.453
240.672
240.547
244.834
244.406
244.254
244.277
244.336
244.081
243.217
242.477
242.826
242.633
255.664
247.807
248.472
247.193
246.844
246.286
245.682
245.268
245.12
245.148
252.845
247.757
248.293
247.198
246.891
246.34
245.706
245.309
245.207
245.123
250.949
247.771
248.083
247.215
246.939
246.397
245.756
245.411
245.384
245.16
249.82
247.786
247.878
247.244
246.982
246.458
245.843
245.566
245.604
245.266
249.135
247.763
247.764
247.28
247.017
246.528
245.97
245.74
245.815
245.423
248.679
247.715
247.715
247.309
247.039
246.604
246.113
245.888
245.976
245.597
248.373
247.688
247.692
247.325
247.047
246.673
246.232
245.988
246.078
245.76
248.175
247.678
247.672
247.336
247.059
246.72
246.307
246.048
246.136
245.904
248.049
247.671
247.654
247.343
247.075
246.75
246.35
246.092
246.162
246.033
247.967
247.664
247.638
247.346
247.087
246.773
246.382
246.138
246.159
246.144
318.179
254.641
250.792
247.759
246.998
246.401
245.962
245.585
244.867
243.319
296.448
252.255
249.696
247.549
246.907
246.356
245.908
245.546
245.077
244.123
278.001
250.102
249.123
247.399
246.857
246.322
245.85
245.483
245.156
244.797
266.59
248.766
248.818
247.293
246.829
246.295
245.786
245.396
245.145
245.126
259.816
248.052
248.608
247.208
246.815
246.271
245.714
245.291
245.091
245.157
239.898
238.049
234.832
229.922
222.716
212.358
198.304
180.497
159.417
136.333
241.081
239.546
236.368
231.228
223.721
213.16
199.038
181.203
159.979
136.554
242.594
241.096
237.912
232.654
224.897
214.073
199.779
181.84
160.459
136.74
244.257
242.848
239.716
234.438
226.498
215.401
200.845
182.68
161.032
136.95
245.048
244.208
241.701
236.624
228.577
217.206
202.32
183.81
161.76
137.203
)
;

boundaryField
{
    left
    {
        type            zeroGradient;
    }
    right
    {
        type            fixedValue;
        value           uniform 0;
    }
    down
    {
        type            zeroGradient;
    }
    up
    {
        type            zeroGradient;
    }
    cylinder
    {
        type            zeroGradient;
    }
    defaultFaces
    {
        type            empty;
    }
}


// ************************************************************************* //
