/*--------------------------------*- C++ -*----------------------------------*\
  =========                 |
  \\      /  F ield         | OpenFOAM: The Open Source CFD Toolbox
   \\    /   O peration     | Website:  https://openfoam.org
    \\  /    A nd           | Version:  13
     \\/     M anipulation  |
\*---------------------------------------------------------------------------*/
FoamFile
{
    format      ascii;
    class       volScalarField;
    location    "0.145";
    object      strainRateViscosityModel:nu;
}
// * * * * * * * * * * * * * * * * * * * * * * * * * * * * * * * * * * * * * //

dimensions      [0 2 -1 0 0 0 0];

internalField   nonuniform List<scalar> 
1800
(
9.40522
9.19802
9.01036
8.80086
8.57539
8.34242
8.11234
7.89309
7.6166
7.36888
9.58523
9.41882
9.26688
9.09713
8.91066
8.71042
8.50181
8.28579
8.0229
7.69558
9.7021
9.5626
9.42792
9.27076
9.08832
8.87833
8.63978
8.36715
8.0276
7.60604
9.77529
9.65601
9.53308
9.38266
9.20018
8.98123
8.72204
8.41474
8.02685
7.55162
9.82158
9.71817
9.60541
9.46144
9.28042
9.05657
8.78496
8.45812
8.04661
7.55444
9.85176
9.76068
9.65712
9.52036
9.34327
9.11863
8.83997
8.49971
8.07094
7.56941
9.87171
9.78978
9.69381
9.56374
9.39121
9.1674
8.88393
8.53229
8.08718
7.57552
9.88468
9.80912
9.71871
9.59373
9.42469
9.20119
8.91288
8.54995
8.08862
7.56383
9.89253
9.82095
9.734
9.61198
9.44441
9.21937
8.92465
8.54921
8.07148
7.52929
9.8964
9.82674
9.74137
9.62048
9.45283
9.22547
8.92496
8.53957
8.05077
7.49364
2.04804
1.3074
1.14298
1.38131
1.85535
2.26576
2.38593
2.34073
2.31076
2.31561
3.71597
1.75513
1.57969
2.14871
2.72254
2.81998
2.68656
2.6463
2.70472
2.75524
4.53907
2.67254
2.6003
3.2198
3.46586
3.22746
3.08462
3.16964
3.28057
3.33547
5.18069
3.99843
3.9123
4.17718
4.1031
3.83565
3.77384
3.87285
3.93337
3.97288
6.03851
5.3455
5.16464
5.11283
4.91366
4.68438
4.59425
4.58965
4.57564
4.62097
6.96494
6.49493
6.25327
6.04806
5.80058
5.55914
5.38541
5.27217
5.19743
5.25371
7.77951
7.39434
7.13116
6.86958
6.59538
6.32483
6.08229
5.88762
5.75238
5.80581
8.4055
8.06316
7.7993
7.52115
7.23003
6.93158
6.63738
6.37591
6.17663
6.21228
8.8522
8.54898
8.29435
8.01265
7.7065
7.3779
7.03056
6.69167
6.40137
6.40578
9.16285
8.903
8.66758
8.39725
8.09512
7.76339
7.40146
7.02708
6.69572
6.73837
2.17489
1.70546
1.29332
0.83001
0.376796
0.0926294
0.0246717
0.0134056
0.0111149
0.0101203
2.52018
1.8456
1.40008
0.869535
0.39112
0.0977409
0.0255838
0.0136305
0.0112668
0.010152
2.94078
1.9932
1.50383
0.916688
0.410431
0.104787
0.0267369
0.013879
0.0114173
0.010184
3.43287
2.17449
1.60124
0.968484
0.433772
0.113358
0.0280744
0.0141444
0.0115588
0.0102139
3.97566
2.41508
1.697
1.02104
0.459152
0.123199
0.0295618
0.0144196
0.0116822
0.0102394
4.5175
2.72292
1.80415
1.07339
0.484572
0.133984
0.0311996
0.0147026
0.0117817
0.0102586
4.98026
3.0784
1.9318
1.12387
0.506051
0.143878
0.0328311
0.014984
0.0118528
0.01027
5.29256
3.45911
2.10363
1.18863
0.528569
0.153608
0.0346611
0.0152941
0.0118985
0.0102728
5.32222
3.74226
2.25537
1.23313
0.534011
0.155136
0.0354706
0.0154651
0.0118975
0.0102661
5.17862
4.00961
2.5006
1.35534
0.576778
0.170337
0.0400454
0.0162176
0.0119462
0.0102568
4.93282
3.98194
2.57861
1.37701
0.544896
0.149239
0.0378418
0.0158546
0.0115597
0.0101251
5.3498
3.443
2.28802
1.13326
0.360594
0.0622303
0.0139331
0.0107543
0.0114576
0.0146874
4.94061
3.09841
2.22641
1.0473
0.279331
0.051266
0.0754492
0.130061
0.162283
0.196321
4.54772
3.57104
2.53623
1.39821
0.589305
0.365602
0.435012
0.495447
0.518835
0.536003
5.09317
4.69458
3.23261
1.99456
1.01564
0.647819
0.640765
0.683378
0.703899
0.722427
6.24876
5.64987
4.00837
2.58106
1.46444
0.974201
0.894798
0.905042
0.914797
0.925029
7.26386
6.37088
4.69866
3.11511
1.9033
1.308
1.13176
1.09136
1.08282
1.08256
8.00111
6.91228
5.25634
3.5811
2.31169
1.63604
1.36561
1.26629
1.23338
1.21916
8.51846
7.32925
5.69547
3.97937
2.67757
1.9363
1.5751
1.41338
1.35307
1.32453
8.92985
7.6869
6.04686
4.30913
3.02903
2.25076
1.79855
1.56402
1.46858
1.41987
6.51434
6.44071
6.43076
6.44812
6.48556
6.52671
6.57698
6.7033
6.88552
6.81307
0.261882
1.05794
2.00838
2.92354
3.70476
4.31776
4.73496
4.98497
5.22554
5.73059
3.84756
3.54209
3.28363
3.11109
3.10752
3.25355
3.47923
3.72463
4.18083
4.86453
6.64506
6.62779
6.53721
6.34394
6.04112
5.6537
5.24333
4.88863
4.7327
4.54696
7.69217
7.67687
7.63253
7.54176
7.39654
7.18984
6.92596
6.61637
6.27987
5.64568
8.44964
8.43323
8.3945
8.32796
8.22998
8.09732
7.92912
7.71753
7.42813
6.90674
8.93967
8.92391
8.89027
8.8368
8.76173
8.66309
8.53852
8.37953
8.15554
7.8098
9.27293
9.25975
9.23239
9.18978
9.13045
9.0524
8.95269
8.82491
8.65306
8.43139
9.50441
9.49411
9.47301
9.44016
9.39417
9.33307
9.2541
9.15271
9.02269
8.87513
9.68987
9.68282
9.66849
9.646
9.61399
9.57061
9.51347
9.43954
9.34604
9.24361
7.24843
7.52551
7.83475
8.08492
8.34211
8.59737
8.83978
9.06064
9.2542
9.46033
7.58266
7.94673
8.23884
8.47886
8.70729
8.92317
9.12115
9.29831
9.45359
9.61803
7.498
7.95615
8.32416
8.61868
8.87416
9.09649
9.28719
9.44898
9.58508
9.72218
7.44675
7.95677
8.37243
8.70063
8.97538
9.20503
9.39405
9.54764
9.67107
9.78814
7.45649
7.98018
8.4177
8.76392
9.04965
9.28285
9.46926
9.61557
9.72848
9.83013
7.4828
8.01149
8.46345
8.82078
9.11169
9.3442
9.52565
9.66419
9.76779
9.85755
7.50419
8.03789
8.50245
8.86815
9.16148
9.39146
9.56731
9.69867
9.79464
9.87562
7.51185
8.05268
8.52857
8.90175
9.19708
9.42485
9.59612
9.72193
9.8123
9.88722
7.49922
8.05082
8.5374
8.91875
9.21737
9.44473
9.61347
9.73588
9.82278
9.89398
7.48376
8.04402
8.53598
8.92327
9.22498
9.45303
9.621
9.742
9.82734
9.89687
2.5031
2.47008
2.45835
2.56227
2.67815
2.42976
1.73327
1.20925
1.45647
3.88453
2.92335
2.86469
2.74355
2.7011
2.94094
3.19955
2.74586
1.9607
2.12443
4.81812
3.4223
3.38817
3.27951
3.13486
3.26527
3.6843
3.68538
3.17594
3.30091
5.22437
3.95251
3.92931
3.91271
3.84811
3.94209
4.29147
4.52536
4.45439
4.65704
5.78741
4.5349
4.49668
4.56019
4.641
4.81391
5.1229
5.42195
5.60971
5.88714
6.57232
5.13932
5.0927
5.22135
5.41304
5.67221
5.98808
6.30672
6.59206
6.89482
7.38341
5.68016
5.64179
5.83526
6.10052
6.41329
6.74299
7.0678
7.37657
7.676
8.07949
6.08236
6.06537
6.32303
6.64535
6.99496
7.33838
7.66552
7.97278
8.2578
8.60968
6.26905
6.28501
6.63263
7.02463
7.41741
7.78153
8.11442
8.41527
8.68219
8.98801
6.60465
6.57199
6.95489
7.37666
7.77805
8.14018
8.4644
8.7492
8.99254
9.25206
0.0792293
0.0972067
0.0247993
0.0129024
0.0145641
0.161564
0.687351
1.30807
1.82435
2.34654
0.0526399
0.101082
0.0265241
0.015477
0.0193079
0.180156
0.732397
1.416
1.94981
2.64887
0.036689
0.10815
0.0297977
0.0206112
0.028724
0.212613
0.794797
1.52288
2.07506
3.00516
0.0275147
0.117713
0.0346202
0.0286902
0.0437367
0.257611
0.868431
1.62161
2.22682
3.42994
0.0225692
0.129561
0.0409488
0.0396776
0.0644368
0.31128
0.945492
1.71455
2.43465
3.91527
0.0205111
0.143771
0.0487103
0.0531872
0.0900837
0.368932
1.02186
1.81576
2.71195
4.40889
0.0208152
0.160636
0.057779
0.0683118
0.117751
0.423533
1.09362
1.93731
3.04303
4.83089
0.0234132
0.180071
0.0681547
0.0842343
0.146833
0.478193
1.17822
2.10778
3.40557
5.10857
0.0301281
0.201465
0.0786074
0.0979312
0.166551
0.50931
1.23599
2.25935
3.67886
5.10809
0.0475318
0.222397
0.0920034
0.111717
0.199296
0.582027
1.38378
2.51882
3.92919
4.91322
0.0932785
0.252891
0.116416
0.124881
0.202836
0.57569
1.42337
2.62974
3.943
4.70049
0.189647
0.295839
0.127412
0.119098
0.14549
0.407945
1.20307
2.41301
3.51424
5.23692
0.349351
0.32726
0.136222
0.0717305
0.0407072
0.218995
1.00895
2.31347
3.27065
4.9766
0.604786
0.333162
0.0399952
0.0537649
0.10169
0.27842
1.12909
2.44006
3.60847
4.67401
0.972313
0.160317
0.172668
0.436845
0.540338
0.777569
1.73232
3.05645
4.61777
5.1281
1.48027
0.0601983
0.600244
0.69445
0.848263
1.25481
2.35973
3.84293
5.56042
6.20581
2.15267
0.647923
0.928701
1.0249
1.24242
1.76949
2.95256
4.56797
6.29326
7.21572
3.77014
1.65156
1.37715
1.37932
1.62805
2.2473
3.47524
5.1644
6.85482
7.97062
6.85506
3.55011
2.06039
1.74126
1.98699
2.67133
3.92581
5.64246
7.29709
8.50781
9.04849
6.38503
2.96307
2.2763
2.40099
3.09059
4.3172
6.0399
7.68692
8.93729
6.63052
6.69312
6.51563
6.39333
6.35219
6.32525
6.30771
6.31921
6.36369
6.47786
5.56034
5.04192
4.79356
4.54832
4.1463
3.55659
2.81095
1.94089
1.05045
0.287046
4.87984
4.25425
3.83575
3.61647
3.42244
3.29808
3.30133
3.44515
3.6461
3.8684
4.68952
4.85679
5.00061
5.31557
5.68724
6.0444
6.3309
6.52115
6.61745
6.64269
5.65974
6.26858
6.60222
6.90658
7.17086
7.38152
7.5324
7.6288
7.67725
7.69281
6.85981
7.38661
7.68437
7.90309
8.07753
8.21565
8.31841
8.38898
8.43084
8.44908
7.76615
8.1216
8.35298
8.51869
8.6485
8.75134
8.82977
8.88594
8.9217
8.93901
8.40557
8.6333
8.80927
8.94115
9.04413
9.1247
9.18597
9.23004
9.25851
9.27255
8.86623
9.01615
9.14753
9.25049
9.33072
9.39273
9.43936
9.4726
9.49394
9.50436
9.24812
9.34999
9.44267
9.51605
9.57275
9.61574
9.64738
9.66949
9.68343
9.69008
9.51073
8.98749
8.23876
6.93291
5.60631
0.13246
3.36448
5.96572
7.21699
8.15469
9.46683
8.92385
8.171
6.89511
5.55696
0.567291
2.62486
5.71208
6.91963
7.91696
9.36744
8.78539
8.02319
6.81381
5.37342
1.61019
1.41493
5.21366
6.31349
7.40669
9.18498
8.54813
7.7775
6.65891
5.19317
2.74841
0.724039
4.24558
5.42753
6.57559
8.87181
8.17703
7.40714
6.38061
5.033
3.37664
0.972414
2.63692
4.32518
5.39934
8.3567
7.63277
6.87653
5.92103
4.77009
3.45048
1.72487
1.30457
3.0587
3.99589
7.54792
6.89556
6.1593
5.23531
4.2967
3.27254
2.15827
1.17859
1.66353
2.56623
6.35352
6.01937
5.28473
4.26711
3.53238
2.88773
2.12489
1.45282
1.07455
1.23879
4.70939
5.17324
4.44401
3.07553
2.47888
2.24283
1.83444
1.39867
1.1332
0.65913
2.79447
4.45441
3.91499
2.02565
1.45943
1.4931
1.39188
1.21599
1.07266
0.84794
1.36325
3.72823
3.54826
1.35011
0.846726
0.922399
0.983517
0.967515
0.981307
1.02551
0.662486
2.94916
3.00419
0.951543
0.588385
0.669436
0.793546
0.848915
0.866483
0.894798
0.383051
2.18934
2.2492
0.69505
0.516767
0.635572
0.772102
0.854242
0.885845
0.905702
0.283014
1.53556
1.4639
0.556485
0.584987
0.727135
0.841166
0.911071
0.930537
0.936845
0.25259
0.964068
0.821652
0.573295
0.730069
0.860707
0.958937
1.01977
1.03239
1.027
0.250384
0.430077
0.502129
0.678497
0.866634
1.00257
1.09421
1.14733
1.15689
1.14887
0.149951
0.1973
0.520051
0.775324
0.995293
1.13285
1.21924
1.27135
1.29352
1.29515
0.0397401
0.273793
0.645072
0.910866
1.1015
1.22156
1.32105
1.40962
1.46517
1.48032
0.0952406
0.498192
0.796033
1.02689
1.16945
1.33057
1.51529
1.6613
1.72016
1.72409
0.779117
0.873312
0.964929
1.11252
1.3394
1.6641
1.92889
2.02978
2.02043
2.00111
0.363482
0.0603443
0.24684
0.568388
0.774872
0.854226
0.894953
0.929625
0.954097
0.972731
0.474192
0.234979
0.323334
0.521824
0.687121
0.752109
0.788159
0.821485
0.845301
0.861049
0.551875
0.404998
0.435249
0.491739
0.595596
0.645526
0.675506
0.705563
0.727685
0.739569
0.676949
0.62115
0.586133
0.509078
0.502731
0.528762
0.554186
0.582174
0.603076
0.611444
0.844914
0.817909
0.722618
0.570363
0.425717
0.407957
0.423598
0.446358
0.464246
0.467806
1.03586
0.99052
0.838851
0.646718
0.381839
0.290094
0.293454
0.3148
0.331566
0.33506
1.23314
1.13842
0.9331
0.70746
0.369392
0.189398
0.14698
0.14475
0.151892
0.141393
1.43593
1.2766
1.01599
0.746396
0.366327
0.126735
0.0522178
0.0326306
0.0278591
0.020502
1.65307
1.41676
1.09913
0.773038
0.364867
0.0982456
0.0272384
0.0141716
0.0114221
0.0101893
1.89413
1.56158
1.19118
0.798717
0.367994
0.0910379
0.0242651
0.013223
0.0109748
0.0100924
2.01225
0.737836
0.74214
0.998684
1.22719
1.33536
1.38277
1.40523
1.41435
1.42789
1.39935
0.474002
0.607834
0.906873
1.1311
1.23587
1.28575
1.31384
1.32862
1.3444
0.755729
0.277049
0.513795
0.828432
1.04876
1.14912
1.19927
1.2309
1.24942
1.26668
0.260278
0.17628
0.44034
0.753666
0.963802
1.05542
1.103
1.13665
1.15808
1.17641
0.433643
0.0313013
0.304296
0.638889
0.857833
0.949696
0.997079
1.03347
1.05808
1.07786
9.35733
9.29291
9.14423
8.87696
8.44224
7.78443
6.87747
5.7654
4.58739
3.54157
9.19566
9.09909
8.88506
8.5164
7.94724
7.14323
6.1172
4.96298
3.85234
2.7932
9.02735
8.90401
8.63092
8.16615
7.46775
6.52277
5.37817
4.17539
3.08767
1.94717
8.81981
8.66597
8.32579
7.75286
6.91158
5.81957
4.55999
3.29985
2.23104
1.09482
8.59069
8.38281
7.92965
7.18167
6.1171
4.79693
3.35662
2.08918
0.992207
0.298914
1.05949
1.02605
1.02027
1.02893
0.938115
0.829538
1.31401
3.58369
3.79931
1.39433
0.955426
0.942541
0.93996
0.89013
0.739742
0.604434
0.921998
3.06602
3.06632
0.688223
1.00042
0.998924
0.985601
0.913963
0.767306
0.602717
0.716471
2.32184
2.30784
0.400096
1.07078
1.08272
1.0796
1.02024
0.910119
0.765248
0.685974
1.51612
1.57896
0.291312
1.19504
1.2165
1.22028
1.17449
1.08998
0.970854
0.809058
0.876895
0.858118
0.256961
1.34213
1.35962
1.36245
1.33153
1.26312
1.13781
0.919434
0.648296
0.337198
0.214832
1.51762
1.51812
1.48867
1.43387
1.36133
1.24539
1.02327
0.718247
0.270491
0.0642088
1.74022
1.73983
1.67963
1.54611
1.39232
1.25521
1.10047
0.826721
0.467283
0.0499344
1.98651
2.01732
2.01425
1.8731
1.5901
1.29545
1.10177
0.942037
0.780568
0.661246
2.21561
2.24031
2.30564
2.33069
2.11667
1.63495
1.18913
1.00044
1.16634
1.95077
8.1545
7.21663
5.96535
3.36397
0.132718
5.60484
6.93242
8.23857
8.98751
9.51083
7.91627
6.91851
5.71104
2.62422
0.567163
5.55309
6.89367
8.17043
8.9239
9.46714
7.40522
6.31155
5.21176
1.41678
1.60647
5.36887
6.81155
8.02234
8.78552
9.36802
6.57287
5.42445
4.24312
0.727272
2.74007
5.18833
6.65608
7.77657
8.54848
9.18599
5.39479
4.32035
2.6375
0.972809
3.3653
5.02692
6.37716
7.40628
8.17785
8.87353
3.98742
3.05046
1.31215
1.7191
3.43711
4.76138
5.91628
6.8758
7.63454
8.35955
2.55013
1.65983
1.19132
2.147
3.25536
4.28227
5.22655
6.15856
6.89955
7.55266
1.22195
1.09058
1.4647
2.114
2.86383
3.50641
4.24917
5.28527
6.02905
6.36149
0.669702
1.15785
1.41581
1.82765
2.21335
2.44063
3.0487
4.453
5.19476
4.72221
0.881931
1.1046
1.24733
1.40149
1.4744
1.42474
1.99521
3.93772
4.49325
2.81739
2.0638
0.51994
1.04211
0.786391
0.803319
0.777582
0.623008
0.306473
0.0582356
0.358126
1.59677
0.242622
0.830557
0.620976
0.692808
0.684217
0.567512
0.352456
0.283137
0.497544
1.30568
0.0245656
0.581365
0.453904
0.576525
0.581808
0.518406
0.44774
0.484744
0.608088
1.03582
0.0424773
0.33851
0.318395
0.453982
0.473291
0.503114
0.602288
0.731571
0.77714
0.780394
0.122758
0.0644368
0.170323
0.330238
0.370458
0.534482
0.755197
0.945048
0.984846
0.567919
0.156787
0.0207844
0.0198684
0.195405
0.291869
0.590927
0.884765
1.12717
1.20664
0.400112
0.147127
0.0397485
0.0183231
0.0606513
0.242406
0.6327
0.98117
1.27842
1.42708
0.274832
0.124483
0.0306187
0.0177509
0.021502
0.19842
0.648022
1.05578
1.41546
1.64479
0.184352
0.106401
0.02657
0.0138157
0.0145404
0.168723
0.651649
1.12697
1.55138
1.86323
0.121322
0.0980556
0.0246691
0.0123438
0.0132384
0.157067
0.661545
1.20972
1.68974
2.08996
9.33627
6.76582
2.7187
1.8624
1.36979
1.22513
1.02916
0.813151
0.78828
2.03657
8.21035
4.62645
2.25555
1.58568
1.24463
1.12915
0.94168
0.677647
0.514935
1.40358
6.11685
3.0492
1.82068
1.3819
1.13902
1.05014
0.869277
0.584002
0.312918
0.744845
4.12229
1.85461
1.51624
1.17417
1.02922
0.966434
0.798647
0.507827
0.217279
0.232906
2.81521
1.04465
1.25089
0.970199
0.910815
0.864448
0.692223
0.370963
0.0444775
0.400577
3.55183
4.59456
5.76957
6.87992
7.78612
8.44343
8.87775
9.14471
9.29317
9.35742
2.78716
3.84873
4.96043
6.1156
7.14268
7.94727
8.51661
8.88529
9.09925
9.19573
1.93289
3.07841
4.16926
5.37369
6.52028
7.46661
8.16572
8.63083
8.90404
9.02738
1.06203
2.20927
3.28737
4.55225
5.81548
6.90937
7.75173
8.32532
8.66582
8.81978
0.298157
0.964522
2.06954
3.34411
4.79017
6.11351
7.17968
7.9287
8.38245
8.5906
)
;

boundaryField
{
    left
    {
        type            calculated;
        value           nonuniform List<scalar> 
35
(
0.274639
0.522281
0.955397
1.61503
2.53093
3.69758
5.05756
6.47423
8.1582
9.44168
0.227127
0.170598
0.138407
0.12059
0.111332
0.107852
0.109168
0.115469
0.131643
0.170929
4.92931
4.0466
3.21711
2.50046
1.89448
1.38981
0.990863
0.689054
0.470818
0.321981
9.61565
8.97931
7.92296
6.84903
5.85919
)
;
    }
    right
    {
        type            calculated;
        value           nonuniform List<scalar> 
35
(
1.42799
1.34452
1.26674
1.17629
1.07734
0.971336
0.858486
0.735473
0.60571
0.460804
0.327486
0.135685
0.0191027
0.0100911
0.0100311
0.0100395
0.0100491
0.0100589
0.0100682
0.0100765
0.010083
0.0100873
0.0100892
0.0100883
0.0100869
0.010031
0.0161906
0.208025
0.551502
0.735771
0.935159
1.08915
1.22264
1.32575
1.41885
)
;
    }
    down
    {
        type            calculated;
        value           nonuniform List<scalar> 
40
(
9.45403
7.26172
2.94304
1.94627
1.40767
1.25706
1.0594
0.856278
0.890586
2.26316
3.83604
4.88701
6.03964
7.09877
7.9499
8.55945
8.9581
9.20229
9.33834
9.39741
9.39732
9.33806
9.20177
8.95722
8.55806
7.94779
7.09551
6.03411
4.87769
3.82246
2.23484
0.838186
0.784579
1.03094
1.26092
1.36814
1.41343
1.43342
1.44033
1.45302
)
;
    }
    up
    {
        type            calculated;
        value           nonuniform List<scalar> 
40
(
9.03287
7.80378
6.16284
4.42044
3.14228
2.34836
1.86328
1.60395
1.49869
1.44531
9.72925
9.72303
9.71043
9.69061
9.66229
9.62369
9.5725
9.50566
9.42043
9.32765
9.33441
9.42606
9.51003
9.57597
9.62646
9.66448
9.69229
9.71162
9.72375
9.72948
9.27031
7.09656
3.33772
2.40705
2.51047
3.21772
4.44425
6.16833
7.81286
9.04389
)
;
    }
    cylinder
    {
        type            calculated;
        value           nonuniform List<scalar> 
80
(
2.42717
4.59728
5.29772
5.61603
6.25345
7.08415
7.86643
8.47932
8.91506
9.21402
9.4461
9.61869
9.72972
9.79819
9.84087
9.86838
9.88643
9.89811
9.90516
9.90864
9.50057
9.65063
9.74898
9.81039
9.84892
9.87382
9.8901
9.90048
9.90651
9.90908
4.97116
5.86393
5.92018
6.15406
6.7606
7.49893
8.16831
8.68473
9.05093
9.30285
1.05035
0.499373
0.279472
0.193254
0.169839
0.172644
0.0862283
0.0399014
0.741481
2.38573
9.59553
9.5571
9.46898
9.30406
9.01333
8.51797
7.7013
6.40762
4.4919
2.3535
9.59543
9.55678
9.46837
9.303
9.01153
8.51504
7.69678
6.40102
4.48152
2.32993
1.02042
0.476
0.263577
0.183868
0.161641
0.179774
0.149047
0.0838126
0.0534597
0.825415
)
;
    }
    defaultFaces
    {
        type            empty;
    }
}


// ************************************************************************* //
