/*--------------------------------*- C++ -*----------------------------------*\
  =========                 |
  \\      /  F ield         | OpenFOAM: The Open Source CFD Toolbox
   \\    /   O peration     | Website:  https://openfoam.org
    \\  /    A nd           | Version:  13
     \\/     M anipulation  |
\*---------------------------------------------------------------------------*/
FoamFile
{
    format      ascii;
    class       volVectorField;
    location    "0.145";
    object      U;
}
// * * * * * * * * * * * * * * * * * * * * * * * * * * * * * * * * * * * * * //

dimensions      [0 1 -1 0 0 0 0];

internalField   nonuniform List<vector> 
1800
(
(0.0978293 -0.0883591 -4.49347e-20)
(0.286953 -0.242053 -3.41345e-20)
(0.474045 -0.379229 -4.84213e-19)
(0.657771 -0.500438 1.90771e-19)
(0.836697 -0.607561 7.2332e-20)
(1.01001 -0.701887 -4.04675e-20)
(1.17725 -0.784111 5.67138e-20)
(1.33803 -0.854457 2.037e-19)
(1.49166 -0.91387 5.95927e-19)
(1.63355 -0.967913 8.1324e-19)
(0.119068 -0.0915112 -7.90414e-20)
(0.344303 -0.24775 -7.69498e-19)
(0.563295 -0.384837 3.77425e-21)
(0.775376 -0.504384 1.2598e-19)
(0.979519 -0.609144 -1.26242e-19)
(1.17523 -0.701004 7.39643e-20)
(1.36233 -0.781192 -2.77503e-19)
(1.5408 -0.850602 -5.26347e-20)
(1.71011 -0.911306 -6.98967e-19)
(1.86782 -0.96773 6.33025e-19)
(0.141642 -0.0923195 4.87697e-20)
(0.403656 -0.247734 2.09035e-19)
(0.653717 -0.382141 5.42718e-19)
(0.892129 -0.497964 -1.89933e-19)
(1.1186 -0.598492 -1.41488e-19)
(1.33315 -0.685978 7.51167e-20)
(1.53599 -0.761939 9.70338e-20)
(1.72737 -0.827603 1.94226e-19)
(1.90714 -0.885181 2.75795e-21)
(2.07413 -0.938317 1.51294e-19)
(0.163888 -0.0897115 -4.56771e-20)
(0.461647 -0.239453 -2.04191e-19)
(0.741347 -0.367606 -1.81037e-19)
(1.00441 -0.476981 -1.42296e-19)
(1.2515 -0.571054 1.81009e-19)
(1.48338 -0.652198 -5.71157e-20)
(1.70079 -0.722023 -4.28e-21)
(1.90439 -0.781792 1.91602e-21)
(2.09441 -0.833591 -1.61647e-19)
(2.27011 -0.880637 -1.05629e-19)
(0.184631 -0.0833449 -1.14062e-19)
(0.515819 -0.22178 8.74839e-20)
(0.823175 -0.339399 1.79851e-19)
(1.10916 -0.439036 2.4333e-19)
(1.37543 -0.524059 -2.8444e-19)
(1.62351 -0.596788 -3.58749e-21)
(1.85473 -0.658809 4.24263e-19)
(2.07022 -0.711341 -1.85468e-19)
(2.27063 -0.756284 -1.24068e-19)
(2.45558 -0.796561 -5.32572e-20)
(0.203157 -0.0734885 1.73599e-19)
(0.564378 -0.195171 1.02956e-18)
(0.896646 -0.298035 1.42839e-19)
(1.20332 -0.384694 -5.02904e-19)
(1.48697 -0.458191 -1.75207e-19)
(1.74978 -0.520647 6.37162e-19)
(1.99364 -0.573522 -1.44828e-19)
(2.22009 -0.617923 -4.30865e-19)
(2.43021 -0.655497 -3.17535e-19)
(2.62395 -0.688829 2.61763e-19)
(0.218862 -0.0605812 1.16271e-19)
(0.60564 -0.160674 -7.47317e-19)
(0.959147 -0.244992 -1.08487e-18)
(1.28349 -0.315754 3.83496e-19)
(1.58197 -0.375521 4.4942e-19)
(1.85738 -0.426092 -9.00198e-22)
(2.11208 -0.468715 -6.38747e-19)
(2.34797 -0.504318 2.19384e-19)
(2.56652 -0.534227 -3.66072e-19)
(2.76798 -0.560608 -3.11837e-19)
(0.231196 -0.0451646 -3.42521e-19)
(0.638087 -0.119663 -6.92905e-19)
(1.00831 -0.182263 1.21197e-18)
(1.34653 -0.234663 5.98875e-19)
(1.65665 -0.278814 -2.69524e-19)
(1.94192 -0.3161 -2.11452e-19)
(2.20509 -0.347486 0)
(2.44839 -0.373671 1.16495e-19)
(2.67363 -0.395619 -2.95948e-19)
(2.88138 -0.414984 -7.70129e-20)
(0.239726 -0.0278706 -2.04516e-19)
(0.660534 -0.0737422 5.62282e-19)
(1.0423 -0.112178 1.70738e-19)
(1.39006 -0.144265 -5.12361e-19)
(1.7081 -0.171251 -7.84227e-19)
(2.00003 -0.194029 3.65416e-20)
(2.26887 -0.213226 1.67655e-19)
(2.51715 -0.229281 -5.46668e-19)
(2.74694 -0.242781 -2.90397e-19)
(2.95917 -0.254787 -5.64392e-19)
(0.24422 -0.00940077 4.51536e-19)
(0.672333 -0.0246991 3.44173e-19)
(1.06011 -0.0373544 -9.39316e-20)
(1.41277 -0.0477805 -1.26764e-20)
(1.73482 -0.0564551 -3.87674e-19)
(2.03006 -0.0637187 -8.64764e-20)
(2.30167 -0.06981 -2.90226e-19)
(2.55236 -0.0748962 6.47194e-19)
(2.7844 -0.0791845 1.70931e-19)
(2.99906 -0.0830344 2.65031e-21)
(-0.00203127 -0.0208294 -6.33043e-20)
(0.0080452 -0.0696312 -1.00632e-19)
(0.0248275 -0.124907 -6.40784e-21)
(0.0490022 -0.176727 -3.14581e-20)
(0.075975 -0.220675 -1.15722e-20)
(0.103804 -0.258045 -3.52825e-19)
(0.132858 -0.292699 -1.31714e-20)
(0.164095 -0.327143 1.41721e-19)
(0.197087 -0.361156 1.12193e-20)
(0.230769 -0.39341 -3.67901e-20)
(0.0011833 -0.0248457 -1.12631e-19)
(0.0156209 -0.0869954 -2.84345e-19)
(0.0403171 -0.163644 2.56472e-20)
(0.0687855 -0.227306 -8.98457e-20)
(0.0978694 -0.277259 -9.42869e-20)
(0.128985 -0.321095 -2.56648e-19)
(0.163805 -0.363875 2.08477e-19)
(0.201689 -0.406003 1.90745e-19)
(0.240814 -0.445599 -2.62148e-19)
(0.279999 -0.481556 7.9388e-20)
(0.00578522 -0.0324312 -9.61007e-20)
(0.0295906 -0.109685 -8.80571e-19)
(0.0628795 -0.196933 -1.32096e-19)
(0.0967329 -0.269338 5.67864e-20)
(0.131342 -0.329073 5.72259e-20)
(0.170049 -0.384197 -4.02706e-19)
(0.213626 -0.437205 3.87271e-20)
(0.259243 -0.486417 3.6059e-19)
(0.305059 -0.530465 -3.68188e-19)
(0.350916 -0.569707 -2.47005e-19)
(0.0115489 -0.0420046 -6.23747e-21)
(0.0469653 -0.132275 1.77368e-19)
(0.0893703 -0.225717 1.63022e-21)
(0.132894 -0.307864 -1.08469e-20)
(0.178336 -0.380264 -5.56177e-21)
(0.228202 -0.447358 7.21637e-20)
(0.281639 -0.509263 7.1956e-20)
(0.335701 -0.564434 -1.29936e-19)
(0.38969 -0.613066 9.32985e-21)
(0.443959 -0.655767 -1.03114e-20)
(0.0186496 -0.0514661 0)
(0.067417 -0.153359 5.66346e-21)
(0.121915 -0.254322 -4.69729e-19)
(0.178945 -0.346697 6.88357e-20)
(0.238482 -0.430669 2.64221e-20)
(0.301192 -0.507691 1.98701e-21)
(0.365693 -0.577216 -2.51355e-20)
(0.430128 -0.63863 -6.79526e-21)
(0.494406 -0.692402 0)
(0.55865 -0.738579 -2.04349e-20)
(0.0274658 -0.0600753 2.87972e-20)
(0.0920969 -0.173566 -1.35166e-19)
(0.161963 -0.283338 -3.95848e-20)
(0.235005 -0.385089 -5.76633e-20)
(0.310294 -0.478453 5.13746e-20)
(0.387286 -0.563627 7.24457e-21)
(0.464747 -0.640178 7.54128e-20)
(0.541506 -0.707852 -2.22464e-20)
(0.61753 -0.766691 -6.83694e-19)
(0.692719 -0.816033 -9.97742e-21)
(0.0381024 -0.0678709 1.31897e-21)
(0.121459 -0.192736 6.76585e-20)
(0.209438 -0.31138 -8.03915e-20)
(0.300307 -0.421234 -1.67572e-20)
(0.392606 -0.522069 -7.46481e-20)
(0.485276 -0.613863 -5.88082e-21)
(0.577221 -0.696423 1.86623e-20)
(0.667486 -0.769616 -1.98853e-19)
(0.756046 -0.833038 3.78027e-19)
(0.842738 -0.885244 9.69433e-19)
(0.0504694 -0.0747746 1.57297e-20)
(0.155337 -0.210033 -1.44703e-19)
(0.263732 -0.336595 -2.15272e-19)
(0.374001 -0.452973 8.93904e-20)
(0.484482 -0.559385 -6.52873e-20)
(0.59395 -0.656012 9.29926e-20)
(0.701365 -0.742971 1.87422e-19)
(0.805824 -0.820302 -1.0133e-19)
(0.907394 -0.887383 -3.03312e-19)
(1.00597 -0.94196 7.23023e-19)
(0.064373 -0.0804709 -2.61088e-20)
(0.193454 -0.224325 -5.79173e-19)
(0.324515 -0.357029 5.24882e-19)
(0.455936 -0.477882 3.36933e-19)
(0.586014 -0.587596 -8.42564e-20)
(0.713512 -0.686726 3.04219e-19)
(0.837419 -0.775735 -1.60401e-19)
(0.956838 -0.855002 -7.59296e-19)
(1.07196 -0.923808 -4.01339e-19)
(1.18284 -0.97921 4.50686e-19)
(0.0796003 -0.0847306 -7.98588e-20)
(0.235959 -0.234607 -5.43647e-19)
(0.392536 -0.370839 -7.84442e-21)
(0.547703 -0.493246 6.80337e-20)
(0.699765 -0.603063 3.36354e-19)
(0.847566 -0.701197 -1.82501e-19)
(0.990187 -0.788382 -1.64985e-19)
(1.12669 -0.864955 1.85114e-19)
(1.25694 -0.929955 -3.48292e-19)
(1.38015 -0.9818 -5.81554e-19)
(0.399839 -0.536413 1.07937e-18)
(0.679824 -0.617858 -5.0351e-19)
(0.903543 -0.547078 -2.04821e-19)
(1.06542 -0.410609 3.58481e-19)
(1.19642 -0.255254 -2.58796e-19)
(1.27295 -0.139062 -2.63207e-19)
(1.31198 -0.0801726 -2.66301e-19)
(1.33582 -0.0491531 -5.13068e-20)
(1.35075 -0.0298915 2.60764e-19)
(1.36012 -0.0112529 5.22842e-20)
(0.467034 -0.623824 1.05215e-18)
(0.738037 -0.692357 1.38718e-19)
(0.958031 -0.604789 9.33025e-21)
(1.10483 -0.454937 -3.07536e-19)
(1.22247 -0.285409 -9.08767e-19)
(1.28926 -0.155491 0)
(1.32234 -0.0892426 -2.41175e-19)
(1.34278 -0.0545768 8.66978e-20)
(1.35575 -0.0329697 7.7743e-21)
(1.36385 -0.012344 -7.82537e-20)
(0.555408 -0.709259 -1.02087e-18)
(0.808596 -0.7647 -9.33805e-20)
(1.01903 -0.660852 1.89867e-19)
(1.14914 -0.497263 -4.81399e-20)
(1.25058 -0.314107 -3.5044e-20)
(1.30661 -0.17075 8.03433e-20)
(1.33349 -0.0974028 0)
(1.35033 -0.0593693 0)
(1.36121 -0.0356644 -8.3729e-20)
(1.36795 -0.0132987 0)
(0.665539 -0.790965 -2.24674e-19)
(0.893983 -0.832954 3.97851e-19)
(1.08654 -0.714394 2.34606e-20)
(1.19814 -0.537091 0)
(1.28101 -0.341053 7.28688e-19)
(1.325 -0.184813 -1.63057e-19)
(1.34531 -0.104635 0)
(1.35839 -0.0635101 1.90258e-19)
(1.36705 -0.0379555 0)
(1.37236 -0.0141048 2.07878e-20)
(0.795727 -0.867602 -1.48711e-19)
(0.995863 -0.895114 4.09812e-19)
(1.16104 -0.764302 -1.30881e-20)
(1.25137 -0.574004 0)
(1.3137 -0.365972 1.93999e-19)
(1.34442 -0.197647 3.02839e-19)
(1.35769 -0.110938 7.76904e-20)
(1.36686 -0.0669866 1.41915e-20)
(1.37321 -0.0398253 -5.2261e-20)
(1.37702 -0.014764 4.53395e-20)
(0.942118 -0.938357 -1.2583e-18)
(1.11412 -0.949741 -8.40113e-19)
(1.24321 -0.809233 4.16394e-21)
(1.30835 -0.607522 4.55334e-19)
(1.34832 -0.38862 -2.76583e-19)
(1.36478 -0.209209 1.56453e-19)
(1.37049 -0.116338 2.39949e-19)
(1.37565 -0.0697951 -2.56644e-19)
(1.3796 -0.0412587 -3.12506e-21)
(1.38188 -0.01527 -5.03955e-21)
(1.09986 -1.00285 -2.46944e-19)
(1.24692 -0.996516 2.48657e-19)
(1.33356 -0.847902 2.27263e-21)
(1.36886 -0.637008 -1.22866e-20)
(1.38446 -0.408703 -4.7072e-19)
(1.38594 -0.21933 6.19604e-20)
(1.38365 -0.120819 -9.87517e-20)
(1.3847 -0.0719244 -5.97218e-20)
(1.38615 -0.042238 2.37029e-20)
(1.38688 -0.0156158 -3.11587e-20)
(1.26405 -1.05997 -1.22323e-18)
(1.39099 -1.03596 1.7944e-19)
(1.43137 -0.879538 0)
(1.43223 -0.661943 1.83345e-20)
(1.42125 -0.426147 3.7935e-19)
(1.40723 -0.228101 3.52967e-21)
(1.39693 -0.124496 -3.16465e-19)
(1.39391 -0.0734004 7.40831e-20)
(1.39278 -0.0427499 -6.68619e-22)
(1.39194 -0.0158044 -2.86268e-21)
(1.43174 -1.10631 3.41476e-18)
(1.5438 -1.06899 2.91848e-19)
(1.53679 -0.904715 3.76108e-19)
(1.49923 -0.682525 -2.08842e-20)
(1.45907 -0.441187 -2.8726e-20)
(1.42888 -0.235535 -3.42427e-19)
(1.41047 -0.127 7.44534e-20)
(1.40327 -0.0740407 7.22448e-21)
(1.39944 -0.0427196 -5.0121e-20)
(1.39702 -0.0158031 -5.38595e-20)
(1.59906 -1.13066 -3.02174e-18)
(1.69735 -1.09452 1.32694e-18)
(1.6443 -0.926025 -1.16378e-19)
(1.56622 -0.701931 -5.10712e-19)
(1.49519 -0.457159 -4.50307e-19)
(1.44837 -0.244989 -2.04019e-19)
(1.42308 -0.13061 -6.72559e-20)
(1.41238 -0.0745433 0)
(1.40599 -0.0423512 6.4418e-21)
(1.40204 -0.0156739 2.08553e-20)
(1.88768 -1.17206 -6.84696e-18)
(1.92186 -1.10288 -1.84369e-18)
(1.79358 -0.918926 1.55972e-19)
(1.65622 -0.69345 8.42385e-20)
(1.54324 -0.45239 1.65038e-19)
(1.47587 -0.242443 -9.73371e-20)
(1.44216 -0.128866 4.80583e-21)
(1.42532 -0.0727857 3.69142e-20)
(1.4146 -0.0409004 -3.64963e-20)
(1.40838 -0.0153807 1.42849e-20)
(2.2877 -1.13475 5.11338e-19)
(2.17134 -1.05144 -2.25921e-19)
(1.93143 -0.850696 9.49395e-19)
(1.72478 -0.634216 -2.26931e-19)
(1.56689 -0.412366 7.47862e-19)
(1.48433 -0.221851 1.5641e-19)
(1.45447 -0.120853 3.48038e-20)
(1.43573 -0.0679475 -4.33326e-21)
(1.42022 -0.0375684 3.80998e-20)
(1.41019 -0.0143765 4.92643e-20)
(2.60846 -1.04254 2.25288e-18)
(2.34741 -0.944569 3.25749e-19)
(2.00794 -0.749134 -1.27692e-19)
(1.74652 -0.551277 -2.43535e-36)
(1.55513 -0.357721 -3.04853e-20)
(1.46246 -0.198026 1.10723e-33)
(1.41671 -0.105497 -2.88599e-20)
(1.3808 -0.0555687 -2.84601e-33)
(1.35653 -0.0290401 1.43071e-20)
(1.33953 -0.0119989 -4.49696e-20)
(2.78672 -0.893133 3.96578e-33)
(2.37175 -0.79255 2.83551e-18)
(1.98294 -0.622105 1.69618e-18)
(1.67701 -0.450265 0)
(1.45438 -0.290953 8.99082e-19)
(1.32856 -0.166784 3.95984e-19)
(1.27069 -0.0881718 1.15753e-19)
(1.23563 -0.0440418 -4.71163e-33)
(1.21412 -0.0214563 8.19224e-21)
(1.20059 -0.0095095 4.16218e-20)
(2.76462 -0.705285 3.85773e-18)
(2.24905 -0.627376 -1.49015e-19)
(1.855 -0.484784 0)
(1.53333 -0.347918 0)
(1.3054 -0.225602 0)
(1.17286 -0.132945 0)
(1.11223 -0.070699 -1.31272e-20)
(1.0787 -0.034228 -5.4549e-33)
(1.05975 -0.0157972 1.33149e-20)
(1.0483 -0.00714396 4.86163e-33)
(2.55162 -0.516845 3.28172e-18)
(2.02156 -0.461805 0)
(1.64321 -0.350294 0)
(1.33795 -0.248274 0)
(1.12447 -0.160429 0)
(0.997326 -0.0966263 0)
(0.935404 -0.0523347 3.34011e-20)
(0.903391 -0.0246762 -1.09048e-20)
(0.887075 -0.010687 1.30201e-20)
(0.877757 -0.00494775 5.61639e-20)
(2.19 -0.34288 0)
(1.70284 -0.303277 1.13901e-18)
(1.36322 -0.226112 1.16591e-18)
(1.09779 -0.157089 0)
(0.914324 -0.100885 7.40278e-19)
(0.803661 -0.0622856 3.65258e-19)
(0.746321 -0.0347009 1.59316e-19)
(0.71714 -0.0161486 2.10234e-20)
(0.703531 -0.00659199 2.25277e-20)
(0.696112 -0.00314376 2.48265e-20)
(1.7025 -0.191327 -6.72891e-19)
(1.29979 -0.165625 -2.72133e-19)
(1.02553 -0.121149 1.73695e-19)
(0.818579 -0.0819071 -2.27117e-34)
(0.678229 -0.0522986 -8.76752e-20)
(0.592968 -0.033431 3.2404e-33)
(0.545807 -0.0193158 4.87336e-20)
(0.521402 -0.00894927 9.27732e-20)
(0.510728 -0.00343595 1.20279e-20)
(0.505142 -0.00171322 -3.19598e-20)
(1.10054 -0.075915 3.40235e-18)
(0.822655 -0.0627212 -1.88066e-19)
(0.640457 -0.0441049 -5.93031e-19)
(0.507785 -0.0280332 0)
(0.419961 -0.0175516 -6.13377e-19)
(0.366201 -0.0119018 -3.63134e-19)
(0.334516 -0.00731161 -1.21814e-19)
(0.317597 -0.00345217 -7.33423e-20)
(0.3105 -0.00126325 6.76551e-20)
(0.306926 -0.00067995 2.38758e-20)
(0.39718 -0.00332119 0)
(0.287593 0.00158282 0)
(0.220738 0.00401346 0)
(0.174114 0.00602298 0)
(0.144719 0.00529415 0)
(0.126536 0.00358196 0)
(0.114764 0.0023023 5.38742e-20)
(0.108024 0.00128791 -1.75822e-34)
(0.105183 0.000658539 1.27285e-20)
(0.103755 0.000193394 3.00161e-20)
(3.36675 -0.0863529 5.38518e-19)
(3.3261 -0.265122 -8.4275e-20)
(3.24706 -0.430707 8.52541e-19)
(3.13213 -0.582241 -6.04745e-19)
(2.98612 -0.71826 6.66961e-19)
(2.81504 -0.836594 2.75576e-19)
(2.62642 -0.934376 -1.93064e-18)
(2.42933 -1.00831 -7.75117e-20)
(2.22449 -1.05433 0)
(1.98467 -1.06749 4.30168e-19)
(3.86164 -0.0751468 7.07485e-18)
(3.79835 -0.234287 1.95607e-18)
(3.70405 -0.387389 -4.86839e-18)
(3.58402 -0.53208 -4.49518e-19)
(3.44213 -0.665994 3.55951e-18)
(3.28155 -0.787428 1.92497e-18)
(3.10613 -0.895181 -5.17048e-18)
(2.92158 -0.987814 -1.95116e-18)
(2.72699 -1.0635 2.20046e-18)
(2.49164 -1.12062 8.54766e-19)
(3.83306 -0.053393 -1.261e-19)
(3.82017 -0.171648 4.40627e-18)
(3.78535 -0.299842 -1.08939e-18)
(3.72419 -0.430998 -3.44617e-18)
(3.63597 -0.558799 -6.80017e-18)
(3.52341 -0.678838 1.02701e-17)
(3.39073 -0.788771 4.17424e-18)
(3.24287 -0.887872 -3.90209e-18)
(3.08074 -0.978462 -2.89437e-18)
(2.8861 -1.06251 -3.4135e-18)
(3.62857 -0.047299 -4.84084e-18)
(3.6195 -0.144963 -4.35527e-18)
(3.59953 -0.243789 5.47482e-18)
(3.56727 -0.343151 1.91313e-18)
(3.52236 -0.442431 -8.97783e-18)
(3.46416 -0.540845 4.93616e-19)
(3.39187 -0.637053 3.88682e-18)
(3.30516 -0.730384 -1.05505e-18)
(3.20497 -0.822929 1.27639e-18)
(3.08287 -0.914486 2.80407e-19)
(3.34396 -0.0365802 -9.16238e-19)
(3.3389 -0.111688 3.00488e-18)
(3.32699 -0.188738 1.61988e-18)
(3.30732 -0.267259 -1.89388e-18)
(3.27975 -0.346172 -2.00246e-18)
(3.24457 -0.424235 -2.43741e-18)
(3.20202 -0.500403 3.80308e-19)
(3.15185 -0.574503 1.39363e-19)
(3.09573 -0.647684 -2.14545e-18)
(3.03327 -0.721134 -2.04037e-18)
(2.96248 -0.0265431 -1.82284e-18)
(2.95971 -0.0799041 -5.86542e-20)
(2.95319 -0.134643 -1.63799e-18)
(2.94227 -0.190977 3.12203e-19)
(2.92661 -0.248655 5.369e-18)
(2.90613 -0.307065 -3.67257e-19)
(2.88076 -0.365274 4.4433e-20)
(2.8501 -0.422226 -2.61051e-18)
(2.81638 -0.477027 -3.50097e-18)
(2.78607 -0.529946 3.71289e-19)
(2.48706 -0.0174953 -2.88556e-20)
(2.4857 -0.0519392 -8.14424e-19)
(2.4825 -0.0872734 -2.61553e-18)
(2.47697 -0.123818 -3.43165e-18)
(2.46867 -0.161605 2.49707e-18)
(2.45729 -0.200365 1.50237e-18)
(2.44243 -0.239481 -1.38508e-18)
(2.42349 -0.277948 1.62451e-18)
(2.40253 -0.314667 -4.30701e-19)
(2.38933 -0.349737 -9.64837e-19)
(1.91459 -0.00967557 7.72624e-19)
(1.91402 -0.0282972 -8.32085e-19)
(1.91272 -0.0474522 -3.27926e-20)
(1.91024 -0.0673853 -3.47008e-20)
(1.90614 -0.0881712 -7.27102e-20)
(1.9 -0.109672 -2.33246e-18)
(1.89135 -0.131482 -6.78634e-19)
(1.87959 -0.152881 2.62584e-18)
(1.8664 -0.173097 -6.03179e-19)
(1.86164 -0.192353 -1.35027e-18)
(1.23986 -0.00373072 -1.64321e-18)
(1.23964 -0.0106942 -8.49144e-19)
(1.2392 -0.0179055 2.33985e-18)
(1.2382 -0.025489 -8.90032e-19)
(1.2362 -0.0334925 -6.74292e-19)
(1.23282 -0.0418568 1.35229e-18)
(1.22764 -0.0503845 -1.29605e-18)
(1.22024 -0.0587107 1.28699e-18)
(1.21184 -0.0663996 -1.21011e-18)
(1.20984 -0.0735772 -4.24581e-18)
(0.454913 -0.000257204 6.6324e-19)
(0.454826 -0.000700226 7.0324e-19)
(0.45469 -0.00115928 7.48391e-19)
(0.45432 -0.00164069 1.35435e-18)
(0.453484 -0.00214132 -6.72155e-19)
(0.451962 -0.00263886 -1.2999e-18)
(0.449533 -0.00310132 6.14794e-19)
(0.44594 -0.00359563 2.48421e-20)
(0.441662 -0.00439522 -4.96547e-20)
(0.440248 -0.00504809 1.10569e-19)
(1.65247 0.995883 -2.84147e-19)
(1.51138 0.940802 1.81324e-20)
(1.3581 0.879975 -2.25309e-19)
(1.19716 0.807906 1.77572e-19)
(1.02921 0.723637 -1.94538e-19)
(0.854589 0.626883 -1.0185e-19)
(0.673633 0.516857 2.31813e-19)
(0.486993 0.392135 -3.06175e-19)
(0.295901 0.250668 3.09433e-19)
(0.101452 0.0916667 2.39486e-19)
(1.88538 0.991167 0)
(1.72884 0.933972 6.36067e-19)
(1.56016 0.872212 3.28795e-19)
(1.38176 0.801468 1.64699e-19)
(1.19415 0.719629 4.33605e-19)
(0.997272 0.625753 -8.72613e-20)
(0.791205 0.518533 -7.89872e-20)
(0.576276 0.395972 9.00377e-20)
(0.353306 0.255185 -1.04493e-18)
(0.122711 0.0943673 -1.59539e-20)
(2.09016 0.958301 1.57032e-19)
(1.92447 0.904514 0)
(1.74551 0.846052 -1.00985e-19)
(1.55442 0.779258 -3.85051e-19)
(1.3513 0.701885 5.38503e-20)
(1.13581 0.612664 3.97276e-19)
(0.907595 0.510018 -6.07197e-19)
(0.666486 0.391606 -2.00353e-19)
(0.412557 0.254036 7.83157e-19)
(0.145251 0.0947373 -1.76412e-19)
(2.28408 0.897826 1.90365e-19)
(2.10977 0.850154 1.25906e-20)
(1.92071 0.797551 2.42941e-20)
(1.71762 0.736768 3.62355e-20)
(1.50018 0.665687 -2.94312e-20)
(1.26762 0.583014 2.73352e-19)
(1.01905 0.487091 -2.06563e-19)
(0.753541 0.375485 -8.55921e-19)
(0.470207 0.244656 0)
(0.167376 0.0916914 0)
(2.4673 0.811438 -1.06839e-18)
(2.28375 0.770534 -6.06242e-19)
(2.08439 0.72482 -1.20467e-19)
(1.86956 0.671332 -6.66539e-20)
(1.63851 0.608148 0)
(1.38999 0.534026 2.41044e-19)
(1.12251 0.447354 2.68093e-19)
(0.834396 0.345782 2.86575e-19)
(0.523755 0.225923 -4.24213e-19)
(0.187885 0.084889 -8.13181e-20)
(2.63342 0.701818 7.63458e-19)
(2.44102 0.667837 -1.39305e-19)
(2.23194 0.62949 -2.21283e-19)
(2.00619 0.58415 0)
(1.76262 0.530153 0)
(1.49955 0.466388 0)
(1.21497 0.391388 -3.87059e-20)
(0.906508 0.303037 3.6996e-19)
(0.571398 0.198317 3.78754e-19)
(0.206053 0.0746141 -3.08671e-19)
(2.77528 0.572156 -1.19142e-18)
(2.575 0.54509 -1.47971e-18)
(2.35739 0.514384 -3.0198e-22)
(2.12216 0.477823 -1.87855e-19)
(1.86779 0.434078 -9.29477e-20)
(1.59224 0.382234 -1.78891e-19)
(1.29306 0.321059 4.59298e-19)
(0.967301 0.24879 2.14564e-19)
(0.611473 0.162939 5.40322e-19)
(0.22128 0.061331 2.02964e-19)
(2.8866 0.425605 -1.15638e-18)
(2.6798 0.405509 8.47527e-20)
(2.45531 0.382712 1.64539e-19)
(2.21254 0.355518 1.68647e-20)
(1.94965 0.322972 -3.1462e-19)
(1.66432 0.284404 -1.74301e-19)
(1.35371 0.238887 -6.2156e-19)
(1.01444 0.185104 1.18466e-19)
(0.642489 0.121215 5.1555e-20)
(0.233028 0.0456055 -6.25977e-21)
(2.96236 0.265091 1.01128e-19)
(2.75076 0.252271 3.97191e-19)
(2.52146 0.237832 -3.30397e-19)
(2.27353 0.220679 3.63327e-19)
(2.00486 0.200246 3.72745e-19)
(1.71289 0.176135 4.9215e-19)
(1.39454 0.147777 -6.36039e-19)
(1.04613 0.114367 -3.24546e-19)
(0.663293 0.0747964 -4.58535e-20)
(0.240877 0.0280907 -3.27132e-19)
(3.00011 0.0935239 5.81688e-19)
(2.7857 0.0887417 -1.85851e-19)
(2.55384 0.0834084 4.79766e-19)
(2.30327 0.0771219 -3.11239e-19)
(2.03171 0.0697061 2.66453e-19)
(1.73647 0.0610456 6.05964e-19)
(1.4143 0.050967 3.79253e-19)
(1.06142 0.0392271 3.09402e-19)
(0.673277 0.0255023 2.65964e-19)
(0.244614 0.00950576 5.43811e-19)
(0.23616 0.445006 -4.50453e-19)
(0.201179 0.41212 -1.80422e-19)
(0.166343 0.376087 1.52965e-19)
(0.133095 0.338707 -4.64877e-19)
(0.10301 0.301809 -1.20358e-19)
(0.0759769 0.263842 6.41995e-19)
(0.0503765 0.218296 3.06586e-19)
(0.0258534 0.156521 -1.17595e-19)
(0.00725274 0.0795517 1.26782e-19)
(-0.00107085 0.0222281 -6.63076e-20)
(0.286915 0.535883 3.77475e-19)
(0.247149 0.499675 4.20926e-19)
(0.207202 0.458804 -1.63057e-20)
(0.167649 0.413227 -1.40464e-19)
(0.130917 0.365431 -3.00845e-19)
(0.0996569 0.316959 7.8134e-20)
(0.0721811 0.263193 1.93158e-19)
(0.0450777 0.192591 1.55126e-19)
(0.0184267 0.101439 -5.70504e-19)
(0.00272026 0.0287959 -1.2493e-19)
(0.359618 0.624626 -5.75357e-19)
(0.313491 0.584866 -4.54031e-19)
(0.267613 0.539624 2.39963e-19)
(0.221473 0.487634 1.42481e-19)
(0.176418 0.429253 6.78648e-23)
(0.136425 0.367262 -1.08614e-19)
(0.101489 0.300596 -2.14703e-20)
(0.0676475 0.220902 -5.22258e-19)
(0.0334972 0.125021 -2.53681e-19)
(0.00750318 0.0378361 -3.93082e-20)
(0.455211 0.710137 4.94283e-19)
(0.400765 0.666434 1.62452e-19)
(0.346645 0.615874 -1.40997e-19)
(0.292392 0.557602 7.92137e-20)
(0.238193 0.490776 -2.27913e-21)
(0.186942 0.417025 -3.80547e-21)
(0.139909 0.337117 -1.4108e-19)
(0.0949341 0.247415 3.64291e-19)
(0.0511646 0.146647 -3.91043e-19)
(0.0134138 0.0476781 -6.52396e-20)
(0.572972 0.79112 -2.80793e-19)
(0.508698 0.743672 -8.825e-20)
(0.44413 0.687431 -1.33334e-20)
(0.379239 0.622371 -5.82616e-20)
(0.313943 0.54801 5.08626e-20)
(0.249846 0.465023 4.86166e-20)
(0.18831 0.374293 -3.71594e-20)
(0.129047 0.274882 -2.72278e-19)
(0.0723203 0.166844 2.05255e-19)
(0.0207901 0.0567627 8.34949e-20)
(0.709781 0.865367 6.47793e-19)
(0.634739 0.814652 3.25705e-19)
(0.558432 0.75318 2.10185e-19)
(0.481022 0.681799 4.75168e-20)
(0.402496 0.600679 1.41329e-19)
(0.323909 0.510223 6.82442e-20)
(0.246413 0.410968 1.36003e-19)
(0.170727 0.302891 5.45907e-20)
(0.0979414 0.186339 -1.2107e-20)
(0.0299244 0.0649784 -1.24578e-20)
(0.861774 0.930475 -1.19678e-19)
(0.775383 0.876901 -8.45147e-19)
(0.686602 0.810938 -9.30521e-20)
(0.595641 0.734332 -2.97218e-20)
(0.502488 0.647723 -1.03568e-20)
(0.408065 0.551349 1.44789e-19)
(0.313417 0.445406 -4.4381e-20)
(0.219647 0.32989 6.97907e-20)
(0.128255 0.204876 -1.49851e-19)
(0.0408818 0.0724889 -1.07174e-21)
(1.02604 0.982701 -8.93635e-19)
(0.927929 0.926857 5.95218e-20)
(0.826245 0.857501 -2.233e-19)
(0.721159 0.777212 -7.87727e-20)
(0.612556 0.6868 -3.30133e-20)
(0.501322 0.586259 -7.46288e-20)
(0.388451 0.475411 5.76182e-20)
(0.275134 0.353968 6.12756e-20)
(0.162988 0.221507 -9.91168e-21)
(0.0535554 0.0791479 -1.05819e-19)
(1.20296 1.01547 1.24195e-19)
(1.09275 0.958951 5.30264e-19)
(0.977669 0.888195 1.62786e-21)
(0.857789 0.806447 -3.48034e-20)
(0.732845 0.714544 1.55321e-19)
(0.603705 0.61208 -3.5288e-19)
(0.471311 0.498507 -2.46731e-19)
(0.33681 0.373129 3.57682e-19)
(0.201795 0.235024 1.45049e-19)
(0.0677284 0.0845697 -3.74034e-20)
(1.39954 1.01367 7.46517e-19)
(1.27721 0.960926 3.27003e-19)
(1.14717 0.894311 5.51383e-20)
(1.01039 0.815661 -2.00037e-19)
(0.866933 0.726036 -1.68076e-20)
(0.71769 0.625054 4.68527e-19)
(0.563477 0.511875 -2.69867e-19)
(0.405315 0.385452 -1.85031e-19)
(0.244727 0.244353 3.36395e-19)
(0.0831421 0.0884735 -6.68404e-21)
(0.946717 0.0900794 1.02197e-20)
(1.17103 0.158563 -2.52303e-20)
(1.16491 0.179706 -5.07483e-20)
(1.22939 0.169179 0)
(1.2388 0.18025 8.71508e-21)
(1.20101 0.244654 -5.36218e-20)
(1.08293 0.384229 -1.02652e-19)
(0.923962 0.535694 -1.4948e-19)
(0.699142 0.63856 -1.4522e-19)
(0.410868 0.586503 6.66788e-19)
(0.944312 0.0700547 1.84854e-19)
(1.16481 0.137982 -7.38412e-20)
(1.16256 0.160651 2.64102e-21)
(1.23067 0.162221 2.22412e-20)
(1.2471 0.184475 -8.07277e-21)
(1.21987 0.266626 6.67539e-21)
(1.11626 0.426091 1.93855e-19)
(0.973266 0.593495 0)
(0.753301 0.714746 4.46918e-19)
(0.476866 0.676455 -4.0163e-19)
(0.941886 0.0514104 -1.08472e-19)
(1.16157 0.116863 5.34514e-21)
(1.16288 0.141348 4.51444e-20)
(1.23551 0.153788 2.18377e-20)
(1.25854 0.186921 2.21447e-20)
(1.24172 0.286988 -4.65683e-20)
(1.15486 0.465813 1.23458e-19)
(1.02892 0.64984 3.57026e-20)
(0.819357 0.788775 -1.4056e-22)
(0.564693 0.763603 -7.67858e-19)
(0.939878 0.0337122 -5.62486e-20)
(1.16112 0.0950447 1.73943e-20)
(1.16581 0.121804 1.26572e-20)
(1.24367 0.144187 -1.11e-20)
(1.27294 0.187965 -8.95198e-21)
(1.26688 0.305791 -7.07005e-21)
(1.19827 0.50322 -1.18033e-19)
(1.0906 0.704058 2.18087e-20)
(0.899791 0.858635 -3.67862e-19)
(0.675234 0.845989 -1.93063e-19)
(0.938537 0.0164649 5.40361e-21)
(1.16334 0.0724287 -3.58948e-21)
(1.1713 0.102079 3.0952e-21)
(1.25485 0.133711 -1.25172e-20)
(1.29008 0.187985 0)
(1.2951 0.323113 0)
(1.2457 0.538275 -5.25549e-20)
(1.15863 0.755167 -2.35848e-20)
(0.996638 0.922119 -9.69091e-20)
(0.806554 0.922006 -6.04044e-20)
(0.938014 -0.000746753 -1.22466e-20)
(1.16813 0.0489349 9.55694e-21)
(1.17927 0.0822933 1.24322e-20)
(1.26865 0.122654 -3.6288e-20)
(1.30958 0.187374 -1.37863e-20)
(1.3257 0.33909 -8.53355e-21)
(1.29646 0.570829 2.30591e-20)
(1.23389 0.801793 -1.56685e-20)
(1.11026 0.977512 -1.03533e-20)
(0.954416 0.990852 -1.3412e-20)
(0.938411 -0.0183635 8.51928e-20)
(1.17536 0.0244829 -1.1812e-20)
(1.18963 0.0625975 -3.92634e-21)
(1.28465 0.11123 -2.95228e-20)
(1.33102 0.186273 3.06056e-20)
(1.35806 0.353728 1.21038e-20)
(1.35032 0.600421 -4.63014e-20)
(1.31726 0.842444 -2.04989e-19)
(1.23912 1.0243 1.33154e-20)
(1.1136 1.05238 -1.00639e-18)
(0.939749 -0.0367461 4.03729e-20)
(1.18493 -0.0010111 1.17454e-21)
(1.20236 0.043241 -1.06086e-20)
(1.30242 0.0997801 5.03503e-20)
(1.35345 0.185279 1.19002e-20)
(1.39105 0.36733 2.537e-21)
(1.40675 0.626577 -1.85237e-20)
(1.4084 0.876076 1.23913e-19)
(1.38001 1.06301 1.10571e-20)
(1.2788 1.10582 2.90707e-18)
(0.941672 -0.055923 -2.00464e-19)
(1.19672 -0.0274485 -2.86991e-21)
(1.21759 0.024522 2.58709e-20)
(1.32171 0.0884689 -4.48966e-20)
(1.37702 0.184273 -4.18108e-20)
(1.42537 0.38008 1.12645e-20)
(1.46707 0.649392 1.08386e-19)
(1.50791 0.903109 -2.29787e-19)
(1.53032 1.0947 -2.62516e-20)
(1.44673 1.14805 -6.46741e-18)
(0.943484 -0.0767392 4.7203e-21)
(1.2105 -0.0545324 -2.70001e-21)
(1.23485 0.00701393 -1.00304e-20)
(1.34203 0.0787784 -1.21556e-19)
(1.39941 0.187062 -6.1726e-20)
(1.45776 0.396092 3.82801e-21)
(1.5274 0.672487 -9.11493e-20)
(1.61009 0.926613 -6.30602e-19)
(1.68207 1.11896 -1.15198e-18)
(1.61369 1.16822 -7.99772e-18)
(0.946456 -0.109131 -1.51375e-20)
(1.2269 -0.0905237 -1.19935e-22)
(1.25601 -0.0194452 3.29705e-21)
(1.36598 0.0612618 -5.71425e-20)
(1.42909 0.176551 1.66989e-20)
(1.50154 0.389277 -2.9923e-20)
(1.60949 0.664119 -3.73431e-20)
(1.75113 0.916762 -1.59794e-18)
(1.89988 1.12146 -1.66144e-18)
(1.89701 1.20467 3.32323e-18)
(0.94904 -0.153608 -3.96064e-19)
(1.24397 -0.137716 -5.28394e-20)
(1.27755 -0.0615299 -1.19226e-20)
(1.38781 0.0339976 1.06205e-21)
(1.44518 0.149751 7.64426e-20)
(1.5231 0.348925 -2.84709e-19)
(1.67166 0.604614 -1.54138e-19)
(1.87931 0.843208 -6.50908e-19)
(2.13586 1.05952 1.66306e-19)
(2.28154 1.15572 -3.30662e-19)
(0.945631 -0.198528 -2.58656e-20)
(1.25994 -0.188564 -4.39264e-20)
(1.29467 -0.100908 2.86429e-20)
(1.40687 0.00771627 4.25239e-20)
(1.46153 0.128623 1.20644e-33)
(1.53118 0.308016 -7.94399e-21)
(1.70251 0.529359 -2.47044e-33)
(1.95717 0.742263 1.95742e-19)
(2.30278 0.947271 -9.36521e-19)
(2.58543 1.05366 -6.2745e-19)
(0.937466 -0.245296 1.52172e-18)
(1.2745 -0.235862 -6.181e-34)
(1.30492 -0.147753 -3.6173e-20)
(1.37788 -0.0168631 -1.36368e-19)
(1.39266 0.107107 -4.31429e-19)
(1.46517 0.252362 -8.95778e-19)
(1.65478 0.433041 -5.27404e-33)
(1.9474 0.61727 -1.64679e-18)
(2.33398 0.795098 -3.07253e-18)
(2.75553 0.899147 1.68068e-18)
(0.926105 -0.299521 0)
(1.29439 -0.277102 -3.22899e-33)
(1.20011 -0.166598 0)
(1.20284 -0.0211127 0)
(1.217 0.0909087 0)
(1.31013 0.199455 0)
(1.51802 0.334398 -9.20923e-33)
(1.83177 0.480599 0)
(2.22173 0.628765 -3.45096e-19)
(2.73865 0.709464 1.26543e-18)
(0.913583 -0.359159 1.10953e-19)
(1.26563 -0.311986 -4.2791e-19)
(1.02129 -0.145629 -6.22177e-20)
(1.01357 -0.0171164 0)
(1.03213 0.070054 0)
(1.12792 0.14559 7.13428e-20)
(1.32678 0.240141 1.35417e-18)
(1.62721 0.347691 -1.97497e-19)
(2.00198 0.463047 -4.97194e-19)
(2.53487 0.51903 4.66644e-18)
(0.881767 -0.405009 -1.52196e-17)
(1.09827 -0.27148 9.78364e-19)
(0.831891 -0.113678 -7.65838e-20)
(0.806398 -0.0156943 -1.42792e-19)
(0.827682 0.046651 -4.22835e-19)
(0.91705 0.0932826 -7.314e-19)
(1.09062 0.152694 -1.14296e-18)
(1.35286 0.225039 -1.48289e-18)
(1.69032 0.304668 -1.67169e-18)
(2.18094 0.343978 3.66457e-18)
(0.807965 -0.394441 -4.12385e-19)
(0.888895 -0.203934 -1.21797e-18)
(0.626064 -0.0746874 -1.2699e-19)
(0.589158 -0.0122232 -7.98516e-20)
(0.608825 0.0258626 -5.05703e-34)
(0.681167 0.0493246 1.09153e-19)
(0.815172 0.0799061 -1.59466e-32)
(1.02005 0.120897 -1.94268e-19)
(1.29357 0.166728 2.96681e-19)
(1.69949 0.191985 7.03964e-19)
(0.663742 -0.288825 3.43017e-17)
(0.618495 -0.106665 -3.11985e-18)
(0.40196 -0.0325705 -2.40326e-19)
(0.360961 -0.00650271 -7.75482e-20)
(0.374855 0.00937409 3.32072e-19)
(0.42251 0.0168692 7.37013e-19)
(0.507001 0.0273755 7.77548e-19)
(0.638602 0.0441197 4.60679e-19)
(0.821005 0.0632864 -1.82341e-19)
(1.10141 0.0762301 3.55721e-18)
(0.336674 -0.0768436 5.58968e-19)
(0.261789 -0.00235513 -6.77515e-33)
(0.146895 0.0178887 -3.03813e-19)
(0.126469 0.00237588 0)
(0.130074 -0.00167548 0)
(0.14628 -0.00470356 1.06725e-19)
(0.174612 -0.0059335 7.5708e-35)
(0.220888 -0.00400449 -1.24462e-19)
(0.288083 -0.00155885 -2.80047e-19)
(0.398852 0.00333134 9.98315e-19)
(2.00063 1.09447 -1.78366e-18)
(2.23781 1.07697 -2.30533e-18)
(2.44102 1.02801 0)
(2.6362 0.951714 -7.64225e-19)
(2.82285 0.85195 -1.79826e-18)
(2.99215 0.731999 -2.24988e-18)
(3.13656 0.59477 -4.88877e-19)
(3.25008 0.442511 1.26973e-18)
(3.32783 0.276842 -3.54776e-18)
(3.36726 0.0986271 1.35666e-18)
(2.49673 1.13912 2.60847e-19)
(2.72886 1.07978 1.39201e-18)
(2.92246 1.00262 1.44252e-19)
(3.10559 0.908674 6.71004e-19)
(3.27968 0.799877 -1.10026e-18)
(3.43923 0.677793 -4.98831e-18)
(3.58037 0.54365 2.462e-18)