/*--------------------------------*- C++ -*----------------------------------*\
  =========                 |
  \\      /  F ield         | OpenFOAM: The Open Source CFD Toolbox
   \\    /   O peration     | Website:  https://openfoam.org
    \\  /    A nd           | Version:  13
     \\/     M anipulation  |
\*---------------------------------------------------------------------------*/
FoamFile
{
    format      ascii;
    class       volScalarField;
    location    "66.9";
    object      p;
}
// * * * * * * * * * * * * * * * * * * * * * * * * * * * * * * * * * * * * * //

dimensions      [0 2 -2 0 0 0 0];

internalField   nonuniform List<scalar> 
440
(
-1.2869
-1.27152
-1.2662
-1.26191
-1.28672
-1.34242
-1.32221
-1.29642
-1.26452
-1.22647
-1.47542
-1.43408
-1.37357
-1.29113
-1.19664
-1.59695
-1.53782
-1.41614
-1.26953
-1.12162
-1.66267
-1.57836
-1.39242
-1.20014
-1.02555
-0.675728
-0.673905
-0.675274
-0.68188
-0.686597
-0.928095
-0.944799
-0.983324
-1.04864
-1.12031
-1.15974
-1.18066
-1.22702
-1.30608
-1.41858
-1.23894
-1.24267
-1.25428
-1.27927
-1.32623
-1.24827
-1.24013
-1.2341
-1.23203
-1.23062
-0.580933
0.342707
-0.768316
-0.615547
-0.211484
-0.879313
0.578627
-0.958204
-0.733152
-0.211224
-1.23706
0.447613
-1.1116
-0.671857
-0.199965
-1.30341
0.281469
-1.05043
-0.565855
-0.178002
-1.16173
0.398368
-0.559433
-0.528457
-0.152019
-0.804561
0.753616
0.246891
-0.562836
-0.130452
-0.359526
0.432455
0.28651
-0.403886
-0.112139
-0.193048
0.569378
0.514615
-0.12702
-0.100427
-0.0820909
0.457791
0.558704
0.0403948
-0.0963345
-0.0507699
0.504678
0.634408
0.203659
-0.0771291
-0.729642
-0.844392
-0.99329
-1.12831
-1.27261
-0.42472
-0.540227
-0.610621
-0.650457
-0.650087
-0.224067
-0.321301
-0.36736
-0.387804
-0.380686
-0.106304
-0.190435
-0.236612
-0.249207
-0.234709
-0.0528785
-0.135004
-0.179299
-0.190175
-0.166941
0.692106
0.53642
0.339881
0.116067
-0.135875
0.242754
0.073936
-0.131867
-0.367952
-0.642406
-0.193395
-0.371066
-0.594348
-0.842283
-1.10402
-0.577026
-0.762353
-0.992378
-1.23883
-1.44576
-0.844274
-1.03591
-1.25582
-1.48553
-1.62555
1.94571
1.97431
2.00084
2.01352
2.00879
1.73544
1.7523
1.76228
1.75462
1.72497
1.49212
1.47961
1.44344
1.38299
1.29448
1.21475
1.17683
1.10274
0.995825
0.855854
0.958505
0.851669
0.712329
0.548285
0.346976
1.73017
1.71463
1.70618
1.76006
1.84398
1.71857
1.70078
1.68358
1.72864
1.74403
1.708
1.68433
1.65861
1.68531
1.61657
1.69865
1.66592
1.631
1.63222
1.43525
1.69055
1.64606
1.60192
1.57375
1.24439
1.68324
1.61771
1.56477
1.47198
1.03022
1.67671
1.57985
1.53382
1.38136
1.08536
1.68403
1.55633
1.50325
1.3296
1.05136
1.67278
1.53319
1.48377
1.29393
1.00861
1.71248
1.52844
1.47556
1.27636
0.985365
0.666724
0.338088
-0.019785
-0.338603
-0.544688
0.58139
0.360721
0.118615
-0.0992363
-0.283517
0.582401
0.410621
0.226707
0.0569574
-0.104112
0.612504
0.461884
0.305097
0.154017
0.00832188
0.628103
0.489762
0.344668
0.19889
0.0579627
-0.863664
-0.745377
-0.596706
-0.475479
-0.403403
-0.897159
-0.843014
-0.731938
-0.641638
-0.587422
-0.805037
-0.759755
-0.697979
-0.645502
-0.610359
-0.652693
-0.615844
-0.579132
-0.550958
-0.531609
-0.541094
-0.521837
-0.497928
-0.48793
-0.511061
-0.484856
-0.47877
-0.456408
-0.465138
-0.444428
-0.469767
-0.466318
-0.45552
-0.452182
-0.443394
-0.481004
-0.4763
-0.465267
-0.448047
-0.432989
-0.510081
-0.502251
-0.490336
-0.473864
-0.451333
-0.552319
-0.545355
-0.533525
-0.517854
-0.500687
-0.498478
-0.14234
-0.0230379
-0.447939
-0.0356046
-0.453409
-0.115345
-0.106952
-0.440817
-0.0933224
-0.331295
-0.0993261
-0.218316
-0.44962
-0.147873
-0.375934
-0.0814853
-0.373004
-0.470413
-0.187035
-0.467642
-0.00758162
-0.564745
-0.473363
-0.205029
0.00845634
-0.269947
-0.0151942
-0.413896
0.05587
-0.396234
-0.25118
0.0435709
-0.419282
0.0198848
-0.363227
-0.574185
-0.564748
-0.535723
-0.299091
-0.38031
-0.567147
-0.587704
-0.528408
-0.534593
1.76621
1.74848
1.71497
1.66711
1.60407
1.9138
1.9362
1.94432
1.9369
1.91507
2.03528
2.06892
2.09456
2.1085
2.10926
2.09147
2.1304
2.17126
2.20487
2.22091
2.06315
2.09905
2.1383
2.17042
2.18456
-0.0221066
-0.115599
-0.26249
-0.440699
-0.636857
0.491587
0.370609
0.208633
0.0138915
-0.223839
0.951652
0.82541
0.674666
0.497451
0.281468
1.31449
1.21874
1.10169
0.959528
0.790515
1.60194
1.53699
1.45091
1.34739
1.22718
1.80013
1.75748
1.76145
1.79059
1.84341
1.78371
1.75217
1.75602
1.79826
1.88083
1.76926
1.74528
1.75039
1.80597
1.93317
1.75549
1.73696
1.73961
1.801
1.92743
1.74242
1.72693
1.72451
1.78573
1.90299
1.85798
1.76734
1.75694
1.73077
1.74498
1.8116
1.75669
1.74932
1.74714
1.75106
1.50227
1.33126
1.01233
0.533721
0.00599036
1.57143
1.35514
1.02309
0.550381
0.0133897
)
;

boundaryField
{
    left
    {
        type            zeroGradient;
    }
    right
    {
        type            fixedValue;
        value           uniform 0;
    }
    down
    {
        type            zeroGradient;
    }
    up
    {
        type            zeroGradient;
    }
    cylinder
    {
        type            zeroGradient;
    }
    defaultFaces
    {
        type            empty;
    }
}


// ************************************************************************* //
