/*--------------------------------*- C++ -*----------------------------------*\
  =========                 |
  \\      /  F ield         | OpenFOAM: The Open Source CFD Toolbox
   \\    /   O peration     | Website:  https://openfoam.org
    \\  /    A nd           | Version:  13
     \\/     M anipulation  |
\*---------------------------------------------------------------------------*/
FoamFile
{
    format      ascii;
    class       volScalarField;
    location    "24.4";
    object      p;
}
// * * * * * * * * * * * * * * * * * * * * * * * * * * * * * * * * * * * * * //

dimensions      [0 2 -2 0 0 0 0];

internalField   nonuniform List<scalar> 
440
(
-1.40547
-1.41232
-1.43752
-1.44585
-1.47743
-1.35605
-1.33748
-1.32996
-1.32784
-1.32226
-1.45353
-1.41308
-1.36808
-1.31366
-1.24954
-1.56083
-1.50615
-1.40887
-1.29068
-1.1701
-1.62793
-1.55415
-1.39322
-1.2258
-1.07226
-1.01508
-0.995395
-0.967111
-0.934178
-0.885821
-1.05693
-1.04596
-1.03114
-1.0126
-0.988717
-1.12353
-1.13646
-1.1569
-1.17411
-1.18827
-1.12596
-1.17568
-1.25049
-1.32223
-1.37805
-1.32378
-1.3662
-1.43317
-1.48852
-1.52145
-0.734656
-0.835448
-1.19434
-1.4407
0.0220232
-0.949891
-0.624286
-1.05486
-1.3262
-0.00601189
-1.13448
-0.377371
-0.920174
-1.23208
-0.033272
-1.17601
-0.0901532
-0.755368
-1.12732
-0.0567625
-1.09194
0.147955
-0.56602
-0.959284
-0.0782667
-0.773487
0.296662
-0.409207
-0.753208
-0.104219
-0.389553
0.0243473
-0.322787
-0.483159
-0.117751
-0.429628
0.213737
-0.139817
-0.28401
-0.127295
-0.343773
0.292856
-0.0172508
-0.191355
-0.124671
-0.30951
0.315344
0.127147
-0.100003
-0.124813
-0.81185
-0.934774
-1.10185
-1.2591
-1.40923
-0.540777
-0.655589
-0.732867
-0.760497
-0.746882
-0.355231
-0.456243
-0.514937
-0.549197
-0.556647
-0.243075
-0.340741
-0.401531
-0.435048
-0.440105
-0.193462
-0.290361
-0.350369
-0.381994
-0.378449
0.541605
0.398543
0.218243
0.0113563
-0.226273
0.123131
-0.034205
-0.22943
-0.453234
-0.710313
-0.289406
-0.456039
-0.665998
-0.901691
-1.1374
-0.646043
-0.82095
-1.03375
-1.26322
-1.44603
-0.901365
-1.07475
-1.27401
-1.48185
-1.60193
1.80299
1.8338
1.86366
1.8805
1.87982
1.60477
1.62405
1.63853
1.63669
1.61379
1.36621
1.35721
1.32645
1.27275
1.19227
1.09394
1.05869
0.989531
0.88917
0.757481
0.82784
0.731412
0.602889
0.448986
0.259573
1.55659
1.5425
1.53737
1.58824
1.69161
1.54572
1.52887
1.51726
1.55755
1.60029
1.53584
1.51253
1.49474
1.51486
1.48514
1.52718
1.49271
1.46948
1.46293
1.31871
1.51985
1.47924
1.4424
1.40486
1.13856
1.51318
1.44347
1.40615
1.30549
0.940531
1.50894
1.40668
1.376
1.21359
0.952468
1.51529
1.38453
1.34725
1.15858
0.893031
1.50542
1.3627
1.33127
1.12126
0.837709
1.54486
1.35534
1.32745
1.10225
0.811443
0.515287
0.209821
-0.134038
-0.429362
-0.633361
0.448818
0.234869
-0.00103505
-0.211709
-0.389664
0.455361
0.28773
0.108001
-0.0637411
-0.224352
0.488908
0.347556
0.191803
0.0310632
-0.119472
0.508667
0.377387
0.230134
0.0726722
-0.072613
-1.43124
-1.28506
-1.11418
-0.972155
-0.887749
-1.4651
-1.40135
-1.26866
-1.15591
-1.08237
-1.36251
-1.31441
-1.23263
-1.15435
-1.09283
-1.19192
-1.1495
-1.10331
-1.05897
-1.01893
-1.04758
-1.02643
-0.996561
-0.978555
-0.985001
-0.962376
-0.958119
-0.924784
-0.949537
-0.911812
-0.92318
-0.917107
-0.89513
-0.894315
-0.862249
-0.929228
-0.921113
-0.902302
-0.875967
-0.858824
-0.958146
-0.947606
-0.931474
-0.913076
-0.904212
-0.979457
-0.962914
-0.937507
-0.910712
-0.883454
-0.893193
-0.621521
-0.700318
-0.933854
0.180424
-0.854136
-0.63949
-0.834314
-1.01871
0.143891
-0.708369
-0.688169
-1.01075
-1.20182
0.112107
-0.719707
-0.85522
-1.173
-1.38375
0.0815636
-0.729999
-0.967666
-1.2447
-1.4814
0.0512104
-0.324293
-0.731205
-0.637743
-0.880851
0.253947
-0.780359
-0.705744
-0.586171
-0.890306
0.220181
-0.840658
-1.05065
-1.02486
-0.972883
-0.713148
-0.859612
-1.04923
-1.04768
-0.982733
-0.961874
1.5462
1.52141
1.47892
1.42014
1.34301
1.70952
1.72962
1.73362
1.72013
1.69027
1.84818
1.88072
1.90391
1.91412
1.9104
1.91944
1.95888
2.00044
2.03465
2.05062
1.90643
1.94384
1.98506
2.0193
2.03497
-0.460868
-0.568621
-0.737831
-0.940166
-1.17767
0.110756
-0.0260006
-0.20858
-0.428989
-0.710125
0.628066
0.486112
0.315824
0.114467
-0.139238
1.03833
0.929047
0.795818
0.633342
0.435966
1.36341
1.2877
1.18743
1.06635
0.924302
1.62402
1.58195
1.58393
1.60706
1.64847
1.60798
1.57743
1.57969
1.61671
1.69533
1.59397
1.57134
1.57593
1.62796
1.75839
1.58069
1.56379
1.56675
1.62529
1.75927
1.5682
1.55438
1.55357
1.61218
1.74309
1.68081
1.58995
1.57637
1.53947
1.54377
1.63502
1.58014
1.56976
1.55698
1.5464
1.25341
1.05601
0.696201
0.16036
-0.427915
1.33148
1.0847
0.708276
0.178354
-0.420595
)
;

boundaryField
{
    left
    {
        type            zeroGradient;
    }
    right
    {
        type            fixedValue;
        value           uniform 0;
    }
    down
    {
        type            zeroGradient;
    }
    up
    {
        type            zeroGradient;
    }
    cylinder
    {
        type            zeroGradient;
    }
    defaultFaces
    {
        type            empty;
    }
}


// ************************************************************************* //
