/*--------------------------------*- C++ -*----------------------------------*\
  =========                 |
  \\      /  F ield         | OpenFOAM: The Open Source CFD Toolbox
   \\    /   O peration     | Website:  https://openfoam.org
    \\  /    A nd           | Version:  13
     \\/     M anipulation  |
\*---------------------------------------------------------------------------*/
FoamFile
{
    format      ascii;
    class       surfaceScalarField;
    location    "3.2";
    object      phi;
}
// * * * * * * * * * * * * * * * * * * * * * * * * * * * * * * * * * * * * * //

dimensions      [0 3 -1 0 0 0 0];

internalField   nonuniform List<scalar> 
823
(
-0.00136523
0.0147487
-0.0133834
0.0215061
0.0127221
-0.0355934
0.0891446
-0.0237283
-0.0439102
0.197306
-0.0850487
-0.0231128
-0.107859
-0.0398907
0.345056
0.00160558
0.0131431
0.0472862
-0.0329586
0.145775
-0.122217
0.265925
-0.205198
-0.27777
0.435837
0.0223042
-0.00916113
0.112205
-0.12286
0.233255
-0.243266
0.353009
-0.324953
-0.375436
0.450674
0.0461648
-0.0553259
0.150958
-0.227653
0.243987
-0.336295
0.303158
-0.384124
-0.397826
0.325548
0.06264
-0.117966
0.141526
-0.306539
0.187478
-0.382246
0.205679
-0.402325
0.217408
-0.409555
-0.0225639
0.0685068
-0.0459429
-0.062013
0.107304
-0.067855
-0.105624
0.111359
-0.0677483
-0.148667
0.10669
-0.0636473
0.0988363
-0.188745
-0.0587583
0.000569845
0.0679369
-0.0132911
0.121165
-0.0344448
0.132513
-0.0559468
0.128192
0.116445
-0.0735553
0.0210707
0.0468662
0.0410815
0.101154
0.0534329
0.120162
0.063113
0.118512
0.108374
0.0711836
0.0246745
0.0221917
0.0635401
0.0622887
0.100479
0.0832226
0.13477
0.0842216
0.0856019
0.157542
0.00880824
0.0355036
0.074816
0.135925
0.181636
-0.126017
0.182386
-0.245114
0.107936
-0.62787
0.393918
0.250339
-0.649456
0.507053
0.346099
-0.480339
0.384579
-0.226848
0.188156
0.0477938
0.0610372
0.221459
-0.801535
0.314845
-0.742842
0.376061
-0.541555
-0.252905
0.241108
-0.108887
0.362535
-0.922963
0.408411
-0.788717
0.422829
-0.555973
-0.259585
0.365153
-0.316498
0.447749
-1.00556
0.48134
-0.822309
0.470446
-0.545079
-0.25116
0.40841
-0.543271
0.48107
-1.07822
0.511191
-0.852429
0.498602
-0.53249
-0.240612
1.27551
-0.631264
-1.18752
1.16849
-0.971194
0.99873
-0.68267
0.846145
-0.379905
-0.16212
1.3746
-0.541907
-1.46396
1.12942
-0.726011
0.895892
-0.449141
0.754315
-0.238329
-0.107681
1.32418
-0.445012
-1.42107
1.13711
-0.538939
0.948925
-0.26096
0.79352
-0.0829243
-0.0337778
1.19685
-0.286824
-1.35504
0.938705
-0.280791
0.761885
-0.0841396
0.663726
0.015234
0.00985383
0.656782
-0.943605
0.37599
0.291851
0.307085
1.1384
0.181363
-1.10236
1.22699
0.236959
1.32153
0.356137
1.32818
0.429179
0.485718
1.04656
0.121109
-0.98631
1.12949
0.154033
1.23397
0.251658
1.35374
0.309413
0.375493
0.988757
0.0670311
-0.934679
1.04913
0.0936635
1.14793
0.15285
1.27368
0.18367
0.228097
0.93984
0.0212521
-0.894061
0.999116
0.0343877
1.09477
0.057195
1.21174
0.0666994
0.0847977
0.700525
-0.679273
0.734913
0.792108
0.858808
0.143818
0.309623
-0.254031
-0.199409
0.0959837
0.314818
-0.266984
0.0537964
0.3251
-0.282913
0.0185255
0.316723
-0.281453
0.20495
-0.186424
0.102897
0.346961
-0.140236
0.0656414
0.352073
0.0323986
0.358343
0.00653725
0.342585
0.211487
0.0671187
0.383248
-0.103406
0.0341539
0.385038
0.00628648
0.38621
-0.00781769
0.356689
0.203669
-0.0198711
0.398666
0.00445339
-0.0356831
0.40085
-0.0423406
0.392868
-0.0316426
0.345991
0.172027
-0.102659
0.0917705
-0.104134
-0.0935123
-0.0540606
0.198199
0.109735
-0.249455
-0.0584789
0.145355
0.114407
-0.0615627
0.0907818
0.119928
-0.0653552
0.0371262
0.120877
-0.0672212
0.0856868
-0.0485605
0.183925
0.152241
-0.226431
0.139132
0.1592
0.0892689
0.169791
0.0372923
0.172853
0.122979
0.145217
0.197262
-0.190237
0.103168
0.201249
0.0624291
0.21053
0.0235038
0.211779
0.146483
0.150919
0.230071
-0.183727
0.11205
0.240118
0.0687461
0.253834
0.0267245
0.2538
0.173207
0.096814
-0.120775
0.0699482
0.040869
0.0132168
0.410328
0.0312743
-0.045623
0.422126
0.0577424
-0.0695402
0.41623
0.189684
-0.183788
0.384896
0.274022
-0.242688
0.507935
-0.372494
0.408477
0.0187772
0.41523
0.0509894
0.406077
0.198837
0.374216
0.305883
0.655719
0.402318
0.0124384
0.410027
0.0432811
0.380897
0.227966
0.365523
0.321258
0.831005
0.397418
0.0109995
0.39449
0.0462093
0.365473
0.256983
0.336286
0.350445
0.983563
0.388481
0.0184982
0.38152
0.05317
0.333028
0.305475
0.316808
0.366665
1.1796
0.619429
0.00308976
0.646734
0.0258651
0.672116
0.280093
0.74234
0.29644
0.904396
1.01754
0.627221
-0.0201111
0.645592
0.00749415
0.707478
0.218207
0.767875
0.236043
0.639969
1.0323
0.628152
-0.0442425
0.647969
-0.0123234
0.729548
0.136628
0.818012
0.14758
0.401927
1.05605
0.618502
-0.0587245
0.641893
-0.0357136
0.734246
0.044275
0.824729
0.0570962
0.192685
1.03397
0.545296
0.509582
0.553857
0.610954
0.803638
1.05134
-0.233211
1.04257
-0.131467
1.05328
-0.114112
1.04942
0.00831456
0.0388339
0.988727
-0.189636
0.974587
-0.117328
0.951534
-0.0910587
0.964406
-0.00455824
0.0169298
0.983687
-0.117269
0.95123
-0.0848706
0.919055
-0.0588839
0.927654
-0.0131567
0.00990421
0.964171
-0.0474682
0.9179
-0.0385997
0.886102
-0.0270857
0.884845
-0.0118999
0.000688647
0.75617
0.71757
0.690485
0.678585
0.0469608
0.139877
-0.186838
0.0718336
0.308232
-0.333104
0.0731187
0.362431
-0.363716
0.063116
0.366568
-0.356565
0.335659
0.0511839
-0.323727
0.0675494
0.0723277
0.139012
0.236769
0.174703
0.32674
0.180242
0.361029
0.357201
0.1587
0.0561969
0.0161308
0.166501
0.126466
0.260615
0.232626
0.329165
0.292478
0.345043
0.341324
0.0268204
-0.0106896
0.120479
0.0328072
0.240021
0.113083
0.356925
0.175574
0.236847
0.465121
0.00559011
-0.0162797
0.050567
-0.0121697
0.143643
0.0200072
0.257871
0.061346
0.097979
0.396739
-0.00291545
-0.0133643
0.0081182
-0.0232033
0.0472614
-0.019136
0.112569
-0.00396125
0.0202856
0.190262
0.0028596
-0.0162239
0.00970108
-0.0300448
0.0229919
-0.0324268
0.0466694
-0.0276387
-0.0170348
0.0839898
-0.00754938
-0.00867448
-0.0205698
-0.0170244
-0.0331842
-0.0198124
-0.0416373
-0.0191856
-0.0161177
-0.0425544
-0.0255365
0.016862
-0.0649066
0.0223458
-0.104607
0.0198884
-0.140873
0.0170805
0.0152832
-0.172274
-0.0290809
-0.0745901
-0.12245
-0.169017
-0.212492
0.353816
0.447183
-0.610737
0.413935
0.139126
-0.199245
0.392283
0.00443418
0.0172184
0.38622
0.00762991
-0.00156748
0.00175191
-0.0182019
0.222717
0.308455
0.22068
0.141163
0.257503
-0.0323887
0.328188
-0.0630548
-0.0441818
-0.0156996
0.2816
0.0693175
0.0561458
0.21003
-0.173102
0.315068
-0.168093
-0.0958696
-0.159663
0.268989
0.0434239
-0.146941
0.211804
-0.341481
0.321144
-0.277433
-0.143993
-0.188617
0.0583595
0.223931
0.331076
0.222939
0.396906
-0.619845
0.103074
0.119865
0.159689
-0.0566152
0.226748
-0.0670593
-0.0275101
0.80013
-1.01396
0.72075
0.681353
0.612726
0.0838247
-0.0147012
-0.0691235
0.13447
-0.0506449
0.24616
-0.11169
0.415265
-0.169106
-0.204579
0.188097
-0.151615
0.296152
0.525786
0.821801
0.136694
-0.125669
0.156957
-0.167981
0.102934
-0.130382
0.164142
0.0655605
-0.137003
0.174376
0.0263857
-0.136638
0.175813
-0.09525
0.121636
0.172134
-0.0875707
-0.210233
0.130068
-0.0883159
0.082821
-0.0897562
0.034178
-0.087995
-0.0610721
0.182375
-0.0402968
-0.229649
0.133489
-0.0394303
0.0829458
-0.0392129
0.0336017
-0.0386509
-0.0274703
0.194639
0.00903865
-0.243975
0.144122
0.0110872
0.091553
0.0133557
0.0381823
0.0147198
0.010712
0.192825
-0.242265
0.142349
0.09035
0.0378486
0.0374555
-0.304343
-0.0568398
0.0145244
-0.333634
-0.00688759
-0.342304
-0.0153593
-0.324633
-0.202197
0.118713
-0.274656
-0.148399
0.0769632
-0.291885
0.0370977
-0.302439
0.00727871
-0.294814
-0.194918
0.136881
-0.236414
-0.175124
0.0969154
-0.251919
0.0567504
-0.262274
0.0200814
-0.258145
-0.174837
0.156929
-0.202429
-0.190914
0.114699
-0.209688
0.069594
-0.217168
0.0272555
-0.215806
-0.147581
0.154277
-0.19975
0.108731
0.0659391
0.0259458
0.393733
0.0801207
-0.077874
0.391731
0.127849
-0.125847
0.344232
0.14722
-0.0997214
0.289677
0.0511852
0.00337027
-0.150039
0.271735
0.398954
0.0771458
0.410176
0.116627
0.387583
0.169814
0.330804
0.107964
-0.0294679
0.402397
0.0707288
0.419703
0.0993203
0.408029
0.181488
0.355248
0.160745
0.0961315
0.406902
0.0598067
0.423315
0.0829065
0.420867
0.183936
0.37688
0.204732
0.229037
0.410163
0.42353
0.423678
0.385721
0.424456
0.085595
0.324024
0.100432
0.258432
0.0655919
0.269513
-0.0110811
-0.146281
0.415794
0.517772
0.492357
0.458227
0.450517
0.57597
0.331142
0.0846516
0.255596
0.0755466
0.168752
0.0868439
0.0971213
0.0716306
0.0279978
0.460872
0.345505
0.257225
0.180457
)
;

boundaryField
{
    left
    {
        type            calculated;
        value           nonuniform List<scalar> 
17
(
-0.60402
-0.60402
-0.60402
-0.60402
-0.60402
-0.39598
-0.39598
-0.39598
-0.39598
-0.39598
-0.39598
-0.39598
-0.39598
-0.39598
-0.39598
-0.510051
-0.510051
)
;
    }
    right
    {
        type            calculated;
        value           nonuniform List<scalar> 
17
(
0.254259
0.567014
0.40267
0.374121
0.366756
0.369268
0.375239
0.384792
0.402118
0.429509
0.462021
0.488055
0.767652
0.699876
0.719617
0.620095
0.316939
)
;
    }
    down
    {
        type            calculated;
        value           uniform 0;
    }
    up
    {
        type            calculated;
        value           uniform 0;
    }
    cylinder
    {
        type            calculated;
        value           uniform 0;
    }
    defaultFaces
    {
        type            empty;
    }
}


// ************************************************************************* //
