/*--------------------------------*- C++ -*----------------------------------*\
  =========                 |
  \\      /  F ield         | OpenFOAM: The Open Source CFD Toolbox
   \\    /   O peration     | Website:  https://openfoam.org
    \\  /    A nd           | Version:  13
     \\/     M anipulation  |
\*---------------------------------------------------------------------------*/
FoamFile
{
    format      ascii;
    class       volVectorField;
    location    "3.2";
    object      U;
}
// * * * * * * * * * * * * * * * * * * * * * * * * * * * * * * * * * * * * * //

dimensions      [0 1 -1 0 0 0 0];

internalField   nonuniform List<vector> 
440
(
(-0.0731156 0.0472999 -7.84322e-20)
(-0.125662 0.116697 8.81863e-20)
(-0.0288512 0.159414 8.54639e-20)
(0.374527 0.206664 4.15467e-19)
(0.337751 0.371089 4.24489e-23)
(-0.0955575 0.0458089 2.39002e-20)
(0.0199957 0.0156843 -1.55974e-19)
(0.486293 -0.0157554 -1.11066e-19)
(1.06296 -0.0356226 5.36903e-20)
(1.51697 -0.0193166 3.69417e-21)
(-0.0455461 0.015316 5.39342e-20)
(0.454684 -0.0275115 7.38231e-19)
(1.25374 -0.0111613 -3.86091e-19)
(1.86406 0.0301265 -1.14446e-18)
(2.43792 0.0438332 3.87389e-19)
(0.166964 -0.0408726 -1.81068e-19)
(1.1832 0.0143462 -5.38963e-19)
(1.99931 0.0957892 1.70899e-18)
(2.47316 0.139097 1.8537e-18)
(2.55243 0.167387 -5.15739e-19)
(0.543947 -0.00601631 -2.98168e-19)
(1.77611 0.202698 -6.29295e-19)
(2.3587 0.291821 1.91128e-18)
(2.49596 0.313227 2.02974e-18)
(2.58734 0.284012 6.74281e-19)
(-0.0418807 0.368405 1.56056e-19)
(-0.160733 0.545954 7.95346e-20)
(-0.271791 0.543806 -3.36503e-19)
(-0.369218 0.505215 5.31509e-20)
(-0.434042 0.456814 3.27053e-19)
(-0.0920887 0.444995 -3.47073e-21)
(-0.182645 0.718624 -1.93183e-19)
(-0.243147 0.744345 5.43882e-20)
(-0.293692 0.700474 5.44293e-20)
(-0.312267 0.63076 -1.06858e-19)
(-0.120778 0.369556 -1.48779e-19)
(-0.193354 0.734706 6.83876e-20)
(-0.204861 0.834918 -5.18393e-20)
(-0.184636 0.813648 -5.65895e-19)
(-0.145254 0.746064 6.89038e-21)
(-0.0906191 0.18908 -2.42935e-20)
(-0.160146 0.518087 3.21959e-20)
(-0.155423 0.684169 5.51575e-20)
(-0.0950222 0.728116 2.88362e-19)
(-0.0494191 0.714749 -7.01486e-20)
(-0.0570363 0.0679765 -6.90116e-20)
(-0.143533 0.25703 -8.52757e-20)
(-0.161523 0.412069 -1.10775e-19)
(-0.0767538 0.490328 -1.00355e-19)
(-0.0304924 0.601047 -6.37528e-19)
(-0.584556 0.15254 -1.12254e-18)
(0.0607935 -0.379155 8.69948e-19)
(0.475487 -0.411647 4.84425e-20)
(0.737871 -0.306321 -2.2677e-20)
(0.971589 -0.148202 1.05361e-21)
(-0.150133 0.0889689 8.58672e-19)
(0.489582 -0.510698 -1.92111e-19)
(0.723716 -0.496374 8.75958e-20)
(0.872509 -0.366004 9.72951e-20)
(1.01533 -0.175953 1.33935e-20)
(0.456758 -0.00641803 8.41091e-20)
(1.004 -0.586425 8.07687e-19)
(1.08077 -0.532395 -7.17186e-20)
(1.07877 -0.388777 1.32604e-19)
(1.0845 -0.188391 -3.9628e-21)
(1.00726 -0.137411 -5.62448e-20)
(1.39252 -0.652739 -2.4356e-19)
(1.37487 -0.546184 -4.02039e-20)
(1.28868 -0.37787 -1.32704e-19)
(1.16661 -0.182334 5.55073e-20)
(1.4203 -0.311627 -1.16932e-19)
(1.69862 -0.685805 -3.32946e-19)
(1.55757 -0.546802 0)
(1.42854 -0.351158 1.0414e-19)
(1.23238 -0.162767 2.51279e-20)
(2.14466 -0.333612 -4.2074e-19)
(2.11368 -0.61866 1.38919e-19)
(1.74914 -0.502497 -1.64433e-20)
(1.51616 -0.307258 8.0099e-20)
(1.27079 -0.13249 -6.84571e-20)
(2.46378 -0.416297 2.89099e-20)
(2.14063 -0.560015 3.2094e-19)
(1.61061 -0.342625 -1.27231e-20)
(1.32591 -0.173066 -8.30308e-20)
(1.15863 -0.0740806 0)
(2.36647 -0.290985 -4.52135e-19)
(2.07628 -0.367573 1.17606e-20)
(1.70023 -0.216407 -9.89381e-20)
(1.42365 -0.115201 4.94369e-20)
(1.19128 -0.0549892 -2.07543e-20)
(2.24108 -0.25291 9.58488e-20)
(1.76153 -0.306283 1.37112e-19)
(1.35749 -0.116884 -2.64607e-20)
(1.16168 0.00590196 -3.99717e-34)
(1.02653 0.0100412 2.11318e-20)
(1.41846 -0.0861789 1.61318e-19)
(0.763974 -0.0335842 2.29747e-20)
(0.490829 0.0095069 -5.10814e-21)
(0.488231 0.0134509 -9.59501e-21)
(0.524606 0.00318667 1.67421e-21)
(2.45339 0.303875 -8.12813e-19)
(2.71087 0.0696679 -1.05225e-18)
(2.49332 0.159719 6.10016e-19)
(2.82396 -0.0868108 1.20986e-19)
(2.02057 0.185272 1.66685e-21)
(2.15864 0.229907 7.99135e-20)
(2.52176 0.0195476 -3.86859e-20)
(2.2971 0.0909266 -1.43272e-19)
(2.608 -0.124048 -2.09061e-19)
(2.39605 -0.108195 -8.19886e-21)
(2.12279 0.125652 8.13981e-20)
(2.27059 0.0221583 8.74878e-20)
(2.24494 0.0139792 -1.12231e-19)
(2.32863 -0.0745976 4.22129e-20)
(2.35043 -0.116617 -5.47163e-21)
(2.08077 0.0563206 1.18169e-19)
(2.1051 0.000809675 1.55925e-19)
(2.18496 -0.00778706 -1.98574e-20)
(2.18672 -0.0624006 -6.06209e-20)
(2.25653 -0.0817511 3.53879e-20)
(1.581 -0.010854 1.83568e-19)
(1.53901 -0.0151241 -1.21609e-20)
(1.61508 -0.0230708 2.1802e-20)
(1.54503 -0.0271948 -2.83316e-20)
(1.61344 -0.0407604 3.12491e-21)
(1.61362 0.850253 1.1525e-18)
(1.56471 0.951621 -3.68408e-19)
(1.56398 1.08576 -1.37971e-18)
(1.49506 1.13651 7.53755e-19)
(0.916778 0.821255 -1.74644e-19)
(1.91219 0.82358 -5.88532e-19)
(1.87688 0.903279 -3.10242e-18)
(1.87653 1.01022 -1.19902e-18)
(1.78587 1.02207 -4.18204e-19)
(1.09062 0.718723 -6.84966e-19)
(2.20636 0.692316 7.86996e-19)
(2.1907 0.76588 2.02209e-19)
(2.16674 0.85873 -2.35928e-18)
(2.02961 0.846839 -6.6163e-19)
(1.19566 0.561525 4.81115e-19)
(2.38825 0.592613 2.30902e-18)
(2.37155 0.643634 1.70945e-18)
(2.36425 0.693435 -1.97658e-18)
(2.13877 0.647737 -1.49658e-18)
(1.16102 0.370326 -2.7048e-19)
(2.52882 0.435433 1.12631e-18)
(2.54194 0.458197 -8.149e-19)
(2.43499 0.484924 5.82563e-19)
(2.08067 0.422868 4.54536e-19)
(0.948248 0.159802 -3.76807e-19)
(0.569226 0.488561 -5.6335e-19)
(0.481857 0.520841 -4.29756e-19)
(0.36597 0.554043 4.72045e-20)
(0.229899 0.56651 -6.226e-22)
(0.0585208 0.412683 8.75856e-20)
(0.663228 0.66784 1.29443e-19)
(0.60023 0.732146 -2.44763e-19)
(0.515642 0.804899 1.78376e-19)
(0.394411 0.853514 -8.43552e-20)
(0.172641 0.637647 1.1893e-19)
(0.791492 0.843758 1.14194e-19)
(0.717342 0.920737 4.65881e-19)
(0.661039 1.01837 1.23682e-19)
(0.576475 1.06452 -3.14223e-19)
(0.314878 0.782967 2.68414e-19)
(1.05383 0.921544 2.56187e-19)
(1.00683 1.00763 -7.82578e-19)
(0.959471 1.10858 -2.03132e-18)
(0.880908 1.17238 8.07858e-19)
(0.5193 0.866405 -1.59631e-19)
(1.16847 0.956525 -1.06339e-19)
(1.19185 1.0776 -1.82403e-19)
(1.21027 1.19377 -3.86503e-19)
(1.15433 1.22093 -4.37477e-19)
(0.706678 0.876101 -6.84226e-21)
(0.951382 0.0297187 -9.69484e-20)
(1.0483 0.0460933 -3.18677e-20)
(1.02609 0.134001 -1.97175e-21)
(0.951161 0.177421 -2.79501e-19)
(0.876863 0.318683 2.96498e-19)
(0.949742 0.0242062 6.45676e-20)
(1.05456 0.0469675 1.16229e-19)
(1.01934 0.137908 1.18251e-19)
(0.989646 0.217551 4.4504e-20)
(0.925659 0.38208 -2.29435e-20)
(0.955148 0.020532 8.71663e-20)
(1.04144 0.0426628 -4.38982e-21)
(1.06593 0.155408 -4.10206e-21)
(0.933954 0.214832 1.43937e-19)
(1.15965 0.544281 -4.86957e-19)
(0.95495 0.0170833 -1.17269e-21)
(1.04952 0.0382132 -1.57456e-19)
(1.06141 0.170004 -6.34928e-20)
(1.02224 0.232701 -3.8689e-19)
(1.16637 0.566708 9.29362e-20)
(0.956077 0.0123346 -1.80352e-20)
(1.04459 0.0393469 4.27149e-20)
(1.10486 0.178472 2.99029e-20)
(0.988915 0.245456 4.39737e-19)
(1.4656 0.708107 -4.6168e-19)
(0.939899 0.0108766 -1.37751e-20)
(1.07641 0.0210371 9.04406e-20)
(1.09916 0.202484 -7.75399e-20)
(1.16457 0.179888 8.14355e-19)
(1.31268 0.723541 -3.60479e-19)
(0.936566 -0.0075145 -1.93214e-21)
(1.10068 0.00897647 -7.89828e-20)
(1.07879 0.151738 4.24092e-21)
(1.24314 0.182197 -2.52579e-19)
(1.36425 0.462977 -2.97712e-20)
(0.94984 -0.0156576 -3.16084e-21)
(1.08763 0.00177184 1.17076e-35)
(1.10363 0.12188 -3.22995e-20)
(1.27688 0.11861 9.02109e-20)
(1.50481 0.313582 1.68654e-19)
(0.973469 -0.0438934 4.6472e-21)
(1.02885 -0.0188905 -2.33266e-20)
(1.14684 0.0487224 1.71243e-20)
(1.23937 0.0622123 3.08295e-20)
(1.56556 0.188569 -2.5992e-19)
(0.908743 -0.022518 -3.71588e-20)
(0.849554 -0.023534 -2.37886e-21)
(0.884781 0.00476403 2.58302e-20)
(0.906627 0.00587945 -1.60082e-20)
(1.17982 0.0552618 -5.93639e-20)
(1.85261 0.628734 2.98791e-19)
(1.93952 0.665181 7.7302e-19)
(2.22026 0.51686 -1.10395e-18)
(2.26975 0.51933 -6.62819e-21)
(2.51277 0.304537 4.79316e-19)
(1.80469 0.394137 7.89055e-20)
(1.81892 0.430894 9.81456e-19)
(2.06296 0.325913 1.24466e-19)
(2.01041 0.353023 -9.52156e-19)
(2.32113 0.172138 -2.83478e-19)
(1.76504 0.285346 -2.26404e-19)
(1.83041 0.276366 -1.52921e-19)
(1.95862 0.22322 1.50426e-19)
(1.98645 0.215604 -3.03119e-19)
(2.14416 0.122696 2.72043e-19)
(1.71174 0.170622 3.48715e-19)
(1.80298 0.155871 -5.38905e-21)
(1.85186 0.127631 2.24951e-19)
(1.94748 0.113541 2.01463e-19)
(1.99101 0.065463 -1.95469e-19)
(1.34195 0.0446662 -4.20872e-20)
(1.41415 0.0312454 2.34094e-19)
(1.43914 0.0207378 1.09109e-19)
(1.51158 0.00768166 -2.28861e-19)
(1.50527 -0.00142293 2.03518e-22)
(1.09199 -0.0171014 6.10618e-20)
(2.06819 -0.0428336 -3.92721e-19)
(2.29942 -0.0338155 1.06881e-18)
(2.27517 0.00370843 4.66044e-19)
(2.13259 0.0326144 -3.31194e-19)
(0.688658 0.0936865 1.1035e-19)
(1.84874 0.0860956 -3.96773e-19)
(2.30008 0.0871904 -5.30456e-19)
(2.36855 0.093169 6.3577e-19)
(2.1053 0.0804921 -3.97458e-19)
(0.228374 0.0789758 -1.80182e-20)
(1.23823 0.145414 4.14363e-19)
(1.95686 0.161178 5.45719e-20)
(2.32648 0.149938 3.19554e-19)
(2.51747 0.141114 9.51019e-20)
(-0.0193401 -0.0127711 1.72364e-19)
(0.460796 0.0806607 1.72185e-19)
(1.2034 0.146003 -3.63943e-19)
(1.67333 0.166976 1.7933e-20)
(2.21118 0.188527 -1.78254e-20)
(-0.0845715 -0.0687526 1.24696e-19)
(0.0161061 -0.0397213 -1.31555e-19)
(0.408892 0.0328238 -2.35831e-20)
(0.875276 0.0640446 4.09313e-20)
(1.202 0.0991006 -2.94529e-20)
(-0.062424 -0.0631888 7.08206e-21)
(-0.0902908 -0.0920599 6.43643e-20)
(0.00512066 -0.0792932 7.77154e-20)
(0.207439 -0.0390954 -1.21903e-19)
(0.483534 -0.00174996 1.62727e-21)
(-0.0454373 -0.0802488 -1.72785e-20)
(-0.0803904 -0.161219 -2.68261e-21)
(-0.068427 -0.187536 1.53938e-20)
(-0.0161809 -0.169952 1.24835e-20)
(0.0953265 -0.127731 1.27006e-20)
(-0.0453358 -0.095455 -2.45052e-20)
(-0.108586 -0.157101 -2.18002e-19)
(-0.144641 -0.153838 1.66908e-19)
(-0.16225 -0.124424 4.64337e-19)
(-0.145441 -0.0900167 -6.06136e-20)
(-0.0211905 0.0159076 1.63954e-20)
(-0.129049 0.0278611 1.23618e-19)
(-0.231609 0.0336646 -3.59393e-19)
(-0.314104 0.0449082 -3.06835e-19)
(-0.360758 0.0597689 3.32022e-20)
(-0.00930536 0.197337 -4.95839e-21)
(-0.126853 0.291308 2.44159e-20)
(-0.246614 0.293076 -1.47617e-20)
(-0.352228 0.279864 3.1984e-20)
(-0.426445 0.262472 1.76324e-19)
(1.28968 0.379477 -1.59458e-20)
(1.16904 0.0876442 8.1723e-19)
(1.12609 -0.0176939 -6.78915e-20)
(0.995161 0.0190102 -9.5478e-20)
(1.01677 0.0230337 9.81138e-22)
(0.890876 0.231805 8.85901e-20)
(0.522938 0.102022 -2.63655e-19)
(0.632135 0.0363719 -1.871e-19)
(0.724127 0.00464873 -1.32713e-20)
(0.944662 -0.00438987 -1.88699e-20)
(0.10838 0.199611 5.77986e-20)
(-0.0706692 0.0907624 -2.55702e-19)
(0.395238 -0.0656097 2.97111e-20)
(0.638244 -0.0706798 1.46227e-19)
(0.926077 -0.0349942 2.30923e-21)
(-0.462866 0.190694 1.92158e-19)
(-0.204426 -0.0160447 -8.36832e-19)
(0.365137 -0.169432 3.96239e-20)
(0.641794 -0.148085 3.39937e-21)
(0.932416 -0.0761188 1.14355e-20)
(-0.669071 0.175928 1.24407e-19)
(-0.149671 -0.187829 -3.06824e-20)
(0.38228 -0.294826 -8.81247e-21)
(0.673211 -0.228119 -1.19002e-20)
(0.947485 -0.112411 1.9895e-20)
(0.707337 0.106779 -6.97445e-20)
(0.151466 -0.043392 0)
(0.258322 -0.0703698 -2.94341e-20)
(0.381315 -0.0542081 2.2467e-20)
(0.49834 -0.0246084 1.68155e-21)
(1.79905 0.352426 0)
(1.38653 0.19457 0)
(1.39713 0.00402659 3.35828e-19)
(1.2836 -0.0244478 4.42581e-20)
(1.11152 -0.00692868 -8.21463e-22)
(0.687222 -8.39098e-06 -1.21023e-19)
(0.729463 -0.00285593 2.6033e-19)
(0.887899 -0.0166561 -1.42428e-20)
(1.03947 0.00817885 2.26346e-19)
(1.29457 0.0433686 1.44651e-19)
(1.56025 0.0213816 1.15416e-19)
(1.65152 0.0680826 2.79608e-19)
(1.8697 0.0263284 -5.9274e-20)
(2.4081 0.150384 -4.2043e-20)
(2.05702 0.0843317 3.41632e-20)
(0.847969 -0.424286 -3.3327e-20)
(0.827067 -0.506931 -1.4188e-19)
(0.810715 -0.597435 -8.83559e-20)
(0.739358 -0.659855 5.38736e-20)
(0.446675 -0.515099 1.15257e-19)
(0.740165 -0.326585 1.14937e-19)
(0.687113 -0.386759 2.42081e-19)
(0.618579 -0.4545 -2.79787e-20)
(0.512215 -0.512148 1.25085e-19)
(0.276067 -0.407472 5.25519e-20)
(0.60842 -0.187598 -1.38938e-19)
(0.526859 -0.22201 -4.55837e-20)
(0.427509 -0.26518 1.34393e-19)
(0.309483 -0.30481 -5.57658e-21)
(0.132109 -0.248056 -1.03823e-19)
(0.520331 0.0357222 -3.92504e-19)
(0.437563 0.0248566 -3.30056e-19)
(0.329494 0.00595155 2.65856e-19)
(0.204303 -0.0232237 1.71879e-19)
(0.0503083 -0.0424352 1.33058e-20)
(0.492748 0.240335 -1.58179e-19)
(0.408632 0.24947 -1.57911e-19)
(0.297888 0.260466 -7.00063e-20)
(0.170189 0.265903 1.30324e-20)
(0.0222332 0.18754 9.59306e-21)
(1.89407 -0.03862 7.06172e-19)
(2.1557 -0.0986173 2.26783e-19)
(2.2191 -0.176508 -6.24404e-19)
(2.07083 -0.203666 -1.30212e-18)
(1.23903 -0.173039 1.14765e-19)
(1.88084 -0.109991 1.18478e-18)
(1.95881 -0.215142 1.58852e-18)
(1.97743 -0.329832 1.35521e-19)
(1.89496 -0.386835 2.41665e-19)
(1.20721 -0.33315 -1.59326e-19)
(1.60509 -0.261202 -3.05416e-18)
(1.67138 -0.371404 3.15809e-19)
(1.71056 -0.487228 9.62785e-19)
(1.64287 -0.556925 -3.48299e-19)
(1.06032 -0.46636 5.60442e-19)
(1.41079 -0.371333 7.07395e-19)
(1.42228 -0.462209 -1.9085e-18)
(1.40227 -0.570898 -2.15082e-18)
(1.32891 -0.650913 6.48449e-19)
(0.852831 -0.531996 4.66002e-19)
(1.13962 -0.41758 1.36943e-19)
(1.09388 -0.504174 2.25588e-19)
(1.07738 -0.616085 -3.27771e-19)
(1.01735 -0.695321 -3.94098e-19)
(0.639803 -0.549393 -3.59361e-21)
(0.972727 0.0417938 6.1526e-21)
(1.02485 0.0756235 -2.42386e-21)
(1.07029 0.0697339 -7.61063e-21)
(0.787793 0.00246587 -1.83207e-19)
(1.03337 -0.163148 -1.19494e-20)
(0.975317 0.0432066 -2.57527e-21)
(1.01332 0.070059 4.38764e-20)
(1.09298 0.0987513 -4.10183e-20)
(0.856406 0.0474155 1.16667e-19)
(0.924594 -0.053971 -1.09114e-20)
(0.975984 0.0391188 -5.6421e-20)
(1.00386 0.0625884 1.17451e-22)
(1.09361 0.106187 -1.61591e-20)
(0.867543 0.0829373 3.28192e-20)
(0.887593 0.00180917 -1.63489e-19)
(0.96765 0.0376752 7.39005e-20)
(1.0183 0.0528256 3.82428e-21)
(1.06233 0.118349 2.97186e-20)
(0.912228 0.116569 1.95377e-20)
(0.819025 0.10771 9.60885e-20)
(0.957253 0.0337686 1.80387e-20)
(1.03827 0.0497827 -2.93428e-20)
(1.03152 0.122795 3.94782e-20)
(0.948983 0.15547 7.23871e-20)
(0.804565 0.205156 -1.21208e-19)
(0.873763 0.0333582 0)
(0.751983 0.0303746 1.1289e-20)
(0.546387 0.0188946 2.10701e-21)
(0.451303 -0.00812658 4.09224e-20)
(0.647848 -0.0403314 -1.31324e-19)
(0.963433 0.0638406 -6.00967e-20)
(1.02935 0.0889471 -1.351e-20)
(0.935086 0.0589842 -3.67909e-20)
(0.851403 -0.00681155 -1.06736e-19)
(0.969737 -0.151984 -1.38606e-19)
(0.885249 -0.0573023 -2.81491e-20)
(0.962394 -0.0246616 4.60861e-19)
(1.03627 0.0393932 2.77705e-19)
(0.909793 0.04995 3.21951e-20)
(0.700628 0.0254681 0)
(1.21725 -0.280447 2.76571e-19)
(1.32239 -0.25158 1.29985e-18)
(1.48197 -0.139876 -1.42547e-18)
(1.5736 -0.0170213 -4.35029e-19)
(1.46328 0.0249228 3.35737e-19)
)
;

boundaryField
{
    left
    {
        type            fixedValue;
        value           uniform (1 0 0);
    }
    right
    {
        type            zeroGradient;
    }
    down
    {
        type            noSlip;
    }
    up
    {
        type            noSlip;
    }
    cylinder
    {
        type            noSlip;
    }
    defaultFaces
    {
        type            empty;
    }
}


// ************************************************************************* //
