/*--------------------------------*- C++ -*----------------------------------*\
  =========                 |
  \\      /  F ield         | OpenFOAM: The Open Source CFD Toolbox
   \\    /   O peration     | Website:  https://openfoam.org
    \\  /    A nd           | Version:  13
     \\/     M anipulation  |
\*---------------------------------------------------------------------------*/
FoamFile
{
    format      ascii;
    class       volScalarField;
    location    "0.23";
    object      p;
}
// * * * * * * * * * * * * * * * * * * * * * * * * * * * * * * * * * * * * * //

dimensions      [0 2 -2 0 0 0 0];

internalField   nonuniform List<scalar> 
1800
(
5.95947
8.06644
10.2189
11.6468
12.4805
12.8904
13.0206
12.8624
11.6155
7.52403
9.81126
12.2869
14.7916
16.4753
17.5314
18.1937
18.6479
18.8865
18.1615
15.4841
16.2053
18.83
21.5026
23.3658
24.6258
25.5074
26.1579
26.541
26.0696
24.2391
25.2018
27.7713
30.4197
32.3342
33.6995
34.7085
35.4709
35.9227
35.5165
33.8323
36.2616
38.6226
41.0749
42.8866
44.211
45.2072
45.9617
46.411
46.0608
44.5056
48.9396
50.9923
53.136
54.7424
55.9335
56.8358
57.5181
57.9286
57.6475
56.2884
62.8891
64.562
66.3179
67.65
68.6521
69.4218
70.0132
70.3902
70.2151
69.1265
77.816
79.0577
80.369
81.3784
82.1544
82.7683
83.2624
83.6172
83.5838
82.8473
93.4354
94.2153
95.0469
95.7019
96.2248
96.6623
97.045
97.3683
97.4785
97.1439
109.466
109.771
110.103
110.377
110.615
110.836
111.053
111.266
111.427
111.454
-0.34642
-0.597597
-0.373839
0.0335395
0.499186
0.963198
1.31593
1.51815
1.65895
1.80479
-0.253438
-0.764141
-0.870064
-0.665888
-0.244066
0.172223
0.451353
0.685061
0.963762
1.23711
0.738297
-0.237359
-1.07746
-1.24008
-0.908234
-0.610502
-0.408667
-0.108308
0.298044
0.682515
1.11394
-0.0396967
-1.2495
-1.5796
-1.35015
-1.20043
-1.08156
-0.778535
-0.323117
0.183042
0.667738
-0.30982
-1.25677
-1.54017
-1.47566
-1.48582
-1.44926
-1.18624
-0.695241
-0.002103
-0.0397396
-0.561216
-0.964584
-1.09025
-1.10588
-1.16751
-1.15611
-0.944921
-0.419852
0.511786
-0.369769
-0.333349
-0.158007
-0.010449
0.0772163
0.101175
0.142933
0.315076
0.893756
2.12354
0.122561
0.708729
1.42918
1.93401
2.26488
2.47989
2.63119
2.84947
3.58121
5.24365
1.57806
2.686
3.93403
4.85532
5.52549
6.01821
6.35878
6.69865
7.68625
9.97412
3.82572
5.46851
7.28627
8.66173
9.68398
10.4437
10.9655
11.4182
12.4793
14.6426
2.51808
2.65994
2.57201
2.34788
1.85983
1.43335
1.08205
0.776756
0.474117
0.162128
2.14594
2.61276
2.44211
2.23848
1.76047
1.36066
1.03766
0.749918
0.458739
0.156572
1.65281
2.56815
2.32045
2.12135
1.66257
1.28973
0.995699
0.725231
0.444986
0.151839
1.02445
2.48274
2.21101
1.99865
1.56597
1.22116
0.956347
0.702845
0.432915
0.147867
0.336354
2.31418
2.10339
1.87201
1.47074
1.1556
0.919519
0.682849
0.422557
0.144631
-0.226251
2.04794
1.97771
1.74036
1.37661
1.09354
0.885339
0.66537
0.413969
0.142136
-0.365937
1.7132
1.81648
1.59928
1.28234
1.03537
0.854215
0.650577
0.407223
0.140402
0.369895
1.39606
1.60668
1.43639
1.18274
0.98038
0.826707
0.638711
0.402411
0.139525
2.63018
1.26891
1.32499
1.22265
1.06437
0.925406
0.80306
0.630053
0.399657
0.139593
6.86775
1.64642
0.98681
0.933156
0.911133
0.865443
0.782794
0.624602
0.398973
0.140723
10.2147
2.85436
1.01298
0.738716
0.755421
0.795231
0.758486
0.616459
0.397202
0.14272
12.0201
2.85656
0.55779
0.322184
0.544229
0.728658
0.748075
0.615314
0.396221
0.142338
13.1069
3.01218
0.588488
0.298476
0.574478
0.765157
0.755952
0.60596
0.386143
0.133199
14.3938
4.54188
1.4099
0.828667
0.887929
0.901402
0.778508
0.590756
0.371151
0.120387
16.5593
7.28365
2.85445
1.74047
1.39374
1.11866
0.827588
0.579669
0.351672
0.105127
19.4654
10.0885
4.54999
2.77891
1.98796
1.3905
0.904023
0.578755
0.334087
0.0912162
21.9854
12.1799
6.11138
3.79081
2.60179
1.69344
1.00681
0.592805
0.322767
0.0808102
23.2684
13.3719
7.32521
4.716
3.20006
2.00491
1.12875
0.62272
0.32074
0.0755604
23.2073
13.7505
8.18853
5.57014
3.794
2.3293
1.27357
0.673326
0.332157
0.0769489
22.6537
13.974
8.95729
6.42583
4.40959
2.68626
1.45727
0.758884
0.369107
0.0880296
112.01
98.0637
84.2985
71.2931
59.3538
48.5735
38.9916
30.3137
20.3005
5.19394
112.99
99.7017
86.2003
73.194
61.1518
50.2724
40.7414
32.4858
23.8226
11.7077
113.522
100.436
87.5541
75.2271
63.6884
53.0972
43.6691
35.4837
27.701
18.5677
114.734
102.993
91.0328
79.2
67.841
57.2435
47.6088
39.008
31.3013
24.0382
115.311
104.3
93.3791
82.6878
72.34
62.414
52.9486
44.0338
36.2107
30.0276
115.66
104.933
94.4266
84.2651
74.545
65.3161
56.5572
48.3155
41.2725
36.2527
115.891
105.332
95.0212
85.0892
75.6468
66.767
58.4591
50.7927
44.4401
40.322
115.992
105.47
95.2042
85.3329
75.9791
67.2336
59.1305
51.738
45.6226
41.6649
115.941
105.256
94.8298
84.8108
75.3319
66.4997
58.3702
51.0015
44.7787
40.3274
115.818
104.871
94.1839
83.9065
74.1813
65.1315
56.8373
49.3433
42.8354
37.6418
234.378
230.028
228.471
228.037
227.95
228.205
228.94
230.323
232.475
234.615
225.807
222.798
221.757
221.723
221.952
222.44
223.372
224.981
227.453
229.93
216.288
214.121
213.354
213.482
213.916
214.621
215.747
217.518
220.133
222.731
205.978
203.957
203.256
203.454
204
204.83
206.055
207.864
210.434
212.953
194.652
192.747
192.094
192.283
192.816
193.629
194.807
196.501
198.856
201.147
182.282
180.561
179.969
180.111
180.565
181.277
182.313
183.791
185.821
187.786
168.935
167.474
166.981
167.084
167.441
168.014
168.854
170.047
171.675
173.246
154.799
153.684
153.329
153.407
153.663
154.076
154.683
155.546
156.716
157.844
140.189
139.475
139.269
139.318
139.464
139.699
140.049
140.551
141.233
141.889
125.662
125.319
125.179
125.132
125.119
125.142
125.208
125.328
125.505
125.681
246.637
246.866
247.106
247.316
247.61
248.095
248.625
248.956
248.979
248.491
246.779
247.102
247.492
247.785
247.974
248.294
248.7
248.624
247.845
246.845
246.856
247.246
247.683
247.987
248.065
248.191
248.467
248.109
246.73
245.47
246.782
247.281
247.708
247.941
247.879
247.775
247.822
247.402
246.091
244.913
246.31
246.966
247.362
247.479
247.317
247.057
246.898
246.546
245.722
244.91
245.103
245.952
246.304
246.288
246.078
245.812
245.632
245.469
245.222
244.923
242.752
243.858
244.214
244.121
243.931
243.783
243.761
243.899
244.205
244.44
238.863
240.359
240.846
240.799
240.732
240.795
241.041
241.541
242.356
243.094
233.386
235.451
236.175
236.257
236.393
236.747
237.34
238.248
239.555
240.768
228.025
229.902
230.66
230.837
231.151
231.773
232.717
234.07
235.919
237.628
247.28
247.027
247.003
246.764
246.594
246.358
246.01
245.766
245.685
245.822
247.243
247.023
246.995
246.762
246.594
246.373
246.049
245.796
245.555
245.906
247.216
247.018
246.987
246.756
246.59
246.39
246.088
245.797
245.382
246.052
247.196
247.011
246.978
246.747
246.585
246.406
246.118
245.757
245.21
246.281
247.184
247.004
246.968
246.734
246.577
246.416
246.13
245.684
245.096
246.532
247.179
246.996
246.958
246.719
246.567
246.418
246.123
245.603
245.067
246.631
247.18
246.988
246.947
246.701
246.556
246.409
246.099
245.54
245.094
246.28
247.189
246.98
246.936
246.683
246.542
246.392
246.076
245.515
245.09
245.027
247.204
246.97
246.923
246.663
246.527
246.382
246.091
245.556
244.89
242.241
247.225
246.959
246.907
246.643
246.514
246.396
246.175
245.65
244.193
237.518
247.263
246.949
246.882
246.615
246.475
246.337
246.049
245.254
242.603
233.922
247.373
246.943
246.866
246.594
246.452
246.414
246.295
245.479
242.334
231.961
247.618
246.96
246.86
246.552
246.387
246.416
246.387
245.485
242.106
230.728
248.099
247.035
246.864
246.501
246.248
246.158
245.977
244.855
240.775
229.564
248.98
247.142
246.898
246.4
246.029
245.627
245.048
243.52
238.301
227.722
250.782
247.227
246.985
246.305
245.748
244.944
243.879
241.78
235.602
225.142
254.646
247.494
247.105
246.223
245.417
244.227
242.729
240.105
233.482
222.777
262.942
248.608
247.338
246.151
245.067
243.546
241.706
238.787
232.219
221.508
280.508
251.329
247.946
246.158
244.732
242.91
240.797
237.848
231.771
221.537
306.485
255.374
249.421
246.342
244.456
242.307
239.925
237.039
231.501
222.065
236.648
221.29
210.666
201.352
191.192
179.889
167.496
154.124
140.079
125.948
230.236
217.934
208.786
200.071
190.14
178.905
166.562
153.313
139.59
126.115
223.707
214.341
206.169
197.648
187.938
177.099
165.346
152.846
139.826
126.647
218.628
211.12
203.129
194.279
184.432
173.662
162.165
150.217
138.151
126.315
213.241
206.84
198.838
189.735
180.06
169.919
159.367
148.5
137.445
126.353
207.607
202.305
195.043
186.573
177.576
168.123
158.205
147.884
137.265
126.479
203.789
199.353
192.768
184.875
176.345
167.262
157.644
147.57
137.161
126.551
202.504
198.253
191.912
184.303
175.994
167.06
157.543
147.541
137.184
126.615
203.831
199.122
192.677
185.096
176.767
167.755
158.119
147.975
137.461
126.73
206.505
201.075
194.344
186.637
178.145
168.916
159.036
148.634
137.859
126.867
112.378
112.548
112.632
112.483
111.976
111.616
111.431
111.715
111.708
111.459
89.8104
90.2734
90.4918
90.0582
88.6265
87.5404
86.9196
87.5811
87.6188
87.0325
68.9745
69.6017
69.8626
69.1958
67.2569
65.5456
64.5257
65.0742
65.3787
64.8239
50.8635
51.4693
51.6584
50.8352
48.8565
46.691
45.3614
45.3968
46.1352
45.9022
36.2243
36.6319
36.6816
35.8
34.0085
31.6932
30.05
29.4849
30.2924
30.4804
25.1773
25.28
25.1573
24.2337
22.6562
20.6276
18.8376
17.8963
18.1509
18.651
17.2955
17.1443
16.9287
15.9373
14.5225
13.0199
11.5339
10.4694
10.129
10.4948
11.8121
11.6341
11.5845
10.5846
9.26562
8.26473
7.37542
6.53387
5.94454
5.85918
8.13977
8.05035
8.34429
7.47588
6.3106
5.72189
5.39599
5.01356
4.5292
4.1473
6.26825
6.06305
6.44619
5.70823
4.84068
4.56764
4.59498
4.58769
4.43519
4.03736
5.49587
5.25894
5.33999
4.64683
4.11784
4.06591
4.21952
4.36402
4.48498
4.54017
5.0654
4.95486
4.6755
4.011
3.72954
3.82142
4.02806
4.19674
4.316
4.40115
4.68754
4.64018
4.20452
3.6554
3.53944
3.70614
3.93304
4.11215
4.22959
4.28917
4.23512
4.17658
3.76737
3.41813
3.43033
3.63499
3.84795
4.00496
4.10314
4.14407
3.68948
3.5927
3.32102
3.20422
3.32148
3.53652
3.72506
3.86181
3.94274
3.96645
3.04463
2.94968
2.89279
2.98446
3.18005
3.38237
3.54663
3.66516
3.73197
3.74589
2.33504
2.35153
2.48439
2.71552
2.94925
3.14715
3.30232
3.41647
3.48386
3.50057
1.67806
1.7928
2.03625
2.32301
2.57673
2.79097
2.96805
3.1088
3.19834
3.22772
1.01498
1.14498
1.40971
1.73021
2.0356
2.30624
2.54513
2.73178
2.83714
2.87485
0.346853
0.260011
0.487849
0.889465
1.30211
1.68171
2.00542
2.21817
2.31823
2.38012
3.88412
3.93376
3.80933
3.47585
2.81623
2.12033
1.5236
1.02136
0.578533
0.19291
3.95457
3.90149
3.75863
3.45943
2.77377
2.06101
1.47498
0.992119
0.566045
0.19349
3.978
3.79325
3.64574
3.40536
2.72705
2.00392
1.42867
0.965129
0.555224
0.193339
3.93738
3.62124
3.49337
3.30356
2.66773
1.94759
1.38445
0.940139
0.545718
0.191961
3.8325
3.42275
3.33008
3.15287
2.58495
1.88832
1.34156
0.916614
0.537019
0.189438
3.67759
3.23748
3.17978
2.97669
2.47407
1.82339
1.29985
0.894513
0.528959
0.186055
3.49552
3.08136
3.0487
2.80825
2.34064
1.75105
1.25887
0.873677
0.521313
0.182128
3.2971
2.94951
2.9318
2.66733
2.20179
1.67134
1.21758
0.853963
0.514313
0.178411
3.07476
2.83298
2.81861
2.5524
2.07454
1.58827
1.17345
0.831423
0.504715
0.174058
2.81787
2.73329
2.6996
2.45026
1.96263
1.50846
1.12763
0.804632
0.490214
0.168239
5.6468
4.20206
3.50831
3.13079
2.64628
2.10596
1.56351
1.05574
0.592815
0.190303
4.84342
3.98298
3.54549
3.19125
2.68632
2.11822
1.56166
1.05082
0.589638
0.189351
4.17353
3.89278
3.60699
3.25965
2.72432
2.12812
1.55946
1.04707
0.587813
0.189496
3.85361
3.89471
3.69285
3.3387
2.7636
2.13646
1.5565
1.04389
0.587026
0.190417
3.83854
3.93911
3.7959
3.43014
2.80708
2.14347
1.55148
1.03993
0.586546
0.192129
112.208
89.1487
68.1046
50.3394
36.3303
26.0148
18.8484
13.9752
10.7939
8.97955
111.987
88.5865
67.3985
49.6051
35.528
25.0104
17.5446
12.442
9.30028
7.79983
111.801
88.1063
66.7604
48.8645
34.6168
23.8377
16.1244
10.9075
7.7641
6.3056
111.591
87.5326
65.9201
47.7999
33.2923
22.2437
14.3529
9.12277
6.03822
4.66243
111.337
86.8047
64.791
46.327
31.4924
20.1761
12.1837
7.15003
4.6693
3.85475
243.907
243.943
244.061
244.232
244.447
244.46
243.96
243.262
243.36
243.134
244.123
244.193
244.305
244.494
244.765
244.942
244.728
244.081
243.818
243.706
244.323
244.37
244.481
244.676
244.959
245.22
245.195
244.691
244.257
244.201
244.564
244.596
244.692
244.863
245.115
245.399
245.502
245.235
244.847
244.773
244.828
244.845
244.925
245.07
245.278
245.535
245.734
245.737
245.573
245.478
245.1
245.112
245.179
245.298
245.468
245.692
245.956
246.191
246.292
246.278
245.348
245.367
245.447
245.581
245.756
245.985
246.279
246.625
246.913
247.03
245.61
245.63
245.728
245.916
246.166
246.462
246.814
247.209
247.553
247.723
245.969
246.002
246.084
246.306
246.666
247.103
247.59
248.085
248.408
248.371
246.362
246.468
246.57
246.763
247.156
247.706
248.282
248.811
249.146
248.943
136.683
136.424
136.401
136.664
136.446
136.048
135.507
135.335
135.407
135.571
161.126
160.529
160.551
161.188
160.536
159.414
157.95
157.494
157.699
158.157
183.363
182.797
183.085
183.607
182.557
180.812
178.844
178.155
178.403
179.026
202.323
202.078
202.796
202.806
201.448
199.252
197.245
196.401
196.578
197.18
217.789
217.964
218.748
218.16
216.492
214.148
212.328
211.425
211.463
211.867
229.665
230.146
230.375
229.415
227.608
225.553
223.944
222.997
222.863
222.963
237.861
238.196
237.831
236.757
235.266
233.74
232.29
231.273
231.046
230.892
242.512
242.39
241.778
240.944
240.068
239.052
237.701
236.675
236.612
236.432
244.233
243.811
243.316
242.958
242.663
242.081
240.894
239.999
240.28
240.192
244.371
243.942
243.788
243.809
243.884
243.645
242.776
242.016
242.396
242.205
255.091
247.162
247.799
246.58
246.295
245.775
245.19
244.797
244.66
244.69
252.264
247.101
247.615
246.573
246.345
245.833
245.209
244.836
244.743
244.664
250.352
247.111
247.4
246.582
246.398
245.894
245.255
244.938
244.912
244.698
249.194
247.135
247.197
246.61
246.45
245.961
245.34
245.095
245.133
244.801
248.514
247.128
247.076
246.652
246.498
246.036
245.471
245.278
245.356
244.961
248.062
247.079
247.041
246.693
246.538
246.121
245.63
245.442
245.537
245.147
247.752
247.039
247.031
246.722
246.562
246.208
245.778
245.563
245.662
245.329
247.548
247.026
247.023
246.742
246.57
246.282
245.882
245.639
245.737
245.495
247.418
247.027
247.017
246.753
246.579
246.324
245.942
245.687
245.769
245.639
247.335
247.028
247.01
246.76
246.589
246.344
245.977
245.726
245.754
245.746
317.598
254.035
250.185
247.204
246.415
245.846
245.46
245.106
244.399
242.87
295.867
251.647
249.071
246.983
246.33
245.811
245.412
245.072
244.608
243.671
277.424
249.491
248.482
246.82
246.287
245.787
245.359
245.011
244.688
244.343
266.018
248.148
248.163
246.703
246.266
245.77
245.297
244.926
244.677
244.671
259.246
247.421
247.942
246.607
246.259
245.754
245.225
244.821
244.629
244.703
239.445
237.594
234.379
229.474
222.275
211.925
197.88
180.082
159.013
135.939
240.626
239.09
235.916
230.782
223.284
212.731
198.617
180.79
159.576
136.16
242.139
240.641
237.46
232.21
224.462
213.647
199.361
181.43
160.057
136.347
243.803
242.396
239.268
233.996
226.064
214.976
200.428
182.271
160.631
136.556
244.588
243.753
241.252
236.183
228.143
216.78
201.902
183.401
161.358
136.809
)
;

boundaryField
{
    left
    {
        type            zeroGradient;
    }
    right
    {
        type            fixedValue;
        value           uniform 0;
    }
    down
    {
        type            zeroGradient;
    }
    up
    {
        type            zeroGradient;
    }
    cylinder
    {
        type            zeroGradient;
    }
    defaultFaces
    {
        type            empty;
    }
}


// ************************************************************************* //
