/*--------------------------------*- C++ -*----------------------------------*\
  =========                 |
  \\      /  F ield         | OpenFOAM: The Open Source CFD Toolbox
   \\    /   O peration     | Website:  https://openfoam.org
    \\  /    A nd           | Version:  13
     \\/     M anipulation  |
\*---------------------------------------------------------------------------*/
FoamFile
{
    format      ascii;
    class       volVectorField;
    location    "0.23";
    object      U;
}
// * * * * * * * * * * * * * * * * * * * * * * * * * * * * * * * * * * * * * //

dimensions      [0 1 -1 0 0 0 0];

internalField   nonuniform List<vector> 
1800
(
(0.0978079 -0.0883352 -4.4937e-20)
(0.28691 -0.241968 -3.41472e-20)
(0.47399 -0.379069 -4.84971e-19)
(0.657707 -0.500185 1.91377e-19)
(0.83662 -0.607196 7.40347e-20)
(1.00991 -0.701395 -3.92412e-20)
(1.17714 -0.783472 5.56108e-20)
(1.3379 -0.853659 1.97567e-19)
(1.49153 -0.912908 5.92311e-19)
(1.63343 -0.966801 8.09923e-19)
(0.119067 -0.0915073 -7.91262e-20)
(0.344304 -0.247721 -7.70561e-19)
(0.563298 -0.384766 3.78097e-21)
(0.77538 -0.504255 1.25875e-19)
(0.979518 -0.608939 -1.26322e-19)
(1.17522 -0.700707 7.63679e-20)
(1.36231 -0.780789 -2.80744e-19)
(1.54076 -0.850081 -5.03519e-20)
(1.71006 -0.910662 -6.93504e-19)
(1.86778 -0.966966 6.29543e-19)
(0.141656 -0.0923265 4.88225e-20)
(0.403692 -0.24774 2.09283e-19)
(0.653771 -0.382129 5.43348e-19)
(0.892195 -0.497919 -1.90265e-19)
(1.11867 -0.598398 -1.42879e-19)
(1.33322 -0.685821 7.55967e-20)
(1.53606 -0.761707 9.82223e-20)
(1.72742 -0.827285 1.94132e-19)
(1.90718 -0.884771 2.73586e-21)
(2.07417 -0.937812 1.51042e-19)
(0.163912 -0.0897237 -4.57196e-20)
(0.461711 -0.239477 -2.04393e-19)
(0.741445 -0.367628 -1.81261e-19)
(1.00453 -0.476988 -1.42321e-19)
(1.25164 -0.571032 1.8132e-19)
(1.48353 -0.652134 -5.71018e-20)
(1.70094 -0.721907 -4.31009e-21)
(1.90454 -0.781614 2.9068e-21)
(2.09455 -0.833345 -1.60405e-19)
(2.27024 -0.880317 -1.06111e-19)
(0.184663 -0.0833589 -1.14052e-19)
(0.515907 -0.221813 8.76333e-20)
(0.823311 -0.339439 1.7986e-19)
(1.10933 -0.439072 2.43333e-19)
(1.37564 -0.52408 -2.85032e-19)
(1.62373 -0.596783 -3.5814e-21)
(1.85496 -0.658768 4.25006e-19)
(2.07045 -0.711257 -1.85086e-19)
(2.27085 -0.75615 -1.24007e-19)
(2.45578 -0.79637 -5.36892e-20)
(0.203196 -0.0735022 1.73605e-19)
(0.564486 -0.195205 1.02992e-18)
(0.896813 -0.298081 1.43258e-19)
(1.20354 -0.384742 -5.03181e-19)
(1.48722 -0.458233 -1.75515e-19)
(1.75006 -0.520673 6.37741e-19)
(1.99394 -0.573526 -1.45378e-19)
(2.22039 -0.617896 -4.31621e-19)
(2.4305 -0.655435 -3.16614e-19)
(2.62422 -0.688724 2.61615e-19)
(0.218905 -0.0605931 1.16351e-19)
(0.605762 -0.160705 -7.47657e-19)
(0.959339 -0.245035 -1.0857e-18)
(1.28374 -0.315803 3.83819e-19)
(1.58227 -0.375568 4.49981e-19)
(1.85772 -0.426131 -9.02115e-22)
(2.11243 -0.468739 -6.39709e-19)
(2.34833 -0.504322 2.19332e-19)
(2.56687 -0.534205 -3.64407e-19)
(2.76832 -0.560556 -3.11119e-19)
(0.231243 -0.0451737 -3.42516e-19)
(0.63822 -0.119687 -6.92649e-19)
(1.00852 -0.182297 1.21233e-18)
(1.34681 -0.234703 5.9875e-19)
(1.65698 -0.278854 -2.69778e-19)
(1.94229 -0.316136 -2.11511e-19)
(2.20548 -0.347513 0)
(2.4488 -0.373684 1.16796e-19)
(2.67404 -0.395614 -2.95863e-19)
(2.88177 -0.414958 -7.74673e-20)
(0.239775 -0.0278763 -2.04484e-19)
(0.660675 -0.0737573 5.62469e-19)
(1.04252 -0.1122 1.71046e-19)
(1.39035 -0.14429 -5.12544e-19)
(1.70846 -0.171276 -7.84257e-19)
(2.00043 -0.194051 3.6618e-20)
(2.2693 -0.213241 1.67173e-19)
(2.51759 -0.229287 -5.4685e-19)
(2.74738 -0.242776 -2.89835e-19)
(2.9596 -0.254767 -5.63688e-19)
(0.24427 -0.00940266 4.5146e-19)
(0.672478 -0.0247038 3.44209e-19)
(1.06034 -0.0373604 -9.38658e-20)
(1.41308 -0.0477859 -1.2973e-20)
(1.7352 -0.0564583 -3.87547e-19)
(2.03047 -0.0637178 -8.58306e-20)
(2.30212 -0.0698037 -2.90533e-19)
(2.55282 -0.0748831 6.46676e-19)
(2.78487 -0.0791633 1.70989e-19)
(2.99952 -0.083004 2.32435e-21)
(-0.00240465 -0.0216666 -2.85956e-20)
(0.0085442 -0.0687979 -7.16365e-20)
(0.0247029 -0.119723 -7.34065e-21)
(0.0491826 -0.170657 -3.51567e-20)
(0.0775562 -0.216172 -1.27e-20)
(0.106267 -0.254163 -3.86048e-19)
(0.135136 -0.287915 -1.58047e-20)
(0.165857 -0.321176 1.13625e-19)
(0.198671 -0.354692 1.14043e-20)
(0.232529 -0.38702 -3.75108e-20)
(0.000798169 -0.0244023 -9.657e-20)
(0.0148337 -0.0843809 -2.10087e-19)
(0.0393684 -0.159825 -5.68476e-20)
(0.0694274 -0.224808 -1.10024e-19)
(0.0995918 -0.274896 -9.87807e-20)
(0.130451 -0.317124 -2.7228e-19)
(0.164474 -0.35809 1.9193e-19)
(0.202222 -0.399559 1.6362e-19)
(0.241773 -0.43948 -2.57189e-19)
(0.281275 -0.475772 8.12078e-20)
(0.00544896 -0.0312406 -8.63214e-20)
(0.0287313 -0.106981 -8.76102e-19)
(0.0630186 -0.195846 -1.29622e-19)
(0.0976373 -0.268526 9.76468e-20)
(0.131946 -0.326517 6.72088e-20)
(0.169819 -0.379514 -4.31501e-19)
(0.213251 -0.431602 3.10893e-20)
(0.259536 -0.481111 3.64552e-19)
(0.305892 -0.525481 -3.84749e-19)
(0.351844 -0.564755 -2.57012e-19)
(0.0113388 -0.0408319 -2.36841e-21)
(0.0466378 -0.130673 1.91947e-19)
(0.0897713 -0.225162 1.92916e-21)
(0.133216 -0.306706 -1.19117e-20)
(0.177947 -0.377404 -2.93327e-20)
(0.227499 -0.443359 8.39248e-20)
(0.281449 -0.505108 7.13336e-20)
(0.336038 -0.560295 -1.35104e-19)
(0.390097 -0.608672 9.16369e-21)
(0.444285 -0.651135 -1.03847e-20)
(0.0184958 -0.0507083 0)
(0.067265 -0.152356 5.62931e-21)
(0.122027 -0.253566 -5.09298e-19)
(0.178805 -0.345332 4.81285e-20)
(0.237952 -0.428349 -1.3732e-20)
(0.300713 -0.504797 6.08394e-21)
(0.365535 -0.574005 -2.56389e-20)
(0.430035 -0.634973 -7.39934e-21)
(0.494185 -0.688296 0)
(0.558396 -0.734221 -2.04983e-20)
(0.0273267 -0.0596393 3.20307e-20)
(0.0919255 -0.172858 -1.55398e-19)
(0.161829 -0.282534 -4.54865e-20)
(0.234708 -0.383868 -5.87963e-20)
(0.309829 -0.476677 4.97453e-20)
(0.386843 -0.561393 3.69491e-21)
(0.464352 -0.637483 9.2811e-20)
(0.54105 -0.704649 -2.19154e-20)
(0.617026 -0.763074 -6.96247e-19)
(0.692275 -0.812197 -1.00723e-20)
(0.0379847 -0.067616 6.55693e-22)
(0.121268 -0.192213 5.55162e-20)
(0.209211 -0.310666 -7.90623e-20)
(0.299979 -0.420216 -1.68198e-20)
(0.392187 -0.520678 -7.28098e-20)
(0.484823 -0.61209 -1.09854e-20)
(0.576738 -0.694228 8.75341e-21)
(0.666968 -0.766981 -2.12751e-19)
(0.755541 -0.830031 3.83734e-19)
(0.842311 -0.882009 9.71606e-19)
(0.0503741 -0.0746175 1.52698e-20)
(0.155158 -0.209652 -1.42431e-19)
(0.263498 -0.336022 -2.14538e-19)
(0.373704 -0.452169 8.93433e-20)
(0.484128 -0.558309 -6.4385e-20)
(0.593555 -0.65463 9.99364e-20)
(0.700937 -0.741248 1.98168e-19)
(0.805382 -0.818219 -1.09736e-19)
(0.90697 -0.884971 -3.0622e-19)
(1.00561 -0.939317 7.25694e-19)
(0.0643017 -0.0803739 -2.6324e-20)
(0.193309 -0.224062 -5.77953e-19)
(0.324323 -0.356609 5.24271e-19)
(0.455705 -0.477284 3.37597e-19)
(0.585749 -0.586792 -8.58963e-20)
(0.713218 -0.68569 3.09161e-19)
(0.837104 -0.774435 -1.60121e-19)
(0.956514 -0.853421 -7.74057e-19)
(1.07165 -0.921949 -4.03978e-19)
(1.18256 -0.977135 4.53961e-19)
(0.0795542 -0.0846759 -7.98535e-20)
(0.235863 -0.234442 -5.4418e-19)
(0.392412 -0.37056 -8.03758e-21)
(0.547557 -0.492835 6.85233e-20)
(0.6996 -0.6025 3.37753e-19)
(0.847384 -0.700459 -1.85249e-19)
(0.989987 -0.787447 -1.69407e-19)
(1.12648 -0.863804 1.89035e-19)
(1.25673 -0.928587 -3.51712e-19)
(1.37996 -0.980245 -5.84858e-19)
(0.402175 -0.530646 1.0539e-18)
(0.682954 -0.615066 -4.12968e-19)
(0.909207 -0.551223 -1.86024e-19)
(1.07684 -0.422652 3.34029e-19)
(1.21847 -0.270629 -2.61234e-19)
(1.31978 -0.134633 -2.7389e-19)
(1.37918 -0.0595307 -2.55428e-19)
(1.40836 -0.0310063 -4.04271e-20)
(1.42693 -0.0200763 2.36624e-19)
(1.44086 -0.00873876 4.23562e-20)
(0.46896 -0.61834 1.02035e-18)
(0.740897 -0.690031 1.10489e-19)
(0.963692 -0.610072 1.02959e-20)
(1.11678 -0.469359 -2.86339e-19)
(1.24587 -0.306101 -9.28904e-19)
(1.33681 -0.157404 0)
(1.38717 -0.071575 -2.3889e-19)
(1.41268 -0.0378849 7.36867e-20)
(1.4296 -0.0242311 6.01599e-21)
(1.44211 -0.0104585 -7.07882e-20)
(0.556704 -0.703974 -1.00898e-18)
(0.811058 -0.76278 -8.34212e-20)
(1.02447 -0.667158 1.78341e-19)
(1.16103 -0.514094 -5.05796e-20)
(1.27469 -0.339925 -3.28345e-20)
(1.35383 -0.178505 6.87626e-20)
(1.39521 -0.0827091 0)
(1.41748 -0.0443029 0)
(1.43274 -0.0281014 -7.98769e-20)
(1.44384 -0.0120215 0)
(0.666217 -0.785851 -2.24257e-19)
(0.896188 -0.83137 3.97159e-19)
(1.09176 -0.721507 2.61281e-20)
(1.20964 -0.556208 0)
(1.30506 -0.371759 7.43303e-19)
(1.37121 -0.198013 -1.7916e-19)
(1.40374 -0.0929477 0)
(1.42281 -0.0501645 1.83759e-19)
(1.43635 -0.0315783 0)
(1.44603 -0.0133957 2.10218e-20)
(0.796083 -0.862747 -1.48198e-19)
(0.99809 -0.893765 4.31106e-19)
(1.16622 -0.771926 -1.45961e-20)
(1.26244 -0.595072 0)
(1.33689 -0.401267 2.00057e-19)
(1.38894 -0.215965 3.30056e-19)
(1.4128 -0.102341 5.80139e-20)
(1.42859 -0.0554858 9.94299e-21)
(1.44037 -0.0346528 -4.56711e-20)
(1.44863 -0.0145951 3.58886e-20)
(0.94236 -0.933831 -1.29309e-18)
(1.1166 -0.948518 -8.95795e-19)
(1.24865 -0.817033 4.80084e-21)
(1.31917 -0.629992 5.11921e-19)
(1.36997 -0.428083 -2.92402e-19)
(1.40675 -0.232374 1.63438e-19)
(1.42229 -0.110985 2.66357e-19)
(1.43475 -0.0603062 -2.41412e-19)
(1.44476 -0.0373243 -2.32734e-21)
(1.45161 -0.0156244 -6.26042e-21)
(1.10001 -0.998697 -2.53737e-19)
(1.24974 -0.995362 2.71921e-19)
(1.33953 -0.855571 3.8214e-21)
(1.37976 -0.660167 -1.48525e-20)
(1.40413 -0.45173 -5.086e-19)
(1.42427 -0.247164 5.23124e-20)
(1.43209 -0.11892 -1.03056e-19)
(1.44125 -0.064655 -4.27636e-20)
(1.44946 -0.0395858 2.03715e-20)
(1.45493 -0.0164982 -2.45955e-20)
(1.2641 -1.05623 -1.2084e-18)
(1.39414 -1.03487 1.99272e-19)
(1.43801 -0.886833 0)
(1.44355 -0.684969 2.61182e-20)
(1.43877 -0.471829 4.24343e-19)
(1.44076 -0.260386 -2.30955e-22)
(1.44177 -0.126276 -3.11186e-19)
(1.44801 -0.0685995 6.4389e-20)
(1.45441 -0.04144 -5.21523e-22)
(1.45854 -0.0172339 -1.44426e-22)
(1.43171 -1.10303 3.39565e-18)
(1.54719 -1.06795 2.60715e-19)
(1.54405 -0.911465 4.32627e-19)
(1.51113 -0.704585 -2.67809e-20)
(1.47427 -0.488449 -3.02495e-20)
(1.45618 -0.272241 -3.543e-19)
(1.45118 -0.133034 7.57868e-20)
(1.45504 -0.071962 5.03608e-21)
(1.45959 -0.0427838 -3.78801e-20)
(1.46242 -0.0178064 -4.8228e-20)
(1.59893 -1.12785 -3.00475e-18)
(1.70083 -1.0935 1.29012e-18)
(1.65206 -0.932102 -1.91884e-19)
(1.57881 -0.722324 -6.72603e-19)
(1.50843 -0.504841 -5.52906e-19)
(1.46861 -0.285798 -2.1372e-19)
(1.45836 -0.141763 -5.43331e-20)
(1.46148 -0.0758601 0)
(1.46466 -0.0440148 1.16369e-20)
(1.46639 -0.0183271 4.09434e-21)
(1.8878 -1.16978 -6.75739e-18)
(1.92609 -1.10289 -1.73542e-18)
(1.80247 -0.926039 -6.80589e-21)
(1.66968 -0.713837 1.06691e-19)
(1.55337 -0.501518 1.79427e-19)
(1.48578 -0.289036 -1.08628e-19)
(1.47006 -0.147391 -5.80411e-21)
(1.4711 -0.0793827 1.56962e-20)
(1.46938 -0.0448126 -2.09371e-20)
(1.46575 -0.0186008 1.62485e-20)
(2.28869 -1.13392 4.96779e-19)
(2.17721 -1.05385 -2.24476e-19)
(1.94092 -0.859234 7.19449e-19)
(1.73608 -0.653141 -1.56094e-19)
(1.56895 -0.457267 4.37436e-19)
(1.47746 -0.269111 7.82508e-20)
(1.45661 -0.141237 1.18391e-20)
(1.43625 -0.0726957 -4.64539e-21)
(1.41477 -0.0378251 3.94046e-20)
(1.39668 -0.0166199 4.92405e-20)
(2.61015 -1.04265 2.2666e-18)
(2.35203 -0.946799 3.27049e-19)
(2.01099 -0.755325 -1.22248e-19)
(1.74274 -0.564536 -3.09842e-37)
(1.52898 -0.391203 -2.94269e-20)
(1.39871 -0.237763 1.27682e-33)
(1.34049 -0.128196 -1.4431e-20)
(1.30728 -0.0631568 -2.04542e-33)
(1.28588 -0.0299875 1.05644e-20)
(1.27106 -0.0137727 -3.40003e-20)
(2.78754 -0.893329 3.92148e-33)
(2.37171 -0.794181 2.93331e-18)
(1.97885 -0.6272 1.80039e-18)
(1.66473 -0.462394 0)
(1.42607 -0.319306 9.07866e-19)
(1.26948 -0.199109 4.26793e-19)
(1.1997 -0.109387 1.00242e-19)
(1.16643 -0.0525822 -3.22245e-33)
(1.14654 -0.0236669 -3.05281e-20)
(1.13319 -0.0109938 3.0615e-20)
(2.76449 -0.705454 3.84951e-18)
(2.24783 -0.62885 -1.47632e-19)
(1.8505 -0.488815 0)
(1.52334 -0.357179 0)
(1.285 -0.24532 0)
(1.1255 -0.155729 0)
(1.04652 -0.0883132 -1.14672e-20)
(1.00977 -0.0423122 -4.23824e-33)
(0.99099 -0.0179594 9.89929e-21)
(0.979372 -0.00837551 3.49097e-33)
(2.55163 -0.516856 3.27301e-18)
(2.02107 -0.462501 0)
(1.64068 -0.352603 0)
(1.33138 -0.254228 0)
(1.10996 -0.173027 0)
(0.961098 -0.111009 0)
(0.881287 -0.0651287 3.18543e-20)
(0.843383 -0.0315989 -1.46856e-20)
(0.825889 -0.0128676 9.88804e-21)
(0.815794 -0.00603868 5.12052e-20)
(2.19028 -0.34271 0)
(1.70302 -0.303425 1.11146e-18)
(1.36223 -0.227221 1.11505e-18)
(1.09382 -0.160688 0)
(0.90415 -0.108334 7.1176e-19)
(0.777311 -0.070438 4.09447e-19)
(0.704919 -0.0429143 1.99545e-19)
(0.668477 -0.0212811 3.13728e-20)
(0.652515 -0.00838891 2.91746e-20)
(0.64389 -0.00399009 1.02858e-20)
(1.70287 -0.191166 -6.73477e-19)
(1.30027 -0.165597 -2.73427e-19)
(1.02539 -0.121633 1.74705e-19)
(0.816315 -0.0838292 -2.18704e-34)
(0.671227 -0.055993 -8.01038e-20)
(0.575019 -0.0370969 3.6304e-33)
(0.517266 -0.0236174 4.98332e-20)
(0.486176 -0.0120584 8.97395e-20)
(0.472684 -0.00462256 9.80206e-21)
(0.465697 -0.00226444 -2.09398e-20)
(1.10085 -0.0758377 3.40598e-18)
(0.823119 -0.0626882 -1.85918e-19)
(0.640632 -0.0442665 -5.888e-19)
(0.506641 -0.0287814 0)
(0.41573 -0.0187839 -6.35242e-19)
(0.355816 -0.0128542 -4.08787e-19)
(0.318168 -0.00879687 -1.55799e-19)
(0.296527 -0.00475521 -9.18806e-20)
(0.287017 -0.00182652 7.75683e-20)
(0.282243 -0.000950867 1.22099e-20)
(0.397321 -0.00331953 0)
(0.287819 0.00159078 0)
(0.220863 0.00406976 0)
(0.173679 0.00615962 0)
(0.143078 0.00567444 0)
(0.123077 0.00427121 0)
(0.109698 0.00282678 5.69398e-20)
(0.101254 0.00166762 -1.87222e-34)
(0.0973018 0.000908121 1.13538e-20)
(0.0952563 0.000277712 2.14876e-20)
(3.36717 -0.0863045 5.39024e-19)
(3.32649 -0.265072 -8.41922e-20)
(3.24741 -0.430635 8.52048e-19)
(3.13243 -0.582129 -6.05046e-19)
(2.98636 -0.718084 6.66183e-19)
(2.81523 -0.836322 2.74747e-19)
(2.62657 -0.933973 -1.92975e-18)
(2.42943 -1.00773 -7.67863e-20)
(2.22456 -1.05351 0)
(1.98469 -1.06635 4.28064e-19)
(3.86197 -0.0750552 7.0731e-18)
(3.79864 -0.234186 1.95621e-18)
(3.70431 -0.387268 -4.86623e-18)
(3.58427 -0.531933 -4.48767e-19)
(3.44237 -0.665811 3.55709e-18)
(3.2818 -0.7872 1.92219e-18)
(3.1064 -0.894891 -5.1645e-18)
(2.92188 -0.987448 -1.95013e-18)
(2.72735 -1.06303 2.20091e-18)
(2.49206 -1.12003 8.52321e-19)
(3.83319 -0.0532933 -1.26166e-19)
(3.82035 -0.171539 4.40427e-18)
(3.78558 -0.299725 -1.08888e-18)
(3.72447 -0.430874 -3.44598e-18)
(3.63631 -0.558667 -6.8016e-18)
(3.52381 -0.678703 1.02753e-17)
(3.39122 -0.788636 4.17854e-18)
(3.24349 -0.887743 -3.90792e-18)
(3.0815 -0.978357 -2.89959e-18)
(2.88701 -1.06247 -3.42041e-18)
(3.62873 -0.0472596 -4.83917e-18)
(3.61968 -0.144907 -4.35355e-18)
(3.59972 -0.243714 5.47274e-18)
(3.56746 -0.343058 1.91231e-18)
(3.52256 -0.442322 -8.97468e-18)
(3.46438 -0.540725 4.92736e-19)
(3.39211 -0.636929 3.88773e-18)
(3.30545 -0.730269 -1.05482e-18)
(3.20536 -0.822844 1.27728e-18)
(3.08341 -0.914475 2.81333e-19)
(3.34409 -0.0365532 -9.15945e-19)
(3.33904 -0.11164 3.00397e-18)
(3.32715 -0.18867 1.6194e-18)
(3.3075 -0.267172 -1.89334e-18)
(3.27994 -0.34607 -2.00157e-18)
(3.24477 -0.424125 -2.43609e-18)
(3.20221 -0.500296 3.80109e-19)
(3.15201 -0.574412 1.38467e-19)
(3.09584 -0.647619 -2.14182e-18)
(3.03335 -0.721103 -2.03692e-18)
(2.96259 -0.0265307 -1.82238e-18)
(2.95983 -0.0798743 -5.86956e-20)
(2.95333 -0.134594 -1.63747e-18)
(2.94243 -0.190906 3.12144e-19)
(2.92679 -0.248562 5.36753e-18)
(2.90634 -0.306947 -3.66954e-19)
(2.88099 -0.365134 4.43797e-20)
(2.85033 -0.422072 -2.60893e-18)
(2.81659 -0.476875 -3.49717e-18)
(2.78624 -0.529818 3.71679e-19)
(2.48714 -0.0174917 -2.89072e-20)
(2.48579 -0.0519231 -8.14265e-19)
(2.48261 -0.0872438 -2.61477e-18)
(2.47709 -0.123773 -3.43083e-18)
(2.46881 -0.161542 2.4964e-18)
(2.45746 -0.200281 1.50208e-18)
(2.44264 -0.239372 -1.38486e-18)
(2.42373 -0.277813 1.6242e-18)
(2.40279 -0.314507 -4.30019e-19)
(2.38961 -0.349561 -9.63969e-19)
(1.91464 -0.0096761 7.72426e-19)
(1.91408 -0.0282902 -8.31781e-19)
(1.91278 -0.047437 -3.27685e-20)
(1.91032 -0.0673608 -3.47206e-20)
(1.90624 -0.0881358 -7.27293e-20)
(1.90013 -0.109624 -2.33181e-18)
(1.8915 -0.131417 -6.7857e-19)
(1.87978 -0.152797 2.62559e-18)
(1.86664 -0.172992 -6.0324e-19)
(1.86192 -0.192227 -1.35066e-18)
(1.23988 -0.0037321 -1.64275e-18)
(1.23966 -0.0106924 -8.4888e-19)
(1.23923 -0.0179002 2.33916e-18)
(1.23823 -0.0254796 -8.89756e-19)
(1.23625 -0.0334782 -6.74099e-19)
(1.23289 -0.0418363 1.35194e-18)
(1.22774 -0.0503563 -1.29577e-18)
(1.22036 -0.0586733 1.28681e-18)
(1.212 -0.0663516 -1.21007e-18)
(1.21005 -0.0735185 -4.24687e-18)
(0.454911 -0.000257447 6.63066e-19)
(0.454824 -0.000700226 7.03042e-19)
(0.45469 -0.00115902 7.48173e-19)
(0.454322 -0.00164016 1.35395e-18)
(0.453492 -0.00214046 -6.71964e-19)
(0.451978 -0.00263763 -1.29955e-18)
(0.44956 -0.00309967 6.14664e-19)
(0.445982 -0.00359356 2.48384e-20)
(0.441722 -0.0043928 -4.96546e-20)
(0.440331 -0.00504591 1.10578e-19)
(1.65306 0.996257 -2.84611e-19)
(1.51188 0.941071 1.8054e-20)
(1.3585 0.880162 -2.25556e-19)
(1.19747 0.808028 1.7696e-19)
(1.02945 0.723711 -1.94366e-19)
(0.854758 0.626921 -1.015e-19)
(0.673738 0.516868 2.32223e-19)
(0.487044 0.392129 -3.0567e-19)
(0.295912 0.250654 3.09884e-19)
(0.101445 0.0916568 2.39203e-19)
(1.88598 0.991473 0)
(1.72935 0.934201 6.36336e-19)
(1.5606 0.872382 3.28507e-19)
(1.38212 0.801593 1.64727e-19)
(1.19444 0.719719 4.33975e-19)
(0.997492 0.625817 -8.70539e-20)
(0.791358 0.518575 -7.8758e-20)
(0.576368 0.395997 8.93256e-20)
(0.353347 0.255196 -1.04567e-18)
(0.122716 0.0943693 -1.63555e-20)
(2.09073 0.958553 1.56844e-19)
(1.92499 0.904714 0)
(1.74597 0.846215 -1.00849e-19)
(1.55482 0.779391 -3.8494e-19)
(1.35164 0.701994 5.37755e-20)
(1.13607 0.612753 3.97938e-19)
(0.907794 0.510087 -6.07502e-19)
(0.666618 0.391656 -2.00816e-19)
(0.412628 0.254067 7.8378e-19)
(0.145269 0.0947476 -1.76208e-19)
(2.28464 0.898038 1.89464e-19)
(2.11029 0.850336 1.24245e-20)
(1.92119 0.797709 2.4257e-20)
(1.71805 0.736908 3.6295e-20)
(1.50055 0.66581 -2.89255e-20)
(1.26793 0.58312 2.73605e-19)
(1.01929 0.487178 -2.06973e-19)
(0.753708 0.375551 -8.56035e-19)
(0.470304 0.244698 0)
(0.167405 0.0917065 0)
(2.46784 0.811621 -1.06886e-18)
(2.28427 0.7707 -6.06853e-19)
(2.08488 0.724973 -1.20366e-19)
(1.87001 0.671473 -6.66073e-20)
(1.63891 0.608275 0)
(1.39033 0.534138 2.40891e-19)
(1.12278 0.447448 2.67935e-19)
(0.834593 0.345854 2.86412e-19)
(0.523873 0.22597 -4.23996e-19)
(0.187924 0.0849057 -8.12819e-20)
(2.63394 0.701976 7.64396e-19)
(2.44153 0.667986 -1.39222e-19)
(2.23243 0.629632 -2.21191e-19)
(2.00665 0.584283 0)
(1.76303 0.530274 0)
(1.49991 0.466496 0)
(1.21527 0.391479 -3.90001e-20)
(0.906726 0.303106 3.70309e-19)
(0.571531 0.198362 3.79109e-19)
(0.206098 0.07463 -3.08652e-19)
(2.77579 0.57229 -1.1921e-18)
(2.57551 0.54522 -1.48008e-18)
(2.35789 0.514508 -3.02166e-22)
(2.12264 0.47794 -1.87796e-19)
(1.86822 0.434185 -9.29053e-20)
(1.59262 0.382329 -1.78959e-19)
(1.29337 0.321138 4.59237e-19)
(0.967533 0.24885 2.14861e-19)
(0.611616 0.162977 5.40172e-19)
(0.221329 0.0613444 2.02909e-19)
(2.8871 0.425716 -1.15655e-18)
(2.68031 0.405616 8.47206e-20)
(2.45581 0.382814 1.64502e-19)
(2.21302 0.355613 1.68564e-20)
(1.95009 0.323058 -3.14514e-19)
(1.66471 0.284479 -1.74321e-19)
(1.35403 0.238949 -6.21341e-19)
(1.01468 0.185151 1.18538e-19)
(0.642636 0.121244 5.1502e-20)
(0.233079 0.0456155 -6.26625e-21)
(2.96285 0.265176 1.01236e-19)
(2.75127 0.25235 3.97057e-19)
(2.52195 0.237906 -3.30306e-19)
(2.274 0.220746 3.6314e-19)
(2.0053 0.200305 3.72606e-19)
(1.71328 0.176185 4.91976e-19)
(1.39486 0.147818 -6.35824e-19)
(1.04637 0.114397 -3.24462e-19)
(0.663442 0.0748144 -4.58488e-20)
(0.240929 0.0280967 -3.27051e-19)
(3.00059 0.0935794 5.81733e-19)
(2.78619 0.0887905 -1.86045e-19)
(2.55432 0.0834506 4.79609e-19)
(2.30373 0.0771577 -3.10836e-19)
(2.03214 0.0697355 2.66465e-19)
(1.73685 0.0610688 6.05556e-19)
(1.41462 0.0509842 3.78963e-19)
(1.06166 0.0392387 3.09395e-19)
(0.673425 0.0255088 2.65894e-19)
(0.244665 0.00950783 5.4368e-19)
(0.237569 0.446708 -4.64403e-19)
(0.202238 0.41325 -1.78283e-19)
(0.167002 0.376575 1.3691e-19)
(0.133814 0.339369 -4.17795e-19)
(0.104329 0.303595 -1.20515e-19)
(0.0775082 0.266492 6.84667e-19)
(0.0511504 0.220233 3.3659e-19)
(0.0254017 0.156052 -1.69043e-19)
(0.00687695 0.078312 1.07016e-19)
(-0.00120974 0.0220401 -5.97176e-20)
(0.287917 0.538442 4.03411e-19)
(0.248073 0.50189 4.48375e-19)
(0.207616 0.460161 -1.52751e-20)
(0.16746 0.413643 -1.27116e-19)
(0.130921 0.366105 -2.92263e-19)
(0.100451 0.319031 8.18452e-20)
(0.0732499 0.266148 2.1966e-19)
(0.0455542 0.194274 1.59123e-19)
(0.0179983 0.100009 -5.80963e-19)
(0.00263074 0.028226 -1.22073e-19)
(0.359953 0.627245 -5.91406e-19)
(0.314015 0.587393 -4.74045e-19)
(0.268122 0.541875 2.49869e-19)
(0.221418 0.488993 1.3145e-19)
(0.175867 0.429842 -2.16673e-21)
(0.136319 0.368321 -1.33998e-19)
(0.102126 0.302783 -2.38641e-20)
(0.0683419 0.222763 -5.60038e-19)
(0.0333843 0.124399 -2.71532e-19)
(0.0074637 0.037107 -3.94749e-20)
(0.454903 0.712353 4.96954e-19)
(0.400637 0.668531 1.6416e-19)
(0.346808 0.617927 -1.46224e-19)
(0.292525 0.559357 6.55754e-20)
(0.237915 0.491843 5.79601e-22)
(0.186657 0.417837 2.30025e-21)
(0.14012 0.338329 -1.25124e-19)
(0.0954107 0.248589 3.8723e-19)
(0.051252 0.146563 -4.23385e-19)
(0.0134259 0.0471819 -6.74129e-20)
(0.572544 0.792985 -2.81148e-19)
(0.508314 0.745303 -8.91006e-20)
(0.443935 0.68893 -1.38185e-20)
(0.37921 0.623736 -6.30371e-20)
(0.313845 0.549051 5.48312e-20)
(0.249692 0.465749 4.69519e-20)
(0.188354 0.374986 -2.61401e-20)
(0.129254 0.275449 -2.87122e-19)
(0.072394 0.166853 2.20688e-19)
(0.0207935 0.05651 8.8233e-20)
(0.709594 0.866897 6.4562e-19)
(0.634511 0.815929 3.25787e-19)
(0.558234 0.754252 2.12602e-19)
(0.48091 0.682708 4.77697e-20)
(0.402416 0.601391 1.4649e-19)
(0.323831 0.510723 7.15886e-20)
(0.246404 0.411336 1.37058e-19)
(0.170786 0.30312 5.76489e-20)
(0.0979563 0.18632 -1.89363e-20)
(0.0299133 0.0648528 -1.50834e-20)
(0.861856 0.931651 -1.19318e-19)
(0.775395 0.87785 -8.40279e-19)
(0.686572 0.811684 -9.06488e-20)
(0.595606 0.734906 -3.31837e-20)
(0.502455 0.648141 -1.29915e-20)
(0.408028 0.551618 1.46739e-19)
(0.313395 0.445557 -4.41144e-20)
(0.219638 0.329936 6.59841e-20)
(0.12823 0.204818 -1.44236e-19)
(0.0408584 0.0724126 -8.48899e-22)
(1.02633 0.983563 -8.9077e-19)
(0.928134 0.927528 5.93311e-20)
(0.82638 0.857994 -2.2476e-19)
(0.721241 0.777555 -7.72091e-20)
(0.612598 0.687018 -3.06938e-20)
(0.501333 0.586371 -7.46255e-20)
(0.388441 0.47544 5.70278e-20)
(0.275107 0.353932 6.06457e-20)
(0.162948 0.221433 -9.83225e-21)
(0.0535263 0.0790927 -1.04379e-19)
(1.2034 1.01609 1.24001e-19)
(1.09309 0.959414 5.2895e-19)
(0.977925 0.888519 1.61183e-21)
(0.857971 0.806653 -3.3723e-20)
(0.732963 0.714656 1.54172e-19)
(0.603769 0.612118 -3.51166e-19)
(0.47133 0.498489 -2.4584e-19)
(0.336794 0.373075 3.56944e-19)
(0.201759 0.234958 1.44588e-19)
(0.0677011 0.0845301 -3.67245e-20)
(1.40007 1.01412 7.45103e-19)
(1.27764 0.961258 3.26519e-19)
(1.14751 0.894536 5.49222e-20)
(1.01064 0.815801 -1.99288e-19)
(0.867115 0.726109 -1.68963e-20)
(0.717806 0.625076 4.67718e-19)
(0.563537 0.51186 -2.69176e-19)
(0.405328 0.385415 -1.8484e-19)
(0.244711 0.24431 3.36253e-19)
(0.0831227 0.0884493 -6.31787e-21)
(0.95944 0.0908893 1.00693e-20)
(1.16541 0.150687 -9.87802e-21)
(1.18632 0.18574 -3.77313e-20)
(1.26985 0.168542 0)
(1.29165 0.169126 9.42471e-21)
(1.23729 0.243098 -4.38213e-20)
(1.10192 0.388199 -9.41989e-20)
(0.934656 0.53985 -1.04162e-19)
(0.704048 0.642074 -2.02439e-19)
(0.413244 0.589334 5.81295e-19)
(0.959011 0.0700284 1.8658e-19)
(1.15869 0.127665 -5.36536e-20)
(1.18216 0.161944 2.26794e-21)
(1.26796 0.158572 1.27496e-20)
(1.29601 0.172235 -2.44552e-21)
(1.25665 0.269854 9.46605e-21)
(1.13468 0.433731 1.69088e-19)
(0.982768 0.599908 0)
(0.756873 0.719468 5.73476e-19)
(0.478183 0.679754 -4.66252e-19)
(0.957852 0.0502655 -1.17988e-19)
(1.15474 0.10467 7.30199e-21)
(1.18117 0.138242 6.59881e-20)
(1.27041 0.147119 2.24014e-20)
(1.30384 0.173647 4.68358e-21)
(1.27804 0.294395 -3.83893e-20)
(1.17202 0.477269 9.96963e-20)
(1.0368 0.658499 4.01715e-20)
(0.821398 0.794587 -5.8563e-22)
(0.564893 0.767117 -6.09501e-19)
(0.956621 0.031508 -8.29761e-20)
(1.15353 0.0812331 1.6928e-20)
(1.18332 0.114635 4.67021e-20)
(1.27684 0.134518 9.86764e-21)
(1.31523 0.17404 -1.25186e-20)
(1.3016 0.317108 -3.15828e-21)
(1.21357 0.518549 -7.23017e-20)
(1.09666 0.714801 2.45642e-20)
(0.90048 0.865329 -4.43258e-19)
(0.674845 0.849547 -1.85761e-19)
(0.955956 0.0133511 3.44152e-20)
(1.15518 0.0570685 -2.84811e-20)
(1.18855 0.0911625 -3.47102e-20)
(1.28669 0.12115 4.02904e-21)
(1.32973 0.173984 0)
(1.32697 0.338333 0)
(1.25872 0.557335 -1.41115e-20)
(1.16298 0.767657 -2.63819e-20)
(0.996498 0.929342 -1.07514e-19)
(0.806183 0.925395 -5.89205e-20)
(0.956266 -0.0047319 -5.39789e-22)
(1.15973 0.0320261 3.47535e-20)
(1.19672 0.0679379 -1.06698e-19)
(1.29934 0.107437 -5.43123e-20)
(1.34641 0.173989 -8.87942e-21)
(1.35357 0.358342 1.91159e-20)
(1.30705 0.593217 7.12731e-20)
(1.23694 0.815514 -1.72947e-20)
(1.10992 0.98483 -2.37866e-20)
(0.954347 0.993859 -6.54757e-21)
(0.957726 -0.0232512 2.88804e-20)
(1.16708 0.00604058 7.44097e-21)
(1.20761 0.045118 -3.75975e-20)
(1.31415 0.093746 -8.47875e-20)
(1.3644 0.174292 1.96323e-20)
(1.38098 0.377131 9.41299e-21)
(1.35866 0.625466 -5.19334e-20)
(1.31962 0.856755 -1.64522e-19)
(1.23906 1.03133 -7.92097e-21)
(1.11388 1.0549 -9.93218e-19)
(0.960111 -0.0426125 2.40871e-20)
(1.17684 -0.0209357 -6.28888e-20)
(1.22099 0.0229503 6.71075e-20)
(1.33046 0.0806972 7.02291e-20)
(1.38241 0.175581 7.70798e-21)
(1.40844 0.394762 -4.41253e-20)
(1.41328 0.653328 -1.74866e-20)
(1.41066 0.890303 7.34776e-21)
(1.38049 1.06951 1.12468e-20)
(1.27938 1.10785 2.89136e-18)
(0.962338 -0.0630476 -1.19549e-19)
(1.18837 -0.0489362 3.65542e-20)
(1.23645 0.00164538 1.15698e-19)
(1.34787 0.0685382 -7.20806e-20)
(1.40061 0.177781 -9.3054e-20)
(1.43697 0.411279 9.5852e-21)
(1.47231 0.676724 1.25421e-19)
(1.51043 0.916641 -3.98032e-19)
(1.53139 1.10051 -2.65847e-20)
(1.44754 1.14963 -6.46101e-18)
(0.963037 -0.0856791 4.35495e-21)
(1.20089 -0.0778675 7.23555e-20)
(1.2531 -0.018829 2.99013e-20)
(1.3655 0.0590712 -1.77204e-19)
(1.41642 0.184779 -1.25366e-19)
(1.46371 0.430534 -2.66004e-20)
(1.53188 0.699231 -2.09814e-20)
(1.61303 0.938925 -3.99581e-19)
(1.68369 1.12395 -1.1137e-18)
(1.61464 1.16937 -7.96412e-18)
(0.962193 -0.118621 -1.44052e-20)
(1.21451 -0.116652 -1.83175e-20)
(1.27137 -0.0481784 -4.02295e-20)
(1.38548 0.0421068 3.46797e-20)
(1.43737 0.178128 1.01057e-19)
(1.50045 0.426207 -3.64278e-20)
(1.61304 0.690279 -1.01331e-19)
(1.75473 0.928763 -1.34655e-18)
(1.90229 1.12646 -1.62249e-18)
(1.89822 1.20588 3.2975e-18)
(0.957719 -0.15965 -4.07397e-19)
(1.22752 -0.166761 -1.36407e-20)
(1.28636 -0.0930654 -3.3418e-20)
(1.39963 0.0179329 1.63716e-19)
(1.4406 0.1552 2.27077e-19)
(1.51258 0.386811 -1.85326e-19)
(1.67255 0.629175 -1.18144e-19)
(1.88255 0.855219 -5.00132e-19)
(2.13908 1.06542 1.91729e-19)
(2.2833 1.15777 -3.22208e-19)
(0.949283 -0.200992 -2.68096e-20)
(1.24275 -0.218889 -4.87004e-20)
(1.29353 -0.134951 2.8088e-20)
(1.41027 -0.00854583 3.29875e-20)
(1.44367 0.137028 1.62821e-33)
(1.50628 0.340463 -4.29929e-23)
(1.69442 0.54796 -2.24344e-33)
(1.9555 0.751649 1.90777e-19)
(2.30398 0.952073 -9.35636e-19)
(2.58696 1.05586 -6.29303e-19)
(0.938537 -0.246003 1.49745e-18)
(1.2616 -0.262938 -7.00565e-34)
(1.28498 -0.185331 -3.68961e-20)
(1.3315 -0.0253821 -1.94843e-19)
(1.32931 0.122615 -4.55657e-19)
(1.42275 0.278933 -9.25369e-19)
(1.63671 0.448658 -5.24402e-33)
(1.93893 0.624767 -1.72275e-18)
(2.33067 0.798782 -3.14897e-18)
(2.75516 0.900789 1.67883e-18)
(0.927173 -0.300406 0)
(1.29548 -0.306247 -2.33187e-33)
(1.15089 -0.188749 0)
(1.15539 -0.0241869 0)
(1.16643 0.103446 0)
(1.2802 0.217743 0)
(1.50296 0.347017 -8.67873e-33)
(1.82302 0.486805 0)
(2.21771 0.631798 -3.41851e-19)
(2.73702 0.710717 1.26124e-18)
(0.915339 -0.359927 1.14213e-19)
(1.25863 -0.323365 -4.36832e-19)
(0.985171 -0.161224 -5.76171e-20)
(0.972395 -0.0213419 0)
(0.990798 0.0770963 0)
(1.10543 0.156507 6.58336e-20)
(1.31575 0.248435 1.25805e-18)
(1.62113 0.351762 -1.9573e-19)
(1.99934 0.464836 -4.95716e-19)
(2.53372 0.519761 4.66788e-18)
(0.88292 -0.40513 -1.52e-17)
(1.09415 -0.276308 1.03958e-18)
(0.80779 -0.122966 -7.36722e-20)
(0.774151 -0.018483 -1.10486e-19)
(0.797119 0.0503686 -4.67326e-19)
(0.900659 0.0994319 -7.61107e-19)
(1.08285 0.157818 -1.08746e-18)
(1.34914 0.22738 -1.4219e-18)
(1.689 0.305489 -1.63243e-18)
(2.18049 0.344193 3.63459e-18)
(0.808628 -0.39444 -4.13316e-19)
(0.887687 -0.206328 -1.21761e-18)
(0.612994 -0.0794144 -1.2637e-19)
(0.567095 -0.0139677 -8.13322e-20)
(0.587906 0.0272257 -7.55964e-34)
(0.669561 0.05212 1.01225e-19)
(0.809824 0.082652 -1.52831e-32)
(1.01794 0.122106 -1.93454e-19)
(1.29308 0.167048 2.97881e-19)
(1.69944 0.192002 7.04856e-19)
(0.664059 -0.288839 3.42737e-17)
(0.618395 -0.107527 -3.13631e-18)
(0.396369 -0.0340289 -2.41249e-19)
(0.348594 -0.00704849 -1.18558e-19)
(0.362831 0.00952243 3.65481e-19)
(0.415426 0.0176139 7.6709e-19)
(0.503762 0.0284197 7.87429e-19)
(0.637559 0.0445796 4.59604e-19)
(0.820941 0.0633767 -1.87589e-19)
(1.10152 0.0762129 3.56415e-18)
(0.336773 -0.0768339 5.58841e-19)
(0.261863 -0.00232486 -6.77122e-33)
(0.14527 0.0186348 -3.05378e-19)
(0.122936 0.0028698 0)
(0.126384 -0.00200226 0)
(0.143713 -0.0051473 1.01536e-19)
(0.173341 -0.00611825 8.62776e-35)
(0.220548 -0.00409808 -1.23704e-19)
(0.288134 -0.00159531 -2.81449e-19)
(0.398947 0.00332331 1.00002e-18)
(2.00142 1.09507 -1.78569e-18)
(2.23855 1.07746 -2.30406e-18)
(2.44169 1.02839 0)
(2.6368 0.952014 -7.61284e-19)
(2.82341 0.852185 -1.79107e-18)
(2.99267 0.732186 -2.24913e-18)
(3.13705 0.59492 -4.83228e-19)
(3.25056 0.442632 1.26942e-18)
(3.32829 0.276936 -3.54755e-18)
(3.3677 0.0986941 1.35658e-18)
(2.49787 1.14028 2.64901e-19)
(2.72989 1.08066 1.39405e-18)
(2.92334 1.00328 1.43703e-19)
(3.10634 0.909153 6.74085e-19)
(3.28032 0.800219 -1.10219e-18)
(3.43978 0.678033 -4.9936e-18)
(3.58086 0.543823 2.4642e-18)
(3.70043 0.3992 1.26946e-17)