/*--------------------------------*- C++ -*----------------------------------*\
  =========                 |
  \\      /  F ield         | OpenFOAM: The Open Source CFD Toolbox
   \\    /   O peration     | Website:  https://openfoam.org
    \\  /    A nd           | Version:  13
     \\/     M anipulation  |
\*---------------------------------------------------------------------------*/
FoamFile
{
    format      ascii;
    class       volScalarField;
    location    "0.855";
    object      p;
}
// * * * * * * * * * * * * * * * * * * * * * * * * * * * * * * * * * * * * * //

dimensions      [0 2 -2 0 0 0 0];

internalField   nonuniform List<scalar> 
1800
(
5.7497
7.85679
10.0096
11.438
12.2723
12.6829
12.8137
12.656
11.4094
7.31679
9.59851
12.0742
14.5791
16.2631
17.3196
17.9823
18.4368
18.6757
17.951
15.2728
15.9902
18.6149
21.2876
23.1509
24.411
25.2927
25.9433
26.3265
25.8552
24.0239
24.9848
27.5542
30.2026
32.1171
33.4823
34.4913
35.2537
35.7056
35.2993
33.6144
36.043
38.4039
40.8561
42.6676
43.992
44.9881
45.7426
46.1919
45.8416
44.2859
48.7196
50.7721
52.9157
54.522
55.7129
56.6151
57.2973
57.7079
57.4267
56.0672
62.6677
64.3405
66.0962
67.4281
68.4302
69.1997
69.7911
70.1681
69.9929
68.9042
77.5933
78.8348
80.1459
81.1552
81.9311
82.5449
83.039
83.3939
83.3604
82.624
93.2112
93.9909
94.8224
95.4773
96.0001
96.4375
96.8203
97.1437
97.2539
96.9194
109.24
109.544
109.876
110.151
110.389
110.61
110.826
111.04
111.201
111.229
-0.603679
-0.856805
-0.633811
-0.218911
0.254101
0.722446
1.08214
1.29289
1.43803
1.58502
-0.471102
-0.988033
-1.09918
-0.894014
-0.470226
-0.0465971
0.245388
0.487651
0.768133
1.042
0.534026
-0.435383
-1.27081
-1.43784
-1.11094
-0.806152
-0.59399
-0.289207
0.118295
0.504304
0.928421
-0.214704
-1.41609
-1.75555
-1.53538
-1.38329
-1.26015
-0.955906
-0.499164
0.008582
0.496266
-0.473087
-1.4159
-1.70776
-1.65099
-1.6633
-1.62873
-1.36815
-0.877519
-0.183632
-0.209605
-0.727393
-1.1293
-1.25936
-1.28053
-1.34717
-1.34112
-1.13394
-0.610309
0.321638
-0.547343
-0.510031
-0.334254
-0.188643
-0.104519
-0.0849148
-0.0476786
0.120955
0.697706
1.92721
-0.0659986
0.520141
1.2408
1.745
2.07427
2.28701
2.43573
2.65148
3.38123
5.04288
1.37964
2.48753
3.73584
4.6572
5.32706
5.81916
6.1588
6.49744
7.48366
9.77063
3.6203
5.26317
7.0813
8.45719
9.47987
10.24
10.7621
11.2148
12.2754
14.4382
2.30384
2.44308
2.33545
2.08949
1.58422
1.18144
0.865339
0.59381
0.352632
0.137503
1.95592
2.42072
2.23242
2.00753
1.5019
1.10261
0.814297
0.577506
0.359482
0.148305
1.4788
2.3917
2.13185
1.91664
1.42789
1.0371
0.768249
0.558087
0.363193
0.158334
0.853901
2.30898
2.03182
1.81126
1.35352
0.979895
0.729054
0.540408
0.359572
0.167181
0.159183
2.13251
1.92079
1.68908
1.27263
0.926315
0.695313
0.525373
0.349361
0.172829
-0.414283
1.85295
1.7816
1.54878
1.18172
0.873107
0.665436
0.511783
0.35252
0.173339
-0.56447
1.50392
1.60122
1.38809
1.07899
0.818208
0.637802
0.49951
0.356424
0.168216
0.163616
1.17414
1.37068
1.19824
0.961084
0.759771
0.610677
0.488288
0.348979
0.157876
2.41973
1.03744
1.06934
0.954618
0.819771
0.695407
0.583553
0.472401
0.33133
0.141162
6.65445
1.40613
0.711454
0.636947
0.647886
0.624818
0.554469
0.450898
0.307971
0.121597
9.97922
2.5754
0.687076
0.394685
0.472278
0.548632
0.516059
0.417818
0.275075
0.0953506
11.764
2.57204
0.267364
0.0634229
0.361848
0.51651
0.480965
0.372379
0.229986
0.0607932
12.8634
2.78017
0.400037
0.160729
0.476647
0.578106
0.482725
0.341509
0.18958
0.027014
14.1858
4.36894
1.28539
0.734412
0.795457
0.724693
0.525601
0.329525
0.157774
-0.00360826
16.3625
7.11219
2.7041
1.59604
1.24465
0.939187
0.609308
0.339864
0.138351
-0.0281569
19.252
9.87615
4.3354
2.55956
1.77292
1.20333
0.725516
0.371855
0.133367
-0.0442374
21.7556
11.937
5.85237
3.51856
2.33797
1.49772
0.863848
0.422178
0.142874
-0.0504577
23.0346
13.1199
7.04949
4.41836
2.91117
1.80855
1.0167
0.487336
0.16587
-0.0463036
22.9745
13.499
7.91038
5.26565
3.5004
2.14352
1.19071
0.571592
0.206072
-0.0301895
22.4217
13.7241
8.68186
6.12681
4.12684
2.52249
1.40811
0.692775
0.284082
0.00382999
111.785
97.8394
84.0747
71.0696
59.1303
48.3502
38.7689
30.0924
20.0814
4.97677
112.765
99.477
85.9764
72.97
60.927
50.0462
40.5131
32.255
23.59
11.4772
113.297
100.212
87.3316
75.0055
63.4669
52.8751
43.4454
35.2567
27.4703
18.3364
114.509
102.769
90.8105
78.98
67.6237
57.0288
47.396
38.7958
31.0893
23.8263
115.086
104.075
93.1548
82.464
72.1172
62.1931
52.7311
43.8209
36.0031
29.8245
115.436
104.709
94.2023
84.0408
74.3204
65.0912
56.3321
48.0908
41.0494
36.0326
115.667
105.108
94.7972
84.8652
75.4227
66.5424
58.2337
50.5663
44.2124
40.0929
115.768
105.246
94.9802
85.109
75.7551
67.0094
58.9058
51.5125
45.3958
41.4361
115.717
105.032
94.6058
84.5869
75.108
66.2756
58.1456
50.7763
44.5525
40.0997
115.594
104.647
93.9599
83.6826
73.9574
64.9074
56.6127
49.1181
42.6092
37.4143
234.118
229.755
228.186
227.744
227.653
227.904
228.638
230.019
232.171
234.31
225.556
222.537
221.488
221.448
221.673
222.158
223.089
224.696
227.167
229.643
216.043
213.868
213.095
213.22
213.651
214.354
215.479
217.248
219.862
222.46
205.737
203.71
203.006
203.201
203.745
204.574
205.798
207.606
210.175
212.694
194.415
192.505
191.85
192.038
192.57
193.381
194.558
196.252
198.607
200.897
182.048
180.323
179.73
179.871
180.324
181.035
182.071
183.549
185.578
187.543
168.702
167.24
166.746
166.849
167.205
167.777
168.616
169.81
171.437
173.008
154.569
153.452
153.097
153.175
153.43
153.843
154.45
155.312
156.483
157.61
139.96
139.246
139.039
139.088
139.234
139.468
139.819
140.32
141.002
141.659
125.435
125.091
124.951
124.904
124.891
124.914
124.98
125.1
125.277
125.453
246.554
246.793
247.046
247.264
247.562
248.063
248.616
248.952
248.957
248.443
246.626
246.957
247.361
247.667
247.868
248.203
248.628
248.543
247.725
246.704
246.634
247.03
247.475
247.787
247.87
248.001
248.283
247.923
246.535
245.279
246.511
247.013
247.443
247.675
247.607
247.493
247.527
247.104
245.81
244.653
246.019
246.673
247.061
247.167
246.988
246.71
246.532
246.172
245.364
244.575
244.811
245.654
245.989
245.953
245.72
245.435
245.238
245.066
244.827
244.541
242.466
243.562
243.899
243.782
243.571
243.406
243.371
243.501
243.808
244.048
238.582
240.067
240.536
240.468
240.384
240.434
240.671
241.166
241.979
242.718
233.109
235.162
235.87
235.937
236.062
236.408
236.995
237.9
239.205
240.416
227.755
229.619
230.363
230.53
230.836
231.453
232.395
233.746
235.593
237.301
246.935
246.717
246.676
246.489
246.42
246.307
245.932
245.675
245.573
245.719
246.893
246.716
246.672
246.491
246.42
246.318
245.94
245.656
245.379
245.737
246.865
246.711
246.663
246.486
246.412
246.32
245.939
245.599
245.14
245.818
246.846
246.705
246.65
246.473
246.398
246.315
245.925
245.506
244.92
246.003
246.835
246.696
246.634
246.454
246.378
246.299
245.897
245.395
244.785
246.24
246.828
246.684
246.615
246.43
246.352
246.271
245.858
245.302
244.76
246.349
246.827
246.669
246.595
246.403
246.321
246.232
245.822
245.252
244.807
246.017
246.83
246.651
246.573
246.373
246.286
246.188
245.805
245.256
244.829
244.78
246.839
246.628
246.549
246.339
246.249
246.155
245.838
245.333
244.651
242.005
246.857
246.604
246.52
246.304
246.215
246.151
245.942
245.46
243.973
237.29
246.895
246.576
246.479
246.246
246.149
246.079
245.873
245.134
242.442
233.741
247.01
246.556
246.439
246.193
246.093
246.115
246.067
245.333
242.176
231.798
247.251
246.561
246.401
246.114
246.016
246.076
246.056
245.233
241.881
230.533
247.701
246.617
246.37
246.028
245.88
245.811
245.608
244.528
240.475
229.312
248.539
246.683
246.394
245.937
245.669
245.305
244.739
243.223
238.005
227.456
250.376
246.749
246.503
245.868
245.377
244.644
243.655
241.566
235.372
224.911
254.256
247.061
246.658
245.811
245.021
243.93
242.558
239.956
233.309
222.583
262.561
248.198
246.933
245.769
244.647
243.24
241.557
238.667
232.072
221.327
280.121
250.933
247.584
245.805
244.293
242.588
240.648
237.736
231.629
221.356
306.092
254.979
249.09
246.019
244.002
241.966
239.763
236.919
231.358
221.884
236.414
221.065
210.443
201.129
190.968
179.664
167.269
153.897
139.852
125.722
230.026
217.733
208.581
199.859
189.922
178.684
166.337
153.086
139.363
125.889
223.493
214.128
205.949
197.422
187.708
176.867
165.114
152.614
139.597
126.419
218.377
210.87
202.878
194.028
184.186
173.421
161.929
149.987
137.924
126.09
212.98
206.586
198.594
189.5
179.831
169.694
159.143
148.276
137.221
126.129
207.383
202.087
194.827
186.357
177.358
167.903
157.984
147.661
137.042
126.254
203.589
199.149
192.559
184.662
176.129
167.043
157.422
147.348
136.937
126.327
202.307
198.049
191.703
184.09
175.777
166.841
157.322
147.319
136.96
126.392
203.633
198.918
192.468
184.883
176.551
167.536
157.898
147.753
137.238
126.506
206.307
200.872
194.135
186.424
177.929
168.697
158.815
148.411
137.635
126.643
112.189
112.359
112.443
112.294
111.787
111.427
111.242
111.526
111.519
111.27
89.6137
90.0771
90.2958
89.8622
88.4302
87.3437
86.7229
87.3845
87.4222
86.8356
68.7707
69.3984
69.6598
68.993
67.0537
65.3419
64.3217
64.8704
65.1749
64.6197
50.653
51.2595
51.4492
50.6261
48.6469
46.4809
45.1508
45.1863
45.9247
45.6913
36.0078
36.4162
36.4666
35.5853
33.7934
31.4774
29.8336
29.2684
30.076
30.2637
24.9555
25.0591
24.9371
24.0139
22.4363
20.4069
18.6161
17.6745
17.9295
18.4296
17.0691
16.9188
16.704
15.7131
14.2986
12.7952
11.3078
10.2428
9.90303
10.2695
11.5821
11.4052
11.3568
10.3574
9.03847
8.03659
7.14504
6.30223
5.71375
5.62991
7.90803
7.81984
8.1159
7.24803
6.08194
5.4915
5.1628
4.77831
4.29438
3.91457
6.03908
5.8342
6.21973
5.48186
4.61248
4.33657
4.3608
4.35162
4.19911
3.80306
5.2717
5.03494
5.11744
4.42307
3.89092
3.83498
3.98504
4.12795
4.24914
4.3058
4.84423
4.73516
4.45792
3.79162
3.50595
3.59355
3.79701
3.96474
4.08454
4.17079
4.46541
4.42067
3.98894
3.43848
3.31877
3.48193
3.70691
3.88575
4.00377
4.06411
4.01067
3.95571
3.54965
3.19849
3.20875
3.4123
3.62537
3.78276
3.88138
3.9227
3.46233
3.36906
3.09613
2.97672
3.09381
3.3108
3.50104
3.63874
3.72006
3.74379
2.8107
2.7167
2.65784
2.74864
2.94559
3.15011
3.31599
3.43549
3.50245
3.51587
2.08726
2.10432
2.23982
2.47483
2.71069
2.90932
3.06465
3.17843
3.2448
3.26031
1.41465
1.53297
1.78465
2.07796
2.33417
2.54873
2.72479
2.86367
2.95135
2.97949
0.737906
0.872457
1.14754
1.47708
1.78749
2.05969
2.29762
2.48282
2.58776
2.62541
0.0653529
-0.0199144
0.215796
0.628278
1.04957
1.43263
1.75751
1.97288
2.07615
2.13946
3.6597
3.70322
3.57268
3.24625
2.59447
1.90339
1.30917
0.835122
0.451117
0.0859001
3.73223
3.67672
3.52198
3.23021
2.55501
1.84748
1.25768
0.798162
0.427572
0.0834478
3.75845
3.57029
3.40988
3.17591
2.51097
1.79489
1.2093
0.763847
0.406465
0.0830111
3.71904
3.39354
3.25669
3.07313
2.45363
1.7439
1.16405
0.732313
0.387995
0.0841674
3.61083
3.18499
3.08803
2.91926
2.37107
1.68996
1.12123
0.703539
0.372351
0.0870381
3.4471
2.98702
2.92716
2.73477
2.25694
1.62915
1.08059
0.677907
0.359887
0.0917336
3.25352
2.81973
2.78336
2.55173
2.11412
1.5577
1.04146
0.655772
0.350973
0.0982438
3.04649
2.68307
2.65731
2.39444
1.95793
1.47286
1.00237
0.637136
0.34586
0.106424
2.82454
2.57251
2.54468
2.27011
1.80981
1.37584
0.961179
0.621495
0.344621
0.115994
2.58062
2.49078
2.43913
2.17261
1.68455
1.27479
0.915606
0.607697
0.347083
0.12653
5.42106
3.97457
3.27574
2.89566
2.41347
1.8893
1.38605
0.930149
0.541317
0.128815
4.61722
3.75403
3.31212
2.95711
2.45436
1.89828
1.37336
0.911195
0.518658
0.116601
3.94723
3.66213
3.3731
3.02683
2.49396
1.90634
1.3621
0.894288
0.501298
0.106099
3.62737
3.66271
3.45878
3.10742
2.53545
1.91419
1.35143
0.878683
0.486208
0.0976506
3.61266
3.70599
3.56079
3.20015
2.58165
1.9223
1.34001
0.862788
0.471559
0.0911056
112.019
88.9524
67.9013
50.1295
36.1145
25.7941
18.6239
13.7483
10.5663
8.75203
111.798
88.39
67.1949
49.395
35.3122
24.7898
17.3201
12.2148
9.07186
7.57162
111.612
87.9096
66.5565
48.6543
34.4009
23.617
15.8997
10.6798
7.53508
6.07697
111.402
87.3357
65.7161
47.5893
33.0761
22.0227
14.128
8.89505
5.80947
4.43375
111.148
86.6076
64.5866
46.1161
31.2758
19.9548
11.9591
6.9226
4.43951
3.62373
243.768
243.806
243.926
244.097
244.31
244.319
243.814
243.112
243.216
242.992
243.98
244.052
244.166
244.356
244.626
244.801
244.582
243.932
243.675
243.568
244.176
244.225
244.338
244.534
244.82
245.082
245.056
244.549
244.121
244.071
244.419
244.452
244.55
244.724
244.982
245.271
245.378
245.108
244.721
244.654
244.694
244.712
244.793
244.943
245.159
245.424
245.628
245.631
245.465
245.375
244.987
245
245.069
245.191
245.365
245.596
245.867
246.11
246.216
246.205
245.261
245.28
245.362
245.498
245.674
245.904
246.206
246.568
246.873
246.996
245.548
245.565
245.662
245.854
246.109
246.41
246.771
247.185
247.552
247.733
245.93
245.959
246.035
246.258
246.63
247.084
247.591
248.112
248.458
248.42
246.323
246.434
246.535
246.725
247.124
247.695
248.299
248.851
249.204
248.999
136.502
136.243
136.22
136.483
136.265
135.867
135.325
135.154
135.225
135.39
160.952
160.356
160.377
161.015
160.362
159.239
157.775
157.319
157.525
157.983
183.197
182.631
182.918
183.441
182.39
180.645
178.676
177.988
178.236
178.859
202.164
201.918
202.636
202.646
201.288
199.091
197.084
196.24
196.418
197.02
217.635
217.809
218.594
218.006
216.338
213.993
212.172
211.269
211.309
211.714
229.515
229.996
230.227
229.267
227.459
225.403
223.793
222.847
222.714
222.815
237.714
238.051
237.688
236.614
235.122
233.594
232.143
231.126
230.902
230.75
242.37
242.25
241.641
240.807
239.928
238.91
237.557
236.531
236.472
236.295
244.094
243.676
243.182
242.824
242.527
241.94
240.751
239.855
240.141
240.056
244.233
243.808
243.655
243.676
243.747
243.505
242.631
241.869
242.255
242.065
254.845
246.87
247.499
246.283
246.034
245.527
244.995
244.633
244.503
244.541
252.011
246.807
247.313
246.262
246.086
245.59
245.011
244.666
244.579
244.513
250.089
246.813
247.09
246.257
246.142
245.658
245.054
244.76
244.749
244.545
248.901
246.842
246.877
246.276
246.2
245.732
245.135
244.913
244.978
244.651
248.216
246.845
246.738
246.315
246.256
245.815
245.263
245.105
245.221
244.822
247.767
246.803
246.701
246.364
246.309
245.908
245.431
245.294
245.429
245.029
247.453
246.749
246.7
246.409
246.355
246.011
245.607
245.449
245.584
245.24
247.236
246.721
246.692
246.443
246.388
246.117
245.755
245.56
245.684
245.434
247.092
246.715
246.683
246.468
246.404
246.209
245.854
245.629
245.723
245.593
246.998
246.716
246.679
246.481
246.414
246.274
245.908
245.665
245.689
245.688
317.349
253.754
249.908
246.97
246.139
245.567
245.25
244.93
244.237
242.72
295.617
251.365
248.786
246.738
246.056
245.538
245.206
244.9
244.45
243.522
277.176
249.209
248.19
246.565
246.015
245.52
245.156
244.843
244.532
244.194
265.773
247.864
247.866
246.434
245.997
245.508
245.098
244.761
244.523
244.523
259.001
247.134
247.643
246.326
245.995
245.5
245.03
244.658
244.477
244.556
239.3
237.45
234.235
229.327
222.125
211.77
197.72
179.915
158.839
135.758
240.482
238.947
235.772
230.636
223.133
212.576
198.457
180.623
159.402
135.979
241.995
240.498
237.317
232.064
224.312
213.492
199.2
181.263
159.883
136.165
243.657
242.252
239.124
233.849
225.915
214.821
200.268
182.105
160.457
136.375
244.446
243.609
241.106
236.036
227.993
216.626
201.743
183.234
161.185
136.628
)
;

boundaryField
{
    left
    {
        type            zeroGradient;
    }
    right
    {
        type            fixedValue;
        value           uniform 0;
    }
    down
    {
        type            zeroGradient;
    }
    up
    {
        type            zeroGradient;
    }
    cylinder
    {
        type            zeroGradient;
    }
    defaultFaces
    {
        type            empty;
    }
}


// ************************************************************************* //
