/*--------------------------------*- C++ -*----------------------------------*\
  =========                 |
  \\      /  F ield         | OpenFOAM: The Open Source CFD Toolbox
   \\    /   O peration     | Website:  https://openfoam.org
    \\  /    A nd           | Version:  13
     \\/     M anipulation  |
\*---------------------------------------------------------------------------*/
FoamFile
{
    format      ascii;
    class       volVectorField;
    location    "1.5";
    object      U;
}
// * * * * * * * * * * * * * * * * * * * * * * * * * * * * * * * * * * * * * //

dimensions      [0 1 -1 0 0 0 0];

internalField   nonuniform List<vector> 
1800
(
(-0.0663446 0.0621724 3.53941e-20)
(-0.0991706 0.116499 1.62737e-20)
(-0.0319877 0.115596 -3.34178e-20)
(0.123578 0.0648449 1.83275e-20)
(0.352951 -0.0237283 4.4506e-20)
(0.634605 -0.136275 2.05535e-20)
(0.940557 -0.2578 -2.53761e-20)
(1.23955 -0.375775 -1.61989e-19)
(1.51389 -0.473959 -1.47811e-19)
(1.71124 -0.560768 -1.51432e-19)
(-0.0574267 0.0463168 1.29696e-20)
(-0.0490252 0.0655533 -1.13129e-19)
(0.0763691 0.0349223 5.00792e-22)
(0.300547 -0.0357541 -9.23258e-20)
(0.598469 -0.131818 4.18835e-20)
(0.93464 -0.237906 1.1878e-19)
(1.26943 -0.340035 -1.42505e-19)
(1.56931 -0.428491 1.53277e-19)
(1.81288 -0.494215 3.93103e-19)
(1.98884 -0.557129 -2.47244e-19)
(-0.0413097 0.0296925 9.8405e-21)
(0.0260949 0.0172619 3.10046e-20)
(0.227749 -0.0378939 -1.77296e-20)
(0.532123 -0.121004 -5.04185e-21)
(0.895485 -0.215117 -2.00263e-19)
(1.26617 -0.305467 5.78561e-20)
(1.59928 -0.382118 1.77785e-19)
(1.86711 -0.440818 -1.7181e-20)
(2.06252 -0.481172 -3.2031e-21)
(2.19196 -0.514038 -1.83793e-21)
(-0.0141722 0.0113333 -1.14828e-20)
(0.131835 -0.0287238 -3.46575e-20)
(0.423302 -0.0998648 -3.42145e-20)
(0.807464 -0.183682 4.29237e-20)
(1.21771 -0.264047 5.67813e-20)
(1.59266 -0.330602 1.51615e-20)
(1.89417 -0.379453 -1.01369e-20)
(2.11042 -0.411736 3.13845e-19)
(2.24989 -0.427996 3.36258e-19)
(2.32317 -0.442214 -1.53619e-19)
(0.0266344 -0.00777194 8.32575e-20)
(0.269967 -0.0688783 7.50452e-20)
(0.656753 -0.144471 -5.74497e-20)
(1.10653 -0.216255 -6.7849e-20)
(1.53458 -0.274002 -3.1883e-19)
(1.88372 -0.314686 4.3849e-21)
(2.13388 -0.339934 5.0627e-19)
(2.29247 -0.353073 1.96157e-19)
(2.3799 -0.357549 2.25302e-23)
(2.41869 -0.362601 -1.92071e-19)
(0.0820567 -0.0246616 -7.19451e-20)
(0.437252 -0.0960194 -1.43941e-20)
(0.913969 -0.162832 3.05676e-19)
(1.40442 -0.212254 -1.73571e-19)
(1.82013 -0.244106 -3.21496e-19)
(2.12249 -0.261952 7.19923e-19)
(2.31454 -0.269798 -6.57827e-19)
(2.41991 -0.271377 -8.9521e-19)
(2.46655 -0.268508 6.91456e-19)
(2.47386 -0.268657 -2.70209e-21)
(0.151021 -0.0361763 6.6412e-20)
(0.625275 -0.103567 -1.98951e-19)
(1.17609 -0.148876 -8.62391e-19)
(1.67862 -0.170904 4.82424e-19)
(2.05878 -0.179427 1.04764e-18)
(2.30503 -0.180966 -3.86152e-21)
(2.44185 -0.179202 -2.0556e-18)
(2.50365 -0.176072 1.72099e-20)
(2.51994 -0.172562 2.26428e-18)
(2.51014 -0.173123 6.11616e-19)
(0.230862 -0.0390627 4.6209e-20)
(0.821756 -0.0861252 3.50073e-19)
(1.42361 -0.10027 8.01668e-19)
(1.91296 -0.0951195 -8.45318e-20)
(2.24424 -0.0859006 -8.28092e-19)
(2.43434 -0.0779835 -3.11998e-19)
(2.52412 -0.072586 0)
(2.55295 -0.069332 8.73685e-19)
(2.5487 -0.0674643 -1.57705e-20)
(2.52614 -0.069662 -7.95482e-19)
(0.317257 -0.0305779 3.51442e-20)
(1.01291 -0.0413243 5.27002e-19)
(1.64097 -0.0195738 1.00725e-18)
(2.09915 0.00861775 -1.12953e-18)
(2.37716 0.0288175 -9.87854e-19)
(2.51678 0.0396301 3.54903e-19)
(2.56926 0.0434251 -1.6287e-18)
(2.57458 0.0431315 -1.2243e-18)
(2.55678 0.0405559 1.46953e-18)
(2.52682 0.0344408 1.27202e-18)
(0.40465 -0.00895077 2.97362e-20)
(1.18566 0.0299235 4.18401e-19)
(1.81758 0.0879687 2.30538e-19)
(2.23406 0.133565 -1.95381e-18)
(2.46045 0.15856 2.59697e-20)
(2.55771 0.167382 3.70055e-18)
(2.58233 0.16645 -2.12231e-18)
(2.57195 0.160803 -1.20848e-18)
(2.54605 0.15302 4.3009e-19)
(2.51196 0.14255 -9.7587e-19)
(-0.0111198 0.0870754 1.34172e-19)
(-0.0627483 0.140577 -9.42759e-20)
(-0.121277 0.132257 6.14525e-22)
(-0.176268 0.0923683 -1.91425e-20)
(-0.220003 0.037529 -6.94124e-22)
(-0.25069 -0.0225463 -4.29489e-20)
(-0.268801 -0.0813277 2.3796e-20)
(-0.275913 -0.134009 1.17942e-19)
(-0.272902 -0.177815 1.08383e-20)
(-0.256385 -0.212503 -2.72918e-20)
(-0.0237064 0.145458 -1.61718e-20)
(-0.0802538 0.249552 4.72105e-21)
(-0.135171 0.252825 -5.14976e-21)
(-0.182789 0.203075 7.25569e-21)
(-0.217958 0.12754 -1.44871e-19)
(-0.239884 0.0416049 -6.26068e-20)
(-0.249063 -0.0448882 7.42795e-20)
(-0.24717 -0.12483 8.44143e-20)
(-0.235385 -0.193171 -2.73354e-19)
(-0.210581 -0.247713 7.81732e-20)
(-0.0425508 0.191834 -1.00129e-19)
(-0.106947 0.341969 3.71849e-20)
(-0.15664 0.359496 2.22992e-20)
(-0.192865 0.304543 -5.48536e-20)
(-0.214421 0.212702 -8.7726e-21)
(-0.222078 0.104071 8.60516e-21)
(-0.217016 -0.00879106 -1.13608e-19)
(-0.200667 -0.116586 2.58918e-19)
(-0.174075 -0.21142 -3.30963e-19)
(-0.134867 -0.287374 -2.2007e-19)
(-0.0634958 0.219854 -1.37487e-19)
(-0.136463 0.408021 8.5027e-21)
(-0.178855 0.443093 3.83984e-20)
(-0.199555 0.389782 -1.70004e-19)
(-0.202222 0.288543 3.20185e-19)
(-0.189725 0.162751 1.10505e-20)
(-0.163859 0.0268704 -3.35242e-20)
(-0.126275 -0.108158 2.23881e-20)
(-0.0782405 -0.231938 4.59156e-20)
(-0.0171979 -0.332754 -1.08164e-20)
(-0.0813366 0.225098 0)
(-0.161756 0.438404 7.82759e-20)
(-0.195266 0.49327 -2.26573e-19)
(-0.197093 0.449439 8.09607e-20)
(-0.176159 0.347694 4.74133e-20)
(-0.137709 0.213049 -1.26923e-19)
(-0.0844777 0.0610328 5.76576e-20)
(-0.0186996 -0.0971888 -1.46709e-19)
(0.0566853 -0.250655 0)
(0.147586 -0.380178 -2.21596e-20)
(-0.0916325 0.208081 3.25525e-20)
(-0.176892 0.428354 -4.62795e-21)
(-0.201431 0.500852 -1.09901e-19)
(-0.183692 0.471895 1.72432e-19)
(-0.136582 0.37799 -1.29134e-19)
(-0.0678974 0.243849 1.35485e-19)
(0.0178398 0.08531 -1.13153e-19)
(0.117485 -0.0866057 5.42198e-20)
(0.227787 -0.262136 -3.6066e-19)
(0.360636 -0.418595 -1.20401e-20)
(-0.0929743 0.175684 3.3257e-21)
(-0.179729 0.382336 -1.88512e-20)
(-0.196286 0.463569 9.68773e-20)
(-0.160836 0.448619 1.89788e-20)
(-0.0880107 0.366369 2.52755e-20)
(0.0125797 0.239187 1.33264e-19)
(0.134728 0.0827688 5.16064e-20)
(0.273555 -0.0911825 -4.68009e-21)
(0.422278 -0.274954 2.0603e-19)
(0.604755 -0.449568 4.51375e-19)
(-0.0875581 0.138408 -3.18456e-20)
(-0.171529 0.314081 6.56067e-22)
(-0.179731 0.390328 8.92265e-20)
(-0.127426 0.381537 -3.77564e-20)
(-0.028774 0.308264 -4.87106e-21)
(0.105603 0.189049 -2.01006e-19)
(0.267645 0.0390863 -1.66599e-19)
(0.44992 -0.128781 -1.33272e-20)
(0.637912 -0.307232 -1.30022e-19)
(0.871236 -0.482431 3.3572e-19)
(-0.079681 0.105401 -6.11783e-20)
(-0.155261 0.240598 -1.41494e-19)
(-0.15063 0.298328 5.75877e-20)
(-0.0776025 0.284117 -2.60196e-20)
(0.051365 0.212183 5.18087e-20)
(0.225548 0.0981121 -1.70097e-19)
(0.433369 -0.0443171 1.7768e-20)
(0.661665 -0.201524 -3.18065e-20)
(0.887825 -0.363807 -1.43386e-19)
(1.15745 -0.517061 2.56949e-19)
(-0.0726429 0.0805261 -5.1951e-21)
(-0.132197 0.173796 -1.31849e-19)
(-0.104291 0.203948 -7.03034e-20)
(0.00104132 0.174134 6.01632e-20)
(0.172421 0.0959936 -5.85402e-20)
(0.39616 -0.0170416 5.85228e-20)
(0.654561 -0.151289 3.06452e-20)
(0.925474 -0.292642 5.01474e-20)
(1.18426 -0.427804 -1.81535e-19)
(1.45 -0.542031 -2.3254e-19)
(-0.108004 -0.356645 3.51541e-19)
(0.35336 -0.291215 -2.19696e-19)
(0.651708 -0.21977 -3.1676e-20)
(0.82611 -0.167054 2.53492e-20)
(0.926444 -0.128754 -1.26524e-20)
(0.982332 -0.098199 -1.05726e-20)
(1.01351 -0.0771691 -1.14755e-20)
(1.0333 -0.0551414 -2.17727e-21)
(1.04312 -0.0476948 1.21481e-20)
(1.0545 -0.0305048 1.99348e-21)
(-0.028691 -0.466215 3.63314e-19)
(0.379463 -0.410014 1.84069e-19)
(0.672659 -0.288273 -2.59068e-21)
(0.840449 -0.206682 -2.80107e-20)
(0.937009 -0.151007 -5.38858e-20)
(0.990346 -0.110697 0)
(1.01972 -0.0844466 -1.23469e-20)
(1.03778 -0.0593065 4.14042e-21)
(1.04677 -0.0505253 2.95118e-22)
(1.0567 -0.032068 -3.80558e-21)
(0.0993688 -0.569738 -5.91507e-19)
(0.426688 -0.520281 -9.54385e-20)
(0.705526 -0.356396 4.61468e-20)
(0.860621 -0.245681 7.33053e-22)
(0.950628 -0.172777 -1.34462e-21)
(1.00001 -0.122813 3.93489e-21)
(1.02685 -0.0913672 0)
(1.04277 -0.0631834 0)
(1.05073 -0.0530756 -5.60532e-21)
(1.05903 -0.0334303 0)
(0.282104 -0.664284 -9.2916e-20)
(0.508412 -0.616039 3.54348e-19)
(0.753963 -0.421557 -1.25399e-20)
(0.888132 -0.283125 0)
(0.967627 -0.193654 5.95943e-20)
(1.01136 -0.13433 -1.14341e-20)
(1.03487 -0.0978086 0)
(1.04822 -0.0667021 1.52714e-20)
(1.05496 -0.0552976 0)
(1.06147 -0.0345669 2.15592e-21)
(0.513403 -0.747268 -2.92572e-19)
(0.631614 -0.692281 2.47306e-19)
(0.821028 -0.479317 1.07987e-20)
(0.924737 -0.317329 0)
(0.988568 -0.213001 2.05377e-20)
(1.02449 -0.144991 2.50411e-20)
(1.04376 -0.103649 3.50556e-21)
(1.05413 -0.0697985 3.91925e-22)
(1.05945 -0.0571472 -4.05305e-21)
(1.064 -0.035456 1.55171e-21)
(0.777256 -0.816117 -1.83838e-18)
(0.791533 -0.748378 -4.82613e-19)
(0.906498 -0.525653 -7.24779e-21)
(0.971549 -0.346185 8.53494e-20)
(1.01421 -0.229842 -3.65269e-20)
(1.03965 -0.154398 1.43348e-20)
(1.05355 -0.108734 2.73437e-20)
(1.06045 -0.0724067 -2.87046e-20)
(1.06414 -0.0585838 -6.38564e-23)
(1.06659 -0.0360801 -3.61923e-21)
(1.05122 -0.867182 1.83632e-19)
(0.97349 -0.786748 1.43049e-19)
(1.00471 -0.559439 -2.60133e-20)
(1.02738 -0.368459 -2.9132e-21)
(1.04494 -0.243217 -5.72107e-20)
(1.0572 -0.162017 3.16513e-21)
(1.06436 -0.112824 -1.21957e-20)
(1.06721 -0.0744293 -1.98201e-21)
(1.06902 -0.0595585 3.90732e-21)
(1.06921 -0.0364247 -9.50308e-22)
(1.31253 -0.894806 1.00809e-19)
(1.16024 -0.808405 2.27578e-19)
(1.10673 -0.581727 0)
(1.08783 -0.384582 1.53176e-20)
(1.07979 -0.252925 5.04012e-20)
(1.07725 -0.167495 -9.55245e-22)
(1.0764 -0.11568 -4.34921e-20)
(1.07451 -0.0757441 1.17795e-20)
(1.07409 -0.0600066 -1.88636e-22)
(1.07187 -0.0364727 -1.91226e-21)
(1.5474 -0.893442 8.89364e-22)
(1.33709 -0.812192 -5.97076e-19)
(1.20553 -0.593221 1.21674e-19)
(1.14724 -0.395582 -1.14549e-20)
(1.11601 -0.259666 -1.58196e-21)
(1.09902 -0.171048 -4.49856e-20)
(1.08959 -0.117315 1.4403e-20)
(1.08245 -0.0763268 2.19809e-22)
(1.07942 -0.0599036 -1.43247e-21)
(1.07459 -0.036213 1.26657e-21)
(1.75064 -0.866588 -3.58862e-20)
(1.49272 -0.799158 -5.42729e-19)
(1.29771 -0.593388 -2.87074e-20)
(1.20203 -0.401261 -1.12683e-19)
(1.15026 -0.263962 -6.3425e-20)
(1.12061 -0.173155 -2.89982e-20)
(1.10319 -0.117988 -1.02946e-20)
(1.09079 -0.0762903 0)
(1.08495 -0.0593086 -5.04334e-21)
(1.07735 -0.0356447 4.21216e-21)
(2.02175 -0.818278 -5.23585e-19)
(1.68227 -0.756128 6.65835e-20)
(1.4141 -0.571809 -2.49278e-19)
(1.26828 -0.39399 2.01033e-20)
(1.18957 -0.260821 1.99227e-20)
(1.14533 -0.170534 -1.86152e-20)
(1.11926 -0.1154 -1.0202e-20)
(1.10104 -0.0742776 8.51688e-21)
(1.09183 -0.0573465 -3.90296e-21)
(1.0808 -0.0344451 -1.74462e-21)
(2.03724 -0.725735 1.2314e-19)
(1.64853 -0.629821 -1.35341e-19)
(1.40028 -0.460052 8.0588e-20)
(1.27527 -0.322494 -1.73678e-20)
(1.20271 -0.220905 8.47362e-20)
(1.15799 -0.148689 6.06729e-20)
(1.12996 -0.102774 4.01109e-20)
(1.10908 -0.0669551 -4.3283e-21)
(1.0981 -0.0524051 1.39217e-20)
(1.08408 -0.0317829 2.93239e-21)
(2.04302 -0.593473 -1.61245e-19)
(1.73701 -0.538629 -3.06917e-20)
(1.50092 -0.416451 2.63799e-20)
(1.35092 -0.299994 4.70191e-36)
(1.25161 -0.205685 -5.07657e-21)
(1.18707 -0.137179 -1.67101e-34)
(1.14713 -0.0938902 8.68176e-22)
(1.1192 -0.0607592 -4.40974e-35)
(1.10483 -0.0474175 1.31806e-22)
(1.0873 -0.028832 -5.18987e-22)
(2.02843 -0.49521 -4.5346e-34)
(1.74642 -0.445755 4.73975e-20)
(1.51892 -0.333189 -3.50653e-20)
(1.37099 -0.237268 0)
(1.27104 -0.164871 -3.77706e-20)
(1.20286 -0.112284 -2.76029e-20)
(1.15873 -0.0784941 -1.91129e-20)
(1.12693 -0.0514644 7.03219e-35)
(1.1104 -0.0407335 -6.13903e-21)
(1.08996 -0.0250731 2.92063e-22)
(2.01727 -0.402419 -1.00634e-19)
(1.7716 -0.360075 1.0461e-20)
(1.55352 -0.271135 0)
(1.3995 -0.194481 0)
(1.29235 -0.135035 0)
(1.21772 -0.0914223 0)
(1.16876 -0.0637634 5.15784e-22)
(1.13333 -0.0417921 8.59816e-35)
(1.11495 -0.0333863 -4.04457e-23)
(1.092 -0.020832 1.69964e-35)
(2.00915 -0.324417 -5.14162e-21)
(1.78525 -0.281599 0)
(1.57218 -0.203095 0)
(1.41416 -0.141285 0)
(1.3034 -0.0975862 0)
(1.22573 -0.0664575 0)
(1.17432 -0.046905 -1.2463e-21)
(1.13678 -0.0309943 9.38633e-21)
(1.11736 -0.0252733 -1.15988e-22)
(1.09264 -0.0161285 1.54778e-21)
(1.98907 -0.25359 0)
(1.77383 -0.205227 -4.68248e-21)
(1.56341 -0.137622 -2.92347e-20)
(1.4048 -0.0906535 0)
(1.2954 -0.0614168 -1.92108e-20)
(1.21946 -0.0417692 -1.32335e-20)
(1.16904 -0.0298453 -1.01498e-20)
(1.13187 -0.0199257 -5.2506e-21)
(1.11271 -0.0168359 5.40007e-21)
(1.08752 -0.0111551 -1.21915e-21)
(1.8848 -0.18205 8.45218e-21)
(1.66659 -0.128319 1.31983e-20)
(1.46902 -0.0728916 -1.1855e-20)
(1.32604 -0.0420915 -2.511e-36)
(1.23154 -0.0276792 4.92701e-21)
(1.16747 -0.0190784 -8.99105e-35)
(1.12496 -0.0140858 -1.67258e-21)
(1.09323 -0.00962209 -2.71511e-21)
(1.07686 -0.00875755 -2.18571e-22)
(1.05405 -0.00625005 4.04855e-22)
(1.48677 -0.103943 -3.46654e-20)
(1.28367 -0.0548766 1.58555e-20)
(1.14041 -0.0146511 2.16944e-20)
(1.0551 0.000344153 0)
(1.00476 0.00138033 1.02246e-20)
(0.970859 0.000181156 6.34783e-21)
(0.947474 -0.000773209 2.26156e-21)
(0.929171 -0.000919848 2.6258e-21)
(0.919571 -0.00182991 -3.07059e-21)
(0.903989 -0.0019462 -4.73952e-23)
(0.548918 -0.00953751 0)
(0.443516 0.00135978 0)
(0.410331 0.0068141 0)
(0.414367 0.00620722 0)
(0.424543 0.00387803 0)
(0.430382 0.00231946 0)
(0.432831 0.00142201 -1.86928e-21)
(0.433096 0.000838322 5.52538e-36)
(0.433158 0.000376887 -2.97085e-22)
(0.429411 -1.05727e-06 -5.48752e-22)
(2.43448 0.123344 9.31291e-19)
(2.44998 0.0294987 6.06148e-20)
(2.46548 -0.0639674 -1.11516e-19)
(2.45288 -0.153444 -3.55697e-19)
(2.45368 -0.244069 -9.05799e-20)
(2.40604 -0.326049 -1.53972e-19)
(2.40159 -0.413026 -5.12373e-19)
(2.28754 -0.484348 1.17761e-19)
(2.28773 -0.56494 0)
(2.03099 -0.6126 1.58478e-19)
(2.3306 0.104743 2.78684e-19)
(2.3406 0.0240183 -3.53734e-19)
(2.3708 -0.0429947 -5.2277e-20)
(2.35507 -0.126032 -1.57395e-19)
(2.37751 -0.190958 9.63202e-20)
(2.33434 -0.276427 2.10535e-19)
(2.35209 -0.338175 -2.11461e-19)
(2.28052 -0.428898 2.57346e-20)
(2.28386 -0.485536 -6.31218e-20)
(2.19177 -0.584516 1.03549e-19)
(2.25577 0.08662 -1.30946e-19)
(2.26888 0.012752 2.80635e-19)
(2.29336 -0.033846 2.01075e-19)
(2.28883 -0.112513 -3.0287e-19)
(2.29951 -0.154912 1.03633e-20)
(2.27999 -0.238911 3.58486e-19)
(2.2748 -0.276532 2.80352e-20)
(2.24632 -0.368562 -3.06161e-20)
(2.22031 -0.401053 -1.46915e-21)
(2.19076 -0.503858 5.1999e-21)
(2.20008 0.0618143 -2.94496e-19)
(2.21961 -0.00111056 -1.26354e-20)
(2.23583 -0.0364038 -3.14781e-20)
(2.24257 -0.103858 -4.06995e-20)
(2.24209 -0.135503 -1.50819e-19)
(2.2379 -0.207241 -1.1769e-19)
(2.22037 -0.23466 2.07713e-19)
(2.20815 -0.311761 8.86202e-21)
(2.17481 -0.335861 2.48364e-20)
(2.15743 -0.418661 2.3378e-20)
(2.15643 0.0365272 5.53236e-20)
(2.17855 -0.0139789 1.11206e-19)
(2.19144 -0.0434255 -4.85661e-20)
(2.20237 -0.0972198 2.49544e-19)
(2.2002 -0.12375 -2.94082e-20)
(2.20035 -0.180464 -2.40964e-19)
(2.18362 -0.2031 3.84148e-20)
(2.17389 -0.263571 -1.20775e-19)
(2.14414 -0.282767 9.48904e-20)
(2.12641 -0.347028 6.55148e-20)
(2.11835 0.011423 -1.59769e-19)
(2.13984 -0.0277533 -7.96147e-20)
(2.15267 -0.0526521 1.88093e-20)
(2.16376 -0.0938201 1.21119e-19)
(2.16416 -0.116306 1.98353e-19)
(2.16472 -0.159381 -7.07885e-20)
(2.15271 -0.178373 6.22279e-21)
(2.14334 -0.223844 -3.44404e-21)
(2.11928 -0.239039 2.03668e-20)
(2.10192 -0.28651 -7.13025e-20)
(2.07396 -0.0120596 -6.04917e-20)
(2.09331 -0.0415973 -1.25934e-19)
(2.10576 -0.0615062 -1.20187e-19)
(2.11621 -0.0921461 -2.33862e-19)
(2.11838 -0.109939 3.00224e-20)
(2.12041 -0.141972 3.80527e-20)
(2.11174 -0.156509 3.46518e-20)
(2.1067 -0.190033 3.5413e-20)
(2.08605 -0.20018 -7.66752e-20)
(2.07663 -0.234782 -1.82407e-20)
(1.97936 -0.0315689 5.70013e-20)
(1.99314 -0.0517346 4.70898e-20)
(1.99965 -0.0655561 2.06663e-20)
(2.00808 -0.0864972 -4.0756e-20)
(2.00558 -0.0984056 -3.71706e-20)
(2.01094 -0.120555 -2.69682e-21)
(1.99838 -0.129357 -3.24252e-20)
(2.00401 -0.152729 2.52371e-20)
(1.97852 -0.156958 -1.58816e-20)
(1.98934 -0.181391 4.77816e-20)
(1.68836 -0.0424664 -4.81598e-20)
(1.68443 -0.0525549 9.79875e-22)
(1.67474 -0.0596319 9.39986e-20)
(1.66911 -0.0694731 -3.71987e-21)
(1.65322 -0.0748345 -2.38575e-20)
(1.65025 -0.0850371 4.51356e-20)
(1.62682 -0.0881219 -2.48043e-20)
(1.63219 -0.0992591 8.64058e-21)
(1.59637 -0.0988261 1.50617e-20)
(1.61943 -0.111588 3.7668e-20)
(0.845281 -0.0157569 4.49301e-20)
(0.819923 -0.0152847 3.42892e-20)
(0.795289 -0.0145722 3.25926e-20)
(0.771514 -0.0141403 4.96596e-20)
(0.74779 -0.0134916 -2.33956e-20)
(0.727104 -0.0133507 -2.31123e-20)
(0.704007 -0.013119 7.62331e-21)
(0.689741 -0.013465 -1.29468e-21)
(0.66237 -0.012688 1.6828e-21)
(0.665843 -0.0164173 -2.27421e-21)
(1.53166 0.905101 -7.79715e-20)
(1.51468 0.950812 2.83816e-20)
(1.51661 1.00387 -5.90564e-19)
(1.52395 1.06445 2.47695e-19)
(1.52959 1.12878 1.10322e-18)
(1.52522 1.18949 -1.55482e-19)
(1.49012 1.22585 -1.01248e-18)
(1.37629 1.18833 -3.26839e-20)
(1.0966 0.982777 -5.10395e-19)
(0.519727 0.480011 1.38025e-19)
(1.69645 0.873646 0)
(1.68457 0.918775 7.04732e-19)
(1.68296 0.968867 1.56104e-18)
(1.68977 1.02761 -9.491e-19)
(1.69879 1.09123 -2.22671e-18)
(1.69829 1.15096 -1.58917e-19)
(1.6624 1.18489 -2.02608e-19)
(1.53543 1.14406 7.32388e-19)
(1.21958 0.938951 1.04857e-18)
(0.573698 0.452591 4.46265e-19)
(1.84925 0.836468 7.16242e-20)
(1.84689 0.881113 0)
(1.84701 0.928223 -7.24845e-20)
(1.8545 0.982451 9.69553e-19)
(1.86566 1.04144 5.89016e-20)
(1.86704 1.09637 -2.22901e-18)
(1.82801 1.12481 1.3974e-18)
(1.6853 1.07934 8.5442e-19)
(1.33173 0.877349 -9.19839e-19)
(0.620106 0.41583 -2.99515e-19)
(1.98361 0.785801 -1.69794e-19)
(1.99171 0.829194 -1.28197e-19)
(1.99812 0.87344 2.75676e-19)
(2.00927 0.922928 -3.41902e-19)
(2.02309 0.976231 -1.60251e-18)
(2.02525 1.02465 -1.23019e-18)
(1.98074 1.04601 1.31298e-18)
(1.8196 0.995319 8.36197e-19)
(1.42669 0.798535 0)
(0.654659 0.369642 0)
(2.10296 0.72299 -9.37748e-19)
(2.11995 0.763447 -1.67139e-18)
(2.13359 0.803946 -6.51274e-19)
(2.14953 0.848183 -3.76082e-20)
(2.16596 0.894952 0)
(2.16721 0.935831 1.53497e-19)
(2.11457 0.948669 1.7984e-19)
(1.93083 0.891929 2.24419e-19)
(1.49641 0.703317 -3.27522e-19)
(0.673214 0.31513 -8.23413e-20)
(2.20592 0.645434 1.12176e-18)
(2.23108 0.682118 -4.75508e-20)
(2.25207 0.718481 -1.31748e-18)
(2.27306 0.757422 0)
(2.29148 0.797383 0)
(2.28997 0.828816 0)
(2.22441 0.832664 1.55731e-18)
(2.01238 0.772595 -1.72842e-18)
(1.53594 0.59474 -1.11752e-18)
(0.673557 0.254354 -4.87972e-21)
(2.29657 0.558044 -1.49098e-18)
(2.32717 0.589697 -3.1277e-18)
(2.35366 0.620938 -5.41495e-21)
(2.37836 0.653645 6.26212e-19)
(2.39682 0.685712 -4.41667e-20)
(2.38826 0.708305 1.34668e-18)
(2.30371 0.703349 -7.30435e-19)
(2.05888 0.639773 -2.05035e-18)
(1.54138 0.476194 1.56903e-19)
(0.654294 0.191001 1.1226e-19)
(2.37223 0.459979 -1.19671e-18)
(2.40714 0.486008 1.88079e-20)
(2.43739 0.511963 4.55339e-19)
(2.46369 0.538411 -4.36078e-19)
(2.47893 0.562656 6.66374e-19)
(2.45835 0.57637 1.82101e-18)
(2.34911 0.56327 -2.1001e-19)
(2.06651 0.498224 -1.113e-18)
(1.50978 0.353553 2.67288e-19)
(0.615622 0.129204 4.84649e-20)
(2.43508 0.357312 4.46714e-19)
(2.47117 0.377866 9.68839e-20)
(2.5024 0.397769 -4.72163e-19)
(2.52726 0.417132 -1.07473e-18)
(2.53502 0.433016 9.65417e-20)
(2.49645 0.437734 9.27472e-20)
(2.35552 0.417643 -1.45618e-18)
(2.03052 0.354368 5.84431e-19)
(1.43906 0.233668 1.7664e-19)
(0.558852 0.0730065 -1.22262e-19)
(2.48098 0.249727 8.65393e-19)
(2.51747 0.265346 -1.29082e-18)
(2.54762 0.27926 2.06101e-19)
(2.56759 0.291655 2.57012e-18)
(2.56257 0.29963 1.28504e-18)
(2.49881 0.296547 -2.74879e-18)
(2.31867 0.272115 -2.61772e-18)
(1.94806 0.21506 1.18298e-18)
(1.32999 0.123507 -1.2358e-20)
(0.487071 0.026041 -2.36925e-20)
(0.52604 0.343641 -1.63692e-19)
(0.486617 0.35624 -1.65345e-19)
(0.442201 0.369762 7.29108e-20)
(0.393403 0.384308 -2.41764e-19)
(0.339943 0.399737 -2.1063e-20)
(0.281031 0.414882 2.26341e-19)
(0.215791 0.424925 3.98639e-20)
(0.144813 0.415546 -2.13124e-21)
(0.0750323 0.354255 1.77632e-20)
(0.0150734 0.184058 1.46579e-20)
(0.56744 0.447821 1.36272e-19)
(0.528753 0.466794 1.7513e-19)
(0.485802 0.487264 4.77339e-20)
(0.438849 0.509365 -5.47182e-20)
(0.387377 0.532882 -2.34386e-19)
(0.330377 0.556126 -1.23694e-20)
(0.26633 0.572315 7.74759e-20)
(0.1941 0.561631 3.50357e-20)
(0.117129 0.479472 -1.14816e-19)
(0.0369941 0.248911 -3.95025e-20)
(0.627195 0.545855 -1.20153e-19)
(0.589752 0.570609 -1.08756e-19)
(0.548975 0.597306 1.06893e-19)
(0.504697 0.626321 7.9546e-20)
(0.45615 0.657518 -7.96051e-20)
(0.402068 0.688779 -3.93967e-20)
(0.339996 0.7114 -1.09139e-19)
(0.266177 0.700074 -6.16272e-20)
(0.178616 0.598265 -6.40445e-20)
(0.0688923 0.310136 1.48481e-21)
(0.702861 0.639434 4.46767e-20)
(0.667142 0.670365 -4.83428e-20)
(0.629528 0.703251 -9.11449e-20)
(0.588964 0.738682 -3.64695e-20)
(0.544232 0.77658 -7.43145e-20)
(0.493794 0.814417 2.63685e-21)
(0.434151 0.841712 -2.56781e-19)
(0.35829 0.828232 3.43988e-20)
(0.257086 0.706933 -3.07039e-19)
(0.109496 0.36543 5.11467e-20)
(0.793076 0.719107 2.68425e-22)
(0.759602 0.754922 9.93917e-21)
(0.72607 0.793126 -5.04885e-20)
(0.69067 0.83473 -2.55671e-19)
(0.65153 0.879539 1.16501e-19)
(0.606382 0.924382 1.06014e-20)
(0.550133 0.956967 7.50477e-20)
(0.471688 0.942352 -1.37134e-19)
(0.353054 0.803665 3.73142e-19)
(0.158637 0.413984 2.74859e-19)
(0.89726 0.796265 -7.42292e-20)
(0.865541 0.836752 -1.64198e-19)
(0.835368 0.878568 5.36327e-20)
(0.804258 0.923966 1.02013e-19)
(0.770277 0.973302 3.39812e-19)
(0.730769 1.02285 2.35113e-19)
(0.678682 1.05826 6.01178e-19)
(0.597894 1.0402 2.53927e-19)
(0.460162 0.884087 1.64944e-19)
(0.213447 0.4529 2.12419e-19)
(1.01037 0.849367 -1.10157e-19)
(0.98408 0.894477 5.52556e-19)
(0.961162 0.940801 3.57231e-19)
(0.937321 0.990642 -4.47162e-19)
(0.909891 1.04445 -2.24134e-19)
(0.875997 1.09838 6.4316e-19)
(0.827082 1.13671 -1.09052e-19)
(0.741797 1.11631 -4.20001e-19)
(0.58055 0.945964 -8.39076e-21)
(0.2738 0.481501 2.51195e-19)
(1.12892 0.902683 2.78722e-19)
(1.10304 0.948485 6.1049e-20)
(1.08473 0.995316 -7.49115e-19)
(1.06868 1.04713 1.41619e-19)
(1.05052 1.10369 5.39572e-19)
(1.02536 1.15982 -3.17533e-19)
(0.981766 1.19807 -8.90476e-20)
(0.892464 1.17262 -1.7509e-19)
(0.70622 0.988314 1.77675e-20)
(0.336107 0.498696 -3.12473e-19)
(1.25755 0.922118 2.12572e-20)
(1.24192 0.972062 -5.38359e-19)
(1.23105 1.0203 -4.43301e-21)
(1.22058 1.07343 4.50266e-19)
(1.20807 1.13253 -4.58513e-19)
(1.18872 1.19159 9.01924e-19)
(1.14817 1.231 6.12249e-19)
(1.05218 1.20221 -9.20703e-19)
(0.837137 1.00797 -6.44611e-20)
(0.399329 0.503757 -3.36498e-19)
(1.36084 0.932838 -3.14822e-19)
(1.3557 0.983435 -3.01721e-19)
(1.36158 1.03351 2.97256e-19)
(1.36592 1.08783 7.35557e-19)
(1.36506 1.14694 2.73049e-19)
(1.35449 1.20515 -7.43124e-19)
(1.31783 1.24222 7.50822e-20)
(1.21433 1.20838 2.0311e-19)
(0.968329 1.00643 -2.76942e-19)
(0.461167 0.497488 -2.39882e-19)
(0.950987 0.0153033 1.67826e-21)
(1.03977 0.033898 -1.89668e-20)
(1.01169 0.0587595 -1.60051e-20)
(1.02429 0.0840583 0)
(1.02855 0.100671 2.24675e-20)
(1.00502 0.122607 3.11018e-20)
(0.981439 0.141053 4.12263e-20)
(0.925082 0.173487 8.76599e-20)
(0.849048 0.22412 -1.26951e-19)
(0.698124 0.280967 -1.87509e-19)
(0.951098 0.0135507 4.04987e-20)
(1.03856 0.0314334 -6.22479e-20)
(1.01053 0.056621 8.83023e-23)
(1.02402 0.0834444 -2.0472e-20)
(1.03038 0.103792 1.11502e-20)
(1.00938 0.128048 -1.5471e-20)
(0.988406 0.153297 -9.67297e-20)
(0.938415 0.192764 0)
(0.863966 0.260554 2.62078e-19)
(0.73359 0.349486 -2.74695e-19)
(0.950897 0.0119967 -3.14691e-20)
(1.0381 0.0291283 1.73571e-20)
(1.00974 0.054512 4.42747e-20)
(1.02464 0.0827239 1.11276e-20)
(1.03256 0.106367 -2.65771e-20)
(1.01528 0.133325 1.30771e-21)
(0.995637 0.164623 -6.65766e-20)
(0.955912 0.211891 -5.60979e-21)
(0.881267 0.295711 2.16375e-23)
(0.782924 0.415416 7.48798e-19)
(0.950415 0.0105668 -3.24121e-20)
(1.03832 0.0269288 2.70112e-21)
(1.00929 0.0524134 3.63155e-20)
(1.02604 0.0819624 2.26016e-20)
(1.03523 0.108343 -1.30182e-20)
(1.02253 0.138593 -1.72943e-20)
(1.0035 0.174786 9.64041e-20)
(0.977188 0.231107 -1.58335e-21)
(0.901211 0.328639 -2.87714e-19)
(0.845608 0.47732 8.9628e-20)
(0.949687 0.00922591 2.29151e-20)
(1.03914 0.0247847 -3.35244e-20)
(1.00915 0.0503153 -2.88495e-20)
(1.02811 0.0811822 1.31849e-20)
(1.03857 0.109702 0)
(1.03083 0.143976 0)
(1.01258 0.18352 8.05632e-20)
(1.00141 0.250808 2.32188e-22)
(0.924734 0.358486 -1.31296e-19)
(0.919784 0.534238 9.7405e-20)
(0.948744 0.00792055 6.31587e-21)
(1.04049 0.0226424 2.76177e-20)
(1.00931 0.0482186 -7.63436e-20)
(1.03072 0.0803607 -2.64587e-20)
(1.04277 0.110467 -5.7675e-22)
(1.0398 0.149549 7.15982e-20)
(1.02348 0.190526 1.23011e-19)
(1.02802 0.27141 -8.40744e-22)
(0.951209 0.383649 2.16448e-19)
(1.00753 0.589353 -2.23451e-19)
(0.947614 0.00658295 -2.64176e-20)
(1.04233 0.0204486 1.48002e-20)
(1.00975 0.0461334 -1.99728e-20)
(1.03379 0.0794297 -5.53759e-20)
(1.04801 0.110718 1.87225e-21)
(1.04906 0.155186 -1.69712e-21)
(1.03708 0.195825 -6.98193e-21)
(1.05515 0.292369 -2.36301e-19)
(0.985935 0.404545 1.59278e-19)
(1.09473 0.631297 -5.41811e-19)
(0.946277 0.00518787 -3.71365e-21)
(1.04463 0.0181471 -4.37623e-20)
(1.0105 0.0440688 4.03719e-20)
(1.03733 0.0782889 3.0211e-20)
(1.05437 0.110581 9.86853e-22)
(1.05846 0.160602 -8.22245e-20)
(1.05352 0.199606 -6.6196e-20)
(1.08399 0.313602 4.19391e-19)
(1.0215 0.421354 1.46482e-20)
(1.20607 0.687041 8.52262e-19)
(0.94462 0.00372742 1.76486e-20)
(1.04743 0.0156924 2.02382e-20)
(1.0116 0.0420534 4.49666e-20)
(1.04148 0.0768693 -3.29553e-20)
(1.06189 0.11019 -8.74278e-20)
(1.06783 0.165512 1.31916e-21)
(1.07402 0.201105 -9.01238e-20)
(1.11088 0.333161 5.42894e-19)
(1.07734 0.424052 -8.95668e-21)
(1.27829 0.704708 -1.17845e-18)
(0.942405 0.00230472 7.93069e-22)
(1.05085 0.0131448 3.20416e-20)
(1.01311 0.0402237 1.56466e-20)
(1.04642 0.075372 -6.67596e-20)
(1.07006 0.110589 -8.30302e-20)
(1.07717 0.169959 -6.88078e-20)
(1.09425 0.208394 -1.62355e-19)
(1.13454 0.354505 -4.90439e-19)
(1.13044 0.448289 -2.65736e-19)
(1.41503 0.771822 -1.25263e-18)
(0.93894 -0.000126992 -2.35907e-21)
(1.05537 0.00913798 -7.2418e-21)
(1.01607 0.0360081 -1.68266e-20)
(1.05244 0.0708068 3.40296e-20)
(1.08238 0.105631 5.9164e-20)
(1.09116 0.170254 -4.53337e-20)
(1.1242 0.195659 1.49934e-19)
(1.17706 0.364576 -4.58493e-19)
(1.20067 0.392474 -1.9905e-19)
(1.42481 0.762207 6.69126e-19)
(0.937336 -0.00429771 4.09931e-21)
(1.05967 0.00314615 1.59928e-20)
(1.02241 0.0284158 -1.02025e-20)
(1.06035 0.0618792 6.56611e-20)
(1.09831 0.0960176 9.53256e-20)
(1.1027 0.162142 1.33303e-19)
(1.16832 0.173554 3.27075e-20)
(1.19869 0.352564 2.26912e-19)
(1.29176 0.344567 3.30957e-19)
(1.45209 0.662753 1.76566e-20)
(0.936197 -0.00904594 -2.79203e-21)
(1.06474 -0.00400562 -4.21578e-21)
(1.03047 0.0202156 2.78377e-21)
(1.07079 0.0517063 5.52526e-21)
(1.11234 0.0865055 2.78976e-34)
(1.118 0.148733 -7.98859e-21)
(1.20415 0.151279 -5.7216e-34)
(1.21565 0.333381 2.03574e-20)
(1.35351 0.287568 -5.83387e-20)
(1.50719 0.570553 -5.7472e-20)
(0.934886 -0.014918 1.47239e-20)
(1.07134 -0.0128975 -4.74445e-35)
(1.04004 0.0110135 -3.25756e-21)
(1.08355 0.0408556 -2.96223e-20)
(1.12302 0.0763655 -4.36866e-20)
(1.14044 0.131612 -4.38876e-20)
(1.22154 0.130613 -7.11915e-34)
(1.24414 0.307499 -8.84966e-20)
(1.39266 0.230092 -1.55392e-19)
(1.55063 0.478128 9.89653e-20)
(0.933212 -0.0222531 0)
(1.08009 -0.0232557 8.5353e-35)
(1.05183 -0.000449178 0)
(1.09791 0.0293589 0)
(1.13183 0.0644468 0)
(1.16604 0.112848 0)
(1.22576 0.111022 -4.59245e-34)
(1.28192 0.27155 0)
(1.41839 0.180536 -2.13764e-20)
(1.57035 0.38779 5.88582e-20)
(0.931229 -0.0308634 4.28381e-21)
(1.09109 -0.0356412 8.50971e-21)
(1.06593 -0.0105752 -4.27232e-21)
(1.11334 0.0200973 0)
(1.14076 0.0522161 0)
(1.18898 0.0936827 6.88455e-21)
(1.22717 0.0920026 3.82465e-20)
(1.31653 0.226616 -1.51764e-20)
(1.43678 0.140041 -3.16331e-20)
(1.57701 0.304059 2.22799e-19)
(0.92996 -0.0450312 -7.53257e-20)
(1.10513 -0.054128 -2.39387e-21)
(1.08075 -0.0263678 -4.79043e-21)
(1.12543 0.00778603 -1.67858e-20)
(1.14661 0.038009 -2.13087e-20)
(1.20426 0.0728726 -1.16683e-20)
(1.22878 0.0734578 -3.09401e-20)
(1.33962 0.175873 -3.29553e-20)
(1.44935 0.106204 -5.95541e-20)
(1.58082 0.226686 8.13936e-20)
(0.933012 -0.0514461 -8.10985e-21)
(1.11317 -0.0632458 -1.79246e-20)
(1.07588 -0.0307563 -5.30812e-21)
(1.11566 0.00405143 -5.22399e-21)
(1.13103 0.0271222 5.16195e-36)
(1.19645 0.0521472 7.39885e-21)
(1.21156 0.0554302 -9.38684e-34)
(1.34506 0.122066 -1.50475e-20)
(1.43784 0.0748319 2.01034e-20)
(1.58221 0.153942 2.74496e-20)
(0.939046 -0.0900107 1.92576e-19)
(1.06155 -0.091663 -3.47558e-21)
(0.967403 -0.0494605 -5.57147e-21)
(0.990625 -0.00724922 1.23376e-20)
(1.00045 0.0114945 1.00245e-20)
(1.07414 0.0298793 1.63224e-20)
(1.08401 0.0351348 1.31314e-20)
(1.25283 0.06821 -8.9922e-21)
(1.30625 0.0454164 -2.13452e-20)
(1.49887 0.0856158 1.42674e-19)
(0.823708 -0.0451572 1.00135e-20)
(0.737012 -0.0350427 -9.29523e-35)
(0.540455 -0.0127648 -6.71234e-21)
(0.530295 -0.00182966 0)
(0.526519 0.0019559 0)
(0.574377 0.00703859 7.55649e-21)
(0.598973 0.00598141 -7.04733e-36)
(0.722483 0.013808 -1.47989e-20)
(0.767884 0.00708737 -2.97553e-20)
(0.919006 0.0157132 5.94883e-20)
(1.63146 0.792531 -2.0016e-19)
(1.73487 0.770939 -2.99904e-19)
(1.8518 0.739003 0)
(1.96091 0.691929 1.45572e-19)
(2.06192 0.634632 6.44114e-19)
(2.14891 0.564173 -1.3423e-19)
(2.22956 0.486942 1.75348e-18)
(2.29525 0.401007 -8.44224e-20)
(2.35517 0.311571 -4.05871e-19)
(2.39739 0.217344 3.6887e-19)
(1.66254 0.643421 9.83512e-20)
(1.7435 0.623468 1.20937e-19)
(1.83688 0.593982 -1.11978e-20)
(1.92542 0.549882 2.14764e-19)
(2.00925 0.501737 -1.81286e-19)
(2.07874 0.441407 -4.32795e-19)
(2.14661 0.382865 -1.27446e-19)
(2.19873 0.312478 5.9993e-19)
(2.25454 0.248242 -2.38007e-20)
(2.28794 0.171621 -5.24499e-19)