/*--------------------------------*- C++ -*----------------------------------*\
  =========                 |
  \\      /  F ield         | OpenFOAM: The Open Source CFD Toolbox
   \\    /   O peration     | Website:  https://openfoam.org
    \\  /    A nd           | Version:  13
     \\/     M anipulation  |
\*---------------------------------------------------------------------------*/
FoamFile
{
    format      ascii;
    class       volVectorField;
    location    "0.14";
    object      U;
}
// * * * * * * * * * * * * * * * * * * * * * * * * * * * * * * * * * * * * * //

dimensions      [0 1 -1 0 0 0 0];

internalField   nonuniform List<vector> 
440
(
(0.218235 -0.176666 -1.81263e-19)
(0.613079 -0.436661 1.07568e-18)
(0.984361 -0.641041 4.17301e-19)
(1.32769 -0.795778 1.2543e-18)
(1.63282 -0.917415 -2.60283e-19)
(0.304871 -0.177668 -5.43971e-19)
(0.819134 -0.428688 -1.01886e-18)
(1.28003 -0.618938 1.15373e-19)
(1.69203 -0.761776 -1.21508e-18)
(2.05394 -0.875375 -1.0216e-18)
(0.384871 -0.1524 -6.97796e-19)
(1.00469 -0.363001 1.58965e-18)
(1.53981 -0.518383 -1.93301e-18)
(2.00482 -0.632661 1.38533e-18)
(2.4061 -0.721554 1.42617e-18)
(0.445876 -0.102745 5.62322e-19)
(1.14613 -0.243079 -1.29938e-18)
(1.73751 -0.344808 -7.51338e-19)
(2.24304 -0.418224 1.96456e-18)
(2.67459 -0.474483 2.50116e-18)
(0.479275 -0.0361591 6.86981e-19)
(1.22368 -0.0847549 1.69246e-19)
(1.84597 -0.119366 2.53102e-18)
(2.37412 -0.143874 -1.06275e-18)
(2.82306 -0.162517 -4.84253e-19)
(-0.00188706 -0.0532673 2.7854e-19)
(0.047323 -0.149467 -2.80562e-19)
(0.102376 -0.23005 1.02859e-18)
(0.16708 -0.301406 -1.7559e-19)
(0.234527 -0.36397 -1.63631e-18)
(0.0136705 -0.0849507 -2.90098e-19)
(0.0887895 -0.230167 -5.70156e-19)
(0.173229 -0.354792 1.05886e-19)
(0.267167 -0.456565 6.06071e-20)
(0.363193 -0.537798 -4.02267e-20)
(0.0435125 -0.114471 6.20324e-20)
(0.165695 -0.304214 5.98043e-19)
(0.296398 -0.469821 9.61721e-20)
(0.433089 -0.602825 1.38081e-18)
(0.568174 -0.702461 -2.4051e-20)
(0.0867148 -0.141069 6.67165e-20)
(0.276587 -0.368314 -4.08952e-20)
(0.469805 -0.564264 2.27441e-19)
(0.661823 -0.720817 -1.99136e-18)
(0.844653 -0.833655 9.49117e-19)
(0.142136 -0.161724 -2.34552e-19)
(0.420144 -0.413027 -4.39761e-19)
(0.691547 -0.622033 -7.60861e-19)
(0.950412 -0.78359 9.41797e-19)
(1.18565 -0.894692 3.42202e-18)
(0.58396 -0.605087 -4.31102e-18)
(0.94796 -0.501001 1.15466e-18)
(1.228 -0.206437 3.3564e-19)
(1.30556 -0.0779632 -6.96322e-19)
(1.33918 -0.0210966 -1.25898e-19)
(0.781482 -0.753991 5.0337e-18)
(1.03025 -0.602633 -3.38695e-19)
(1.26448 -0.251633 -1.7883e-19)
(1.32798 -0.0934891 3.61814e-19)
(1.35015 -0.0250665 2.26299e-19)
(1.03519 -0.886518 1.55652e-18)
(1.16515 -0.68465 3.92943e-18)
(1.30128 -0.294501 9.42487e-20)
(1.35147 -0.106551 4.15479e-19)
(1.36269 -0.0282389 -8.61318e-20)
(1.33047 -0.995879 1.27077e-18)
(1.34221 -0.744897 -4.1751e-19)
(1.35549 -0.33103 -6.8767e-19)
(1.37426 -0.115795 -2.5061e-19)
(1.37617 -0.0303843 1.49146e-20)
(1.63083 -1.0538 -3.85917e-20)
(1.53491 -0.787095 -1.53813e-18)
(1.4218 -0.364792 0)
(1.39384 -0.125809 2.79549e-19)
(1.38951 -0.0318861 5.09072e-20)
(2.15653 -1.11781 -1.61082e-18)
(1.80601 -0.780947 -4.81857e-19)
(1.54084 -0.368298 -1.56096e-21)
(1.43272 -0.125601 -3.65307e-21)
(1.40582 -0.0305925 -1.10403e-19)
(2.63353 -0.890738 -1.60844e-18)
(1.90336 -0.580557 2.6486e-18)
(1.5149 -0.25945 7.96067e-21)
(1.35998 -0.089843 2.78272e-19)
(1.31165 -0.0208165 0)
(2.48048 -0.523175 -6.94648e-18)
(1.60853 -0.328005 -1.50074e-19)
(1.18683 -0.143901 2.06559e-18)
(1.02671 -0.0541584 -2.97117e-19)
(0.984095 -0.012841 -2.83018e-20)
(1.76215 -0.220407 6.84416e-18)
(1.08659 -0.132159 1.40724e-18)
(0.766776 -0.0579335 2.3663e-19)
(0.648949 -0.0235985 2.94287e-33)
(0.616586 -0.00545631 -1.59753e-19)
(0.682633 2.97068e-05 1.57454e-18)
(0.394062 0.0233591 7.44029e-19)
(0.272541 0.0205618 -4.54703e-19)
(0.229227 0.00794954 1.48636e-19)
(0.213907 0.00281884 -3.9388e-20)
(3.58201 -0.168232 1.25636e-17)
(3.41737 -0.503003 -1.04411e-17)
(3.13691 -0.787138 7.10303e-18)
(2.78079 -0.996417 2.32119e-18)
(2.3332 -1.10238 -4.16187e-19)
(3.78465 -0.103665 1.03957e-17)
(3.71759 -0.324542 -6.63968e-19)
(3.5779 -0.551921 -4.27051e-18)
(3.3785 -0.785851 2.69075e-18)
(3.10054 -1.01986 -6.62305e-19)
(3.11488 -0.0605666 3.65428e-18)
(3.09869 -0.181797 -2.51862e-18)
(3.05967 -0.309883 5.01257e-18)
(2.99906 -0.445144 -1.52576e-19)
(2.92472 -0.593955 -4.79055e-18)
(2.19085 -0.0276205 2.78849e-18)
(2.1838 -0.0834488 8.4296e-18)
(2.16451 -0.144194 -6.53166e-19)
(2.13385 -0.207605 -6.60447e-18)
(2.11273 -0.269893 1.94512e-18)
(0.87943 -0.00184114 5.21235e-18)
(0.876467 -0.00524434 -1.16379e-19)
(0.867296 -0.00958423 -4.27711e-20)
(0.85033 -0.0162928 -2.00772e-18)
(0.840845 -0.0229839 -3.59836e-18)
(1.65269 0.939441 2.26246e-18)
(1.34805 0.816413 -7.5111e-20)
(1.0033 0.658561 -3.34308e-20)
(0.627892 0.449501 -1.96318e-19)
(0.22527 0.182337 -1.34658e-19)
(2.07022 0.892248 -1.21634e-18)
(1.7105 0.777646 -1.19369e-18)
(1.29825 0.632587 7.33706e-19)
(0.834042 0.438758 -4.84703e-19)
(0.312167 0.182111 -4.24345e-21)
(2.41847 0.735708 -5.92053e-19)
(2.01958 0.645296 5.25242e-19)
(1.55496 0.528746 2.43785e-18)
(1.01753 0.370201 8.08525e-19)
(0.391344 0.155289 5.26194e-19)
(2.68202 0.486632 1.26118e-20)
(2.25239 0.42825 -2.72387e-19)
(1.74744 0.352308 -6.46607e-19)
(1.15478 0.247643 2.05681e-18)
(0.450334 0.104146 -3.26838e-19)
(2.82554 0.173821 -1.1713e-18)
(2.37734 0.15262 -1.60646e-18)
(1.84946 0.125335 -7.28812e-19)
(1.22675 0.0878316 7.96273e-19)
(0.480874 0.0366874 -3.25792e-19)
(0.236003 0.417051 -2.09637e-18)
(0.166995 0.353469 -1.74523e-18)
(0.100735 0.276684 2.84811e-19)
(0.0443149 0.182756 -8.38971e-21)
(-0.00194953 0.0668558 3.97694e-20)
(0.369961 0.591809 -7.98921e-19)
(0.273269 0.507669 -6.12765e-19)
(0.178191 0.39708 -2.38725e-21)
(0.0922319 0.257569 -2.01877e-20)
(0.0165766 0.0955836 2.03986e-20)
(0.581828 0.750452 2.14205e-18)
(0.446298 0.647171 -1.48711e-19)
(0.307925 0.505154 -1.27421e-19)
(0.174278 0.327145 -2.16762e-19)
(0.0481476 0.123394 1.71255e-19)
(0.862119 0.872754 -1.29528e-18)
(0.679266 0.756778 1.98002e-18)
(0.485334 0.593064 3.15187e-19)
(0.288312 0.387794 1.00258e-19)
(0.0924193 0.148995 -1.1689e-19)
(1.20348 0.924143 -4.44034e-19)
(0.969042 0.81113 -4.59912e-19)
(0.708608 0.644732 3.63404e-19)
(0.433369 0.429053 3.6146e-19)
(0.148471 0.168547 1.90166e-21)
(0.851686 0.148701 -5.52442e-19)
(1.40088 0.148646 7.36855e-20)
(1.20632 0.210015 2.98144e-20)
(0.981801 0.491951 -3.68104e-19)
(0.587986 0.645198 -1.07814e-19)
(0.844259 0.0907348 2.13518e-19)
(1.40428 0.139437 2.94973e-19)
(1.23692 0.240837 2.04952e-21)
(1.043 0.594647 -1.04224e-19)
(0.781263 0.798351 7.84831e-19)
(0.838479 0.034198 -1.1842e-19)
(1.42049 0.126136 -2.28953e-20)
(1.26274 0.271415 -7.50168e-20)
(1.16026 0.678794 -4.91822e-19)
(1.03663 0.930328 2.29001e-19)
(0.834884 -0.0211889 -3.15921e-20)
(1.44511 0.109486 -5.58458e-19)
(1.30237 0.299678 1.18694e-19)
(1.32467 0.738783 1.1354e-18)
(1.33399 1.03559 9.31021e-19)
(0.833761 -0.0723822 8.95893e-20)
(1.47635 0.0920961 7.75392e-20)
(1.3537 0.3297 -5.65071e-20)
(1.50817 0.780451 -3.1044e-19)
(1.63454 1.08824 -2.81955e-18)
(0.840458 -0.151914 4.02011e-19)
(1.51407 0.0615098 3.5431e-19)
(1.456 0.322971 -5.44713e-21)
(1.7623 0.765223 2.76104e-18)
(2.14988 1.13959 -5.52062e-18)
(0.844641 -0.28059 -3.51788e-20)
(1.49749 -0.00166374 -4.89439e-19)
(1.48627 0.236344 1.30566e-20)
(1.86206 0.572806 -2.8628e-18)
(2.59639 0.899179 1.64568e-18)
(0.778335 -0.407413 5.06762e-18)
(1.20602 -0.0720503 5.7974e-35)
(1.1925 0.128479 -2.18709e-18)
(1.58914 0.322362 2.77744e-18)
(2.46071 0.528087 5.03473e-18)
(0.630433 -0.286758 1.55239e-19)
(0.764298 -0.0650593 4.71644e-19)
(0.759896 0.0486157 2.70262e-19)
(1.07755 0.129047 6.3361e-19)
(1.75862 0.220256 -8.62469e-18)
(0.320955 -0.0432962 -4.28133e-18)
(0.306081 0.0018711 2.5887e-19)
(0.274917 -0.00961704 1.03827e-18)
(0.394056 -0.023824 -7.91922e-19)
(0.68574 -0.00018958 -1.45944e-18)
(2.34762 1.11986 4.671e-18)
(2.78674 1.01189 3.45946e-18)
(3.14062 0.803009 -5.68018e-18)
(3.41891 0.519383 -1.46075e-17)
(3.58243 0.185746 1.57599e-17)
(3.07971 1.01825 4.99964e-18)
(3.3549 0.794923 2.56591e-17)
(3.5577 0.56054 7.24631e-18)
(3.70164 0.331756 -3.08472e-17)
(3.77822 0.11106 -5.17431e-18)
(2.90711 0.591693 -7.24091e-18)
(2.98669 0.448023 -3.38401e-18)
(3.0525 0.31219 -6.31073e-18)
(3.09537 0.181853 -6.89014e-18)
(3.11406 0.0585224 6.52227e-18)
(2.10603 0.266285 5.398e-18)
(2.12986 0.206135 -4.05787e-19)
(2.16236 0.143327 4.86785e-18)
(2.18302 0.0823063 6.28751e-18)
(2.19073 0.0260767 -5.88689e-18)
(0.842137 0.02218 -5.72367e-19)
(0.851649 0.0157222 3.51539e-18)
(0.868472 0.00916642 2.44125e-18)
(0.877415 0.00481013 -5.16782e-18)
(0.87981 0.00136932 -3.84193e-20)
(0.281878 0.0207529 5.51933e-19)
(0.656561 0.0404585 -7.43294e-19)
(0.972997 0.0440579 -8.18765e-19)
(0.944186 0.0274262 -1.51792e-18)
(0.697736 0.0163823 -6.63747e-19)
(0.245524 0.0554492 7.4528e-19)
(0.59116 0.107055 1.44176e-18)
(0.864546 0.125121 -6.96538e-19)
(0.939821 0.0969788 1.95988e-18)
(0.724064 0.0532207 -2.70114e-18)
(0.185575 0.0742482 4.95841e-19)
(0.476292 0.145876 -1.40038e-18)
(0.707651 0.184737 -9.13686e-19)
(0.857146 0.175348 -1.81116e-18)
(0.741494 0.101159 -2.86297e-18)
(0.123293 0.0774769 -7.73228e-19)
(0.344699 0.160419 -1.37697e-18)
(0.53446 0.214909 4.39111e-18)
(0.677446 0.23319 -3.65708e-19)
(0.712985 0.179894 2.23736e-18)
(0.0753225 0.072427 -6.26664e-19)
(0.230681 0.16034 1.55916e-18)
(0.372153 0.224582 5.87476e-19)
(0.482236 0.257172 -1.28425e-18)
(0.560235 0.25753 -1.77968e-19)
(0.0452876 0.0640186 7.0143e-20)
(0.150168 0.149235 -1.18669e-18)
(0.247843 0.211622 -8.71477e-19)
(0.324787 0.231986 -1.70982e-19)
(0.371094 0.221315 -5.2114e-20)
(0.0262375 0.0559527 3.123e-19)
(0.0955099 0.133553 5.08211e-19)
(0.161188 0.179795 -2.70405e-19)
(0.21385 0.187391 2.66807e-19)
(0.254723 0.175983 1.78571e-19)
(0.0126898 0.0477958 2.31339e-19)
(0.05946 0.104717 1.63952e-18)
(0.10441 0.10946 -1.34363e-18)
(0.144209 0.0943895 -2.85406e-18)
(0.18181 0.0723237 4.40714e-19)
(0.00697851 0.0367474 -2.48287e-19)
(0.0434389 0.0368013 -1.76664e-18)
(0.079357 0.00909074 3.18262e-18)
(0.119438 -0.0231529 1.34674e-18)
(0.160712 -0.0571552 -2.76803e-19)
(0.00611885 -0.00909387 1.73882e-19)
(0.0390303 -0.0604074 -4.08368e-19)
(0.0781787 -0.106974 8.80287e-20)
(0.125933 -0.155332 1.07001e-19)
(0.175685 -0.201968 -2.48917e-20)
(0.349678 0.0626005 -9.7219e-20)
(0.632469 -0.04046 -1.17393e-18)
(0.720415 -0.0207181 2.62444e-19)
(0.760889 -0.00727568 3.65213e-19)
(0.778982 -0.00240076 2.50165e-20)
(0.317412 -0.0492595 -8.09758e-20)
(0.770336 -0.112285 1.30534e-18)
(0.904462 -0.0347131 9.54077e-19)
(0.963434 -0.0120106 8.7774e-20)
(0.992131 -0.00365296 -7.06871e-20)
(0.329556 -0.164181 -8.30415e-19)
(0.845997 -0.193248 2.71892e-18)
(1.05446 -0.0611839 -2.0137e-19)
(1.14575 -0.0214421 -3.99006e-19)
(1.18576 -0.00608354 1.21777e-19)
(0.373727 -0.302452 1.08885e-18)
(0.883247 -0.29008 -2.00228e-18)
(1.13736 -0.107675 -5.24816e-19)
(1.2559 -0.0410362 -4.35838e-20)
(1.30793 -0.0112312 -1.5423e-20)
(0.452589 -0.450824 5.09193e-19)
(0.909191 -0.393586 -5.06704e-19)
(1.186 -0.158286 4.43504e-19)
(1.28594 -0.0606781 1.66613e-19)
(1.33 -0.0165502 -3.49704e-20)
(0.18339 -0.0446215 9.5199e-19)
(0.148858 -0.00419791 0)
(0.166978 0.00207513 1.227e-19)
(0.17341 0.00119027 5.34862e-20)
(0.175089 0.000330013 -9.77577e-20)
(0.406661 0.0689544 0)
(0.42081 -0.00108211 0)
(0.479507 -0.00728404 1.27641e-19)
(0.500306 -0.00212938 1.19728e-19)
(0.507018 -0.000771171 6.9554e-21)
(0.162635 -0.000820955 -3.68341e-19)
(0.186343 -0.00179122 3.10734e-18)
(0.213137 -0.00501604 -6.87457e-19)
(0.229721 -0.0149755 -3.11541e-18)
(0.245553 -0.0168135 -7.94597e-19)
(0.431904 0.00444038 6.09761e-19)
(0.484423 0.0196891 4.11598e-18)
(0.536345 0.0466454 -6.73493e-18)
(0.567735 0.0804366 2.20482e-18)
(0.598819 0.162336 3.78833e-18)
(0.371027 -0.218699 -3.6631e-19)
(0.323856 -0.229697 -7.65906e-20)
(0.24834 -0.211776 -2.63973e-19)
(0.150937 -0.150931 3.66103e-19)
(0.0459251 -0.0647809 1.16118e-19)
(0.259446 -0.16194 4.36033e-19)
(0.215812 -0.174611 1.48303e-18)
(0.162781 -0.171683 3.23663e-19)
(0.0971598 -0.133333 2.38726e-19)
(0.0266071 -0.0571114 -8.61678e-21)
(0.194159 -0.045461 -3.27454e-19)
(0.151868 -0.0680936 -9.64587e-20)
(0.108498 -0.0859875 1.6846e-18)
(0.0625039 -0.0903445 3.2439e-19)
(0.0126784 -0.0465256 -3.06815e-19)
(0.174209 0.0941598 -6.73879e-19)
(0.128947 0.0606324 -7.31202e-19)
(0.0847375 0.0274177 1.3065e-18)
(0.0473413 -0.00232381 1.61227e-18)
(0.011621 -0.0256263 2.09413e-19)
(0.180639 0.247676 1.14398e-19)
(0.12781 0.201474 -1.25949e-19)
(0.0769827 0.151641 2.4417e-19)
(0.0346523 0.0998373 5.59521e-19)
(-0.00387777 0.0365557 6.93263e-20)
(0.697732 -0.0163381 1.53104e-18)
(0.94419 -0.0274048 -1.8006e-18)
(0.972806 -0.0441859 2.26941e-18)
(0.656574 -0.0405221 3.64238e-19)
(0.281912 -0.0207617 5.36497e-19)
(0.724052 -0.0531165 1.77146e-18)
(0.939676 -0.0969961 7.94595e-18)
(0.864346 -0.125228 1.0335e-18)
(0.591215 -0.107097 1.34913e-18)
(0.245622 -0.0554711 -4.78331e-19)
(0.741405 -0.100924 -1.22544e-18)
(0.856551 -0.175194 -2.29421e-18)
(0.707575 -0.184801 2.92369e-18)
(0.476367 -0.145951 -1.08609e-19)
(0.185703 -0.0742874 3.39736e-19)
(0.712484 -0.17973 3.17942e-20)
(0.676766 -0.233131 -7.66979e-18)
(0.534487 -0.21521 -5.98394e-18)
(0.344842 -0.160742 1.09008e-18)
(0.123479 -0.0775841 5.08379e-19)
(0.558192 -0.25619 4.77928e-19)
(0.481295 -0.256605 5.32437e-19)
(0.372223 -0.225177 -8.89103e-19)
(0.230953 -0.161142 -8.83735e-19)
(0.0756654 -0.0726843 -5.12056e-21)
(0.719992 0.368274 1.13943e-18)
(0.931702 0.11425 -1.65843e-19)
(0.71583 0.0264415 2.64142e-19)
(0.657312 0.0404076 -7.19376e-19)
(0.373387 -0.0571171 -1.0145e-19)
(0.813677 0.392537 -1.58174e-19)
(1.16179 0.136967 -5.70635e-19)
(0.910023 0.0506561 7.10062e-19)
(0.810487 0.108611 1.57387e-18)
(0.351882 0.0628702 1.03597e-19)
(0.858345 0.350487 -1.86791e-18)
(1.37874 0.143525 -4.4582e-20)
(1.06046 0.0867236 1.61417e-19)
(0.898667 0.188781 1.30561e-18)
(0.368267 0.184899 -1.21492e-18)
(0.864595 0.277539 1.25143e-18)
(1.43161 0.148639 4.91948e-20)
(1.13408 0.132247 -1.47739e-19)
(0.937719 0.284837 -1.04874e-19)
(0.406346 0.329098 -4.59809e-19)
(0.859431 0.209731 1.66551e-19)
(1.4118 0.152095 -7.35878e-20)
(1.17117 0.174758 -7.42405e-20)
(0.957598 0.386663 9.21068e-20)
(0.469989 0.483871 1.39458e-18)
(0.274111 0.0482276 0)
(0.249951 -0.00896202 6.12305e-19)
(0.165876 -0.0156111 1.27311e-19)
(0.154214 0.0042068 -1.94307e-19)
(0.185015 0.0435088 -1.80836e-18)
(0.568865 0.264227 -1.01525e-17)
(0.632913 0.0710381 -2.37581e-18)
(0.47317 0.013771 6.00433e-19)
(0.434223 0.0025499 -6.67513e-19)
(0.413325 -0.066725 -6.63654e-19)
(0.245713 0.0167482 -1.50299e-22)
(0.229819 0.015055 1.92683e-18)
(0.213217 0.00505944 5.23386e-19)
(0.186393 0.00180118 3.23264e-19)
(0.162651 0.000824828 0)
(0.599557 -0.162139 -1.15894e-19)
(0.568228 -0.0801681 2.56068e-18)
(0.536441 -0.0464314 -1.34891e-19)
(0.48448 -0.0196368 -2.69496e-19)
(0.431928 -0.00441818 7.60199e-19)
)
;

boundaryField
{
    left
    {
        type            fixedValue;
        value           uniform (1 0 0);
    }
    right
    {
        type            zeroGradient;
    }
    down
    {
        type            noSlip;
    }
    up
    {
        type            noSlip;
    }
    cylinder
    {
        type            noSlip;
    }
    defaultFaces
    {
        type            empty;
    }
}


// ************************************************************************* //
