/*--------------------------------*- C++ -*----------------------------------*\
  =========                 |
  \\      /  F ield         | OpenFOAM: The Open Source CFD Toolbox
   \\    /   O peration     | Website:  https://openfoam.org
    \\  /    A nd           | Version:  13
     \\/     M anipulation  |
\*---------------------------------------------------------------------------*/
FoamFile
{
    format      ascii;
    class       volVectorField;
    location    "4.5";
    object      U;
}
// * * * * * * * * * * * * * * * * * * * * * * * * * * * * * * * * * * * * * //

dimensions      [0 1 -1 0 0 0 0];

internalField   nonuniform List<vector> 
440
(
(-0.0698881 0.0433501 -7.40203e-20)
(-0.103245 0.0845813 3.28667e-20)
(-0.01957 0.089927 1.15775e-19)
(0.413949 0.111581 2.4946e-19)
(0.202082 0.369451 7.86608e-21)
(-0.0911682 0.0468989 3.30362e-20)
(0.0185607 0.0168954 -1.26102e-19)
(0.447615 -0.0221412 -1.17843e-19)
(1.00047 -0.0440823 7.05753e-20)
(1.34915 -0.0144313 2.25347e-20)
(-0.0377986 0.0146576 5.15012e-20)
(0.427193 -0.0216465 6.54436e-19)
(1.17682 -0.00175789 -3.43432e-19)
(1.73756 0.0388794 -1.06634e-18)
(2.30672 0.0640136 3.2637e-19)
(0.169738 -0.0389777 -1.68261e-19)
(1.12146 0.0131636 -4.73199e-19)
(1.88843 0.0881716 1.47453e-18)
(2.35865 0.130437 1.53944e-18)
(2.44755 0.151909 -4.30415e-19)
(0.523538 -0.00468749 -2.71481e-19)
(1.67174 0.183864 -5.57713e-19)
(2.22613 0.264849 1.66154e-18)
(2.35223 0.283427 1.78081e-18)
(2.43871 0.256378 5.99239e-19)
(-0.0249401 0.0108995 -6.1483e-20)
(-0.141893 0.0891629 1.43144e-19)
(-0.252254 0.141937 -2.62493e-19)
(-0.345285 0.184952 5.54188e-20)
(-0.41236 0.232486 4.39533e-19)
(-0.0446543 0.146932 -2.0918e-20)
(-0.15188 0.293271 -9.86606e-20)
(-0.24686 0.323313 -2.40267e-20)
(-0.323775 0.335108 -1.74738e-20)
(-0.382059 0.357264 2.13916e-20)
(-0.0680232 0.183004 1.71032e-20)
(-0.155993 0.432334 -4.67713e-21)
(-0.212593 0.525444 2.94309e-20)
(-0.245687 0.524753 -1.72234e-19)
(-0.258085 0.49367 4.89786e-21)
(-0.0462072 0.0938458 -1.76486e-20)
(-0.109908 0.321356 3.44004e-20)
(-0.135681 0.48569 3.16525e-20)
(-0.138296 0.571015 -5.48958e-20)
(-0.109747 0.598553 9.71497e-21)
(-0.0382282 0.0350794 -4.91091e-20)
(-0.115981 0.153012 -6.96274e-20)
(-0.162085 0.294721 -1.47731e-19)
(-0.103822 0.38477 4.99117e-20)
(-0.0781998 0.560733 -2.01139e-19)
(-0.609387 0.477213 1.05355e-19)
(-0.329518 0.277895 7.57978e-19)
(0.451831 -0.347769 2.51662e-19)
(0.776959 -0.517827 -2.21719e-19)
(0.982887 -0.342922 -4.63893e-21)
(-0.607564 0.466204 -1.93455e-19)
(0.272937 0.104394 -1.35493e-19)
(0.834493 -0.469135 1.17126e-19)
(1.13501 -0.583428 3.30788e-19)
(1.17234 -0.361841 4.27643e-20)
(-0.357974 0.350428 -1.79933e-19)
(0.823385 -0.090967 7.8952e-19)
(1.21277 -0.566404 -8.787e-20)
(1.40618 -0.625864 2.20811e-19)
(1.32892 -0.363935 6.36795e-21)
(-0.0685802 0.293209 3.21645e-19)
(1.28956 -0.24034 -7.50912e-20)
(1.59942 -0.620602 7.62259e-20)
(1.64158 -0.632142 -1.35129e-19)
(1.43359 -0.350904 1.04008e-19)
(0.213623 0.113029 -1.17154e-19)
(1.68204 -0.407 -1.13671e-19)
(1.9257 -0.652734 0)
(1.84814 -0.599452 2.43175e-20)
(1.50284 -0.319798 3.26385e-20)
(1.46511 0.0679307 -2.73276e-19)
(2.23082 -0.461054 -5.25792e-20)
(2.24224 -0.632094 -2.22499e-20)
(2.01251 -0.515622 8.31572e-20)
(1.53531 -0.264887 -9.19545e-20)
(2.25925 0.00660403 -9.62421e-21)
(2.59116 -0.544581 8.74015e-19)
(2.27614 -0.622565 -1.51418e-20)
(1.86987 -0.36669 -1.1984e-19)
(1.35544 -0.143563 0)
(2.39361 -0.0532719 -2.09328e-19)
(2.42844 -0.422441 -2.45435e-21)
(1.94594 -0.411723 1.1214e-19)
(1.67831 -0.20076 5.2526e-20)
(1.29479 -0.0711895 -5.07648e-20)
(2.30841 -0.0769906 9.55834e-20)
(2.17198 -0.342789 2.28141e-19)
(1.55003 -0.343157 -1.24272e-20)
(1.13012 -0.105985 -5.15145e-34)
(0.881166 0.00436761 5.58708e-20)
(1.57926 -0.0675792 9.8701e-20)
(1.06569 -0.0806654 7.66553e-20)
(0.393517 0.00783997 -3.76611e-20)
(0.185727 0.0324453 -1.60166e-20)
(0.216088 0.0121131 6.09417e-21)
(2.36586 0.277698 -7.09568e-19)
(2.57231 0.0666355 -8.73289e-19)
(2.42667 0.144109 4.76051e-19)
(2.64932 -0.0259081 1.01744e-19)
(1.96202 0.173957 -2.40896e-21)
(2.09652 0.179903 8.27628e-20)
(2.42076 0.0424887 -3.35559e-20)
(2.24571 0.0333043 -1.15848e-19)
(2.48971 -0.0510562 -1.83105e-19)
(2.33472 -0.132773 -4.15341e-21)
(2.10734 0.071018 7.91134e-20)
(2.2658 0.030297 6.8213e-20)
(2.22578 -0.0370098 -7.26748e-20)
(2.31465 -0.035445 3.0048e-20)
(2.31782 -0.126709 -1.86475e-20)
(2.09196 0.00427962 1.11435e-19)
(2.15174 -0.00451822 1.67608e-19)
(2.17938 -0.0498863 -1.82095e-20)
(2.21408 -0.0409667 -8.2826e-20)
(2.2495 -0.0925725 3.06513e-20)
(1.54459 -0.0129191 1.85464e-19)
(1.54018 -0.0165862 -1.06162e-20)
(1.55082 -0.0183408 1.58109e-20)
(1.54751 -0.0229011 -3.79864e-20)
(1.55503 -0.0242078 -2.45679e-20)
(1.535 0.832924 1.1112e-18)
(1.49187 0.926316 -3.6769e-19)
(1.48657 1.04974 -1.30942e-18)
(1.40752 1.08452 6.88341e-19)
(0.851269 0.756691 -1.56236e-19)
(1.79943 0.804792 -5.57957e-19)
(1.76915 0.872908 -2.90829e-18)
(1.77464 0.968955 -1.09941e-18)
(1.67202 0.966844 -3.77292e-19)
(1.00498 0.655213 -6.00219e-19)
(2.11663 0.667937 7.17017e-19)
(2.08522 0.731132 1.84794e-19)
(2.04419 0.811294 -2.12941e-18)
(1.89701 0.793029 -5.79015e-19)
(1.10226 0.509881 4.227e-19)
(2.25806 0.559779 2.10897e-18)
(2.24312 0.606843 1.5346e-18)
(2.23208 0.648631 -1.76532e-18)
(1.99719 0.599837 -1.31284e-18)
(1.07394 0.334988 -2.36343e-19)
(2.42568 0.405412 9.99061e-19)
(2.41321 0.423172 -7.21356e-19)
(2.28853 0.443821 5.15994e-19)
(1.94649 0.385314 3.98291e-19)
(0.889724 0.145511 -3.29722e-19)
(0.581213 0.477533 -6.46945e-19)
(0.488844 0.511825 -4.98001e-19)
(0.369217 0.543501 5.71014e-20)
(0.229164 0.537964 -8.30557e-21)
(0.0563757 0.377777 7.78308e-20)
(0.678717 0.63889 8.86225e-20)
(0.613485 0.692204 -2.97078e-19)
(0.524029 0.755198 1.781e-19)
(0.398798 0.811128 -8.2925e-20)
(0.174123 0.614883 1.17892e-19)
(0.76208 0.850549 1.16326e-19)
(0.687577 0.931149 4.5634e-19)
(0.63197 1.0219 1.09245e-19)
(0.548333 1.04667 -2.97164e-19)
(0.30041 0.759007 2.46663e-19)
(1.0476 0.909748 2.10073e-19)
(0.995682 0.98255 -6.64681e-19)
(0.941834 1.07394 -1.83482e-18)
(0.857226 1.13501 7.29254e-19)
(0.502612 0.831917 -1.59349e-19)
(1.0816 0.977081 -9.0984e-20)
(1.12335 1.09068 -1.65248e-19)
(1.14863 1.19133 -3.5688e-19)
(1.09095 1.19273 -3.91699e-19)
(0.666091 0.830703 -6.17917e-21)
(0.981764 0.0373425 -9.04292e-20)
(1.02044 0.0241282 -2.54706e-20)
(1.03582 0.128217 -2.1463e-21)
(0.964298 0.121914 -1.67044e-19)
(0.910477 0.299145 2.97028e-19)
(0.973846 0.0322937 5.73578e-20)
(1.03931 0.0225319 9.91313e-20)
(1.01273 0.135835 1.25462e-19)
(1.00637 0.147046 2.20404e-20)
(0.9408 0.386426 -1.08594e-20)
(0.982807 0.0296158 7.58828e-20)
(1.02089 0.0145574 -4.20382e-21)
(1.05823 0.157984 -1.57997e-21)
(0.954859 0.14055 1.36009e-19)
(1.1588 0.535369 -4.93142e-19)
(0.981678 0.0267147 -5.44961e-22)
(1.03395 0.00691759 -1.47817e-19)
(1.04277 0.176285 -6.09485e-20)
(1.06278 0.125247 -3.2109e-19)
(1.15567 0.606129 8.32691e-20)
(0.985941 0.0204871 -1.31753e-20)
(1.024 0.00883107 4.25348e-20)
(1.08663 0.172664 2.76765e-20)
(1.03261 0.168618 4.28434e-19)
(1.35308 0.736895 -4.79717e-19)
(0.971326 0.020728 -8.24959e-21)
(1.05922 -0.0104329 9.24447e-20)
(1.06242 0.203516 -5.95109e-20)
(1.27951 0.0679107 9.86511e-19)
(1.29483 0.810127 -3.2542e-19)
(0.959028 -0.00180244 -1.44406e-21)
(1.10003 -0.00746175 -7.39406e-20)
(1.02365 0.114483 4.61894e-21)
(1.39172 0.0726451 -2.82571e-19)
(1.16465 0.609401 -9.02464e-20)
(0.978921 -0.0107078 3.51848e-21)
(1.08409 -0.00793203 1.29609e-35)
(1.08199 0.0687283 -1.21744e-20)
(1.3022 0.0608548 8.42461e-20)
(1.22019 0.451164 1.74061e-19)
(1.02101 -0.0451776 3.99508e-21)
(0.999265 -0.0227281 -2.48772e-20)
(1.16699 0.00798783 1.74926e-20)
(1.08563 0.0519602 1.78716e-20)
(1.4662 0.295844 -2.71693e-19)
(0.938309 -0.0224821 -3.86706e-20)
(0.818872 -0.0240108 -1.56608e-21)
(0.896799 -0.00359517 2.19113e-20)
(0.731398 0.00785106 -2.26264e-20)
(1.21155 0.077502 -6.20793e-20)
(1.78661 0.61918 2.63843e-19)
(1.86392 0.667632 7.16964e-19)
(2.13468 0.506247 -1.01038e-18)
(2.18483 0.497588 -1.02967e-20)
(2.40618 0.287758 4.32575e-19)
(1.72029 0.379903 9.35392e-20)
(1.6907 0.442062 9.13082e-19)
(1.98336 0.310375 1.20532e-19)
(1.90939 0.328302 -8.71399e-19)
(2.24167 0.163852 -2.55345e-19)
(1.68417 0.276691 -2.23954e-19)
(1.75412 0.274066 -1.43765e-19)
(1.94039 0.197637 1.36781e-19)
(1.9489 0.181624 -2.735e-19)
(2.14316 0.10777 2.53992e-19)
(1.75082 0.162701 4.0834e-19)
(1.85239 0.137857 -2.65691e-21)
(1.93416 0.0929815 2.17055e-19)
(1.98786 0.0704565 1.91083e-19)
(2.06018 0.039064 -1.87762e-19)
(1.40998 0.0325927 -5.32289e-20)
(1.48892 0.0200655 2.56735e-19)
(1.5049 0.00558852 1.0997e-19)
(1.53435 -0.000799195 -2.19411e-19)
(1.52869 -0.00920329 2.14734e-23)
(1.22487 -0.0243466 7.18999e-20)
(2.25693 -0.0353881 -4.77939e-19)
(2.48428 -0.0288305 1.27417e-18)
(2.46047 0.014146 5.64203e-19)
(2.29715 0.0357553 -3.99577e-19)
(0.789828 0.101238 1.37413e-19)
(2.03676 0.103162 -4.8388e-19)
(2.48259 0.107294 -6.664e-19)
(2.52809 0.112629 8.38753e-19)
(2.27294 0.104055 -5.74132e-19)
(0.2694 0.0930154 -1.87551e-20)
(1.41369 0.175066 5.26587e-19)
(2.1591 0.19992 7.35962e-20)
(2.51741 0.196477 5.66941e-19)
(2.65443 0.178711 2.35306e-19)
(-0.0133723 -0.00642652 2.07918e-19)
(0.5709 0.113262 2.11665e-19)
(1.38641 0.194859 -4.80104e-19)
(1.89437 0.22652 2.98267e-20)
(2.43624 0.255532 1.33204e-19)
(-0.0897134 -0.0722068 1.46947e-19)
(0.0520693 -0.024306 -1.66217e-19)
(0.538511 0.0726238 -3.37633e-20)
(1.02287 0.12345 6.32302e-20)
(1.49759 0.20933 4.20527e-22)
(-0.0791506 -0.0881285 8.2059e-21)
(-0.0985613 -0.123913 8.65944e-20)
(0.0525883 -0.101167 5.42086e-20)
(0.280345 -0.0401968 -7.84497e-20)
(0.710103 0.0603125 5.06189e-21)
(-0.0597185 -0.104251 -2.29769e-20)
(-0.0887349 -0.196218 -4.33681e-20)
(-0.0520692 -0.209165 -3.44856e-21)
(0.0303317 -0.164365 7.09226e-21)
(0.21021 -0.0564562 1.63547e-20)
(-0.0580636 -0.176705 -3.19685e-20)
(-0.0715762 -0.309599 -1.68363e-19)
(-0.0497901 -0.321707 1.64901e-19)
(-0.0107307 -0.275479 6.2756e-19)
(0.0465555 -0.200121 -1.22597e-19)
(-0.0500761 -0.223447 2.5444e-20)
(-0.0937778 -0.318543 2.24003e-19)
(-0.124016 -0.28526 -7.1847e-19)
(-0.14728 -0.211954 -5.447e-19)
(-0.150443 -0.130784 1.08201e-19)
(-0.0280852 -0.148608 -1.41835e-20)
(-0.120443 -0.158849 5.57097e-20)
(-0.214979 -0.105386 -1.78603e-20)
(-0.297961 -0.0377984 -4.70392e-20)
(-0.348458 0.037367 -1.54428e-20)
(1.46834 0.509836 -4.55296e-20)
(1.03105 0.272512 6.52396e-19)
(0.757407 -0.00213893 -1.03782e-19)
(0.642534 -0.0851472 -1.06094e-19)
(0.879722 -0.0430778 1.57743e-21)
(1.24105 0.433918 7.31744e-20)
(0.728784 0.316557 4.71946e-20)
(0.314387 0.0594277 -1.82138e-19)
(0.284847 -0.108501 -1.32123e-20)
(0.740832 -0.0876993 -2.24684e-20)
(0.744155 0.308089 1.89573e-19)
(0.0640909 0.411302 4.56716e-19)
(-0.00804316 0.0713963 6.39962e-20)
(0.171176 -0.211031 -1.03016e-19)
(0.713175 -0.161083 -4.36323e-21)
(0.0656423 0.368558 -1.3275e-19)
(-0.564254 0.472724 -1.683e-18)
(0.00194232 -0.0161281 -2.57223e-19)
(0.232776 -0.315863 6.61619e-21)
(0.748768 -0.234313 1.67021e-20)
(-0.422714 0.448551 -6.36495e-20)
(-0.718001 0.409957 -1.33209e-19)
(0.159295 -0.191655 3.00766e-19)
(0.43422 -0.42741 -4.39324e-20)
(0.832768 -0.299647 1.69543e-20)
(0.537118 0.141828 -7.01724e-20)
(-0.109411 -0.0527171 0)
(0.0221029 -0.0827429 -4.62033e-20)
(0.194197 -0.0457723 2.20464e-20)
(0.385829 -0.0207388 7.15724e-21)
(1.98348 0.435956 0)
(1.2285 0.240299 0)
(0.930234 -0.00305572 3.53742e-19)
(0.945275 -0.0701677 4.89238e-20)
(1.0143 -0.0356621 -5.21213e-21)
(0.738775 0.00155064 -1.3631e-19)
(0.81845 -0.0015422 3.43842e-19)
(0.92922 -0.00281409 -1.52829e-20)
(1.06395 0.0138248 2.76387e-19)
(1.32841 0.0798869 1.7671e-19)
(1.66862 0.0245827 1.31097e-19)
(1.82308 0.0802866 3.96427e-19)
(1.95748 0.0698925 -2.35156e-19)
(2.52667 0.184311 3.74687e-20)
(2.20663 0.179049 1.54611e-19)
(0.909391 -0.480682 -8.13185e-21)
(0.899223 -0.57239 -1.80826e-19)
(0.892765 -0.672054 -1.3033e-19)
(0.824573 -0.74268 7.91398e-20)
(0.505698 -0.588129 1.3631e-19)
(0.811719 -0.382311 1.15796e-19)
(0.757192 -0.447833 2.07888e-19)
(0.684707 -0.520444 -6.5198e-20)
(0.573531 -0.585088 1.46718e-19)
(0.315727 -0.471655 5.22403e-20)
(0.652617 -0.243782 -1.26473e-19)
(0.567548 -0.284788 -5.68498e-20)
(0.467779 -0.335563 7.19205e-20)
(0.348183 -0.379566 -2.67046e-20)
(0.156165 -0.306986 -1.29755e-19)
(0.558028 -0.0114484 -4.26907e-19)
(0.47217 -0.0278639 -3.49615e-19)
(0.360563 -0.0515021 2.83799e-19)
(0.230512 -0.0812091 1.62734e-19)
(0.0642839 -0.0864089 1.3425e-20)
(0.523134 0.198407 -1.4734e-19)
(0.434068 0.199157 -1.55357e-19)
(0.315133 0.200016 -5.58333e-20)
(0.178756 0.204751 2.85804e-20)
(0.0259694 0.148245 1.11357e-20)
(2.05024 -0.0350947 8.3911e-19)
(2.31003 -0.101783 2.77387e-19)
(2.38704 -0.186497 -7.424e-19)
(2.25055 -0.213803 -1.58629e-18)
(1.3732 -0.195242 1.3394e-19)
(2.02718 -0.12233 1.40694e-18)
(2.11566 -0.233103 1.865e-18)
(2.13646 -0.355602 1.58302e-19)
(2.06225 -0.415566 2.79982e-19)
(1.3356 -0.373123 -1.85358e-19)
(1.73393 -0.283373 -3.61177e-18)
(1.79633 -0.400534 3.79738e-19)
(1.84177 -0.52584 1.13881e-18)
(1.78776 -0.603786 -4.29174e-19)
(1.17124 -0.519547 6.90454e-19)
(1.5179 -0.40623 8.60709e-19)
(1.53269 -0.504631 -2.30127e-18)
(1.52021 -0.623631 -2.62031e-18)
(1.456 -0.713623 8.06592e-19)
(0.946748 -0.595003 5.54057e-19)
(1.22232 -0.463208 1.85871e-19)
(1.17541 -0.557216 2.64917e-19)
(1.16776 -0.680799 -4.0397e-19)
(1.11772 -0.771165 -4.87371e-19)
(0.713871 -0.619631 -4.55701e-21)
(1.00668 0.0402321 6.70689e-21)
(0.995573 0.0624255 -1.03613e-21)
(1.1081 0.0863893 2.31851e-21)
(0.830414 -0.00980686 -2.42236e-19)
(1.09564 -0.2013 -1.85126e-20)
(1.01916 0.0430986 -2.44948e-21)
(0.967344 0.0542973 3.50745e-20)
(1.12505 0.107321 -1.1391e-20)
(0.909283 0.0335673 2.05747e-19)
(0.990472 -0.0876121 3.31604e-22)
(1.0244 0.0408483 -5.65635e-20)
(0.953878 0.0451712 -9.39367e-23)
(1.1122 0.107569 -9.31137e-21)
(0.920677 0.0606861 1.05966e-19)
(0.951144 -0.0270927 -2.32342e-19)
(1.01359 0.0415639 7.07849e-20)
(0.972004 0.0360291 3.18798e-21)
(1.07636 0.110698 2.55354e-20)
(0.952488 0.0879333 -5.20318e-20)
(0.870348 0.0844404 7.45741e-20)
(0.994096 0.0390664 1.74496e-20)
(1.00461 0.0328628 -2.36585e-20)
(1.03862 0.112225 3.90208e-20)
(0.976202 0.115023 3.74233e-20)
(0.852182 0.188778 -7.22841e-20)
(0.879712 0.0332756 0)
(0.757066 0.0301932 1.03244e-20)
(0.562365 0.0192894 5.04751e-21)
(0.405423 -0.0114411 4.93391e-20)
(0.699979 -0.046937 -1.63263e-19)
(0.98412 0.0626005 -6.12435e-20)
(1.02233 0.0816642 -7.68758e-21)
(0.977933 0.0791258 -5.40444e-20)
(0.838836 -0.0175729 -1.37481e-19)
(1.02702 -0.187658 -1.72506e-19)
(0.959058 -0.0623428 -3.66446e-20)
(1.04506 -0.0315032 5.52259e-19)
(1.13628 0.0373524 3.26516e-19)
(1.00918 0.054792 3.36795e-20)
(0.783451 0.0293845 0)
(1.30759 -0.309181 3.58447e-19)
(1.42521 -0.274289 1.55471e-18)
(1.6037 -0.155263 -1.6848e-18)
(1.70486 -0.0209351 -5.21664e-19)
(1.61012 0.0311532 3.96994e-19)
)
;

boundaryField
{
    left
    {
        type            fixedValue;
        value           uniform (1 0 0);
    }
    right
    {
        type            zeroGradient;
    }
    down
    {
        type            noSlip;
    }
    up
    {
        type            noSlip;
    }
    cylinder
    {
        type            noSlip;
    }
    defaultFaces
    {
        type            empty;
    }
}


// ************************************************************************* //
