# Selection   : all
# Cells       : 440
# Volume      : 7.374263e+01
# Time        	max(p)
0.6           	1.767540e+00
0.65          	1.778090e+00
0.7           	1.791302e+00
