/*--------------------------------*- C++ -*----------------------------------*\
  =========                 |
  \\      /  F ield         | OpenFOAM: The Open Source CFD Toolbox
   \\    /   O peration     | Website:  https://openfoam.org
    \\  /    A nd           | Version:  13
     \\/     M anipulation  |
\*---------------------------------------------------------------------------*/
FoamFile
{
    format      ascii;
    class       volScalarField;
    location    "0.955";
    object      p;
}
// * * * * * * * * * * * * * * * * * * * * * * * * * * * * * * * * * * * * * //

dimensions      [0 2 -2 0 0 0 0];

internalField   nonuniform List<scalar> 
1800
(
5.75281
7.85991
10.0127
11.4411
12.2755
12.686
12.8168
12.6591
11.4124
7.31972
9.6015
12.0772
14.5821
16.2661
17.3226
17.9853
18.4398
18.6787
17.9539
15.2756
15.9931
18.6178
21.2905
23.1538
24.4139
25.2956
25.9462
26.3294
25.858
24.0267
24.9877
27.5571
30.2055
32.1199
33.4851
34.4941
35.2565
35.7084
35.3021
33.6172
36.0458
38.4067
40.8589
42.6704
43.9948
44.9909
45.7454
46.1947
45.8444
44.2886
48.7223
50.7749
52.9185
54.5247
55.7157
56.6179
57.3001
57.7106
57.4294
56.0699
62.6705
64.3432
66.0989
67.4309
68.4329
69.2025
69.7939
70.1708
69.9957
68.9069
77.596
78.8376
80.1486
81.1579
81.9338
82.5476
83.0417
83.3966
83.3631
82.6267
93.2139
93.9936
94.8251
95.48
96.0028
96.4402
96.823
97.1463
97.2566
96.9221
109.243
109.547
109.879
110.154
110.391
110.612
110.829
111.043
111.204
111.231
-0.600524
-0.853769
-0.630763
-0.215862
0.257198
0.725613
1.0853
1.296
1.44116
1.58821
-0.466363
-0.983597
-1.09509
-0.890166
-0.466474
-0.042982
0.248796
0.490978
0.77153
1.04547
0.539791
-0.430026
-1.26616
-1.43349
-1.10663
-0.802126
-0.590325
-0.285683
0.121848
0.507877
0.934413
-0.209087
-1.41123
-1.75089
-1.53074
-1.37901
-1.25632
-0.952299
-0.495618
0.0120946
0.501935
-0.467723
-1.41108
-1.70307
-1.64635
-1.65901
-1.62486
-1.36454
-0.874036
-0.180217
-0.204581
-0.722563
-1.12477
-1.25492
-1.27616
-1.34305
-1.3373
-1.13036
-0.606904
0.324948
-0.542963
-0.505748
-0.33011
-0.18456
-0.100493
-0.0810288
-0.0439846
0.124447
0.701018
1.93042
-0.0621301
0.52397
1.24457
1.74874
2.07798
2.29065
2.43926
2.65486
3.38445
5.046
1.38315
2.49102
3.73932
4.66067
5.33052
5.82258
6.16217
6.50071
7.48683
9.77371
3.62358
5.26644
7.08457
8.46046
9.48313
10.2432
10.7654
11.218
12.2785
14.4412
2.30721
2.44644
2.3386
2.09241
1.58662
1.18366
0.869508
0.600559
0.356598
0.141775
1.95945
2.42416
2.23564
2.01059
1.50443
1.10507
0.818413
0.584521
0.365121
0.154421
1.48235
2.39511
2.13505
1.91977
1.4305
1.03987
0.772282
0.564024
0.36978
0.166291
0.857349
2.31226
2.03491
1.81438
1.35611
0.98304
0.733211
0.546078
0.366121
0.177368
0.162457
2.13562
1.9237
1.69214
1.27506
0.929792
0.699795
0.530875
0.356576
0.184256
-0.411203
1.85587
1.78431
1.55177
1.18386
0.876732
0.670241
0.517181
0.361479
0.184188
-0.561563
1.50666
1.60369
1.39104
1.08082
0.82181
0.642583
0.504918
0.364157
0.176517
0.166401
1.17673
1.37289
1.20118
0.962655
0.76328
0.615226
0.492879
0.353949
0.162645
2.42245
1.03993
1.07131
0.957562
0.82122
0.698813
0.587829
0.475114
0.332823
0.142844
6.65712
1.40854
0.713251
0.639903
0.649387
0.628562
0.557915
0.451831
0.306814
0.120611
9.98154
2.57745
0.688666
0.397556
0.474278
0.553367
0.518885
0.417245
0.271428
0.0914792
11.7662
2.57432
0.269776
0.067243
0.365259
0.521902
0.484195
0.371645
0.224465
0.0541664
12.866
2.7831
0.403379
0.165195
0.480707
0.583539
0.486239
0.340844
0.183348
0.0185881
14.1887
4.37225
1.28886
0.738562
0.799137
0.729398
0.529191
0.329321
0.151939
-0.0127918
16.3654
7.11525
2.707
1.59931
1.24759
0.942898
0.612366
0.340118
0.133735
-0.0371606
19.2547
9.87881
4.33779
2.56216
1.77532
1.20608
0.727747
0.372422
0.130436
-0.0523458
21.7582
11.9395
5.85462
3.52094
2.34016
1.49978
0.865271
0.422935
0.141771
-0.0572189
23.0371
13.1224
7.05179
4.42075
2.91333
1.8102
1.0176
0.488345
0.166551
-0.0514853
22.9771
13.5015
7.91275
5.26811
3.50259
2.14498
1.19142
0.573066
0.208564
-0.0336299
22.4242
13.7266
8.68427
6.1293
4.12907
2.52395
1.40898
0.69499
0.289106
0.00242434
111.788
97.842
84.0774
71.0723
59.133
48.3529
38.7716
30.0951
20.0841
4.97948
112.768
99.4797
85.979
72.9727
60.9297
50.0489
40.5158
32.2576
23.5925
11.4797
113.299
100.214
87.3343
75.0082
63.4696
52.8778
43.448
35.2593
27.4729
18.339
114.512
102.772
90.8132
78.9827
67.6265
57.0316
47.3988
38.7987
31.0921
23.8291
115.089
104.078
93.1575
82.4666
72.1199
62.1958
52.7338
43.8237
36.0059
29.8274
115.438
104.711
94.205
84.0435
74.323
65.0938
56.3347
48.0935
41.052
36.0352
115.67
105.111
94.7998
84.8679
75.4253
66.545
58.2364
50.5689
44.215
40.0955
115.77
105.249
94.9829
85.1117
75.7578
67.012
58.9084
51.5151
45.3984
41.4387
115.72
105.034
94.6085
84.5896
75.1106
66.2782
58.1483
50.7789
44.5551
40.1023
115.596
104.65
93.9625
83.6853
73.96
64.91
56.6154
49.1207
42.6118
37.4169
234.121
229.757
228.189
227.746
227.655
227.906
228.64
230.021
232.173
234.311
225.559
222.539
221.49
221.45
221.675
222.16
223.091
224.698
227.169
229.645
216.046
213.871
213.098
213.222
213.653
214.356
215.481
217.251
219.865
222.462
205.74
203.712
203.008
203.204
203.748
204.577
205.801
207.609
210.178
212.697
194.417
192.507
191.852
192.04
192.572
193.384
194.56
196.254
198.609
200.9
182.051
180.326
179.732
179.874
180.327
181.038
182.073
183.551
185.581
187.546
168.705
167.242
166.749
166.851
167.207
167.78
168.619
169.812
171.439
173.01
154.571
153.455
153.1
153.177
153.433
153.845
154.452
155.315
156.485
157.613
139.963
139.249
139.042
139.091
139.236
139.471
139.821
140.323
141.005
141.661
125.438
125.094
124.954
124.907
124.894
124.916
124.983
125.102
125.28
125.455
246.559
246.798
247.05
247.269
247.567
248.068
248.621
248.958
248.962
248.448
246.63
246.961
247.365
247.671
247.872
248.207
248.632
248.548
247.729
246.708
246.637
247.033
247.478
247.79
247.874
248.004
248.287
247.926
246.538
245.283
246.514
247.016
247.446
247.677
247.61
247.495
247.529
247.107
245.813
244.656
246.021
246.675
247.063
247.169
246.99
246.712
246.534
246.174
245.365
244.577
244.814
245.656
245.991
245.954
245.722
245.436
245.239
245.067
244.828
244.542
242.468
243.564
243.901
243.784
243.572
243.407
243.372
243.502
243.809
244.049
238.584
240.069
240.537
240.47
240.385
240.435
240.673
241.167
241.98
242.719
233.111
235.165
235.872
235.939
236.064
236.409
236.997
237.902
239.206
240.418
227.757
229.621
230.365
230.532
230.838
231.455
232.397
233.748
235.595
237.303
246.938
246.72
246.679
246.492
246.424
246.312
245.937
245.68
245.577
245.723
246.896
246.719
246.674
246.495
246.423
246.324
245.945
245.66
245.382
245.741
246.867
246.714
246.665
246.49
246.415
246.325
245.944
245.603
245.143
245.821
246.848
246.708
246.652
246.477
246.401
246.32
245.929
245.508
244.922
246.005
246.837
246.699
246.636
246.457
246.381
246.304
245.9
245.397
244.787
246.243
246.83
246.687
246.617
246.433
246.355
246.276
245.861
245.304
244.762
246.351
246.829
246.673
246.597
246.406
246.324
246.235
245.824
245.254
244.809
246.019
246.832
246.654
246.576
246.376
246.289
246.191
245.807
245.259
244.832
244.783
246.842
246.631
246.551
246.342
246.251
246.158
245.841
245.336
244.654
242.008
246.859
246.606
246.522
246.307
246.216
246.154
245.944
245.463
243.976
237.292
246.897
246.579
246.481
246.248
246.151
246.081
245.876
245.138
242.445
233.744
247.013
246.558
246.441
246.194
246.094
246.116
246.069
245.336
242.18
231.802
247.253
246.563
246.402
246.114
246.017
246.076
246.057
245.235
241.884
230.536
247.703
246.619
246.372
246.028
245.881
245.812
245.609
244.53
240.477
229.314
248.542
246.685
246.396
245.938
245.671
245.307
244.741
243.225
238.007
227.458
250.379
246.752
246.505
245.868
245.378
244.646
243.658
241.569
235.375
224.914
254.259
247.063
246.66
245.812
245.023
243.932
242.562
239.959
233.313
222.586
262.564
248.2
246.935
245.771
244.649
243.242
241.56
238.67
232.075
221.33
280.124
250.934
247.586
245.807
244.295
242.59
240.651
237.739
231.632
221.359
306.094
254.98
249.092
246.022
244.004
241.968
239.766
236.923
231.361
221.887
236.417
221.068
210.446
201.131
190.971
179.667
167.272
153.9
139.854
125.725
230.029
217.735
208.584
199.862
189.925
178.686
166.34
153.089
139.366
125.892
223.496
214.131
205.952
197.425
187.71
176.87
165.117
152.617
139.599
126.422
218.38
210.872
202.88
194.031
184.188
173.424
161.932
149.989
137.927
126.093
212.982
206.589
198.596
189.503
179.834
169.697
159.146
148.279
137.224
126.131
207.386
202.09
194.83
186.36
177.361
167.906
157.987
147.664
137.044
126.257
203.592
199.151
192.562
184.665
176.132
167.046
157.425
147.351
136.94
126.33
202.31
198.052
191.706
184.093
175.78
166.844
157.325
147.322
136.963
126.394
203.636
198.921
192.471
184.886
176.554
167.539
157.901
147.755
137.24
126.509
206.31
200.875
194.138
186.427
177.932
168.7
158.817
148.414
137.638
126.645
112.192
112.362
112.446
112.297
111.791
111.43
111.245
111.53
111.522
111.273
89.6171
90.0804
90.2991
89.8655
88.4335
87.3471
86.7262
87.3878
87.4255
86.8389
68.774
69.4017
69.6631
68.9963
67.0569
65.3452
64.3249
64.8737
65.1781
64.6229
50.6562
51.2627
51.4524
50.6293
48.6502
46.4841
45.1541
45.1895
45.9279
45.6945
36.0109
36.4194
36.4698
35.5884
33.7966
31.4806
29.8368
29.2715
30.0792
30.2669
24.9587
25.0622
24.9402
24.0171
22.4395
20.41
18.6192
17.6776
17.9326
18.4327
17.0722
16.9219
16.7072
15.7162
14.3017
12.7983
11.3109
10.2459
9.90613
10.2726
11.5852
11.4084
11.3599
10.3605
9.04155
8.03967
7.14816
6.30537
5.71688
5.633
7.91111
7.82291
8.11898
7.25108
6.08498
5.49456
5.16593
4.78149
4.29756
3.9177
6.04207
5.8372
6.22274
5.48483
4.61546
4.3396
4.36392
4.35481
4.20231
3.80622
5.27455
5.03781
5.12033
4.42596
3.89383
3.83799
3.98815
4.13112
4.25233
4.30898
4.84694
4.73788
4.46066
3.79437
3.50879
3.59651
3.80007
3.96785
4.08766
4.17391
4.46799
4.42325
3.99151
3.44111
3.32152
3.48481
3.70988
3.88876
4.00679
4.06712
4.01314
3.95815
3.55208
3.20102
3.2114
3.41507
3.62821
3.78564
3.88427
3.92558
3.46463
3.37133
3.0985
2.97921
3.09642
3.31348
3.50375
3.64148
3.72281
3.74654
2.81281
2.71887
2.66019
2.75116
2.94818
3.15274
3.31863
3.43814
3.50511
3.51853
2.08933
2.10653
2.24219
2.47732
2.71324
2.9119
3.06725
3.18106
3.24745
3.26297
1.41688
1.53525
1.787
2.08037
2.33665
2.55128
2.7274
2.86634
2.95407
2.98223
0.740107
0.874536
1.14963
1.4793
1.78987
2.06223
2.3003
2.48559
2.59055
2.62821
0.0675432
-0.0178679
0.21792
0.630577
1.05207
1.43533
1.76037
1.97578
2.07903
2.14237
3.66272
3.7063
3.57579
3.24925
2.59702
1.90506
1.30869
0.83325
0.448334
0.0825887
3.73521
3.67967
3.52502
3.23319
2.55755
1.84913
1.25741
0.796782
0.424693
0.0800496
3.76135
3.57314
3.41278
3.17881
2.51349
1.79653
1.20934
0.763098
0.403559
0.0796382
3.72185
3.39628
3.25946
3.07589
2.45609
1.74555
1.16453
0.732337
0.385165
0.0809585
3.61354
3.18765
3.0907
2.92184
2.37341
1.69165
1.12225
0.704461
0.369737
0.0841671
3.44976
2.98968
2.9298
2.73721
2.25914
1.63089
1.08225
0.679832
0.357675
0.089412
3.25619
2.82246
2.78603
2.55414
2.1162
1.55951
1.04381
0.658773
0.349402
0.0967179
3.04924
2.68592
2.66006
2.39693
1.95996
1.47473
1.00547
0.641239
0.345218
0.105967
2.82745
2.57553
2.54756
2.27273
1.81192
1.37777
0.964847
0.626654
0.345234
0.116886
2.58375
2.49398
2.44215
2.17538
1.6868
1.27683
0.919648
0.613774
0.349267
0.129029
5.42409
3.97753
3.27854
2.89821
2.41548
1.89038
1.38467
0.927104
0.539815
0.127137
4.62025
3.75704
3.315
2.95977
2.45653
1.8995
1.3721
0.90821
0.516708
0.114511
3.95025
3.66518
3.37605
3.02959
2.49626
1.90771
1.36099
0.891422
0.499044
0.103626
3.63039
3.6658
3.46182
3.11028
2.53785
1.9157
1.3505
0.876032
0.483719
0.0948363
3.61569
3.70912
3.56392
3.2031
2.58416
1.92393
1.33931
0.860474
0.468887
0.0879928
112.023
88.9557
67.9045
50.1327
36.1177
25.7972
18.627
13.7515
10.5694
8.75515
111.802
88.3933
67.1982
49.3982
35.3154
24.7929
17.3233
12.2179
9.07499
7.57473
111.616
87.9129
66.5598
48.6575
34.4041
23.6201
15.9029
10.683
7.5382
6.08005
111.405
87.3391
65.7193
47.5925
33.0793
22.0259
14.1311
8.89815
5.81254
4.4368
111.151
86.6109
64.5899
46.1193
31.279
19.958
11.9621
6.92567
4.44259
3.62682
243.772
243.81
243.93
244.101
244.314
244.323
243.818
243.116
243.22
242.996
243.984
244.056
244.17
244.359
244.63
244.804
244.586
243.936
243.679
243.572
244.18
244.229
244.342
244.538
244.824
245.086
245.06
244.553
244.125
244.075
244.422
244.455
244.553
244.728
244.985
245.275
245.382
245.112
244.725
244.658
244.698
244.716
244.797
244.947
245.162
245.428
245.633
245.635
245.469
245.379
244.991
245.004
245.073
245.195
245.369
245.6
245.871
246.114
246.221
246.21
245.266
245.284
245.367
245.502
245.678
245.909
246.21
246.573
246.878
247.001
245.552
245.57
245.667
245.858
246.114
246.414
246.776
247.19
247.557
247.738
245.935
245.964
246.04
246.263
246.635
247.089
247.596
248.118
248.464
248.425
246.328
246.439
246.54
246.73
247.129
247.7
248.304
248.856
249.21
249.005
136.505
136.246
136.223
136.486
136.268
135.87
135.329
135.157
135.228
135.393
160.956
160.359
160.381
161.018
160.365
159.243
157.779
157.323
157.528
157.986
183.201
182.634
182.921
183.444
182.394
180.648
178.68
177.991
178.24
178.863
202.167
201.921
202.64
202.65
201.292
199.095
197.087
196.243
196.421
197.023
217.639
217.813
218.597
218.01
216.341
213.997
212.176
211.273
211.312
211.717
229.519
230
230.23
229.271
227.463
225.407
223.797
222.85
222.718
222.819
237.718
238.054
237.692
236.618
235.126
233.597
232.147
231.13
230.905
230.754
242.373
242.254
241.644
240.811
239.932
238.914
237.56
236.534
236.476
236.299
244.098
243.679
243.186
242.828
242.53
241.944
240.754
239.859
240.145
240.06
244.237
243.812
243.658
243.679
243.751
243.508
242.634
241.873
242.258
242.069
254.848
246.873
247.502
246.286
246.036
245.53
244.998
244.637
244.507
244.545
252.015
246.809
247.315
246.265
246.089
245.593
245.014
244.669
244.583
244.517
250.092
246.816
247.093
246.261
246.145
245.661
245.057
244.763
244.752
244.548
248.904
246.844
246.88
246.279
246.202
245.735
245.138
244.916
244.982
244.654
248.219
246.848
246.741
246.318
246.259
245.818
245.266
245.108
245.224
244.825
247.77
246.806
246.703
246.368
246.312
245.911
245.434
245.297
245.433
245.033
247.456
246.752
246.702
246.412
246.358
246.014
245.611
245.453
245.589
245.244
247.24
246.724
246.695
246.447
246.391
246.12
245.759
245.564
245.689
245.439
247.096
246.718
246.685
246.472
246.407
246.212
245.858
245.633
245.728
245.598
247.001
246.719
246.682
246.485
246.417
246.277
245.913
245.67
245.694
245.693
317.352
253.757
249.911
246.974
246.141
245.57
245.253
244.933
244.241
242.724
295.62
251.368
248.789
246.741
246.059
245.541
245.209
244.904
244.453
243.525
277.179
249.212
248.193
246.568
246.018
245.522
245.159
244.846
244.536
244.198
265.776
247.867
247.869
246.438
246
245.511
245.101
244.764
244.526
244.527
259.005
247.137
247.646
246.329
245.997
245.503
245.033
244.662
244.481
244.559
239.303
237.454
234.238
229.331
222.128
211.774
197.723
179.918
158.842
135.761
240.486
238.95
235.776
230.639
223.137
212.58
198.46
180.627
159.406
135.982
241.999
240.502
237.321
232.067
224.316
213.496
199.204
181.267
159.887
136.169
243.661
242.255
239.127
233.853
225.918
214.825
200.271
182.108
160.461
136.378
244.45
243.613
241.11
236.039
227.997
216.63
201.747
183.238
161.188
136.631
)
;

boundaryField
{
    left
    {
        type            zeroGradient;
    }
    right
    {
        type            fixedValue;
        value           uniform 0;
    }
    down
    {
        type            zeroGradient;
    }
    up
    {
        type            zeroGradient;
    }
    cylinder
    {
        type            zeroGradient;
    }
    defaultFaces
    {
        type            empty;
    }
}


// ************************************************************************* //
