/*--------------------------------*- C++ -*----------------------------------*\
  =========                 |
  \\      /  F ield         | OpenFOAM: The Open Source CFD Toolbox
   \\    /   O peration     | Website:  https://openfoam.org
    \\  /    A nd           | Version:  13
     \\/     M anipulation  |
\*---------------------------------------------------------------------------*/
FoamFile
{
    format      ascii;
    class       volScalarField;
    location    "0.45";
    object      p;
}
// * * * * * * * * * * * * * * * * * * * * * * * * * * * * * * * * * * * * * //

dimensions      [0 2 -2 0 0 0 0];

internalField   nonuniform List<scalar> 
1800
(
-1.0745
-1.06485
-1.03549
-0.979797
-0.901532
-0.813096
-0.724652
-0.641651
-0.56622
-0.504052
-1.25704
-1.24583
-1.21086
-1.14591
-1.0567
-0.957672
-0.859957
-0.769536
-0.68943
-0.623494
-1.43172
-1.41836
-1.37665
-1.30125
-1.20044
-1.09056
-0.983256
-0.88438
-0.796317
-0.721467
-1.59363
-1.57743
-1.52801
-1.44142
-1.32925
-1.20954
-1.09412
-0.988426
-0.894417
-0.813829
-1.7376
-1.71788
-1.65988
-1.56137
-1.43793
-1.30889
-1.18587
-1.07374
-0.973998
-0.887538
-1.85885
-1.83504
-1.76777
-1.65733
-1.52352
-1.38653
-1.25745
-1.14043
-1.03645
-0.945774
-1.95231
-1.92395
-1.84687
-1.72481
-1.58165
-1.43795
-1.30395
-1.18304
-1.07569
-0.98158
-2.01363
-1.98042
-1.89348
-1.76079
-1.60989
-1.46114
-1.32374
-1.20027
-1.09071
-0.994263
-2.03857
-2.0004
-1.90394
-1.76203
-1.6052
-1.45312
-1.31382
-1.18907
-1.07842
-0.980659
-2.02407
-1.98109
-1.87598
-1.72682
-1.56623
-1.41272
-1.27304
-1.14825
-1.0375
-0.93934
0.252657
0.259528
0.270773
0.286142
0.302917
0.318518
0.331321
0.340651
0.346479
0.348979
0.209124
0.215895
0.227402
0.243703
0.262262
0.280277
0.295821
0.307975
0.316575
0.321907
0.139716
0.146638
0.158688
0.176526
0.197903
0.219688
0.239484
0.255994
0.268853
0.278535
0.0460994
0.0535047
0.0661195
0.0859839
0.111138
0.13796
0.163395
0.185639
0.204065
0.219431
-0.0696939
-0.0625697
-0.0489186
-0.0263361
0.00360567
0.0366706
0.068984
0.0981326
0.123197
0.145319
-0.206052
-0.198989
-0.184031
-0.158079
-0.122418
-0.0820865
-0.0419218
-0.00501183
0.027427
0.0569879
-0.359833
-0.352615
-0.336107
-0.306186
-0.264048
-0.215747
-0.167179
-0.122122
-0.0820524
-0.0449537
-0.527507
-0.519972
-0.501477
-0.466883
-0.417544
-0.360768
-0.303582
-0.25042
-0.202914
-0.158789
-0.705157
-0.697209
-0.676025
-0.635691
-0.577996
-0.511794
-0.445341
-0.383704
-0.328544
-0.277821
-0.888917
-0.880319
-0.855538
-0.808092
-0.74052
-0.663415
-0.586185
-0.514335
-0.449541
-0.391606
0.335484
0.253004
0.197485
0.156113
0.123198
0.0962193
0.0726647
0.0509894
0.0302985
0.01008
0.324279
0.246845
0.195685
0.155391
0.122705
0.095792
0.0722941
0.0507008
0.0301105
0.00999959
0.305931
0.236468
0.192146
0.153944
0.121928
0.0952727
0.0719115
0.0504286
0.0299402
0.00992528
0.27961
0.222494
0.186921
0.15176
0.120861
0.0946546
0.0715103
0.0501674
0.0297842
0.00985648
0.244365
0.205626
0.180075
0.148834
0.119499
0.0939322
0.0710848
0.0499119
0.0296391
0.00979282
0.199226
0.186585
0.171721
0.145175
0.117839
0.0931005
0.0706301
0.0496573
0.0295021
0.00973428
0.142804
0.165817
0.162085
0.140842
0.115889
0.0921586
0.0701426
0.0493996
0.0293703
0.00968117
0.0729677
0.142676
0.151227
0.135866
0.113648
0.091103
0.0696189
0.0491345
0.0292414
0.00963428
-0.0109523
0.115629
0.138841
0.130087
0.111016
0.089885
0.0690361
0.0488502
0.02911
0.00959485
-0.102594
0.0849394
0.125309
0.123621
0.107997
0.0884861
0.068379
0.0485361
0.0289689
0.00956455
-0.154464
0.0590569
0.110523
0.114704
0.102753
0.085422
0.0665552
0.0474468
0.0284031
0.00944051
-0.167212
0.0303757
0.0880105
0.0996136
0.0933433
0.0796548
0.0630012
0.0452867
0.0272437
0.00908467
-0.162027
0.0147782
0.0745244
0.0887198
0.085472
0.0743895
0.0596008
0.0431722
0.0260902
0.00872401
-0.153691
7.34439e-05
0.0610303
0.0781438
0.0778473
0.0692398
0.056248
0.0410778
0.0249384
0.00835679
-0.142525
-0.0101019
0.0496892
0.0688316
0.0708687
0.0643868
0.053034
0.039052
0.0238136
0.00799209
-0.131323
-0.0176889
0.0396298
0.0604201
0.0644917
0.0598815
0.0500148
0.0371346
0.0227377
0.00763666
-0.122014
-0.0236821
0.0307652
0.05288
0.0587543
0.0557898
0.0472485
0.0353655
0.0217311
0.00729583
-0.11566
-0.0292293
0.0227597
0.0461258
0.0536787
0.0521734
0.0447937
0.0337869
0.0208161
0.00697874
-0.111424
-0.0342283
0.0155557
0.0399924
0.0491001
0.0489209
0.0425801
0.0323527
0.0199484
0.00665552
-0.117184
-0.0417627
0.00838816
0.0347397
0.0454791
0.0464295
0.0409052
0.0312774
0.0192997
0.00641871
-0.774381
-0.814234
-0.830603
-0.824487
-0.798533
-0.753626
-0.695198
-0.622213
-0.542673
-0.454317
-0.598059
-0.637674
-0.658332
-0.660921
-0.647025
-0.617775
-0.577408
-0.526738
-0.470535
-0.412168
-0.461819
-0.500124
-0.522599
-0.530506
-0.524107
-0.50546
-0.476746
-0.439946
-0.397389
-0.353536
-0.356912
-0.394359
-0.417865
-0.428987
-0.427308
-0.415471
-0.394347
-0.366535
-0.333301
-0.298687
-0.277052
-0.313581
-0.337717
-0.350901
-0.35254
-0.345287
-0.329498
-0.307946
-0.281573
-0.253704
-0.216055
-0.252035
-0.276786
-0.291462
-0.295618
-0.291656
-0.279824
-0.262744
-0.241235
-0.217898
-0.170597
-0.206471
-0.231914
-0.247752
-0.253819
-0.2522
-0.243238
-0.229247
-0.211119
-0.190932
-0.138167
-0.174491
-0.200874
-0.21792
-0.225595
-0.225647
-0.218578
-0.206455
-0.19037
-0.171985
-0.121025
-0.157661
-0.184423
-0.202727
-0.212152
-0.213812
-0.208313
-0.196792
-0.181363
-0.161686
-0.109547
-0.147867
-0.177645
-0.198498
-0.210561
-0.214896
-0.21213
-0.203052
-0.189333
-0.170148
0.622052
0.568195
0.505963
0.438908
0.365872
0.284561
0.194546
0.100211
0.0190364
-0.0212763
0.430941
0.371556
0.304686
0.230728
0.147983
0.0546784
-0.0488695
-0.156929
-0.249123
-0.294307
0.219144
0.156095
0.0855684
0.00631501
-0.0836277
-0.185823
-0.299635
-0.418451
-0.519562
-0.568485
0.0123064
-0.0555745
-0.131932
-0.218227
-0.316169
-0.42716
-0.55042
-0.678718
-0.787741
-0.839384
-0.179852
-0.254195
-0.337986
-0.432507
-0.539273
-0.659582
-0.792407
-0.929695
-1.04632
-1.09943
-0.355685
-0.436987
-0.528443
-0.631241
-0.746841
-0.87641
-1.0188
-1.16439
-1.28685
-1.33922
-0.514605
-0.602106
-0.700406
-0.810689
-0.934482
-1.07275
-1.22359
-1.37725
-1.49785
-1.55117
-0.654794
-0.747251
-0.851075
-0.967458
-1.0979
-1.24386
-1.40123
-1.5564
-1.67665
-1.72947
-0.773638
-0.869735
-0.977521
-1.0985
-1.23402
-1.38438
-1.54523
-1.70095
-1.81866
-1.86935
-0.869733
-0.967444
-1.07734
-1.20096
-1.33942
-1.49235
-1.65427
-1.80818
-1.92056
-1.96788
1.82997
1.84588
1.86381
1.88226
1.89982
1.91569
1.92915
1.93983
1.94877
1.95615
1.77404
1.78779
1.80305
1.81843
1.83261
1.84477
1.8542
1.86071
1.866
1.87107
1.69822
1.70897
1.72048
1.73151
1.7409
1.7478
1.7515
1.75207
1.75213
1.75399
1.60296
1.61004
1.61686
1.62238
1.62566
1.62585
1.62222
1.61515
1.60846
1.60641
1.48874
1.49158
1.49295
1.49205
1.48818
1.48048
1.46823
1.45214
1.43737
1.43088
1.35793
1.35637
1.35156
1.34317
1.33089
1.31389
1.29151
1.26488
1.24073
1.22928
1.21179
1.20537
1.19408
1.17786
1.1567
1.12977
1.09647
1.05842
1.02405
1.00711
1.05844
1.04621
1.02646
1.00025
0.968235
0.929678
0.884018
0.833392
0.788091
0.765316
0.901434
0.883555
0.855147
0.818348
0.774454
0.72279
0.662998
0.598059
0.540696
0.511903
0.753982
0.721097
0.677479
0.626815
0.569736
0.504667
0.430949
0.352105
0.283145
0.248539
1.66659
1.50109
1.6352
1.54639
1.55858
1.56849
1.57964
1.60819
1.66087
1.76251
1.6603
1.49567
1.62992
1.54015
1.55147
1.55964
1.56816
1.59246
1.63739
1.72572
1.65458
1.49012
1.62485
1.53337
1.54387
1.54993
1.55501
1.57381
1.6079
1.67762
1.64941
1.4845
1.62002
1.52607
1.5358
1.53936
1.54023
1.55213
1.57277
1.61769
1.64477
1.47886
1.61544
1.51827
1.5273
1.52792
1.52383
1.52732
1.53247
1.54497
1.64061
1.47326
1.6111
1.51001
1.51841
1.51561
1.50581
1.49934
1.4874
1.45871
1.63696
1.46778
1.60698
1.5013
1.50918
1.50241
1.48614
1.46811
1.43786
1.35736
1.63385
1.46249
1.60306
1.49219
1.49962
1.48832
1.46481
1.43362
1.3839
1.24261
1.63128
1.45745
1.59928
1.48271
1.48979
1.47337
1.44187
1.39609
1.32443
1.11211
1.62932
1.45278
1.5956
1.47291
1.47972
1.45763
1.41776
1.35727
1.26146
0.977029
1.62721
1.44761
1.59042
1.46259
1.46613
1.43706
1.38593
1.3071
1.18584
0.844432
1.62772
1.44261
1.58451
1.4531
1.45077
1.41519
1.35372
1.26082
1.12068
0.800113
1.62959
1.43864
1.57924
1.44441
1.43654
1.39505
1.32466
1.22204
1.0678
0.769866
1.63375
1.43579
1.57468
1.43665
1.42367
1.37697
1.29906
1.18994
1.02461
0.750378
1.64054
1.43403
1.57086
1.42992
1.41238
1.36122
1.27722
1.16363
0.99092
0.738382
1.65053
1.43351
1.56772
1.42428
1.40285
1.34795
1.25926
1.14256
0.966105
0.73086
1.66383
1.43354
1.56484
1.41966
1.39518
1.33726
1.24516
1.12638
0.948792
0.726696
1.68491
1.4361
1.56457
1.41634
1.3895
1.32924
1.23489
1.11484
0.937634
0.725754
1.69909
1.43391
1.55784
1.41408
1.38596
1.32398
1.22849
1.108
0.931829
0.728689
1.75945
1.44431
1.55994
1.41179
1.38519
1.32124
1.22541
1.10446
0.929588
0.730349
0.595017
0.432897
0.244531
0.0619248
-0.105404
-0.257501
-0.396003
-0.519841
-0.625931
-0.711134
0.530223
0.403735
0.259931
0.11508
-0.0217354
-0.147874
-0.263844
-0.369797
-0.462785
-0.539638
0.499241
0.394101
0.280794
0.162278
0.0456596
-0.0641579
-0.165577
-0.258193
-0.339991
-0.40836
0.492223
0.398416
0.302268
0.201678
0.0997901
0.00215941
-0.0880613
-0.170377
-0.243825
-0.306735
0.497162
0.409951
0.323727
0.235425
0.144925
0.0566112
-0.0258784
-0.101638
-0.16993
-0.229126
0.506616
0.424391
0.344721
0.264574
0.182015
0.100097
0.0226799
-0.048698
-0.113273
-0.169684
0.517094
0.438846
0.363806
0.288977
0.211657
0.13411
0.0602382
-0.0080907
-0.0701677
-0.124901
0.527697
0.452222
0.38027
0.308625
0.234341
0.159414
0.0877007
0.0211759
-0.0394007
-0.0929383
0.540335
0.467309
0.397016
0.32603
0.252139
0.177606
0.106036
0.0393654
-0.021478
-0.0754056
0.554417
0.484972
0.415827
0.343814
0.268909
0.194151
0.122251
0.0547137
-0.00726892
-0.0624265
-2.84123
-2.77061
-2.61513
-2.42881
-2.24854
-2.08898
-1.95291
-1.83954
-1.74805
-1.67901
-2.91416
-2.85327
-2.71539
-2.54015
-2.36438
-2.20538
-2.0677
-1.95142
-1.85674
-1.78587
-2.89033
-2.83958
-2.72348
-2.56502
-2.39758
-2.2413
-2.10328
-1.9848
-1.88658
-1.8109
-2.78313
-2.74255
-2.64971
-2.51222
-2.35639
-2.20464
-2.06742
-1.94788
-1.84729
-1.76732
-2.61219
-2.5818
-2.51089
-2.39575
-2.25277
-2.10562
-1.96863
-1.84756
-1.7445
-1.66022
-2.39639
-2.37565
-2.32407
-2.22951
-2.0986
-1.95465
-1.81601
-1.69166
-1.58552
-1.49844
-2.14866
-2.13591
-2.10028
-2.02292
-1.90325
-1.7623
-1.62137
-1.49304
-1.38296
-1.29421
-1.87332
-1.8667
-1.84252
-1.77846
-1.66986
-1.53392
-1.39262
-1.2611
-1.14694
-1.05657
-1.5765
-1.57243
-1.55446
-1.50008
-1.40355
-1.27798
-1.14349
-1.01589
-0.903241
-0.820261
-1.26755
-1.26351
-1.24788
-1.20044
-1.11672
-1.00643
-0.885847
-0.768582
-0.66008
-0.575905
-0.964754
-0.959096
-0.944178
-0.902464
-0.832205
-0.741019
-0.641624
-0.545263
-0.456737
-0.377509
-0.68598
-0.678848
-0.664892
-0.628265
-0.5706
-0.498037
-0.419905
-0.344484
-0.276016
-0.212055
-0.442116
-0.433958
-0.422412
-0.390169
-0.343039
-0.285861
-0.225286
-0.167049
-0.114354
-0.0645416
-0.237808
-0.229602
-0.218913
-0.19112
-0.152898
-0.108285
-0.062133
-0.0183812
0.0208038
0.0572666
-0.0727885
-0.0654102
-0.0526272
-0.0294281
0.00115282
0.0354657
0.069832
0.10155
0.129273
0.154097
0.0572298
0.0643635
0.0770405
0.0970165
0.121826
0.148287
0.173625
0.19603
0.214737
0.230368
0.154772
0.161794
0.173901
0.191546
0.212191
0.233002
0.251837
0.267492
0.279591
0.28849
0.221816
0.228798
0.240383
0.256474
0.274359
0.291437
0.305972
0.317145
0.324825
0.329222
0.259833
0.266753
0.278034
0.293272
0.309657
0.32471
0.336906
0.345631
0.350882
0.352797
0.269832
0.276744
0.287905
0.302914
0.318953
0.333547
0.345206
0.35336
0.358038
0.359367
-0.0213052
0.101762
0.125198
0.125646
0.114798
0.0977502
0.0776917
0.0562224
0.0340194
0.0114433
0.0824637
0.131974
0.139825
0.132285
0.116689
0.097669
0.0769368
0.0554025
0.0334328
0.0112408
0.162443
0.156313
0.151748
0.137139
0.118206
0.0975692
0.076255
0.0546656
0.0329064
0.0110574
0.219869
0.177395
0.162448
0.141828
0.119588
0.0974868
0.0756505
0.0540078
0.032435
0.0108912
0.261835
0.197213
0.172089
0.145893
0.120773
0.0974036
0.0751118
0.0534212
0.0320136
0.0107405
0.29305
0.215429
0.180383
0.149289
0.121755
0.0973099
0.0746286
0.0528985
0.031638
0.0106037
0.315544
0.231079
0.187147
0.152013
0.122524
0.0971926
0.0741895
0.0524323
0.0313037
0.0104792
0.330418
0.243298
0.192304
0.154065
0.123066
0.0970376
0.0737837
0.0520152
0.0310067
0.0103657
0.338453
0.251237
0.19578
0.155438
0.123368
0.0968318
0.0734007
0.0516402
0.0307428
0.0102621
0.340118
0.254519
0.197517
0.156124
0.123416
0.0965627
0.0730308
0.0513005
0.0305081
0.0101672
-0.285789
-0.0345351
0.065553
0.0986569
0.103333
0.093783
0.0769915
0.056725
0.034748
0.0118033
-0.26077
-0.0171899
0.0717105
0.101198
0.104287
0.0940463
0.0769722
0.0566036
0.0346182
0.0117448
-0.203163
0.00854266
0.0807767
0.105017
0.105956
0.094631
0.0770629
0.0565195
0.034493
0.01168
-0.140203
0.0388907
0.0936819
0.11081
0.10851
0.0956378
0.0773561
0.0565268
0.0344116
0.0116301
-0.0834658
0.0763991
0.112043
0.119236
0.112142
0.0970529
0.0778305
0.0566163
0.0343719
0.0115975
-1.6164
-1.71769
-1.74492
-1.71078
-1.61252
-1.48535
-1.30978
-1.12868
-0.932087
-0.728701
-1.61507
-1.71565
-1.73805
-1.69835
-1.59534
-1.46661
-1.28936
-1.10298
-0.906968
-0.697134
-1.61739
-1.71767
-1.73709
-1.69331
-1.58701
-1.44984
-1.26694
-1.06667
-0.860801
-0.649719
-1.62673
-1.72837
-1.74713
-1.70044
-1.59168
-1.44139
-1.24956
-1.02878
-0.810377
-0.601003
-1.64421
-1.7487
-1.76841
-1.72014
-1.60902
-1.4475
-1.24438
-1.00703
-0.774715
-0.550706
1.31929
1.29878
1.26982
1.23588
1.1978
1.15401
1.10311
1.04696
0.99677
0.970714
1.4377
1.4339
1.42194
1.40349
1.37978
1.35013
1.31378
1.27255
1.23579
1.21763
1.55356
1.55492
1.55074
1.54205
1.5295
1.51245
1.4901
1.46356
1.4398
1.4286
1.65374
1.65988
1.66347
1.66429
1.66212
1.65615
1.64558
1.63111
1.61794
1.61247
1.7396
1.74967
1.7586
1.76591
1.771
1.77306
1.77132
1.76618
1.76142
1.76069
1.80523
1.81829
1.83163
1.84437
1.85558
1.86443
1.87012
1.87272
1.87469
1.87789
1.85091
1.86636
1.88301
1.89973
1.91535
1.92904
1.94006
1.9482
1.95501
1.96118
1.8762
1.89315
1.91195
1.93126
1.94975
1.96661
1.9811
1.99284
2.00277
2.01086
1.88116
1.89869
1.91842
1.93887
1.95862
1.97688
1.99292
2.00626
2.01758
2.02651
1.86573
1.88292
1.90235
1.9225
1.94193
1.95985
1.97554
1.98851
1.99949
2.00817
-1.48535
-1.55523
-1.64514
-1.75584
-1.88936
-2.04763
-2.22903
-2.42207
-2.58935
-2.66821
-1.21291
-1.28497
-1.37499
-1.48402
-1.61459
-1.7688
-1.94661
-2.14471
-2.3182
-2.40221
-0.881806
-0.956537
-1.04751
-1.15547
-1.28278
-1.43205
-1.60449
-1.79472
-1.97174
-2.059
-0.519474
-0.596702
-0.68819
-0.794421
-0.917481
-1.06014
-1.22367
-1.40324
-1.5706
-1.66039
-0.157437
-0.235404
-0.325145
-0.427042
-0.543002
-0.67584
-0.827144
-0.992563
-1.14554
-1.23075
0.177656
0.103457
0.019795
-0.0736893
-0.178908
-0.29872
-0.434705
-0.582772
-0.718745
-0.795364
0.476716
0.411092
0.337675
0.256062
0.164217
0.0593304
-0.0599626
-0.1896
-0.307644
-0.373798
0.748575
0.692793
0.63021
0.560679
0.481954
0.391331
0.287853
0.175671
0.0746644
0.0190644
1.00098
0.952942
0.897275
0.83604
0.767452
0.689035
0.600101
0.504535
0.419697
0.374101
1.21179
1.16987
1.11854
1.06415
1.00603
0.941679
0.869816
0.793136
0.725553
0.68987
1.7726
1.53994
1.68611
1.57024
1.60047
1.60769
1.60858
1.61549
1.592
1.47904
1.75719
1.53794
1.68271
1.57133
1.59836
1.60775
1.61137
1.62522
1.62041
1.56059
1.74312
1.53538
1.67859
1.57167
1.5959
1.60703
1.61377
1.63423
1.64536
1.63982
1.73033
1.53232
1.67388
1.57123
1.59304
1.60545
1.61472
1.64049
1.66523
1.69925
1.71866
1.52883
1.66874
1.56997
1.58972
1.60294
1.61429
1.6442
1.68022
1.74539
1.70799
1.52495
1.6633
1.5679
1.5859
1.59948
1.61242
1.64519
1.69046
1.7776
1.69821
1.52073
1.65768
1.56503
1.58155
1.59509
1.60905
1.64339
1.69577
1.79733
1.68925
1.5162
1.65198
1.5614
1.57665
1.58978
1.60413
1.63874
1.69571
1.80542
1.68102
1.51139
1.64629
1.55705
1.57118
1.58357
1.59762
1.6313
1.68993
1.80235
1.67349
1.50635
1.64068
1.55203
1.56515
1.57647
1.58946
1.62112
1.67834
1.78807
1.91727
1.55025
1.68684
1.56993
1.60089
1.59982
1.58767
1.57047
1.48634
1.3593
1.85544
1.54355
1.68614
1.57099
1.60064
1.60124
1.58932
1.57378
1.49329
1.36082
1.8345
1.54562
1.68935
1.57105
1.60116
1.60273
1.59247
1.5798
1.50808
1.36517
1.81059
1.54405
1.68929
1.57066
1.60144
1.60442
1.59698
1.58875
1.52897
1.3784
1.7899
1.54189
1.68835
1.56988
1.6015
1.60615
1.60204
1.60012
1.55524
1.39662
1.03331
0.893346
0.702733
0.449568
0.141242
-0.2008
-0.552504
-0.890967
-1.19378
-1.4399
1.02692
0.888376
0.704941
0.460806
0.162017
-0.174481
-0.526669
-0.870618
-1.18132
-1.43484
1.04908
0.902948
0.714301
0.472573
0.180786
-0.151998
-0.506825
-0.856928
-1.17455
-1.43407
1.1023
0.937327
0.731352
0.485248
0.196749
-0.13458
-0.493138
-0.849736
-1.17395
-1.43929
1.1808
0.989675
0.756218
0.498031
0.20743
-0.124071
-0.485249
-0.847316
-1.17852
-1.45113
)
;

boundaryField
{
    left
    {
        type            zeroGradient;
    }
    right
    {
        type            fixedValue;
        value           uniform 0;
    }
    down
    {
        type            zeroGradient;
    }
    up
    {
        type            zeroGradient;
    }
    cylinder
    {
        type            zeroGradient;
    }
    defaultFaces
    {
        type            empty;
    }
}


// ************************************************************************* //
