/*--------------------------------*- C++ -*----------------------------------*\
  =========                 |
  \\      /  F ield         | OpenFOAM: The Open Source CFD Toolbox
   \\    /   O peration     | Website:  https://openfoam.org
    \\  /    A nd           | Version:  13
     \\/     M anipulation  |
\*---------------------------------------------------------------------------*/
FoamFile
{
    format      ascii;
    class       surfaceScalarField;
    location    "0.45";
    object      phi;
}
// * * * * * * * * * * * * * * * * * * * * * * * * * * * * * * * * * * * * * //

dimensions      [0 3 -1 0 0 0 0];

internalField   nonuniform List<scalar> 
3485
(
0.00261382
-0.00944445
0.00683063
0.00955165
-0.0473001
0.0403623
0.0193262
-0.0865664
0.0767918
0.0303418
-0.116774
0.105758
0.0414689
-0.135456
0.124328
0.0521488
-0.144615
0.133935
0.0622102
-0.147447
0.137386
0.0716539
-0.146661
0.137217
0.0805235
-0.143985
0.135115
-0.140235
0.131606
0.0891526
0.00307541
-0.0125199
0.0106904
-0.0549151
0.0208925
-0.0967685
0.0319114
-0.127793
0.0426748
-0.146219
0.0527901
-0.15473
0.0622809
-0.156938
0.0713562
-0.155736
0.0803226
-0.152951
-0.149528
0.0896151
0.00351544
-0.0160353
0.0117088
-0.0631085
0.0221453
-0.107205
0.0329018
-0.138549
0.0429769
-0.156294
0.0521157
-0.163869
0.0604454
-0.165267
0.0681954
-0.163486
0.0755518
-0.160308
-0.156577
0.082601
0.00392947
-0.0199648
0.0125818
-0.0717609
0.0230704
-0.117693
0.0333966
-0.148875
0.0427077
-0.165605
0.0509443
-0.172105
0.058384
-0.172707
0.065347
-0.170449
0.0720857
-0.167046
-0.163366
0.0788746
0.00426162
-0.0242264
0.0131462
-0.0806455
0.0233709
-0.127918
0.0329319
-0.158436
0.0411556
-0.173829
0.0481571
-0.179107
0.0543157
-0.178866
0.0599865
-0.17612
0.0654183
-0.172478
-0.168715
0.0707679
0.0045239
-0.0287503
0.0134313
-0.0895529
0.0231447
-0.137631
0.0317607
-0.167052
0.0388327
-0.180901
0.044658
-0.184932
0.0497116
-0.183919
0.0543781
-0.180786
0.0588966
-0.176997
-0.173241
0.0634219
0.00465743
-0.0334077
0.0132961
-0.0981915
0.022172
-0.146507
0.0295661
-0.174447
0.03527
-0.186605
0.0397327
-0.189395
0.043484
-0.187671
0.046906
-0.184209
0.0502168
-0.180307
-0.176537
0.0535134
0.00467532
-0.038083
0.0127944
-0.106311
0.0205997
-0.154313
0.0266337
-0.180481
0.0309308
-0.190902
0.0340646
-0.192529
0.0365919
-0.190198
0.0388729
-0.18649
0.0410906
-0.182525
-0.178752
0.0433051
0.00454017
-0.0426232
0.0118674
-0.113638
0.0183609
-0.160806
0.0228755
-0.184995
0.0256712
-0.193698
0.0274132
-0.194271
0.0286597
-0.191444
0.0297369
-0.187567
0.0307899
-0.183578
-0.179794
0.0318319
0.0042698
-0.046893
0.0105889
-0.119957
0.01561
-0.165827
0.0185298
-0.187915
0.0198083
-0.194976
0.0201731
-0.194636
0.0201634
-0.191435
0.0200629
-0.187466
0.0199754
-0.183491
0.0198827
-0.179701
-0.000384216
-0.000274795
0.000659012
0.00155128
-0.00567872
0.00374322
0.00684884
-0.0124704
0.00717284
0.0152623
-0.0184714
0.0100579
0.0259875
-0.022793
0.0120678
0.0381603
-0.0254164
0.0132436
0.0510851
-0.0267085
0.0137837
0.0642854
-0.0271036
0.0139033
0.0774849
-0.0269774
0.013778
-0.0267471
0.090684
0.0135479
-0.00028475
9.95363e-06
0.00181807
-0.00778154
0.00728269
-0.017935
0.0158222
-0.0270109
0.0266159
-0.0335867
0.0387988
-0.0375994
0.0516833
-0.0395929
0.0648035
-0.0402238
0.0778937
-0.0400676
-0.0398142
0.0909608
-0.000150448
0.000160401
0.00218164
-0.0101136
0.00787817
-0.0236315
0.016594
-0.0357268
0.0274844
-0.044477
0.0396836
-0.0497986
0.052515
-0.0524243
0.0655284
-0.0532372
0.0784718
-0.0530111
-0.0527028
0.0913605
3.09605e-05
0.00012944
0.0026763
-0.012759
0.0086904
-0.0296456
0.0176487
-0.0446851
0.0286741
-0.0555024
0.0409015
-0.0620261
0.0536722
-0.065195
0.0665583
-0.0661233
0.0793268
-0.0657796
-0.0653746
0.0919985
0.000253818
-0.000124378
0.00332484
-0.01583
0.00976353
-0.0360843
0.0190421
-0.0539637
0.0302445
-0.0667047
0.0425111
-0.0742928
0.0552122
-0.077896
0.0679535
-0.0788647
0.0805268
-0.0783529
-0.0777937
0.0929459
0.000557084
-0.000681462
0.00415966
-0.0194326
0.0111255
-0.0430502
0.0207918
-0.0636299
0.0321947
-0.0781076
0.0444891
-0.0865871
0.0570892
-0.0904962
0.0696502
-0.0914256
0.081996
-0.0906987
-0.0899017
0.094104
0.000925924
-0.00160739
0.00515893
-0.0236656
0.012731
-0.0506223
0.0228157
-0.0737147
0.0343987
-0.0896907
0.0466608
-0.0988492
0.0590783
-0.102914
0.0713712
-0.103719
0.0834049
-0.102732
-0.101574
0.0950767
0.00133183
-0.00293921
0.00623741
-0.0285712
0.0144231
-0.0588079
0.024881
-0.0841726
0.0365509
-0.101361
0.0486547
-0.110953
0.0607438
-0.115003
0.0726113
-0.115586
0.0841649
-0.114286
-0.112581
0.0951722
0.00173617
-0.00467538
0.00729989
-0.0341349
0.0160351
-0.0675432
0.0267466
-0.0948841
0.0383398
-0.112954
0.0500956
-0.122709
0.0616555
-0.126563
0.0728926
-0.126823
0.0837574
-0.125151
-0.122647
0.0938239
0.00215524
0.00838264
0.0176313
0.0285053
0.0398799
0.051106
0.0619289
0.0723229
0.0822875
0.0912462
0.150762
-0.167878
0.107801
0.179273
-0.116185
0.0876741
0.193973
-0.0871257
0.0724256
0.201284
-0.0659153
0.0586042
0.20463
-0.0496915
0.0463458
0.205767
-0.0369886
0.0358515
0.20562
-0.026932
0.0270791
0.204686
-0.0186765
0.0196099
0.203298
-0.0128031
0.0141914
-0.00452074
0.00638221
0.149662
-0.22658
0.178306
-0.144829
0.193297
-0.102117
0.200853
-0.0734716
0.204393
-0.0532307
0.205683
-0.0382787
0.205663
-0.0269125
0.204845
-0.0178589
0.203567
-0.0115249
-0.00277688
0.147736
-0.282955
0.176478
-0.173571
0.1918
-0.117439
0.199687
-0.0813592
0.203527
-0.0570708
0.20509
-0.0398409
0.205324
-0.0271469
0.204753
-0.0172875
0.203717
-0.0104895
-0.00128626
0.144971
-0.335928
0.173786
-0.202386
0.189477
-0.13313
0.197787
-0.0896698
0.202038
-0.0613215
0.203991
-0.0417942
0.204604
-0.0277601
0.204408
-0.0170912
0.203747
-0.00982805
-0.000183534
0.141411
-0.384393
0.170217
-0.231191
0.186323
-0.149236
0.195158
-0.0985041
0.199931
-0.0660948
0.202394
-0.0442569
0.203509
-0.0288751
0.203814
-0.0173962
0.203655
-0.00966929
0.000398385
0.137104
-0.427393
0.165714
-0.259801
0.182324
-0.165847
0.191803
-0.107982
0.197215
-0.0715077
0.200306
-0.0473472
0.202043
-0.0306127
0.202973
-0.0183258
0.203443
-0.0101389
0.000329099
0.132126
-0.464443
0.160187
-0.287861
0.177435
-0.183094
0.187714
-0.118262
0.193898
-0.0776916
0.197737
-0.0511862
0.200216
-0.0330919
0.20189
-0.0199997
0.203109
-0.0113589
-0.000518513
0.126671
-0.495942
0.153628
-0.314818
0.171595
-0.201062
0.182857
-0.129523
0.18997
-0.0848043
0.19469
-0.0559066
0.198033
-0.0364342
0.200568
-0.0225354
0.202657
-0.0134473
-0.00226772
0.121038
-0.523155
0.146433
-0.340214
0.164897
-0.219525
0.177216
-0.141842
0.185414
-0.0930021
0.191162
-0.0616552
0.195497
-0.0407692
0.199013
-0.0260517
0.202086
-0.0165195
-0.00503772
0.115895
-0.547804
0.139788
-0.364106
0.158224
-0.237961
0.171249
-0.154868
0.180431
-0.102183
0.187239
-0.0684636
0.192647
-0.0461776
0.197241
-0.0306454
0.201401
-0.0206794
-0.00894165
0.390175
-0.481922
-0.456058
0.353785
-0.327716
0.335003
-0.219179
0.32588
-0.145745
0.321146
-0.0974499
0.31835
-0.0656679
0.316521
-0.0443486
0.315291
-0.0294151
0.314433
-0.0198209
-0.00855803
0.400568
-0.407725
-0.474765
0.362124
-0.289272
0.342455
-0.19951
0.331812
-0.135102
0.325469
-0.0911065
0.321386
-0.0615846
0.318649
-0.041612
0.316818
-0.027584
0.315572
-0.0185746
-0.00801685
0.415911
-0.338985
-0.484651
0.376018
-0.249379
0.352309
-0.175801
0.338361
-0.121154
0.329826
-0.0825714
0.324329
-0.0560873
0.32068
-0.037963
0.318266
-0.0251703
0.316644
-0.0169524
-0.00731976
0.425128
-0.275274
-0.488839
0.38527
-0.209522
0.359832
-0.150363
0.34385
-0.105172
0.33366
-0.0723809
0.326979
-0.0494066
0.322527
-0.0335112
0.319589
-0.022232
0.317621
-0.0149844
-0.00647616
0.432025
-0.21705
-0.490249
0.392553
-0.17005
0.366023
-0.123833
0.348507
-0.0876563
0.336974
-0.0608474
0.329297
-0.0417295
0.324153
-0.0283676
0.320757
-0.0188354
0.318481
-0.0127091
-0.00549971
0.436867
-0.163713
-0.490204
0.398057
-0.13124
0.370893
-0.0966686
0.352286
-0.0690486
0.339716
-0.0482774
0.331237
-0.0332507
0.325523
-0.0226538
0.321744
-0.015056
0.319206
-0.0101716
-0.0044073
0.44007
-0.114242
-0.489541
0.402004
-0.0931738
0.374477
-0.0691417
0.355131
-0.0497028
0.341811
-0.0349577
0.332729
-0.0241686
0.326577
-0.0165012
0.322499
-0.0109785
0.319752
-0.00742451
-0.00321927
0.441026
-0.0664535
-0.488815
0.403447
-0.0555954
0.375863
-0.0415571
0.356219
-0.0300591
0.342525
-0.0212641
0.333112
-0.0147549
0.326706
-0.0100958
0.322454
-0.00672613
0.319579
-0.00454912
-0.00197083
0.427623
-0.018659
-0.475418
0.391111
-0.0190831
0.364846
-0.0152925
0.34623
-0.0114427
0.333197
-0.00823152
0.324197
-0.00575445
0.318054
-0.00395353
0.313974
-0.00264586
0.311214
-0.0017894
-0.000770817
0.293189
-0.311848
0.274106
0.258814
0.247371
0.23914
0.233385
0.229432
0.226786
0.224996
0.477943
0.0170542
-0.475114
0.48018
0.0295944
0.481414
0.0420712
0.482165
0.0527622
0.480853
0.0647342
0.479859
0.0717617
0.474693
0.0840404
0.471605
0.085689
0.460568
0.100653
0.0936624
0.458235
0.0143516
-0.455533
0.461183
0.026647
0.463912
0.0393417
0.467072
0.0496023
0.469284
0.0625223
0.47216
0.0688861
0.473634
0.0825657
0.475199
0.0841245
0.476714
0.0991377
0.0956115
0.441805
0.011714
-0.439168
0.44516
0.0232926
0.449023
0.0354783
0.453503
0.0451227
0.458368
0.0576565
0.46342
0.0638348
0.469189
0.0767967
0.474027
0.0792863
0.48054
0.0926242
0.0915007
0.429045
0.00915205
-0.426483
0.43261
0.0197281
0.437218
0.0308703
0.442512
0.0398283
0.449021
0.0511471
0.455586
0.0572705
0.463764
0.0686183
0.471161
0.071889
0.48069
0.0830958
0.0833517
0.419201
0.00670183
-0.416751
0.422881
0.0160486
0.427931
0.0258201
0.433838
0.0339209
0.441327
0.0436587
0.449078
0.0495197
0.458697
0.0589988
0.468036
0.0625503
0.479558
0.0715732
0.0726606
0.411723
0.00430797
-0.409329
0.415524
0.0122479
0.420869
0.020475
0.427271
0.0275185
0.435361
0.0355693
0.444007
0.0408734
0.454514
0.048492
0.46517
0.0518937
0.477827
0.0589169
0.0602835
0.406031
0.0019045
-0.403628
0.410002
0.00827764
0.415605
0.0148716
0.422455
0.0206681
0.430985
0.0270398
0.440323
0.0315354
0.451374
0.0374406
0.462896
0.0403716
0.476176
0.0456369
0.0469188
0.39926
-0.000676948
-0.396678
0.403515
0.00402279
0.409593
0.00879358
0.417136
0.0131245
0.426371
0.0178048
0.436623
0.0212837
0.448429
0.0256351
0.460808
0.0279923
0.474774
0.0316709
0.0328781
0.372181
-0.0023492
-0.370509
0.376184
1.9137e-05
0.382527
0.0024508
0.390906
0.00474551
0.401481
0.00723013
0.413536
0.00922868
0.427502
0.0116688
0.442288
0.0132069
0.45865
0.015309
0.01611
0.231879
-0.234229
0.231899
0.234349
0.239095
0.246325
0.255554
0.267223
0.280429
0.295738
0.0741985
0.128255
-0.117319
-0.085135
0.0640924
0.130387
-0.120281
0.0546683
0.133073
-0.123649
0.0454474
0.136678
-0.127457
0.0361076
0.140683
-0.131343
0.0266186
0.14424
-0.134751
0.017276
0.145179
-0.135836
0.00882087
0.138081
-0.129626
0.00253258
0.112554
-0.106265
0.0540449
-0.0515123
0.0736904
0.138323
-0.0837583
0.0635745
0.140503
0.0536815
0.142966
0.0440732
0.146286
0.0346018
0.150154
0.0252141
0.153628
0.0161547
0.154238
0.0081137
0.146122
0.00226484
0.118403
0.0563097
0.0700357
0.147365
-0.0790772
0.0604834
0.150055
0.050848
0.152601
0.0413785
0.155755
0.032112
0.15942
0.0230675
0.162672
0.0144898
0.162816
0.0070422
0.15357
0.00182415
0.123621
0.0581339
0.0628594
0.155365
-0.0708598
0.0543492
0.158566
0.0455515
0.161399
0.0367274
0.16458
0.0280365
0.168111
0.0196157
0.171093
0.0117952
0.170637
0.00528243
0.160082
0.00108404
0.127819
0.0592179
0.0526783
0.162255
-0.0595678
0.0454304
0.165814
0.0378456
0.168984
0.0300936
0.172332
0.0223639
0.175841
0.0149021
0.178555
0.00814511
0.177394
0.00291733
0.16531
0.000106248
0.13063
0.0593242
0.0406161
0.167978
-0.0463398
0.0346892
0.17174
0.0284637
0.175209
0.0220142
0.178781
0.0155112
0.182344
0.00926475
0.184801
0.00387715
0.182781
8.26666e-05
0.169105
-0.000884349
0.131597
0.0584398
0.0278816
0.172546
-0.0324492
0.0232216
0.1764
0.0183317
0.180099
0.0132337
0.183879
0.00809158
0.187486
0.00325693
0.189636
-0.000631225
0.186669
-0.00236301
0.170837
-0.00179316
0.131027
0.0566467
0.0152816
0.175986
-0.0187218
0.011812
0.17987
0.00818131
0.18373
0.00440266
0.187658
0.000638101
0.191251
-0.00266735
0.192942
-0.00472805
0.18873
-0.00482752
0.170936
-0.00260721
0.128807
0.0540394
0.00319098
0.178406
-0.00561046
0.000818407
0.182243
-0.00163041
0.186178
-0.0041425
0.19017
-0.00651604
0.193624
-0.00829206
0.194718
-0.00873385
0.189172
-0.00703468
0.169237
-0.0032942
0.125066
0.0507453
-0.00855774
0.00726226
-0.00980589
-0.0110936
-0.0123583
-0.0133698
-0.0136282
-0.0123713
-0.00896176
-0.00385226
0.104907
0.0248415
-0.11634
-0.0134085
0.0931685
0.0254785
-0.0137402
0.0811054
0.026155
-0.0140919
0.0686878
0.0268784
-0.0144608
0.0558934
0.0276451
-0.0148507
0.0427343
0.0284015
-0.0152424
0.0293691
0.0288739
-0.0155088
0.0164157
0.028142
-0.0151886
0.00551816
0.023999
-0.0131014
0.0124937
-0.0069755
0.104093
0.0362481
-0.1155
0.0923954
0.0371765
0.0803844
0.038166
0.0680313
0.0392315
0.0553144
0.0403621
0.0422473
0.0414686
0.0289929
0.0421283
0.0161721
0.0409629
0.0054176
0.0347534
0.0179113
0.102899
0.0476225
-0.114274
0.0912636
0.0488123
0.0793324
0.0500972
0.067077
0.0514869
0.0544758
0.0529633
0.0415445
0.0543999
0.0284517
0.0552211
0.015823
0.0535915
0.00527415
0.0453023
0.0231854
0.101214
0.0589529
-0.112545
0.0896729
0.0603537
0.0778604
0.0619097
0.0657454
0.0636018
0.0533067
0.065402
0.0405639
0.0671426
0.0276943
0.0680907
0.0153305
0.0659553
0.00506731
0.0555656
0.0282527
0.0989636
0.0701861
-0.110197
0.087574
0.0717433
0.0759514
0.0735324
0.064054
0.0754992
0.0518514
0.0776046
0.0393617
0.0796323
0.0267747
0.0806777
0.0147414
0.0779886
0.00483451
0.0654724
0.0330872
0.0954708
0.0812723
-0.106557
0.0843045
0.0829095
0.0729347
0.0849022
0.0613348
0.0870991
0.0494855
0.0894539
0.0374091
0.0917087
0.0252968
0.09279
0.0137981
0.0894872
0.00444895
0.0748216
0.0375362
0.0922083
0.0918921
-0.102828
0.081535
0.0935829
0.0706401
0.095797
0.0594355
0.0983037
0.0478984
0.100991
0.0360914
0.103516
0.0242669
0.104615
0.013125
0.100629
0.00418281
0.0837638
0.041719
0.084649
0.102104
-0.0948608
0.0745577
0.103674
0.0644115
0.105943
0.054107
0.108608
0.0435424
0.111556
0.0327076
0.11435
0.0218325
0.11549
0.0116327
0.110829
0.0035907
0.0918058
0.0453097
0.0817664
0.110976
-0.0906384
0.0725534
0.112887
0.0627426
0.115754
0.0524912
0.11886
0.0419517
0.122095
0.031251
0.125051
0.0206615
0.126079
0.0108828
0.120608
0.00330788
0.0993808
0.0486176
0.0713884
-0.077731
0.0639945
0.0560998
0.0475026
0.0382551
0.028555
0.0187977
0.00977941
0.00289473
0.201892
0.0107274
-0.0146298
0.205066
0.0271937
-0.0303675
0.205938
0.0359582
-0.0368306
0.206845
0.0386781
-0.0395847
0.206258
0.0446366
-0.0440497
0.203944
0.0534369
-0.0511224
0.197968
0.0663639
-0.060388
0.187381
0.0838709
-0.0732844
0.162568
0.112008
-0.0871942
0.151926
-0.105697
0.201613
0.00710414
0.204613
0.0241937
0.205419
0.0351527
0.206278
0.0378182
0.205619
0.0452959
0.203169
0.0558875
0.197053
0.0724792
0.186117
0.0948068
0.161004
0.137121
0.197429
0.201222
0.00387224
0.203902
0.0215137
0.204534
0.0345208
0.205209
0.0371423
0.204343
0.0461627
0.201619
0.0586109
0.195279
0.0788194
0.183855
0.106231
0.15863
0.162346
0.241785
0.200713
0.00114875
0.202934
0.0192931
0.203293
0.0341612
0.203652
0.0367837
0.202443
0.0473717
0.199311
0.0617427
0.192642
0.0854887
0.180581
0.118292
0.155661
0.187266
0.284901
0.200082
-0.000943633
0.201713
0.0176625
0.20171
0.0341636
0.201622
0.0368723
0.199938
0.0490554
0.196264
0.0654172
0.189127
0.0926254
0.176268
0.131151
0.152135
0.2114
0.32684
0.199323
-0.00227708
0.200244
0.0167419
0.199799
0.0346084
0.199136
0.0375354
0.196848
0.0513434
0.192499
0.0697664
0.184748
0.100376
0.170862
0.145036
0.14797
0.234292
0.368253
0.198428
-0.00271488
0.198533
0.0166362
0.197576
0.0355655
0.196214
0.0388981
0.193197
0.0543603
0.188044
0.074919
0.179566
0.108854
0.164362
0.16024
0.143207
0.255447
0.408632
0.197393
-0.00211801
0.196595
0.0174345
0.195062
0.0370982
0.192875
0.0410849
0.189011
0.0582248
0.182929
0.0810001
0.173594
0.11819
0.15707
0.176764
0.137236
0.275281
0.451007
0.19623
-0.00035832
0.194463
0.0192021
0.192282
0.0392785
0.189144
0.0442232
0.184315
0.0630535
0.177189
0.0881262
0.166936
0.128443
0.150131
0.19357
0.131348
0.294064
0.491716
0.195058
0.00257323
0.19218
0.0220806
0.189304
0.0421544
0.184997
0.04853
0.179203
0.0688471
0.170877
0.096453
0.158854
0.140465
0.14028
0.212143
0.12286
0.311484
0.536845
0.303773
0.000810584
0.306845
0.0190082
0.311182
0.0378181
0.313992
0.0457192
0.317058
0.0657816
0.320401
0.0931095
0.32583
0.135037
0.336806
0.201167
0.367546
0.280745
0.482714
0.421676
0.304521
-0.00170046
0.308068
0.0154613
0.312894
0.0329921
0.316548
0.0420655
0.321004
0.0613258
0.32669
0.0874231
0.335461
0.126266
0.351954
0.184675
0.382442
0.250256
0.423992
0.441165
0.305303
-0.00499375
0.309518
0.0112466
0.314676
0.0278344
0.319127
0.0376142
0.324758
0.0556953
0.332316
0.0798645
0.343973
0.114609
0.363181
0.165467
0.39577
0.217667
0.361052
0.45871
0.306178
-0.00916163
0.311055
0.00636975
0.316473
0.0224161
0.321587
0.0325002
0.328247
0.049035
0.337371
0.0707408
0.351251
0.100729
0.372395
0.144324
0.406341
0.183721
0.298203
0.469189
0.307197
-0.0143489
0.312708
0.000859351
0.318256
0.0168674
0.323865
0.0268914
0.331376
0.0415243
0.34178
0.0603364
0.35726
0.0852489
0.380049
0.121535
0.413795
0.149975
0.237807
0.474191
0.30843
-0.0207684
0.314544
-0.00525512
0.320014
0.0113975
0.32591
0.0209956
0.334079
0.0333551
0.345488
0.0489274
0.36207
0.0686673
0.386142
0.0974634
0.418858
0.117258
0.180971
0.475695
0.309954
-0.0287125
0.316599
-0.0118999
0.321705
0.0062918
0.32765
0.0150499
0.336295
0.0247108
0.348444
0.036778
0.365764
0.0513475
0.390696
0.0725317
0.422185
0.0857694
0.127687
0.475469
0.311652
-0.0383542
0.318561
-0.0188092
0.322987
0.00186658
0.32865
0.00938697
0.337592
0.0157684
0.35026
0.0241095
0.368114
0.033494
0.393543
0.0471022
0.424095
0.0552178
0.0778124
0.47397
0.30885
-0.0451937
0.312826
-0.0227854
0.316037
-0.00134501
0.321692
0.00373205
0.330852
0.00660882
0.343926
0.0110352
0.362272
0.0151481
0.387855
0.0215197
0.418585
0.0244872
0.0333205
0.463077
0.256816
0.234031
0.232686
0.236418
0.243027
0.254062
0.26921
0.29073
0.315217
0.348538
0.436498
-0.0999569
0.443292
-0.0905521
0.448385
-0.0841706
0.452715
-0.0751896
0.456796
-0.0636493
0.460717
-0.0502602
0.464489
-0.0362213
0.468177
-0.0224099
0.471686
-0.00911925
0.00383413
0.443928
-0.10272
0.446111
-0.0927349
0.44637
-0.0844296
0.446329
-0.0751488
0.446549
-0.0638698
0.447321
-0.0510318
0.44874
-0.0376403
0.4507
-0.0243694
0.452988
-0.0114072
0.00128881
0.453722
-0.097732
0.449999
-0.089012
0.445945
-0.0803758
0.441981
-0.0711846
0.438876
-0.0607655
0.436946
-0.049102
0.436142
-0.036836
0.436339
-0.0245666
0.437368
-0.0124362
-0.000510384
0.459437
-0.0879801
0.45124
-0.0808145
0.443947
-0.0730833
0.437398
-0.0646348
0.432014
-0.055382
0.428126
-0.0452137
0.425753
-0.0344629
0.424765
-0.0235786
0.425032
-0.0127034
-0.00196177
0.461804
-0.0755939
0.450938
-0.0699479
0.441437
-0.0635828
0.433184
-0.0563811
0.42636
-0.0485582
0.421215
-0.0400692
0.417804
-0.0310515
0.416015
-0.0217894
0.415714
-0.0124032
-0.00299829
0.461963
-0.0618618
0.449627
-0.0576122
0.438757
-0.0527124
0.429408
-0.0470322
0.421681
-0.0408312
0.415728
-0.0341166
0.411604
-0.0269278
0.409237
-0.0194215
0.408515
-0.0116817
-0.00381233
0.460996
-0.0473888
0.447824
-0.0444405
0.436109
-0.0409976
0.426041
-0.0369633
0.417708
-0.0324986
0.411213
-0.0276218
0.40661
-0.0223246
0.403858
-0.0166696
0.402894
-0.0107176
-0.00454625
0.458874
-0.0322933
0.444905
-0.0304715
0.43244
-0.0285327
0.421683
-0.0262064
0.412727
-0.0235423
0.405666
-0.0205607
0.400555
-0.0172138
0.397376
-0.0134905
0.396087
-0.00942893
-0.00513739
0.44579
-0.0150057
0.430173
-0.0148545
0.416189
-0.0145488
0.403938
-0.0139562
0.393498
-0.0131016
0.384924
-0.0119869
0.37827
-0.0105597
0.373596
-0.00881633
0.370989
-0.00682172
-0.00465748
0.333532
0.318677
0.304129
0.290172
0.277071
0.265084
0.254524
0.245708
0.238886
0.00913182
0.0607706
-0.0699024
0.0193332
0.156071
-0.166272
0.0243709
0.211238
-0.216276
0.0246187
0.234614
-0.234862
0.0221312
0.240747
-0.238259
0.018488
0.239786
-0.236143
0.0145169
0.236375
-0.232404
0.010684
0.231334
-0.227501
0.00751585
0.222566
-0.219397
0.204656
0.00574531
-0.202885
0.0109454
0.0498252
0.026066
0.14095
0.0365354
0.200769
0.0414333
0.229716
0.0426652
0.239515
0.0421469
0.240304
0.040994
0.237528
0.039639
0.232689
0.0380766
0.224128
0.206902
0.03583
0.0117594
0.0380658
0.0310887
0.121621
0.0471316
0.184726
0.0571891
0.219659
0.06262
0.234084
0.0655147
0.23741
0.0672905
0.235752
0.0684349
0.231545
0.0685055
0.224057
0.209447
0.0659606
0.0115099
0.026556
0.0335709
0.0995596
0.0547005
0.163596
0.0702018
0.204158
0.080362
0.223924
0.0871259
0.230646
0.0921842
0.230694
0.0962714
0.227457
0.0988496
0.221479
0.210604
0.0976928
0.0104083
0.0161476
0.0330735
0.0768944
0.0577686
0.138901
0.0783409
0.183585
0.0935879
0.208677
0.104798
0.219436
0.113681
0.22181
0.121309
0.21983
0.12754
0.215248
0.207996
0.130148
0.00876532
0.00738231
0.0297223
0.0559374
0.0553644
0.113259
0.079367
0.159583
0.0991487
0.188895
0.114905
0.20368
0.127911
0.208803
0.139339
0.208403
0.149664
0.204923
0.199714
0.157945
0.00685268
0.000529637
0.0243238
0.0384663
0.0480358
0.0895472
0.0728138
0.134805
0.0954422
0.166266
0.115035
0.184087
0.132094
0.191745
0.147522
0.192974
0.161947
0.190498
0.185674
0.175987
0.0048248
-0.00429516
0.0178861
0.0254051
0.0374579
0.0699754
0.0601738
0.112089
0.0830361
0.143404
0.104471
0.162652
0.124146
0.17207
0.142371
0.174748
0.159634
0.173235
0.168699
0.17661
0.00279917
-0.00709433
0.0114881
0.0167162
0.0261608
0.0553027
0.0451333
0.0931163
0.0661413
0.122396
0.0874707
0.141322
0.108265
0.151276
0.128342
0.154672
0.147917
0.15366
0.148113
0.168503
0.000986201
-0.00808054
0.0060717
0.0116307
0.0163773
0.0449971
0.0313228
0.0781708
0.0493633
0.104356
0.0689075
0.121778
0.0887765
0.131407
0.108254
0.135194
0.126833
0.135081
0.130483
0.144462
-0.000284906
-0.00779563
0.00240042
0.00894533
0.00966363
0.0377339
0.0214714
0.066363
0.0367856
0.0890414
0.0542831
0.104281
0.0728227
0.112867
0.0916201
0.116397
0.110211
0.116491
0.114625
0.126068
-0.000919473
-0.00687616
0.000553018
0.00747284
0.00618889
0.032098
0.0161002
0.0564517
0.0295041
0.0756375
0.0452947
0.0884902
0.062423
0.0957388
0.0800722
0.098748
0.0976743
0.0988885
0.09846
0.113839
-0.00112467
-0.00575149
-6.87628e-05
0.00641693
0.00487389
0.0271554
0.0137698
0.0475558
0.0259154
0.0634919
0.0403269
0.0740787
0.0560569
0.0800088
0.0723391
0.0824657
0.0885923
0.0826353
0.0827563
0.104296
-0.00107853
-0.00467296
-4.12182e-05
0.00537962
0.00466569
0.0224484
0.0130515
0.03917
0.0244068
0.0521365
0.0378083
0.0606772
0.0523939
0.0654233
0.0674734
0.0673862
0.0825322
0.0675765
0.067856
0.0974325
-0.000940336
-0.00373262
0.000239103
0.00420018
0.00493796
0.0177496
0.0131151
0.0309929
0.0240336
0.041218
0.0367963
0.0479144
0.0506007
0.0516188
0.064826
0.053161
0.0790373
0.0533652
0.0536722
0.0932211
-0.000801215
-0.00293141
0.000540137
0.00285882
0.00533069
0.012959
0.0134619
0.0228617
0.0241749
0.030505
0.0365856
0.0355037
0.0499323
0.0382722
0.0636487
0.0394446
0.0773652
0.0396487
0.0399467
0.0910907
-0.000686541
-0.00224487
0.000799339
0.00137294
0.00569272
0.00806565
0.0138434
0.014711
0.0244783
0.0198701
0.036721
0.023261
0.0498361
0.0251571
0.0632942
0.0259865
0.0767666
0.0261763
0.026457
0.0902564
-0.000599407
-0.00164546
0.00100684
-0.000233305
0.00599302
0.00307946
0.0141877
0.00651638
0.0248092
0.00924851
0.0369869
0.0110833
0.0500013
0.0121427
0.0633449
0.0126429
0.0767116
0.0128095
0.0130713
0.0900973
-0.000526267
-0.00111919
0.00117477
-0.00193435
0.00625271
-0.00199847
0.0145054
-0.00173632
0.0251465
-0.00139254
0.0373091
-0.00107932
0.0502845
-0.000832617
0.0635783
-0.000650899
0.0768973
-0.000509482
-0.00026028
0.0902289
-0.000460183
0.00134869
0.00652306
0.0148447
0.0255199
0.0376842
0.0506353
0.0638877
0.0771562
0.0904438
0.139727
0.336383
-0.350042
0.15136
0.138111
-0.149743
0.160428
0.046343
-0.0554115
0.16774
0.0061591
-0.013471
0.174065
-0.00925806
0.00293342
0.179787
-0.0136899
0.00796751
0.185084
-0.0136376
0.00834037
0.190012
-0.011843
0.00691504
0.194654
-0.00991618
0.00527444
-0.00650496
0.00237655
0.137873
0.312349
0.15557
0.120414
0.166472
0.0354416
0.173963
-0.00133161
0.179638
-0.0149333
0.184429
-0.0184812
0.18866
-0.0178683
0.19246
-0.0156434
0.195951
-0.0134072
-0.00949323
0.138372
0.278273
0.160088
0.0986976
0.17208
0.0234491
0.17948
-0.00873125
0.184657
-0.0201103
0.188638
-0.0224625
0.191922
-0.0211521
0.194709
-0.0184303
0.197162
-0.0158601
-0.0114504
0.140374
0.235332
0.16449
0.0745809
0.177193
0.0107467
0.184494
-0.0160324
0.189155
-0.0247712
0.192417
-0.0257252
0.194862
-0.0235967
0.196751
-0.0203192
0.198283
-0.0173924
-0.0124909
0.143043
0.185511
0.168511
0.049112
0.181692
-0.00243389
0.188888
-0.0232286
0.193115
-0.0289983
0.195755
-0.0283654
0.197471
-0.0253128
0.19858
-0.0214277
0.199311
-0.0181239
-0.0127332
0.145735
0.130866
0.172022
0.022825
0.185549
-0.0159608
0.192657
-0.0303367
0.196521
-0.0328627
0.198638
-0.0304815
0.199739
-0.0264143
0.200188
-0.0218769
0.200243
-0.0181781
-0.0123
0.148048
0.0730749
0.174938
-0.00406519
0.188727
-0.0297503
0.195774
-0.0373831
0.199353
-0.0364416
0.201049
-0.0321776
0.201654
-0.0270192
0.201568
-0.0217914
0.201072
-0.0176816
-0.0113175
0.149759
0.0134136
0.177181
-0.0314878
0.19119
-0.0437595
0.198213
-0.0444063
0.201592
-0.0398198
0.202977
-0.0335625
0.203206
-0.0272488
0.202713
-0.0212985
0.201795
-0.0167638
-0.00991525
0.150776
-0.0471338
0.178682
-0.0593934
0.192903
-0.0579801
0.199955
-0.0514587
0.203224
-0.0430889
0.20441
-0.0347486
0.204388
-0.0272269
0.203618
-0.0205278
0.20241
-0.0155561
-0.00822548
0.151111
0.179391
0.193837
0.200982
0.204239
0.205342
0.205194
0.204276
0.202912
0.0917956
-0.00612755
-0.0856681
0.0971182
-0.0053226
0.0981523
-0.00103408
0.0990457
-0.00089341
0.100336
-0.00129056
0.101648
-0.00131202
0.102746
-0.00109774
0.103572
-0.000826437
0.104153
-0.000580994
-0.000243737
0.216649
0.0469406
-0.269717
0.19152
0.019807
0.181195
0.00929014
0.178469
0.00183292
0.17897
-0.00179154
0.180528
-0.00286947
0.182187
-0.00275753
0.18357
-0.00220872
0.184619
-0.00163067
-0.000712818
0.259083
0.148481
-0.360623
0.215232
0.0636575
0.199498
0.0250248
0.195237
0.00609341
0.195345
-0.00189913
0.196884
-0.00440844
0.198657
-0.00453041
0.200176
-0.00372801
0.20136
-0.00281476
-0.00125319
0.261438
0.257481
-0.370438
0.21674
0.108355
0.201214
0.0405503
0.197181
0.0101266
0.197461
-0.00217971
0.199132
-0.00607935
0.200985
-0.00638296
0.202557
-0.00530004
0.203778
-0.00403622
-0.00181176
0.256258
-0.348819
0.214871
0.200009
0.196665
0.197419
0.199307
0.201264
0.202879
0.204118
0.0136458
0.000283431
-0.0139292
0.014853
-0.00120716
0.0171305
-0.00227753
0.0200103
-0.00287979
0.0237376
-0.00372736
0.0277383
-0.00400067
0.0359996
-0.00826124
0.0459377
-0.00993818
0.0642597
-0.0183219
-0.0214084
0.0384958
0.000378771
-0.0385911
0.0427528
-0.00546417
0.0509744
-0.0104992
0.0634465
-0.0153519
0.0811222
-0.021403
0.104717
-0.0275956
0.138271
-0.0418148
0.175534
-0.0472014
0.223851
-0.0666388
-0.0672753
0.0601894
-0.000390494
-0.0594201
0.0676703
-0.0129451
0.0818344
-0.0246633
0.103604
-0.0371215
0.133843
-0.0516417
0.173453
-0.0672059
0.220818
-0.0891799
0.270652
-0.0970354
0.322184
-0.118171
-0.105714
0.0779886
-0.00238747
-0.0759917
0.0882884
-0.0232448
0.107261
-0.0436361
0.135693
-0.0655531
0.173678
-0.0896266
0.219969
-0.113498
0.267165
-0.136376
0.31298
-0.14285
0.34828
-0.153471
-0.127872
0.0918063
-0.0884484
0.104391
0.126716
0.158856
0.199377
0.243825
0.283436
0.317195
0.332228
0.0931022
-0.0884145
0.0967609
-0.101449
0.0842939
-0.0905119
0.0993202
0.0752302
-0.0936112
0.102675
0.065244
-0.0968644
0.106851
0.0541102
-0.100121
0.111255
0.0419451
-0.103176
0.115341
0.0291123
-0.104927
0.11776
0.0163977
-0.101739
0.114453
0.00555534
-0.0854926
0.0963349
-0.0430608
0.0486162
0.104879
-0.0783168
-0.114976
0.0942253
-0.0798583
0.0825489
-0.0819348
0.0700118
-0.0843273
0.0569027
-0.0870119
0.0434449
-0.0897181
0.0298621
-0.0913441
0.0167414
-0.0886182
0.00567271
-0.0744239
-0.0373881
0.100474
-0.0667762
-0.112015
0.0889133
-0.0682975
0.0772196
-0.0702411
0.0653739
-0.0724816
0.0532774
-0.0749154
0.0408299
-0.0772706
0.0281079
-0.0786221
0.0156993
-0.0762095
0.00524233
-0.063967
-0.0321458
0.10456
-0.0554115
-0.115925
0.0930719
-0.0568093
0.0812843
-0.0584535
0.0690731
-0.0602704
0.0563669
-0.0622092
0.0431818
-0.0640854
0.0297162
-0.0651565
0.0166347
-0.063128
0.00560918
-0.0529415
-0.0265366
0.104769
-0.0438526
-0.116328
0.0930202
-0.0450602
0.0809559
-0.0463892
0.0685445
-0.0478589
0.0557669
-0.0494316
0.0426366
-0.0509552
0.0293048
-0.0518247
0.0163741
-0.0501973
0.00548506
-0.0420525
-0.0210515
0.105427
-0.0323658
-0.116914
0.0936722
-0.033305
0.0815939
-0.0343109
0.0691558
-0.0354208
0.0563268
-0.0366026
0.0431115
-0.0377399
0.0296654
-0.0383786
0.0166074
-0.0371393
0.00559391
-0.031039
-0.0154576
0.105678
-0.0209134
-0.117131
0.0939186
-0.0215453
0.0818195
-0.0222118
0.0693491
-0.0229504
0.0564829
-0.0237364
0.0432312
-0.0244881
0.0297499
-0.0248973
0.0166556
-0.024045
0.00560964
-0.019993
-0.009848
0.105775
-0.00947537
-0.117213
0.0940106
-0.00978067
0.0819027
-0.010104
0.0694219
-0.0104696
0.0565453
-0.0108597
0.0432833
-0.0112262
0.0297916
-0.0114056
0.016686
-0.0109394
0.00562601
-0.00893302
-0.00422199
0.105694
0.00195766
-0.117127
0.0939291
0.00198377
0.081824
0.00200113
0.0693481
0.00200622
0.0564788
0.00200957
0.0432271
0.00202551
0.0297488
0.00207272
0.0166597
0.00214972
0.00561604
0.00211067
0.00139405
0.105407
-0.116858
0.0936505
0.0815598
0.0691051
0.056264
0.0430471
0.0296111
0.0165722
0.00558146
0.0228606
-0.200713
-0.0250328
0.0175859
-0.214123
0.0110878
-0.221003
0.00429645
-0.225612
-0.00231558
-0.229531
-0.00810976
-0.232465
-0.0118299
-0.231142
-0.0118043
-0.216302
-0.00662429
-0.171452
-0.0765267
0.0515696
-0.196225
-0.0560579
0.0435333
-0.206086
0.0343262
-0.211796
0.0249196