/*--------------------------------*- C++ -*----------------------------------*\
  =========                 |
  \\      /  F ield         | OpenFOAM: The Open Source CFD Toolbox
   \\    /   O peration     | Website:  https://openfoam.org
    \\  /    A nd           | Version:  13
     \\/     M anipulation  |
\*---------------------------------------------------------------------------*/
FoamFile
{
    format      ascii;
    class       volScalarField;
    location    "0.47";
    object      p;
}
// * * * * * * * * * * * * * * * * * * * * * * * * * * * * * * * * * * * * * //

dimensions      [0 2 -2 0 0 0 0];

internalField   nonuniform List<scalar> 
440
(
7.8486
10.6051
12.9681
13.1512
10.1776
20.7423
24.1256
27.1212
27.8223
25.9355
41.2802
44.3116
47.0147
47.8075
46.6471
67.4138
69.5116
71.4251
72.0818
71.3944
96.6908
97.5078
98.3048
98.7048
98.6713
-0.410998
-0.510387
-0.0390689
0.519697
0.860353
-1.67036
-2.33146
-2.06607
-1.36801
-0.730265
-2.02678
-2.90515
-2.82075
-2.06069
-0.94096
-0.675768
-0.806919
-0.39776
0.570797
2.43833
3.09879
4.41066
5.84145
7.27549
9.52777
2.11725
2.30102
1.38743
0.716036
0.239959
1.08035
2.1001
1.26521
0.658059
0.226677
-0.0730737
1.68122
1.12667
0.608939
0.216415
-0.376015
1.07842
0.914003
0.564834
0.210972
1.53812
0.495188
0.625985
0.516486
0.209368
4.41304
0.26971
0.347865
0.468304
0.202128
6.74877
0.722454
0.439021
0.467486
0.147277
10.0105
2.46596
1.09337
0.587662
0.106446
13.9025
4.77887
2.15416
0.850728
0.10347
16.6398
7.14526
3.47801
1.31163
0.187365
100.715
75.8667
53.3513
33.1771
12.3752
102.411
78.9688
57.5634
39.0833
23.5097
104.312
82.7288
62.5013
45.2604
32.9136
105.195
85.0485
66.5308
51.2123
40.6864
105.114
84.7711
66.3566
51.2798
40.9261
219.897
216.421
216.13
218.248
220.981
202.716
200.251
200.512
203.253
206.545
180.568
178.796
179.16
181.583
184.461
154.769
153.427
153.632
155.225
157.122
126.888
126.175
126.114
126.574
127.167
235.576
236.003
236.639
237.06
236.803
236.17
236.805
237.36
237.336
236.381
234.983
235.959
236.377
236.105
235.116
230.099
231.702
232.27
232.409
232.317
221.606
223.473
224.489
225.701
227.056
235.786
234.736
234.916
234.107
234.269
235.758
234.722
234.864
234.071
234.813
235.748
234.685
234.811
234.196
235.35
235.749
234.626
234.811
234.457
234.943
235.753
234.548
234.886
234.658
232.249
235.761
234.417
234.94
234.438
228.746
235.936
234.28
234.828
233.96
226.383
236.821
234.045
234.188
232.267
223.361
240.848
234.031
233.002
229.793
219.679
249.815
234.753
231.787
227.244
216.925
217.785
196.259
175.053
151.76
126.474
207.394
191.398
172.353
150.449
126.679
198.906
186.226
168.642
148.115
126.361
191.767
180.808
165.125
146.288
125.947
191.548
180.789
165.38
146.687
126.177
96.4192
95.5423
95.0946
94.3277
94.1712
57.3413
55.3944
53.689
51.7673
51.0015
29.5137
27.1703
24.4078
22.1089
20.7846
15.0634
12.6469
10.1816
8.1616
7.19123
9.23473
7.34721
5.96039
4.98492
4.39786
6.00585
4.90367
4.32341
4.23428
4.32248
4.1005
3.64009
3.56665
3.7214
3.87472
2.79878
2.7824
3.01378
3.31584
3.47386
1.70006
2.003
2.45185
2.8016
2.94625
0.654547
1.05132
1.62197
2.02217
2.19554
3.64436
3.21282
2.10135
1.00318
0.297985
3.69783
3.04255
2.00938
0.948445
0.286532
3.50153
2.78381
1.88116
0.896348
0.276123
3.18425
2.54387
1.72059
0.841894
0.266249
2.76718
2.39672
1.54275
0.781897
0.256878
4.51219
3.1979
2.01374
1.03845
0.325239
3.77545
3.29073
2.104
1.03647
0.310217
94.9268
54.1716
27.5367
14.5146
9.49515
93.7056
51.1623
23.0137
9.49965
5.28991
232.151
232.232
232.183
231.668
230.592
232.741
232.914
233.144
233.184
232.81
233.302
233.474
233.86
234.257
234.428
233.893
234.043
234.445
235.045
235.461
234.626
234.861
235.363
235.971
236.226
141.999
141.807
140.979
140.469
139.557
185.23
184.421
182.442
180.676
178.698
215.526
214.156
211.806
208.992
206.618
229.16
228.152
226.102
223.605
221.16
232.007
231.392
230.421
229.04
227.141
238.835
234.464
234.575
233.516
232.907
237.138
234.504
234.664
233.687
232.928
236.382
234.591
234.766
233.91
233.256
236.022
234.671
234.867
234.102
233.626
235.855
234.722
234.924
234.168
233.932
252.269
235.8
234.931
233.451
231.993
243.177
234.71
234.512
233.394
232.71
226.946
221.872
208.766
182.052
141.249
231.143
226.901
213.32
185.076
142.472
)
;

boundaryField
{
    left
    {
        type            zeroGradient;
    }
    right
    {
        type            fixedValue;
        value           uniform 0;
    }
    down
    {
        type            zeroGradient;
    }
    up
    {
        type            zeroGradient;
    }
    cylinder
    {
        type            zeroGradient;
    }
    defaultFaces
    {
        type            empty;
    }
}


// ************************************************************************* //
