/*--------------------------------*- C++ -*----------------------------------*\
  =========                 |
  \\      /  F ield         | OpenFOAM: The Open Source CFD Toolbox
   \\    /   O peration     | Website:  https://openfoam.org
    \\  /    A nd           | Version:  13
     \\/     M anipulation  |
\*---------------------------------------------------------------------------*/
FoamFile
{
    format      ascii;
    class       surfaceScalarField;
    location    "0.47";
    object      phi;
}
// * * * * * * * * * * * * * * * * * * * * * * * * * * * * * * * * * * * * * //

dimensions      [0 3 -1 0 0 0 0];

internalField   nonuniform List<scalar> 
823
(
0.0113773
-0.0505553
0.039178
0.0387582
-0.133437
0.106056
0.0788332
-0.205878
0.165803
0.130177
-0.268867
0.217524
-0.323252
0.259401
0.194027
0.0107027
-0.0612581
0.0361427
-0.158877
0.0726484
-0.242383
0.117975
-0.314194
-0.375598
0.170321
0.00837699
-0.0696351
0.0282853
-0.178785
0.0567265
-0.270825
0.091813
-0.34928
-0.416051
0.132266
0.00529937
-0.0749344
0.017996
-0.191482
0.0362307
-0.289059
0.0588861
-0.371935
-0.442417
0.0852521
0.00196204
-0.0768965
0.00663027
-0.19615
0.0132902
-0.295719
0.0215227
-0.380168
0.0310635
-0.451958
0.00668924
-0.0107207
0.00403138
0.0222502
-0.0308452
0.0152842
0.0454673
-0.0484113
0.0251943
0.0746223
-0.0638356
0.0346806
-0.0769124
0.108279
0.0432559
0.00577401
-0.0164947
0.021531
-0.0466022
0.0467772
-0.0736576
0.0798528
-0.0969112
-0.116014
0.118955
0.00640014
-0.0228949
0.0236793
-0.0638813
0.0512803
-0.101259
0.087987
-0.133618
-0.160073
0.132046
0.00753765
-0.0304325
0.027094
-0.0834377
0.0573341
-0.131499
0.0970564
-0.17334
-0.207874
0.144857
0.00874547
0.0313638
0.0656677
0.109851
0.161379
0.322391
-0.955859
0.741747
0.473175
-0.818938
0.668154
0.568674
-0.349574
0.254076
0.606797
-0.0756536
0.0375303
-0.00560207
0.00076289
0.33076
-1.16766
0.470903
-0.959081
0.569934
-0.448605
0.614415
-0.120134
-0.0149903
0.337084
-1.3727
0.462158
-1.08415
0.559055
-0.545503
0.608357
-0.169436
-0.0306579
0.337828
-1.56567
0.449777
-1.1961
0.539394
-0.63512
0.597157
-0.227199
-0.0569294
0.327897
-1.73219
0.429388
-1.2976
0.509701
-0.715432
0.576836
-0.294334
-0.0931648
1.19754
-1.58948
-1.34025
1.00804
-1.1081
0.899761
-0.607152
0.862266
-0.25684
-0.0754582
1.33031
-1.13265
-1.78715
0.983473
-0.761262
0.780141
-0.40382
0.701196
-0.177894
-0.0538653
1.18976
-0.607527
-1.71488
0.816703
-0.388204
0.613669
-0.200786
0.528237
-0.0924621
-0.0293898
0.822469
-0.185262
-1.24473
0.54535
-0.111085
0.397611
-0.053047
0.330817
-0.0256679
-0.00891878
0.306738
-0.492
0.195652
0.142605
0.116937
1.5626
0.046252
-1.57779
1.52169
0.126164
1.46265
0.191302
1.39631
0.236665
0.25009
1.67588
0.035653
-1.66528
1.69935
0.102697
1.73085
0.159803
1.76532
0.202187
0.228266
1.38797
0.0184777
-1.3708
1.43707
0.0536059
1.51389
0.0829744
1.61019
0.105892
0.123576
0.9777
0.00531457
-0.964537
1.01588
0.0154223
1.07582
0.023043
1.15388
0.027826
0.0327218
0.392987
-0.387672
0.408409
0.431452
0.459278
0.128783
0.327613
-0.264642
-0.191753
0.0781618
0.273209
-0.222588
0.0385243
0.209794
-0.170156
0.0113396
0.136447
-0.109262
0.051956
-0.0406164
0.115953
0.378901
-0.167241
0.0714951
0.317667
0.0356158
0.245673
0.0105599
0.161503
0.0625158
0.0888507
0.418274
-0.128224
0.0548101
0.351708
0.0272866
0.273196
0.00806437
0.180725
0.0705802
0.0552427
0.443535
-0.0805041
0.0337636
0.373187
0.016655
0.290305
0.00486418
0.192516
0.0754444
0.0174815
-0.025904
0.0105002
0.00508605
0.00145208
0.0724381
0.0871722
-0.106988
-0.0526223
0.0427609
0.0735696
-0.0438923
0.0196702
0.0568212
-0.0337305
0.0051187
0.0367226
-0.0221712
0.0132554
-0.0081367
0.0760684
0.125752
-0.114649
0.04376
0.105878
0.0196684
0.0809127
0.00509929
0.0512917
0.0183548
0.0845497
0.168458
-0.127256
0.049189
0.141239
0.0227861
0.107316
0.00619012
0.0678877
0.0245449
0.0941816
0.214628
-0.140352
0.0558474
0.179573
0.0265647
0.136598
0.00744038
0.087012
0.0319853
0.107455
-0.157468
0.064439
0.0308813
0.00863101
0.510982
0.170542
-0.285544
0.555573
0.168876
-0.213467
0.49311
0.312305
-0.249842
0.333481
0.804161
-0.644533
1.03952
-0.81303
0.509327
0.0571947
0.551461
0.126742
0.483666
0.380101
0.330703
0.957125
1.25558
0.508024
-0.0548492
0.538773
0.0959926
0.46432
0.454553
0.328443
1.093
1.45677
0.504411
-0.163281
0.520688
0.0797153
0.441551
0.533691
0.324645
1.20991
1.64106
0.496173
-0.263474
0.494473
0.0814161
0.413904
0.61426
0.312771
1.31104
1.79636
0.768962
-0.428416
0.85244
-0.00206163
0.957508
0.509191
1.16947
1.09908
1.61836
1.34747
0.714512
-0.538907
0.793462
-0.0810125
0.958392
0.344262
1.29862
0.758852
1.14311
1.77387
0.603729
-0.538615
0.636675
-0.113959
0.804851
0.176086
1.17288
0.39082
0.611967
1.70403
0.448727
-0.383322
0.407277
-0.0725098
0.536867
0.0464962
0.816063
0.111624
0.18691
1.24112
0.220699
0.148189
0.194685
0.306309
0.493219
1.40254
-0.246821
1.46572
-0.230423
1.52299
-0.185493
1.56316
-0.120674
-0.0405323
1.75274
-0.225695
1.7198
-0.197481
1.69066
-0.156353
1.67086
-0.100878
-0.0349504
1.60152
-0.123189
1.50878
-0.104745
1.43457
-0.0821391
1.38706
-0.0533655
-0.0186917
1.15106
-0.0331262
1.07429
-0.0279818
1.01529
-0.0231387
0.97757
-0.0156421
-0.00565877
0.460093
0.432111
0.408973
0.393331
0.00250135
0.0430051
-0.0455065
0.00732782
0.101049
-0.105875
0.016095
0.148393
-0.15716
0.0165783
0.151908
-0.152391
0.114026
0.0148139
-0.112262
0.00682826
0.0361769
0.0201775
0.0876997
0.0409575
0.127613
0.0482546
0.144611
0.11638
0.0459009
0.00880907
0.0273678
0.0270762
0.0694326
0.05215
0.102539
0.0730911
0.123669
0.114034
0.0754371
0.00780106
0.0195668
0.025513
0.0517207
0.0497476
0.0783047
0.0774293
0.0959876
0.0992422
0.0922207
0.0050989
0.0144679
0.0179732
0.0388464
0.0367661
0.0595117
0.0600067
0.0727471
0.0767449
0.0825039
0.00342461
0.0110432
0.0125824
0.0296886
0.0274431
0.044651
0.0470519
0.0531383
0.0561586
0.0676383
0.00222745
0.00881579
0.00893562
0.0229804
0.0222634
0.0313232
0.041003
0.0343986
0.0347839
0.0623777
0.00166555
0.00715025
0.010086
0.0145599
0.0261075
0.0153017
0.0466293
0.0138768
0.0115685
0.0698446
0.00368393
0.00346632
0.0174349
0.000808973
0.0367304
-0.00399386
0.0597089
-0.00910184
-0.014295
0.0855723
0.00749765
0.0235909
0.0447912
0.0703699
0.0993308
0.153714
0.0199392
-0.106015
0.243101
-0.129899
0.0405119
0.264586
-0.0381667
0.0166814
0.271426
-0.000447647
-0.00639217
-0.00447899
-0.00307337
0.214548
-0.132231
0.324832
-0.240183
0.351172
-0.0645065
0.355867
-0.00514338
-0.0085508
0.259644
-0.32203
0.390641
-0.37118
0.433026
-0.106892
0.436517
-0.00863387
-0.00795638
0.292715
-0.529173
0.437538
-0.516003
0.501226
-0.17058
0.509134
-0.0165421
-0.00387881
0.311904
0.464055
0.547551
0.568539
0.0706498
0.0386895
-0.109339
0.0785866
-0.0079369
0.0828877
-0.00430109
0.0809362
0.00195157
0.000783197
0.19405
-0.261377
0.226625
0.239005
0.234564
0.0207313
-0.00433135
-0.0163999
0.0342811
-0.0135498
0.0567591
-0.022478
0.0856177
-0.0288586
-0.0237214
0.0539219
-0.0434394
0.086273
0.139232
0.202594
0.0478599
-0.0551127
0.0763309
-0.0690782
0.0275726
-0.052132
0.0724194
0.0123395
-0.0443548
0.0595878
0.00331742
-0.0300359
0.039058
-0.011261
0.0145785
0.0455002
-0.0322007
-0.0684122
0.0250424
-0.0316743
0.00986615
-0.0291785
0.00219976
-0.0223695
-0.00906123
0.0561334
-0.00661157
-0.0817227
0.0331936
-0.00873436
0.0143357
-0.0103206
0.00261219
-0.010646
-0.00644903
0.0699689
0.0215827
-0.0981631
0.0447449
0.0164897
0.023325
0.0110994
0.00691621
0.00576282
0.000467161
0.0741115
-0.105151
0.0467091
0.024078
0.00766959
0.016585
-0.114024
-0.0148223
0.0160945
-0.1519
0.00730664
-0.148372
0.00248913
-0.101058
-0.0430174
0.0482713
-0.11637
-0.0459259
0.0409319
-0.144561
0.0201638
-0.127604
0.00682116
-0.0877153
-0.0361962
0.0731267
-0.113964
-0.0755322
0.0521233
-0.123557
0.0270648
-0.102546
0.00880609
-0.0694566
-0.0273901
0.0773426
-0.0989587
-0.0923481
0.0496206
-0.0958354
0.0254322
-0.0783573
0.00777507
-0.0517995
-0.019615
0.0599635
-0.0825912
0.0365475
0.0177781
0.00503659
0.342145
0.583052
-0.529218
0.281255
0.223996
-0.163107
0.248551
0.0532827
-0.0205786
0.16562
0.115983
-0.033051
-0.000367999
0.0969098
0.408491
0.570541
0.372613
0.259874
0.336747
0.0891488
0.233838
0.218892
0.165057
0.461131
0.50539
0.452813
0.268192
0.409962
0.132
0.283765
0.345089
0.3671
0.498898
0.402472
0.51692
0.25017
0.461108
0.187811
0.317233
0.488964
0.58617
0.512908
0.54961
0.487579
0.33201
0.15867
0.351381
0.0848764
0.0737936
0.080575
0.00430137
0.0725083
0.0080667
-0.0368935
0.109402
0.332215
0.242902
0.226625
0.201641
0.261657
0.0856699
0.023732
0.0567907
0.0288791
0.034292
0.0224987
0.0207347
0.0135572
0.00433482
0.202798
0.139329
0.0862956
0.0539269
)
;

boundaryField
{
    left
    {
        type            calculated;
        value           nonuniform List<scalar> 
17
(
-0.60402
-0.60402
-0.60402
-0.60402
-0.60402
-0.39598
-0.39598
-0.39598
-0.39598
-0.39598
-0.39598
-0.39598
-0.39598
-0.39598
-0.39598
-0.510051
-0.510051
)
;
    }
    right
    {
        type            calculated;
        value           nonuniform List<scalar> 
17
(
0.080153
0.232274
0.278979
0.359939
0.435922
0.505057
0.565423
0.611636
0.623803
0.624024
0.623428
0.613072
0.84456
0.679603
0.503762
0.310346
0.108019
)
;
    }
    down
    {
        type            calculated;
        value           uniform 0;
    }
    up
    {
        type            calculated;
        value           uniform 0;
    }
    cylinder
    {
        type            calculated;
        value           uniform 0;
    }
    defaultFaces
    {
        type            empty;
    }
}


// ************************************************************************* //
