/*--------------------------------*- C++ -*----------------------------------*\
  =========                 |
  \\      /  F ield         | OpenFOAM: The Open Source CFD Toolbox
   \\    /   O peration     | Website:  https://openfoam.org
    \\  /    A nd           | Version:  13
     \\/     M anipulation  |
\*---------------------------------------------------------------------------*/
FoamFile
{
    format      ascii;
    class       volVectorField;
    location    "0.565";
    object      U;
}
// * * * * * * * * * * * * * * * * * * * * * * * * * * * * * * * * * * * * * //

dimensions      [0 1 -1 0 0 0 0];

internalField   nonuniform List<vector> 
1800
(
(0.0186347 -0.0251476 1.42552e-19)
(0.508434 -0.434091 6.58698e-20)
(1.01551 -0.832488 -4.02916e-19)
(1.31549 -1.03555 5.04924e-19)
(1.44301 -1.08575 1.29963e-18)
(1.48227 -1.06005 5.6645e-19)
(1.48584 -1.00735 -2.94493e-19)
(1.47645 -0.949619 -7.39623e-19)
(1.46527 -0.888448 -3.94178e-19)
(1.43257 -0.837229 -3.24608e-19)
(0.0429455 -0.0413773 6.08473e-20)
(0.610922 -0.441386 -3.23867e-19)
(1.17404 -0.818508 4.56343e-21)
(1.49535 -1.00444 -4.48404e-19)
(1.62346 -1.04576 1.19109e-19)
(1.65594 -1.01663 1.30006e-18)
(1.65189 -0.96288 -9.37891e-19)
(1.63677 -0.904102 4.79463e-19)
(1.62102 -0.843563 7.92508e-19)
(1.59867 -0.799441 -4.09225e-19)
(0.0745879 -0.0571122 5.44369e-21)
(0.720757 -0.438009 9.72043e-20)
(1.3336 -0.784956 3.09926e-19)
(1.67006 -0.950044 -2.87291e-19)
(1.79468 -0.982944 -1.53226e-18)
(1.81769 -0.953236 3.48156e-19)
(1.80356 -0.902812 6.17707e-19)
(1.77905 -0.849348 -7.60835e-20)
(1.75427 -0.79607 -5.23475e-21)
(1.72251 -0.754355 -3.40718e-20)
(0.113538 -0.0704504 -9.47958e-21)
(0.835953 -0.421209 -1.11672e-19)
(1.49091 -0.729472 -2.59931e-19)
(1.83668 -0.870039 6.91094e-20)
(1.9553 -0.89382 3.97688e-19)
(1.96868 -0.863555 3.63827e-20)
(1.94541 -0.816036 -2.50133e-20)
(1.91298 -0.766265 5.66744e-19)
(1.88099 -0.716691 4.72257e-19)
(1.84567 -0.679733 -1.58834e-19)
(0.159491 -0.0799997 1.08035e-19)
(0.95394 -0.39045 1.73454e-19)
(1.64162 -0.653745 -7.9994e-20)
(1.98989 -0.768286 -9.41588e-20)
(2.09957 -0.78427 -1.19651e-18)
(2.10277 -0.755778 1.07468e-20)
(2.07087 -0.713818 9.61351e-19)
(2.0314 -0.670616 3.29608e-19)
(1.9932 -0.628279 2.17454e-20)
(1.95379 -0.595961 -2.09597e-19)
(0.211249 -0.0838718 -7.74912e-20)
(1.07105 -0.344099 2.46165e-19)
(1.78107 -0.557569 1.01867e-18)
(2.12526 -0.645425 -7.90796e-19)
(2.22373 -0.654759 -8.67895e-19)
(2.21681 -0.629265 1.47097e-18)
(2.17714 -0.593742 -1.06305e-18)
(2.1315 -0.55766 -1.18125e-18)
(2.08791 -0.522541 8.55293e-19)
(2.04508 -0.496028 -3.04369e-20)
(0.267308 -0.0807065 8.08198e-20)
(1.18354 -0.282143 -5.79561e-19)
(1.90503 -0.443151 -2.70354e-18)
(2.23903 -0.505267 1.31431e-18)
(2.32475 -0.509999 2.19127e-18)
(2.30834 -0.489241 -6.42166e-21)
(2.26222 -0.461535 -2.87115e-18)
(2.21184 -0.433695 8.31426e-22)
(2.16427 -0.406758 2.59072e-18)
(2.11888 -0.386468 6.82988e-19)
(0.325433 -0.0693189 -5.10786e-22)
(1.28709 -0.204888 4.52704e-19)
(2.00917 -0.312705 2.08967e-18)
(2.32771 -0.35106 -6.99325e-20)
(2.39989 -0.353396 -1.41006e-18)
(2.375 -0.338763 -4.42738e-19)
(2.3238 -0.319793 0)
(2.26998 -0.300879 1.00752e-18)
(2.21958 -0.282633 6.56938e-21)
(2.17249 -0.269238 -8.25769e-19)
(0.382986 -0.0491128 3.41492e-21)
(1.37752 -0.113769 9.6658e-19)
(2.0899 -0.169549 1.87744e-18)
(2.38903 -0.187015 -1.93312e-18)
(2.44773 -0.189275 -1.43936e-18)
(2.41575 -0.181916 4.50237e-19)
(2.36105 -0.172348 -1.89901e-18)
(2.30517 -0.162781 -1.30304e-18)
(2.25324 -0.153488 1.54412e-18)
(2.20535 -0.147222 1.31794e-18)
(0.43702 -0.0201604 1.10865e-19)
(1.45098 -0.0109558 6.60613e-19)
(2.14426 -0.0173431 3.52394e-19)
(2.42155 -0.0174383 -2.80881e-18)
(2.46746 -0.0217269 3.39604e-20)
(2.43006 -0.0224899 4.28765e-18)
(2.37346 -0.0226622 -2.28368e-18)
(2.31689 -0.0225965 -1.27513e-18)
(2.26468 -0.0223128 4.21121e-19)
(2.21702 -0.023223 -9.57866e-19)
(-0.0041686 0.00102883 9.93696e-20)
(-0.00209349 -0.0825616 5.04489e-20)
(0.0410149 -0.171659 -1.57034e-21)
(0.101496 -0.223953 -8.90701e-21)
(0.16854 -0.243585 -2.05647e-21)
(0.234441 -0.2453 -4.76799e-20)
(0.295799 -0.239469 1.41454e-20)
(0.351938 -0.231223 -2.03829e-20)
(0.402581 -0.222687 3.27234e-21)
(0.450426 -0.21588 -8.56305e-21)
(-0.0055402 0.0105867 2.72652e-20)
(0.0101995 -0.123998 7.33559e-20)
(0.0684407 -0.273957 -9.99574e-20)
(0.137705 -0.36219 -4.43786e-20)
(0.207729 -0.39396 -7.93714e-20)
(0.27351 -0.394567 -8.61501e-20)
(0.333433 -0.382117 3.60236e-20)
(0.387754 -0.365598 -1.45195e-20)
(0.436393 -0.348809 -6.50656e-21)
(0.483219 -0.3363 -6.23458e-21)
(-0.00826106 0.0185944 -4.55142e-20)
(0.029658 -0.165398 1.70987e-19)
(0.112922 -0.373055 6.98569e-20)
(0.1968 -0.494828 2.61456e-19)
(0.271819 -0.537545 4.93268e-20)
(0.337433 -0.536674 -2.91576e-19)
(0.395024 -0.517664 -3.14452e-20)
(0.44637 -0.493118 1.00995e-19)
(0.491739 -0.468465 -4.68518e-20)
(0.537 -0.450454 -1.01338e-20)
(-0.0117624 0.0244225 -1.19503e-19)
(0.0568378 -0.20646 -2.82675e-20)
(0.174352 -0.467181 3.33245e-20)
(0.278143 -0.619026 -1.40659e-19)
(0.359852 -0.671013 8.11162e-20)
(0.425101 -0.668177 1.94556e-19)
(0.479423 -0.642732 5.53387e-20)
(0.526659 -0.610528 -1.3114e-20)
(0.567575 -0.578568 2.28842e-20)
(0.61074 -0.555307 -2.81056e-21)
(-0.0152541 0.0275213 0)
(0.092463 -0.246864 9.15632e-20)
(0.252483 -0.554605 2.30943e-19)
(0.380729 -0.732018 -2.62471e-19)
(0.470401 -0.791158 -5.76454e-19)
(0.534919 -0.785799 1.98299e-19)
(0.585024 -0.754133 -2.7705e-20)
(0.627083 -0.71479 -1.05697e-19)
(0.662508 -0.676241 0)
(0.703078 -0.647997 -9.38745e-21)
(-0.0179087 0.027574 4.53425e-20)
(0.137293 -0.286328 1.08308e-19)
(0.34689 -0.633641 2.85025e-20)
(0.503118 -0.831167 2.51606e-19)
(0.601486 -0.894982 -1.98483e-19)
(0.664718 -0.886538 -2.9635e-19)
(0.70969 -0.849006 5.25963e-19)
(0.745632 -0.803224 5.71779e-20)
(0.774765 -0.75894 -3.11736e-19)
(0.812242 -0.725899 -7.36295e-21)
(-0.019009 0.0238316 5.18711e-21)
(0.191547 -0.324409 5.1014e-20)
(0.456967 -0.702348 1.43794e-19)
(0.643392 -0.913893 2.79948e-20)
(0.75049 -0.979766 3.26032e-19)
(0.811657 -0.967805 -4.10394e-19)
(0.850626 -0.924995 -4.19116e-19)
(0.879673 -0.873718 -3.54436e-19)
(0.902036 -0.82465 2.59559e-19)
(0.935661 -0.786721 2.82306e-19)
(-0.016867 0.0159561 -1.31059e-19)
(0.256115 -0.359996 3.65216e-20)
(0.581381 -0.758842 3.10714e-19)
(0.798858 -0.977974 -1.80538e-19)
(0.914059 -1.0434 3.38148e-19)
(0.972208 -1.02787 8.11375e-19)
(1.00439 -0.980843 5.66805e-19)
(1.02588 -0.925599 -4.43975e-19)
(1.04133 -0.872951 -2.11336e-19)
(1.06906 -0.829756 3.05462e-19)
(-0.0103084 0.00443365 -2.20983e-19)
(0.330983 -0.39164 -3.78996e-19)
(0.717818 -0.801076 6.26693e-19)
(0.965541 -1.02132 7.277e-19)
(1.0874 -1.08407 -7.52419e-19)
(1.14129 -1.06536 8.4804e-19)
(1.16582 -1.0158 1.38449e-19)
(1.17898 -0.959018 -1.03453e-18)
(1.18733 -0.904505 -2.53561e-19)
(1.20399 -0.856145 3.44215e-19)
(0.00127755 -0.00964356 6.02313e-20)
(0.415163 -0.417126 -3.82259e-19)
(0.863021 -0.826499 -4.3518e-19)
(1.13841 -1.04133 7.52526e-19)
(1.26428 -1.09904 6.10872e-19)
(1.31171 -1.07717 -7.65526e-19)
(1.32657 -1.0262 -6.37636e-19)
(1.32934 -0.969501 3.80026e-19)
(1.32891 -0.913355 -3.94702e-19)
(1.32568 -0.861318 -2.41044e-19)
(0.627403 -0.175709 4.30645e-20)
(0.803899 -0.133146 -5.69625e-20)
(0.890096 -0.104435 5.91463e-21)
(0.940498 -0.0818445 1.14455e-20)
(0.969787 -0.0635106 -5.8165e-21)
(0.987272 -0.0484917 -3.0627e-21)
(0.998121 -0.0361595 -4.82897e-21)
(1.00498 -0.0258855 -3.11533e-21)
(1.00912 -0.0177521 8.05648e-21)
(1.01188 -0.00735802 2.937e-21)
(0.645098 -0.2505 1.1661e-19)
(0.81611 -0.172064 1.14926e-20)
(0.898476 -0.125416 4.01767e-21)
(0.94688 -0.0936602 -5.88496e-21)
(0.974856 -0.0704482 -1.51727e-20)
(0.991354 -0.0526577 0)
(1.00143 -0.0387086 -5.02336e-21)
(1.00771 -0.0274484 3.87555e-21)
(1.01146 -0.0187088 4.73155e-22)
(1.01388 -0.0077332 -3.63809e-21)
(0.673342 -0.32258 -7.8684e-20)
(0.833744 -0.210341 -3.36244e-20)
(0.909616 -0.146208 1.46516e-20)
(0.954657 -0.105371 -8.57701e-21)
(0.98069 -0.0772849 -3.77113e-21)
(0.995887 -0.0567247 6.06942e-21)
(1.00502 -0.0411632 0)
(1.01061 -0.0289291 0)
(1.0139 -0.0195986 -2.28107e-21)
(1.01596 -0.00807818 0)
(0.712138 -0.390464 -3.70491e-20)
(0.856494 -0.247457 6.95221e-20)
(0.923507 -0.166601 7.68238e-21)
(0.963833 -0.116863 0)
(0.987289 -0.0839515 2.04796e-20)
(1.00086 -0.0606505 -3.39379e-21)
(1.00888 -0.0434967 0)
(1.01368 -0.0303107 4.5492e-21)
(1.01648 -0.0204107 0)
(1.01813 -0.0083882 6.81538e-22)
(0.761487 -0.452692 -3.929e-20)
(0.883981 -0.282899 9.48389e-20)
(0.940101 -0.18638 -4.13819e-21)
(0.974411 -0.128029 0)
(0.994646 -0.0903827 4.32142e-21)
(1.00628 -0.0643944 6.66627e-21)
(1.01299 -0.0456826 5.91084e-21)
(1.0169 -0.0315762 1.07785e-21)
(1.01913 -0.0211339 -2.28703e-21)
(1.02036 -0.00865865 2.6716e-21)
(0.821121 -0.507839 -7.37842e-19)
(0.915744 -0.316287 -1.82087e-19)
(0.959303 -0.2054 1.60665e-21)
(0.986383 -0.138772 2.945e-20)
(1.00275 -0.0965187 -6.74635e-21)
(1.0121 -0.0679157 4.8613e-21)
(1.01733 -0.0476945 5.2573e-21)
(1.02025 -0.0327073 -9.7138e-21)
(1.02187 -0.0217577 -2.0715e-22)
(1.02265 -0.00888598 -2.33817e-24)
(0.889918 -0.554134 -6.62189e-21)
(0.950812 -0.346868 7.18113e-20)
(0.980842 -0.223533 2.78443e-21)
(0.999707 -0.149042 -8.5367e-22)
(1.01158 -0.102323 -2.30652e-20)
(1.01833 -0.0711849 5.3193e-21)
(1.02191 -0.0495088 -3.58129e-21)
(1.02373 -0.0336873 -4.24658e-21)
(1.02467 -0.022271 1.18228e-21)
(1.02497 -0.00906526 -1.84772e-21)
(0.966407 -0.589845 2.88082e-19)
(0.986993 -0.373323 8.84721e-20)
(1.00353 -0.240101 0)
(1.01401 -0.158532 -4.89418e-22)
(1.021 -0.107659 1.87225e-20)
(1.02489 -0.0741391 1.15261e-21)
(1.02666 -0.0510966 -1.57459e-20)
(1.02731 -0.0344995 4.47942e-21)
(1.02751 -0.0226629 -4.52922e-23)
(1.02731 -0.00919253 -3.7028e-22)
(1.05427 -0.618047 -4.24312e-19)
(1.02461 -0.397939 -2.4021e-19)
(1.02587 -0.256041 5.4179e-20)
(1.02823 -0.167472 -2.74502e-22)
(1.03046 -0.112501 -2.30395e-21)
(1.03154 -0.0767056 -1.49602e-20)
(1.03148 -0.0524023 4.07176e-21)
(1.03092 -0.0351123 5.24489e-22)
(1.03037 -0.0229171 -3.18407e-21)
(1.02966 -0.00926591 -2.64889e-21)
(1.1585 -0.644306 2.97744e-19)
(1.07404 -0.422246 -2.37574e-19)
(1.0515 -0.274794 -4.10621e-20)
(1.04313 -0.178899 -4.30835e-20)
(1.03993 -0.11874 -2.35072e-20)
(1.03808 -0.0799005 -1.16063e-20)
(1.03627 -0.0539241 -5.6662e-21)
(1.03452 -0.0357462 0)
(1.0332 -0.023126 -5.27868e-22)
(1.03202 -0.00929659 2.18764e-21)
(1.31415 -0.630681 4.70764e-19)
(1.17679 -0.422001 1.57624e-19)
(1.11051 -0.276513 -1.24062e-19)
(1.07687 -0.180739 7.82999e-21)
(1.05959 -0.119822 9.28695e-21)
(1.05013 -0.080282 -5.37651e-21)
(1.04404 -0.0538677 1.66013e-22)
(1.03981 -0.035491 4.65626e-21)
(1.03706 -0.0228324 -3.20218e-21)
(1.03506 -0.00915888 1.03659e-23)
(1.36491 -0.515857 -7.43859e-21)
(1.20829 -0.359182 1.49108e-19)
(1.13805 -0.244957 1.25709e-19)
(1.09906 -0.165263 -1.51552e-20)
(1.07563 -0.111565 5.81009e-20)
(1.06135 -0.0754459 3.72575e-20)
(1.05191 -0.0508304 2.53405e-20)
(1.04544 -0.033547 -2.50384e-21)
(1.04133 -0.0216024 8.86051e-21)
(1.03846 -0.00865677 3.86363e-21)
(1.42264 -0.444051 -1.44616e-19)
(1.25889 -0.322335 -1.18849e-20)
(1.17403 -0.224466 6.45173e-21)
(1.1237 -0.153171 6.03346e-37)
(1.09218 -0.103894 6.79775e-22)
(1.07252 -0.0703736 -1.03502e-34)
(1.0596 -0.0474011 -2.8857e-21)
(1.05089 -0.0312484 -2.11173e-34)
(1.04542 -0.0201012 8.38088e-22)
(1.04167 -0.00804904 -2.48601e-21)
(1.45889 -0.363661 -2.1935e-34)
(1.29426 -0.273325 -4.0946e-20)
(1.2024 -0.195566 -4.38791e-20)
(1.14461 -0.136029 0)
(1.10684 -0.0932064 -2.51878e-20)
(1.08262 -0.0634398 -1.70041e-20)
(1.06661 -0.042809 -9.8821e-21)
(1.05588 -0.0282305 -2.55526e-34)
(1.04916 -0.0181616 -3.04895e-21)
(1.04459 -0.00727228 2.35049e-21)
(1.48146 -0.292743 -8.89748e-20)
(1.32126 -0.226629 4.78375e-21)
(1.22546 -0.165519 0)
(1.16223 -0.116846 0)
(1.11954 -0.0807476 0)
(1.09149 -0.0552021 0)
(1.07283 -0.0373251 -5.5162e-22)
(1.06032 -0.0246291 -2.8509e-34)
(1.05249 -0.0158513 7.33586e-22)
(1.04717 -0.00634924 2.80341e-34)
(1.4954 -0.227304 -3.41887e-20)
(1.34124 -0.180366 0)
(1.24352 -0.134111 0)
(1.17654 -0.0959243 0)
(1.13007 -0.0668104 0)
(1.09897 -0.0458658 0)
(1.07812 -0.0310768 9.08455e-22)
(1.06409 -0.0205221 6.01223e-21)
(1.05533 -0.0132169 6.86388e-22)
(1.04936 -0.00529658 3.19944e-21)
(1.50348 -0.167005 0)
(1.35541 -0.135262 -1.18822e-20)
(1.25703 -0.102083 -1.67965e-20)
(1.18757 -0.0738329 0)
(1.13836 -0.0517754 -1.15482e-20)
(1.10494 -0.0356795 -8.17471e-21)
(1.08234 -0.0242228 -4.7195e-21)
(1.06713 -0.0160112 -3.50478e-21)
(1.0576 -0.0103204 4.62966e-21)
(1.0511 -0.00413923 1.29436e-21)
(1.50667 -0.111097 9.24961e-21)
(1.36357 -0.0906679 7.07293e-21)
(1.26535 -0.0690315 -4.21943e-21)
(1.19454 -0.0503477 2.49241e-36)
(1.14365 -0.035486 7.9614e-22)
(1.10865 -0.024527 -6.24354e-35)
(1.08487 -0.0166792 6.5909e-22)
(1.06882 -0.0110353 2.98362e-21)
(1.05876 -0.00711262 5.62205e-22)
(1.05186 -0.0028488 -1.88105e-21)
(1.48541 -0.0540817 -4.55635e-20)
(1.34504 -0.048945 9.99265e-21)
(1.24924 -0.0385761 1.13792e-20)
(1.17982 -0.0285865 0)
(1.12954 -0.0202851 7.19557e-21)
(1.09472 -0.0140683 5.09661e-21)
(1.07096 -0.00958638 4.00816e-21)
(1.0549 -0.00635285 2.2258e-21)
(1.04484 -0.00409528 -2.07456e-21)
(1.03794 -0.00163739 2.27913e-21)
(1.09772 -0.00190646 0)
(1.01153 -0.00623964 0)
(0.946545 -0.00591336 0)
(0.896905 -0.00460942 0)
(0.860153 -0.00331755 0)
(0.834508 -0.00232329 0)
(0.816932 -0.00159467 5.05242e-22)
(0.804995 -0.00106832 -3.46994e-36)
(0.797487 -0.000676058 5.58378e-22)
(0.792398 -0.000259037 1.73252e-21)
(2.13237 -0.0224935 8.89645e-19)
(2.12325 -0.128846 6.15527e-20)
(2.09631 -0.233321 -1.3202e-19)
(2.05173 -0.33344 -3.52407e-19)
(1.99133 -0.427559 -1.22028e-19)
(1.91392 -0.514557 -1.82347e-19)
(1.83038 -0.585298 -4.36999e-19)
(1.71641 -0.663119 1.39639e-19)
(1.63837 -0.682497 0)
(1.47197 -0.76596 4.48088e-20)
(2.04665 -0.0158473 2.22256e-19)
(2.03931 -0.0955355 -3.44284e-19)
(2.01863 -0.174426 -4.54202e-21)
(1.98325 -0.251143 -1.39629e-19)
(1.9391 -0.323465 2.23507e-20)
(1.87534 -0.396129 1.27953e-19)
(1.81944 -0.445634 1.62038e-20)
(1.72287 -0.528638 9.68243e-20)
(1.67098 -0.52849 -1.18435e-19)
(1.55531 -0.619996 2.58856e-20)
(1.97228 -0.0120474 -1.16459e-19)
(1.96663 -0.075574 2.1284e-19)
(1.95065 -0.138157 1.92723e-19)
(1.92201 -0.199288 -2.30116e-19)
(1.88805 -0.255824 1.02472e-19)
(1.83571 -0.316034 1.26485e-19)
(1.79297 -0.351821 -6.47855e-20)
(1.71728 -0.42665 7.67633e-20)
(1.67054 -0.423036 7.85881e-20)
(1.58669 -0.50498 1.01811e-19)
(1.91563 -0.0115966 -1.96022e-19)
(1.91103 -0.0601018 4.8206e-20)
(1.89772 -0.10799 -1.0888e-19)
(1.87385 -0.155461 -6.64296e-20)
(1.84551 -0.199117 2.69328e-20)
(1.80269 -0.247548 -1.06042e-19)
(1.76588 -0.27512 8.41963e-20)
(1.70721 -0.336831 2.92195e-20)
(1.66388 -0.334753 -1.44197e-20)
(1.60102 -0.402055 9.38619e-21)
(1.87125 -0.0100006 5.50521e-20)
(1.86748 -0.0469937 4.86683e-20)
(1.85603 -0.0834324 -6.34412e-20)
(1.83585 -0.119723 2.30995e-19)
(1.811 -0.153006 1.44696e-20)
(1.77556 -0.190414 -1.38711e-19)
(1.74216 -0.212074 2.10547e-20)
(1.69536 -0.259682 -8.84601e-20)
(1.65546 -0.259993 1.15844e-19)
(1.60546 -0.312081 8.44009e-20)
(1.83771 -0.00984431 -1.04712e-19)
(1.83459 -0.0369052 -5.84911e-20)
(1.82444 -0.063558 3.5699e-20)
(1.80685 -0.0902239 8.0813e-20)
(1.78422 -0.114837 4.12454e-20)
(1.75389 -0.142567 -4.09671e-20)
(1.7227 -0.159443 3.2306e-21)
(1.68342 -0.194602 5.45982e-20)
(1.64646 -0.196711 1.03679e-19)
(1.60416 -0.235542 -5.51513e-20)
(1.81325 -0.010171 -4.33292e-20)
(1.81072 -0.0286554 -7.98986e-20)
(1.80153 -0.0468414 -5.13684e-20)
(1.7858 -0.0651332 -1.0278e-19)
(1.7647 -0.0821986 -2.10561e-20)
(1.7377 -0.101508 -5.05758e-21)
(1.70802 -0.113849 4.77319e-20)
(1.67328 -0.138541 -1.66009e-20)
(1.63861 -0.141243 -3.322e-20)
(1.60057 -0.169049 1.05505e-20)
(1.79229 -0.00974023 3.53338e-20)
(1.79097 -0.0206717 3.41608e-20)
(1.78322 -0.0313291 1.25628e-20)
(1.76949 -0.0421045 -2.20656e-20)
(1.75017 -0.0523583 -1.79044e-20)
(1.72591 -0.0643331 3.57913e-20)
(1.69765 -0.0723033 -1.7037e-21)
(1.66573 -0.0886371 -4.78708e-20)
(1.63274 -0.0908103 1.10689e-20)
(1.59677 -0.110858 5.11727e-20)
(1.71446 -0.0148595 -2.67926e-20)
(1.71472 -0.0171229 4.0516e-21)
(1.71137 -0.0189802 4.09234e-20)
(1.70399 -0.0208284 3.26913e-21)
(1.69212 -0.0224087 -2.50543e-21)
(1.67664 -0.0255323 -6.67212e-21)
(1.65635 -0.0263129 1.93838e-20)
(1.63385 -0.0338937 -2.94004e-20)
(1.6059 -0.0325383 3.72359e-20)
(1.58011 -0.0444635 1.21567e-19)
(1.1113 -0.00918572 2.99913e-20)
(1.10265 -0.0060891 1.92633e-20)
(1.09718 -0.00299462 1.5241e-20)
(1.09536 3.37874e-05 1.63317e-20)
(1.09621 0.00293459 -2.4176e-21)
(1.1007 0.00536767 6.56653e-21)
(1.1043 0.00803498 -9.22583e-21)
(1.1144 0.00798756 2.14168e-21)
(1.11258 0.0117195 -3.49485e-21)
(1.12988 0.00739695 3.91297e-21)
(1.38382 0.744157 -5.67632e-20)
(1.3686 0.790463 2.49678e-20)
(1.37209 0.8485 -4.43987e-19)
(1.38159 0.913941 2.16451e-19)
(1.39171 0.982696 8.68032e-19)
(1.39771 1.05143 -1.37012e-19)
(1.38081 1.10524 -8.48266e-19)
(1.27992 1.08646 -4.54088e-20)
(0.981812 0.8752 -4.08666e-19)
(0.41858 0.37923 1.57674e-19)
(1.55997 0.724362 0)
(1.54996 0.771189 5.37441e-19)
(1.54759 0.824097 1.21024e-18)
(1.5528 0.885377 -7.36804e-19)
(1.5632 0.952072 -1.78524e-18)
(1.5724 1.0201 -1.39807e-19)
(1.55711 1.07353 -1.78555e-19)
(1.44578 1.05443 6.42373e-19)
(1.1075 0.846007 8.26702e-19)
(0.468334 0.361589 3.76232e-19)
(1.69819 0.706866 6.14288e-20)
(1.70198 0.751351 0)
(1.70603 0.798889 -6.45063e-20)
(1.71522 0.853882 7.65971e-19)
(1.72972 0.915027 5.22617e-20)
(1.74324 0.978434 -1.88042e-18)
(1.72924 1.02784 1.19132e-18)
(1.60633 1.00611 7.50834e-19)
(1.22677 0.80266 -7.55778e-19)
(0.513191 0.336689 -2.81138e-19)
(1.80724 0.673928 -1.36371e-19)
(1.8237 0.713784 -1.03323e-19)
(1.83908 0.756372 2.29095e-19)
(1.85796 0.805607 -2.86368e-19)
(1.88088 0.860874 -1.3701e-18)
(1.90135 0.91852 -1.06539e-18)
(1.88947 0.962352 1.16429e-18)
(1.75417 0.936734 7.53154e-19)
(1.33219 0.741386 0)
(0.547875 0.302576 0)
(1.90111 0.616763 -8.03398e-19)
(1.92733 0.652227 -1.42559e-18)
(1.95362 0.690803 -5.58743e-19)
(1.98309 0.735072 -3.336e-20)
(2.01566 0.78456 0)
(2.04387 0.835904 1.41037e-19)
(2.0337 0.873459 1.68516e-19)
(1.88436 0.8437 2.15974e-19)
(1.41884 0.66044 -3.27158e-19)
(0.569722 0.259712 -8.19491e-20)
(1.987 0.537572 9.80409e-19)
(2.02019 0.569054 -4.17597e-20)
(2.0551 0.603691 -1.15315e-18)
(2.09359 0.64291 0)
(2.13475 0.686238 0)
(2.16963 0.730709 0)
(2.1595 0.761706 1.49e-18)
(1.99373 0.728989 -1.77925e-18)
(1.48358 0.562162 -1.08946e-18)
(0.57727 0.210447 -6.24896e-20)
(2.06417 0.442264 -1.31482e-18)
(2.10236 0.469299 -2.74969e-18)
(2.14368 0.499052 -4.81571e-21)
(2.18909 0.532292 5.67208e-19)
(2.23695 0.568539 -4.09625e-20)
(2.27656 0.605201 1.29692e-18)
(2.26444 0.62921 -7.65743e-19)
(2.0791 0.596832 -2.2295e-18)
(1.52472 0.453478 1.74775e-19)
(0.571146 0.159271 1.27555e-19)
(2.12872 0.335625 -1.06298e-18)
(2.17069 0.357181 1.60841e-20)
(2.21675 0.380792 4.14421e-19)
(2.26724 0.406968 -4.0819e-19)
(2.31988 0.435185 6.46994e-19)
(2.36222 0.462839 1.8695e-18)
(2.34493 0.480671 -2.25571e-19)
(2.13748 0.45148 -1.24803e-18)
(1.54149 0.337512 2.94631e-19)
(0.553365 0.108568 4.78143e-20)
(2.17693 0.220735 4.09694e-19)
(2.22182 0.235949 8.09139e-20)
(2.27127 0.25228 -4.40796e-19)
(2.32523 0.270394 -1.05442e-18)
(2.38097 0.289731 9.25656e-20)
(2.42368 0.308704 9.47997e-20)
(2.39883 0.320706 -1.68405e-18)
(2.16819 0.297783 7.0879e-19)
(1.53437 0.218858 2.09482e-19)
(0.524153 0.0601224 -1.66955e-19)
(2.20695 0.10019 8.10375e-19)
(2.25368 0.108053 -1.24115e-18)
(2.30511 0.116595 1.88298e-19)
(2.36107 0.125868 2.6348e-18)
(2.41809 0.135769 1.37868e-18)
(2.4591 0.145421 -3.20337e-18)
(2.42481 0.153169 -3.32832e-18)
(2.17046 0.139951 1.6318e-18)
(1.50409 0.10104 5.58141e-21)
(0.484827 0.0166793 5.0397e-20)
(0.511496 0.206958 -1.60466e-19)
(0.474025 0.214177 -1.46921e-19)
(0.430439 0.222094 7.97625e-20)
(0.382374 0.230574 -2.57464e-19)
(0.329401 0.239636 -3.11528e-20)
(0.270882 0.249095 2.15319e-19)
(0.205972 0.256838 5.0412e-20)
(0.134408 0.253081 -2.08347e-20)
(0.063037 0.21303 4.60825e-21)
(0.0102225 0.104988 1.39698e-20)
(0.539385 0.306839 1.29674e-19)
(0.502798 0.320934 1.80453e-19)
(0.460627 0.336691 3.45687e-20)
(0.414129 0.353562 -6.84599e-20)
(0.362839 0.371486 -2.44091e-19)
(0.306134 0.390163 4.2037e-21)
(0.242794 0.405914 1.13669e-19)
(0.170868 0.401849 1.56124e-20)
(0.0937103 0.336586 -6.90379e-20)
(0.0253468 0.162626 -2.30314e-20)
(0.584488 0.402687 -1.31213e-19)
(0.549466 0.42339 -1.34745e-19)
(0.509739 0.446567 1.20501e-19)
(0.46591 0.471391 1.02331e-19)
(0.417447 0.497736 -6.17381e-20)
(0.36375 0.525161 -7.30367e-20)
(0.302958 0.548429 -8.45555e-20)
(0.230249 0.543786 -1.78719e-20)
(0.143218 0.453923 -4.17885e-20)
(0.0492876 0.21681 3.34094e-21)
(0.645695 0.492431 6.30215e-20)
(0.612885 0.519346 -2.17264e-20)
(0.576569 0.54932 -1.01472e-19)
(0.536455 0.581455 2.62911e-20)
(0.491916 0.615583 -7.53629e-20)
(0.442371 0.651088 1.84357e-20)
(0.385057 0.68119 -1.66979e-19)
(0.311144 0.675632 -7.63833e-21)
(0.210243 0.562239 -2.26664e-19)
(0.0812112 0.265988 4.66817e-20)
(0.721433 0.574173 -1.45405e-20)
(0.691449 0.606822 -1.77266e-21)
(0.65949 0.642822 -4.22397e-20)
(0.624147 0.681462 -1.79732e-19)
(0.584633 0.722557 8.0597e-20)
(0.540346 0.765278 -3.77248e-20)
(0.487349 0.801343 1.06876e-19)
(0.411864 0.794415 -5.57566e-20)
(0.293035 0.658967 2.85272e-19)
(0.12003 0.308874 2.12715e-19)
(0.809745 0.646116 -3.01378e-20)
(0.783027 0.683617 -9.5624e-20)
(0.756123 0.724449 1.09272e-19)
(0.726377 0.768487 8.67821e-20)
(0.692842 0.815551 2.33942e-19)
(0.654847 0.864506 1.43437e-19)
(0.606946 0.905551 4.39066e-19)
(0.529468 0.896742 1.94825e-19)
(0.3891 0.740945 1.66135e-19)
(0.164437 0.343789 1.90369e-19)
(0.90826 0.706344 -9.35026e-20)
(0.886081 0.748142 3.56633e-19)
(0.86577 0.792889 2.19332e-19)
(0.843008 0.841198 -2.54763e-19)
(0.816551 0.892998 -1.33907e-19)
(0.78566 0.946917 4.89721e-19)
(0.743181 0.991793 -9.41385e-20)
(0.662753 0.980705 -3.04723e-19)
(0.496965 0.806776 -6.19143e-20)
(0.213355 0.370095 1.97562e-19)
(1.00854 0.754742 1.9265e-19)
(0.989682 0.798489 5.24289e-20)
(0.976135 0.845091 -5.71119e-19)
(0.961705 0.896457 7.77527e-20)
(0.944467 0.952063 3.77829e-19)
(0.923049 1.00987 -2.54072e-19)
(0.887865 1.05727 -6.20283e-20)
(0.804807 1.04307 -1.32648e-19)
(0.611121 0.853299 1.26126e-20)
(0.263934 0.386153 -2.87168e-19)
(1.1285 0.777161 2.08277e-20)
(1.11887 0.824138 -3.96849e-19)
(1.11356 0.871804 -3.14362e-21)
(1.10565 0.925026 3.26175e-19)
(1.09463 0.983903 -3.29357e-19)
(1.07973 1.04568 6.76554e-19)
(1.04911 1.0962 4.75314e-19)
(0.960286 1.08074 -7.25378e-19)
(0.733814 0.8802 -3.42496e-20)
(0.31661 0.393011 -2.85404e-19)
(1.19791 0.790731 -2.2838e-19)
(1.20241 0.840383 -2.2312e-19)
(1.2176 0.891387 2.37311e-19)
(1.22869 0.947086 5.43429e-19)
(1.2338 1.00695 2.15085e-19)
(1.23228 1.06884 -5.67752e-19)
(1.21032 1.11836 4.26137e-20)
(1.11707 1.09872 1.5725e-19)
(0.856691 0.888915 -1.9722e-19)
(0.368097 0.390791 -2.02277e-19)
(0.821677 0.0219871 3.84092e-21)
(1.1597 0.0427317 -1.63832e-20)
(0.915076 0.049337 -1.43769e-20)
(1.04015 0.05219 0)
(0.987385 0.0599309 1.63745e-20)
(0.972771 0.070758 2.17251e-20)
(0.949522 0.0859076 2.77114e-20)
(0.898625 0.105797 5.65391e-20)
(0.829457 0.13423 -8.14246e-20)
(0.662226 0.170591 -1.04179e-19)
(0.821118 0.018785 3.24553e-20)
(1.15954 0.0426582 -5.19383e-20)
(0.915523 0.0513431 1.52676e-22)
(1.04187 0.053805 -1.31483e-20)
(0.99004 0.0639801 8.93377e-21)
(0.976807 0.0770292 -1.11423e-20)
(0.954842 0.0970361 -6.89267e-20)
(0.906879 0.123334 0)
(0.839087 0.172096 1.76464e-19)
(0.68454 0.234844 -2.16953e-19)
(0.820325 0.015771 -2.972e-20)
(1.15961 0.0424461 1.66303e-20)
(0.915897 0.0530925 3.25931e-20)
(1.0441 0.0551874 1.23128e-20)
(0.99303 0.0677875 -2.17356e-20)
(0.981609 0.0830992 6.94752e-23)
(0.961193 0.107876 -4.89497e-20)
(0.918078 0.140775 -4.02986e-21)
(0.852305 0.208872 9.54855e-23)
(0.719702 0.297348 5.85062e-19)
(0.819295 0.0130163 -2.22413e-20)
(1.15982 0.0420852 -1.27058e-21)
(0.916206 0.0545342 2.43573e-20)
(1.04681 0.0563384 1.6597e-20)
(0.99636 0.0713193 -9.39496e-21)
(0.987165 0.0889172 -1.27677e-20)
(0.968668 0.118307 7.33536e-20)
(0.932014 0.15803 -1.14534e-21)
(0.869388 0.244035 -2.15263e-19)
(0.767072 0.357041 7.00772e-20)
(0.81802 0.0105538 1.59156e-20)
(1.16011 0.0415472 -2.90567e-20)
(0.916479 0.0556129 -1.77555e-20)
(1.05002 0.0572633 8.81945e-21)
(1.00004 0.0745414 0)
(0.993458 0.0944322 0)
(0.977373 0.128225 6.28182e-20)
(0.948449 0.175041 1.0921e-22)
(0.890642 0.277013 -1.03356e-19)
(0.825819 0.413012 8.29173e-20)
(0.816501 0.00843893 3.71016e-21)
(1.16041 0.0408001 2.0565e-20)
(0.916748 0.0562765 -4.46018e-20)
(1.0537 0.0579746 -2.7443e-20)
(1.00406 0.0774182 7.17958e-22)
(1.00046 0.0995978 5.20502e-20)
(0.98742 0.137557 9.87774e-20)
(0.967086 0.191741 -7.49591e-22)
(0.916508 0.306839 1.81172e-19)
(0.895047 0.465701 -1.90081e-19)
(0.814736 0.0067431 -2.0556e-20)
(1.16059 0.0398083 1.35457e-20)
(0.917059 0.05647 -1.1796e-20)
(1.05786 0.0584946 -5.04718e-20)
(1.00841 0.079913 -1.42958e-21)
(1.00817 0.104382 -8.3771e-22)
(0.998894 0.146272 -6.27695e-21)
(0.987521 0.20797 -1.80384e-19)
(0.947748 0.33202 1.39635e-19)
(0.972095 0.512851 -4.58222e-19)
(0.812719 0.0055265 -4.73389e-22)
(1.1606 0.0385159 -2.92454e-20)
(0.917467 0.0561477 2.29625e-20)
(1.06251 0.0588538 3.27269e-20)
(1.01306 0.0819775 -4.64546e-22)
(1.01659 0.108759 -6.17855e-20)
(1.01183 0.154411 -5.53404e-20)
(1.00946 0.224097 3.29135e-19)
(0.98501 0.355263 1.33745e-20)
(1.0562 0.563952 7.25482e-19)
(0.810444 0.00479766 9.67969e-21)
(1.16045 0.0367835 1.1035e-20)
(0.918054 0.0552533 2.97292e-20)
(1.06756 0.0590664 -3.3465e-20)
(1.01795 0.0834874 -5.877e-20)
(1.02563 0.112417 1.56513e-21)
(1.02611 0.160863 -7.65586e-20)
(1.03311 0.236066 4.32338e-19)
(1.0317 0.365451 -8.07147e-21)
(1.13815 0.58923 -9.97332e-19)
(0.807956 0.00502947 1.61712e-21)
(1.16113 0.0348416 1.30865e-20)
(0.918633 0.0539252 9.06146e-21)
(1.07304 0.059471 -6.73117e-20)
(1.02275 0.0852253 -5.83742e-20)
(1.0341 0.117397 -5.17827e-20)
(1.03841 0.171001 -1.37035e-19)
(1.05123 0.255997 -3.98884e-19)
(1.07192 0.39366 -2.43733e-19)
(1.22934 0.657336 -1.04049e-18)
(0.805601 0.00474404 -4.53819e-21)
(1.16429 0.0315533 -2.62708e-21)
(0.920132 0.0510119 -9.95625e-21)
(1.08 0.0581987 1.22871e-20)
(1.03178 0.084054 4.76993e-20)
(1.04957 0.117291 -3.66238e-20)
(1.06333 0.170965 1.21812e-19)
(1.09052 0.253566 -3.97125e-19)
(1.14187 0.374525 -1.73227e-19)
(1.23369 0.639338 5.78359e-19)
(0.806207 0.00212471 3.32626e-21)
(1.16853 0.0270875 8.36312e-21)
(0.924525 0.0456822 -7.05064e-21)
(1.08603 0.0543568 3.98896e-20)
(1.04247 0.0790689 7.45698e-20)
(1.06524 0.110914 1.0688e-19)
(1.08737 0.160556 2.62116e-20)
(1.12876 0.234628 2.09776e-19)
(1.19317 0.34207 2.57631e-19)
(1.31711 0.533528 3.28574e-21)
(0.80651 -0.0010959 -4.75366e-21)
(1.17329 0.0223123 3.14237e-22)
(0.92934 0.0401103 3.88143e-21)
(1.09216 0.0496945 1.04489e-20)
(1.05286 0.0729016 2.06697e-34)
(1.08004 0.102733 -7.97434e-21)
(1.10921 0.147619 -5.22198e-34)
(1.16196 0.21294 1.84813e-20)
(1.23127 0.300725 -5.42033e-20)
(1.38228 0.45813 -4.96188e-20)
(0.806883 -0.00547956 1.75769e-20)
(1.17821 0.0168743 -1.41556e-36)
(0.934238 0.0340478 -4.23249e-21)
(1.09806 0.0440885 -1.58776e-20)
(1.06247 0.0652973 -2.98841e-20)
(1.09341 0.0924059 -3.60328e-20)
(1.12843 0.131741 -6.45413e-34)
(1.1896 0.188193 -9.12545e-20)
(1.26185 0.257554 -1.24397e-19)
(1.42601 0.38165 8.83282e-20)
(0.807431 -0.0110221 0)
(1.18348 0.0108324 -1.53379e-35)
(0.939158 0.0276752 0)
(1.10362 0.037692 0)
(1.07108 0.0565215 0)
(1.10509 0.0803281 0)
(1.14491 0.11367 -3.84057e-34)
(1.21181 0.161096 0)
(1.28669 0.213822 -2.03465e-20)
(1.45185 0.309845 5.29095e-20)
(0.808242 -0.0177029 5.76562e-21)
(1.18938 0.0042738 -4.68971e-21)
(0.944105 0.0212187 -5.02575e-21)
(1.10864 0.0306887 0)
(1.07855 0.0468159 0)
(1.11495 0.0668726 6.69824e-21)
(1.15856 0.0940156 2.67929e-20)
(1.22905 0.132323 -1.35581e-20)
(1.3062 0.170991 -2.98741e-20)
(1.46594 0.242526 2.01731e-19)
(0.809424 -0.0272828 -6.23807e-20)
(1.19621 -0.00307493 5.90884e-21)
(0.949075 0.0148743 -5.43275e-21)
(1.11301 0.0232983 -5.41034e-21)
(1.08472 0.0364177 -1.06723e-20)
(1.12289 0.0523891 -8.20778e-21)
(1.16933 0.0732605 -2.03304e-20)
(1.24193 0.102511 -3.77159e-20)
(1.32076 0.129616 -5.19643e-20)
(1.473 0.179871 6.9749e-20)
(0.811062 -0.0327406 -9.1548e-21)
(1.2045 -0.00980452 -6.09364e-21)
(0.953814 0.0100668 -5.77486e-21)
(1.11613 0.0155033 -8.58618e-21)
(1.08909 0.0253513 2.0244e-35)
(1.12845 0.0369183 7.21397e-21)
(1.17693 0.0513648 -9.3405e-34)
(1.2507 0.0715119 -1.37045e-20)
(1.33054 0.0888373 1.84326e-20)
(1.47636 0.11926 2.55918e-20)
(0.808721 -0.0577982 1.44455e-19)
(1.1974 -0.0208355 -9.29585e-21)
(0.944588 0.00326608 -6.07259e-21)
(1.10448 0.00902238 4.43897e-21)
(1.07852 0.0146344 3.00562e-21)
(1.11862 0.022095 1.37237e-20)
(1.16843 0.030575 7.76109e-21)
(1.24296 0.0425217 -4.80992e-21)
(1.32273 0.0516058 -2.0151e-20)
(1.46663 0.0671981 1.37751e-19)
(0.72815 -0.0382439 9.4458e-21)
(0.950632 -0.0182672 -4.72025e-35)
(0.714685 0.00307705 -7.00472e-21)
(0.86087 0.000174813 0)
(0.827667 0.00287073 0)
(0.862894 0.00443576 7.45974e-21)
(0.904903 0.0060241 -8.93527e-36)
(0.966628 0.00865517 -1.36528e-20)
(1.03384 0.0100134 -2.67722e-20)
(1.14366 0.0125868 5.54231e-20)
(1.4755 0.63223 -1.8212e-19)
(1.58578 0.615259 -2.67801e-19)
(1.68383 0.606879 0)
(1.76983 0.585498 1.18789e-19)
(1.84974 0.538403 5.52501e-19)
(1.92587 0.468056 -1.14271e-19)
(1.99533 0.382405 1.55312e-18)
(2.05334 0.287731 -8.06438e-20)
(2.09672 0.187142 -3.43873e-19)
(2.1234 0.0839986 3.28773e-19)
(1.51377 0.516315 8.3053e-20)
(1.58915 0.504602 1.06206e-19)
(1.66639 0.491496 -9.54202e-21)
(1.74301 0.463401 1.76896e-19)
(1.81572 0.417609 -1.50114e-19)
(1.8824 0.358443 -3.65735e-19)
(1.94021 0.290932 -1.12449e-19)
(1.98645 0.218239 5.02779e-19)
(2.02011 0.142176 -2.17511e-20)
(2.04018 0.0638306 -4.34517e-19)
(1.54734 0.406602 9.35465e-20)