/*--------------------------------*- C++ -*----------------------------------*\
  =========                 |
  \\      /  F ield         | OpenFOAM: The Open Source CFD Toolbox
   \\    /   O peration     | Website:  https://openfoam.org
    \\  /    A nd           | Version:  13
     \\/     M anipulation  |
\*---------------------------------------------------------------------------*/
FoamFile
{
    format      ascii;
    class       surfaceScalarField;
    location    "59.1";
    object      phi;
}
// * * * * * * * * * * * * * * * * * * * * * * * * * * * * * * * * * * * * * //

dimensions      [0 3 -1 0 0 0 0];

internalField   nonuniform List<scalar> 
823
(
-0.000925096
0.0260389
-0.0251138
0.00490344
0.0218954
-0.0277239
0.0398829
-0.0283604
-0.0066191
0.116711
-0.0868177
0.0099897
-0.114932
-0.00774879
0.239391
0.0147178
0.0113211
0.0676148
-0.0310016
0.154445
-0.115191
0.262172
-0.194544
-0.263882
0.411122
0.0219776
-0.0106565
0.105155
-0.114179
0.215271
-0.225306
0.323376
-0.302649
-0.350413
0.409906
0.0417035
-0.05236
0.137075
-0.20955
0.22412
-0.312351
0.280257
-0.358786
-0.373617
0.303462
0.0554768
-0.107837
0.128525
-0.282598
0.17207
-0.355897
0.189446
-0.376162
0.197384
-0.381556
0.00607818
-0.0454412
0.0393631
0.0205665
-0.0939572
0.0794689
0.0328137
-0.105053
0.0928062
0.03709
-0.0903017
0.0860254
-0.0590204
0.0301532
0.0659573
0.0231863
-0.0686276
0.0529247
-0.123696
0.0720031
-0.124132
0.078791
-0.0970897
-0.0533437
0.0731143
0.0332732
-0.101901
0.0584522
-0.148875
0.0699584
-0.135638
0.0760606
-0.103192
-0.0597482
0.082465
-0.020664
-0.0812368
-0.0677166
-0.101822
-0.11151
-0.0918442
-0.145532
-0.0691702
-0.0331219
-0.172158
-0.106351
-0.235896
-0.33436
-0.39354
-0.434411
-0.208324
0.941458
-0.702981
-0.022198
1.36444
-1.55057
0.422627
-0.825702
0.380877
0.457037
-1.52151
1.4871
-0.770489
0.726896
-0.00604836
1.02062
0.194577
1.16381
0.507501
-1.13863
0.506433
-1.52045
-0.773423
0.28396
0.819126
0.384815
1.06296
0.564109
-1.31792
0.541883
-1.49822
-0.742218
0.19421
0.452757
0.445563
0.811607
0.592568
-1.46493
0.555946
-1.4616
-0.702201
0.0951778
-0.0768312
0.581613
0.325171
0.629496
-1.51281
0.555807
-1.38791
-0.654584
0.90474
0.0808985
-1.06247
1.36539
-0.135474
1.31292
-1.46034
0.99419
-1.06918
-0.45249
1.30812
0.12343
-1.35065
1.53811
-0.365467
1.25234
-1.17457
0.859419
-0.67626
-0.264173
1.40952
0.0322918
-1.31838
1.45812
-0.414068
1.06864
-0.785088
0.791127
-0.398747
-0.147099
1.35957
-0.0365758
-1.2907
1.26044
-0.314944
0.821751
-0.346396
0.563783
-0.140779
-0.0521988
0.851389
-0.887965
0.536445
0.190048
0.0492691
1.06859
0.14628
-1.01749
1.13746
0.234593
1.24321
0.304159
1.25112
0.403211
0.428039
0.989475
0.0773093
-0.920504
1.04526
0.178804
1.15018
0.199245
1.24068
0.312712
0.318064
0.942395
0.0332048
-0.89829
1.00182
0.119382
1.08511
0.115955
1.20012
0.197696
0.199804
0.897842
0.00798405
-0.872621
0.972204
0.04502
1.04559
0.042565
1.1667
0.0765916
0.0758045
0.647984
-0.639999
0.693004
0.735569
0.81216
0.124203
0.294087
-0.246142
-0.172148
0.0819307
0.301012
-0.25874
0.044018
0.311528
-0.273616
0.0134471
0.302324
-0.271753
0.194275
-0.180828
0.0900218
0.331045
-0.126979
0.0555451
0.335489
0.0255289
0.341544
0.00284822
0.325004
0.197123
0.0491219
0.359468
-0.0775457
0.0214328
0.363178
-0.00128633
0.364264
-0.0100015
0.33372
0.187121
-0.0250771
0.375463
0.00908204
-0.0387184
0.376819
-0.0431209
0.368666
-0.0305164
0.321115
0.156605
-0.100711
0.0946192
-0.100054
-0.0872849
-0.0487682
0.205638
0.093228
-0.259001
-0.0398652
0.150979
0.0972477
-0.0425885
0.0944063
0.101789
-0.0452166
0.0386645
0.101795
-0.0460531
0.0720904
-0.0334259
0.19742
0.138381
-0.242574
0.150061
0.144606
0.0976097
0.154241
0.0416009
0.157804
0.113691
0.150517
0.184399
-0.196535
0.106867
0.188256
0.0645623
0.196545
0.0244402
0.197926
0.138132
0.15946
0.220235
-0.195296
0.118006
0.22971
0.0723105
0.242241
0.0280472
0.242189
0.166179
0.104617
-0.130524
0.0755869
0.0442126
0.0146488
0.404018
0.0636223
-0.0716611
0.425402
-0.00583998
-0.0155439
0.415303
0.167182
-0.157083
0.394036
0.169802
-0.148535
0.388013
-0.252978
0.402226
0.0573756
0.420434
-0.0240476
0.403806
0.18381
0.379735
0.193873
0.525174
0.397666
0.0556888
0.415675
-0.042056
0.381172
0.218313
0.364207
0.210838
0.692846
0.396845
0.054823
0.402299
-0.0475092
0.365961
0.254651
0.343173
0.233625
0.840724
0.391619
0.0591839
0.390504
-0.046395
0.336353
0.308802
0.311449
0.25853
1.02165
0.633768
0.0294358
0.652668
-0.0652943
0.669023
0.292447
0.750563
0.17699
0.795318
0.976894
0.651976
-0.0185195
0.641519
-0.054838
0.688006
0.245961
0.788491
0.0765043
0.600328
0.983481
0.652042
-0.0665415
0.629518
-0.0323137
0.696237
0.179243
0.775856
-0.00311468
0.412185
0.963998
0.617635
-0.0801557
0.611397
-0.0260758
0.731919
0.0587203
0.752417
-0.0236128
0.198361
0.966242
0.523865
0.497789
0.556509
0.532896
0.731257
0.990915
-0.186169
0.988628
-0.124692
0.977925
-0.0668428
0.99268
-0.00567295
0.069814
0.928815
-0.131504
0.911902
-0.107779
0.887695
-0.0426357
0.909257
-0.0272356
0.0585675
0.915037
-0.0825431
0.885547
-0.0782886
0.872785
-0.0298731
0.877273
-0.0317235
0.0375499
0.91687
-0.0331717
0.87284
-0.0342583
0.858906
-0.0159392
0.845695
-0.0185126
0.0106242
0.698085
0.663827
0.647888
0.629375
0.0536614
0.183851
-0.237512
0.0761243
0.381765
-0.404228
0.0741806
0.433478
-0.431534
0.0645548
0.432072
-0.422446
0.398198
0.0511263
-0.384769
0.0851275
0.0987232
0.15715
0.309742
0.187763
0.402865
0.192311
0.427524
0.411106
0.179402
0.0759255
0.0227977
0.199058
0.18661
0.285871
0.316052
0.329865
0.383531
0.419066
0.321905
0.0383939
-0.0155962
0.161561
0.063443
0.294664
0.182948
0.413266
0.264929
0.354861
0.477471
0.00834392
-0.0239401
0.0786824
-0.00689548
0.200911
0.0607191
0.346086
0.119755
0.230281
0.470665
-0.000929089
-0.023011
0.0282547
-0.0360792
0.104673
-0.015699
0.217555
0.00687261
0.104618
0.343218
0.00368742
-0.0266985
0.0198427
-0.0522345
0.0559736
-0.05183
0.101289
-0.0384425
0.0204004
0.185506
0.00779783
-0.0344963
0.0215302
-0.0659668
0.0415187
-0.0718185
0.0635566
-0.0604804
-0.0311556
0.115113
0.00427082
-0.0387671
0.0127439
-0.07444
0.0263274
-0.085402
0.0452564
-0.0794094
-0.0613371
0.0754379
0.000595975
0.00562493
0.0130291
0.0196452
0.0242654
0.334972
1.15141
-1.14316
0.0360118
0.984547
-0.685587
-0.0433642
0.13468
-0.0553039
0.253143
-0.90069
0.604182
-0.34975
0.218146
0.341463
0.99545
0.02592
1.30009
-0.0363828
0.196983
0.250566
-1.18764
-0.497523
0.456095
0.654468
0.170268
1.58592
0.128999
0.238251
0.306836
-1.36547
-0.605284
0.214984
0.514922
0.127341
1.67356
0.318533
0.0470593
0.395654
-1.4426
-0.667934
-0.163794
-0.0407988
0.387138
0.431646
-0.171762
0.710088
-0.538326
-0.317351
0.145589
-0.176682
-0.14067
0.15012
-0.326802
-0.105618
0.795732
-1.2288
0.255734
0.0597606
0.337141
0.0962363
-0.0113956
-0.0848407
0.154497
-0.0582607
0.24484
-0.0903431
0.388526
-0.143686
-0.1498
0.221451
-0.181721
0.342593
0.574155
0.907939
0.149257
-0.156614
0.188525
-0.181168
0.114185
-0.163415
0.198487
0.0743548
-0.172489
0.212319
0.0307995
-0.173749
0.217304
-0.123749
0.154548
0.193943
-0.11561
-0.234947
0.147465
-0.116937
0.0942595
-0.119283
0.0392622
-0.118751
-0.0844866
0.189524
-0.0639464
-0.241188
0.137071
-0.0644837
0.0846996
-0.066912
0.0344547
-0.0685064
-0.0500319
0.206326
-0.0118037
-0.258468
0.15348
-0.0116383
0.098422
-0.0118538
0.0417769
-0.0118612
-0.00825507
0.210893
-0.262561
0.156666
0.0995953
0.041681
0.0524403
-0.361229
-0.0759808
0.02184
-0.391846
-0.00438229
-0.405312
-0.0166642
-0.391946
-0.254176
0.138274
-0.32561
-0.173892
0.0930483
-0.34662
0.0468726
-0.359136
0.0106333
-0.355707
-0.243543
0.16433
-0.280814
-0.209127
0.115307
-0.297596
0.0677618
-0.311591
0.0247594
-0.312704
-0.218784
0.180091
-0.240075
-0.22083
0.132938
-0.250443
0.0829286
-0.261581
0.0338545
-0.26363
-0.184929
0.177926
-0.229476
0.12597
0.0767072
0.0303809
0.38993
0.0999878
-0.0939379
0.393937
0.0761704
-0.0801773
0.361391
0.139749
-0.107203
0.315145
0.0196615
0.026585
-0.276522
0.410499
0.397292
0.0986757
0.408165
0.0652975
0.398459
0.149455
0.356459
0.0616613
-0.15501
0.402232
0.0924235
0.417385
0.050144
0.412392
0.154448
0.378227
0.0958258
-0.0179709
0.406122
0.0822806
0.422369
0.0338977
0.422375
0.154442
0.394442
0.123758
0.118003
0.406599
0.424953
0.422312
0.397536
0.416467
0.0935839
0.339907
0.0765596
0.261112
0.0787953
0.2795
-0.0183875
-0.221899
0.501398
0.509697
0.506079
0.477671
0.485869
0.674469
0.401553
0.0998452
0.313315
0.0882386
0.210549
0.102765
0.12301
0.0875388
0.0381697
0.544839
0.412247
0.305885
0.219532
)
;

boundaryField
{
    left
    {
        type            calculated;
        value           nonuniform List<scalar> 
17
(
-0.60402
-0.60402
-0.60402
-0.60402
-0.60402
-0.39598
-0.39598
-0.39598
-0.39598
-0.39598
-0.39598
-0.39598
-0.39598
-0.39598
-0.39598
-0.510051
-0.510051
)
;
    }
    right
    {
        type            calculated;
        value           nonuniform List<scalar> 
17
(
0.255738
0.449669
0.384747
0.398339
0.414597
0.458304
0.490607
0.500631
0.509367
0.510678
0.515929
0.50819
0.792096
0.671102
0.674053
0.468882
-0.00292967
)
;
    }
    down
    {
        type            calculated;
        value           uniform 0;
    }
    up
    {
        type            calculated;
        value           uniform 0;
    }
    cylinder
    {
        type            calculated;
        value           uniform 0;
    }
    defaultFaces
    {
        type            empty;
    }
}


// ************************************************************************* //
