/*--------------------------------*- C++ -*----------------------------------*\
  =========                 |
  \\      /  F ield         | OpenFOAM: The Open Source CFD Toolbox
   \\    /   O peration     | Website:  https://openfoam.org
    \\  /    A nd           | Version:  13
     \\/     M anipulation  |
\*---------------------------------------------------------------------------*/
FoamFile
{
    format      ascii;
    class       surfaceScalarField;
    location    "0.28";
    object      phi;
}
// * * * * * * * * * * * * * * * * * * * * * * * * * * * * * * * * * * * * * //

dimensions      [0 3 -1 0 0 0 0];

internalField   nonuniform List<scalar> 
823
(
0.0113778
-0.0505563
0.0391785
0.0387602
-0.133438
0.106056
0.0788383
-0.205878
0.1658
0.130186
-0.268865
0.217517
-0.323247
0.259392
0.194041
0.0107029
-0.0612592
0.036144
-0.158879
0.0726523
-0.242386
0.117983
-0.314196
-0.375599
0.170336
0.0083775
-0.0696367
0.0282872
-0.178789
0.0567308
-0.27083
0.0918209
-0.349286
-0.416057
0.132279
0.00529987
-0.0749366
0.0179978
-0.191487
0.0362342
-0.289066
0.0588918
-0.371944
-0.442426
0.0852604
0.00196225
-0.0768989
0.00663086
-0.196155
0.0132911
-0.295727
0.021524
-0.380176
0.0310649
-0.451967
0.0066756
-0.0106837
0.0040081
0.0221868
-0.0307887
0.0152775
0.0453407
-0.0483524
0.0251985
0.0744282
-0.0637821
0.0346946
-0.0768599
0.10801
0.0432778
0.00579307
-0.0164768
0.0215709
-0.0465665
0.04683
-0.0736114
0.0799107
-0.0968628
-0.115965
0.119015
0.00641405
-0.0228908
0.0237179
-0.0638704
0.0513463
-0.10124
0.0880774
-0.133594
-0.160047
0.13216
0.00754172
-0.0304325
0.0271069
-0.0834356
0.0573596
-0.131492
0.097095
-0.173329
-0.207861
0.144909
0.00874595
0.031366
0.0656735
0.109862
0.161392
0.320981
-0.955349
0.742378
0.469094
-0.813931
0.665818
0.552795
-0.341438
0.257738
0.578271
-0.0936247
0.0681484
-0.0153458
0.0165606
0.330488
-1.16682
0.46848
-0.951922
0.552718
-0.425677
0.578644
-0.11955
-0.0160653
0.33744
-1.3721
0.461782
-1.07626
0.54523
-0.509125
0.575357
-0.149677
-0.0226901
0.338174
-1.56537
0.451073
-1.18916
0.531522
-0.589573
0.56948
-0.187636
-0.0382475
0.327995
-1.73197
0.431349
-1.29252
0.508434
-0.666658
0.55973
-0.238933
-0.0661419
1.19613
-1.58794
-1.34017
1.00638
-1.10276
0.909025
-0.569304
0.884277
-0.214185
-0.0561817
1.33148
-1.13212
-1.78729
0.989112
-0.760396
0.805065
-0.385257
0.741527
-0.150647
-0.0372449
1.19037
-0.607481
-1.71501
0.817958
-0.387988
0.625425
-0.192724
0.554636
-0.0798579
-0.0201893
0.822515
-0.18528
-1.24472
0.545555
-0.111027
0.403928
-0.0510978
0.347179
-0.0231089
-0.00613568
0.306678
-0.491958
0.195651
0.144553
0.121444
1.56262
0.0462504
-1.57781
1.52171
0.126176
1.46266
0.191327
1.39629
0.236707
0.250162
1.67593
0.0356541
-1.66533
1.69941
0.102693
1.73094
0.159801
1.76544
0.2022
0.22831
1.38799
0.0184782
-1.37081
1.43708
0.0535972
1.51393
0.0829573
1.61026
0.105871
0.12356
0.977703
0.00531481
-0.964539
1.01588
0.0154186
1.0758
0.023035
1.15386
0.0278132
0.0327053
0.392986
-0.387671
0.408404
0.431439
0.459252
0.128821
0.327576
-0.264572
-0.191825
0.078177
0.273192
-0.222549
0.0385281
0.209792
-0.170143
0.0113397
0.136453
-0.109265
0.0519616
-0.0406219
0.115964
0.378887
-0.167275
0.0714942
0.317662
0.0356118
0.245675
0.0105576
0.161508
0.0625192
0.0888587
0.418273
-0.128245
0.0548111
0.35171
0.0272852
0.2732
0.00806339
0.180729
0.0705826
0.0552499
0.443541
-0.0805181
0.0337665
0.373193
0.0166557
0.290311
0.00486412
0.192521
0.0754467
0.0174855
-0.0259109
0.0105021
0.00508671
0.00145218
0.0719903
0.0867801
-0.106347
-0.0524232
0.0424792
0.0732232
-0.0437122
0.0195322
0.0565257
-0.0335787
0.00508308
0.0365061
-0.022057
0.0131548
-0.00807171
0.0762129
0.125371
-0.114803
0.0438807
0.105555
0.0197464
0.08066
0.00512795
0.0511246
0.0182827
0.084907
0.168196
-0.127732
0.0494273
0.141035
0.0229116
0.107176
0.0062301
0.067806
0.0245128
0.0944611
0.214484
-0.140749
0.0560204
0.179476
0.0266509
0.136545
0.00746728
0.0869896
0.0319801
0.107588
-0.157676
0.0645152
0.0309171
0.00864179
0.503878
0.165123
-0.273021
0.538252
0.181811
-0.216185
0.483945
0.312198
-0.257891
0.330116
0.803025
-0.649196
1.03472
-0.81095
0.499762
0.0613409
0.533169
0.148403
0.475323
0.370043
0.329447
0.948901
1.24936
0.496778
-0.0394573
0.523112
0.122069
0.459322
0.433834
0.329248
1.07898
1.45088
0.493706
-0.137184
0.510907
0.104868
0.440874
0.503867
0.326294
1.19356
1.63642
0.489366
-0.23057
0.492152
0.102082
0.416553
0.579466
0.314485
1.29562
1.79323
0.772923
-0.399473
0.8605
0.0145053
0.959298
0.480667
1.16932
1.0856
1.61532
1.34723
0.732815
-0.528268
0.819185
-0.0718654
0.968253
0.331599
1.30091
0.752945
1.14208
1.77415
0.611794
-0.536041
0.649283
-0.109354
0.808833
0.172049
1.17397
0.387804
0.611756
1.7043
0.45102
-0.38304
0.413022
-0.0713563
0.539062
0.0460091
0.81623
0.110636
0.186884
1.2411
0.22098
0.149624
0.195633
0.306269
0.493153
1.40241
-0.246997
1.46566
-0.23053
1.52298
-0.185558
1.56317
-0.120711
-0.0405512
1.75296
-0.225815
1.71997
-0.197533
1.69078
-0.156367
1.67094
-0.100872
-0.034943
1.60167
-0.123183
1.50885
-0.104721
1.4346
-0.0821125
1.38707
-0.0533462
-0.018682
1.15103
-0.0331063
1.07427
-0.0279625
1.01528
-0.0231247
0.977567
-0.0156334
-0.00565466
0.460046
0.432084
0.408959
0.393326
0.00250093
0.0429954
-0.0454964
0.00732666
0.101029
-0.105855
0.0160928
0.148367
-0.157133
0.0165756
0.151883
-0.152366
0.114005
0.014811
-0.11224
0.00682702
0.0361684
0.0201742
0.0876816
0.0409516
0.12759
0.0482482
0.144586
0.11636
0.0458931
0.00880721
0.0273612
0.027071
0.0694178
0.0521417
0.102519
0.0730855
0.123642
0.114014
0.0754311
0.00779824
0.019563
0.0255053
0.0517108
0.0497365
0.0782877
0.0774231
0.0959558
0.0992056
0.0922317
0.00509534
0.0144676
0.0179626
0.0388435
0.0367564
0.0594939
0.0600129
0.0726993
0.0766829
0.0825357
0.00342106
0.0110466
0.0125741
0.0296905
0.0274556
0.0446125
0.0471042
0.0530507
0.0560525
0.0677345
0.00224103
0.00880556
0.00900712
0.0229244
0.0224341
0.0311856
0.0412618
0.034223
0.0345927
0.0627216
0.00170772
0.00709786
0.0102279
0.0144044
0.0263115
0.015102
0.046869
0.0136656
0.0113388
0.0701229
0.00368898
0.00340891
0.0173906
0.000702848
0.0366119
-0.00411935
0.0595145
-0.00923693
-0.0144469
0.0853003
0.00741707
0.0233975
0.0444766
0.0699344
0.0987652
0.154736
0.0177047
-0.104706
0.244236
-0.12987
0.0403694
0.266908
-0.0408181
0.0181457
0.277987
-0.0101689
-0.000909507
-0.00962195
-0.000369465
0.215658
-0.135232
0.326057
-0.240268
0.353912
-0.0686737
0.363788
-0.0200442
-0.0163937
0.259802
-0.324911
0.390971
-0.371437
0.43502
-0.112723
0.444126
-0.0291505
-0.0184802
0.291537
-0.531148
0.435787
-0.515687
0.500737
-0.177673
0.514967
-0.0433805
-0.0170381
0.309995
0.460126
0.540191
0.564959
0.0708957
0.038424
-0.10932
0.0788924
-0.0079968
0.083604
-0.00471161
0.0830399
0.000564149
0.000127938
0.195128
-0.26141
0.227501
0.240935
0.240589
0.0207267
-0.00433039
-0.0163964
0.0342735
-0.0135468
0.0567469
-0.0224734
0.0856024
-0.0288555
-0.0237173
0.0539112
-0.0434306
0.0862575
0.139215
0.202591
0.047977
-0.0549934
0.0762634
-0.069247
0.0276329
-0.0520097
0.0723539
0.0123514
-0.0442734
0.059555
0.00331713
-0.0300181
0.0390523
-0.0112609
0.0145781
0.0458724
-0.0319796
-0.0688862
0.0253147
-0.031452
0.0100112
-0.0289699
0.00223361
-0.0222404
-0.00902732
0.0563337
-0.00637711
-0.0819362
0.0333885
-0.00850678
0.0145032
-0.0100846
0.00268058
-0.0104178
-0.00634672
0.0695204
0.0216581
-0.0975556
0.044452
0.0165617
0.0231794
0.011188
0.0068862
0.00587543
0.000539483
0.0732548
-0.10402
0.0461044
0.0237137
0.00753223
0.0165824
-0.114003
-0.0148194
0.0160925
-0.151876
0.00730552
-0.148346
0.00248872
-0.101038
-0.0430076
0.0482658
-0.116351
-0.0459184
0.0409264
-0.144536
0.0201604
-0.12758
0.00681991
-0.0876972
-0.0361877
0.073125
-0.113946
-0.0755295
0.0521158
-0.123527
0.0270596
-0.102524
0.00880411
-0.0694418
-0.0273836
0.0773443
-0.0989189
-0.0923714
0.0496122
-0.095795
0.0254243
-0.0783359
0.00777197
-0.0517894
-0.0196116
0.0599927
-0.0826482
0.0365516
0.0177707
0.00503357
0.343499
0.58106
-0.52858
0.285399
0.217886
-0.159785
0.251319
0.0547837
-0.0207042
0.166667
0.120234
-0.0355816
0.00175853
0.0956616
0.411196
0.565843
0.378198
0.250884
0.339591
0.0933913
0.234689
0.225136
0.167561
0.46662
0.495203
0.459044
0.25846
0.411517
0.140918
0.283498
0.353155
0.369123
0.505246
0.385936
0.519439
0.244267
0.458915
0.201443
0.315082
0.496988
0.58665
0.508895
0.536976
0.480529
0.32832
0.158729
0.351322
0.0856918
0.0730372
0.0816179
0.00407386
0.0728113
0.00880661
-0.03658
0.109391
0.332793
0.246045
0.229415
0.20264
0.261722
0.0856573
0.0237341
0.0567785
0.0288788
0.0342843
0.0224943
0.0207302
0.0135541
0.00433384
0.202808
0.139316
0.0862805
0.0539161
)
;

boundaryField
{
    left
    {
        type            calculated;
        value           nonuniform List<scalar> 
17
(
-0.60402
-0.60402
-0.60402
-0.60402
-0.60402
-0.39598
-0.39598
-0.39598
-0.39598
-0.39598
-0.39598
-0.39598
-0.39598
-0.39598
-0.39598
-0.510051
-0.510051
)
;
    }
    right
    {
        type            calculated;
        value           nonuniform List<scalar> 
17
(
0.082912
0.240348
0.287978
0.370559
0.446213
0.513525
0.564482
0.577056
0.579364
0.581981
0.585038
0.587625
0.874316
0.722591
0.53758
0.333126
0.115308
)
;
    }
    down
    {
        type            calculated;
        value           uniform 0;
    }
    up
    {
        type            calculated;
        value           uniform 0;
    }
    cylinder
    {
        type            calculated;
        value           uniform 0;
    }
    defaultFaces
    {
        type            empty;
    }
}


// ************************************************************************* //
