/*--------------------------------*- C++ -*----------------------------------*\
  =========                 |
  \\      /  F ield         | OpenFOAM: The Open Source CFD Toolbox
   \\    /   O peration     | Website:  https://openfoam.org
    \\  /    A nd           | Version:  13
     \\/     M anipulation  |
\*---------------------------------------------------------------------------*/
FoamFile
{
    format      ascii;
    class       volScalarField;
    location    "0.28";
    object      strainRateViscosityModel:nu;
}
// * * * * * * * * * * * * * * * * * * * * * * * * * * * * * * * * * * * * * //

dimensions      [0 2 -1 0 0 0 0];

internalField   nonuniform List<scalar> 
440
(
9.4196
8.96966
8.54433
8.04227
7.5861
9.68998
9.35817
8.98174
8.48004
7.87564
9.80076
9.53086
9.15879
8.58514
7.84836
9.84964
9.6182
9.25866
8.64763
7.86617
9.86918
9.6561
9.30596
8.68101
7.90886
1.28752
1.77972
2.03771
2.28747
2.35135
3.36991
3.3005
3.31809
3.42814
3.49911
5.88825
5.27272
4.9326
4.73507
4.76523
7.76947
6.99392
6.422
5.90813
5.83117
8.82079
8.15127
7.55208
6.91886
6.87268
1.83954
0.819348
0.314014
0.0422703
0.011266
2.62212
0.920953
0.273983
0.032359
0.010302
3.52253
1.18592
0.254441
0.0288194
0.0103626
4.0976
1.48436
0.2676
0.0251964
0.0104116
4.6064
1.8035
0.34818
0.0245269
0.0100074
4.2392
1.78288
0.271697
0.0150292
0.0502935
3.70583
1.77633
0.482973
0.28186
0.435011
4.9147
3.1942
1.19636
0.658538
0.695636
7.01059
4.28689
1.88556
0.998748
0.898702
8.2728
5.07897
2.50321
1.44282
1.125
2.84903
3.68373
4.62158
5.50827
6.15237
3.68388
3.69599
3.77059
3.84979
3.36512
8.22697
8.08703
7.79974
7.38544
6.34502
9.05302
8.99251
8.85926
8.62182
8.16059
9.60671
9.56995
9.487
9.338
9.11871
7.50451
8.01262
8.55912
9.01079
9.46442
7.79426
8.4514
8.98684
9.3778
9.70871
7.77896
8.55888
9.1593
9.54075
9.80946
7.81624
8.62753
9.25738
9.62276
9.8536
7.89137
8.67371
9.30538
9.65746
9.87035
2.48248
2.42386
2.22508
2.07262
1.99328
3.46805
3.41791
3.45199
3.66273
4.19178
4.65009
4.66941
5.05033
5.59017
6.42905
5.69852
5.83668
6.5014
7.18725
8.03724
6.76001
6.84625
7.58178
8.24305
8.93559
0.13926
0.0430788
0.205313
0.767844
1.97639
0.103981
0.0588449
0.175381
0.827053
2.65316
0.0851347
0.0786857
0.164306
1.07932
3.46441
0.0765758
0.098402
0.192478
1.41736
3.97214
0.0913684
0.123997
0.298302
1.76949
4.38971
0.166098
0.162888
0.284872
1.89642
4.12418
0.306637
0.177572
0.191421
1.71859
3.84793
0.610399
0.399204
0.80207
3.01032
4.89684
2.24595
0.931696
1.54128
4.15623
6.96116
5.04512
2.62348
2.47137
5.04657
8.27876
5.95605
5.27339
4.40711
3.51316
2.78113
3.51642
3.98532
3.96674
3.874
3.76316
6.31872
7.35222
7.77966
8.06841
8.21904
8.12201
8.60049
8.84981
8.98884
9.05217
9.11675
9.33769
9.48735
9.57049
9.60695
9.31031
7.91584
1.39829
3.62886
7.73571
9.08111
7.43957
3.20519
1.63981
6.78773
8.39744
6.57609
4.20729
1.00333
4.14571
6.81373
5.09269
3.45347
1.7013
1.03743
4.50204
3.14297
2.03718
1.37823
0.461451
2.59697
1.61819
1.00358
0.800492
0.930071
1.45331
0.779445
0.583887
0.619271
0.69204
0.790682
0.404286
0.591292
0.759624
0.833344
0.29713
0.498027
0.872088
1.03685
1.09834
0.155601
0.920713
1.26174
1.49587
1.54979
0.193729
0.362604
0.693907
0.785571
0.797453
0.401957
0.491978
0.550034
0.617406
0.638552
0.613295
0.62838
0.418416
0.442689
0.472045
0.949565
0.761888
0.356942
0.24946
0.27179
1.30741
0.802437
0.341284
0.0974632
0.0531927
1.10851
0.872836
1.12821
1.16027
1.13321
0.279991
0.482034
0.861313
0.951058
0.949684
9.19052
8.83776
7.75736
5.72879
3.55911
8.58636
7.72163
5.84978
3.48914
0.862956
0.970289
0.86641
1.03201
1.62052
2.65723
0.824895
0.780021
0.714727
0.827324
1.51726
1.06039
1.01142
0.848907
0.554802
0.721613
1.35638
1.3184
1.12174
0.77712
0.214745
1.80077
1.75429
1.50651
1.19656
0.581961
7.73523
3.62575
1.39962
7.91407
9.31045
6.78384
1.63945
3.20201
7.43645
9.08174
4.13155
1.0109
4.19332
6.5714
8.39899
1.03443
1.70782
3.43195
5.08335
6.82018
0.478608
1.37891
2.01415
3.12494
4.52478
1.28366
0.61309
0.56937
0.458007
0.18078
0.639457
0.369234
0.468988
0.523892
0.497593
0.355073
0.221704
0.355105
0.614592
0.804032
0.258273
0.0388644
0.304279
0.734126
1.19315
0.196119
0.030062
0.243771
0.771792
1.53027
5.47348
2.49965
1.08335
0.991031
1.14665
2.8697
1.14274
0.759583
0.571423
0.247055
3.56885
5.7348
7.75856
8.83829
9.19067
0.838575
3.46896
5.843
7.72026
8.58621
)
;

boundaryField
{
    left
    {
        type            calculated;
        value           nonuniform List<scalar> 
17
(
0.394234
1.0342
2.14038
3.90466
6.57839
0.277993
0.190085
0.157083
0.154647
0.197733
2.94818
2.02806
1.26543
0.756687
0.456278
6.97657
4.57604
)
;
    }
    right
    {
        type            calculated;
        value           nonuniform List<scalar> 
17
(
1.13361
0.950266
0.797379
0.637612
0.469327
0.265826
0.0486426
0.0106922
0.0101037
0.010096
0.010095
0.0100554
0.0665132
0.48443
0.735452
0.917006
1.11709
)
;
    }
    down
    {
        type            calculated;
        value           nonuniform List<scalar> 
20
(
5.98801
3.02969
1.19158
1.07444
1.85396
4.26954
6.38235
8.13007
9.015
9.30869
9.30852
9.01436
8.12859
6.3781
4.26253
1.83159
0.947081
1.19595
1.22001
1.18537
)
;
    }
    up
    {
        type            calculated;
        value           nonuniform List<scalar> 
20
(
8.54833
5.40559
2.72824
1.57839
1.18903
9.69562
9.66614
9.59855
9.47414
9.29326
9.29611
9.47631
9.60011
9.66723
9.69602
5.69419
3.21455
2.71076
5.40152
8.56474
)
;
    }
    cylinder
    {
        type            calculated;
        value           nonuniform List<scalar> 
40
(
1.34756
3.5719
6.11431
7.9604
8.95726
9.50519
9.74579
9.8408
9.88146
9.89747
9.54774
9.76292
9.84857
9.88497
9.8985
2.22481
4.46464
6.67485
8.23046
9.07025
3.04404
1.84269
1.06742
0.414518
0.593404
9.51862
9.33129
8.74122
7.26797
4.98472
9.51846
9.33055
8.73918
7.25972
4.95597
2.96605
1.73094
1.06244
0.655656
0.101324
)
;
    }
    defaultFaces
    {
        type            empty;
    }
}


// ************************************************************************* //
