/*--------------------------------*- C++ -*----------------------------------*\
  =========                 |
  \\      /  F ield         | OpenFOAM: The Open Source CFD Toolbox
   \\    /   O peration     | Website:  https://openfoam.org
    \\  /    A nd           | Version:  13
     \\/     M anipulation  |
\*---------------------------------------------------------------------------*/
FoamFile
{
    format      ascii;
    class       volVectorField;
    location    "0.28";
    object      U;
}
// * * * * * * * * * * * * * * * * * * * * * * * * * * * * * * * * * * * * * //

dimensions      [0 1 -1 0 0 0 0];

internalField   nonuniform List<vector> 
440
(
(0.218267 -0.176701 -1.81086e-19)
(0.613085 -0.436663 1.07909e-18)
(0.984287 -0.640893 4.23592e-19)
(1.32751 -0.795344 1.24148e-18)
(1.63252 -0.916651 -2.60056e-19)
(0.304902 -0.177689 -5.4458e-19)
(0.819149 -0.428709 -1.01972e-18)
(1.27999 -0.618905 1.14454e-19)
(1.69191 -0.761627 -1.21529e-18)
(2.05374 -0.875071 -1.02099e-18)
(0.38489 -0.15241 -6.98119e-19)
(1.0047 -0.363021 1.59001e-18)
(1.53979 -0.51839 -1.93491e-18)
(2.00475 -0.63263 1.3785e-18)
(2.40598 -0.721459 1.43049e-18)
(0.445882 -0.102748 5.62419e-19)
(1.14613 -0.243088 -1.29962e-18)
(1.73749 -0.344816 -7.5077e-19)
(2.24299 -0.418221 1.9668e-18)
(2.67452 -0.474457 2.5001e-18)
(0.479274 -0.0361594 6.86957e-19)
(1.22367 -0.0847562 1.69153e-19)
(1.84595 -0.119365 2.53146e-18)
(2.37409 -0.143866 -1.06211e-18)
(2.82302 -0.162496 -4.83784e-19)
(-0.000930974 -0.0513903 2.86939e-19)
(0.050087 -0.143874 -3.70819e-19)
(0.105874 -0.221912 1.08774e-18)
(0.171281 -0.291827 -1.74545e-19)
(0.239318 -0.353479 -1.58604e-18)
(0.0136744 -0.0841451 -2.63958e-19)
(0.0893904 -0.227431 -4.32306e-19)
(0.174243 -0.349611 1.12629e-19)
(0.268576 -0.449458 6.11638e-20)
(0.364895 -0.529508 -3.93375e-20)
(0.0433101 -0.114201 6.7469e-20)
(0.165494 -0.302973 5.22351e-19)
(0.296241 -0.467042 9.32731e-20)
(0.432989 -0.598373 1.46066e-18)
(0.568093 -0.696828 -2.49808e-20)
(0.0866108 -0.140993 6.66859e-20)
(0.276377 -0.367775 -3.34561e-20)
(0.469504 -0.562883 2.16524e-19)
(0.661424 -0.718301 -2.04185e-18)
(0.844137 -0.830154 9.58564e-19)
(0.142128 -0.16173 -2.36159e-19)
(0.420084 -0.412849 -4.43228e-19)
(0.691393 -0.621439 -7.71927e-19)
(0.950123 -0.782327 9.55299e-19)
(1.18518 -0.892706 3.46166e-18)
(0.591789 -0.591449 -4.19583e-18)
(0.956219 -0.513858 1.19881e-18)
(1.27479 -0.209633 3.50824e-19)
(1.41207 -0.0616721 -6.56754e-19)
(1.45729 -0.0158561 -1.0223e-19)
(0.785921 -0.742201 4.90633e-18)
(1.04184 -0.617898 -3.415e-19)
(1.30701 -0.271267 -1.41883e-19)
(1.43111 -0.0850403 4.27379e-19)
(1.46308 -0.022621 1.81695e-19)
(1.03695 -0.876801 1.53704e-18)
(1.17819 -0.702178 4.09821e-18)
(1.33972 -0.328495 6.62229e-20)
(1.44431 -0.105745 4.71621e-19)
(1.46964 -0.0288319 -6.00514e-20)
(1.33069 -0.987883 1.23991e-18)
(1.35757 -0.764161 -4.18622e-19)
(1.38984 -0.377246 -7.76272e-19)
(1.45216 -0.122969 -3.03695e-19)
(1.4773 -0.0339843 1.96044e-20)
(1.62993 -1.04706 -7.21603e-21)
(1.55182 -0.806136 -1.65731e-18)
(1.4493 -0.421568 0)
(1.4518 -0.148249 2.59595e-19)
(1.48374 -0.0402513 3.07237e-20)
(2.15616 -1.1145 -1.57808e-18)
(1.82864 -0.798777 -4.94298e-19)
(1.56219 -0.427054 -1.03864e-20)
(1.46148 -0.155524 2.44448e-20)
(1.44716 -0.0383621 -9.75131e-20)
(2.63366 -0.889163 -1.61321e-18)
(1.90295 -0.590261 2.93078e-18)
(1.45577 -0.298649 4.44124e-21)
(1.24307 -0.115761 2.37108e-19)
(1.19613 -0.0307269 0)
(2.47936 -0.522431 -6.9352e-18)
(1.60697 -0.337679 -1.49669e-19)
(1.15403 -0.167959 2.04157e-18)
(0.938205 -0.0713235 -2.98036e-19)
(0.890308 -0.0185488 -6.35056e-20)
(1.76246 -0.219953 6.83871e-18)
(1.08897 -0.135593 1.28852e-18)
(0.752586 -0.0648959 2.24992e-19)
(0.596161 -0.0301843 2.80954e-33)
(0.552334 -0.00868124 -1.07068e-19)
(0.683105 0.000134122 1.55626e-18)
(0.395248 0.0234381 7.19615e-19)
(0.267666 0.0235055 -5.10782e-19)
(0.212571 0.0116356 1.88531e-19)
(0.192034 0.00367857 -4.80176e-20)
(3.58195 -0.168161 1.2561e-17)
(3.41723 -0.502912 -1.04426e-17)
(3.13671 -0.786941 7.10788e-18)
(2.78058 -0.995986 2.3198e-18)
(2.33303 -1.10159 -4.14942e-19)
(3.78465 -0.103592 1.03954e-17)
(3.71762 -0.324464 -6.63974e-19)
(3.57793 -0.551826 -4.27065e-18)
(3.37852 -0.785745 2.69112e-18)
(3.1006 -1.01973 -6.62794e-19)
(3.11488 -0.0605641 3.65434e-18)
(3.0987 -0.181709 -2.51853e-18)
(3.05968 -0.3097 5.01246e-18)
(2.99903 -0.444869 -1.52693e-19)
(2.92457 -0.593586 -4.79022e-18)
(2.19088 -0.0276233 2.78865e-18)
(2.18385 -0.0833932 8.42981e-18)
(2.16462 -0.144054 -6.53234e-19)
(2.13405 -0.20735 -6.60688e-18)
(2.11303 -0.269512 1.94573e-18)
(0.879438 -0.00184244 5.21215e-18)
(0.876485 -0.00524136 -1.16424e-19)
(0.867352 -0.00957346 -4.2611e-20)
(0.850468 -0.0162651 -2.00888e-18)
(0.841097 -0.0229262 -3.60366e-18)
(1.65294 0.939697 2.26727e-18)
(1.34821 0.816534 -7.60252e-20)
(1.00337 0.658617 -3.30515e-20)
(0.627908 0.449515 -1.96469e-19)
(0.225264 0.182331 -1.34471e-19)
(2.0704 0.892378 -1.21704e-18)
(1.71063 0.7777 -1.19658e-18)
(1.29832 0.632608 7.33301e-19)
(0.834073 0.438761 -4.84503e-19)
(0.31217 0.182109 -4.19443e-21)
(2.41858 0.735802 -5.90882e-19)
(2.01967 0.645349 5.25264e-19)
(1.55502 0.528776 2.43758e-18)
(1.01756 0.370217 8.08474e-19)
(0.391357 0.155295 5.26202e-19)
(2.68206 0.486699 1.38346e-20)
(2.25243 0.428292 -2.72089e-19)
(1.74747 0.352332 -6.46737e-19)
(1.1548 0.247655 2.05665e-18)
(0.450342 0.104149 -3.26863e-19)
(2.82554 0.173863 -1.17089e-18)
(2.37734 0.152646 -1.60656e-18)
(1.84946 0.125349 -7.28758e-19)
(1.22675 0.0878372 7.96331e-19)
(0.480875 0.0366883 -3.25846e-19)
(0.239302 0.414831 -2.11621e-18)
(0.169589 0.351454 -1.79527e-18)
(0.10255 0.275254 3.08831e-19)
(0.045316 0.182292 -3.83349e-20)
(-0.00179485 0.0669408 3.34695e-20)
(0.370819 0.591578 -8.07342e-19)
(0.273939 0.507545 -6.52471e-19)
(0.178633 0.397367 3.38429e-21)
(0.09244 0.25815 -2.21858e-20)
(0.0166601 0.0959531 2.31795e-20)
(0.581808 0.751086 2.17275e-18)
(0.446285 0.64772 -1.59869e-19)
(0.307931 0.505771 -1.4369e-19)
(0.174306 0.327694 -2.14017e-19)
(0.048236 0.123653 1.68933e-19)
(0.862062 0.873332 -1.3013e-18)
(0.679198 0.757213 1.99177e-18)
(0.485292 0.593428 3.25035e-19)
(0.288309 0.388048 9.98274e-20)
(0.0924671 0.149089 -1.17978e-19)
(1.20356 0.924401 -4.42833e-19)
(0.969073 0.811314 -4.5923e-19)
(0.70861 0.644855 3.63151e-19)
(0.433361 0.429114 3.61038e-19)
(0.148474 0.168554 1.89998e-21)
(0.906728 0.155687 -3.794e-19)
(1.45881 0.142683 5.60086e-20)
(1.27621 0.20091 2.28716e-20)
(0.999569 0.502746 -4.03308e-19)
(0.594796 0.643007 -1.88056e-20)
(0.902777 0.0850052 1.67758e-19)
(1.46023 0.125726 2.56956e-19)
(1.29993 0.240705 1.4365e-19)
(1.05478 0.61296 -9.68082e-20)
(0.78393 0.79889 7.71533e-19)
(0.89906 0.0171988 1.84032e-20)
(1.47408 0.106841 -1.92677e-20)
(1.31074 0.281596 -5.80507e-20)
(1.16734 0.703312 -4.98047e-19)
(1.03757 0.932349 1.72334e-19)
(0.897837 -0.047951 -2.29207e-20)
(1.4912 0.0880081 -5.68966e-19)
(1.33526 0.321595 1.16096e-19)
(1.33059 0.766565 1.24452e-18)
(1.33477 1.03754 9.36912e-19)
(0.898603 -0.111475 -6.62894e-21)
(1.50526 0.073787 1.37987e-19)
(1.37244 0.363197 -6.87285e-20)
(1.51392 0.808376 -4.14143e-19)
(1.63534 1.08907 -2.76069e-18)
(0.899072 -0.203929 2.24726e-19)
(1.50983 0.0419845 4.12874e-19)
(1.46407 0.364892 -1.39009e-20)
(1.7699 0.790614 2.92956e-18)
(2.1518 1.14126 -5.5231e-18)
(0.872951 -0.331744 -2.66314e-20)
(1.40952 -0.0202271 -6.25001e-19)
(1.43736 0.264664 8.31326e-21)
(1.85176 0.588768 -3.03262e-18)
(2.59576 0.89979 1.66456e-18)
(0.783048 -0.410977 5.38737e-18)
(1.1154 -0.0831623 6.62032e-35)
(1.14754 0.143956 -2.17503e-18)
(1.58041 0.335495 2.69367e-18)
(2.45789 0.528964 5.03302e-18)
(0.632456 -0.290744 1.49886e-19)
(0.726853 -0.0697786 5.22894e-19)
(0.739224 0.0514678 2.55284e-19)
(1.07663 0.13379 6.25703e-19)
(1.75844 0.220399 -8.63777e-18)
(0.321871 -0.0432892 -4.30123e-18)
(0.296585 0.00466371 2.78814e-19)
(0.267467 -0.0125575 1.09417e-18)
(0.393829 -0.0239739 -7.7464e-19)
(0.686058 -0.00037136 -1.4642e-18)
(2.34824 1.12055 4.68336e-18)
(2.78709 1.01224 3.46665e-18)
(3.1408 0.803224 -5.68578e-18)
(3.41899 0.519522 -1.46125e-17)
(3.58244 0.185843 1.57617e-17)
(3.07938 1.0187 5.0074e-18)
(3.3545 0.795162 2.5649e-17)
(3.55732 0.560647 7.24463e-18)
(3.70136 0.331814 -3.08364e-17)
(3.77809 0.111125 -5.1738e-18)
(2.90615 0.591873 -7.23262e-18)
(2.98619 0.448071 -3.38144e-18)
(3.05228 0.312146 -6.30226e-18)
(3.09529 0.181777 -6.88935e-18)
(3.11405 0.0584645 6.5225e-18)
(2.10621 0.266009 5.4099e-18)
(2.13005 0.205865 -4.0498e-19)
(2.16249 0.14313 4.87e-18)
(2.1831 0.0821889 6.28854e-18)
(2.19077 0.0260223 -5.88745e-18)
(0.84242 0.0220925 -5.74008e-19)
(0.851847 0.0156748 3.51925e-18)
(0.868584 0.00914276 2.44252e-18)
(0.87747 0.00479835 -5.1688e-18)
(0.879831 0.00136393 -3.84246e-20)
(0.281903 0.0207549 5.51975e-19)
(0.656612 0.0404629 -7.43373e-19)
(0.973061 0.044063 -8.18626e-19)
(0.944243 0.0274289 -1.51793e-18)
(0.697784 0.0163839 -6.63699e-19)
(0.245548 0.055455 7.45445e-19)
(0.591209 0.107065 1.44153e-18)
(0.864606 0.125131 -6.96962e-19)
(0.939877 0.0969897 1.9604e-18)
(0.72411 0.0532323 -2.70085e-18)
(0.185595 0.0742578 4.96026e-19)
(0.476337 0.145881 -1.39933e-18)
(0.707703 0.184743 -9.13757e-19)
(0.857237 0.175392 -1.81057e-18)
(0.741509 0.101207 -2.86196e-18)
(0.123287 0.0774689 -7.72712e-19)
(0.344719 0.160346 -1.37658e-18)
(0.534476 0.214858 4.39736e-18)
(0.677625 0.233269 -3.66495e-19)
(0.713007 0.179991 2.25184e-18)
(0.0752642 0.072366 -6.23334e-19)
(0.230677 0.160105 1.56362e-18)
(0.372214 0.224493 6.09358e-19)
(0.482685 0.257635 -1.29386e-18)
(0.561085 0.258262 -1.75541e-19)
(0.0451446 0.0637902 8.29622e-20)
(0.149936 0.148774 -1.2187e-18)
(0.247684 0.212038 -9.37521e-19)
(0.325263 0.233781 -9.71673e-20)
(0.371002 0.223415 -5.04833e-20)
(0.0264126 0.0556903 3.11996e-19)
(0.0951093 0.134127 5.88462e-19)
(0.160916 0.184192 -2.13432e-19)
(0.213753 0.194473 2.60089e-19)
(0.253654 0.184213 1.72224e-19)
(0.0132076 0.0486882 2.47748e-19)
(0.0586242 0.110763 1.31645e-18)
(0.103656 0.120104 -1.24084e-18)
(0.142614 0.106205 -2.78182e-18)
(0.178822 0.0846818 4.09435e-19)
(0.00608444 0.039139 -2.3643e-19)
(0.0421944 0.0483285 -1.79442e-18)
(0.0792263 0.0213153 3.20392e-18)
(0.119064 -0.0104286 1.31902e-18)
(0.160314 -0.0442092 -2.69589e-19)
(0.00980959 0.0024812 2.07337e-19)
(0.0416389 -0.0496347 -4.47361e-19)
(0.0814552 -0.0958762 8.91387e-20)
(0.129852 -0.143888 1.0621e-19)
(0.180241 -0.190143 5.70428e-21)
(0.33887 0.0704965 -8.12121e-20)
(0.617436 -0.0420848 -1.21978e-18)
(0.704041 -0.0145689 2.55766e-19)
(0.725599 0.000368677 3.79192e-19)
(0.727384 0.00033184 1.72887e-20)
(0.303716 -0.0362643 -1.00047e-19)
(0.753398 -0.11472 1.43388e-18)
(0.887228 -0.0253496 9.24057e-19)
(0.926064 -0.00039627 7.81003e-20)
(0.935912 0.000624159 -4.52257e-20)
(0.319172 -0.151184 -7.9502e-19)
(0.834522 -0.197734 3.04859e-18)
(1.04586 -0.0459612 -1.84725e-19)
(1.1102 -0.00307779 -3.50899e-19)
(1.12695 0.000546054 8.73792e-20)
(0.373356 -0.289123 1.09022e-18)
(0.879305 -0.296498 -2.59031e-18)
(1.16046 -0.0886417 -5.16678e-19)
(1.26835 -0.0124406 -3.50175e-20)
(1.29691 -0.00120205 -1.10281e-20)
(0.460071 -0.43694 5.09116e-19)
(0.911697 -0.402996 -5.65085e-19)
(1.23034 -0.146843 4.4809e-19)
(1.37319 -0.0345649 1.33235e-19)
(1.42557 -0.00750629 -4.23843e-20)
(0.183007 -0.0448979 9.54425e-19)
(0.14576 -0.00509311 0)
(0.162915 0.00128669 1.1826e-19)
(0.164632 0.000218087 1.58418e-20)
(0.162636 -0.000186323 -8.07258e-20)
(0.400494 0.0698526 0)
(0.411252 -0.000634934 0)
(0.467325 -0.0046449 6.84928e-20)
(0.475184 0.000875628 2.601e-20)
(0.471363 0.000224388 2.6374e-20)
(0.162648 -0.000821094 -3.6837e-19)
(0.18636 -0.0017922 3.10719e-18)
(0.213164 -0.00502166 -6.86561e-19)
(0.229763 -0.0149897 -3.11648e-18)
(0.245659 -0.0169911 -7.96923e-19)
(0.431937 0.00444029 6.09795e-19)
(0.484458 0.0196905 4.11532e-18)
(0.536356 0.0466763 -6.73148e-18)
(0.567577 0.0805588 2.20871e-18)
(0.598354 0.162176 3.7936e-18)
(0.370544 -0.219925 -3.35745e-19)
(0.324105 -0.23098 -9.0265e-20)
(0.248278 -0.212317 -3.17899e-19)
(0.150747 -0.150686 3.84147e-19)
(0.0458446 -0.0645954 1.14362e-19)
(0.257753 -0.167851 4.19912e-19)
(0.215126 -0.18007 1.41477e-18)
(0.162384 -0.175755 2.68369e-19)
(0.0967527 -0.134551 2.35043e-19)
(0.0267896 -0.057117 -1.78053e-20)
(0.193059 -0.0529283 -3.08942e-19)
(0.151463 -0.0754955 -1.02128e-19)
(0.108593 -0.0930477 1.63173e-18)
(0.0622831 -0.0956167 2.90145e-19)
(0.0130565 -0.0475853 -3.08708e-19)
(0.176992 0.0877108 -6.35035e-19)
(0.131349 0.0539819 -7.06668e-19)
(0.0867947 0.020499 1.29985e-18)
(0.0488481 -0.0093511 1.59008e-18)
(0.0111814 -0.0290487 1.98461e-19)
(0.185994 0.243364 1.23841e-19)
(0.132235 0.197179 -1.19676e-19)
(0.0804494 0.147545 2.48223e-19)
(0.0372942 0.0966152 6.09702e-19)
(-0.00258299 0.0353997 8.81401e-20)
(0.697781 -0.016339 1.53115e-18)
(0.944249 -0.0274054 -1.80066e-18)
(0.972869 -0.0441882 2.26956e-18)
(0.656624 -0.0405253 3.6435e-19)
(0.281936 -0.0207635 5.36535e-19)
(0.724102 -0.0531228 1.77182e-18)
(0.939737 -0.0970026 7.94631e-18)
(0.864401 -0.125234 1.03352e-18)
(0.591261 -0.107104 1.3492e-18)
(0.245644 -0.0554761 -4.78374e-19)
(0.741439 -0.100951 -1.22261e-18)
(0.856628 -0.175218 -2.29502e-18)
(0.707619 -0.1848 2.92387e-18)
(0.476404 -0.14595 -1.08441e-19)
(0.185717 -0.0742937 3.39598e-19)
(0.712513 -0.179794 2.24607e-20)
(0.676893 -0.233187 -7.68021e-18)
(0.534503 -0.215174 -5.99416e-18)
(0.344853 -0.160683 1.09116e-18)
(0.123469 -0.0775749 5.08041e-19)
(0.558637 -0.256622 4.72842e-19)
(0.481607 -0.256934 5.3264e-19)
(0.372265 -0.225152 -8.96637e-19)
(0.230932 -0.160971 -8.87078e-19)
(0.075612 -0.072629 -5.13992e-21)
(0.725374 0.372285 1.16941e-18)
(0.893601 0.124004 -1.90808e-19)
(0.687764 0.0196054 2.6326e-19)
(0.650127 0.0391031 -7.66312e-19)
(0.363485 -0.0604308 -1.01463e-19)
(0.823789 0.396626 -1.67092e-19)
(1.1107 0.15122 -5.26245e-19)
(0.879255 0.039142 8.23852e-19)
(0.807951 0.104484 1.67399e-18)
(0.341864 0.0561316 1.06442e-19)
(0.884837 0.369177 -2.11337e-18)
(1.30372 0.163648 -3.72663e-20)
(1.04508 0.0664806 2.2579e-19)
(0.907078 0.185245 1.57372e-18)
(0.364144 0.178309 -1.35347e-18)
(0.905951 0.306448 1.33377e-18)
(1.45809 0.162891 2.42557e-20)
(1.16456 0.107958 -1.74184e-19)
(0.95631 0.283579 -4.8803e-19)
(0.411464 0.323712 -5.39898e-19)
(0.908783 0.230049 1.4455e-19)
(1.4718 0.154017 -3.28771e-21)
(1.23343 0.154963 -3.73836e-20)
(0.978682 0.390185 -8.84863e-21)
(0.479633 0.479673 1.35573e-18)
(0.275207 0.0483762 0)
(0.245426 -0.0106699 6.38503e-19)
(0.159954 -0.0157395 1.28716e-19)
(0.151923 0.00524891 -1.29722e-19)
(0.184513 0.0439181 -1.80784e-18)
(0.57201 0.265989 -1.01898e-17)
(0.614555 0.0741824 -2.51431e-18)
(0.452913 0.0123385 5.09571e-19)
(0.428395 0.00158295 -6.72545e-19)
(0.408674 -0.0680133 -6.63354e-19)
(0.245809 0.0169401 -1.19041e-21)
(0.229862 0.015075 1.92824e-18)
(0.213241 0.00506402 5.23862e-19)
(0.186409 0.00180187 3.23162e-19)
(0.162664 0.00082493 0)
(0.599323 -0.162031 -1.06884e-19)
(0.568171 -0.0802368 2.55141e-18)
(0.53647 -0.046447 -1.35261e-19)
(0.484518 -0.0196373 -2.69836e-19)
(0.43196 -0.0044181 7.60256e-19)
)
;

boundaryField
{
    left
    {
        type            fixedValue;
        value           uniform (1 0 0);
    }
    right
    {
        type            zeroGradient;
    }
    down
    {
        type            noSlip;
    }
    up
    {
        type            noSlip;
    }
    cylinder
    {
        type            noSlip;
    }
    defaultFaces
    {
        type            empty;
    }
}


// ************************************************************************* //
