/*--------------------------------*- C++ -*----------------------------------*\
  =========                 |
  \\      /  F ield         | OpenFOAM: The Open Source CFD Toolbox
   \\    /   O peration     | Website:  https://openfoam.org
    \\  /    A nd           | Version:  13
     \\/     M anipulation  |
\*---------------------------------------------------------------------------*/
FoamFile
{
    format      ascii;
    class       volVectorField;
    location    "0.36";
    object      U;
}
// * * * * * * * * * * * * * * * * * * * * * * * * * * * * * * * * * * * * * //

dimensions      [0 1 -1 0 0 0 0];

internalField   nonuniform List<vector> 
1800
(
(0.498291 -0.443665 1.125e-19)
(1.0847 -0.931922 4.92936e-20)
(1.29549 -1.04941 -7.01214e-19)
(1.36193 -1.04261 5.32326e-19)
(1.3859 -1.00018 1.1064e-18)
(1.39262 -0.948239 4.51271e-19)
(1.39097 -0.894396 -2.29615e-19)
(1.38514 -0.842373 -6.13161e-19)
(1.3796 -0.790523 -3.15634e-19)
(1.35742 -0.742149 -2.53215e-19)
(0.577126 -0.437912 -9.11189e-21)
(1.23861 -0.912232 -9.77456e-19)
(1.46596 -1.02206 6.87434e-21)
(1.52911 -1.01278 -3.97486e-19)
(1.54516 -0.969137 8.40012e-20)
(1.54317 -0.916851 1.06543e-18)
(1.53316 -0.863188 -7.84938e-19)
(1.52006 -0.811179 3.94274e-19)
(1.50741 -0.759514 6.57333e-19)
(1.48631 -0.718448 -3.33271e-19)
(0.656882 -0.421731 6.87302e-20)
(1.39082 -0.871021 2.79977e-19)
(1.63264 -0.970483 5.67464e-19)
(1.69144 -0.95925 -3.15004e-19)
(1.69897 -0.915783 -1.33028e-18)
(1.68794 -0.86497 2.91359e-19)
(1.66942 -0.813563 5.09571e-19)
(1.64861 -0.764193 -4.64529e-20)
(1.62871 -0.715976 -4.32691e-21)
(1.60238 -0.676495 -2.07435e-20)
(0.735931 -0.394837 -7.65635e-20)
(1.53777 -0.808378 -3.05861e-19)
(1.79141 -0.895094 -3.7621e-19)
(1.84489 -0.882537 4.59622e-20)
(1.84364 -0.840477 3.61388e-19)
(1.8238 -0.792463 2.56781e-20)
(1.79725 -0.744488 -2.08488e-20)
(1.76936 -0.698648 4.72431e-19)
(1.74294 -0.654086 3.98512e-19)
(1.71264 -0.618349 -1.43201e-19)
(0.812459 -0.357199 1.5456e-19)
(1.67571 -0.725086 3.64641e-19)
(1.93795 -0.797276 -5.72032e-20)
(1.98517 -0.784381 -6.16576e-20)
(1.97501 -0.745192 -1.06901e-18)
(1.9466 -0.701579 8.70569e-21)
(1.91248 -0.658589 8.27459e-19)
(1.87801 -0.617769 2.62706e-19)
(1.84555 -0.578433 9.22026e-21)
(1.81144 -0.546955 -1.84577e-19)
(0.884493 -0.309012 -5.57546e-20)
(1.80086 -0.622325 9.1435e-19)
(2.06821 -0.678773 1.34207e-18)
(2.10856 -0.666659 -8.46863e-19)
(2.08978 -0.631685 -7.78397e-19)
(2.05352 -0.593835 1.28838e-18)
(2.01271 -0.556971 -9.01551e-19)
(1.97251 -0.52213 -1.03125e-18)
(1.93496 -0.488734 7.20253e-19)
(1.89766 -0.462216 -1.24117e-20)
(0.950002 -0.250864 3.92082e-19)
(1.90958 -0.502118 -1.41701e-18)
(2.17847 -0.542362 -3.67093e-18)
(2.21167 -0.532379 1.35529e-18)
(2.18483 -0.502982 1.97912e-18)
(2.14167 -0.472303 -5.54261e-21)
(2.09521 -0.442755 -2.47899e-18)
(2.05031 -0.414948 1.67579e-20)
(2.00864 -0.388428 2.22968e-18)
(1.96875 -0.367511 5.8075e-19)
(1.00688 -0.18367 -1.87454e-19)
(1.99845 -0.366958 7.94385e-19)
(2.26547 -0.391175 2.8362e-18)
(2.29164 -0.384659 -1.92347e-20)
(2.25762 -0.361977 -1.27986e-18)
(2.20878 -0.339659 -3.97161e-19)
(2.1579 -0.318305 0)
(2.1094 -0.298275 8.73753e-19)
(2.06464 -0.279223 -1.51569e-20)
(2.02285 -0.264454 -7.27064e-19)
(1.05318 -0.108758 -2.21479e-20)
(2.06453 -0.220033 2.00759e-18)
(2.32678 -0.22903 2.41281e-18)
(2.3463 -0.227247 -1.97561e-18)
(2.30626 -0.212245 -1.35284e-18)
(2.25323 -0.199317 3.93715e-19)
(2.1993 -0.186805 -1.62426e-18)
(2.14842 -0.175114 -1.16647e-18)
(2.10169 -0.163978 1.32424e-18)
(2.0587 -0.155739 1.12296e-18)
(1.08714 -0.0277434 3.10391e-19)
(2.10545 -0.065059 1.28916e-18)
(2.36079 -0.0601598 4.38981e-19)
(2.37398 -0.0639739 -2.80719e-18)
(2.32953 -0.0574133 -1.18873e-22)
(2.27388 -0.0546242 3.74104e-18)
(2.21831 -0.0513149 -2.00631e-18)
(2.16632 -0.0482698 -1.05685e-18)
(2.11872 -0.045296 3.79046e-19)
(2.07532 -0.0437909 -8.34955e-19)
(0.00824938 -0.0824602 1.1319e-19)
(0.0633779 -0.177294 1.42663e-19)
(0.130933 -0.206277 -2.11373e-21)
(0.198921 -0.211151 -4.31483e-21)
(0.262468 -0.208771 -1.51279e-21)
(0.320901 -0.20365 -3.37108e-20)
(0.374365 -0.197289 4.41437e-21)
(0.423032 -0.190515 -1.21516e-20)
(0.467669 -0.183777 1.07896e-21)
(0.507949 -0.178335 -2.63929e-21)
(0.021757 -0.138752 7.99301e-20)
(0.0924563 -0.302151 1.33978e-19)
(0.164634 -0.349834 -1.25763e-19)
(0.232996 -0.354905 -4.2768e-20)
(0.295726 -0.34747 -4.83758e-20)
(0.352892 -0.335544 -6.1431e-20)
(0.404915 -0.321717 2.62895e-20)
(0.452129 -0.307397 -6.82652e-21)
(0.495296 -0.293334 -2.22869e-21)
(0.53466 -0.282705 -4.60612e-21)
(0.0442679 -0.193161 1.37805e-20)
(0.141309 -0.422134 3.13395e-19)
(0.221301 -0.487453 8.31917e-20)
(0.290276 -0.492533 2.6048e-19)
(0.351621 -0.480111 4.05816e-20)
(0.406649 -0.46157 -2.23248e-19)
(0.456243 -0.440531 -1.57595e-20)
(0.500995 -0.418959 6.98312e-20)
(0.541673 -0.397922 -3.38386e-20)
(0.579527 -0.382308 -7.20947e-21)
(0.0755611 -0.244696 -9.46593e-20)
(0.209186 -0.534768 -7.36526e-20)
(0.299949 -0.616151 2.42702e-20)
(0.369684 -0.620969 -9.92796e-20)
(0.429033 -0.603672 3.68799e-20)
(0.481043 -0.578794 1.47173e-19)
(0.527224 -0.550927 4.37537e-20)
(0.568535 -0.522529 -1.37831e-20)
(0.605756 -0.495021 1.50802e-20)
(0.641506 -0.474694 -1.96672e-21)
(0.115326 -0.29239 0)
(0.295022 -0.637642 7.24714e-20)
(0.399191 -0.733026 4.74581e-19)
(0.469705 -0.737251 -2.70698e-19)
(0.526399 -0.715239 -4.69007e-19)
(0.574504 -0.68441 1.56843e-19)
(0.616314 -0.650226 -2.33579e-20)
(0.653244 -0.615579 -7.26685e-20)
(0.68612 -0.582261 0)
(0.719158 -0.557554 -6.73921e-21)
(0.163154 -0.335282 -1.80806e-20)
(0.397426 -0.728442 3.23445e-19)
(0.517202 -0.835324 1.51448e-19)
(0.588366 -0.838573 1.76862e-19)
(0.641683 -0.812067 -1.41906e-19)
(0.684991 -0.775785 -2.32311e-19)
(0.721502 -0.735945 3.97685e-19)
(0.753166 -0.695778 3.96737e-20)
(0.780906 -0.657462 -2.37491e-19)
(0.810568 -0.628743 -5.33925e-21)
(0.218515 -0.372413 3.5813e-20)
(0.514662 -0.804989 4.19513e-19)
(0.65173 -0.920485 2.84433e-20)
(0.723238 -0.922352 1.55077e-20)
(0.772386 -0.891653 2.52876e-19)
(0.809998 -0.85054 -3.20606e-19)
(0.84032 -0.805854 -3.13904e-19)
(0.865886 -0.761058 -2.68049e-19)
(0.887777 -0.718693 1.94477e-19)
(0.913224 -0.686325 2.15845e-19)
(0.280719 -0.402801 -1.07103e-19)
(0.644619 -0.865278 -1.79341e-19)
(0.800066 -0.986225 1.44157e-19)
(0.871424 -0.98631 -1.30846e-19)
(0.915556 -0.951794 2.67466e-19)
(0.946588 -0.906586 6.40724e-19)
(0.969887 -0.857984 4.44143e-19)
(0.988583 -0.80957 -3.31777e-19)
(1.00397 -0.764168 -1.59498e-19)
(1.02402 -0.72838 2.3045e-19)
(0.348852 -0.425432 -3.10239e-19)
(0.784813 -0.907503 -1.06453e-18)
(0.959088 -1.0306 1.02224e-18)
(1.02964 -1.02855 7.86304e-19)
(1.0679 -0.990696 -6.34187e-19)
(1.09154 -0.942197 6.92197e-19)
(1.10713 -0.89065 9.40072e-20)
(1.11832 -0.839661 -8.13335e-19)
(1.12675 -0.792122 -1.95494e-19)
(1.13965 -0.7526 2.54828e-19)
(0.421792 -0.439325 -4.76969e-20)
(0.932477 -0.930116 -9.09365e-19)
(1.12541 -1.05206 -4.53427e-19)
(1.19438 -1.04767 7.01819e-19)
(1.22593 -1.00713 5.54305e-19)
(1.24154 -0.956339 -6.18222e-19)
(1.24898 -0.902994 -5.07475e-19)
(1.25225 -0.8508 2.99435e-19)
(1.2539 -0.801678 -3.0003e-19)
(1.25551 -0.757111 -1.97104e-19)
(0.646386 -0.144664 -1.80278e-20)
(0.818237 -0.111906 3.99145e-20)
(0.890062 -0.0876292 1.78192e-20)
(0.935663 -0.0687563 -4.3599e-21)
(0.961611 -0.0533172 2.50375e-21)
(0.97713 -0.0405155 6.04314e-21)
(0.98667 -0.0298251 3.8851e-21)
(0.992563 -0.020754 -3.55096e-21)
(0.995977 -0.0130496 1.40833e-21)
(0.99792 -0.00481735 3.41694e-21)
(0.663502 -0.208383 3.98116e-20)
(0.827668 -0.146851 -1.93071e-20)
(0.897192 -0.106282 3.47317e-21)
(0.941028 -0.0792776 9.74514e-21)
(0.965918 -0.0594725 2.2088e-20)
(0.980645 -0.044198 0)
(0.989576 -0.0320552 3.83195e-21)
(0.995014 -0.0220876 2.85955e-21)
(0.99813 -0.0138013 5.81281e-22)
(0.999861 -0.00507858 -2.76997e-21)
(0.691526 -0.270073 -2.83453e-20)
(0.841349 -0.181134 -3.21492e-21)
(0.906806 -0.12479 -2.79198e-21)
(0.947625 -0.0897208 -8.55583e-21)
(0.970912 -0.0655584 -4.34989e-21)
(0.984563 -0.0478121 6.71595e-21)
(0.992734 -0.0342206 0)
(0.99763 -0.023367 0)
(1.0004 -0.0145142 1.76912e-21)
(1.0019 -0.00532532 0)
(0.730173 -0.328551 -1.887e-20)
(0.859233 -0.21426 5.40439e-21)
(0.918826 -0.142954 7.87886e-21)
(0.95546 -0.099984 0)
(0.976585 -0.0715148 -1.32364e-20)
(0.988879 -0.0513212 4.3958e-21)
(0.996128 -0.0362987 0)
(1.0004 -0.0245786 -6.8192e-21)
(1.00279 -0.0151795 0)
(1.00402 -0.00555375 -9.55466e-22)
(0.779041 -0.382751 -2.76616e-20)
(0.881284 -0.24576 2.90326e-20)
(0.933147 -0.160564 -4.77533e-21)
(0.964528 -0.109971 0)
(0.982931 -0.0772848 -7.39177e-21)
(0.993582 -0.054689 -9.92156e-21)
(0.999752 -0.0382667 7.1738e-21)
(1.00332 -0.0257079 1.57626e-21)
(1.00526 -0.0157877 -1.39903e-22)
(1.00621 -0.00576056 3.38801e-21)
(0.837482 -0.431722 -4.49209e-19)
(0.907477 -0.275228 -6.97233e-20)
(0.949635 -0.177413 2.21349e-21)
(0.974814 -0.119587 -3.83224e-21)
(0.989936 -0.0828148 1.28902e-20)
(0.998655 -0.0578813 -3.5427e-21)
(1.00359 -0.0401013 -1.49874e-20)
(1.00635 -0.0267388 9.24914e-21)
(1.00781 -0.0163307 -3.17381e-22)
(1.00846 -0.00594326 3.59892e-21)
(0.904464 -0.474469 1.60193e-20)
(0.937736 -0.302526 3.27685e-20)
(0.96813 -0.193368 5.26603e-21)
(0.98627 -0.128766 1.87331e-22)
(0.997577 -0.088061 2.38943e-21)
(1.00408 -0.0608672 5.87847e-21)
(1.00764 -0.0417798 4.23974e-21)
(1.00949 -0.0276561 -5.74368e-21)
(1.01042 -0.0167998 -1.57882e-21)
(1.01076 -0.00609775 -2.46439e-21)
(0.978455 -0.510196 1.68398e-19)
(0.971587 -0.327132 4.6253e-20)
(0.988379 -0.208252 0)
(0.998789 -0.137432 -4.87398e-21)
(1.00581 -0.0929878 -2.39651e-21)
(1.00983 -0.0636234 2.38536e-21)
(1.01184 -0.043286 8.79934e-21)
(1.01273 -0.0284476 -2.4447e-21)
(1.01308 -0.0171854 9.31218e-23)
(1.01308 -0.00621908 1.20522e-21)
(1.05622 -0.538518 -2.59426e-19)
(1.00748 -0.347825 -1.37743e-19)
(1.00931 -0.221399 2.04246e-20)
(1.01181 -0.145195 2.8091e-21)
(1.01438 -0.0974089 -1.95089e-21)
(1.0158 -0.0660722 6.90624e-21)
(1.01617 -0.0445926 -4.35622e-21)
(1.01603 -0.0291048 7.25271e-22)
(1.01576 -0.0174835 -4.39794e-21)
(1.01541 -0.00630946 -6.10754e-21)
(1.13376 -0.565898 1.81376e-19)
(1.04054 -0.373767 -1.34953e-19)
(1.02697 -0.23894 -1.71318e-20)
(1.02285 -0.155315 -4.24024e-21)
(1.02191 -0.102859 2.02229e-21)
(1.02127 -0.0688697 1.33042e-21)
(1.02032 -0.0459533 -1.55079e-21)
(1.01926 -0.0297134 0)
(1.01842 -0.0177219 3.42283e-21)
(1.01775 -0.0063661 -7.70479e-23)
(1.26675 -0.547454 2.42124e-19)
(1.125 -0.367151 7.75778e-20)
(1.07508 -0.238789 -4.40178e-20)
(1.05054 -0.156521 7.21161e-22)
(1.03842 -0.103796 1.42508e-21)
(1.03159 -0.0693064 3.70515e-21)
(1.02711 -0.0460263 7.69502e-21)
(1.02399 -0.0296063 1.16878e-21)
(1.02202 -0.017575 -2.32618e-21)
(1.02075 -0.00629127 1.6634e-21)
(1.31326 -0.46309 6.33356e-21)
(1.16263 -0.321338 6.83682e-20)
(1.10518 -0.217503 6.19531e-20)
(1.0722 -0.146081 -7.00561e-21)
(1.05334 -0.0981418 2.44302e-20)
(1.04181 -0.0659094 1.41553e-20)
(1.03425 -0.0438456 1.08304e-20)
(1.0292 -0.028202 -7.7941e-22)
(1.02608 -0.0167317 3.5766e-21)
(1.02418 -0.0059797 4.22559e-21)
(1.36023 -0.396162 -8.41577e-20)
(1.20543 -0.284969 -6.52063e-21)
(1.13634 -0.198115 1.28683e-21)
(1.09378 -0.135028 -8.81632e-37)
(1.06794 -0.0914206 3.38208e-21)
(1.05175 -0.0616061 -4.02846e-35)
(1.04116 -0.0410137 -5.32865e-21)
(1.03419 -0.0263659 -3.24346e-34)
(1.02996 -0.0156266 1.35605e-21)
(1.02743 -0.00557706 -4.01731e-21)
(1.39062 -0.328495 -1.5078e-34)
(1.2379 -0.244086 -9.588e-21)
(1.16188 -0.174165 -1.89438e-20)
(1.11245 -0.120734 0)
(1.08101 -0.082526 -1.11891e-20)
(1.06079 -0.0558759 -7.18384e-21)
(1.04751 -0.0372651 -1.89726e-21)
(1.0388 -0.0239624 -4.89958e-34)
(1.03354 -0.0141964 -2.18175e-24)
(1.03043 -0.00506191 3.98019e-21)
(1.40985 -0.266432 -3.8483e-20)
(1.26295 -0.20377 2.04029e-21)
(1.18273 -0.148525 0)
(1.12829 -0.104453 0)
(1.09238 -0.0720072 0)
(1.06878 -0.0489763 0)
(1.05317 -0.0327311 -1.27404e-21)
(1.04292 -0.0210585 -5.51825e-34)
(1.03674 -0.012474 1.31363e-21)
(1.03309 -0.00444528 4.91333e-34)
(1.42167 -0.209064 -1.34413e-21)
(1.28176 -0.163935 0)
(1.19923 -0.121629 0)
(1.14127 -0.0866155 0)
(1.1019 -0.0601682 0)
(1.07558 -0.0410984 0)
(1.05802 -0.0275238 2.37916e-21)
(1.04646 -0.0177201 2.63695e-21)
(1.0395 -0.0104957 1.2924e-21)
(1.0354 -0.00373826 4.25195e-21)
(1.42855 -0.156073 0)
(1.29536 -0.124965 -1.85282e-21)
(1.21177 -0.0940521 -7.58018e-21)
(1.15144 -0.0676722 0)
(1.1095 -0.047315 -5.82653e-21)
(1.08107 -0.0324403 -4.07724e-21)
(1.06196 -0.0217661 -3.68679e-22)
(1.04935 -0.0140237 -1.66455e-21)
(1.04175 -0.00830518 3.08718e-21)
(1.03727 -0.00295585 3.59721e-21)
(1.43196 -0.106449 1.45531e-21)
(1.30424 -0.086459 1.67177e-21)
(1.22036 -0.0657226 -1.32894e-22)
(1.15855 -0.047652 4.93694e-36)
(1.1149 -0.0334804 -1.62236e-21)
(1.08496 -0.0230215 -3.38443e-35)
(1.06474 -0.0154692 2.25033e-21)
(1.05135 -0.0099718 7.10089e-21)
(1.04327 -0.0058984 1.15943e-21)
(1.03851 -0.00209299 -3.80706e-21)
(1.4266 -0.0604442 -4.10362e-21)
(1.30278 -0.0511183 4.14965e-21)
(1.21953 -0.0394908 6.04078e-21)
(1.1575 -0.0288882 0)
(1.11327 -0.0203907 4.02882e-21)
(1.08272 -0.0140538 2.83186e-21)
(1.062 -0.00945274 4.07985e-21)
(1.04828 -0.006094 1.19546e-21)
(1.03999 -0.00359532 -1.30587e-22)
(1.03511 -0.00126926 3.97898e-21)
(1.27203 -0.0104217 0)
(1.16974 -0.0102524 0)
(1.09794 -0.00825251 0)
(1.04312 -0.00611741 0)
(1.00364 -0.00434098 0)
(0.976219 -0.00300142 0)
(0.957569 -0.0020215 2.16059e-21)
(0.945205 -0.00130428 -1.01735e-35)
(0.937752 -0.000757496 1.22443e-21)
(0.933458 -0.000258846 3.73306e-21)
(2.00009 -0.0385117 7.87047e-19)
(1.98647 -0.13444 5.22732e-20)
(1.95655 -0.227663 -9.99933e-20)
(1.91096 -0.31638 -3.14844e-19)
(1.85144 -0.398568 -9.0507e-20)
(1.77829 -0.473395 -1.46517e-19)
(1.69682 -0.536955 -3.98109e-19)
(1.60047 -0.593376 1.11144e-19)
(1.51148 -0.626052 0)
(1.38267 -0.686172 5.69693e-20)
(1.91983 -0.0283224 2.38603e-19)
(1.90944 -0.10058 -2.89464e-19)
(1.88724 -0.17132 -4.31851e-20)
(1.85295 -0.23957 -1.27558e-19)
(1.80926 -0.303053 6.25349e-20)
(1.75357 -0.363625 1.41876e-19)
(1.69461 -0.413598 -7.91871e-20)
(1.61933 -0.465132 4.95314e-20)
(1.55745 -0.488375 -7.00328e-20)
(1.45747 -0.555326 3.10108e-20)
(1.85333 -0.0221246 -1.02132e-19)
(1.84508 -0.0794562 2.28302e-19)
(1.82745 -0.135535 1.5481e-19)
(1.79979 -0.190094 -2.32015e-19)
(1.76509 -0.240724 1.50502e-20)
(1.72027 -0.29066 2.28111e-19)
(1.67337 -0.331015 5.48644e-22)
(1.61361 -0.376019 1.01449e-20)
(1.56316 -0.396131 2.49404e-20)
(1.48947 -0.455325 3.45149e-20)
(1.80145 -0.0178292 -2.5278e-19)
(1.79466 -0.0622333 -3.29656e-20)
(1.78009 -0.105746 -1.86714e-21)
(1.75723 -0.148438 -2.44568e-20)
(1.72856 -0.188081 -1.14374e-19)
(1.69194 -0.227979 -7.84861e-20)
(1.65298 -0.2601 1.26241e-19)
(1.60535 -0.297118 8.34873e-21)
(1.5622 -0.314585 8.20744e-21)
(1.50598 -0.362857 1.04191e-20)
(1.76082 -0.0140686 2.93856e-20)
(1.75508 -0.0481895 1.03706e-19)
(1.74259 -0.0816455 -2.11098e-20)
(1.72317 -0.114618 1.5344e-19)
(1.69857 -0.145332 -2.71009e-20)
(1.66774 -0.17649 -1.5447e-19)
(1.63416 -0.201842 2.30521e-20)
(1.595 -0.231167 -6.70557e-20)
(1.55692 -0.246142 4.84383e-20)
(1.51243 -0.283461 3.0303e-20)
(1.72963 -0.0112663 -1.32342e-19)
(1.72464 -0.0367649 -5.29677e-20)
(1.71362 -0.0618052 -5.3387e-21)
(1.69659 -0.0865705 7.73424e-20)
(1.67477 -0.109795 1.56656e-19)
(1.64793 -0.133426 -4.21357e-20)
(1.61806 -0.153018 3.53548e-21)
(1.58455 -0.175492 -1.02441e-20)
(1.55013 -0.1879 -2.52002e-21)
(1.51326 -0.215834 -2.94923e-20)
(1.70644 -0.00901176 -3.90084e-20)
(1.70203 -0.0271356 -9.05524e-20)
(1.69203 -0.0449534 -1.08074e-19)
(1.67668 -0.0626377 -1.75325e-19)
(1.65677 -0.0793718 4.24554e-20)
(1.6326 -0.0964564 3.26393e-20)
(1.60526 -0.11093 6.95936e-21)
(1.5754 -0.127406 2.54272e-20)
(1.54354 -0.137146 -3.52569e-20)
(1.51144 -0.157341 -1.19496e-20)
(1.68892 -0.00700049 5.05478e-20)
(1.68506 -0.0185169 1.42819e-20)
(1.67597 -0.0298768 1.14936e-20)
(1.66196 -0.04121 -2.26664e-20)
(1.64354 -0.0520514 -1.97142e-20)
(1.62128 -0.0632594 -2.76526e-20)
(1.59577 -0.0729654 -2.01591e-20)
(1.56824 -0.0842029 2.90863e-20)
(1.53807 -0.0911404 -1.07761e-20)
(1.50886 -0.105285 1.01859e-20)
(1.66001 -0.00621068 -6.0997e-20)
(1.65676 -0.0113801 -1.42674e-20)
(1.64906 -0.0164369 9.64078e-20)
(1.63713 -0.0215692 -1.74868e-20)
(1.62126 -0.0265539 -2.14364e-20)
(1.60199 -0.032037 3.52925e-20)
(1.57933 -0.0368062 -2.15719e-20)
(1.55524 -0.0429988 1.21612e-20)
(1.52686 -0.0466642 -5.8104e-21)
(1.50176 -0.0558782 -7.20083e-21)
(1.3921 -0.00259407 4.59677e-20)
(1.38801 -0.00210521 3.80396e-20)
(1.38327 -0.00164324 3.63159e-20)
(1.37782 -0.00132334 5.63974e-20)
(1.37143 -0.0011674 -2.40974e-20)
(1.36434 -0.00131197 -3.43622e-20)
(1.3552 -0.00152451 1.16119e-20)
(1.34687 -0.00239861 1.39302e-21)
(1.33182 -0.0024233 -2.43367e-21)
(1.32554 -0.00640178 2.4184e-21)
(1.34864 0.708588 -4.53978e-20)
(1.34698 0.751327 2.7968e-20)
(1.35152 0.803519 -3.20921e-19)
(1.35812 0.861483 2.39324e-19)
(1.36571 0.923266 6.3492e-19)
(1.37262 0.988762 -1.51336e-19)
(1.37515 1.05571 -7.48487e-19)
(1.35403 1.10872 -6.90276e-20)
(1.21972 1.05544 -5.23256e-19)
(0.663278 0.618539 7.81453e-20)
(1.48185 0.694067 0)
(1.48594 0.734613 4.57908e-19)
(1.49333 0.783668 1.00803e-18)
(1.50424 0.838611 -5.87999e-19)
(1.51752 0.898076 -1.45162e-18)
(1.53145 0.961799 -1.40972e-19)
(1.54164 1.02721 -1.80273e-19)
(1.52552 1.07913 6.71541e-19)
(1.37989 1.02559 1.16835e-18)
(0.752607 0.600415 5.10799e-19)
(1.59643 0.663426 6.28074e-20)
(1.60959 0.70313 0)
(1.62466 0.749269 -6.77102e-20)
(1.64248 0.80029 6.27939e-19)
(1.66277 0.855863 5.32373e-20)
(1.68443 0.915866 -1.66077e-18)
(1.70259 0.977692 1.08423e-18)
(1.69147 1.02685 7.85977e-19)
(1.53431 0.973337 -1.08742e-18)
(0.837779 0.568685 -3.08352e-19)
(1.70041 0.61503 -9.59873e-20)
(1.72186 0.652972 -7.98742e-20)
(1.7449 0.695727 2.02e-19)
(1.77022 0.742519 -2.52925e-19)
(1.79809 0.7936 -1.24314e-18)
(1.82774 0.848899 -9.56592e-19)
(1.85376 0.905846 1.11502e-18)
(1.8472 0.951078 7.93e-19)
(1.67807 0.898193 0)
(0.915316 0.523086 0)
(1.79565 0.551414 -7.4997e-19)
(1.82362 0.586024 -1.23612e-18)
(1.85356 0.624451 -5.01494e-19)
(1.88592 0.666319 -3.64667e-20)
(1.92115 0.712065 0)
(1.95841 0.761549 1.51498e-19)
(1.99157 0.812294 1.79419e-19)
(1.98857 0.8525 2.29403e-19)
(1.80688 0.801054 -3.52557e-19)
(0.982456 0.46458 -9.24478e-20)
(1.8804 0.474039 8.73034e-19)
(1.91343 0.5041 -4.99283e-20)
(1.94907 0.537296 -1.03129e-18)
(1.98766 0.573421 0)
(2.02951 0.612879 0)
(2.07349 0.65542 0)
(2.11269 0.698673 1.44941e-18)
(2.11183 0.733025 -1.89754e-18)
(1.91703 0.68408 -1.68178e-18)
(1.0371 0.395059 1.55762e-19)
(1.95249 0.38462 -1.19053e-18)
(1.9894 0.409329 -2.46937e-18)
(2.02962 0.436492 -4.25058e-21)
(2.07335 0.466044 4.87671e-19)
(2.12072 0.498303 -4.51298e-20)
(2.1702 0.532767 1.17716e-18)
(2.21379 0.567611 -6.98386e-19)
(2.21409 0.595568 -2.42614e-18)
(2.00516 0.550277 1.65688e-19)
(1.07814 0.316722 1.41332e-19)
(2.00973 0.285569 -9.80713e-19)
(2.04957 0.304278 2.10563e-20)
(2.09325 0.324651 3.77083e-19)
(2.14093 0.346833 -3.59149e-19)
(2.1925 0.371039 5.47669e-19)
(2.24591 0.396874 1.66918e-18)
(2.29261 0.421044 -2.51614e-19)
(2.29171 0.444116 -1.45309e-18)
(2.06971 0.404925 4.90392e-19)
(1.10345 0.231338 1.29837e-19)
(2.05013 0.179426 3.59015e-19)
(2.09202 0.191663 1.01838e-19)
(2.13813 0.204639 -4.12574e-19)
(2.18852 0.218814 -8.9381e-19)
(2.24292 0.234401 1.13571e-19)
(2.29887 0.250518 1.25947e-19)
(2.34626 0.2647 -1.70882e-18)
(2.34309 0.280707 8.68609e-19)
(2.10868 0.250796 3.78505e-19)
(1.11274 0.144776 -2.82163e-19)
(2.07228 0.0687697 7.32631e-19)
(2.11536 0.0740799 -1.08959e-18)
(2.16276 0.0792722 2.02906e-19)
(2.2146 0.0849269 2.26764e-18)
(2.27037 0.0910266 1.23033e-18)
(2.32709 0.0984742 -2.83871e-18)
(2.37364 0.101428 -3.29839e-18)
(2.3666 0.110979 2.02823e-18)
(2.12013 0.0933758 -1.2045e-20)
(1.1073 0.0575541 -5.72256e-20)
(0.527957 0.177075 -2.18962e-19)
(0.493505 0.183264 -1.94779e-19)
(0.450716 0.190038 1.19379e-19)
(0.40387 0.197302 -3.96099e-19)
(0.352866 0.205157 -5.77951e-20)
(0.296441 0.213667 3.50704e-19)
(0.233646 0.222497 1.12258e-19)
(0.163344 0.228934 -8.47457e-20)
(0.0892853 0.216923 -1.99253e-20)
(0.0158907 0.129672 3.26454e-20)
(0.55289 0.274088 1.7835e-19)
(0.519407 0.286856 2.60995e-19)
(0.477989 0.300936 3.66949e-20)
(0.43261 0.316014 -1.16158e-19)
(0.383215 0.332303 -3.85003e-19)
(0.328582 0.349952 3.17224e-20)
(0.267719 0.368394 2.70978e-19)
(0.199027 0.382915 -1.62701e-20)
(0.123465 0.365218 -2.44095e-20)
(0.0359231 0.217323 -7.68407e-21)
(0.594587 0.367039 -2.01798e-19)
(0.562822 0.386127 -2.22037e-19)
(0.523763 0.407137 1.8787e-19)
(0.48088 0.429648 1.77925e-19)
(0.434198 0.453968 -6.48866e-20)
(0.382564 0.480324 -1.70824e-19)
(0.324906 0.507914 -8.80745e-20)
(0.258861 0.53008 7.13058e-20)
(0.180583 0.50683 -2.40579e-20)
(0.0691422 0.300869 7.73242e-21)
(0.651994 0.453833 1.18354e-19)
(0.622662 0.478861 7.43332e-21)
(0.586904 0.506254 -1.54539e-19)
(0.5475 0.535638 1.25809e-19)
(0.504593 0.567405 -1.0842e-19)
(0.457122 0.601843 5.46127e-20)
(0.403888 0.637914 -7.47008e-20)
(0.341497 0.66709 -9.41039e-20)
(0.259312 0.638471 -2.03837e-19)
(0.114785 0.378451 5.51215e-20)
(0.723627 0.532505 -4.20054e-20)
(0.697408 0.562956 -1.89771e-20)
(0.665845 0.596016 -4.51289e-20)
(0.630873 0.63156 -1.32524e-19)
(0.592774 0.670027 5.44325e-20)
(0.550587 0.711743 -1.40589e-19)
(0.502946 0.755441 2.18378e-19)
(0.445059 0.790855 5.8576e-20)
(0.358046 0.757053 2.77433e-19)
(0.171984 0.448175 2.23838e-19)
(0.807502 0.60132 2.39964e-20)
(0.785018 0.636501 -3.29242e-20)
(0.758455 0.674269 2.1553e-19)
(0.728776 0.715035 9.29345e-20)
(0.696434 0.759257 1.53767e-19)
(0.660585 0.807257 3.98974e-20)
(0.619635 0.857522 3.13986e-19)
(0.56703 0.898214 1.73744e-19)
(0.474347 0.859506 1.87773e-19)
(0.239235 0.508084 1.99727e-19)
(0.901494 0.658112 -9.91879e-20)
(0.883555 0.697277 2.14485e-19)
(0.862995 0.73877 1.01515e-19)
(0.839601 0.78377 -6.08222e-20)
(0.813961 0.83271 -3.88174e-20)
(0.785366 0.885895 3.98796e-19)
(0.75198 0.941595 -1.01518e-19)
(0.705199 0.986605 -2.4989e-19)
(0.605912 0.943412 -6.25232e-20)
(0.315018 0.556731 2.29131e-19)
(1.0011 0.702168 1.44303e-19)
(0.987858 0.743986 5.74249e-20)
(0.973957 0.78783 -5.06945e-19)
(0.957846 0.835973 6.84131e-21)
(0.940143 0.88858 2.39708e-19)
(0.920126 0.945765 -2.30114e-19)
(0.895535 1.00553 -3.2489e-20)
(0.855379 1.05358 -1.18412e-19)
(0.748916 1.00622 1.48121e-20)
(0.397073 0.592563 -2.85499e-19)
(1.10869 0.728509 2.69544e-20)
(1.1024 0.772631 -3.42168e-19)
(1.09625 0.817643 -2.28941e-21)
(1.08757 0.86768 2.38308e-19)
(1.07759 0.922831 -2.1662e-19)
(1.06596 0.983045 4.73316e-19)
(1.05008 1.04603 3.7328e-19)
(1.01631 1.09657 -6.87872e-19)
(0.901401 1.04621 -5.58424e-20)
(0.483874 0.61497 -3.26214e-19)
(1.19821 0.735 -1.63014e-19)
(1.2035 0.782193 -1.67876e-19)
(1.21069 0.828858 2.22539e-19)
(1.21417 0.880666 3.80452e-19)
(1.21557 0.937625 1.81026e-19)
(1.21486 0.999613 -3.87628e-19)
(1.20927 1.06423 -1.54457e-20)
(1.18265 1.11585 1.46592e-19)
(1.0589 1.06305 -2.72783e-19)
(0.573068 0.623654 -2.43e-19)
(0.683906 0.0238584 2.30368e-20)
(1.21265 0.0336544 -2.50856e-20)
(0.908101 0.0385464 2.86468e-21)
(1.00957 0.0422803 0)
(0.981257 0.0498352 2.45808e-20)
(0.964642 0.0600043 2.88095e-20)
(0.94008 0.0734459 3.5874e-20)
(0.893338 0.0907057 7.0989e-20)
(0.828405 0.114537 -9.92607e-20)
(0.659436 0.144682 -1.11353e-19)
(0.683664 0.021904 4.29529e-20)
(1.21307 0.0342116 -8.75957e-20)
(0.90892 0.0413446 -2.57426e-21)
(1.0114 0.0441685 -1.32641e-20)
(0.983864 0.0535902 1.16158e-20)
(0.968269 0.0660649 -1.49873e-20)
(0.944828 0.0838076 -8.9049e-20)
(0.900288 0.108227 0)
(0.836763 0.149364 2.11315e-19)
(0.678384 0.204627 -2.64435e-19)
(0.683238 0.0199987 -7.23043e-20)
(1.21364 0.0346409 2.51467e-20)
(0.909642 0.0439101 2.62795e-20)
(1.01355 0.0458796 1.77011e-20)
(0.986834 0.0571782 -2.74628e-20)
(0.972566 0.0719754 -4.46054e-22)
(0.950665 0.0939922 -6.23409e-20)
(0.909815 0.125605 -4.98129e-21)
(0.848674 0.183389 2.3278e-22)
(0.709237 0.262848 6.59386e-19)
(0.682619 0.0182441 -5.00981e-21)
(1.21425 0.0349376 4.64766e-21)
(0.910276 0.0461756 2.66795e-20)
(1.01605 0.047399 1.56446e-20)
(0.990169 0.0605671 -1.40128e-20)
(0.977531 0.0776804 -1.71358e-20)
(0.957637 0.103894 9.24994e-20)
(0.921784 0.14268 -1.52199e-21)
(0.864306 0.216081 -2.54643e-19)
(0.751477 0.318369 6.9955e-20)
(0.681791 0.0167099 7.12862e-21)
(1.2149 0.0350834 -5.29544e-20)
(0.910839 0.0480703 -2.13764e-20)
(1.01891 0.0487204 6.32503e-21)
(0.993875 0.0637261 0)
(0.983156 0.0831274 0)
(0.965785 0.113418 7.83327e-20)
(0.936007 0.159279 3.47094e-22)
(0.883931 0.246813 -1.23715e-19)
(0.804374 0.370425 9.70235e-20)
(0.680731 0.0154778 -3.09489e-21)
(1.21546 0.0350484 4.40104e-20)
(0.911358 0.0495218 -3.2349e-20)
(1.02215 0.0498487 -3.50382e-20)
(0.997941 0.0666254 -8.85438e-22)
(0.98943 0.088269 6.78456e-20)
(0.975139 0.12249 1.2188e-19)
(0.95226 0.175249 -7.11477e-22)
(0.907941 0.275394 2.12003e-19)
(0.866891 0.418383 -2.09856e-19)
(0.679414 0.0146475 -3.27216e-20)
(1.21584 0.0347894 2.37205e-20)
(0.911869 0.0504511 3.87857e-21)
(1.02579 0.0508047 -5.64854e-20)
(1.00235 0.0692358 2.3791e-21)
(0.996341 0.0930657 -1.11271e-21)
(0.985709 0.131048 -7.32936e-21)
(0.970438 0.190461 -2.09478e-19)
(0.936605 0.301305 1.6401e-19)
(0.937516 0.461039 -4.84862e-19)
(0.677797 0.0143221 1.53585e-20)
(1.21594 0.0342417 -6.42873e-20)
(0.912422 0.0507807 6.9422e-21)
(1.02986 0.05163 4.55743e-20)
(1.00707 0.0715342 1.09508e-21)
(1.00389 0.0975142 -7.82095e-20)
(0.99751 0.139141 -6.67885e-20)
(0.99041 0.205193 3.80679e-19)
(0.970402 0.324952 1.23946e-20)
(1.01488 0.501693 7.69792e-19)
(0.675834 0.0146358 -2.28497e-21)
(1.21568 0.0332708 2.5631e-20)
(0.913092 0.0504298 -2.20369e-20)
(1.03435 0.0523931 -4.73891e-20)
(1.01204 0.0734359 -8.8256e-20)
(1.01201 0.101352 1.78066e-21)
(1.01045 0.145909 -9.22183e-20)
(1.01207 0.216745 4.99952e-19)
(1.01038 0.339722 -7.68876e-21)
(1.09442 0.52881 -1.05474e-18)
(0.673504 0.0160407 9.82084e-21)
(1.21547 0.0319045 3.21136e-20)
(0.913919 0.0494093 2.0946e-20)
(1.03904 0.0532908 -1.04232e-19)
(1.01664 0.0754734 -8.12223e-20)
(1.01905 0.106119 -6.45431e-20)
(1.02063 0.155394 -1.63624e-19)
(1.02738 0.234635 -4.66027e-19)
(1.04092 0.36739 -2.78112e-19)
(1.16534 0.57659 -1.15265e-18)
(0.675103 0.0167842 -2.73503e-20)
(1.21691 0.0298459 -6.27229e-21)
(0.916109 0.0468531 -1.61059e-20)
(1.04508 0.0530525 -9.3904e-22)
(1.02541 0.075077 5.55024e-20)
(1.03363 0.106399 -4.45979e-20)
(1.04474 0.155739 1.47693e-19)
(1.06765 0.232896 -4.68239e-19)
(1.11019 0.352942 -1.97118e-19)
(1.23862 0.55013 6.63288e-19)
(0.675763 0.015234 2.49406e-20)
(1.22054 0.0274202 1.48613e-20)
(0.920186 0.0425911 1.32838e-20)
(1.05037 0.0505076 4.16617e-20)
(1.03503 0.0713445 8.53323e-20)
(1.04814 0.101199 1.31092e-19)
(1.067 0.14705 3.19249e-20)
(1.10185 0.216352 2.59204e-19)
(1.15703 0.317835 3.32097e-19)
(1.29943 0.471417 -1.84936e-20)
(0.676142 0.0131336 -2.72589e-20)
(1.22412 0.0245215 -3.58344e-21)
(0.92441 0.0381991 -2.10274e-20)
(1.05573 0.046924 2.02475e-20)
(1.04428 0.0663125 2.33763e-34)
(1.06185 0.094006 -9.31505e-21)
(1.08741 0.13548 -5.96649e-34)
(1.13195 0.19624 2.12134e-20)
(1.19545 0.279281 -5.92063e-20)
(1.34774 0.40157 -5.07724e-20)
(0.676524 0.0101974 4.23987e-20)
(1.2275 0.0210543 -4.03611e-35)
(0.92849 0.0334032 2.07344e-20)
(1.06086 0.0423521 -1.78346e-20)
(1.05277 0.0599382 -3.38389e-20)
(1.0742 0.0848887 -4.38281e-20)
(1.10531 0.121354 -7.51942e-34)
(1.15708 0.173414 -1.13955e-19)
(1.22618 0.239861 -1.55467e-19)
(1.3802 0.335318 9.46136e-20)
(0.676954 0.0064234 0)
(1.23078 0.0170513 -1.5089e-36)
(0.932347 0.0282749 0)
(1.06563 0.0369209 0)
(1.0603 0.0523977 0)
(1.08499 0.074127 0)
(1.12059 0.105156 -4.57531e-34)
(1.17746 0.148488 0)
(1.25041 0.200297 -2.32201e-20)
(1.40015 0.273028 5.74206e-20)
(0.677495 0.00196564 2.90862e-20)
(1.23411 0.0125724 -5.28333e-21)
(0.935939 0.0229146 1.99219e-20)
(1.06986 0.030791 0)
(1.06678 0.0438949 0)
(1.09408 0.0620515 8.02098e-21)
(1.1332 0.0874274 3.24843e-20)
(1.19352 0.122186 -1.60285e-20)
(1.26902 0.161392 -3.46642e-20)
(1.41171 0.214973 2.12821e-19)
(0.678164 -0.00375508 -4.20505e-20)
(1.23758 0.00755789 6.43368e-21)
(0.939235 0.0173907 1.94425e-20)
(1.07345 0.0241236 -5.66547e-21)
(1.07207 0.0346316 -1.17101e-20)
(1.10139 0.0489646 -9.2956e-21)
(1.14314 0.0685956 -2.44674e-20)
(1.20571 0.0950494 -4.70342e-20)
(1.28276 0.123471 -6.50722e-20)
(1.41797 0.161045 9.79431e-20)
(0.679056 -0.008672 -3.99023e-20)
(1.24142 0.00241973 -1.42532e-20)
(0.942124 0.0122647 1.84756e-20)
(1.07616 0.0170088 -1.47866e-20)
(1.07599 0.024683 8.72647e-35)
(1.10674 0.0349615 8.7022e-21)
(1.15038 0.0487494 -1.11125e-33)
(1.21433 0.0670883 -1.63817e-20)
(1.29218 0.0860421 2.19378e-20)
(1.42117 0.109816 2.88626e-20)
(0.678958 -0.0202807 1.6687e-19)
(1.24088 -0.00331407 -7.05024e-21)
(0.940584 0.00658562 1.86029e-20)
(1.07393 0.0104225 2.99079e-21)
(1.07463 0.0151013 4.24195e-21)
(1.10632 0.0215595 1.58188e-20)
(1.15114 0.0299415 9.31468e-21)
(1.21594 0.0410085 -5.07148e-21)
(1.29395 0.0519201 -2.29481e-20)
(1.4193 0.064809 1.47655e-19)
(0.64256 -0.0159146 3.28721e-20)
(1.13571 -0.00676714 -6.18872e-35)
(0.843924 0.00279993 1.81466e-20)
(0.972766 0.00184914 0)
(0.970998 0.00335009 0)
(1.0007 0.00481048 8.96327e-21)
(1.04245 0.00664437 -1.05462e-35)
(1.10203 0.00916343 -1.63882e-20)
(1.17405 0.011398 -3.2371e-20)
(1.28339 0.013717 6.40028e-20)
(1.40472 0.622559 -1.96854e-19)
(1.49727 0.617262 -2.86235e-19)
(1.58873 0.587444 0)
(1.67463 0.53969 8.71435e-20)
(1.75557 0.480458 4.36866e-19)
(1.82896 0.410912 -1.54805e-19)
(1.89191 0.331845 1.33303e-18)
(1.94205 0.245218 -4.6134e-20)
(1.97764 0.153173 -3.64966e-19)
(1.99717 0.0581454 3.11867e-19)
(1.44679 0.512413 7.93058e-20)
(1.52362 0.495562 1.18056e-19)
(1.60223 0.460364 -1.29724e-21)
(1.67256 0.416988 1.50048e-19)
(1.73605 0.368051 -1.41318e-19)
(1.79225 0.312881 -3.77237e-19)
(1.8397 0.25168 -6.61587e-20)
(1.87708 0.185588 5.40135e-19)
(1.90329 0.116023 -1.81791e-20)
(1.91765 0.044233 -4.47156e-19)