# Selection   : all
# Cells       : 440
# Volume      : 7.374263e+01
# Time        	max(p)
5.315         	2.289230e+00
5.36          	2.302716e+00
5.41          	2.316817e+00
