# Selection   : all
# Cells       : 440
# Volume      : 7.374263e+01
# Time        	max(p)
4.41          	1.974410e+00
4.455         	1.995856e+00
4.505         	2.017713e+00
