/*--------------------------------*- C++ -*----------------------------------*\
  =========                 |
  \\      /  F ield         | OpenFOAM: The Open Source CFD Toolbox
   \\    /   O peration     | Website:  https://openfoam.org
    \\  /    A nd           | Version:  13
     \\/     M anipulation  |
\*---------------------------------------------------------------------------*/
FoamFile
{
    format      ascii;
    class       volVectorField;
    location    "0.585";
    object      U;
}
// * * * * * * * * * * * * * * * * * * * * * * * * * * * * * * * * * * * * * //

dimensions      [0 1 -1 0 0 0 0];

internalField   nonuniform List<vector> 
440
(
(0.181141 -0.148654 -2.71321e-19)
(0.964702 -0.643951 3.80068e-19)
(1.40989 -0.870272 9.5801e-19)
(1.58437 -0.909541 -1.6236e-18)
(1.56085 -0.866703 6.46936e-20)
(0.357234 -0.197151 1.06097e-19)
(1.31724 -0.603377 -7.94593e-19)
(1.7728 -0.751971 -7.86077e-19)
(1.90912 -0.760086 2.44456e-19)
(1.90662 -0.736108 1.25989e-19)
(0.592315 -0.205163 3.18423e-20)
(1.66441 -0.485153 3.10222e-18)
(2.07234 -0.560976 -2.45968e-18)
(2.14963 -0.561985 -5.77587e-18)
(2.09373 -0.52531 1.89976e-18)
(0.84905 -0.143151 -3.57285e-19)
(1.95163 -0.280472 -1.69762e-18)
(2.28319 -0.29787 4.45498e-18)
(2.30467 -0.295866 4.03484e-18)
(2.23649 -0.280938 -1.10434e-18)
(1.08212 -0.0102149 -7.61256e-19)
(2.14348 -0.0253967 -1.33954e-18)
(2.38344 -0.0133185 3.34939e-18)
(2.36036 -0.0344191 3.19478e-18)
(2.27963 -0.035702 9.87483e-19)
(-0.0159418 -0.00159283 2.96245e-20)
(0.00602017 -0.149625 -2.83433e-19)
(0.10493 -0.254396 4.45718e-19)
(0.206735 -0.296405 -7.70075e-20)
(0.313839 -0.314433 -5.31531e-19)
(-0.0187526 0.0160327 1.16103e-19)
(0.0734398 -0.26757 3.63022e-19)
(0.226396 -0.465788 9.36305e-20)
(0.347301 -0.54339 5.28262e-20)
(0.46904 -0.577364 -4.9799e-20)
(-0.015312 0.00948228 -6.14586e-19)
(0.20158 -0.39329 -6.21329e-19)
(0.437189 -0.657865 -2.69215e-19)
(0.589419 -0.757653 1.15452e-18)
(0.723817 -0.791092 -1.99113e-20)
(0.00954134 -0.0272218 -2.19665e-19)
(0.397614 -0.51694 3.70797e-19)
(0.724193 -0.80953 -5.91782e-19)
(0.908439 -0.91151 -1.31891e-18)
(1.02893 -0.925475 2.18941e-19)
(0.070465 -0.0859234 1.33087e-19)
(0.654363 -0.61096 -5.69848e-20)
(1.0535 -0.889659 -5.76377e-19)
(1.24745 -0.968401 7.74102e-19)
(1.31077 -0.950279 1.79006e-18)
(0.654684 -0.20621 -7.56037e-20)
(0.882486 -0.115249 6.15138e-20)
(0.960469 -0.0690728 4.79639e-23)
(0.991412 -0.0400116 -5.92074e-21)
(1.00568 -0.0146281 -2.97572e-21)
(0.683007 -0.326945 2.20251e-19)
(0.904359 -0.157206 -2.60046e-21)
(0.972493 -0.0853576 -9.86178e-21)
(0.999146 -0.0463081 -9.32392e-22)
(1.01044 -0.0165008 6.42821e-21)
(0.742328 -0.424734 1.9442e-19)
(0.933542 -0.196957 1.05051e-19)
(0.987989 -0.10045 6.15913e-21)
(1.00831 -0.0518561 8.3749e-21)
(1.01572 -0.0180721 -3.2005e-21)
(0.849558 -0.497929 -3.62714e-19)
(0.966512 -0.234113 1.36507e-21)
(1.00564 -0.113697 -1.76726e-20)
(1.01838 -0.0562654 -7.73675e-21)
(1.02134 -0.0192016 1.06636e-21)
(1.01995 -0.545318 -5.14004e-20)
(1.01131 -0.269958 -9.43287e-20)
(1.02513 -0.1285 0)
(1.02866 -0.0608868 1.24355e-20)
(1.02702 -0.020165 2.51422e-21)
(1.34159 -0.522709 2.31931e-20)
(1.14141 -0.266156 3.57538e-20)
(1.07754 -0.126937 9.9059e-22)
(1.05037 -0.0597014 3.75146e-21)
(1.03609 -0.0196815 -8.13798e-21)
(1.4006 -0.339392 5.01849e-20)
(1.171 -0.180882 -7.98515e-20)
(1.09772 -0.0945662 1.97713e-22)
(1.06402 -0.0478114 -1.68909e-20)
(1.04377 -0.0162116 0)
(1.45505 -0.241621 2.79809e-22)
(1.21484 -0.13353 3.92553e-21)
(1.1211 -0.0702956 -1.9028e-20)
(1.07679 -0.0356945 6.64629e-21)
(1.05021 -0.0120989 -3.17427e-21)
(1.47358 -0.128736 -6.51814e-20)
(1.22955 -0.0755384 6.10374e-21)
(1.12825 -0.0416726 -1.13121e-21)
(1.07968 -0.0220294 1.65702e-35)
(1.05014 -0.0075747 -3.73379e-21)
(1.26742 -0.0194102 -7.80311e-21)
(1.08214 -0.0128568 -5.78057e-21)
(1.00131 -0.00804721 2.69075e-21)
(0.959679 -0.00448696 -1.29448e-21)
(0.933305 -0.00153866 5.99821e-22)
(2.08723 -0.0420232 -1.16863e-18)
(2.091 -0.203923 -1.30879e-18)
(1.95647 -0.437983 1.2781e-18)
(1.9009 -0.524018 -1.87635e-19)
(1.64108 -0.753423 -6.45298e-20)
(1.94583 -0.0254325 1.39341e-21)
(1.9706 -0.0876279 -3.05693e-20)
(1.88572 -0.256792 -5.53199e-20)
(1.84628 -0.272372 -1.47057e-19)
(1.71496 -0.461955 7.12197e-21)
(1.86027 -0.0272556 4.04355e-20)
(1.86896 -0.0587696 1.06442e-19)
(1.8203 -0.171376 -1.54365e-19)
(1.7733 -0.172106 3.64064e-20)
(1.69249 -0.294346 9.6436e-20)
(1.79261 -0.0282003 7.99059e-20)
(1.79605 -0.0416806 3.64204e-20)
(1.77292 -0.0970411 -6.8317e-21)
(1.72949 -0.0935911 7.74433e-20)
(1.68153 -0.153287 -1.1708e-20)
(1.49061 -0.0186965 1.10503e-19)
(1.46934 -0.0153556 -8.84654e-21)
(1.45088 -0.0226256 1.49759e-20)
(1.40936 -0.0140365 9.39791e-21)
(1.39744 -0.0253287 4.49887e-20)
(1.42816 0.736274 9.30858e-19)
(1.40919 0.840159 -2.74342e-19)
(1.42295 0.968404 -1.14303e-18)
(1.3769 1.02979 6.55809e-19)
(0.863235 0.775694 -1.76494e-19)
(1.72529 0.652641 -5.09727e-19)
(1.72285 0.748168 -2.66065e-18)
(1.73892 0.864345 -1.06348e-18)
(1.68726 0.912054 -4.09287e-19)
(1.06341 0.694938 -6.79056e-19)
(1.97182 0.548305 7.11332e-19)
(1.99651 0.62921 1.93941e-19)
(2.02413 0.729284 -2.18219e-18)
(1.95798 0.744477 -6.89568e-19)
(1.22305 0.56174 5.73412e-19)
(2.14769 0.400113 2.38018e-18)
(2.20124 0.45595 1.81991e-18)
(2.24387 0.532641 -2.17828e-18)
(2.1427 0.523388 -1.90146e-18)
(1.28777 0.37999 -4.06571e-19)
(2.25052 0.202187 1.30288e-18)
(2.32323 0.229925 -9.68229e-19)
(2.36628 0.276579 7.63157e-19)
(2.20668 0.257053 7.45348e-19)
(1.23744 0.176939 -8.18909e-19)
(0.524697 0.289252 -5.96982e-19)
(0.451894 0.310771 -5.4909e-19)
(0.346941 0.336514 8.77456e-20)
(0.219113 0.354557 -4.54359e-20)
(0.0558739 0.269898 5.42154e-20)
(0.615721 0.484758 8.86509e-20)
(0.548871 0.530709 -2.85e-19)
(0.455985 0.588196 1.53267e-19)
(0.336069 0.633683 -6.94645e-20)
(0.140814 0.486705 9.91861e-20)
(0.74432 0.660016 2.8171e-19)
(0.685633 0.72653 3.11931e-19)
(0.616526 0.806247 -2.45828e-20)
(0.518405 0.859227 -2.06701e-19)
(0.276132 0.653189 1.58419e-19)
(0.959465 0.74997 1.30287e-19)
(0.91804 0.832398 -3.33272e-19)
(0.871121 0.928694 -1.31757e-18)
(0.788729 0.999537 5.84779e-19)
(0.464595 0.765565 -1.87844e-19)
(1.0926 0.809104 -1.23928e-19)
(1.10381 0.917192 -1.94899e-19)
(1.1144 1.02842 -2.55873e-19)
(1.06507 1.08203 -3.10608e-19)
(0.660897 0.811943 -5.41452e-21)
(0.761533 0.0253015 -9.2183e-20)
(1.1789 0.0510524 -3.57808e-20)
(0.900675 0.0758727 -4.53198e-21)
(0.942207 0.107775 -3.08641e-19)
(0.77237 0.185163 2.68975e-19)
(0.760549 0.0209633 7.67253e-20)
(1.17995 0.0556461 1.2141e-19)
(0.909344 0.0874443 1.10179e-19)
(0.95435 0.143585 5.97448e-20)
(0.843024 0.2666 1.09276e-20)
(0.758932 0.0174376 9.51563e-20)
(1.1799 0.0589767 -4.20243e-21)
(0.920523 0.0984773 5.05603e-21)
(0.970597 0.172452 1.40357e-19)
(0.958905 0.359127 -4.40621e-19)
(0.756471 0.0150905 -5.72582e-21)
(1.17914 0.0606623 -1.51276e-19)
(0.932322 0.108157 -5.38449e-20)
(1.00255 0.189814 -3.94721e-19)
(1.08915 0.411312 8.33312e-20)
(0.752774 0.0157386 -2.81866e-20)
(1.17945 0.0617069 3.91382e-20)
(0.943026 0.116585 2.55616e-20)
(1.0342 0.210806 4.07817e-19)
(1.22052 0.527354 -4.36599e-19)
(0.747045 0.0148774 -4.89066e-21)
(1.19643 0.0574422 6.88383e-20)
(0.962015 0.113553 -8.60384e-20)
(1.12327 0.192261 7.32181e-19)
(1.2499 0.52579 -3.52394e-19)
(0.746696 0.00679522 -5.68853e-21)
(1.2092 0.0465898 -6.31832e-20)
(0.988175 0.0930991 2.20733e-21)
(1.16094 0.161902 -2.16576e-19)
(1.3477 0.373059 2.68497e-20)
(0.74674 0.00110476 -4.01364e-21)
(1.22076 0.0323855 7.88741e-36)
(1.00948 0.0696572 -4.69367e-20)
(1.18987 0.115187 7.1717e-20)
(1.40169 0.264915 1.4021e-19)
(0.745872 -0.015176 1.13221e-20)
(1.22596 0.0148921 -1.09173e-20)
(1.02136 0.0430619 1.04914e-20)
(1.20659 0.070899 3.98621e-20)
(1.42691 0.155125 -2.21877e-19)
(0.711873 -0.0152651 -3.94333e-20)
(1.11323 -0.00349771 -1.32905e-21)
(0.913167 0.0113041 1.83265e-20)
(1.09757 0.0147242 -9.87678e-21)
(1.28944 0.0369393 -5.12616e-20)
(1.5645 0.515408 2.87025e-19)
(1.71895 0.468733 6.62585e-19)
(1.88181 0.399151 -9.91969e-19)
(2.00214 0.290545 6.62156e-20)
(2.08246 0.151755 3.8632e-19)
(1.58502 0.333036 6.71189e-20)
(1.67358 0.312147 8.78423e-19)
(1.77787 0.261568 8.9996e-20)
(1.86275 0.178098 -8.08996e-19)
(1.93675 0.094265 -2.56274e-19)
(1.60225 0.195317 -1.97393e-19)
(1.66606 0.173413 -1.27678e-19)
(1.73161 0.142075 1.59051e-19)
(1.79353 0.0940024 -2.5212e-19)
(1.84897 0.0487956 2.1228e-19)
(1.59185 0.10786 2.92075e-19)
(1.64358 0.0912798 -5.30331e-21)
(1.68731 0.072672 1.80215e-19)
(1.73294 0.0427821 1.52674e-19)
(1.77601 0.0146716 -1.39369e-19)
(1.43781 0.0184974 -3.501e-20)
(1.46906 0.00929306 1.8738e-19)
(1.48182 0.0011679 8.1387e-20)
(1.49296 -0.00744044 -1.70175e-19)
(1.49816 -0.0128904 7.66963e-22)
(1.63606 -0.0471133 7.65801e-20)
(2.75755 0.049721 -7.79425e-19)
(2.89912 0.0423359 1.97629e-18)
(2.81081 0.105829 9.46417e-19)
(2.55512 0.107275 -5.83106e-19)
(1.20413 0.113077 2.50107e-19)
(2.60023 0.231087 -9.89129e-19)
(2.93102 0.230116 -1.22354e-18)
(2.92026 0.236601 1.64832e-18)
(2.67312 0.211556 -1.09115e-18)
(0.545993 0.138098 -8.21748e-20)
(2.0643 0.366019 1.31781e-18)
(2.67907 0.410134 2.4859e-19)
(2.81847 0.4198 2.21574e-18)
(2.84598 0.348688 1.41751e-18)
(0.0561095 0.0264754 4.55157e-19)
(1.30671 0.41716 6.76898e-19)
(2.09408 0.578446 -2.60858e-18)
(2.38865 0.597382 2.32982e-19)
(2.55594 0.594412 1.29925e-18)
(-0.135907 -0.095048 7.27315e-19)
(0.675413 0.387482 -7.99552e-19)
(1.38151 0.684883 -5.23721e-19)
(1.77999 0.762855 1.12646e-18)
(1.85093 0.747333 2.97025e-19)
(-0.150508 -0.14342 3.98047e-19)
(0.30635 0.326761 5.19776e-19)
(0.811859 0.667476 1.15305e-18)
(1.14819 0.804491 -1.50473e-18)
(1.33655 0.821854 1.02056e-19)
(-0.108758 -0.137293 -3.07012e-19)
(0.127468 0.245495 -3.16387e-19)
(0.450729 0.540407 -1.39535e-19)
(0.686068 0.676732 -3.34489e-19)
(0.890718 0.728649 -1.19257e-19)
(-0.0655651 -0.108059 -2.15325e-19)
(0.0390767 0.155941 5.2303e-19)
(0.232573 0.366228 -8.52615e-19)
(0.387835 0.461958 -1.68523e-18)
(0.551527 0.514996 5.32599e-19)
(-0.0354818 -0.0705843 -6.29858e-20)
(-0.00521668 0.0614295 -2.37386e-19)
(0.111079 0.171608 5.79179e-19)
(0.224118 0.219207 9.52786e-19)
(0.348188 0.252745 -8.36586e-20)
(-0.0197991 -0.0333213 2.75555e-20)
(-0.0170578 -0.0400952 -7.73204e-20)
(0.0687741 -0.0378539 2.66638e-20)
(0.166882 -0.0367305 -1.17914e-20)
(0.272439 -0.0297296 -1.90543e-19)
(0.917182 0.338284 1.59039e-19)
(0.911102 0.0871988 7.34186e-20)
(0.945775 0.00904369 -4.42826e-21)
(0.972513 -0.00737886 7.01434e-22)
(0.990959 -0.00414341 8.99244e-22)
(0.741324 0.257118 1.46246e-19)
(0.894391 0.0345984 -2.2785e-19)
(0.947891 -0.0114296 -3.74966e-20)
(0.975797 -0.0146296 1.76752e-21)
(0.993114 -0.0062942 -3.20241e-21)
(0.671145 0.173565 1.49692e-19)
(0.883028 0.00924086 -1.16577e-19)
(0.946428 -0.0197147 -6.75578e-21)
(0.977448 -0.0197397 7.8276e-21)
(0.995237 -0.00823195 3.89979e-21)
(0.647088 0.0598452 -2.7383e-20)
(0.871451 -0.0326704 2.64458e-19)
(0.947376 -0.0364289 4.48184e-21)
(0.980568 -0.0265485 -1.20629e-21)
(0.998039 -0.0104087 1.07065e-21)
(0.644411 -0.0724755 4.14444e-21)
(0.87126 -0.0730207 -3.44042e-20)
(0.952119 -0.0524985 1.31789e-22)
(0.985213 -0.0333036 5.5429e-21)
(1.00152 -0.0125586 2.13971e-21)
(0.750264 -0.0656595 -1.73895e-19)
(0.78247 -0.0338569 0)
(0.804026 -0.00917549 -4.99575e-21)
(0.821827 -0.00256991 7.33182e-21)
(0.835288 -0.00065213 -3.39195e-21)
(1.37951 0.202813 0)
(1.05059 0.0360159 0)
(0.977803 0.00253297 3.84628e-20)
(0.973359 -0.00507901 1.09699e-20)
(0.984409 -0.00258099 -4.25218e-23)
(0.821887 0.0131872 -1.12037e-19)
(0.849343 0.0128568 9.13736e-20)
(0.860248 0.0280768 1.12485e-19)
(1.01702 0.0271728 7.34766e-19)
(1.01244 0.0525537 2.17203e-19)
(1.88138 0.0813189 1.06173e-19)
(2.01033 0.132144 3.01863e-19)
(2.17238 0.220431 -5.65686e-19)
(2.43914 0.308621 3.43129e-19)
(2.10909 0.527543 1.37179e-19)
(0.935573 -0.543986 1.20696e-19)
(0.943557 -0.654685 -2.26271e-19)
(0.959587 -0.776615 -2.67207e-19)
(0.915304 -0.859343 1.58316e-19)
(0.568133 -0.678149 1.39932e-19)
(0.863649 -0.443687 7.41439e-20)
(0.820511 -0.520205 6.06365e-20)
(0.759672 -0.611498 -1.28513e-19)
(0.659132 -0.699712 1.38805e-19)
(0.369733 -0.564742 2.11375e-20)
(0.660712 -0.327089 -6.3659e-20)
(0.593559 -0.382002 -4.96337e-20)
(0.509676 -0.450381 -2.50929e-20)
(0.398692 -0.504993 -5.68401e-20)
(0.187784 -0.393487 -1.20454e-19)
(0.552034 -0.131835 -3.40159e-19)
(0.482302 -0.163303 -2.92611e-19)
(0.382598 -0.205369 2.48839e-19)
(0.25846 -0.243783 1.28773e-19)
(0.0845814 -0.193368 1.10292e-20)
(0.503214 0.0735733 -1.30428e-19)
(0.429539 0.0689974 -1.479e-19)
(0.322058 0.0616369 -4.07168e-20)
(0.192637 0.0536569 5.65848e-20)
(0.0367009 0.0383285 1.53987e-20)
(2.4937 0.0185524 1.05838e-18)
(2.67663 -0.0519214 4.23128e-19)
(2.73959 -0.161966 -1.0558e-18)
(2.67361 -0.185374 -2.51326e-18)
(1.74049 -0.255704 1.63956e-19)
(2.32694 -0.0922789 1.75782e-18)
(2.41766 -0.22056 2.25167e-18)
(2.46058 -0.36529 1.89585e-19)
(2.43464 -0.441737 3.3141e-19)
(1.64716 -0.475252 -2.33289e-19)
(2.0394 -0.272721 -4.32006e-18)
(2.0692 -0.391818 4.56175e-19)
(2.0926 -0.537511 1.38162e-18)
(2.06962 -0.649732 -5.90653e-19)
(1.40093 -0.628181 9.67123e-19)
(1.73089 -0.40275 1.03339e-18)
(1.71821 -0.511898 -2.78215e-18)
(1.71003 -0.649346 -3.27078e-18)
(1.66945 -0.771989 1.06728e-18)
(1.10073 -0.692301 6.75056e-19)
(1.37538 -0.476942 2.67079e-19)
(1.31036 -0.583027 2.75219e-19)
(1.30243 -0.726981 -5.18445e-19)
(1.26102 -0.843869 -6.26286e-19)
(0.805155 -0.699542 -6.22355e-21)
(0.756308 0.0344064 -4.42108e-22)
(1.1567 0.0253734 -6.7994e-21)
(0.889911 0.00807977 -3.01519e-20)
(0.917925 -0.0282696 -1.21398e-19)
(1.10495 -0.230564 -1.704e-20)
(0.759253 0.0376892 -2.94993e-21)
(1.16127 0.0301771 4.28655e-20)
(0.894753 0.0240025 -7.57665e-20)
(0.914841 -0.0139566 7.49904e-20)
(0.985159 -0.113622 1.89753e-21)
(0.761014 0.0363317 -3.70457e-20)
(1.16701 0.0349352 5.51328e-22)
(0.894482 0.0371471 -1.83575e-20)
(0.91003 0.0014728 2.73754e-21)
(0.883119 -0.0689178 -2.13983e-19)
(0.761852 0.0336007 7.41123e-20)
(1.17222 0.0401579 3.18306e-21)
(0.893992 0.0508695 3.47015e-20)
(0.920466 0.0330858 5.36868e-20)
(0.786692 0.023384 7.90537e-20)
(0.761977 0.029667 1.48317e-20)
(1.1763 0.0456723 -2.93939e-20)
(0.895568 0.0638223 4.01581e-20)
(0.931288 0.0696649 7.01015e-20)
(0.752597 0.0990593 -6.75572e-20)
(0.701603 0.0221467 0)
(1.00647 0.0116623 5.76878e-21)
(0.747987 -4.35726e-05 -4.90151e-21)
(0.855136 -0.00727364 5.28627e-20)
(1.00303 -0.0367836 -1.63801e-19)
(0.751909 0.0392311 -3.69201e-20)
(1.1597 0.0223672 -2.00901e-20)
(0.885099 0.00219748 4.02475e-21)
(0.9861 -0.0268959 -1.33124e-19)
(1.09284 -0.216677 -1.63679e-19)
(1.37329 -0.0583242 -3.43745e-20)
(1.45791 -0.0306849 6.10608e-19)
(1.57345 0.0489763 3.90222e-19)
(1.38008 0.0860872 -3.40682e-22)
(1.00977 0.0482743 0)
(1.53517 -0.295754 3.81072e-19)
(1.69326 -0.261623 1.78412e-18)
(1.9291 -0.144772 -2.05529e-18)
(2.06751 0.0151981 -6.95046e-19)
(2.00557 0.0762695 4.84872e-19)
)
;

boundaryField
{
    left
    {
        type            fixedValue;
        value           uniform (1 0 0);
    }
    right
    {
        type            zeroGradient;
    }
    down
    {
        type            noSlip;
    }
    up
    {
        type            noSlip;
    }
    cylinder
    {
        type            noSlip;
    }
    defaultFaces
    {
        type            empty;
    }
}


// ************************************************************************* //
