# Selection   : all
# Cells       : 440
# Volume      : 7.374263e+01
# Time        	min(p)
6.415         	-1.364510e+00
6.46          	-1.339018e+00
6.51          	-1.307065e+00
