/*--------------------------------*- C++ -*----------------------------------*\
  =========                 |
  \\      /  F ield         | OpenFOAM: The Open Source CFD Toolbox
   \\    /   O peration     | Website:  https://openfoam.org
    \\  /    A nd           | Version:  13
     \\/     M anipulation  |
\*---------------------------------------------------------------------------*/
FoamFile
{
    format      ascii;
    class       volVectorField;
    location    "0.1025";
    object      U;
}
// * * * * * * * * * * * * * * * * * * * * * * * * * * * * * * * * * * * * * //

dimensions      [0 1 -1 0 0 0 0];

internalField   nonuniform List<vector> 
1800
(
(0.536677 -0.477387 1.13433e-19)
(1.14983 -0.987069 4.9206e-20)
(1.35188 -1.09737 -7.74312e-19)
(1.39331 -1.07034 5.6068e-19)
(1.39489 -1.00998 1.1215e-18)
(1.38856 -0.947239 4.47393e-19)
(1.38097 -0.888926 -2.25161e-19)
(1.37329 -0.835819 -5.95758e-19)
(1.36641 -0.785632 -3.05435e-19)
(1.34418 -0.739925 -2.44108e-19)
(0.618875 -0.469214 -2.52427e-20)
(1.30771 -0.962947 -1.14396e-18)
(1.52393 -1.06572 7.48855e-21)
(1.55938 -1.03789 -4.08171e-19)
(1.55131 -0.978307 8.30644e-20)
(1.53554 -0.916526 1.05824e-18)
(1.51939 -0.858872 -7.71348e-19)
(1.50418 -0.805724 3.85555e-19)
(1.49001 -0.75549 6.39809e-19)
(1.46783 -0.714706 -3.23336e-19)
(0.701256 -0.449869 8.66579e-20)
(1.46247 -0.916145 3.25584e-19)
(1.69091 -1.00891 6.25941e-19)
(1.72003 -0.981206 -3.32079e-19)
(1.70254 -0.924045 -1.34805e-18)
(1.67772 -0.865027 2.90139e-19)
(1.65341 -0.810026 5.02453e-19)
(1.63088 -0.759413 -4.4889e-20)
(1.61011 -0.712069 -4.23696e-21)
(1.58332 -0.672844 -1.99494e-20)
(0.782142 -0.419288 -9.53163e-20)
(1.61045 -0.847215 -3.53422e-19)
(1.84863 -0.92789 -4.06313e-19)
(1.87111 -0.901346 4.45106e-20)
(1.8446 -0.848137 3.67632e-19)
(1.81127 -0.793408 2.51515e-20)
(1.7793 -0.742464 -2.0595e-20)
(1.74989 -0.695565 4.65134e-19)
(1.7228 -0.651812 3.91019e-19)
(1.69211 -0.6163 -1.40356e-19)
(0.859697 -0.377617 1.72722e-19)
(1.74794 -0.757241 4.12923e-19)
(1.99297 -0.824266 -5.5965e-20)
(2.00868 -0.800068 -5.94906e-20)
(1.97377 -0.752303 -1.08229e-18)
(1.93267 -0.70335 8.6327e-21)
(1.89375 -0.657853 8.1893e-19)
(1.85811 -0.615977 2.57866e-19)
(1.82538 -0.577113 8.53249e-21)
(1.79124 -0.545791 -1.80974e-19)
(0.931953 -0.325257 -5.44252e-20)
(1.87126 -0.647873 1.06306e-18)
(2.12004 -0.700272 1.42918e-18)
(2.12907 -0.67969 -8.82256e-19)
(2.0866 -0.638713 -7.85924e-19)
(2.03866 -0.596873 1.28423e-18)
(1.99367 -0.558043 -8.90795e-19)
(1.9526 -0.52231 -1.01822e-18)
(1.91499 -0.489299 7.0693e-19)
(1.87783 -0.462939 -1.13053e-20)
(0.996862 -0.262934 4.73797e-19)
(1.97692 -0.521337 -1.60831e-18)
(2.22631 -0.558749 -3.91021e-18)
(2.22904 -0.543065 1.40087e-18)
(2.18007 -0.509992 1.99272e-18)
(2.12641 -0.476423 -5.50695e-21)
(2.07641 -0.445306 -2.45044e-18)
(2.03086 -0.416671 1.76998e-20)
(1.98929 -0.390335 2.19118e-18)
(1.94963 -0.36956 5.68627e-19)
(1.05241 -0.191757 -2.30818e-19)
(2.06179 -0.380434 8.80494e-19)
(2.3088 -0.403106 3.01146e-18)
(2.30591 -0.393541 -1.51567e-20)
(2.25165 -0.369189 -1.28486e-18)
(2.19358 -0.34487 -3.95148e-19)
(2.13975 -0.322314 0)
(2.0908 -0.301546 8.61521e-19)
(2.04626 -0.282536 -1.65876e-20)
(2.00475 -0.267896 -7.13492e-19)
(1.09675 -0.113165 -2.68176e-20)
(2.12313 -0.228435 2.23138e-18)
(2.36526 -0.23726 2.54191e-18)
(2.35764 -0.234827 -2.02425e-18)
(2.29939 -0.219658 -1.35796e-18)
(2.23833 -0.20538 3.90484e-19)
(2.18198 -0.192011 -1.60169e-18)
(2.13081 -0.17967 -1.15284e-18)
(2.08435 -0.168444 1.29969e-18)
(2.04166 -0.160319 1.09752e-18)
(1.12829 -0.0288184 3.53225e-19)
(2.15892 -0.0691947 1.4108e-18)
(2.39446 -0.0656567 4.6008e-19)
(2.38266 -0.0706934 -2.86505e-18)
(2.32195 -0.0648896 -2.19261e-21)
(2.25944 -0.0613298 3.70942e-18)
(2.20194 -0.0575523 -1.98371e-18)
(2.14975 -0.0539793 -1.03711e-18)
(2.1024 -0.0507886 3.73929e-19)
(2.05929 -0.0493419 -8.16568e-19)
(0.00992204 -0.0896997 1.36145e-19)
(0.0707672 -0.189519 1.71118e-19)
(0.142083 -0.216971 -2.19703e-21)
(0.212535 -0.216754 -4.37399e-21)
(0.277586 -0.209418 -1.26114e-21)
(0.336334 -0.201055 -2.15976e-20)
(0.389333 -0.193068 7.68137e-21)
(0.437224 -0.185679 -2.07363e-20)
(0.480654 -0.178838 1.0433e-21)
(0.518762 -0.173452 -2.60746e-21)
(0.0246858 -0.151568 1.03904e-19)
(0.102018 -0.324219 1.57778e-19)
(0.177662 -0.36984 -1.32487e-19)
(0.2475 -0.366372 -4.17378e-20)
(0.310811 -0.350374 -4.91472e-20)
(0.367725 -0.332764 -5.02272e-20)
(0.419017 -0.316037 1.55429e-20)
(0.465368 -0.300582 -1.5948e-20)
(0.507355 -0.286288 4.96154e-21)
(0.544563 -0.275685 -6.80891e-21)
(0.0493188 -0.21127 3.06488e-20)
(0.154567 -0.453453 3.69127e-19)
(0.23761 -0.516134 8.85505e-20)
(0.30648 -0.509427 2.61674e-19)
(0.366892 -0.485101 3.78146e-20)
(0.42073 -0.458644 -1.92538e-19)
(0.469145 -0.433578 -2.3012e-20)
(0.51288 -0.410436 5.89576e-20)
(0.552402 -0.389088 -2.38284e-20)
(0.588114 -0.373507 -1.04685e-21)
(0.0835343 -0.267678 -9.9481e-20)
(0.227496 -0.574469 -8.86602e-20)
(0.320735 -0.652577 2.51136e-20)
(0.388216 -0.642658 -1.02098e-19)
(0.444574 -0.610495 4.42923e-20)
(0.494125 -0.575772 1.37219e-19)
(0.538528 -0.542942 3.60165e-20)
(0.578608 -0.51266 -6.00352e-21)
(0.6147 -0.484829 1.56534e-20)
(0.648318 -0.464593 -1.75837e-21)
(0.126928 -0.319675 0)
(0.319506 -0.684574 7.57143e-20)
(0.42536 -0.775983 5.26212e-19)
(0.490956 -0.762909 -2.81425e-19)
(0.542129 -0.723566 -4.65602e-19)
(0.586234 -0.681341 1.45982e-19)
(0.625549 -0.641498 -1.86425e-20)
(0.660991 -0.604786 -7.47592e-20)
(0.692759 -0.571212 0)
(0.723663 -0.546716 -6.29952e-21)
(0.178961 -0.366141 -3.55743e-20)
(0.428898 -0.781175 3.89357e-19)
(0.549303 -0.883332 1.7346e-19)
(0.61245 -0.867208 1.8079e-19)
(0.657361 -0.821506 -1.44978e-19)
(0.694944 -0.77272 -2.22256e-19)
(0.728176 -0.726777 3.7421e-19)
(0.75807 -0.6845 4.09764e-20)
(0.784698 -0.646066 -2.10141e-19)
(0.812216 -0.617745 -5.06146e-21)
(0.238921 -0.40595 4.6699e-20)
(0.553552 -0.861846 5.18974e-19)
(0.689889 -0.971863 1.74801e-20)
(0.749974 -0.952857 1.53017e-20)
(0.78764 -0.901771 2.55957e-19)
(0.817744 -0.847515 -3.11522e-19)
(0.844015 -0.796522 -3.02411e-19)
(0.867555 -0.749654 -2.49819e-19)
(0.88832 -0.707333 1.78954e-19)
(0.911692 -0.675587 1.90821e-19)
(0.305893 -0.437981 -1.10793e-19)
(0.690949 -0.924407 -2.31033e-19)
(0.844014 -1.03919 1.32966e-19)
(0.900401 -1.01755 -1.32764e-19)
(0.929977 -0.96218 2.7063e-19)
(0.951812 -0.903665 6.27147e-19)
(0.970414 -0.848759 4.22467e-19)
(0.986949 -0.798341 -3.17576e-19)
(1.00128 -0.753097 -1.4867e-19)
(1.01962 -0.718115 2.1261e-19)
(0.378749 -0.461167 -3.56025e-19)
(0.838236 -0.967026 -1.25927e-18)
(1.00824 -1.08341 1.12829e-18)
(1.06031 -1.05949 8.31974e-19)
(1.08113 -1.00109 -6.42476e-19)
(1.09412 -0.939669 6.79365e-19)
(1.10461 -0.882131 9.47392e-20)
(1.11376 -0.829365 -7.73511e-19)
(1.12145 -0.782115 -1.8457e-19)
(1.13335 -0.743525 2.42028e-19)
(0.456159 -0.474555 -7.59264e-20)
(0.992279 -0.988263 -1.06004e-18)
(1.17881 -1.10314 -4.79129e-19)
(1.22589 -1.07742 7.29792e-19)
(1.23736 -1.01738 5.64441e-19)
(1.24102 -0.954585 -6.10885e-19)
(1.24297 -0.895964 -4.93692e-19)
(1.24441 -0.842447 2.88852e-19)
(1.24563 -0.793888 -2.88139e-19)
(1.24705 -0.750747 -1.85228e-19)
(0.644934 -0.141038 -2.25575e-20)
(0.817095 -0.109351 4.22475e-20)
(0.891063 -0.0856839 1.79295e-20)
(0.935477 -0.0671702 -4.8101e-21)
(0.961216 -0.0520392 2.7459e-21)
(0.97644 -0.0394553 6.21192e-21)
(0.985692 -0.0289132 4.1055e-21)
(0.991346 -0.0199651 -3.52524e-21)
(0.994634 -0.0122472 1.26851e-21)
(0.996569 -0.00435079 3.44189e-21)
(0.662175 -0.203857 4.83167e-20)
(0.826247 -0.143269 -2.66315e-20)
(0.897988 -0.103842 3.41433e-21)
(0.940747 -0.0772384 1.06724e-20)
(0.965435 -0.0578576 2.42323e-20)
(0.979892 -0.0429124 0)
(0.988555 -0.0309946 4.34265e-21)
(0.99377 -0.0212011 2.75853e-21)
(0.99676 -0.0129287 5.8147e-22)
(0.99848 -0.00457823 -2.84543e-21)
(0.690542 -0.264874 -2.33475e-20)
(0.839609 -0.176467 3.45883e-22)
(0.907286 -0.121806 -4.66829e-21)
(0.947233 -0.0872406 -8.31773e-21)
(0.970311 -0.0636188 -4.26024e-21)
(0.983726 -0.0463084 6.56817e-21)
(0.991653 -0.0330167 0)
(0.996348 -0.022387 0)
(0.998998 -0.0135748 2.02981e-21)
(1.00048 -0.00479263 0)
(0.729676 -0.323017 -2.32834e-20)
(0.857207 -0.208428 -9.06772e-21)
(0.918872 -0.139367 7.9591e-21)
(0.954924 -0.097081 0)
(0.975841 -0.0692704 -1.73752e-20)
(0.987934 -0.0496118 5.27659e-21)
(0.994977 -0.0349593 0)
(0.999071 -0.0235104 -7.90817e-21)
(1.00134 -0.0141783 0)
(1.00256 -0.00499153 -9.48631e-22)
(0.779064 -0.377285 -1.91672e-20)
(0.879102 -0.238714 1.7347e-20)
(0.932639 -0.156333 -4.93256e-21)
(0.963801 -0.10667 0)
(0.982019 -0.0747629 -8.96126e-21)
(0.992509 -0.0527916 -1.21023e-20)
(0.998516 -0.0368026 7.12541e-21)
(1.00192 -0.0245583 1.60174e-21)
(1.00376 -0.0147314 9.67122e-23)
(1.0047 -0.00517213 3.41701e-21)
(0.83795 -0.426641 -4.92081e-19)
(0.905388 -0.267098 -4.91605e-20)
(0.948483 -0.172558 2.35442e-21)
(0.973834 -0.115927 -9.78393e-21)
(0.988833 -0.0800513 1.57814e-20)
(0.997439 -0.0558186 -4.82785e-21)
(1.00226 -0.0385265 -1.77176e-20)
(1.0049 -0.0255174 1.17689e-20)
(1.00626 -0.0152262 -3.24896e-22)
(1.00689 -0.00533136 3.67266e-21)
(0.90518 -0.469807 -4.0029e-21)
(0.936086 -0.293673 2.71271e-20)
(0.966354 -0.187998 5.79934e-21)
(0.984994 -0.124801 3.77918e-22)
(0.996268 -0.0851 6.92634e-21)
(1.00271 -0.0586669 5.73808e-21)
(1.00619 -0.0401121 5.44676e-21)
(1.00797 -0.0263744 -5.81139e-21)
(1.00881 -0.0156545 -1.92964e-21)
(1.00913 -0.00546582 -2.49182e-21)
(0.978821 -0.505566 1.87316e-19)
(0.970584 -0.31788 4.05201e-20)
(0.986143 -0.202455 0)
(0.997221 -0.13321 -5.57625e-21)
(1.0043 -0.0898686 -6.37571e-21)
(1.00831 -0.0613129 2.51989e-21)
(1.01029 -0.0415435 1.30975e-20)
(1.01113 -0.027118 -3.58997e-21)
(1.01141 -0.0160089 1.12261e-22)
(1.01138 -0.00557254 1.26048e-21)
(1.05516 -0.533645 -2.68952e-19)
(1.00656 -0.339139 -1.22221e-19)
(1.00664 -0.21573 1.30933e-20)
(1.00998 -0.140972 3.35665e-21)
(1.01269 -0.0942336 -1.78083e-21)
(1.01413 -0.0636874 1.12978e-20)
(1.01451 -0.0427851 -5.94128e-21)
(1.01435 -0.0277304 7.37129e-22)
(1.01403 -0.0162809 -4.48191e-21)
(1.01365 -0.00565258 -6.28597e-21)
(1.13171 -0.555568 1.76355e-19)
(1.03956 -0.361194 -1.14848e-19)
(1.02425 -0.230513 -8.72559e-21)
(1.02104 -0.149394 6.78571e-21)
(1.02024 -0.0986963 8.98996e-21)
(1.01958 -0.0659191 4.77877e-21)
(1.0186 -0.0438297 -3.7549e-22)
(1.01753 -0.0281739 0)
(1.01663 -0.0164408 4.13251e-21)
(1.01591 -0.00568466 -2.6587e-22)
(1.26334 -0.537437 2.42171e-19)
(1.11866 -0.35525 5.82882e-20)
(1.06824 -0.230171 -2.12289e-20)
(1.04635 -0.1503 -1.32494e-21)
(1.03546 -0.0993813 -8.9686e-22)
(1.02918 -0.0661772 6.03931e-21)
(1.02499 -0.0437935 9.30253e-21)
(1.02203 -0.0280103 2.11029e-22)
(1.02009 -0.016273 -2.02767e-21)
(1.01878 -0.00560479 1.80613e-21)
(1.31337 -0.460841 2.3803e-21)
(1.16025 -0.316684 6.87198e-20)
(1.10025 -0.212808 5.29754e-20)
(1.06863 -0.14204 -5.30512e-21)
(1.05042 -0.094885 1.6371e-20)
(1.03926 -0.0633961 8.23696e-21)
(1.03197 -0.0419459 6.8973e-21)
(1.0271 -0.0267879 -3.47037e-22)
(1.02404 -0.0155367 2.32822e-21)
(1.02209 -0.00533916 4.23717e-21)
(1.35909 -0.39367 -8.54988e-20)
(1.20264 -0.280552 -7.2435e-21)
(1.13086 -0.193579 7.30378e-22)
(1.08974 -0.131334 -1.10854e-36)
(1.06469 -0.0884723 3.7912e-21)
(1.04894 -0.059308 -2.52925e-35)
(1.03868 -0.0392565 -5.64557e-21)
(1.03195 -0.0250468 -3.3669e-34)
(1.02781 -0.014509 1.42159e-21)
(1.02522 -0.00497868 -4.13557e-21)
(1.38863 -0.327109 -1.50252e-34)
(1.23553 -0.24192 -1.41434e-20)
(1.1565 -0.17109 -1.9067e-20)
(1.10824 -0.117914 0)
(1.07755 -0.0801226 -8.65968e-21)
(1.0578 -0.0539226 -5.01621e-21)
(1.04487 -0.0357312 -9.66805e-23)
(1.03644 -0.0227902 -5.22981e-34)
(1.03129 -0.0131922 6.43539e-22)
(1.0281 -0.00452282 4.11357e-21)
(1.40727 -0.265155 -3.92486e-20)
(1.26079 -0.202766 2.44104e-21)
(1.17754 -0.146499 0)
(1.12401 -0.102381 0)
(1.08879 -0.0701362 0)
(1.06565 -0.047394 0)
(1.0504 -0.0314521 -1.37489e-21)
(1.04046 -0.0200631 -5.89476e-34)
(1.0344 -0.0116092 1.39713e-21)
(1.03068 -0.00397795 5.0939e-34)
(1.41858 -0.208012 -1.40692e-21)
(1.27967 -0.163807 0)
(1.19429 -0.120531 0)
(1.13702 -0.0852438 0)
(1.09826 -0.0588199 0)
(1.07236 -0.0398996 0)
(1.05516 -0.0265213 2.58587e-21)
(1.04393 -0.0169236 1.84806e-21)
(1.03709 -0.00979097 1.38314e-21)
(1.0329 -0.00335366 4.34316e-21)
(1.42507 -0.15535 0)
(1.29327 -0.125428 -4.11264e-21)
(1.2071 -0.0936959 -8.70349e-21)
(1.14727 -0.066918 0)
(1.10587 -0.0464565 -5.25539e-21)
(1.07782 -0.031619 -3.40374e-21)
(1.05905 -0.0210493 4.2314e-22)
(1.04677 -0.0134376 -1.25658e-21)
(1.0393 -0.00777332 2.72299e-21)
(1.03471 -0.00266156 3.80397e-21)
(1.4284 -0.106278 1.51143e-21)
(1.30245 -0.0877138 2.3324e-21)
(1.21624 -0.0663305 -2.18765e-22)
(1.15476 -0.0477384 5.24874e-36)
(1.11151 -0.0332984 -1.84114e-21)
(1.08189 -0.0227235 -2.99747e-35)
(1.06197 -0.0151459 2.47121e-21)
(1.0489 -0.00967179 7.71491e-21)
(1.04095 -0.00559175 1.25294e-21)
(1.03606 -0.00191151 -3.98487e-21)
(1.42625 -0.0614131 -4.17097e-21)
(1.30483 -0.0526098 4.52448e-21)
(1.21929 -0.0403172 6.09075e-21)
(1.15714 -0.0292296 0)
(1.11292 -0.0204751 3.59144e-21)
(1.08243 -0.0140051 2.39938e-21)
(1.06183 -0.00934503 3.95396e-21)
(1.04831 -0.00596956 9.51843e-22)
(1.04007 -0.00345083 2.56313e-22)
(1.03502 -0.00117919 4.13323e-21)
(1.30409 -0.0112935 0)
(1.19815 -0.0108651 0)
(1.12096 -0.00855109 0)
(1.06396 -0.00624921 0)
(1.0231 -0.00439561 0)
(0.994791 -0.00301516 0)
(0.975625 -0.00201516 2.3913e-21)
(0.963025 -0.00128891 -1.1236e-35)
(0.955351 -0.00073793 1.3314e-21)
(0.950653 -0.000246969 3.9224e-21)
(1.98505 -0.0439998 7.64345e-19)
(1.97043 -0.139351 5.06491e-20)
(1.9395 -0.231782 -9.59095e-20)
(1.89308 -0.319437 -3.06171e-19)
(1.83257 -0.400612 -8.68208e-20)
(1.75946 -0.473599 -1.41167e-19)
(1.67643 -0.536906 -3.84023e-19)
(1.58221 -0.591246 1.06223e-19)
(1.49217 -0.623357 0)
(1.36561 -0.685528 5.10343e-20)
(1.90405 -0.0327381 2.37756e-19)
(1.89282 -0.10488 -2.79095e-19)
(1.86962 -0.175421 -4.60197e-20)
(1.835 -0.243027 -1.23246e-19)
(1.79001 -0.306482 6.3442e-20)
(1.73514 -0.364716 1.37045e-19)
(1.67411 -0.415915 -8.01003e-20)
(1.60135 -0.464261 4.43587e-20)
(1.53922 -0.486887 -6.26918e-20)
(1.44171 -0.552418 2.75909e-20)
(1.83823 -0.025252 -1.00605e-19)
(1.82942 -0.0821163 2.28885e-19)
(1.81103 -0.137727 1.50347e-19)
(1.7835 -0.191291 -2.29946e-19)
(1.74781 -0.241988 7.22651e-21)
(1.70417 -0.289242 2.32335e-19)
(1.65599 -0.331259 6.19802e-21)
(1.59823 -0.372843 3.89666e-21)
(1.54758 -0.392872 1.9119e-20)
(1.47566 -0.450307 2.85542e-20)
(1.7866 -0.0198558 -2.58526e-19)
(1.77936 -0.0639904 -4.11168e-20)
(1.76418 -0.107324 8.80784e-21)
(1.74148 -0.149306 -2.02185e-20)
(1.71207 -0.189331 -1.26311e-19)
(1.6763 -0.227069 -7.49861e-20)
(1.63661 -0.260984 1.28093e-19)
(1.59022 -0.295129 6.14097e-21)
(1.54726 -0.312864 1.05228e-20)
(1.49307 -0.359251 1.02985e-20)
(1.7462 -0.015388 2.66334e-20)
(1.74006 -0.0492979 1.09199e-19)
(1.72713 -0.0826538 -1.6749e-20)
(1.70779 -0.115089 1.44992e-19)
(1.68275 -0.14618 -3.08689e-20)
(1.6525 -0.17572 -1.54499e-19)
(1.61867 -0.202538 2.29736e-20)
(1.58039 -0.229612 -6.38246e-20)
(1.54285 -0.244925 3.94179e-20)
(1.50039 -0.280851 2.38615e-20)
(1.71518 -0.0118315 -1.35193e-19)
(1.70982 -0.0372147 -5.22512e-20)
(1.69844 -0.0622359 -9.55812e-21)
(1.68143 -0.0866628 7.66115e-20)
(1.65939 -0.110211 1.66915e-19)
(1.63295 -0.132741 -4.19351e-20)
(1.60313 -0.153424 3.53331e-21)
(1.57037 -0.174281 -1.73334e-20)
(1.53667 -0.187025 -1.57546e-20)
(1.50187 -0.213984 -2.62733e-20)
(1.69218 -0.00889447 -3.84209e-20)
(1.68737 -0.02698 -9.13787e-20)
(1.67707 -0.0448473 -1.13574e-19)
(1.66166 -0.0623712 -1.81739e-19)
(1.64166 -0.0793818 4.84181e-20)
(1.61776 -0.0957917 3.60363e-20)
(1.59063 -0.111055 2.86559e-21)
(1.56148 -0.126479 2.99914e-20)
(1.53043 -0.13655 -3.5392e-20)
(1.5005 -0.156119 -1.45907e-20)
(1.676 -0.00642901 5.20561e-20)
(1.67163 -0.0180075 1.18123e-20)
(1.66212 -0.0294746 1.12779e-20)
(1.64782 -0.0407975 -2.25292e-20)
(1.62918 -0.0519008 -1.97279e-20)
(1.60695 -0.0627465 -3.34465e-20)
(1.58151 -0.0730135 -2.18834e-20)
(1.55455 -0.083524 3.74107e-20)
(1.52512 -0.0908159 -1.35888e-20)
(1.49806 -0.104395 5.91364e-21)
(1.65674 -0.00452874 -6.44167e-20)
(1.65323 -0.0100278 -1.63907e-20)
(1.64506 -0.0155144 1.01668e-19)
(1.63246 -0.0210353 -2.01595e-20)
(1.61577 -0.0266133 -2.26989e-20)
(1.59561 -0.0322817 3.73913e-20)
(1.57214 -0.0378514 -2.41856e-20)
(1.54722 -0.0439528 1.5893e-20)
(1.51894 -0.0481731 -1.15058e-20)
(1.49414 -0.0573428 -2.12337e-20)
(1.42134 -0.00159388 4.82366e-20)
(1.41838 -0.0013467 4.0377e-20)
(1.41448 -0.00116799 3.88728e-20)
(1.40957 -0.00112252 6.08967e-20)
(1.40344 -0.00127562 -2.56678e-20)
(1.39608 -0.001658 -3.89346e-20)
(1.38673 -0.00228412 1.33339e-20)
(1.37717 -0.00329929 1.92151e-21)
(1.36217 -0.00365725 -3.15287e-21)
(1.35596 -0.00788535 3.09949e-21)
(1.34444 0.712324 -4.80517e-20)
(1.34427 0.757133 2.71641e-20)
(1.35067 0.807605 -3.44194e-19)
(1.35766 0.863739 2.34937e-19)
(1.36522 0.924172 6.49622e-19)
(1.37304 0.98921 -1.49294e-19)
(1.37859 1.05837 -7.55791e-19)
(1.36364 1.11746 -6.04345e-20)
(1.23611 1.07197 -5.63636e-19)
(0.679548 0.635229 3.65209e-20)
(1.4718 0.692796 0)
(1.47907 0.735046 4.78605e-19)
(1.48888 0.783697 1.04241e-18)
(1.5008 0.837978 -6.03441e-19)
(1.51472 0.896832 -1.47299e-18)
(1.53007 0.960636 -1.40525e-19)
(1.54397 1.02876 -1.80161e-19)
(1.53535 1.08702 6.77329e-19)
(1.39799 1.04116 1.2855e-18)
(0.770406 0.615979 5.46935e-19)
(1.58516 0.661608 6.43089e-20)
(1.60031 0.701936 0)
(1.61715 0.747708 -6.84339e-20)
(1.63633 0.79825 6.30813e-19)
(1.65787 0.853349 5.33614e-20)
(1.68148 0.913574 -1.66789e-18)
(1.7041 0.97829 1.09807e-18)
(1.70177 1.03369 8.01504e-19)
(1.55421 0.987449 -1.18276e-18)
(0.85704 0.582847 -3.08489e-19)
(1.68804 0.612176 -9.09419e-20)
(1.71029 0.650232 -7.73778e-20)
(1.73463 0.69269 2.00257e-19)
(1.76149 0.739148 -2.51462e-19)
(1.79101 0.789859 -1.24014e-18)
(1.82316 0.845467 -9.56214e-19)
(1.85457 0.905428 1.12373e-18)
(1.85826 0.956724 8.17405e-19)
(1.70014 0.910618 0)
(0.936336 0.53586 0)
(1.78259 0.546155 -7.42838e-19)
(1.81077 0.58107 -1.2112e-18)
(1.8416 0.619485 -4.95297e-19)
(1.87533 0.661209 -3.67777e-20)
(1.91225 0.706717 0)
(1.9524 0.756654 1.52227e-19)
(1.99197 0.810614 1.80085e-19)
(2.0009 0.856804 2.30838e-19)
(1.83173 0.811722 -3.55684e-19)
(1.00574 0.47605 -9.26095e-20)
(1.86735 0.466756 8.55691e-19)
(1.90026 0.497417 -5.07946e-20)
(1.93639 0.53078 -1.01639e-18)
(1.97595 0.566815 0)
(2.01928 0.606079 0)
(2.06644 0.649166 0)
(2.11314 0.695842 1.46279e-18)
(2.12616 0.736076 -1.94254e-18)
(1.94547 0.693055 -1.7707e-18)
(1.06325 0.405151 1.86319e-19)
(1.93944 0.376507 -1.16788e-18)
(1.97609 0.40189 -2.42642e-18)
(2.01649 0.429198 -4.18099e-21)
(2.06081 0.45857 4.7981e-19)
(2.10944 0.490546 -4.54853e-20)
(2.16243 0.525603 1.17319e-18)
(2.21499 0.563768 -7.07269e-19)
(2.23089 0.597468 -2.49289e-18)
(2.03828 0.557696 1.63867e-19)
(1.1072 0.325221 1.41973e-19)
(1.99631 0.277567 -9.63289e-19)
(2.03583 0.296853 2.14643e-20)
(2.07951 0.317266 3.72596e-19)
(2.12753 0.339165 -3.54435e-19)
(2.18029 0.362989 5.39824e-19)
(2.23776 0.389001 1.6638e-18)
(2.29481 0.417231 -2.5478e-19)
(2.31226 0.444294 -1.49522e-18)
(2.10758 0.409514 5.11566e-19)
(1.13574 0.238681 1.38572e-19)
(2.03596 0.172109 3.50124e-19)
(2.07754 0.184697 1.03033e-19)
(2.12355 0.19757 -4.09318e-19)
(2.17418 0.211364 -8.81816e-19)
(2.22989 0.226529 1.15349e-19)
(2.29056 0.242696 1.28311e-19)
(2.35 0.259569 -1.73773e-18)
(2.36789 0.279746 8.91086e-19)
(2.1514 0.253077 3.99715e-19)
(1.14844 0.14922 -3.02619e-19)
(2.05722 0.0623526 7.18256e-19)
(2.09999 0.0677667 -1.07135e-18)
(2.14723 0.0726828 2.03387e-19)
(2.19927 0.0778909 2.24573e-18)
(2.25659 0.0837435 1.22448e-18)
(2.31895 0.0910939 -2.82696e-18)
(2.37969 0.0955388 -3.35353e-18)
(2.39564 0.107529 2.11154e-18)
(2.16845 0.0926268 -1.47693e-20)
(1.14576 0.059438 -7.06473e-20)
(0.531252 0.174237 -2.2346e-19)
(0.499708 0.180224 -2.03515e-19)
(0.458304 0.186771 1.31991e-19)
(0.410697 0.193877 -4.47722e-19)
(0.358815 0.201585 -6.68595e-20)
(0.301826 0.210003 3.86882e-19)
(0.238482 0.219034 1.26307e-19)
(0.167982 0.22632 -9.85833e-20)
(0.0933562 0.215914 -2.708e-20)
(0.017035 0.130425 4.01834e-20)
(0.555846 0.272459 1.81302e-19)
(0.525192 0.28495 2.74939e-19)
(0.485122 0.298702 3.61039e-20)
(0.439026 0.313646 -1.32645e-19)
(0.388792 0.32982 -4.26444e-19)
(0.333639 0.347452 3.90289e-20)
(0.272306 0.3664 3.03909e-19)
(0.203515 0.382456 -2.30532e-20)
(0.127488 0.367219 -1.16158e-20)
(0.0373319 0.22111 -1.69945e-21)
(0.597235 0.366567 -2.0625e-19)
(0.568168 0.385293 -2.36116e-19)
(0.530411 0.405866 2.03943e-19)
(0.486892 0.42824 2.00301e-19)
(0.439445 0.452458 -6.39046e-20)
(0.387372 0.478858 -1.92238e-19)
(0.329395 0.507251 -8.72192e-20)
(0.263414 0.531649 8.79502e-20)
(0.184794 0.511715 -1.94708e-20)
(0.0711505 0.3075 9.01357e-21)
(0.654275 0.454379 1.2191e-19)
(0.627474 0.478963 1.35655e-20)
(0.592973 0.505807 -1.63809e-19)
(0.553065 0.53503 1.53368e-19)
(0.509508 0.566692 -1.14249e-19)
(0.461724 0.601222 6.11991e-20)
(0.408407 0.638375 -5.69491e-20)
(0.346308 0.670487 -1.06606e-19)
(0.263938 0.646101 -1.96773e-19)
(0.117708 0.387748 5.63505e-20)
(0.725427 0.533797 -4.34803e-20)
(0.701548 0.563764 -2.1042e-20)
(0.671204 0.596175 -4.39367e-20)
(0.635893 0.631501 -1.15518e-19)
(0.597277 0.669836 4.69571e-20)
(0.554927 0.711676 -1.54708e-19)
(0.507486 0.756712 2.28872e-19)
(0.450258 0.795732 7.05022e-20)
(0.363392 0.767112 2.7452e-19)
(0.176158 0.45987 2.25449e-19)
(0.808826 0.602799 2.57058e-20)
(0.788478 0.637575 -2.61675e-20)
(0.763113 0.674703 2.22859e-19)
(0.733318 0.715238 9.07403e-20)
(0.700635 0.759332 1.36764e-19)
(0.664793 0.807511 2.65803e-20)
(0.624357 0.859395 2.97425e-19)
(0.572916 0.90437 1.70264e-19)
(0.480979 0.871731 1.80979e-19)
(0.245105 0.521855 1.94234e-19)
(0.90232 0.659678 -9.59718e-20)
(0.886097 0.698583 2.06989e-19)
(0.866495 0.739431 9.09825e-20)
(0.843089 0.784122 -4.07651e-20)
(0.81726 0.832902 -2.94953e-20)
(0.788899 0.886296 3.84397e-19)
(0.756468 0.943839 -1.00093e-19)
(0.711602 0.993683 -2.49136e-19)
(0.613995 0.957271 -4.08968e-20)
(0.322764 0.57202 2.40573e-19)
(1.00267 0.702631 1.43956e-19)
(0.991009 0.744563 5.58127e-20)
(0.977936 0.787969 -4.93448e-19)
(0.961887 0.835756 4.49952e-21)
(0.943936 0.888181 2.29996e-19)
(0.924085 0.945674 -2.25545e-19)
(0.900648 1.00766 -3.22996e-20)
(0.863077 1.06124 -1.19697e-19)
(0.759215 1.02141 1.61836e-20)
(0.407073 0.609025 -2.68583e-19)
(1.10962 0.729541 2.59005e-20)
(1.10369 0.773973 -3.38987e-19)
(1.09795 0.818755 -2.28414e-21)
(1.0897 0.8684 2.35995e-19)
(1.07991 0.9233 -2.14325e-19)
(1.06886 0.983713 4.68996e-19)
(1.05476 1.04891 3.73641e-19)
(1.02466 1.10516 -6.97807e-19)
(0.913674 1.06251 -7.03402e-20)
(0.496063 0.632105 -3.33459e-19)
(1.20213 0.73813 -1.62751e-19)
(1.20672 0.784815 -1.68824e-19)
(1.2134 0.830633 2.19873e-19)
(1.21664 0.881385 3.87545e-19)
(1.21766 0.937725 1.80364e-19)
(1.21736 0.999808 -3.91722e-19)
(1.21391 1.06683 -1.0663e-20)
(1.19197 1.1245 1.5219e-19)
(1.0734 1.07961 -3.08132e-19)
(0.587423 0.6408 -2.52783e-19)
(0.650417 0.0243051 3.42546e-20)
(1.21778 0.0325604 -2.72343e-20)
(0.918918 0.0369995 1.1018e-20)
(0.9925 0.0409417 0)
(0.981022 0.0483529 2.52532e-20)
(0.964304 0.0585258 2.82532e-20)
(0.93929 0.0717918 3.55853e-20)
(0.894105 0.0887406 7.20183e-20)
(0.828501 0.111692 -1.03726e-19)
(0.655417 0.142474 -1.1474e-19)
(0.650199 0.0227033 4.37832e-20)
(1.21828 0.0329403 -9.79877e-20)
(0.919774 0.0398015 -3.61903e-21)
(0.994339 0.0429064 -1.09606e-20)
(0.983651 0.0517476 1.14964e-20)
(0.967883 0.0642123 -1.51458e-20)
(0.943993 0.0815514 -9.00954e-20)
(0.900785 0.105959 0)
(0.836989 0.145021 2.29099e-19)
(0.674395 0.203475 -2.58616e-19)
(0.64981 0.0210481 -9.19887e-20)
(1.2189 0.0331831 2.20651e-20)
(0.920491 0.0423817 2.35275e-20)
(0.99646 0.0446937 1.90649e-20)
(0.986653 0.0549981 -2.73155e-20)
(0.972094 0.069781 -6.79771e-22)
(0.949809 0.0912031 -6.42654e-20)
(0.909898 0.123029 -6.04202e-21)
(0.849298 0.177659 2.96328e-22)
(0.705574 0.262722 6.51971e-19)
(0.649245 0.0194849 1.29667e-20)
(1.21959 0.0332919 1.43501e-20)
(0.921079 0.0446798 2.87252e-20)
(0.998882 0.0462809 1.35789e-20)
(0.990037 0.0580824 -1.50724e-20)
(0.976946 0.0751905 -1.7936e-20)
(0.956766 0.100669 9.63488e-20)
(0.921343 0.139798 -1.88832e-21)
(0.865607 0.2092 -2.82317e-19)
(0.748319 0.319111 6.82406e-20)
(0.648487 0.018119 -4.80567e-21)
(1.2203 0.0332567 -5.43333e-20)
(0.921552 0.0466317 -2.46387e-20)
(1.00163 0.0476537 4.46326e-21)
(0.99381 0.0609819 0)
(0.982442 0.0804041 0)
(0.964886 0.109886 8.21602e-20)
(0.935011 0.156143 5.324e-22)
(0.886141 0.239471 -1.38089e-19)
(0.801745 0.371455 9.61432e-20)
(0.647515 0.0170503 -9.46243e-21)
(1.22094 0.0330539 5.34219e-20)
(0.921935 0.0481695 -3.41948e-20)
(1.00474 0.0488092 -3.67203e-20)
(0.997975 0.0636812 -1.68022e-21)
(0.988584 0.0853902 7.15969e-20)
(0.974194 0.118808 1.28068e-19)
(0.950847 0.171964 -7.23855e-22)
(0.911088 0.268626 2.31392e-19)
(0.864736 0.418526 -2.03896e-19)
(0.646297 0.0163879 -2.92113e-20)
(1.22141 0.0326431 2.18871e-20)
(0.92226 0.0492216 8.26455e-21)
(1.00823 0.0497601 -5.62064e-20)
(1.00252 0.0661662 4.24961e-21)
(0.995373 0.0901227 -1.14635e-21)
(0.984706 0.127399 -7.53644e-21)
(0.968878 0.187155 -2.21553e-19)
(0.940468 0.296005 1.7616e-19)
(0.935934 0.459644 -4.65593e-19)
(0.644792 0.016241 2.73421e-20)
(1.22159 0.0319594 -8.47126e-20)
(0.922574 0.0497146 2.45819e-21)
(1.01214 0.0505362 4.94882e-20)
(1.00744 0.0684153 1.85555e-21)
(1.00281 0.0945681 -8.24668e-20)
(0.996444 0.13561 -6.99632e-20)
(0.988988 0.201665 3.98213e-19)
(0.974571 0.32052 1.01145e-20)
(1.01355 0.496043 7.47981e-19)
(0.642949 0.0167595 -2.20353e-20)
(1.22139 0.0309283 4.0109e-20)
(0.922946 0.0495663 -4.51407e-20)
(1.01649 0.0511639 -5.22763e-20)
(1.01267 0.0703536 -9.82284e-20)
(1.01084 0.0985494 1.85963e-21)
(1.00932 0.142924 -9.64322e-20)
(1.01101 0.213997 5.16907e-19)
(1.01431 0.337565 -6.59368e-21)
(1.09578 0.521198 -1.02733e-18)
(0.640778 0.0180397 1.47676e-20)
(1.22117 0.0296999 6.39339e-20)
(0.923398 0.0487068 2.19206e-20)
(1.02115 0.0515943 -1.1999e-19)
(1.01772 0.0720008 -8.90462e-20)
(1.01814 0.102519 -6.87626e-20)
(1.02012 0.151104 -1.72975e-19)
(1.02782 0.229535 -4.8901e-19)
(1.04589 0.362091 -2.80308e-19)
(1.16546 0.561731 -1.17627e-18)
(0.642528 0.018519 -4.13705e-20)
(1.22263 0.0280434 -1.32628e-20)
(0.925526 0.0461464 -1.45118e-20)
(1.02654 0.0512644 -5.08269e-21)
(1.02626 0.0716393 5.68462e-20)
(1.03197 0.102666 -4.72191e-20)
(1.04297 0.151321 1.56433e-19)
(1.06636 0.227643 -4.87532e-19)
(1.10988 0.348795 -1.99282e-19)
(1.24997 0.534559 6.47882e-19)
(0.642988 0.0169068 3.66345e-20)
(1.22606 0.0261915 1.87793e-20)
(0.929732 0.0417898 2.21009e-20)
(1.03148 0.0491866 4.06972e-20)
(1.03568 0.0686319 8.52021e-20)
(1.04661 0.0985565 1.35371e-19)
(1.06565 0.144506 3.26501e-20)
(1.10113 0.214338 2.59206e-19)
(1.15857 0.31706 3.36418e-19)
(1.31308 0.467413 -2.38579e-20)
(0.643229 0.0147125 -4.11535e-20)
(1.22939 0.0238279 -1.22852e-20)
(0.933994 0.037376 -3.1344e-20)
(1.03655 0.0458651 2.41371e-20)
(1.04471 0.0640986 2.31062e-34)
(1.06039 0.0919603 -9.72959e-21)
(1.08632 0.133812 -6.04571e-34)
(1.13118 0.195324 2.15013e-20)
(1.19847 0.279715 -5.56696e-20)
(1.35758 0.39726 -4.57546e-20)
(0.64351 0.0118185 5.7559e-20)
(1.23247 0.0208333 -1.21866e-34)
(0.93804 0.0327314 3.11135e-20)
(1.04149 0.041522 -1.72901e-20)
(1.05303 0.0582106 -3.33408e-20)
(1.07286 0.0833613 -4.39785e-20)
(1.10451 0.120349 -7.55181e-34)
(1.15628 0.173051 -1.11425e-19)
(1.23019 0.240824 -1.46768e-19)
(1.38666 0.330706 8.70304e-20)
(0.64387 0.00822024 0)
(1.2354 0.0172757 1.63306e-35)
(0.9418 0.0278264 0)
(1.0461 0.0363207 0)
(1.06046 0.0511216 0)
(1.08379 0.0730558 0)
(1.12005 0.104679 -4.52928e-34)
(1.17673 0.148474 0)
(1.25478 0.201657 -2.18475e-20)
(1.4044 0.268594 5.34058e-20)
(0.644343 0.00394518 4.34955e-20)
(1.2383 0.0132395 -3.30007e-21)
(0.945231 0.0226953 3.042e-20)
(1.05022 0.0304204 0)
(1.06686 0.0430161 0)
(1.09302 0.0613536 8.27692e-21)
(1.13288 0.0873204 3.14081e-20)
(1.19293 0.122379 -1.59011e-20)
(1.27333 0.162903 -3.27313e-20)
(1.41465 0.211059 1.97709e-19)
(0.644969 -0.00119921 -2.76749e-20)
(1.24127 0.00881999 5.44503e-21)
(0.9483 0.0174289 2.99989e-20)
(1.05372 0.0239818 -5.51892e-21)
(1.07211 0.0340911 -1.12258e-20)
(1.10047 0.0485539 -8.59847e-21)
(1.143 0.0687141 -2.33544e-20)
(1.20527 0.095349 -4.47626e-20)
(1.2868 0.124887 -5.92445e-20)
(1.42016 0.157891 9.68428e-20)
(0.645813 -0.00640641 -5.89397e-20)
(1.24449 0.00401944 -2.97797e-20)
(0.95096 0.0121568 2.87924e-20)
(1.05644 0.0171726 -1.69655e-20)
(1.07609 0.0245475 1.17159e-34)
(1.10603 0.034938 8.92456e-21)
(1.15046 0.0492225 -1.09488e-33)
(1.21411 0.0677573 -1.60966e-20)
(1.29599 0.0875801 2.08841e-20)
(1.42279 0.108177 2.73653e-20)
(0.646116 -0.0159961 1.96314e-19)
(1.24574 -8.45706e-05 -1.15584e-20)
(0.951421 0.00675694 2.90252e-20)
(1.05649 0.0106387 2.70623e-21)
(1.07691 0.0151239 4.27419e-21)
(1.10789 0.0215188 1.5988e-20)
(1.1535 0.030203 9.12465e-21)
(1.21793 0.0413072 -5.40345e-21)
(1.29973 0.0528039 -2.32689e-20)
(1.42184 0.0636037 1.39708e-19)
(0.613365 -0.0134722 4.74136e-20)
(1.15505 -0.00498692 -1.10446e-34)
(0.870523 0.00292903 2.83936e-20)
(0.972424 0.00199234 0)
(0.990886 0.00328987 0)
(1.0201 0.00471882 9.17353e-21)
(1.06302 0.00661536 -1.02121e-35)
(1.12315 0.00906765 -1.60146e-20)
(1.19902 0.0114665 -3.08836e-20)
(1.30785 0.0131866 6.0808e-20)
(1.40105 0.617113 -1.86846e-19)
(1.48324 0.615428 -2.89246e-19)
(1.5757 0.588712 0)
(1.66321 0.540883 8.50201e-20)
(1.74444 0.478636 4.24951e-19)
(1.81791 0.406072 -1.59679e-19)
(1.88066 0.325426 1.30097e-18)
(1.9302 0.238379 -4.14485e-20)
(1.96484 0.146611 -3.62695e-19)
(1.98324 0.052074 3.04987e-19)
(1.44483 0.508096 6.51001e-20)
(1.51049 0.497982 1.16949e-19)
(1.58909 0.465126 -2.59303e-22)
(1.66186 0.420016 1.51244e-19)
(1.72577 0.368068 -1.42567e-19)
(1.78144 0.310552 -3.81621e-19)
(1.82801 0.248074 -6.22568e-20)
(1.86431 0.181411 5.45736e-19)
(1.88946 0.111576 -1.77874e-20)
(1.90289 0.0397331 -4.45747e-19)