/*--------------------------------*- C++ -*----------------------------------*\
  =========                 |
  \\      /  F ield         | OpenFOAM: The Open Source CFD Toolbox
   \\    /   O peration     | Website:  https://openfoam.org
    \\  /    A nd           | Version:  13
     \\/     M anipulation  |
\*---------------------------------------------------------------------------*/
FoamFile
{
    format      ascii;
    class       surfaceScalarField;
    location    "28.2";
    object      phi;
}
// * * * * * * * * * * * * * * * * * * * * * * * * * * * * * * * * * * * * * //

dimensions      [0 3 -1 0 0 0 0];

internalField   nonuniform List<scalar> 
823
(
-0.00511139
0.0160798
-0.0109684
0.00506737
0.00997001
-0.0201488
0.0551414
-0.033065
-0.017009
0.143114
-0.0910178
0.00304508
-0.118086
-0.0117849
0.272985
0.00554456
0.0105353
0.0512035
-0.035689
0.140046
-0.121908
0.25055
-0.201522
-0.271314
0.403779
0.0225847
-0.0120495
0.107116
-0.120221
0.218158
-0.23295
0.326231
-0.309594
-0.354854
0.409771
0.0431787
-0.0552282
0.13866
-0.215702
0.223089
-0.31738
0.275785
-0.362289
-0.377115
0.298045
0.0562065
-0.111435
0.127086
-0.286582
0.168228
-0.358522
0.184819
-0.37888
0.193683
-0.38598
0.013283
-0.0432295
0.0299466
0.0265453
-0.0622644
0.0490021
0.0455356
-0.0612997
0.0423094
0.0751272
-0.0494162
0.0198246
-0.02287
0.114549
-0.016552
0.00232451
-0.0455541
-0.00334614
-0.0565938
-0.00857518
-0.0560707
-0.00312258
-0.0548688
-0.0418429
0.0158503
-0.00918946
-0.0363646
-0.0271874
-0.0385959
-0.0546801
-0.028578
-0.0872912
-0.0222578
-0.0102384
-0.118896
-0.0184431
-0.0179215
-0.0437745
-0.0132644
-0.0716283
-0.000724187
-0.0988215
0.00493551
0.0164655
-0.125525
-0.02889
-0.0623031
-0.0800364
-0.0720558
-0.0673751
0.361398
1.61825
-1.8651
0.430505
0.356472
-0.425579
0.466896
-1.80295
1.76656
0.505035
-0.921665
0.883527
-0.162497
0.141822
0.350922
1.28318
0.562561
0.144833
0.611413
-1.8518
0.562338
-0.87259
-0.136591
0.25427
0.910016
0.583987
-0.184883
0.58478
-1.8526
0.575405
-0.863215
-0.102074
0.227698
0.556792
0.602867
-0.560052
0.527623
-1.77735
0.508815
-0.844408
-0.0950754
0.253712
0.235705
0.598624
-0.904963
0.530642
-1.70937
0.473165
-0.78693
-0.0910996
1.15889
0.165797
-1.08898
1.35894
-1.10501
1.04534
-1.39577
0.802171
-0.543762
-0.0438278
1.48812
0.0526239
-1.37495
1.39523
-1.01212
0.873375
-0.873919
0.622536
-0.292922
-0.0893395
1.45539
-0.0623872
-1.34038
1.21321
-0.769946
0.82997
-0.490676
0.693068
-0.156021
-0.11583
1.37077
-0.144703
-1.28845
0.985923
-0.385101
0.671624
-0.176376
0.609492
-0.0938897
-0.0672695
0.750333
-0.895036
0.365232
0.188856
0.0949663
1.08734
0.145332
-1.03899
1.14985
0.235542
1.25247
0.307152
1.24814
0.4081
0.432148
1.00979
0.0788386
-0.943296
1.07541
0.169918
1.17736
0.205202
1.27199
0.313468
0.329197
0.94534
0.039686
-0.906188
1.00934
0.105914
1.09271
0.121833
1.21316
0.193026
0.201976
0.897465
0.011624
-0.869403
0.965321
0.038058
1.04147
0.0456858
1.16341
0.0710807
0.0769357
0.663276
-0.651652
0.701334
0.747019
0.8181
0.124403
0.294876
-0.245021
-0.174259
0.0818594
0.300673
-0.258129
0.0442068
0.310874
-0.273221
0.0138006
0.300651
-0.270245
0.191564
-0.177763
0.0918893
0.330933
-0.127946
0.0573522
0.33521
0.0274532
0.340773
0.0045187
0.323585
0.196083
0.0537498
0.361803
-0.0846202
0.0250972
0.363863
0.00156003
0.36431
-0.00845975
0.333605
0.187623
-0.0178212
0.378795
0.000829773
-0.033151
0.379192
-0.0389905
0.370149
-0.0283539
0.322969
0.159269
-0.0961617
0.0889767
-0.0958488
-0.0842212
-0.0478342
0.203531
0.098366
-0.257309
-0.044588
0.14894
0.102138
-0.0475472
0.0928986
0.106294
-0.0502529
0.0380329
0.105652
-0.050786
0.0742522
-0.0362193
0.201035
0.14352
-0.246189
0.153095
0.150078
0.0998088
0.15958
0.0427143
0.162746
0.116966
0.144172
0.188823
-0.189475
0.101898
0.192353
0.0608476
0.20063
0.0223514
0.201242
0.139318
0.153722
0.222441
-0.187341
0.113802
0.232274
0.0694857
0.244946
0.0266654
0.244063
0.165983
0.0920919
-0.114672
0.066237
0.037962
0.0117801
0.405391
0.0511149
-0.0605264
0.428299
0.00199702
-0.024905
0.411826
0.195907
-0.179433
0.397218
0.164898
-0.15029
0.426288
-0.286379
0.404312
0.0427825
0.422279
-0.0159701
0.39967
0.218516
0.386786
0.177782
0.566885
0.399352
0.0394098
0.415932
-0.0325502
0.377405
0.257043
0.371901
0.183286
0.749311
0.398412
0.0369773
0.39973
-0.0338679
0.36364
0.293133
0.350578
0.196348
0.912548
0.392234
0.0407225
0.38457
-0.0262038
0.333887
0.343817
0.323219
0.207016
1.1211
0.632262
0.0124805
0.636862
-0.0308037
0.678882
0.301797
0.788156
0.0977418
0.937685
0.971565
0.648149
-0.0316481
0.618162
-0.000816882
0.70086
0.219099
0.765121
0.0334811
0.735061
0.967745
0.641366
-0.0689937
0.62212
0.0184287
0.714427
0.126793
0.770168
-0.0222606
0.511001
0.994229
0.608683
-0.0736566
0.637322
-0.0102102
0.74575
0.0183651
0.748935
-0.0254461
0.255425
1.00451
0.530364
0.520154
0.538519
0.513073
0.768498
0.997702
-0.200395
0.993539
-0.123783
0.996816
-0.0878974
1.00681
-0.00916819
0.0567993
0.930353
-0.163003
0.918783
-0.112213
0.904285
-0.0733995
0.923358
-0.0282414
0.0368614
0.936561
-0.105335
0.907856
-0.0835082
0.88768
-0.0532236
0.887939
-0.0285006
0.0186128
0.939478
-0.0403019
0.8924
-0.0364304
0.864508
-0.025332
0.853193
-0.0171854
0.00240318
0.728196
0.691766
0.666434
0.649248
0.0495673
0.17975
-0.229317
0.0707794
0.369523
-0.390735
0.0690811
0.419193
-0.417494
0.059948
0.416624
-0.407491
0.381759
0.0476934
-0.369505
0.0779962
0.101754
0.1447
0.302819
0.173188
0.390705
0.177236
0.412576
0.393838
0.165157
0.0708905
0.0308634
0.183129
0.19058
0.261368
0.312465
0.299943
0.374002
0.402266
0.291515
0.0381017
-0.0072383
0.152391
0.076291
0.273488
0.191368
0.376759
0.270731
0.348132
0.430893
0.0117763
-0.0190146
0.0808463
0.00722102
0.192581
0.0796328
0.315262
0.14805
0.246893
0.416502
0.00294661
-0.0219612
0.0316662
-0.0214986
0.100996
0.0103031
0.195203
0.0538433
0.146051
0.296044
0.00142698
-0.0233882
0.0103929
-0.0304645
0.0353292
-0.0146331
0.0739882
0.0151842
0.0735458
0.146494
-0.001741
-0.0216472
-0.00205917
-0.0301463
-0.00100485
-0.0156875
0.00230414
0.0118752
0.0508784
0.0249715
-0.00118635
-0.0204608
0.00172931
-0.033062
0.00689082
-0.020849
0.00996472
0.00880132
0.050276
0.0105671
0.00948573
0.0254259
0.0468864
0.0755122
0.109236
0.198408
1.16385
-1.06622
0.0758902
0.518234
-0.395716
0.236362
-0.265266
0.104795
0.334006
-0.275146
0.177502
-0.0353898
0.0544444
0.0334442
1.2769
-0.108845
0.660523
0.265509
-0.639621
0.424523
-0.43416
-0.0226648
-0.271226
1.5731
-0.287331
0.676629
0.28063
-1.20758
0.450262
-0.603792
-0.0450089
-0.273935
1.8576
-0.156275
0.558968
0.267564
-1.63142
0.438678
-0.774905
-0.100743
0.101736
0.235125
0.370264
0.478885
-0.146764
0.61497
-0.468206
-0.177475
0.030711
-0.0426748
-0.1348
0.109525
-0.1522
-0.0665062
0.686838
-1.13809
0.321834
0.291828
0.31713
0.0911132
-0.0103721
-0.0807411
0.14369
-0.0525772
0.221663
-0.0779722
0.350651
-0.128989
-0.117554
0.211111
-0.173789
0.323691
0.537234
0.839138
0.147383
-0.151653
0.182532
-0.178262
0.113113
-0.158331
0.1926
0.0736766
-0.16704
0.206477
0.0304285
-0.168196
0.211444
-0.119887
0.150316
0.190834
-0.110812
-0.231675
0.144764
-0.11226
0.0925235
-0.1148
0.038503
-0.114175
-0.0813844
0.192043
-0.059787
-0.243068
0.139973
-0.0601908
0.0871079
-0.0619347
0.035619
-0.0626863
-0.0457654
0.20539
-0.00730033
-0.257876
0.1522
-0.00700148
0.0972272
-0.00696157
0.0411656
-0.0066247
-0.00459982
0.209993
-0.261881
0.155444
0.0982298
0.0408191
0.0508319
-0.347934
-0.0724021
0.0220631
-0.378722
-0.00325484
-0.392177
-0.0152867
-0.378703
-0.244604
0.133739
-0.313831
-0.167843
0.0896127
-0.334596
0.0450641
-0.347628
0.0102797
-0.343919
-0.234324
0.156141
-0.270704
-0.199267
0.109718
-0.288173
0.0644599
-0.30237
0.0234038
-0.302862
-0.21092
0.174062
-0.232363
-0.212404
0.128542
-0.242653
0.0797736
-0.253601
0.0322641
-0.255353
-0.178656
0.169426
-0.219257
0.119373
0.0722495
0.0283404
0.392027
0.0949424
-0.0909901
0.394381
0.0853281
-0.0876822
0.360773
0.150779
-0.117171
0.310588
0.0300704
0.0201151
-0.249004
0.38133
0.399215
0.0917072
0.409219
0.0753239
0.397795
0.162203
0.355654
0.0722118
-0.125025
0.403975
0.0837119
0.418428
0.0608712
0.411544
0.169087
0.378452
0.105303
0.0103592
0.407306
0.0723855
0.424022
0.0441551
0.420721
0.172388
0.395839
0.130185
0.148322
0.407839
0.427089
0.420044
0.399938
0.417191
0.0928598
0.336905
0.0802858
0.253487
0.0834182
0.2695
-0.0160125
-0.206543
0.476043
0.511921
0.504524
0.470772
0.474874
0.649661
0.382128
0.0939144
0.298559
0.0835691
0.200393
0.0981656
0.116729
0.0836646
0.0359878
0.524319
0.395484
0.294382
0.210204
)
;

boundaryField
{
    left
    {
        type            calculated;
        value           nonuniform List<scalar> 
17
(
-0.60402
-0.60402
-0.60402
-0.60402
-0.60402
-0.39598
-0.39598
-0.39598
-0.39598
-0.39598
-0.39598
-0.39598
-0.39598
-0.39598
-0.39598
-0.510051
-0.510051
)
;
    }
    right
    {
        type            calculated;
        value           nonuniform List<scalar> 
17
(
0.176031
0.305069
0.314952
0.411798
0.472607
0.494412
0.519964
0.525709
0.536432
0.540888
0.501817
0.469189
0.754899
0.668047
0.719558
0.560932
0.0276968
)
;
    }
    down
    {
        type            calculated;
        value           uniform 0;
    }
    up
    {
        type            calculated;
        value           uniform 0;
    }
    cylinder
    {
        type            calculated;
        value           uniform 0;
    }
    defaultFaces
    {
        type            empty;
    }
}


// ************************************************************************* //
