/*--------------------------------*- C++ -*----------------------------------*\
  =========                 |
  \\      /  F ield         | OpenFOAM: The Open Source CFD Toolbox
   \\    /   O peration     | Website:  https://openfoam.org
    \\  /    A nd           | Version:  13
     \\/     M anipulation  |
\*---------------------------------------------------------------------------*/
FoamFile
{
    format      ascii;
    class       volScalarField;
    location    "6.005";
    object      p;
}
// * * * * * * * * * * * * * * * * * * * * * * * * * * * * * * * * * * * * * //

dimensions      [0 2 -2 0 0 0 0];

internalField   nonuniform List<scalar> 
440
(
-0.588682
-0.570631
-0.598531
-0.564225
-0.696523
-0.607065
-0.590551
-0.576458
-0.560109
-0.567652
-0.696888
-0.669302
-0.639906
-0.608286
-0.573759
-0.813158
-0.767033
-0.697471
-0.614382
-0.529238
-0.908533
-0.848294
-0.718148
-0.581437
-0.455449
-0.885953
-0.889527
-0.906847
-0.936932
-0.967468
-0.706841
-0.712489
-0.727387
-0.747709
-0.762351
-0.582233
-0.585169
-0.592205
-0.599329
-0.601956
-0.554412
-0.555206
-0.557637
-0.558238
-0.550503
-0.521306
-0.522034
-0.522755
-0.505674
-0.517691
-1.03997
-0.955886
-0.729816
-0.600791
-0.0358694
-0.815393
-0.875461
-0.77441
-0.667557
-0.0386917
-0.600208
-0.763846
-0.810795
-0.678017
-0.0516733
-0.436927
-0.644901
-0.835522
-0.66462
-0.0715529
-0.425625
-0.530566
-0.8436
-0.640415
-0.0913589
-0.234889
-0.411752
-0.797762
-0.567039
-0.109893
-0.136005
-0.331542
-0.549615
-0.414516
-0.128118
-0.152211
-0.161376
-0.316067
-0.292666
-0.137379
-0.0770196
-0.0308473
-0.200449
-0.251926
-0.133113
-0.011165
0.0662796
-0.0321726
-0.215898
-0.145035
-0.238297
-0.367201
-0.549824
-0.733093
-0.839156
-0.00684193
-0.13496
-0.216632
-0.258167
-0.261375
0.150758
0.0368686
-0.0377321
-0.0944089
-0.133607
0.244857
0.135235
0.0492886
-0.0128533
-0.0546514
0.287168
0.177727
0.0917854
0.0336389
0.00279419
1.05969
0.918974
0.739694
0.536697
0.307829
0.658053
0.505361
0.316009
0.100223
-0.144153
0.260943
0.105903
-0.0906589
-0.317071
-0.529855
-0.0796937
-0.237576
-0.43026
-0.639803
-0.797703
-0.305925
-0.458573
-0.634186
-0.816985
-0.914866
2.21038
2.24318
2.27342
2.28975
2.28844
2.0251
2.04871
2.06885
2.0725
2.05476
1.80379
1.79593
1.76683
1.71571
1.63822
1.55908
1.52644
1.45948
1.36158
1.23399
1.31482
1.22044
1.09418
0.943619
0.759145
1.94291
1.93388
1.92421
1.98518
2.08295
1.93317
1.92198
1.90646
1.96301
1.9964
1.92441
1.90699
1.88568
1.9292
1.89055
1.917
1.88934
1.86256
1.88313
1.73407
1.91092
1.87082
1.8381
1.82913
1.56385
1.90657
1.84228
1.80605
1.72781
1.36381
1.906
1.81077
1.79544
1.60418
1.4186
1.91221
1.79454
1.79093
1.52103
1.38816
1.90857
1.76934
1.78571
1.46719
1.35512
1.94525
1.76342
1.78293
1.44426
1.36228
1.02728
0.735533
0.399968
0.11799
-0.0756446
0.936978
0.725456
0.496586
0.302093
0.132912
0.918215
0.751569
0.58402
0.431595
0.279391
0.962423
0.813694
0.66323
0.515281
0.37279
1.00887
0.860059
0.710441
0.55903
0.417895
-1.50206
-1.34632
-1.17093
-1.02723
-0.942767
-1.56116
-1.49305
-1.36028
-1.25074
-1.18471
-1.47026
-1.42036
-1.34125
-1.27492
-1.2322
-1.30248
-1.25867
-1.21219
-1.17538
-1.15146
-1.15867
-1.13398
-1.10403
-1.08514
-1.10262
-1.08218
-1.06786
-1.03715
-1.03608
-1.02061
-1.07738
-1.06061
-1.03915
-1.03096
-1.03482
-1.10056
-1.08637
-1.07175
-1.06628
-1.07732
-1.10885
-1.10225
-1.10326
-1.11716
-1.14057
-1.04112
-1.04196
-1.05608
-1.08585
-1.12781
-1.11109
-0.806732
-0.37321
-0.254651
0.00248769
-1.123
-0.76606
-0.37744
-0.26159
-0.00711039
-1.08249
-0.784234
-0.434098
-0.297947
-0.0287785
-1.11198
-0.868802
-0.546037
-0.366704
-0.0418114
-1.12172
-0.952363
-0.65225
-0.486426
-0.0405396
-0.614711
-0.928843
-0.493572
-0.282008
-0.000702064
-0.985651
-0.888961
-0.406875
-0.238334
0.00503593
-0.894058
-1.15507
-1.19654
-1.16018
-0.930288
-0.914809
-1.15721
-1.20942
-1.14739
-1.13584
1.82192
1.79325
1.74548
1.67961
1.59277
2.01734
2.03512
2.03604
2.01838
1.98278
2.18479
2.21669
2.23987
2.24984
2.24495
2.28294
2.32292
2.36501
2.39899
2.41405
2.28877
2.32775
2.37125
2.40805
2.42541
-0.453337
-0.564765
-0.740731
-0.952577
-1.2076
0.191232
0.0454233
-0.149117
-0.383428
-0.687275
0.770633
0.617689
0.435282
0.220135
-0.0549877
1.23477
1.11682
0.972535
0.796377
0.579815
1.60419
1.52004
1.41091
1.28017
1.12499
2.0066
1.96383
1.95456
1.95947
1.97463
1.99115
1.96036
1.95438
1.97872
2.04159
1.97772
1.95588
1.95411
1.99833
2.11874
1.96516
1.95044
1.94833
2.00422
2.13045
1.95351
1.94364
1.93811
2.00016
2.12364
2.06106
1.97062
1.94129
1.88275
1.84638
2.0171
1.9609
1.93733
1.90436
1.85621
1.48126
1.24705
0.838221
0.240709
-0.420628
1.56961
1.28204
0.855673
0.262218
-0.411527
)
;

boundaryField
{
    left
    {
        type            zeroGradient;
    }
    right
    {
        type            fixedValue;
        value           uniform 0;
    }
    down
    {
        type            zeroGradient;
    }
    up
    {
        type            zeroGradient;
    }
    cylinder
    {
        type            zeroGradient;
    }
    defaultFaces
    {
        type            empty;
    }
}


// ************************************************************************* //
