/*--------------------------------*- C++ -*----------------------------------*\
  =========                 |
  \\      /  F ield         | OpenFOAM: The Open Source CFD Toolbox
   \\    /   O peration     | Website:  https://openfoam.org
    \\  /    A nd           | Version:  13
     \\/     M anipulation  |
\*---------------------------------------------------------------------------*/
FoamFile
{
    format      ascii;
    class       volScalarField;
    location    "0.79";
    object      strainRateViscosityModel:nu;
}
// * * * * * * * * * * * * * * * * * * * * * * * * * * * * * * * * * * * * * //

dimensions      [0 2 -1 0 0 0 0];

internalField   nonuniform List<scalar> 
1800
(
9.40488
9.1976
9.01007
8.80096
8.57616
8.34415
8.11548
7.89817
7.6242
7.37923
9.58523
9.41878
9.2669
9.09733
8.91118
8.71143
8.50357
8.28868
8.0273
7.70207
9.70219
9.56269
9.42803
9.27096
9.08869
8.87899
8.64092
8.36904
8.03058
7.6106
9.77539
9.65614
9.53324
9.38287
9.20049
8.98172
8.72281
8.41596
8.02877
7.55456
9.82168
9.7183
9.60558
9.46167
9.28071
9.05696
8.78549
8.45888
8.04775
7.55614
9.85185
9.76081
9.6573
9.52059
9.34355
9.11896
8.84034
8.50016
8.07152
7.5702
9.87179
9.78991
9.69398
9.56396
9.39147
9.16769
8.8842
8.53252
8.08735
7.57567
9.88475
9.80924
9.71888
9.59394
9.42494
9.20146
8.91309
8.55005
8.08853
7.56355
9.8926
9.82107
9.73416
9.6122
9.44467
9.21962
8.92483
8.54922
8.07121
7.52871
9.89646
9.82686
9.74153
9.6207
9.45309
9.22573
8.92512
8.53953
8.05038
7.49285
1.79985
1.40525
1.20948
1.32011
1.7304
2.2515
2.49653
2.44898
2.35916
2.33546
3.72892
1.78117
1.49147
1.98119
2.69553
2.97241
2.81726
2.67179
2.6879
2.74125
4.70193
2.56991
2.43555
3.17658
3.59645
3.34626
3.08171
3.11848
3.25847
3.33904
5.26887
3.88177
3.81505
4.21344
4.18056
3.82941
3.72128
3.85508
3.9576
4.00661
6.05573
5.27519
5.11776
5.1213
4.91493
4.65332
4.57809
4.61226
4.6126
4.65234
6.95982
6.45988
6.22678
6.03825
5.78827
5.54537
5.38918
5.29334
5.22222
5.27482
7.77172
7.37772
7.11678
6.8603
6.58742
6.32054
6.08724
5.90093
5.77021
5.82379
8.40013
8.05531
7.79202
7.51579
7.22651
6.93122
6.64219
6.38631
6.19226
6.22927
8.84935
8.54538
8.291
8.01032
7.70571
7.37949
7.03563
6.70112
6.41573
6.42173
9.16164
8.90154
8.66633
8.39667
8.09572
7.76577
7.40646
7.03565
6.70853
6.7524
2.19338
1.72919
1.33185
0.937218
0.619942
0.349958
0.184933
0.137046
0.152773
0.232789
2.5277
1.84832
1.40692
0.932582
0.59383
0.334146
0.173742
0.100695
0.099748
0.174733
2.94828
1.97744
1.47931
0.930013
0.558167
0.306961
0.161366
0.0840841
0.0591379
0.117953
3.44071
2.14738
1.55064
0.93298
0.518842
0.272141
0.144236
0.0714826
0.0532527
0.0579221
3.98296
2.38543
1.62809
0.94204
0.480075
0.233225
0.123366
0.0580218
0.0583797
0.025998
4.5285
2.69659
1.72441
0.958437
0.444963
0.192975
0.0995239
0.0463178
0.0497406
0.0411506
4.99697
3.05635
1.84637
0.981211
0.413686
0.153223
0.0742134
0.0370202
0.0315974
0.0968834
5.31281
3.43937
2.01353
1.02403
0.392733
0.117077
0.0492514
0.0264789
0.035091
0.161245
5.34331
3.7228
2.16318
1.05595
0.369673
0.0841491
0.0300888
0.0188734
0.0919673
0.22597
5.20205
3.98893
2.39874
1.1597
0.386205
0.0675519
0.0105726
0.0508394
0.139898
0.281503
4.94442
3.94246
2.45576
1.17358
0.360964
0.0523657
0.0273451
0.107131
0.201019
0.345333
5.33044
3.34772
2.13984
0.998511
0.359
0.13881
0.117597
0.175196
0.275698
0.415717
4.90479
3.04583
2.2483
1.20569
0.591001
0.294337
0.203111
0.24507
0.339752
0.470082
4.54676
3.63219
2.68184
1.64101
0.892729
0.4958
0.338415
0.333051
0.406757
0.515572
5.11424
4.74779
3.34284
2.16439
1.23808
0.729838
0.495822
0.435525
0.475631
0.552292
6.25445
5.66954
4.0571
2.67385
1.59851
0.981585
0.673048
0.552151
0.549072
0.583414
7.26269
6.37371
4.71365
3.15456
1.95724
1.24047
0.858551
0.676947
0.625495
0.610615
8.0001
6.91203
5.2598
3.58896
2.30001
1.50065
1.04942
0.807556
0.705393
0.636559
8.51876
7.33072
5.69731
3.97005
2.62039
1.75379
1.23623
0.935053
0.782376
0.659553
8.931
7.69118
6.04972
4.28305
2.92518
2.0242
1.44728
1.08327
0.87756
0.692121
6.51282
6.43966
6.43043
6.44874
6.48733
6.52992
6.58196
6.7105
6.89517
6.82621
0.260661
1.05709
2.00767
2.92271
3.70362
4.31623
4.73296
4.98246
5.22152
5.72768
3.8508
3.54391
3.28469
3.11146
3.10652
3.25012
3.47232
3.71345
4.16496
4.84478
6.64416
6.62722
6.53713
6.3447
6.0433
5.6579
5.24967
4.89615
4.73955
4.54947
7.69184
7.67653
7.63212
7.54129
7.39613
7.18986
6.92709
6.61953
6.28602
5.65646
8.44951
8.43312
8.39435
8.32771
8.22957
8.09671
7.92837
7.71684
7.42792
6.90784
8.93967
8.92394
8.89028
8.83679
8.76166
8.6629
8.53816
8.37892
8.15467
7.80862
9.27298
9.25981
9.23246
9.18985
9.13052
9.05245
8.95269
8.82481
8.65281
8.4309
9.50446
9.49417
9.47307
9.44024
9.39426
9.33319
9.25424
9.15286
9.02288
8.87534
9.6899
9.68285
9.66852
9.64604
9.61405
9.5707
9.51361
9.43975
9.34638
9.2441
7.24805
7.52618
7.83693
8.08767
8.3448
8.59962
8.84138
9.06158
9.25458
9.46025
7.5831
7.94805
8.24096
8.48112
8.70935
8.92481
9.1223
9.299
9.45391
9.61805
7.4985
7.95737
8.32595
8.6205
8.87575
9.09773
9.28806
9.44952
9.58535
9.72225
7.44688
7.95761
8.37376
8.702
8.97658
9.20596
9.39471
9.54806
9.67131
9.78824
7.45633
7.98066
8.4186
8.76489
9.05054
9.28356
9.46977
9.61591
9.72868
9.83022
7.48241
8.01168
8.46402
8.82147
9.11234
9.34475
9.52606
9.66446
9.76796
9.85764
7.50364
8.03786
8.50277
8.86863
9.16197
9.39189
9.56763
9.6989
9.79479
9.8757
7.51114
8.05246
8.52871
8.90209
9.19746
9.42521
9.5964
9.72212
9.81243
9.88729
7.49836
8.05045
8.53742
8.91898
9.21768
9.44503
9.61371
9.73606
9.82289
9.89404
7.48288
8.04358
8.53592
8.92344
9.22525
9.4533
9.62123
9.74216
9.82746
9.89693
2.55872
2.5152
2.53301
2.74458
2.9302
2.55759
1.70119
1.18286
1.52378
4.19934
2.96554
2.87726
2.71746
2.71512
3.10478
3.43293
2.82432
1.90876
2.12667
5.13707
3.45288
3.40945
3.2516
3.06508
3.26506
3.824
3.80435
3.16284
3.29055
5.45665
3.94396
3.9332
3.90684
3.79766
3.89048
4.31796
4.58957
4.46853
4.66175
5.91389
4.49686
4.4694
4.54481
4.6165
4.78041
5.114
5.43841
5.61928
5.89696
6.63168
5.10049
5.05797
5.19764
5.39609
5.657
5.98047
6.30868
6.5955
6.90098
7.40669
5.6531
5.61687
5.81778
6.0904
6.40771
6.74088
7.06856
7.37816
7.67877
8.08657
6.06635
6.05181
6.31494
6.64224
6.99496
7.3398
7.66729
7.9742
8.25896
8.61107
6.2601
6.27907
6.63091
7.02587
7.42011
7.78441
8.11673
8.41669
8.68283
8.98797
6.59995
6.56982
6.95597
7.37947
7.78133
8.14312
8.46653
8.75044
8.99301
9.25186
0.112692
0.155228
0.122426
0.063291
0.0156151
0.393819
0.930846
1.48399
1.95104
2.43316
0.0792131
0.140647
0.118191
0.0654199
0.0152997
0.385996
0.934897
1.54694
2.03004
2.69923
0.0574462
0.132267
0.116371
0.0686467
0.0240767
0.386036
0.941151
1.59695
2.10064
3.00943
0.044335
0.129947
0.118165
0.0760582
0.0421529
0.393827
0.947394
1.63413
2.20413
3.39598
0.0378128
0.132756
0.122177
0.0856692
0.0652607
0.403503
0.950802
1.66978
2.38203
3.86614
0.0369367
0.139786
0.126758
0.0948021
0.0891226
0.411558
0.955247
1.72719
2.64855
4.36331
0.0419108
0.151161
0.130644
0.101287
0.108996
0.415492
0.965862
1.82282
2.98044
4.79407
0.0534095
0.167445
0.133477
0.105288
0.12443
0.424231
1.00668
1.9818
3.34719
5.07873
0.0732403
0.188442
0.13537
0.102995
0.127574
0.424245
1.04356
2.13301
3.62564
5.08188
0.104079
0.210988
0.13788
0.104028
0.142838
0.471052
1.18005
2.39121
3.87545
4.89049
0.160857
0.239426
0.143393
0.101131
0.131465
0.473742
1.24461
2.50415
3.88473
4.6729
0.26399
0.270745
0.133162
0.0760849
0.0697807
0.383723
1.1187
2.30248
3.42962
5.19209
0.428878
0.269841
0.100137
0.0143944
0.0150054
0.344218
1.14885
2.35084
3.25603
4.93794
0.682131
0.254287
0.0227448
0.081031
0.101692
0.538316
1.43185
2.62441
3.71523
4.69829
1.06557
0.047593
0.2633
0.236236
0.315355
0.890904
1.9338
3.20651
4.7071
5.17755
1.51469
0.12232
0.537954
0.416958
0.597012
1.30813
2.47412
3.91721
5.59876
6.22336
2.19502
0.683513
0.855531
0.68981
0.94299
1.73845
2.99233
4.59354
6.30246
7.21636
3.79221
1.70631
1.27446
1.03743
1.31886
2.15046
3.46134
5.16516
6.8541
7.96877
6.86014
3.57572
1.96322
1.42203
1.68008
2.52419
3.8735
5.6312
7.29515
8.50724
9.04906
6.38369
2.843
2.00229
2.11648
2.89694
4.22393
6.01912
7.68651
8.93809
6.6245
6.68754
6.51083
6.38906
6.3487
6.32253
6.30555
6.31733
6.36195
6.47625
5.52816
5.00932
4.76557
4.52453
4.12641
3.54048
2.79859
1.9321
1.04467
0.284227
4.8497
4.23676
3.8273
3.61678
3.43001
3.31054
3.31543
3.45769
3.65541
3.87435
4.7124
4.8859
5.0284
5.33792
5.70211
6.05237
6.33393
6.5214
6.61654
6.64159
5.68791
6.28591
6.61234
6.91136
7.17237
7.38147
7.5318
7.62814
7.6767
7.69239
6.86589
7.38861
7.68443
7.90231
8.07659
8.21484
8.3178
8.38856
8.43055
8.44889
7.76511
8.12049
8.35196
8.51791
8.64796
8.75099
8.82956
8.88582
8.92164
8.93899
8.40454
8.63268
8.80887
8.94093
9.04401
9.12465
9.18596
9.23006
9.25854
9.2726
8.86615
9.01619
9.14761
9.2506
9.33082
9.39283
9.43944
9.47267
9.494
9.50442
9.24868
9.35045
9.44301
9.5163
9.57294
9.61588
9.64748
9.66956
9.68348
9.69012
9.50946
8.98534
8.23589
6.92826
5.59797
0.131167
3.36084
5.96039
7.21409
8.15187
9.46542
8.92156
8.16813
6.89059
5.54939
0.56377
2.62222
5.70602
6.91643
7.91396
9.36568
8.78282
8.02028
6.80961
5.36636
1.60349
1.41357
5.20663
6.30935
7.40331
9.18255
8.54513
7.7745
6.65512
5.18645
2.74004
0.723099
4.23839
5.42157
6.57149
8.86812
8.17359
7.40402
6.37695
5.02653
3.36803
0.970958
2.63163
4.31696
5.39381
8.35053
7.62973
6.87342
5.91729
4.76512
3.44004
1.71925
1.30194
3.0493
3.98815
7.53605
6.89661
6.15555
5.22758
4.29966
3.26955
2.14311
1.17252
1.65628
2.55745
6.32539
6.03758
5.28135
4.2319
3.53345
2.91261
2.11845
1.43521
1.06858
1.2354
4.63171
5.23226
4.47436
2.99959
2.4371
2.27447
1.85602
1.38486
1.12271
0.659161
2.6728
4.53957
4.02165
1.96672
1.39677
1.48835
1.40993
1.21175
1.06406
0.845216
1.27676
3.78899
3.66665
1.33722
0.816171
0.897638
0.971092
0.95629
0.971748
1.01985
0.613491
2.96984
3.0822
0.9565
0.575302
0.639958
0.759416
0.819999
0.844002
0.876984
0.355376
2.18962
2.28541
0.688162
0.492589
0.595294
0.726384
0.810757
0.848552
0.873317
0.265318
1.55072
1.48917
0.521519
0.534531
0.674159
0.787676
0.858712
0.882134
0.892382
0.239652
1.01892
0.845481
0.514245
0.669645
0.803264
0.904483
0.967993
0.983707
0.980605
0.242876
0.493098
0.499962
0.636456
0.817516
0.955014
1.05279
1.11047
1.12099
1.11282
0.177055
0.204035
0.508207
0.756223
0.97485
1.12064
1.21033
1.25734
1.27415
1.27477
0.0452236
0.251881
0.649372
0.922807
1.13614
1.25352
1.32962
1.39948
1.45606
1.47787
0.0610623
0.492479
0.822327
1.09603
1.22975
1.33857
1.48913
1.64778
1.73497
1.75046
0.696612
0.865321
1.04056
1.18355
1.32328
1.5972
1.91013
2.07978
2.08145
2.04839
0.36305
0.0804928
0.223822
0.550627
0.794499
0.891227
0.886432
0.837292
0.786566
0.753528
0.462084
0.202306
0.319146
0.521369
0.723787
0.810504
0.807948
0.766349
0.722634
0.704081
0.525736
0.372215
0.440024
0.513622
0.653346
0.730504
0.731195
0.696242
0.658905
0.654103
0.638865
0.587859
0.595474
0.555491
0.587275
0.643442
0.649401
0.623706
0.59441
0.603663
0.805961
0.803483
0.741988
0.638083
0.542081
0.556334
0.565729
0.550293
0.529703
0.552779
1.00952
0.999419
0.875313
0.737556
0.530997
0.474835
0.480687
0.47595
0.464853
0.501424
1.2276
1.17101
0.990259
0.825713
0.552947
0.409044
0.397107
0.401454
0.400181
0.44951
1.45236
1.32521
1.08909
0.888363
0.58973
0.368606
0.319295
0.327829
0.336008
0.396865
1.6849
1.46873
1.17554
0.923663
0.619589
0.354399
0.253867
0.256837
0.272817
0.343334
1.92627
1.60372
1.25506
0.937156
0.630115
0.353785
0.208365
0.191573
0.211324
0.288576
2.00915
0.747497
0.717667
0.965388
1.19773
1.28408
1.25809
1.17942
1.10825
1.01114
1.39445
0.482975
0.579173
0.874721
1.10961
1.19787
1.17685
1.10495
1.03682
0.952538
0.751613
0.287999
0.4813
0.797759
1.03531
1.12581
1.10914
1.04264
0.978141
0.905117
0.253387
0.17035
0.405706
0.726037
0.960246
1.04952
1.03565
0.97457
0.91427
0.854065
0.435842
0.0327065
0.267346
0.613148
0.864271
0.965253
0.959975
0.9061
0.850581
0.803545
9.35465
9.29006
9.141
8.87311
8.43757
7.7789
6.87136
5.75933
4.582
3.53711
9.19248
9.09566
8.88112
8.51167
7.94152
7.13648
6.10966
4.95512
3.84478
2.78683
9.02389
8.90027
8.62663
8.16106
7.46177
6.51617
5.37145
4.16866
3.08129
1.94239
8.81633
8.66221
8.32151
7.74794
6.90618
5.81426
4.555
3.29482
2.22584
1.08998
8.5875
8.3794
7.92585
7.17746
6.11253
4.7921
3.35064
2.08513
0.993917
0.302013
1.06023
1.02444
1.01624
1.01976
0.915165
0.799643
1.29339
3.68337
3.85979
1.32294
0.94918
0.93374
0.926139
0.8707
0.718781
0.588486
0.910781
3.14194
3.10998
0.647369
0.985941
0.982408
0.96553
0.892741
0.747286
0.584304
0.698173
2.37268
2.34683
0.377406
1.05336
1.06525
1.06109
1.00126
0.88979
0.740512
0.655486
1.55765
1.63485
0.277245
1.186
1.21015
1.21585
1.16814
1.07696
0.9518
0.789133
0.910183
0.919832
0.24614
1.35118
1.37112
1.3794
1.35429
1.28444
1.15117
0.929791
0.670023
0.358353
0.216777
1.55563
1.55157
1.51917
1.4768
1.42598
1.31968
1.07957
0.754212
0.272515
0.0664176
1.82367
1.81727
1.73469
1.58171
1.44172
1.34508
1.21025
0.901773
0.494408
0.0467832
2.104
2.15126
2.1497
1.95582
1.6122
1.32275
1.18699
1.05688
0.856533
0.675854
2.31236
2.35917
2.48373
2.53593
2.2337
1.63232
1.18238
1.06652
1.30439
2.04189
8.15168
7.21373
5.96003
3.36033
0.131423
5.59651
6.92777
8.23569
8.98535
9.50956
7.91328
6.91532
5.70501
2.62162
0.563639
5.54554
6.88913
8.16754
8.92161
9.46573
7.40185
6.30746
5.20484
1.41547
1.59976
5.36187
6.80735
8.0194
8.78295
9.36627
6.56884
5.41868
4.23622
0.72627
2.73173
5.18172
6.65227
7.77352
8.54546
9.18358
5.38943
4.31247
2.63265
0.971032
3.35669
5.02057
6.3735
7.40309
8.17434
8.86988
3.97981
3.04146
1.31017
1.71323
3.42678
4.75623
5.91249
6.87254
7.63121
8.35351
2.54107
1.65347
1.18717
2.13288
3.25089
4.28301
5.21885
6.15466
6.89951
7.54138
1.21758
1.08764
1.45173
2.10726
2.88048
3.50307
4.2175
5.28209
6.04357
6.33607
0.671604
1.1529
1.40708
1.84234
2.23203
2.40025
2.98385
4.47941
5.24357
4.65556
0.884844
1.10241
1.24708
1.41265
1.46378
1.36897
1.94328
4.02653
4.56517
2.71658
2.09001
0.543283
1.06115
0.629286
0.661068
0.758544
0.632593
0.300258
0.0620034
0.356496
1.63023
0.236773
0.869993
0.479038
0.567048
0.681345
0.593684
0.356839
0.265873
0.488486
1.33425
0.0583127
0.641858
0.340709
0.478432
0.602065
0.562483
0.459551
0.473231
0.591055
1.09805
0.0147077
0.39388
0.232145
0.3937
0.518514
0.562699
0.626066
0.732704
0.758305
0.848045
0.0892528
0.189645
0.158684
0.315939
0.442048
0.609046
0.805128
0.974847
0.977475
0.635863
0.154002
0.0532201
0.101634
0.244117
0.386308
0.694587
0.975074
1.19408
1.22475
0.46365
0.209328
0.0491864
0.0534604
0.180503
0.365065
0.788315
1.11884
1.38619
1.48085
0.331363
0.210341
0.107345
0.0107837
0.122371
0.373751
0.862123
1.23558
1.55783
1.73569
0.232931
0.196026
0.121872
0.0354198
0.0643893
0.390746
0.905583
1.33066
1.71156
1.97676
0.162146
0.174582
0.127105
0.0568369
0.0288195
0.398552
0.924608
1.41183
1.84463
2.20024
9.33657
6.77032
2.66502
1.69954
1.20198
1.1207
0.964874
0.781741
0.79643
2.03315
8.21092
4.63644
2.21508
1.41754
1.06937
1.03579
0.891251
0.651071
0.527989
1.39865
6.12015
3.06393
1.78537
1.2102
0.964429
0.971429
0.832243
0.561301
0.328824
0.741037
4.13317
1.87588
1.49748
1.0037
0.858373
0.904219
0.775871
0.487737
0.228703
0.225127
2.83557
1.06124
1.24633
0.803058
0.755248
0.826606
0.686094
0.356405
0.0444317
0.398118
3.5477
4.58915
5.76324
6.87354
7.78045
8.4387
8.87388
9.14148
9.29032
9.35474
2.78093
3.84106
4.95236
6.10789
7.13587
7.94154
8.51189
8.88134
9.09582
9.19255
1.92842
3.0719
4.16218
5.36669
6.51362
7.46063
8.16063
8.62654
8.9003
9.02391
1.05562
2.20312
3.28162
4.54676
5.81004
6.90396
7.74681
8.32105
8.66206
8.8163
0.300514
0.962687
2.06396
3.33749
4.78514
6.10894
7.17548
7.92489
8.37903
8.58741
)
;

boundaryField
{
    left
    {
        type            calculated;
        value           nonuniform List<scalar> 
35
(
0.297985
0.566895
0.987243
1.62617
2.52449
3.69554
5.06613
6.47609
8.1585
9.4418
0.213007
0.13305
0.080716
0.0490024
0.0325083
0.0273376
0.032675
0.0520545
0.0920356
0.159906
4.93339
4.0616
3.23479
2.51295
1.91713
1.42718
1.03081
0.7246
0.496075
0.33005
9.61573
8.97907
7.92205
6.84778
5.85939
)
;
    }
    right
    {
        type            calculated;
        value           nonuniform List<scalar> 
35
(
1.01068
0.952327
0.90528
0.855127
0.805805
0.75738
0.709616
0.661184
0.612179
0.562602
0.51234
0.461163
0.40872
0.354633
0.298325
0.239809
0.177757
0.115427
0.0509243
0.0203339
0.0372844
0.10113
0.177484
0.249229
0.308458
0.374913
0.445513
0.498406
0.540559
0.572322
0.597557
0.618914
0.640121
0.66024
0.69012
)
;
    }
    down
    {
        type            calculated;
        value           nonuniform List<scalar> 
40
(
9.45431
7.26633
2.89595
1.78871
1.24272
1.1491
0.990372
0.823288
0.897523
2.26037
3.83288
4.88244
6.03395
7.09287
7.94461
8.55502
8.95447
9.19925
9.33564
9.39488
9.39478
9.33536
9.19873
8.9536
8.55368
7.94266
7.08994
6.02876
4.87319
3.81889
2.23227
0.847593
0.761552
0.997332
1.22946
1.31369
1.28503
1.20346
1.13128
1.03008
)
;
    }
    up
    {
        type            calculated;
        value           nonuniform List<scalar> 
40
(
9.0341
7.80882
6.16759
4.39482
3.0334
2.11908
1.51987
1.13238
0.909263
0.704056
9.72927
9.72305
9.71045
9.69064
9.66234
9.62377
9.57263
9.50586
9.42076
9.32814
9.33505
9.42656
9.51039
9.57623
9.62665
9.66461
9.69238
9.71169
9.72379
9.72952
9.27074
7.09622
3.23902
2.15406
2.23578
3.01649
4.34611
6.14877
7.81368
9.04496
)
;
    }
    cylinder
    {
        type            calculated;
        value           nonuniform List<scalar> 
80
(
2.00044
4.56972
5.53753
5.77865
6.30465
7.09049
7.86179
8.47477
8.91246
9.2129
9.44581
9.61871
9.72981
9.7983
9.84096
9.86846
9.8865
9.89817
9.90522
9.90869
9.5004
9.65061
9.74902
9.81046
9.849
9.87389
9.89016
9.90054
9.90657
9.90913
5.32648
6.23374
6.21124
6.31566
6.83441
7.52659
8.17618
8.68599
9.05066
9.3025
0.99432
0.471573
0.264209
0.183221
0.159571
0.165584
0.0828512
0.0422722
0.75008
2.43102
9.59446
9.55588
9.46744
9.30187
9.00979
8.51137
7.68626
6.36657
4.38725
2.23882
9.59435
9.55556
9.46683
9.30079
9.00792
8.50819
7.68052
6.3545
4.35816
2.19132
0.95281
0.442273
0.244341
0.170839
0.150278
0.16548
0.160965
0.0839726
0.043359
0.736623
)
;
    }
    defaultFaces
    {
        type            empty;
    }
}


// ************************************************************************* //
