/*--------------------------------*- C++ -*----------------------------------*\
  =========                 |
  \\      /  F ield         | OpenFOAM: The Open Source CFD Toolbox
   \\    /   O peration     | Website:  https://openfoam.org
    \\  /    A nd           | Version:  13
     \\/     M anipulation  |
\*---------------------------------------------------------------------------*/
FoamFile
{
    format      ascii;
    class       volScalarField;
    location    "0.24";
    object      p;
}
// * * * * * * * * * * * * * * * * * * * * * * * * * * * * * * * * * * * * * //

dimensions      [0 2 -2 0 0 0 0];

internalField   nonuniform List<scalar> 
440
(
8.02223
10.7789
13.1416
13.3238
10.3513
20.9171
24.3008
27.2968
27.9979
26.1116
41.455
44.4867
47.1901
47.9831
46.823
67.5895
69.6876
71.6012
72.2579
71.5706
96.8684
97.6854
98.4824
98.8825
98.8488
-0.147247
-0.259532
0.194629
0.741612
1.07728
-1.43529
-2.10809
-1.85833
-1.17433
-0.543885
-1.83654
-2.71799
-2.63916
-1.88633
-0.770884
-0.501108
-0.631177
-0.220675
0.747298
2.61408
3.27292
4.58566
6.0177
7.45197
9.70508
2.32758
2.53529
1.63426
0.896162
0.300088
1.2609
2.30267
1.5146
0.834801
0.285413
0.0926806
1.86577
1.36967
0.782205
0.274599
-0.199112
1.26828
1.16082
0.736394
0.268409
1.7356
0.697695
0.880581
0.690479
0.266601
4.63838
0.476878
0.575237
0.644074
0.271221
6.9407
0.859057
0.617601
0.663577
0.256508
10.1949
2.61329
1.28397
0.791938
0.221445
14.104
4.98714
2.36671
1.0336
0.208815
16.8516
7.38349
3.67934
1.4253
0.269959
100.893
76.0431
53.5279
33.3553
12.558
102.588
79.1442
57.7369
39.2553
23.6837
104.489
82.9058
62.6768
45.4335
33.0864
105.372
85.2266
66.71
51.3935
40.8711
105.291
84.9486
66.5351
51.461
41.113
220.083
216.621
216.341
218.465
221.2
202.895
200.439
200.704
203.448
206.741
180.749
178.98
179.346
181.769
184.648
154.95
153.609
153.814
155.408
157.305
127.068
126.354
126.294
126.754
127.347
235.63
236.045
236.657
237.05
236.775
236.315
236.938
237.477
237.438
236.474
235.207
236.183
236.603
236.335
235.34
230.334
231.946
232.53
232.681
232.59
221.819
223.698
224.73
225.953
227.311
236.173
234.9
235.069
234.142
234.345
236.142
234.889
235.039
234.139
234.96
236.133
234.859
235.012
234.298
235.559
236.147
234.811
235.031
234.571
235.165
236.171
234.748
235.11
234.772
232.45
236.206
234.654
235.171
234.562
228.896
236.349
234.535
235.067
234.155
226.56
237.155
234.3
234.404
232.438
223.535
241.092
234.289
233.206
229.902
219.819
250.034
235.006
232.029
227.334
217.047
217.951
196.428
175.228
151.938
126.652
207.577
191.581
172.535
150.63
126.859
199.094
186.412
168.823
148.293
126.538
191.928
180.975
165.296
146.463
126.123
191.705
180.955
165.552
146.863
126.354
96.5954
95.7184
95.2706
94.5038
94.3473
57.5322
55.5847
53.8793
51.9581
51.1924
29.7169
27.3728
24.6107
22.313
20.9887
15.2752
12.8585
10.3953
8.37765
7.40742
9.44495
7.55864
6.17678
5.20634
4.6187
6.20561
5.10621
4.53428
4.45245
4.54374
4.2851
3.82906
3.76387
3.92579
4.08285
2.98674
2.97717
3.21337
3.51829
3.67764
1.93007
2.22678
2.67096
3.01802
3.16302
0.918452
1.30013
1.85581
2.25053
2.42357
3.86819
3.42629
2.30661
1.1869
0.372384
3.91116
3.25773
2.21385
1.13568
0.361111
3.71165
3.00731
2.08593
1.08778
0.349718
3.40354
2.78465
1.92961
1.03293
0.336323
2.99303
2.64788
1.76869
0.963576
0.31727
4.73301
3.40579
2.20697
1.18898
0.381158
4.00688
3.50344
2.30795
1.21182
0.379763
95.1033
54.364
27.7422
14.727
9.70892
93.8822
51.3543
23.2171
9.71049
5.50536
232.269
232.352
232.309
231.805
230.733
232.87
233.044
233.28
233.327
232.96
233.42
233.59
233.973
234.369
234.541
233.972
234.121
234.515
235.099
235.501
234.667
234.898
235.386
235.966
236.2
142.16
141.968
141.14
140.63
139.718
185.376
184.567
182.589
180.822
178.844
215.659
214.288
211.94
209.127
206.752
229.28
228.272
226.225
223.731
221.286
232.123
231.507
230.541
229.167
227.271
239.053
234.677
234.772
233.644
233.025
237.399
234.716
234.859
233.819
233.058
236.694
234.797
234.957
234.034
233.373
236.373
234.862
235.042
234.188
233.707
236.237
234.894
235.076
234.209
233.985
252.447
235.996
235.143
233.596
232.114
243.366
234.922
234.712
233.523
232.82
227.071
221.997
208.897
182.197
141.409
231.265
227.027
213.453
185.221
142.632
)
;

boundaryField
{
    left
    {
        type            zeroGradient;
    }
    right
    {
        type            fixedValue;
        value           uniform 0;
    }
    down
    {
        type            zeroGradient;
    }
    up
    {
        type            zeroGradient;
    }
    cylinder
    {
        type            zeroGradient;
    }
    defaultFaces
    {
        type            empty;
    }
}


// ************************************************************************* //
