/*--------------------------------*- C++ -*----------------------------------*\
  =========                 |
  \\      /  F ield         | OpenFOAM: The Open Source CFD Toolbox
   \\    /   O peration     | Website:  https://openfoam.org
    \\  /    A nd           | Version:  13
     \\/     M anipulation  |
\*---------------------------------------------------------------------------*/
FoamFile
{
    format      ascii;
    class       volVectorField;
    location    "0.24";
    object      U;
}
// * * * * * * * * * * * * * * * * * * * * * * * * * * * * * * * * * * * * * //

dimensions      [0 1 -1 0 0 0 0];

internalField   nonuniform List<vector> 
440
(
(0.218265 -0.176698 -1.81106e-19)
(0.613084 -0.436659 1.07891e-18)
(0.98429 -0.640894 4.23229e-19)
(1.32752 -0.795358 1.24214e-18)
(1.63254 -0.91668 -2.60078e-19)
(0.304901 -0.177688 -5.44554e-19)
(0.81915 -0.428708 -1.01972e-18)
(1.27999 -0.618905 1.14484e-19)
(1.69192 -0.761631 -1.21529e-18)
(2.05376 -0.875081 -1.02103e-18)
(0.384891 -0.15241 -6.98108e-19)
(1.00471 -0.363021 1.59007e-18)
(1.5398 -0.518389 -1.93485e-18)
(2.00476 -0.63263 1.37873e-18)
(2.406 -0.721461 1.43032e-18)
(0.445885 -0.102749 5.62418e-19)
(1.14614 -0.243089 -1.29964e-18)
(1.7375 -0.344816 -7.50785e-19)
(2.24301 -0.418221 1.96672e-18)
(2.67454 -0.474457 2.50015e-18)
(0.479278 -0.0361597 6.86971e-19)
(1.22368 -0.0847564 1.69161e-19)
(1.84597 -0.119365 2.53147e-18)
(2.37411 -0.143866 -1.06217e-18)
(2.82304 -0.162497 -4.83828e-19)
(-0.00103271 -0.0514785 2.88419e-19)
(0.0498182 -0.144231 -3.59285e-19)
(0.105505 -0.222479 1.0776e-18)
(0.170811 -0.292534 -1.74146e-19)
(0.238757 -0.354289 -1.5868e-18)
(0.0136614 -0.0841639 -2.66763e-19)
(0.0893422 -0.227548 -4.4683e-19)
(0.174159 -0.349893 1.12493e-19)
(0.268457 -0.44989 6.14717e-20)
(0.364752 -0.53004 -4.02443e-20)
(0.0433151 -0.114198 6.59991e-20)
(0.165508 -0.303006 5.28482e-19)
(0.296257 -0.467163 9.29288e-20)
(0.433007 -0.598606 1.45353e-18)
(0.568117 -0.697144 -2.48985e-20)
(0.0866121 -0.14099 6.66357e-20)
(0.276387 -0.367788 -3.37977e-20)
(0.469522 -0.562941 2.17019e-19)
(0.661453 -0.718429 -2.0384e-18)
(0.844178 -0.830349 9.57856e-19)
(0.142126 -0.161727 -2.36058e-19)
(0.420084 -0.412851 -4.43049e-19)
(0.691399 -0.621462 -7.71347e-19)
(0.950138 -0.782391 9.5455e-19)
(1.18521 -0.89282 3.45967e-18)
(0.590785 -0.592703 -4.23089e-18)
(0.953834 -0.512948 1.22521e-18)
(1.26728 -0.209263 3.46601e-19)
(1.38752 -0.0661378 -6.66898e-19)
(1.42787 -0.0174548 -1.06117e-19)
(0.785554 -0.743073 4.93332e-18)
(1.0401 -0.616309 -3.46109e-19)
(1.30001 -0.267098 -1.45381e-19)
(1.40647 -0.0868342 4.22186e-19)
(1.43463 -0.0232321 1.89826e-19)
(1.03688 -0.877413 1.54118e-18)
(1.17684 -0.699866 4.09363e-18)
(1.33378 -0.321014 6.85978e-20)
(1.42233 -0.105235 4.69484e-19)
(1.44291 -0.0284706 -6.44602e-20)
(1.33071 -0.988383 1.24469e-18)
(1.35595 -0.761513 -4.19176e-19)
(1.38541 -0.366997 -7.6557e-19)
(1.4345 -0.120069 -3.00886e-19)
(1.45229 -0.0326581 1.93302e-20)
(1.63003 -1.04752 -1.17893e-20)
(1.54984 -0.803701 -1.6462e-18)
(1.44639 -0.409362 0)
(1.43996 -0.141047 2.66762e-19)
(1.46114 -0.0373751 3.42047e-20)
(2.15619 -1.1146 -1.58067e-18)
(1.82573 -0.796961 -4.91375e-19)
(1.56078 -0.416225 -9.59527e-21)
(1.46085 -0.147542 1.93533e-20)
(1.44673 -0.035884 -9.28972e-20)
(2.63394 -0.889174 -1.61307e-18)
(1.90357 -0.589372 2.8973e-18)
(1.46672 -0.290769 4.4029e-21)
(1.26986 -0.108276 2.5355e-19)
(1.22292 -0.0274997 0)
(2.4796 -0.52242 -6.93872e-18)
(1.60716 -0.336704 -1.497e-19)
(1.15751 -0.163776 2.05116e-18)
(0.953439 -0.0673506 -2.97412e-19)
(0.908594 -0.0167967 -5.83025e-20)
(1.76247 -0.219987 6.83966e-18)
(1.08874 -0.135327 1.30698e-18)
(0.753948 -0.0637312 2.25962e-19)
(0.605609 -0.028797 2.80924e-33)
(0.56574 -0.00774911 -1.16689e-19)
(0.683059 0.000123008 1.55855e-18)
(0.395116 0.0234134 7.22975e-19)
(0.268046 0.0231662 -5.04357e-19)
(0.215326 0.0108045 1.79026e-19)
(0.196329 0.00343889 -4.47841e-20)
(3.58197 -0.168166 1.2561e-17)
(3.41725 -0.502913 -1.04423e-17)
(3.13673 -0.786943 7.10728e-18)
(2.78059 -0.995995 2.31972e-18)
(2.33302 -1.1016 -4.15136e-19)
(3.78468 -0.103599 1.03956e-17)
(3.71765 -0.324473 -6.63993e-19)
(3.57797 -0.551839 -4.27084e-18)
(3.37858 -0.785759 2.69139e-18)
(3.10067 -1.01974 -6.62776e-19)
(3.11489 -0.0605636 3.6543e-18)
(3.09871 -0.181723 -2.51848e-18)
(3.05969 -0.309725 5.01238e-18)
(2.99905 -0.444899 -1.52627e-19)
(2.92462 -0.593616 -4.79007e-18)
(2.19088 -0.0276227 2.78861e-18)
(2.18385 -0.0834026 8.4297e-18)
(2.16461 -0.144076 -6.53222e-19)
(2.13402 -0.207387 -6.6063e-18)
(2.113 -0.269562 1.94561e-18)
(0.879438 -0.00184228 5.21215e-18)
(0.876483 -0.00524205 -1.16417e-19)
(0.867345 -0.00957548 -4.26291e-20)
(0.850449 -0.0162698 -2.00866e-18)
(0.841063 -0.0229356 -3.60278e-18)
(1.65288 0.93958 2.26497e-18)
(1.34817 0.816475 -7.53335e-20)
(1.00336 0.658598 -3.25554e-20)
(0.627913 0.449517 -1.96511e-19)
(0.225272 0.182339 -1.34564e-19)
(2.07036 0.892331 -1.21664e-18)
(1.71061 0.777683 -1.19479e-18)
(1.29832 0.632608 7.33669e-19)
(0.834078 0.438768 -4.84608e-19)
(0.312177 0.182114 -4.22182e-21)
(2.41857 0.735781 -5.91377e-19)
(2.01966 0.645343 5.25266e-19)
(1.55502 0.528777 2.43788e-18)
(1.01757 0.37022 8.08524e-19)
(0.391361 0.155296 5.26235e-19)
(2.68206 0.486689 1.33377e-20)
(2.25244 0.428289 -2.72239e-19)
(1.74748 0.352332 -6.46717e-19)
(1.15481 0.247656 2.05672e-18)
(0.450346 0.10415 -3.2687e-19)
(2.82555 0.173858 -1.171e-18)
(2.37736 0.152644 -1.60656e-18)
(1.84947 0.125349 -7.2878e-19)
(1.22676 0.0878375 7.96342e-19)
(0.48088 0.0366886 -3.25847e-19)
(0.238719 0.414435 -2.10646e-18)
(0.169151 0.351077 -1.78505e-18)
(0.102258 0.274894 3.05338e-19)
(0.0451668 0.181981 -3.43122e-20)
(-0.00184344 0.0667789 3.36525e-20)
(0.370707 0.590864 -8.07924e-19)
(0.27385 0.506912 -6.45703e-19)
(0.178566 0.39683 1.02319e-21)
(0.0923939 0.257769 -2.12696e-20)
(0.0166082 0.0957909 2.2307e-20)
(0.581822 0.750395 2.16861e-18)
(0.446289 0.647161 -1.60943e-19)
(0.307918 0.505355 -1.42572e-19)
(0.174277 0.327435 -2.13844e-19)
(0.0481898 0.123557 1.69399e-19)
(0.862052 0.872872 -1.30241e-18)
(0.679195 0.756876 1.99466e-18)
(0.485285 0.593211 3.29307e-19)
(0.288295 0.387933 9.93157e-20)
(0.0924445 0.149056 -1.17813e-19)
(1.20352 0.92417 -4.4321e-19)
(0.969055 0.811163 -4.59523e-19)
(0.708607 0.644777 3.6383e-19)
(0.433364 0.429086 3.61426e-19)
(0.148474 0.168554 1.90078e-21)
(0.896403 0.153529 -3.9701e-19)
(1.44726 0.144324 5.84047e-20)
(1.26093 0.202729 2.40668e-20)
(0.995378 0.502384 -3.6844e-19)
(0.593489 0.642559 -4.22707e-20)
(0.890947 0.0855554 1.76595e-19)
(1.44846 0.129346 2.53698e-19)
(1.28528 0.240051 1.07476e-19)
(1.0528 0.61095 -1.04251e-19)
(0.783615 0.797817 7.745e-19)
(0.88636 0.0202389 -1.36769e-21)
(1.46271 0.11184 -1.93718e-20)
(1.29951 0.278729 -5.95857e-20)
(1.16709 0.69954 -5.09469e-19)
(1.03756 0.931014 1.87411e-19)
(0.884548 -0.0427599 -2.4296e-20)
(1.48205 0.0933306 -5.4696e-19)
(1.32839 0.316239 1.20738e-19)
(1.33079 0.761914 1.24243e-18)
(1.33467 1.03638 9.34527e-19)
(0.88526 -0.103307 8.75056e-21)
(1.50129 0.0781831 1.22083e-19)
(1.36944 0.355538 -6.82289e-20)
(1.51418 0.80375 -4.13917e-19)
(1.63513 1.0883 -2.76967e-18)
(0.888353 -0.193674 2.40531e-19)
(1.51507 0.0468552 3.9758e-19)
(1.46361 0.356494 -1.11687e-20)
(1.76985 0.786838 2.87971e-18)
(2.1514 1.14062 -5.52319e-18)
(0.869058 -0.324953 -2.77043e-20)
(1.43123 -0.0171553 -6.12277e-19)
(1.44836 0.259 8.77638e-21)
(1.85437 0.586414 -3.01224e-18)
(2.59615 0.899523 1.66223e-18)
(0.782238 -0.410375 5.33192e-18)
(1.12996 -0.0813169 6.56156e-35)
(1.15308 0.141505 -2.18219e-18)
(1.58177 0.333691 2.71177e-18)
(2.45837 0.528734 5.03346e-18)
(0.631984 -0.290211 1.50273e-19)
(0.732579 -0.0689733 5.18816e-19)
(0.741946 0.0511375 2.57428e-19)
(1.07693 0.133217 6.26875e-19)
(1.75849 0.220358 -8.63563e-18)
(0.321671 -0.0433129 -4.29871e-18)
(0.297915 0.0042406 2.77229e-19)
(0.268412 -0.01219 1.08599e-18)
(0.393918 -0.0239524 -7.76702e-19)
(0.686017 -0.000342929 -1.46349e-18)
(2.34811 1.12034 4.6808e-18)
(2.78702 1.01214 3.46465e-18)
(3.14077 0.803169 -5.68393e-18)
(3.41898 0.519493 -1.46113e-17)
(3.58245 0.185828 1.57611e-17)
(3.07953 1.01864 5.00669e-18)
(3.35463 0.795134 2.5653e-17)
(3.55743 0.560637 7.24525e-18)
(3.70144 0.331809 -3.08388e-17)
(3.77814 0.111119 -5.17394e-18)
(2.90631 0.591829 -7.23406e-18)
(2.98627 0.448061 -3.38182e-18)
(3.05232 0.312157 -6.30396e-18)
(3.09531 0.181795 -6.8894e-18)
(3.11406 0.0584777 6.52239e-18)
(2.10618 0.26605 5.40772e-18)
(2.13002 0.205909 -4.05116e-19)
(2.16247 0.143164 4.86958e-18)
(2.18309 0.08221 6.28831e-18)
(2.19077 0.0260323 -5.88732e-18)
(0.842374 0.0221067 -5.73745e-19)
(0.851814 0.0156827 3.51857e-18)
(0.868565 0.00914691 2.44228e-18)
(0.877461 0.00480051 -5.16859e-18)
(0.879829 0.00136491 -3.84234e-20)
(0.281881 0.0207534 5.51932e-19)
(0.656567 0.04046 -7.4331e-19)
(0.973003 0.0440598 -8.18674e-19)
(0.944189 0.0274268 -1.51791e-18)
(0.697739 0.0163826 -6.63697e-19)
(0.245529 0.055451 7.45353e-19)
(0.591168 0.107057 1.44155e-18)
(0.864552 0.125122 -6.96813e-19)
(0.939826 0.0969824 1.96022e-18)
(0.724066 0.0532265 -2.70088e-18)
(0.185579 0.0742523 4.95951e-19)
(0.476302 0.145871 -1.39953e-18)
(0.707656 0.18473 -9.13703e-19)
(0.857183 0.175374 -1.81082e-18)
(0.741473 0.101192 -2.86201e-18)
(0.123278 0.077465 -7.72765e-19)
(0.344693 0.160343 -1.37659e-18)
(0.534441 0.214847 4.39636e-18)
(0.67756 0.23324 -3.66376e-19)
(0.712977 0.179965 2.24959e-18)
(0.0752633 0.0723677 -6.23681e-19)
(0.230659 0.160118 1.56319e-18)
(0.372179 0.224481 6.06888e-19)
(0.482598 0.257544 -1.29245e-18)
(0.560925 0.258123 -1.75988e-19)
(0.0451546 0.063811 8.16156e-20)
(0.149944 0.148816 -1.21542e-18)
(0.247671 0.211981 -9.30209e-19)
(0.325154 0.233542 -1.06145e-19)
(0.3709 0.223103 -5.07796e-20)
(0.0263894 0.0557148 3.12082e-19)
(0.0951511 0.134057 5.80428e-19)
(0.160944 0.18369 -2.19626e-19)
(0.213743 0.193636 2.61139e-19)
(0.253722 0.18321 1.73214e-19)
(0.0131333 0.0485819 2.45971e-19)
(0.0587058 0.110115 1.34536e-18)
(0.103721 0.118903 -1.25034e-18)
(0.142741 0.104848 -2.78533e-18)
(0.179067 0.0832264 4.11252e-19)
(0.00612378 0.0388834 -2.36896e-19)
(0.0422272 0.047146 -1.78866e-18)
(0.0790979 0.0200538 3.19878e-18)
(0.118913 -0.0117435 1.32124e-18)
(0.160108 -0.0455694 -2.69676e-19)
(0.00955162 0.00154595 2.05029e-19)
(0.0413265 -0.0505755 -4.43455e-19)
(0.081024 -0.0968571 8.8844e-20)
(0.129288 -0.144915 1.06449e-19)
(0.179541 -0.191231 4.35356e-21)
(0.339561 0.069365 -8.54159e-20)
(0.6201 -0.0419485 -1.2147e-18)
(0.706064 -0.0154323 2.57041e-19)
(0.731166 -0.00122491 3.76338e-19)
(0.736692 -0.000304008 1.86892e-20)
(0.304952 -0.0379768 -9.92859e-20)
(0.756268 -0.114536 1.4173e-18)
(0.889295 -0.0267747 9.29273e-19)
(0.932407 -0.00307594 7.92981e-20)
(0.946924 -0.0005301 -5.01005e-20)
(0.319889 -0.152922 -7.95508e-19)
(0.836188 -0.197462 3.00026e-18)
(1.04685 -0.0480308 -1.86878e-19)
(1.11552 -0.00677179 -3.46885e-19)
(1.13689 -0.000973501 9.29714e-20)
(0.372766 -0.290706 1.08448e-18)
(0.87907 -0.29604 -2.51303e-18)
(1.15742 -0.091707 -5.14105e-19)
(1.27074 -0.0187186 -3.63329e-20)
(1.30703 -0.00378672 -1.27841e-20)
(0.458716 -0.438426 5.09643e-19)
(0.909764 -0.402367 -5.62355e-19)
(1.22357 -0.149145 4.41015e-19)
(1.35851 -0.0418957 1.39076e-19)
(1.41057 -0.0104127 -4.31763e-20)
(0.183062 -0.0448399 9.54198e-19)
(0.1463 -0.00496717 0)
(0.163445 0.00139297 1.19164e-19)
(0.16602 0.000364791 2.51916e-20)
(0.164858 -8.92167e-05 -8.34438e-20)
(0.401258 0.0697095 0)
(0.413056 -0.000708371 0)
(0.468838 -0.0050203 7.69449e-20)
(0.47917 0.000167967 4.65453e-20)
(0.477884 -3.79895e-05 2.13133e-20)
(0.162636 -0.000821028 -3.68343e-19)
(0.186346 -0.00179211 3.10709e-18)
(0.213148 -0.00502122 -6.86742e-19)
(0.229746 -0.014988 -3.1163e-18)
(0.245638 -0.0169685 -7.96754e-19)
(0.431907 0.00444001 6.09758e-19)
(0.484426 0.0196889 4.11535e-18)
(0.536328 0.046667 -6.73239e-18)
(0.567581 0.0805286 2.20822e-18)
(0.598417 0.162169 3.79165e-18)
(0.370515 -0.219622 -3.38764e-19)
(0.32402 -0.230706 -8.85686e-20)
(0.248254 -0.21218 -3.11001e-19)
(0.150753 -0.150684 3.81987e-19)
(0.0458426 -0.0646107 1.14544e-19)
(0.257893 -0.166975 4.20533e-19)
(0.215165 -0.179268 1.41979e-18)
(0.162399 -0.175141 2.74193e-19)
(0.0967816 -0.134329 2.34844e-19)
(0.026745 -0.057094 -1.71037e-20)
(0.193054 -0.0519589 -3.09649e-19)
(0.151418 -0.0745353 -1.00992e-19)
(0.108519 -0.0921131 1.63438e-18)
(0.0622762 -0.0948901 2.93181e-19)
(0.0129821 -0.0474122 -3.07328e-19)
(0.176354 0.088331 -6.3713e-19)
(0.130841 0.0546396 -7.08175e-19)
(0.0864027 0.0212204 1.29752e-18)
(0.0485843 -0.00857519 1.58796e-18)
(0.0111884 -0.028657 1.98871e-19)
(0.184991 0.243448 1.23797e-19)
(0.13145 0.197282 -1.19576e-19)
(0.079877 0.147667 2.482e-19)
(0.0369091 0.0967165 6.03451e-19)
(-0.00274262 0.0354091 8.58318e-20)
(0.697736 -0.0163377 1.53104e-18)
(0.944195 -0.0274035 -1.80061e-18)
(0.972811 -0.0441852 2.26943e-18)
(0.656579 -0.0405225 3.64269e-19)
(0.281915 -0.0207621 5.36493e-19)
(0.724057 -0.0531171 1.77159e-18)
(0.939685 -0.0969954 7.94617e-18)
(0.864347 -0.125225 1.03348e-18)
(0.59122 -0.107097 1.34912e-18)
(0.245624 -0.0554722 -4.78335e-19)
(0.741404 -0.100936 -1.2232e-18)
(0.856575 -0.175201 -2.29455e-18)
(0.707572 -0.184787 2.9237e-18)
(0.476369 -0.145941 -1.08496e-19)
(0.185702 -0.0742886 3.39629e-19)
(0.712488 -0.179768 2.45619e-20)
(0.676828 -0.233154 -7.67787e-18)
(0.534466 -0.215159 -5.9919e-18)
(0.344828 -0.160679 1.09095e-18)
(0.123461 -0.0775718 5.08065e-19)
(0.558511 -0.256491 4.745e-19)
(0.48152 -0.256831 5.32427e-19)
(0.372229 -0.225121 -8.95337e-19)
(0.230917 -0.160977 -8.86535e-19)
(0.0756107 -0.0726317 -5.13754e-21)
(0.724511 0.37176 1.16574e-18)
(0.899763 0.122325 -1.88547e-19)
(0.692287 0.0205278 2.6589e-19)
(0.651492 0.0395992 -7.62199e-19)
(0.364294 -0.0597166 -1.0165e-19)
(0.82234 0.396044 -1.65611e-19)
(1.11905 0.148572 -5.21942e-19)
(0.883977 0.0407026 8.13426e-19)
(0.808545 0.105613 1.66015e-18)
(0.34279 0.0571866 1.06986e-19)
(0.881281 0.367037 -2.0629e-18)
(1.31876 0.159929 -3.78519e-20)
(1.04767 0.0697163 2.15331e-19)
(0.905834 0.186588 1.52502e-18)
(0.364155 0.179163 -1.3253e-18)
(0.899343 0.301791 1.29359e-18)
(1.46137 0.159029 2.83889e-20)
(1.15974 0.1121 -1.65124e-19)
(0.95289 0.284693 -4.09016e-19)
(0.410047 0.324162 -5.2479e-19)
(0.90031 0.225706 1.41723e-19)
(1.46092 0.153579 -1.86343e-20)
(1.22095 0.159144 -3.75115e-20)
(0.973907 0.390758 1.06687e-20)
(0.477562 0.479733 1.35963e-18)
(0.275021 0.0483702 0)
(0.246042 -0.0104014 6.34383e-19)
(0.160922 -0.0156662 1.28962e-19)
(0.152358 0.00510162 -1.40037e-19)
(0.184593 0.0438414 -1.80819e-18)
(0.571472 0.265792 -1.01853e-17)
(0.617077 0.073659 -2.49442e-18)
(0.456177 0.012393 5.1967e-19)
(0.429591 0.00179335 -6.73818e-19)
(0.409326 -0.0678329 -6.64249e-19)
(0.245792 0.0169142 -1.16106e-21)
(0.229846 0.0150724 1.92799e-18)
(0.213225 0.00506353 5.23649e-19)
(0.186395 0.00180177 3.23211e-19)
(0.162651 0.000824861 0)
(0.599377 -0.162017 -1.05364e-19)
(0.568172 -0.0802069 2.55338e-18)
(0.536441 -0.046438 -1.34581e-19)
(0.484485 -0.0196357 -2.69628e-19)
(0.43193 -0.00441784 7.60188e-19)
)
;

boundaryField
{
    left
    {
        type            fixedValue;
        value           uniform (1 0 0);
    }
    right
    {
        type            zeroGradient;
    }
    down
    {
        type            noSlip;
    }
    up
    {
        type            noSlip;
    }
    cylinder
    {
        type            noSlip;
    }
    defaultFaces
    {
        type            empty;
    }
}


// ************************************************************************* //
