# Selection   : all
# Cells       : 1800
# Volume      : 7.372328e+01
# Time        	minMag(U)
1.75          	5.226240e-03
1.775         	3.584773e-03
1.8           	3.102349e-03
