# Selection   : all
# Cells       : 1800
# Volume      : 7.372328e+01
# Time        	max(p)
2.55          	1.196698e+00
2.575         	1.799721e+00
2.6           	1.852414e+00
