/*--------------------------------*- C++ -*----------------------------------*\
  =========                 |
  \\      /  F ield         | OpenFOAM: The Open Source CFD Toolbox
   \\    /   O peration     | Website:  https://openfoam.org
    \\  /    A nd           | Version:  13
     \\/     M anipulation  |
\*---------------------------------------------------------------------------*/
FoamFile
{
    format      ascii;
    class       surfaceScalarField;
    location    "9.69";
    object      phi;
}
// * * * * * * * * * * * * * * * * * * * * * * * * * * * * * * * * * * * * * //

dimensions      [0 3 -1 0 0 0 0];

internalField   nonuniform List<scalar> 
823
(
-0.00223901
0.0204727
-0.0182337
0.0155296
0.0100778
-0.0278464
0.0765607
-0.0376047
-0.0234265
0.17543
-0.103682
0.00481273
-0.131914
-0.00896667
0.316311
0.00641871
0.014054
0.0564184
-0.0399219
0.152349
-0.133535
0.264736
-0.216069
-0.288935
0.421757
0.0257149
-0.0116609
0.116056
-0.130263
0.23101
-0.248489
0.341347
-0.326407
-0.370622
0.423034
0.0473928
-0.0590536
0.146563
-0.229433
0.230582
-0.332508
0.280025
-0.37585
-0.387667
0.29707
0.05978
-0.118834
0.130547
-0.3002
0.169394
-0.371355
0.183385
-0.38984
0.191416
-0.395698
-0.0101038
0.0186235
-0.00851964
-0.0327653
0.0500836
-0.0274221
-0.0559771
0.0584192
-0.0352075
-0.072635
0.0573235
-0.0406655
0.0568268
-0.0802749
-0.0491869
0.000698343
0.0179251
-0.00556925
0.0563512
-0.0204484
0.0732984
-0.037483
0.0743581
0.0692201
-0.0498763
0.00755885
0.0103663
0.0219412
0.0419688
0.0318151
0.0634244
0.0350881
0.0710852
0.0688438
0.0354643
0.00143665
0.00892963
0.0146907
0.0287148
0.0329987
0.0451164
0.054576
0.0495079
0.0528353
0.0705845
-0.00930407
-0.00843565
0.0132542
0.0675749
0.111444
0.196537
0.943196
-1.22001
0.543717
-0.650813
0.303633
0.496745
-1.89956
1.94653
0.446925
-0.2938
0.343619
0.26945
-0.192431
0.288253
0.605067
0.599718
-0.962278
0.464193
-1.76403
0.419534
-0.249141
0.342792
0.282035
0.358496
0.509267
-1.18951
0.381911
-1.63668
0.377533
-0.244764
0.382396
0.276927
0.152154
0.47581
-1.38839
0.380766
-1.54163
0.339202
-0.203199
0.376056
0.294936
-0.0313385
0.483601
-1.57706
0.362542
-1.42058
0.244581
-0.0852381
0.251456
1.26055
-0.110493
-1.18139
1.27033
-1.58685
0.862144
-1.01239
0.554597
0.222309
0.0744189
1.55484
-0.252953
-1.41238
1.19742
-1.22943
0.678624
-0.493588
0.672106
0.228827
-0.113165
1.41352
-0.31405
-1.35242
0.951366
-0.767277
0.645078
-0.187299
0.852162
0.0217432
-0.195219
1.2572
-0.260323
-1.31092
0.800826
-0.310906
0.66016
-0.0466326
0.770426
-0.088523
-0.111448
0.631514
-0.891836
0.320608
0.273975
0.185452
1.09919
0.148481
-1.05626
1.17594
0.220318
1.29241
0.306566
1.30607
0.408098
0.44099
1.01029
0.0882516
-0.950061
1.08276
0.147847
1.18459
0.204736
1.29904
0.293647
0.327651
0.955174
0.0441669
-0.911089
1.01607
0.0869519
1.09964
0.121162
1.22172
0.171571
0.196947
0.928781
0.00942949
-0.894044
0.988706
0.027027
1.06883
0.0410393
1.18245
0.0579494
0.0684735
0.697347
-0.687918
0.724374
0.765414
0.823363
0.134125
0.297104
-0.245244
-0.185985
0.0898853
0.303155
-0.258915
0.0502222
0.313949
-0.274286
0.0170636
0.304354
-0.271195
0.194306
-0.177242
0.0976438
0.333358
-0.133898
0.0621471
0.338651
0.0310827
0.345013
0.00677455
0.328662
0.20108
0.0671779
0.368058
-0.101877
0.0353218
0.370508
0.00836816
0.371967
-0.00591754
0.342948
0.195163
-0.0114034
0.384427
-0.00496591
-0.0280558
0.38716
-0.0358537
0.379765
-0.0274141
0.334508
0.167749
-0.0889521
0.0776809
-0.0916325
-0.0832226
-0.0489149
0.197519
0.104689
-0.251071
-0.0511372
0.143602
0.108576
-0.0546587
0.0888965
0.112929
-0.0582237
0.0359891
0.112195
-0.0592872
0.0784087
-0.0424196
0.1955
0.14889
-0.239701
0.148334
0.155742
0.0961288
0.165134
0.0408983
0.167425
0.119307
0.138371
0.193088
-0.182569
0.0975075
0.196606
0.0580069
0.204635
0.0209729
0.204459
0.14028
0.152532
0.225653
-0.185097
0.113791
0.235348
0.0701281
0.248297
0.0272704
0.247317
0.16755
0.0831255
-0.102717
0.0595583
0.03357
0.00969192
0.406471
0.0551204
-0.0656119
0.425043
0.0312744
-0.0498463
0.408597
0.202351
-0.185905
0.396226
0.192439
-0.180068
0.473291
-0.328136
0.404646
0.0464545
0.417413
0.0185068
0.397579
0.222185
0.386374
0.203644
0.619963
0.398853
0.0435808
0.410354
0.00700614
0.376
0.25654
0.372431
0.207213
0.809825
0.396266
0.0432942
0.393942
0.00933021
0.365376
0.285106
0.356577
0.216012
0.981305
0.38801
0.0512634
0.38088
0.0164608
0.339166
0.326819
0.324036
0.231142
1.20262
0.622598
0.0326858
0.638058
0.00100094
0.69127
0.273607
0.802647
0.119765
1.03401
0.971263
0.635298
0.00140772
0.632583
0.00371616
0.732891
0.173299
0.80358
0.0490761
0.818713
1.01888
0.636517
-0.0310886
0.647932
-0.00769873
0.749598
0.071633
0.782038
0.0166356
0.592251
1.0085
0.628849
-0.055917
0.655933
-0.0347829
0.725325
0.00224074
0.730916
0.0110445
0.305142
1.01803
0.548103
0.51332
0.515561
0.526606
0.831747
1.01001
-0.224736
1.00415
-0.128037
1.01238
-0.110103
1.01185
-0.00443666
0.033275
0.968378
-0.174238
0.944414
-0.104073
0.922122
-0.087811
0.931782
-0.0140965
0.0149961
0.943324
-0.109062
0.917066
-0.0778158
0.891312
-0.062057
0.899421
-0.0222052
0.00332768
0.954618
-0.0456541
0.915468
-0.0386655
0.886432
-0.0330204
0.88391
-0.0196837
-0.00680585
0.786093
0.747428
0.714407
0.694724
0.0489449
0.158106
-0.207051
0.0730884
0.336707
-0.36085
0.0734384
0.389697
-0.390047
0.0639821
0.391047
-0.381591
0.358356
0.0523221
-0.346696
0.0729761
0.0851296
0.14358
0.266103
0.176825
0.356452
0.181227
0.386644
0.376393
0.16319
0.0630059
0.0221237
0.176215
0.152894
0.26621
0.266457
0.32463
0.328225
0.373899
0.327124
0.0317013
-0.0095776
0.134875
0.04972
0.257222
0.14411
0.373304
0.212142
0.285015
0.462188
0.00896812
-0.0185457
0.0652993
-0.00661116
0.167143
0.0422667
0.285939
0.0933456
0.156569
0.414386
0.000602737
-0.0191485
0.0182314
-0.0242398
0.068649
-0.00815089
0.142473
0.0195219
0.0671456
0.231896
0.000984966
-0.0201334
0.00628203
-0.0295369
0.0216643
-0.0235332
0.0498388
-0.00865258
0.0183878
0.0985967
0.00594581
-0.0260792
0.00999384
-0.0335849
0.011934
-0.0254734
0.014755
-0.0114736
0.00631283
0.02683
-0.0127801
-0.0132991
-0.0379319
-0.00843309
-0.0654694
0.00206412
-0.091363
0.01442
0.0299342
-0.114984
-0.0218187
-0.0576739
-0.0908173
-0.117063
-0.136316
0.245598
0.918439
-0.932141
0.283047
0.237736
-0.275185
0.476585
-0.411896
0.218358
0.499902
-0.0475236
0.0242073
0.0150301
0.020739
0.14989
0.867145
0.127463
0.260163
0.428152
-0.712586
0.512578
-0.131949
0.0490458
-0.13842
1.03239
-0.0798574
0.201601
0.402427
-1.19487
0.502914
-0.232436
0.0874661
-0.326116
1.24353
-0.102572
-0.0219438
0.400767
-1.69821
0.479969
-0.311637
0.136123
-0.112796
0.168892
0.417215
0.449197
0.0324189
0.541218
-0.573637
-0.0546921
0.087111
0.0743689
-0.129061
0.145622
-0.0712531
-0.0596133
0.693122
-1.08404
0.505049
0.594346
0.5473
0.0896281
-0.0142438
-0.0753843
0.142036
-0.0524074
0.242871
-0.100836
0.398758
-0.155887
-0.174879
0.201165
-0.163087
0.311948
0.538237
0.844539
0.140895
-0.140528
0.170436
-0.170803
0.107496
-0.146386
0.179785
0.0691742
-0.154141
0.192463
0.0280279
-0.154659
0.195806
-0.10958
0.137608
0.182537
-0.100763
-0.222302
0.138141
-0.101989
0.0881859
-0.104186
0.0366731
-0.103147
-0.0729068
0.189824
-0.0513898
-0.239197
0.139062
-0.0512272
0.0868052
-0.0519295
0.0354128
-0.0517541
-0.0374941
0.201454
2.13249e-05
-0.252865
0.149205
0.00102184
0.0953009
0.00197427
0.04028
0.00326686
0.00278589
0.20554
-0.256656
0.151904
0.0956541
0.0396337
0.0426271
-0.325909
-0.0634138
0.0174103
-0.356374
-0.00550848
-0.367128
-0.0154084
-0.35095
-0.222459
0.124702
-0.293788
-0.156823
0.0812547
-0.312927
0.0393188
-0.325192
0.0079313
-0.319563
-0.214528
0.143776
-0.253495
-0.18407
0.101393
-0.270543
0.0594634
-0.283263
0.0212594
-0.281359
-0.193268
0.163358
-0.217495
-0.199358
0.119626
-0.226811
0.0729765
-0.236613
0.0288068
-0.237189
-0.164461
0.159414
-0.206473
0.112388
0.0682372
0.0268536
0.390142
0.0987106
-0.0928729
0.389574
0.0978428
-0.0972751
0.355565
0.158284
-0.124275
0.300674
0.0486465
0.00624427
-0.206815
0.336686
0.397612
0.0970781
0.404361
0.0910936
0.393888
0.168757
0.34763
0.0949051
-0.0814873
0.403188
0.0898702
0.414497
0.0797838
0.408314
0.17494
0.371606
0.131613
0.0509216
0.407388
0.0784617
0.421427
0.0657448
0.417635
0.178732
0.390238
0.15901
0.188295
0.408829
0.424728
0.417555
0.396497
0.4172
0.0928513
0.332333
0.0848666
0.245105
0.087228
0.256464
-0.0113584
-0.18255
0.439014
0.510029
0.497621
0.460574
0.45546
0.609595
0.352659
0.0863551
0.274299
0.07836
0.183662
0.0906367
0.10688
0.0767818
0.0314958
0.489478
0.36848
0.275046
0.195005
)
;

boundaryField
{
    left
    {
        type            calculated;
        value           nonuniform List<scalar> 
17
(
-0.60402
-0.60402
-0.60402
-0.60402
-0.60402
-0.39598
-0.39598
-0.39598
-0.39598
-0.39598
-0.39598
-0.39598
-0.39598
-0.39598
-0.39598
-0.510051
-0.510051
)
;
    }
    right
    {
        type            calculated;
        value           nonuniform List<scalar> 
17
(
0.205235
0.508426
0.464133
0.478562
0.464494
0.431312
0.392889
0.369906
0.346191
0.33793
0.345542
0.369181
0.731634
0.85969
0.934216
0.686655
0.074004
)
;
    }
    down
    {
        type            calculated;
        value           uniform 0;
    }
    up
    {
        type            calculated;
        value           uniform 0;
    }
    cylinder
    {
        type            calculated;
        value           uniform 0;
    }
    defaultFaces
    {
        type            empty;
    }
}


// ************************************************************************* //
