/*--------------------------------*- C++ -*----------------------------------*\
  =========                 |
  \\      /  F ield         | OpenFOAM: The Open Source CFD Toolbox
   \\    /   O peration     | Website:  https://openfoam.org
    \\  /    A nd           | Version:  13
     \\/     M anipulation  |
\*---------------------------------------------------------------------------*/
FoamFile
{
    format      ascii;
    class       surfaceScalarField;
    location    "20.8";
    object      phi;
}
// * * * * * * * * * * * * * * * * * * * * * * * * * * * * * * * * * * * * * //

dimensions      [0 3 -1 0 0 0 0];

internalField   nonuniform List<scalar> 
823
(
-0.00345797
0.0180897
-0.0146318
0.0169508
0.00480705
-0.0252159
0.0853216
-0.0504387
-0.017932
0.19184
-0.120567
0.0140486
-0.168882
0.0169816
0.34374
0.0078858
0.0102039
0.0659725
-0.0532797
0.171884
-0.15635
0.29407
-0.242753
-0.317251
0.442439
0.0279111
-0.0177072
0.123986
-0.149354
0.238293
-0.270658
0.340499
-0.344958
-0.382635
0.405883
0.0505441
-0.0682513
0.148539
-0.24735
0.225093
-0.347212
0.265759
-0.385624
-0.395005
0.278128
0.0604837
-0.128735
0.126239
-0.313105
0.160111
-0.381083
0.172482
-0.397996
0.181303
-0.403826
-0.00825318
0.0859378
-0.0776847
-0.0451744
0.15179
-0.114869
-0.0869513
0.157778
-0.116001
-0.12136
0.145114
-0.110704
0.128056
-0.141456
-0.10796
0.0398675
0.0460703
0.078039
0.113619
0.0966106
0.139206
0.104813
0.136912
0.119642
0.113227
0.0296312
0.0164391
0.0815244
0.0617254
0.128329
0.0924013
0.163485
0.101756
0.100675
0.182451
0.00871851
0.0077206
0.0390484
0.0313955
0.0813279
0.0501218
0.130715
0.052369
0.0576439
0.173747
-0.00691116
-0.000731561
0.0314582
0.0978758
0.172501
0.263117
0.494269
-0.898841
0.571339
-1.71948
1.41126
0.543226
-1.07055
1.09867
0.496364
0.656238
-0.609376
0.273588
-0.227108
0.467488
0.140008
0.660382
-1.91238
0.611046
-1.02122
0.522485
0.744799
0.31543
0.329886
-0.00742741
0.481462
-2.06395
0.553307
-1.09306
0.510749
0.787357
0.339102
0.365312
-0.198993
0.37665
-2.07529
0.460119
-1.17653
0.472708
0.774769
0.317586
0.468944
-0.495436
0.370701
-1.97705
0.330692
-1.13652
0.388682
0.716779
0.190988
1.4846
-0.705955
-1.27408
1.09848
-1.59093
0.578884
-0.616923
0.63914
0.656523
-0.0647113
1.42898
-0.720298
-1.41464
0.841641
-1.00359
0.392996
-0.168279
0.760385
0.289134
-0.27268
1.27379
-0.634326
-1.35976
0.790764
-0.520562
0.569391
0.0530943
0.940667
-0.0821423
-0.302897
1.04447
-0.374822
-1.30398
0.667656
-0.143746
0.692812
0.0279379
0.798924
-0.188254
-0.150387
0.458212
-0.833034
0.314466
0.342404
0.154149
1.11153
0.145007
-1.07523
1.18915
0.200507
1.30263
0.292403
1.36097
0.384095
0.430629
1.00405
0.0893843
-0.948427
1.08016
0.124396
1.17386
0.198703
1.29907
0.258882
0.315064
0.970164
0.04229
-0.923069
1.0273
0.0672644
1.11044
0.115555
1.2261
0.143226
0.181401
0.944674
0.0058931
-0.908277
0.995228
0.0167103
1.07618
0.034598
1.17696
0.042447
0.0543893
0.68489
-0.678997
0.7016
0.736198
0.778645
0.139147
0.30312
-0.248244
-0.194023
0.0930517
0.308534
-0.262439
0.0523959
0.319261
-0.278606
0.0181351
0.3104
-0.276139
0.199497
-0.181362
0.100605
0.339029
-0.136513
0.0645743
0.344564
0.0327225
0.351113
0.00783219
0.33529
0.207329
0.0721393
0.375691
-0.108801
0.0394947
0.377209
0.0115158
0.379092
-0.00469845
0.351505
0.20263
-0.00754978
0.390464
-0.00722311
-0.0245115
0.394171
-0.0331874
0.387768
-0.0260759
0.344393
0.176554
-0.081967
0.068605
-0.0857921
-0.0791075
-0.0478195
0.198179
0.108966
-0.25185
-0.0552946
0.144013
0.113142
-0.0589766
0.0889953
0.117714
-0.0626955
0.0360659
0.117024
-0.0640946
0.0821272
-0.0460613
0.19416
0.152
-0.237193
0.147739
0.159562
0.0958703
0.169583
0.0407339
0.17216
0.122861
0.136592
0.19694
-0.181532
0.0957658
0.200389
0.0568065
0.208542
0.0204425
0.208524
0.143304
0.154094
0.229078
-0.186233
0.115182
0.239301
0.0712488
0.252475
0.027983
0.25179
0.171287
0.0836928
-0.102858
0.0605546
0.0344237
0.0100748
0.408684
0.0440404
-0.0567445
0.425546
0.0498362
-0.0666988
0.408195
0.208738
-0.191387
0.396944
0.214316
-0.203064
0.498823
-0.35373
0.406855
0.0331654
0.418175
0.0385156
0.397979
0.228934
0.384798
0.227497
0.646428
0.400505
0.0286399
0.411246
0.0277751
0.374324
0.265856
0.372513
0.229307
0.837409
0.39696
0.0276596
0.392579
0.032156
0.364884
0.293551
0.354306
0.239885
1.00548
0.387047
0.0365924
0.378807
0.0403953
0.33689
0.335468
0.323877
0.252898
1.2265
0.619454
0.0211589
0.631263
0.028586
0.688756
0.277975
0.792563
0.149091
1.02688
0.992185
0.627075
-0.00189561
0.617317
0.0383438
0.738715
0.156577
0.809733
0.078073
0.809045
1.02757
0.624987
-0.0228624
0.648697
0.0146344
0.771385
0.0338889
0.796414
0.053044
0.588175
1.01728
0.627852
-0.046694
0.676963
-0.034477
0.729137
-0.018285
0.742973
0.039208
0.299427
1.03172
0.557326
0.522849
0.504564
0.543772
0.8432
1.03368
-0.235517
1.02231
-0.125144
1.03254
-0.119035
1.02503
0.000291339
0.0184035
0.970266
-0.178217
0.946132
-0.101009
0.921468
-0.0943722
0.931427
-0.00966709
0.0014031
0.948372
-0.109304
0.926541
-0.0791785
0.899681
-0.0675116
0.91442
-0.0244068
-0.00724577
0.970478
-0.0480618
0.933558
-0.0422585
0.90354
-0.0374934
0.902248
-0.0231148
-0.0132744
0.795138
0.752879
0.715386
0.692271
0.0463921
0.149485
-0.195877
0.0700599
0.321492
-0.34516
0.070689
0.374153
-0.374782
0.0615253
0.375853
-0.36669
0.344012
0.0494858
-0.331972
0.0679839
0.0815012
0.136561
0.252915
0.169365
0.341349
0.173655
0.371563
0.361308
0.156359
0.0580183
0.0234829
0.165855
0.145079
0.254085
0.253119
0.312329
0.313318
0.35824
0.315396
0.0282834
-0.00480047
0.124598
0.0487641
0.241552
0.136165
0.353905
0.200965
0.272106
0.44004
0.00714425
-0.0119447
0.057962
-0.00205363
0.152741
0.0413861
0.265402
0.0883042
0.141704
0.395804
0.000562997
-0.0125077
0.0130227
-0.0145133
0.0531702
0.00123853
0.117581
0.0238936
0.0637265
0.195558
0.00175632
-0.014264
0.00647749
-0.0192345
0.0184145
-0.0106985
0.0392184
0.00308964
0.0290427
0.0739023
0.0273724
-0.0416364
0.0502951
-0.0421571
0.0543867
-0.0147901
0.0516788
0.00579761
0.0217239
0.0589975
-0.0264905
-0.0151459
-0.0706034
0.00195577
-0.113483
0.0280892
-0.152652
0.0449667
0.0551748
-0.186103
-0.0928306
-0.205744
-0.293655
-0.359393
-0.412179
0.167172
1.10403
-1.07564
0.34508
-0.179649
0.00174091
0.377107
0.0219897
-0.0540161
0.248042
0.242457
-0.113392
-0.0529809
0.0813027
0.106197
1.07174
0.283326
-0.356779
0.454959
-0.149643
0.327087
0.370329
0.00220959
-0.0509735
1.18171
0.175237
-0.582989
0.535459
-0.509866
0.413008
0.492781
0.0768089
-0.214416
1.21002
0.180466
-0.977872
0.562623
-0.892023
0.473281
0.582124
0.155275
-0.101
0.332391
0.539034
0.511782
-0.0684279
0.617024
-0.548596
-0.0262078
-0.0422201
0.0414634
-0.0676712
0.0871607
-0.0456973
-0.0739907
0.576642
-1.03526
0.536163
0.414475
0.255386
0.0844187
-0.0130991
-0.0713196
0.134984
-0.050565
0.233336
-0.0983525
0.375874
-0.142538
-0.172722
0.191839
-0.155453
0.297634
0.514678
0.81218
0.139024
-0.135229
0.165213
-0.169007
0.105576
-0.140639
0.174087
0.0675989
-0.14782
0.185797
0.0272615
-0.147813
0.18815
-0.104007
0.131269
0.177967
-0.0960605
-0.217136
0.134428
-0.0970994
0.085578
-0.0989699
0.0353763
-0.0976113
-0.0686308
0.188756
-0.0472037
-0.237613
0.138328
-0.0466716
0.0862459
-0.0468877
0.0351125
-0.0464779
-0.0335183
0.201247
0.0042932
-0.252744
0.148996
0.00557983
0.09512
0.0069878
0.0401427
0.00849942
0.00662443
0.204137
-0.255138
0.15074
0.0950321
0.0394369
0.0395913
-0.312381
-0.0591827
0.0154029
-0.342501
-0.00625772
-0.353121
-0.0150815
-0.336336
-0.210959
0.118965
-0.282031
-0.149314
0.077577
-0.301113
0.0374398
-0.312984
0.00742261
-0.306319
-0.203536
0.137299
-0.243441
-0.17589
0.0966071
-0.260422
0.0563549
-0.272732
0.0199001
-0.269864
-0.183636
0.154885
-0.209324
-0.189001
0.113302
-0.218839
0.0688286
-0.228259
0.0268872
-0.227923
-0.156749
0.152466
-0.196578
0.107715
0.0652528
0.0254803
0.392045
0.0975043
-0.0935699
0.389318
0.108137
-0.10541
0.354987
0.162993
-0.128662
0.296257
0.069666
-0.0109354
-0.187964
0.315213
0.399926
0.0935582
0.404836
0.103226
0.39397
0.17386
0.345518
0.118118
-0.0595826
0.405
0.0845383
0.415009
0.0932168
0.409232
0.179637
0.371351
0.155999
0.0741562
0.409043
0.0714748
0.421488
0.0807719
0.417382
0.183743
0.390614
0.182767
0.212026
0.41071
0.424783
0.417139
0.396841
0.415385
0.0946662
0.327282
0.0881026
0.237504
0.0897783
0.238347
-0.000843338
-0.173871
0.412218
0.511147
0.49384
0.454956
0.443177
0.58452
0.331563
0.0806549
0.258692
0.072871
0.17259
0.086102
0.100358
0.0722318
0.0290386
0.468597
0.352467
0.26268
0.185597
)
;

boundaryField
{
    left
    {
        type            calculated;
        value           nonuniform List<scalar> 
17
(
-0.60402
-0.60402
-0.60402
-0.60402
-0.60402
-0.39598
-0.39598
-0.39598
-0.39598
-0.39598
-0.39598
-0.39598
-0.39598
-0.39598
-0.39598
-0.510051
-0.510051
)
;
    }
    right
    {
        type            calculated;
        value           nonuniform List<scalar> 
17
(
0.161151
0.262698
0.21972
0.271896
0.338408
0.394815
0.439949
0.449884
0.480643
0.487077
0.494224
0.515281
0.894839
0.968354
0.970885
0.646414
0.00376232
)
;
    }
    down
    {
        type            calculated;
        value           uniform 0;
    }
    up
    {
        type            calculated;
        value           uniform 0;
    }
    cylinder
    {
        type            calculated;
        value           uniform 0;
    }
    defaultFaces
    {
        type            empty;
    }
}


// ************************************************************************* //
