/*--------------------------------*- C++ -*----------------------------------*\
  =========                 |
  \\      /  F ield         | OpenFOAM: The Open Source CFD Toolbox
   \\    /   O peration     | Website:  https://openfoam.org
    \\  /    A nd           | Version:  13
     \\/     M anipulation  |
\*---------------------------------------------------------------------------*/
FoamFile
{
    format      ascii;
    class       surfaceScalarField;
    location    "0.955";
    object      phi;
}
// * * * * * * * * * * * * * * * * * * * * * * * * * * * * * * * * * * * * * //

dimensions      [0 3 -1 0 0 0 0];

internalField   nonuniform List<scalar> 
823
(
0.0113783
-0.0505538
0.0391755
0.0387599
-0.133435
0.106053
0.0788335
-0.205877
0.165804
0.130172
-0.26887
0.217532
-0.323261
0.259419
0.194014
0.0107034
-0.0612572
0.0361439
-0.158875
0.0726491
-0.242382
0.117973
-0.314194
-0.375601
0.170313
0.00837712
-0.0696343
0.0282853
-0.178784
0.0567257
-0.270823
0.0918102
-0.349279
-0.41605
0.132259
0.00529925
-0.0749335
0.0179955
-0.19148
0.0362293
-0.289057
0.0588834
-0.371933
-0.442414
0.0852473
0.00196194
-0.0768955
0.00662994
-0.196148
0.0132895
-0.295716
0.0215216
-0.380165
0.0310617
-0.451954
0.00661248
-0.0107685
0.00415596
0.0221215
-0.0309446
0.0154355
0.0453041
-0.0485493
0.0253667
0.0744352
-0.0639973
0.0348662
-0.0770945
0.108074
0.0434555
0.00573754
-0.0165062
0.0214325
-0.0466397
0.0466125
-0.0737293
0.0796269
-0.0970117
-0.116136
0.118669
0.00638807
-0.0228942
0.0236367
-0.0638884
0.0511916
-0.101284
0.0878461
-0.133666
-0.160141
0.131851
0.0075353
-0.0304296
0.027083
-0.083436
0.0573042
-0.131505
0.0969986
-0.17336
-0.207909
0.144767
0.00874591
0.0313632
0.0656614
0.109833
0.161343
0.322405
-0.958625
0.744294
0.474594
-0.824273
0.672084
0.5754
-0.358138
0.257332
0.619479
-0.0704877
0.0264088
0.00240501
-0.0081557
0.330081
-1.17004
0.470749
-0.964941
0.57677
-0.464159
0.644036
-0.137754
-0.0232638
0.336242
-1.37443
0.460472
-1.08917
0.562621
-0.566308
0.644319
-0.219452
-0.0672864
0.337221
-1.56688
0.447447
-1.1994
0.54043
-0.659292
0.615574
-0.294596
-0.106908
0.327607
-1.73315
0.427831
-1.29962
0.508708
-0.740169
0.571677
-0.357565
-0.137398
1.19773
-1.59056
-1.34032
1.00765
-1.10954
0.885055
-0.617575
0.82475
-0.297261
-0.114199
1.32965
-1.13312
-1.78709
0.981523
-0.761411
0.772676
-0.408728
0.676148
-0.200733
-0.0796908
1.18935
-0.607674
-1.7148
0.816064
-0.388124
0.609928
-0.202592
0.510692
-0.101498
-0.041986
0.822342
-0.185289
-1.24473
0.545282
-0.111064
0.396273
-0.0535824
0.322103
-0.0273277
-0.0121878
0.306715
-0.492004
0.195651
0.142069
0.114741
1.56259
0.0462489
-1.57778
1.52169
0.126153
1.46266
0.191283
1.39634
0.236635
0.250038
1.67586
0.0356505
-1.66526
1.69931
0.102694
1.7308
0.159794
1.76527
0.202166
0.228225
1.38797
0.0184771
-1.37079
1.43705
0.053608
1.51387
0.0829775
1.61014
0.105892
0.123567
0.977699
0.0053144
-0.964536
1.01588
0.0154233
1.07582
0.0230448
1.15388
0.0278276
0.0327213
0.392987
-0.387673
0.408411
0.431455
0.459283
0.128769
0.327629
-0.264674
-0.191725
0.0781585
0.273215
-0.222604
0.0385249
0.209792
-0.170158
0.0113404
0.136442
-0.109257
0.0519521
-0.0406117
0.115953
0.378907
-0.167231
0.0714992
0.317669
0.0356198
0.245671
0.0105617
0.1615
0.0625138
0.0888495
0.418274
-0.128217
0.0548115
0.351707
0.0272883
0.273194
0.00806521
0.180723
0.070579
0.0552406
0.443533
-0.0804991
0.0337631
0.373184
0.0166551
0.290302
0.00486435
0.192514
0.0754434
0.0174805
-0.025902
0.0104997
0.00508594
0.00145208
0.0727035
0.0873823
-0.107363
-0.0527226
0.0429317
0.0737553
-0.0439835
0.019758
0.0569786
-0.0338048
0.00514458
0.0368369
-0.0222235
0.0133077
-0.00816319
0.0760115
0.125963
-0.114592
0.0437105
0.106056
0.0196362
0.0810529
0.00508777
0.0513854
0.0183955
0.0843419
0.168599
-0.126978
0.0490506
0.141348
0.0227132
0.10739
0.00616697
0.0679316
0.0245625
0.0940156
0.2147
-0.140117
0.055744
0.179619
0.0265125
0.136622
0.00742389
0.0870202
0.0319864
0.107384
-0.157358
0.064399
0.0308625
0.00862527
0.513556
0.177712
-0.295288
0.564237
0.158186
-0.208867
0.497987
0.314079
-0.247829
0.335397
0.802715
-0.640126
1.04195
-0.813912
0.515093
0.0585984
0.563299
0.10998
0.488865
0.388513
0.331608
0.959973
1.25896
0.515922
-0.0613442
0.550245
0.0756573
0.467956
0.470802
0.328001
1.09993
1.45999
0.512489
-0.177853
0.527778
0.0603677
0.442107
0.556474
0.323623
1.21841
1.64349
0.499842
-0.281716
0.494357
0.0658526
0.412302
0.638529
0.3118
1.31891
1.79793
0.761804
-0.439499
0.840688
-0.0130317
0.955964
0.523253
1.16944
1.10543
1.61979
1.34759
0.705011
-0.54049
0.778421
-0.0864413
0.953522
0.348151
1.29748
0.761481
1.14353
1.77373
0.602249
-0.538719
0.63235
-0.116542
0.803185
0.177316
1.17243
0.392239
0.612046
1.70391
0.448515
-0.383214
0.405076
-0.0731034
0.535834
0.0465586
0.815994
0.112078
0.186909
1.24113
0.220807
0.147703
0.194262
0.306339
0.493249
1.4026
-0.24674
1.46575
-0.230375
1.523
-0.185465
1.56316
-0.120659
-0.0405262
1.75264
-0.225646
1.71972
-0.19746
1.69061
-0.156349
1.67083
-0.100881
-0.0349545
1.60146
-0.123193
1.50876
-0.104757
1.43456
-0.0821509
1.38705
-0.0533738
-0.0186959
1.15107
-0.0331349
1.07431
-0.0279902
1.0153
-0.0231448
0.977572
-0.0156457
-0.00566046
0.460114
0.432124
0.408979
0.393333
0.00250157
0.043009
-0.0455106
0.00732842
0.101057
-0.105884
0.0160962
0.148403
-0.157171
0.0165795
0.151918
-0.152401
0.114035
0.014815
-0.11227
0.00682888
0.0361801
0.0201792
0.0877067
0.0409604
0.127622
0.0482581
0.14462
0.116388
0.0459045
0.00880997
0.0273702
0.0270786
0.0694381
0.0521541
0.102547
0.0730969
0.123677
0.114042
0.0754433
0.00780178
0.0195684
0.025515
0.0517248
0.0497512
0.0783106
0.0774357
0.0959929
0.099247
0.0922305
0.00509887
0.0144695
0.0179732
0.0388505
0.0367678
0.059516
0.0600135
0.0727471
0.0767441
0.0825163
0.00342316
0.0110464
0.0125789
0.0296948
0.027445
0.0446499
0.0470654
0.0531267
0.0561441
0.0676654
0.00222148
0.00882488
0.00893401
0.0229822
0.0222836
0.0313003
0.0410476
0.0343628
0.0347472
0.0624444
0.00168197
0.00714292
0.0101649
0.0144993
0.026248
0.0152172
0.0468257
0.013785
0.0114748
0.0700981
0.0037804
0.00336253
0.0176046
0.000675026
0.036961
-0.00413928
0.0600013
-0.00925533
-0.0144553
0.0859312
0.00751841
0.023629
0.0448564
0.0704672
0.0994673
0.153972
0.0195095
-0.105817
0.243705
-0.130684
0.040952
0.265202
-0.0384469
0.0169492
0.269881
0.00465412
-0.00933324
-0.000692873
-0.00519724
0.215042
-0.133088
0.325721
-0.241364
0.352066
-0.0647918
0.354257
0.00246333
-0.0030244
0.260423
-0.323413
0.391942
-0.372883
0.434484
-0.107334
0.435506
0.00144206
-0.000816862
0.293666
-0.531148
0.439343
-0.518559
0.503755
-0.171747
0.510014
-0.00481607
0.00444262
0.312613
0.466138
0.551724
0.573317
0.0707097
0.0386386
-0.109348
0.0787251
-0.00801546
0.0831293
-0.00440412
0.0803761
0.00275315
0.00130153
0.194228
-0.261406
0.227164
0.239709
0.233129
0.0207331
-0.00433173
-0.0164013
0.034284
-0.0135509
0.0567635
-0.0224795
0.0856242
-0.0288608
-0.023724
0.0539263
-0.043443
0.0862799
0.139244
0.202613
0.0478219
-0.0551588
0.0763609
-0.069024
0.0275536
-0.0521791
0.0724474
0.0123373
-0.0443866
0.0596028
0.00331838
-0.0300428
0.0390617
-0.0112608
0.0145792
0.0453536
-0.0322859
-0.0682266
0.0249354
-0.0317608
0.00980949
-0.0292607
0.00218709
-0.0224204
-0.00907369
0.0560298
-0.00670761
-0.0816081
0.0330971
-0.00882816
0.0142563
-0.01042
0.0025807
-0.0107448
-0.00649298
0.070141
0.0215514
-0.0984
0.044853
0.0164598
0.0233735
0.0110596
0.00692098
0.00570773
0.000427987
0.07452
-0.105691
0.0469964
0.0242511
0.00773525
0.0165861
-0.114033
-0.0148234
0.0160951
-0.15191
0.00730704
-0.148383
0.00248927
-0.101066
-0.0430213
0.0482733
-0.116377
-0.0459289
0.0409339
-0.144571
0.020165
-0.127614
0.00682164
-0.0877227
-0.0361997
0.0731266
-0.113971
-0.0755326
0.0521258
-0.12357
0.0270667
-0.102555
0.00880683
-0.0694629
-0.0273929
0.077341
-0.0989752
-0.092337
0.0496233
-0.0958525
0.0254349
-0.0783667
0.0077762
-0.0518041
-0.0196167
0.059949
-0.0825633
0.0365438
0.01778
0.0050375
0.341909
0.583355
-0.529284
0.280582
0.22497
-0.163643
0.24712
0.0559721
-0.022511
0.165217
0.112833
-0.0309289
-0.00110196
0.0972946
0.407667
0.571668
0.371362
0.261275
0.335325
0.0920091
0.233465
0.214693
0.164137
0.459542
0.508105
0.451316
0.269501
0.409035
0.13429
0.283734
0.339993
0.366263
0.494321
0.409764
0.514062
0.24976
0.461473
0.186879
0.31802
0.483447
0.585883
0.510456
0.551349
0.490399
0.33372
0.15867
0.351381
0.084808
0.0738618
0.0798106
0.00499745
0.0724142
0.00739634
-0.036983
0.109397
0.332149
0.242367
0.224854
0.201321
0.261632
0.0856732
0.023724
0.0567955
0.0288777
0.0342951
0.0225004
0.0207366
0.0135585
0.00433523
0.202793
0.139334
0.0863015
0.0539312
)
;

boundaryField
{
    left
    {
        type            calculated;
        value           nonuniform List<scalar> 
17
(
-0.60402
-0.60402
-0.60402
-0.60402
-0.60402
-0.39598
-0.39598
-0.39598
-0.39598
-0.39598
-0.39598
-0.39598
-0.39598
-0.39598
-0.39598
-0.510051
-0.510051
)
;
    }
    right
    {
        type            calculated;
        value           nonuniform List<scalar> 
17
(
0.0790746
0.229234
0.275772
0.356589
0.433298
0.504754
0.569604
0.625229
0.669705
0.688342
0.655196
0.602168
0.80155
0.64164
0.472988
0.292305
0.102553
)
;
    }
    down
    {
        type            calculated;
        value           uniform 0;
    }
    up
    {
        type            calculated;
        value           uniform 0;
    }
    cylinder
    {
        type            calculated;
        value           uniform 0;
    }
    defaultFaces
    {
        type            empty;
    }
}


// ************************************************************************* //
