# Selection   : all
# Cells       : 440
# Volume      : 7.374263e+01
# Time        	min(p)
1             	-1.917790e+00
1.05          	-1.914833e+00
1.1           	-1.915600e+00
