/*--------------------------------*- C++ -*----------------------------------*\
  =========                 |
  \\      /  F ield         | OpenFOAM: The Open Source CFD Toolbox
   \\    /   O peration     | Website:  https://openfoam.org
    \\  /    A nd           | Version:  13
     \\/     M anipulation  |
\*---------------------------------------------------------------------------*/
FoamFile
{
    format      ascii;
    class       volScalarField;
    location    "0.9";
    object      p;
}
// * * * * * * * * * * * * * * * * * * * * * * * * * * * * * * * * * * * * * //

dimensions      [0 2 -2 0 0 0 0];

internalField   nonuniform List<scalar> 
1800
(
-1.28322
-1.27707
-1.27258
-1.265
-1.24434
-1.20456
-1.14488
-1.06947
-0.984308
-0.903609
-1.41828
-1.41106
-1.40423
-1.39173
-1.36329
-1.31426
-1.24601
-1.1649
-1.07911
-0.999777
-1.55046
-1.54207
-1.5316
-1.51162
-1.47247
-1.41155
-1.33278
-1.24387
-1.15252
-1.06668
-1.67882
-1.66894
-1.65316
-1.62304
-1.57089
-1.49693
-1.40794
-1.31248
-1.21757
-1.12985
-1.80045
-1.78854
-1.76541
-1.72248
-1.65509
-1.56707
-1.46757
-1.36521
-1.26614
-1.17492
-1.91114
-1.89633
-1.8638
-1.80621
-1.72259
-1.62106
-1.5123
-1.4044
-1.30223
-1.20892
-2.00492
-1.98623
-1.94252
-1.8689
-1.76892
-1.65464
-1.53737
-1.42415
-1.31872
-1.22291
-2.07504
-2.05183
-1.99595
-1.90588
-1.7907
-1.6654
-1.54108
-1.42359
-1.3155
-1.2177
-2.11468
-2.08646
-2.01825
-1.91222
-1.78356
-1.64899
-1.51886
-1.3978
-1.2874
-1.18782
-2.11817
-2.08484
-2.00464
-1.88446
-1.74486
-1.60333
-1.46917
-1.34581
-1.23399
-1.13318
-0.0914172
-0.091755
-0.0880376
-0.0781726
-0.0621761
-0.0405866
-0.0146287
0.0148178
0.0437902
0.0709013
-0.139343
-0.139335
-0.135646
-0.126092
-0.11041
-0.0887324
-0.0619236
-0.0315182
1.73419e-05
0.0302919
-0.215357
-0.214929
-0.211242
-0.202161
-0.186922
-0.165062
-0.136902
-0.104161
-0.0687257
-0.033342
-0.316059
-0.315177
-0.311633
-0.303347
-0.288789
-0.266639
-0.236788
-0.200644
-0.160017
-0.117441
-0.436767
-0.43543
-0.432183
-0.425089
-0.411577
-0.389149
-0.357289
-0.317092
-0.270398
-0.219069
-0.571679
-0.569736
-0.566776
-0.561723
-0.549203
-0.526503
-0.492422
-0.447888
-0.394964
-0.334508
-0.714769
-0.71194
-0.709715
-0.705595
-0.69422
-0.671207
-0.634807
-0.586075
-0.52755
-0.459118
-0.860083
-0.856606
-0.854511
-0.851198
-0.84021
-0.816139
-0.776915
-0.724005
-0.660605
-0.586165
-1.00416
-0.999896
-0.997574
-0.994217
-0.982127
-0.955268
-0.911608
-0.853379
-0.784453
-0.705147
-1.14528
-1.14009
-1.13702
-1.13236
-1.11709
-1.0849
-1.03412
-0.967941
-0.890826
-0.806903
0.19349
0.158061
0.15229
0.126076
0.0992334
0.0771232
0.058104
0.0406892
0.0241387
0.00809492
0.165073
0.147368
0.147281
0.123244
0.0973819
0.0757666
0.0570822
0.0399691
0.0237082
0.00792351
0.123654
0.132473
0.140496
0.119567
0.095143
0.0742391
0.055989
0.0392241
0.0232715
0.00774951
0.0716829
0.113839
0.131754
0.115013
0.0925184
0.0725352
0.0548173
0.0384488
0.0228248
0.00757246
0.0113204
0.0920979
0.121047
0.109552
0.0895023
0.0706491
0.0535613
0.0376381
0.0223645
0.00739229
-0.0570323
0.0677185
0.108626
0.103235
0.0860994
0.0685784
0.0522174
0.0367879
0.0218875
0.00720942
-0.135364
0.0401929
0.0945151
0.0961477
0.0823373
0.0663331
0.0507885
0.0358968
0.021392
0.00702516
-0.225633
0.00759284
0.0783028
0.0881304
0.0781676
0.0639057
0.0492748
0.0349637
0.0208771
0.00684227
-0.32552
-0.0313122
0.059427
0.0787553
0.0733633
0.0611984
0.0476354
0.0339698
0.0203344
0.00666339
-0.42533
-0.0746968
0.0385389
0.0681201
0.0678673
0.0581518
0.045832
0.0328916
0.0197487
0.00648855
-0.459068
-0.102227
0.0188143
0.055033
0.0598941
0.0532774
0.0427847
0.0309916
0.0187033
0.00620344
-0.424768
-0.118658
-0.00427444
0.0367879
0.0477791
0.04561
0.0379702
0.0280252
0.0170994
0.00569642
-0.386789
-0.125354
-0.0153689
0.0255569
0.0387712
0.0391985
0.0336567
0.025269
0.0155741
0.00520471
-0.35274
-0.134114
-0.0294743
0.0127636
0.0291643
0.0326304
0.0293434
0.0225512
0.0140726
0.0047101
-0.324325
-0.139621
-0.0401489
0.00251346
0.0208358
0.0266311
0.0253031
0.0199802
0.0126411
0.00423084
-0.301484
-0.144682
-0.0507801
-0.00717637
0.013098
0.0210444
0.021531
0.0175818
0.0112988
0.00377331
-0.285242
-0.150051
-0.061081
-0.0160657
0.00613039
0.0160004
0.0181099
0.015407
0.01007
0.00334367
-0.276062
-0.156542
-0.0712064
-0.0242755
-2.68362e-05
0.0116036
0.0151351
0.0135237
0.00898917
0.00295604
-0.275367
-0.164439
-0.0799767
-0.0308283
-0.00478476
0.00820775
0.0128212
0.012059
0.00812756
0.00264122
-0.275568
-0.173108
-0.0895475
-0.037654
-0.00919758
0.005286
0.0108748
0.0108333
0.00738125
0.00237455
-0.961552
-1.01564
-1.04793
-1.05791
-1.04997
-1.02365
-0.985717
-0.9329
-0.872881
-0.802826
-0.774431
-0.827105
-0.861461
-0.876872
-0.876202
-0.859688
-0.831449
-0.792606
-0.747416
-0.699882
-0.628635
-0.678668
-0.713283
-0.7323
-0.736366
-0.72732
-0.706486
-0.677075
-0.640131
-0.600637
-0.513364
-0.561916
-0.596459
-0.617552
-0.624734
-0.620598
-0.605064
-0.581668
-0.55069
-0.516707
-0.423779
-0.470804
-0.505053
-0.527317
-0.536841
-0.53607
-0.524738
-0.506032
-0.480403
-0.451577
-0.354172
-0.399926
-0.434057
-0.457195
-0.468678
-0.470488
-0.462652
-0.447794
-0.426518
-0.401703
-0.300679
-0.345791
-0.380187
-0.404225
-0.417422
-0.421341
-0.416315
-0.404409
-0.386476
-0.364754
-0.261915
-0.306748
-0.341823
-0.366856
-0.381624
-0.387299
-0.38467
-0.374945
-0.359596
-0.339552
-0.240233
-0.28549
-0.320877
-0.346291
-0.362419
-0.369622
-0.368973
-0.360929
-0.347526
-0.328453
-0.228697
-0.275105
-0.311982
-0.339442
-0.357364
-0.366455
-0.367451
-0.360924
-0.348369
-0.328991
0.512362
0.451451
0.38169
0.306776
0.225533
0.135816
0.03766
-0.0633947
-0.148573
-0.190438
0.306951
0.239705
0.164862
0.0827414
-0.00839735
-0.110081
-0.221388
-0.335254
-0.430232
-0.476117
0.0837793
0.0125486
-0.0662154
-0.153864
-0.252377
-0.362958
-0.484186
-0.607821
-0.710358
-0.75883
-0.13106
-0.207217
-0.291846
-0.386521
-0.492969
-0.612153
-0.742261
-0.874066
-0.982792
-1.03247
-0.328509
-0.410962
-0.502817
-0.605469
-0.720383
-0.848224
-0.986859
-1.12615
-1.23949
-1.28844
-0.508515
-0.597454
-0.696493
-0.806849
-0.929877
-1.06606
-1.2119
-1.3579
-1.46927
-1.5189
-0.671827
-0.766315
-0.87149
-0.988377
-1.11808
-1.2612
-1.41298
-1.55852
-1.66908
-1.7179
-0.817349
-0.916088
-1.0259
-1.14759
-1.28211
-1.42894
-1.58237
-1.72665
-1.83371
-1.88013
-0.943477
-1.04531
-1.15779
-1.28205
-1.41879
-1.56666
-1.71884
-1.8588
-1.95916
-2.00198
-1.05162
-1.15297
-1.26541
-1.38985
-1.52631
-1.67238
-1.81999
-1.95177
-2.04296
-2.08128
1.84214
1.85778
1.87445
1.89098
1.90638
1.91994
1.93094
1.93919
1.94608
1.95218
1.77571
1.78877
1.80229
1.81519
1.82657
1.83572
1.84193
1.84524
1.84786
1.85133
1.68904
1.69861
1.70787
1.71588
1.72186
1.72512
1.72495
1.72168
1.71855
1.71859
1.58314
1.58872
1.59278
1.59461
1.59374
1.58944
1.58108
1.56935
1.55885
1.55473
1.45779
1.45854
1.45655
1.45137
1.44276
1.42997
1.41238
1.39107
1.37206
1.36342
1.31625
1.31186
1.30279
1.28921
1.2713
1.24839
1.21995
1.18753
1.15876
1.14488
1.15902
1.14895
1.13255
1.11034
1.08271
1.04896
1.00867
0.964029
0.924586
0.905082
0.992646
0.976074
0.950641
0.917916
0.87891
0.832984
0.779811
0.722198
0.671699
0.646374
0.821954
0.798473
0.763312
0.719195
0.667698
0.608223
0.540668
0.468755
0.406431
0.375208
0.659441
0.6207
0.570112
0.511785
0.446597
0.373142
0.291163
0.205144
0.131422
0.0946681
1.60907
1.53382
1.58009
1.54902
1.55062
1.56248
1.57727
1.61195
1.66901
1.77276
1.60241
1.52829
1.57436
1.54234
1.54266
1.55214
1.56382
1.59292
1.64085
1.72931
1.59628
1.52265
1.56861
1.53521
1.53415
1.54086
1.54878
1.57086
1.60708
1.67449
1.59067
1.51697
1.56288
1.52767
1.52511
1.52866
1.53218
1.54565
1.568
1.60776
1.58554
1.51129
1.5572
1.51975
1.51558
1.51551
1.51402
1.51719
1.52406
1.52805
1.58091
1.50565
1.55158
1.51148
1.50558
1.50144
1.49427
1.48534
1.47573
1.43457
1.57677
1.50011
1.54604
1.50289
1.49512
1.48643
1.47288
1.45009
1.42333
1.32601
1.57314
1.4947
1.54058
1.49399
1.48421
1.47054
1.44978
1.41167
1.36656
1.20299
1.57005
1.48947
1.53518
1.48483
1.47286
1.45381
1.42506
1.37028
1.30399
1.06357
1.56756
1.48451
1.52985
1.47545
1.4611
1.43638
1.39924
1.32735
1.23868
0.918948
1.56507
1.47881
1.52296
1.46443
1.44576
1.41377
1.36509
1.27355
1.15965
0.77636
1.56407
1.47294
1.51537
1.45302
1.42878
1.38961
1.33021
1.22459
1.08508
0.735846
1.56497
1.46788
1.50831
1.44227
1.41272
1.36753
1.29876
1.18419
1.02583
0.710675
1.56825
1.4637
1.5018
1.43235
1.39782
1.34783
1.27054
1.15173
0.978486
0.697427
1.5744
1.46042
1.49573
1.42325
1.38435
1.33059
1.2459
1.12604
0.94201
0.692573
1.58403
1.45798
1.49118
1.41518
1.37258
1.31586
1.22522
1.10596
0.915631
0.690167
1.59703
1.45519
1.48323
1.4077
1.36258
1.3037
1.20865
1.09107
0.897101
0.688648
1.61961
1.45648
1.48045
1.40144
1.35475
1.29425
1.19632
1.08066
0.884622
0.688539
1.6319
1.44911
1.46976
1.39583
1.34908
1.28766
1.18833
1.07453
0.877533
0.690288
1.70075
1.46039
1.47105
1.39259
1.34732
1.2841
1.18471
1.07145
0.874287
0.692331
0.489622
0.318531
0.121068
-0.068582
-0.24137
-0.398622
-0.542793
-0.673584
-0.789523
-0.885131
0.431646
0.296913
0.146296
-0.00356559
-0.144544
-0.275912
-0.398507
-0.512249
-0.61483
-0.702665
0.41033
0.297336
0.177262
0.0544898
-0.0655883
-0.181021
-0.290491
-0.392357
-0.484205
-0.563278
0.416433
0.31356
0.208414
0.102921
-0.00185067
-0.104781
-0.203604
-0.296002
-0.379322
-0.452182
0.431839
0.335573
0.238912
0.144264
0.0506972
-0.0424374
-0.133278
-0.219153
-0.297007
-0.365689
0.448856
0.357968
0.267474
0.180004
0.0941064
0.0080466
-0.077075
-0.158449
-0.232623
-0.298301
0.464674
0.37839
0.292766
0.210242
0.129285
0.0478719
-0.0332895
-0.111344
-0.182728
-0.24618
0.479291
0.396697
0.314741
0.23529
0.156878
0.0778486
-0.000957696
-0.0767972
-0.146374
-0.2084
0.493386
0.414315
0.335295
0.257055
0.178669
0.0995549
0.0211539
-0.0540841
-0.123547
-0.18599
0.506281
0.430304
0.352963
0.274071
0.19389
0.113492
0.0347963
-0.0403917
-0.110247
-0.173496
-2.00191
-1.94907
-1.83215
-1.68699
-1.54231
-1.41164
-1.29894
-1.20479
-1.1294
-1.07384
-2.05023
-2.00489
-1.90543
-1.77592
-1.64166
-1.51718
-1.40778
-1.31497
-1.24006
-1.18547
-2.01672
-1.97832
-1.89931
-1.79143
-1.67315
-1.55878
-1.45498
-1.36425
-1.2885
-1.23062
-1.91726
-1.88451
-1.82581
-1.74326
-1.64612
-1.54636
-1.45167
-1.36574
-1.29159
-1.23245
-1.77624
-1.74795
-1.70673
-1.64965
-1.57731
-1.4968
-1.4152
-1.33703
-1.26534
-1.20292
-1.6204
-1.59519
-1.56702
-1.53155
-1.48383
-1.42472
-1.35851
-1.28924
-1.22164
-1.15915
-1.47238
-1.44933
-1.42927
-1.41015
-1.38527
-1.35009
-1.30401
-1.25
-1.19195
-1.13622
-1.35083
-1.3284
-1.31244
-1.30379
-1.2976
-1.28468
-1.25828
-1.21635
-1.16347
-1.10374
-1.2667
-1.24566
-1.23266
-1.23176
-1.24009
-1.2458
-1.2372
-1.20833
-1.1613
-1.11012
-1.21656
-1.20059
-1.19409
-1.20181
-1.22201
-1.2407
-1.24191
-1.21584
-1.15763
-1.08205
-1.1679
-1.16061
-1.16508
-1.1854
-1.21489
-1.24122
-1.2479
-1.22423
-1.1648
-1.06014
-1.07684
-1.07793
-1.09095
-1.11805
-1.1516
-1.17679
-1.18123
-1.15558
-1.09623
-0.97662
-0.925586
-0.930272
-0.943067
-0.964894
-0.988229
-1.00236
-0.995228
-0.961692
-0.898117
-0.778213
-0.730987
-0.734251
-0.739992
-0.747633
-0.752356
-0.747008
-0.725813
-0.684114
-0.622609
-0.518523
-0.532865
-0.533713
-0.532391
-0.527817
-0.517871
-0.49895
-0.469354
-0.426445
-0.36942
-0.297007
-0.361639
-0.361236
-0.356457
-0.346013
-0.329464
-0.305643
-0.27421
-0.235238
-0.190115
-0.142448
-0.230286
-0.229808
-0.224454
-0.212659
-0.194695
-0.17068
-0.140986
-0.10712
-0.071127
-0.036821
-0.140471
-0.140403
-0.135612
-0.124208
-0.106618
-0.0834484
-0.0557854
-0.0253841
0.00595878
0.0345163
-0.0894374
-0.0897281
-0.0855719
-0.0748444
-0.0579002
-0.0355363
-0.00910177
0.0196454
0.0484478
0.0747637
-0.0739206
-0.0743044
-0.0705597
-0.0603663
-0.0439568
-0.0220947
0.00385455
0.0321594
0.0603077
0.0862077
-0.549702
0.0136231
0.112422
0.111261
0.0994067
0.0842395
0.0667322
0.0481962
0.0291547
0.00994892
-0.388593
0.070926
0.126144
0.117
0.10105
0.0838525
0.0658063
0.0472831
0.0285097
0.00972363
-0.230708
0.106789
0.13562
0.120532
0.101828
0.0833727
0.0649263
0.0464354
0.0279174
0.00951467
-0.102857
0.125714
0.143098
0.123685
0.102455
0.082878
0.0640901
0.0456404
0.0273656
0.00931757
-0.00524419
0.139177
0.149338
0.126299
0.102858
0.0823359
0.0632764
0.0448853
0.0268469
0.00912983
0.0744434
0.150151
0.154018
0.12819
0.10301
0.0817315
0.0624713
0.0441608
0.0263561
0.00894942
0.137365
0.158577
0.156892
0.129324
0.1029
0.0810475
0.0616604
0.0434578
0.0258879
0.00877439
0.180105
0.164082
0.158034
0.129695
0.102502
0.0802632
0.06083
0.0427674
0.0254371
0.00860295
0.202752
0.166165
0.157612
0.129289
0.101778
0.0793587
0.0599678
0.0420811
0.0249986
0.00843349
0.206672
0.164295
0.155702
0.128087
0.100696
0.0783168
0.0590626
0.0413909
0.0245674
0.00826456
-0.798901
-0.197311
0.015386
0.0806771
0.0905068
0.0822584
0.0672355
0.0493558
0.0302607
0.0104263
-0.800757
-0.198853
0.0217365
0.0823968
0.0908643
0.0821824
0.0670349
0.0491575
0.0300959
0.0103635
-0.770463
-0.17522
0.0370731
0.0866936
0.0919393
0.0823289
0.0668983
0.0489666
0.0299182
0.0102862
-0.69714
-0.12352
0.0592003
0.0932837
0.0940227
0.0829164
0.0669288
0.0488265
0.02975
0.0102044
-0.629916
-0.0415631
0.0996431
0.107597
0.0981411
0.0840267
0.0671353
0.0487393
0.0295987
0.0101312
-1.02487
-1.13206
-1.17577
-1.18536
-1.13717
-1.09264
-1.02402
-0.973134
-0.923634
-0.891104
-1.02413
-1.13139
-1.17104
-1.17648
-1.12183
-1.07473
-1.00683
-0.95342
-0.914058
-0.87745
-1.02549
-1.13338
-1.17064
-1.1729
-1.11791
-1.06861
-1.01046
-0.95188
-0.92117
-0.881673
-1.03294
-1.14185
-1.17938
-1.17912
-1.1302
-1.07914
-1.03658
-0.980062
-0.95678
-0.911289
-1.04677
-1.1578
-1.19765
-1.19644
-1.15698
-1.10841
-1.0807
-1.03766
-1.02826
-0.979533
1.47372
1.45873
1.43546
1.40753
1.37602
1.33958
1.29719
1.25098
1.21114
1.19185
1.57385
1.57301
1.56437
1.54997
1.53121
1.50756
1.47844
1.44568
1.41751
1.40454
1.67032
1.67482
1.67371
1.66839
1.65987
1.64768
1.63115
1.61135
1.59432
1.58702
1.75316
1.76238
1.76859
1.77203
1.77286
1.77041
1.76396
1.75422
1.74581
1.74333
1.82299
1.83592
1.84694
1.85599
1.86299
1.86733
1.86835
1.86645
1.86491
1.86618
1.87388
1.88914
1.90404
1.91806
1.93066
1.94118
1.9489
1.9538
1.95795
1.96257
1.90712
1.92432
1.94194
1.9592
1.97535
1.98972
2.00159
2.01076
2.0186
2.02546
1.92065
1.93876
1.9579
1.97709
1.9954
2.01216
2.02663
2.03845
2.04851
2.05669
1.91457
1.93279
1.9523
1.972
1.99089
2.00827
2.02342
2.03591
2.04654
2.05503
1.88845
1.90584
1.92453
1.94334
1.96125
1.97756
1.99155
2.00285
2.01241
2.0202
-0.895595
-0.954142
-1.03046
-1.12493
-1.23862
-1.37206
-1.52241
-1.6777
-1.80718
-1.86665
-0.654734
-0.717056
-0.795374
-0.890392
-1.00375
-1.13648
-1.28757
-1.44934
-1.58653
-1.65023
-0.368113
-0.434379
-0.514978
-0.610371
-0.722269
-0.852241
-1.00011
-1.15835
-1.30092
-1.36673
-0.0601788
-0.129176
-0.210769
-0.30515
-0.413881
-0.538779
-0.679965
-0.831322
-0.967276
-1.03544
0.243229
0.17404
0.094209
0.00373981
-0.0987968
-0.215416
-0.346613
-0.486908
-0.611849
-0.67696
0.522164
0.456903
0.382843
0.300065
0.207137
0.101942
-0.0161158
-0.142016
-0.25343
-0.312259
0.770107
0.712616
0.647851
0.575836
0.495026
0.403303
0.300126
0.190206
0.0936008
0.0427356
0.994137
0.945569
0.890859
0.830132
0.761652
0.683344
0.594847
0.500639
0.418583
0.375992
1.20214
1.16096
1.1134
1.06121
1.00292
0.936496
0.86164
0.782371
0.714157
0.679535
1.37855
1.34396
1.30158
1.2566
1.20839
1.15474
1.0948
1.03152
0.977482
0.950669
1.71969
1.56992
1.62214
1.58227
1.59683
1.61437
1.62872
1.65444
1.65705
1.59616
1.70347
1.56916
1.62063
1.58215
1.59485
1.61316
1.62903
1.65959
1.6781
1.66101
1.68871
1.56745
1.61819
1.5813
1.59233
1.61119
1.62895
1.6648
1.69713
1.72263
1.67533
1.56497
1.61497
1.5797
1.58926
1.6084
1.62757
1.66709
1.71149
1.76893
1.66318
1.56181
1.6111
1.57736
1.5856
1.60472
1.62481
1.6671
1.72092
1.80354
1.6521
1.55808
1.60671
1.57427
1.58134
1.60007
1.62068
1.66465
1.72551
1.82596
1.64197
1.55389
1.60189
1.57046
1.57645
1.59447
1.6151
1.65959
1.72505
1.83716
1.63268
1.54929
1.59674
1.56599
1.57092
1.58789
1.608
1.65183
1.71932
1.83723
1.62415
1.54438
1.59134
1.56089
1.56477
1.58036
1.59936
1.64133
1.70816
1.82664
1.6163
1.5392
1.58577
1.55522
1.558
1.57189
1.58912
1.62805
1.69143
1.80517
1.87454
1.57135
1.61362
1.57776
1.59579
1.60715
1.61089
1.61609
1.55773
1.50568
1.80516
1.56501
1.61357
1.57916
1.59606
1.60839
1.61198
1.61833
1.56373
1.50332
1.78419
1.57017
1.61868
1.58067
1.59684
1.60993
1.61474
1.62351
1.57721
1.50465
1.7594
1.57054
1.62109
1.58166
1.5974
1.61178
1.61907
1.63209
1.59703
1.5134
1.73789
1.57025
1.62235
1.58206
1.59764
1.61355
1.62355
1.64256
1.6229
1.52755
1.23589
1.11725
0.958719
0.752128
0.501127
0.218244
-0.0800424
-0.373332
-0.639666
-0.859943
1.22958
1.11421
0.962691
0.762669
0.517993
0.239074
-0.0591145
-0.356276
-0.628972
-0.855578
1.24465
1.12502
0.970182
0.771662
0.5315
0.255424
-0.0437626
-0.344879
-0.622949
-0.854594
1.28643
1.15151
0.982868
0.780572
0.542319
0.267317
-0.0338507
-0.33905
-0.621999
-0.858419
1.35211
1.19406
1.00203
0.789378
0.548841
0.27355
-0.0289488
-0.337432
-0.625429
-0.867658
)
;

boundaryField
{
    left
    {
        type            zeroGradient;
    }
    right
    {
        type            fixedValue;
        value           uniform 0;
    }
    down
    {
        type            zeroGradient;
    }
    up
    {
        type            zeroGradient;
    }
    cylinder
    {
        type            zeroGradient;
    }
    defaultFaces
    {
        type            empty;
    }
}


// ************************************************************************* //
