/*--------------------------------*- C++ -*----------------------------------*\
  =========                 |
  \\      /  F ield         | OpenFOAM: The Open Source CFD Toolbox
   \\    /   O peration     | Website:  https://openfoam.org
    \\  /    A nd           | Version:  13
     \\/     M anipulation  |
\*---------------------------------------------------------------------------*/
FoamFile
{
    format      ascii;
    class       volVectorField;
    location    "0.9";
    object      U;
}
// * * * * * * * * * * * * * * * * * * * * * * * * * * * * * * * * * * * * * //

dimensions      [0 1 -1 0 0 0 0];

internalField   nonuniform List<vector> 
1800
(
(-0.0559713 0.0564219 9.72768e-20)
(0.0351766 0.0100751 4.51627e-20)
(0.264194 -0.132168 2.4859e-20)
(0.567121 -0.316127 7.93663e-20)
(0.88492 -0.499852 4.83867e-19)
(1.17238 -0.656067 3.24141e-19)
(1.40359 -0.771942 -2.35156e-19)
(1.57092 -0.845845 -8.41137e-19)
(1.68273 -0.878495 -4.97847e-19)
(1.72248 -0.891512 -4.2146e-19)
(-0.0314641 0.0298152 3.97347e-20)
(0.116478 -0.0438165 -7.81636e-20)
(0.405043 -0.193302 6.13402e-22)
(0.759271 -0.367898 -2.01161e-19)
(1.11005 -0.530518 8.17495e-20)
(1.40943 -0.659791 7.47041e-19)
(1.63572 -0.748071 -7.69367e-19)
(1.7888 -0.797095 4.94203e-19)
(1.88098 -0.812041 9.54725e-19)
(1.92049 -0.820134 -5.10251e-19)
(0.00247278 0.0036204 6.20956e-21)
(0.221025 -0.0945905 2.72395e-20)
(0.575485 -0.246078 -2.06203e-20)
(0.977346 -0.404494 -5.55137e-20)
(1.3491 -0.540347 -6.68744e-19)
(1.64498 -0.640038 2.12093e-19)
(1.852 -0.70171 5.05632e-19)
(1.97896 -0.730875 -4.44058e-20)
(2.04524 -0.734839 -5.97521e-21)
(2.05977 -0.730543 -2.24891e-20)
(0.0465588 -0.0205234 -9.02019e-21)
(0.348737 -0.137088 -3.71031e-20)
(0.771776 -0.282614 -6.58366e-20)
(1.21237 -0.417548 5.23545e-20)
(1.58971 -0.522567 1.82921e-19)
(1.86712 -0.592117 2.34039e-20)
(2.04462 -0.629064 -2.08501e-20)
(2.1414 -0.640637 5.54419e-19)
(2.18169 -0.633495 5.18865e-19)
(2.18073 -0.625415 -2.00276e-19)
(0.101088 -0.0408954 9.00812e-20)
(0.497328 -0.166491 8.79541e-20)
(0.986062 -0.296727 -6.28206e-20)
(1.45109 -0.402778 -7.14105e-20)
(1.81683 -0.476903 -6.55911e-19)
(2.06251 -0.520369 7.45853e-21)
(2.20337 -0.53906 8.43127e-19)
(2.26789 -0.54032 2.98516e-19)
(2.28363 -0.530388 8.41042e-21)
(2.26685 -0.520482 -2.39976e-19)
(0.165512 -0.0553073 -7.01915e-20)
(0.661454 -0.17757 4.09581e-20)
(1.20634 -0.282938 4.60928e-19)
(1.67816 -0.357235 -3.65669e-19)
(2.01678 -0.403133 -5.36441e-19)
(2.22253 -0.425897 1.12714e-18)
(2.32567 -0.43209 -9.28434e-19)
(2.36147 -0.427639 -1.16989e-18)
(2.35812 -0.416682 8.65698e-19)
(2.33139 -0.408186 -1.56154e-20)
(0.238206 -0.061462 7.23184e-20)
(0.833064 -0.166439 -2.99835e-19)
(1.41879 -0.239809 -1.34065e-18)
(1.87972 -0.283436 7.45949e-19)
(2.18026 -0.306852 1.5033e-18)
(2.34333 -0.316281 -5.15193e-21)
(2.41149 -0.316933 -2.59311e-18)
(2.42342 -0.312379 1.66859e-20)
(2.40558 -0.30504 2.62631e-18)
(2.37135 -0.300319 6.985e-19)
(0.315878 -0.0571204 1.39658e-20)
(1.00138 -0.130556 3.43007e-19)
(1.60957 -0.167801 1.18748e-18)
(2.04515 -0.18425 -5.26155e-20)
(2.30259 -0.19128 -1.05562e-18)
(2.42541 -0.193337 -3.80978e-19)
(2.46457 -0.192792 0)
(2.459 -0.190643 9.81933e-19)
(2.43203 -0.187609 -1.0789e-20)
(2.39436 -0.187348 -8.5401e-19)
(0.394208 -0.0410076 1.3769e-20)
(1.15571 -0.0706107 6.7511e-19)
(1.76882 -0.0709665 1.2463e-18)
(2.17003 -0.0653581 -1.39186e-18)
(2.38461 -0.0622381 -1.1773e-18)
(2.47244 -0.062294 3.97813e-19)
(2.48883 -0.0644013 -1.77494e-18)
(2.47077 -0.06719 -1.3065e-18)
(2.43776 -0.0701845 1.54781e-18)
(2.39754 -0.0754383 1.33017e-18)
(0.468242 -0.0128153 8.39968e-20)
(1.28677 0.0107717 5.05999e-19)
(1.89023 0.0461474 2.58198e-19)
(2.2532 0.069099 -2.19276e-18)
(2.42859 0.0776134 1.47499e-20)
(2.48785 0.0761938 3.92671e-18)
(2.48756 0.0696358 -2.21492e-18)
(2.46157 0.0612727 -1.24069e-18)
(2.42572 0.052434 4.35929e-19)
(2.38542 0.0420469 -9.83712e-19)
(-0.00598161 0.0269703 6.95673e-20)
(-0.0332134 0.0252864 -5.65712e-21)
(-0.0547904 -0.00770995 -9.02964e-22)
(-0.0649724 -0.056564 -8.8815e-21)
(-0.0602169 -0.110501 -3.78105e-21)
(-0.0410377 -0.162439 -1.97319e-19)
(-0.00937181 -0.208181 -4.88617e-20)
(0.0324524 -0.245519 2.33673e-19)
(0.0813295 -0.273897 4.96006e-21)
(0.132243 -0.291734 -1.04184e-20)
(-0.0116442 0.0607056 2.49497e-21)
(-0.038201 0.074528 3.08855e-20)
(-0.05322 0.0287957 -5.85823e-20)
(-0.053975 -0.047177 -3.78315e-20)
(-0.0389316 -0.133657 -8.83768e-20)
(-0.009983 -0.218082 -2.14744e-19)
(0.0303339 -0.293059 2.38822e-19)
(0.0790231 -0.354849 2.32528e-19)
(0.13299 -0.402331 -2.90972e-19)
(0.187696 -0.43352 6.66575e-20)
(-0.0217646 0.089972 -6.02384e-20)
(-0.0491124 0.116858 8.18221e-20)
(-0.0548787 0.0588444 4.2502e-20)
(-0.0413441 -0.0424489 1.69726e-19)
(-0.0103458 -0.159215 5.2381e-20)
(0.0340311 -0.273796 -5.51669e-19)
(0.0879891 -0.375552 5.23232e-20)
(0.147713 -0.459427 4.28406e-19)
(0.210047 -0.52378 -4.25648e-19)
(0.271476 -0.566909 -2.11886e-19)
(-0.0349934 0.11322 -1.13534e-19)
(-0.0633501 0.149933 -6.16738e-21)
(-0.0566375 0.0803869 3.2067e-20)
(-0.0237054 -0.0436842 -1.42129e-19)
(0.0290032 -0.187527 1.30196e-19)
(0.0947022 -0.328869 2.49493e-19)
(0.167308 -0.454109 1.48628e-19)
(0.241822 -0.556754 -1.62095e-19)
(0.315235 -0.634834 2.89777e-20)
(0.386232 -0.6878 -1.07065e-20)
(-0.049557 0.128876 0)
(-0.0777641 0.171166 8.25227e-20)
(-0.0548039 0.090998 -5.5348e-20)
(0.00286165 -0.0525255 -8.88506e-20)
(0.0830761 -0.21944 -3.84208e-19)
(0.175381 -0.383147 1.86655e-19)
(0.271353 -0.527447 -6.02872e-20)
(0.36432 -0.644363 -1.33456e-19)
(0.45076 -0.732018 0)
(0.533796 -0.79172 -2.5672e-20)
(-0.0633884 0.13572 4.42159e-20)
(-0.0886968 0.178252 2.09519e-20)
(-0.0451368 0.0882798 -9.45005e-20)
(0.0421678 -0.071345 2.47531e-19)
(0.155175 -0.256404 -1.97073e-19)
(0.279391 -0.436852 -2.211e-19)
(0.402734 -0.594523 6.68131e-19)
(0.516759 -0.720274 6.55272e-20)
(0.617129 -0.812497 -9.19284e-19)
(0.713526 -0.87475 -1.64103e-20)
(-0.0742673 0.133175 2.68436e-21)
(-0.0924039 0.169762 -6.42065e-20)
(-0.0238875 0.070001 1.9102e-19)
(0.0982214 -0.102047 3.53321e-20)
(0.24919 -0.299463 2.17489e-19)
(0.40903 -0.490326 -2.6229e-19)
(0.562116 -0.654875 -4.45237e-19)
(0.698038 -0.783334 -5.7973e-19)
(0.811549 -0.87464 5.67922e-19)
(0.919776 -0.934247 7.62918e-19)
(-0.0799772 0.122132 -1.00055e-19)
(-0.0848355 0.14594 7.86248e-20)
(0.0136655 0.0357645 3.18464e-19)
(0.175153 -0.145045 -1.48264e-19)
(0.367548 -0.349088 1.86701e-19)
(0.564768 -0.54332 4.52111e-19)
(0.747242 -0.707461 5.26935e-19)
(0.902861 -0.832061 -5.87352e-19)
(1.02628 -0.91684 -3.97174e-19)
(1.13995 -0.967879 6.29739e-19)
(-0.0794341 0.104324 -1.61714e-19)
(-0.0629572 0.108888 -1.02107e-19)
(0.0715924 -0.0122679 7.12765e-21)
(0.276665 -0.19842 5.36056e-20)
(0.51211 -0.402883 -2.68105e-19)
(0.745281 -0.592727 4.10582e-19)
(0.952863 -0.748545 1.20096e-19)
(1.122 -0.862507 -1.35133e-18)
(1.24943 -0.935067 -4.26163e-19)
(1.35663 -0.971991 5.55334e-19)
(-0.0717174 0.081802 3.8586e-20)
(-0.0239034 0.062326 -1.37641e-19)
(0.153798 -0.0699107 -2.05667e-19)
(0.406236 -0.257453 2.65926e-19)
(0.684297 -0.455315 1.14045e-19)
(0.94856 -0.632394 -4.0803e-19)
(1.17313 -0.771787 -5.33085e-19)
(1.34631 -0.868512 4.49861e-19)
(1.46993 -0.923054 -5.48166e-19)
(1.55387 -0.943576 -4.31635e-19)
(0.39561 -0.274039 1.44583e-19)
(0.708994 -0.196334 -1.06293e-19)
(0.840092 -0.15171 -7.57069e-21)
(0.921905 -0.118381 1.3721e-20)
(0.969847 -0.0918542 -6.68189e-21)
(0.99732 -0.0704775 -4.57557e-21)
(1.01372 -0.053904 -5.80009e-21)
(1.02435 -0.0390863 -2.26576e-21)
(1.03049 -0.0318297 7.7119e-21)
(1.03657 -0.0173069 2.13984e-21)
(0.421687 -0.395792 1.66142e-19)
(0.726838 -0.257177 4.31822e-20)
(0.852237 -0.18578 1.03732e-21)
(0.931226 -0.13744 -1.12781e-20)
(0.977156 -0.102713 -2.34362e-20)
(1.00305 -0.076871 0)
(1.01822 -0.0577962 -6.16042e-21)
(1.02781 -0.0414489 3.2234e-21)
(1.03334 -0.0334806 3.35434e-22)
(1.0386 -0.0181415 -3.08669e-21)
(0.463121 -0.508158 -2.32906e-19)
(0.75268 -0.318211 -4.51498e-20)
(0.868682 -0.219644 2.04494e-20)
(0.942895 -0.156213 -5.08027e-21)
(0.985762 -0.113356 -2.549e-21)
(1.00951 -0.0830602 4.35738e-21)
(1.02314 -0.0614907 0)
(1.03153 -0.0436441 0)
(1.03634 -0.0349705 -2.7958e-21)
(1.04072 -0.0188749 0)
(0.525066 -0.607747 -4.05537e-20)
(0.78656 -0.378531 1.12865e-19)
(0.889662 -0.253034 -2.0512e-22)
(0.956919 -0.17453 0)
(0.995642 -0.12366 2.80755e-20)
(1.0167 -0.0889656 -5.02991e-21)
(1.02848 -0.0649378 0)
(1.03549 -0.0456412 6.7337e-21)
(1.03949 -0.0362774 0)
(1.04291 -0.0194961 1.04051e-21)
(0.612529 -0.690933 -1.38327e-19)
(0.828505 -0.435972 1.06843e-19)
(0.915211 -0.285502 1.1565e-21)
(0.973245 -0.19228 0)
(1.00674 -0.133531 7.95766e-21)
(1.02457 -0.094517 1.05328e-20)
(1.03421 -0.0680919 4.10199e-21)
(1.03967 -0.0474108 6.81533e-22)
(1.04277 -0.0373797 -2.36574e-21)
(1.04515 -0.0199951 1.86707e-21)
(0.729431 -0.755305 -1.02411e-18)
(0.879704 -0.48727 -1.95159e-19)
(0.945456 -0.315929 -1.19088e-21)
(0.991805 -0.20923 3.89946e-20)
(1.01897 -0.14288 -1.31778e-20)
(1.03307 -0.0996575 6.51239e-21)
(1.0403 -0.0709147 1.04419e-20)
(1.04405 -0.0489266 -1.32477e-20)
(1.04616 -0.0382576 -1.28572e-22)
(1.04744 -0.0203636 -1.13089e-21)
(0.875744 -0.80155 1.14609e-19)
(0.943641 -0.529867 6.80136e-20)
(0.98167 -0.342911 -5.28301e-21)
(1.01286 -0.224861 -1.20668e-21)
(1.03229 -0.151505 -2.71454e-20)
(1.04212 -0.104298 3.73192e-21)
(1.04669 -0.0733607 -5.2593e-21)
(1.04859 -0.0501612 -2.81186e-21)
(1.04962 -0.0388919 1.73898e-21)
(1.04975 -0.0205956 -1.25475e-21)
(1.04417 -0.831831 2.76608e-19)
(1.0235 -0.5636 1.00365e-19)
(1.02648 -0.366195 0)
(1.03772 -0.238863 3.49055e-21)
(1.04708 -0.159229 2.27189e-20)
(1.05175 -0.108345 3.94316e-22)
(1.05332 -0.0753781 -2.01829e-20)
(1.05326 -0.0510833 5.67331e-21)
(1.05312 -0.0392615 -7.7849e-23)
(1.05207 -0.0206862 -7.61756e-22)
(1.22158 -0.846254 -4.19059e-19)
(1.11672 -0.588711 -2.91467e-19)
(1.08077 -0.386026 6.44185e-20)
(1.06821 -0.251362 -3.08773e-21)
(1.06452 -0.166225 -1.71086e-21)
(1.06244 -0.111939 -1.96466e-20)
(1.06037 -0.0770498 6.05482e-21)
(1.05809 -0.0517267 3.4126e-22)
(1.05665 -0.0393742 -2.10738e-21)
(1.05439 -0.0206368 -1.04816e-21)
(1.3935 -0.840703 2.98482e-19)
(1.21497 -0.601735 -2.95523e-19)
(1.13973 -0.400263 -3.35815e-20)
(1.10331 -0.261214 -5.54966e-20)
(1.08507 -0.172048 -2.95074e-20)
(1.07479 -0.115011 -1.38516e-20)
(1.06819 -0.0784467 -5.81415e-21)
(1.06325 -0.0521639 0)
(1.06029 -0.039284 -1.74428e-21)
(1.05673 -0.0204527 2.34103e-21)
(1.62225 -0.791572 3.10512e-19)
(1.35157 -0.590232 1.22997e-19)
(1.21795 -0.401352 -1.4203e-19)
(1.15035 -0.262996 1.02774e-20)
(1.11378 -0.17249 1.07898e-20)
(1.09244 -0.114621 -8.01194e-21)
(1.07929 -0.0776863 -2.71391e-21)
(1.07038 -0.0513617 4.923e-21)
(1.06512 -0.0383844 -2.84897e-21)
(1.05973 -0.0199478 -4.96607e-22)
(1.63834 -0.645244 2.9373e-20)
(1.35973 -0.471687 6.12395e-20)
(1.23139 -0.330629 9.05151e-20)
(1.16652 -0.226085 -1.33407e-20)
(1.1291 -0.153171 5.59322e-20)
(1.10505 -0.103937 3.728e-20)
(1.08887 -0.0713578 2.49888e-20)
(1.07727 -0.0475322 -2.59002e-21)
(1.07017 -0.0357686 8.82577e-21)
(1.06293 -0.0186492 2.92445e-21)
(1.68556 -0.538093 -1.70325e-19)
(1.43644 -0.421123 -1.76174e-20)
(1.29258 -0.306453 1.0669e-20)
(1.20762 -0.211581 1.55623e-36)
(1.15489 -0.142763 -9.64424e-22)
(1.1212 -0.0962053 -1.00251e-34)
(1.09933 -0.0656971 -1.32142e-21)
(1.08418 -0.0436191 -1.25884e-34)
(1.07504 -0.0327969 4.84907e-22)
(1.0659 -0.0171212 -1.46532e-21)
(1.70244 -0.434904 -3.17814e-34)
(1.46985 -0.342969 -1.88894e-20)
(1.32323 -0.252241 -3.28079e-20)
(1.23285 -0.178172 0)
(1.1737 -0.122791 -2.37459e-20)
(1.13435 -0.0838869 -1.66389e-20)
(1.10835 -0.0577229 -1.05908e-20)
(1.0903 -0.0384559 -1.18171e-34)
(1.0794 -0.0290243 -3.4519e-21)
(1.06852 -0.0152088 1.32505e-21)
(1.71267 -0.34437 -1.02318e-19)
(1.4992 -0.280231 6.61132e-21)
(1.351 -0.208895 0)
(1.25501 -0.148883 0)
(1.19 -0.103171 0)
(1.1457 -0.0706993 0)
(1.11612 -0.0487636 -1.60736e-22)
(1.09556 -0.0325324 -1.30231e-34)
(1.08317 -0.0246523 3.80624e-22)
(1.07073 -0.0129807 1.52481e-34)
(1.71852 -0.264289 -3.05414e-20)
(1.52009 -0.217342 0)
(1.37159 -0.161857 0)
(1.27162 -0.116097 0)
(1.2025 -0.0811369 0)
(1.15457 -0.0559397 0)
(1.12226 -0.0387515 1.61112e-22)
(1.09972 -0.02592 6.05471e-21)
(1.08614 -0.0197588 3.33718e-22)
(1.0724 -0.0104721 2.23355e-21)
(1.72118 -0.192133 0)
(1.5317 -0.157318 -1.03351e-20)
(1.38298 -0.115738 -1.77991e-20)
(1.28059 -0.0828076 0)
(1.20926 -0.0581274 -1.14367e-20)
(1.1593 -0.0402722 -8.22642e-21)
(1.12534 -0.0280267 -5.54566e-21)
(1.10156 -0.0188129 -3.53611e-21)
(1.08722 -0.0144647 4.3167e-21)
(1.07255 -0.00773788 2.06951e-22)
(1.70104 -0.121948 1.01623e-20)
(1.5143 -0.0974066 9.53189e-21)
(1.36696 -0.0700301 -6.15435e-21)
(1.26621 -0.0495692 6.04209e-37)
(1.19679 -0.0348285 1.66945e-21)
(1.1481 -0.0242152 -6.12888e-35)
(1.11478 -0.0169339 -8.93411e-23)
(1.09134 -0.011431 8.57904e-22)
(1.07713 -0.0089165 2.36316e-22)
(1.06244 -0.00483753 -8.39e-22)
(1.51359 -0.0549279 -5.01005e-20)
(1.35359 -0.0360433 1.44346e-20)
(1.22975 -0.0230845 1.5982e-20)
(1.14735 -0.0165352 0)
(1.0915 -0.0123815 7.99117e-21)
(1.0523 -0.00901102 5.50504e-21)
(1.02529 -0.00648888 3.53311e-21)
(1.0062 -0.0044899 2.34439e-21)
(0.994418 -0.00368525 -2.57459e-21)
(0.982099 -0.00209074 1.27917e-21)
(0.734559 0.000204521 0)
(0.679046 0.00226923 0)
(0.643755 0.00244114 0)
(0.622456 0.00134464 0)
(0.606649 0.000547442 0)
(0.594199 0.000223052 0)
(0.585036 7.84387e-05 -2.57831e-22)
(0.578285 -5.322e-06 -7.37425e-38)
(0.573744 -9.28729e-05 2.04204e-22)
(0.568583 -9.84811e-05 6.81794e-22)
(2.30257 0.0258221 9.2552e-19)
(2.31287 -0.0771327 6.25007e-20)
(2.31581 -0.173192 -1.25773e-19)
(2.29416 -0.271523 -3.79276e-19)
(2.27099 -0.362084 -1.17582e-19)
(2.21382 -0.463757 -1.9411e-19)
(2.16686 -0.54792 -5.69447e-19)
(2.06126 -0.661446 1.67076e-19)
(1.99501 -0.717304 0)
(1.82 -0.856492 1.33832e-19)
(2.20966 0.0146499 2.6103e-19)
(2.21468 -0.0681188 -3.55933e-19)
(2.22182 -0.135148 -3.07847e-20)
(2.20112 -0.218499 -1.55176e-19)
(2.18913 -0.276341 5.82951e-20)
(2.1428 -0.370314 1.75735e-19)
(2.11224 -0.416152 -8.23339e-20)
(2.04018 -0.531276 7.9132e-20)
(1.98692 -0.551082 -1.1267e-19)
(1.89715 -0.692674 6.07813e-20)
(2.13919 0.0049841 -1.26142e-19)
(2.14108 -0.064525 2.55701e-19)
(2.1461 -0.112634 2.03283e-19)
(2.12854 -0.183588 -2.74998e-19)
(2.11667 -0.221132 6.70394e-20)
(2.08187 -0.301534 2.31784e-19)
(2.05235 -0.328336 -3.24535e-20)
(2.00366 -0.424401 4.38251e-20)
(1.95258 -0.435705 5.73675e-20)
(1.89566 -0.54846 7.83522e-20)
(2.08281 -0.00511045 -2.56819e-19)
(2.08503 -0.0609748 1.34701e-20)
(2.08694 -0.0962926 -7.01473e-20)
(2.07325 -0.153789 -5.60913e-20)
(2.05942 -0.180529 -4.95382e-20)
(2.03281 -0.244886 -1.17109e-19)
(2.00298 -0.264139 1.37682e-19)
(1.96645 -0.338658 2.51631e-20)
(1.91917 -0.348231 -2.51477e-21)
(1.87682 -0.433235 1.56694e-20)
(2.03797 -0.0137161 5.41264e-20)
(2.04121 -0.0571706 8.5319e-20)
(2.04124 -0.0839446 -5.55909e-20)
(2.0308 -0.128204 2.43853e-19)
(2.01637 -0.148393 -4.04811e-21)
(1.99476 -0.196936 -1.86089e-19)
(1.96622 -0.212074 2.87794e-20)
(1.93578 -0.266923 -1.07649e-19)
(1.89354 -0.275573 1.2118e-19)
(1.85785 -0.337056 8.74073e-20)
(2.00164 -0.0221306 -1.38005e-19)
(2.00581 -0.0545735 -6.96821e-20)
(2.00536 -0.074712 2.53815e-20)
(1.99738 -0.107015 1.004e-19)
(1.98389 -0.122208 1.10912e-19)
(1.96552 -0.156883 -5.38778e-20)
(1.93951 -0.168473 4.43475e-21)
(1.9125 -0.206958 4.00976e-20)
(1.87504 -0.214002 8.72933e-20)
(1.84244 -0.256986 -6.47519e-20)
(1.96538 -0.0301751 -5.24778e-20)
(1.97011 -0.0531894 -1.05458e-19)
(1.97046 -0.0675513 -9.03006e-20)
(1.96476 -0.089581 -1.67577e-19)
(1.95395 -0.100013 3.15524e-21)
(1.93885 -0.123173 1.24127e-20)
(1.91695 -0.130658 4.35741e-20)
(1.89352 -0.156183 -1.53089e-21)
(1.86087 -0.160248 -4.68426e-20)
(1.83189 -0.189321 3.68352e-21)
(1.89554 -0.0371544 4.89041e-20)
(1.8985 -0.051148 3.73937e-20)
(1.89892 -0.0592948 1.61507e-20)
(1.89535 -0.0724581 -3.03415e-20)
(1.88772 -0.0777796 -2.57573e-20)
(1.87882 -0.091288 1.70816e-20)
(1.86228 -0.094032 -1.22173e-20)
(1.84949 -0.108775 -2.6926e-20)
(1.8215 -0.108794 5.63822e-21)
(1.80786 -0.126214 5.20437e-20)
(1.66254 -0.0422949 -4.4447e-20)
(1.65538 -0.0480991 -1.00694e-21)
(1.6471 -0.0507923 7.35929e-20)
(1.63981 -0.0553624 -2.15874e-21)
(1.62927 -0.0558457 -1.35636e-20)
(1.62593 -0.0599659 1.78633e-20)
(1.61122 -0.0583731 3.73557e-22)
(1.61462 -0.0630132 -1.5237e-20)
(1.59099 -0.0592394 3.05888e-20)
(1.60526 -0.0659249 1.02279e-19)
(0.885122 -0.0155518 4.03382e-20)
(0.860427 -0.0142171 2.95796e-20)
(0.838776 -0.0124864 2.63127e-20)
(0.819908 -0.0109562 3.58278e-20)
(0.803947 -0.00916243 -1.35878e-20)
(0.793121 -0.00781678 -7.37679e-21)
(0.78182 -0.00610099 -2.11509e-21)
(0.781095 -0.00511501 1.445e-22)
(0.769319 -0.00268174 -4.70257e-22)
(0.785493 -0.0044425 2.80002e-22)
(1.45888 0.852239 -6.7358e-20)
(1.44269 0.895506 2.75818e-20)
(1.44356 0.946007 -5.13318e-19)
(1.44993 1.00401 2.39582e-19)
(1.45512 1.06601 9.63123e-19)
(1.45078 1.12477 -1.50744e-19)
(1.41678 1.16032 -9.10178e-19)
(1.30755 1.1255 -5.16853e-20)
(1.04103 0.931295 -4.62451e-19)
(0.493571 0.455573 1.45171e-19)
(1.61151 0.825623 0)
(1.60192 0.868065 6.28811e-19)
(1.60089 0.915702 1.39314e-18)
(1.60754 0.97172 -8.40925e-19)
(1.61644 1.03274 -1.98639e-18)
(1.61628 1.09033 -1.50273e-19)
(1.582 1.12335 -1.90984e-19)
(1.4605 1.08513 6.84753e-19)
(1.15953 0.891031 9.37991e-19)
(0.545883 0.430346 4.21077e-19)
(1.75079 0.789703 6.73005e-20)
(1.75171 0.831634 0)
(1.75443 0.876629 -6.9105e-20)
(1.76348 0.92855 8.66261e-19)
(1.77562 0.985251 5.58805e-20)
(1.77811 1.03834 -2.03005e-18)
(1.74147 1.06637 1.26481e-18)
(1.60551 1.02414 7.86212e-19)
(1.26875 0.833348 -8.35799e-19)
(0.591746 0.396359 -2.90462e-19)
(1.87434 0.738571 -1.51063e-19)
(1.8857 0.779241 -1.14964e-19)
(1.89575 0.821622 2.52124e-19)
(1.90987 0.86927 -3.13352e-19)
(1.92595 0.920814 -1.47931e-18)
(1.93028 0.968125 -1.13161e-18)
(1.88954 0.989864 1.21424e-18)
(1.73679 0.943573 7.55098e-19)
(1.36348 0.75915 0)
(0.627696 0.353686 0)
(1.98476 0.671721 -8.71157e-19)
(2.00505 0.710003 -1.54275e-18)
(2.02306 0.749244 -6.04068e-19)
(2.04318 0.79242 -3.60187e-20)
(2.06323 0.838377 0)
(2.06825 0.878977 1.49005e-19)
(2.02092 0.894072 1.75026e-19)
(1.84927 0.843865 2.20423e-19)
(1.4375 0.66873 -3.23903e-19)
(0.650419 0.303435 -8.17501e-20)
(2.08271 0.589305 1.04729e-18)
(2.1104 0.624437 -4.58222e-20)
(2.13575 0.660079 -1.234e-18)
(2.16168 0.698494 0)
(2.18506 0.738492 0)
(2.18904 0.772237 0)
(2.13272 0.778807 1.48562e-18)
(1.93722 0.726997 -1.66098e-18)
(1.48618 0.566418 -1.06739e-18)
(0.6583 0.247354 -1.57713e-20)
(2.17057 0.495308 -1.40266e-18)
(2.20338 0.5261 -2.94565e-18)
(2.23421 0.557251 -5.11692e-21)
(2.26444 0.590314 5.92682e-19)
(2.28941 0.623429 -4.37154e-20)
(2.28958 0.64897 1.29667e-18)
(2.21927 0.649785 -6.9851e-19)
(1.99547 0.5981 -1.99925e-18)
(1.50767 0.453812 1.72132e-19)
(0.65037 0.188389 1.20445e-19)
(2.24478 0.389551 -1.13493e-18)
(2.28176 0.415673 1.84537e-20)
(2.31679 0.441884 4.38461e-19)
(2.34977 0.469111 -4.21405e-19)
(2.37395 0.495329 6.44037e-19)
(2.36638 0.513503 1.78624e-18)
(2.27723 0.509282 -2.24877e-19)
(2.02298 0.459828 -1.11412e-18)
(1.4998 0.336255 2.74017e-19)
(0.626596 0.129838 4.94621e-20)
(2.30791 0.277481 4.29824e-19)
(2.34672 0.297676 9.6002e-20)
(2.38346 0.318488 -4.65697e-19)
(2.41649 0.339623 -1.05688e-18)
(2.43637 0.358929 1.02519e-19)
(2.41658 0.370274 1.05093e-19)
(2.30393 0.362103 -1.51008e-18)
(2.01601 0.317665 5.95465e-19)
(1.4604 0.219505 1.8415e-19)
(0.587232 0.0748542 -1.52454e-19)
(2.35411 0.159233 8.50135e-19)
(2.39456 0.174802 -1.27793e-18)
(2.43188 0.189839 2.09145e-19)
(2.46286 0.204655 2.59102e-18)
(2.4751 0.217347 1.31946e-18)
(2.4384 0.222977 -2.84367e-18)
(2.29713 0.213199 -2.77301e-18)
(1.97259 0.177549 1.30522e-18)
(1.38935 0.10911 3.42098e-21)
(0.533754 0.0264283 2.41637e-20)
(0.5203 0.275172 -1.78717e-19)
(0.48186 0.285257 -1.68694e-19)
(0.437955 0.296034 8.27421e-20)
(0.389426 0.307533 -2.73386e-19)
(0.336192 0.319629 -2.95843e-20)
(0.277491 0.331497 2.45301e-19)
(0.212464 0.339609 5.3815e-20)
(0.141788 0.332994 -1.92772e-20)
(0.0724797 0.285715 8.59828e-21)
(0.013801 0.150374 1.79895e-20)
(0.555337 0.378264 1.46535e-19)
(0.517627 0.394664 1.93812e-19)
(0.475069 0.412411 4.30828e-20)
(0.428204 0.431552 -6.87207e-20)
(0.376767 0.451898 -2.63409e-19)
(0.319831 0.472127 -1.32448e-21)
(0.255996 0.48674 1.17806e-19)
(0.184456 0.479159 2.2095e-20)
(0.109175 0.411166 -8.86571e-20)
(0.0331148 0.215346 -2.98611e-20)
(0.608601 0.476057 -1.41837e-19)
(0.572107 0.498344 -1.3605e-19)
(0.531621 0.52252 1.23908e-19)
(0.487296 0.548816 1.01805e-19)
(0.43862 0.577074 -7.31245e-20)
(0.384435 0.605518 -6.94079e-20)
(0.32252 0.62669 -1.00106e-19)
(0.249743 0.618455 -2.78914e-20)
(0.16515 0.530594 -5.15512e-20)
(0.0623793 0.276822 3.1669e-21)
(0.677118 0.56939 6.56016e-20)
(0.642113 0.597769 -3.18626e-20)
(0.604502 0.628193 -1.03979e-19)
(0.56369 0.661104 4.70484e-21)
(0.518777 0.696361 -8.00463e-20)
(0.468324 0.731693 1.4779e-20)
(0.409076 0.757746 -2.05155e-19)
(0.334829 0.747354 9.07067e-22)
(0.238015 0.639768 -2.68565e-19)
(0.100306 0.332285 5.10955e-20)
(0.762717 0.650057 -1.2237e-20)
(0.729999 0.683315 1.84024e-21)
(0.696261 0.71898 -4.76247e-20)
(0.660199 0.757905 -2.17632e-19)
(0.620371 0.799928 9.7913e-20)
(0.574757 0.842228 -2.60237e-20)
(0.518646 0.873658 1.07953e-19)
(0.441952 0.862255 -7.95356e-20)
(0.328742 0.737262 3.32536e-19)
(0.146832 0.381244 2.48905e-19)
(0.858799 0.727238 -4.38797e-20)
(0.828032 0.765421 -1.24921e-19)
(0.798108 0.805242 9.15396e-20)
(0.766839 0.848525 9.69188e-20)
(0.732492 0.895475 2.85593e-19)
(0.692597 0.94271 1.81197e-19)
(0.640646 0.977076 5.12088e-19)
(0.561868 0.962225 2.24211e-19)
(0.430616 0.819558 1.7374e-19)
(0.199081 0.421155 2.0688e-19)
(0.965739 0.783062 -1.0421e-19)
(0.939256 0.825401 4.50723e-19)
(0.915621 0.869379 2.86622e-19)
(0.891156 0.917093 -3.44676e-19)
(0.863394 0.968776 -1.74286e-19)
(0.829439 1.02069 5.67189e-19)
(0.781113 1.05808 -1.04502e-19)
(0.698546 1.0407 -3.56349e-19)
(0.545237 0.883287 -4.12727e-20)
(0.256738 0.450716 2.30526e-19)
(1.07968 0.837129 2.34703e-19)
(1.05442 0.880754 5.86994e-20)
(1.03535 0.925567 -6.733e-19)
(1.01795 0.975228 1.06582e-19)
(0.998542 1.0296 4.55356e-19)
(0.972616 1.08381 -2.88569e-19)
(0.929282 1.12135 -7.16638e-20)
(0.842894 1.09905 -1.51758e-19)
(0.665689 0.927559 1.53373e-20)
(0.316556 0.469059 -3.05712e-19)
(1.20001 0.860421 2.22666e-20)
(1.1844 0.907774 -4.77297e-19)
(1.17332 0.95417 -3.81552e-21)
(1.16237 1.00539 3.89255e-19)
(1.14916 1.06227 -3.88891e-19)
(1.12924 1.11921 7.72174e-19)
(1.08903 1.1577 5.30956e-19)
(0.996356 1.13186 -8.13418e-19)
(0.791572 0.950022 -4.87259e-20)
(0.377479 0.475713 -3.18904e-19)
(1.29887 0.875218 -2.6888e-19)
(1.2926 0.922976 -2.61922e-19)
(1.29681 0.970843 2.72783e-19)
(1.30008 1.02322 6.33963e-19)
(1.29859 1.08036 2.44311e-19)
(1.28765 1.13667 -6.33792e-19)
(1.25158 1.17286 4.6026e-20)
(1.1519 1.14176 1.74254e-19)
(0.917568 0.951624 -2.3818e-19)
(0.437042 0.471161 -2.26836e-19)
(0.897048 0.0137745 3.14822e-21)
(1.08506 0.0390357 -1.78939e-20)
(0.986191 0.0610001 -1.46096e-20)
(1.028 0.0724921 0)
(1.0159 0.0813038 2.11741e-20)
(0.990783 0.0943441 2.85278e-20)
(0.968236 0.110904 3.77332e-20)
(0.913658 0.138284 7.9917e-20)
(0.845911 0.175288 -1.15737e-19)
(0.686962 0.224189 -1.52166e-19)
(0.896848 0.0113503 3.8117e-20)
(1.08403 0.0364944 -5.91275e-20)
(0.985549 0.0604441 -1.80471e-23)
(1.02884 0.0735834 -1.84475e-20)
(1.01829 0.0849883 1.06498e-20)
(0.995254 0.100093 -1.42468e-20)
(0.9746 0.122898 -8.99943e-20)
(0.924695 0.155953 0)
(0.858043 0.212096 2.40646e-19)
(0.716306 0.292061 -2.6978e-19)
(0.896427 0.0091485 -3.23418e-20)
(1.08356 0.0340411 1.65051e-20)
(0.984968 0.0597538 4.10855e-20)
(1.03028 0.0743807 1.12219e-20)
(1.02103 0.088259 -2.54715e-20)
(1.00075 0.105621 1.07376e-21)
(0.981688 0.134292 -6.26344e-20)
(0.939362 0.173604 -5.57376e-21)
(0.872949 0.24792 1.65865e-22)
(0.759638 0.357379 6.9611e-19)
(0.8958 0.00715633 -2.80387e-20)
(1.08358 0.0316716 2.68132e-21)
(0.984433 0.0589284 3.36119e-20)
(1.0323 0.0748968 2.06467e-20)
(1.02419 0.0910902 -1.22405e-20)
(1.0072 0.110967 -1.5953e-20)
(0.98975 0.144911 9.17326e-20)
(0.957314 0.191335 -1.66577e-21)
(0.890961 0.281822 -2.69518e-19)
(0.816213 0.419286 7.89971e-20)
(0.894989 0.00535613 1.99874e-20)
(1.08401 0.0293767 -3.21287e-20)
(0.983929 0.0579597 -2.64694e-20)
(1.03487 0.075129 1.17808e-20)
(1.02783 0.0934709 0)
(1.01448 0.116147 0)
(0.999116 0.154622 7.73601e-20)
(0.977971 0.209349 4.05766e-22)
(0.912695 0.312875 -1.24933e-19)
(0.885272 0.476609 9.48303e-20)
(0.894021 0.00370789 5.08619e-21)
(1.08477 0.0271407 2.65194e-20)
(0.983445 0.0568361 -6.84898e-20)
(1.03796 0.0750616 -2.60382e-20)
(1.03203 0.0954072 -3.15996e-22)
(1.02247 0.121142 6.57001e-20)
(1.01017 0.163294 1.19446e-19)
(1.00063 0.228015 -6.59077e-22)
(0.938677 0.339684 2.04526e-19)
(0.966 0.531129 -2.12867e-19)
(0.892923 0.00219708 -2.446e-20)
(1.08578 0.0249422 1.41205e-20)
(0.982983 0.0555415 -1.73054e-20)
(1.04156 0.0746683 -5.27804e-20)
(1.03681 0.0969212 1.18973e-21)
(1.03106 0.125886 -1.44342e-21)
(1.02332 0.170881 -7.02236e-21)
(1.02429 0.247032 -2.22352e-19)
(0.971249 0.361989 1.51979e-19)
(1.05054 0.576152 -5.09361e-19)
(0.891686 0.000815073 -1.86354e-21)
(1.08703 0.0227443 -4.16406e-20)
(0.982583 0.0540515 3.51313e-20)
(1.04568 0.0739155 3.02969e-20)
(1.0422 0.0980481 6.79383e-22)
(1.04021 0.130286 -7.59288e-20)
(1.0387 0.177369 -6.49878e-20)
(1.04887 0.266186 3.94893e-19)
(1.00805 0.380312 1.28285e-20)
(1.15293 0.62984 8.08912e-19)
(0.890178 -0.000419201 1.38755e-20)
(1.08868 0.0205124 1.90359e-20)
(0.982366 0.0523387 3.7739e-20)
(1.0504 0.0727879 -3.28286e-20)
(1.04821 0.0988359 -8.04726e-20)
(1.04989 0.134184 1.4161e-21)
(1.05655 0.182639 -8.88125e-20)
(1.07265 0.282652 5.12263e-19)
(1.0637 0.385308 -8.04714e-21)
(1.22514 0.652624 -1.1187e-18)
(0.887974 -0.0013481 1.40685e-21)
(1.09129 0.0184388 2.97967e-20)
(0.982433 0.0505518 1.37718e-20)
(1.05593 0.0714758 -6.72716e-20)
(1.05456 0.0996749 -7.62104e-20)
(1.05958 0.138251 -6.37023e-20)
(1.0736 0.191101 -1.58718e-19)
(1.09491 0.30186 -4.66743e-19)
(1.11026 0.412393 -2.55161e-19)
(1.34662 0.718591 -1.20393e-18)
(0.88414 -0.00322224 -4.0583e-21)
(1.09577 0.0150373 -6.65752e-21)
(0.983585 0.0465415 -1.43983e-20)
(1.0626 0.0677611 2.87956e-20)
(1.06466 0.0970073 5.4841e-20)
(1.0745 0.137209 -4.30829e-20)
(1.1027 0.186317 1.41766e-19)
(1.12647 0.307998 -4.40217e-19)
(1.18819 0.362397 -1.91534e-19)
(1.37225 0.712193 6.52154e-19)
(0.882991 -0.00707527 4.41844e-21)
(1.10017 0.00981683 1.44695e-20)
(0.988992 0.0391969 -8.03773e-21)
(1.07007 0.0609532 5.86811e-20)
(1.07671 0.0902175 8.74919e-20)
(1.09137 0.129061 1.2701e-19)
(1.13331 0.17535 3.0019e-20)
(1.15195 0.289174 2.25217e-19)
(1.28126 0.314156 3.1978e-19)
(1.39752 0.629593 1.01141e-20)
(0.882199 -0.0114211 -4.44463e-21)
(1.10527 0.00379491 -3.90303e-21)
(0.995963 0.0314707 1.81009e-21)
(1.07822 0.0533771 6.75797e-21)
(1.08831 0.0821212 2.49928e-34)
(1.10899 0.118159 -8.05669e-21)
(1.15509 0.161689 -5.66257e-34)
(1.18787 0.262291 1.92952e-20)
(1.3306 0.263654 -5.5509e-20)
(1.42675 0.55667 -5.44039e-20)
(0.881442 -0.016961 1.70475e-20)
(1.11147 -0.00358698 -4.35402e-35)
(1.00381 0.0231407 -2.21635e-21)
(1.08665 0.0450809 -2.51815e-20)
(1.0992 0.0726051 -3.75657e-20)
(1.12614 0.105464 -4.29891e-20)
(1.17048 0.144861 -6.96052e-34)
(1.22854 0.231461 -9.05824e-20)
(1.34832 0.219168 -1.43099e-19)
(1.46085 0.478262 9.44943e-20)
(0.880707 -0.0238388 0)
(1.11921 -0.0122887 7.22048e-35)
(1.01267 0.0138979 0)
(1.09516 0.0362108 0)
(1.10935 0.0618057 0)
(1.14145 0.0914703 0)
(1.18323 0.124826 -4.28035e-34)
(1.26351 0.198701 0)
(1.35632 0.179949 -2.0169e-20)
(1.49271 0.392666 5.62255e-20)
(0.879926 -0.0321159 5.92178e-21)
(1.12886 -0.0220917 6.92034e-21)
(1.0228 0.00660304 -3.02559e-21)
(1.1038 0.0278704 0)
(1.11868 0.0503431 0)
(1.15424 0.076333 6.85685e-21)
(1.19497 0.102805 3.24547e-20)
(1.28835 0.164155 -1.44049e-20)
(1.36551 0.143757 -2.93954e-20)
(1.51441 0.307511 2.15718e-19)
(0.879446 -0.0450834 -6.99846e-20)
(1.14122 -0.0360542 -1.35787e-21)
(1.03395 -0.00518185 -3.35774e-21)
(1.11091 0.0182672 -1.19712e-20)
(1.12609 0.0379996 -1.55408e-20)
(1.16386 0.0599999 -1.16727e-20)
(1.20493 0.0799369 -2.51832e-20)
(1.30421 0.127375 -3.6539e-20)
(1.37594 0.110177 -5.54712e-20)
(1.52578 0.227086 7.41841e-20)
(0.880247 -0.0514503 -1.00876e-20)
(1.14912 -0.0433838 -1.60621e-20)
(1.03809 -0.00773188 -3.79143e-21)
(1.11122 0.0123018 -5.84873e-21)
(1.12485 0.0262617 3.24401e-35)
(1.16415 0.0429299 7.37173e-21)
(1.20618 0.0568234 -9.47398e-34)
(1.30999 0.0885052 -1.45031e-20)
(1.37782 0.0784198 1.82455e-20)
(1.53194 0.150998 2.65713e-20)
(0.882277 -0.0860596 1.8342e-19)
(1.10405 -0.0685289 -3.54196e-21)
(0.972164 -0.0219329 -3.76686e-21)
(1.04122 0.00362244 7.71493e-21)
(1.05411 0.0131401 6.46758e-21)
(1.09678 0.02535 1.63189e-20)
(1.14071 0.0333685 1.01116e-20)
(1.25243 0.0510094 -6.4351e-21)
(1.30701 0.0472328 -1.81595e-20)
(1.49129 0.0821252 1.37933e-19)
(0.788086 -0.0443508 1.12796e-20)
(0.781455 -0.0323281 -8.42625e-35)
(0.5931 -0.00709377 -4.78813e-21)
(0.64131 -0.00103372 0)
(0.636748 0.00230083 0)
(0.67074 0.00522984 7.55804e-21)
(0.711447 0.00583907 -8.22059e-36)
(0.793927 0.0103389 -1.44282e-20)
(0.844937 0.00807391 -2.67736e-20)
(0.985115 0.0149957 5.72708e-20)
(1.55208 0.749988 -1.92008e-19)
(1.64502 0.732344 -2.86345e-19)
(1.74945 0.700441 0)
(1.84936 0.651873 1.31597e-19)
(1.94245 0.588874 5.9265e-19)
(2.02677 0.512311 -1.29341e-19)
(2.10509 0.427146 1.64044e-18)
(2.17153 0.331774 -7.72427e-20)
(2.22993 0.233739 -3.83767e-19)
(2.27051 0.128339 3.55171e-19)
(1.57309 0.618832 9.15762e-20)
(1.64622 0.600711 1.14717e-19)
(1.73243 0.56705 -1.00716e-20)
(1.81868 0.518796 1.99606e-19)
(1.90078 0.460987 -1.69393e-19)
(1.9735 0.394613 -4.0808e-19)
(2.04171 0.325321 -1.16712e-19)
(2.09674 0.248 5.67704e-19)
(2.14832 0.17236 -2.27771e-20)
(2.17987 0.0891514 -4.95012e-19)