# Selection   : all
# Cells       : 440
# Volume      : 7.374263e+01
# Time        	minMag(U)
5.415         	1.488448e-02
5.46          	1.985609e-02
5.51          	1.583119e-02
