# Selection   : all
# Cells       : 440
# Volume      : 7.374263e+01
# Time        	max(p)
8.115         	2.324390e+00
8.16          	2.303911e+00
8.21          	2.305392e+00
