/*--------------------------------*- C++ -*----------------------------------*\
  =========                 |
  \\      /  F ield         | OpenFOAM: The Open Source CFD Toolbox
   \\    /   O peration     | Website:  https://openfoam.org
    \\  /    A nd           | Version:  13
     \\/     M anipulation  |
\*---------------------------------------------------------------------------*/
FoamFile
{
    format      ascii;
    class       volScalarField;
    location    "0.865";
    object      p;
}
// * * * * * * * * * * * * * * * * * * * * * * * * * * * * * * * * * * * * * //

dimensions      [0 2 -2 0 0 0 0];

internalField   nonuniform List<scalar> 
1800
(
5.75001
7.85711
10.0099
11.4383
12.2726
12.6832
12.814
12.6563
11.4097
7.31708
9.59881
12.0745
14.5794
16.2634
17.3199
17.9826
18.4371
18.676
17.9512
15.2731
15.9905
18.6152
21.2879
23.1512
24.4113
25.293
25.9436
26.3268
25.8555
24.0242
24.9851
27.5545
30.2029
32.1174
33.4826
34.4916
35.2539
35.7058
35.2996
33.6147
36.0433
38.4041
40.8564
42.6679
43.9923
44.9884
45.7429
46.1921
45.8419
44.2862
48.7198
50.7724
52.916
54.5222
55.7132
56.6154
57.2976
57.7081
57.4269
56.0674
62.668
64.3408
66.0965
67.4284
68.4304
69.2
69.7914
70.1683
69.9932
68.9044
77.5936
78.8351
80.1462
81.1555
81.9314
82.5452
83.0393
83.3941
83.3607
82.6242
93.2115
93.9911
94.8226
95.4775
96.0003
96.4378
96.8205
97.1439
97.2541
96.9197
109.24
109.545
109.877
110.151
110.389
110.61
110.827
111.041
111.202
111.229
-0.603389
-0.856529
-0.633533
-0.218631
0.254389
0.722744
1.08244
1.29318
1.43833
1.58532
-0.470603
-0.987574
-1.09877
-0.89363
-0.469853
-0.0462399
0.245719
0.487973
0.768464
1.04234
0.534662
-0.434801
-1.27032
-1.43739
-1.11049
-0.805739
-0.593623
-0.288857
0.11865
0.504662
0.92909
-0.214084
-1.41557
-1.75505
-1.53488
-1.38284
-1.25976
-0.955543
-0.498808
0.00893433
0.496897
-0.472496
-1.41538
-1.70725
-1.65049
-1.66284
-1.62833
-1.36778
-0.877168
-0.18329
-0.209054
-0.726866
-1.12881
-1.25888
-1.28006
-1.34673
-1.34072
-1.13357
-0.609966
0.321969
-0.546871
-0.509572
-0.333812
-0.18821
-0.104093
-0.0845076
-0.0472966
0.121311
0.698038
1.92753
-0.0655907
0.520544
1.24119
1.74539
2.07466
2.28738
2.43609
2.65183
3.38155
5.04319
1.38
2.48789
3.7362
4.65756
5.32742
5.81951
6.15915
6.49777
7.48398
9.77094
3.62064
5.2635
7.08164
8.45752
9.4802
10.2403
10.7625
11.2151
12.2758
14.4385
2.30417
2.44341
2.33575
2.08976
1.58443
1.18163
0.865787
0.59451
0.353021
0.137917
1.95627
2.42106
2.23274
2.00783
1.50213
1.10283
0.814734
0.578227
0.360086
0.148945
1.47916
2.39204
2.13217
1.91695
1.42814
1.03736
0.76867
0.558737
0.363974
0.159205
0.854246
2.30931
2.03213
1.81157
1.35377
0.980194
0.72948
0.540999
0.36044
0.168341
0.159508
2.13282
1.92107
1.68939
1.27286
0.926662
0.695766
0.52592
0.349944
0.174166
-0.413982
1.85323
1.78187
1.54908
1.18192
0.873478
0.665926
0.512314
0.353417
0.174635
-0.564189
1.50418
1.60145
1.38838
1.07915
0.818579
0.638296
0.500047
0.357237
0.16921
0.163882
1.17438
1.37088
1.19853
0.96121
0.760129
0.611139
0.488749
0.349489
0.158447
2.41999
1.03768
1.06951
0.954907
0.819877
0.695749
0.583976
0.472633
0.331437
0.141367
6.6547
1.40636
0.711608
0.637236
0.647994
0.625194
0.554781
0.450902
0.307763
0.121491
9.97943
2.57558
0.687203
0.394962
0.472443
0.549124
0.516282
0.417631
0.274581
0.0949131
11.7642
2.57224
0.26759
0.0638156
0.362188
0.517086
0.481233
0.372168
0.229274
0.060042
12.8637
2.78046
0.400378
0.161205
0.477072
0.578689
0.483032
0.34131
0.188789
0.0260598
14.1861
4.36928
1.28575
0.734854
0.795839
0.72519
0.52593
0.329393
0.157032
-0.00464855
16.3628
7.11249
2.70439
1.59637
1.24494
0.939562
0.60959
0.339807
0.137753
-0.0291784
19.2522
9.87641
4.33563
2.5598
1.77314
1.20358
0.725714
0.371859
0.132968
-0.0451601
21.7559
11.9373
5.85258
3.51878
2.33816
1.49789
0.86396
0.422227
0.142691
-0.0512313
23.0348
13.1201
7.0497
4.41857
2.91134
1.80867
1.01676
0.48743
0.165897
-0.0469023
22.9748
13.4993
7.91059
5.26587
3.50058
2.14361
1.19075
0.571752
0.206309
-0.0305954
22.4219
13.7244
8.68208
6.12703
4.12703
2.52259
1.40818
0.693032
0.284609
0.00364986
111.785
97.8396
84.075
71.0699
59.1306
48.3505
38.7692
30.0927
20.0817
4.97703
112.765
99.4773
85.9766
72.9703
60.9273
50.0465
40.5134
32.2552
23.5903
11.4774
113.297
100.212
87.3318
75.0057
63.4671
52.8754
43.4456
35.2569
27.4706
18.3367
114.509
102.769
90.8107
78.9803
67.624
57.0291
47.3963
38.7961
31.0895
23.8266
115.086
104.075
93.1551
82.4642
72.1175
62.1934
52.7313
43.8212
36.0034
29.8248
115.436
104.709
94.2026
84.041
74.3206
65.0914
56.3323
48.0911
41.0496
36.0328
115.667
105.109
94.7974
84.8655
75.4229
66.5426
58.234
50.5665
44.2126
40.0932
115.768
105.247
94.9805
85.1093
75.7554
67.0097
58.906
51.5127
45.396
41.4364
115.718
105.032
94.6061
84.5872
75.1082
66.2758
58.1459
50.7766
44.5528
40.1
115.594
104.647
93.9601
83.6829
73.9576
64.9076
56.613
49.1183
42.6094
37.4146
234.119
229.755
228.187
227.744
227.653
227.904
228.638
230.019
232.171
234.31
225.557
222.537
221.488
221.448
221.673
222.158
223.089
224.696
227.167
229.643
216.044
213.869
213.096
213.22
213.651
214.354
215.479
217.249
219.863
222.46
205.738
203.71
203.006
203.202
203.746
204.574
205.798
207.607
210.176
212.695
194.415
192.505
191.85
192.038
192.57
193.382
194.558
196.252
198.607
200.897
182.048
180.324
179.73
179.872
180.324
181.036
182.071
183.549
185.578
187.543
168.703
167.24
166.746
166.849
167.205
167.777
168.617
169.81
171.437
173.008
154.569
153.452
153.097
153.175
153.431
153.843
154.45
155.312
156.483
157.611
139.96
139.246
139.039
139.089
139.234
139.468
139.819
140.321
141.002
141.659
125.436
125.092
124.951
124.904
124.892
124.914
124.98
125.1
125.277
125.453
246.555
246.794
247.046
247.264
247.563
248.063
248.616
248.953
248.958
248.443
246.626
246.957
247.361
247.667
247.868
248.203
248.628
248.544
247.725
246.705
246.635
247.03
247.476
247.788
247.871
248.001
248.283
247.923
246.535
245.28
246.511
247.013
247.443
247.675
247.607
247.493
247.527
247.105
245.811
244.653
246.019
246.673
247.061
247.167
246.988
246.71
246.532
246.172
245.364
244.575
244.812
245.654
245.99
245.953
245.721
245.435
245.238
245.066
244.827
244.541
242.466
243.563
243.899
243.782
243.571
243.406
243.371
243.501
243.809
244.048
238.582
240.067
240.536
240.468
240.384
240.434
240.671
241.166
241.979
242.718
233.109
235.163
235.871
235.937
236.062
236.408
236.995
237.9
239.205
240.417
227.755
229.619
230.364
230.53
230.837
231.453
232.395
233.746
235.593
237.301
246.935
246.717
246.677
246.489
246.421
246.308
245.932
245.676
245.573
245.719
246.893
246.716
246.672
246.491
246.42
246.319
245.941
245.656
245.379
245.738
246.865
246.712
246.663
246.486
246.412
246.32
245.939
245.6
245.14
245.819
246.847
246.705
246.65
246.474
246.398
246.315
245.926
245.506
244.92
246.003
246.835
246.696
246.634
246.454
246.378
246.3
245.897
245.395
244.785
246.241
246.829
246.684
246.615
246.43
246.352
246.272
245.859
245.302
244.76
246.349
246.827
246.67
246.595
246.403
246.322
246.232
245.822
245.252
244.807
246.017
246.83
246.651
246.573
246.373
246.286
246.188
245.806
245.257
244.829
244.781
246.84
246.628
246.549
246.34
246.249
246.156
245.838
245.333
244.652
242.005
246.857
246.604
246.52
246.304
246.215
246.151
245.942
245.461
243.973
237.29
246.895
246.577
246.479
246.246
246.149
246.079
245.873
245.134
242.442
233.741
247.01
246.556
246.439
246.193
246.093
246.115
246.067
245.333
242.177
231.799
247.251
246.561
246.401
246.114
246.016
246.076
246.056
245.233
241.882
230.533
247.701
246.617
246.37
246.028
245.88
245.811
245.608
244.528
240.475
229.312
248.539
246.683
246.394
245.937
245.669
245.306
244.739
243.223
238.005
227.456
250.377
246.75
246.503
245.868
245.377
244.644
243.655
241.567
235.372
224.911
254.256
247.061
246.658
245.811
245.021
243.93
242.559
239.956
233.31
222.583
262.561
248.198
246.933
245.769
244.647
243.24
241.557
238.667
232.072
221.327
280.122
250.933
247.584
245.805
244.293
242.588
240.648
237.736
231.629
221.357
306.092
254.979
249.09
246.019
244.002
241.966
239.764
236.92
231.358
221.884
236.415
221.065
210.443
201.129
190.968
179.664
167.269
153.897
139.852
125.722
230.026
217.733
208.581
199.86
189.922
178.684
166.338
153.087
139.363
125.889
223.493
214.129
205.95
197.422
187.708
176.867
165.115
152.615
139.597
126.42
218.377
210.87
202.878
194.029
184.186
173.421
161.93
149.987
137.924
126.09
212.98
206.586
198.594
189.5
179.831
169.694
159.144
148.277
137.221
126.129
207.383
202.087
194.827
186.357
177.359
167.904
157.984
147.662
137.042
126.255
203.589
199.149
192.559
184.662
176.129
167.043
157.423
147.348
136.937
126.327
202.307
198.049
191.703
184.091
175.778
166.841
157.322
147.319
136.961
126.392
203.634
198.918
192.468
184.884
176.552
167.536
157.899
147.753
137.238
126.506
206.307
200.872
194.136
186.425
177.929
168.697
158.815
148.411
137.635
126.643
112.189
112.359
112.443
112.294
111.788
111.427
111.242
111.527
111.519
111.27
89.6141
90.0774
90.2961
89.8625
88.4305
87.3441
86.7232
87.3849
87.4225
86.8359
68.771
69.3988
69.6601
68.9934
67.054
65.3422
64.322
64.8707
65.1752
64.62
50.6533
51.2598
51.4495
50.6264
48.6473
46.4812
45.1512
45.1866
45.925
45.6916
36.0081
36.4166
36.4669
35.5856
33.7937
31.4777
29.8339
29.2687
30.0763
30.264
24.9558
25.0594
24.9374
24.0142
22.4366
20.4072
18.6164
17.6748
17.9298
18.4299
17.0694
16.9191
16.7043
15.7134
14.2989
12.7955
11.3081
10.2431
9.90332
10.2698
11.5824
11.4055
11.3571
10.3577
9.03876
8.03688
7.14534
6.30253
5.71405
5.6302
7.90832
7.82013
8.1162
7.24832
6.08223
5.49179
5.1631
4.77862
4.29469
3.91486
6.03936
5.83448
6.22002
5.48214
4.61276
4.33686
4.3611
4.35193
4.19942
3.80336
5.27196
5.0352
5.11771
4.42334
3.89119
3.83526
3.98533
4.12826
4.24945
4.3061
4.84448
4.73541
4.45817
3.79187
3.50622
3.59383
3.7973
3.96504
4.08484
4.17109
4.46563
4.4209
3.98916
3.43872
3.31902
3.4822
3.70719
3.88604
4.00405
4.06439
4.01088
3.95592
3.54986
3.19871
3.20898
3.41255
3.62563
3.78303
3.88165
3.92296
3.46252
3.36925
3.09633
2.97693
3.09404
3.31105
3.50129
3.63899
3.72031
3.74404
2.81086
2.71688
2.65804
2.74886
2.94582
3.15035
3.31623
3.43573
3.50269
3.51611
2.08742
2.1045
2.24002
2.47505
2.71091
2.90955
3.06488
3.17866
3.24504
3.26055
1.41483
1.53315
1.78484
2.07816
2.33439
2.54895
2.72502
2.8639
2.95159
2.97973
0.738078
0.872614
1.1477
1.47726
1.78769
2.05991
2.29786
2.48307
2.58801
2.62566
0.0655208
-0.0197649
0.215957
0.628463
1.04978
1.43287
1.75777
1.97315
2.07641
2.13972
3.65998
3.70352
3.57298
3.24653
2.59471
1.90351
1.30907
0.834871
0.450849
0.0855233
3.73251
3.67699
3.52227
3.23049
2.55525
1.8476
1.25761
0.797964
0.427284
0.0830503
3.75872
3.57056
3.41015
3.17619
2.51121
1.79501
1.20926
0.763717
0.406163
0.0826046
3.7193
3.39379
3.25695
3.07339
2.45386
1.74402
1.16407
0.732267
0.387689
0.083767
3.61108
3.18523
3.08827
2.9195
2.37128
1.6901
1.12131
0.703592
0.372054
0.0866634
3.44734
2.98726
2.9274
2.73499
2.25713
1.62929
1.08075
0.678071
0.35962
0.0914092
3.25376
2.81998
2.7836
2.55194
2.11431
1.55786
1.0417
0.656056
0.350763
0.0979991
3.04674
2.68333
2.65756
2.39466
1.9581
1.47302
1.0027
0.637543
0.34574
0.106293
2.82481
2.57279
2.54494
2.27034
1.80999
1.37601
0.961573
0.62202
0.344631
0.116013
2.58092
2.49108
2.43941
2.17286
1.68474
1.27496
0.916043
0.608325
0.347266
0.126733
5.42135
3.97485
3.276
2.89589
2.41365
1.88937
1.38586
0.929792
0.541225
0.128654
4.61751
3.75432
3.31239
2.95735
2.45456
1.89835
1.37318
0.910841
0.51851
0.116391
3.94752
3.66242
3.37338
3.02709
2.49417
1.90643
1.36194
0.893941
0.50111
0.105841
3.62765
3.663
3.45907
3.10769
2.53567
1.9143
1.35128
0.878354
0.485988
0.0973477
3.61295
3.70629
3.56109
3.20043
2.58188
1.92242
1.33988
0.862491
0.471311
0.090761
112.02
88.9527
67.9016
50.1298
36.1148
25.7944
18.6242
13.7486
10.5666
8.75233
111.799
88.3903
67.1952
49.3953
35.3125
24.7901
17.3204
12.2151
9.07216
7.57191
111.613
87.9099
66.5569
48.6546
34.4012
23.6173
15.9
10.6801
7.53538
6.07726
111.402
87.3361
65.7164
47.5896
33.0764
22.0231
14.1283
8.89534
5.80976
4.43404
111.148
86.6079
64.587
46.1164
31.2761
19.9551
11.9593
6.92289
4.43981
3.62402
243.769
243.807
243.926
244.098
244.311
244.319
243.814
243.112
243.216
242.993
243.981
244.053
244.167
244.356
244.626
244.801
244.583
243.932
243.676
243.569
244.177
244.225
244.338
244.535
244.821
245.083
245.056
244.549
244.121
244.071
244.419
244.452
244.55
244.724
244.982
245.272
245.378
245.108
244.721
244.654
244.694
244.712
244.794
244.943
245.159
245.425
245.629
245.631
245.466
245.375
244.987
245
245.069
245.192
245.365
245.596
245.868
246.11
246.217
246.206
245.262
245.28
245.363
245.498
245.674
245.905
246.206
246.569
246.874
246.997
245.548
245.566
245.663
245.854
246.11
246.41
246.771
247.186
247.552
247.733
245.931
245.96
246.036
246.259
246.63
247.084
247.591
248.113
248.459
248.42
246.324
246.434
246.535
246.725
247.125
247.696
248.299
248.851
249.205
249
136.502
136.243
136.22
136.483
136.265
135.867
135.326
135.154
135.225
135.39
160.953
160.356
160.378
161.015
160.362
159.24
157.776
157.32
157.525
157.983
183.197
182.631
182.918
183.441
182.391
180.645
178.677
177.988
178.237
178.86
202.164
201.918
202.637
202.647
201.289
199.092
197.084
196.24
196.418
197.02
217.635
217.81
218.594
218.006
216.338
213.994
212.172
211.27
211.309
211.714
229.515
229.997
230.227
229.268
227.46
225.403
223.793
222.847
222.714
222.815
237.715
238.051
237.688
236.615
235.123
233.594
232.143
231.127
230.902
230.751
242.37
242.25
241.641
240.807
239.929
238.911
237.557
236.531
236.473
236.295
244.094
243.676
243.183
242.825
242.527
241.941
240.751
239.856
240.141
240.057
244.234
243.808
243.655
243.676
243.748
243.505
242.631
241.869
242.255
242.065
254.845
246.871
247.499
246.284
246.034
245.527
244.995
244.634
244.503
244.542
252.012
246.807
247.313
246.262
246.087
245.59
245.011
244.666
244.58
244.513
250.089
246.814
247.09
246.258
246.142
245.658
245.054
244.76
244.749
244.545
248.902
246.842
246.877
246.276
246.2
245.732
245.135
244.913
244.979
244.651
248.216
246.845
246.739
246.315
246.256
245.815
245.263
245.105
245.221
244.822
247.768
246.803
246.701
246.365
246.309
245.909
245.431
245.294
245.429
245.029
247.453
246.749
246.7
246.409
246.355
246.012
245.608
245.45
245.585
245.24
247.237
246.721
246.692
246.444
246.388
246.117
245.756
245.56
245.685
245.435
247.093
246.715
246.683
246.468
246.404
246.209
245.855
245.629
245.723
245.594
246.998
246.716
246.679
246.482
246.415
246.274
245.908
245.666
245.69
245.689
317.349
253.755
249.908
246.971
246.139
245.567
245.25
244.93
244.237
242.721
295.617
251.365
248.787
246.739
246.056
245.538
245.206
244.901
244.45
243.522
277.176
249.21
248.19
246.565
246.016
245.52
245.156
244.843
244.532
244.195
265.773
247.865
247.866
246.435
245.997
245.508
245.099
244.761
244.523
244.523
259.002
247.134
247.643
246.326
245.995
245.5
245.03
244.659
244.477
244.556
239.3
237.451
234.235
229.328
222.125
211.771
197.72
179.915
158.839
135.758
240.483
238.947
235.772
230.636
223.134
212.577
198.457
180.623
159.402
135.979
241.995
240.498
237.317
232.064
224.312
213.492
199.201
181.263
159.884
136.166
243.658
242.252
239.124
233.85
225.915
214.822
200.268
182.105
160.457
136.375
244.447
243.609
241.107
236.036
227.993
216.627
201.743
183.235
161.185
136.628
)
;

boundaryField
{
    left
    {
        type            zeroGradient;
    }
    right
    {
        type            fixedValue;
        value           uniform 0;
    }
    down
    {
        type            zeroGradient;
    }
    up
    {
        type            zeroGradient;
    }
    cylinder
    {
        type            zeroGradient;
    }
    defaultFaces
    {
        type            empty;
    }
}


// ************************************************************************* //
