/*--------------------------------*- C++ -*----------------------------------*\
  =========                 |
  \\      /  F ield         | OpenFOAM: The Open Source CFD Toolbox
   \\    /   O peration     | Website:  https://openfoam.org
    \\  /    A nd           | Version:  13
     \\/     M anipulation  |
\*---------------------------------------------------------------------------*/
FoamFile
{
    format      ascii;
    class       surfaceScalarField;
    location    "0.865";
    object      phi;
}
// * * * * * * * * * * * * * * * * * * * * * * * * * * * * * * * * * * * * * //

dimensions      [0 3 -1 0 0 0 0];

internalField   nonuniform List<scalar> 
3485
(
0.00137167
-0.011258
0.00988629
0.00505116
-0.0319067
0.0282272
0.0107642
-0.0513829
0.0456698
0.0183125
-0.0696769
0.0621286
0.0275453
-0.0868351
0.0776023
0.0383482
-0.102901
0.0920983
0.0506328
-0.117906
0.105622
0.0643559
-0.131871
0.118148
0.0796148
-0.144862
0.129603
-0.156896
0.139505
0.0970057
0.00150034
-0.0127583
0.00544582
-0.0358522
0.0114762
-0.0574132
0.0193235
-0.0775242
0.0287727
-0.0962843
0.0396465
-0.113775
0.0518006
-0.130061
0.065127
-0.145198
0.0795343
-0.159269
-0.172198
0.0948363
0.00147418
-0.0142325
0.00532699
-0.039705
0.0111745
-0.0632607
0.0187208
-0.0850706
0.0277252
-0.105289
0.0379883
-0.124038
0.0493441
-0.141416
0.061653
-0.157507
0.074783
-0.172399
-0.186037
0.0886226
0.00133887
-0.0155713
0.00485903
-0.0432252
0.0102109
-0.0686125
0.017117
-0.0919767
0.0253538
-0.113525
0.03474
-0.133424
0.0451299
-0.151806
0.0564032
-0.16878
0.0684533
-0.184449
-0.198791
0.0812067
0.00116693
-0.0167383
0.00425599
-0.0463142
0.00897313
-0.0733296
0.0150817
-0.0980853
0.0223916
-0.120835
0.0307522
-0.141785
0.0400458
-0.1611
0.0501797
-0.178914
0.0610763
-0.195346
-0.210402
0.0726878
0.000980024
-0.0177183
0.00358795
-0.0489221
0.00758659
-0.0773283
0.0127839
-0.103283
0.019026
-0.127077
0.0261924
-0.148951
0.0341912
-0.169099
0.042953
-0.187676
0.0524228
-0.204816
-0.220549
0.0625697
0.000780725
-0.018499
0.002865
-0.0510064
0.00606896
-0.0805323
0.0102428
-0.107456
0.0152665
-0.132101
0.0210466
-0.154732
0.0275141
-0.175566
0.0346202
-0.194782
0.0423308
-0.212526
-0.228851
0.0506323
0.000569701
-0.0190687
0.00209345
-0.0525302
0.00443785
-0.0828767
0.00749264
-0.110511
0.0111686
-0.135777
0.0153967
-0.15896
0.0201274
-0.180297
0.0253293
-0.199984
0.0309862
-0.218183
-0.234967
0.0371027
0.000352505
-0.0194212
0.00129575
-0.0534734
0.002745
-0.0843259
0.0046283
-0.112395
0.00688642
-0.138035
0.00947302
-0.161546
0.0123552
-0.183179
0.0155141
-0.203143
0.0189446
-0.221614
-0.238684
0.0226613
0.000137793
-0.019559
0.000502454
-0.0538381
0.00105695
-0.0848804
0.00176951
-0.113107
0.00261368
-0.138879
0.00356835
-0.162501
0.00461805
-0.184229
0.00575324
-0.204278
0.0069705
-0.222831
0.00827489
-0.239988
0.000487438
-0.00186866
0.00138122
0.00208634
-0.00625518
0.00465628
0.00542766
-0.0114262
0.00808493
0.0101161
-0.0162024
0.011514
0.0155404
-0.0201955
0.0147711
0.0214373
-0.023591
0.0176941
0.0279032
-0.0267719
0.020306
0.0350867
-0.0299669
0.0227834
0.0429725
-0.0331278
0.025242
-0.0361021
0.0514266
0.0276481
0.000426846
-0.0022955
0.00211044
-0.00793878
0.00543744
-0.0147532
0.00981367
-0.0205786
0.0148844
-0.0252661
0.0207595
-0.0294662
0.0276124
-0.0336248
0.035391
-0.0377455
0.0438835
-0.0416203
-0.0451435
0.0529249
0.000682832
-0.00297834
0.00271672
-0.00997267
0.00577958
-0.0178161
0.00976071
-0.0245598
0.0148135
-0.0303189
0.0211108
-0.0357635
0.0285835
-0.0410974
0.0369515
-0.0461136
0.0459958
-0.0506646
-0.0547732
0.0556255
0.000868604
-0.00384694
0.00306146
-0.0121655
0.00607883
-0.0208335
0.0101996
-0.0286806
0.0156974
-0.0358166
0.0225551
-0.0426212
0.0305304
-0.0490728
0.0393864
-0.0549695
0.0490281
-0.0603063
-0.0651187
0.0593736
0.000923353
-0.00477029
0.00320105
-0.0144432
0.00651905
-0.0241515
0.0111166
-0.0332781
0.0171345
-0.0418345
0.0244475
-0.0499341
0.0328634
-0.0574887
0.0422849
-0.064391
0.0526492
-0.0706706
-0.0762934
0.0638239
0.00094411
-0.0057144
0.00337306
-0.0168722
0.00709152
-0.02787
0.0121743
-0.0383609
0.0186326
-0.0482928
0.0263549
-0.0576565
0.0352441
-0.0663779
0.0452532
-0.0744001
0.0563037
-0.0817212
-0.0882275
0.0682378
0.000980105
-0.00669451
0.00358428
-0.0194763
0.00764145
-0.0319271
0.013107
-0.0438265
0.0199254
-0.0551112
0.0280102
-0.0657413
0.0372992
-0.0756669
0.0477466
-0.0848475
0.0592793
-0.0932539
-0.100701
0.0717525
0.0010181
-0.00771261
0.00376793
-0.0222262
0.00807123
-0.0362304
0.0138198
-0.049575
0.0209191
-0.0622105
0.0292803
-0.0741024
0.0388337
-0.0852203
0.0495226
-0.0955364
0.0612886
-0.10502
-0.113444
0.0740314
0.00105469
-0.0087673
0.00393684
-0.0251083
0.00846108
-0.0407547
0.014482
-0.055596
0.0218735
-0.069602
0.0305251
-0.082754
0.0403416
-0.0950368
0.0512341
-0.106429
0.0631217
-0.116907
-0.126321
0.0759996
0.001119
0.0042379
0.0091531
0.0156857
0.023686
0.0330303
0.0436154
0.0553345
0.0680299
0.0812134
0.114329
-0.414623
0.351721
0.168136
-0.471928
0.418122
0.210281
-0.422086
0.37994
0.244166
-0.326879
0.292995
0.270974
-0.214559
0.18775
0.291575
-0.110137
0.0895369
0.305076
-0.0316203
0.0181196
0.310262
0.0111818
-0.0163686
0.310781
0.0251666
-0.0256856
0.0205369
-0.0193582
0.115906
-0.477604
0.16969
-0.525713
0.211806
-0.464201
0.24543
-0.360504
0.272386
-0.241515
0.293784
-0.131536
0.310034
-0.0478696
0.319162
0.00205329
0.3229
0.0214287
0.0200249
0.117713
-0.539692
0.170512
-0.578511
0.212217
-0.505906
0.245223
-0.39351
0.272039
-0.268331
0.293747
-0.153244
0.311572
-0.0656942
0.324123
-0.0104977
0.332241
0.01331
0.0166398
0.120094
-0.600413
0.170878
-0.629296
0.211696
-0.546723
0.243778
-0.425592
0.270182
-0.294736
0.291947
-0.175008
0.310591
-0.0843381
0.324966
-0.0248727
0.33738
0.000896159
0.00845734
0.122993
-0.659582
0.17099
-0.677293
0.210373
-0.586106
0.241283
-0.456502
0.267012
-0.320464
0.28868
-0.196676
0.307854
-0.103512
0.323124
-0.0401422
0.338429
-0.0144087
-0.00443613
0.125852
-0.717196
0.170877
-0.722318
0.20833
-0.62356
0.237877
-0.486048
0.262682
-0.345269
0.284139
-0.218134
0.303638
-0.123011
0.319785
-0.0562891
0.335195
-0.0298189
-0.01686
0.127793
-0.773237
0.170351
-0.764876
0.205615
-0.658823
0.233675
-0.514109
0.257333
-0.368926
0.278446
-0.239247
0.29813
-0.142695
0.315296
-0.0734547
0.329128
-0.0436518
-0.0256553
0.127876
-0.827081
0.168931
-0.805931
0.202087
-0.69198
0.228643
-0.540664
0.251014
-0.391297
0.271597
-0.259831
0.291618
-0.162716
0.308344
-0.0901807
0.319052
-0.0543601
-0.0322237
0.125798
-0.876879
0.166208
-0.846341
0.197698
-0.72347
0.222868
-0.565835
0.243838
-0.412267
0.263624
-0.279616
0.283226
-0.182319
0.297537
-0.104491
0.305127
-0.0619506
-0.0386441
0.122116
-0.917782
0.161382
-0.885608
0.191573
-0.75366
0.215643
-0.589905
0.2353
-0.431924
0.254425
-0.298742
0.270959
-0.198852
0.282152
-0.115684
0.289572
-0.0693706
-0.0454215
0.583955
-0.920259
-0.581477
0.561182
-0.862835
0.523944
-0.716421
0.487848
-0.55381
0.460476
-0.404551
0.443832
-0.282098
0.431804
-0.186824
0.425689
-0.109569
0.422405
-0.0660867
-0.0439321
0.682869
-0.871666
-0.731462
0.619675
-0.799641
0.553847
-0.650593
0.496235
-0.496198
0.450555
-0.358871
0.418559
-0.250102
0.398526
-0.166791
0.389111
-0.100154
0.38386
-0.0608362
-0.0407649
0.753984
-0.775222
-0.850429
0.655073
-0.70073
0.563332
-0.558852
0.487204
-0.420071
0.429169
-0.300836
0.388899
-0.209832
0.363492
-0.141384
0.350534
-0.0871963
0.343382
-0.0536836
-0.0362381
0.778966
-0.641708
-0.91248
0.653691
-0.575455
0.546177
-0.451337
0.460863
-0.334757
0.397797
-0.23777
0.353977
-0.166013
0.325644
-0.11305
0.31013
-0.0716824
0.301354
-0.0449071
-0.0306523
0.752962
-0.492445
-0.902225
0.617529
-0.440021
0.506124
-0.339933
0.420005
-0.248637
0.357363
-0.175129
0.313759
-0.122408
0.284929
-0.0842197
0.268072
-0.0548258
0.258149
-0.0349839
-0.0243309
0.685095
-0.345841
-0.831699
0.552685
-0.307611
0.446424
-0.233672
0.365947
-0.168161
0.308192
-0.117373
0.267966
-0.0821829
0.240873
-0.0571266
0.224171
-0.0381234
0.213875
-0.0246882
-0.0177046
0.582615
-0.213864
-0.714592
0.462883
-0.187879
0.369304
-0.140093
0.299922
-0.0987789
0.250856
-0.0683065
0.216679
-0.0480064
0.19328
-0.033727
0.178217
-0.0230612
0.168529
-0.0149995
-0.0113138
0.448757
-0.105525
-0.557096
0.351175
-0.0902974
0.277051
-0.0659689
0.223519
-0.0452471
0.186246
-0.0310336
0.16024
-0.0219997
0.142146
-0.0156333
0.13007
-0.0109853
0.122061
-0.00698992
-0.00577806
0.28659
-0.0302209
-0.361894
0.220909
-0.0246157
0.172487
-0.017547
0.138709
-0.0114694
0.115472
-0.00779637
0.0991071
-0.00563476
0.0875397
-0.0040659
0.0795621
-0.00300772
0.0743207
-0.00174855
-0.00177301
0.101315
-0.131536
0.0766998
0.0591527
0.0476833
0.039887
0.0342522
0.0301863
0.0271786
0.02543
0.73882
0.0102223
-0.740768
0.733074
0.0284073
0.723436
0.0467415
0.710163
0.0639053
0.69357
0.0791625
0.674076
0.0921813
0.652273
0.10301
0.628713
0.112182
0.60427
0.11928
0.119798
0.845548
0.0133981
-0.848724
0.837321
0.0366344
0.827288
0.0567749
0.816594
0.0745995
0.805251
0.0905052
0.792897
0.104535
0.779284
0.116623
0.764588
0.126878
0.749124
0.134744
0.13746
0.844982
0.0114253
-0.843009
0.848882
0.0327348
0.853019
0.0526378
0.85647
0.0711482
0.858831
0.0881437
0.859919
0.103448
0.859594
0.116947
0.857966
0.128506
0.8553
0.137411
0.142331
0.800213
0.00930442
-0.798092
0.80582
0.027127
0.814418
0.0440405
0.825636
0.0599302
0.839
0.0747793
0.853848
0.0885999
0.869417
0.101379
0.88505
0.112872
0.899936
0.122526
0.129787
0.737865
0.00703872
-0.7356
0.744154
0.0208384
0.754123
0.0340714
0.767503
0.0465502
0.784083
0.0581999
0.80366
0.0690224
0.825988
0.079051
0.850621
0.0882395
0.876541
0.0966059
0.104102
0.653921
0.00485395
-0.651736
0.660203
0.0145561
0.670378
0.0238963
0.684221
0.0327074
0.701525
0.040896
0.722111
0.0484359
0.745805
0.0553567
0.772329
0.0617159
0.801216
0.0677187
0.0736187
0.549112
0.00291607
-0.547174
0.554812
0.00885589
0.564138
0.0145705
0.576905
0.01994
0.592915
0.0248867
0.611968
0.0293826
0.633871
0.033454
0.658406
0.0371801
0.685379
0.0407461
0.0444058
0.422793
0.00137571
-0.421252
0.427413
0.00423594
0.435008
0.00697561
0.445422
0.00952586
0.45847
0.0118388
0.473957
0.0138957
0.491697
0.0157138
0.511527
0.0173497
0.533346
0.0189271
0.0206561
0.273828
0.000366656
-0.272819
0.276915
0.00114943
0.281999
0.00189174
0.288955
0.00256941
0.29763
0.00316447
0.307856
0.00366915
0.319482
0.00408805
0.332395
0.00443667
0.346561
0.00476039
0.00532319
0.100484
-0.100117
0.101633
0.103525
0.106094
0.109259
0.112928
0.117016
0.121453
0.126213
0.0779294
0.159504
-0.142492
-0.0949421
0.063026
0.14746
-0.132557
0.0496172
0.134406
-0.120997
0.0376025
0.120332
-0.108318
0.0270259
0.105171
-0.0945941
0.0179775
0.0888944
-0.0798459
0.0105727
0.0714606
-0.0640557
0.00496322
0.0528094
-0.0472
0.001348
0.0328743
-0.0292591
0.011639
-0.010291
0.0779394
0.174434
-0.0928689
0.0638702
0.16153
0.0508391
0.147437
0.0389377
0.132234
0.0282758
0.115833
0.0190001
0.0981701
0.0112895
0.0791712
0.00535956
0.0587394
0.00147721
0.0367567
0.0131162
0.0731788
0.187928
-0.0866732
0.0603696
0.174339
0.0483501
0.159457
0.0372485
0.143335
0.0272031
0.125878
0.0183793
0.106994
0.0109766
0.0865738
0.00523535
0.0644806
0.00144963
0.0405424
0.0145658
0.0667705
0.200353
-0.0791953
0.0550328
0.186077
0.0440492
0.17044
0.0339216
0.153463
0.0247664
0.135033
0.016727
0.115033
0.00998166
0.0933191
0.00475147
0.0697108
0.00130965
0.0439842
0.0158754
0.0593122
0.211657
-0.0706159
0.0487152
0.196674
0.0388673
0.180288
0.0298411
0.162489
0.0217243
0.14315
0.0146295
0.122128
0.00870233
0.0992463
0.00412645
0.0742867
0.00113097
0.0469797
0.0170064
0.0505979
0.221521
-0.0604618
0.0414109
0.205861
0.0329274
0.188772
0.0251972
0.170219
0.0182837
0.150064
0.0122721
0.12814
0.00727495
0.104243
0.00343653
0.0781251
0.000937284
0.0494789
0.0179437
0.0404571
0.229564
-0.0485001
0.0330126
0.213305
0.0261764
0.195608
0.0199772
0.176418
0.0144573
0.155583
0.00967743
0.13292
0.00572043
0.1082
0.00269376
0.0811518
0.000731839
0.0514408
0.0186755
0.0290541
0.235441
-0.0349316
0.0236512
0.218708
0.0187146
0.200544
0.0142551
0.180878
0.0102962
0.159542
0.00687751
0.136338
0.0040556
0.111022
0.00190427
0.0833031
0.000515282
0.0528298
0.0191908
0.0169174
0.238926
-0.0204019
0.0137418
0.221884
0.0108549
0.203431
0.0082548
0.183478
0.00595148
0.161846
0.00396649
0.138323
0.00233218
0.112657
0.00109066
0.0845446
0.000293242
0.0536272
0.0194841
0.00482785
-0.00589045
0.00388043
0.00303404
0.00228341
0.00162817
0.00107201
0.000621624
0.000285831
7.49722e-05
0.0436721
0.0414147
-0.0525713
-0.0325155
0.0352926
0.0383652
-0.0299857
0.0276198
0.0349648
-0.0272921
0.0208811
0.0313487
-0.0246099
0.0150793
0.0277799
-0.0219782
0.00997292
0.0242209
-0.0191145
0.00544313
0.0200845
-0.0155547
0.00197654
0.0144717
-0.0110051
0.000386903
0.00739945
-0.00580981
0.00208913
-0.00170222
0.043765
0.0505882
-0.0529385
0.035111
0.0470192
0.0270672
0.0430086
0.0199164
0.0384995
0.0139759
0.0337205
0.00925345
0.0289434
0.00550432
0.0238337
0.00257637
0.0173997
0.000621933
0.00935389
0.00271106
0.0449382
0.0601465
-0.0544966
0.0360131
0.0559443
0.0277724
0.0512493
0.0203324
0.0459395
0.0140191
0.0400339
0.00909747
0.033865
0.00551414
0.027417
0.00289186
0.0200219
0.000809527
0.0114362
0.00352059
0.0473606
0.0703336
-0.0575477
0.0379246
0.0653804
0.0293545
0.0598194
0.0216883
0.0536057
0.0150509
0.0466713
0.00970118
0.0392147
0.0057612
0.031357
0.00295838
0.0228248
0.000874845
0.0135198
0.00439544
0.050826
0.0812596
-0.061752
0.0407226
0.0754838
0.0316058
0.0689361
0.023538
0.0616734
0.0165422
0.0536671
0.0107448
0.045012
0.00628115
0.0358207
0.00306099
0.0260449
0.00088019
0.0157006
0.00527563
0.0545245
0.0928561
-0.0661211
0.0438038
0.0862044
0.0341221
0.0786178
0.0255543
0.0702412
0.0181222
0.0610993
0.0118817
0.0512525
0.00692791
0.0407744
0.00327817
0.0296947
0.000908399
0.0180703
0.00618403
0.0575798
0.104937
-0.069661
0.0464207
0.0973635
0.0363181
0.0887204
0.0273321
0.0792273
0.0194985
0.0689329
0.0128678
0.0578832
0.00751947
0.0461227
0.00352497
0.0336892
0.000959536
0.0206358
0.00714356
0.0596377
0.117264
-0.0719643
0.0482609
0.10874
0.037919
0.0990623
0.0286572
0.088489
0.0205273
0.0770628
0.0135983
0.0648123
0.0079613
0.0517597
0.00372166
0.0379288
0.00100527
0.0233522
0.00814883
0.0614524
0.129717
-0.0739058
0.0499551
0.120238
0.0394063
0.109611
0.0298775
0.0980178
0.021455
0.0854854
0.0142358
0.0720315
0.00833435
0.0576611
0.00388449
0.0423787
0.00104188
0.0261948
0.00919071
0.0663091
-0.0790833
0.0539896
0.0426034
0.0323037
0.0231949
0.0153804
0.00898585
0.00416456
0.00110024
0.213763
0.0620703
-0.0778433
0.236443
0.0903479
-0.113028
0.260983
0.123856
-0.148396
0.277077
0.112247
-0.128341
0.276242
0.109451
-0.108616
0.253232
0.17859
-0.155579
0.218978
0.293638
-0.259384
0.174887
0.412575
-0.368484
0.118438
0.494714
-0.438265
0.461743
-0.395876
0.213114
0.0469464
0.2347
0.0687616
0.258339
0.100217
0.275073
0.0955124
0.27585
0.108674
0.253622
0.200819
0.219186
0.328074
0.174637
0.457123
0.1181
0.551252
0.526904
0.212878
0.0320584
0.233614
0.0480256
0.256398
0.077433
0.273132
0.0787784
0.274236
0.107569
0.252425
0.22263
0.21794
0.362559
0.173326
0.501738
0.117882
0.606696
0.590289
0.212985
0.0170632
0.233184
0.0278267
0.255226
0.055391
0.271492
0.062512
0.271722
0.10734
0.249778
0.244574
0.215402
0.396935
0.171344
0.545796
0.118377
0.659663
0.651119
0.213307
0.00174582
0.233259
0.00787506
0.254613
0.0340364
0.269789
0.0473361
0.268217
0.108912
0.245751
0.26704
0.211771
0.430914
0.169111
0.588456
0.119719
0.709054
0.709086
0.213686
-0.0139502
0.233615
-0.0120544
0.254236
0.0134151
0.267666
0.0339063
0.263617
0.112961
0.240453
0.290205
0.207306
0.464061
0.166903
0.628859
0.121446
0.754512
0.764411
0.21395
-0.0299099
0.234048
-0.0321529
0.253811
-0.00634736
0.264889
0.0228276
0.257899
0.119951
0.234095
0.314009
0.202285
0.495871
0.164706
0.666438
0.122664
0.796554
0.817414
0.213989
-0.0459088
0.234434
-0.0525982
0.253114
-0.0250277
0.261224
0.0147181
0.250989
0.130186
0.226801
0.338197
0.19676
0.525912
0.162089
0.701109
0.122347
0.836295
0.867796
0.21381
-0.061729
0.234753
-0.0735413
0.252023
-0.042298
0.256699
0.0100426
0.243148
0.143737
0.218939
0.362405
0.190843
0.554008
0.158624
0.733328
0.1201
0.87482
0.913991
0.213682
-0.0774212
0.23497
-0.0948289
0.250528
-0.0578567
0.250979
0.00959191
0.233846
0.16087
0.209874
0.386377
0.183606
0.580276
0.15344
0.763494
0.116425
0.911835
0.951333
0.331932
-0.107343
0.370556
-0.133453
0.406952
-0.0942524
0.424378
-0.00783435
0.43886
0.146388
0.467409
0.357829
0.506591
0.541094
0.54958
0.720505
0.581373
0.880041
0.946202
0.586504
0.333627
-0.13896
0.373168
-0.172995
0.408322
-0.129406
0.422074
-0.0215863
0.435434
0.133028
0.475906
0.317356
0.534275
0.482725
0.604465
0.650315
0.675403
0.809103
0.888618
0.732988
0.33635
-0.1733
0.37543
-0.212074
0.408723
-0.162699
0.417025
-0.0298885
0.427233
0.12282
0.473917
0.270672
0.546459
0.410183
0.638806
0.557968
0.742285
0.705624
0.784487
0.846416
0.340509
-0.211798
0.373407
-0.244973
0.384176
-0.173468
0.380429
-0.0261413
0.398915
0.104335
0.452863
0.216724
0.534105
0.328942
0.640506
0.451567
0.767078
0.579052
0.647071
0.904493
0.348514
-0.258302
0.356575
-0.253034
0.337451
-0.154344
0.334185
-0.0228752
0.358526
0.0799937
0.414002
0.161248
0.497229
0.245715
0.607868
0.340928
0.743733
0.443188
0.495868
0.894936
0.340774
-0.297066
0.321138
-0.233398
0.287847
-0.121053
0.2839
-0.0189286
0.308881
0.0550128
0.36107
0.109058
0.439736
0.167049
0.54575
0.234914
0.678762
0.310175
0.347986
0.826644
0.314272
-0.309328
0.27155
-0.190675
0.233589
-0.083092
0.228587
-0.0139268
0.251018
0.0325821
0.296148
0.063928
0.364602
0.098595
0.458324
0.141192
0.578796
0.189703
0.215104
0.711678
0.273772
-0.28109
0.212873
-0.129776
0.174325
-0.0445434
0.168764
-0.00836581
0.18624
0.0151061
0.220955
0.0292122
0.274169
0.0453818
0.348682
0.0666785
0.44705
0.0913352
0.106139
0.556015
0.214646
-0.193726
0.140473
-0.0556024
0.109361
-0.0134314
0.104077
-0.00308248
0.115348
0.00383534
0.137268
0.0072925
0.171093
0.0115565
0.21997
0.0178015
0.286339
0.0249659
0.0304074
0.362071
0.108284
0.0526817
0.0392503
0.0361679
0.0400032
0.0472957
0.0588522
0.0766537
0.10162
0.132027
0.608658
-0.117097
0.632322
-0.116533
0.655139
-0.109491
0.67629
-0.100346
0.695234
-0.0895592
0.71137
-0.0765985
0.724263
-0.061393
0.73359
-0.0442582
0.739075
-0.0258868
-0.00758338
0.750321
-0.13443
0.765224
-0.131435
0.779426
-0.123693
0.792649
-0.11357
0.804712
-0.101622
0.815848
-0.0877339
0.826403
-0.0719482
0.836392
-0.0542474
0.844841
-0.0343356
-0.0114668
0.851037
-0.139051
0.853479
-0.133878
0.854994
-0.125207
0.855371
-0.113947
0.854522
-0.100774
0.852622
-0.0858334
0.849896
-0.069222
0.846739
-0.0510906
0.843946
-0.0315429
-0.0105298
0.89255
-0.127108
0.878534
-0.119861
0.863854
-0.110527
0.84929
-0.0993829
0.835446
-0.0869294
0.823019
-0.0734068
0.812635
-0.0588383
0.804756
-0.0432111
0.799744
-0.0265314
-0.00887709
0.870309
-0.102481
0.845548
-0.0951003
0.821944
-0.086923
0.800489
-0.0779279
0.781654
-0.0680942
0.765714
-0.0574669
0.75289
-0.0460142
0.743403
-0.0337241
0.737523
-0.0206517
-0.00695362
0.796997
-0.0728332
0.768933
-0.0670366
0.743122
-0.0611116
0.720037
-0.0548429
0.699971
-0.0480286
0.683112
-0.0406075
0.669641
-0.0325437
0.659769
-0.0238515
0.653726
-0.0146085
-0.0049638
0.682984
-0.0441392
0.656499
-0.0405524
0.632401
-0.0370128
0.610878
-0.0333203
0.592145
-0.0292954
0.576395
-0.024858
0.563828
-0.0199763
0.554646
-0.0146696
0.549043
-0.00900558
-0.00309477
0.53251
-0.0206337
0.510908
-0.0189508
0.491275
-0.0173796
0.473704
-0.0157489
0.458351
-0.0139423
0.445397
-0.0119047
0.435037
-0.00961621
0.427458
-0.00709086
0.422824
-0.00437154
-0.0015229
0.346789
-0.00535165
0.332647
-0.00480906
0.319753
-0.00448486
0.308137
-0.00413358
0.297909
-0.00371365
0.289215
-0.00321086
0.282219
-0.00262001
0.277075
-0.00194739
0.273913
-0.00120946
-0.000429227
0.126675
0.121866
0.117381
0.113248
0.109534
0.106323
0.103703
0.101756
0.100546
0.000185057
0.0116092
-0.0117943
0.000623737
0.0304465
-0.0308852
0.00123716
0.0462418
-0.0468552
0.00197733
0.0594676
-0.0602078
0.00277662
0.0700217
-0.070821
0.00376954
0.0798892
-0.0808821
0.00396348
0.0772674
-0.0774613
0.00408486
0.0700425
-0.0701639
0.00394498
0.0610798
-0.0609399
0.0499562
0.00350723
-0.0495184
0.000533397
0.0110758
0.00180387
0.0291761
0.00358509
0.0444606
0.00574126
0.0573114
0.00807285
0.0676901
0.0110396
0.0769224
0.011676
0.0766311
0.0120809
0.0696376
0.0117737
0.061387
0.0510785
0.0106513
0.0008355
0.0102403
0.00283184
0.0271797
0.00563913
0.0416533
0.00904158
0.053909
0.0127395
0.0639922
0.0172475
0.0724144
0.0187903
0.0750883
0.0195719
0.068856
0.0193857
0.0615732
0.052435
0.0180293
0.00105598
0.00918437
0.00359702
0.0246387
0.00719366
0.0380566
0.0115559
0.0495468
0.0163567
0.0591914
0.0217479
0.0670233
0.0250729
0.0717633
0.0263552
0.0675737
0.0266035
0.0613249
0.0535668
0.0254717
0.00115146
0.00803291
0.00397934
0.0218108
0.00804179
0.0339942
0.0129971
0.0445915
0.0185518
0.0536366
0.0245578
0.0610173
0.0299525
0.0663687
0.0320904
0.0654357
0.0330117
0.0604036
0.0540916
0.032487
0.0011115
0.00692142
0.00396603
0.0189563
0.00818568
0.0297745
0.0133904
0.0393868
0.0193183
0.0477088
0.0257723
0.0545632
0.0324163
0.0597247
0.0363131
0.061539
0.0381249
0.0585918
0.0537076
0.0385089
0.000926238
0.00599518
0.00357299
0.0163095
0.00771073
0.0256368
0.0128819
0.0342157
0.0187869
0.0418038
0.0253385
0.0480116
0.0323215
0.0527417
0.0382758
0.0555847
0.0415881
0.0552795
0.0521835
0.0431122
0.000567818
0.00542737
0.0027866
0.0140908
0.00665747
0.0217659
0.0116213
0.0292518
0.0172044
0.0362208
0.0234475
0.0417685
0.0302863
0.0459029
0.0371846
0.0486864
0.0425621
0.049902
0.0489244
0.0458211
0.000103738
0.00532363
0.00176843
0.0124261
0.00517551
0.0183589
0.00981462
0.0246127
0.0149566
0.0310788
0.0206209
0.0361042
0.0269034
0.0396204
0.0335873
0.0420025
0.0400856
0.0434037
0.0437956
0.0452144
-0.000175828
0.00549946
0.00108644
0.0111638
0.00385538
0.0155899
0.00788582
0.0205823
0.0125001
0.0264645
0.0175706
0.0310337
0.0231767
0.0340142
0.0292492
0.0359299
0.0356362
0.0370168
0.0373687
0.0420631
-2.16852e-05
0.00552115
0.00113906
0.0100031
0.00327638
0.0134526
0.00641154
0.0174471
0.0102928
0.0225833
0.0148344
0.0264921
0.0199547
0.028894
0.0254874
0.0303972
0.0312255
0.0312787
0.0316942
0.0368999
0.000376627
0.00514452
0.00153016
0.00884952
0.00317844
0.0118043
0.00548875
0.0151368
0.00870797
0.0193641
0.0128939
0.0223061
0.0177462
0.0240417
0.0230139
0.0251295
0.0285059
0.0257867
0.0260571
0.0341431
0.000623215
0.0045213
0.0017051
0.00776763
0.0030249
0.0104845
0.00484448
0.0133172
0.00783646
0.0163721
0.0119269
0.0182157
0.0166795
0.0192891
0.0218546
0.0199544
0.02732
0.0203213
0.0204028
0.0329743
0.000676505
0.0038448
0.00164199
0.00680215
0.002822
0.0093045
0.00470637
0.0114329
0.00798361
0.0130948
0.012217
0.0139823
0.0170366
0.0144695
0.0222808
0.0147101
0.0278532
0.0147489
0.0145879
0.0336681
0.00066468
0.00318012
0.00155625
0.00591057
0.00300175
0.007859
0.00559483
0.00883978
0.00939242
0.00929724
0.0139207
0.00945402
0.0189703
0.00941986
0.0244419
0.00923853
0.0302675
0.00892323
0.0084798
0.0363756
0.000594869
0.00258524
0.00172348
0.00478195
0.00407906
0.00550341
0.00754563
0.00537319
0.0118075
0.0050354
0.0166644
0.0045971
0.022015
0.00406922
0.0278002
0.00345331
0.0339686
0.00275487
0.00198706
0.0404613
0.000528153
0.00205708
0.00250088
0.00280921
0.00577771
0.00222657
0.00978375
0.00136715
0.0143823
0.000436794
0.0195281
-0.000548681
0.0251912
-0.00159384
0.0313286
-0.00268413
0.0378794
-0.00379589
-0.00491696
0.0447834
0.000884748
0.00117233
0.00363619
5.77521e-05
0.00720288
-0.00134013
0.0113934
-0.00282335
0.0161949
-0.00436473
0.0216182
-0.005972
0.0276215
-0.00759711
0.0341133
-0.00917602
0.0410105
-0.0106931
-0.0121787
0.0482723
0.00150693
-0.000334611
0.00413469
-0.00257002
0.00755747
-0.00476291
0.0117758
-0.00704166
0.0167967
-0.0093857
0.0225405
-0.0117158
0.0288391
-0.0138957
0.0355712
-0.0159081
0.0427117
-0.0178336
-0.0197284
0.0502613
0.0010466
0.00313285
0.00645486
0.0109272
0.0163126
0.0222909
0.0287012
0.0355765
0.0429849
0.0509045
0.0514269
0.0837073
-0.0982343
0.077346
-0.00756707
-0.018352
0.0999981
-0.0512481
0.028596
0.113698
-0.0471704
0.0334703
0.121676
-0.0268914
0.0189138
0.125301
-0.00800664
0.00438153
0.126327
0.00345514
-0.00448082
0.12643
0.00747489
-0.00757838
0.126299
0.00784645
-0.00771552
0.00547977
-0.00605937
0.0586464
0.0592039
0.0917321
-0.0406528
0.118939
-0.0784555
0.134981
-0.0632117
0.143723
-0.0356342
0.147383
-0.011666
0.148135
0.00270282
0.147888
0.00772169
0.147415
0.00832009
0.00524645
0.0666802
0.0254979
0.105134
-0.079107
0.136181
-0.109502
0.155851
-0.0828819
0.165868
-0.045651
0.169598
-0.0153964
0.169971
0.00232953
0.169213
0.00847975
0.16823
0.00930332
0.00550209
0.0755818
-0.0164158
0.117992
-0.121517
0.151936
-0.143446
0.175371
-0.106317
0.187441
-0.0577212
0.191509
-0.0194642
0.191542
0.00229635
0.190223
0.00979964
0.188651
0.010875
0.00632615
0.0846549
-0.0646951
0.129836
-0.166699
0.165951
-0.17956
0.1927
-0.133067
0.20768
-0.0727011
0.212688
-0.0244716
0.212581
0.00240256
0.210746
0.0116346
0.208584
0.0130374
0.00773795
0.0931245
-0.117358
0.140331
-0.213905
0.178133
-0.217362
0.207447
-0.162382
0.225724
-0.0909777
0.232593
-0.0313406
0.232769
0.00222644
0.23059
0.0138133
0.227926
0.0157018
0.00969031
0.100326
-0.172901
0.1492
-0.26278
0.188382
-0.256543
0.219534
-0.193533
0.240875
-0.112319
0.250582
-0.0410474
0.251741
0.00106723
0.249539
0.0160147
0.24656
0.0186808
0.0120662
0.105909
-0.230538
0.156317
-0.313187
0.196643
-0.296869
0.229065
-0.225956
0.25281
-0.136064
0.265921
-0.0541585
0.269052
-0.00206314
0.267342
0.0177248
0.264353
0.0216694
0.0146725
0.109858
-0.290134
0.161714
-0.365044
0.202941
-0.338096
0.236216
-0.259231
0.261581
-0.161429
0.277979
-0.0705569
0.284149
-0.00823282
0.283689
0.0181842
0.28114
0.0242182
0.0172306
0.112491
0.165568
0.207412
0.241177
0.267498
0.286478
0.296365
0.298181
0.296713
0.0132007
0.00607772
-0.0192784
0.0109897
0.00221096
0.0115097
-0.00052004
0.0129339
-0.00142417
0.0136494
-0.000715565
0.0137665
-0.000117095
0.0135409
0.000225657
0.0131746
0.000366252
0.0129122
0.000262421
0.000364562
0.0372492
0.0232147
-0.0543862
0.0314961
0.00796404
0.0340101
-0.003034
0.0380704
-0.00548454
0.0402452
-0.0028904
0.0406423
-0.000514122
0.039999
0.000868955
0.0389962
0.00136907
0.0380625
0.00119611
0.00122447
0.0579668
0.0480945
-0.0828465
0.0508875
0.0150433
0.0559028
-0.00804924
0.0624879
-0.0120697
0.0661591
-0.0065616
0.0669152
-0.0012702
0.0659223
0.00186192
0.0643389
0.00295239
0.062735
0.0028
0.00249745
0.0739074
0.0753981
-0.101211
0.0680872
0.0208634
0.0764613
-0.0164233
0.0858045
-0.0214129
0.0911281
-0.0118852
0.0923843
-0.0025264
0.091147
0.00309917
0.0890491
0.00505033
0.0868469
0.00500218
0.00413138
0.0814002
-0.104237
0.0839115
0.096084
0.108141
0.11517
0.117025
0.115643
0.113115
0.110402
0.00273369
-0.000172927
-0.00256076
0.00326456
-0.000530876
0.00417681
-0.000912239
0.00548787
-0.00131107
0.0071843
-0.00169642
0.00922888
-0.00204458
0.0115855
-0.00235661
0.0141738
-0.00258834
0.016859
-0.00268515
-0.00241942
0.00778748
-0.000645703
-0.0073147
0.00923438
-0.00197778
0.0117138
-0.00339162
0.0152702
-0.00486748
0.0198845
-0.00631072
0.0254825
-0.0076426
0.0319648
-0.00883896
0.0391563
-0.00977981
0.0467677
-0.0102966
-0.0100379
0.0124781
-0.00138377
-0.0117401
0.0147278
-0.00422749
0.0185607
-0.00722452
0.0240247
-0.0103315
0.0310794
-0.0133654
0.0395863
-0.0161495
0.0493283
-0.018581
0.0600517
-0.0205033
0.071416
-0.0216609
-0.0214685
0.0168075
-0.00234772
-0.0158436
0.0197318
-0.00715174
0.024675
-0.0121678
0.0316515
-0.017308
0.0405502
-0.022264
0.0511064
-0.0267057
0.0629377
-0.0304123
0.0756948
-0.0332604
0.0888616
-0.0348277
-0.0338179
0.0207931
-0.0196336
0.0242927
0.0301542
0.0383179
0.0485408
0.060344
0.0730439
0.0856047
0.0959914
0.0314444
-0.0313066
0.0371113
-0.037249
0.0255841
-0.0309036
0.0367639
0.0199258
-0.030071
0.0357293
0.0146795
-0.0286749
0.0339212
0.0100599
-0.0264663
0.031086
0.00620476
-0.0227789
0.026634
0.00311384
-0.0176477
0.0207386
0.00101743
-0.0136221
0.0157185
-8.67357e-05
-0.0101616
0.0112657
-0.00564231
0.00555558
0.0294606
-0.0254433
-0.0353239
0.0237449
-0.0251879
0.0182551
-0.0245811
0.0131692
-0.023589
0.00874039
-0.0220375
0.00535043
-0.0193889
0.00301978
-0.015317
0.00139655
-0.0119989
0.000298206
-0.00906323
-0.0053441
0.0294321
-0.0194552
-0.0354202
0.0236281
-0.0193839
0.0181109
-0.0190639
0.0129975
-0.0184757
0.00849103
-0.017531
0.00504251
-0.0159404
0.00300401
-0.0132785
0.00164451
-0.0106394
0.000582434
-0.00800114
-0.00476166
0.0313523
-0.0131922
-0.0376153
0.0253239
-0.0133553
0.0196134
-0.0133534
0.0143073
-0.0131696
0.00954447
-0.0127681
0.00564959
-0.0120455
0.00319579
-0.0108247
0.00176039
-0.00920396
0.000726639
-0.00696739
-0.00403502
0.0349541
-0.00653689
-0.0416094
0.0285806
-0.00698188
0.0225611
-0.00733385
0.0169617
-0.00757017
0.011873
-0.00767935
0.00747958
-0.00765209
0.00413375
-0.00747887
0.00199203
-0.00706223
0.000798152
-0.0057735
-0.00323686
0.0392753
0.000571304
-0.0463835
0.0324923
-0.00019879
0.0261068
-0.0009484
0.0201936
-0.00165698
0.0148133
-0.00229905
0.010029
-0.00286774
0.00592437
-0.00337423
0.00267391
-0.00381176
0.000720605
-0.00382018
-0.00251625
0.0431148
0.0080895
-0.050633
0.0359368
0.00697921
0.0291526
0.00583588
0.0228621
0.00463351
0.0171678
0.00339525
0.0121094
0.00219068
0.00766786
0.00106728
0.00384922
6.89641e-06
0.000979694
-0.000950647
-0.00153655
0.0453948
0.0158951
-0.0532004
0.0379656
0.0144085
0.03091
0.0128915
0.0242641
0.0112794
0.0181711
0.00948826
0.0128175
0.00754426
0.00828247
0.00560232
0.00454118
0.00374819
0.00163224
0.00195831
9.56945e-05
0.0455481
0.0239993
-0.0536523
0.0379289
0.0220277
0.0307982
0.0200222
0.0240686
0.018009
0.0177073
0.0158496
0.0119084
0.0133431
0.00704982
0.010461
0.00341845
0.00737956
0.00114794
0.00422883
0.00124364
0.0444877
-0.0530038
0.0365297
0.0292598
0.0226589
0.0165303
0.0107589
0.00566509