/*--------------------------------*- C++ -*----------------------------------*\
  =========                 |
  \\      /  F ield         | OpenFOAM: The Open Source CFD Toolbox
   \\    /   O peration     | Website:  https://openfoam.org
    \\  /    A nd           | Version:  13
     \\/     M anipulation  |
\*---------------------------------------------------------------------------*/
FoamFile
{
    format      ascii;
    class       volScalarField;
    location    "0.865";
    object      strainRateViscosityModel:nu;
}
// * * * * * * * * * * * * * * * * * * * * * * * * * * * * * * * * * * * * * //

dimensions      [0 2 -1 0 0 0 0];

internalField   nonuniform List<scalar> 
1800
(
9.40488
9.1976
9.01007
8.80096
8.57617
8.34416
8.11549
7.89818
7.6242
7.37922
9.58523
9.41878
9.2669
9.09733
8.91118
8.71144
8.50358
8.28868
8.0273
7.70207
9.70219
9.56269
9.42803
9.27096
9.08869
8.879
8.64092
8.36904
8.03058
7.6106
9.77539
9.65614
9.53324
9.38287
9.2005
8.98172
8.72281
8.41597
8.02878
7.55456
9.82168
9.7183
9.60558
9.46167
9.28071
9.05696
8.78549
8.45889
8.04775
7.55614
9.85185
9.76081
9.6573
9.52059
9.34355
9.11896
8.84034
8.50016
8.07152
7.5702
9.87179
9.78991
9.69398
9.56396
9.39147
9.16769
8.8842
8.53252
8.08735
7.57567
9.88475
9.80924
9.71888
9.59394
9.42494
9.20146
8.91309
8.55005
8.08853
7.56355
9.8926
9.82107
9.73416
9.6122
9.44466
9.21962
8.92483
8.54922
8.07121
7.52871
9.89646
9.82685
9.74153
9.62069
9.45309
9.22573
8.92512
8.53953
8.05038
7.49285
1.80228
1.40519
1.20885
1.31958
1.73035
2.25187
2.49676
2.44884
2.35888
2.33519
3.73156
1.78065
1.4908
1.98108
2.69603
2.97263
2.81685
2.67117
2.68741
2.74087
4.70361
2.56935
2.43506
3.17687
3.5969
3.34595
3.08098
3.11789
3.25808
3.33872
5.2697
3.88137
3.81481
4.21368
4.18067
3.82901
3.72077
3.85473
3.95733
4.00633
6.05602
5.27501
5.11767
5.1214
4.91493
4.65311
4.57785
4.61206
4.61236
4.65207
6.9599
6.45981
6.22674
6.03829
5.78828
5.54532
5.38909
5.29321
5.22203
5.27461
7.77173
7.37769
7.11677
6.86033
6.58744
6.32055
6.08722
5.90086
5.77009
5.82365
8.40013
8.05531
7.79202
7.51581
7.22654
6.93125
6.6422
6.38629
6.1922
6.22919
8.84934
8.54538
8.29101
8.01033
7.70574
7.37952
7.03565
6.70113
6.41571
6.42169
9.16164
8.90154
8.66633
8.39668
8.09573
7.76579
7.40647
7.03565
6.70851
6.75237
2.19318
1.72897
1.33159
0.937098
0.619819
0.350131
0.187064
0.141464
0.159046
0.24737
2.52739
1.84795
1.40647
0.932226
0.593462
0.334255
0.176528
0.105912
0.10665
0.191125
2.94792
1.97699
1.47873
0.92946
0.557515
0.306784
0.164612
0.0902283
0.0671098
0.134043
3.44035
2.14692
1.55001
0.932314
0.517957
0.271465
0.147463
0.0786388
0.0617293
0.0769192
3.98264
2.385
1.62746
0.941335
0.479111
0.231962
0.126374
0.0644355
0.0702104
0.0320697
4.52824
2.69621
1.72379
0.957725
0.444068
0.191308
0.101807
0.0515382
0.0575128
0.0587227
4.99676
3.056
1.84578
0.980491
0.412897
0.151507
0.0758056
0.0407033
0.0348923
0.122812
5.31264
3.43905
2.01299
1.02328
0.392031
0.115351
0.0510303
0.0264176
0.0452793
0.185148
5.34316
3.7225
2.16268
1.05521
0.368871
0.0828828
0.0305916
0.0217099
0.100916
0.248073
5.20191
3.98862
2.39825
1.15898
0.385287
0.0662601
0.0103313
0.0583986
0.146191
0.300153
4.94426
3.94218
2.45534
1.17307
0.360164
0.0531526
0.032077
0.108023
0.204368
0.359638
5.33025
3.34745
2.13978
0.998953
0.360276
0.140937
0.118615
0.176124
0.276156
0.424329
4.90471
3.04606
2.24898
1.20692
0.5926
0.295997
0.206472
0.245274
0.338576
0.473421
4.54692
3.63263
2.68247
1.64187
0.893749
0.496997
0.341268
0.333444
0.404386
0.514054
5.11438
4.74797
3.34306
2.16469
1.23848
0.730365
0.498395
0.435892
0.472549
0.546631
6.25448
5.66958
4.05708
2.67382
1.59851
0.98166
0.674811
0.552216
0.545427
0.574394
7.26268
6.3737
4.71358
3.15443
1.95708
1.2403
0.859613
0.676458
0.621363
0.599055
8.0001
6.91202
5.25974
3.58882
2.29983
1.5004
1.04988
0.806412
0.700802
0.623213
8.51876
7.33071
5.69726
3.96995
2.62028
1.75358
1.23632
0.933468
0.777666
0.645183
8.931
7.69117
6.04968
4.28298
2.92515
2.02402
1.44696
1.08106
0.872838
0.67742
6.51282
6.43966
6.43043
6.44873
6.48733
6.52991
6.58194
6.71047
6.89514
6.82616
0.260654
1.05707
2.00764
2.92266
3.70357
4.31616
4.73288
4.98236
5.22139
5.72754
3.85082
3.54393
3.28472
3.11149
3.10656
3.25015
3.47233
3.71343
4.16492
4.8447
6.64416
6.62721
6.53712
6.3447
6.04332
5.65795
5.24974
4.89624
4.73966
4.54958
7.69184
7.67653
7.63211
7.54128
7.39613
7.18986
6.9271
6.61955
6.28606
5.65653
8.44951
8.43311
8.39435
8.32771
8.22957
8.09671
7.92836
7.71683
7.42793
6.90785
8.93967
8.92393
8.89028
8.83679
8.76166
8.6629
8.53815
8.37892
8.15467
7.80861
9.27298
9.25981
9.23246
9.18985
9.13052
9.05245
8.95268
8.82481
8.65281
8.4309
9.50446
9.49417
9.47307
9.44024
9.39426
9.33319
9.25424
9.15286
9.02288
8.87534
9.6899
9.68285
9.66852
9.64604
9.61405
9.5707
9.51361
9.43975
9.34638
9.2441
7.24801
7.52616
7.83692
8.08767
8.34481
8.59963
8.84139
9.06158
9.25458
9.46024
7.58308
7.94804
8.24096
8.48112
8.70935
8.92482
9.12231
9.299
9.45391
9.61805
7.49848
7.95737
8.32595
8.62051
8.87576
9.09774
9.28806
9.44952
9.58535
9.72225
7.44687
7.9576
8.37376
8.702
8.97659
9.20597
9.39471
9.54806
9.6713
9.78824
7.45632
7.98066
8.41861
8.7649
9.05054
9.28356
9.46977
9.61591
9.72868
9.83022
7.48241
8.01168
8.46402
8.82147
9.11234
9.34475
9.52606
9.66446
9.76796
9.85764
7.50363
8.03786
8.50277
8.86863
9.16197
9.39189
9.56763
9.6989
9.79478
9.8757
7.51114
8.05246
8.52872
8.90209
9.19746
9.42521
9.5964
9.72212
9.81243
9.88729
7.49836
8.05045
8.53742
8.91898
9.21768
9.44503
9.61371
9.73606
9.82289
9.89404
7.48288
8.04358
8.53592
8.92344
9.22525
9.4533
9.62123
9.74216
9.82746
9.89693
2.55949
2.51587
2.53356
2.74521
2.93133
2.55909
1.70222
1.18328
1.5242
4.20126
2.96604
2.87776
2.71785
2.71531
3.10503
3.4337
2.82541
1.90962
2.12748
5.13792
3.45292
3.40956
3.25175
3.06513
3.265
3.82404
3.80478
3.16366
3.29153
5.45719
3.94364
3.93292
3.90664
3.79754
3.89037
4.31789
4.58967
4.46899
4.66244
5.91438
4.49644
4.46899
4.54446
4.61626
4.78028
5.11394
5.43846
5.61951
5.89732
6.632
5.10013
5.05762
5.19734
5.39589
5.6569
5.98043
6.30871
6.59561
6.90113
7.40683
5.65284
5.61663
5.8176
6.09029
6.40766
6.74088
7.06858
7.37821
7.67883
8.08662
6.06617
6.05165
6.31484
6.64219
6.99495
7.33981
7.66732
7.97423
8.25899
8.61108
6.25998
6.27897
6.63086
7.02586
7.42012
7.78443
8.11675
8.41671
8.68284
8.98797
6.59986
6.56975
6.95594
7.37947
7.78134
8.14313
8.46655
8.75045
8.99301
9.25186
0.113448
0.154758
0.122945
0.0644959
0.0159092
0.395544
0.932745
1.48542
1.95207
2.43397
0.0800923
0.140316
0.118866
0.0669829
0.0156341
0.388373
0.93672
1.54804
2.03067
2.69964
0.058383
0.13197
0.117115
0.0702417
0.0245205
0.388509
0.942463
1.59752
2.10076
3.0094
0.0452389
0.129539
0.118861
0.0775115
0.0426544
0.395964
0.947948
1.63412
2.20383
3.39565
0.0386275
0.132158
0.122732
0.0868882
0.0657304
0.405058
0.950559
1.66932
2.38152
3.86572
0.037692
0.139083
0.127119
0.0957636
0.0894596
0.412415
0.954312
1.72648
2.648
4.36292
0.0426692
0.150535
0.13081
0.10198
0.109126
0.415666
0.964429
1.82205
2.97995
4.79374
0.0541604
0.166997
0.133455
0.105739
0.124321
0.423865
1.00497
1.98107
3.34677
5.07844
0.0739026
0.188177
0.135192
0.103137
0.127274
0.42359
1.04178
2.13236
3.62527
5.08162
0.104598
0.210894
0.13757
0.103879
0.142341
0.470302
1.1783
2.39062
3.87508
4.89025
0.161218
0.239637
0.143006
0.100954
0.130789
0.473515
1.24322
2.50365
3.88438
4.67266
0.264253
0.271339
0.133005
0.0756737
0.0692893
0.385045
1.11839
2.30224
3.42925
5.19182
0.429129
0.270709
0.0996194
0.0140053
0.0150437
0.347103
1.15022
2.35161
3.25624
4.93783
0.682395
0.254582
0.0229352
0.0815704
0.100405
0.540019
1.43304
2.62545
3.71586
4.69852
1.06574
0.0476781
0.26456
0.235227
0.313937
0.891697
1.93432
3.20711
4.70746
5.1778
1.5147
0.122596
0.538868
0.416151
0.595473
1.30843
2.47427
3.91744
5.59888
6.22343
2.19504
0.683311
0.856503
0.688929
0.94154
1.73841
2.99229
4.59361
6.30247
7.21636
3.7922
1.70629
1.27513
1.03668
1.31753
2.15016
3.46117
5.16515
6.85408
7.96876
6.86014
3.57566
1.96365
1.42137
1.6789
2.52371
3.87323
5.63115
7.29513
8.50724
9.04906
6.38369
2.84317
2.00172
2.11548
2.8963
4.22354
6.01904
7.6865
8.93809
6.62441
6.68746
6.51077
6.38901
6.34867
6.3225
6.30554
6.31733
6.36195
6.47625
5.52794
5.00911
4.76539
4.52438
4.12629
3.54039
2.79852
1.93206
1.04465
0.284217
4.84958
4.23672
3.8273
3.61682
3.43007
3.31063
3.31551
3.45775
3.65545
3.87436
4.71257
4.88608
5.02855
5.33803
5.70218
6.0524
6.33393
6.5214
6.61653
6.64158
5.68804
6.28598
6.61237
6.91137
7.17237
7.38146
7.5318
7.62813
7.67669
7.69239
6.86591
7.38861
7.68443
7.90231
8.07658
8.21483
8.3178
8.38855
8.43054
8.44888
7.7651
8.12048
8.35196
8.5179
8.64796
8.75098
8.82956
8.88582
8.92164
8.93899
8.40453
8.63267
8.80887
8.94092
9.04401
9.12465
9.18596
9.23006
9.25854
9.27259
8.86615
9.01619
9.14761
9.2506
9.33082
9.39283
9.43944
9.47267
9.494
9.50442
9.24869
9.35045
9.44302
9.51631
9.57294
9.61588
9.64748
9.66957
9.68348
9.69012
9.50947
8.98534
8.23589
6.92826
5.59797
0.131167
3.36083
5.96039
7.21409
8.15187
9.46542
8.92156
8.16813
6.89059
5.54939
0.563769
2.62222
5.70602
6.91644
7.91397
9.36569
8.78283
8.02028
6.80962
5.36636
1.60348
1.41357
5.20663
6.30935
7.40332
9.18256
8.54514
7.77451
6.65513
5.18645
2.74004
0.723099
4.23839
5.42158
6.5715
8.86812
8.1736
7.40403
6.37696
5.02653
3.36803
0.970959
2.63163
4.31696
5.39382
8.35053
7.62974
6.87343
5.9173
4.76512
3.44004
1.71925
1.30194
3.04929
3.98815
7.53605
6.89662
6.15557
5.22758
4.29967
3.26955
2.14311
1.17254
1.65626
2.55743
6.32539
6.03759
5.28136
4.2319
3.53344
2.91259
2.11846
1.43525
1.0686
1.23537
4.63172
5.23228
4.47438
2.99959
2.43707
2.27444
1.85603
1.38491
1.12277
0.659179
2.67282
4.5396
4.02166
1.96669
1.39674
1.48833
1.40996
1.21182
1.06413
0.845294
1.27679
3.78907
3.66667
1.33715
0.816147
0.89766
0.971166
0.956392
0.971846
1.01994
0.613517
2.97
3.08227
0.956424
0.575307
0.640056
0.75957
0.820161
0.844149
0.877114
0.355395
2.18983
2.28552
0.688153
0.492696
0.5955
0.726622
0.81099
0.848764
0.873508
0.265327
1.55085
1.48925
0.521667
0.534811
0.674471
0.78799
0.859018
0.882421
0.892648
0.239651
1.0188
0.845523
0.51461
0.670041
0.803647
0.904859
0.968363
0.984061
0.98094
0.24286
0.492789
0.500133
0.636847
0.817931
0.955435
1.0532
1.11086
1.12137
1.11319
0.176823
0.204032
0.508478
0.756546
0.975241
1.12103
1.21068
1.25766
1.27447
1.27511
0.0451494
0.252115
0.649546
0.923091
1.13638
1.25369
1.32977
1.39969
1.45635
1.4782
0.0613137
0.492614
0.822466
1.09605
1.22965
1.3385
1.48924
1.64807
1.73528
1.75075
0.69776
0.865703
1.04047
1.18315
1.32297
1.59724
1.91047
2.0801
2.08159
2.04844
0.363078
0.0805726
0.223987
0.550994
0.79512
0.891971
0.887544
0.840023
0.789975
0.754088
0.46216
0.202504
0.3194
0.521718
0.724309
0.811059
0.808913
0.769317
0.726441
0.705407
0.525881
0.372526
0.440375
0.513981
0.653758
0.730854
0.731996
0.699438
0.663133
0.65636
0.639103
0.588245
0.595908
0.555913
0.587589
0.643582
0.650061
0.62713
0.599039
0.60702
0.806283
0.803909
0.742462
0.638578
0.542337
0.556281
0.566271
0.553919
0.534702
0.557415
1.00988
0.999842
0.87578
0.738083
0.531248
0.474633
0.48116
0.479733
0.470168
0.507514
1.22796
1.17139
0.990673
0.826211
0.553214
0.40878
0.39758
0.405339
0.405745
0.457213
1.45266
1.3255
1.0894
0.888775
0.589979
0.368405
0.319886
0.331758
0.341759
0.406314
1.68508
1.46887
1.17569
0.923944
0.619764
0.354355
0.254759
0.260788
0.2787
0.354578
1.92626
1.60368
1.25502
0.937258
0.630168
0.353887
0.209803
0.195636
0.217371
0.301653
2.00918
0.747598
0.718043
0.966073
1.19889
1.28579
1.26017
1.18128
1.1099
1.00955
1.39446
0.483043
0.579517
0.875354
1.11066
1.19939
1.17875
1.10699
1.03875
0.951188
0.751594
0.288046
0.481605
0.798336
1.03627
1.12715
1.11087
1.04483
0.980368
0.90407
0.25334
0.170406
0.405986
0.726562
0.961105
1.05068
1.03718
0.976942
0.916858
0.853433
0.435814
0.0326996
0.267521
0.613572
0.864993
0.966185
0.961274
0.908629
0.853581
0.803458
9.35465
9.29006
9.14101
8.87311
8.43757
7.77891
6.87137
5.75933
4.58202
3.53713
9.19249
9.09567
8.88112
8.51167
7.94153
7.13649
6.10967
4.95512
3.84479
2.78684
9.02389
8.90028
8.62663
8.16106
7.46178
6.51618
5.37146
4.16867
3.0813
1.94239
8.81633
8.66222
8.32152
7.74794
6.90619
5.81427
4.555
3.29482
2.22582
1.08994
8.58751
8.3794
7.92585
7.17747
6.11254
4.79211
3.35064
2.08511
0.993867
0.302004
1.06017
1.02437
1.01615
1.01966
0.915085
0.799587
1.29335
3.68348
3.85989
1.32288
0.949104
0.933655
0.926034
0.87059
0.718678
0.588393
0.910684
3.14211
3.11018
0.647321
0.985871
0.982335
0.965447
0.892656
0.747181
0.584165
0.698023
2.37296
2.34718
0.377376
1.05333
1.06524
1.06108
1.00124
0.889731
0.740388
0.65533
1.55802
1.63536
0.277226
1.18608
1.21024
1.21596
1.16824
1.07703
0.951818
0.789137
0.910534
0.920324
0.24612
1.35142
1.37136
1.37965
1.35458
1.28475
1.15148
0.930059
0.670291
0.358533
0.216814
1.55609
1.55203
1.5196
1.47723
1.42648
1.3203
1.08016
0.754617
0.272593
0.0664366
1.82439
1.81803
1.73543
1.58233
1.44222
1.34563
1.21096
0.902417
0.49471
0.0467857
2.10487
2.15221
2.15078
1.9569
1.613
1.32322
1.1874
1.05751
0.857225
0.676176
2.31322
2.36
2.48465
2.53717
2.23511
1.63332
1.18283
1.06679
1.305
2.04361
8.15168
7.21374
5.96003
3.36033
0.131423
5.5965
6.92777
8.2357
8.98536
9.50956
7.91328
6.91533
5.70501
2.62161
0.563639
5.54554
6.88914
8.16755
8.92161
9.46573
7.40186
6.30746
5.20484
1.41547
1.59976
5.36187
6.80735
8.01941
8.78295
9.36627
6.56885
5.41868
4.23623
0.726272
2.73173
5.18172
6.65228
7.77353
8.54547
9.18358
5.38944
4.31248
2.63266
0.971028
3.35669
5.02057
6.37351
7.40309
8.17434
8.86988
3.97982
3.04148
1.31018
1.71321
3.42678
4.75624
5.9125
6.87255
7.63122
8.35351
2.5411
1.65351
1.18715
2.13286
3.2509
4.28302
5.21886
6.15467
6.89953
7.54138
1.21763
1.08763
1.45169
2.10723
2.88049
3.50309
4.21751
5.28212
6.04359
6.33606
0.67161
1.15286
1.40703
1.84231
2.23203
2.40024
2.98384
4.47945
5.24362
4.65552
0.88479
1.10236
1.24701
1.41259
1.46373
1.36894
1.94327
4.02661
4.56523
2.71652
2.09009
0.543334
1.06117
0.628879
0.660617
0.758398
0.632601
0.3003
0.0619292
0.356472
1.63033
0.236779
0.870078
0.478574
0.56658
0.68125
0.593773
0.356885
0.265803
0.488443
1.33438
0.0583708
0.641969
0.340167
0.477966
0.602037
0.562642
0.459572
0.473201
0.591008
1.09823
0.0146834
0.394038
0.231526
0.393255
0.518555
0.56289
0.626098
0.732791
0.758299
0.848271
0.0890808
0.18969
0.158032
0.315548
0.442154
0.609233
0.805265
0.975094
0.977578
0.636102
0.153765
0.0532339
0.10106
0.243797
0.386447
0.694813
0.975418
1.19453
1.22503
0.463917
0.208997
0.0488951
0.0530848
0.18027
0.365231
0.788719
1.11948
1.38688
1.48136
0.331698
0.209824
0.107114
0.0108054
0.122146
0.37404
0.862866
1.23655
1.55878
1.73644
0.233383
0.195379
0.121894
0.0355293
0.0643386
0.391376
0.906768
1.33194
1.71271
1.9777
0.162749
0.173976
0.127373
0.0576572
0.0290441
0.399612
0.926225
1.4133
1.84583
2.20121
9.33657
6.77033
2.6649
1.69935
1.20171
1.12033
0.964488
0.781483
0.796305
2.03312
8.21092
4.63646
2.21499
1.41731
1.06904
1.03544
0.890927
0.65085
0.527883
1.39864
6.12016
3.06397
1.78528
1.20993
0.964061
0.971117
0.831987
0.56113
0.328736
0.741044
4.13319
1.87593
1.49742
1.0034
0.857966
0.90395
0.77569
0.48762
0.228629
0.225187
2.83563
1.06128
1.2463
0.802702
0.754817
0.826404
0.686015
0.356378
0.0444297
0.398148
3.5477
4.58915
5.76325
6.87355
7.78046
8.43871
8.87389
9.14149
9.29033
9.35474
2.78094
3.84106
4.95237
6.1079
7.13588
7.94154
8.51189
8.88135
9.09583
9.19255
1.92842
3.07191
4.16219
5.3667
6.51363
7.46064
8.16064
8.62655
8.9003
9.02392
1.05568
2.20315
3.28164
4.54678
5.81005
6.90397
7.74682
8.32105
8.66207
8.81631
0.300536
0.962748
2.06399
3.33751
4.78516
6.10895
7.17549
7.9249
8.37903
8.58742
)
;

boundaryField
{
    left
    {
        type            calculated;
        value           nonuniform List<scalar> 
35
(
0.297712
0.566484
0.987021
1.62626
2.52461
3.69556
5.0661
6.47607
8.15849
9.4418
0.21402
0.134175
0.0817399
0.0497059
0.0328548
0.0275342
0.0329439
0.0524072
0.0922844
0.159916
4.93339
4.06161
3.2348
2.51295
1.9171
1.42716
1.03085
0.724806
0.496546
0.330816
9.61573
8.97907
7.92205
6.84777
5.85938
)
;
    }
    right
    {
        type            calculated;
        value           nonuniform List<scalar> 
35
(
1.00909
0.950938
0.904152
0.854368
0.805539
0.757722
0.710691
0.663163
0.615241
0.566939
0.518146
0.46862
0.417979
0.365751
0.311325
0.254295
0.193899
0.130874
0.0678862
0.024322
0.0539681
0.129269
0.203806
0.273061
0.328401
0.390281
0.454636
0.501781
0.538633
0.56595
0.587709
0.606595
0.626221
0.645587
0.675401
)
;
    }
    down
    {
        type            calculated;
        value           nonuniform List<scalar> 
40
(
9.45431
7.26634
2.89583
1.78854
1.24247
1.14872
0.989966
0.82302
0.897402
2.26034
3.83287
4.88245
6.03396
7.09288
7.94462
8.55503
8.95448
9.19926
9.33565
9.39488
9.39479
9.33537
9.19874
8.95361
8.55369
7.94267
7.08995
6.02877
4.87321
3.81891
2.2323
0.847693
0.761937
0.998036
1.23065
1.31547
1.28718
1.20527
1.13286
1.02845
)
;
    }
    up
    {
        type            calculated;
        value           nonuniform List<scalar> 
40
(
9.0341
7.80881
6.16755
4.39476
3.0334
2.11893
1.51953
1.13016
0.904938
0.689576
9.72927
9.72305
9.71045
9.69064
9.66234
9.62377
9.57263
9.50586
9.42076
9.32814
9.33506
9.42656
9.5104
9.57623
9.62665
9.66461
9.69238
9.71169
9.72379
9.72952
9.27074
7.09622
3.23915
2.15355
2.23483
3.01583
4.3457
6.1487
7.81368
9.04496
)
;
    }
    cylinder
    {
        type            calculated;
        value           nonuniform List<scalar> 
80
(
2.00388
4.57352
5.53992
5.7799
6.30511
7.09062
7.86181
8.47477
8.91245
9.2129
9.44581
9.61871
9.72981
9.79829
9.84096
9.86846
9.8865
9.89817
9.90522
9.90869
9.50039
9.6506
9.74902
9.81046
9.849
9.87389
9.89016
9.90054
9.90657
9.90913
5.32878
6.23445
6.21151
6.31601
6.83468
7.52672
8.17623
8.686
9.05066
9.3025
0.994262
0.471539
0.264191
0.183209
0.159548
0.165573
0.0828457
0.0422887
0.750287
2.43323
9.59446
9.55589
9.46745
9.30187
9.00979
8.51137
7.68627
6.36656
4.3872
2.23873
9.59436
9.55556
9.46683
9.30079
9.00793
8.5082
7.68053
6.3545
4.35816
2.19135
0.952837
0.442297
0.244359
0.17085
0.150283
0.165491
0.160811
0.0838936
0.0433605
0.738063
)
;
    }
    defaultFaces
    {
        type            empty;
    }
}


// ************************************************************************* //
