# Selection   : all
# Cells       : 1800
# Volume      : 7.372328e+01
# Time        	minMag(U)
1.55          	5.226240e-03
1.575         	3.584773e-03
1.6           	3.102349e-03
