# Selection   : all
# Cells       : 440
# Volume      : 7.374263e+01
# Time        	maxMag(U)
8.115         	2.783792e+00
8.16          	2.781894e+00
8.21          	2.781191e+00
