/*--------------------------------*- C++ -*----------------------------------*\
  =========                 |
  \\      /  F ield         | OpenFOAM: The Open Source CFD Toolbox
   \\    /   O peration     | Website:  https://openfoam.org
    \\  /    A nd           | Version:  13
     \\/     M anipulation  |
\*---------------------------------------------------------------------------*/
FoamFile
{
    format      ascii;
    class       volScalarField;
    location    "0.72";
    object      strainRateViscosityModel:nu;
}
// * * * * * * * * * * * * * * * * * * * * * * * * * * * * * * * * * * * * * //

dimensions      [0 2 -1 0 0 0 0];

internalField   nonuniform List<scalar> 
1800
(
9.40488
9.1976
9.01006
8.80095
8.57615
8.34414
8.11547
7.89817
7.62421
7.37926
9.58523
9.41878
9.2669
9.09733
8.91117
8.71143
8.50357
8.28867
8.0273
7.70209
9.70219
9.56269
9.42803
9.27096
9.08868
8.87899
8.64091
8.36903
8.03058
7.61061
9.77539
9.65614
9.53324
9.38287
9.20049
8.98172
8.72281
8.41596
8.02878
7.55457
9.82168
9.7183
9.60558
9.46167
9.28071
9.05696
8.78549
8.45888
8.04775
7.55615
9.85185
9.76081
9.6573
9.52059
9.34355
9.11896
8.84034
8.50016
8.07152
7.5702
9.87179
9.78991
9.69398
9.56396
9.39147
9.16769
8.8842
8.53252
8.08735
7.57567
9.88475
9.80924
9.71888
9.59394
9.42494
9.20146
8.91309
8.55005
8.08853
7.56355
9.8926
9.82107
9.73416
9.6122
9.44467
9.21963
8.92483
8.54923
8.07121
7.52871
9.89646
9.82686
9.74153
9.6207
9.45309
9.22573
8.92512
8.53953
8.05038
7.49285
1.79634
1.4053
1.21035
1.32082
1.7304
2.2509
2.49611
2.44911
2.35951
2.33579
3.72509
1.78188
1.4924
1.9813
2.69475
2.97203
2.8178
2.67262
2.68855
2.74173
4.6995
2.57067
2.43621
3.17612
3.59579
3.34667
3.08272
3.1193
3.25898
3.33944
5.26764
3.88228
3.81536
4.21307
4.18041
3.82997
3.72199
3.85556
3.95796
4.00699
6.05527
5.27542
5.11787
5.12114
4.91493
4.6536
4.57841
4.61255
4.61294
4.65272
6.95968
6.45995
6.22681
6.03818
5.78825
5.54545
5.38931
5.29354
5.2225
5.27513
7.77169
7.37773
7.11678
6.86026
6.58738
6.32053
6.08728
5.90103
5.77038
5.82399
8.40012
8.05531
7.79201
7.51576
7.22647
6.93119
6.64218
6.38635
6.19235
6.22939
8.84935
8.54538
8.29099
8.0103
7.70568
7.37946
7.03561
6.70113
6.41578
6.42182
9.16164
8.90154
8.66632
8.39666
8.0957
7.76575
7.40644
7.03565
6.70856
6.75245
2.1936
1.72941
1.33207
0.937135
0.619642
0.348908
0.181239
0.130614
0.144577
0.216006
2.5281
1.84877
1.40744
0.932882
0.593901
0.333123
0.169176
0.0935503
0.0899794
0.15634
2.94876
1.97803
1.48004
0.930651
0.558727
0.30635
0.156267
0.075689
0.0495985
0.095428
3.4412
2.14799
1.55146
0.933828
0.519844
0.272317
0.139173
0.0621733
0.0437177
0.0352839
3.98341
2.38601
1.62891
0.942963
0.481308
0.234349
0.118655
0.0501079
0.0446086
0.0188499
4.52886
2.69711
1.72519
0.959364
0.4462
0.194831
0.0957796
0.0403911
0.0398544
0.0240529
4.99726
3.05682
1.84709
0.98213
0.414836
0.155327
0.071646
0.0329705
0.0287123
0.0620266
5.31306
3.43981
2.01422
1.02495
0.393819
0.119203
0.0473278
0.0258212
0.0257273
0.134114
5.34354
3.7232
2.16381
1.05688
0.370864
0.0858909
0.0292691
0.0167437
0.0776881
0.200117
5.20226
3.98935
2.39938
1.16062
0.38758
0.0693133
0.0111168
0.0397367
0.132485
0.260566
4.94465
3.94285
2.4563
1.17431
0.362203
0.0516055
0.0225451
0.1066
0.196218
0.329444
5.33071
3.34809
2.13994
0.99799
0.357487
0.135732
0.115627
0.174738
0.275589
0.40648
4.9049
3.0455
2.24738
1.20401
0.588931
0.291752
0.199311
0.245912
0.341809
0.466813
4.54654
3.63157
2.68096
1.63978
0.891344
0.493728
0.334732
0.333852
0.410666
0.517808
5.11404
4.74752
3.34251
2.1639
1.23748
0.728664
0.492602
0.436384
0.480605
0.559231
6.25442
5.66949
4.05711
2.67383
1.59845
0.981096
0.670809
0.55329
0.554827
0.594197
7.26269
6.37372
4.71375
3.15472
1.95741
1.24045
0.857316
0.678637
0.63182
0.62434
8.00011
6.91205
5.2599
3.58913
2.30022
1.50086
1.04906
0.809925
0.712177
0.652391
8.51876
7.33074
5.69739
3.9702
2.62056
1.75408
1.23646
0.937856
0.78921
0.676647
8.931
7.69119
6.04979
4.28315
2.92527
2.02461
1.44815
1.0867
0.884267
0.709704
6.51282
6.43966
6.43043
6.44875
6.48735
6.52995
6.582
6.71054
6.89523
6.82629
0.260674
1.05712
2.00771
2.92277
3.7037
4.31633
4.73309
4.98262
5.2217
5.72788
3.85078
3.54388
3.28464
3.1114
3.10646
3.25007
3.4723
3.71346
4.16501
4.84489
6.64418
6.62723
6.53713
6.34469
6.04328
5.65785
5.24957
4.89601
4.73938
4.54931
7.69185
7.67654
7.63212
7.54129
7.39614
7.18986
6.92708
6.6195
6.28597
5.65636
8.44951
8.43312
8.39435
8.32772
8.22958
8.09672
7.92837
7.71684
7.42792
6.90783
8.93967
8.92394
8.89028
8.83679
8.76166
8.6629
8.53816
8.37892
8.15467
7.80862
9.27298
9.25981
9.23246
9.18985
9.13052
9.05245
8.95269
8.82481
8.65282
8.43091
9.50446
9.49417
9.47307
9.44024
9.39426
9.33319
9.25424
9.15286
9.02289
8.87534
9.6899
9.68285
9.66852
9.64604
9.61405
9.5707
9.51361
9.43975
9.34638
9.2441
7.24812
7.52622
7.83694
8.08766
8.34479
8.59961
8.84137
9.06157
9.25458
9.46025
7.58314
7.94807
8.24096
8.48111
8.70934
8.9248
9.1223
9.299
9.45391
9.61806
7.49852
7.95738
8.32595
8.62049
8.87574
9.09773
9.28805
9.44951
9.58536
9.72226
7.4469
7.95761
8.37376
8.70199
8.97658
9.20596
9.39471
9.54806
9.67131
9.78824
7.45634
7.98066
8.4186
8.76489
9.05054
9.28356
9.46977
9.61591
9.72868
9.83022
7.48242
8.01168
8.46401
8.82146
9.11234
9.34474
9.52606
9.66446
9.76796
9.85764
7.50364
8.03786
8.50277
8.86862
9.16197
9.39189
9.56763
9.6989
9.79479
9.8757
7.51114
8.05246
8.52871
8.90209
9.19746
9.42521
9.5964
9.72212
9.81243
9.88729
7.49836
8.05045
8.53742
8.91898
9.21768
9.44503
9.61371
9.73606
9.82289
9.89404
7.48288
8.04358
8.53593
8.92344
9.22525
9.4533
9.62123
9.74216
9.82746
9.89693
2.55766
2.51426
2.53226
2.74371
2.92858
2.55544
1.69974
1.1823
1.5232
4.19652
2.96486
2.87657
2.71695
2.71489
3.10446
3.43183
2.82278
1.90758
2.12555
5.13579
3.45284
3.40931
3.25141
3.06504
3.26518
3.82396
3.80375
3.16171
3.28919
5.45587
3.94444
3.93361
3.90712
3.79786
3.89066
4.31808
4.58942
4.4679
4.66079
5.91318
4.49746
4.46999
4.5453
4.61684
4.78061
5.11409
5.43836
5.61897
5.89647
6.63123
5.101
5.05847
5.19805
5.39637
5.65715
5.98051
6.30864
6.59536
6.90076
7.40647
5.65347
5.61722
5.81804
6.09055
6.40777
6.74088
7.06852
7.37809
7.67868
8.08649
6.06659
6.05202
6.31507
6.6423
6.99497
7.33978
7.66726
7.97416
8.25893
8.61105
6.26028
6.2792
6.63097
7.02588
7.4201
7.78439
8.1167
8.41667
8.68282
8.98796
6.60007
6.56991
6.95601
7.37948
7.78132
8.1431
8.46652
8.75043
8.993
9.25187
0.11171
0.155566
0.121221
0.0616752
0.0151733
0.391108
0.928106
1.48198
1.9496
2.43204
0.0780995
0.140822
0.116874
0.0633179
0.0149191
0.382537
0.932386
1.54543
2.02919
2.69867
0.0562851
0.132442
0.115055
0.0665328
0.0236321
0.38265
0.93944
1.5962
2.1005
3.00951
0.0432284
0.130314
0.116978
0.074144
0.0416724
0.391026
0.946754
1.63416
2.20457
3.39646
0.0368073
0.133416
0.12122
0.0840477
0.0648486
0.401575
0.951252
1.67043
2.38276
3.86674
0.0359834
0.140638
0.126085
0.0934975
0.0888987
0.410623
0.956636
1.72817
2.64931
4.36386
0.0409374
0.15198
0.130256
0.100321
0.10905
0.415507
0.967921
1.82388
2.98112
4.79454
0.0524271
0.168103
0.133371
0.104651
0.124796
0.424982
1.0091
1.9828
3.34778
5.07913
0.0723547
0.188931
0.135519
0.102751
0.128185
0.425375
1.04608
2.13389
3.62615
5.08224
0.103378
0.211337
0.138272
0.104183
0.143692
0.472293
1.1825
2.39202
3.87597
4.89083
0.160372
0.239496
0.144018
0.101388
0.132481
0.474231
1.2466
2.50485
3.88521
4.67324
0.263644
0.270414
0.133585
0.0766304
0.0705079
0.38204
1.11922
2.30287
3.43014
5.19246
0.428541
0.269167
0.101151
0.0149034
0.0149311
0.340272
1.14696
2.3498
3.25575
4.93811
0.68175
0.254269
0.0226173
0.0807126
0.103343
0.535836
1.43011
2.62293
3.71435
4.69797
1.06528
0.0476232
0.261657
0.237957
0.317233
0.889703
1.93301
3.20564
4.70658
5.17719
1.5147
0.121695
0.536937
0.418503
0.599079
1.30764
2.47386
3.91687
5.5986
6.22326
2.19495
0.683836
0.854434
0.69143
0.944984
1.73848
2.99235
4.59345
6.30245
7.21636
3.79219
1.70624
1.27378
1.03884
1.32074
2.15089
3.46156
5.16518
6.85412
7.96878
6.86014
3.5758
1.96281
1.42324
1.68179
2.52489
3.87387
5.63128
7.29517
8.50724
9.04906
6.38371
2.84294
2.00331
2.11797
2.8979
4.22449
6.01924
7.68652
8.93809
6.62464
6.68765
6.51092
6.38913
6.34875
6.32256
6.30556
6.31734
6.36196
6.47626
5.52848
5.00962
4.76583
4.52474
4.12658
3.54061
2.79869
1.93217
1.04471
0.284241
4.84987
4.23682
3.8273
3.61673
3.42991
3.31043
3.31533
3.45761
3.65536
3.87432
4.71216
4.88564
5.02818
5.33776
5.70201
6.05233
6.33392
6.52141
6.61655
6.6416
5.68772
6.2858
6.61228
6.91134
7.17237
7.38148
7.53181
7.62815
7.67671
7.6924
6.86586
7.3886
7.68444
7.90232
8.0766
8.21485
8.31781
8.38856
8.43055
8.44889
7.76512
8.1205
8.35197
8.51791
8.64797
8.75099
8.82956
8.88582
8.92164
8.93899
8.40454
8.63268
8.80888
8.94093
9.04401
9.12465
9.18596
9.23006
9.25854
9.2726
8.86615
9.01619
9.14761
9.25059
9.33082
9.39283
9.43944
9.47267
9.494
9.50442
9.24868
9.35044
9.44301
9.5163
9.57294
9.61588
9.64748
9.66956
9.68348
9.69012
9.50946
8.98533
8.23588
6.92824
5.59793
0.131166
3.36079
5.96037
7.21408
8.15186
9.46541
8.92155
8.16812
6.89057
5.54935
0.563763
2.62218
5.70599
6.91643
7.91395
9.36568
8.78281
8.02027
6.8096
5.36633
1.60347
1.41355
5.20661
6.30934
7.4033
9.18254
8.54512
7.77449
6.65511
5.18643
2.74001
0.72309
4.23836
5.42156
6.57148
8.86811
8.17358
7.404
6.37694
5.02651
3.36801
0.970951
2.63161
4.31694
5.3938
8.35052
7.62971
6.8734
5.91728
4.76511
3.44003
1.71923
1.30193
3.04929
3.98814
7.53603
6.89659
6.15553
5.22756
4.29966
3.26955
2.14309
1.17249
1.65628
2.55746
6.32537
6.03756
5.28132
4.23189
3.53347
2.91263
2.11843
1.43516
1.06855
1.23544
4.63169
5.23224
4.47434
2.99959
2.43714
2.27451
1.85601
1.38479
1.12263
0.659137
2.67276
4.53953
4.02163
1.96674
1.39681
1.48837
1.40991
1.21165
1.06396
0.845115
1.27672
3.78888
3.66661
1.3373
0.816204
0.897611
0.970999
0.956159
0.971621
1.01974
0.613457
2.9696
3.08209
0.956604
0.5753
0.639836
0.759219
0.819793
0.843813
0.876816
0.355353
2.18932
2.28523
0.688185
0.492457
0.595029
0.726075
0.810457
0.848279
0.873072
0.265306
1.55052
1.48902
0.521333
0.534171
0.673751
0.787262
0.85831
0.881756
0.892033
0.239655
1.01901
0.845384
0.513759
0.669117
0.802751
0.903976
0.967494
0.983229
0.980154
0.242897
0.493477
0.4997
0.635911
0.816938
0.954426
1.05221
1.10992
1.12047
1.11232
0.177364
0.204024
0.507809
0.755744
0.974273
1.12007
1.20981
1.25687
1.27367
1.27427
0.0453229
0.251544
0.649087
0.922356
1.13575
1.25324
1.32937
1.39913
1.4556
1.47736
0.0607149
0.492262
0.822072
1.09593
1.22985
1.33863
1.48892
1.64732
1.73446
1.75
0.694979
0.864735
1.04063
1.18407
1.32367
1.59709
1.90958
2.07924
2.08118
2.04826
0.363016
0.0804004
0.223594
0.550131
0.793695
0.890307
0.884918
0.834258
0.783444
0.754626
0.461987
0.202058
0.318814
0.520889
0.72309
0.80976
0.806498
0.762921
0.718985
0.704339
0.525552
0.371814
0.43957
0.513123
0.652763
0.729948
0.729812
0.692402
0.654673
0.653312
0.638555
0.587345
0.594905
0.554915
0.58679
0.643072
0.648057
0.61945
0.589594
0.601613
0.805529
0.802892
0.741341
0.63741
0.541651
0.556124
0.564393
0.54564
0.524308
0.54924
1.00901
0.998804
0.874634
0.736808
0.530557
0.474727
0.479309
0.470945
0.458911
0.496168
1.22708
1.17043
0.989606
0.824942
0.552452
0.408934
0.395611
0.396162
0.393741
0.442302
1.45188
1.32473
1.08853
0.887628
0.589183
0.368348
0.31756
0.322329
0.329099
0.387529
1.68458
1.46843
1.17517
0.923041
0.619029
0.353869
0.2517
0.251155
0.265515
0.331632
1.9262
1.60367
1.25497
0.936749
0.629617
0.352957
0.205504
0.185674
0.203455
0.274613
2.00911
0.747374
0.717211
0.964559
1.19634
1.28222
1.25598
1.17804
1.10736
1.01425
1.39443
0.482892
0.57875
0.873941
1.10832
1.19619
1.17486
1.10322
1.0356
0.955529
0.751633
0.287943
0.480924
0.79704
1.03414
1.1243
1.10725
1.04063
0.976552
0.907854
0.253443
0.170281
0.405353
0.725373
0.959184
1.0482
1.03387
0.972233
0.912228
0.856413
0.435875
0.0327164
0.267117
0.612597
0.863359
0.96415
0.958354
0.903434
0.847995
0.805331
9.35464
9.29005
9.141
8.8731
8.43755
7.77889
6.87135
5.75931
4.58199
3.53709
9.19248
9.09565
8.88111
8.51166
7.94151
7.13646
6.10964
4.95509
3.84476
2.78681
9.02388
8.90026
8.62662
8.16104
7.46176
6.51615
5.37143
4.16863
3.08128
1.94239
8.81632
8.6622
8.3215
7.74792
6.90617
5.81424
4.55498
3.29481
2.22586
1.09003
8.58749
8.37939
7.92583
7.17745
6.11252
4.7921
3.35065
2.08516
0.993974
0.302024
1.06033
1.02454
1.01637
1.0199
0.915279
0.799721
1.29345
3.68321
3.85965
1.32302
0.949288
0.933863
0.926289
0.870856
0.718929
0.588618
0.910913
3.14169
3.1097
0.647426
0.986041
0.982512
0.965647
0.892861
0.747434
0.584501
0.698384
2.37228
2.34631
0.377441
1.05339
1.06527
1.06111
1.00129
0.889871
0.740685
0.655706
1.5571
1.63411
0.277266
1.18589
1.21001
1.21569
1.16798
1.07686
0.951766
0.789119
0.909673
0.919123
0.246162
1.35084
1.37076
1.37902
1.35388
1.28398
1.15072
0.929393
0.669628
0.358091
0.21672
1.55496
1.5509
1.51855
1.47618
1.42525
1.31879
1.07872
0.753621
0.272395
0.0663891
1.82263
1.81617
1.73362
1.58082
1.44099
1.34429
1.20923
0.900836
0.493966
0.0467758
2.10274
2.14991
2.14814
1.95426
1.61105
1.32209
1.18642
1.05599
0.855525
0.675364
2.31115
2.35799
2.4824
2.53413
2.23168
1.6309
1.18175
1.06615
1.30351
2.03937
8.15167
7.21372
5.96001
3.36029
0.131422
5.59647
6.92775
8.23569
8.98535
9.50956
7.91327
6.91532
5.70499
2.62158
0.563633
5.54551
6.88912
8.16754
8.9216
9.46572
7.40185
6.30745
5.20482
1.41544
1.59974
5.36184
6.80734
8.01939
8.78294
9.36626
6.56883
5.41867
4.23619
0.72626
2.73171
5.1817
6.65226
7.77351
8.54545
9.18357
5.38942
4.31245
2.63261
0.971031
3.35667
5.02055
6.37348
7.40307
8.17432
8.86987
3.97979
3.04143
1.31015
1.71324
3.42677
4.75622
5.91247
6.87252
7.63119
8.35349
2.54102
1.65342
1.18719
2.13291
3.25089
4.28299
5.21883
6.15463
6.89949
7.54136
1.21749
1.08763
1.45178
2.10729
2.88047
3.50306
4.21748
5.28205
6.04353
6.33606
0.671594
1.15296
1.40715
1.84239
2.23204
2.40025
2.98384
4.47934
5.24351
4.65559
0.884919
1.10248
1.24718
1.41274
1.46384
1.36902
1.9433
4.02642
4.56508
2.71666
2.0899
0.543247
1.06103
0.62984
0.661861
0.758769
0.632583
0.300196
0.0621162
0.356535
1.63008
0.236794
0.869783
0.479657
0.567865
0.681493
0.593549
0.356775
0.26598
0.488548
1.33409
0.0582628
0.641619
0.341425
0.479239
0.602113
0.562242
0.459528
0.473279
0.591125
1.09783
0.0147355
0.393584
0.232969
0.39446
0.518456
0.562408
0.626025
0.732577
0.758316
0.847745
0.0894421
0.189527
0.159502
0.316595
0.441886
0.608757
0.804926
0.974483
0.977324
0.635537
0.15425
0.0530901
0.102404
0.244628
0.386087
0.69423
0.974556
1.19341
1.22434
0.463279
0.209623
0.0495041
0.0536635
0.180853
0.36478
0.787676
1.11789
1.38516
1.48011
0.330898
0.21084
0.107361
0.0107269
0.122551
0.37326
0.860966
1.23414
1.55643
1.73459
0.232313
0.196658
0.121301
0.0355513
0.0642336
0.389727
0.903772
1.32877
1.70989
1.97541
0.161342
0.175116
0.126176
0.0557797
0.0282969
0.396892
0.922196
1.40971
1.84291
2.19885
9.33657
6.77031
2.66516
1.69982
1.20247
1.12126
0.96548
0.782128
0.796616
2.03319
8.21092
4.63641
2.21518
1.41787
1.06995
1.03631
0.891756
0.6514
0.528144
1.39866
6.12014
3.0639
1.78544
1.21057
0.965079
0.971901
0.832645
0.561556
0.328952
0.741026
4.13313
1.87583
1.4975
1.00412
0.85909
0.904629
0.776154
0.487913
0.22881
0.225038
2.8355
1.06121
1.24629
0.803551
0.756007
0.826914
0.686219
0.356445
0.0444338
0.398077
3.54771
4.58914
5.76322
6.87352
7.78043
8.43869
8.87387
9.14147
9.29032
9.35473
2.78092
3.84104
4.95234
6.10787
7.13585
7.94152
8.51187
8.88133
9.09582
9.19254
1.9284
3.07188
4.16216
5.36667
6.5136
7.46061
8.16062
8.62653
8.90029
9.02391
1.05553
2.20306
3.28159
4.54675
5.81003
6.90395
7.7468
8.32103
8.66205
8.81629
0.300481
0.962593
2.06391
3.33747
4.78513
6.10893
7.17547
7.92488
8.37902
8.58741
)
;

boundaryField
{
    left
    {
        type            calculated;
        value           nonuniform List<scalar> 
35
(
0.298337
0.567497
0.987638
1.62612
2.52436
3.69548
5.06612
6.47612
8.15851
9.4418
0.211645
0.131613
0.0794793
0.0482179
0.0321705
0.027166
0.0323906
0.0516227
0.0916957
0.159862
4.9334
4.06159
3.23475
2.51293
1.91712
1.42713
1.03065
0.724207
0.495338
0.328956
9.61573
8.97908
7.92206
6.84779
5.85941
)
;
    }
    right
    {
        type            calculated;
        value           nonuniform List<scalar> 
35
(
1.0138
0.955371
0.908125
0.85764
0.80782
0.758746
0.710172
0.660715
0.610459
0.559381
0.507365
0.454174
0.399515
0.342961
0.284305
0.222947
0.159396
0.0933078
0.0307418
0.0156242
0.0215539
0.0639749
0.147393
0.221366
0.286113
0.357769
0.435563
0.494858
0.54297
0.579786
0.609047
0.633338
0.65649
0.677619
0.707728
)
;
    }
    down
    {
        type            calculated;
        value           nonuniform List<scalar> 
40
(
9.45431
7.26632
2.89607
1.78897
1.24317
1.14967
0.991013
0.823691
0.897704
2.2604
3.83288
4.88244
6.03394
7.09286
7.94459
8.55501
8.95446
9.19925
9.33564
9.39487
9.39478
9.33536
9.19873
8.95359
8.55367
7.94265
7.08993
6.02875
4.87318
3.81887
2.23223
0.847472
0.761086
0.996483
1.22803
1.31177
1.28287
1.20218
1.13045
1.03319
)
;
    }
    up
    {
        type            calculated;
        value           nonuniform List<scalar> 
40
(
9.0341
7.80883
6.16765
4.39491
3.03345
2.11946
1.52079
1.13577
0.91548
0.721447
9.72927
9.72305
9.71045
9.69064
9.66234
9.62377
9.57263
9.50586
9.42076
9.32814
9.33505
9.42656
9.51039
9.57623
9.62665
9.66461
9.69238
9.71169
9.72379
9.72952
9.27074
7.09624
3.23898
2.15499
2.23719
3.01751
4.34669
6.14888
7.81368
9.04495
)
;
    }
    cylinder
    {
        type            calculated;
        value           nonuniform List<scalar> 
80
(
1.99551
4.56421
5.5341
5.77684
6.30395
7.09027
7.86174
8.47477
8.91246
9.21291
9.44581
9.61872
9.72982
9.7983
9.84096
9.86846
9.8865
9.89817
9.90522
9.90869
9.5004
9.65061
9.74903
9.81046
9.849
9.87389
9.89016
9.90054
9.90657
9.90913
5.32307
6.23265
6.2108
6.31514
6.83402
7.5264
8.17611
8.68597
9.05066
9.30251
0.994387
0.471612
0.26423
0.183234
0.159599
0.165594
0.0828559
0.0422489
0.749748
2.42776
9.59445
9.55588
9.46744
9.30186
9.00978
8.51136
7.68625
6.36658
4.38731
2.23891
9.59435
9.55556
9.46683
9.30078
9.00792
8.50818
7.68051
6.35448
4.35813
2.19128
0.95277
0.442242
0.244318
0.170825
0.150274
0.165468
0.161174
0.0840802
0.0433572
0.734582
)
;
    }
    defaultFaces
    {
        type            empty;
    }
}


// ************************************************************************* //
