/*--------------------------------*- C++ -*----------------------------------*\
  =========                 |
  \\      /  F ield         | OpenFOAM: The Open Source CFD Toolbox
   \\    /   O peration     | Website:  https://openfoam.org
    \\  /    A nd           | Version:  13
     \\/     M anipulation  |
\*---------------------------------------------------------------------------*/
FoamFile
{
    format      ascii;
    class       volVectorField;
    location    "0.1625";
    object      U;
}
// * * * * * * * * * * * * * * * * * * * * * * * * * * * * * * * * * * * * * //

dimensions      [0 1 -1 0 0 0 0];

internalField   nonuniform List<vector> 
1800
(
(0.360222 -0.327399 1.23788e-19)
(0.975166 -0.83646 5.52588e-20)
(1.28287 -1.04496 -6.95352e-19)
(1.38979 -1.07759 5.60239e-19)
(1.41581 -1.03956 1.17958e-18)
(1.41611 -0.981997 4.78004e-19)
(1.40935 -0.92327 -2.41816e-19)
(1.40077 -0.86838 -6.17769e-19)
(1.39238 -0.815643 -3.22659e-19)
(1.36664 -0.769509 -2.61734e-19)
(0.422487 -0.327323 1.03725e-20)
(1.11755 -0.819947 -8.69048e-19)
(1.45264 -1.01641 6.91749e-21)
(1.56039 -1.04434 -4.3007e-19)
(1.5787 -1.00527 9.52586e-20)
(1.56981 -0.947969 1.11734e-18)
(1.55452 -0.88954 -7.99862e-19)
(1.53865 -0.834209 4.02872e-19)
(1.52352 -0.781388 6.64653e-19)
(1.50085 -0.739937 -3.39138e-19)
(0.487169 -0.319549 5.21095e-20)
(1.25934 -0.783867 2.49454e-19)
(1.61845 -0.963721 5.59581e-19)
(1.72541 -0.986671 -3.28044e-19)
(1.7355 -0.947991 -1.40992e-18)
(1.71738 -0.893098 3.04027e-19)
(1.69349 -0.837656 5.27221e-19)
(1.66985 -0.785578 -5.56649e-20)
(1.64771 -0.736671 -4.43069e-21)
(1.61938 -0.696992 -2.45752e-20)
(0.553169 -0.303497 -5.85644e-20)
(1.39731 -0.728087 -2.73268e-19)
(1.77627 -0.887318 -3.79943e-19)
(1.8808 -0.905109 5.32725e-20)
(1.88251 -0.867896 3.77604e-19)
(1.85557 -0.816686 2.89621e-20)
(1.82366 -0.765307 -2.15879e-20)
(1.79285 -0.717066 4.86981e-19)
(1.76411 -0.671856 4.06674e-19)
(1.73191 -0.636162 -1.41569e-19)
(0.619161 -0.278789 1.43503e-19)
(1.52807 -0.653237 3.34682e-19)
(1.92196 -0.788784 -6.54473e-20)
(2.02239 -0.801779 -7.25447e-20)
(2.01572 -0.767434 -1.12141e-18)
(1.98057 -0.721537 9.26002e-21)
(1.94139 -0.675827 8.47975e-19)
(1.90416 -0.633017 2.77279e-19)
(1.86968 -0.593208 1.34551e-20)
(1.83395 -0.561811 -1.85275e-19)
(0.683502 -0.245148 -6.30707e-20)
(1.64803 -0.560285 7.8898e-19)
(2.05153 -0.670023 1.36783e-18)
(2.14633 -0.67888 -8.73915e-19)
(2.13151 -0.648709 -8.1421e-19)
(2.08899 -0.609473 1.32879e-18)
(2.04346 -0.570638 -9.32923e-19)
(2.00065 -0.534328 -1.05063e-18)
(1.96123 -0.500747 7.41731e-19)
(1.92241 -0.474516 -1.82578e-20)
(0.744321 -0.202596 3.01637e-19)
(1.7537 -0.450867 -1.26679e-18)
(2.16132 -0.533699 -3.70846e-18)
(2.24924 -0.539403 1.40438e-18)
(2.22682 -0.514697 2.06089e-18)
(2.17802 -0.483366 -5.75745e-21)
(2.12728 -0.452496 -2.55281e-18)
(2.07996 -0.423661 1.05498e-20)
(2.03659 -0.397134 2.28363e-18)
(1.99528 -0.376658 5.95981e-19)
(0.799579 -0.151506 -1.31476e-19)
(1.84173 -0.32719 7.44361e-19)
(2.24813 -0.383003 2.84618e-18)
(2.32828 -0.386765 -3.8628e-20)
(2.2991 -0.368697 -1.32759e-18)
(2.24532 -0.3463 -4.06535e-19)
(2.19065 -0.324247 0)
(2.13997 -0.303639 8.97795e-19)
(2.0937 -0.284785 -7.30879e-21)
(2.05057 -0.270622 -7.38153e-19)
(0.847166 -0.0926478 -1.517e-20)
(1.90912 -0.192041 1.80782e-18)
(2.30944 -0.221703 2.43757e-18)
(2.38131 -0.224816 -2.02778e-18)
(2.34651 -0.214352 -1.38113e-18)
(2.2892 -0.201662 4.07535e-19)
(2.23195 -0.189034 -1.6855e-18)
(2.17915 -0.177178 -1.18683e-18)
(2.13107 -0.166404 1.36495e-18)
(2.08686 -0.158886 1.15594e-18)
(0.885051 -0.027178 2.48182e-19)
(1.95357 -0.0488753 1.15774e-18)
(2.34346 -0.0540313 4.45034e-19)
(2.40694 -0.0575764 -2.89012e-18)
(2.36794 -0.0554765 1.30778e-20)
(2.30864 -0.0529211 3.88101e-18)
(2.25018 -0.0500805 -2.0656e-18)
(2.19645 -0.0473033 -1.10934e-18)
(2.14763 -0.0448104 3.84875e-19)
(2.10316 -0.0440608 -8.52596e-19)
(0.00459455 -0.0600074 1.28659e-19)
(0.047007 -0.162049 1.37871e-19)
(0.112932 -0.210241 -1.99073e-21)
(0.182215 -0.223122 -5.8226e-21)
(0.248429 -0.220915 -1.3649e-21)
(0.309227 -0.213833 -2.17184e-20)
(0.36435 -0.205746 1.22926e-20)
(0.414249 -0.197866 -2.86326e-20)
(0.459418 -0.190474 1.72164e-21)
(0.500388 -0.184657 -4.48766e-21)
(0.0138484 -0.0976015 8.24311e-20)
(0.073348 -0.271256 1.3365e-19)
(0.147322 -0.352622 -1.22705e-19)
(0.218289 -0.372322 -4.18639e-20)
(0.283623 -0.365573 -5.7647e-20)
(0.3428 -0.350394 -5.35528e-20)
(0.396193 -0.333643 1.34719e-20)
(0.444451 -0.317456 -2.3327e-20)
(0.488037 -0.302329 9.25175e-21)
(0.528098 -0.291129 -8.42025e-21)
(0.0291175 -0.134371 7.46822e-21)
(0.117199 -0.376507 3.08423e-19)
(0.204689 -0.48914 8.34569e-20)
(0.278542 -0.515051 2.62079e-19)
(0.342439 -0.503789 3.9892e-20)
(0.398922 -0.480788 -2.02716e-19)
(0.449421 -0.455725 -2.9237e-20)
(0.494919 -0.431594 6.07968e-20)
(0.535837 -0.409135 -2.0797e-20)
(0.574421 -0.392776 9.01398e-22)
(0.0504214 -0.169805 -1.04478e-19)
(0.178049 -0.475738 -6.93774e-20)
(0.284079 -0.616842 2.74663e-20)
(0.361832 -0.648091 -1.12661e-19)
(0.423679 -0.632377 5.48264e-20)
(0.476393 -0.601961 1.47277e-19)
(0.522863 -0.569099 3.67722e-20)
(0.56452 -0.537549 -3.31385e-21)
(0.601751 -0.508333 1.75092e-20)
(0.638283 -0.487111 -1.89295e-21)
(0.0777725 -0.203382 0)
(0.255143 -0.566909 8.03778e-20)
(0.384121 -0.732845 4.516e-19)
(0.466535 -0.768317 -2.81975e-19)
(0.525661 -0.74826 -4.95946e-19)
(0.573551 -0.710984 1.55358e-19)
(0.614911 -0.671004 -1.88588e-20)
(0.651713 -0.632728 -8.27882e-20)
(0.684331 -0.597499 0)
(0.71822 -0.571766 -6.87681e-21)
(0.111161 -0.234542 -5.82842e-21)
(0.347441 -0.64801 2.95792e-19)
(0.502992 -0.834387 1.37286e-19)
(0.590519 -0.872777 2.00303e-19)
(0.646199 -0.848552 -1.59772e-19)
(0.688257 -0.80513 -2.37949e-19)
(0.723515 -0.758884 4.02554e-19)
(0.754546 -0.714735 4.55009e-20)
(0.781746 -0.674381 -2.26158e-19)
(0.81236 -0.644512 -5.56902e-21)
(0.150513 -0.262639 3.0225e-20)
(0.453568 -0.717067 3.61246e-19)
(0.638393 -0.918893 5.06142e-20)
(0.731137 -0.958782 1.85279e-20)
(0.782608 -0.930665 2.76854e-19)
(0.817911 -0.881973 -3.3422e-19)
(0.846206 -0.830474 -3.27862e-19)
(0.87069 -0.781448 -2.69298e-19)
(0.891832 -0.736944 1.94908e-19)
(0.918445 -0.703227 2.08308e-19)
(0.195629 -0.286907 -1.16995e-19)
(0.571771 -0.772177 -1.40607e-19)
(0.78755 -0.984062 1.81734e-19)
(0.885249 -1.02403 -1.4724e-19)
(0.931741 -0.992462 2.91627e-19)
(0.959507 -0.939578 6.70291e-19)
(0.980177 -0.884036 4.4928e-19)
(0.997548 -0.831317 -3.45307e-19)
(1.01224 -0.783689 -1.61692e-19)
(1.03381 -0.746158 2.32821e-19)
(0.246089 -0.30644 -2.97533e-19)
(0.699834 -0.81153 -9.61241e-19)
(0.94713 -1.02791 1.01898e-18)
(1.04912 -1.06667 8.27152e-19)
(1.08982 -1.0323 -6.78453e-19)
(1.10939 -0.976576 7.16432e-19)
(1.12196 -0.91854 1.08729e-19)
(1.13187 -0.86375 -8.22234e-19)
(1.14007 -0.814149 -1.99071e-19)
(1.1543 -0.772534 2.67389e-19)
(0.301205 -0.320237 -2.02225e-20)
(0.835136 -0.83343 -8.31281e-19)
(1.11335 -1.04868 -4.7855e-19)
(1.21845 -1.085 7.54183e-19)
(1.25229 -1.04856 5.8024e-19)
(1.26268 -0.991433 -6.47795e-19)
(1.26624 -0.932588 -5.23545e-19)
(1.2678 -0.877518 3.07539e-19)
(1.269 -0.826709 -3.13543e-19)
(1.26986 -0.781101 -1.94488e-19)
(0.638937 -0.150149 -2.93855e-21)
(0.812345 -0.116067 3.1389e-21)
(0.890184 -0.0908128 1.38896e-20)
(0.936434 -0.0711014 1.39533e-21)
(0.963354 -0.0550746 -3.42511e-22)
(0.979272 -0.0418196 3.05021e-21)
(0.988977 -0.0307871 1.07618e-21)
(0.994958 -0.0214839 -3.44296e-21)
(0.998478 -0.0136225 3.56388e-21)
(1.00064 -0.00508468 3.31956e-21)
(0.656324 -0.215702 6.7445e-20)
(0.82223 -0.151666 -1.25604e-20)
(0.897558 -0.109941 3.85908e-21)
(0.942034 -0.0817031 4.47719e-21)
(0.967812 -0.0612085 1.02677e-20)
(0.982898 -0.04547 0)
(0.991964 -0.0329925 1.17317e-21)
(0.997465 -0.0228047 3.18355e-21)
(1.00066 -0.0143731 5.53717e-22)
(1.00257 -0.00534822 -3.13806e-21)
(0.684634 -0.279291 -3.47389e-20)
(0.836562 -0.186487 -1.31403e-20)
(0.907431 -0.128839 3.16762e-21)
(0.948922 -0.0922181 -8.72867e-21)
(0.972962 -0.0672694 -4.19353e-21)
(0.986925 -0.0490472 6.52964e-21)
(0.995197 -0.0351285 0)
(1.00013 -0.0240669 0)
(1.00295 -0.0150803 6.20486e-22)
(1.00459 -0.00559431 0)
(0.723621 -0.339777 -2.67161e-20)
(0.855299 -0.219981 1.89443e-20)
(0.919715 -0.147276 8.34158e-21)
(0.957085 -0.102541 0)
(0.978802 -0.073199 -3.76863e-21)
(0.991347 -0.0525163 2.31803e-21)
(0.998666 -0.0371731 0)
(1.00295 -0.0252567 -3.8134e-21)
(1.00535 -0.015736 0)
(1.00669 -0.00581998 -4.31792e-22)
(0.772931 -0.396093 -2.20207e-20)
(0.878417 -0.251667 4.52808e-20)
(0.934298 -0.165038 -4.96333e-21)
(0.966498 -0.112571 0)
(0.985323 -0.0789423 -4.27687e-21)
(0.996155 -0.0558432 -5.73575e-21)
(1.00236 -0.0391046 6.82344e-21)
(1.0059 -0.0263601 1.44877e-21)
(1.00784 -0.0163315 -6.91984e-22)
(1.00885 -0.00602202 3.21534e-21)
(0.831984 -0.447166 -5.56824e-19)
(0.905918 -0.281231 -9.28604e-20)
(0.951059 -0.181954 2.2658e-21)
(0.977127 -0.122218 4.73108e-21)
(0.992513 -0.0844494 7.91632e-21)
(1.00133 -0.0589959 -1.53428e-21)
(1.00627 -0.0409014 -1.01746e-20)
(1.00898 -0.0273626 4.73453e-21)
(1.0104 -0.0168582 -2.9027e-22)
(1.01107 -0.00619703 2.52934e-21)
(0.89969 -0.491688 -1.12609e-20)
(0.937658 -0.308468 4.1306e-20)
(0.969879 -0.197925 5.3207e-21)
(0.988927 -0.131416 -5.94822e-23)
(1.00035 -0.0896806 -3.65653e-21)
(1.00687 -0.0619467 5.67695e-21)
(1.01037 -0.0425435 2.47255e-21)
(1.01217 -0.0282502 -5.3677e-21)
(1.01302 -0.0173072 -9.29701e-22)
(1.01333 -0.00634139 -2.312e-21)
(0.974061 -0.528411 2.25977e-19)
(0.972668 -0.332807 5.42884e-20)
(0.990374 -0.212684 0)
(1.00175 -0.140041 -3.96028e-21)
(1.00878 -0.0945792 2.30624e-21)
(1.01274 -0.0646663 2.08446e-21)
(1.01465 -0.0440131 3.58489e-21)
(1.01544 -0.0290111 -9.57719e-22)
(1.01568 -0.0176708 6.19464e-23)
(1.0156 -0.00645231 7.49446e-22)
(1.053 -0.557953 -3.23371e-19)
(1.00884 -0.355063 -1.55699e-19)
(1.01112 -0.226617 2.59594e-20)
(1.01489 -0.148152 2.24416e-21)
(1.01749 -0.0991112 -1.97908e-21)
(1.01878 -0.0671151 2.59826e-21)
(1.01904 -0.0452829 -2.69086e-21)
(1.01877 -0.0296289 6.75856e-22)
(1.01837 -0.0179404 -4.1106e-21)
(1.01789 -0.00653015 -5.18651e-21)
(1.1376 -0.58055 2.16333e-19)
(1.04641 -0.376861 -1.5266e-19)
(1.03073 -0.241992 -1.95161e-20)
(1.02698 -0.157116 -9.27243e-21)
(1.02561 -0.103919 -1.80286e-21)
(1.02457 -0.0695384 -6.36621e-22)
(1.02333 -0.04642 -2.12167e-21)
(1.02206 -0.0301059 0)
(1.02103 -0.0181047 2.66643e-21)
(1.02017 -0.00655787 5.13674e-22)
(1.27553 -0.56431 3.26296e-19)
(1.13167 -0.372663 9.67755e-20)
(1.07806 -0.242214 -5.17002e-20)
(1.05415 -0.158216 1.49768e-21)
(1.04184 -0.104667 2.40436e-21)
(1.03474 -0.0698002 2.33419e-21)
(1.03005 -0.0463618 6.40055e-21)
(1.02676 -0.0299105 1.65524e-21)
(1.02459 -0.0179014 -2.42672e-21)
(1.02308 -0.00646347 1.25439e-21)
(1.32628 -0.477173 -2.99019e-21)
(1.17152 -0.327949 9.97349e-20)
(1.10945 -0.221111 7.54585e-20)
(1.07668 -0.148093 -8.26678e-21)
(1.05721 -0.0992232 2.93704e-20)
(1.04517 -0.0665091 1.74885e-20)
(1.03728 -0.0442226 1.28359e-20)
(1.03199 -0.0285123 -1.04021e-21)
(1.02863 -0.0170464 4.4325e-21)
(1.02641 -0.0061428 4.15358e-21)
(1.37559 -0.408203 -1.02903e-19)
(1.21615 -0.290866 -8.37345e-21)
(1.14127 -0.200856 2.36082e-21)
(1.09855 -0.136648 -6.18182e-37)
(1.07201 -0.0923155 2.8451e-21)
(1.05522 -0.0620914 -4.98607e-35)
(1.04424 -0.0413094 -4.80113e-21)
(1.03699 -0.0266136 -2.99274e-34)
(1.03248 -0.0158943 1.24801e-21)
(1.02955 -0.00572073 -3.65124e-21)
(1.40711 -0.338338 -1.64807e-34)
(1.25012 -0.250081 -2.33031e-20)
(1.16768 -0.176926 -2.69143e-20)
(1.1176 -0.122296 0)
(1.0853 -0.0833623 -1.36286e-20)
(1.06438 -0.0563065 -8.71454e-21)
(1.05064 -0.0375116 -3.15004e-21)
(1.0416 -0.0241639 -4.42052e-34)
(1.03602 -0.0144236 -5.09087e-22)
(1.03244 -0.00518816 3.5937e-21)
(1.42705 -0.273738 -5.46881e-20)
(1.2762 -0.20907 3.12388e-21)
(1.18931 -0.15102 0)
(1.1338 -0.105837 0)
(1.09687 -0.0727402 0)
(1.07248 -0.0493411 0)
(1.05634 -0.0329271 -1.12337e-21)
(1.04573 -0.0212165 -4.97453e-34)
(1.03919 -0.0126619 1.19819e-21)
(1.03501 -0.00455306 4.41684e-34)
(1.43921 -0.214161 -1.32141e-20)
(1.29566 -0.168322 0)
(1.2065 -0.12378 0)
(1.1471 -0.0877753 0)
(1.10658 -0.0607685 0)
(1.07938 -0.0413845 0)
(1.06123 -0.0276661 2.07436e-21)
(1.04927 -0.0178349 3.14478e-21)
(1.04192 -0.0106437 1.17379e-21)
(1.03722 -0.00382659 4.0115e-21)
(1.44622 -0.159216 0)
(1.30963 -0.128229 -7.21036e-21)
(1.21959 -0.0957079 -1.14504e-20)
(1.15753 -0.0685315 0)
(1.11434 -0.0477384 -7.11757e-21)
(1.08495 -0.032624 -4.84115e-21)
(1.0652 -0.0218457 -1.15291e-21)
(1.05217 -0.0140901 -1.95681e-21)
(1.04415 -0.00840857 3.32299e-21)
(1.03901 -0.00302219 3.05472e-21)
(1.44965 -0.107916 3.94954e-21)
(1.31881 -0.0888185 3.90634e-21)
(1.2287 -0.0670838 -1.46514e-21)
(1.16498 -0.0484015 4.50828e-36)
(1.11994 -0.033877 -1.04769e-21)
(1.08898 -0.0232142 -4.04496e-35)
(1.06807 -0.0155647 1.92034e-21)
(1.05423 -0.0100418 6.28234e-21)
(1.04571 -0.0059875 1.04484e-21)
(1.04026 -0.00214698 -3.35956e-21)
(1.44315 -0.0602102 -1.72237e-20)
(1.3168 -0.0522915 7.17963e-21)
(1.22779 -0.0401791 8.45821e-21)
(1.16379 -0.0292357 0)
(1.11809 -0.0205579 5.00582e-21)
(1.08647 -0.0141224 3.44711e-21)
(1.06503 -0.00947971 4.13265e-21)
(1.05083 -0.00611792 1.44883e-21)
(1.04208 -0.00364572 -5.75505e-22)
(1.03649 -0.00130508 3.60338e-21)
(1.25247 -0.00918309 0)
(1.15067 -0.00991102 0)
(1.07545 -0.00798447 0)
(1.02017 -0.00588603 0)
(0.980343 -0.00416126 0)
(0.952647 -0.00286944 0)
(0.933815 -0.00193025 1.81166e-21)
(0.921325 -0.00124818 -8.81541e-36)
(0.913628 -0.000732665 1.09598e-21)
(0.908728 -0.00025411 3.26427e-21)
(2.02598 -0.0400862 7.93156e-19)
(2.01258 -0.138657 5.34362e-20)
(1.98241 -0.234467 -1.06665e-19)
(1.93612 -0.325508 -3.14313e-19)
(1.87523 -0.410085 -9.71174e-20)
(1.80078 -0.486474 -1.51508e-19)
(1.71699 -0.552021 -3.88235e-19)
(1.61798 -0.612119 1.1391e-19)
(1.53146 -0.639563 0)
(1.39181 -0.710734 4.44134e-20)
(1.94341 -0.0297055 2.28581e-19)
(1.93293 -0.104006 -2.95885e-19)
(1.91005 -0.176896 -3.01604e-20)
(1.87509 -0.247022 -1.25558e-19)
(1.82977 -0.313043 4.63817e-20)
(1.77277 -0.374557 1.28443e-19)
(1.71223 -0.426274 -4.11703e-20)
(1.63334 -0.483119 6.18606e-20)
(1.57493 -0.497889 -8.12115e-20)
(1.47026 -0.573367 2.52672e-20)
(1.87526 -0.0227699 -1.04577e-19)
(1.86712 -0.0814937 2.19408e-19)
(1.8491 -0.139001 1.62417e-19)
(1.8213 -0.194529 -2.25044e-19)
(1.7855 -0.247025 4.04795e-20)
(1.73997 -0.296989 1.87739e-19)
(1.69254 -0.338578 -1.90429e-20)
(1.63006 -0.388096 3.00625e-20)
(1.5812 -0.400457 4.06104e-20)
(1.50437 -0.467105 5.4632e-20)
(1.82215 -0.0183705 -2.32992e-19)
(1.81548 -0.0637644 -9.44923e-21)
(1.80056 -0.108421 -3.21894e-20)
(1.77757 -0.151864 -3.5812e-20)
(1.74796 -0.193198 -7.04657e-20)
(1.71062 -0.233162 -8.3936e-20)
(1.67112 -0.266621 1.0919e-19)
(1.62137 -0.307257 1.40672e-20)
(1.57873 -0.31891 1.09281e-21)
(1.5211 -0.372866 9.48886e-21)
(1.78061 -0.0144643 3.61778e-20)
(1.77498 -0.0492567 8.6635e-20)
(1.76224 -0.0835251 -3.26125e-20)
(1.74265 -0.116986 1.71903e-19)
(1.71728 -0.148976 -1.47449e-20)
(1.68581 -0.180155 -1.45513e-19)
(1.65165 -0.206615 2.16851e-20)
(1.61102 -0.23847 -7.02844e-20)
(1.57305 -0.249346 6.45495e-20)
(1.52782 -0.291023 4.35927e-20)
(1.74886 -0.0115516 -1.22976e-19)
(1.74398 -0.0374279 -5.37593e-20)
(1.73275 -0.0629596 6.18705e-21)
(1.71551 -0.0879913 7.68406e-20)
(1.69303 -0.112073 1.21315e-19)
(1.66559 -0.135687 -4.073e-20)
(1.63506 -0.156112 3.34148e-21)
(1.60055 -0.180288 7.29859e-21)
(1.566 -0.189995 2.50147e-20)
(1.52864 -0.221125 -3.45576e-20)
(1.72548 -0.00922234 -3.96933e-20)
(1.72115 -0.0274356 -8.63909e-20)
(1.71098 -0.0454359 -9.07517e-20)
(1.69535 -0.0631684 -1.5239e-19)
(1.67482 -0.0803685 2.42095e-20)
(1.65005 -0.0973694 2.16509e-20)
(1.62194 -0.112396 1.749e-20)
(1.59134 -0.129992 1.38592e-20)
(1.55921 -0.138068 -3.35156e-20)
(1.5267 -0.160554 -5.92695e-21)
(1.70852 -0.00728486 4.57125e-20)
(1.70476 -0.0186424 1.97913e-20)
(1.6955 -0.0298525 1.16616e-20)
(1.68112 -0.0409619 -2.21878e-20)
(1.66202 -0.0518759 -1.88917e-20)
(1.63906 -0.0628368 -9.8866e-21)
(1.61253 -0.0727764 -1.48452e-20)
(1.58427 -0.084565 8.59266e-21)
(1.55362 -0.090533 -5.1788e-21)
(1.52383 -0.106216 1.976e-20)
(1.6766 -0.00685523 -4.95105e-20)
(1.67409 -0.0114272 -8.6219e-21)
(1.66705 -0.0159316 7.96412e-20)
(1.65555 -0.0204819 -1.23264e-20)
(1.63972 -0.0251144 -1.5371e-20)
(1.62032 -0.030106 2.11604e-20)
(1.59703 -0.0347785 -8.72448e-21)
(1.57228 -0.0412712 3.89726e-22)
(1.54348 -0.0442549 3.38328e-21)
(1.51735 -0.0546992 2.32503e-20)
(1.33657 -0.00334044 4.20335e-20)
(1.33255 -0.00227103 3.3037e-20)
(1.3288 -0.00127358 3.08069e-20)
(1.32537 -0.000412999 4.58091e-20)
(1.32183 0.000223298 -1.73685e-20)
(1.31829 0.000560488 -2.43786e-20)
(1.31306 0.000642624 5.79161e-21)
(1.30926 -0.000179854 2.5091e-21)
(1.29817 0.000445655 -4.01772e-21)
(1.29885 -0.0042579 4.15087e-21)
(1.35746 0.722424 -5.03238e-20)
(1.35223 0.770196 2.58882e-20)
(1.35807 0.822686 -3.898e-19)
(1.36588 0.880822 2.25479e-19)
(1.37403 0.943374 7.33641e-19)
(1.38162 1.00988 -1.43341e-19)
(1.38197 1.07665 -7.9852e-19)
(1.34247 1.11578 -4.41446e-20)
(1.15552 1.01398 -5.18714e-19)
(0.584095 0.540784 8.12742e-20)
(1.49633 0.702797 0)
(1.49904 0.747386 5.04098e-19)
(1.50603 0.797024 1.11292e-18)
(1.51643 0.853115 -6.55702e-19)
(1.52958 0.914334 -1.5892e-18)
(1.54377 0.980014 -1.39624e-19)
(1.55096 1.04617 -1.79606e-19)
(1.51327 1.0849 6.74475e-19)
(1.30615 0.983892 1.15223e-18)
(0.65966 0.521744 4.82123e-19)
(1.61611 0.676052 6.35978e-20)
(1.62817 0.717554 0)
(1.64189 0.76371 -6.69813e-20)
(1.65894 0.815534 6.77398e-19)
(1.67913 0.872488 5.27495e-20)
(1.70084 0.934233 -1.74806e-18)
(1.71515 0.996769 1.15244e-18)
(1.67896 1.0328 8.07124e-19)
(1.45103 0.933319 -1.05432e-18)
(0.730779 0.491123 -2.97904e-19)
(1.72052 0.630558 -1.03664e-19)
(1.74094 0.669097 -8.49819e-20)
(1.76321 0.711744 2.08655e-19)
(1.78865 0.759155 -2.62339e-19)
(1.81716 0.8113 -1.28169e-18)
(1.8473 0.868061 -9.97177e-19)
(1.86913 0.925549 1.15485e-18)
(1.83418 0.957731 8.35044e-19)
(1.58496 0.861248 0)
(0.793963 0.44848 0)
(1.81501 0.565711 -7.53533e-19)
(1.8424 0.601086 -1.26897e-18)
(1.87234 0.639886 -5.12758e-19)
(1.90562 0.682556 -3.52951e-20)
(1.94215 0.729349 0)
(1.98045 0.780263 1.46869e-19)
(2.00934 0.831612 1.74121e-19)
(1.97477 0.859325 2.24492e-19)
(1.70376 0.768104 -3.4469e-19)
(0.846618 0.394773 -8.83789e-20)
(1.90048 0.485433 8.84792e-19)
(1.93329 0.516827 -4.72079e-20)
(1.96937 0.550906 -1.05411e-18)
(2.00918 0.588025 0)
(2.05262 0.628572 0)
(2.09803 0.672593 0)
(2.13278 0.716669 1.49298e-18)
(2.09723 0.739517 -1.95258e-18)
(1.80417 0.656309 -1.55547e-18)
(0.887073 0.332009 9.16003e-20)
(1.97435 0.393374 -1.20033e-18)
(2.01132 0.419719 -2.50894e-18)
(2.05219 0.447981 -4.36264e-21)
(2.0972 0.478547 5.06905e-19)
(2.14628 0.511844 -4.34083e-20)
(2.19744 0.547872 1.21569e-18)
(2.23651 0.583552 -7.33991e-19)
(2.19832 0.60127 -2.51315e-18)
(1.88373 0.529272 1.7016e-19)
(0.913686 0.262658 1.35203e-19)
(2.0335 0.292167 -9.82548e-19)
(2.07367 0.312474 1.93107e-20)
(2.11819 0.333923 3.83327e-19)
(2.16721 0.357042 -3.70076e-19)
(2.22063 0.38222 5.73545e-19)
(2.27611 0.409355 1.72136e-18)
(2.31774 0.436007 -2.41434e-19)
(2.27605 0.447478 -1.51491e-18)
(1.93916 0.391 4.4252e-19)
(0.926147 0.190689 8.96348e-20)
(2.07551 0.184054 3.65269e-19)
(2.11804 0.197597 9.37591e-20)
(2.1652 0.211471 -4.1594e-19)
(2.21707 0.226391 -9.35527e-19)
(2.27356 0.24277 1.05603e-19)
(2.33194 0.260419 1.14299e-19)
(2.37462 0.276233 -1.73163e-18)
(2.32668 0.284188 8.69675e-19)
(1.96879 0.246724 3.35054e-19)
(0.925415 0.116653 -2.4164e-19)
(2.09908 0.071118 7.37543e-19)
(2.14303 0.0772949 -1.11746e-18)
(2.19161 0.0831468 1.94781e-19)
(2.24507 0.0895272 2.36072e-18)
(2.30328 0.0964425 1.26928e-18)
(2.36299 0.103979 -2.96249e-18)
(2.4047 0.110892 -3.38624e-18)
(2.34907 0.115874 2.02439e-18)
(1.97374 0.0984664 -9.44172e-21)
(0.911514 0.0432973 -1.05265e-20)
(0.525779 0.183478 -2.04148e-19)
(0.492658 0.189829 -1.85168e-19)
(0.450685 0.196759 1.16223e-19)
(0.402676 0.204239 -3.902e-19)
(0.350161 0.212316 -5.60059e-20)
(0.292498 0.221053 3.30897e-19)
(0.228396 0.229896 1.01171e-19)
(0.157089 0.234221 -7.19109e-20)
(0.082798 0.214034 -1.64571e-20)
(0.0144789 0.119713 3.1632e-20)
(0.55128 0.282506 1.65412e-19)
(0.519014 0.295554 2.45572e-19)
(0.478389 0.309914 3.5025e-20)
(0.431932 0.325402 -1.13205e-19)
(0.381099 0.342064 -3.68503e-19)
(0.325282 0.360061 2.81046e-20)
(0.263085 0.37845 2.40137e-19)
(0.192883 0.389069 -9.84819e-21)
(0.115746 0.35697 -3.06581e-20)
(0.032815 0.198404 -8.33109e-21)
(0.593718 0.377375 -1.8449e-19)
(0.562987 0.396862 -2.05493e-19)
(0.524703 0.418265 1.77941e-19)
(0.480896 0.441344 1.6991e-19)
(0.432898 0.466165 -6.23748e-20)
(0.380169 0.492974 -1.53164e-19)
(0.32113 0.520444 -8.54015e-20)
(0.252681 0.536998 5.06934e-20)
(0.170513 0.493265 -2.70776e-20)
(0.0629595 0.273041 7.06259e-21)
(0.65197 0.465889 1.05568e-19)
(0.623434 0.491456 3.94115e-21)
(0.588445 0.519351 -1.43678e-19)
(0.548341 0.549425 1.14278e-19)
(0.504297 0.581798 -1.00999e-19)
(0.455861 0.616777 4.68988e-20)
(0.401203 0.652659 -9.345e-20)
(0.335115 0.674648 -7.05144e-20)
(0.245684 0.619858 -2.0717e-19)
(0.104043 0.341923 5.21507e-20)
(0.724538 0.545959 -3.54417e-20)
(0.698831 0.577163 -1.53445e-20)
(0.668032 0.610843 -4.2766e-20)
(0.632634 0.647148 -1.33381e-19)
(0.593606 0.686289 5.69208e-20)
(0.550601 0.728611 -1.14495e-19)
(0.501463 0.772031 1.83755e-19)
(0.438344 0.798775 2.12573e-20)
(0.339645 0.733672 2.78715e-19)
(0.155152 0.403408 2.20393e-19)
(0.809611 0.615631 1.09233e-20)
(0.787269 0.65186 -4.54492e-20)
(0.76143 0.69043 1.85243e-19)
(0.731636 0.73203 8.82885e-20)
(0.698609 0.777007 1.66688e-19)
(0.662101 0.825703 6.601e-20)
(0.619528 0.87565 3.47053e-19)
(0.559941 0.906348 1.80141e-19)
(0.450402 0.831684 1.71748e-19)
(0.215108 0.455646 1.91444e-19)
(0.904936 0.673335 -9.3875e-20)
(0.886631 0.713914 2.43938e-19)
(0.86663 0.756355 1.288e-19)
(0.843388 0.802129 -1.099e-19)
(0.817313 0.851808 -6.4344e-20)
(0.788253 0.905712 4.17696e-19)
(0.753118 0.961006 -9.69939e-20)
(0.697438 0.994765 -2.77013e-19)
(0.575441 0.911468 -4.05249e-20)
(0.282237 0.497147 2.24498e-19)
(1.00615 0.717348 1.49997e-19)
(0.992017 0.760929 5.39166e-20)
(0.978572 0.805913 -5.08619e-19)
(0.963008 0.854758 2.85604e-20)
(0.945177 0.908127 2.78226e-19)
(0.924867 0.966162 -2.33695e-19)
(0.898321 1.02562 -4.4167e-20)
(0.847085 1.06151 -1.28131e-19)
(0.711269 0.970698 1.52973e-20)
(0.354436 0.526694 -2.73713e-19)
(1.11719 0.743451 2.39466e-20)
(1.10916 0.789853 -3.44429e-19)
(1.10303 0.83627 -2.51996e-21)
(1.09503 0.886989 2.65091e-19)
(1.085 0.943029 -2.53967e-19)
(1.07303 1.00425 5.42797e-19)
(1.05478 1.06695 4.15136e-19)
(1.00742 1.10448 -7.27761e-19)
(0.855796 1.00802 -6.1378e-20)
(0.430194 0.543923 -3.14805e-19)
(1.20397 0.754744 -1.80218e-19)
(1.20721 0.803172 -1.8461e-19)
(1.21581 0.851013 2.23002e-19)
(1.2214 0.902765 4.45531e-19)
(1.22357 0.959819 1.92089e-19)
(1.22311 1.02221 -4.58169e-19)
(1.21522 1.08612 1.39364e-20)
(1.17261 1.12378 1.62191e-19)
(1.00434 1.02287 -2.77728e-19)
(0.507115 0.548545 -2.33473e-19)
(0.700483 0.0239165 2.09726e-20)
(1.20381 0.0355832 -2.25371e-20)
(0.912675 0.0403638 -2.12887e-21)
(1.00551 0.0438995 0)
(0.986073 0.051368 2.2353e-20)
(0.967183 0.0617822 2.579e-20)
(0.941959 0.0755845 3.25715e-20)
(0.895062 0.0933574 6.57912e-20)
(0.829869 0.117807 -9.58168e-20)
(0.657736 0.150406 -1.06025e-19)
(0.700164 0.0218193 4.02968e-20)
(1.20414 0.0358642 -7.8018e-20)
(0.913416 0.04299 -1.74124e-21)
(1.00734 0.0456675 -9.43252e-21)
(0.988721 0.0548701 1.05208e-20)
(0.970879 0.0676556 -1.36542e-20)
(0.946843 0.0856684 -8.24431e-20)
(0.902174 0.110821 0)
(0.838745 0.152299 2.09394e-19)
(0.677723 0.212464 -2.49114e-19)
(0.699651 0.019727 -6.5881e-20)
(1.20461 0.0360008 2.05654e-20)
(0.914027 0.0453864 2.9237e-20)
(1.00953 0.0472464 1.83953e-20)
(0.991743 0.0582083 -2.52202e-20)
(0.975227 0.0733895 -2.46865e-22)
(0.952835 0.0956108 -5.88564e-20)
(0.911863 0.128152 -5.22335e-21)
(0.85141 0.186079 2.96269e-22)
(0.710149 0.272684 6.28109e-19)
(0.698939 0.0177811 -3.91678e-21)
(1.20516 0.0359934 6.4408e-21)
(0.914522 0.0474959 2.74899e-20)
(1.01209 0.0486216 1.31832e-20)
(0.99515 0.0613616 -1.34203e-20)
(0.980233 0.0789397 -1.60366e-20)
(0.959978 0.105328 8.83276e-20)
(0.924015 0.145207 -1.57918e-21)
(0.868054 0.218795 -2.59667e-19)
(0.754344 0.329882 6.62112e-20)
(0.698013 0.0160701 5.37485e-21)
(1.20573 0.0358256 -4.45283e-20)
(0.914921 0.0492587 -2.19333e-20)
(1.01504 0.0497864 4.6392e-21)
(0.998944 0.0643115 0)
(0.985895 0.0842664 0)
(0.968316 0.114755 7.54147e-20)
(0.938517 0.161855 3.18861e-22)
(0.888892 0.250325 -1.27433e-19)
(0.809407 0.382809 9.16507e-20)
(0.696856 0.0146823 -3.36626e-21)
(1.20624 0.0354687 3.92561e-20)
(0.915253 0.0506131 -4.12032e-20)
(1.01841 0.0507442 -3.63636e-20)
(1.00312 0.0670397 -1.07887e-21)
(0.992216 0.0893353 6.46115e-20)
(0.97789 0.123847 1.1777e-19)
(0.955301 0.177954 -7.89384e-22)
(0.914084 0.280402 2.12801e-19)
(0.874304 0.430703 -1.9756e-19)
(0.695443 0.0137189 -2.65235e-20)
(1.20659 0.0348791 1.93365e-20)
(0.915559 0.0514967 -2.16407e-21)
(1.02221 0.0515115 -5.67226e-20)
(1.00766 0.0695266 2.7524e-21)
(0.999197 0.0941178 -1.11426e-21)
(0.988729 0.132573 -7.04444e-21)
(0.974261 0.193385 -2.05161e-19)
(0.943877 0.307837 1.60708e-19)
(0.94745 0.473038 -4.58343e-19)
(0.693741 0.0132786 1.49864e-20)
(1.20666 0.0339874 -6.11821e-20)
(0.915893 0.0518482 1.31083e-20)
(1.02646 0.0521185 4.8367e-20)
(1.01255 0.0717408 1.2109e-21)
(1.00684 0.0985751 -7.48154e-20)
(1.00085 0.14086 -6.45355e-20)
(0.995181 0.208153 3.69014e-19)
(0.978718 0.33207 1.05925e-20)
(1.02701 0.512145 7.38916e-19)
(0.691712 0.013503 -7.92314e-21)
(1.20641 0.0327167 2.76008e-20)
(0.916334 0.0515923 -8.04162e-21)
(1.03116 0.0525896 -5.0675e-20)
(1.01773 0.0736132 -8.61621e-20)
(1.01509 0.10256 1.64996e-21)
(1.01417 0.148205 -8.88297e-20)
(1.01796 0.220635 4.7921e-19)
(1.02019 0.347696 -6.85292e-21)
(1.11067 0.537095 -1.01106e-18)
(0.689394 0.0145592 9.00579e-21)
(1.20636 0.0312597 4.17915e-20)
(0.916824 0.0506699 1.44929e-20)
(1.03624 0.052928 -1.14181e-19)
(1.02279 0.0752403 -7.93408e-20)
(1.02275 0.106687 -6.28375e-20)
(1.02562 0.156812 -1.59165e-19)
(1.0356 0.237248 -4.50336e-19)
(1.05434 0.373168 -2.59657e-19)
(1.18557 0.586021 -1.12782e-18)
(0.689929 0.0148835 -2.52571e-20)
(1.20829 0.0291361 -8.56085e-21)
(0.918739 0.0480354 -1.12543e-20)
(1.04198 0.0524418 -2.12848e-21)
(1.03152 0.0745847 5.39653e-20)
(1.03692 0.106667 -4.32274e-20)
(1.0489 0.156873 1.43281e-19)
(1.07426 0.235075 -4.48035e-19)
(1.11852 0.357767 -1.86056e-19)
(1.2492 0.561635 6.09862e-19)
(0.690451 0.0129956 2.10655e-20)
(1.21201 0.0265814 1.4747e-20)
(0.922923 0.0433543 7.38918e-21)
(1.04707 0.0501634 3.99909e-20)
(1.04142 0.0710735 8.22795e-20)
(1.05203 0.102045 1.25252e-19)
(1.07217 0.149291 3.00386e-20)
(1.11021 0.220726 2.37459e-19)
(1.16871 0.325043 3.07122e-19)
(1.31867 0.486342 -1.48083e-20)
(0.690713 0.010502 -2.52833e-20)
(1.2158 0.023574 -5.86336e-21)
(0.927279 0.0385447 -1.34971e-20)
(1.05227 0.0466498 2.25206e-20)
(1.0509 0.0661384 2.24217e-34)
(1.06623 0.0950197 -8.72986e-21)
(1.09332 0.138 -5.62068e-34)
(1.14106 0.200968 2.00157e-20)
(1.20859 0.286212 -5.43324e-20)
(1.36774 0.413563 -4.55391e-20)
(0.691021 0.00720657 4.14759e-20)
(1.21942 0.0199354 -6.10106e-35)
(0.931517 0.0334634 1.32299e-20)
(1.05735 0.0420884 -1.63072e-20)
(1.05963 0.0598666 -3.21843e-20)
(1.07909 0.0859601 -4.12855e-20)
(1.11194 0.123893 -6.99839e-34)
(1.16674 0.17791 -1.02485e-19)
(1.24039 0.245862 -1.37955e-19)
(1.39993 0.344253 8.49952e-20)
(0.691439 0.00306724 0)
(1.223 0.0157286 6.01892e-36)
(0.93556 0.0281161 0)
(1.06211 0.0366543 0)
(1.06742 0.0524057 0)
(1.09035 0.0751736 0)
(1.12785 0.107559 -4.19086e-34)
(1.18756 0.152491 0)
(1.26527 0.205359 -2.09464e-20)
(1.41935 0.279485 5.18627e-20)
(0.692016 -0.00183942 2.71363e-20)
(1.22671 0.0110445 -3.70238e-21)
(0.93937 0.0225803 1.25322e-20)
(1.0664 0.0305249 0)
(1.07413 0.0439412 0)
(1.09986 0.0629832 7.4129e-21)
(1.14098 0.0895336 2.90958e-20)
(1.20397 0.125509 -1.48294e-20)
(1.28418 0.165448 -3.1153e-20)
(1.43039 0.21928 1.94475e-19)
(0.692802 -0.00803597 -4.61802e-20)
(1.23067 0.00594943 5.27791e-21)
(0.942917 0.0169918 1.21302e-20)
(1.07007 0.023884 -5.0667e-21)
(1.07964 0.0346726 -1.07329e-20)
(1.10752 0.0496968 -8.47594e-21)
(1.15133 0.070268 -2.16851e-20)
(1.21641 0.0975699 -4.15248e-20)
(1.29798 0.126438 -5.54017e-20)
(1.4362 0.163499 8.53333e-20)
(0.693892 -0.0138441 -3.74798e-20)
(1.2352 0.0005097 -1.82104e-20)
(0.946108 0.011568 1.14099e-20)
(1.0729 0.0169114 -1.61966e-20)
(1.08376 0.0247922 8.79877e-35)
(1.11318 0.035589 7.99773e-21)
(1.15888 0.0501037 -1.01136e-33)
(1.22522 0.069022 -1.50019e-20)
(1.30734 0.0881839 1.96569e-20)
(1.43889 0.11103 2.61987e-20)
(0.693697 -0.0273382 1.82167e-19)
(1.235 -0.00480764 -1.13149e-20)
(0.944703 0.00570187 1.13183e-20)
(1.07054 0.0104758 2.42522e-21)
(1.08219 0.0151048 3.49602e-21)
(1.1126 0.0217706 1.43789e-20)
(1.15951 0.0305453 8.09001e-21)
(1.22655 0.0418249 -5.56038e-21)
(1.30864 0.0527882 -2.27722e-20)
(1.43575 0.0645887 1.37646e-19)
(0.646721 -0.0202795 3.11884e-20)
(1.10054 -0.00821583 -8.03517e-35)
(0.823538 0.00309686 1.06168e-20)
(0.943518 0.00156734 0)
(0.951679 0.00318869 0)
(0.979407 0.00464383 8.23403e-21)
(1.02216 0.0064944 -9.63391e-36)
(1.08259 0.00896288 -1.48983e-20)
(1.15662 0.0111476 -2.88805e-20)
(1.26507 0.0129564 5.75894e-20)
(1.42676 0.615321 -1.77145e-19)
(1.51189 0.614545 -2.79878e-19)
(1.60547 0.596911 0)
(1.69332 0.555939 9.40675e-20)
(1.77435 0.49565 4.57507e-19)
(1.84861 0.42208 -1.43142e-19)
(1.91329 0.339397 1.36238e-18)
(1.96516 0.250075 -5.37742e-20)
(2.00203 0.15588 -3.50245e-19)
(2.02245 0.0589113 3.074e-19)
(1.46612 0.508432 6.55263e-20)
(1.53025 0.503211 1.11696e-19)
(1.60923 0.477433 -3.16264e-21)
(1.68545 0.43481 1.5958e-19)
(1.75253 0.382196 -1.4399e-19)
(1.81097 0.322977 -3.71597e-19)
(1.86021 0.258625 -7.89428e-20)
(1.89887 0.190112 5.23077e-19)
(1.92605 0.11845 -1.89158e-20)
(1.94108 0.0447916 -4.35848e-19)