/*--------------------------------*- C++ -*----------------------------------*\
  =========                 |
  \\      /  F ield         | OpenFOAM: The Open Source CFD Toolbox
   \\    /   O peration     | Website:  https://openfoam.org
    \\  /    A nd           | Version:  13
     \\/     M anipulation  |
\*---------------------------------------------------------------------------*/
FoamFile
{
    format      ascii;
    class       volScalarField;
    location    "0.1775";
    object      p;
}
// * * * * * * * * * * * * * * * * * * * * * * * * * * * * * * * * * * * * * //

dimensions      [0 2 -2 0 0 0 0];

internalField   nonuniform List<scalar> 
1800
(
-0.949729
-0.906442
-0.820453
-0.718675
-0.621497
-0.535279
-0.460333
-0.394846
-0.337086
-0.289653
-1.12536
-1.07753
-0.98043
-0.865721
-0.756293
-0.658989
-0.574221
-0.500349
-0.436393
-0.384061
-1.2914
-1.23874
-1.13044
-1.0031
-0.881832
-0.773741
-0.679217
-0.596533
-0.524428
-0.463536
-1.44271
-1.38511
-1.26589
-1.12679
-0.994778
-0.877078
-0.774005
-0.683696
-0.604768
-0.537545
-1.57377
-1.51116
-1.38153
-1.2317
-1.09008
-0.963808
-0.853051
-0.755826
-0.670652
-0.597324
-1.67938
-1.61189
-1.47266
-1.3135
-1.16375
-1.03028
-0.91309
-0.810092
-0.719675
-0.641249
-1.75468
-1.68255
-1.5348
-1.36796
-1.21171
-1.07253
-0.950244
-0.84266
-0.748061
-0.665524
-1.79546
-1.71909
-1.56423
-1.39161
-1.23067
-1.08741
-0.961491
-0.850628
-0.753
-0.667405
-1.79846
-1.71836
-1.55821
-1.38181
-1.21808
-1.07244
-0.944365
-0.831566
-0.732116
-0.64456
-1.76165
-1.67864
-1.51512
-1.33696
-1.1724
-1.02606
-0.8973
-0.783824
-0.683658
-0.595205
0.351516
0.370258
0.386916
0.400414
0.409391
0.414011
0.415151
0.413667
0.41022
0.405393
0.311109
0.33059
0.349469
0.365998
0.378156
0.385749
0.389585
0.390541
0.389307
0.386606
0.24443
0.265053
0.287353
0.308516
0.325509
0.337613
0.345532
0.350177
0.352284
0.352816
0.152855
0.175003
0.201886
0.229199
0.252551
0.270569
0.283825
0.29327
0.299712
0.304441
0.038274
0.0623161
0.0948918
0.129755
0.160825
0.185998
0.205676
0.220866
0.23246
0.242163
-0.096813
-0.0705177
-0.0312085
0.0124612
0.0524305
0.0858103
0.112818
0.134517
0.151899
0.167145
-0.249233
-0.22033
-0.173341
-0.119779
-0.0699275
-0.0274793
0.00759367
0.0364061
0.0600563
0.081229
-0.415137
-0.383269
-0.32776
-0.26341
-0.202913
-0.150747
-0.107063
-0.070706
-0.0404285
-0.0131166
-0.590137
-0.554901
-0.49005
-0.414074
-0.342218
-0.279716
-0.226908
-0.182607
-0.145292
-0.111782
-0.769755
-0.730696
-0.655606
-0.56702
-0.48279
-0.408822
-0.345593
-0.291825
-0.245743
-0.205528
0.360236
0.280335
0.225079
0.181465
0.145955
0.115722
0.0883102
0.0623957
0.0372064
0.0123509
0.354952
0.279257
0.225511
0.182198
0.146538
0.116079
0.0885002
0.0624832
0.0372373
0.0123501
0.34308
0.275588
0.224775
0.182512
0.147049
0.116487
0.0887752
0.0626498
0.0373213
0.0123672
0.323863
0.26945
0.222922
0.182408
0.147473
0.116934
0.089127
0.0628896
0.0374549
0.0124017
0.296299
0.260932
0.220023
0.18189
0.147798
0.117411
0.0895471
0.0631962
0.0376347
0.0124528
0.259377
0.249995
0.216141
0.180964
0.148006
0.117904
0.0900261
0.0635631
0.0378569
0.01252
0.212472
0.236397
0.211322
0.179635
0.148083
0.118399
0.090554
0.0639832
0.0381177
0.0126029
0.155397
0.219287
0.205509
0.1779
0.148014
0.118883
0.0911205
0.0644488
0.0384129
0.0127008
0.0880879
0.197418
0.198243
0.175605
0.147735
0.119325
0.0917118
0.0649524
0.0387389
0.0128139
0.0155768
0.171981
0.189856
0.172885
0.147293
0.119739
0.0923296
0.0654922
0.0390944
0.0129457
-0.0209208
0.151531
0.181698
0.168803
0.145342
0.118894
0.0920012
0.0653793
0.0390899
0.0130085
-0.0329241
0.126699
0.164817
0.158473
0.139231
0.115297
0.0898699
0.0641275
0.0384397
0.0128239
-0.0284776
0.112267
0.152005
0.149555
0.133485
0.111737
0.0876987
0.0628332
0.037757
0.0126235
-0.0198754
0.101258
0.140563
0.141206
0.127904
0.108179
0.0854894
0.0615028
0.0370475
0.0124106
-0.00828365
0.0936498
0.130838
0.133615
0.122619
0.104716
0.0833005
0.0601703
0.0363293
0.0121909
0.00341643
0.0880929
0.122512
0.126772
0.117708
0.101425
0.0811878
0.0588702
0.0356205
0.0119697
0.0131205
0.0836113
0.11531
0.120659
0.113229
0.0983732
0.0792021
0.0576352
0.034938
0.0117519
0.0194929
0.0793104
0.108896
0.115208
0.109208
0.0956067
0.0773834
0.0564924
0.0342953
0.0115418
0.0221109
0.074234
0.10251
0.109944
0.105349
0.092939
0.0756112
0.0553625
0.0336331
0.0113062
0.0188483
0.0706466
0.098781
0.107006
0.103219
0.0914669
0.0746325
0.0547398
0.0332726
0.0111822
-0.446491
-0.494629
-0.520877
-0.52621
-0.512449
-0.482088
-0.437805
-0.382062
-0.319025
-0.250993
-0.285945
-0.334418
-0.365184
-0.379211
-0.377546
-0.362843
-0.336047
-0.301984
-0.261093
-0.219183
-0.162671
-0.20962
-0.242219
-0.261154
-0.26697
-0.262298
-0.246893
-0.226098
-0.197801
-0.168877
-0.0673844
-0.113476
-0.147143
-0.168997
-0.179473
-0.180853
-0.172789
-0.160048
-0.140595
-0.12073
0.00515132
-0.0399683
-0.0741612
-0.0978666
-0.111509
-0.116903
-0.114063
-0.106793
-0.0937317
-0.0800467
0.0604198
0.0159088
-0.018715
-0.0437494
-0.0596512
-0.0678284
-0.068679
-0.0651167
-0.056414
-0.046864
0.101497
0.0572455
0.0221656
-0.00393707
-0.0215328
-0.0317086
-0.035135
-0.0340856
-0.0283818
-0.0217066
0.130586
0.0861401
0.0503943
0.023254
0.00424637
-0.00746954
-0.0127053
-0.0132548
-0.00940299
-0.00451742
0.147477
0.102854
0.066095
0.0375894
0.0170803
0.0039472
-0.00261125
-0.0039471
-0.000651063
0.00492299
0.159108
0.110878
0.0708688
0.0389028
0.0146791
-0.00212778
-0.0123074
-0.0162501
-0.0149307
-0.00844398
0.991277
0.942571
0.886528
0.826608
0.761421
0.688273
0.605108
0.512877
0.423554
0.368176
0.795547
0.741076
0.680617
0.614175
0.539775
0.455273
0.35906
0.252498
0.149475
0.0858794
0.581508
0.523483
0.459359
0.387381
0.30556
0.211966
0.104989
-0.0138972
-0.129125
-0.199965
0.376955
0.314025
0.243849
0.164484
0.0741572
-0.0291037
-0.147047
-0.278178
-0.405298
-0.482624
0.187212
0.11811
0.0408126
-0.0466046
-0.145887
-0.25914
-0.388201
-0.531546
-0.670196
-0.753009
0.0109382
-0.0640992
-0.148118
-0.243041
-0.35066
-0.473188
-0.612483
-0.767071
-0.916543
-1.0028
-0.15103
-0.230979
-0.320696
-0.422051
-0.536849
-0.667346
-0.815207
-0.978777
-1.13997
-1.22385
-0.29548
-0.379254
-0.473549
-0.580123
-0.700794
-0.837839
-0.992849
-1.16291
-1.33091
-1.41323
-0.418766
-0.505455
-0.603256
-0.71375
-0.838884
-0.980963
-1.1413
-1.31733
-1.48288
-1.56779
-0.518763
-0.607185
-0.7071
-0.819946
-0.947857
-1.09312
-1.25666
-1.43463
-1.59974
-1.68451
2.18514
2.2023
2.22316
2.24561
2.26758
2.28817
2.30676
2.32274
2.33644
2.34711
2.1324
2.14772
2.16625
2.18601
2.20502
2.22236
2.23736
2.24947
2.25947
2.26755
2.05943
2.07208
2.08718
2.10295
2.11757
2.13009
2.13974
2.14609
2.15063
2.15492
1.96698
1.9762
1.98682
1.9974
2.00631
2.01253
2.01521
2.014
2.01138
2.01088
1.85613
1.86122
1.86646
1.87077
1.87276
1.87137
1.8656
1.85522
1.84368
1.83767
1.72814
1.7286
1.72773
1.72486
1.7189
1.70872
1.6932
1.67222
1.65034
1.63762
1.58498
1.58069
1.57329
1.56254
1.54771
1.52766
1.50115
1.46828
1.4348
1.41444
1.43059
1.42123
1.40657
1.38694
1.36218
1.33113
1.29245
1.24647
1.20032
1.17168
1.27249
1.25783
1.23465
1.20453
1.1682
1.1246
1.07228
1.01182
0.951878
0.914441
1.12165
1.09437
1.05747
1.01411
0.964804
0.907751
0.841069
0.765487
0.691306
0.644932
2.20383
1.7474
2.13552
1.94228
1.92647
1.92809
1.93664
1.96069
2.01724
2.12028
2.1969
1.74059
2.12977
1.93518
1.9186
1.9187
1.92475
1.9451
1.99426
2.08452
2.19074
1.73338
2.12473
1.92734
1.90998
1.90824
1.911
1.92653
1.9648
2.03668
2.18527
1.72584
2.12041
1.91876
1.90065
1.89674
1.89544
1.90487
1.92877
1.97672
2.18043
1.71807
2.11682
1.90943
1.89067
1.88423
1.8781
1.87995
1.88583
1.90493
2.17621
1.7102
2.11392
1.89932
1.8801
1.87075
1.859
1.85162
1.83644
1.8208
2.17256
1.70238
2.11166
1.8884
1.86901
1.85633
1.83816
1.81987
1.78196
1.72263
2.16946
1.69476
2.10996
1.87665
1.85751
1.84099
1.81557
1.78481
1.72314
1.61047
2.1669
1.68752
2.1087
1.86404
1.8457
1.82477
1.79132
1.74652
1.65933
1.48224
2.16489
1.68093
2.10775
1.85062
1.83367
1.80776
1.76583
1.70646
1.59343
1.34997
2.16303
1.67397
2.10356
1.83909
1.81847
1.78557
1.73177
1.65361
1.51315
1.21085
2.16392
1.66775
2.09659
1.83124
1.8023
1.76222
1.69729
1.60367
1.44318
1.14397
2.16646
1.66327
2.09046
1.82391
1.7876
1.74077
1.66632
1.56078
1.38666
1.09902
2.17107
1.66054
2.08532
1.81731
1.77457
1.72165
1.63928
1.52463
1.34195
1.06854
2.17826
1.65951
2.08128
1.81164
1.76339
1.70517
1.61641
1.49495
1.30781
1.04781
2.18865
1.66015
2.07835
1.80702
1.75416
1.69151
1.59781
1.4714
1.28278
1.03426
2.20294
1.66228
2.0764
1.80354
1.74696
1.68077
1.58342
1.45364
1.26543
1.02627
2.22298
1.66584
2.07521
1.80122
1.74187
1.67303
1.5732
1.44131
1.25449
1.023
2.2417
1.66999
2.07363
1.8002
1.73903
1.66842
1.56725
1.43447
1.2496
1.02541
2.29417
1.67825
2.07584
1.79842
1.73798
1.66594
1.56405
1.4307
1.24725
1.02624
0.960937
0.793543
0.603395
0.422094
0.255492
0.100375
-0.0435251
-0.173212
-0.285038
-0.376578
0.884551
0.756141
0.609291
0.462955
0.325282
0.195547
0.0736487
-0.0378041
-0.136302
-0.219732
0.846487
0.74215
0.62405
0.500435
0.381083
0.267966
0.161141
0.0623774
-0.0258958
-0.101416
0.828167
0.73713
0.63711
0.530632
0.42573
0.325459
0.230166
0.141258
0.0608914
-0.00905473
0.822064
0.739466
0.651334
0.557062
0.462505
0.371178
0.283932
0.201951
0.127077
0.0610238
0.822648
0.745699
0.665325
0.579398
0.49218
0.407232
0.325705
0.248673
0.177763
0.114587
0.826646
0.753617
0.678425
0.598111
0.51593
0.435378
0.357771
0.284121
0.215914
0.154634
0.832482
0.762115
0.690345
0.613576
0.534548
0.45675
0.381567
0.309978
0.2434
0.183248
0.842278
0.773753
0.703708
0.628305
0.550383
0.47345
0.398879
0.32763
0.261068
0.200625
0.855814
0.791343
0.7228
0.647523
0.569601
0.492343
0.41698
0.344594
0.27661
0.214399
-2.99058
-2.87322
-2.65661
-2.43522
-2.24181
-2.08037
-1.94797
-1.84083
-1.75625
-1.69279
-3.05963
-2.95
-2.7384
-2.51732
-2.32203
-2.15856
-2.02464
-1.91627
-1.83088
-1.76806
-3.01246
-2.91171
-2.70912
-2.49057
-2.29488
-2.13027
-1.99514
-1.88543
-1.79824
-1.73282
-2.86117
-2.76954
-2.57958
-2.36705
-2.17348
-2.00934
-1.87392
-1.76334
-1.67446
-1.60563
-2.62671
-2.54421
-2.36961
-2.16722
-1.97945
-1.81862
-1.685
-1.57505
-1.4856
-1.41497
-2.33494
-2.26142
-2.10422
-1.91629
-1.73889
-1.58533
-1.45675
-1.35007
-1.26219
-1.19251
-2.01253
-1.94765
-1.8091
-1.63959
-1.47728
-1.33548
-1.21592
-1.11605
-1.03281
-0.967197
-1.68288
-1.62602
-1.50635
-1.35794
-1.21437
-1.08806
-0.980951
-0.891025
-0.815603
-0.756592
-1.36361
-1.31398
-1.21255
-1.08624
-0.963441
-0.855096
-0.763051
-0.685668
-0.6206
-0.572078
-1.06547
-1.02218
-0.937462
-0.832458
-0.730319
-0.640179
-0.563456
-0.498488
-0.442202
-0.398488
-0.794068
-0.756224
-0.686429
-0.601137
-0.5188
-0.446937
-0.386826
-0.337412
-0.296438
-0.260846
-0.551219
-0.517977
-0.460969
-0.392782
-0.327719
-0.27166
-0.225406
-0.187892
-0.157555
-0.129842
-0.336916
-0.307478
-0.261125
-0.207233
-0.156589
-0.113602
-0.0786098
-0.0505278
-0.028184
-0.00763707
-0.151042
-0.124737
-0.0872273
-0.0452618
-0.00674669
0.0251628
0.0505036
0.0703267
0.0856443
0.0994766
0.00635024
0.0300945
0.0603792
0.0925515
0.121019
0.143691
0.160911
0.173683
0.182919
0.190826
0.135179
0.156891
0.181476
0.205888
0.226325
0.241583
0.252236
0.259239
0.263413
0.266336
0.235379
0.25556
0.275893
0.294485
0.308847
0.318474
0.324102
0.326642
0.326842
0.325818
0.306943
0.326074
0.343536
0.358177
0.368382
0.374143
0.3763
0.375728
0.373127
0.369293
0.349969
0.368518
0.384437
0.39694
0.404885
0.408538
0.408793
0.406509
0.402349
0.396926
0.364686
0.383112
0.398774
0.410911
0.418462
0.421748
0.421675
0.419092
0.414655
0.408906
-0.0224895
0.130995
0.155804
0.151615
0.137027
0.116333
0.0924307
0.0668974
0.0404237
0.0134944
0.0689477
0.165331
0.169659
0.157325
0.138402
0.115931
0.0914733
0.065956
0.0397794
0.0132771
0.145059
0.192331
0.180406
0.161247
0.139438
0.115566
0.0906342
0.0651287
0.0392119
0.0130843
0.205578
0.213775
0.189733
0.165132
0.140437
0.115287
0.0899233
0.064416
0.0387196
0.0129157
0.253729
0.231336
0.198002
0.168621
0.141369
0.115094
0.0893396
0.0638159
0.0383006
0.0127705
0.291154
0.245985
0.205253
0.171726
0.142249
0.114991
0.0888808
0.0633257
0.037953
0.012648
0.319234
0.258031
0.211478
0.174458
0.143082
0.114975
0.0885434
0.062942
0.0376746
0.0125473
0.339323
0.267533
0.216626
0.176807
0.14387
0.115046
0.0883232
0.0626614
0.0374632
0.0124679
0.352495
0.27446
0.220631
0.178763
0.144614
0.115198
0.0882149
0.0624798
0.0373165
0.0124092
0.359378
0.278741
0.223454
0.180318
0.145311
0.115426
0.0882128
0.0623928
0.0372318
0.0123704
-0.218287
0.0165238
0.100346
0.125625
0.12597
0.112419
0.0916654
0.0672741
0.0409981
0.0137864
-0.179165
0.0338803
0.10761
0.128644
0.127045
0.112772
0.091707
0.0672134
0.040924
0.0137509
-0.151454
0.0522469
0.11705
0.133061
0.128954
0.113454
0.091855
0.0671621
0.0408262
0.0136983
-0.119295
0.0744628
0.128633
0.138677
0.131376
0.114484
0.0921893
0.0672109
0.0407861
0.0136683
-0.0791028
0.102567
0.143184
0.145907
0.1348
0.115838
0.0926844
0.0673436
0.0407913
0.0136554
-1.62467
-1.70093
-1.68488
-1.58903
-1.4339
-1.24902
-1.0484
-0.864762
-0.689508
-0.53736
-1.62547
-1.70213
-1.68144
-1.57858
-1.41589
-1.22267
-1.01358
-0.820642
-0.636802
-0.480111
-1.62996
-1.70581
-1.67975
-1.56848
-1.3962
-1.19186
-0.975619
-0.776169
-0.598186
-0.458427
-1.64091
-1.71641
-1.68503
-1.56464
-1.38212
-1.16778
-0.947956
-0.74618
-0.57275
-0.433299
-1.65906
-1.73482
-1.69853
-1.56971
-1.37804
-1.15601
-0.932831
-0.726908
-0.548706
-0.393349
1.59433
1.57368
1.54468
1.51051
1.47193
1.42722
1.37439
1.31378
1.25414
1.21612
1.72862
1.72219
1.70867
1.68969
1.66607
1.63684
1.6006
1.55758
1.51479
1.48822
1.85651
1.85561
1.85111
1.84344
1.83227
1.81651
1.7949
1.76745
1.7396
1.72301
1.96944
1.97374
1.97668
1.97801
1.97679
1.97192
1.9623
1.94777
1.93242
1.92405
2.06291
2.07159
2.08063
2.08926
2.09616
2.10023
2.10051
2.09669
2.09171
2.08988
2.13564
2.1481
2.16224
2.17683
2.19024
2.20146
2.20966
2.21442
2.21758
2.22101
2.18747
2.2028
2.22083
2.23993
2.25826
2.27488
2.28904
2.30024
2.30945
2.31706
2.21842
2.23564
2.25627
2.27839
2.30003
2.32027
2.33844
2.35395
2.36724
2.37769
2.22839
2.24651
2.26844
2.2921
2.31543
2.33752
2.35774
2.37547
2.39087
2.40278
2.21716
2.23531
2.25733
2.28109
2.30452
2.32671
2.34707
2.36494
2.38046
2.39242
-1.50534
-1.57184
-1.65693
-1.76316
-1.89375
-2.05223
-2.24258
-2.46243
-2.68239
-2.80459
-1.21878
-1.28829
-1.37489
-1.48096
-1.60983
-1.76508
-1.95017
-2.16425
-2.38753
-2.51287
-0.854818
-0.928057
-1.01724
-1.12411
-1.25158
-1.40298
-1.58182
-1.78865
-2.00133
-2.13636
-0.445417
-0.524235
-0.616731
-0.724388
-0.849853
-0.996347
-1.16744
-1.36287
-1.56026
-1.6937
-0.0330902
-0.115826
-0.20932
-0.315001
-0.435468
-0.573873
-0.733553
-0.913994
-1.09489
-1.21851
0.346932
0.266192
0.177003
0.0780864
-0.0330501
-0.159363
-0.303912
-0.466055
-0.627512
-0.73762
0.681269
0.608396
0.528703
0.441046
0.343039
0.231995
0.105267
-0.0364008
-0.176617
-0.271625
0.977284
0.914568
0.846289
0.771619
0.688048
0.593064
0.484517
0.363341
0.244163
0.164407
1.24781
1.19403
1.13421
1.06987
0.998698
0.918101
0.826229
0.724126
0.624641
0.559388
1.47547
1.43028
1.37684
1.32112
1.26194
1.19633
1.12203
1.03964
0.959833
0.908501
2.3222
1.7919
2.21717
1.95712
1.96293
1.96416
1.96048
1.95716
1.91468
1.78942
2.30555
1.78881
2.20903
1.96156
1.96196
1.96474
1.96404
1.96903
1.94577
1.88147
2.29014
1.7856
2.20035
1.96453
1.96068
1.96457
1.96749
1.97984
1.97535
1.96715
2.27595
1.78216
2.19138
1.96602
1.95895
1.96355
1.96937
1.98793
2.00017
2.03371
2.26285
1.77845
2.18236
1.96609
1.95664
1.9616
1.96971
1.99304
2.02054
2.08424
2.25076
1.77439
2.17347
1.96482
1.95363
1.95866
1.96849
1.99512
2.03589
2.12041
2.23962
1.76993
2.16487
1.96232
1.94985
1.95471
1.96565
1.99409
2.0449
2.14431
2.22939
1.76502
2.15669
1.95872
1.94526
1.9497
1.96112
1.99008
2.04754
2.15619
2.22003
1.75963
2.14903
1.95411
1.93982
1.94359
1.95481
1.98316
2.04384
2.15604
2.21153
1.75375
2.14195
1.94861
1.93355
1.93639
1.94666
1.97336
2.03376
2.1441
2.46783
1.81569
2.22898
1.96007
1.96458
1.95777
1.93942
1.91077
1.80967
1.62853
2.41336
1.80893
2.22692
1.96087
1.96413
1.9586
1.94103
1.91386
1.81579
1.63112
2.38869
1.80498
2.22773
1.95977
1.9641
1.95972
1.94396
1.91974
1.82887
1.63695
2.36341
1.80042
2.22576
1.95796
1.96393
1.96105
1.94817
1.92856
1.84887
1.65779
2.34084
1.79566
2.22287
1.95556
1.96359
1.96249
1.95334
1.94013
1.87523
1.6916
1.31494
1.17735
0.967566
0.674262
0.313635
-0.0903771
-0.501273
-0.880237
-1.20321
-1.4556
1.30101
1.15964
0.956045
0.675224
0.330946
-0.0600464
-0.468432
-0.85471
-1.18896
-1.4511
1.32041
1.16712
0.957527
0.682413
0.349713
-0.0327785
-0.441985
-0.837113
-1.18166
-1.45167
1.37013
1.19452
0.96901
0.693908
0.367192
-0.0115172
-0.423277
-0.827062
-1.18108
-1.45835
1.44845
1.24245
0.990625
0.706863
0.379827
0.00215833
-0.411326
-0.821768
-1.18508
-1.47099
)
;

boundaryField
{
    left
    {
        type            zeroGradient;
    }
    right
    {
        type            fixedValue;
        value           uniform 0;
    }
    down
    {
        type            zeroGradient;
    }
    up
    {
        type            zeroGradient;
    }
    cylinder
    {
        type            zeroGradient;
    }
    defaultFaces
    {
        type            empty;
    }
}


// ************************************************************************* //
