/*--------------------------------*- C++ -*----------------------------------*\
  =========                 |
  \\      /  F ield         | OpenFOAM: The Open Source CFD Toolbox
   \\    /   O peration     | Website:  https://openfoam.org
    \\  /    A nd           | Version:  13
     \\/     M anipulation  |
\*---------------------------------------------------------------------------*/
FoamFile
{
    format      ascii;
    class       volScalarField;
    location    "0.49";
    object      strainRateViscosityModel:nu;
}
// * * * * * * * * * * * * * * * * * * * * * * * * * * * * * * * * * * * * * //

dimensions      [0 2 -1 0 0 0 0];

internalField   nonuniform List<scalar> 
1800
(
9.40488
9.19759
9.01004
8.8009
8.57608
8.34406
8.11541
7.89817
7.62433
7.37948
9.58523
9.41878
9.26689
9.0973
8.91113
8.71138
8.50352
8.28865
8.02734
7.7022
9.70219
9.56269
9.42803
9.27095
9.08866
8.87895
8.64088
8.36901
8.0306
7.61069
9.77539
9.65614
9.53324
9.38286
9.20048
8.9817
8.72278
8.41595
8.02879
7.55462
9.82168
9.7183
9.60558
9.46166
9.2807
9.05695
8.78548
8.45888
8.04777
7.55619
9.85185
9.76082
9.6573
9.52059
9.34355
9.11896
8.84034
8.50016
8.07153
7.57023
9.87179
9.78991
9.69399
9.56396
9.39147
9.16769
8.8842
8.53252
8.08736
7.57569
9.88475
9.80925
9.71888
9.59395
9.42495
9.20146
8.9131
8.55005
8.08853
7.56356
9.8926
9.82107
9.73416
9.61221
9.44467
9.21963
8.92484
8.54923
8.07121
7.52872
9.89646
9.82686
9.74153
9.6207
9.4531
9.22574
8.92513
8.53954
8.05038
7.49286
1.76885
1.40502
1.21647
1.32568
1.72947
2.24498
2.49156
2.44881
2.36097
2.33716
3.69433
1.78699
1.49928
1.98158
2.68787
2.96814
2.82103
2.67818
2.69274
2.74469
4.6801
2.57609
2.44095
3.17221
3.59033
3.34946
3.09003
3.1251
3.26243
3.34212
5.25774
3.88582
3.81751
4.2102
4.17919
3.83423
3.72734
3.85898
3.96049
4.00965
6.05143
5.27686
5.11854
5.11993
4.91496
4.65586
4.58095
4.61471
4.61543
4.65553
6.95838
6.46035
6.22693
6.03768
5.78813
5.54611
5.3904
5.29508
5.22463
5.27743
7.77131
7.37777
7.1167
6.85993
6.58709
6.32052
6.08764
5.9019
5.77178
5.82554
8.40002
8.05527
7.79189
7.51551
7.22618
6.93097
6.64219
6.38671
6.19313
6.23037
8.84932
8.54533
8.2909
8.01012
7.70545
7.37924
7.0355
6.70124
6.41621
6.42247
9.16164
8.90151
8.66626
8.39656
8.09556
7.7656
7.40635
7.0357
6.70885
6.75294
2.1942
1.72996
1.3318
0.933219
0.610173
0.327851
0.14593
0.0850176
0.0895048
0.138581
2.53049
1.85158
1.41014
0.9329
0.587993
0.311948
0.127949
0.0471941
0.0307909
0.0448946
2.95204
1.98219
1.48488
0.934456
0.558078
0.289351
0.110871
0.0301207
0.016639
0.0116913
3.44472
2.15246
1.55724
0.940216
0.524525
0.262662
0.0946383
0.0238748
0.0150468
0.0105938
3.98663
2.39011
1.63465
0.950449
0.490024
0.232714
0.0802595
0.0216167
0.0147592
0.0105198
4.53153
2.70073
1.73042
0.966873
0.45728
0.199891
0.0673503
0.0207093
0.0147942
0.0104918
4.99944
3.06009
1.8518
0.989195
0.427024
0.164771
0.0547399
0.0202661
0.0149582
0.0105124
5.31493
3.44288
2.01861
1.03162
0.406612
0.130784
0.0418762
0.0193817
0.0143919
0.0124076
5.34528
3.72609
2.16794
1.06343
0.384478
0.0979349
0.0296285
0.0175342
0.013368
0.0605253
5.20389
3.9924
2.40378
1.16737
0.402167
0.0822666
0.0196034
0.0114034
0.0585462
0.164835
4.94644
3.94572
2.46062
1.18128
0.375986
0.0525464
0.0109548
0.0644556
0.173184
0.25119
5.33278
3.35119
2.14178
0.996068
0.348563
0.105586
0.0916746
0.187297
0.268079
0.364121
4.90586
3.04338
2.24081
1.19104
0.574044
0.266222
0.190952
0.257711
0.357504
0.452513
4.54478
3.62658
2.67345
1.62871
0.880096
0.469234
0.31826
0.355528
0.440314
0.531269
5.11235
4.74522
3.33914
2.15845
1.23175
0.71139
0.48058
0.459656
0.521208
0.596801
6.25409
5.66904
4.05679
2.67252
1.59675
0.970429
0.66268
0.57869
0.602508
0.65237
7.26276
6.37389
4.71447
3.15531
1.95794
1.23572
0.855887
0.705953
0.684144
0.699079
8.00019
6.91227
5.26069
3.59023
2.3017
1.50056
1.05377
0.839523
0.767219
0.739839
8.51881
7.3309
5.69799
3.97115
2.62221
1.75665
1.24563
0.968312
0.844397
0.772751
8.93102
7.69128
6.05021
4.28381
2.92713
2.0303
1.4621
1.11853
0.937777
0.810861
6.51283
6.43966
6.43046
6.44882
6.48748
6.53015
6.58229
6.71092
6.89571
6.82689
0.26077
1.05736
2.00808
2.92328
3.70438
4.31718
4.73412
4.98387
5.2232
5.72945
3.85061
3.54363
3.28426
3.1109
3.10595
3.24969
3.47214
3.71359
4.16543
4.84585
6.64428
6.62732
6.53718
6.34464
6.04305
5.65735
5.24874
4.89487
4.73806
4.54803
7.6919
7.67659
7.63217
7.54134
7.39617
7.18986
6.927
6.61926
6.2855
5.65549
8.44955
8.43315
8.39438
8.32775
8.22961
8.09676
7.92841
7.71687
7.42791
6.90773
8.93969
8.92395
8.8903
8.83681
8.76168
8.66292
8.53819
8.37896
8.15472
7.80867
9.27299
9.25982
9.23247
9.18986
9.13053
9.05246
8.9527
8.82483
8.65284
8.43094
9.50446
9.49417
9.47308
9.44024
9.39426
9.33319
9.25424
9.15287
9.0229
8.87536
9.6899
9.68285
9.66852
9.64604
9.61405
9.5707
9.51361
9.43975
9.34638
9.2441
7.24868
7.52657
7.83703
8.08762
8.34469
8.5995
8.84129
9.06153
9.25457
9.46028
7.58344
7.9482
8.24096
8.48105
8.70926
8.92474
9.12225
9.29898
9.45391
9.61808
7.49871
7.95744
8.32592
8.62043
8.87568
9.09768
9.28802
9.44951
9.58536
9.72227
7.44703
7.95765
8.37373
8.70195
8.97654
9.20593
9.39469
9.54806
9.67131
9.78825
7.45642
7.98068
8.41858
8.76486
9.05051
9.28354
9.46977
9.61591
9.72869
9.83023
7.48246
8.01169
8.464
8.82145
9.11233
9.34474
9.52606
9.66447
9.76797
9.85765
7.50366
8.03786
8.50276
8.86862
9.16197
9.39189
9.56764
9.6989
9.79479
9.8757
7.51115
8.05246
8.52871
8.90208
9.19746
9.42521
9.5964
9.72213
9.81244
9.88729
7.49836
8.05045
8.53742
8.91898
9.21769
9.44503
9.61372
9.73606
9.8229
9.89404
7.48288
8.04359
8.53593
8.92345
9.22526
9.45331
9.62124
9.74217
9.82746
9.89694
2.54885
2.50669
2.52647
2.73659
2.91408
2.53599
1.68725
1.1782
1.51907
4.16861
2.95926
2.87107
2.71327
2.71392
3.10219
3.42172
2.80902
1.89802
2.11681
5.12263
3.45273
3.40832
3.25013
3.06539
3.26689
3.8235
3.79828
3.15235
3.27817
5.448
3.94869
3.93728
3.9097
3.79979
3.89244
4.31912
4.58803
4.46259
4.65283
5.90667
4.50276
4.47518
4.54961
4.61982
4.78233
5.11482
5.43778
5.61633
5.89226
6.6272
5.10547
5.06287
5.20166
5.39878
5.65836
5.98086
6.30826
6.59411
6.89889
7.4046
5.65671
5.62028
5.8203
6.09189
6.4083
6.74087
7.06817
7.37747
7.67791
8.08581
6.0688
6.05393
6.31626
6.64284
6.99503
7.33957
7.66694
7.97381
8.25861
8.61086
6.26182
6.28038
6.63154
7.02601
7.41997
7.78414
8.11645
8.41646
8.68269
8.98794
6.60118
6.57072
6.95633
7.37949
7.78118
8.14292
8.46636
8.75032
8.99295
9.25188
0.105466
0.152579
0.106201
0.0497985
0.0126687
0.363697
0.904694
1.46511
1.93775
2.42273
0.0716674
0.137727
0.102416
0.0494102
0.013813
0.35395
0.913073
1.53338
2.02253
2.69427
0.0500546
0.130477
0.101893
0.0533883
0.0227801
0.357586
0.927324
1.59038
2.09963
3.01043
0.0374194
0.130397
0.105408
0.0624393
0.0409901
0.371748
0.942888
1.63439
2.20825
3.40068
0.0313854
0.13587
0.111426
0.0739167
0.0648927
0.389363
0.955513
1.67536
2.38872
3.87184
0.0305571
0.145032
0.118231
0.0851535
0.0902764
0.405938
0.967895
1.73581
2.65558
4.36858
0.0349147
0.157173
0.124342
0.0940811
0.112279
0.41782
0.984226
1.83228
2.98675
4.79859
0.0456765
0.173094
0.12937
0.100555
0.130148
0.432681
1.02821
1.99087
3.3527
5.08264
0.0655743
0.193502
0.133492
0.101183
0.135178
0.435769
1.06583
2.14113
3.63042
5.08543
0.0974266
0.215875
0.138459
0.104887
0.152373
0.483557
1.20183
2.39881
3.88031
4.89383
0.155819
0.243801
0.147358
0.10309
0.141163
0.480016
1.2623
2.51083
3.88921
4.67623
0.260195
0.274273
0.137772
0.0817498
0.077431
0.37244
1.1241
2.30662
3.43458
5.19572
0.425214
0.271704
0.110564
0.0186555
0.014571
0.312085
1.13201
2.34191
3.25358
4.93962
0.677937
0.259856
0.0235811
0.082037
0.114361
0.514536
1.41437
2.61033
3.70671
4.69522
1.06135
0.0506005
0.251392
0.255686
0.331596
0.878673
1.92483
3.19767
4.70185
5.17399
1.51472
0.113101
0.533452
0.43659
0.615365
1.30279
2.47068
3.9136
5.597
6.22236
2.19346
0.68671
0.850421
0.71042
0.961592
1.73856
2.99207
4.59254
6.30228
7.2164
3.79154
1.70379
1.27261
1.0558
1.33709
2.15482
3.46332
5.16537
6.85435
7.96892
6.85995
3.57615
1.96293
1.43795
1.69725
2.53158
3.8771
5.63197
7.2954
8.50729
9.04904
6.38407
2.84548
2.01542
2.13189
2.90724
4.2295
6.0203
7.68663
8.93805
6.62587
6.68865
6.51171
6.38974
6.34918
6.32282
6.30571
6.31741
6.36198
6.47627
5.53128
5.0123
4.7681
4.52662
4.1281
3.54181
2.79957
1.93275
1.04506
0.284367
4.85141
4.23741
3.82734
3.61627
3.42909
3.30941
3.31434
3.45685
3.65488
3.87407
4.71005
4.88338
5.02621
5.33629
5.70112
6.05192
6.33383
6.52148
6.61668
6.64172
5.68601
6.28483
6.61177
6.91115
7.17236
7.38155
7.53191
7.62824
7.67678
7.69246
6.86559
7.38855
7.68449
7.90242
8.07669
8.21493
8.31788
8.38862
8.4306
8.44893
7.76521
8.12059
8.35205
8.51798
8.64802
8.75103
8.82959
8.88585
8.92166
8.93901
8.40461
8.63273
8.80891
8.94095
9.04403
9.12467
9.18597
9.23007
9.25855
9.2726
8.86616
9.01619
9.14761
9.25059
9.33082
9.39282
9.43943
9.47267
9.494
9.50442
9.24865
9.35042
9.44299
9.51629
9.57292
9.61587
9.64747
9.66956
9.68348
9.69011
9.50941
8.98524
8.23575
6.92812
5.5979
0.131168
3.36078
5.96028
7.21394
8.15172
9.46535
8.92145
8.16799
6.89044
5.54932
0.56376
2.62217
5.70592
6.91628
7.91381
9.36561
8.7827
8.02012
6.80946
5.36627
1.60347
1.41352
5.20655
6.30919
7.40313
9.18246
8.54499
7.77432
6.65494
5.18633
2.74001
0.723054
4.23831
5.42143
6.57129
8.86799
8.17342
7.40381
6.37673
5.02637
3.36798
0.970923
2.63155
4.31683
5.39361
8.35036
7.62951
6.87317
5.91704
4.76493
3.43996
1.7192
1.30185
3.04922
3.988
7.53585
6.89635
6.15527
5.22732
4.29949
3.26946
2.14302
1.17235
1.65623
2.55742
6.32518
6.03727
5.28103
4.23169
3.53339
2.91261
2.11834
1.43492
1.06835
1.2355
4.63152
5.23189
4.474
2.9995
2.43721
2.27461
1.85592
1.38445
1.12226
0.65898
2.67264
4.53901
4.02123
1.96689
1.397
1.48849
1.40977
1.21122
1.06349
0.844674
1.27664
3.78789
3.66605
1.33783
0.816471
0.897552
0.970605
0.955571
0.971028
1.01922
0.613423
2.96773
3.08103
0.957428
0.575471
0.639338
0.758325
0.818851
0.842941
0.876062
0.355341
2.18677
2.28352
0.68866
0.49199
0.593756
0.724521
0.808952
0.846918
0.871872
0.265341
1.54809
1.48708
0.520522
0.532313
0.671499
0.784921
0.856035
0.879633
0.890103
0.239777
1.01825
0.843638
0.510797
0.665858
0.799509
0.900711
0.964269
0.980159
0.977288
0.243102
0.494936
0.497157
0.631918
0.81275
0.950151
1.04798
1.10589
1.11667
1.10866
0.179356
0.203582
0.504381
0.75164
0.969393
1.11522
1.20545
1.25291
1.26966
1.27011
0.0459795
0.248929
0.646119
0.917922
1.13163
1.25001
1.32651
1.39567
1.45129
1.47268
0.0583212
0.490155
0.819088
1.09382
1.22933
1.33793
1.48621
1.64262
1.72933
1.74522
0.682452
0.85968
1.04023
1.18708
1.32571
1.59509
1.904
2.07371
2.0777
2.04585
0.362848
0.0800876
0.221976
0.546788
0.78923
0.884387
0.874132
0.822305
0.781914
0.777435
0.461579
0.200912
0.316573
0.517388
0.718812
0.803763
0.794408
0.747841
0.714355
0.721759
0.524657
0.369523
0.436649
0.509359
0.648588
0.723773
0.716211
0.673779
0.646304
0.66412
0.636778
0.583932
0.591126
0.550724
0.582592
0.636548
0.632791
0.597217
0.577175
0.604613
0.802645
0.798485
0.736603
0.632553
0.537196
0.548999
0.547314
0.519756
0.507419
0.543198
1.00511
0.993668
0.868978
0.730987
0.525508
0.466633
0.460286
0.441549
0.43724
0.479865
1.2225
1.16494
0.983313
0.817972
0.546317
0.399352
0.374444
0.363459
0.366811
0.414633
1.44717
1.31953
1.08222
0.879702
0.581411
0.356649
0.293904
0.286625
0.29683
0.347319
1.68068
1.4644
1.16983
0.914964
0.609453
0.339318
0.224893
0.212467
0.226593
0.27868
1.92432
1.60169
1.25175
0.929943
0.619074
0.33495
0.174771
0.144109
0.159316
0.206015
2.00883
0.746835
0.715322
0.960359
1.18992
1.27531
1.25015
1.18084
1.11758
1.04994
1.39431
0.482625
0.576996
0.869919
1.10236
1.18948
1.1681
1.10317
1.04448
0.990555
0.751686
0.287847
0.479306
0.793208
1.02857
1.1178
1.09963
1.03807
0.983635
0.941266
0.253596
0.170161
0.403692
0.721649
0.95398
1.0419
1.02526
0.966763
0.916948
0.887318
0.435926
0.0328268
0.265869
0.609238
0.858641
0.958161
0.948743
0.894707
0.849565
0.832596
9.35457
9.28997
9.1409
8.87298
8.43741
7.77871
6.87114
5.75908
4.58174
3.53683
9.19239
9.09556
8.88099
8.51151
7.94133
7.13625
6.1094
4.95486
3.84454
2.78662
9.02378
8.90016
8.62649
8.16088
7.46156
6.51592
5.37118
4.16841
3.0811
1.94229
8.81621
8.66208
8.32136
7.74775
6.90595
5.814
4.55476
3.29466
2.22581
1.09016
8.58737
8.37925
7.92568
7.17726
6.1123
4.79189
3.35053
2.08516
0.994128
0.302025
1.06112
1.02541
1.01753
1.02113
0.916256
0.800425
1.29402
3.68164
3.85816
1.32381
0.950255
0.934939
0.927595
0.872201
0.720206
0.589807
0.9122
3.13933
3.10692
0.648016
0.986912
0.983399
0.966632
0.893861
0.748685
0.586237
0.700327
2.36849
2.34147
0.377817
1.05362
1.06537
1.06115
1.00141
0.890472
0.742123
0.657586
1.55194
1.62724
0.277521
1.18471
1.20859
1.21409
1.16639
1.07573
0.951225
0.788713
0.904803
0.912753
0.24643
1.34755
1.36735
1.37546
1.34988
1.27951
1.14626
0.925463
0.665767
0.355742
0.216355
1.54869
1.54467
1.51273
1.4704
1.41845
1.31043
1.07065
0.748002
0.27117
0.0662196
1.81293
1.80603
1.72373
1.57267
1.4345
1.33726
1.19993
0.892233
0.489818
0.0466219
2.09145
2.13763
2.13392
1.94006
1.60085
1.31655
1.18171
1.04816
0.846257
0.669862
2.30075
2.34791
2.47083
2.51796
2.21341
1.61843
1.17689
1.06371
1.29619
2.01413
8.15153
7.21358
5.95992
3.36028
0.131424
5.59644
6.92763
8.23556
8.98525
9.5095
7.91312
6.91517
5.70491
2.62156
0.563631
5.54547
6.88899
8.1674
8.9215
9.46566
7.40168
6.30731
5.20476
1.4154
1.59976
5.36178
6.80719
8.01925
8.78283
9.3662
6.56865
5.41854
4.23613
0.726213
2.73174
5.1816
6.65209
7.77334
8.54532
9.18349
5.38922
4.31232
2.63244
0.971055
3.35668
5.02042
6.37328
7.40287
8.17416
8.86975
3.97955
3.04118
1.30997
1.71344
3.42672
4.75604
5.91223
6.87228
7.63098
8.35334
2.5406
1.65295
1.18739
2.13316
3.25079
4.28274
5.21854
6.15431
6.89919
7.54119
1.21677
1.08764
1.45228
2.10755
2.88031
3.50281
4.21723
5.28161
6.04309
6.33597
0.671505
1.15345
1.40773
1.84271
2.23202
2.40027
2.98375
4.47866
5.24284
4.65585
0.885613
1.10309
1.248
1.41346
1.46433
1.36942
1.94346
4.02531
4.5641
2.71739
2.08901
0.543223
1.05833
0.636206
0.671499
0.76076
0.63224
0.299526
0.0632116
0.35687
1.62891
0.237626
0.865995
0.486395
0.577659
0.682711
0.591952
0.356119
0.266956
0.489127
1.33292
0.0575759
0.637721
0.348634
0.48867
0.602225
0.559555
0.459258
0.473652
0.59175
1.096
0.0150803
0.388831
0.241101
0.403097
0.51743
0.559216
0.625506
0.731238
0.75835
0.844906
0.0914808
0.187261
0.165677
0.323639
0.439665
0.605514
0.802723
0.970857
0.975808
0.63241
0.155974
0.0501134
0.110035
0.249496
0.383117
0.690116
0.969203
1.18691
1.22039
0.459812
0.209638
0.0516165
0.0470312
0.183583
0.360807
0.780561
1.10839
1.37539
1.47309
0.326855
0.210967
0.102237
0.0104282
0.120551
0.366922
0.84867
1.22027
1.54352
1.7245
0.227446
0.196281
0.110082
0.0383917
0.0576568
0.378627
0.885596
1.31139
1.69494
1.96334
0.15566
0.173278
0.111907
0.048211
0.0218311
0.378174
0.89957
1.39102
1.82811
2.18691
9.33655
6.77029
2.66612
1.70407
1.2091
1.12703
0.971619
0.785753
0.798291
2.03349
8.21089
4.63637
2.21555
1.42245
1.07758
1.04169
0.896791
0.654472
0.529537
1.39871
6.12003
3.06389
1.78536
1.21557
0.973436
0.976692
0.836564
0.563901
0.330098
0.740888
4.13279
1.87579
1.49659
1.00943
0.868138
0.908709
0.778828
0.489498
0.229762
0.224212
2.83484
1.06142
1.24459
0.809504
0.765361
0.829822
0.687266
0.356734
0.0444325
0.397688
3.54771
4.58899
5.76299
6.87328
7.78023
8.43854
8.87375
9.14138
9.29024
9.35466
2.78081
3.84084
4.95209
6.10762
7.13563
7.94134
8.51173
8.88122
9.09572
9.19245
1.92825
3.07169
4.16194
5.36643
6.51337
7.46042
8.16046
8.6264
8.90018
9.02381
1.0547
2.20255
3.28126
4.5465
5.80981
6.90374
7.74663
8.32089
8.66193
8.81618
0.300189
0.961742
2.06339
3.33712
4.7849
6.10872
7.17528
7.92473
8.37888
8.58729
)
;

boundaryField
{
    left
    {
        type            calculated;
        value           nonuniform List<scalar> 
35
(
0.299496
0.571377
0.991457
1.6272
2.52417
3.69478
5.06558
6.4761
8.15853
9.4418
0.203125
0.124072
0.0744513
0.0463381
0.0326501
0.0283361
0.0325294
0.0498469
0.0892042
0.158481
4.93334
4.06114
3.23383
2.51196
1.916
1.42527
1.02776
0.719738
0.488887
0.320946
9.61572
8.97909
7.92213
6.8479
5.85949
)
;
    }
    right
    {
        type            calculated;
        value           nonuniform List<scalar> 
35
(
1.04959
0.99071
0.942114
0.889321
0.836037
0.78247
0.728355
0.672031
0.613585
0.552956
0.490061
0.424801
0.356871
0.286914
0.212204
0.142087
0.0448547
0.0112839
0.010381
0.0103365
0.0102973
0.010307
0.0128703
0.0685363
0.183271
0.274313
0.388553
0.477383
0.554584
0.616975
0.668012
0.709504
0.745358
0.774614
0.809069
)
;
    }
    down
    {
        type            calculated;
        value           nonuniform List<scalar> 
40
(
9.45429
7.26627
2.89695
1.79296
1.24941
1.15555
0.997526
0.827466
0.899329
2.26066
3.83285
4.88227
6.0337
7.09262
7.9444
8.55486
8.95435
9.19916
9.33556
9.3948
9.39471
9.33528
9.19864
8.95348
8.55353
7.94248
7.08973
6.02853
4.87293
3.8186
2.23192
0.846894
0.759143
0.99219
1.22142
1.30475
1.27721
1.20579
1.14085
1.06883
)
;
    }
    up
    {
        type            calculated;
        value           nonuniform List<scalar> 
40
(
9.03411
7.80889
6.16801
4.39539
3.03502
2.12546
1.53511
1.16649
0.966378
0.822758
9.72927
9.72305
9.71045
9.69064
9.66234
9.62377
9.57262
9.50586
9.42075
9.32814
9.33501
9.42652
9.51037
9.57621
9.62663
9.6646
9.69237
9.71168
9.72379
9.72951
9.27072
7.09655
3.2411
2.16596
2.25054
3.02736
4.35187
6.14985
7.81372
9.0449
)
;
    }
    cylinder
    {
        type            calculated;
        value           nonuniform List<scalar> 
80
(
1.95707
4.52008
5.50689
5.76244
6.29831
7.08842
7.86124
8.47465
8.91244
9.21291
9.44582
9.61872
9.72982
9.7983
9.84096
9.86846
9.8865
9.89817
9.90522
9.90869
9.50043
9.65063
9.74904
9.81047
9.84901
9.8739
9.89017
9.90055
9.90657
9.90913
5.28864
6.22033
6.20547
6.31001
6.83045
7.52468
8.17552
8.68584
9.05066
9.30254
0.995075
0.472023
0.264453
0.183388
0.159909
0.165812
0.083
0.0420874
0.745289
2.39438
9.59441
9.55583
9.46738
9.30178
9.00968
8.51122
7.68612
6.3666
4.38787
2.23984
9.5943
9.55551
9.46677
9.3007
9.00781
8.50804
7.68034
6.35432
4.35802
2.19121
0.9527
0.442179
0.244267
0.170815
0.150342
0.165533
0.16264
0.084883
0.0433976
0.718983
)
;
    }
    defaultFaces
    {
        type            empty;
    }
}


// ************************************************************************* //
