/*--------------------------------*- C++ -*----------------------------------*\
  =========                 |
  \\      /  F ield         | OpenFOAM: The Open Source CFD Toolbox
   \\    /   O peration     | Website:  https://openfoam.org
    \\  /    A nd           | Version:  13
     \\/     M anipulation  |
\*---------------------------------------------------------------------------*/
FoamFile
{
    format      ascii;
    class       volVectorField;
    location    "37";
    object      U;
}
// * * * * * * * * * * * * * * * * * * * * * * * * * * * * * * * * * * * * * //

dimensions      [0 1 -1 0 0 0 0];

internalField   nonuniform List<vector> 
440
(
(-0.0646939 0.0588651 -6.03708e-20)
(-0.0307711 0.0881829 3.12536e-20)
(0.18607 0.0504876 2.29832e-20)
(0.609927 0.00662331 1.00114e-19)
(0.895281 -0.0506664 -5.63092e-21)
(-0.0401998 0.0217686 3.94367e-20)
(0.197835 -0.046509 -1.40128e-19)
(0.755105 -0.116525 -1.23671e-19)
(1.33168 -0.167304 2.32909e-20)
(1.87344 -0.212901 -2.44196e-20)
(0.036687 -0.0200048 4.74971e-20)
(0.675566 -0.0972622 9.58635e-19)
(1.48828 -0.107235 -7.26585e-19)
(2.06633 -0.0964088 -2.29432e-18)
(2.51061 -0.0921739 1.06597e-18)
(0.277704 -0.0630271 -1.78944e-19)
(1.36719 -0.0254822 -7.21633e-19)
(2.12444 0.0238518 2.31797e-18)
(2.49879 0.0502027 2.66713e-18)
(2.5149 0.0523598 -7.28146e-19)
(0.655308 -0.00589494 -3.39427e-19)
(1.8736 0.168197 -7.6299e-19)
(2.3895 0.230577 2.38281e-18)
(2.49648 0.232507 2.48698e-18)
(2.58138 0.20826 8.38482e-19)
(-0.0261601 0.0865663 1.74289e-19)
(-0.108089 -0.0019159 -2.65474e-20)
(-0.221715 -0.033048 -1.05732e-19)
(-0.355225 -0.0220848 4.44402e-21)
(-0.469807 -0.0500935 -1.21682e-19)
(-0.0633832 0.220393 -6.10832e-20)
(-0.134867 0.242227 -4.49579e-19)
(-0.224627 0.267656 1.08586e-19)
(-0.312646 0.282643 1.19124e-19)
(-0.343965 0.210444 -2.44888e-19)
(-0.0844105 0.238764 -3.79762e-19)
(-0.104728 0.319621 4.88362e-19)
(-0.10992 0.351989 -1.63788e-19)
(-0.0753169 0.36618 -1.44262e-18)
(-0.00457594 0.304358 1.57781e-20)
(-0.0831612 0.16542 1.03712e-22)
(-0.101886 0.259265 -3.56867e-20)
(-0.0666661 0.264579 5.23172e-20)
(0.0354331 0.217687 5.47449e-19)
(0.174759 0.110965 -1.01695e-19)
(-0.0789045 0.102528 7.29326e-22)
(-0.0984428 0.168227 -1.09468e-20)
(-0.0197104 0.138404 -1.58471e-20)
(0.168445 0.0558215 7.58238e-21)
(0.383508 -0.0212171 7.48731e-20)
(-0.827991 -0.49548 -1.36932e-18)
(1.43131 0.0179551 -2.21644e-18)
(0.168306 1.21912 5.41255e-19)
(1.05538 -0.237695 -9.47536e-19)
(1.16428 -0.656189 2.52397e-20)
(0.0622529 -0.816458 2.43059e-18)
(1.62505 -0.168178 2.54413e-20)
(0.391563 1.30311 -1.44702e-19)
(1.30404 -0.340146 -4.29821e-20)
(1.35405 -0.671085 -1.15578e-19)
(1.4025 -1.11812 7.27363e-19)
(1.19531 -0.341159 1.65922e-18)
(1.04725 1.26525 1.15632e-19)
(1.51205 -0.393663 -1.04951e-18)
(1.50333 -0.688701 5.24747e-20)
(1.94787 -1.16112 3.91282e-20)
(-0.14409 -0.336776 -2.00695e-20)
(0.887687 1.25366 8.33619e-19)
(1.73953 -0.435251 5.58048e-19)
(1.64684 -0.68378 -1.32407e-19)
(1.99272 -1.05043 -4.33609e-19)
(-1.04084 -0.299674 1.06019e-18)
(0.388882 1.00187 0)
(2.0666 -0.519399 -1.20993e-19)
(1.77841 -0.669953 -6.80313e-20)
(2.49031 -0.789403 -7.28542e-19)
(0.652433 -0.19964 3.93633e-20)
(0.829464 0.372361 4.39891e-20)
(2.38991 -0.699602 -1.32625e-19)
(1.85215 -0.643076 1.34353e-19)
(2.23611 -0.738901 7.89729e-20)
(0.970834 0.135811 -3.21753e-19)
(1.55002 0.301673 1.88793e-20)
(2.49618 -0.684608 7.77164e-19)
(1.73784 -0.515756 0)
(2.16489 -0.30911 -4.63029e-19)
(1.22369 0.0566184 1.6736e-20)
(2.13942 -0.125478 3.46707e-19)
(2.29239 -0.674142 -3.68435e-19)
(1.32127 -0.397354 2.28071e-20)
(1.86891 -0.254612 -4.59649e-20)
(1.52957 0.031996 6.83477e-20)
(2.07133 -0.168237 2.68572e-20)
(1.63668 -0.3934 1.07438e-33)
(0.627101 -0.171641 1.95458e-20)
(1.06381 -0.0119959 5.09928e-20)
(1.07602 -0.0453793 3.00277e-20)
(0.917317 -0.136422 -5.14338e-20)
(0.183865 -0.0442464 8.72541e-20)
(-0.280571 -0.00192339 -1.4176e-20)
(2.38996 0.215702 -1.07577e-18)
(2.6811 -0.00859814 -1.39497e-18)
(2.37773 -0.0142501 1.23478e-18)
(2.77884 -0.252331 -2.0796e-20)
(2.04175 -0.132387 -8.07517e-20)
(2.12199 0.159604 3.85314e-20)
(2.48368 -0.0257287 -4.55247e-20)
(2.23693 -0.0216977 -1.45789e-19)
(2.48397 -0.230469 -2.64966e-19)
(2.30288 -0.260993 -4.02481e-21)
(2.10042 0.0644264 6.7034e-20)
(2.20726 0.00321603 1.2805e-19)
(2.19549 -0.0678055 -1.85094e-19)
(2.2268 -0.117762 5.64564e-20)
(2.23617 -0.215289 7.77337e-20)
(2.01987 0.0188458 1.11569e-19)
(1.96402 -0.0162999 1.00515e-19)
(2.1016 -0.0493553 -1.57937e-20)
(2.01295 -0.0877468 3.64952e-20)
(2.13892 -0.116231 9.39787e-21)
(1.45281 -0.0175484 1.54695e-19)
(1.37734 -0.0128769 -1.21974e-20)
(1.47059 -0.0335852 2.4397e-20)
(1.34524 -0.0207034 -3.05933e-21)
(1.46074 -0.0520029 4.75694e-20)
(1.6234 0.855756 1.16731e-18)
(1.56824 0.953992 -3.56374e-19)
(1.56273 1.08689 -1.39267e-18)
(1.49718 1.13929 7.71481e-19)
(0.926887 0.832336 -1.87186e-19)
(1.9001 0.813406 -6.05636e-19)
(1.86869 0.893273 -3.13199e-18)
(1.87698 1.00439 -1.20838e-18)
(1.79522 1.02184 -4.41095e-19)
(1.1069 0.729071 -7.14464e-19)
(2.20299 0.693275 8.21074e-19)
(2.18484 0.762875 2.12092e-19)
(2.16354 0.853944 -2.40379e-18)
(2.03694 0.843209 -6.85581e-19)
(1.21682 0.569047 5.2479e-19)
(2.37612 0.565258 2.50418e-18)
(2.36131 0.613714 1.83148e-18)
(2.36533 0.670789 -2.12515e-18)
(2.16036 0.631883 -1.62065e-18)
(1.19824 0.375176 -3.09542e-19)
(2.50639 0.39442 1.2752e-18)
(2.53706 0.421482 -9.13224e-19)
(2.44853 0.447174 6.42552e-19)
(2.12215 0.395999 5.36838e-19)
(1.0179 0.166407 -4.66863e-19)
(0.574591 0.462299 -6.42868e-19)
(0.485603 0.497504 -4.97701e-19)
(0.367267 0.533069 5.86717e-20)
(0.229013 0.543494 -9.00535e-21)
(0.0573298 0.398128 8.92017e-20)
(0.677134 0.641132 1.27783e-19)
(0.61373 0.702965 -2.90419e-19)
(0.527326 0.772931 1.91302e-19)
(0.402268 0.825772 -8.88606e-20)
(0.175435 0.628558 1.25435e-19)
(0.793006 0.819861 1.6324e-19)
(0.718066 0.89951 4.76456e-19)
(0.660286 0.999822 9.30907e-20)
(0.576609 1.05336 -3.12866e-19)
(0.317286 0.788322 2.60413e-19)
(1.06485 0.914548 2.49125e-19)
(1.02003 1.00202 -7.23679e-19)
(0.968858 1.10164 -1.99298e-18)
(0.88582 1.16831 8.0876e-19)
(0.524941 0.875622 -1.80833e-19)
(1.1542 0.937338 -1.25529e-19)
(1.18231 1.0643 -2.05356e-19)
(1.20946 1.18707 -3.70377e-19)
(1.16052 1.22312 -4.26789e-19)
(0.717321 0.889917 -6.90074e-21)
(1.02331 0.0516589 -1.04015e-19)
(0.982214 0.0438875 -3.87392e-20)
(1.03609 0.114007 -1.41181e-21)
(0.947847 0.153503 -3.33568e-19)
(0.887787 0.283168 3.23069e-19)
(1.01449 0.0488742 6.6127e-20)
(0.991291 0.0439149 1.35196e-19)
(1.02817 0.118529 1.36009e-19)
(0.983512 0.18478 4.51281e-20)
(0.934532 0.361176 -1.52961e-20)
(1.02137 0.0477081 9.02994e-20)
(0.970357 0.0387894 -4.99959e-21)
(1.08072 0.134973 -7.44759e-21)
(0.935885 0.18588 1.65738e-19)
(1.14943 0.500434 -5.0509e-19)
(1.01561 0.0482895 -4.24929e-22)
(0.982758 0.0307063 -1.86722e-19)
(1.0894 0.145826 -7.19756e-20)
(1.02022 0.198569 -4.12622e-19)
(1.16265 0.541129 1.03785e-19)
(1.01025 0.0433234 -1.63366e-20)
(0.984346 0.0290317 5.1818e-20)
(1.14728 0.14948 3.45525e-20)
(0.977267 0.227077 4.78803e-19)
(1.44323 0.671779 -4.79109e-19)
(0.969892 0.0473987 -1.33839e-20)
(1.04538 0.00345477 1.0851e-19)
(1.15317 0.175712 -9.4575e-20)
(1.19924 0.158641 8.68939e-19)
(1.31681 0.687015 -4.0414e-19)
(0.906266 0.0242415 -1.55244e-21)
(1.13573 -0.0177521 -1.093e-19)
(1.14749 0.103467 4.83495e-21)
(1.27818 0.186247 -2.54804e-19)
(1.27104 0.416871 -6.63806e-21)
(0.953376 0.0252765 -7.1538e-21)
(1.14231 -0.0582258 1.49593e-35)
(1.14476 0.0981511 -6.07569e-20)
(1.20395 0.153829 7.68568e-20)
(1.47202 0.248802 1.73003e-19)
(1.08336 -0.0310197 4.14708e-21)
(1.03375 -0.0688561 -2.48917e-20)
(1.08388 0.0654341 1.70677e-20)
(1.19632 0.0848033 3.36249e-20)
(1.56185 0.130877 -2.58795e-19)
(1.00295 -0.0252719 -4.26486e-20)
(0.784605 -0.0217856 -2.81975e-21)
(0.834975 0.0155362 2.51722e-20)
(0.941446 -0.000811011 -1.03732e-20)
(1.11853 0.0333258 -5.91175e-20)
(1.88286 0.660868 3.39755e-19)
(1.9361 0.668174 8.26035e-19)
(2.24085 0.543699 -1.17775e-18)
(2.24216 0.489649 4.76908e-20)
(2.51471 0.291234 4.98363e-19)
(1.80208 0.453097 6.59085e-20)
(1.77947 0.435731 1.03493e-18)
(2.08962 0.368111 1.01328e-19)
(1.97656 0.322244 -9.65652e-19)
(2.34343 0.178979 -3.15558e-19)
(1.71668 0.311636 -2.23481e-19)
(1.80198 0.258417 -1.51349e-19)
(1.92575 0.244 2.3912e-19)
(1.96681 0.177317 -3.04486e-19)
(2.10701 0.125208 2.72008e-19)
(1.65002 0.174184 3.23781e-19)
(1.75625 0.137546 -3.63004e-21)
(1.76321 0.12895 2.17218e-19)
(1.89546 0.0846854 1.85317e-19)
(1.87849 0.0562497 -1.805e-19)
(1.26738 0.0421157 -3.64214e-20)
(1.30946 0.0260608 2.12924e-19)
(1.32947 0.0204711 1.00394e-19)
(1.39369 0.00230316 -2.17907e-19)
(1.37699 -0.0010742 4.2407e-22)
(1.15462 -0.0261067 5.00806e-20)
(2.19235 -0.0476151 -4.17205e-19)
(2.42791 -0.0355574 1.18219e-18)
(2.42368 0.00799778 5.35494e-19)
(2.25125 0.0338056 -3.55087e-19)
(0.704506 0.0892222 8.66337e-20)
(1.96673 0.0799893 -4.33483e-19)
(2.44288 0.0838467 -5.81804e-19)
(2.4862 0.09672 7.24532e-19)
(2.25128 0.0879804 -4.6379e-19)
(0.189202 0.0687304 -3.36799e-20)
(1.31969 0.140051 4.52949e-19)
(2.10121 0.168303 7.06879e-20)
(2.50905 0.164901 4.84694e-19)
(2.64257 0.164011 2.62368e-19)
(-0.0654651 -0.037571 2.01846e-19)
(0.454578 0.0649625 1.98857e-19)
(1.2973 0.145444 -4.29419e-19)
(1.82685 0.191655 2.53111e-20)
(2.45958 0.227267 8.7234e-20)
(-0.118887 -0.0972116 1.34646e-19)
(-0.0338928 -0.0693328 -1.55615e-19)
(0.451726 0.0206378 -1.95848e-20)
(0.925904 0.0571389 7.3646e-21)
(1.44959 0.157865 -3.4678e-20)
(-0.0927234 -0.100347 1.77533e-20)
(-0.164424 -0.149831 8.83397e-20)
(-0.0448733 -0.16093 4.97912e-20)
(0.131685 -0.140036 -4.74638e-20)
(0.612127 -0.0442873 7.83694e-21)
(-0.0528602 -0.0701439 -6.27068e-21)
(-0.141129 -0.157121 -4.44667e-20)
(-0.16349 -0.219435 -2.48432e-20)
(-0.131505 -0.239876 -1.12672e-20)
(0.0398338 -0.151688 -6.98918e-23)
(-0.0215422 -0.0374978 8.40614e-21)
(-0.0800905 -0.148103 1.5203e-19)
(-0.117 -0.261596 -1.47767e-19)
(-0.129127 -0.342113 -4.41103e-19)
(-0.102638 -0.348636 1.12744e-19)
(-0.0125607 -0.0379044 -1.53096e-20)
(-0.0479943 -0.190409 -1.03801e-19)
(-0.0673823 -0.332464 3.10872e-19)
(-0.0860625 -0.414863 3.27933e-19)
(-0.0944156 -0.443268 -7.62616e-20)
(-0.0124154 -0.0170453 8.1637e-21)
(-0.0635553 -0.174902 -2.75562e-20)
(-0.122715 -0.279255 8.08787e-21)
(-0.197284 -0.300101 3.52922e-20)
(-0.272421 -0.28733 1.02878e-20)
(1.40138 0.621234 -2.51461e-20)
(1.65793 0.356638 5.72459e-19)
(0.783863 0.402678 1.33577e-19)
(-0.244349 -0.11639 1.36841e-20)
(0.484746 -0.400306 -4.46021e-20)
(1.07156 0.449336 2.85401e-20)
(1.77911 0.370954 -1.11132e-19)
(0.930342 0.590747 7.16958e-19)
(0.0652067 -0.0772689 -1.84013e-21)
(0.533254 -0.473448 2.0617e-19)
(0.624302 0.176913 1.80896e-19)
(1.73269 0.420357 -3.07673e-19)
(0.771597 0.793989 -4.31616e-20)
(0.295011 -0.0547062 -1.99233e-19)
(0.645106 -0.538746 -3.58639e-20)
(-0.0426594 -0.144344 2.7951e-19)
(1.72938 0.328438 1.03354e-18)
(0.643574 0.945592 -5.06699e-19)
(0.58115 -0.0549085 2.46789e-21)
(0.813143 -0.581911 -9.11378e-20)
(-0.715506 -0.294663 1.18747e-19)
(1.58202 0.227018 5.06253e-19)
(0.442328 1.12355 5.30566e-19)
(0.816577 -0.0997447 -2.51878e-20)
(0.988299 -0.617791 -1.16493e-19)
(0.0757904 0.181624 -4.81993e-20)
(-0.281082 -0.166807 0)
(-0.385423 -0.0851582 1.44165e-20)
(-0.510644 -0.0730064 -1.52123e-20)
(0.393481 -0.0543781 1.13769e-20)
(1.82226 0.569186 0)
(1.31313 0.328573 0)
(0.460918 0.129794 -1.48667e-19)
(-0.55369 -0.145708 -7.30232e-20)
(0.59 -0.251717 1.35633e-19)
(0.714351 0.00207808 -1.1429e-19)
(0.739654 -0.00778967 9.24275e-20)
(1.01518 0.00920854 -4.62343e-20)
(0.925422 -0.000140375 3.29962e-19)
(1.43284 0.103852 2.32463e-19)
(1.62349 0.0273858 1.07091e-19)
(1.78322 0.0665557 1.90235e-19)
(1.96688 0.0499674 -3.68077e-19)
(2.51766 0.196787 1.32508e-20)
(2.2985 0.140088 1.80678e-19)
(0.892856 -0.468681 -7.71842e-21)
(0.878652 -0.556421 -1.50002e-19)
(0.871066 -0.652025 -1.23139e-19)
(0.800033 -0.717186 7.44964e-20)
(0.481296 -0.556519 1.16622e-19)
(0.799592 -0.376334 1.26703e-19)
(0.744247 -0.439264 2.51274e-19)
(0.668464 -0.506239 -4.22856e-20)
(0.551881 -0.561329 1.20012e-19)
(0.296175 -0.440296 4.06228e-20)
(0.637756 -0.237486 -1.63112e-19)
(0.546348 -0.274157 -4.37511e-20)
(0.444376 -0.321317 1.11073e-19)
(0.328834 -0.363268 -1.60126e-20)
(0.144707 -0.285788 -1.02608e-19)
(0.543894 -0.004355 -4.4393e-19)
(0.458893 -0.0184244 -3.67767e-19)
(0.350647 -0.0427956 2.88058e-19)
(0.224666 -0.0755839 1.85418e-19)
(0.0609309 -0.0769453 1.41242e-20)
(0.521015 0.20067 -1.81779e-19)
(0.435533 0.205749 -1.80227e-19)
(0.320286 0.209838 -7.96666e-20)
(0.184928 0.215894 1.93049e-20)
(0.0271933 0.162567 1.22192e-20)
(2.01042 -0.0388934 7.66997e-19)
(2.25894 -0.105451 2.78671e-19)
(2.33799 -0.189253 -7.20175e-19)
(2.18667 -0.215767 -1.46045e-18)
(1.30594 -0.187976 1.07984e-19)
(1.98128 -0.12187 1.29158e-18)
(2.07743 -0.229962 1.68911e-18)
(2.08863 -0.348835 1.37848e-19)
(2.00599 -0.407804 2.36176e-19)
(1.27703 -0.355763 -1.55884e-19)
(1.70583 -0.282218 -3.3584e-18)
(1.75798 -0.396088 4.03031e-19)
(1.79883 -0.517282 1.04436e-18)
(1.73594 -0.589679 -4.08394e-19)
(1.11951 -0.496091 6.33859e-19)
(1.48591 -0.400511 8.02017e-19)
(1.50219 -0.495253 -2.09024e-18)
(1.48768 -0.609307 -2.4361e-18)
(1.41649 -0.693904 7.49622e-19)
(0.906616 -0.567439 4.8801e-19)
(1.20598 -0.459012 1.70277e-19)
(1.15466 -0.548819 2.21425e-19)
(1.13921 -0.666111 -3.64195e-19)
(1.08051 -0.747617 -4.39774e-19)
(0.67863 -0.588524 -4.16282e-21)
(1.07079 0.0575142 7.86952e-21)
(0.914799 0.0562196 -6.16849e-21)
(1.12367 0.0765204 -8.25618e-21)
(0.79142 0.0112335 -1.7957e-19)
(1.10546 -0.208951 -6.31435e-21)
(1.08027 0.0611729 -2.6234e-21)
(0.913696 0.0543641 5.68682e-20)
(1.11851 0.0936367 -5.48978e-20)
(0.88045 0.0576466 8.69021e-20)
(0.98107 -0.0919397 -2.63143e-20)
(1.07844 0.0586052 -6.45191e-20)
(0.918126 0.0509949 6.09866e-22)
(1.10567 0.0940469 -2.17072e-20)
(0.878019 0.0820849 -5.30505e-21)
(0.957875 -0.0341234 -1.50962e-19)
(1.05927 0.0571308 7.90387e-20)
(0.947761 0.0474872 3.63316e-21)
(1.06619 0.0995228 3.55131e-20)
(0.92295 0.108282 5.15326e-20)
(0.859199 0.0804982 1.21533e-19)
(1.03541 0.0536382 1.99772e-20)
(0.976327 0.0472908 -3.2486e-20)
(1.03508 0.102859 4.76155e-20)
(0.950626 0.138026 9.27461e-20)
(0.8354 0.177043 -1.26206e-19)
(0.89055 0.0338958 0)
(0.701821 0.028058 1.03898e-20)
(0.607456 0.023135 2.49905e-21)
(0.337437 -0.0057293 3.91043e-20)
(0.659349 -0.0541022 -1.05824e-19)
(1.03788 0.076203 -6.61631e-20)
(0.925679 0.0719194 -2.07845e-20)
(1.02852 0.0773562 -2.59853e-20)
(0.797914 0.00569057 -9.20756e-20)
(1.01733 -0.190651 -1.11436e-19)
(0.918122 -0.0623834 -2.54843e-20)
(0.999817 -0.0315088 4.46528e-19)
(1.08866 0.0368252 2.83608e-19)
(0.960943 0.0537956 2.22066e-20)
(0.745749 0.0279616 0)
(1.28531 -0.30818 2.52715e-19)
(1.39734 -0.271932 1.33073e-18)
(1.57054 -0.155398 -1.52599e-18)
(1.65793 -0.0212692 -4.77753e-19)
(1.5682 0.0269247 3.48256e-19)
)
;

boundaryField
{
    left
    {
        type            fixedValue;
        value           uniform (1 0 0);
    }
    right
    {
        type            zeroGradient;
    }
    down
    {
        type            noSlip;
    }
    up
    {
        type            noSlip;
    }
    cylinder
    {
        type            noSlip;
    }
    defaultFaces
    {
        type            empty;
    }
}


// ************************************************************************* //
