/*--------------------------------*- C++ -*----------------------------------*\
  =========                 |
  \\      /  F ield         | OpenFOAM: The Open Source CFD Toolbox
   \\    /   O peration     | Website:  https://openfoam.org
    \\  /    A nd           | Version:  13
     \\/     M anipulation  |
\*---------------------------------------------------------------------------*/
FoamFile
{
    format      ascii;
    class       volScalarField;
    location    "16.7";
    object      p;
}
// * * * * * * * * * * * * * * * * * * * * * * * * * * * * * * * * * * * * * //

dimensions      [0 2 -2 0 0 0 0];

internalField   nonuniform List<scalar> 
440
(
-0.473161
-0.451493
-0.493386
-0.416714
-0.503691
-0.496625
-0.485114
-0.473031
-0.451279
-0.442855
-0.606791
-0.577767
-0.546116
-0.507521
-0.464075
-0.73149
-0.685872
-0.609968
-0.519173
-0.427627
-0.826299
-0.764826
-0.628556
-0.485782
-0.35364
-1.05987
-1.03809
-1.00864
-0.978881
-0.956853
-1.04007
-1.03065
-1.02692
-1.03264
-1.06128
-0.939369
-0.96034
-1.01641
-1.10241
-1.2172
-0.651044
-0.680981
-0.745214
-0.829573
-0.884547
-0.278496
-0.297529
-0.30436
-0.263041
-0.209429
-0.860874
-1.77418
-1.358
0.208925
0.0279033
-0.761352
-1.5911
-1.48043
0.124388
-0.00157152
-0.613552
-1.40172
-1.46277
0.0484812
-0.0279484
-0.407327
-1.19693
-1.2925
-0.0112053
-0.0316789
-0.185036
-1.03923
-1.10557
-0.0704645
-0.0311978
0.130034
-0.90786
-0.872607
-0.11272
-0.0458743
0.0279768
-0.698368
-0.598462
-0.10988
-0.0372118
0.0367354
-0.439611
-0.41724
-0.15022
-0.0471263
0.12399
-0.284176
-0.329554
-0.152841
-0.0655747
0.166213
-0.106564
-0.276939
-0.178369
-0.0689802
-0.124439
-0.25688
-0.394378
-0.557218
-0.616971
0.0995629
-0.0300916
-0.0907165
-0.125353
-0.102863
0.24014
0.140704
0.0786689
0.0392904
0.0166116
0.331582
0.239707
0.166664
0.126848
0.10014
0.374659
0.282244
0.205777
0.166652
0.141994
1.08576
0.948341
0.773367
0.576643
0.356586
0.708452
0.558079
0.371358
0.159764
-0.0755215
0.330731
0.175728
-0.0188647
-0.242028
-0.450258
0.012974
-0.148214
-0.343408
-0.554287
-0.713784
-0.211564
-0.366222
-0.544339
-0.729444
-0.831813
2.19663
2.22949
2.26119
2.27989
2.28115
2.02392
2.04695
2.06629
2.06984
2.05284
1.81317
1.80693
1.77966
1.73058
1.65671
1.56768
1.53732
1.47395
1.38088
1.25914
1.32837
1.23759
1.11584
0.971055
0.794329
1.93399
1.92893
1.91269
1.97328
2.07103
1.92544
1.91823
1.89758
1.95492
1.99356
1.91793
1.90434
1.87959
1.92398
1.89483
1.91167
1.88807
1.85933
1.87984
1.74311
1.90671
1.87067
1.83724
1.83469
1.58152
1.90378
1.84272
1.80809
1.73852
1.39857
1.90521
1.8128
1.79682
1.61923
1.43404
1.91134
1.79887
1.79095
1.56355
1.42838
1.9072
1.77497
1.78937
1.51562
1.42351
1.94646
1.76654
1.79
1.48702
1.43615
1.05496
0.78755
0.472764
0.216691
0.0212106
0.989617
0.79731
0.579404
0.397997
0.225844
0.998651
0.833487
0.665145
0.508596
0.362693
1.04078
0.885471
0.733207
0.58526
0.454252
1.07312
0.921829
0.776105
0.630196
0.500899
-1.83924
-1.65179
-1.44774
-1.27725
-1.17351
-1.92968
-1.83933
-1.66953
-1.51581
-1.40817
-1.85557
-1.79756
-1.67311
-1.54599
-1.43356
-1.69696
-1.64597
-1.57661
-1.49326
-1.40398
-1.53104
-1.50403
-1.469
-1.42402
-1.3671
-1.43971
-1.43223
-1.40277
-1.43319
-1.36906
-1.38117
-1.37695
-1.36163
-1.39743
-1.34797
-1.32257
-1.31953
-1.32044
-1.33769
-1.34128
-1.22729
-1.22164
-1.22176
-1.22912
-1.24428
-1.11622
-1.09943
-1.07568
-1.04959
-1.02641
-1.02796
-1.02515
-0.195179
0.279828
0.0550235
-1.02925
-1.11584
-0.134345
0.271001
0.0456492
-0.999937
-1.26364
-0.15927
0.261748
0.0323483
-0.875765
-1.49196
-0.589924
0.273942
0.0365623
-0.859511
-1.72365
-1.05849
0.262557
0.0422984
-0.635897
-1.11725
-0.305466
0.2408
0.0597336
-0.955354
-1.05776
-0.182531
0.278669
0.0624094
-1.11442
-1.32589
-1.34002
-1.23816
-1.00978
-1.13641
-1.34832
-1.35459
-1.28439
-1.20448
1.74169
1.70943
1.65783
1.5879
1.49581
1.95427
1.97054
1.96939
1.94881
1.90946
2.13703
2.16766
2.18927
2.19733
2.1903
2.24775
2.28673
2.32774
2.36057
2.37468
2.26765
2.30616
2.34924
2.38563
2.40273
-0.660994
-0.786413
-0.982447
-1.21496
-1.50121
0.00665373
-0.148476
-0.354085
-0.602721
-0.92926
0.620478
0.461028
0.268935
0.0412372
-0.251695
1.11451
0.988628
0.836384
0.651532
0.423271
1.50893
1.42015
1.30454
1.16563
1.00036
1.99189
1.95314
1.93352
1.92903
1.92228
1.97728
1.95146
1.93485
1.95118
1.99907
1.96501
1.94845
1.93625
1.9749
2.08596
1.95372
1.94402
1.93222
1.98466
2.10548
1.94338
1.93788
1.92413
1.98431
2.10667
2.04635
1.95691
1.91749
1.8459
1.78085
2.00162
1.94863
1.91382
1.87022
1.79346
1.38141
1.12615
0.690324
0.0617864
-0.621038
1.47252
1.16443
0.708358
0.0837232
-0.614133
)
;

boundaryField
{
    left
    {
        type            zeroGradient;
    }
    right
    {
        type            fixedValue;
        value           uniform 0;
    }
    down
    {
        type            zeroGradient;
    }
    up
    {
        type            zeroGradient;
    }
    cylinder
    {
        type            zeroGradient;
    }
    defaultFaces
    {
        type            empty;
    }
}


// ************************************************************************* //
