/*--------------------------------*- C++ -*----------------------------------*\
  =========                 |
  \\      /  F ield         | OpenFOAM: The Open Source CFD Toolbox
   \\    /   O peration     | Website:  https://openfoam.org
    \\  /    A nd           | Version:  13
     \\/     M anipulation  |
\*---------------------------------------------------------------------------*/
FoamFile
{
    format      ascii;
    class       volVectorField;
    location    "16.7";
    object      U;
}
// * * * * * * * * * * * * * * * * * * * * * * * * * * * * * * * * * * * * * //

dimensions      [0 1 -1 0 0 0 0];

internalField   nonuniform List<vector> 
440
(
(-0.122907 0.0873351 -8.89548e-20)
(-0.148897 0.109081 -1.175e-19)
(-0.0364988 0.0422392 1.00222e-19)
(0.311601 0.0804446 1.32263e-20)
(0.212806 0.205189 3.37388e-20)
(-0.0829851 0.0481649 3.14957e-20)
(0.0371522 0.0317038 -7.22313e-20)
(0.484788 -0.0223113 -7.40537e-20)
(1.00667 -0.0384206 5.41528e-20)
(1.45194 -0.0426299 7.5674e-21)
(-0.0268575 0.0115544 5.16343e-20)
(0.439426 -0.0281224 6.14164e-19)
(1.17 -0.0140401 -3.38957e-19)
(1.75255 0.0142393 -1.1087e-18)
(2.25731 0.041543 4.41417e-19)
(0.174298 -0.0397195 -1.643e-19)
(1.10246 0.00560691 -4.77115e-19)
(1.86959 0.0778324 1.50483e-18)
(2.3115 0.125574 1.64673e-18)
(2.42882 0.140565 -4.51184e-19)
(0.512038 -0.00738794 -2.76499e-19)
(1.64818 0.177808 -5.72402e-19)
(2.20393 0.263592 1.73191e-18)
(2.35249 0.281017 1.88226e-18)
(2.41742 0.259735 6.42437e-19)
(0.0230163 -0.202669 -7.76426e-20)
(0.0707166 -0.372107 -2.13943e-19)
(0.099966 -0.377021 3.66172e-19)
(0.129928 -0.275532 -5.25534e-20)
(0.142778 -0.0790903 -3.90582e-19)
(0.0961535 -0.289933 3.10332e-20)
(0.214212 -0.477612 9.36046e-20)
(0.261379 -0.480559 1.33448e-21)
(0.299516 -0.397489 2.39878e-20)
(0.261948 -0.231085 -8.77785e-20)
(0.194004 -0.396136 4.57468e-19)
(0.309858 -0.580109 5.67515e-19)
(0.32517 -0.572369 1.56083e-19)
(0.325814 -0.499011 -1.5963e-18)
(0.239584 -0.363996 1.86081e-20)
(0.210979 -0.380996 2.09124e-19)
(0.17384 -0.576029 -3.34301e-19)
(0.043286 -0.615911 6.38715e-19)
(-0.121131 -0.59529 8.3473e-19)
(-0.300309 -0.453538 7.5133e-20)
(-0.0151059 -0.0795518 -4.29953e-20)
(-0.207753 -0.196171 -3.63206e-20)
(-0.360631 -0.265261 -1.86989e-19)
(-0.424237 -0.282494 3.70045e-19)
(-0.569331 -0.222225 1.02957e-18)
(0.396673 1.10496 2.39624e-19)
(-0.281749 0.590453 -4.21735e-19)
(1.50032 -0.988185 6.08648e-19)
(1.09547 -0.792133 -4.79625e-19)
(1.27893 -0.295382 -7.73015e-20)
(0.839944 1.05673 -7.63513e-19)
(0.232597 0.491687 2.64967e-19)
(1.56855 -1.10977 2.23183e-19)
(1.34189 -0.801016 8.23089e-19)
(1.3783 -0.293361 1.72736e-19)
(0.520708 0.759897 -1.04127e-18)
(0.698283 0.450929 -2.09481e-18)
(1.74898 -1.19138 -1.14174e-19)
(1.35703 -0.836757 5.36633e-19)
(1.40426 -0.285467 -7.89498e-22)
(-0.609393 0.632567 5.67818e-19)
(1.27924 0.318517 2.66652e-19)
(2.1257 -1.10917 7.00752e-19)
(1.4005 -0.787568 -3.45523e-19)
(1.34892 -0.27339 1.02236e-20)
(-0.984993 0.123354 -2.2986e-19)
(1.8101 -0.0744607 1.09459e-18)
(2.30149 -1.08524 0)
(1.54658 -0.743215 1.57984e-19)
(1.33251 -0.250773 7.25916e-21)
(0.81073 0.0683867 -2.28732e-19)
(2.27264 -0.327073 -2.59354e-19)
(2.40915 -0.935164 -1.86977e-20)
(1.54387 -0.660036 1.16103e-19)
(1.30099 -0.232481 -1.04337e-20)
(1.80945 0.173214 -1.89541e-20)
(2.65577 -0.473887 8.18322e-19)
(2.46702 -0.800892 -1.42401e-20)
(1.33462 -0.379631 -6.67058e-20)
(1.09482 -0.114299 0)
(2.16491 0.0737769 -1.50756e-19)
(2.53789 -0.463839 -1.05749e-20)
(1.92099 -0.491767 3.49469e-19)
(1.39699 -0.233494 3.74816e-20)
(1.19402 -0.127883 -3.74621e-20)
(2.15298 0.0266929 1.00879e-19)
(2.3964 -0.362743 2.06873e-19)
(1.44788 -0.380231 -9.29664e-21)
(1.04914 -0.109196 -3.19636e-34)
(0.842992 -0.0346915 2.72837e-20)
(1.60648 -0.0892329 5.91219e-20)
(1.09351 -0.0770886 1.0325e-19)
(0.422183 0.0262376 -4.13933e-20)
(0.168436 -0.0502509 -1.48401e-20)
(-0.0063734 -0.0302231 3.00828e-21)
(2.33855 0.24908 -7.85764e-19)
(2.49645 0.091091 -9.53768e-19)
(2.44421 0.0867124 6.66144e-19)
(2.51471 -0.0177983 6.63566e-20)
(2.06985 0.0386304 -3.57496e-20)
(2.12697 0.0987141 6.9559e-20)
(2.24593 0.106367 -3.60158e-20)
(2.29647 -0.0595385 -1.13551e-19)
(2.31273 -0.00988714 -2.22853e-19)
(2.35252 -0.240385 -2.17839e-21)
(2.07949 0.0126105 7.14303e-20)
(2.11917 0.0741906 8.3789e-20)
(2.18104 -0.101053 -9.08086e-20)
(2.17504 -0.00893776 3.18385e-20)
(2.24969 -0.180473 5.4295e-22)
(1.99236 -0.00795228 1.06553e-19)
(2.05482 0.0391169 1.4454e-19)
(2.07833 -0.0683187 -1.67049e-20)
(2.10217 -0.00798809 -5.53215e-20)
(2.14368 -0.112198 2.31431e-20)
(1.45333 -0.0153617 1.72396e-19)
(1.48947 -0.0180016 -1.08053e-20)
(1.46516 -0.0190249 1.63612e-20)
(1.49949 -0.0286281 -3.22189e-20)
(1.46627 -0.0208415 -1.86092e-20)
(1.52427 0.843827 1.0161e-18)
(1.48945 0.939095 -3.17785e-19)
(1.48948 1.06182 -1.2296e-18)
(1.41701 1.09851 6.75938e-19)
(0.867381 0.779245 -1.64342e-19)
(1.79485 0.786893 -5.28711e-19)
(1.77131 0.866274 -2.81951e-18)
(1.77871 0.972436 -1.09457e-18)
(1.68632 0.978059 -3.80051e-19)
(1.01972 0.66865 -6.07603e-19)
(2.07853 0.683043 7.07589e-19)
(2.06567 0.747827 1.80876e-19)
(2.04552 0.826055 -2.15598e-18)
(1.90343 0.807476 -5.84292e-19)
(1.1042 0.517412 4.1768e-19)
(2.23305 0.558629 2.17239e-18)
(2.23313 0.609479 1.57883e-18)
(2.22427 0.655579 -1.79974e-18)
(1.99501 0.607749 -1.34404e-18)
(1.0652 0.334702 -2.35306e-19)
(2.38806 0.411244 1.0167e-18)
(2.38648 0.434854 -7.3294e-19)
(2.28532 0.451208 5.28836e-19)
(1.93264 0.388978 4.04434e-19)
(0.86976 0.14018 -3.34688e-19)
(0.577201 0.399321 -7.17843e-19)
(0.486492 0.431753 -5.83332e-19)
(0.366774 0.464419 7.58774e-20)
(0.227248 0.466562 -2.55328e-20)
(0.054788 0.32986 6.38115e-20)
(0.676788 0.571598 4.2632e-20)
(0.611972 0.62598 -3.25965e-19)
(0.521185 0.68924 1.64923e-19)
(0.392008 0.742929 -7.61655e-20)
(0.166406 0.566303 1.09564e-19)
(0.771482 0.773647 2.01579e-19)
(0.697238 0.851906 3.91831e-19)
(0.637408 0.946646 5.70813e-20)
(0.549905 0.993183 -2.66902e-19)
(0.298672 0.738059 2.16899e-19)
(1.03077 0.859279 1.95733e-19)
(0.981775 0.943891 -5.90789e-19)
(0.930021 1.04313 -1.73064e-18)
(0.845417 1.10948 7.08201e-19)
(0.497004 0.824511 -1.69952e-19)
(1.12795 0.908963 -1.1746e-19)
(1.14688 1.02642 -1.90631e-19)
(1.16222 1.14029 -3.21473e-19)
(1.10554 1.17047 -3.70791e-19)
(0.677883 0.839208 -6.04649e-21)
(1.00596 0.0483083 -7.80229e-20)
(0.99843 0.00549901 -2.88382e-20)
(1.05208 0.124722 -1.3974e-21)
(0.941292 0.109033 -1.68629e-19)
(0.896661 0.236888 2.85257e-19)
(0.991616 0.0475017 4.74773e-20)
(1.01827 -0.00321937 1.09697e-19)
(1.03701 0.138595 9.57423e-20)
(0.967318 0.133414 1.88533e-20)
(0.928492 0.319247 2.33723e-20)
(0.996415 0.0465306 6.2094e-20)
(1.00884 -0.013121 -4.29017e-21)
(1.07628 0.157142 -3.23211e-21)
(0.915332 0.138554 1.36842e-19)
(1.13015 0.454245 -4.13723e-19)
(0.990426 0.0457173 -3.24118e-22)
(1.03464 -0.0254607 -1.63876e-19)
(1.06054 0.185333 -5.38386e-20)
(0.998103 0.137504 -3.31438e-19)
(1.15937 0.50061 7.99731e-20)
(0.991285 0.0360458 -9.09539e-21)
(1.04071 -0.021709 4.88302e-20)
(1.09433 0.188498 2.59574e-20)
(0.980718 0.166827 4.28586e-19)
(1.35842 0.637033 -4.07441e-19)
(0.955875 0.0336086 -6.0879e-23)
(1.12034 -0.0470693 9.61995e-20)
(1.04228 0.22864 -6.01075e-20)
(1.23196 0.0935754 8.89863e-19)
(1.35831 0.655042 -3.54809e-19)
(0.911543 -0.000983032 -1.48603e-21)
(1.21225 -0.034 -7.79902e-20)
(0.912852 0.160121 4.68385e-21)
(1.369 0.062656 -3.11229e-19)
(1.30187 0.480479 -1.13054e-20)
(0.983687 -0.0240319 7.56545e-22)
(1.12916 -0.0149371 1.2217e-35)
(0.980134 0.13814 -4.16877e-21)
(1.29755 0.00265373 9.03936e-20)
(1.31878 0.367034 1.44172e-19)
(1.09895 -0.0653979 3.93488e-21)
(0.894943 -0.00692909 -2.84214e-20)
(1.20672 0.0599359 1.83582e-20)
(1.1677 -0.0230657 2.58978e-20)
(1.38232 0.227805 -2.1384e-19)
(0.982287 -0.0232521 -4.21451e-20)
(0.713588 -0.0171667 -4.90332e-21)
(1.01313 -0.00555653 1.92234e-20)
(0.747707 -0.0106738 -1.66266e-20)
(1.05715 0.074492 -4.81485e-20)
(1.73384 0.64122 2.78373e-19)
(1.83895 0.631315 6.90995e-19)
(2.0618 0.529935 -9.70807e-19)
(2.14226 0.471504 2.68246e-20)
(2.32943 0.308521 4.21025e-19)
(1.64057 0.466532 4.66543e-20)
(1.69908 0.410878 9.13686e-19)
(1.87926 0.38538 9.76289e-20)
(1.92892 0.266732 -8.2328e-19)
(2.09005 0.234686 -2.58561e-19)
(1.63932 0.334971 -2.01737e-19)
(1.73246 0.264262 -1.42045e-19)
(1.86015 0.259909 1.87905e-19)
(1.93021 0.140712 -2.66765e-19)
(2.02212 0.163369 2.44068e-19)
(1.67499 0.201893 3.35646e-19)
(1.73705 0.153192 -2.43599e-21)
(1.85208 0.147482 2.10386e-19)
(1.88168 0.0709899 1.76733e-19)
(1.97636 0.089873 -1.74971e-19)
(1.27622 0.052759 -4.16042e-20)
(1.34157 0.03327 2.22957e-19)
(1.40232 0.0205403 9.78589e-20)
(1.42089 0.00198548 -2.07155e-19)
(1.46307 -0.00465747 3.20038e-22)
(1.39628 -0.0330816 8.21055e-20)
(2.49539 -0.0132607 -6.15158e-19)
(2.71511 -0.0076603 1.63726e-18)
(2.68507 0.0431734 7.58891e-19)
(2.43605 0.0496959 -5.162e-19)
(0.940976 0.110229 1.84111e-19)
(2.28667 0.140223 -6.62627e-19)
(2.70286 0.151395 -9.45749e-19)
(2.70374 0.158368 1.29001e-18)
(2.50931 0.156232 -9.58668e-19)
(0.336872 0.116545 -1.6058e-20)
(1.69288 0.236318 7.96736e-19)
(2.44979 0.289787 1.25956e-19)
(2.74635 0.306009 1.36162e-18)
(2.71018 0.272731 7.50049e-19)
(-0.0064272 0.00430196 2.60303e-19)
(0.79537 0.188374 2.95216e-19)
(1.71694 0.315909 -9.04642e-19)
(2.27836 0.384337 8.89698e-20)
(2.73838 0.423367 8.28726e-19)
(-0.10544 -0.0865569 2.01421e-19)
(0.142252 0.0248415 -2.26041e-19)
(0.824262 0.2079 -1.14662e-19)
(1.39515 0.337357 2.07852e-19)
(2.07885 0.519296 1.28957e-19)
(-0.101265 -0.124404 5.24475e-20)
(-0.0926429 -0.127826 1.20314e-19)
(0.220525 -0.0413969 3.04834e-20)
(0.492925 0.0915337 -1.55805e-19)
(1.29693 0.355572 8.77976e-21)
(-0.0870668 -0.151328 -4.37493e-20)
(-0.126239 -0.232135 -5.86089e-20)
(-0.0162845 -0.1969 5.66064e-20)
(0.110849 -0.0529849 -5.18056e-20)
(0.566115 0.278057 7.46972e-22)
(-0.0719417 -0.191795 -5.42472e-20)
(-0.102603 -0.310633 -5.39912e-20)
(-0.0628898 -0.285387 5.78488e-20)
(0.000279569 -0.172735 3.43114e-19)
(0.16029 0.0566997 7.82541e-20)
(-0.0504129 -0.208313 -1.15362e-20)
(-0.07955 -0.328307 3.58201e-20)
(-0.061954 -0.295436 -2.67594e-19)
(-0.0200835 -0.174409 -5.08266e-20)
(0.0240398 -0.00874399 5.88097e-20)
(-0.0199837 -0.194878 1.6316e-20)
(-0.035783 -0.337787 -4.56558e-20)
(-0.0290245 -0.327314 1.98499e-20)
(-0.00697787 -0.204577 -4.93193e-20)
(0.0203231 -0.0100654 -3.20122e-19)
(1.59401 0.710559 -2.28617e-20)
(0.745034 0.391586 -1.73678e-19)
(-0.0999448 -0.0149484 -1.79576e-19)
(0.721571 -0.25882 4.77292e-23)
(0.892953 -0.0522082 2.57954e-23)
(1.41753 0.710453 1.06828e-19)
(0.352728 0.573184 1.32934e-18)
(-0.21244 -0.0608568 -3.83881e-19)
(0.699038 -0.446702 -3.89646e-21)
(1.04646 -0.0765304 1.849e-20)
(1.33613 0.695994 3.01186e-19)
(-0.499414 0.792594 2.31853e-18)
(0.206495 -0.172339 1.88436e-19)
(0.49065 -0.611578 1.75061e-21)
(1.08884 -0.119655 1.7991e-20)
(0.580538 0.773507 -2.26782e-19)
(-1.56904 0.772701 -4.03678e-18)
(0.757084 -0.509198 -1.16087e-18)
(0.42194 -0.705007 1.35515e-20)
(1.09957 -0.194229 1.93301e-20)
(0.169341 0.967787 8.33187e-22)
(-1.17095 0.715484 -4.78726e-19)
(1.09367 -0.771935 9.22936e-19)
(0.714247 -0.757749 -9.66521e-20)
(1.17766 -0.268332 -1.25806e-20)
(-0.202324 0.0925405 -4.51834e-20)
(-0.377446 -0.169921 0)
(-0.417899 -0.112644 -9.31808e-20)
(0.0384321 -0.0848503 5.38751e-20)
(0.385369 -0.0298233 -1.91904e-20)
(1.82935 0.639396 0)
(1.04514 0.291158 0)
(0.27936 -0.0107335 3.497e-19)
(0.602129 -0.17347 7.00714e-20)
(0.706187 -0.0661638 1.04383e-20)
(0.774303 0.00697598 -1.38423e-19)
(0.858969 0.000503298 3.77757e-19)
(0.966051 0.0431614 -2.7565e-20)
(0.890901 0.0172265 3.82325e-19)
(1.24601 0.207003 2.25017e-19)
(1.74952 0.0445204 1.34453e-19)
(1.98101 0.0915078 5.46255e-19)
(2.04736 0.18742 -8.51488e-19)
(2.45069 0.26621 3.51177e-19)
(2.41326 0.448232 5.89801e-19)
(0.986652 -0.539243 3.7588e-20)
(0.979486 -0.639725 -2.25808e-19)
(0.979654 -0.748813 -1.99571e-19)
(0.914745 -0.827954 1.18744e-19)
(0.565511 -0.66102 1.5372e-19)
(0.881796 -0.450057 1.04498e-19)
(0.826012 -0.522094 1.19944e-19)
(0.749583 -0.599614 -1.2657e-19)
(0.633495 -0.668329 1.59732e-19)
(0.3544 -0.538925 3.81787e-20)
(0.691787 -0.311862 -1.0797e-19)
(0.601457 -0.358609 -6.41812e-20)
(0.501217 -0.417779 -2.43096e-20)
(0.384796 -0.470598 -5.8375e-20)
(0.182304 -0.37745 -1.48695e-19)
(0.579309 -0.0812927 -4.36207e-19)
(0.494237 -0.103664 -3.47312e-19)
(0.384444 -0.136433 2.85124e-19)
(0.255727 -0.175203 1.36399e-19)
(0.0814236 -0.158877 1.27582e-20)
(0.545415 0.127759 -1.31924e-19)
(0.459762 0.125127 -1.54298e-19)
(0.34131 0.118334 -3.32663e-20)
(0.200297 0.115129 6.1544e-20)
(0.0358278 0.0833773 1.51124e-20)
(2.25829 -0.0241584 1.01998e-18)
(2.48183 -0.100653 3.7219e-19)
(2.5789 -0.194865 -9.41033e-19)
(2.46772 -0.221536 -2.02041e-18)
(1.5373 -0.223295 1.53714e-19)
(2.16717 -0.133228 1.67391e-18)
(2.29471 -0.250675 2.18087e-18)
(2.33098 -0.38228 1.81865e-19)
(2.2669 -0.445913 3.16703e-19)
(1.49069 -0.422033 -2.12139e-19)
(1.89969 -0.308186 -4.23428e-18)
(1.95135 -0.433171 4.77175e-19)
(1.99506 -0.56913 1.34791e-18)
(1.9561 -0.655917 -5.3977e-19)
(1.29912 -0.582388 8.59977e-19)
(1.63393 -0.442399 1.04336e-18)
(1.658 -0.550575 -2.74331e-18)
(1.66164 -0.681717 -3.16251e-18)
(1.60731 -0.782703 9.9539e-19)
(1.05503 -0.667089 6.50962e-19)
(1.33498 -0.513499 2.39025e-19)
(1.28786 -0.616111 3.01443e-19)
(1.27815 -0.748493 -4.88948e-19)
(1.22833 -0.847587 -5.94241e-19)
(0.790875 -0.692092 -5.72194e-21)
(1.059 0.0521383 6.84165e-21)
(0.945486 0.0451001 2.04731e-21)
(1.13063 0.0728583 1.15185e-20)
(0.841633 -0.0129676 -2.74714e-19)
(1.18721 -0.243068 -2.3121e-20)
(1.06903 0.0546627 -2.2771e-21)
(0.938558 0.0392015 2.13828e-20)
(1.12809 0.0910582 1.27115e-20)
(0.912189 0.0270315 2.42553e-19)
(1.05716 -0.129366 8.71336e-21)
(1.06654 0.0513928 -5.39203e-20)
(0.941059 0.0306548 -5.83145e-23)
(1.11119 0.0953811 -2.40609e-21)
(0.905431 0.0434726 1.31976e-19)
(1.00944 -0.0689557 -2.8963e-19)
(1.0477 0.0501051 6.33863e-20)
(0.964209 0.0224706 2.52544e-21)
(1.07589 0.102271 1.68495e-20)
(0.939646 0.0691039 -6.53224e-20)
(0.89304 0.0399074 5.10325e-20)
(1.02131 0.0479261 1.55741e-20)
(0.991702 0.0162292 -2.24028e-20)
(1.04642 0.11095 2.77931e-20)
(0.95626 0.0919889 3.43132e-20)
(0.857084 0.136451 -3.65981e-21)
(0.886263 0.0335351 0)
(0.721661 0.0273236 8.07187e-21)
(0.623436 0.0207579 7.61664e-21)
(0.378431 -0.0109686 5.83115e-20)
(0.751851 -0.060934 -1.89644e-19)
(1.02761 0.0727237 -6.18195e-20)
(0.955243 0.0651259 2.48514e-21)
(1.0442 0.0749386 -7.30952e-20)
(0.839621 -0.0128931 -1.63736e-19)
(1.10942 -0.223406 -1.99271e-19)
(1.0535 -0.0684799 -4.35298e-20)
(1.14667 -0.0382068 6.29479e-19)
(1.2596 0.0370873 3.73581e-19)
(1.1228 0.0630967 3.0077e-20)
(0.878666 0.0345773 0)
(1.41308 -0.33838 4.28265e-19)
(1.54175 -0.297413 1.80418e-18)
(1.74373 -0.171933 -1.95655e-18)
(1.84258 -0.0206686 -6.25589e-19)
(1.79327 0.0399857 4.69338e-19)
)
;

boundaryField
{
    left
    {
        type            fixedValue;
        value           uniform (1 0 0);
    }
    right
    {
        type            zeroGradient;
    }
    down
    {
        type            noSlip;
    }
    up
    {
        type            noSlip;
    }
    cylinder
    {
        type            noSlip;
    }
    defaultFaces
    {
        type            empty;
    }
}


// ************************************************************************* //
