/*--------------------------------*- C++ -*----------------------------------*\
  =========                 |
  \\      /  F ield         | OpenFOAM: The Open Source CFD Toolbox
   \\    /   O peration     | Website:  https://openfoam.org
    \\  /    A nd           | Version:  13
     \\/     M anipulation  |
\*---------------------------------------------------------------------------*/
FoamFile
{
    format      ascii;
    class       volScalarField;
    location    "0.22";
    object      p;
}
// * * * * * * * * * * * * * * * * * * * * * * * * * * * * * * * * * * * * * //

dimensions      [0 2 -2 0 0 0 0];

internalField   nonuniform List<scalar> 
440
(
8.06707
10.8237
13.1858
13.3664
10.3927
20.9603
24.3441
27.3398
28.0404
26.1535
41.4972
44.5289
47.2323
48.0252
46.8648
67.6314
69.7295
71.6431
72.2998
71.6124
96.9104
97.7274
98.5244
98.9244
98.8907
-0.0904246
-0.206933
0.242262
0.786987
1.1224
-1.37069
-2.04989
-1.80778
-1.12927
-0.500891
-1.77737
-2.66178
-2.5888
-1.84164
-0.728885
-0.448815
-0.579358
-0.171311
0.793123
2.65768
3.32112
4.63383
6.06494
7.49718
9.74858
2.37331
2.59164
1.683
0.930601
0.312258
1.3021
2.35703
1.56353
0.869302
0.2975
0.130915
1.91981
1.41978
0.817303
0.28665
-0.159912
1.32467
1.21414
0.771985
0.280399
1.77852
0.75665
0.937978
0.726742
0.278597
4.68905
0.536656
0.632506
0.679027
0.282416
6.98552
0.900354
0.665525
0.699871
0.271299
10.2378
2.65325
1.33295
0.831995
0.240342
14.1508
5.03949
2.41724
1.07045
0.226624
16.9013
7.44318
3.72512
1.45213
0.28611
100.934
76.0846
53.5693
33.3969
12.6008
102.63
79.1857
57.778
39.2961
23.725
104.531
82.9475
62.7182
45.4745
33.1272
105.414
85.2683
66.7518
51.4355
40.9137
105.332
84.9901
66.5767
51.503
41.1563
220.126
216.666
216.387
218.511
221.247
202.937
200.482
200.748
203.492
206.785
180.791
179.023
179.389
181.812
184.691
154.992
153.651
153.857
155.45
157.348
127.11
126.397
126.336
126.796
127.389
235.656
236.069
236.676
237.063
236.784
236.353
236.975
237.509
237.466
236.498
235.255
236.23
236.649
236.38
235.384
230.384
231.996
232.581
232.733
232.641
221.866
223.746
224.779
226.003
227.362
236.265
234.947
235.11
234.166
234.373
236.231
234.936
235.085
234.166
234.998
236.223
234.907
235.061
234.328
235.606
236.239
234.86
235.081
234.601
235.214
236.27
234.797
235.16
234.801
232.496
236.313
234.708
235.221
234.591
228.931
236.456
234.593
235.119
234.198
226.6
237.248
234.36
234.453
232.479
223.576
241.164
234.348
233.254
229.932
219.853
250.099
235.063
232.086
227.358
217.077
217.991
196.468
175.269
151.979
126.694
207.619
191.624
172.577
150.673
126.901
199.138
186.455
168.866
148.335
126.579
191.967
181.015
165.337
146.504
126.165
191.742
180.994
165.593
146.904
126.396
96.638
95.761
95.3132
94.5464
94.3899
57.5766
55.629
53.9235
52.0023
51.2367
29.7628
27.4186
24.6565
22.3589
21.0346
15.3223
12.9054
10.4427
8.42567
7.45536
9.49061
7.60459
6.22426
5.25536
4.66751
6.24679
5.14833
4.57937
4.50014
4.59258
4.32005
3.86594
3.80415
3.96897
4.12762
3.0196
3.01368
3.25279
3.55953
3.71977
1.97486
2.27037
2.71483
3.06188
3.20732
0.973085
1.35
1.9021
2.2963
2.46994
3.91947
3.47176
2.35107
1.22245
0.385575
3.95942
3.30386
2.25807
1.1716
0.374294
3.75737
3.05553
2.13003
1.12459
0.363142
3.44992
2.83719
1.97392
1.06865
0.349077
3.04077
2.70425
1.81557
0.99848
0.329597
4.78388
3.44884
2.2486
1.21898
0.391919
4.06052
3.54844
2.35196
1.24603
0.392577
95.1459
54.4086
27.7886
14.7742
9.75646
93.9249
51.3987
23.2627
9.75702
5.55281
232.305
232.388
232.348
231.846
230.775
232.908
233.084
233.321
233.371
233.006
233.457
233.627
234.01
234.407
234.58
234.002
234.151
234.545
235.126
235.527
234.691
234.922
235.408
235.983
236.212
142.201
142.009
141.181
140.67
139.759
185.415
184.606
182.628
180.861
178.883
215.696
214.325
211.977
209.164
206.789
229.316
228.308
226.261
223.768
221.323
232.159
231.542
230.577
229.205
227.31
239.116
234.731
234.817
233.684
233.059
237.473
234.77
234.903
233.859
233.094
236.778
234.851
234.999
234.071
233.407
236.465
234.913
235.082
234.219
233.735
236.33
234.942
235.114
234.233
234.009
252.499
236.047
235.193
233.641
232.147
243.421
234.975
234.759
233.565
232.853
227.108
222.033
208.934
182.235
141.45
231.302
227.064
213.491
185.26
142.673
)
;

boundaryField
{
    left
    {
        type            zeroGradient;
    }
    right
    {
        type            fixedValue;
        value           uniform 0;
    }
    down
    {
        type            zeroGradient;
    }
    up
    {
        type            zeroGradient;
    }
    cylinder
    {
        type            zeroGradient;
    }
    defaultFaces
    {
        type            empty;
    }
}


// ************************************************************************* //
