/*--------------------------------*- C++ -*----------------------------------*\
  =========                 |
  \\      /  F ield         | OpenFOAM: The Open Source CFD Toolbox
   \\    /   O peration     | Website:  https://openfoam.org
    \\  /    A nd           | Version:  13
     \\/     M anipulation  |
\*---------------------------------------------------------------------------*/
FoamFile
{
    format      ascii;
    class       volVectorField;
    location    "0.22";
    object      U;
}
// * * * * * * * * * * * * * * * * * * * * * * * * * * * * * * * * * * * * * //

dimensions      [0 1 -1 0 0 0 0];

internalField   nonuniform List<vector> 
440
(
(0.218262 -0.176695 -1.81122e-19)
(0.613082 -0.436656 1.07871e-18)
(0.984292 -0.640898 4.22849e-19)
(1.32753 -0.795379 1.24289e-18)
(1.63255 -0.916719 -2.60094e-19)
(0.304899 -0.177687 -5.4452e-19)
(0.819149 -0.428706 -1.01969e-18)
(1.27999 -0.618905 1.14527e-19)
(1.69193 -0.761638 -1.21528e-18)
(2.05377 -0.875095 -1.02106e-18)
(0.38489 -0.15241 -6.98092e-19)
(1.00471 -0.363019 1.59009e-18)
(1.5398 -0.518388 -1.93477e-18)
(2.00477 -0.632631 1.37906e-18)
(2.40601 -0.721464 1.43009e-18)
(0.445886 -0.102749 5.62414e-19)
(1.14614 -0.243088 -1.29963e-18)
(1.7375 -0.344815 -7.5081e-19)
(2.24302 -0.41822 1.96661e-18)
(2.67455 -0.474457 2.50021e-18)
(0.47928 -0.0361598 6.86977e-19)
(1.22369 -0.0847564 1.69168e-19)
(1.84598 -0.119365 2.53146e-18)
(2.37411 -0.143867 -1.06222e-18)
(2.82305 -0.162498 -4.83865e-19)
(-0.00111626 -0.0515871 2.88739e-19)
(0.0495932 -0.144598 -3.50751e-19)
(0.105209 -0.223034 1.07085e-18)
(0.170442 -0.293206 -1.74e-19)
(0.238324 -0.355043 -1.58879e-18)
(0.0136545 -0.0842016 -2.69028e-19)
(0.0892965 -0.227701 -4.5855e-19)
(0.17408 -0.350209 1.12185e-19)
(0.268347 -0.450344 6.15911e-20)
(0.364619 -0.530585 -4.06905e-20)
(0.0433239 -0.114205 6.51065e-20)
(0.165519 -0.303064 5.34116e-19)
(0.296267 -0.467315 9.28582e-20)
(0.433015 -0.59887 1.44735e-18)
(0.568127 -0.697491 -2.48269e-20)
(0.0866155 -0.14099 6.66175e-20)
(0.276398 -0.367811 -3.42348e-20)
(0.46954 -0.563013 2.17628e-19)
(0.661478 -0.718575 -2.03495e-18)
(0.844213 -0.830561 9.57166e-19)
(0.142124 -0.161725 -2.35947e-19)
(0.420085 -0.412857 -4.42836e-19)
(0.691406 -0.621492 -7.70682e-19)
(0.950154 -0.782462 9.53715e-19)
(1.18524 -0.892939 3.45728e-18)
(0.590034 -0.593794 -4.24986e-18)
(0.952478 -0.512124 1.23309e-18)
(1.26229 -0.208969 3.4512e-19)
(1.37354 -0.0683717 -6.72612e-19)
(1.41201 -0.0181969 -1.08796e-19)
(0.785214 -0.743918 4.94974e-18)
(1.03887 -0.615128 -3.4774e-19)
(1.2953 -0.26458 -1.48392e-19)
(1.39287 -0.0879047 4.16815e-19)
(1.41951 -0.0235628 1.94989e-19)
(1.03678 -0.878055 1.54396e-18)
(1.17574 -0.698286 4.08523e-18)
(1.32958 -0.31666 7.0777e-20)
(1.41019 -0.105199 4.66223e-19)
(1.42864 -0.0283438 -6.72763e-20)
(1.33071 -0.988902 1.24769e-18)
(1.35466 -0.7597 -4.19467e-19)
(1.382 -0.361096 -7.57307e-19)
(1.42454 -0.118857 -2.97998e-19)
(1.43887 -0.0320776 1.92391e-20)
(1.63011 -1.04796 -1.4903e-20)
(1.54837 -0.801961 -1.63831e-18)
(1.44399 -0.402233 0)
(1.43291 -0.13763 2.71005e-19)
(1.44874 -0.0360623 3.65783e-20)
(2.15622 -1.11477 -1.58306e-18)
(1.82365 -0.795519 -4.89371e-19)
(1.55924 -0.409413 -8.90643e-21)
(1.4587 -0.143376 1.6379e-20)
(1.44354 -0.0347673 -9.22526e-20)
(2.63406 -0.88924 -1.61284e-18)
(1.90384 -0.588634 2.87174e-18)
(1.47384 -0.28591 4.52224e-21)
(1.28557 -0.10437 2.62479e-19)
(1.2386 -0.0258893 0)
(2.47975 -0.522445 -6.94075e-18)
(1.60725 -0.335935 -1.49721e-19)
(1.16017 -0.161108 2.05547e-18)
(0.963044 -0.0651255 -2.97317e-19)
(0.919354 -0.0159458 -5.45279e-20)
(1.76246 -0.220018 6.84024e-18)
(1.08855 -0.13509 1.31917e-18)
(0.755074 -0.062979 2.26798e-19)
(0.611579 -0.0279827 2.81453e-33)
(0.573601 -0.00727 -1.22613e-19)
(0.683022 0.000115129 1.56021e-18)
(0.395011 0.0234013 7.25313e-19)
(0.268387 0.0229143 -4.9947e-19)
(0.217106 0.0103271 1.73659e-19)
(0.198888 0.00331786 -4.33138e-20)
(3.58198 -0.168171 1.25611e-17)
(3.41727 -0.502916 -1.04421e-17)
(3.13675 -0.786951 7.10682e-18)
(2.78061 -0.996015 2.31973e-18)
(2.33303 -1.10163 -4.1526e-19)
(3.78469 -0.103604 1.03957e-17)
(3.71766 -0.324479 -6.64002e-19)
(3.57799 -0.551849 -4.27092e-18)
(3.37861 -0.78577 2.6915e-18)
(3.1007 -1.01976 -6.62753e-19)
(3.11489 -0.0605635 3.65428e-18)
(3.09872 -0.181732 -2.51845e-18)
(3.05969 -0.309743 5.01235e-18)
(2.99905 -0.444922 -1.52594e-19)
(2.92464 -0.593644 -4.78999e-18)
(2.19088 -0.0276222 2.78859e-18)
(2.18385 -0.0834086 8.42964e-18)
(2.1646 -0.144091 -6.53213e-19)
(2.13401 -0.207412 -6.60595e-18)
(2.11297 -0.269598 1.94552e-18)
(0.879438 -0.00184216 5.21215e-18)
(0.876482 -0.00524246 -1.16413e-19)
(0.867339 -0.00957675 -4.26421e-20)
(0.850435 -0.0162729 -2.00853e-18)
(0.841039 -0.0229419 -3.6022e-18)
(1.65284 0.939518 2.26379e-18)
(1.34815 0.816444 -7.49986e-20)
(1.00335 0.658587 -3.23492e-20)
(0.627915 0.449517 -1.96525e-19)
(0.225275 0.182342 -1.3461e-19)
(2.07034 0.892306 -1.21643e-18)
(1.71059 0.777674 -1.19389e-18)
(1.29831 0.632607 7.33848e-19)
(0.834079 0.438771 -4.84662e-19)
(0.312179 0.182116 -4.23537e-21)
(2.41856 0.735769 -5.9164e-19)
(2.01966 0.645338 5.25266e-19)
(1.55502 0.528776 2.43802e-18)
(1.01757 0.370221 8.08549e-19)
(0.391362 0.155297 5.2625e-19)
(2.68206 0.486683 1.30703e-20)
(2.25244 0.428286 -2.72317e-19)
(1.74748 0.352331 -6.46704e-19)
(1.15481 0.247656 2.05676e-18)
(0.450347 0.10415 -3.26873e-19)
(2.82556 0.173855 -1.17107e-18)
(2.37736 0.152642 -1.60656e-18)
(1.84948 0.125348 -7.28791e-19)
(1.22677 0.0878375 7.96345e-19)
(0.480881 0.0366886 -3.25846e-19)
(0.238347 0.414353 -2.10148e-18)
(0.168867 0.350994 -1.77867e-18)
(0.102066 0.274795 3.02898e-19)
(0.0450663 0.181866 -3.14178e-20)
(-0.00187031 0.0667067 3.3976e-20)
(0.370626 0.59057 -8.07844e-19)
(0.273786 0.506648 -6.4135e-19)
(0.178521 0.39659 -1.87728e-22)
(0.0923665 0.257584 -2.0807e-20)
(0.0165829 0.0957082 2.18313e-20)
(0.581825 0.750077 2.1658e-18)
(0.446289 0.646901 -1.60991e-19)
(0.307911 0.505154 -1.41494e-19)
(0.174263 0.327303 -2.13877e-19)
(0.0481665 0.123506 1.69687e-19)
(0.862047 0.872652 -1.30269e-18)
(0.679194 0.756713 1.99548e-18)
(0.485282 0.593103 3.3076e-19)
(0.288288 0.387872 9.91183e-20)
(0.0924324 0.149038 -1.17698e-19)
(1.20349 0.924059 -4.43408e-19)
(0.969046 0.811088 -4.59668e-19)
(0.708604 0.644737 3.64127e-19)
(0.433364 0.429071 3.61603e-19)
(0.148473 0.168553 1.90116e-21)
(0.890019 0.152457 -4.12539e-19)
(1.44031 0.145166 6.00536e-20)
(1.25205 0.203801 2.48211e-20)
(0.992937 0.501781 -3.51665e-19)
(0.592681 0.642455 -5.54076e-20)
(0.883911 0.0860951 1.82101e-19)
(1.4416 0.131273 2.54277e-19)
(1.27706 0.239837 8.73362e-20)
(1.0515 0.609395 -1.07416e-19)
(0.783381 0.797344 7.76199e-19)
(0.878968 0.0221806 -1.51771e-20)
(1.45614 0.114535 -1.95764e-20)
(1.29323 0.277231 -6.08587e-20)
(1.16668 0.697051 -5.13647e-19)
(1.03752 0.930374 1.95602e-19)
(0.876833 -0.0396199 -2.5196e-20)
(1.4766 0.0962549 -5.38621e-19)
(1.32437 0.313297 1.22651e-19)
(1.33062 0.758955 1.23716e-18)
(1.3346 1.03581 9.33266e-19)
(0.877385 -0.0984967 1.9109e-20)
(1.49843 0.0806168 1.1363e-19)
(1.36752 0.351204 -6.75245e-20)
(1.51405 0.800793 -4.10279e-19)
(1.63501 1.08794 -2.77551e-18)
(0.881656 -0.187432 2.54438e-19)
(1.517 0.0495107 3.89275e-19)
(1.46309 0.351424 -9.93481e-21)
(1.76955 0.784328 2.85164e-18)
(2.15116 1.14027 -5.52308e-18)
(0.866392 -0.320103 -2.84874e-20)
(1.44345 -0.0151649 -6.01624e-19)
(1.45489 0.25557 9.12913e-21)
(1.85585 0.584855 -2.99705e-18)
(2.59635 0.89938 1.66056e-18)
(0.781735 -0.410019 5.29595e-18)
(1.13955 -0.0801873 6.51582e-35)
(1.15705 0.139872 -2.18541e-18)
(1.58264 0.332464 2.72244e-18)
(2.45868 0.5286 5.03372e-18)
(0.631721 -0.28983 1.50645e-19)
(0.736413 -0.0684481 5.15315e-19)
(0.743835 0.0508886 2.58825e-19)
(1.07709 0.132809 6.27674e-19)
(1.75852 0.220333 -8.63427e-18)
(0.321555 -0.0433242 -4.29694e-18)
(0.298834 0.00395647 2.75986e-19)
(0.269076 -0.0119258 1.0804e-18)
(0.393963 -0.0239381 -7.78207e-19)
(0.68599 -0.000324941 -1.46302e-18)
(2.34803 1.12023 4.67923e-18)
(2.78698 1.01208 3.46352e-18)
(3.14075 0.803137 -5.68291e-18)
(3.41897 0.519476 -1.46106e-17)
(3.58245 0.185818 1.57608e-17)
(3.07961 1.0186 5.00615e-18)
(3.35471 0.795114 2.56552e-17)
(3.55749 0.56063 7.24559e-18)
(3.70148 0.331806 -3.08403e-17)
(3.77816 0.111114 -5.17401e-18)
(2.90641 0.591803 -7.23497e-18)
(2.98632 0.448054 -3.38207e-18)
(3.05234 0.312164 -6.305e-18)
(3.09532 0.181806 -6.88945e-18)
(3.11406 0.0584858 6.52234e-18)
(2.10617 0.266077 5.40634e-18)
(2.13 0.205938 -4.05204e-19)
(2.16246 0.143186 4.86931e-18)
(2.18309 0.0822235 6.28818e-18)
(2.19077 0.0260387 -5.88724e-18)
(0.842344 0.022116 -5.73571e-19)
(0.851792 0.0156879 3.51813e-18)
(0.868553 0.00914956 2.44213e-18)
(0.877456 0.00480189 -5.16847e-18)
(0.879827 0.00136554 -3.84226e-20)
(0.281871 0.0207527 5.51912e-19)
(0.656547 0.0404587 -7.4328e-19)
(0.972977 0.0440582 -8.18698e-19)
(0.944165 0.0274258 -1.5179e-18)
(0.697718 0.0163819 -6.63698e-19)
(0.24552 0.0554491 7.45306e-19)
(0.591149 0.107053 1.44156e-18)
(0.864527 0.125118 -6.9673e-19)
(0.939802 0.0969789 1.96012e-18)
(0.724045 0.0532236 -2.70091e-18)
(0.185572 0.0742495 4.9591e-19)
(0.476286 0.145866 -1.39965e-18)
(0.707635 0.184724 -9.13675e-19)
(0.857158 0.175365 -1.81097e-18)
(0.741459 0.101183 -2.86207e-18)
(0.123274 0.0774636 -7.72806e-19)
(0.344681 0.160344 -1.37662e-18)
(0.534425 0.214844 4.39569e-18)
(0.677526 0.233224 -3.66294e-19)
(0.712965 0.179949 2.24802e-18)
(0.075265 0.0723707 -6.23955e-19)
(0.230652 0.160132 1.56285e-18)
(0.372162 0.22448 6.04999e-19)
(0.482543 0.257486 -1.29146e-18)
(0.560821 0.258033 -1.76285e-19)
(0.0451645 0.0638287 8.05517e-20)
(0.149956 0.148852 -1.21284e-18)
(0.247671 0.211943 -9.2455e-19)
(0.325086 0.23337 -1.13014e-19)
(0.370851 0.222884 -5.09818e-20)
(0.0263734 0.0557364 3.12152e-19)
(0.095185 0.134009 5.73951e-19)
(0.160967 0.183311 -2.24534e-19)
(0.213741 0.193005 2.61929e-19)
(0.253788 0.18246 1.73952e-19)
(0.013081 0.0485045 2.44609e-19)
(0.0587751 0.109614 1.37028e-18)
(0.103779 0.117977 -1.25842e-18)
(0.142857 0.103804 -2.78933e-18)
(0.179287 0.0821127 4.12992e-19)
(0.00617092 0.0386815 -2.37325e-19)
(0.0422887 0.0461844 -1.78494e-18)
(0.0790408 0.0190331 3.19648e-18)
(0.118857 -0.0128071 1.32331e-18)
(0.160029 -0.0466642 -2.69896e-19)
(0.00932285 0.000682541 2.03178e-19)
(0.0411006 -0.0514102 -4.40434e-19)
(0.0807241 -0.0977162 8.86449e-20)
(0.128902 -0.145805 1.0659e-19)
(0.179069 -0.192165 2.86069e-21)
(0.340237 0.0685491 -8.8368e-20)
(0.62184 -0.0418067 -1.21082e-18)
(0.707585 -0.0160496 2.57893e-19)
(0.734896 -0.00215107 3.74634e-19)
(0.742493 -0.000656575 1.95046e-20)
(0.305995 -0.0392347 -9.84904e-20)
(0.7582 -0.114318 1.40512e-18)
(0.890858 -0.02775 9.32843e-19)
(0.936513 -0.00458723 8.01664e-20)
(0.953568 -0.00113858 -5.31176e-20)
(0.320578 -0.154213 -7.9742e-19)
(0.837441 -0.197136 2.9663e-18)
(1.04768 -0.049496 -1.88446e-19)
(1.11917 -0.00891516 -3.47101e-19)
(1.14317 -0.00179975 9.65286e-20)
(0.372502 -0.291941 1.0818e-18)
(0.879216 -0.295569 -2.45575e-18)
(1.15538 -0.0937723 -5.13325e-19)
(1.27161 -0.0224239 -3.72061e-20)
(1.31219 -0.00518574 -1.32186e-20)
(0.457822 -0.439637 5.09789e-19)
(0.908868 -0.401746 -5.58427e-19)
(1.21903 -0.15062 4.38269e-19)
(1.34831 -0.0457289 1.42723e-19)
(1.39919 -0.0118163 -4.27097e-20)
(0.183106 -0.0448012 9.54018e-19)
(0.146661 -0.00487837 0)
(0.163829 0.00146309 1.19692e-19)
(0.166942 0.0004698 2.97393e-20)
(0.166247 -2.02954e-05 -8.52476e-20)
(0.401852 0.0696063 0)
(0.414232 -0.000746086 0)
(0.469963 -0.00528088 8.26731e-20)
(0.48181 -0.000210619 5.76601e-20)
(0.481894 -0.000162392 1.90178e-20)
(0.162631 -0.000820993 -3.68329e-19)
(0.186339 -0.00179201 3.10705e-18)
(0.21314 -0.00502074 -6.8686e-19)
(0.229736 -0.0149866 -3.11617e-18)
(0.245625 -0.0169506 -7.96582e-19)
(0.431893 0.0044399 6.0974e-19)
(0.484411 0.0196882 4.11538e-18)
(0.536316 0.0466617 -6.73294e-18)
(0.567591 0.0805104 2.20785e-18)
(0.598466 0.162173 3.79053e-18)
(0.37052 -0.219426 -3.41015e-19)
(0.323973 -0.230522 -8.72864e-20)
(0.248246 -0.21209 -3.05903e-19)
(0.150763 -0.150688 3.80382e-19)
(0.0458435 -0.0646237 1.14683e-19)
(0.258003 -0.166353 4.21514e-19)
(0.215197 -0.178699 1.42472e-18)
(0.162413 -0.174709 2.78816e-19)
(0.096805 -0.13418 2.34852e-19)
(0.0267162 -0.0570816 -1.64819e-20)
(0.193083 -0.0512502 -3.10747e-19)
(0.151404 -0.0738318 -1.00284e-19)
(0.108477 -0.0914332 1.63749e-18)
(0.0622778 -0.0943708 2.95793e-19)
(0.0129343 -0.0472954 -3.06659e-19)
(0.175965 0.0888449 -6.39508e-19)
(0.130524 0.0551779 -7.09707e-19)
(0.0861503 0.021796 1.29666e-18)
(0.0484107 -0.00797293 1.58768e-18)
(0.0112069 -0.0283645 1.99426e-19)
(0.184356 0.24365 1.23469e-19)
(0.130944 0.197491 -1.19718e-19)
(0.0794989 0.147875 2.48066e-19)
(0.0366434 0.0968828 5.98786e-19)
(-0.00286254 0.0354571 8.40799e-20)
(0.697715 -0.0163372 1.53099e-18)
(0.94417 -0.0274026 -1.80059e-18)
(0.972785 -0.0441838 2.26936e-18)
(0.656559 -0.0405212 3.6423e-19)
(0.281905 -0.0207614 5.36474e-19)
(0.724037 -0.0531144 1.77147e-18)
(0.939661 -0.0969921 7.94609e-18)
(0.864323 -0.125221 1.03345e-18)
(0.591201 -0.107093 1.34908e-18)
(0.245615 -0.0554703 -4.78316e-19)
(0.741388 -0.100928 -1.2236e-18)
(0.856549 -0.175193 -2.29428e-18)
(0.707551 -0.184782 2.9236e-18)
(0.476354 -0.145937 -1.08523e-19)
(0.185695 -0.0742862 3.39645e-19)
(0.712479 -0.179754 2.59149e-20)
(0.676794 -0.233136 -7.67634e-18)
(0.53445 -0.215153 -5.99036e-18)
(0.344817 -0.16068 1.09078e-18)
(0.123457 -0.077571 5.08087e-19)
(0.558438 -0.256412 4.75513e-19)
(0.481469 -0.256768 5.32304e-19)
(0.372212 -0.225105 -8.94415e-19)
(0.230911 -0.160986 -8.86142e-19)
(0.0756119 -0.0726352 -5.13574e-21)
(0.723954 0.371375 1.16304e-18)
(0.903874 0.121234 -1.8655e-19)
(0.695251 0.0212248 2.66846e-19)
(0.652312 0.0398139 -7.57645e-19)
(0.364993 -0.0592539 -1.01668e-19)
(0.821378 0.395665 -1.64625e-19)
(1.1244 0.146923 -5.22449e-19)
(0.88714 0.0418397 8.03872e-19)
(0.808874 0.106196 1.64883e-18)
(0.343549 0.0579423 1.06835e-19)
(0.878766 0.365453 -2.03162e-18)
(1.32841 0.157523 -3.83906e-20)
(1.04941 0.0719263 2.08342e-19)
(0.904977 0.18722 1.49382e-18)
(0.364304 0.179774 -1.3089e-18)
(0.895022 0.298688 1.27387e-18)
(1.46073 0.156919 3.11226e-20)
(1.15656 0.114836 -1.6083e-19)
(0.950723 0.285139 -3.62021e-19)
(0.409229 0.324557 -5.15648e-19)
(0.894866 0.223133 1.41827e-19)
(1.45399 0.153338 -2.78072e-20)
(1.21337 0.161715 -4.01174e-20)
(0.971088 0.390807 2.20883e-20)
(0.476306 0.479922 1.36274e-18)
(0.274901 0.0483622 0)
(0.246473 -0.0102218 6.31744e-19)
(0.161548 -0.0156257 1.28987e-19)
(0.152618 0.00500072 -1.46835e-19)
(0.18465 0.0437871 -1.80838e-18)
(0.571128 0.265647 -1.01821e-17)
(0.618819 0.0733122 -2.48128e-18)
(0.458309 0.0124835 5.27512e-19)
(0.43029 0.0019046 -6.73587e-19)
(0.409788 -0.0677005 -6.64749e-19)
(0.245781 0.0168945 -1.11086e-21)
(0.229837 0.0150702 1.92782e-18)
(0.213217 0.00506304 5.2353e-19)
(0.186389 0.00180167 3.23237e-19)
(0.162646 0.000824825 0)
(0.599414 -0.162012 -1.04747e-19)
(0.568176 -0.08019 2.5547e-18)
(0.536428 -0.0464333 -1.34231e-19)
(0.48447 -0.019635 -2.69521e-19)
(0.431917 -0.00441774 7.60155e-19)
)
;

boundaryField
{
    left
    {
        type            fixedValue;
        value           uniform (1 0 0);
    }
    right
    {
        type            zeroGradient;
    }
    down
    {
        type            noSlip;
    }
    up
    {
        type            noSlip;
    }
    cylinder
    {
        type            noSlip;
    }
    defaultFaces
    {
        type            empty;
    }
}


// ************************************************************************* //
