/*--------------------------------*- C++ -*----------------------------------*\
  =========                 |
  \\      /  F ield         | OpenFOAM: The Open Source CFD Toolbox
   \\    /   O peration     | Website:  https://openfoam.org
    \\  /    A nd           | Version:  13
     \\/     M anipulation  |
\*---------------------------------------------------------------------------*/
FoamFile
{
    format      ascii;
    class       volScalarField;
    location    "0.75";
    object      p;
}
// * * * * * * * * * * * * * * * * * * * * * * * * * * * * * * * * * * * * * //

dimensions      [0 2 -2 0 0 0 0];

internalField   nonuniform List<scalar> 
1800
(
5.74666
7.85376
10.0066
11.435
12.2693
12.6799
12.8107
12.6531
11.4066
7.3142
9.5957
12.0714
14.5763
16.2603
17.3168
17.9795
18.4341
18.673
17.9484
15.2703
15.9876
18.6123
21.285
23.1482
24.4084
25.2901
25.9408
26.324
25.8527
24.0215
24.9823
27.5517
30.2001
32.1146
33.4798
34.4888
35.2512
35.7031
35.2969
33.6121
36.0406
38.4015
40.8537
42.6652
43.9896
44.9857
45.7402
46.1895
45.8393
44.2836
48.7172
50.7698
52.9134
54.5197
55.7106
56.6128
57.295
57.7056
57.4244
56.0649
62.6654
64.3382
66.0939
67.4259
68.4279
69.1975
69.7889
70.1658
69.9907
68.902
77.5911
78.8326
80.1437
81.153
81.9289
82.5427
83.0368
83.3917
83.3582
82.6218
93.209
93.9887
94.8202
95.4751
95.9979
96.4353
96.8181
97.1415
97.2517
96.9172
109.238
109.542
109.874
110.149
110.386
110.607
110.824
111.038
111.199
111.227
-0.605827
-0.858733
-0.635808
-0.220964
0.251895
0.720056
1.07974
1.29059
1.43569
1.58254
-0.476443
-0.992763
-1.10324
-0.897634
-0.473725
-0.0498802
0.242476
0.48487
0.765191
1.0389
0.526549
-0.442044
-1.27608
-1.44253
-1.11558
-0.810309
-0.597491
-0.292473
0.114946
0.5009
0.920411
-0.221991
-1.42192
-1.76098
-1.54081
-1.38806
-1.26407
-0.959426
-0.502592
0.00520443
0.488752
-0.480041
-1.42182
-1.71342
-1.65654
-1.66818
-1.63281
-1.37176
-0.880905
-0.186901
-0.216017
-0.733461
-1.13481
-1.26469
-1.28569
-1.35184
-1.3452
-1.13757
-0.61362
0.318501
-0.55263
-0.515154
-0.339118
-0.193383
-0.10913
-0.0892411
-0.0516222
0.11741
0.694508
1.92422
-0.070389
0.515815
1.23657
1.74084
2.07019
2.28308
2.43204
2.64809
3.37813
5.03998
1.37588
2.48379
3.73214
4.65354
5.32344
5.81561
6.15538
6.49421
7.48065
9.76781
3.61697
5.25984
7.07798
8.45388
9.47657
10.2367
10.7589
11.2117
12.2725
14.4355
2.30099
2.44019
2.3329
2.08739
1.58307
1.18043
0.860647
0.586975
0.350083
0.133913
1.95267
2.41757
2.22958
2.00502
1.50042
1.1014
0.809886
0.570456
0.354453
0.141826
1.47541
2.3885
2.12889
1.9138
1.42603
1.0354
0.764149
0.55178
0.355822
0.148784
0.85062
2.30594
2.02895
1.80828
1.35144
0.977433
0.724993
0.534831
0.350923
0.153678
0.156169
2.12975
1.91818
1.68615
1.27064
0.923075
0.690995
0.520102
0.343065
0.156706
-0.416989
1.85048
1.77935
1.54598
1.18011
0.869401
0.660656
0.506652
0.343003
0.157498
-0.566901
1.50174
1.59934
1.38541
1.07791
0.814461
0.632869
0.494337
0.347005
0.156357
0.161375
1.17219
1.36919
1.19564
0.960518
0.756234
0.606178
0.483777
0.343366
0.15106
2.41758
1.03566
1.06821
0.952084
0.819566
0.69215
0.579688
0.470976
0.330688
0.13873
6.65237
1.40447
0.710604
0.634464
0.647726
0.621276
0.552236
0.452694
0.311392
0.122856
9.9778
2.57433
0.686618
0.392421
0.471433
0.543584
0.515256
0.422236
0.281949
0.100525
11.7627
2.57055
0.26556
0.0594837
0.358476
0.510214
0.47965
0.377215
0.239651
0.0696611
12.8616
2.77752
0.396596
0.155487
0.472008
0.571577
0.480748
0.346048
0.200211
0.0383096
14.1832
4.36558
1.28165
0.729517
0.791347
0.719244
0.523037
0.332944
0.167829
0.00877504
16.36
7.10927
2.70137
1.59264
1.24183
0.93539
0.606969
0.341924
0.146612
-0.0159109
19.2498
9.87401
4.33367
2.55741
1.77119
1.20121
0.723941
0.372692
0.139134
-0.0330817
21.7537
11.9353
5.85099
3.51698
2.33683
1.49687
0.863126
0.422033
0.145912
-0.0410053
23.0328
13.1182
7.04806
4.41686
2.91024
1.80844
1.0165
0.486281
0.166249
-0.038876
22.9727
13.4973
7.90882
5.26409
3.4995
2.1437
1.19055
0.56948
0.203797
-0.0250183
22.4198
13.7223
8.68023
6.12519
4.12587
2.52259
1.40751
0.689254
0.278248
0.00632886
111.783
97.8372
84.0726
71.0674
59.1282
48.3481
38.7668
30.0903
20.0793
4.97458
112.763
99.4749
85.9742
72.9679
60.9249
50.0442
40.5111
32.2531
23.5882
11.4753
113.294
100.21
87.3294
75.0032
63.4647
52.8729
43.4432
35.2546
27.4683
18.3344
114.507
102.767
90.8083
78.9778
67.6214
57.0265
47.3936
38.7934
31.0868
23.8239
115.084
104.073
93.1527
82.4618
72.1151
62.1909
52.7288
43.8186
36.0007
29.822
115.434
104.707
94.2002
84.0387
74.3183
65.0891
56.33
48.0888
41.0473
36.0305
115.665
105.106
94.795
84.8631
75.4206
66.5403
58.2317
50.5642
44.2104
40.091
115.766
105.244
94.9781
85.1069
75.753
67.0073
58.9037
51.5105
45.3938
41.4342
115.715
105.029
94.6037
84.5848
75.1059
66.2735
58.1436
50.7743
44.5505
40.0978
115.592
104.645
93.9578
83.6805
73.9553
64.9053
56.6107
49.1161
42.6072
37.4124
234.117
229.753
228.185
227.743
227.652
227.904
228.638
230.019
232.17
234.309
225.555
222.536
221.486
221.447
221.672
222.157
223.088
224.695
227.166
229.642
216.042
213.867
213.094
213.218
213.649
214.353
215.478
217.247
219.861
222.459
205.736
203.708
203.004
203.2
203.744
204.573
205.797
207.605
210.174
212.693
194.413
192.503
191.848
192.036
192.568
193.38
194.556
196.25
198.605
200.895
182.046
180.321
179.728
179.869
180.322
181.034
182.069
183.547
185.576
187.541
168.7
167.238
166.744
166.847
167.203
167.775
168.614
169.808
171.435
173.006
154.567
153.45
153.095
153.173
153.428
153.841
154.448
155.31
156.481
157.608
139.958
139.244
139.037
139.086
139.231
139.466
139.817
140.318
141
141.656
125.433
125.089
124.949
124.902
124.889
124.911
124.978
125.097
125.275
125.451
246.549
246.787
247.04
247.258
247.556
248.056
248.609
248.945
248.951
248.437
246.622
246.953
247.356
247.662
247.863
248.198
248.622
248.538
247.72
246.7
246.632
247.028
247.473
247.784
247.867
247.998
248.28
247.92
246.531
245.276
246.51
247.012
247.442
247.673
247.606
247.491
247.526
247.103
245.809
244.651
246.018
246.672
247.061
247.166
246.988
246.71
246.533
246.173
245.364
244.575
244.81
245.653
245.989
245.953
245.721
245.436
245.239
245.068
244.828
244.542
242.465
243.562
243.898
243.782
243.572
243.406
243.372
243.503
243.81
244.05
238.581
240.066
240.535
240.468
240.384
240.435
240.672
241.167
241.98
242.719
233.107
235.161
235.87
235.937
236.062
236.408
236.996
237.9
239.205
240.417
227.753
229.618
230.363
230.529
230.836
231.453
232.395
233.746
235.593
237.301
246.934
246.714
246.675
246.485
246.417
246.301
245.925
245.669
245.568
245.714
246.892
246.713
246.67
246.488
246.416
246.311
245.934
245.651
245.375
245.734
246.865
246.709
246.662
246.483
246.408
246.313
245.934
245.596
245.138
245.816
246.846
246.702
246.649
246.47
246.394
246.308
245.922
245.504
244.919
246.002
246.834
246.693
246.633
246.451
246.374
246.294
245.895
245.394
244.785
246.24
246.828
246.681
246.614
246.427
246.349
246.267
245.857
245.301
244.759
246.348
246.826
246.667
246.594
246.4
246.319
246.228
245.821
245.251
244.806
246.015
246.829
246.649
246.572
246.37
246.284
246.185
245.805
245.255
244.827
244.779
246.838
246.626
246.548
246.338
246.247
246.153
245.837
245.331
244.649
242.003
246.856
246.602
246.519
246.303
246.214
246.15
245.94
245.457
243.971
237.287
246.894
246.575
246.478
246.246
246.149
246.078
245.869
245.129
242.438
233.738
247.009
246.555
246.439
246.194
246.094
246.116
246.065
245.329
242.173
231.795
247.25
246.561
246.401
246.116
246.016
246.077
246.056
245.232
241.879
230.53
247.701
246.616
246.372
246.031
245.88
245.811
245.608
244.528
240.474
229.31
248.539
246.682
246.395
245.94
245.668
245.305
244.738
243.222
238.003
227.455
250.375
246.749
246.503
245.869
245.376
244.643
243.652
241.564
235.37
224.909
254.255
247.06
246.658
245.811
245.021
243.929
242.555
239.952
233.306
222.58
262.56
248.198
246.933
245.769
244.647
243.239
241.553
238.663
232.068
221.324
280.12
250.933
247.584
245.804
244.294
242.587
240.645
237.732
231.625
221.354
306.091
254.979
249.089
246.017
244.002
241.965
239.76
236.915
231.354
221.881
236.412
221.063
210.441
201.127
190.966
179.662
167.267
153.895
139.849
125.72
230.024
217.73
208.578
199.857
189.92
178.681
166.335
153.084
139.361
125.887
223.491
214.126
205.947
197.42
187.705
176.865
165.112
152.612
139.595
126.417
218.375
210.868
202.876
194.027
184.184
173.419
161.927
149.984
137.922
126.088
212.978
206.584
198.592
189.498
179.829
169.692
159.141
148.274
137.219
126.127
207.381
202.085
194.825
186.355
177.356
167.901
157.982
147.659
137.039
126.252
203.586
199.146
192.556
184.66
176.127
167.041
157.42
147.346
136.935
126.325
202.304
198.046
191.7
184.088
175.775
166.839
157.32
147.317
136.958
126.39
203.631
198.916
192.466
184.881
176.549
167.534
157.896
147.75
137.236
126.504
206.305
200.87
194.133
186.422
177.926
168.695
158.812
148.409
137.633
126.641
112.186
112.356
112.44
112.291
111.784
111.423
111.239
111.523
111.516
111.267
89.6108
90.0741
90.2928
89.8592
88.4272
87.3408
86.7199
87.3816
87.4192
86.8327
68.7679
69.3956
69.657
68.9902
67.0509
65.3391
64.3189
64.8676
65.172
64.6169
50.6503
51.2568
51.4465
50.6234
48.6442
46.4782
45.1482
45.1836
45.922
45.6886
36.0052
36.4136
36.464
35.5826
33.7908
31.4748
29.831
29.2658
30.0734
30.2612
24.953
25.0566
24.9345
24.0114
22.4338
20.4044
18.6136
17.672
17.927
18.4271
17.0667
16.9163
16.7016
15.7106
14.2962
12.7928
11.3053
10.2404
9.90061
10.2671
11.5797
11.4028
11.3544
10.355
9.0361
8.03421
7.1426
6.29975
5.7113
5.62751
7.90569
7.81748
8.11354
7.2457
6.07965
5.48917
5.16037
4.77578
4.29185
3.91211
6.03689
5.83198
6.2175
5.47967
4.6103
4.3343
4.35839
4.3491
4.19655
3.80056
5.26973
5.03294
5.1154
4.42105
3.88884
3.83275
3.98264
4.12545
4.2466
4.30327
4.84253
4.73345
4.45616
3.78982
3.50401
3.59141
3.79469
3.96233
4.08211
4.16837
4.46394
4.4192
3.98747
3.43692
3.31699
3.47993
3.70474
3.88351
4.0015
4.06185
4.00943
3.95451
3.54844
3.19712
3.20715
3.41048
3.62343
3.78076
3.87935
3.92067
3.46141
3.36818
3.0951
2.97544
3.09232
3.30918
3.49934
3.63699
3.71829
3.74202
2.81016
2.71607
2.65688
2.74738
2.94416
3.14862
3.31445
3.43392
3.50086
3.51428
2.08687
2.10369
2.23885
2.47364
2.70939
2.90794
3.06323
3.17697
3.24329
3.25877
1.41408
1.53228
1.78379
2.07695
2.33302
2.54747
2.72341
2.86216
2.94975
2.97786
0.73747
0.872223
1.14722
1.47648
1.78657
2.05847
2.29613
2.48115
2.58605
2.6237
0.0650082
-0.0199895
0.215523
0.627615
1.0485
1.43112
1.75569
1.97098
2.07429
2.13755
3.65743
3.70084
3.57021
3.24394
2.59274
1.90323
1.31135
0.838976
0.453726
0.0906094
3.73003
3.67452
3.51962
3.22792
2.5533
1.84732
1.25955
0.801465
0.430586
0.0885618
3.75636
3.56829
3.40772
3.17373
2.5093
1.79469
1.21067
0.766414
0.409845
0.0883963
3.71712
3.39175
3.25475
3.07115
2.45203
1.7436
1.16475
0.733957
0.391655
0.0896491
3.6091
3.18335
3.08628
2.91755
2.36959
1.68952
1.12107
0.704088
0.376153
0.092385
3.44551
2.98545
2.92553
2.7333
2.25565
1.62854
1.07944
0.677211
0.363624
0.0966498
3.25197
2.81812
2.78176
2.5504
2.11303
1.55692
1.03922
0.653723
0.354352
0.102365
3.04484
2.68129
2.65564
2.39313
1.95699
1.47196
0.999053
0.633683
0.34849
0.109322
2.82264
2.57043
2.5428
2.26867
1.80891
1.37488
0.957019
0.616679
0.346022
0.117189
2.57829
2.48829
2.43694
2.1709
1.68359
1.27383
0.910963
0.60169
0.346735
0.125535
5.41875
3.97237
3.27377
2.89405
2.41248
1.88986
1.38909
0.934745
0.541186
0.130411
4.61491
3.75177
3.31003
2.95533
2.45318
1.89869
1.3764
0.915857
0.519329
0.118843
3.94495
3.6598
3.37089
3.0249
2.49261
1.90659
1.36505
0.898967
0.502538
0.109002
3.62509
3.6603
3.45643
3.10535
2.53394
1.91428
1.35419
0.883258
0.487951
0.101198
3.61037
3.70352
3.55832
3.19792
2.57999
1.92221
1.3425
0.867096
0.473773
0.0952821
112.016
88.9494
67.8985
50.1268
36.1119
25.7915
18.6214
13.7458
10.5638
8.7496
111.795
88.387
67.1921
49.3923
35.3096
24.7872
17.3176
12.2123
9.06939
7.56918
111.609
87.9066
66.5537
48.6516
34.3983
23.6144
15.8972
10.6773
7.53264
6.07458
111.399
87.3328
65.7133
47.5866
33.0735
22.0202
14.1255
8.89263
5.80711
4.43143
111.144
86.6047
64.5838
46.1134
31.2732
19.9524
11.9566
6.92024
4.43714
3.62134
243.764
243.802
243.922
244.093
244.306
244.315
243.81
243.108
243.212
242.988
243.976
244.048
244.162
244.352
244.622
244.797
244.578
243.928
243.671
243.564
244.173
244.221
244.334
244.531
244.816
245.078
245.052
244.545
244.117
244.067
244.415
244.448
244.546
244.72
244.977
245.267
245.373
245.103
244.717
244.649
244.69
244.708
244.789
244.939
245.154
245.419
245.624
245.626
245.461
245.37
244.982
244.995
245.064
245.186
245.36
245.591
245.862
246.105
246.211
246.2
245.256
245.275
245.357
245.492
245.669
245.899
246.2
246.563
246.867
246.99
245.542
245.56
245.657
245.848
246.103
246.404
246.765
247.179
247.545
247.726
245.924
245.953
246.03
246.252
246.624
247.077
247.584
248.105
248.45
248.412
246.317
246.427
246.528
246.719
247.118
247.689
248.292
248.843
249.196
248.991
136.498
136.239
136.217
136.479
136.261
135.863
135.322
135.151
135.222
135.387
160.949
160.352
160.374
161.011
160.359
159.236
157.772
157.316
157.521
157.98
183.194
182.627
182.914
183.437
182.387
180.641
178.673
177.984
178.233
178.856
202.16
201.914
202.633
202.643
201.285
199.088
197.08
196.236
196.414
197.016
217.631
217.806
218.59
218.002
216.334
213.99
212.168
211.266
211.305
211.71
229.511
229.993
230.223
229.263
227.456
225.399
223.789
222.843
222.71
222.811
237.71
238.047
237.684
236.61
235.118
233.59
232.139
231.123
230.898
230.746
242.366
242.246
241.637
240.803
239.924
238.906
237.553
236.527
236.468
236.291
244.09
243.672
243.178
242.82
242.523
241.936
240.747
239.851
240.137
240.052
244.229
243.804
243.65
243.672
243.743
243.501
242.627
241.865
242.251
242.061
254.842
246.868
247.496
246.281
246.032
245.525
244.992
244.63
244.499
244.538
252.008
246.805
247.31
246.259
246.084
245.588
245.008
244.663
244.576
244.509
250.086
246.811
247.087
246.255
246.14
245.656
245.051
244.756
244.745
244.541
248.899
246.84
246.875
246.274
246.198
245.73
245.132
244.91
244.975
244.647
248.213
246.843
246.736
246.312
246.254
245.813
245.26
245.102
245.217
244.818
247.764
246.801
246.699
246.362
246.307
245.906
245.428
245.29
245.424
245.025
247.45
246.746
246.698
246.406
246.353
246.009
245.604
245.445
245.579
245.235
247.234
246.718
246.69
246.44
246.386
246.114
245.751
245.555
245.679
245.429
247.09
246.712
246.681
246.464
246.401
246.205
245.849
245.623
245.717
245.587
246.996
246.713
246.677
246.478
246.411
246.269
245.902
245.659
245.683
245.683
317.346
253.752
249.905
246.967
246.137
245.565
245.247
244.927
244.233
242.716
295.614
251.363
248.784
246.735
246.054
245.536
245.203
244.897
244.446
243.518
277.173
249.207
248.187
246.562
246.013
245.518
245.153
244.839
244.528
244.191
265.77
247.862
247.863
246.432
245.995
245.506
245.095
244.757
244.519
244.519
258.998
247.132
247.641
246.323
245.993
245.498
245.027
244.655
244.473
244.552
239.296
237.446
234.231
229.323
222.121
211.767
197.716
179.911
158.835
135.754
240.478
238.943
235.768
230.632
223.13
212.573
198.453
180.62
159.399
135.976
241.991
240.494
237.313
232.06
224.308
213.488
199.197
181.26
159.88
136.162
243.653
242.248
239.12
233.845
225.911
214.818
200.264
182.101
160.454
136.372
244.442
243.605
241.103
236.032
227.989
216.622
201.739
183.231
161.181
136.625
)
;

boundaryField
{
    left
    {
        type            zeroGradient;
    }
    right
    {
        type            fixedValue;
        value           uniform 0;
    }
    down
    {
        type            zeroGradient;
    }
    up
    {
        type            zeroGradient;
    }
    cylinder
    {
        type            zeroGradient;
    }
    defaultFaces
    {
        type            empty;
    }
}


// ************************************************************************* //
