/*--------------------------------*- C++ -*----------------------------------*\
  =========                 |
  \\      /  F ield         | OpenFOAM: The Open Source CFD Toolbox
   \\    /   O peration     | Website:  https://openfoam.org
    \\  /    A nd           | Version:  13
     \\/     M anipulation  |
\*---------------------------------------------------------------------------*/
FoamFile
{
    format      ascii;
    class       volVectorField;
    location    "0.6525";
    object      U;
}
// * * * * * * * * * * * * * * * * * * * * * * * * * * * * * * * * * * * * * //

dimensions      [0 1 -1 0 0 0 0];

internalField   nonuniform List<vector> 
1800
(
(0.00554725 -0.0171767 2.47182e-19)
(0.527488 -0.451521 1.1636e-19)
(1.04429 -0.859811 -1.0932e-18)
(1.33263 -1.05333 1.02876e-18)
(1.44779 -1.09181 2.00509e-18)
(1.48009 -1.05925 7.3408e-19)
(1.48081 -1.00393 -3.79404e-19)
(1.47045 -0.945829 -7.83936e-19)
(1.45936 -0.88473 -4.07902e-19)
(1.42651 -0.83342 -2.75619e-19)
(0.0283764 -0.0338681 1.60225e-19)
(0.631728 -0.457276 -4.47369e-19)
(1.2048 -0.844095 1.03934e-20)
(1.51307 -1.0211 -8.11729e-19)
(1.62768 -1.05137 2.26506e-19)
(1.65275 -1.01576 1.11996e-18)
(1.64575 -0.959402 -3.14484e-19)
(1.62963 -0.900002 2.26681e-19)
(1.61395 -0.838871 -2.35985e-19)
(1.59186 -0.795175 1.62447e-19)
(0.0586528 -0.0502639 -5.12654e-20)
(0.742734 -0.451941 1.37018e-19)
(1.36566 -0.808358 7.5382e-19)
(1.68804 -0.965467 -4.94373e-19)
(1.79849 -0.988431 -1.92386e-18)
(1.81401 -0.952966 2.85084e-19)
(1.79714 -0.90028 4.04266e-19)
(1.772 -0.846266 -1.57875e-19)
(1.74759 -0.792503 -7.17489e-22)
(1.71652 -0.750913 -5.27332e-20)
(0.0963851 -0.0644297 4.73676e-20)
(0.858507 -0.432922 -1.60485e-19)
(1.52354 -0.750463 -5.49884e-19)
(1.85446 -0.884184 1.17026e-19)
(1.95844 -0.899314 4.46068e-19)
(1.96428 -0.864106 5.33444e-20)
(1.93834 -0.814697 -1.62412e-20)
(1.90528 -0.764521 3.56346e-19)
(1.87357 -0.714551 6.86593e-20)
(1.83874 -0.677771 7.30176e-20)
(0.14125 -0.0749024 1.10077e-19)
(0.976352 -0.399701 2.66958e-19)
(1.67409 -0.672036 -1.27774e-19)
(2.00716 -0.780914 -1.5239e-19)
(2.10217 -0.789592 -1.41683e-18)
(2.09807 -0.756922 1.06304e-20)
(2.0637 -0.713321 6.44792e-19)
(2.02373 -0.669677 2.81115e-19)
(1.98583 -0.626834 4.04395e-20)
(1.94695 -0.59452 -1.15852e-21)
(0.192074 -0.0797939 -1.18794e-19)
(1.09267 -0.350886 3.96508e-19)
(1.81275 -0.573185 1.99866e-18)
(2.14174 -0.65659 -1.24383e-18)
(2.22584 -0.660044 -1.03364e-18)
(2.21198 -0.631186 1.27229e-18)
(2.17006 -0.594339 -8.44963e-19)
(2.12402 -0.557881 -8.83857e-19)
(2.08072 -0.5223 4.72207e-19)
(2.03837 -0.495676 -3.32187e-20)
(0.247353 -0.0777062 -1.01557e-19)
(1.20376 -0.28655 -9.50018e-19)
(1.93535 -0.456109 -5.24349e-18)
(2.25448 -0.514874 2.01829e-18)
(2.32641 -0.515095 2.61915e-18)
(2.30357 -0.4917 -6.02225e-21)
(2.25544 -0.462917 -2.39442e-18)
(2.20473 -0.434716 -1.6128e-20)
(2.15738 -0.407304 1.65779e-18)
(2.11239 -0.386799 2.88346e-19)
(0.304883 -0.067449 9.49216e-20)
(1.30542 -0.207163 7.20276e-19)
(2.03772 -0.323184 3.90834e-18)
(2.342 -0.35915 -1.19154e-19)
(2.4012 -0.358294 -1.68279e-18)
(2.37046 -0.341676 -4.13392e-19)
(2.31754 -0.321863 0)
(2.26344 -0.302618 8.82619e-19)
(2.21324 -0.283916 1.73228e-20)
(2.16644 -0.270208 -4.21075e-19)
(0.362014 -0.0484086 6.21674e-21)
(1.39364 -0.114251 1.59739e-18)
(2.11639 -0.17777 3.33129e-18)
(2.40197 -0.193611 -2.79257e-18)
(2.44875 -0.19391 -1.68011e-18)
(2.41153 -0.185097 4.30459e-19)
(2.35535 -0.174898 -1.69231e-18)
(2.29925 -0.165033 -1.14795e-18)
(2.24743 -0.155327 1.21542e-18)
(2.19977 -0.148695 7.87217e-19)
(0.41578 -0.0206658 1.02718e-19)
(1.46474 -0.0100984 1.08115e-18)
(2.16846 -0.0235566 5.9706e-19)
(2.43308 -0.0226062 -3.90468e-18)
(2.46829 -0.0260981 4.46946e-20)
(2.42623 -0.025763 4.03176e-18)
(2.36839 -0.0255129 -2.03029e-18)
(2.31161 -0.0251889 -1.12398e-18)
(2.25943 -0.0245416 3.50415e-19)
(2.21188 -0.0250656 -6.4965e-19)
(-0.00493985 0.00259263 1.75194e-19)
(-0.00275877 -0.0866924 -1.00317e-19)
(0.0432933 -0.177537 3.86743e-22)
(0.105515 -0.227444 -1.80409e-20)
(0.173529 -0.244316 4.27241e-21)
(0.239624 -0.244327 3.47029e-19)
(0.300757 -0.237748 1.70328e-19)
(0.356554 -0.229292 -5.42546e-19)
(0.406732 -0.220764 2.56872e-21)
(0.454566 -0.21403 -7.96774e-21)
(-0.00667554 0.013346 1.15978e-21)
(0.0102485 -0.131076 1.35958e-20)
(0.0716904 -0.284542 -6.5129e-20)
(0.142209 -0.368886 -2.1563e-20)
(0.212708 -0.395892 -6.36409e-20)
(0.278401 -0.393502 2.4655e-19)
(0.337977 -0.379712 -3.60918e-19)
(0.39193 -0.362787 -4.4293e-19)
(0.440106 -0.345974 4.52077e-19)
(0.486951 -0.333558 -1.35208e-19)
(-0.0100022 0.0225534 -7.23467e-20)
(0.0308973 -0.175243 9.23399e-20)
(0.117835 -0.388048 8.52177e-20)
(0.202211 -0.504508 3.45298e-19)
(0.276897 -0.540581 5.92819e-21)
(0.341955 -0.535512 3.67838e-19)
(0.398993 -0.514628 -1.33866e-19)
(0.449924 -0.489507 -3.78013e-19)
(0.494824 -0.464815 3.79659e-19)
(0.540146 -0.446924 2.47189e-19)
(-0.014413 0.0295805 -1.19231e-19)
(0.0596432 -0.218855 -2.29567e-20)
(0.181549 -0.486167 2.9863e-20)
(0.284825 -0.631382 -1.02769e-19)
(0.365099 -0.67502 -1.79118e-20)
(0.429153 -0.666918 5.17068e-20)
(0.482646 -0.639137 -2.641e-20)
(0.529401 -0.606225 6.43918e-20)
(0.569837 -0.57423 -1.01306e-20)
(0.613112 -0.551123 4.90158e-21)
(-0.0191929 0.0337712 0)
(0.0970701 -0.26157 9.6894e-20)
(0.262499 -0.577033 8.62153e-19)
(0.388968 -0.746641 -6.24869e-19)
(0.475841 -0.795957 -7.87833e-19)
(0.538374 -0.784431 2.32322e-19)
(0.587316 -0.750064 -5.13402e-20)
(0.628811 -0.709921 -5.61514e-21)
(0.663744 -0.671368 0)
(0.704472 -0.643318 -1.93642e-21)
(-0.0233958 0.0345073 7.99142e-20)
(0.143837 -0.302938 1.91519e-19)
(0.360116 -0.658766 3.34447e-19)
(0.513082 -0.847535 2.12203e-19)
(0.607075 -0.900348 -1.6841e-19)
(0.667426 -0.885043 -4.60083e-19)
(0.710862 -0.844554 7.96224e-19)
(0.746149 -0.797921 1.75798e-20)
(0.774773 -0.753691 -8.72537e-19)
(0.812458 -0.720912 -8.37733e-21)
(-0.025848 0.03131 -1.14693e-20)
(0.200611 -0.342286 1.80662e-19)
(0.4735 -0.729447 6.93749e-22)
(0.655053 -0.931492 9.90779e-21)
(0.7561 -0.985485 4.93635e-19)
(0.813451 -0.966175 -6.98169e-19)
(0.850514 -0.920243 -6.931e-19)
(0.878826 -0.868079 -7.25096e-19)
(0.900672 -0.819132 7.17732e-19)
(0.934616 -0.78156 9.55723e-19)
(-0.0251894 0.023939 -1.90674e-19)
(0.267891 -0.378623 5.33321e-21)
(0.601296 -0.787146 2.76382e-19)
(0.812164 -0.996277 -2.5741e-19)
(0.919594 -1.04928 5.87127e-19)
(0.973 -1.0261 1.39507e-18)
(1.00294 -0.975846 1.0855e-18)
(1.02366 -0.919637 -8.70911e-19)
(1.03864 -0.867132 -5.92197e-19)
(1.06698 -0.824343 8.87474e-19)
(-0.020208 0.0126821 -2.485e-19)
(0.345445 -0.41044 -6.87779e-19)
(0.741074 -0.829796 1.85412e-18)
(0.980463 -1.03985 1.779e-18)
(1.09292 -1.09001 -1.32609e-18)
(1.14126 -1.06363 1.22265e-18)
(1.16334 -1.01085 2.7196e-19)
(1.17579 -0.953076 -1.68323e-18)
(1.18386 -0.898706 -5.83802e-19)
(1.20153 -0.850635 8.29574e-19)
(-0.0102262 -0.00141423 1.80019e-19)
(0.43211 -0.435523 -6.45004e-19)
(0.889335 -0.854856 -8.88149e-19)
(1.15474 -1.05969 1.50498e-18)
(1.26975 -1.1051 9.3098e-19)
(1.31099 -1.07589 -9.38239e-19)
(1.32332 -1.02197 -6.95119e-19)
(1.32546 -0.964562 4.52412e-19)
(1.32511 -0.908789 -6.49915e-19)
(1.32268 -0.856914 -2.9039e-19)
(0.629429 -0.174263 -3.23654e-19)
(0.805014 -0.132172 -4.10769e-19)
(0.890283 -0.103692 6.46815e-20)
(0.940324 -0.081268 3.15718e-21)
(0.969393 -0.0630646 2.01602e-20)
(0.986761 -0.0481389 4.02693e-20)
(0.997538 -0.0358685 5.10387e-20)
(1.00435 -0.0256392 1.89457e-22)
(1.00845 -0.0174766 -7.14536e-20)
(1.01116 -0.00717967 -1.79491e-21)
(0.647184 -0.248407 -7.15381e-20)
(0.817121 -0.170806 -3.70285e-20)
(0.898595 -0.124512 2.55753e-20)
(0.946658 -0.0929951 3.96323e-21)
(0.974428 -0.0699532 8.85351e-20)
(0.990819 -0.0522761 0)
(1.00084 -0.0383997 4.97031e-20)
(1.00707 -0.0271896 -1.09319e-20)
(1.01078 -0.01842 1.41091e-22)
(1.01317 -0.007546 1.45858e-20)
(0.67554 -0.319879 8.57077e-19)
(0.83462 -0.208822 -2.37578e-19)
(0.909649 -0.145152 1.4403e-19)
(0.954376 -0.104623 -3.60956e-20)
(0.98022 -0.0767444 -7.75404e-21)
(0.995326 -0.0563172 3.14476e-21)
(1.00441 -0.0408383 0)
(1.00996 -0.0286595 0)
(1.01323 -0.0192985 3.90248e-20)
(1.01526 -0.0078832 0)
(0.714454 -0.38721 2.97648e-20)
(0.857209 -0.245705 7.04753e-20)
(0.923434 -0.165402 4.74206e-20)
(0.96348 -0.11604 0)
(0.986774 -0.0833701 -4.46672e-20)
(1.00027 -0.0602204 2.68242e-20)
(1.00825 -0.0431582 0)
(1.01302 -0.0300317 -7.92812e-20)
(1.01579 -0.0201011 0)
(1.01743 -0.00818649 -1.58108e-20)
(0.76387 -0.448967 5.41676e-19)
(0.884527 -0.280938 3.00487e-19)
(0.939908 -0.185054 -2.83794e-20)
(0.973975 -0.127141 0)
(0.994078 -0.0897663 -1.69148e-20)
(1.00565 -0.0639449 -5.64953e-20)
(1.01233 -0.0453327 8.24554e-22)
(1.01623 -0.0312899 1.75045e-21)
(1.01845 -0.0208168 2.27784e-20)
(1.01966 -0.00845114 7.77331e-22)
(0.823495 -0.503766 1.87536e-18)
(0.916145 -0.314141 -1.12482e-19)
(0.958986 -0.203957 1.48401e-20)
(0.985855 -0.137829 1.12142e-19)
(1.00213 -0.0958736 2.65096e-20)
(1.01144 -0.0674509 -2.97586e-20)
(1.01666 -0.0473361 -1.03412e-19)
(1.01958 -0.032416 1.35876e-19)
(1.02117 -0.0214359 -5.4724e-22)
(1.02196 -0.0086749 3.42546e-20)
(0.892191 -0.549935 -5.06615e-19)
(0.951173 -0.344599 -3.50667e-20)
(0.980427 -0.221999 4.86038e-20)
(0.999085 -0.148056 -2.39438e-21)
(1.0109 -0.101656 3.89294e-20)
(1.01763 -0.0707085 -2.17668e-21)
(1.02121 -0.0491455 4.23378e-20)
(1.02304 -0.0333936 -2.78152e-21)
(1.02398 -0.0219471 -2.6576e-20)
(1.02427 -0.00885212 -1.66337e-21)
(0.968156 -0.585633 5.25066e-19)
(0.987413 -0.370957 -3.89871e-19)
(1.0031 -0.238502 0)
(1.01332 -0.157522 1.08282e-21)
(1.02026 -0.106984 -3.99093e-20)
(1.02416 -0.0736594 2.8777e-21)
(1.02594 -0.0507324 1.40987e-19)
(1.02661 -0.0342071 -5.16465e-20)
(1.02682 -0.0223399 1.31182e-21)
(1.02663 -0.00897819 1.75563e-20)
(1.05457 -0.613329 -1.66761e-18)
(1.02453 -0.395366 1.03627e-18)
(1.02531 -0.254243 -1.20128e-20)
(1.02749 -0.166359 -2.97134e-21)
(1.02969 -0.111787 1.1209e-21)
(1.03078 -0.0762126 5.49325e-20)
(1.03075 -0.0520352 -3.8102e-20)
(1.03022 -0.0348218 2.89305e-22)
(1.02967 -0.0225973 -3.26595e-21)
(1.02899 -0.00905277 -3.0374e-20)
(1.15754 -0.639682 8.14503e-19)
(1.07262 -0.419939 1.40072e-18)
(1.05023 -0.273196 1.38596e-19)
(1.04205 -0.177829 8.65132e-20)
(1.03901 -0.118031 8.9419e-20)
(1.03726 -0.079407 7.52295e-20)
(1.0355 -0.0535573 3.6755e-20)
(1.0338 -0.0354585 0)
(1.0325 -0.0228102 3.98852e-20)
(1.03134 -0.00908571 -3.74842e-20)
(1.31181 -0.626899 1.99012e-18)
(1.17492 -0.419303 -6.55151e-19)
(1.10882 -0.274793 8.14012e-19)
(1.07552 -0.179628 -3.98057e-20)
(1.05852 -0.119102 -4.73175e-20)
(1.04922 -0.0797891 5.9058e-20)
(1.04323 -0.053506 4.893e-20)
(1.03907 -0.0352108 -3.94267e-20)
(1.03635 -0.0225255 1.92072e-20)
(1.03439 -0.00895234 2.1886e-20)
(1.36212 -0.513199 -2.85076e-19)
(1.20674 -0.357622 -1.12472e-19)
(1.13672 -0.243902 -3.6171e-19)
(1.09783 -0.164511 3.79199e-20)
(1.07457 -0.111026 -1.92394e-19)
(1.06042 -0.0750472 -1.66908e-19)
(1.05108 -0.0505221 -1.35057e-19)
(1.0447 -0.033299 1.75696e-20)
(1.04064 -0.0213203 -7.49623e-20)
(1.03781 -0.00846445 -8.37851e-21)
(1.41938 -0.441771 -2.53979e-19)
(1.25665 -0.320758 5.09535e-20)
(1.17237 -0.223404 -8.14725e-20)
(1.12231 -0.152463 -7.11067e-36)
(1.09103 -0.10341 3.73563e-22)
(1.07153 -0.0700234 7.19028e-34)
(1.05874 -0.0471312 -5.12124e-21)
(1.05013 -0.0310289 -1.61293e-34)
(1.04473 -0.0198454 2.16052e-21)
(1.04102 -0.00787292 -9.9841e-21)
(1.45548 -0.361996 2.55648e-34)
(1.29179 -0.272233 1.17259e-19)
(1.20064 -0.194822 4.18101e-19)
(1.14315 -0.135504 0)
(1.10563 -0.0928295 1.79317e-19)
(1.0816 -0.0631609 1.18754e-19)
(1.06574 -0.0425892 8.50311e-20)
(1.05511 -0.0280453 -8.79362e-34)
(1.04847 -0.017938 4.00651e-20)
(1.04395 -0.00711647 1.15523e-20)
(1.47797 -0.291497 -2.26396e-19)
(1.31863 -0.22577 -5.68763e-21)
(1.22361 -0.164972 0)
(1.16072 -0.116467 0)
(1.11828 -0.0804721 0)
(1.09045 -0.0549963 0)
(1.07194 -0.0371577 -2.4721e-21)
(1.05954 -0.024483 -9.83791e-34)
(1.05181 -0.0156656 2.87802e-21)
(1.04654 -0.00621716 1.56588e-33)
(1.49183 -0.226443 -2.60054e-19)
(1.33849 -0.179779 0)
(1.2416 -0.133772 0)
(1.17497 -0.0956946 0)
(1.1288 -0.0666411 0)
(1.09792 -0.0457347 0)
(1.07722 -0.0309629 5.78394e-21)
(1.06331 -0.0204186 -4.27519e-20)
(1.05465 -0.013073 3.19205e-21)
(1.04875 -0.00519027 3.23454e-21)
(1.49989 -0.166504 0)
(1.35259 -0.134955 -4.15156e-20)
(1.25507 -0.101951 1.25142e-19)
(1.18597 -0.0737543 0)
(1.13709 -0.0517147 8.4869e-20)
(1.10388 -0.0356249 5.4997e-20)
(1.08145 -0.0241654 4.30504e-20)
(1.06636 -0.015951 2.39867e-20)
(1.05694 -0.01022 -2.74813e-20)
(1.0505 -0.00406027 2.12218e-20)
(1.5032 -0.110822 3.42141e-20)
(1.36087 -0.0905856 1.97188e-20)
(1.26352 -0.0690872 3.36202e-20)
(1.19308 -0.0504102 1.36301e-35)
(1.14248 -0.0355285 -1.29056e-20)
(1.10769 -0.0245476 2.08681e-34)
(1.08407 -0.0166793 7.43983e-21)
(1.06813 -0.0110186 1.89945e-20)
(1.05817 -0.00705901 3.41821e-21)
(1.05136 -0.00280087 -1.59545e-20)
(1.4838 -0.0547156 -9.6176e-20)
(1.34432 -0.0492668 1.53822e-19)
(1.24925 -0.0388231 4.80574e-20)
(1.18003 -0.0287594 0)
(1.12989 -0.0204014 7.81435e-21)
(1.09516 -0.0141434 7.11032e-21)
(1.07148 -0.00962931 1.25743e-20)
(1.0555 -0.00637107 3.25118e-21)
(1.04551 -0.00408268 -1.23518e-21)
(1.03865 -0.00161803 1.69221e-20)
(1.10875 -0.00245184 0)
(1.02104 -0.00652312 0)
(0.955321 -0.00608724 0)
(0.905006 -0.0047257 0)
(0.8678 -0.00339758 0)
(0.84185 -0.0023773 0)
(0.824068 -0.00162999 7.22586e-21)
(0.812009 -0.00108953 -2.69369e-35)
(0.804447 -0.000685369 3.62988e-21)
(0.799306 -0.000260455 1.56436e-20)
(2.12757 -0.0238147 3.21331e-19)
(2.11809 -0.129753 1.41371e-20)
(2.0908 -0.233763 -2.46516e-20)
(2.04591 -0.333355 -1.29435e-20)
(1.98519 -0.426939 -3.54658e-20)
(1.90791 -0.512898 -1.39036e-20)
(1.82361 -0.583712 1.65955e-19)
(1.71106 -0.659721 -1.32662e-20)
(1.63188 -0.678366 0)
(1.46518 -0.76265 -4.90411e-19)
(2.04226 -0.0168196 1.3842e-19)
(2.03444 -0.096183 5.58152e-21)
(2.01329 -0.174733 -4.28305e-20)
(1.97779 -0.25105 2.23919e-20)
(1.93308 -0.323286 -4.22219e-20)
(1.8699 -0.394586 -1.34636e-19)
(1.81303 -0.445323 2.80548e-19)
(1.71753 -0.526105 1.36868e-19)
(1.66594 -0.525115 -1.84327e-19)
(1.54905 -0.617665 -1.68954e-19)
(1.96797 -0.0130362 -4.71648e-20)
(1.96202 -0.07639 1.44141e-19)
(1.94561 -0.138725 7.11136e-20)
(1.91698 -0.199449 -1.01751e-19)
(1.88238 -0.256061 6.36923e-20)
(1.83064 -0.314823 -1.33921e-19)
(1.78719 -0.352133 -1.07766e-19)
(1.71188 -0.424836 2.23976e-19)
(1.66571 -0.420576 2.18499e-19)
(1.5811 -0.503789 2.11526e-19)
(1.9115 -0.012159 -2.53535e-19)
(1.90663 -0.0605198 -1.18316e-19)
(1.89294 -0.108271 9.02892e-20)
(1.86907 -0.155433 -3.19871e-21)
(1.84024 -0.199267 2.51071e-20)
(1.79783 -0.246487 -2.27028e-20)
(1.76063 -0.275433 -1.25955e-19)
(1.70208 -0.335355 5.09513e-20)
(1.65932 -0.332858 -9.23307e-20)
(1.59604 -0.40113 -2.23294e-20)
(1.86724 -0.0103441 -3.06113e-20)
(1.86321 -0.0472362 1.32167e-19)
(1.85146 -0.0835915 4.31464e-20)
(1.83125 -0.119641 -2.21496e-20)
(1.80604 -0.153088 -1.57318e-20)
(1.77087 -0.189583 7.55737e-20)
(1.73726 -0.212303 -2.49807e-20)
(1.69048 -0.258547 5.14104e-20)
(1.65101 -0.258652 5.4479e-20)
(1.60079 -0.311449 2.10686e-20)
(1.83378 -0.00992015 -1.40258e-19)
(1.83042 -0.0369307 -2.01418e-20)
(1.82001 -0.0635537 -5.91206e-20)
(1.80234 -0.0900712 1.29818e-20)
(1.77948 -0.114832 8.82431e-20)
(1.74928 -0.141951 1.55192e-20)
(1.71798 -0.159594 -3.69784e-21)
(1.67873 -0.193792 7.01293e-20)
(1.64207 -0.195838 1.32037e-19)
(1.5997 -0.235142 5.79326e-20)
(1.80941 -0.00998253 -2.5547e-20)
(1.80661 -0.0284732 -8.38592e-20)
(1.79721 -0.0466777 -1.38127e-19)
(1.78134 -0.0649053 -1.65412e-19)
(1.76007 -0.0821024 7.47589e-20)
(1.73312 -0.101044 2.28146e-20)
(1.70337 -0.113927 -4.13305e-20)
(1.66871 -0.138001 -3.11405e-20)
(1.63423 -0.140729 7.47412e-20)
(1.59624 -0.168888 2.67717e-20)
(1.78917 -0.00940035 5.7292e-20)
(1.78749 -0.0203655 -3.72337e-20)
(1.77944 -0.0310822 5.73861e-21)
(1.76544 -0.0418901 -2.56864e-20)
(1.74588 -0.0522951 -3.19511e-20)
(1.7215 -0.0640944 -2.74274e-20)
(1.69308 -0.0724503 -5.37542e-20)
(1.66125 -0.0883743 6.28605e-20)
(1.62826 -0.0906214 -3.62886e-20)
(1.59238 -0.110796 8.71417e-21)
(1.71651 -0.0140092 -1.02403e-19)
(1.71656 -0.0162503 -5.26909e-20)
(1.71285 -0.0181511 7.98224e-20)
(1.70496 -0.0200684 -3.91665e-20)
(1.69248 -0.0218509 5.91553e-21)
(1.67638 -0.0249962 -4.34194e-20)
(1.65537 -0.0262314 3.72301e-20)
(1.6323 -0.0337729 -2.75383e-20)
(1.60391 -0.0326209 -4.47579e-20)
(1.57723 -0.0451013 -9.15548e-20)
(1.12237 -0.00875972 8.15986e-20)
(1.11432 -0.00562968 6.34798e-20)
(1.10936 -0.00251313 6.00011e-20)
(1.10797 0.000524862 8.73084e-20)
(1.10916 0.00339193 4.42055e-21)
(1.11383 0.00578769 -9.78121e-20)
(1.11752 0.0082831 1.12773e-20)
(1.12742 0.00816801 4.77463e-20)
(1.12536 0.0117717 -8.6139e-20)
(1.14205 0.00699136 9.88823e-20)
(1.38734 0.742089 -2.8175e-19)
(1.37146 0.787836 -7.85508e-21)
(1.37463 0.846699 -1.99493e-18)
(1.38333 0.912273 1.16171e-20)
(1.39284 0.981131 2.27837e-18)
(1.39909 1.05035 -3.53242e-20)
(1.38437 1.10581 -1.72624e-18)
(1.28622 1.08967 4.71148e-19)
(0.981826 0.875649 -8.57482e-19)
(0.407037 0.367087 2.30503e-20)
(1.56181 0.726685 0)
(1.55159 0.772397 1.37367e-18)
(1.54931 0.824956 2.5361e-18)
(1.55429 0.885798 -1.24324e-18)
(1.56451 0.952184 -2.7334e-18)
(1.57424 1.02032 -1.84164e-19)
(1.56152 1.07503 -2.41582e-19)
(1.45339 1.05821 1.04472e-18)
(1.10797 0.847026 1.97969e-18)
(0.455485 0.349802 3.95296e-19)
(1.6964 0.710205 1.737e-19)
(1.70029 0.753224 0)
(1.70497 0.800196 -1.31963e-19)
(1.71479 0.854815 5.92332e-19)
(1.7299 0.915697 8.00348e-20)
(1.74462 0.979164 -2.1894e-18)
(1.73394 1.0297 1.84036e-18)
(1.61485 1.0101 1.40727e-18)
(1.22744 0.803884 -1.45012e-18)
(0.499003 0.325237 -3.2789e-19)
(1.80327 0.675696 2.95468e-19)
(1.81977 0.714356 9.32491e-21)
(1.83597 0.75667 1.77201e-19)
(1.85587 0.805795 -2.41958e-19)
(1.87985 0.860956 -1.32286e-18)
(1.9021 0.918719 -1.12806e-18)
(1.89435 0.963715 1.62805e-18)
(1.76354 0.940577 1.51355e-18)
(1.33309 0.742395 0)
(0.532058 0.291081 0)
(1.89671 0.616271 -3.79677e-19)
(1.92288 0.651053 -9.77194e-19)
(1.94986 0.68969 -5.03466e-19)
(1.98028 0.734045 -4.33323e-20)
(2.01395 0.783528 0)
(2.04428 0.835024 1.84566e-19)
(2.03907 0.873766 2.18369e-19)
(1.89486 0.84738 2.74197e-19)
(1.4203 0.661899 -3.87945e-19)
(0.552 0.248502 -9.34528e-20)
(1.98298 0.535636 5.0716e-19)
(2.01607 0.56674 -5.61238e-20)
(2.05144 0.601526 -1.12896e-18)
(2.09061 0.640837 0)
(2.13272 0.684149 0)
(2.16992 0.728717 0)
(2.16551 0.760794 1.9653e-18)
(2.00531 0.732141 -2.67915e-18)
(1.48694 0.565088 -1.40293e-18)
(0.557835 0.200372 -1.84007e-19)
(2.06046 0.439801 -8.84587e-19)
(2.09854 0.466515 -2.63022e-18)
(2.14013 0.496324 -4.80455e-21)
(2.18597 0.529566 5.46266e-19)
(2.23466 0.565734 -5.29077e-20)
(2.27683 0.602516 1.5086e-18)
(2.27066 0.628266 -9.16542e-19)
(2.09301 0.597595 -2.97818e-18)
(1.53042 0.456383 1.9664e-19)
(0.550358 0.152023 1.63969e-19)
(2.12496 0.333095 -8.30624e-19)
(2.16684 0.354291 2.50807e-20)
(2.21303 0.377822 4.26981e-19)
(2.26378 0.403877 -4.02523e-19)
(2.31723 0.431891 6.4439e-19)
(2.36228 0.460233 2.16061e-18)
(2.35247 0.479162 -2.82255e-19)
(2.15427 0.449957 -1.65923e-18)
(1.54884 0.340362 4.13498e-19)
(0.532115 0.103498 5.11411e-20)
(2.17299 0.218387 2.98193e-19)
(2.21771 0.233191 1.17865e-19)
(2.26719 0.249382 -4.54706e-19)
(2.32131 0.267256 -9.71589e-19)
(2.37789 0.286409 1.19253e-19)
(2.42388 0.305106 1.15474e-19)
(2.40802 0.318131 -2.06768e-18)
(2.18757 0.294562 1.02684e-18)
(1.54366 0.221263 3.27546e-19)
(0.502751 0.0571165 -2.33417e-19)
(2.20246 0.0982483 6.28261e-19)
(2.24906 0.105745 -1.07822e-18)
(2.3005 0.113877 2.00277e-19)
(2.35663 0.122869 2.37635e-18)
(2.41466 0.132551 1.30772e-18)
(2.45965 0.141209 -3.51255e-18)
(2.43512 0.149153 -4.3509e-18)
(2.19232 0.13556 2.59388e-18)
(1.5154 0.102877 8.30385e-21)
(0.463496 0.0148785 1.24515e-19)
(0.511037 0.205764 -9.22234e-19)
(0.473346 0.212988 -7.25688e-19)
(0.429751 0.220907 5.30987e-19)
(0.381697 0.229365 -1.44226e-18)
(0.328699 0.238399 -2.11561e-19)
(0.270192 0.247874 8.47811e-19)
(0.205335 0.25583 2.49803e-19)
(0.133722 0.252506 -1.34707e-19)
(0.06167 0.212067 -5.61248e-20)
(0.00961729 0.102748 9.90655e-20)
(0.538807 0.305541 6.23279e-19)
(0.502033 0.319718 1.07857e-18)
(0.459876 0.335537 -1.06753e-20)
(0.413385 0.352389 -4.22635e-19)
(0.362069 0.370276 -9.33845e-19)
(0.305391 0.389 1.38284e-19)
(0.242169 0.405146 4.87533e-19)
(0.170265 0.401798 -3.18038e-20)
(0.0923172 0.335569 6.08121e-20)
(0.0244433 0.158726 7.22174e-20)
(0.583775 0.401291 -7.61167e-19)
(0.548622 0.422153 -9.5499e-19)
(0.508951 0.445442 5.60369e-19)
(0.465122 0.470253 5.03247e-19)
(0.416627 0.496553 5.25606e-21)
(0.36298 0.524059 -3.6004e-19)
(0.302417 0.547898 -1.44158e-20)
(0.229838 0.544251 -1.74202e-20)
(0.141811 0.452864 5.32439e-21)
(0.0478683 0.211313 2.7277e-20)
(0.644834 0.490951 4.83892e-19)
(0.611972 0.518094 3.01136e-19)
(0.575767 0.548221 -2.76635e-19)
(0.53565 0.580351 4.92027e-19)
(0.491076 0.614436 -9.89066e-20)
(0.441614 0.650056 8.22078e-20)
(0.384684 0.680895 4.75444e-21)
(0.311049 0.67661 1.74523e-19)
(0.208837 0.561203 -1.16155e-19)
(0.0790385 0.258977 6.13051e-20)
(0.720427 0.572617 -2.13168e-19)
(0.690487 0.60555 -1.0704e-19)
(0.658704 0.641717 1.38126e-20)
(0.623348 0.680363 1.98634e-19)
(0.58379 0.721417 -6.70598e-20)
(0.539626 0.764294 -9.6909e-20)
(0.487197 0.801257 -1.10281e-19)
(0.412225 0.795846 -5.23577e-19)
(0.291591 0.658001 2.32277e-19)
(0.116833 0.300514 6.10634e-20)
(0.808597 0.644473 4.7202e-19)
(0.782056 0.68232 3.33407e-19)
(0.755428 0.723335 1.08547e-19)
(0.725684 0.76741 -9.99613e-21)
(0.692114 0.814451 -5.35218e-20)
(0.654299 0.863604 4.59366e-20)
(0.607178 0.905703 4.51965e-19)
(0.53049 0.89865 2.72859e-19)
(0.387715 0.740121 -1.35204e-19)
(0.160083 0.334274 8.46647e-20)
(0.906854 0.70477 5.76423e-20)
(0.884939 0.746934 -6.69863e-19)
(0.864939 0.791809 3.89423e-20)
(0.842151 0.840154 -1.24222e-19)
(0.815663 0.89194 -7.32468e-20)
(0.78505 0.946091 2.38945e-19)
(0.743644 0.992143 -1.58897e-20)
(0.664385 0.982995 -8.13667e-19)
(0.495578 0.806073 4.35484e-19)
(0.207674 0.359588 1.14064e-19)
(1.0074 0.752593 -6.68481e-19)
(0.989148 0.796794 -1.96778e-20)
(0.976087 0.843529 -2.39902e-19)
(0.961593 0.894987 1.74337e-19)
(0.944228 0.950641 3.09344e-19)
(0.923049 1.0088 -1.26888e-19)
(0.889125 1.0576 -1.72723e-19)
(0.807535 1.04568 -3.35011e-19)
(0.610031 0.852857 3.06217e-20)
(0.256874 0.374879 -1.04404e-19)
(1.12607 0.775276 1.01369e-20)
(1.11726 0.822897 2.27647e-19)
(1.11263 0.870705 -4.44632e-21)
(1.10489 0.924165 3.96632e-19)
(1.09401 0.983141 -4.16542e-19)
(1.07963 1.04521 9.53686e-19)
(1.05073 1.09709 9.26817e-19)
(0.963852 1.08385 -1.7109e-18)
(0.732842 0.880096 -2.44486e-19)
(0.308022 0.381199 -1.62476e-19)
(1.19651 0.786922 -2.05074e-20)
(1.20207 0.83759 -3.24234e-19)
(1.21743 0.889126 1.31431e-19)
(1.22832 0.945275 9.75108e-19)
(1.23336 1.00541 1.87428e-19)
(1.23241 1.06783 -9.58682e-19)
(1.21257 1.11899 4.01706e-19)
(1.12178 1.10189 5.03058e-19)
(0.856092 0.889077 -5.84289e-19)
(0.358008 0.378669 -1.34428e-19)
(0.819536 0.0223946 1.31992e-19)
(1.16209 0.0425871 -2.05283e-20)
(0.912557 0.0488972 -6.17353e-20)
(1.04007 0.0517295 0)
(0.986773 0.0595167 -7.94664e-20)
(0.972329 0.070348 7.23302e-20)
(0.948877 0.0854742 8.86308e-20)
(0.89794 0.105282 1.61407e-19)
(0.828551 0.133645 -4.12219e-19)
(0.661069 0.169626 5.08893e-19)
(0.818968 0.0191891 1.00367e-19)
(1.16197 0.042609 -1.38355e-19)
(0.913031 0.0509685 3.92262e-21)
(1.04181 0.0533352 -1.56914e-20)
(0.989439 0.0635765 6.14143e-20)
(0.976359 0.0766413 -1.64209e-20)
(0.954187 0.0965978 -2.63049e-19)
(0.906158 0.122891 0)
(0.838132 0.171579 7.86837e-19)
(0.683216 0.233733 -7.10994e-19)
(0.818166 0.0161681 -3.15849e-19)
(1.16207 0.0424851 1.09475e-19)
(0.913425 0.0527838 1.00517e-19)
(1.04405 0.0547118 1.08164e-19)
(0.992441 0.0673976 -2.01604e-19)
(0.981152 0.0827328 5.12913e-20)
(0.960535 0.107435 -2.06659e-19)
(0.917313 0.140391 -2.14096e-20)
(0.851306 0.208408 1.52232e-20)
(0.718162 0.296121 -2.62391e-19)
(0.817124 0.0134059 8.11169e-20)
(1.1623 0.0422042 -5.73891e-20)
(0.913755 0.0542906 6.21958e-20)
(1.04678 0.0558603 9.60849e-20)
(0.995791 0.0709459 3.14883e-20)
(0.986693 0.0885699 -1.67909e-21)
(0.96801 0.117866 3.04771e-19)
(0.931194 0.157687 -9.52735e-21)
(0.868349 0.243617 -3.81601e-19)
(0.765265 0.355726 -2.54651e-19)
(0.815833 0.0109371 -3.29921e-20)
(1.16261 0.0417367 -2.62398e-19)
(0.914044 0.0554324 -3.55467e-20)
(1.04999 0.0567874 5.33645e-20)
(0.999491 0.0741866 0)
(0.992967 0.0940996 0)
(0.976717 0.127788 2.41182e-19)
(0.947571 0.174712 1.10938e-20)
(0.889562 0.276646 -5.88754e-20)
(0.823724 0.41164 2.2148e-19)
(0.814294 0.00881805 -3.89799e-20)
(1.1629 0.0410505 1.90875e-19)
(0.91433 0.056153 -8.74432e-20)
(1.05368 0.0575088 -2.76709e-19)
(1.00353 0.0770824 1.10051e-19)
(0.999953 0.0992736 6.95818e-20)
(0.986755 0.137124 2.92458e-19)
(0.966147 0.191396 1.14157e-20)
(0.915376 0.306491 -5.35155e-19)
(0.892666 0.46429 -3.66565e-19)
(0.812501 0.00712082 -1.01251e-19)
(1.1631 0.0401104 1.89903e-19)
(0.91466 0.0563938 -2.96224e-20)
(1.05786 0.0580523 -5.17694e-19)
(1.00789 0.079594 -2.59228e-19)
(1.00764 0.10406 -1.23457e-20)
(0.99821 0.145845 1.71282e-20)
(0.98652 0.207573 1.01551e-19)
(0.946554 0.331655 -4.81911e-19)
(0.969508 0.511667 -2.88446e-19)
(0.810449 0.0059071 1.0866e-19)
(1.1631 0.0388639 -4.20788e-19)
(0.915093 0.0561029 -9.68353e-21)
(1.06251 0.0584586 3.75146e-19)
(1.01254 0.0816688 -1.06455e-19)
(1.01602 0.10844 -6.2393e-20)
(1.01111 0.154 -6.2225e-20)
(1.0084 0.223635 -1.14313e-19)
(0.983777 0.354876 -9.98908e-20)
(1.05336 0.562585 1.38496e-18)
(0.808134 0.0051912 -1.38096e-19)
(1.16293 0.0371733 1.90655e-19)
(0.91571 0.0552121 4.78567e-21)
(1.06757 0.0587478 -4.16578e-19)
(1.01743 0.0831622 5.89865e-19)
(1.02504 0.112079 -6.24448e-21)
(1.02533 0.160422 2.97012e-20)
(1.03198 0.235463 -7.12481e-19)
(1.03027 0.36506 3.7199e-20)
(1.13562 0.588368 -4.20733e-19)
(0.805616 0.00545785 5.73424e-20)
(1.16354 0.0352637 2.57197e-19)
(0.916322 0.053862 -7.54482e-20)
(1.07304 0.0592831 -9.50779e-19)
(1.02222 0.0848912 3.74102e-19)
(1.03343 0.117113 -1.15505e-19)
(1.0375 0.170652 -8.10844e-21)
(1.04994 0.25547 2.25732e-19)
(1.07007 0.393623 7.07436e-19)
(1.22463 0.656491 -1.67868e-18)
(0.803367 0.00521725 -1.63225e-19)
(1.16664 0.0319755 -4.96838e-20)
(0.917859 0.0509967 5.54564e-20)
(1.08001 0.0580877 3.48022e-19)
(1.03124 0.0837308 3.52551e-19)
(1.04896 0.11701 -9.8614e-20)
(1.06248 0.170592 2.51119e-19)
(1.0895 0.25292 1.10599e-19)
(1.1394 0.375144 5.48676e-20)
(1.23303 0.634879 -1.04553e-18)
(0.80405 0.00262529 1.16019e-19)
(1.17087 0.027514 1.89734e-19)
(0.922234 0.045791 -4.61728e-20)
(1.08597 0.0542552 5.30025e-19)
(1.04188 0.0787975 5.94321e-19)
(1.06459 0.110609 1.62087e-19)
(1.08645 0.160116 -2.59575e-21)
(1.1276 0.234006 -2.91385e-19)
(1.19077 0.342114 2.94174e-19)
(1.31785 0.529294 2.29762e-19)
(0.804405 -0.000553458 -1.67486e-19)
(1.17564 0.022793 5.30499e-20)
(0.926995 0.0402985 6.41654e-20)
(1.09202 0.0496386 1.06049e-19)
(1.05222 0.0726884 1.75935e-33)
(1.07934 0.102457 2.31811e-20)
(1.10826 0.147219 1.81485e-33)
(1.16067 0.212394 -8.85846e-20)
(1.22929 0.300795 1.55744e-19)
(1.38179 0.454264 1.19818e-19)
(0.804822 -0.00490733 2.29149e-19)
(1.18053 0.0174428 4.54642e-34)
(0.931827 0.0342909 -6.44888e-20)
(1.09787 0.0440846 -1.28167e-19)
(1.06179 0.0651298 -2.13987e-19)
(1.09268 0.0921556 -5.42899e-20)
(1.12746 0.131383 2.19122e-33)
(1.18818 0.187698 2.70405e-19)
(1.2602 0.257589 -8.21879e-20)
(1.42477 0.37837 -1.90214e-19)
(0.805421 -0.0104412 0)
(1.18577 0.0115097 1.06822e-33)
(0.93666 0.0279664 0)
(1.10335 0.0377346 0)
(1.07035 0.0563978 0)
(1.10432 0.0801116 0)
(1.14391 0.113373 1.192e-33)
(1.21032 0.160653 0)
(1.28521 0.213863 6.96214e-20)
(1.45019 0.307328 -9.44265e-20)
(0.806288 -0.0170273 1.82052e-19)
(1.19157 0.00506593 9.3804e-20)
(0.941492 0.021554 -6.29219e-20)
(1.10832 0.0307632 0)
(1.07777 0.0467331 0)
(1.11415 0.0666953 -3.0343e-20)
(1.15753 0.0937809 -7.80448e-20)
(1.22754 0.131944 4.48716e-20)
(1.3048 0.171045 1.06543e-19)
(1.46412 0.240709 -2.79283e-19)
(0.807506 -0.0264592 -9.41237e-20)
(1.19824 -0.00210726 -3.6072e-20)
(0.946316 0.0152707 -6.12598e-20)
(1.1126 0.0233848 -2.31909e-21)
(1.08389 0.0363754 -4.77896e-20)
(1.12206 0.0522546 -2.87976e-20)
(1.16828 0.0730906 6.92814e-20)
(1.24041 0.102216 1.08414e-19)
(1.31939 0.129681 7.94563e-20)
(1.47117 0.178694 -8.52112e-20)
(0.809227 -0.0319301 -2.50105e-19)
(1.2064 -0.00891218 5.96593e-20)
(0.95091 0.0104388 -5.8753e-20)
(1.11571 0.0155361 -8.01271e-20)
(1.08828 0.0253484 -4.11686e-33)
(1.12765 0.0368203 -3.65944e-20)
(1.1759 0.0512476 4.13153e-33)
(1.24921 0.0713001 3.98093e-20)
(1.32922 0.0888522 -6.64053e-20)
(1.47454 0.11864 -3.33808e-20)
(0.807123 -0.0569111 5.69769e-19)
(1.20039 -0.0194781 -1.08876e-19)
(0.942682 0.00376447 -5.42302e-20)
(1.10514 0.00899789 -8.88784e-20)
(1.07885 0.014707 -8.4421e-21)
(1.11892 0.0220584 -5.70077e-20)
(1.1685 0.0305448 -6.34513e-20)
(1.24253 0.0424289 -1.41325e-20)
(1.32256 0.0516442 2.86992e-20)
(1.46558 0.066983 -1.10769e-19)
(0.727477 -0.0381168 1.92528e-19)
(0.958487 -0.0176803 -1.07578e-34)
(0.71838 0.00331576 -6.15179e-20)
(0.867615 0.000180976 0)
(0.834226 0.00287645 0)
(0.869397 0.00444822 -3.94886e-20)
(0.911297 0.00604693 3.96672e-35)
(0.972841 0.00865575 4.01789e-20)
(1.04025 0.0100607 9.74835e-20)
(1.14979 0.012581 -9.14286e-20)
(1.47614 0.629259 1.62859e-20)
(1.5856 0.616729 -1.06181e-18)
(1.681 0.611683 0)
(1.76607 0.58906 -2.505e-19)
(1.84601 0.538976 -3.18565e-19)
(1.92247 0.466564 -1.69887e-19)
(1.99202 0.380202 2.50784e-19)
(2.04986 0.285519 4.4302e-20)
(2.09292 0.18522 -2.51344e-19)
(2.1191 0.0821156 1.72441e-19)
(1.51223 0.516315 -3.07655e-19)
(1.587 0.507303 3.02432e-19)
(1.66402 0.495256 -3.68762e-20)
(1.7413 0.465152 2.60235e-19)
(1.81425 0.417064 -1.29181e-19)
(1.88068 0.356711 -3.61396e-19)
(1.93788 0.288951 4.44249e-20)
(1.9834 0.21642 5.32508e-19)
(2.01636 0.140601 -2.30311e-21)
(2.0361 0.0624669 -2.66755e-19)