/*--------------------------------*- C++ -*----------------------------------*\
  =========                 |
  \\      /  F ield         | OpenFOAM: The Open Source CFD Toolbox
   \\    /   O peration     | Website:  https://openfoam.org
    \\  /    A nd           | Version:  13
     \\/     M anipulation  |
\*---------------------------------------------------------------------------*/
FoamFile
{
    format      ascii;
    class       volScalarField;
    location    "0.3";
    object      p;
}
// * * * * * * * * * * * * * * * * * * * * * * * * * * * * * * * * * * * * * //

dimensions      [0 2 -2 0 0 0 0];

internalField   nonuniform List<scalar>
1800
(
-1.55865278078
-1.57337946939
-1.55437784322
-1.48782341079
-1.39466795843
-1.2964999068
-1.20452408837
-1.12225583536
-1.04969441574
-0.991290603335
-1.75713619422
-1.7726719483
-1.74889244569
-1.67213988582
-1.56721287059
-1.45790524834
-1.35617703728
-1.26598576696
-1.18812869788
-1.12497328202
-1.94824945277
-1.96385889499
-1.93386662261
-1.84594560776
-1.72884549802
-1.60814308265
-1.49608661287
-1.39647098383
-1.3095084525
-1.23631319442
-2.12674004147
-2.14144803827
-2.1040662572
-2.00478750777
-1.87635562311
-1.74570383748
-1.6250424665
-1.51782996923
-1.42402742334
-1.34431755497
-2.28670021917
-2.29944434517
-2.25342793674
-2.14255437887
-2.00332351622
-1.86353692456
-1.73494731681
-1.620633562
-1.52027656933
-1.43382535452
-2.4231076336
-2.43290293691
-2.37742953174
-2.25545595396
-2.10672080955
-1.95940639248
-1.82457483827
-1.70479807493
-1.59944381696
-1.50803236434
-2.53051450546
-2.53651482559
-2.47099022855
-2.33861289613
-2.18176818703
-2.02844034902
-1.88877721811
-1.76480075295
-1.65560398822
-1.56025592741
-2.60451627564
-2.60633186017
-2.53064659089
-2.38900799799
-2.22575169281
-2.06817480188
-1.92529336809
-1.79856370148
-1.68678274054
-1.58865710828
-2.64135442205
-2.63881707678
-2.55316211847
-2.40364211134
-2.23584897324
-2.07587307569
-1.93140468466
-1.80337859391
-1.69033967025
-1.59057544771
-2.63875248751
-2.63163359143
-2.53642856104
-2.38116058415
-2.21059317021
-2.04995873776
-1.90537753665
-1.77739495427
-1.66431026027
-1.56394672143
-0.155296146423
-0.150652431319
-0.140377847667
-0.124603558634
-0.108301795464
-0.0952133768234
-0.0866138396513
-0.0822465504247
-0.0814157417544
-0.0835341305439
-0.202306918367
-0.198818384777
-0.18860090191
-0.171430152843
-0.152562709022
-0.136332892042
-0.124519128221
-0.117085596391
-0.113391992934
-0.112674389269
-0.274719848161
-0.272912734701
-0.262777755451
-0.243463467864
-0.220648553465
-0.199616453308
-0.182892448113
-0.170784424087
-0.162732266909
-0.157676488048
-0.371648273542
-0.371929582289
-0.361851978907
-0.339603520652
-0.311504991502
-0.284121926303
-0.260931132871
-0.242696059243
-0.228946862862
-0.218203882998
-0.491870877342
-0.49451667558
-0.484389627139
-0.458392080856
-0.423737580955
-0.388607450539
-0.357591188207
-0.331985488079
-0.311415819584
-0.293853488447
-0.633689210212
-0.638832273993
-0.628467805673
-0.597906453066
-0.555562739463
-0.511517802563
-0.471597391985
-0.437667093052
-0.409435114915
-0.384232845461
-0.79474122838
-0.80237663868
-0.791537000855
-0.755698700107
-0.704834848426
-0.651126834127
-0.601680458152
-0.558922771425
-0.522599086988
-0.489468258025
-0.9717936708
-0.981766764349
-0.970134718674
-0.928408600297
-0.868534436375
-0.804942907682
-0.745972089014
-0.694541356258
-0.65030751622
-0.609770985552
-1.16090070588
-1.17287437178
-1.15981523254
-1.11119316614
-1.04146874807
-0.967487587445
-0.898800330119
-0.838719114255
-0.786697090745
-0.739616331815
-1.35805279823
-1.37154812738
-1.35606158642
-1.29900110798
-1.21786242604
-1.13197185733
-1.0519404983
-0.981335238166
-0.919588588558
-0.865556661892
-0.114111629467
-0.196350947597
-0.262598999309
-0.309855742012
-0.345814316618
-0.374466896465
-0.398951716244
-0.421106894938
-0.442011711199
-0.462319764002
-0.126585311737
-0.205233323068
-0.266382026535
-0.311896576599
-0.347214805258
-0.375540594888
-0.399775275728
-0.421694421043
-0.442370095226
-0.462453436479
-0.145578789888
-0.219074861745
-0.272302648363
-0.314861558562
-0.348998255036
-0.376763827363
-0.400645303224
-0.42228622646
-0.442721815247
-0.46258457865
-0.172006486126
-0.237278387779
-0.280280725026
-0.318744121493
-0.351168869576
-0.378141883103
-0.401567983066
-0.42288786626
-0.443070576035
-0.462713798883
-0.207139230239
-0.258997578839
-0.290200309852
-0.323527900846
-0.353728217255
-0.379677537681
-0.402548390805
-0.42350419093
-0.443419629433
-0.462841303366
-0.252493042648
-0.283166989797
-0.301860915878
-0.329173474702
-0.356670594254
-0.381374351585
-0.403589988148
-0.424139425078
-0.443771671812
-0.462967352095
-0.310122908254
-0.308697915096
-0.314867530284
-0.335590638815
-0.359981598151
-0.383229940912
-0.404695022273
-0.424797231158
-0.444129200321
-0.463091384473
-0.383200345629
-0.335638576525
-0.32888145952
-0.342690922879
-0.36364833543
-0.385245052106
-0.405866159497
-0.425481219267
-0.444494660258
-0.463212711326
-0.472906690423
-0.365589298817
-0.344002988564
-0.350586951457
-0.367763511076
-0.387468499763
-0.407126342189
-0.426203218308
-0.444872775591
-0.463334143033
-0.572085045037
-0.398999194118
-0.359848608575
-0.359137495821
-0.372315205198
-0.389916557498
-0.40848912011
-0.42697279964
-0.445270457919
-0.463446478065
-0.635775924649
-0.431757061596
-0.378159906252
-0.370913693716
-0.37968942954
-0.394426754099
-0.411262318918
-0.428656417541
-0.44616279678
-0.463674591273
-0.657903092138
-0.467948185633
-0.404428656356
-0.388445153928
-0.390984085575
-0.401566869558
-0.415766419185
-0.431430615588
-0.44766566621
-0.464138248418
-0.660877890978
-0.488635589315
-0.421434743612
-0.401896043458
-0.400738307536
-0.408169996335
-0.42008080434
-0.434131314455
-0.449145889297
-0.464602184441
-0.660702793169
-0.506953441007
-0.437737805175
-0.414551624357
-0.40993091785
-0.414487879413
-0.424255764287
-0.436762302002
-0.450599758147
-0.465064890013
-0.656358633524
-0.519842782688
-0.451572029256
-0.425765337642
-0.418296872114
-0.420370975605
-0.428200743835
-0.439269315602
-0.45199755633
-0.465516159541
-0.650356693406
-0.529539639286
-0.463539835508
-0.435732263211
-0.4258359709
-0.425750100399
-0.431846994654
-0.44160470367
-0.453312738615
-0.465947860628
-0.644694024785
-0.537230775111
-0.473812463482
-0.444485966421
-0.432514859914
-0.430556399356
-0.435130800807
-0.443723268412
-0.454521514377
-0.466353343532
-0.640653502145
-0.544090349337
-0.482806463709
-0.452114040296
-0.438305939093
-0.434725906924
-0.437990534064
-0.445579452369
-0.455599239108
-0.466722881655
-0.636917160628
-0.550085268439
-0.491168893236
-0.459192647011
-0.443623914655
-0.438530068277
-0.440599790749
-0.447285127514
-0.456632130142
-0.467103875487
-0.647032138924
-0.557877761078
-0.498093776085
-0.464349063558
-0.447296709476
-0.441106194009
-0.442351884043
-0.448422569234
-0.45731855676
-0.467357361513
-1.39489637188
-1.42159627333
-1.42399155799
-1.40361994406
-1.36278137079
-1.30367809611
-1.23122076875
-1.14486086597
-1.05393000743
-0.952606355851
-1.2164548853
-1.24381143003
-1.25168721931
-1.2415003782
-1.21402901085
-1.17249889033
-1.11951863436
-1.05654073208
-0.990680291628
-0.920000136912
-1.07926666548
-1.10577315195
-1.11631856629
-1.11256709745
-1.09388040787
-1.06463277169
-1.02456215109
-0.977047932917
-0.926034180729
-0.870915280808
-0.973079672533
-0.99955494164
-1.01205085526
-1.01233212597
-0.99946460027
-0.977957988172
-0.94642608744
-0.909220548161
-0.867957856043
-0.823350402843
-0.892901550858
-0.918868930598
-0.932549221512
-0.935372748258
-0.926615373995
-0.910181243264
-0.884740166682
-0.854758585918
-0.820768179789
-0.784098760094
-0.831573689641
-0.85744993616
-0.872194904703
-0.87688909533
-0.871237959268
-0.858399862044
-0.837503809503
-0.812669913367
-0.783799313778
-0.752446504931
-0.786054234037
-0.812161952144
-0.827836629819
-0.833908941654
-0.830533835122
-0.820220440966
-0.802577246952
-0.781238467655
-0.755963099101
-0.728310539322
-0.753687985221
-0.780483975514
-0.797277281091
-0.804614304127
-0.80291293267
-0.794289042225
-0.778749657749
-0.759562919966
-0.736558473416
-0.711436535208
-0.73760819443
-0.764098311483
-0.781579262787
-0.790261147684
-0.790132949863
-0.782606926127
-0.767939127084
-0.74872461234
-0.725854129792
-0.698932534762
-0.725962852967
-0.754911138503
-0.774856274647
-0.786136395975
-0.789163651193
-0.785011418822
-0.774183952357
-0.758269565109
-0.737869460806
-0.712421326658
-0.0849491326985
-0.140055480662
-0.206100951115
-0.277806187377
-0.355441603208
-0.441508372506
-0.536485115357
-0.634999569684
-0.716300642967
-0.7426097821
-0.273155534042
-0.332787306145
-0.40217180706
-0.47946234744
-0.565842279518
-0.663444488857
-0.771776636027
-0.883983967505
-0.975920124259
-1.00402730169
-0.487510264993
-0.550844964523
-0.622887795056
-0.704067973508
-0.796279127633
-0.901464299803
-1.01876331105
-1.14059565187
-1.24043739487
-1.26886715942
-0.693550521668
-0.762052550396
-0.839779255093
-0.927719023798
-1.0276245791
-1.14123266072
-1.26747235616
-1.39831352936
-1.50556393241
-1.53300474622
-0.878135517675
-0.95382946738
-1.03947936396
-1.13614555583
-1.24551840069
-1.3692072901
-1.50574421805
-1.64618811584
-1.76161332455
-1.78611416415
-1.04232800912
-1.12560240856
-1.21941007467
-1.32499592104
-1.44414542502
-1.5783587294
-1.72565047988
-1.87463678485
-1.99749665193
-2.01616716672
-1.18894619153
-1.27854534356
-1.37937858534
-1.49285376421
-1.62080876678
-1.76453025614
-1.92184400098
-2.08224496172
-2.19824595192
-2.21558787609
-1.3168731441
-1.41135666545
-1.51774660198
-1.63748869966
-1.77255502888
-1.92396198045
-2.09018829527
-2.24917314955
-2.36848542238
-2.38100018851
-1.42280134415
-1.52125221721
-1.63185054546
-1.75603347677
-1.89563793205
-2.05241192472
-2.22213296304
-2.38789827507
-2.49338882139
-2.51043168736
-1.50886218966
-1.60809988752
-1.71999245937
-1.84689743617
-1.98980798763
-2.14937931253
-2.3214939038
-2.4801937773
-2.5828379674
-2.59536796276
1.04679225874
1.06132684405
1.07732456502
1.09335533986
1.10824824267
1.1211642782
1.13131012716
1.13827932193
1.14340515817
1.14811697337
0.994435905797
1.00690912723
1.02032411586
1.03334900185
1.04489390761
1.05415436076
1.06029073398
1.06316478628
1.06491959035
1.06778242362
0.922677149295
0.932261515786
0.94200525033
0.950729503571
0.957520175592
0.961539693813
0.961949282542
0.958985151531
0.955939664821
0.956242261598
0.831966214374
0.837932972203
0.843047561873
0.846321875287
0.847072596315
0.844437095638
0.837554763583
0.827119128423
0.81788756971
0.81488804087
0.722741189132
0.72463692302
0.724454931054
0.721407709636
0.71506494891
0.704567126054
0.689070775161
0.669720291456
0.652797788005
0.646518890835
0.596405337247
0.59415931083
0.588219499676
0.57804042362
0.563569201483
0.54399181683
0.518561709101
0.488913662853
0.463122572528
0.453519253284
0.455303519809
0.448977278914
0.437117780839
0.419363670473
0.396089861855
0.366598205293
0.330257682508
0.289294483167
0.253763300672
0.240606706673
0.308901848992
0.29745313788
0.277532348602
0.249969268004
0.215855953225
0.174631674517
0.125762583677
0.072116273181
0.0260284821521
0.00932581361883
0.16140097285
0.144596612947
0.11611322809
0.0778188423626
0.0316401647857
-0.0228553554169
-0.0859769383352
-0.153960230756
-0.211725310405
-0.231988785743
0.0297888615205
-0.00440496159662
-0.0501594281894
-0.103779584417
-0.16407427744
-0.232525560723
-0.309882162995
-0.39186493163
-0.460799749006
-0.484193677089
0.796483819508
0.875329851624
0.83752893827
0.748724868646
0.78347122395
0.799356724933
0.811118596791
0.836926556852
0.881410375359
0.982060016004
0.790770660517
0.871115715596
0.83278091429
0.743178007273
0.777371186847
0.791676055032
0.801003202374
0.823072591848
0.860859813145
0.947626509604
0.785420311495
0.867107422497
0.827908430709
0.736930590502
0.770955826279
0.78333587588
0.789415651751
0.806614439255
0.83462012337
0.902151514281
0.780421858148
0.863332745789
0.822895669796
0.73001106234
0.76427336293
0.774343454629
0.776330854535
0.78734940114
0.802496933951
0.845809916146
0.775841383751
0.859813992562
0.817750038505
0.722501342817
0.75739106768
0.764672238765
0.761763422419
0.765158638527
0.765455649542
0.777194278503
0.771694688195
0.856577721035
0.812468913086
0.714475622129
0.750337540714
0.754254778301
0.74568719164
0.740028403862
0.724755909284
0.694245863255
0.768055219751
0.853627374656
0.807034921525
0.706041413912
0.743145002494
0.743061747079
0.728065146489
0.71205050699
0.680450842103
0.59523888215
0.764964398943
0.85093327056
0.801427305682
0.697334567271
0.735849515444
0.731021620619
0.708881528631
0.68105796192
0.63177000801
0.482979977296
0.762405425216
0.84849581704
0.795613985571
0.688485571979
0.728422668609
0.718115418577
0.68822937641
0.647045314406
0.57699440403
0.353603119434
0.760712530889
0.846347677669
0.789649985714
0.67966882982
0.72083000855
0.704365672924
0.666500097628
0.611770758198
0.517788286597
0.222415467791
0.75895679099
0.843450707705
0.784742625887
0.669922527567
0.709198325398
0.686203531054
0.637927489297
0.566355677699
0.451386706418
0.101167905018
0.75887534624
0.840127578032
0.781996225113
0.660620779466
0.694706457482
0.666572622411
0.608910930258
0.52461414082
0.392881831184
0.0711408024858
0.76061142279
0.837447267456
0.77963622287
0.65243716854
0.681156584062
0.648319076264
0.58263599715
0.489365678979
0.344520186319
0.0474947780634
0.764304992991
0.83567448739
0.777681134322
0.645399422467
0.66891204891
0.631824532205
0.559478264356
0.459967558111
0.304858376587
0.0332185785324
0.772199929758
0.834974170679
0.776130349678
0.639471020768
0.658228777963
0.61740155018
0.53976870504
0.435738593749
0.273998393618
0.0254096468614
0.783415083059
0.835250582073
0.774937881869
0.634636482584
0.649282989527
0.605245957143
0.523547803539
0.416270807984
0.251287894121
0.0214621429273
0.799744128782
0.836163530731
0.773913895436
0.630862557238
0.642173176042
0.595454871675
0.510838310971
0.401276854982
0.235492972897
0.0203328449352
0.820438240026
0.839013268896
0.773833917097
0.628183203206
0.637022590693
0.588093249809
0.501573054482
0.390583331903
0.225400778516
0.0217661656637
0.832766402285
0.836655483137
0.768499323445
0.626650190692
0.63401735106
0.583311047531
0.495862282642
0.384271084564
0.220293757223
0.0268048979753
0.894099176603
0.848175835763
0.772088610398
0.624506612247
0.633837007151
0.581137062069
0.493477381913
0.381483511383
0.219154998065
0.0299729235412
-0.120489194624
-0.278713031711
-0.464754629144
-0.64248353027
-0.799730046622
-0.939221155361
-1.06584654969
-1.17812861799
-1.27159134588
-1.3414616937
-0.184630261471
-0.305577703772
-0.444211629783
-0.582945312446
-0.710091902886
-0.824049161084
-0.928466405804
-1.02353997489
-1.10558874821
-1.17075383549
-0.213139872464
-0.310951161012
-0.415396392912
-0.526611352999
-0.63480238204
-0.734089549329
-0.825247887182
-0.908317262902
-0.980105076156
-1.03760905974
-0.216197409018
-0.302325848855
-0.389040446101
-0.482452477169
-0.576651353421
-0.664241610232
-0.744250273946
-0.817158600167
-0.880996415903
-0.933440571672
-0.207188198174
-0.286843354386
-0.36346556227
-0.444206621827
-0.527531656769
-0.606802115446
-0.679755775116
-0.746575022633
-0.805817383704
-0.855189283704
-0.19377426246
-0.268924513793
-0.33934244088
-0.411930149458
-0.487863072481
-0.561509192862
-0.629746599879
-0.692300594243
-0.748059968895
-0.795004435491
-0.180141598206
-0.251899047946
-0.318109347925
-0.38543175193
-0.456440789745
-0.526236553089
-0.59126662271
-0.650949681092
-0.704411234343
-0.749929938267
-0.167526848112
-0.237001408822
-0.300439243108
-0.364623558762
-0.43278802724
-0.500324477778
-0.56345790213
-0.621431146158
-0.673440501191
-0.717956912061
-0.153406096055
-0.220856757207
-0.283141674493
-0.346980522627
-0.415063864927
-0.482689737246
-0.546101075468
-0.604414573023
-0.656786167575
-0.701666954744
-0.136349749171
-0.200217452599
-0.261761179308
-0.327035730279
-0.396046266882
-0.464032876052
-0.528212945583
-0.58767095126
-0.641303441542
-0.687746880399
-3.6246301778
-3.60013692375
-3.45604785138
-3.26326155462
-3.06928259318
-2.89648015327
-2.74881979819
-2.62556332028
-2.52558327563
-2.44935615845
-3.69301426517
-3.68036563824
-3.5582361188
-3.37509479269
-3.18297166737
-3.00822229707
-2.85746263652
-2.73080823362
-2.62806454083
-2.55105390752
-3.66065339535
-3.65964200139
-3.56192918667
-3.39163092484
-3.20199895117
-3.02514464232
-2.87122763159
-2.7412967159
-2.63517514598
-2.55445601541
-3.53346271395
-3.54287715325
-3.46974823305
-3.31338991573
-3.12599345046
-2.94580481743
-2.78741226416
-2.65346291046
-2.54354375086
-2.45783515587
-3.32210372355
-3.34114079066
-3.28963631654
-3.14717976651
-2.96208398315
-2.77794323832
-2.61411076787
-2.47546015008
-2.361686743
-2.2711886325
-3.04098764608
-3.06784106596
-3.03292445793
-2.90420443489
-2.72347339608
-2.53740831038
-2.36951716305
-2.22711476661
-2.1105180937
-2.0184606062
-2.70808636503
-2.73924688548
-2.71567553117
-2.60126050033
-2.42985937033
-2.2477529905
-2.08085500924
-1.93866578177
-1.82167724379
-1.73151864353
-2.34487114268
-2.37612083681
-2.35943243427
-2.26003355148
-2.10414621367
-1.93410271924
-1.77560896322
-1.63930558944
-1.52636349657
-1.44064885362
-1.97667349022
-2.00431724312
-1.9915296133
-1.90767905977
-1.77282985273
-1.62301866492
-1.48154438043
-1.35890854167
-1.25667766397
-1.18354396906
-1.6262799654
-1.64826655082
-1.63752189308
-1.56835073054
-1.45633230269
-1.33043333963
-1.21004192165
-1.10403254487
-1.01228845927
-0.943770602094
-1.30912150536
-1.32564231372
-1.31583350762
-1.25976544831
-1.1699149066
-1.06895727099
-0.972658408155
-0.888528564347
-0.816582070098
-0.754625463036
-1.0328446361
-1.0451545132
-1.03563815032
-0.990406836883
-0.919634250443
-0.840724766393
-0.765835134756
-0.700662792207
-0.645692328921
-0.595673106662
-0.799137551511
-0.807373550494
-0.797920169017
-0.761090017032
-0.70537280555
-0.644084296922
-0.58633995751
-0.536194421405
-0.494167623036
-0.455331340411
-0.605495881056
-0.610124624084
-0.600629685591
-0.570437796224
-0.526831117558
-0.48003776958
-0.436774106772
-0.399764770879
-0.369240331255
-0.341495737068
-0.4488175179
-0.450401112997
-0.440849223934
-0.415968982668
-0.382141086462
-0.347220310652
-0.316026048642
-0.290218650119
-0.269679281577
-0.251884052208
-0.32610845927
-0.325194229434
-0.31552693349
-0.294684575498
-0.26837164994
-0.242662016046
-0.220918094863
-0.203991835674
-0.19150851597
-0.181812802395
-0.234883418579
-0.23200740448
-0.222169223876
-0.204183182795
-0.183297731184
-0.164311638783
-0.14951447281
-0.139177793079
-0.132760583354
-0.129170023124
-0.173299184453
-0.169035118529
-0.159016835625
-0.142856594416
-0.125532092362
-0.111018195315
-0.100859069245
-0.0949563931262
-0.0926665822547
-0.0932316653763
-0.1401173121
-0.135034582121
-0.124869083415
-0.109606516994
-0.0941724757155
-0.0820538266424
-0.0743951964726
-0.0708987096709
-0.0708666762688
-0.0737215606026
-0.134384906148
-0.129208840619
-0.118932676124
-0.103834473148
-0.0886620303682
-0.0769596340868
-0.0697715001099
-0.0667438079115
-0.0671639863937
-0.0704986149901
-0.435656976768
-0.338279808126
-0.330461244877
-0.335716756999
-0.349893716347
-0.369219750051
-0.391068843628
-0.413894553303
-0.437136421664
-0.460587100896
-0.335035231795
-0.310678646346
-0.316981933874
-0.329554382293
-0.348211600466
-0.369502582803
-0.391998807306
-0.414842247612
-0.437798904788
-0.46081457998
-0.25851310661
-0.287960435528
-0.305488822764
-0.324852681798
-0.34688729613
-0.369827086073
-0.392875822947
-0.415720736151
-0.438409452502
-0.461025347178
-0.204395210204
-0.26746318627
-0.29457364437
-0.320275980809
-0.34572471571
-0.370165762944
-0.39369593862
-0.416533819985
-0.438973028522
-0.461221485916
-0.166570017432
-0.247483485639
-0.284525313072
-0.316343197253
-0.344817311494
-0.370538827267
-0.394473128806
-0.417290409637
-0.439494915631
-0.461404613508
-0.140133606369
-0.228861014051
-0.275934561705
-0.313159910107
-0.344184191802
-0.370965921936
-0.395220173766
-0.417999005092
-0.439979831457
-0.461576621911
-0.122322185829
-0.213110073642
-0.26913963909
-0.310771777871
-0.343845449215
-0.371461585923
-0.395950587394
-0.418667796082
-0.440432516322
-0.46173909325
-0.111486730961
-0.201392331968
-0.264315338645
-0.309216374888
-0.343820756199
-0.372044009777
-0.396677215037
-0.419305293606
-0.440857582057
-0.461893265757
-0.106747147591
-0.194465030947
-0.261576969349
-0.308530672423
-0.344130020715
-0.372728881978
-0.397412276649
-0.419919170164
-0.44125947801
-0.462040711678
-0.107591103402
-0.192739358275
-0.260993718691
-0.308736698361
-0.344789784016
-0.373532414515
-0.398166982174
-0.420517362789
-0.441642830858
-0.462182403857
-0.665961108464
-0.465530331148
-0.391963552287
-0.36453803661
-0.361836067889
-0.373220434988
-0.391612195593
-0.413187098793
-0.436246160185
-0.460161371934
-0.63474367955
-0.44040025847
-0.381721759472
-0.360612173654
-0.360471316268
-0.372906263949
-0.391624685598
-0.413319630008
-0.436393901387
-0.460230493884
-0.588596755894
-0.42040356673
-0.372869620992
-0.356541963085
-0.358894313217
-0.372275249175
-0.391532153553
-0.413426671493
-0.436544489626
-0.460307534494
-0.544254832884
-0.396401960731
-0.360859108043
-0.350745109677
-0.356359472993
-0.371241303217
-0.391256513575
-0.41345204469
-0.436652313632
-0.460367525589
-0.497862693697
-0.363447427994
-0.343348938414
-0.342224253963
-0.352597950348
-0.369825170539
-0.390821651467
-0.413409714431
-0.43672601592
-0.460412537678
-2.38441529435
-2.4812834242
-2.49194645874
-2.4177116049
-2.26175048265
-2.06610359873
-1.81425403365
-1.57271458009
-1.32662695037
-1.09552426929
-2.38160524443
-2.47631658813
-2.48144984819
-2.40119096121
-2.24074598666
-2.04269837274
-1.79249230809
-1.54974637915
-1.31239596119
-1.07665918377
-2.38193002162
-2.47717659419
-2.47902844261
-2.39291725583
-2.22655515843
-2.01546767836
-1.75778796428
-1.49634559728
-1.24935217656
-1.02230008404
-2.39165273293
-2.48880530509
-2.48948343781
-2.39701230694
-2.22091712404
-1.98879397357
-1.71792517511
-1.43842280669
-1.19101000631
-0.980629862028
-2.41057488355
-2.51067737308
-2.51060218508
-2.41175897916
-2.22455521341
-1.973890504
-1.68940712142
-1.40161739539
-1.15084280357
-0.930906170527
0.517066015024
0.495347859954
0.46444016637
0.427362427027
0.385613918416
0.337884249432
0.282627991614
0.222469230685
0.171183748379
0.152166128695
0.630942390612
0.627575261906
0.615142617367
0.594756119639
0.568282124902
0.535359882588
0.49521478064
0.450330179972
0.412142131839
0.398676074488
0.74775708248
0.749188422676
0.744333976301
0.733807809638
0.718685920022
0.698498269202
0.672360019649
0.642065460024
0.616389062407
0.60784584804
0.851027760937
0.856557767085
0.858846176899
0.857424211341
0.852432805853
0.843171451902
0.828798447342
0.810568930679
0.795128916904
0.790478244702
0.939268112291
0.948201705847
0.955445782693
0.96040807409
0.962787240595
0.961766312369
0.956495821906
0.947741579433
0.940495845243
0.939152162837
1.00761390693
1.01943823049
1.03091428207
1.04118324037
1.04957814009
1.05527924084
1.05738617081
1.05623310588
1.05517704326
1.0570633296
1.05561893701
1.06975000416
1.08446485529
1.09870678218
1.11155940833
1.12218693548
1.12973107765
1.13413429874
1.13749788506
1.14170950142
1.08348551991
1.09908169813
1.11594125189
1.13279773115
1.14855724555
1.16238833981
1.17346562566
1.18143984864
1.18759885767
1.19318601421
1.09139326001
1.10750694239
1.12526046818
1.14327155414
1.16034727651
1.17562903013
1.18831722184
1.19785696625
1.20522067862
1.21129450741
1.07931133473
1.0950258512
1.11245632314
1.13014363358
1.14683005408
1.16174340216
1.17408143886
1.18331846769
1.19037344588
1.19617413365
-2.25907330561
-2.33624541144
-2.43418099305
-2.55341648874
-2.69655454149
-2.86596184115
-3.06017533771
-3.2600213928
-3.42155992936
-3.45625297408
-1.99350425885
-2.07186127281
-2.16840827834
-2.28399908854
-2.42211220716
-2.58535179064
-2.77177234671
-2.97523641961
-3.16117443878
-3.19474371502
-1.6741877718
-1.75228738226
-1.84722805142
-1.95955826547
-2.09244617742
-2.24891221951
-2.42952460827
-2.62783884108
-2.81138671879
-2.8564787718
-1.32382577896
-1.40123014363
-1.49423942241
-1.60295116595
-1.72994450435
-1.87852545663
-2.04964686972
-2.23722873723
-2.40795381337
-2.46366330545
-0.968323283711
-1.04544180964
-1.13580924257
-1.23931480533
-1.35823985286
-1.49594452806
-1.65385011552
-1.82609806635
-1.98073950977
-2.03831954384
-0.636763681063
-0.710353383962
-0.794542230788
-0.889203021908
-0.996549506221
-1.12000734586
-1.26112848475
-1.41445614716
-1.55097412977
-1.60461587117
-0.340477469361
-0.405367662408
-0.478959069513
-0.56113857436
-0.65417213486
-0.761457952335
-0.884435437595
-1.01783449765
-1.13553397212
-1.18242336425
-0.0669883065437
-0.121308678967
-0.183672265696
-0.253485828103
-0.333061972298
-0.425760651953
-0.532661214941
-0.648384683888
-0.74908414372
-0.788788634526
0.194356275879
0.148535135622
0.0925271652588
0.0297292754091
-0.0411637765993
-0.123124378745
-0.216946095766
-0.317357999291
-0.403053169447
-0.436044074491
0.414638754634
0.373911283037
0.320262630676
0.261816720018
0.19914099473
0.129663920845
0.0519339772156
-0.0301574609221
-0.0992724661231
-0.125356386137
0.889323773792
0.918253632552
0.862827216611
0.762848309159
0.829243843273
0.83716318912
0.834429929337
0.83748222427
0.809653378423
0.669408523048
0.875302111741
0.915187578354
0.863578477829
0.763926523267
0.825553115898
0.83701650159
0.836955657508
0.84761546591
0.838595454517
0.751839474397
0.862723961859
0.911514264096
0.863337093087
0.76479497227
0.82167369927
0.83602227663
0.839828420605
0.856771406358
0.863261114175
0.836387585918
0.85150470555
0.907406630278
0.862176862676
0.765294069938
0.817651873094
0.834166267841
0.84114688965
0.863290924545
0.881892630855
0.899772195115
0.841409191817
0.902964619199
0.860208179672
0.765232148571
0.813501675046
0.831434917539
0.841092328062
0.867430117517
0.895601033196
0.949294800898
0.832271701596
0.898350595711
0.857529050513
0.764488477897
0.809165202973
0.827870143814
0.839644743152
0.868891354709
0.905571812278
0.983899963459
0.823949974823
0.893648331557
0.854281388842
0.762962398441
0.804614306836
0.823544381779
0.836812109723
0.867635703605
0.911355410194
1.00566227869
0.816295771757
0.888934695521
0.850565009915
0.76064270288
0.799811168986
0.81850212891
0.832567110152
0.863690056192
0.911788858506
1.01636493461
0.809205937923
0.884289657464
0.84647280207
0.75747755696
0.794695941223
0.81277239378
0.826891192433
0.857216842257
0.906813028192
1.01669588071
0.80263071543
0.879736106377
0.842106417526
0.753496604555
0.789257283437
0.806385299073
0.819736894907
0.848283973481
0.896689982388
1.00509405271
1.02665377979
0.928271328502
0.861736320369
0.760013561216
0.831165193975
0.829685201609
0.813389743219
0.792971993716
0.706676537542
0.556179259636
0.964472947788
0.921170743231
0.86154943367
0.761752415345
0.830430833973
0.831133397577
0.815116592874
0.796304359011
0.713821982713
0.55846480744
0.94623853745
0.923739874494
0.864617900804
0.761842947568
0.83091985552
0.83262516032
0.818330330952
0.802451461356
0.729313768372
0.562858269771
0.924034866405
0.922693901602
0.864146221476
0.762032788983
0.83116016405
0.834224970245
0.822755037627
0.811263225914
0.750126581065
0.575910452371
0.90520828683
0.920703009339
0.862919363083
0.762181064265
0.831180501578
0.835795149495
0.827736141692
0.822410722357
0.775353492798
0.588642610795
0.200964493914
0.0570541868624
-0.132648491587
-0.387916145928
-0.698656812992
-1.02981542116
-1.35673543582
-1.67142829589
-1.9642945658
-2.20861934051
0.197447198604
0.057076655825
-0.123285288683
-0.368101814279
-0.670028872713
-1.00033152776
-1.3330438747
-1.65555412753
-1.95433561802
-2.20366284901
0.224779199255
0.0764314225032
-0.109005901573
-0.349968310136
-0.643490403607
-0.973018153251
-1.31418469465
-1.64492154204
-1.94899533601
-2.20256780403
0.286107192157
0.116012201104
-0.0899186205561
-0.334726335421
-0.622268865567
-0.950889107019
-1.29963961117
-1.63910356723
-1.9491853629
-2.20773608524
0.372687654798
0.17483568307
-0.0627076490627
-0.320573063777
-0.608719790902
-0.937269329657
-1.29077321721
-1.63791529421
-1.95532954297
-2.22080214708
)
;

boundaryField
{
    left
    {
        type            zeroGradient;
    }
    right
    {
        type            fixedValue;
        value           uniform 0;
    }
    down
    {
        type            zeroGradient;
    }
    up
    {
        type            zeroGradient;
    }
    cylinder
    {
        type            zeroGradient;
    }
    defaultFaces
    {
        type            empty;
    }
}


// ************************************************************************* //
