/*--------------------------------*- C++ -*----------------------------------*\
  =========                 |
  \\      /  F ield         | OpenFOAM: The Open Source CFD Toolbox
   \\    /   O peration     | Website:  https://openfoam.org
    \\  /    A nd           | Version:  13
     \\/     M anipulation  |
\*---------------------------------------------------------------------------*/
FoamFile
{
    format      ascii;
    class       volVectorField;
    location    "0.3";
    object      U;
}
// * * * * * * * * * * * * * * * * * * * * * * * * * * * * * * * * * * * * * //

dimensions      [0 1 -1 0 0 0 0];

internalField   nonuniform List<vector>
1800
(
(0.0974466332809 -0.0892431651184 -2.09291421549e-16)
(0.498235915797 -0.424088945926 -2.3930287727e-17)
(0.948716011539 -0.763920832924 -7.93314201002e-18)
(1.26148734181 -0.974320056875 -7.68208334607e-18)
(1.41935992387 -1.05218984266 4.05650421711e-18)
(1.48045822062 -1.04838528174 1.07129185267e-17)
(1.49564232381 -1.00705455852 -1.25262712193e-17)
(1.49198700419 -0.953095277521 -6.70331338788e-18)
(1.48189485731 -0.894387746862 1.5179669835e-18)
(1.44986549298 -0.844886408477 1.35850528814e-17)
(0.13149214236 -0.102672191864 5.54805569317e-21)
(0.601758307495 -0.4351877846 -7.77473864262e-18)
(1.10337721594 -0.756220290886 -1.49432916969e-19)
(1.43860942125 -0.948383206328 -1.35054568563e-19)
(1.5990050737 -1.01498909169 -1.2939492753e-18)
(1.6539708662 -1.00612044178 1.45203183185e-18)
(1.66124691841 -0.963193504279 -1.25799730159e-18)
(1.65096887647 -0.908972385879 7.37000195489e-19)
(1.63578687381 -0.852338222146 1.88701679232e-19)
(1.61213940297 -0.808180672928 -3.35894717681e-19)
(0.172202889369 -0.113946953801 -1.06673451941e-19)
(0.713838172134 -0.435339404833 5.413277253e-19)
(1.26107533711 -0.729341521562 9.11824142713e-20)
(1.61221508836 -0.898877801084 7.03756873589e-20)
(1.77028960226 -0.953494397651 -1.47363974264e-18)
(1.81591315715 -0.941114709921 3.73251309093e-19)
(1.81252530567 -0.899660785903 6.23710464521e-19)
(1.79197870562 -0.849690957976 -7.4507190752e-20)
(1.76706228529 -0.799113445003 -5.15932574723e-21)
(1.73340997833 -0.758548605878 -3.20779145695e-20)
(0.219393920165 -0.12148141346 -1.42144396983e-20)
(0.832507306749 -0.422036417667 -9.97746741561e-20)
(1.41851996495 -0.681438853897 -2.30086955584e-19)
(1.77912107109 -0.824777461967 6.57245806047e-20)
(1.93150475152 -0.866677030856 3.85483496662e-19)
(1.96723662347 -0.851066527857 3.47518038423e-20)
(1.95433316795 -0.811109986693 -2.47284953164e-20)
(1.92574104574 -0.764259444814 5.60554680378e-19)
(1.89400503579 -0.717190959915 4.65839775154e-19)
(1.85753532796 -0.680835749357 -1.57622557637e-19)
(0.272513630449 -0.123985856593 1.10486884103e-19)
(0.955017101288 -0.394246842602 1.61065533657e-19)
(1.57117024719 -0.613412619509 -7.62310295399e-20)
(1.93366334387 -0.729096008685 -8.90787388633e-20)
(2.07635938799 -0.759461227572 -1.16154067966e-18)
(2.10083231098 -0.742875332767 1.04804214084e-20)
(2.0783848998 -0.707090025275 9.54791695888e-19)
(2.04211452572 -0.666406763173 3.2311511601e-19)
(2.00401095301 -0.626451956321 1.96759902949e-20)
(1.96335654627 -0.595326290064 -2.07303633663e-19)
(0.330214893806 -0.119799903969 -7.54467939536e-20)
(1.07748603586 -0.350135033377 2.27328643225e-19)
(1.71409872293 -0.524734823785 9.35941765136e-19)
(2.0714756152 -0.612372536495 -7.62651995469e-19)
(2.20151231856 -0.632479806349 -8.45179236705e-19)
(2.21446994231 -0.616257774557 1.45214361328e-18)
(2.18335981203 -0.585537578009 -1.05070621285e-18)
(2.14057149613 -0.551401266456 -1.17351918765e-18)
(2.09721020572 -0.518250803407 8.41759510092e-19)
(2.05355591598 -0.492956810208 -2.7619196731e-20)
(0.390813550169 -0.107790914169 1.07935812143e-19)
(1.19585545831 -0.289532509363 -5.56305725966e-19)
(1.84269446703 -0.417409415323 -2.51737694816e-18)
(2.18840619583 -0.478410924302 1.27531939155e-18)
(2.30354329303 -0.490633372317 2.14157244529e-18)
(2.30524355723 -0.476846858125 -6.32261459552e-21)
(2.26667034931 -0.452845432402 -2.84243930967e-18)
(2.21874740902 -0.426613582348 3.72759038427e-21)
(2.17149543461 -0.401465545964 2.55590282199e-18)
(2.12552266204 -0.382561389893 6.70292512893e-19)
(0.45188249215 -0.0869983642843 -1.63733447375e-20)
(1.30527261868 -0.212549488099 4.38823954643e-19)
(1.95212790663 -0.293331767626 1.98029744201e-18)
(2.28078052676 -0.330166751119 -6.11660624966e-20)
(2.37987170558 -0.336984350221 -1.38195187612e-18)
(2.37113868301 -0.327291946349 -4.38441750073e-19)
(2.32647275784 -0.311018250916 0)
(2.27474705761 -0.293325590043 9.96847405585e-19)
(2.22475393012 -0.276545209343 3.01636369028e-21)
(2.17735833579 -0.264513964417 -8.14168148597e-19)
(0.510727615119 -0.0571330520322 1.787896249e-21)
(1.40121333823 -0.120680211048 9.59348175111e-19)
(2.03851032868 -0.155804003525 1.8014540822e-18)
(2.34620407042 -0.171913388052 -1.90344742149e-18)
(2.42902153884 -0.175949817453 -1.42089589958e-18)
(2.411220336 -0.171881625149 4.43894943256e-19)
(2.36210640916 -0.164177284613 -1.87302713629e-18)
(2.30805473556 -0.155505707937 -1.29404438337e-18)
(2.25663996743 -0.147334694503 1.52072703054e-18)
(2.20866614521 -0.14227829994 1.29277331864e-18)
(0.564512242632 -0.0185688555911 1.28261233629e-19)
(1.4793264048 -0.0160325629366 6.64985045671e-19)
(2.09870060098 -0.00829586018229 3.41174336747e-19)
(2.38298556444 -0.00778079353648 -2.76973655432e-18)
(2.45008644941 -0.0113848037305 2.77203649648e-20)
(2.42489898325 -0.0141928499755 4.2280028756e-18)
(2.373019849 -0.0155069818581 -2.26175153878e-18)
(2.31806357079 -0.0160119304402 -1.25077466422e-18)
(2.26642476616 -0.0164273268147 4.18071647143e-19)
(2.21877518388 -0.0182417777746 -9.41310705561e-19)
(-0.00123931109005 -0.0112950508021 9.45417818775e-20)
(0.0044135526579 -0.0766151318784 6.7259779726e-20)
(0.0405799817749 -0.154183513498 -1.89795368332e-21)
(0.0948424457842 -0.209344304862 -7.88602234117e-21)
(0.157270888537 -0.236281494817 -2.75210765814e-21)
(0.221061268036 -0.243855922234 -7.97001985717e-20)
(0.282086363764 -0.241346421191 2.58295295409e-21)
(0.33863930623 -0.23456253003 6.18206879612e-21)
(0.390341452924 -0.226465508468 2.82966833718e-21)
(0.437556045908 -0.219590789617 -7.14060003555e-21)
(-0.000177659071881 -0.0113699146069 3.15666145688e-20)
(0.0158395278129 -0.114259639555 7.95618833738e-20)
(0.0653079177127 -0.243031737763 -1.10768759886e-19)
(0.129151738225 -0.335486797517 -5.30674622144e-20)
(0.195943051304 -0.379771505702 -7.19081324487e-20)
(0.260651893832 -0.39061676726 -1.15517609364e-19)
(0.320860047427 -0.38405222247 6.64037006135e-20)
(0.375866994073 -0.37020176062 1.47843568411e-20)
(0.425691504229 -0.354304333663 -2.61368519052e-20)
(0.471870335165 -0.341777578019 -1.66114779386e-21)
(0.00117512352318 -0.0125100523181 -3.62870774527e-20)
(0.0338778515324 -0.152319176366 1.76489609651e-19)
(0.105160714264 -0.329769658682 7.18919828071e-20)
(0.184797130206 -0.457057063076 2.95208490923e-19)
(0.258828093786 -0.517146478128 5.90258369762e-20)
(0.325060167548 -0.530548356573 -3.78928902409e-19)
(0.383928103514 -0.519736269035 -6.4648134319e-21)
(0.436401407484 -0.498913847132 1.30296247456e-19)
(0.483169344193 -0.475494641965 -7.47295560444e-20)
(0.527761081795 -0.457460718958 -2.23654854604e-20)
(0.00319902028086 -0.0150886032237 -1.07728786499e-19)
(0.0591003311265 -0.190683492903 -2.96998078103e-20)
(0.160327268393 -0.413062912828 3.02532418938e-20)
(0.261436817943 -0.57159539368 -1.28419654839e-19)
(0.345211022014 -0.645305022229 4.65515463005e-20)
(0.413353079675 -0.660296104201 2.21787730473e-19)
(0.470257930934 -0.645015736862 7.79789981844e-20)
(0.519191227814 -0.617396376192 -3.72319336303e-20)
(0.561770564433 -0.586872844703 2.0214325846e-20)
(0.604240376638 -0.563511872811 -3.09294696791e-21)
(0.00643903174975 -0.0195124639849 0)
(0.0922643139067 -0.229250822017 8.31954799591e-20)
(0.23096956982 -0.491562717656 2.38546993859e-19)
(0.358448486727 -0.676675465149 -2.69756490328e-19)
(0.453933112219 -0.761213154804 -6.01057726789e-19)
(0.524096472834 -0.776622068859 2.30179676679e-19)
(0.578321878661 -0.756675935591 -4.1362643508e-20)
(0.622732785728 -0.722553894966 -9.63601243077e-20)
(0.660111353401 -0.685493463479 0)
(0.699952138758 -0.656993323071 -9.84166401898e-21)
(0.01163009005 -0.0261593624869 3.88942693669e-20)
(0.134302235857 -0.267796700096 1.02967667972e-19)
(0.317150533363 -0.563835638895 2.97662516347e-20)
(0.47482224485 -0.769892424066 2.31999529004e-19)
(0.583262426409 -0.861977749426 -1.84738400681e-19)
(0.655212593973 -0.87652625149 -3.23635053504e-19)
(0.705960842808 -0.85181866991 5.80211754881e-19)
(0.744939534778 -0.811672740563 5.21645898114e-20)
(0.776309270464 -0.768789628226 -3.68040192094e-19)
(0.812986628472 -0.735265520726 -7.57511261869e-21)
(0.0196985923949 -0.0352981850266 5.6512327857e-21)
(0.186219883593 -0.30584589484 4.2208739276e-20)
(0.418685240161 -0.628292570873 1.35484089724e-19)
(0.60901987596 -0.848932337175 2.55950564344e-20)
(0.730773096788 -0.945027181693 3.17177237331e-19)
(0.803874931619 -0.957525576614 -4.31018844906e-19)
(0.850265173437 -0.928233050546 -4.39355757837e-19)
(0.882992856494 -0.882887131983 -3.89329286696e-19)
(0.90781697408 -0.835106757364 2.85019634815e-19)
(0.940395066649 -0.796526652784 3.15290642237e-19)
(0.0316420090693 -0.0469144079556 -1.22122989315e-19)
(0.248736238286 -0.342456947574 3.91857804476e-20)
(0.534665403359 -0.683083184038 2.96761889244e-19)
(0.758508447803 -0.911560864158 -1.69943218817e-19)
(0.892921008373 -1.0081999522 3.28593743928e-19)
(0.966111663628 -1.01784273366 8.33131701646e-19)
(1.0071971418 -0.984722111139 6.04414924996e-19)
(1.0329151451 -0.935720687345 -4.62475329382e-19)
(1.05084722565 -0.884460693986 -2.25566037087e-19)
(1.07694990931 -0.840883746988 3.21979456577e-19)
(0.0482191795093 -0.0604575665673 -2.13015799656e-19)
(0.321751350741 -0.375949303483 -3.27769951498e-19)
(0.662904371781 -0.725830160353 5.41405078409e-19)
(0.919155882579 -0.955196444432 6.86136899991e-19)
(1.06426392396 -1.04898657219 -7.3517760874e-19)
(1.13570748127 -1.05518039361 8.63828206545e-19)
(1.17003229 -1.01932770856 1.31196381405e-19)
(1.1875880365 -0.96863119865 -1.0850979032e-18)
(1.19782229411 -0.915533698315 -2.64582044686e-19)
(1.21230811529 -0.867623421425 3.48472440049e-19)
(0.0699212797483 -0.0749019467948 5.21265134678e-20)
(0.40482894221 -0.403909341785 -3.34939109027e-19)
(0.801177879528 -0.753576638175 -3.98963246246e-19)
(1.08717589811 -0.976780452385 7.09839934159e-19)
(1.23989327413 -1.06415511016 5.97801272297e-19)
(1.30686284882 -1.06585134549 -7.64733820861e-19)
(1.3319632857 -1.02744213663 -6.4874057307e-19)
(1.33905633393 -0.975522488574 3.89540722148e-19)
(1.33933559538 -0.920424360944 -4.00809644981e-19)
(1.33479984289 -0.869642672378 -2.47273279954e-19)
(0.615047385595 -0.178045299475 2.8431404702e-20)
(0.797472003331 -0.134625981123 -5.33263312318e-20)
(0.888239405652 -0.105381302748 8.07293112968e-21)
(0.939805193686 -0.0824849312923 8.27452490689e-21)
(0.970130262002 -0.0639538860464 -3.80631865408e-21)
(0.988071379773 -0.0487992777833 -8.66604163081e-22)
(0.999084117952 -0.0363950656607 -2.55884646573e-21)
(1.00602834567 -0.026077903202 -2.98423675194e-21)
(1.01024128503 -0.0181036842879 5.95553218569e-21)
(1.01317913241 -0.0076654655308 2.82389225026e-21)
(0.632829927873 -0.254354273377 9.21074762975e-20)
(0.809695060601 -0.174489413729 8.7484511229e-21)
(0.896745095312 -0.127121850085 4.07496414611e-21)
(0.946294564178 -0.0945902809744 -3.32778483307e-21)
(0.975254126534 -0.0709856221256 -7.32907117261e-21)
(0.99218591996 -0.0530050090442 0)
(1.00241275528 -0.0389596543728 -2.76724838136e-21)
(1.00875245349 -0.0276470295249 3.37007863765e-21)
(1.01255954798 -0.0190727611862 4.61461452544e-22)
(1.01512673189 -0.00805285888253 -3.20850520016e-21)
(0.661150407327 -0.327920942797 -5.75299049081e-20)
(0.827279136973 -0.213479724327 -3.48229773071e-20)
(0.908037449852 -0.14857803669 1.34528956693e-20)
(0.954255946752 -0.106564638795 -8.38196985698e-21)
(0.98117025861 -0.077903787147 -3.71571432551e-21)
(0.996758605305 -0.0571023511813 5.84845113408e-21)
(1.00601861898 -0.0414238584372 0)
(1.01165332841 -0.0291298251014 0)
(1.01499065012 -0.0199712211215 -1.22248827976e-21)
(1.01716918747 -0.00840637459663 0)
(0.700191796963 -0.397206288 -3.00132687677e-20)
(0.849944709191 -0.251081796403 6.52814391403e-20)
(0.922061001057 -0.169493072525 7.67113443226e-21)
(0.963676665753 -0.118282797587 0)
(0.987875759202 -0.0846353310817 1.39606893816e-20)
(1.00178165161 -0.0610469116048 -1.66276911739e-21)
(1.00989354252 -0.043760034172 0)
(1.01472292369 -0.0305091794794 1.78750988723e-21)
(1.01752771365 -0.0207874822474 0)
(1.01926820674 -0.00872134014161 3.13539112922e-22)
(0.750122852354 -0.460645591911 -3.26528986403e-20)
(0.877339847289 -0.286865669959 9.30256504813e-20)
(0.93873605754 -0.189627318472 -4.10583729236e-21)
(0.974529954198 -0.129622721681 0)
(0.995363194982 -0.0911112552854 2.25586971897e-21)
(1.00724380318 -0.0647958907154 3.06883746884e-21)
(1.01401878264 -0.0459411743336 5.76104955279e-21)
(1.0179563412 -0.0317675545578 1.10537574036e-21)
(1.02017883062 -0.0215105012391 -1.65391555057e-21)
(1.02144908953 -0.00899314514006 2.62664119669e-21)
(0.810774399946 -0.516537333373 -6.31631619677e-19)
(0.908958864328 -0.320420794593 -1.69428960541e-19)
(0.957932182929 -0.208809889266 1.60841169611e-21)
(0.986774922593 -0.140483835936 2.43164883856e-20)
(1.00361259876 -0.09727090047 -3.31980228264e-21)
(1.01313174204 -0.0683101589129 2.94895574595e-21)
(1.01839815418 -0.0479410449984 7.34485544302e-22)
(1.02130035623 -0.0328872785825 -4.99395361564e-21)
(1.02288114174 -0.0221287667807 -2.15555172294e-22)
(1.02367518639 -0.00921733567878 7.01835927002e-22)
(0.881295236534 -0.563101545418 -5.77372697423e-21)
(0.943702955909 -0.350810994467 6.52562041425e-20)
(0.979262848274 -0.226777252337 2.96239716325e-21)
(1.00030055926 -0.150756439442 -6.77607742852e-22)
(1.01258547218 -0.103057923308 -1.75795109765e-20)
(1.01942176344 -0.0715544200998 5.05354448341e-21)
(1.02298205527 -0.0497357353526 -1.72277671413e-21)
(1.02478484077 -0.0338520188222 -4.25188722463e-21)
(1.02565504705 -0.0226315075085 5.05011670034e-22)
(1.02592926854 -0.00938970185987 -1.84134374445e-21)
(0.961505717038 -0.600437112166 2.74385978784e-19)
(0.979980992872 -0.377572623483 7.19081425041e-20)
(1.00154440491 -0.243271968542 0)
(1.01464070927 -0.160254078436 -1.00580800596e-21)
(1.02210781577 -0.108371586536 1.39721377864e-20)
(1.02602138269 -0.0744766569472 1.29932731226e-21)
(1.0277628135 -0.0512976641729 -9.56824298418e-21)
(1.02835036395 -0.0346453719773 2.6916885368e-21)
(1.02847066834 -0.0230093152578 -1.25083634366e-23)
(1.02820178846 -0.00950732473108 -3.24467389406e-23)
(1.05521913665 -0.631997631594 -4.11854260982e-19)
(1.02023018524 -0.403112283229 -1.85875189945e-19)
(1.0243094022 -0.259965223588 4.22914754211e-20)
(1.02909961892 -0.16973585353 2.21565607509e-22)
(1.0317297442 -0.113494894831 -2.05369993599e-21)
(1.03272364584 -0.0771625314886 -9.61376336425e-21)
(1.03259800018 -0.0526437357348 2.01690943294e-21)
(1.03196231605 -0.0352640793702 5.28105896258e-22)
(1.03130623825 -0.0232551768033 -3.21006954592e-21)
(1.03048460989 -0.00956963592568 -3.16325501963e-21)
(1.16279524615 -0.654783895728 2.89383257843e-19)
(1.07445726825 -0.423528333647 -1.81646220502e-19)
(1.0522307231 -0.276279220565 -2.94600335375e-20)
(1.04525565656 -0.179843638023 -3.11265067923e-20)
(1.04189081222 -0.119063263645 -1.67302660109e-20)
(1.03959518192 -0.0800074746897 -8.08695846115e-21)
(1.03752242954 -0.0539760962921 -4.34845846978e-21)
(1.0355947544 -0.0357951926783 0)
(1.03412716322 -0.0234032897643 3.63025958147e-22)
(1.03277597891 -0.00957219516029 1.5561232466e-21)
(1.32043842171 -0.63882602876 4.68913002264e-19)
(1.17447537021 -0.425044806446 1.24369267243e-19)
(1.10926966772 -0.278620348955 -8.85914472911e-20)
(1.07807658668 -0.181805185283 5.42324621757e-21)
(1.0611385097 -0.120107894019 6.86418314326e-21)
(1.05143870303 -0.0803092043439 -3.05776000033e-21)
(1.04518256385 -0.0538471303192 1.77284890393e-21)
(1.04081475708 -0.0354904397078 3.54053855415e-21)
(1.03792079859 -0.0230689543146 -2.77467049328e-21)
(1.03570171366 -0.0094170186447 3.5359502104e-22)
(1.37343570632 -0.523637203868 -8.40200858455e-21)
(1.20826603855 -0.361147049708 1.26413775055e-19)
(1.13714724944 -0.245680069869 9.65553743208e-20)
(1.10061378793 -0.165806295615 -1.15898655168e-20)
(1.07749047604 -0.111752957796 4.51510301367e-20)
(1.06280435559 -0.0754631022532 2.89747868687e-20)
(1.05309869843 -0.0508144456425 2.0063956186e-20)
(1.0464548219 -0.0335480766172 -1.93207149244e-21)
(1.04216930687 -0.0218254863905 7.05172007919e-21)
(1.0389913378 -0.00890289389773 3.66722626269e-21)
(1.43163432129 -0.448968251933 -1.35662722852e-19)
(1.26091600896 -0.322857741758 -1.02383310727e-20)
(1.1735168534 -0.223388851821 4.76580923844e-21)
(1.12516339065 -0.152515644883 1.74499770918e-37)
(1.09400234463 -0.103481943656 1.2386995674e-21)
(1.07393975004 -0.0700768920519 -7.99112439387e-35)
(1.06074770904 -0.0472177998075 -3.18808917106e-21)
(1.05185312777 -0.0311586259981 -2.19900267561e-34)
(1.04619828182 -0.0202604792247 8.89103327559e-22)
(1.0420645221 -0.00826169058275 -2.62439406564e-21)
(1.46699114904 -0.368718309289 -2.03776349474e-34)
(1.29763525334 -0.274590624454 -3.35862222818e-20)
(1.20223135752 -0.194430240075 -3.39162083776e-20)
(1.14595475464 -0.135099799095 0)
(1.10857286296 -0.0926357596182 -1.92811371145e-20)
(1.08399389334 -0.0630522979677 -1.32106229024e-20)
(1.06771993513 -0.0425696162359 -7.26457256448e-21)
(1.05679049463 -0.0281027788632 -2.88081965756e-34)
(1.0498782404 -0.0182784662011 -2.16407400363e-21)
(1.04487048399 -0.0074562165547 2.5189913036e-21)
(1.48944405782 -0.296445779558 -8.08243986777e-20)
(1.32575742188 -0.227927294971 4.15010537574e-21)
(1.22571065061 -0.164372400806 0)
(1.16345924264 -0.115737439469 0)
(1.12114308067 -0.080047914743 0)
(1.09280242038 -0.0547395695097 0)
(1.07388146216 -0.0370366888234 -6.70590477832e-22)
(1.06117526778 -0.0244673524041 -3.23003211413e-34)
(1.05314650211 -0.015924900725 8.07054280521e-22)
(1.04733705611 -0.006501140142 3.03881487638e-34)
(1.50314438102 -0.23000264277 -2.98491165535e-20)
(1.34659120706 -0.181530756074 0)
(1.24421420273 -0.133041581048 0)
(1.17767832775 -0.0947448056939 0)
(1.13155912883 -0.066031478911 0)
(1.10019060587 -0.0453523187655 0)
(1.07910247938 -0.0307522674519 1.17138352391e-21)
(1.06489214523 -0.0203334173889 4.86219025056e-21)
(1.05593322162 -0.0132464261032 7.69310831212e-22)
(1.04943320675 -0.00541292128399 3.2187531136e-21)
(1.5110527111 -0.16878114748 0)
(1.3613546184 -0.13600589717 -1.02168966757e-20)
(1.25807488803 -0.100980913633 -1.45563379062e-20)
(1.18861491424 -0.0725822555995 0)
(1.13969729011 -0.0509151792512 -9.35590090157e-21)
(1.10603665831 -0.0351071391203 -6.65961913628e-21)
(1.08324779831 -0.0238553627074 -3.45013242612e-21)
(1.06786465176 -0.0157879815585 -2.90217041126e-21)
(1.05814016457 -0.010295443452 4.06137676958e-21)
(1.05107425083 -0.00421179378812 1.64013414098e-21)
(1.51373259105 -0.111732263091 7.92379387479e-21)
(1.36931116339 -0.0914124382791 6.02205008247e-21)
(1.26611314116 -0.0683319520721 -3.22783204035e-21)
(1.19504962056 -0.0494188919111 3.25056585306e-36)
(1.14445105162 -0.0348331349975 1.49182769387e-22)
(1.10931204359 -0.0240914843283 -5.39626419719e-35)
(1.08538284163 -0.0163983029528 9.70733623338e-22)
(1.0691891445 -0.0108613098645 3.68030050302e-21)
(1.05895064549 -0.00708314163209 6.51759451207e-22)
(1.05149412416 -0.00289357183875 -2.13517652176e-21)
(1.48611151996 -0.0530439040031 -3.8401534582e-20)
(1.34498536626 -0.0490276286941 9.66991835477e-21)
(1.24501772356 -0.0380095851404 1.12139816224e-20)
(1.17571142041 -0.027912080824 0)
(1.12610912116 -0.019823178538 6.62649320216e-21)
(1.09148392666 -0.0137620705919 4.67463151376e-21)
(1.06781686112 -0.00938646990194 4.06215514686e-21)
(1.05178728788 -0.00622476504874 2.06525724198e-21)
(1.04164772361 -0.00406114085998 -1.82069972754e-21)
(1.03424831673 -0.00165489195021 2.52476286457e-21)
(1.07929217325 -0.00139679653986 0)
(0.996697046933 -0.00593403382396 0)
(0.930902273299 -0.00555931806566 0)
(0.883103546421 -0.00430859752613 0)
(0.84813993194 -0.00311194378989 0)
(0.823514760841 -0.00218294065848 0)
(0.806591365975 -0.00149901435019 8.30498370653e-22)
(0.795073534 -0.00100357003805 -4.60137546723e-36)
(0.787730364292 -0.000640401644943 6.59164430842e-22)
(0.782409485953 -0.000248334704924 1.99292410391e-21)
(2.13397169267 -0.0190391153537 8.69500533501e-19)
(2.12596531217 -0.125949668962 5.98262247036e-20)
(2.10034190189 -0.230998938416 -1.2636746671e-19)
(2.05690715105 -0.332149813936 -3.44778055358e-19)
(1.99839348688 -0.426702725393 -1.16829891261e-19)
(1.9209704074 -0.516488806002 -1.76263213977e-19)
(1.8411189146 -0.586763712305 -4.29992425967e-19)
(1.72510081845 -0.668758220031 1.3466262833e-19)
(1.65036343192 -0.691705507527 0)
(1.49014055702 -0.774600999303 4.29677675976e-20)
(2.04769228067 -0.0139798079433 2.26499974227e-19)
(2.0413089901 -0.0940901783744 -3.3214638244e-19)
(2.02218898858 -0.173185180582 -1.12923748876e-20)
(1.98742639932 -0.251000898059 -1.35838499652e-19)
(1.94556736816 -0.322219533707 2.73291154059e-20)
(1.88115282578 -0.398708150979 1.27089834119e-19)
(1.82826037658 -0.445061914372 4.86838824086e-21)
(1.73156370577 -0.531596280187 8.92681439446e-20)
(1.67815597032 -0.536395215791 -1.1053587118e-19)
(1.567633235 -0.625593748671 2.56118241826e-20)
(1.97353748911 -0.0101616778878 -1.1452847077e-19)
(1.96874447359 -0.0737125477591 2.17208795275e-19)
(1.95433455306 -0.136054722678 1.86953899037e-19)
(1.92625122422 -0.198136554472 -2.31122806555e-19)
(1.89440376124 -0.253020973404 8.82384396452e-20)
(1.84200847478 -0.316932353948 1.41821892359e-19)
(1.80089769601 -0.349070605414 -5.51730929922e-20)
(1.72664900637 -0.42630524285 6.70179636573e-20)
(1.67860433275 -0.427349471556 7.00456929079e-20)
(1.59764986505 -0.505002770053 9.23996695732e-20)
(1.91660958276 -0.0105800924221 -2.08516545414e-19)
(1.91292277418 -0.0592775325001 3.29737267109e-20)
(1.9010165319 -0.107007186502 -8.95531843193e-20)
(1.87775794836 -0.155399039601 -5.92554840969e-20)
(1.85100958068 -0.197696378679 3.15425746388e-21)
(1.80857939497 -0.249235078736 -1.01649247786e-19)
(1.77234648888 -0.27396433333 9.07112963816e-20)
(1.71513177189 -0.337467645649 2.61058767546e-20)
(1.67058249201 -0.33931877087 -1.10454777946e-20)
(1.60899422078 -0.402808546743 9.54049304191e-21)
(1.87219866404 -0.009641716807 5.04974956639e-20)
(1.86926699183 -0.0467462714425 5.93022205703e-20)
(1.85898494016 -0.0830467646252 -5.61379349975e-20)
(1.83945118929 -0.120074489929 2.18933317366e-19)
(1.81574944001 -0.152412854853 7.42536455929e-21)
(1.78086266477 -0.19218009426 -1.42017282442e-19)
(1.74764889988 -0.211857014502 2.14442097281e-20)
(1.70204250383 -0.260849452514 -8.49524053823e-20)
(1.66150596696 -0.263939713688 1.04824366744e-19)
(1.61218782801 -0.3130044151 7.60741509968e-20)
(1.83856394291 -0.0101018780983 -1.10989452949e-19)
(1.83627663098 -0.0372283355769 -5.80789831739e-20)
(1.82712590563 -0.0637455925552 2.85962160132e-20)
(1.81025958564 -0.0908919294161 8.10856978354e-20)
(1.78853483487 -0.114829859752 6.19739485828e-20)
(1.75884256712 -0.144130590794 -4.14898574175e-20)
(1.72786792248 -0.159565113185 3.29577145244e-21)
(1.68954038736 -0.195656725963 4.36617538517e-20)
(1.65235503467 -0.19952527826 8.59795046524e-20)
(1.6102717325 -0.236162541731 -5.06648358245e-20)
(1.81383881896 -0.010897450231 -4.30535358687e-20)
(1.81220706083 -0.0294073500368 -8.28874805675e-20)
(1.80396335663 -0.0474314942451 -6.21792385836e-20)
(1.78901855911 -0.0659418292943 -1.16991131289e-19)
(1.7687421927 -0.082485254354 -1.00164285658e-20)
(1.74244160144 -0.10273945659 1.7008011581e-21)
(1.71309693727 -0.114074297214 4.08839322094e-20)
(1.67909270322 -0.139369606217 -8.99826285918e-21)
(1.64450252892 -0.143188005027 -3.35893038125e-20)
(1.60645833969 -0.16948509507 6.82434631415e-21)
(1.79055443364 -0.0112359569689 3.85070591164e-20)
(1.79028257344 -0.0220429678506 3.06263886616e-20)
(1.78368964373 -0.0324769948783 1.24753970744e-20)
(1.77106536452 -0.0431024092498 -2.23989078057e-20)
(1.75288847732 -0.0526313247687 -1.84175226073e-20)
(1.72965714988 -0.0647957114278 2.48966143843e-20)
(1.70224415057 -0.0717371222771 -5.2230637792e-21)
(1.67112867658 -0.0882310460337 -3.35764922604e-20)
(1.63860265414 -0.0908883734938 7.03649599366e-21)
(1.60289138005 -0.109768275031 4.47346112306e-20)
(1.70071994688 -0.017248086425 -3.42538158308e-20)
(1.70117862485 -0.0198415502006 1.03681777343e-22)
(1.69863120906 -0.0218647895854 5.10765768262e-20)
(1.69260705805 -0.0238743522638 -2.1855053813e-22)
(1.68238670348 -0.0251230370331 -5.92014191706e-21)
(1.66879275331 -0.028316527031 8.68093173118e-22)
(1.65042260283 -0.0283288388988 1.22702406933e-20)
(1.63018052161 -0.0354325203209 -2.18792654484e-20)
(1.60373962122 -0.0344781322415 2.97132447848e-20)
(1.5809780475 -0.0444857873908 9.97759034647e-20)
(1.10221954981 -0.0100090833762 3.24638567928e-20)
(1.09201108321 -0.00736292533226 2.23423974352e-20)
(1.08476526759 -0.00464942733726 1.88770668119e-20)
(1.08091707087 -0.00203516026941 2.32804289984e-20)
(1.07966867773 0.000554337483287 -6.37337270535e-21)
(1.08215186448 0.00270393708121 -3.62265695648e-22)
(1.08384173395 0.00541263326963 -5.59437589701e-21)
(1.09253376153 0.00548706577323 1.95265463621e-21)
(1.08988865332 0.00884624129258 -3.27115939825e-21)
(1.10740012492 0.00589804616298 3.84571743623e-21)
(1.37487810999 0.75544534516 -5.44081560069e-20)
(1.36031787416 0.802718003529 2.467979654e-20)
(1.36540758509 0.85795957822 -4.63715635639e-19)
(1.37731113629 0.920302169975 2.16394399548e-19)
(1.38873754481 0.986615590177 8.75861103855e-19)
(1.39357967354 1.05286925631 -1.37840767453e-19)
(1.37271630215 1.10262567052 -8.47917968476e-19)
(1.27409695521 1.08223163942 -4.18604249297e-20)
(1.00982472 0.895317775069 -4.35831953948e-19)
(0.479513855088 0.440880060383 1.43250840009e-19)
(1.5410958549 0.720375860127 0)
(1.5330553506 0.769998420462 5.48642993936e-19)
(1.53357264043 0.823058029587 1.24470347789e-18)
(1.54168791202 0.883609467854 -7.53280841926e-19)
(1.5539153022 0.949815794865 -1.80429084952e-18)
(1.56262338535 1.01688143471 -1.41024915192e-19)
(1.54372862252 1.06729508367 -1.80337732773e-19)
(1.43556136618 1.04699508062 6.55756573809e-19)
(1.13644475859 0.862658316026 9.02778976869e-19)
(0.537002370491 0.421408520319 3.97016276575e-19)
(1.68724755983 0.69260321245 6.54417705867e-20)
(1.69188777318 0.741166150633 0)
(1.69643276734 0.790563817747 -6.77657375484e-20)
(1.70582096486 0.846050055977 7.59156036387e-19)
(1.72019789863 0.907432746776 5.36893195e-20)
(1.7318362311 0.970496565815 -1.87909941579e-18)
(1.71303656706 1.01751356978 1.19485551255e-18)
(1.5932026223 0.995150680219 7.67829324879e-19)
(1.25777026703 0.815191327308 -8.14981424194e-19)
(0.590525533168 0.393921668381 -2.85324623545e-19)
(1.80631405753 0.659575380123 -1.16213792669e-19)
(1.82260616456 0.703429984227 -9.5195960297e-20)
(1.83653320264 0.747827476586 2.25213594444e-19)
(1.85343296547 0.797499936789 -2.82794196388e-19)
(1.87417811698 0.852874503763 -1.36531782888e-18)
(1.89076827896 0.91015060579 -1.05483002418e-18)
(1.87219173715 0.95159886157 1.16602529676e-18)
(1.739382953 0.925453115293 7.4822645579e-19)
(1.36642950387 0.751201645485 0)
(0.635002168905 0.356693890977 0)
(1.90414933519 0.608047940015 -7.87881112151e-19)
(1.93001916829 0.646326357928 -1.37675216418e-18)
(1.9544919278 0.685694091731 -5.50158817876e-19)
(1.98136125877 0.729787672547 -3.49704186373e-20)
(2.01082936369 0.779024969852 0)
(2.03381437588 0.829803865307 1.46814607436e-19)
(2.01536293428 0.864629441948 1.74401725663e-19)
(1.86789757557 0.834181695256 2.21701677103e-19)
(1.45624186075 0.668671424875 -3.34803549523e-19)
(0.666149274457 0.309668632915 -8.43176165013e-20)
(1.98934274875 0.534423167434 9.51444447297e-19)
(2.02248688915 0.567606500407 -4.40556940197e-20)
(2.05597392126 0.602286391001 -1.13866816415e-18)
(2.09216685165 0.640969628099 0)
(2.13014498914 0.683896059185 0)
(2.15901337398 0.727671277439 0)
(2.13921344704 0.755408251928 1.48081093586e-18)
(1.97459647187 0.721136729158 -1.76335871823e-18)
(1.52334639895 0.569055203417 -1.14418835993e-18)
(0.681349545504 0.255396498371 -3.38446819079e-20)
(2.06484607019 0.442764066061 -1.28924178907e-18)
(2.10312829524 0.470902883741 -2.71833976018e-18)
(2.14344966866 0.500485929187 -4.77076562344e-21)
(2.18706534678 0.533214843248 5.60884402848e-19)
(2.23188244944 0.569190278004 -4.23138184619e-20)
(2.26483883291 0.605324926615 1.28860284997e-18)
(2.24118020207 0.626162498544 -7.281588732e-19)
(2.05705082711 0.589267192206 -2.21596247275e-18)
(1.56340461994 0.457652717251 1.76151648647e-19)
(0.68240126095 0.199325986593 1.30326014691e-19)
(2.1283643831 0.338297877127 -1.04895621758e-18)
(2.17037687263 0.360654414975 1.70649733399e-20)
(2.2157032396 0.384135719947 4.12893423434e-19)
(2.26473683128 0.409954412989 -4.04847508475e-19)
(2.31431898471 0.438113409516 6.37820199873e-19)
(2.34907361954 0.465889614342 1.83835485536e-18)
(2.31921165832 0.47928930395 -2.33821357239e-19)
(2.11056064867 0.447718302124 -1.22399953327e-18)
(1.57741856704 0.339810589088 2.93208175313e-19)
(0.67166539268 0.139478948982 5.88491309941e-20)
(2.17652416617 0.224719890916 4.01480745909e-19)
(2.22132063157 0.240629744186 8.54226443274e-20)
(2.27016500771 0.257078187606 -4.41833534804e-19)
(2.32285833065 0.275151125729 -1.03928564922e-18)
(2.37528283036 0.294646859522 9.79203261715e-20)
(2.40936248998 0.312830211444 1.0139698142e-19)
(2.36902635409 0.32226855404 -1.69412664911e-18)
(2.13524908559 0.299381958874 6.77649313575e-19)
(1.56862901156 0.218398025447 2.12577062697e-19)
(0.647179041064 0.0811665223556 -1.83621421818e-19)
(2.20725194288 0.104912764714 7.94047069784e-19)