/*--------------------------------*- C++ -*----------------------------------*\
  =========                 |
  \\      /  F ield         | OpenFOAM: The Open Source CFD Toolbox
   \\    /   O peration     | Website:  https://openfoam.org
    \\  /    A nd           | Version:  13
     \\/     M anipulation  |
\*---------------------------------------------------------------------------*/
FoamFile
{
    format      ascii;
    class       volScalarField;
    location    "5.4";
    object      p;
}
// * * * * * * * * * * * * * * * * * * * * * * * * * * * * * * * * * * * * * //

dimensions      [0 2 -2 0 0 0 0];

internalField   nonuniform List<scalar> 
440
(
-0.613318
-0.593155
-0.608867
-0.566661
-0.671745
-0.655543
-0.638853
-0.621264
-0.596099
-0.592772
-0.757056
-0.730562
-0.701232
-0.666726
-0.630058
-0.881707
-0.839183
-0.770901
-0.68725
-0.6012
-0.987022
-0.930064
-0.803654
-0.666896
-0.538106
-0.914745
-0.922632
-0.942237
-0.969655
-0.990874
-0.731397
-0.739367
-0.75533
-0.772838
-0.782018
-0.626524
-0.627444
-0.629941
-0.632047
-0.630246
-0.61516
-0.609073
-0.602496
-0.591024
-0.577474
-0.566813
-0.56027
-0.54998
-0.519922
-0.518047
-0.975252
-1.0367
-0.735384
-0.401488
-0.00757633
-0.799239
-1.04293
-0.883661
-0.43424
-0.0145908
-0.663213
-1.02052
-0.970034
-0.457966
-0.0266756
-0.567013
-0.958575
-0.957751
-0.461581
-0.0476893
-0.536545
-0.917449
-0.922547
-0.463647
-0.0769048
-0.332072
-0.874714
-0.859822
-0.453358
-0.113514
-0.28969
-0.691125
-0.672552
-0.411276
-0.146044
-0.268424
-0.483446
-0.488007
-0.368787
-0.165532
-0.187817
-0.318715
-0.403669
-0.353353
-0.155724
-0.136813
-0.187952
-0.276689
-0.355074
-0.166576
-0.314659
-0.439568
-0.593939
-0.739003
-0.797633
-0.0854123
-0.220534
-0.301172
-0.350854
-0.352009
0.0584841
-0.05985
-0.136666
-0.198272
-0.238
0.151315
0.0402453
-0.0490761
-0.113475
-0.157372
0.197068
0.0870136
-0.00446181
-0.0636437
-0.101263
0.948571
0.800792
0.611857
0.402143
0.169677
0.542751
0.384009
0.187312
-0.0311149
-0.273089
0.147754
-0.0131108
-0.216005
-0.442626
-0.646537
-0.182949
-0.345569
-0.540859
-0.751003
-0.901083
-0.400416
-0.55614
-0.732063
-0.911764
-1.00584
2.09898
2.13211
2.16227
2.17761
2.17449
1.90898
1.93291
1.95334
1.95655
1.93699
1.69176
1.67973
1.64518
1.58809
1.50355
1.44153
1.40803
1.3381
1.23554
1.10238
1.19699
1.09641
0.963547
0.808241
0.617744
1.81783
1.81071
1.80233
1.87217
1.97008
1.80792
1.80014
1.78387
1.85063
1.88092
1.79898
1.78648
1.76195
1.81877
1.77924
1.79126
1.7703
1.73818
1.76877
1.61488
1.78472
1.75357
1.71292
1.71579
1.43958
1.77964
1.72881
1.68029
1.60982
1.246
1.77801
1.69833
1.67129
1.46601
1.29673
1.78501
1.68301
1.66642
1.3936
1.30888
1.78238
1.65663
1.65797
1.3503
1.32452
1.81852
1.65507
1.65498
1.32419
1.36809
0.910437
0.618515
0.293699
0.0237749
-0.162592
0.8215
0.618576
0.405815
0.220914
0.0533564
0.817541
0.65272
0.49178
0.339244
0.189483
0.886901
0.727657
0.571534
0.420915
0.282173
0.945957
0.77837
0.620126
0.467974
0.330482
-1.65319
-1.49716
-1.32085
-1.17694
-1.0919
-1.72774
-1.65654
-1.52192
-1.41069
-1.34335
-1.64804
-1.59762
-1.51566
-1.44685
-1.40041
-1.48887
-1.44473
-1.39847
-1.36079
-1.33408
-1.34936
-1.32364
-1.29671
-1.28109
-1.2899
-1.28061
-1.26651
-1.24253
-1.25298
-1.23546
-1.2603
-1.24682
-1.23177
-1.23377
-1.23519
-1.26064
-1.25077
-1.24354
-1.24693
-1.26321
-1.23209
-1.23397
-1.24867
-1.27776
-1.31526
-1.10095
-1.10734
-1.13031
-1.16823
-1.20807
-1.25032
-0.800113
-0.377198
-0.17251
-0.0081556
-1.26326
-0.756561
-0.36718
-0.171536
-0.00312365
-1.23288
-0.779612
-0.406225
-0.212731
-0.00148331
-1.25136
-0.892708
-0.490871
-0.296921
-0.00156074
-1.17008
-0.990762
-0.602917
-0.361828
-0.00344635
-0.811683
-0.918534
-0.493649
-0.193925
-0.0157024
-1.12416
-0.863682
-0.410234
-0.168011
-0.011243
-1.04193
-1.30774
-1.36335
-1.31743
-1.10597
-1.06273
-1.31437
-1.37481
-1.31618
-1.29068
1.68712
1.65985
1.61459
1.55192
1.46824
1.89071
1.90922
1.91164
1.896
1.86284
2.0646
2.09732
2.12234
2.13448
2.13139
2.16713
2.20778
2.25086
2.2858
2.30151
2.17774
2.21703
2.26072
2.29719
2.31405
-0.601539
-0.711368
-0.884287
-1.09274
-1.34399
0.0467925
-0.0967111
-0.287314
-0.516697
-0.812924
0.626766
0.478031
0.300594
0.0905505
-0.177035
1.09498
0.977989
0.836274
0.664475
0.45462
1.46867
1.38607
1.27909
1.1512
1
1.88147
1.84087
1.83328
1.8402
1.85232
1.86597
1.83714
1.8335
1.86011
1.92147
1.85262
1.83242
1.83306
1.8812
2.00134
1.84012
1.82667
1.8274
1.88855
2.01512
1.82847
1.81992
1.81694
1.8858
2.01034
1.93636
1.84785
1.81923
1.76333
1.71432
1.89207
1.83779
1.8163
1.78515
1.72907
1.34532
1.10532
0.691018
0.0938694
-0.569248
1.43345
1.14125
0.709184
0.116464
-0.560334
)
;

boundaryField
{
    left
    {
        type            zeroGradient;
    }
    right
    {
        type            fixedValue;
        value           uniform 0;
    }
    down
    {
        type            zeroGradient;
    }
    up
    {
        type            zeroGradient;
    }
    cylinder
    {
        type            zeroGradient;
    }
    defaultFaces
    {
        type            empty;
    }
}


// ************************************************************************* //
