/*--------------------------------*- C++ -*----------------------------------*\
  =========                 |
  \\      /  F ield         | OpenFOAM: The Open Source CFD Toolbox
   \\    /   O peration     | Website:  https://openfoam.org
    \\  /    A nd           | Version:  13
     \\/     M anipulation  |
\*---------------------------------------------------------------------------*/
FoamFile
{
    format      ascii;
    class       surfaceScalarField;
    location    "0.99";
    object      phi;
}
// * * * * * * * * * * * * * * * * * * * * * * * * * * * * * * * * * * * * * //

dimensions      [0 3 -1 0 0 0 0];

internalField   nonuniform List<scalar> 
823
(
0.0113783
-0.0505537
0.0391754
0.03876
-0.133435
0.106053
0.0788337
-0.205877
0.165804
0.130172
-0.26887
0.217532
-0.323261
0.259419
0.194014
0.0107034
-0.0612572
0.036144
-0.158875
0.0726492
-0.242382
0.117973
-0.314194
-0.375601
0.170313
0.00837713
-0.0696343
0.0282853
-0.178784
0.0567257
-0.270823
0.0918102
-0.349279
-0.41605
0.132259
0.00529925
-0.0749335
0.0179955
-0.19148
0.0362293
-0.289057
0.0588833
-0.371933
-0.442414
0.0852472
0.00196194
-0.0768955
0.00662993
-0.196148
0.0132895
-0.295716
0.0215216
-0.380165
0.0310616
-0.451954
0.00661055
-0.0107694
0.00415871
0.022118
-0.0309465
0.015439
0.0452992
-0.048552
0.0253707
0.0744292
-0.0640005
0.0348706
-0.0770983
0.108067
0.0434603
0.00573685
-0.0165063
0.0214306
-0.0466402
0.0466091
-0.0737305
0.0796221
-0.0970136
-0.116139
0.118663
0.0063879
-0.0228942
0.0236361
-0.0638884
0.0511901
-0.101285
0.0878435
-0.133667
-0.160142
0.131847
0.00753528
-0.0304295
0.0270828
-0.0834359
0.0573037
-0.131505
0.0969975
-0.173361
-0.207909
0.144765
0.00874593
0.0313632
0.0656614
0.109833
0.161342
0.322392
-0.958686
0.744361
0.474583
-0.82437
0.672179
0.575456
-0.358502
0.257629
0.619906
-0.0713326
0.0268831
0.0017517
-0.00777806
0.330063
-1.17009
0.470718
-0.965026
0.576758
-0.464541
0.644492
-0.139067
-0.0244325
0.336226
-1.37446
0.460445
-1.08924
0.562463
-0.56656
0.644916
-0.22152
-0.0694268
0.337208
-1.56691
0.44742
-1.19946
0.540426
-0.659565
0.615482
-0.296576
-0.108867
0.327598
-1.73316
0.427821
-1.29968
0.508722
-0.740467
0.571458
-0.359312
-0.139115
1.19773
-1.59057
-1.34032
1.00764
-1.10959
0.884744
-0.617571
0.823714
-0.298282
-0.115683
1.32964
-1.13313
-1.78709
0.981486
-0.761437
0.772636
-0.408721
0.675597
-0.201243
-0.0806145
1.18935
-0.607674
-1.7148
0.816043
-0.388134
0.609903
-0.202581
0.510336
-0.101675
-0.04242
0.822341
-0.185289
-1.24473
0.545275
-0.111068
0.396277
-0.0535835
0.321955
-0.0273531
-0.0122943
0.306716
-0.492004
0.195648
0.142065
0.114712
1.56259
0.0462488
-1.57778
1.52169
0.126153
1.46266
0.191282
1.39634
0.236635
0.250038
1.67586
0.0356504
-1.66526
1.69931
0.102694
1.7308
0.159794
1.76527
0.202166
0.228224
1.38797
0.0184771
-1.37079
1.43705
0.053608
1.51387
0.0829775
1.61014
0.105892
0.123567
0.977699
0.00531439
-0.964536
1.01588
0.0154233
1.07582
0.0230448
1.15388
0.0278276
0.0327213
0.392987
-0.387673
0.408411
0.431455
0.459283
0.128769
0.327629
-0.264674
-0.191724
0.0781586
0.273215
-0.222604
0.038525
0.209792
-0.170158
0.0113404
0.136442
-0.109257
0.0519521
-0.0406116
0.115953
0.378907
-0.167231
0.0714993
0.317669
0.0356199
0.245671
0.0105618
0.1615
0.0625138
0.0888496
0.418274
-0.128217
0.0548116
0.351707
0.0272884
0.273194
0.00806523
0.180723
0.070579
0.0552406
0.443533
-0.0804991
0.0337631
0.373184
0.0166552
0.290302
0.00486436
0.192514
0.0754434
0.0174805
-0.025902
0.0104998
0.00508594
0.00145208
0.0727079
0.0873852
-0.107369
-0.0527237
0.0429347
0.0737579
-0.0439846
0.0197596
0.0569808
-0.0338057
0.00514507
0.0368385
-0.0222241
0.0133085
-0.00816342
0.0760112
0.125966
-0.114592
0.0437102
0.106059
0.0196359
0.081055
0.00508767
0.0513868
0.0183962
0.0843387
0.168601
-0.126973
0.0490484
0.141349
0.022712
0.107391
0.0061666
0.0679322
0.0245628
0.0940128
0.214701
-0.140113
0.0557422
0.17962
0.0265116
0.136622
0.00742361
0.0870202
0.0319864
0.107383
-0.157356
0.0643985
0.0308622
0.00862519
0.513549
0.177889
-0.295458
0.564311
0.157924
-0.208686
0.498056
0.314153
-0.247898
0.335427
0.802685
-0.640055
1.04198
-0.81392
0.515195
0.0586733
0.563499
0.10962
0.488956
0.388696
0.331626
0.960014
1.25901
0.516087
-0.0614345
0.550483
0.0752249
0.468029
0.47115
0.327995
1.10005
1.46003
0.512682
-0.178137
0.52795
0.0599577
0.442121
0.556979
0.323605
1.21856
1.64353
0.499909
-0.282066
0.494328
0.0655378
0.412274
0.639034
0.311783
1.31905
1.79795
0.761574
-0.439619
0.840331
-0.0132196
0.95593
0.523435
1.16944
1.10554
1.61981
1.34759
0.70486
-0.540459
0.778174
-0.0865333
0.953446
0.348162
1.29746
0.761525
1.14354
1.77373
0.602266
-0.538704
0.632316
-0.116583
0.803161
0.177317
1.17242
0.392264
0.612046
1.70391
0.448525
-0.383208
0.405053
-0.0731118
0.535816
0.0465543
0.815994
0.112086
0.186909
1.24113
0.220812
0.1477
0.194254
0.30634
0.493249
1.40261
-0.246739
1.46575
-0.230374
1.523
-0.185465
1.56316
-0.120658
-0.0405262
1.75264
-0.225645
1.71972
-0.19746
1.69061
-0.156349
1.67083
-0.100881
-0.0349546
1.60146
-0.123193
1.50876
-0.104757
1.43456
-0.0821511
1.38705
-0.0533739
-0.018696
1.15107
-0.033135
1.07431
-0.0279903
1.0153
-0.0231449
0.977572
-0.0156458
-0.00566048
0.460114
0.432124
0.408979
0.393333
0.00250158
0.043009
-0.0455106
0.00732842
0.101057
-0.105884
0.0160962
0.148403
-0.157171
0.0165795
0.151918
-0.152401
0.114035
0.0148151
-0.11227
0.00682889
0.0361802
0.0201792
0.0877067
0.0409604
0.127622
0.0482581
0.14462
0.116388
0.0459045
0.00880998
0.0273702
0.0270786
0.0694381
0.0521542
0.102547
0.073097
0.123677
0.114042
0.0754435
0.00780178
0.0195684
0.025515
0.0517249
0.0497512
0.0783106
0.0774358
0.0959927
0.0992468
0.0922309
0.00509884
0.0144696
0.0179731
0.0388506
0.0367677
0.0595159
0.0600137
0.0727467
0.0767435
0.0825169
0.0034231
0.0110464
0.0125788
0.0296949
0.0274452
0.0446495
0.0470662
0.0531258
0.0561429
0.0676668
0.00222145
0.008825
0.00893453
0.0229818
0.0222854
0.0312987
0.0410506
0.0343606
0.0347449
0.0624485
0.00168268
0.00714234
0.0101679
0.0144966
0.0262529
0.0152136
0.0468322
0.0137812
0.0114708
0.0701062
0.00378274
0.0033596
0.0176083
0.000671068
0.0369656
-0.00414366
0.0600067
-0.00925999
-0.0144602
0.0859376
0.00751823
0.0236283
0.0448554
0.0704659
0.099466
0.153987
0.0194805
-0.105801
0.243733
-0.130712
0.0409651
0.265258
-0.0385159
0.0169916
0.269952
0.0046429
-0.00933698
-0.000707688
-0.00519797
0.215063
-0.133134
0.325758
-0.241407
0.35214
-0.064898
0.354366
0.0024176
-0.00307233
0.260444
-0.323471
0.39198
-0.372944
0.434575
-0.107493
0.435665
0.00132738
-0.000925612
0.293679
-0.531213
0.439375
-0.51864
0.503853
-0.17197
0.510243
-0.00506233
0.00423059
0.312614
0.466153
0.551812
0.573633
0.0707138
0.0386346
-0.109348
0.0787316
-0.00801783
0.0831494
-0.00441773
0.0803915
0.00275793
0.0013037
0.194241
-0.261407
0.227188
0.239762
0.233183
0.0207331
-0.00433173
-0.0164014
0.034284
-0.0135509
0.0567635
-0.0224795
0.0856243
-0.0288608
-0.0237241
0.0539263
-0.043443
0.0862799
0.139244
0.202614
0.0478215
-0.0551593
0.0763612
-0.0690234
0.0275534
-0.0521796
0.0724477
0.0123373
-0.0443869
0.059603
0.0033184
-0.0300428
0.0390617
-0.0112608
0.0145792
0.0453518
-0.0322869
-0.0682242
0.024934
-0.0317619
0.00980881
-0.0292617
0.00218696
-0.022421
-0.00907381
0.056028
-0.00670889
-0.0816061
0.0330955
-0.00882943
0.0142551
-0.0104214
0.00258026
-0.0107461
-0.00649354
0.0701427
0.0215508
-0.0984023
0.044854
0.0164593
0.0233738
0.0110588
0.00692087
0.00570677
0.000427314
0.0745255
-0.105698
0.0470003
0.0242534
0.00773614
0.0165861
-0.114033
-0.0148234
0.0160951
-0.15191
0.00730704
-0.148383
0.00248927
-0.101066
-0.0430213
0.0482733
-0.116377
-0.0459289
0.0409339
-0.144571
0.020165
-0.127614
0.00682164
-0.0877228
-0.0361997
0.0731265
-0.113971
-0.0755326
0.0521258
-0.12357
0.0270667
-0.102555
0.00880683
-0.0694629
-0.0273929
0.0773409
-0.0989753
-0.0923368
0.0496233
-0.0958527
0.025435
-0.0783668
0.0077762
-0.0518042
-0.0196167
0.0599487
-0.0825628
0.0365437
0.01778
0.00503751
0.341912
0.583349
-0.529281
0.280601
0.224936
-0.163626
0.247103
0.0560727
-0.0225749
0.165212
0.112781
-0.0308898
-0.00110967
0.0972979
0.407667
0.571662
0.371385
0.261218
0.335311
0.0921467
0.23346
0.214631
0.164126
0.459531
0.508111
0.451334
0.269415
0.409025
0.134456
0.283732
0.339925
0.366252
0.494278
0.409813
0.51406
0.249633
0.461474
0.187042
0.318027
0.483372
0.585877
0.510335
0.551281
0.490425
0.333742
0.15867
0.351381
0.0848142
0.0738559
0.0797962
0.00501805
0.0724136
0.00738256
-0.0369834
0.109397
0.332151
0.242382
0.224825
0.201318
0.261632
0.0856732
0.0237238
0.0567955
0.0288777
0.0342951
0.0225004
0.0207366
0.0135585
0.00433524
0.202793
0.139334
0.0863016
0.0539312
)
;

boundaryField
{
    left
    {
        type            calculated;
        value           nonuniform List<scalar> 
17
(
-0.60402
-0.60402
-0.60402
-0.60402
-0.60402
-0.39598
-0.39598
-0.39598
-0.39598
-0.39598
-0.39598
-0.39598
-0.39598
-0.39598
-0.39598
-0.510051
-0.510051
)
;
    }
    right
    {
        type            calculated;
        value           nonuniform List<scalar> 
17
(
0.0790878
0.229289
0.275858
0.356731
0.433519
0.505087
0.570086
0.625933
0.670677
0.68991
0.654921
0.601707
0.800282
0.640529
0.472141
0.291829
0.102418
)
;
    }
    down
    {
        type            calculated;
        value           uniform 0;
    }
    up
    {
        type            calculated;
        value           uniform 0;
    }
    cylinder
    {
        type            calculated;
        value           uniform 0;
    }
    defaultFaces
    {
        type            empty;
    }
}


// ************************************************************************* //
