/*--------------------------------*- C++ -*----------------------------------*\
  =========                 |
  \\      /  F ield         | OpenFOAM: The Open Source CFD Toolbox
   \\    /   O peration     | Website:  https://openfoam.org
    \\  /    A nd           | Version:  13
     \\/     M anipulation  |
\*---------------------------------------------------------------------------*/
FoamFile
{
    format      ascii;
    class       volScalarField;
    location    "0.99";
    object      strainRateViscosityModel:nu;
}
// * * * * * * * * * * * * * * * * * * * * * * * * * * * * * * * * * * * * * //

dimensions      [0 2 -1 0 0 0 0];

internalField   nonuniform List<scalar> 
440
(
9.41953
8.96974
8.54456
8.04242
7.5862
9.68995
9.35817
8.98179
8.48006
7.87558
9.80074
9.53084
9.15877
8.5851
7.84826
9.84962
9.61817
9.25861
8.64755
7.86607
9.86917
9.65606
9.30591
8.68093
7.90878
1.309
1.7904
2.04942
2.29935
2.36347
3.38734
3.30183
3.31522
3.42294
3.49364
5.89265
5.27127
4.92709
4.72645
4.75599
7.7695
6.99347
6.42023
5.90433
5.82655
8.82061
8.15139
7.55215
6.91816
6.87139
1.85042
0.845297
0.424539
0.169242
0.190468
2.61406
0.905358
0.367984
0.141568
0.0810739
3.51039
1.14469
0.299538
0.111746
0.0213122
4.09026
1.4325
0.274409
0.0570335
0.110512
4.60329
1.74965
0.318967
0.0114692
0.196884
4.22894
1.73886
0.312207
0.0841051
0.295104
3.71218
1.82531
0.636816
0.304954
0.409578
4.9203
3.20803
1.24434
0.560076
0.514505
7.0095
4.2876
1.91836
0.900054
0.629887
8.27286
5.07565
2.49607
1.3038
0.80464
2.84816
3.68246
4.61952
5.50532
6.14852
3.68377
3.69672
3.77237
3.85239
3.36796
8.22647
8.08652
7.7993
7.38546
6.34652
9.0529
8.99236
8.85902
8.62148
8.16013
9.60671
9.56995
9.48702
9.33805
9.1188
7.50319
8.01245
8.55947
9.01088
9.46415
7.79401
8.45169
8.98717
9.37788
9.70863
7.77901
8.55907
9.15944
9.54077
9.80944
7.81628
8.62756
9.25739
9.62275
9.85359
7.89134
8.67365
9.30535
9.65743
9.87034
2.53592
2.47689
2.27686
2.12236
2.05138
3.48116
3.4333
3.47422
3.69472
4.2491
4.63517
4.65863
5.04955
5.59977
6.45284
5.68264
5.82494
6.49697
7.18776
8.04128
6.75278
6.84134
7.5802
8.24263
8.93532
0.214524
0.0633831
0.286628
0.877093
2.02993
0.188887
0.0791566
0.232702
0.89399
2.6613
0.171016
0.0805678
0.173415
1.08214
3.43898
0.158995
0.0599884
0.155113
1.38386
3.9399
0.159096
0.0642194
0.24539
1.73183
4.36287
0.205822
0.101823
0.27469
1.86805
4.09958
0.339359
0.119455
0.283087
1.81796
3.86239
0.669768
0.235352
0.772373
3.03792
4.90874
2.2759
0.812974
1.50816
4.16248
6.96074
5.0581
2.53608
2.41785
5.03726
8.27918
5.94662
5.26571
4.4021
3.51025
2.77972
3.52262
3.99141
3.97117
3.87647
3.76368
6.3211
7.35231
7.77898
8.06765
8.21844
8.12118
8.59991
8.84942
8.98861
9.05202
9.11695
9.33782
9.48741
9.57051
9.60696
9.3109
7.9169
1.39868
3.63026
7.73685
9.08189
7.44086
3.20604
1.64078
6.7891
8.39875
6.57778
4.20857
1.00362
4.14771
6.81575
5.09481
3.45532
1.70083
1.03869
4.50396
3.14527
2.03877
1.37808
0.4602
2.59754
1.61861
1.00262
0.797449
0.927036
1.45669
0.779368
0.580599
0.614108
0.68671
0.800868
0.406972
0.592579
0.761385
0.834633
0.304809
0.509951
0.886986
1.05299
1.11434
0.163698
0.93561
1.28179
1.51827
1.57287
0.1907
0.363508
0.712634
0.78089
0.735177
0.396578
0.502816
0.58143
0.640376
0.628361
0.616208
0.650308
0.467272
0.497119
0.518154
0.968286
0.799125
0.420529
0.358582
0.406379
1.3318
0.848262
0.426741
0.242833
0.292858
1.10602
0.86
1.12685
1.11176
0.996477
0.28335
0.473015
0.868822
0.923728
0.846506
9.1912
8.8387
7.75889
5.73036
3.55989
8.58734
7.72297
5.85165
3.49146
0.865797
0.964451
0.858031
1.02665
1.62022
2.65828
0.812757
0.766685
0.703257
0.824345
1.52691
1.05928
1.01051
0.84724
0.552718
0.745501
1.38542
1.34842
1.15048
0.798582
0.22921
1.85888
1.81219
1.55986
1.24154
0.598738
7.73639
3.62721
1.39996
7.91514
9.31104
6.7853
1.64061
3.20266
7.43777
9.08253
4.13444
1.01085
4.1944
6.5732
8.40033
1.03691
1.70527
3.43376
5.08575
6.82226
0.475936
1.37616
2.01483
3.12779
4.52683
1.31281
0.540563
0.551347
0.451894
0.175599
0.679391
0.289077
0.469514
0.518801
0.485019
0.402415
0.149556
0.382799
0.621151
0.803682
0.293441
0.0655831
0.342735
0.775101
1.22457
0.248466
0.0465912
0.320491
0.862674
1.59119
5.48155
2.46102
1.03488
0.957899
1.14176
2.88816
1.08745
0.72459
0.553555
0.252487
3.56817
5.73584
7.76006
8.83923
9.19135
0.843824
3.47233
5.8451
7.7216
8.58719
)
;

boundaryField
{
    left
    {
        type            calculated;
        value           nonuniform List<scalar> 
17
(
0.462031
1.12802
2.18789
3.90983
6.58068
0.306076
0.189913
0.13923
0.144842
0.215673
2.95975
2.06309
1.34261
0.826077
0.503375
6.97893
4.57987
)
;
    }
    right
    {
        type            calculated;
        value           nonuniform List<scalar> 
17
(
0.996776
0.847963
0.737335
0.631334
0.520658
0.405767
0.285915
0.175428
0.064911
0.0185775
0.133037
0.252353
0.359839
0.461874
0.546197
0.641953
0.796814
)
;
    }
    down
    {
        type            calculated;
        value           nonuniform List<scalar> 
20
(
5.9954
3.00049
1.14446
1.04042
1.85323
4.2703
6.38394
8.13151
9.01585
9.3093
9.30913
9.0152
8.13002
6.37991
4.26423
1.83189
0.934502
1.1934
1.16871
1.04318
)
;
    }
    up
    {
        type            calculated;
        value           nonuniform List<scalar> 
20
(
8.54865
5.40371
2.72542
1.45468
0.87223
9.69562
9.66615
9.59857
9.47421
9.2934
9.29641
9.47647
9.60018
9.66726
9.69603
5.70595
3.14787
2.65797
5.39311
8.5656
)
;
    }
    cylinder
    {
        type            calculated;
        value           nonuniform List<scalar> 
40
(
1.37624
3.59245
6.11886
7.96019
8.95698
9.5051
9.74576
9.84079
9.88145
9.89745
9.54741
9.76282
9.84855
9.88495
9.89848
2.2901
4.52706
6.69983
8.23429
9.06979
3.04369
1.85066
1.09538
0.448126
0.605612
9.51907
9.33192
8.74238
7.26987
4.98631
9.5189
9.33118
8.74031
7.26161
4.95775
2.9662
1.73398
1.07385
0.666518
0.102709
)
;
    }
    defaultFaces
    {
        type            empty;
    }
}


// ************************************************************************* //
