/*--------------------------------*- C++ -*----------------------------------*\
  =========                 |
  \\      /  F ield         | OpenFOAM: The Open Source CFD Toolbox
   \\    /   O peration     | Website:  https://openfoam.org
    \\  /    A nd           | Version:  13
     \\/     M anipulation  |
\*---------------------------------------------------------------------------*/
FoamFile
{
    format      ascii;
    class       volVectorField;
    location    "0.99";
    object      U;
}
// * * * * * * * * * * * * * * * * * * * * * * * * * * * * * * * * * * * * * //

dimensions      [0 1 -1 0 0 0 0];

internalField   nonuniform List<vector> 
440
(
(0.218254 -0.176689 -1.81149e-19)
(0.613074 -0.436649 1.07861e-18)
(0.984294 -0.640902 4.23041e-19)
(1.32755 -0.795401 1.24341e-18)
(1.63259 -0.916787 -2.5996e-19)
(0.30489 -0.177681 -5.44451e-19)
(0.81913 -0.428695 -1.01955e-18)
(1.27997 -0.618897 1.14524e-19)
(1.69191 -0.76164 -1.21508e-18)
(2.05375 -0.875127 -1.02099e-18)
(0.384877 -0.152406 -6.98055e-19)
(1.00468 -0.363013 1.58978e-18)
(1.53975 -0.518384 -1.93457e-18)
(2.00471 -0.632634 1.37979e-18)
(2.40594 -0.721483 1.42951e-18)
(0.445865 -0.102745 5.62385e-19)
(1.14609 -0.243083 -1.29949e-18)
(1.73743 -0.344812 -7.50797e-19)
(2.24293 -0.418222 1.96645e-18)
(2.67445 -0.474467 2.50024e-18)
(0.479253 -0.0361581 6.86899e-19)
(1.22363 -0.0847542 1.69138e-19)
(1.84589 -0.119363 2.53128e-18)
(2.37401 -0.143865 -1.062e-18)
(2.82294 -0.162496 -4.83733e-19)
(-0.000947827 -0.0519056 2.72545e-19)
(0.0499394 -0.144928 -3.83414e-19)
(0.105839 -0.223194 1.11093e-18)
(0.17134 -0.293169 -1.77143e-19)
(0.239476 -0.354866 -1.60469e-18)
(0.0137145 -0.0844202 -2.63786e-19)
(0.0892403 -0.228142 -4.31305e-19)
(0.174006 -0.350702 1.09986e-19)
(0.268244 -0.450781 5.94513e-20)
(0.364473 -0.531002 -3.55567e-20)
(0.0433471 -0.114283 7.03044e-20)
(0.165443 -0.303268 5.32485e-19)
(0.296123 -0.467608 9.5075e-20)
(0.4328 -0.599197 1.45466e-18)
(0.567844 -0.697857 -2.4937e-20)
(0.0866147 -0.140986 6.69826e-20)
(0.276364 -0.367829 -3.5631e-20)
(0.469487 -0.563063 2.18542e-19)
(0.661408 -0.718647 -2.03226e-18)
(0.844131 -0.830646 9.56373e-19)
(0.142116 -0.161711 -2.35621e-19)
(0.420074 -0.412837 -4.42272e-19)
(0.691403 -0.621477 -7.69645e-19)
(0.950162 -0.782448 9.52485e-19)
(1.18524 -0.892917 3.45084e-18)
(0.5924 -0.59305 -4.02199e-18)
(0.962577 -0.518723 9.76477e-19)
(1.29653 -0.215311 3.63837e-19)
(1.50198 -0.0349692 -5.72764e-19)
(1.58063 0.00088711 -5.08379e-20)
(0.785069 -0.744502 4.83089e-18)
(1.04283 -0.625665 -3.07502e-19)
(1.31943 -0.289157 -1.44135e-19)
(1.54292 -0.0837607 3.85801e-19)
(1.6935 -0.0170362 1.18559e-19)
(1.0363 -0.878893 1.54856e-18)
(1.17731 -0.711697 4.05869e-18)
(1.34095 -0.361144 6.88164e-20)
(1.54595 -0.136601 3.59863e-19)
(1.74203 -0.0500432 -5.10101e-20)
(1.33059 -0.989246 1.21615e-18)
(1.3586 -0.772719 -4.22736e-19)
(1.38521 -0.423064 -7.70288e-19)
(1.53441 -0.182939 -2.95714e-19)
(1.65371 -0.0782426 1.33767e-19)
(1.62997 -1.04784 5.86052e-21)
(1.55522 -0.812079 -1.72491e-18)
(1.44885 -0.471227 0)
(1.49917 -0.235205 3.43064e-19)
(1.51939 -0.0894323 9.64839e-20)
(2.15644 -1.11561 -1.57977e-18)
(1.83395 -0.801115 -4.89935e-19)
(1.55991 -0.457505 -9.39149e-21)
(1.37377 -0.220043 8.06093e-20)
(1.32492 -0.0850375 -2.87231e-19)
(2.6325 -0.889991 -1.61182e-18)
(1.89886 -0.591262 2.98195e-18)
(1.43156 -0.320516 6.75376e-21)
(1.1483 -0.158574 2.21751e-19)
(1.06081 -0.0630217 0)
(2.47847 -0.522955 -6.92601e-18)
(1.6048 -0.339088 -1.48914e-19)
(1.14902 -0.179354 1.96253e-18)
(0.888123 -0.0933062 -3.40242e-19)
(0.782485 -0.0390812 -2.56802e-20)
(1.76238 -0.220013 6.83491e-18)
(1.08845 -0.135721 1.24256e-18)
(0.752195 -0.0678711 2.23597e-19)
(0.571042 -0.0368463 2.96916e-33)
(0.484429 -0.0169381 -7.15324e-20)
(0.683168 0.000177088 1.5518e-18)
(0.39517 0.0235675 7.1228e-19)
(0.267721 0.02408 -5.17128e-19)
(0.205537 0.015402 2.30262e-19)
(0.171071 0.0063407 -8.41808e-20)
(3.58188 -0.168162 1.2562e-17)
(3.41717 -0.502948 -1.04437e-17)
(3.13669 -0.787015 7.1086e-18)
(2.78064 -0.996134 2.32115e-18)
(2.33319 -1.10188 -4.14161e-19)
(3.78451 -0.10359 1.03945e-17)
(3.71744 -0.324465 -6.63887e-19)
(3.57769 -0.551831 -4.26981e-18)
(3.37825 -0.785777 2.68949e-18)
(3.10028 -1.01981 -6.62781e-19)
(3.11483 -0.06057 3.65447e-18)
(3.09865 -0.181683 -2.51886e-18)
(3.0596 -0.30967 5.01276e-18)
(2.99888 -0.444871 -1.52978e-19)
(2.9243 -0.593652 -4.79031e-18)
(2.19087 -0.0276241 2.7888e-18)
(2.18384 -0.0833663 8.43055e-18)
(2.16463 -0.143999 -6.53262e-19)
(2.13408 -0.207273 -6.60889e-18)
(2.11306 -0.269436 1.94585e-18)
(0.879441 -0.0018424 5.21229e-18)
(0.876492 -0.00523855 -1.16442e-19)
(0.867374 -0.00956707 -4.25726e-20)
(0.850513 -0.016253 -2.00946e-18)
(0.841162 -0.0229044 -3.60555e-18)
(1.65318 0.940157 2.27766e-18)
(1.34832 0.816736 -7.94671e-20)
(1.00337 0.658645 -3.58358e-20)
(0.627851 0.44946 -1.96224e-19)
(0.225213 0.182282 -1.33983e-19)
(2.07053 0.892538 -1.21884e-18)
(1.71069 0.777735 -1.2046e-18)
(1.29832 0.632575 7.31621e-19)
(0.83403 0.438709 -4.83983e-19)
(0.312131 0.18208 -4.03679e-21)
(2.4186 0.735862 -5.88879e-19)
(2.01967 0.645355 5.25242e-19)
(1.55499 0.528757 2.43639e-18)
(1.01753 0.370192 8.08282e-19)
(0.391333 0.155283 5.26032e-19)
(2.68202 0.486724 1.57262e-20)
(2.25238 0.428294 -2.71543e-19)
(1.74743 0.352324 -6.46735e-19)
(1.15476 0.247644 2.05638e-18)
(0.450322 0.104144 -3.26824e-19)
(2.82546 0.173874 -1.1705e-18)
(2.37727 0.152648 -1.60647e-18)
(1.84939 0.125347 -7.28683e-19)
(1.22671 0.0878342 7.96265e-19)
(0.480854 0.0366867 -3.25824e-19)
(0.241553 0.417681 -2.15496e-18)
(0.171249 0.354116 -1.82721e-18)
(0.103639 0.27761 3.18383e-19)
(0.0458736 0.184068 -4.91381e-20)
(-0.00158371 0.067756 3.42363e-20)
(0.371249 0.595558 -7.99988e-19)
(0.274287 0.511045 -6.76723e-19)
(0.178913 0.400207 1.46731e-20)
(0.0926698 0.260052 -2.65345e-20)
(0.0169236 0.0967275 2.69834e-20)
(0.581634 0.754698 2.18872e-18)
(0.446188 0.650624 -1.50455e-19)
(0.307947 0.507853 -1.45542e-19)
(0.174431 0.32894 -2.15621e-19)
(0.0484585 0.124098 1.66934e-19)
(0.862016 0.87561 -1.29406e-18)
(0.679129 0.758863 1.9724e-18)
(0.485259 0.594439 2.98495e-19)
(0.288335 0.388554 1.02778e-19)
(0.0925588 0.149218 -1.18494e-19)
(1.2037 0.925452 -4.40775e-19)
(0.969103 0.811975 -4.57542e-19)
(0.708574 0.645156 3.59247e-19)
(0.433306 0.429186 3.58805e-19)
(0.148453 0.168527 1.8952e-21)
(0.948929 0.170137 -4.8789e-19)
(1.49467 0.130344 4.87738e-20)
(1.34216 0.196597 1.87116e-20)
(1.01643 0.498426 -4.8739e-19)
(0.600114 0.646112 6.67907e-20)
(0.95691 0.0906109 1.81966e-19)
(1.51291 0.102742 3.13809e-19)
(1.37262 0.246933 2.77505e-19)
(1.06208 0.614932 -4.91139e-20)
(0.785052 0.804466 7.53577e-19)
(0.963436 0.010179 6.23095e-20)
(1.53164 0.0777953 -2.16176e-20)
(1.37208 0.298981 -5.74893e-20)
(1.16461 0.714688 -4.03223e-19)
(1.03717 0.939088 9.12472e-20)
(0.966387 -0.0689522 -1.85832e-20)
(1.53524 0.0561646 -7.62965e-19)
(1.37024 0.352703 6.99292e-20)
(1.32534 0.783273 1.17802e-18)
(1.33494 1.04332 9.47611e-19)
(0.963548 -0.14527 -1.5158e-20)
(1.50226 0.0491635 2.2594e-19)
(1.38742 0.404184 -5.90624e-20)
(1.50939 0.824779 -3.68862e-19)
(1.63623 1.09283 -2.72579e-18)
(0.945109 -0.238937 2.59038e-19)
(1.43888 0.0176578 5.09256e-19)
(1.4621 0.397373 -4.07639e-20)
(1.7666 0.802553 3.1285e-18)
(2.15345 1.14384 -5.51885e-18)
(0.889451 -0.345229 -2.51529e-20)
(1.30748 -0.0302206 -6.46024e-19)
(1.39841 0.284527 6.88585e-21)
(1.84078 0.596401 -3.07227e-18)
(2.59417 0.900833 1.67034e-18)
(0.788199 -0.411434 5.54642e-18)
(1.07665 -0.0922126 6.98159e-35)
(1.13424 0.150671 -2.11452e-18)
(1.57569 0.340898 2.62516e-18)
(2.45647 0.529769 5.032e-18)
(0.635196 -0.291793 1.51345e-19)
(0.711998 -0.0720186 5.26982e-19)
(0.73163 0.0519265 2.46742e-19)
(1.07515 0.135351 6.22436e-19)
(1.75837 0.220514 -8.64579e-18)
(0.322822 -0.0431032 -4.3082e-18)
(0.293566 0.00574075 2.8567e-19)
(0.264918 -0.0133835 1.11251e-18)
(0.393393 -0.0240315 -7.69869e-19)
(0.686216 -0.000477626 -1.46656e-18)
(2.34872 1.12134 4.69198e-18)
(2.78734 1.01263 3.47429e-18)
(3.1409 0.80342 -5.69315e-18)
(3.41899 0.51962 -1.46168e-17)
(3.58239 0.185886 1.5764e-17)
(3.07876 1.01887 5.0093e-18)
(3.35397 0.795236 2.5632e-17)
(3.55689 0.560671 7.24214e-18)
(3.70106 0.331823 -3.08274e-17)
(3.77791 0.111136 -5.17324e-18)
(2.90564 0.592026 -7.22763e-18)
(2.98594 0.448105 -3.38022e-18)
(3.05216 0.312104 -6.29648e-18)
(3.09523 0.181713 -6.88932e-18)
(3.114 0.0584198 6.52288e-18)
(2.10629 0.265881 5.41663e-18)
(2.13014 0.205726 -4.04554e-19)
(2.16255 0.143024 4.87145e-18)
(2.18313 0.0821238 6.2894e-18)
(2.19077 0.0259927 -5.88797e-18)
(0.842561 0.0220512 -5.74762e-19)
(0.851951 0.0156511 3.52136e-18)
(0.868644 0.00912997 2.4433e-18)
(0.877498 0.00479177 -5.16951e-18)
(0.879841 0.00136121 -3.84297e-20)
(0.281991 0.0207608 5.52156e-19)
(0.656795 0.0404741 -7.43634e-19)
(0.973299 0.0440746 -8.18472e-19)
(0.944468 0.0274365 -1.51804e-18)
(0.697973 0.016389 -6.6375e-19)
(0.245628 0.0554707 7.45801e-19)
(0.591378 0.107095 1.44152e-18)
(0.864825 0.125164 -6.97421e-19)
(0.940094 0.0970161 1.96083e-18)
(0.724297 0.0532512 -2.70094e-18)
(0.185658 0.0742786 4.96275e-19)
(0.476476 0.145922 -1.39886e-18)
(0.707889 0.184792 -9.13944e-19)
(0.857443 0.175441 -1.81042e-18)
(0.741679 0.101248 -2.86255e-18)
(0.123328 0.0774875 -7.72698e-19)
(0.344822 0.160383 -1.37667e-18)
(0.534621 0.214914 4.39908e-18)
(0.677822 0.233347 -3.66691e-19)
(0.713159 0.180054 2.25461e-18)
(0.0752854 0.0723779 -6.23089e-19)
(0.230745 0.16013 1.56427e-18)
(0.372327 0.224559 6.11867e-19)
(0.482871 0.257794 -1.29559e-18)
(0.561368 0.258474 -1.75015e-19)
(0.0451565 0.0637861 8.37853e-20)
(0.149964 0.148789 -1.2215e-18)
(0.247764 0.212164 -9.43926e-19)
(0.325458 0.234088 -8.88242e-20)
(0.371249 0.223824 -5.00717e-20)
(0.0264685 0.0557197 3.12321e-19)
(0.0950863 0.134327 5.90933e-19)
(0.1609 0.184786 -2.11251e-19)
(0.213771 0.195353 2.60453e-19)
(0.253644 0.185267 1.72007e-19)
(0.0133324 0.0488559 2.49503e-19)
(0.0586819 0.111321 1.33377e-18)
(0.103812 0.120954 -1.24401e-18)
(0.142848 0.107094 -2.79059e-18)
(0.179115 0.0856208 4.08269e-19)
(0.00624043 0.0392741 -2.38641e-19)
(0.0427488 0.0485145 -1.8101e-18)
(0.0800238 0.0214699 3.21952e-18)
(0.120147 -0.0103526 1.31364e-18)
(0.161698 -0.0441673 -2.6919e-19)
(0.00987054 0.00123596 2.09312e-19)
(0.0421013 -0.0505713 -4.51485e-19)
(0.0822091 -0.0967407 9.00726e-20)
(0.130912 -0.144716 1.04756e-19)
(0.18163 -0.190965 -4.00117e-22)
(0.338793 0.0718081 -7.54698e-20)
(0.614156 -0.0424417 -1.23106e-18)
(0.705039 -0.0135552 2.54631e-19)
(0.716164 0.00748456 4.0242e-19)
(0.696896 0.00446695 1.19777e-20)
(0.303197 -0.0345711 -1.00251e-19)
(0.750884 -0.115208 1.48202e-18)
(0.889473 -0.0232424 9.19909e-19)
(0.915737 0.0115618 7.51989e-20)
(0.901102 0.00753178 -3.85523e-20)
(0.320277 -0.150219 -8.16068e-19)
(0.835815 -0.198722 3.17518e-18)
(1.05155 -0.0426075 -1.81796e-19)
(1.10353 0.0143268 -3.34788e-19)
(1.09498 0.010549 6.77795e-20)
(0.376537 -0.289137 1.10348e-18)
(0.885326 -0.298588 -2.71177e-18)
(1.17463 -0.0836192 -5.37121e-19)
(1.27137 0.0114045 -3.13297e-20)
(1.27564 0.0120187 1.31646e-20)
(0.463036 -0.437675 4.9672e-19)
(0.920387 -0.406309 -5.40061e-19)
(1.25313 -0.144361 4.82139e-19)
(1.4085 -0.00296421 1.14574e-19)
(1.4397 0.0097086 2.63108e-20)
(0.182987 -0.0449717 9.55243e-19)
(0.145089 -0.00518226 0)
(0.1629 0.000955409 1.16663e-19)
(0.162134 -0.000564335 -9.32684e-21)
(0.155196 -0.000904353 -7.04443e-20)
(0.399802 0.0699704 0)
(0.409001 -0.000532991 0)
(0.467603 -0.00419679 5.18891e-20)
(0.468172 0.00377907 -3.7831e-20)
(0.449787 0.00183988 4.9414e-20)
(0.162698 -0.000821318 -3.68485e-19)
(0.186417 -0.00179194 3.1078e-18)
(0.213228 -0.00502007 -6.86357e-19)
(0.229826 -0.0149881 -3.11716e-18)
(0.245721 -0.0170085 -7.97118e-19)
(0.432061 0.0044416 6.09955e-19)
(0.484593 0.0196971 4.11572e-18)
(0.536491 0.0466992 -6.7303e-18)
(0.567669 0.0806154 2.20939e-18)
(0.598372 0.162221 3.79725e-18)
(0.370773 -0.220758 -3.32756e-19)
(0.324407 -0.231731 -9.33538e-20)
(0.248415 -0.212732 -3.33341e-19)
(0.150774 -0.150751 3.89104e-19)
(0.0458721 -0.0645741 1.13992e-19)
(0.257465 -0.170001 4.23366e-19)
(0.215057 -0.182065 1.41448e-18)
(0.162384 -0.177342 2.57297e-19)
(0.0967082 -0.135191 2.36553e-19)
(0.0269247 -0.0572056 -1.89387e-20)
(0.193172 -0.055253 -3.1256e-19)
(0.151613 -0.0778102 -1.0598e-19)
(0.108794 -0.0953667 1.63409e-18)
(0.0623152 -0.0975298 2.85076e-19)
(0.0132769 -0.0480931 -3.14615e-19)
(0.179031 0.0866479 -6.37803e-19)
(0.132917 0.0527741 -7.06387e-19)
(0.0879538 0.019016 1.31202e-18)
(0.049602 -0.0111302 1.60305e-18)
(0.0112323 -0.0300845 1.98969e-19)
(0.189413 0.244325 1.2467e-19)
(0.134839 0.198001 -1.19848e-19)
(0.0822809 0.148154 2.49075e-19)
(0.0384505 0.0970149 6.26156e-19)
(-0.00218992 0.0356276 9.36378e-20)
(0.697969 -0.0163445 1.53164e-18)
(0.944473 -0.0274144 -1.80087e-18)
(0.973109 -0.0442015 2.27012e-18)
(0.656807 -0.0405368 3.64669e-19)
(0.282025 -0.0207695 5.3671e-19)
(0.724286 -0.053146 1.77275e-18)
(0.93995 -0.0970326 7.9469e-18)
(0.864625 -0.12527 1.03371e-18)
(0.591431 -0.107135 1.34957e-18)
(0.245724 -0.0554921 -4.78536e-19)
(0.741586 -0.10101 -1.22117e-18)
(0.856842 -0.175284 -2.29683e-18)
(0.707814 -0.184858 2.9246e-18)
(0.476546 -0.145992 -1.08248e-19)
(0.185782 -0.0743148 3.39508e-19)
(0.712616 -0.179888 1.65686e-20)
(0.677142 -0.233314 -7.6872e-18)
(0.534662 -0.215251 -6.0007e-18)
(0.344961 -0.160717 1.09175e-18)
(0.123511 -0.0775914 5.08046e-19)
(0.559032 -0.257056 4.67036e-19)
(0.481892 -0.257288 5.33702e-19)
(0.372412 -0.225301 -9.00039e-19)
(0.231006 -0.160998 -8.88518e-19)
(0.0756334 -0.072634 -5.14512e-21)
(0.728122 0.373154 1.1764e-18)
(0.879708 0.127842 -1.89135e-19)
(0.676453 0.020738 2.50285e-19)
(0.6434 0.035085 -7.45947e-19)
(0.36265 -0.0620974 -1.00641e-19)
(0.828302 0.398165 -1.7106e-19)
(1.08606 0.158055 -5.89015e-19)
(0.86825 0.0396159 8.40812e-19)
(0.803553 0.097736 1.67057e-18)
(0.340344 0.0537145 1.02901e-19)
(0.893659 0.372786 -2.28112e-18)
(1.26408 0.172238 -3.80903e-20)
(1.04005 0.0640519 2.52958e-19)
(0.908231 0.176725 1.72358e-18)
(0.365002 0.176298 -1.45679e-18)
(0.927269 0.3188 1.53445e-18)
(1.39905 0.174068 1.6049e-20)
(1.17974 0.100945 -2.21265e-19)
(0.964967 0.275256 -8.21778e-19)
(0.416532 0.323201 -6.01289e-19)
(0.940786 0.247653 1.89188e-19)
(1.47253 0.157604 4.0562e-20)
(1.27905 0.146697 -9.75865e-20)
(0.994813 0.383337 -1.23223e-19)
(0.487276 0.48084 1.3718e-18)
(0.27573 0.0483756 0)
(0.244305 -0.0113097 6.51109e-19)
(0.157425 -0.0159161 1.26948e-19)
(0.150023 0.00552708 -1.10825e-19)
(0.18439 0.0441333 -1.80814e-18)
(0.573619 0.266369 -1.01989e-17)
(0.60923 0.0751474 -2.56633e-18)
(0.444561 0.0137841 5.0305e-19)
(0.422655 2.39816e-05 -6.47833e-19)
(0.407541 -0.068344 -6.62263e-19)
(0.245848 0.0169751 -7.77661e-22)
(0.229919 0.0150777 1.92878e-18)
(0.213306 0.00506438 5.24646e-19)
(0.186467 0.00180206 3.22987e-19)
(0.162714 0.000825197 0)
(0.599182 -0.162147 -1.1725e-19)
(0.568194 -0.0803469 2.5463e-18)
(0.536592 -0.046482 -1.38226e-19)
(0.484652 -0.0196443 -2.70642e-19)
(0.432084 -0.00441929 7.60549e-19)
)
;

boundaryField
{
    left
    {
        type            fixedValue;
        value           uniform (1 0 0);
    }
    right
    {
        type            zeroGradient;
    }
    down
    {
        type            noSlip;
    }
    up
    {
        type            noSlip;
    }
    cylinder
    {
        type            noSlip;
    }
    defaultFaces
    {
        type            empty;
    }
}


// ************************************************************************* //
