/*--------------------------------*- C++ -*----------------------------------*\
  =========                 |
  \\      /  F ield         | OpenFOAM: The Open Source CFD Toolbox
   \\    /   O peration     | Website:  https://openfoam.org
    \\  /    A nd           | Version:  13
     \\/     M anipulation  |
\*---------------------------------------------------------------------------*/
FoamFile
{
    format      ascii;
    class       surfaceScalarField;
    location    "0.85";
    object      phi;
}
// * * * * * * * * * * * * * * * * * * * * * * * * * * * * * * * * * * * * * //

dimensions      [0 3 -1 0 0 0 0];

internalField   nonuniform List<scalar> 
3485
(
0.00260947
0.00412308
-0.00673255
0.00975946
-0.00841551
0.00126552
0.0208469
-0.033609
0.0225215
0.0348044
-0.0638725
0.049915
0.0501952
-0.0930677
0.0776769
0.0656227
-0.117322
0.101894
0.0800551
-0.135054
0.120621
0.0929215
-0.146396
0.13353
0.104032
-0.152349
0.141238
-0.154149
0.144175
0.114006
0.0031792
0.000943874
0.0117577
-0.016994
0.0246813
-0.0465326
0.0403042
-0.0794954
0.0567491
-0.109513
0.0724889
-0.133061
0.0866633
-0.149228
0.0990748
-0.158808
0.110058
-0.163332
-0.164409
0.120318
0.00374166
-0.00279778
0.0136717
-0.0269241
0.0281326
-0.0609935
0.044818
-0.0961808
0.0614657
-0.12616
0.0765182
-0.148114
0.0893079
-0.162018
0.0998565
-0.169356
0.108539
-0.172015
-0.171581
0.115711
0.00433856
-0.00713634
0.015496
-0.0380815
0.0310824
-0.0765799
0.0481593
-0.113258
0.0642896
-0.142291
0.0781346
-0.161959
0.0894078
-0.173291
0.0984745
-0.178423
0.10594
-0.17948
-0.178187
0.112546
0.00491424
-0.0120506
0.0170297
-0.0501969
0.0331025
-0.0926527
0.0496849
-0.12984
0.0643903
-0.156996
0.0762491
-0.173818
0.0853639
-0.182406
0.0923533
-0.185413
0.0979392
-0.185066
-0.182938
0.10269
0.00543383
-0.0174844
0.0181235
-0.0628866
0.033955
-0.108484
0.0492525
-0.145138
0.0619459
-0.16969
0.0715719
-0.183444
0.0786263
-0.18946
0.083922
-0.190708
0.0881908
-0.189335
-0.18672
0.091973
0.00580111
-0.0232855
0.0185126
-0.0755981
0.0332814
-0.123253
0.0465186
-0.158375
0.0566733
-0.179844
0.0637791
-0.190549
0.0686055
-0.194287
0.0720235
-0.194126
0.074705
-0.192016
-0.18906
0.0770453
0.00596407
-0.0292496
0.0180836
-0.0877176
0.0311059
-0.136275
0.0418387
-0.169108
0.0493507
-0.187356
0.0540946
-0.195293
0.0569883
-0.19718
0.058867
-0.196005
0.0602857
-0.193435
-0.1903
0.0615249
0.00584975
-0.0350993
0.0167648
-0.0986327
0.0275205
-0.147031
0.0355265
-0.177114
0.0404226
-0.192252
0.0429276
-0.197799
0.0439757
-0.198228
0.0442985
-0.196328
0.0443323
-0.193469
-0.190214
0.0442465
0.00547838
-0.0405777
0.0147756
-0.10793
0.0230626
-0.155318
0.028454
-0.182505
0.0310346
-0.194833
0.0316464
-0.19841
0.0311583
-0.19774
0.0301785
-0.195348
0.0290352
-0.192325
0.0278311
-0.18901
-0.00264286
0.00320562
-0.000562752
-0.00642528
0.00334449
0.000437931
-0.00904165
-5.77321e-05
0.00267409
-0.00934192
-0.00520627
0.00550655
-0.0068667
-0.0109158
0.00844062
-0.00161493
-0.0163917
0.0111399
0.00613933
-0.02117
0.0134157
0.0160287
-0.0250747
0.0151853
0.0276424
-0.0280645
0.0164508
-0.0300637
0.0405328
0.0171734
-0.00240142
0.00560704
-0.00576483
0.00670789
-0.00793033
0.00210777
-0.00779424
-0.00534237
-0.00493032
-0.0137798
0.000645963
-0.021968
0.00866248
-0.0291865
0.0187134
-0.0351256
0.0303791
-0.0397303
-0.0429272
0.0432426
-0.00209859
0.00770562
-0.00493203
0.00954134
-0.00650954
0.00368528
-0.00580031
-0.0060516
-0.00241135
-0.0171687
0.00361395
-0.0279933
0.0119868
-0.0375593
0.0222735
-0.0454123
0.0340319
-0.0514886
-0.0557877
0.0468923
-0.00169549
0.00940111
-0.0038145
0.0116603
-0.00458517
0.00445595
-0.0030778
-0.00755896
0.001056
-0.0213025
0.00775129
-0.0346886
0.0166673
-0.0464753
0.0273357
-0.0560807
0.0392833
-0.0634362
-0.0687041
0.0521997
-0.00118272
0.0105838
-0.00235361
0.0128312
-0.00203023
0.00413257
0.00058914
-0.0101783
0.00578717
-0.0265006
0.0134317
-0.0423331
0.0231363
-0.0561799
0.0343848
-0.0673292
0.0466622
-0.0757137
-0.081763
0.0597212
-0.00056076
0.0111446
-0.000568776
0.0128393
0.00116485
0.00239895
0.00525636
-0.0142698
0.0118654
-0.0331096
0.0207784
-0.0512461
0.0315363
-0.0669379
0.0435723
-0.0793652
0.0563311
-0.0884725
-0.0950368
0.0696049
0.000139203
0.0110054
0.00149309
0.0114854
0.00487841
-0.000986365
0.010753
-0.0201445
0.019091
-0.0414475
0.0295375
-0.0616926
0.0415327
-0.0789331
0.0544603
-0.0922928
0.0677467
-0.101759
-0.10844
0.0811498
0.000804053
0.0102013
0.00361164
0.00867777
0.00885441
-0.00622913
0.0167202
-0.0280102
0.0269624
-0.0516898
0.0390266
-0.0737569
0.0522213
-0.0921277
0.0658885
-0.10596
0.0794805
-0.115351
-0.121555
0.092596
0.00143736
0.00876398
0.00568981
0.00442532
0.0128585
-0.0133978
0.0227853
-0.0379369
0.0349109
-0.0638155
0.0484215
-0.0872674
0.0624823
-0.106189
0.0764279
-0.119906
0.089811
-0.128734
-0.133701
0.101957
0.00203143
0.00772227
0.0168459
0.028824
0.0426855
0.0573121
0.0717451
0.0853693
0.0978737
0.108348
0.127157
-0.232332
0.145708
0.167026
-0.15548
0.115612
0.188533
-0.115719
0.094211
0.199691
-0.0872741
0.0761169
0.205134
-0.0658149
0.0603711
0.207466
-0.0492822
0.04695
0.208042
-0.0367235
0.0361475
0.207533
-0.0258673
0.0263771
0.206507
-0.0203288
0.0213543
-0.009787
0.011424
0.125421
-0.31451
0.166097
-0.196156
0.187983
-0.137605
0.199371
-0.098662
0.205009
-0.071453
0.207483
-0.0517555
0.208164
-0.0374052
0.207749
-0.025452
0.206808
-0.0193881
-0.00824928
0.12281
-0.390429
0.16433
-0.237676
0.186665
-0.15994
0.198355
-0.110351
0.204279
-0.077377
0.207002
-0.0544787
0.207909
-0.0383123
0.207715
-0.0252584
0.20699
-0.0186626
-0.00694623
0.119945
-0.458174
0.161755
-0.279486
0.184557
-0.182742
0.196639
-0.122434
0.202946
-0.0836839
0.206028
-0.0575603
0.207279
-0.0395635
0.207433
-0.0254121
0.207051
-0.0182812
-0.00601208
0.117493
-0.515945
0.158427
-0.32042
0.181625
-0.20594
0.194216
-0.135025
0.201014
-0.0904822
0.204565
-0.0611112
0.206279
-0.041277
0.206903
-0.0260365
0.206992
-0.0183698
-0.00557922
0.116192
-0.562532
0.15471
-0.358938
0.177881
-0.229112
0.19107
-0.148214
0.19848
-0.0978916
0.202618
-0.0652491
0.204913
-0.0435721
0.206129
-0.0272529
0.20681
-0.0190512
-0.00577762
0.116579
-0.59796
0.15096
-0.39332
0.173508
-0.25166
0.187234
-0.16194
0.195344
-0.106002
0.200187
-0.0700922
0.203185
-0.0465694
0.205113
-0.0291812
0.206507
-0.0204453
-0.00673447
0.118322
-0.623687
0.147517
-0.422515
0.168912
-0.273054
0.182875
-0.175903
0.19166
-0.114786
0.19729
-0.0757227
0.201102
-0.0503811
0.203858
-0.0319378
0.206082
-0.0226684
-0.00857367
0.119983
-0.641713
0.144408
-0.44694
0.164402
-0.293048
0.178264
-0.189766
0.187572
-0.124094
0.193991
-0.0821421
0.198693
-0.0550828
0.202378
-0.0356228
0.205537
-0.0258274
-0.0114138
0.120564
-0.653929
0.141114
-0.46749
0.159857
-0.311791
0.173556
-0.203465
0.183259
-0.133797
0.190408
-0.0892915
0.196021
-0.0606956
0.200703
-0.0403044
0.204886
-0.030011
-0.0153639
0.444732
-0.569803
-0.528858
0.387381
-0.41014
0.356451
-0.280861
0.340558
-0.187572
0.331934
-0.125173
0.326896
-0.0842534
0.323723
-0.0575225
0.321697
-0.0382789
0.320213
-0.0285266
-0.0146075
0.448056
-0.471461
-0.546398
0.390944
-0.353028
0.361317
-0.251233
0.345661
-0.171916
0.336367
-0.115879
0.33033
-0.0782168
0.326224
-0.0534167
0.32348
-0.0355351
0.321447
-0.0264932
-0.0135808
0.465269
-0.386509
-0.550221
0.410416
-0.298174
0.375978
-0.216796
0.355135
-0.151073
0.34234
-0.103084
0.334178
-0.0700548
0.328769
-0.0480077
0.325214
-0.0319806
0.322616
-0.0238948
-0.0122809
0.471533
-0.309935
-0.548107
0.41952
-0.246161
0.384285
-0.18156
0.361594
-0.128382
0.347006
-0.0884962
0.337431
-0.0604799
0.331003
-0.0415803
0.326764
-0.0277412
0.323663
-0.0207934
-0.0107275
0.476973
-0.242049
-0.54486
0.427332
-0.19652
0.391539
-0.145767
0.367194
-0.104036
0.35102
-0.0723223
0.340229
-0.049689
0.33293
-0.0342807
0.328104
-0.0229155
0.324563
-0.017253
-0.00894588
0.480936
-0.181094
-0.541891
0.432868
-0.148451
0.396895
-0.109795
0.371479
-0.0786201
0.354161
-0.0550045
0.34245
-0.0379775
0.334468
-0.0262995
0.329178
-0.017625
0.325277
-0.0133517
-0.0069687
0.483189
-0.12448
-0.539803
0.435885
-0.101148
0.399887
-0.0737968
0.373944
-0.0526766
0.355974
-0.037035
0.3437
-0.0257032
0.335282
-0.0178818
0.329689
-0.0120317
0.325536
-0.00919879
-0.00484494
0.478693
-0.0688089
-0.534365
0.43148
-0.053934
0.396055
-0.038372
0.3707
-0.0273215
0.353091
-0.0194266
0.341
-0.0136116
0.332662
-0.00954343
0.327103
-0.00647317
0.322938
-0.00503343
-0.00269526
0.431523
-0.0203261
-0.480006
0.390672
-0.013083
0.36078
-0.00847981
0.339815
-0.00635662
0.325309
-0.0049199
0.315321
-0.0036245
0.308399
-0.00262083
0.303756
-0.00182991
0.300225
-0.0015027
-0.000847409
0.219663
-0.239989
0.20658
0.1981
0.191743
0.186823
0.183199
0.180578
0.178748
0.177245
0.507412
0.0216888
-0.50127
0.514239
0.0374194
0.520422
0.0553421
0.527635
0.0698326
0.532608
0.0869995
0.538953
0.0963455
0.539476
0.112022
0.542307
0.11288
0.532957
0.129668
0.118105
0.485577
0.016714
-0.480602
0.492094
0.0309022
0.498686
0.04875
0.507102
0.0614172
0.51473
0.0793716
0.523823
0.0872527
0.531273
0.104572
0.538586
0.105567
0.545636
0.122618
0.117343
0.469327
0.0124365
-0.465049
0.475088
0.0251409
0.482008
0.0418303
0.490364
0.0530609
0.499778
0.0699575
0.509684
0.0773471
0.520831
0.093425
0.530494
0.0959036
0.542228
0.110884
0.109351
0.456746
0.00863147
-0.452941
0.461958
0.0199283
0.469097
0.0346911
0.477336
0.0448219
0.487648
0.0596458
0.498108
0.0668874
0.510792
0.0807411
0.522245
0.0844502
0.536136
0.096993
0.0973798
0.446912
0.00507551
-0.443356
0.45192
0.0149205
0.459201
0.0274102
0.46756
0.0364633
0.478296
0.0489099
0.489335
0.0558482
0.502735
0.0673414
0.515576
0.0716088
0.530766
0.081803
0.0832861
0.439052
0.00166149
-0.435638
0.444078
0.00989518
0.45148
0.0200079
0.46014
0.027803
0.471175
0.037875
0.482851
0.0441724
0.496733
0.0534588
0.510615
0.0577272
0.526505
0.0659129
0.0679002
0.431395
-0.00162293
-0.428111
0.436591
0.00469892
0.444202
0.0123972
0.453373
0.0186315
0.464874
0.0263742
0.477381
0.0316652
0.491907
0.038933
0.506804
0.0428301
0.523457
0.0492606
0.051554
0.416736
-0.00444854
-0.41391
0.421774
-0.000338939
0.429368
0.00480315
0.438985
0.00901385
0.451171
0.0141885
0.464827
0.0180092
0.480716
0.0230441
0.497362
0.0261843
0.515864
0.0307584
0.0330534
0.366327
-0.00466655
-0.366109
0.368813
-0.00282496
0.374283
-0.000666849
0.382128
0.00116881
0.392953
0.00336435
0.405865
0.00509662
0.421642
0.00726747
0.439027
0.00879937
0.458862
0.0109229
0.0119095
0.194951
-0.199618
0.192127
0.19146
0.192628
0.195993
0.201089
0.208357
0.217156
0.228079
0.0733351
0.135915
-0.124728
-0.0845218
0.0629293
0.13786
-0.127455
0.0531985
0.140273
-0.130542
0.0437048
0.143549
-0.134055
0.034198
0.147141
-0.137634
0.0247211
0.150032
-0.140555
0.0156386
0.149777
-0.140695
0.0077152
0.140943
-0.13302
0.00210073
0.113744
-0.10813
0.0543852
-0.0522845
0.0701067
0.145775
-0.0799674
0.0601879
0.147779
0.0504446
0.150017
0.0409344
0.153059
0.0315742
0.156501
0.0224261
0.15918
0.0138561
0.158347
0.00660019
0.148199
0.00167831
0.118666
0.0560635
0.0636534
0.15433
-0.0722081
0.0546448
0.156788
0.0455611
0.1591
0.0365968
0.162023
0.0278029
0.165295
0.0193057
0.167677
0.0115019
0.166151
0.00513072
0.15457
0.0010968
0.1227
0.0571603
0.0548651
0.161794
-0.0623289
0.0469715
0.164681
0.0388565
0.167215
0.0307352
0.170144
0.0227579
0.173272
0.0151462
0.175289
0.00835471
0.172943
0.00313996
0.159785
0.000294205
0.125546
0.0574545
0.0448025
0.168327
-0.0513355
0.0379669
0.171517
0.0308835
0.174299
0.0237318
0.177296
0.0167171
0.180287
0.0101388
0.181867
0.0045654
0.178516
0.000669684
0.163681
-0.000607273
0.126823
0.0568473
0.0341505
0.174061
-0.0398849
0.0282471
0.17742
0.0221449
0.180401
0.015981
0.18346
0.00999086
0.186277
0.00456454
0.187294
0.000257039
0.182824
-0.00180515
0.165743
-0.00153073
0.126548
0.0553165
0.0230023
0.17901
-0.0279512
0.0179725
0.18245
0.0128117
0.185562
0.0076564
0.188615
0.00276666
0.191167
-0.00138308
0.191443
-0.00394354
0.185384
-0.00437301
0.166172
-0.00243101
0.124606
0.0528855
0.0115583
0.18321
-0.0157576
0.00735209
0.186656
0.00309656
0.189817
-0.00105717
0.192769
-0.00476598
0.194875
-0.00747043
0.194148
-0.00846443
0.186378
-0.00699447
0.164702
-0.00329711
0.120909
0.0495884
-0.000741235
0.186631
-0.0026798
-0.00408937
0.190004
-0.00738636
0.193114
-0.0104579
0.19584
-0.0129221
0.19734
-0.0141302
0.195356
-0.0132397
0.185488
-0.0096805
0.161143
-0.00413577
0.115364
0.0454526
-0.014115
0.0117356
-0.0164357
-0.0186696
-0.0205692
-0.02164
-0.0211169
-0.0181343
-0.0123091
-0.00487492
0.104604
0.0289291
-0.116208
-0.0173255
0.0927334
0.0297153
-0.0178446
0.0805732
0.03056
-0.0183998
0.0680942
0.0314596
-0.0189806
0.0552729
0.0324015
-0.0195802
0.0421294
0.0332979
-0.0201544
0.0288487
0.0337901
-0.0205094
0.0160699
0.0328
-0.0200212
0.00539265
0.027849
-0.0171717
0.0144739
-0.00908123
0.104024
0.0405476
-0.115643
0.0921692
0.0415701
0.0800388
0.0426904
0.0676033
0.0438951
0.0548378
0.045167
0.0417619
0.0463738
0.0285627
0.0469893
0.0158821
0.0454806
0.00531236
0.0384187
0.0197862
0.103178
0.0521427
-0.114774
0.0913477
0.0534009
0.0792571
0.054781
0.0668756
0.0562765
0.0541804
0.0578622
0.0411954
0.0593588
0.0281159
0.0600688
0.0155906
0.0580058
0.00519487
0.0488145
0.0249811
0.101454
0.06378
-0.113091
0.0896894
0.0651651
0.077689
0.0667814
0.0654235
0.068542
0.0528756
0.07041
0.0400809
0.0721535
0.0272462
0.0729036
0.0150217
0.0702303
0.00495278
0.0588834
0.0299339
0.099841
0.0752212
-0.111282
0.0882235
0.0767825
0.0764064
0.0785985
0.0643366
0.0806118
0.0519761
0.0827706
0.0393519
0.0847777
0.0266861
0.0855693
0.0146588
0.0822577
0.00481318
0.068729
0.0347471
0.0961211
0.0866725
-0.107572
0.0846615
0.0882421
0.0730349
0.0902252
0.0612252
0.0924215
0.0492155
0.0947803
0.0370366
0.0969566
0.02491
0.0976959
0.0135144
0.0936534
0.00434395
0.0778994
0.039091
0.0928532
0.0977007
-0.103881
0.0818192
0.0992762
0.0706225
0.101422
0.0591702
0.103874
0.047448
0.106502
0.0355426
0.108862
0.0237402
0.109498
0.0127558
0.104638
0.00404278
0.0866124
0.0431338
0.0866478
0.108421
-0.0973678
0.0760525
0.109872
0.0654217
0.112053
0.0546705
0.114625
0.0437171
0.117456
0.032592
0.119987
0.0215775
0.120513
0.0114106
0.114805
0.00350733
0.0945156
0.0466411
0.0818737
0.11765
-0.0911026
0.0723582
0.119387
0.0623174
0.122093
0.0518888
0.125053
0.0412089
0.128136
0.0304261
0.13077
0.0198781
0.131061
0.0103181
0.124365
0.00308205
0.101752
0.0497232
0.0720292
-0.0791076
0.0639617
0.0555128
0.0465114
0.0370136
0.0272284
0.0175942
0.00893923
0.0025613
0.201816
0.00722112
-0.0110472
0.20594
0.02533
-0.0294546
0.208218
0.0413948
-0.0436728
0.209418
0.0492943
-0.0504935
0.208762
0.0562774
-0.0556216
0.206583
0.0661773
-0.0639981
0.199876
0.0803169
-0.0736105
0.189109
0.101621
-0.0908532
0.16405
0.134792
-0.109733
0.18089
-0.133049
0.201492
0.00371856
0.205352
0.0214702
0.2075
0.039247
0.20866
0.0481342
0.208001
0.0569366
0.2057
0.0684785
0.198993
0.0870236
0.187845
0.112769
0.162704
0.159933
0.227952
0.201084
0.000624183
0.204551
0.0180029
0.206443
0.0373556
0.207415
0.0471618
0.206624
0.0577281
0.204018
0.0710842
0.197267
0.0937742
0.185509
0.124527
0.160622
0.18482
0.273801
0.200586
-0.00197219
0.203536
0.0150536
0.205053
0.0358384
0.205701
0.0465134
0.204646
0.0587834
0.201563
0.0741676
0.194699
0.100638
0.18205
0.137175
0.157847
0.209023
0.318557
0.199992
-0.00397444
0.202303
0.012743
0.203337
0.0348043
0.203538
0.0463125
0.202083
0.0602382
0.198366
0.0778839
0.191303
0.107702
0.177338
0.15114
0.154458
0.231903
0.361733
0.199298
-0.00528223
0.200852
0.0111881
0.201304
0.0343527
0.200945
0.0466712
0.198949
0.0622343
0.194471
0.0823626
0.187107
0.115065
0.171396
0.166852
0.150457
0.252841
0.404618
0.1985
-0.00579269
0.199188
0.0105002
0.198967
0.0345738
0.197946
0.047692
0.195261
0.0649196
0.189921
0.0877027
0.182082
0.122905
0.164788
0.184145
0.145691
0.271939
0.446427
0.1976
-0.00540314
0.197324
0.0107768
0.196346
0.035551
0.194564
0.0494741
0.191037
0.0684474
0.184756
0.0939833
0.176192
0.131468
0.157352
0.202985
0.140336
0.288955
0.489395
0.196606
-0.00401973
0.1953
0.0120829
0.193478
0.0373733
0.190831
0.0521205
0.186302
0.0729772
0.179057
0.101228
0.169442
0.141084
0.150822
0.221605
0.134274
0.305503
0.532567
0.195584
-0.00161419
0.193149
0.0145185
0.190442
0.0400798
0.186734
0.055829
0.181142
0.0785687
0.172765
0.109605
0.161492
0.152356
0.140721
0.242377
0.127003
0.319221
0.580462
0.304478
-0.00408234
0.308159
0.0108374
0.313347
0.0348919
0.318003
0.0511737
0.322405
0.0741658
0.326848
0.105163
0.334749
0.144455
0.343213
0.233913
0.388936
0.273498
0.524059
0.445339
0.305128
-0.00720041
0.309516
0.00644981
0.315345
0.0290629
0.320853
0.0456656
0.326597
0.0684214
0.33397
0.0977898
0.343552
0.134873
0.361816
0.215649
0.403795
0.231518
0.470897
0.456958
0.305915
-0.0111057
0.311234
0.00113152
0.317592
0.0227042
0.323793
0.0394652
0.33073
0.0614847
0.339972
0.0885478
0.352086
0.122759
0.375214
0.192521
0.411001
0.195731
0.410356
0.471543
0.306898
-0.0159936
0.313221
-0.00519172
0.319987
0.0159387
0.326674
0.0327784
0.334683
0.0534757
0.345189
0.0780416
0.360061
0.107886
0.384921
0.167661
0.417948
0.162704
0.344341
0.483963
0.30815
-0.0221332
0.315552
-0.0125941
0.322514
0.00897731
0.329446
0.0258455
0.338276
0.0446458
0.349824
0.0664939
0.366726
0.0909842
0.392822
0.141565
0.423646
0.13188
0.277003
0.490985
0.309739
-0.0298615
0.318299
-0.0211542
0.32524
0.0020356
0.33208
0.0190053
0.341417
0.0353093
0.353892
0.0540193
0.371863
0.0730132
0.399645
0.113782
0.428188
0.103337
0.211642
0.493549
0.311817
-0.0396687
0.32162
-0.0309567
0.327806
-0.00415035
0.334263
0.0125478
0.343888
0.0256847
0.357144
0.0407631
0.375535
0.0546226
0.404832
0.0844855
0.431465
0.0767038
0.149579
0.493528
0.313569
-0.0512275
0.323359
-0.0407464
0.328663
-0.0094549
0.334289
0.00692218
0.343957
0.0160165
0.357802
0.0269183
0.376648
0.0357762
0.406836
0.0542983
0.432853
0.0506862
0.091378
0.491054
0.307587
-0.056804
0.307745
-0.0409049
0.309357
-0.0110671
0.314821
0.00145841
0.324769
0.00606915
0.339399
0.0122879
0.359412
0.0157629
0.389322
0.0243886
0.417553
0.0224552
0.037908
0.471023
0.245206
0.204301
0.193234
0.194693
0.200762
0.21305
0.228813
0.253201
0.275656
0.313564
0.456357
-0.0955398
0.459965
-0.0835753
0.463048
-0.0752909
0.466828
-0.0661092
0.471581
-0.0560883
0.477077
-0.0453816
0.482825
-0.0336991
0.488874
-0.0218065
0.494717
-0.00852259
0.00518285
0.457089
-0.095671
0.458084
-0.0845701
0.458773
-0.0759806
0.460182
-0.0675185
0.462247
-0.0581529
0.464954
-0.0480881
0.468209
-0.0369544
0.471949
-0.0255468
0.475785
-0.0123585
0.000365482
0.466395
-0.0905231
0.46377
-0.0819454
0.461614
-0.0738242
0.459752
-0.0656571
0.458572
-0.0569726
0.458238
-0.0477536
0.458681
-0.0373984
0.460008
-0.0268732
0.462043
-0.014393
-0.00264129
0.475183
-0.0817428
0.468426
-0.0751884
0.462994
-0.0683923
0.458343
-0.0610059
0.454562
-0.0531918
0.45185
-0.0450412
0.450302
-0.0358503
0.449923
-0.026495
0.450798
-0.0152681
-0.00478367
0.479982
-0.0707403
0.47047
-0.0656759
0.462445
-0.0603682
0.455728
-0.0542883
0.450199
-0.047663
0.445929
-0.0407717
0.443087
-0.0330083
0.441624
-0.0250316
0.4418
-0.0154444
-0.00633971
0.481167
-0.0583586
0.47011
-0.054619
0.460463
-0.0507213
0.452324
-0.0461491
0.445662
-0.0410012
0.440434
-0.0355431
0.436787
-0.0293614
0.434664
-0.0229088
0.434382
-0.0151623
-0.00759601
0.48021
-0.0450414
0.468231
-0.0426391
0.457558
-0.0400489
0.44842
-0.0370111
0.440883
-0.0334636
0.43487
-0.0295306
0.430503
-0.0249948
0.427769
-0.0201748
0.427042
-0.0144351
-0.00866437
0.476762
-0.030749
0.46346
-0.0293375
0.451508
-0.0280967
0.44106
-0.0265629
0.432177
-0.0245806
0.424842
-0.0221959
0.419221
-0.0193734
0.415377
-0.0163312
0.413635
-0.0126932
-0.00893951
0.453532
-0.0132578
0.437585
-0.0133907
0.422997
-0.0135091
0.409803
-0.013369
0.398075
-0.0128518
0.387902
-0.0120231
0.37948
-0.0109518
0.372893
-0.00974449
0.368436
-0.00823605
-0.00661256
0.300307
0.286916
0.273407
0.260038
0.247186
0.235163
0.224211
0.214467
0.206231
0.00879133
0.0523295
-0.0611208
0.0194861
0.138019
-0.148714
0.0254279
0.191771
-0.197713
0.0263964
0.217649
-0.218617
0.0241928
0.226813
-0.224609
0.020457
0.228002
-0.224266
0.0161731
0.225538
-0.221254
0.0119439
0.220215
-0.215985
0.00838606
0.210118
-0.20656
0.190638
0.00623589
-0.188488
0.0105262
0.0418033
0.0263495
0.122196
0.0381249
0.179996
0.0440614
0.211712
0.0456802
0.225194
0.0449181
0.228764
0.0430697
0.227386
0.0407498
0.222535
0.0381358
0.212732
0.193778
0.0349958
0.0112398
0.0305635
0.0316255
0.10181
0.0497111
0.16191
0.0614906
0.199933
0.0676598
0.219025
0.070242
0.226182
0.0708519
0.226776
0.0702177
0.223169
0.0681897
0.21476
0.198348
0.063619
0.0108161
0.0197474
0.0343049
0.0783216
0.0585991
0.137616
0.0770186
0.181513
0.0886342
0.207409
0.0951257
0.21969
0.0984016
0.2235
0.0995397
0.222031
0.0984792
0.215821
0.202822
0.094006
0.00943582
0.0103116
0.0337226
0.0540349
0.0631303
0.108208
0.0887757
0.155868
0.107189
0.188996
0.118916
0.207963
0.125866
0.216551
0.129584
0.218312
0.130356
0.215049
0.206632
0.126546
0.00746923
0.00284232
0.0299043
0.0315999
0.0617605
0.0763521
0.0939081
0.12372
0.120083
0.162821
0.138453
0.189593
0.150052
0.204952
0.156579
0.211785
0.159192
0.212435
0.208729
0.157095
0.00549591
-0.00265359
0.0243025
0.0127932
0.0549395
0.0457151
0.0907884
0.0878712
0.124392
0.129217
0.151254
0.162731
0.170307
0.1859
0.182766
0.199326
0.190115
0.205086
0.206182
0.192662
0.00411423
-0.00676781
0.0192228
-0.00231531
0.0457334
0.0192045
0.0805521
0.0530525
0.117807
0.091962
0.151834
0.128704
0.17922
0.158514
0.198822
0.179724
0.211929
0.191978
0.19998
0.218131
0.00393999
-0.0107078
0.0164722
-0.0148475
0.0381487
-0.00247207
0.0678672
0.023334
0.103009
0.05682
0.139361
0.0923524
0.173033
0.124841
0.201526
0.151232
0.224051
0.169454
0.180194
0.243836
0.00464485
-0.0153527
0.0157185
-0.0259211
0.0321824
-0.018936
0.0549686
0.000547835
0.0831706
0.0286179
0.115242
0.0602806
0.1483
0.0917833
0.179601
0.119931
0.206146
0.142909
0.158889
0.227452
0.00465084
-0.0200035
0.0132657
-0.034536
0.0246712
-0.0303415
0.0393636
-0.0141446
0.0588084
0.00917317
0.0828944
0.0361945
0.110573
0.0641044
0.140149
0.0903557
0.170209
0.112849
0.134269
0.194829
0.00291549
-0.022919
0.00705739
-0.0386779
0.0122351
-0.0355193
0.0196433
-0.0215528
0.0302732
-0.00145664
0.0456659
0.0208018
0.0656328
0.0441376
0.0894562
0.0665323
0.11576
0.0865442
0.106987
0.143042
1.47545e-05
-0.0229337
-0.0010271
-0.037636
-0.00187398
-0.0346724
-0.000993829
-0.0224329
0.00306422
-0.00551469
0.0109572
0.0129088
0.0232576
0.0318372
0.0397467
0.0500432
0.059456
0.0668349
0.0828643
0.0835788
-0.00246737
-0.0204664
-0.00720839
-0.032895
-0.0118527
-0.0300281
-0.0148097
-0.0194758
-0.0149083
-0.00541614
-0.0116707
0.00967121
-0.00462968
0.0247962
0.00622781
0.0391857
0.0206069
0.0524558
0.0639587
0.0395126
-0.00375739
-0.016709
-0.0100758
-0.0265766
-0.0160493
-0.0240547
-0.0201381
-0.015387
-0.0214522
-0.00410209
-0.0196955
0.0079145
-0.0145557
0.0196564
-0.00599265
0.0306227
0.00593454
0.0405286
0.0485718
0.0213214
-0.00403852
-0.0126705
-0.0104342
-0.0201809
-0.0161681
-0.0183208
-0.0197612
-0.0117939
-0.0205261
-0.00333713
-0.0182682
0.00565652
-0.0129039
0.0142922
-0.0044911
0.0222098
0.00680709
0.0292304
0.0347042
0.0206747
-0.00380465
-0.00886582
-0.00962767
-0.0143578
-0.0145612
-0.0133873
-0.017196
-0.00915911
-0.0169752
-0.00355791
-0.0137361
0.00241739
-0.00759641
0.00815247
0.00124415
0.0133693
0.0125249
0.0179496
0.0215339
0.0256952
-0.00344392
-0.0054219
-0.00860196
-0.0091998
-0.0127455
-0.00924376
-0.0145325
-0.00737211
-0.0134541
-0.00463626
-0.00940369
-0.00163304
-0.00259705
0.00134583
0.00665673
0.00411549
0.0180219
0.00658445
0.00861121
0.0309446
-0.00312082
-0.00230108
-0.00772212
-0.00459849
-0.011245
-0.00572088
-0.0124076
-0.00620952
-0.0107167
-0.00632719
-0.00615155
-0.00619816
0.00108343
-0.00588914
0.0106389
-0.00543997
0.0221149
-0.00489158
-0.00427506
0.0350012
-0.00286384
-0.00702439
-0.0100712
-0.0107741
-0.00866072
-0.00371896
0.00380763
0.013553
0.0251122
0.0380105
0.183544
0.492772
-0.481487
0.165902
0.239506
-0.221863
0.164423
0.0848628
-0.0833839
0.168988
0.0163608
-0.0209257
0.174941
-0.00848127
0.00252765
0.180981
-0.0156937
0.00965425
0.186803
-0.0163613
0.0105393
0.192244
-0.0142403
0.00879919
0.197503
-0.0127556
0.00749706
-0.00858729
0.00399443
0.144103
0.49171
0.154569
0.22904
0.165842
0.0735896
0.173978
0.00822475
0.180253
-0.0147558
0.185648
-0.0210885
0.190476
-0.02119
0.194791
-0.0185547
0.198867
-0.016832
-0.0120071
0.116215
0.459074
0.150929
0.194326
0.169016
0.0555027
0.178752
-0.00151108
0.185107
-0.0211111
0.189883
-0.0258642
0.193814
-0.0251212
0.197111
-0.0218513
0.200118
-0.0198389
-0.0143641
0.104973
0.393614
0.151912
0.147386
0.173044
0.0343706
0.183382
-0.0118489
0.189516
-0.0272454
0.193696
-0.0300436
0.196822
-0.0282477
0.199215
-0.0242442
0.201273
-0.0218969
-0.0157763
0.105691
0.309245
0.155221
0.0978562
0.17701
0.0125814
0.187518
-0.0223563
0.193418
-0.0331455
0.197069
-0.0336947
0.199495
-0.0306736
0.201101
-0.0258507
0.202333
-0.0231287
-0.016365
0.111384
0.218536
0.158867
0.0503732
0.18053
-0.0090821
0.191108
-0.0329341
0.196794
-0.0388312
0.199992
-0.0368936
0.201824
-0.0325054
0.202764
-0.0267909
0.203295
-0.0236595
-0.0162547
0.11766
0.126571
0.162042
0.00599152
0.183476
-0.0305157
0.194118
-0.0435761
0.199623
-0.0443368
0.202453
-0.0397237
0.203802
-0.0338536
0.204198
-0.0271875
0.204156
-0.0236169
-0.0155736
0.122714
0.0348014
0.164535
-0.03583
0.185783
-0.0517637
0.19651
-0.0543027
0.201887
-0.0497142
0.20444
-0.0422764
0.205418
-0.0348319
0.205397
-0.0271658
0.20491
-0.0231308
-0.0144524
0.126037
-0.0562347
0.166229
-0.0760215
0.187413
-0.072948
0.198249
-0.0651392
0.203568
-0.0550327
0.205942
-0.0446506
0.206667
-0.0355569
0.206354
-0.0268529
0.205556
-0.0223324
-0.0130243
0.127484
0.167074
0.188337
0.199314
0.204653
0.206952
0.207543
0.207067
0.206089
0.0179186
0.01123
-0.0291486
0.0443937
-0.0264751
0.0607002
-0.0163065
0.0670507
-0.00635053
0.0700592
-0.00300856
0.0719286
-0.00186938
0.0732002
-0.00127156
0.0740583
-0.000858127
0.0746847
-0.000626423
-0.000310256
0.141963
0.081676
-0.212409
0.144662
-0.0291732
0.151053
-0.022698
0.154148
-0.00944542
0.156677
-0.00553737
0.159146
-0.00433868
0.161334
-0.00345927
0.163044
-0.00256876
0.164437
-0.00201921
-0.00102995
0.264934
0.211171
-0.394429
0.212165
0.0235959
0.193484
-0.00401653
0.188528
-0.00448907
0.1888
-0.00580927
0.190818
-0.00635762
0.193153
-0.0057943
0.195153
-0.00456846
0.196886
-0.00375237
-0.00195728
0.340397
0.36172
-0.490946
0.24719
0.116803
0.209317
0.0338568
0.198439
0.00638888
0.197182
-0.00455284
0.198869
-0.00804384
0.201214
-0.00813989
0.203306
-0.00666018
0.20516
-0.00560687
-0.00296443
0.369949
-0.489716
0.264889
0.215362
0.200825
0.1988
0.20041
0.202809
0.204948
0.206839
0.0124554
0.000163155
-0.0126185
0.0137325
-0.00127708
0.0161638
-0.00243133
0.0191343
-0.00297048
0.0232686
-0.00413437
0.0257272
-0.00245852
0.0293793
-0.00365211
0.0290333
0.000346009
0.030397
-0.00136374
0.00124842
0.0350124
8.00051e-05
-0.0349292
0.0392346
-0.00549931
0.0471101
-0.0103068
0.0586076
-0.0144679
0.074576
-0.0201028
0.0914466
-0.0193291
0.116733
-0.0289389
0.140241
-0.0231619
0.175354
-0.0364762
-0.0358073
0.054824
-0.000819248
-0.0539248
0.0621009
-0.0127761
0.0754427
-0.0236487
0.0957349
-0.0347602
0.123437
-0.0478048
0.157479
-0.0533709
0.204551
-0.0760113
0.254629
-0.0732394
0.323144
-0.104991
-0.107093
0.0713844
-0.00287194
-0.0693317
0.0813632
-0.0227549
0.0994782
-0.0417636
0.126811
-0.0620932
0.163253
-0.0842463
0.211958
-0.102076
0.269298
-0.133351
0.338572
-0.142514
0.419307
-0.185726
-0.178732
0.0846301
-0.0812662
0.096871
0.118726
0.150639
0.192939
0.247958
0.307269
0.382886
0.440996
0.0923309
-0.0848811
0.0935688
-0.101019
0.0829654
-0.086381
0.0957465
0.0733206
-0.0887648
0.0984096
0.0629221
-0.0913177
0.101716
0.0516335
-0.0939366
0.105225
0.0396043
-0.0963557
0.108385
0.0271959
-0.0973306
0.109739
0.0151504
-0.0933842
0.10543
0.00506876
-0.0774653
0.0875469
-0.0385117
0.0435804
0.100454
-0.0746484
-0.110686
0.0897709
-0.0756984
0.0782579
-0.0772518
0.0660579
-0.0791177
0.0534261
-0.0813048
0.0405515
-0.0834812
0.0276519
-0.0844311
0.0153352
-0.0810675
0.00512049
-0.0672505
-0.0333912
0.0980481
-0.0631606
-0.109536
0.0866108
-0.0642611
0.0750841
-0.0657251
0.0634542
-0.0674877
0.051602
-0.0694525
0.0394094
-0.0712886
0.0269809
-0.0720026
0.0149582
-0.0690448
0.00495149
-0.0572438
-0.0284397
0.102675
-0.051997
-0.113839
0.0913155
-0.0529013
0.0796845
-0.0540941
0.067635
-0.0554382
0.0550817
-0.0568993
0.0420597
-0.0582666
0.0288179
-0.0587608
0.0160554
-0.0562823
0.00538941
-0.0465777
-0.0230503
0.101975
-0.0403638
-0.113608
0.0902391
-0.0411654
0.078221
-0.0420759
0.0659123
-0.0431296
0.0533213
-0.0443083
0.040494
-0.0454393
0.0276141
-0.0458809
0.0152901
-0.0439583
0.00506699
-0.0363547
-0.0179833
0.103758
-0.0289064
-0.115215
0.0920336
-0.0294409
0.0800327
-0.030075
0.067711
-0.0308079
0.055029
-0.0316262
0.0419904
-0.0324007
0.0287762
-0.0326667
0.0160382
-0.0312204
0.00538763
-0.0257041
-0.0125957
0.104084
-0.0173588
-0.115631
0.0923111
-0.0176685
0.080248
-0.0180119
0.0678606
-0.0184205
0.0551189
-0.0188846
0.0420379
-0.0193196
0.0287985
-0.0194273
0.01604
-0.0184619
0.00537383
-0.0150379
-0.00722183
0.10457
-0.00582927
-0.116099
0.0927584
-0.00585705
0.0806449
-0.00589841
0.0681982
-0.00597384
0.055394
-0.00608036
0.0422519
-0.00617749
0.0289558
-0.00613121
0.0161451
-0.0056512
0.00542478
-0.0043176
-0.00179705
0.104799
0.00573293
-0.116361
0.0929592
0.00598233
0.0808194
0.00624133
0.0683492
0.00649637
0.0555233
0.00674559
0.0423587
0.00698712
0.0290364
0.00719103
0.0161951
0.00719007
0.00544359
0.00643395
0.00364654
0.104829
-0.116421
0.0929665
0.080808
0.0683238
0.0554893
0.042322
0.0290036
0.0161725
0.00543469
0.0202928
-0.186623
-0.0221573
0.0153517
-0.201619
0.00903455
-0.209668
0.00231734
-0.214537
-0.00418392
-0.217765
-0.00966001
-0.219133
-0.0127917
-0.215485
-0.0119876
-0.198517
-0.00637057
-0.154331
-0.0674914
0.0474835
-0.183089