/*--------------------------------*- C++ -*----------------------------------*\
  =========                 |
  \\      /  F ield         | OpenFOAM: The Open Source CFD Toolbox
   \\    /   O peration     | Website:  https://openfoam.org
    \\  /    A nd           | Version:  13
     \\/     M anipulation  |
\*---------------------------------------------------------------------------*/
FoamFile
{
    format      ascii;
    class       volScalarField;
    location    "4.3";
    object      p;
}
// * * * * * * * * * * * * * * * * * * * * * * * * * * * * * * * * * * * * * //

dimensions      [0 2 -2 0 0 0 0];

internalField   nonuniform List<scalar> 
1800
(
-0.821967
-0.822601
-0.822112
-0.819951
-0.816521
-0.812697
-0.810163
-0.812531
-0.819961
-0.868049
-0.841175
-0.839923
-0.837609
-0.833855
-0.828832
-0.823039
-0.817985
-0.815828
-0.815301
-0.853665
-0.869097
-0.865134
-0.860642
-0.855334
-0.849587
-0.843742
-0.838193
-0.833863
-0.831318
-0.845356
-0.905005
-0.898166
-0.890921
-0.883401
-0.875811
-0.868114
-0.860153
-0.852025
-0.844725
-0.841359
-0.953904
-0.944149
-0.934344
-0.924356
-0.913781
-0.901857
-0.887909
-0.871813
-0.854359
-0.836803
-1.01769
-1.00511
-0.992363
-0.978778
-0.962628
-0.942541
-0.918146
-0.890071
-0.859552
-0.827991
-1.09559
-1.08036
-1.06373
-1.04401
-1.01821
-0.9854
-0.946744
-0.904451
-0.860682
-0.817555
-1.18261
-1.16515
-1.1428
-1.11293
-1.07263
-1.02299
-0.967636
-0.910214
-0.853385
-0.798866
-1.26989
-1.25027
-1.21948
-1.17498
-1.1161
-1.04742
-0.974977
-0.903194
-0.834526
-0.77025
-1.34524
-1.3229
-1.28083
-1.21822
-1.13872
-1.05101
-0.962618
-0.87783
-0.798511
-0.725209
-1.02734
-1.03611
-1.0476
-1.0625
-1.08226
-1.10675
-1.13513
-1.16707
-1.20406
-1.24791
-0.961799
-0.968711
-0.977288
-0.988285
-1.00325
-1.02217
-1.04423
-1.06894
-1.0971
-1.12982
-0.928448
-0.931956
-0.936638
-0.94338
-0.95349
-0.966951
-0.983035
-1.00096
-1.02049
-1.04189
-0.911898
-0.911886
-0.912753
-0.915833
-0.921949
-0.931069
-0.942641
-0.955847
-0.969471
-0.982247
-0.89755
-0.894216
-0.891983
-0.891823
-0.894138
-0.898911
-0.905793
-0.91425
-0.923219
-0.928925
-0.878558
-0.873571
-0.869181
-0.865945
-0.863973
-0.863308
-0.863842
-0.865324
-0.867057
-0.866249
-0.856856
-0.852262
-0.847346
-0.842026
-0.836043
-0.829402
-0.822231
-0.814704
-0.807107
-0.799133
-0.836459
-0.833823
-0.830065
-0.824425
-0.81638
-0.805792
-0.792841
-0.778006
-0.762658
-0.749685
-0.820948
-0.820609
-0.818783
-0.814275
-0.806717
-0.796053
-0.782647
-0.767247
-0.751481
-0.73744
-0.811422
-0.81263
-0.811892
-0.80839
-0.802219
-0.79369
-0.783492
-0.772551
-0.762056
-0.751589
-1.49889
-1.69492
-1.28145
-0.944898
-0.765547
-0.418381
-0.200801
-0.0491962
0.00651876
0.0219108
-1.32764
-1.57046
-1.33635
-1.10534
-0.873726
-0.468496
-0.2183
-0.0564905
0.00275066
0.0198176
-1.18665
-1.48345
-1.40398
-1.25671
-0.970901
-0.51967
-0.237336
-0.065925
-0.00224067
0.0169218
-1.0836
-1.43806
-1.49038
-1.43749
-1.05832
-0.56951
-0.257752
-0.0774583
-0.00844468
0.0133854
-0.998635
-1.40935
-1.57338
-1.54531
-1.1319
-0.616155
-0.279478
-0.0910124
-0.015876
0.00934183
-0.909721
-1.37052
-1.6268
-1.62199
-1.18931
-0.658573
-0.302642
-0.10657
-0.0245447
0.0048869
-0.810976
-1.30669
-1.63863
-1.66322
-1.22917
-0.695848
-0.32733
-0.124209
-0.0344498
8.84709e-05
-0.713862
-1.21436
-1.60939
-1.67089
-1.25045
-0.72667
-0.353172
-0.144055
-0.0456691
-0.00497928
-0.645179
-1.09692
-1.5505
-1.6503
-1.25427
-0.750044
-0.379208
-0.166121
-0.0584507
-0.0102941
-0.645668
-0.978158
-1.46878
-1.60863
-1.24553
-0.767359
-0.404821
-0.190172
-0.0731055
-0.0159643
-0.572565
-0.879788
-1.40676
-1.53579
-1.19049
-0.756202
-0.423639
-0.21771
-0.0925442
-0.0236045
-0.579635
-0.847174
-1.26302
-1.35432
-1.06091
-0.717143
-0.440962
-0.251738
-0.117129
-0.0324761
-0.59369
-0.782149
-1.09368
-1.16253
-0.944113
-0.688923
-0.467016
-0.290676
-0.143869
-0.0407053
-0.592276
-0.710402
-0.935034
-0.994792
-0.845352
-0.66842
-0.500372
-0.337018
-0.175357
-0.0498471
-0.56056
-0.641194
-0.79977
-0.851019
-0.760271
-0.656175
-0.539843
-0.385789
-0.205703
-0.0571507
-0.518456
-0.578578
-0.685063
-0.727244
-0.687627
-0.650191
-0.574987
-0.425006
-0.230392
-0.0622587
-0.473785
-0.522487
-0.589325
-0.623605
-0.626675
-0.644234
-0.599571
-0.452041
-0.245834
-0.0647959
-0.4319
-0.474658
-0.513893
-0.548231
-0.584115
-0.633752
-0.601024
-0.455313
-0.250562
-0.0651108
-0.399687
-0.449158
-0.479153
-0.509307
-0.562903
-0.622518
-0.590396
-0.44821
-0.248438
-0.0643881
-0.375051
-0.440459
-0.487647
-0.525464
-0.566832
-0.613996
-0.576791
-0.437837
-0.247004
-0.0633961
-0.598538
-0.65577
-0.699746
-0.735553
-0.765982
-0.799302
-0.831185
-0.858843
-0.849017
-0.854611
-0.453225
-0.519064
-0.573325
-0.620524
-0.658705
-0.691575
-0.712516
-0.727296
-0.72749
-0.738631
-0.337753
-0.406184
-0.464495
-0.515101
-0.554819
-0.5875
-0.609135
-0.626985
-0.637546
-0.650416
-0.243295
-0.311888
-0.371496
-0.423283
-0.465263
-0.500924
-0.528784
-0.554032
-0.574621
-0.594511
-0.166556
-0.234407
-0.294041
-0.346714
-0.391054
-0.430013
-0.462772
-0.492313
-0.517876
-0.541338
-0.104987
-0.171804
-0.231123
-0.284158
-0.329885
-0.370297
-0.405067
-0.43582
-0.462673
-0.48667
-0.0568223
-0.12255
-0.181449
-0.234058
-0.279977
-0.320067
-0.354731
-0.384771
-0.411186
-0.434612
-0.0215829
-0.086347
-0.144771
-0.196427
-0.241764
-0.280484
-0.314048
-0.342212
-0.367115
-0.388218
-0.000544288
-0.0647463
-0.12288
-0.173978
-0.21892
-0.256615
-0.289124
-0.315023
-0.337615
-0.35451
0.00838509
-0.0562286
-0.114575
-0.166147
-0.211187
-0.249196
-0.281334
-0.30641
-0.327122
-0.339584
0.751379
0.682953
0.604398
0.520046
0.428607
0.327801
0.217866
0.105316
0.0112726
-0.0336108
0.556701
0.482766
0.400096
0.309351
0.208724
0.0967105
-0.0253971
-0.14938
-0.251777
-0.29932
0.343687
0.267104
0.182089
0.087486
-0.018758
-0.137732
-0.267506
-0.398589
-0.506008
-0.55422
0.140067
0.0603731
-0.0284454
-0.127767
-0.23931
-0.363949
-0.499484
-0.634753
-0.743476
-0.790496
-0.0430699
-0.126907
-0.220461
-0.324886
-0.441533
-0.570813
-0.711065
-0.847275
-0.952543
-0.998851
-0.20516
-0.293104
-0.390828
-0.499229
-0.619572
-0.751974
-0.891802
-1.02529
-1.12621
-1.17046
-0.34777
-0.438236
-0.537914
-0.647815
-0.768917
-0.900519
-1.03706
-1.16422
-1.2576
-1.29819
-0.473547
-0.563052
-0.661311
-0.769337
-0.887603
-1.01448
-1.14339
-1.25958
-1.34206
-1.37789
-0.578475
-0.664624
-0.758965
-0.862178
-0.97403
-1.09189
-1.20825
-1.30903
-1.37835
-1.40906
-0.662322
-0.742939
-0.830868
-0.926228
-1.02797
-1.13252
-1.23191
-1.31411
-1.36944
-1.39548
2.02013
2.03735
2.05516
2.07237
2.08804
2.10142
2.11174
2.11884
2.12457
2.12996
1.95637
1.97044
1.98433
1.99695
2.00752
2.01529
2.01951
2.0203
2.02055
2.02263
1.87151
1.88143
1.89016
1.89677
1.90073
1.90129
1.8977
1.89044
1.88363
1.88162
1.76759
1.7728
1.77531
1.77457
1.77035
1.76192
1.74859
1.73128
1.71567
1.70889
1.64462
1.64407
1.63941
1.63044
1.61717
1.59885
1.57481
1.54638
1.52092
1.50897
1.50645
1.50002
1.48728
1.46873
1.44487
1.415
1.37858
1.33756
1.30116
1.28339
1.35322
1.34036
1.3195
1.29145
1.25688
1.21504
1.16555
1.11109
1.06306
1.03929
1.19363
1.17334
1.14232
1.10265
1.05561
1.00052
0.937098
0.868733
0.809016
0.779266
1.03254
1.00475
0.963174
0.911144
0.850551
0.7808
0.701919
0.61838
0.546398
0.510846
0.883611
0.838712
0.780296
0.713118
0.638117
0.553766
0.45994
0.361997
0.278694
0.238059
1.72183
1.70862
1.69881
1.6916
1.69182
1.69678
1.71721
1.75746
1.82797
1.9417
1.71602
1.70372
1.69495
1.68672
1.687
1.68973
1.70881
1.74416
1.80602
1.90336
1.71082
1.69886
1.69092
1.6814
1.68162
1.68151
1.69897
1.7277
1.77845
1.85331
1.70612
1.69412
1.68671
1.67568
1.67567
1.67209
1.68773
1.70788
1.74581
1.79098
1.7019
1.68955
1.68232
1.6696
1.66911
1.66153
1.67511
1.68454
1.70871
1.71543
1.69813
1.68516
1.67775
1.6632
1.6619
1.64987
1.661
1.65766
1.66739
1.62593
1.6948
1.681
1.67299
1.65653
1.654
1.6372
1.6453
1.62726
1.62197
1.52101
1.69192
1.67706
1.66804
1.64961
1.64538
1.6236
1.62781
1.59355
1.57221
1.40216
1.68953
1.67337
1.66291
1.64248
1.63607
1.60923
1.60844
1.55671
1.51642
1.26748
1.68764
1.66992
1.65769
1.63516
1.62623
1.59422
1.58821
1.51848
1.45772
1.12846
1.68583
1.66619
1.65064
1.62602
1.61228
1.57422
1.5581
1.46959
1.38662
0.994538
1.68523
1.66293
1.64265
1.61605
1.59575
1.55287
1.52345
1.4269
1.31569
0.972938
1.68646
1.66087
1.63454
1.60665
1.57881
1.53347
1.49021
1.3923
1.25786
0.962747
1.69012
1.66
1.62652
1.59797
1.56201
1.51627
1.45907
1.36443
1.21048
0.958052
1.69699
1.66013
1.61862
1.59
1.54481
1.50136
1.43011
1.34272
1.17374
0.956326
1.70765
1.6614
1.611
1.58285
1.52795
1.4887
1.40379
1.32624
1.14666
0.954355
1.72197
1.66091
1.60262
1.57342
1.51066
1.47705
1.3807
1.31341
1.12763
0.952733
1.74721
1.66471
1.59734
1.56659
1.49568
1.4666
1.36143
1.30435
1.11523
0.952784
1.76003
1.65681
1.58569
1.555
1.483
1.45904
1.349
1.3001
1.10946
0.95572
1.83677
1.66988
1.58912
1.55259
1.47745
1.45574
1.34337
1.30017
1.10692
0.960622
0.737772
0.57933
0.390831
0.210071
0.0483279
-0.0953534
-0.223863
-0.338861
-0.440049
-0.527148
0.691548
0.567049
0.424699
0.281759
0.148981
0.0271073
-0.0852286
-0.19084
-0.288441
-0.376962
0.678426
0.573034
0.459171
0.341944
0.227914
0.118793
0.0149456
-0.0837568
-0.175817
-0.261139
0.691868
0.594065
0.492271
0.390261
0.289626
0.191082
0.0952773
0.00291218
-0.0849143
-0.167494
0.709896
0.617988
0.524014
0.431572
0.340567
0.250126
0.160598
0.0726368
-0.0119729
-0.0923675
0.728294
0.641851
0.553901
0.46781
0.383107
0.298057
0.212828
0.127965
0.0459196
-0.0324852
0.745719
0.664322
0.581252
0.499448
0.418436
0.336541
0.253937
0.171327
0.091138
0.0144372
0.761585
0.684624
0.605571
0.526484
0.447038
0.366308
0.284748
0.203416
0.124413
0.0489633
0.775941
0.702426
0.626363
0.548358
0.468503
0.387048
0.305051
0.223788
0.144842
0.0696477
0.787663
0.715582
0.640045
0.560956
0.479459
0.39677
0.314182
0.232762
0.153885
0.0786956
-1.91975
-1.87575
-1.78127
-1.66293
-1.54354
-1.43514
-1.34199
-1.26515
-1.20485
-1.16157
-2.00041
-1.96226
-1.88307
-1.78077
-1.67417
-1.57533
-1.48937
-1.41798
-1.36216
-1.32331
-2.00991
-1.9769
-1.91452
-1.832
-1.74219
-1.65598
-1.57909
-1.51386
-1.46181
-1.42461
-1.96206
-1.93326
-1.88657
-1.82491
-1.75451
-1.68369
-1.61819
-1.56095
-1.51403
-1.47934
-1.87781
-1.85276
-1.81877
-1.77566
-1.72455
-1.6702
-1.61727
-1.56874
-1.52667
-1.49225
-1.77953
-1.75825
-1.73346
-1.70417
-1.66904
-1.62967
-1.58898
-1.54924
-1.5129
-1.48167
-1.68516
-1.66794
-1.64962
-1.62938
-1.60568
-1.5785
-1.54903
-1.51901
-1.48973
-1.46295
-1.6048
-1.59189
-1.57838
-1.56378
-1.54722
-1.52819
-1.50689
-1.4834
-1.46022
-1.43734
-1.54169
-1.53273
-1.52307
-1.51234
-1.50038
-1.48696
-1.47197
-1.45561
-1.43771
-1.42708
-1.49448
-1.48874
-1.48204
-1.47409
-1.4652
-1.45557
-1.44498
-1.43401
-1.41887
-1.41335
-1.46083
-1.45738
-1.45267
-1.44659
-1.43985
-1.43302
-1.42644
-1.4202
-1.41154
-1.38623
-1.43914
-1.43677
-1.433
-1.42793
-1.42246
-1.41729
-1.41271
-1.4085
-1.40269
-1.37352
-1.42781
-1.42488
-1.42098
-1.41594
-1.41053
-1.4055
-1.40145
-1.39803
-1.39314
-1.37887
-1.42439
-1.42063
-1.4164
-1.41219
-1.40854
-1.40607
-1.40523
-1.40623
-1.4093
-1.41695
-1.42262
-1.41823
-1.41496
-1.414
-1.41564
-1.42015
-1.42774
-1.43868
-1.45357
-1.47491
-1.4125
-1.4091
-1.40877
-1.41337
-1.42281
-1.43681
-1.45511
-1.47752
-1.50398
-1.53507
-1.38144
-1.38101
-1.38506
-1.39572
-1.41259
-1.43501
-1.46237
-1.49413
-1.52972
-1.56901
-1.31997
-1.32345
-1.33178
-1.34699
-1.36872
-1.39616
-1.42847
-1.46467
-1.50353
-1.54377
-1.22859
-1.23563
-1.24731
-1.26504
-1.28919
-1.31923
-1.35425
-1.39333
-1.43666
-1.48687
-1.12278
-1.1317
-1.1445
-1.16205
-1.18539
-1.21426
-1.24775
-1.2853
-1.32826
-1.37939
-1.35476
-1.55145
-1.10446
-0.842895
-0.639518
-0.36349
-0.180825
-0.0720939
-0.0152613
0.0045105
-1.43273
-1.66224
-1.11699
-0.763724
-0.560335
-0.326664
-0.173497
-0.0714551
-0.0149957
0.00483256
-1.51994
-1.74201
-1.11432
-0.665026
-0.481991
-0.291558
-0.164482
-0.0670575
-0.0117653
0.00667752
-1.61638
-1.79912
-1.09991
-0.564991
-0.410284
-0.262791
-0.155369
-0.0599131
-0.00638939
0.00979387
-1.71905
-1.86217
-1.08249
-0.487406
-0.360217
-0.248053
-0.14961
-0.0523427
-0.000553114
0.0134904
-1.81318
-1.93162
-1.06889
-0.452942
-0.346075
-0.250427
-0.148707
-0.046113
0.00440216
0.0170384
-1.87418
-1.9792
-1.0695
-0.470311
-0.368877
-0.269042
-0.152505
-0.0420341
0.00787183
0.01996
-1.87815
-1.985
-1.09625
-0.537765
-0.429562
-0.297516
-0.160304
-0.0403154
0.00975545
0.0220187
-1.80855
-1.935
-1.1545
-0.646293
-0.530619
-0.331743
-0.1714
-0.0409938
0.0101085
0.0230733
-1.67497
-1.83076
-1.22249
-0.786465
-0.647711
-0.37207
-0.185067
-0.044003
0.00900272
0.0230346
-1.17287
-1.10498
-0.931946
-0.880153
-0.688179
-0.376091
-0.162969
-0.0523204
-0.00431533
0.00805671
-1.16446
-1.09043
-0.92301
-0.883731
-0.69909
-0.382762
-0.165807
-0.0535212
-0.0049186
0.00791894
-1.17644
-1.12978
-0.937806
-0.892476
-0.708416
-0.390069
-0.170622
-0.0566402
-0.00651102
0.00746096
-1.21501
-1.23076
-0.979923
-0.906847
-0.718917
-0.393781
-0.176523
-0.0617625
-0.00921655
0.00655628
-1.28303
-1.40229
-1.04653
-0.883676
-0.687422
-0.387283
-0.182153
-0.0684217
-0.0128326
0.0053185
-1.11836
-1.27224
-1.37289
-1.43578
-1.44595
-1.44444
-1.41617
-1.37872
-1.33393
-1.28496
-1.11908
-1.27538
-1.37419
-1.43506
-1.43964
-1.43724
-1.40814
-1.36584
-1.32831
-1.27464
-1.12192
-1.27989
-1.37766
-1.43648
-1.43895
-1.43605
-1.40718
-1.36864
-1.33728
-1.29379
-1.12879
-1.2889
-1.38722
-1.44373
-1.44849
-1.44265
-1.41738
-1.3874
-1.36394
-1.3451
-1.14062
-1.30348
-1.40332
-1.45798
-1.46685
-1.45719
-1.43786
-1.41388
-1.39902
-1.40165
1.50151
1.4883
1.46731
1.44195
1.41323
1.37996
1.34124
1.29892
1.26207
1.24398
1.62092
1.62144
1.61462
1.60259
1.58666
1.56625
1.54071
1.51148
1.48578
1.47369
1.73833
1.74509
1.74648
1.74391
1.7383
1.72913
1.71565
1.69866
1.6835
1.67684
1.84345
1.85534
1.86397
1.86983
1.87326
1.87363
1.87012
1.86312
1.85657
1.85467
1.93392
1.94973
1.96347
1.97527
1.98518
1.99258
1.99667
1.99754
1.9979
1.99998
2.00403
2.02241
2.04013
2.05679
2.07206
2.08528
2.09562
2.10285
2.10869
2.1141
2.05305
2.07321
2.09358
2.11345
2.1322
2.14913
2.16345
2.17475
2.18416
2.19182
2.07914
2.10003
2.12175
2.14336
2.16398
2.18291
2.19935
2.2128
2.22406
2.23289
2.08221
2.10289
2.12467
2.1464
2.16713
2.18612
2.20258
2.21603
2.2273
2.23614
2.0624
2.08188
2.10236
2.12262
2.14169
2.15883
2.17324
2.18456
2.19397
2.20165
-0.941233
-0.990861
-1.05594
-1.13714
-1.23541
-1.35026
-1.47841
-1.60828
-1.71455
-1.76397
-0.669305
-0.725499
-0.795792
-0.881011
-0.982488
-1.10057
-1.23387
-1.37146
-1.48585
-1.53886
-0.362037
-0.424648
-0.500042
-0.588677
-0.691992
-0.810866
-0.943934
-1.08191
-1.20311
-1.25768
-0.0430187
-0.110452
-0.189167
-0.27929
-0.382145
-0.498758
-0.628094
-0.76296
-0.88023
-0.937377
0.264023
0.194894
0.116253
0.0281579
-0.0706317
-0.181367
-0.303498
-0.430586
-0.540081
-0.595403
0.541764
0.475607
0.401656
0.319963
0.229274
0.128186
0.0169836
-0.0985884
-0.197828
-0.248679
0.786199
0.727413
0.662268
0.590648
0.511214
0.422495
0.32463
0.222762
0.135434
0.0905805
1.00582
0.956232
0.901406
0.841169
0.774024
0.698465
0.614583
0.526959
0.451951
0.413637
1.21027
1.16905
1.1226
1.07202
1.01596
0.952811
0.882535
0.809003
0.746222
0.71452
1.38862
1.35565
1.31623
1.27441
1.22951
1.17964
1.12415
1.06577
1.01583
0.990914
1.833
1.74282
1.71936
1.70841
1.70167
1.7045
1.70888
1.72673
1.71085
1.64136
1.81578
1.74218
1.71971
1.71015
1.70429
1.70902
1.71708
1.74109
1.74604
1.72179
1.80027
1.74057
1.71925
1.71094
1.70599
1.71225
1.72418
1.75572
1.78037
1.79981
1.78636
1.73815
1.71815
1.71085
1.70682
1.71427
1.72956
1.76684
1.80878
1.86353
1.77387
1.73507
1.71652
1.70998
1.70689
1.71518
1.73307
1.77483
1.83092
1.91436
1.76266
1.73144
1.71443
1.7084
1.7062
1.71496
1.73475
1.77963
1.84652
1.95142
1.7526
1.72738
1.71194
1.70616
1.70475
1.71359
1.73464
1.78122
1.85548
1.97492
1.74359
1.72298
1.70909
1.70331
1.70256
1.71108
1.7328
1.77968
1.85786
1.98539
1.73552
1.71833
1.70592
1.69991
1.69964
1.70744
1.72927
1.77516
1.85394
1.98316
1.7283
1.71352
1.70248
1.696
1.69605
1.70267
1.72405
1.76775
1.84395
1.96843
1.9993
1.74462
1.7108
1.69467
1.68857
1.68584
1.67599
1.67268
1.59519
1.53847
1.92489
1.73872
1.71184
1.69774
1.69056
1.68725
1.67689
1.67412
1.59776
1.53383
1.902
1.74387
1.71555
1.7008
1.69278
1.68967
1.67999
1.67851
1.60901
1.53112
1.87547
1.74377
1.7174
1.70357
1.69538
1.69332
1.68681
1.68862
1.63105
1.54019
1.85251
1.74318
1.71855
1.70606
1.69833
1.69823
1.69556
1.7042
1.66379
1.56315
1.26787
1.14666
0.984697
0.776566
0.52522
0.239461
-0.0669599
-0.374726
-0.662954
-0.913524
1.262
1.14468
0.988806
0.786516
0.541307
0.25979
-0.0460632
-0.357207
-0.651765
-0.909356
1.27235
1.15197
0.99454
0.794844
0.554421
0.276076
-0.030111
-0.344765
-0.644779
-0.908106
1.30542
1.17125
1.00314
0.802035
0.564553
0.288094
-0.019131
-0.337314
-0.642229
-0.910788
1.36349
1.20572
1.0171
0.80814
0.570031
0.294646
-0.0127746
-0.33356
-0.643307
-0.917768
)
;

boundaryField
{
    left
    {
        type            zeroGradient;
    }
    right
    {
        type            fixedValue;
        value           uniform 0;
    }
    down
    {
        type            zeroGradient;
    }
    up
    {
        type            zeroGradient;
    }
    cylinder
    {
        type            zeroGradient;
    }
    defaultFaces
    {
        type            empty;
    }
}


// ************************************************************************* //
