/*--------------------------------*- C++ -*----------------------------------*\
  =========                 |
  \\      /  F ield         | OpenFOAM: The Open Source CFD Toolbox
   \\    /   O peration     | Website:  https://openfoam.org
    \\  /    A nd           | Version:  13
     \\/     M anipulation  |
\*---------------------------------------------------------------------------*/
FoamFile
{
    format      ascii;
    class       volVectorField;
    location    "4.3";
    object      U;
}
// * * * * * * * * * * * * * * * * * * * * * * * * * * * * * * * * * * * * * //

dimensions      [0 1 -1 0 0 0 0];

internalField   nonuniform List<vector> 
1800
(
(-0.0313272 0.0263475 1.06468e-20)
(-0.0751447 0.0502127 4.56464e-21)
(-0.0994174 0.0602922 -3.88806e-21)
(-0.102847 0.0646005 1.57507e-20)
(-0.0818197 0.0686792 5.62164e-20)
(-0.032746 0.0754384 2.52467e-20)
(0.0473416 0.0871626 -6.99759e-21)
(0.156879 0.104831 7.18139e-20)
(0.305389 0.151893 1.49826e-19)
(0.382165 0.183168 1.40837e-19)
(-0.0412705 0.0313011 6.94676e-21)
(-0.0827545 0.0588742 -2.03605e-20)
(-0.0856243 0.0665166 1.9484e-22)
(-0.0500731 0.0622146 -3.22205e-20)
(0.0264228 0.0521262 1.18371e-20)
(0.146188 0.0400957 7.31335e-20)
(0.309598 0.0286525 -3.04269e-20)
(0.510316 0.0158468 8.16467e-21)
(0.759 0.0308098 -2.20584e-19)
(0.893819 0.0403052 1.81181e-19)
(-0.0443698 0.0294689 3.35757e-21)
(-0.0713355 0.0525527 1.23319e-20)
(-0.0394087 0.0560946 4.91512e-21)
(0.0501172 0.0470276 -9.59374e-21)
(0.19745 0.0318223 -8.80588e-20)
(0.399351 0.0151052 1.70758e-20)
(0.646751 0.000380726 2.97798e-20)
(0.923926 -0.0117384 -1.21735e-20)
(1.22225 -0.0124646 3.93858e-22)
(1.46124 -0.0235722 3.08271e-21)
(-0.0405243 0.0228978 -6.39671e-21)
(-0.0366487 0.0336643 -2.05302e-20)
(0.0499089 0.0286956 -2.12976e-20)
(0.215438 0.0146226 1.72657e-20)
(0.452889 -0.00173942 1.73098e-20)
(0.745852 -0.015381 6.54039e-21)
(1.06909 -0.0235818 -1.82337e-21)
(1.39457 -0.025362 4.49561e-20)
(1.69907 -0.0226237 2.89232e-20)
(1.9497 -0.0208903 -1.14688e-20)
(-0.0284752 0.0141957 4.7611e-20)
(0.0278128 0.0109488 4.60316e-20)
(0.193129 -0.00100093 -2.99601e-20)
(0.454685 -0.0145343 -3.67898e-20)
(0.787517 -0.0231777 -9.52911e-20)
(1.15328 -0.0240719 1.49288e-21)
(1.51054 -0.0178995 1.09728e-19)
(1.82625 -0.00733596 5.56759e-20)
(2.07955 0.00395565 1.42474e-21)
(2.27183 0.00840562 -5.25887e-20)
(-0.00381024 0.00377977 -4.87553e-20)
(0.131195 -0.0109831 -1.99914e-21)
(0.397622 -0.0232788 1.68093e-19)
(0.761711 -0.0266577 -4.32011e-20)
(1.16954 -0.0187921 -1.05231e-19)
(1.56204 -0.00247035 2.05483e-19)
(1.89497 0.0170489 -2.25087e-19)
(2.14702 0.0348687 -3.18113e-19)
(2.3192 0.0475188 2.74343e-19)
(2.42324 0.05402 2.79909e-21)
(0.0373534 -0.00666548 6.03512e-20)
(0.277239 -0.02573 -1.28157e-19)
(0.6555 -0.0276587 -3.99998e-19)
(1.10437 -0.0110371 1.81764e-19)
(1.54156 0.0172588 4.0095e-19)
(1.90535 0.0478483 -1.59142e-21)
(2.17018 0.073649 -8.96418e-19)
(2.34085 0.0913162 3.28989e-21)
(2.43799 0.101578 1.13721e-18)
(2.487 0.102513 3.17524e-19)
(0.0966431 -0.0138226 5.66297e-20)
(0.460724 -0.0249771 3.06718e-19)
(0.942463 -0.00491665 3.15443e-19)
(1.43697 0.0365561 -1.07058e-19)
(1.85376 0.081638 -3.84095e-19)
(2.15359 0.118492 -1.47521e-19)
(2.3417 0.143046 0)
(2.44512 0.156352 4.96451e-19)
(2.49403 0.161194 -8.72525e-21)
(2.51089 0.159544 -4.8468e-19)
(0.172166 -0.0136963 5.39147e-20)
(0.66656 -0.00137599 3.08465e-19)
(1.22498 0.0494557 5.57813e-19)
(1.72154 0.113781 -5.6822e-19)
(2.08619 0.167907 -4.98991e-19)
(2.31483 0.203859 2.12115e-19)
(2.4383 0.223166 -1.03281e-18)
(2.49398 0.230491 -7.85115e-19)
(2.51117 0.230539 9.79243e-19)
(2.50742 0.224344 8.55647e-19)
(0.25873 -0.00264688 -4.85683e-20)
(0.873912 0.0488977 2.39972e-19)
(1.47395 0.133836 1.52913e-19)
(1.941 0.214642 -1.21359e-18)
(2.24298 0.270335 4.75412e-20)
(2.40795 0.300516 2.52724e-18)
(2.48211 0.312031 -1.48178e-18)
(2.50538 0.312225 -8.81614e-19)
(2.50348 0.306139 3.1211e-19)
(2.48862 0.295595 -7.15858e-19)
(-0.00486772 -0.0659598 -2.02345e-19)
(-0.054273 -0.0882437 -3.05385e-20)
(-0.122319 -0.0784729 1.70139e-21)
(-0.196726 -0.068364 2.35165e-20)
(-0.269326 -0.0644033 4.85973e-21)
(-0.33812 -0.0638279 2.1781e-19)
(-0.402444 -0.0630693 3.14766e-21)
(-0.462251 -0.0598988 -2.37798e-19)
(-0.519884 -0.0531656 -1.79764e-20)
(-0.579535 -0.0421685 5.09244e-20)
(-0.00654861 -0.002454 -2.66847e-20)
(-0.0569263 0.0390373 -6.05445e-20)
(-0.123647 0.0772618 7.42306e-20)
(-0.196351 0.09763 3.81811e-20)
(-0.267871 0.103436 9.09683e-20)
(-0.336326 0.102081 1.84241e-19)
(-0.401033 0.0989477 -1.8945e-19)
(-0.461742 0.0968228 -1.75102e-19)
(-0.519958 0.0970984 2.96461e-19)
(-0.578614 0.101033 -7.51815e-20)
(-0.0125105 0.0439979 8.15003e-21)
(-0.0578683 0.137588 -6.42001e-20)
(-0.112087 0.20664 -2.49307e-20)
(-0.170138 0.244608 -1.15651e-19)
(-0.227706 0.259133 -3.31804e-20)
(-0.28325 0.260849 3.25875e-19)
(-0.335983 0.257347 -2.63955e-20)
(-0.3853 0.252476 -2.39427e-19)
(-0.431363 0.247992 2.47531e-19)
(-0.475436 0.245535 1.38479e-19)
(-0.0174671 0.0611383 1.58487e-20)
(-0.0550545 0.182962 1.12153e-21)
(-0.0925152 0.280669 -6.47782e-21)
(-0.129654 0.344207 3.29287e-20)
(-0.166041 0.376982 -1.90669e-20)
(-0.201179 0.388879 -9.64559e-20)
(-0.234371 0.389415 -5.66519e-20)
(-0.264769 0.384676 5.22076e-20)
(-0.291072 0.377713 -1.41918e-20)
(-0.310901 0.370794 4.08718e-21)
(-0.0171825 0.0520886 0)
(-0.0461526 0.171469 -1.22559e-20)
(-0.0688354 0.284201 4.41144e-20)
(-0.0867654 0.373283 9.39358e-21)
(-0.101618 0.432832 7.88234e-20)
(-0.114268 0.465794 -3.76073e-20)
(-0.12487 0.478993 8.08197e-21)
(-0.133126 0.479175 4.81118e-20)
(-0.138278 0.471205 0)
(-0.133358 0.460301 5.5484e-21)
(-0.0114725 0.0300933 -1.6464e-20)
(-0.0321314 0.121753 3.93372e-20)
(-0.0459216 0.226339 4.12811e-20)
(-0.0526736 0.324758 -4.59676e-20)
(-0.0534856 0.404836 4.01659e-20)
(-0.0494625 0.462006 -8.03775e-21)
(-0.0414684 0.497047 -1.71694e-20)
(-0.0300352 0.513263 -2.57987e-20)
(-0.0155757 0.514048 -2.82868e-20)
(0.00984649 0.504515 2.03683e-21)
(-0.00372366 0.00951517 4.3366e-21)
(-0.0174694 0.0649311 6.67887e-20)
(-0.0286064 0.143295 -4.24236e-20)
(-0.0339725 0.228672 -7.29549e-21)
(-0.0323765 0.3084 -8.86436e-21)
(-0.0237139 0.374533 -6.11609e-20)
(-0.0084943 0.423495 -4.2799e-20)
(0.0126633 0.454845 -9.43133e-20)
(0.0389406 0.46909 7.00125e-20)
(0.0741624 0.464842 1.18302e-19)
(0.00110013 -0.00135403 1.24151e-20)
(-0.0105305 0.0253612 -2.723e-20)
(-0.0250579 0.0736425 -4.5484e-20)
(-0.0369765 0.133093 1.44433e-20)
(-0.0428834 0.194491 1.45278e-20)
(-0.0411814 0.250539 1.68666e-19)
(-0.0313869 0.296477 2.05968e-19)
(-0.013197 0.329806 -1.22626e-19)
(0.014141 0.348113 -8.20482e-20)
(0.0508725 0.34062 1.06459e-19)
(-0.000813925 -0.00108833 1.19862e-20)
(-0.0189945 0.0104626 -1.51341e-20)
(-0.0420932 0.0343896 4.87524e-20)
(-0.0639708 0.0663571 7.28305e-20)
(-0.0800692 0.102074 -7.51066e-20)
(-0.0877831 0.136953 1.73898e-19)
(-0.0855099 0.167029 -6.17007e-21)
(-0.0716246 0.18889 -3.6007e-19)
(-0.0439597 0.197566 -8.60047e-20)
(0.000390654 0.182691 9.48917e-20)
(-0.0149321 0.0116192 2.07356e-21)
(-0.0500557 0.0243323 1.0041e-21)
(-0.0833493 0.0351653 -8.86155e-21)
(-0.110522 0.0475289 3.41977e-20)
(-0.12725 0.0629906 6.05893e-20)
(-0.13043 0.0810477 -8.87826e-20)
(-0.117762 0.100512 -9.71969e-20)
(-0.0873791 0.119791 6.79327e-20)
(-0.0360703 0.134064 -8.54875e-20)
(0.0399912 0.133807 -4.62341e-20)
(-0.873329 0.0358227 -1.09215e-18)
(-1.01045 0.60018 1.6147e-18)
(-0.686698 0.945702 -2.27705e-19)
(-0.394143 0.358502 5.94684e-19)
(0.211917 -0.29842 -3.03814e-19)
(0.499235 -0.539504 -2.15467e-19)
(0.777485 -0.62997 -9.31369e-20)
(0.915807 -0.531958 1.39007e-20)
(1.00275 -0.472269 3.17934e-20)
(1.08673 -0.307543 3.16226e-21)
(-0.868379 0.136745 -8.55832e-19)
(-1.11812 0.571039 -3.75499e-19)
(-0.703086 0.81221 -1.80837e-20)
(-0.188194 0.217921 -5.9395e-19)
(0.37458 -0.414332 -1.24202e-18)
(0.665216 -0.625725 0)
(0.920057 -0.684219 -9.47739e-20)
(1.02484 -0.563371 -3.28216e-21)
(1.09506 -0.489804 -9.61384e-22)
(1.13903 -0.31795 -1.75725e-20)
(-0.706544 0.234502 5.1659e-19)
(-1.02944 0.542766 1.75519e-19)
(-0.574361 0.649732 1.98745e-19)
(0.0489893 0.0717384 4.98853e-20)
(0.576608 -0.520326 5.58704e-20)
(0.848037 -0.705786 -8.17504e-20)
(1.06858 -0.730354 0)
(1.13624 -0.587445 0)
(1.1854 -0.499751 -3.29499e-20)
(1.18961 -0.322963 0)
(-0.43363 0.318431 8.56879e-20)
(-0.762241 0.525736 -2.46938e-19)
(-0.329354 0.493891 6.3358e-23)
(0.313954 -0.0672432 0)
(0.805342 -0.613761 7.36323e-19)
(1.04118 -0.775225 -1.49206e-19)
(1.21755 -0.766887 0)
(1.2461 -0.603558 1.16294e-19)
(1.27179 -0.501883 0)
(1.23678 -0.322555 2.31655e-20)
(-0.131659 0.370144 1.01556e-19)
(-0.382345 0.512981 -1.37975e-19)
(-0.0116233 0.365839 -9.26664e-21)
(0.599828 -0.189017 0)
(1.04947 -0.69274 2.33645e-19)
(1.2383 -0.831263 2.88427e-19)
(1.3631 -0.792623 -6.53921e-20)
(1.35071 -0.611479 -9.32152e-21)
(1.35234 -0.496378 -2.28077e-20)
(1.27942 -0.316825 2.35179e-22)
(0.134984 0.386082 1.27458e-18)
(0.0231237 0.498941 3.5705e-19)
(0.330051 0.270089 8.76056e-21)
(0.893242 -0.285247 3.35871e-19)
(1.29507 -0.755992 -3.12276e-19)
(1.43146 -0.873191 1.08471e-19)
(1.5017 -0.807313 2.65352e-19)
(1.44726 -0.61131 -2.21019e-19)
(1.42532 -0.483707 1.11661e-21)
(1.31672 -0.306048 -5.07131e-20)
(0.321721 0.352864 1.20125e-19)
(0.382946 0.48181 -1.58336e-19)
(0.649985 0.202337 3.46302e-20)
(1.1787 -0.357709 -4.65405e-21)
(1.53207 -0.802173 -1.03001e-19)
(1.61389 -0.900737 -8.18066e-20)
(1.63027 -0.811401 -9.05422e-20)
(1.53397 -0.603522 3.14749e-20)
(1.48937 -0.464503 3.42363e-20)
(1.34809 -0.290682 1.34722e-21)
(0.395828 0.256758 -3.97507e-19)
(0.657875 0.443547 -2.94644e-19)
(0.923437 0.15502 0)
(1.44612 -0.409306 2.3985e-20)
(1.75298 -0.830288 1.33317e-20)
(1.78043 -0.913511 -3.59014e-20)
(1.74644 -0.805499 -2.43735e-19)
(1.61016 -0.588867 9.11386e-20)
(1.54368 -0.439542 -1.85358e-21)
(1.37311 -0.271308 -2.45518e-20)
(0.351497 0.122941 2.06506e-19)
(0.814889 0.382302 8.2247e-19)
(1.152 0.105899 -2.21282e-19)
(1.69318 -0.44641 -7.3675e-21)
(1.95244 -0.841031 3.11526e-20)
(1.92686 -0.911786 -1.06954e-19)
(1.8481 -0.790253 9.09223e-20)
(1.67575 -0.56832 -4.01863e-21)
(1.58794 -0.409866 1.21066e-20)
(1.39154 -0.248593 4.02414e-20)
(0.387078 -0.0514622 -1.04928e-19)
(0.844266 0.260343 7.37192e-19)
(1.36229 0.0778932 1.02084e-19)
(1.92198 -0.4694 2.3177e-19)
(2.12695 -0.838463 1.05672e-19)
(2.05096 -0.898455 -2.2669e-21)
(1.93401 -0.767024 -1.39228e-20)
(1.73091 -0.542967 0)
(1.62203 -0.376842 -6.15123e-20)
(1.40337 -0.2234 4.57838e-20)
(1.09115 -0.0921936 -1.84722e-19)
(1.2067 0.101107 -3.47975e-19)
(1.74458 -0.0670729 6.0121e-19)
(2.22619 -0.535384 -5.30868e-20)
(2.33185 -0.832705 -7.80964e-20)
(2.18845 -0.870551 -3.2986e-20)
(2.02508 -0.727622 -1.03645e-19)
(1.78701 -0.503162 5.44205e-20)
(1.65066 -0.329931 -2.36922e-20)
(1.41054 -0.18957 -2.65298e-20)
(1.99902 -0.0586416 -1.13364e-20)
(1.95038 0.0475223 -2.58543e-19)
(2.39065 -0.216949 -8.29014e-19)
(2.62546 -0.606022 1.68937e-19)
(2.50602 -0.82016 -6.52383e-19)
(2.25168 -0.806769 -1.78151e-19)
(2.04783 -0.632906 9.3206e-20)
(1.78846 -0.4096 -3.30244e-20)
(1.63879 -0.244209 1.30605e-19)
(1.3936 -0.136547 1.24764e-20)
(2.31663 -0.0701443 7.03685e-21)
(2.37654 -0.0301365 2.37159e-20)
(2.67115 -0.286138 -2.68919e-20)
(2.6353 -0.579288 4.29928e-36)
(2.44693 -0.732317 -3.34827e-20)
(2.2376 -0.719264 3.63111e-34)
(2.05983 -0.552781 3.77797e-20)
(1.79796 -0.340376 1.42964e-33)
(1.6333 -0.178461 -6.04121e-21)
(1.37569 -0.0920786 1.24848e-20)
(2.39635 -0.0752614 1.12321e-36)
(2.50585 -0.085906 1.8662e-19)
(2.62869 -0.289889 3.89131e-19)
(2.56994 -0.531506 0)
(2.46784 -0.68539 2.43401e-19)
(2.26301 -0.6645 4.33577e-20)
(2.0375 -0.473309 -1.11841e-19)
(1.74331 -0.252637 3.27602e-33)
(1.55784 -0.0933821 -8.8807e-20)
(1.312 -0.038981 -1.52531e-20)
(2.40862 -0.096042 2.80646e-20)
(2.47998 -0.124774 -5.56519e-21)
(2.5434 -0.287958 0)
(2.53373 -0.509403 0)
(2.4125 -0.63264 0)
(2.14099 -0.567467 0)
(1.87551 -0.361227 6.53458e-21)
(1.58887 -0.158318 3.39209e-33)
(1.42324 -0.0190063 -7.94241e-21)
(1.22146 0.00371736 -2.14604e-33)
(2.3996 -0.111472 5.48239e-20)
(2.42922 -0.14555 0)
(2.47645 -0.285821 0)
(2.46533 -0.474525 0)
(2.27047 -0.554214 0)
(1.92756 -0.460424 0)
(1.62591 -0.258087 -1.04778e-20)
(1.35404 -0.0777753 8.77154e-20)
(1.21877 0.0403668 -8.76673e-21)
(1.08636 0.0370737 -9.50917e-21)
(2.37271 -0.123498 0)
(2.36221 -0.157117 9.05534e-20)
(2.39222 -0.277428 1.49154e-19)
(2.29619 -0.421251 0)
(1.94517 -0.440743 9.01979e-20)
(1.50813 -0.318481 1.43249e-20)
(1.20528 -0.141759 -3.16313e-20)
(1.00139 -0.0056784 -2.64089e-20)
(0.935134 0.077355 2.57923e-20)
(0.90245 0.0528408 -2.32684e-20)
(2.25702 -0.121632 -5.35278e-21)
(2.20343 -0.152062 -3.81511e-21)
(2.15074 -0.241658 3.42332e-21)
(1.85372 -0.310665 -4.15387e-35)
(1.35123 -0.269614 -3.97926e-21)
(0.910033 -0.163267 1.70426e-34)
(0.680388 -0.0526995 -8.30272e-21)
(0.587416 0.0276621 -4.89208e-20)
(0.607952 0.0764226 -8.72575e-21)
(0.669344 0.0470034 2.09753e-20)
(1.82787 -0.0996616 3.39473e-20)
(1.70665 -0.127096 -2.98001e-20)
(1.48181 -0.146848 -2.28703e-20)
(1.03038 -0.123386 0)
(0.585795 -0.0881373 -1.50598e-20)
(0.310265 -0.056583 -1.72144e-20)
(0.198065 -0.017842 -2.92273e-20)
(0.194169 0.0216952 -1.52277e-20)
(0.268598 0.0451278 -3.07544e-21)
(0.374658 0.0263077 -2.2343e-20)
(0.75306 -0.025847 0)
(0.584238 -0.0168047 0)
(0.390103 0.00203831 0)
(0.221705 0.00473259 0)
(0.0912632 -0.00715588 0)
(-0.021969 -0.0110874 0)
(-0.0900602 -0.00678363 -8.18768e-21)
(-0.0878585 0.00152327 6.38402e-35)
(-0.0337924 0.00615229 -9.03947e-21)
(0.043523 0.00343035 -2.05835e-20)
(2.43527 0.270742 6.94104e-19)
(2.47495 0.211593 4.12486e-20)
(2.48936 0.153649 -6.29314e-20)
(2.5104 0.110562 -2.0423e-19)
(2.50156 0.0613148 -3.03773e-20)
(2.47265 0.0393298 -4.52499e-20)
(2.40665 -0.00821142 -1.54983e-19)
(2.1602 0.00113274 1.71313e-20)
(1.96631 -0.0432034 0)
(1.25225 0.0262681 6.62702e-20)
(2.36217 0.230532 2.30634e-19)
(2.37849 0.190404 -2.47106e-19)
(2.44173 0.136152 -6.15474e-20)
(2.42488 0.106671 -1.04692e-19)
(2.50917 0.0571547 9.29865e-20)
(2.43274 0.034861 1.53658e-19)
(2.54891 -0.00977007 -1.92188e-19)
(2.355 -0.0356893 7.71771e-21)
(2.45683 -0.0625798 -3.08e-20)
(2.0646 -0.0901284 6.28783e-20)
(2.31664 0.198688 -1.00831e-19)
(2.30135 0.158357 2.35435e-19)
(2.39714 0.122288 1.32343e-19)
(2.34761 0.0841457 -2.32151e-19)
(2.4626 0.0569344 -4.9035e-20)
(2.37752 0.0160204 3.21761e-19)
(2.50473 0.00116004 5.57248e-20)
(2.39676 -0.0466887 -5.53454e-20)
(2.49484 -0.0461199 -2.79735e-20)
(2.37709 -0.0973157 -2.6266e-20)
(2.27078 0.166547 -2.82988e-19)
(2.26278 0.121329 -6.46078e-20)
(2.34209 0.104726 5.1251e-20)
(2.31614 0.057983 -1.67923e-21)
(2.3929 0.0498768 -2.20715e-19)
(2.36042 0.00164432 -6.41838e-20)
(2.42293 0.0019707 1.73701e-19)
(2.40366 -0.0447552 -1.30976e-20)
(2.43541 -0.0396221 3.25842e-20)
(2.43888 -0.0798876 1.1437e-20)
(2.22468 0.130804 2.99308e-20)
(2.24063 0.0892515 1.32919e-19)
(2.2895 0.0795569 -6.68168e-21)
(2.29881 0.0379206 1.36134e-19)
(2.33592 0.032563 -5.85761e-20)
(2.34618 -0.00630969 -1.92419e-19)
(2.36765 -0.00951128 2.86753e-20)
(2.38586 -0.0420513 -5.50633e-20)
(2.39209 -0.0466925 -1.73883e-20)
(2.41778 -0.0704946 -2.18942e-20)
(2.18538 0.0921747 -1.56522e-19)
(2.2158 0.0603289 -6.21451e-20)
(2.24854 0.0498986 -1.91513e-20)
(2.27471 0.0196091 9.39846e-20)
(2.29747 0.0105114 2.6234e-19)
(2.32163 -0.0160908 -5.5457e-20)
(2.33502 -0.0256597 4.9947e-21)
(2.35811 -0.047067 -7.90788e-20)
(2.36492 -0.0585491 -1.14508e-19)
(2.38636 -0.0742499 -1.88202e-20)
(2.13908 0.0542746 -4.76201e-20)
(2.17334 0.0318348 -1.13347e-19)
(2.20143 0.0208026 -1.47938e-19)
(2.23216 -1.63902e-05 -2.53738e-19)
(2.25367 -0.0108065 8.37112e-20)
(2.28137 -0.0293622 6.74552e-20)
(2.29682 -0.0410954 -1.4291e-20)
(2.32197 -0.0572081 7.83332e-20)
(2.33204 -0.0703994 -6.95238e-20)
(2.3559 -0.0839435 -4.56264e-20)
(2.02997 0.0194462 6.0222e-20)
(2.0641 0.00438372 1.89857e-20)
(2.08546 -0.00429265 1.53482e-20)
(2.12035 -0.0186496 -3.28106e-20)
(2.13606 -0.0269682 -3.12749e-20)
(2.17313 -0.0409424 -6.04619e-20)
(2.18239 -0.0498366 -4.62359e-20)
(2.22318 -0.0638731 1.05542e-19)
(2.22463 -0.0740029 -4.25171e-20)
(2.27149 -0.0883657 2.3018e-21)
(1.71474 -0.00949347 -7.22585e-20)
(1.73664 -0.0170355 -1.71368e-20)
(1.7448 -0.0218165 1.26208e-19)
(1.77211 -0.0290382 -2.16259e-20)
(1.77526 -0.0334123 -3.5974e-20)
(1.81113 -0.0411748 7.40022e-20)
(1.8066 -0.0459187 -5.73987e-20)
(1.85403 -0.0550871 4.60854e-20)
(1.83773 -0.061181 -2.32137e-20)
(1.90057 -0.0726165 -9.27213e-20)
(0.870779 -0.00991116 5.12196e-20)
(0.865089 -0.00924055 4.4758e-20)
(0.858136 -0.0086133 4.49532e-20)
(0.856573 -0.00819414 7.52553e-20)
(0.850491 -0.00818014 -3.82857e-20)
(0.854441 -0.00832313 -5.36992e-20)
(0.846023 -0.0090987 2.42675e-20)
(0.857922 -0.0103949 -2.12192e-21)
(0.838655 -0.0114628 3.16973e-21)
(0.867652 -0.016907 -4.79511e-21)
(1.53248 0.937539 -7.90385e-20)
(1.51711 0.983229 2.55754e-20)
(1.52047 1.03635 -5.9777e-19)
(1.52866 1.09652 2.24391e-19)
(1.5346 1.15974 1.12672e-18)
(1.52958 1.21781 -1.40367e-19)
(1.49178 1.24831 -1.00496e-18)
(1.37199 1.19991 -5.26234e-21)
(1.08407 0.979804 -4.91595e-19)
(0.506028 0.468179 1.16766e-19)
(1.6925 0.910071 0)
(1.68186 0.954316 6.92989e-19)
(1.68178 1.00372 1.53903e-18)
(1.68958 1.06135 -9.49963e-19)
(1.69861 1.12291 -2.2236e-18)
(1.69654 1.17863 -1.46287e-19)
(1.65628 1.20473 -1.87248e-19)
(1.52113 1.15068 6.8165e-19)
(1.19566 0.929891 1.01084e-18)
(0.552195 0.436579 4.01024e-19)
(1.83931 0.874593 6.46265e-20)
(1.83746 0.918068 0)
(1.83897 0.964189 -6.40035e-20)
(1.84758 1.01702 9.67827e-19)
(1.85853 1.07336 5.28458e-20)
(1.8573 1.12308 -2.16891e-18)
(1.81172 1.14198 1.36845e-18)
(1.65809 1.08139 8.04882e-19)
(1.29329 0.862471 -8.61183e-19)
(0.588729 0.395856 -2.56285e-19)
(1.96934 0.829257 -1.73427e-19)
(1.97664 0.87072 -1.28628e-19)
(1.9832 0.913186 2.64518e-19)
(1.99456 0.960521 -3.2849e-19)
(2.00715 1.0102 -1.52054e-18)
(2.00479 1.05213 -1.18082e-18)
(1.95098 1.06187 1.23608e-18)
(1.77501 0.993189 8.09077e-19)
(1.36871 0.778384 0)
(0.611195 0.346516 0)
(2.08298 0.770331 -8.63903e-19)
(2.09841 0.808887 -1.58351e-18)
(2.11122 0.847507 -6.09994e-19)
(2.12623 0.889382 -3.15792e-20)
(2.1399 0.931973 0)
(2.13442 0.964221 1.26062e-19)
(2.06784 0.963496 1.4468e-19)
(1.86384 0.888574 1.79303e-19)
(1.41524 0.680246 -2.56091e-19)
(0.616173 0.289733 -6.39285e-20)
(2.18329 0.701683 1.0269e-18)
(2.20465 0.735989 -3.87693e-20)
(2.22264 0.769923 -1.20709e-18)
(2.24056 0.805611 0)
(2.25355 0.839994 0)
(2.24067 0.862383 0)
(2.15505 0.850908 1.36314e-18)
(1.91796 0.768974 -1.49075e-18)
(1.42763 0.569726 -9.35082e-19)
(0.600971 0.228341 1.63264e-20)
(2.27034 0.623196 -1.32703e-18)
(2.29588 0.652689 -2.78614e-18)
(2.31715 0.681846 -4.82873e-21)
(2.33584 0.711282 5.63978e-19)
(2.34471 0.737267 -3.37539e-20)
(2.31894 0.749169 1.17884e-18)
(2.20772 0.726513 -6.48949e-19)
(1.93184 0.638297 -1.6846e-18)
(1.40085 0.451947 8.60983e-20)
(0.564616 0.166471 6.80231e-20)
(2.34583 0.54102 -1.02469e-18)
(2.37224 0.56555 1.44168e-20)
(2.39394 0.589118 3.85044e-19)
(2.4102 0.611431 -3.72132e-19)
(2.41024 0.628153 5.78935e-19)
(2.36478 0.628756 1.52135e-18)
(2.2197 0.59489 -1.23267e-19)
(1.89902 0.502327 -8.66752e-19)
(1.33118 0.333639 1.93213e-19)
(0.508006 0.108683 3.55278e-20)
(2.40689 0.456153 3.69465e-19)
(2.43258 0.476241 7.29557e-20)
(2.45196 0.494164 -3.77938e-19)
(2.46168 0.509091 -8.87098e-19)
(2.44652 0.516225 5.78848e-20)
(2.37252 0.505499 3.97047e-20)
(2.18412 0.461539 -1.04301e-18)
(1.81385 0.367857 4.51119e-19)
(1.21752 0.222163 1.28434e-19)
(0.434287 0.0592794 -3.98541e-20)
(2.45464 0.37425 6.76771e-19)
(2.47654 0.38943 -1.00617e-18)
(2.48986 0.401202 1.47937e-19)
(2.48715 0.408405 1.97262e-18)
(2.44814 0.405858 9.45141e-19)
(2.33483 0.384477 -2.02775e-18)
(2.09353 0.33271 -1.84044e-18)
(1.67229 0.242471 7.54128e-19)
(1.06245 0.125015 -3.9884e-20)
(0.3488 0.021594 -1.06062e-19)
(0.552819 0.356523 -2.02608e-19)
(0.511647 0.369388 -1.77927e-19)
(0.465175 0.383045 8.81862e-20)
(0.414062 0.397625 -2.81481e-19)
(0.358023 0.413 -2.97797e-20)
(0.296221 0.427885 2.40443e-19)
(0.227684 0.436952 4.86065e-20)
(0.152898 0.424882 -1.15771e-20)
(0.0791159 0.358544 1.27424e-20)
(0.0155873 0.182913 1.60373e-20)
(0.590147 0.465069 1.56972e-19)
(0.550202 0.484797 2.02973e-19)
(0.505815 0.505929 4.26692e-20)
(0.457228 0.528608 -6.56131e-20)
(0.403839 0.552592 -2.49022e-19)
(0.344549 0.576052 -6.57544e-21)
(0.277723 0.591694 8.84529e-20)
(0.202098 0.578536 3.09149e-20)
(0.121373 0.490645 -1.06018e-19)
(0.0377132 0.251576 -3.64048e-20)
(0.645897 0.566025 -1.47693e-19)
(0.607423 0.591708 -1.34748e-19)
(0.565638 0.619279 1.15704e-19)
(0.520312 0.649191 8.77275e-20)
(0.470561 0.681322 -7.45328e-20)
(0.414997 0.713385 -4.36137e-20)
(0.350969 0.73604 -1.03971e-19)
(0.274464 0.722532 -6.01154e-20)
(0.183518 0.614374 -6.20676e-20)
(0.0701177 0.315308 1.43036e-21)
(0.719594 0.662939 6.21813e-20)
(0.683151 0.695146 -3.62983e-20)
(0.64491 0.729135 -9.11661e-20)
(0.60365 0.765568 -2.81293e-20)
(0.558038 0.804437 -7.05724e-20)
(0.506492 0.843097 1.30025e-21)
(0.445357 0.870375 -2.53509e-19)
(0.367269 0.854378 4.17695e-20)
(0.262846 0.7258 -3.02038e-19)
(0.111235 0.371634 4.89838e-20)
(0.806831 0.743654 -5.59646e-21)
(0.773039 0.780916 7.39899e-21)
(0.739504 0.820488 -4.72711e-20)
(0.704132 0.86341 -2.43961e-19)
(0.664821 0.909451 1.13295e-19)
(0.619196 0.955232 2.22453e-20)
(0.561982 0.987689 5.60017e-20)
(0.481642 0.97009 -1.55437e-19)
(0.359685 0.823233 3.68795e-19)
(0.160687 0.419937 2.69654e-19)
(0.910695 0.823157 -6.50911e-20)
(0.878722 0.864939 -1.55209e-19)
(0.848641 0.907873 3.90972e-20)
(0.817758 0.954379 9.61199e-20)
(0.783933 1.00479 3.39126e-19)
(0.744304 1.05506 2.46506e-19)
(0.691497 1.08988 6.10158e-19)
(0.608799 1.06806 2.54075e-19)
(0.467308 0.902828 1.4925e-19)
(0.215395 0.457648 2.02307e-19)
(1.02094 0.876714 -1.01955e-19)
(0.995015 0.923307 5.42242e-19)
(0.972749 0.970806 3.62865e-19)
(0.949564 1.02169 -4.70426e-19)
(0.922694 1.07646 -2.38164e-19)
(0.889108 1.13091 6.43202e-19)
(0.839791 1.16817 -1.03337e-19)
(0.752585 1.14308 -4.34077e-19)
(0.587131 0.962558 1.38657e-20)
(0.274913 0.484176 2.44987e-19)
(1.13862 0.931377 2.72451e-19)
(1.11311 0.978311 5.65625e-20)
(1.09562 1.02608 -7.30603e-19)
(1.08042 1.0787 1.55206e-19)
(1.06291 1.13582 5.58096e-19)
(1.03803 1.19185 -3.12863e-19)
(0.993846 1.22814 -9.65348e-20)
(0.902138 1.19678 -1.79723e-19)
(0.710949 1.00126 1.80864e-20)
(0.335453 0.498443 -2.92106e-19)
(1.26502 0.951413 1.82595e-20)
(1.24992 1.00227 -5.31125e-19)
(1.23984 1.05113 -4.5041e-21)
(1.23033 1.10482 4.58406e-19)
(1.2187 1.1642 -4.76437e-19)
(1.19975 1.22262 9.35707e-19)
(1.15838 1.25906 6.30224e-19)
(1.05929 1.22295 -9.30574e-19)
(0.8384 1.01639 -7.11302e-20)
(0.395801 0.500041 -3.17432e-19)
(1.36629 0.963639 -3.1775e-19)
(1.36242 1.01506 -3.02928e-19)
(1.36911 1.06542 2.86657e-19)
(1.37399 1.1197 7.52955e-19)
(1.37356 1.17838 2.71855e-19)
(1.36288 1.235 -7.77307e-19)
(1.32459 1.26771 9.88844e-20)
(1.21674 1.22477 2.10396e-19)
(0.963803 1.00935 -2.80797e-19)
(0.453296 0.489795 -2.23666e-19)
(0.997518 0.0086433 5.54097e-22)
(1.0119 0.0359792 -1.60535e-20)
(1.01927 0.0460988 -1.14477e-20)
(1.03176 0.0670557 0)
(1.02773 0.0854544 1.26005e-20)
(1.02475 0.105429 1.87794e-20)
(1.00209 0.13091 2.43596e-20)
(0.960966 0.163228 5.83589e-20)
(0.883834 0.224428 -9.50514e-20)
(0.732471 0.291799 -1.08123e-19)
(0.999011 0.00652884 3.27291e-20)
(1.00934 0.0341792 -5.16032e-20)
(1.01826 0.0430217 2.07785e-22)
(1.02938 0.0665867 -1.45102e-20)
(1.02689 0.0855115 6.55692e-21)
(1.02503 0.110136 -9.92247e-21)
(1.00247 0.139936 -5.71998e-20)
(0.967147 0.181438 0)
(0.890632 0.260691 1.98737e-19)
(0.762091 0.362351 -2.66852e-19)
(0.99988 0.00460252 -2.33764e-20)
(1.00805 0.0328842 1.41556e-20)
(1.01734 0.0396405 3.00269e-20)
(1.02875 0.0667344 7.95069e-21)
(1.0263 0.0849993 -1.62823e-20)
(1.02798 0.115579 1.3529e-21)
(1.00378 0.148203 -4.19868e-20)
(0.97864 0.200189 -7.63882e-21)
(0.901082 0.295607 4.88732e-22)
(0.806898 0.430183 6.48381e-19)
(1.00025 0.00275769 -2.59192e-20)
(1.00775 0.0320153 1.95096e-21)
(1.01658 0.03595 2.47316e-20)
(1.02962 0.0674455 1.68236e-20)
(1.02621 0.0838596 -8.30288e-21)
(1.03325 0.121803 -1.22946e-20)
(1.00619 0.15534 6.26931e-20)
(0.995146 0.219893 -2.73887e-21)
(0.914788 0.328057 -2.27253e-19)
(0.866384 0.493703 7.37347e-20)
(1.00031 0.000885042 1.78117e-20)
(1.00811 0.0314481 -2.56095e-20)
(1.01618 0.031983 -2.00576e-20)
(1.03162 0.0685962 1.00537e-20)
(1.02702 0.0821214 0)
(1.04025 0.128705 0)
(1.01055 0.161248 5.48981e-20)
(1.01505 0.24037 1.53376e-21)
(0.93403 0.357886 -1.07403e-19)
(0.936606 0.551462 8.94517e-20)
(1.00029 -0.0010371 4.96684e-21)
(1.00877 0.0310545 2.02781e-20)
(1.01638 0.0277923 -5.57429e-20)
(1.03436 0.0700229 -1.98114e-20)
(1.02913 0.0798473 -4.21142e-22)
(1.04857 0.136175 5.48494e-20)
(1.01709 0.165711 8.61291e-20)
(1.03876 0.262081 1.53484e-22)
(0.955679 0.382862 1.75462e-19)
(1.0234 0.609089 -2.03307e-19)
(1.00037 -0.00301756 -1.89749e-20)
(1.00943 0.0306903 1.05008e-20)
(1.01743 0.0234322 -1.56657e-20)
(1.0375 0.0715192 -4.23967e-20)
(1.03303 0.0771712 1.40517e-21)
(1.0575 0.143904 -1.52966e-21)
(1.02725 0.168979 -3.70362e-21)
(1.06317 0.284231 -1.91837e-19)
(0.988038 0.40415 1.32518e-19)
(1.10572 0.651087 -4.93892e-19)
(1.00065 -0.00504792 -3.16117e-21)
(1.00991 0.0302117 -2.98438e-20)
(1.01945 0.0189502 3.18727e-20)
(1.04084 0.0728581 2.28219e-20)
(1.03897 0.0742547 7.56982e-22)
(1.06678 0.151467 -6.52753e-20)
(1.04093 0.171275 -4.97624e-20)
(1.09026 0.306817 3.47304e-19)
(1.02091 0.422401 1.18144e-20)
(1.21692 0.710254 7.82292e-19)
(1.00114 -0.0070949 1.25833e-20)
(1.01025 0.0294963 1.33704e-20)
(1.02235 0.0143743 3.80721e-20)
(1.0445 0.0738962 -2.51986e-20)
(1.0468 0.0711376 -6.68093e-20)
(1.07614 0.158985 8.14104e-22)
(1.05899 0.171174 -7.01758e-20)
(1.11719 0.327734 4.57974e-19)
(1.0742 0.42421 -7.6087e-21)
(1.28443 0.727984 -1.08271e-18)
(1.00179 -0.0091011 3.01151e-22)
(1.01065 0.0283901 2.05716e-20)
(1.02572 0.0102154 1.2506e-20)
(1.04906 0.0743673 -5.07409e-20)
(1.05517 0.069745 -6.64758e-20)
(1.08535 0.165698 -5.69052e-20)
(1.07744 0.178354 -1.30423e-19)
(1.13967 0.351514 -4.21725e-19)
(1.12819 0.453299 -2.30096e-19)
(1.41643 0.799599 -1.14813e-18)
(1.0029 -0.0124504 -9.28171e-22)
(1.01091 0.026902 -4.36727e-21)
(1.03045 0.00231466 -1.48732e-20)
(1.05671 0.0737334 2.76989e-20)
(1.06575 0.0609655 5.12403e-20)
(1.10424 0.170496 -3.70477e-20)
(1.0998 0.163545 1.32352e-19)
(1.18435 0.362736 -3.91025e-19)
(1.188 0.395165 -1.77624e-19)
(1.43033 0.789695 6.02554e-19)
(1.00505 -0.0173904 2.38107e-22)
(1.00934 0.0245584 7.05088e-21)
(1.03945 -0.0103692 -1.06003e-20)
(1.06429 0.069853 5.12848e-20)
(1.08372 0.0453648 8.86222e-20)
(1.12069 0.168612 1.11262e-19)
(1.14087 0.139428 3.07227e-20)
(1.21283 0.350383 1.94982e-19)
(1.28455 0.346575 3.08855e-19)
(1.45024 0.691157 2.13337e-20)
(1.00688 -0.0221318 -1.17183e-21)
(1.0065 0.0201788 -3.57725e-21)
(1.05451 -0.0231433 3.83287e-21)
(1.06841 0.0634139 3.93985e-21)
(1.10921 0.0302173 2.72591e-34)
(1.12863 0.160955 -6.26348e-21)
(1.19085 0.115194 -4.39761e-34)
(1.22962 0.327333 1.64267e-20)
(1.36139 0.293787 -5.03553e-20)
(1.48758 0.602353 -5.19589e-20)
(1.00527 -0.0267322 1.49464e-20)
(1.00749 0.0119617 -4.03667e-35)
(1.0718 -0.0346992 -4.38519e-21)
(1.07305 0.052745 -2.20443e-20)
(1.13449 0.0171034 -4.5012e-20)
(1.13823 0.148147 -3.7726e-20)
(1.23158 0.0918505 -5.85777e-34)
(1.25261 0.299683 -7.72134e-20)
(1.40358 0.242943 -1.40106e-19)
(1.52355 0.513622 8.79475e-20)
(0.997548 -0.0313949 0)
(1.01878 -0.00167819 -1.76371e-35)
(1.08566 -0.0442444 0)
(1.08582 0.0371058 0)
(1.153 0.00592295 0)
(1.16052 0.128265 0)
(1.25529 0.0710976 -4.34402e-34)
(1.28559 0.265021 0)
(1.42219 0.199889 -1.79787e-20)
(1.55249 0.422732 5.20086e-20)
(0.983811 -0.0373847 2.17316e-21)
(1.04229 -0.0180825 -1.02751e-21)
(1.09377 -0.0518003 -5.55265e-21)
(1.10975 0.0206553 0)
(1.16495 -0.00247606 0)
(1.19342 0.103719 5.77673e-21)
(1.26877 0.0545677 4.30513e-20)
(1.31833 0.224762 -1.19646e-20)
(1.43948 0.162957 -2.62916e-20)
(1.57377 0.336652 1.97343e-19)
(0.968019 -0.0493151 -8.23503e-20)
(1.07587 -0.0432799 2.99888e-21)
(1.09333 -0.0624836 -6.18552e-21)
(1.14058 -0.00334429 -1.41739e-20)
(1.162 -0.0136794 -2.81116e-20)
(1.21928 0.0739739 -1.32148e-20)
(1.26237 0.0405966 -3.69118e-20)
(1.33598 0.17942 -3.08506e-20)
(1.44605 0.128943 -5.28829e-20)
(1.58779 0.256846 6.7198e-20)
(0.956776 -0.0550027 -5.10161e-21)
(1.10467 -0.0564581 -1.72979e-20)
(1.06884 -0.0606988 -6.75969e-21)
(1.14362 -0.0172614 -4.73006e-21)
(1.10124 -0.0157303 -4.63975e-35)
(1.19559 0.047505 6.24664e-21)
(1.18279 0.0307406 -8.00804e-34)
(1.30766 0.13103 -1.14558e-20)
(1.39002 0.0946116 1.63584e-20)
(1.57512 0.179651 2.36893e-20)
(0.952323 -0.0950656 1.97819e-19)
(1.05892 -0.0888798 -4.68087e-21)
(0.950168 -0.0739082 -7.19722e-21)
(0.991395 -0.0348485 1.21958e-20)
(0.882752 -0.0162805 1.5888e-20)
(0.99847 0.0234167 1.56999e-20)
(0.935634 0.0229808 1.57443e-20)
(1.127 0.077571 -7.50191e-21)
(1.17434 0.0586547 -1.7104e-20)
(1.42033 0.101798 1.28364e-19)
(0.824623 -0.0469411 7.83186e-21)
(0.725474 -0.0334829 -9.17962e-35)
(0.529183 -0.0183442 -8.28285e-21)
(0.473923 -0.00361526 0)
(0.394617 4.48693e-06 0)
(0.463682 0.00836311 6.23215e-21)
(0.441024 0.0050659 -4.40206e-36)
(0.583445 0.0168594 -1.09899e-20)
(0.637103 0.00946079 -2.39789e-20)
(0.819467 0.018029 5.12489e-20)
(1.63031 0.825125 -1.80724e-19)
(1.72949 0.808306 -2.69078e-19)
(1.84238 0.778453 0)
(1.9486 0.737684 1.4409e-19)
(2.04563 0.683884 6.13514e-19)
(2.13397 0.623103 -1.1078e-19)
(2.2115 0.554167 1.56575e-18)
(2.28433 0.483306 -7.56056e-20)
(2.34261 0.408873 -3.41098e-19)
(2.39913 0.339196 2.94814e-19)
(1.65602 0.678906 9.0544e-20)
(1.72959 0.66468 1.07075e-19)
(1.82329 0.636468 -1.23016e-20)
(1.9069 0.599392 2.01387e-19)
(1.99578 0.551667 -1.65436e-19)
(2.06433 0.502942 -3.85834e-19)
(2.14086 0.44665 -1.12288e-19)
(2.19534 0.395506 5.25896e-19)