/*--------------------------------*- C++ -*----------------------------------*\
  =========                 |
  \\      /  F ield         | OpenFOAM: The Open Source CFD Toolbox
   \\    /   O peration     | Website:  https://openfoam.org
    \\  /    A nd           | Version:  13
     \\/     M anipulation  |
\*---------------------------------------------------------------------------*/
FoamFile
{
    format      ascii;
    class       volVectorField;
    location    "0.16";
    object      U;
}
// * * * * * * * * * * * * * * * * * * * * * * * * * * * * * * * * * * * * * //

dimensions      [0 1 -1 0 0 0 0];

internalField   nonuniform List<vector> 
440
(
(0.973698 -0.681108 -8.77023e-19)
(1.39979 -1.06681 9.92648e-19)
(1.47612 -0.962013 9.14656e-19)
(1.45848 -0.863946 -1.2894e-18)
(1.40049 -0.764435 4.97478e-20)
(1.21858 -0.597313 -1.34393e-19)
(1.71948 -0.967214 -1.54131e-18)
(1.76648 -0.841094 -7.59196e-19)
(1.7132 -0.756097 2.15726e-19)
(1.64626 -0.682216 1.07201e-19)
(1.43833 -0.450457 -2.24404e-19)
(2.0014 -0.77851 5.34503e-18)
(2.01111 -0.64205 -2.35081e-18)
(1.93186 -0.58892 -5.09406e-18)
(1.85058 -0.526546 1.53721e-18)
(1.61093 -0.250915 -8.93463e-19)
(2.21328 -0.515314 -2.73312e-18)
(2.18294 -0.383096 4.27812e-18)
(2.08875 -0.371822 3.6905e-18)
(1.99794 -0.328154 -9.33295e-19)
(1.71741 -0.012829 -1.82346e-18)
(2.32848 -0.201307 -1.96333e-18)
(2.26677 -0.090167 3.13484e-18)
(2.16658 -0.125917 2.98609e-18)
(2.07143 -0.0986405 8.25109e-19)
(0.0474482 -0.190231 1.24346e-20)
(0.195266 -0.280884 -2.68126e-19)
(0.31537 -0.276299 2.1464e-19)
(0.421367 -0.254271 -1.81339e-20)
(0.509842 -0.237839 -4.85568e-20)
(0.136475 -0.377135 2.45737e-19)
(0.308587 -0.559852 5.44095e-19)
(0.426929 -0.541671 7.37575e-20)
(0.522492 -0.48892 4.37088e-20)
(0.602359 -0.452498 -5.4591e-20)
(0.287709 -0.533287 -6.33276e-19)
(0.504104 -0.798073 -1.13697e-18)
(0.620478 -0.762849 -2.25873e-19)
(0.697455 -0.684443 5.94345e-19)
(0.76132 -0.630702 -1.02547e-20)
(0.489028 -0.643784 -5.48877e-19)
(0.76603 -0.972954 6.57672e-19)
(0.877109 -0.916078 -5.19354e-19)
(0.928216 -0.820153 -7.65921e-19)
(0.968057 -0.751485 8.38335e-20)
(0.724216 -0.695848 -1.9576e-19)
(1.07354 -1.06663 -3.38282e-19)
(1.17236 -0.985336 -5.47365e-19)
(1.1916 -0.882984 5.22338e-19)
(1.19673 -0.79855 1.06047e-18)
(0.720285 -0.145241 -1.00851e-19)
(0.901652 -0.0849956 -5.57156e-21)
(0.960171 -0.0487445 -4.72924e-21)
(0.98356 -0.0258825 2.09559e-21)
(0.993172 -0.00818805 -1.78088e-21)
(0.763406 -0.229748 1.19739e-19)
(0.917201 -0.117796 5.94337e-21)
(0.969664 -0.0603444 -9.80967e-21)
(0.989545 -0.0299983 -1.21279e-20)
(0.997325 -0.00921998 3.55368e-21)
(0.837655 -0.308174 1.83985e-19)
(0.940058 -0.147335 1.59692e-20)
(0.981903 -0.0710452 7.06029e-21)
(0.996584 -0.0337454 -6.13272e-21)
(1.00192 -0.0101308 -3.11983e-21)
(0.935072 -0.373713 -2.61421e-19)
(0.969816 -0.172443 -8.40703e-21)
(0.99624 -0.0802029 -6.69385e-21)
(1.00448 -0.0369015 4.83789e-21)
(1.00683 -0.0108795 -3.11734e-21)
(1.03887 -0.428539 -3.75861e-20)
(0.997033 -0.200246 -8.67395e-20)
(1.00933 -0.0897161 0)
(1.01233 -0.0396459 -3.94978e-22)
(1.01188 -0.0114227 8.78968e-22)
(1.25578 -0.406888 1.1027e-20)
(1.08 -0.195015 3.26773e-20)
(1.04147 -0.0888704 1.22117e-21)
(1.02616 -0.0392696 -5.0994e-21)
(1.0189 -0.011214 -3.19228e-21)
(1.31277 -0.295237 3.7983e-20)
(1.12051 -0.151418 -6.41905e-20)
(1.06491 -0.0737171 5.63425e-22)
(1.03897 -0.0336276 -6.43456e-21)
(1.02625 -0.00966319 0)
(1.35613 -0.205903 2.52153e-21)
(1.15563 -0.110172 4.16935e-21)
(1.08407 -0.0553929 -1.55799e-20)
(1.04947 -0.0257057 3.25932e-21)
(1.03229 -0.00741235 -8.37754e-22)
(1.37473 -0.120753 -4.08629e-20)
(1.17648 -0.0682955 1.92095e-20)
(1.09621 -0.0354122 1.28151e-23)
(1.05629 -0.0167046 4.17517e-35)
(1.03617 -0.00484223 -6.28161e-21)
(1.33062 -0.0252082 9.12264e-21)
(1.14596 -0.0152063 -1.54101e-21)
(1.06549 -0.00818786 9.37581e-22)
(1.02447 -0.00391056 -7.00755e-23)
(1.00355 -0.00112937 -6.69706e-23)
(1.92103 -0.0830836 -1.02269e-18)
(1.87118 -0.248936 -1.12336e-18)
(1.76237 -0.400793 1.04022e-18)
(1.63331 -0.503903 -1.4897e-19)
(1.42288 -0.652946 -4.41358e-20)
(1.80668 -0.044522 2.37194e-20)
(1.77748 -0.137808 -2.7239e-20)
(1.71024 -0.229732 -5.16579e-20)
(1.63899 -0.285664 -1.02952e-19)
(1.51144 -0.40073 3.82899e-21)
(1.72437 -0.0270342 4.81672e-20)
(1.70305 -0.0857497 7.82626e-20)
(1.65553 -0.14463 -1.07927e-19)
(1.59816 -0.181189 2.60722e-20)
(1.52104 -0.254324 4.7755e-20)
(1.6771 -0.0150349 8.13861e-20)
(1.65984 -0.0446616 7.60474e-20)
(1.62361 -0.0753611 -8.71001e-21)
(1.57366 -0.0952607 1.17944e-20)
(1.52004 -0.134642 2.50077e-21)
(1.55747 -0.00346098 1.25463e-19)
(1.54409 -0.00759907 -7.48774e-21)
(1.52085 -0.0125152 1.0903e-20)
(1.48315 -0.0155401 -7.3803e-21)
(1.45324 -0.0259025 1.34245e-20)
(1.3941 0.713167 8.98603e-19)
(1.40707 0.809498 -2.26868e-19)
(1.42552 0.93244 -9.83019e-19)
(1.45256 1.02152 6.85247e-19)
(1.042 0.957396 -1.89784e-19)
(1.6388 0.636216 -4.88285e-19)
(1.67525 0.725715 -2.49015e-18)
(1.71538 0.844198 -9.21049e-19)
(1.76963 0.901468 -4.14355e-19)
(1.30072 0.880736 -8.83661e-19)
(1.83938 0.512187 7.13696e-19)
(1.89977 0.586406 1.76907e-19)
(1.96605 0.694633 -1.92375e-18)
(2.03949 0.702326 -8.69682e-19)
(1.52485 0.728835 7.35269e-19)
(1.98492 0.335442 2.19479e-18)
(2.06297 0.381121 1.858e-18)
(2.15656 0.48006 -1.94311e-18)
(2.23111 0.431253 -2.54063e-18)
(1.68009 0.506835 -6.5147e-19)
(2.06415 0.133253 1.03938e-18)
(2.15566 0.12915 -9.51497e-19)
(2.26064 0.208408 7.04917e-19)
(2.33114 0.128084 9.45199e-19)
(1.74431 0.245854 -1.68061e-18)
(0.544179 0.236145 -6.73163e-19)
(0.476905 0.254038 -7.0805e-19)
(0.371384 0.277033 1.27945e-19)
(0.247194 0.301689 -8.13387e-20)
(0.0673204 0.25855 3.79284e-20)
(0.625299 0.439881 5.32562e-20)
(0.565181 0.481759 -3.42532e-19)
(0.472465 0.535565 1.46746e-19)
(0.361575 0.593397 -6.51263e-20)
(0.158839 0.517823 9.66175e-20)
(0.763204 0.609211 3.08499e-19)
(0.716122 0.671358 2.72826e-19)
(0.645481 0.749843 -9.88941e-20)
(0.560442 0.832525 -1.76808e-19)
(0.319528 0.734807 1.44554e-19)
(0.946784 0.725907 1.35296e-19)
(0.918643 0.804394 -2.17072e-19)
(0.876925 0.900143 -1.03821e-18)
(0.827203 0.995547 5.65854e-19)
(0.535481 0.889544 -1.94544e-19)
(1.12079 0.780538 -1.44492e-19)
(1.12767 0.870944 -2.09839e-19)
(1.12891 0.974249 -1.85819e-19)
(1.12545 1.06506 -3.19114e-19)
(0.780306 0.964566 -6.48821e-21)
(0.620978 0.0252054 -8.94469e-20)
(1.22051 0.0387616 -2.91468e-20)
(0.902677 0.0579293 -2.34851e-20)
(0.91198 0.0865572 -2.94435e-19)
(0.74351 0.144458 2.01883e-19)
(0.620243 0.0230377 1.13807e-19)
(1.22259 0.0432817 1.98297e-19)
(0.909263 0.0707149 1.08492e-19)
(0.924531 0.118225 5.77918e-20)
(0.800736 0.22091 -2.20147e-20)
(0.61855 0.0213468 1.03885e-19)
(1.22412 0.0469025 -8.79386e-21)
(0.917303 0.0822466 7.44884e-20)
(0.944038 0.147546 1.7254e-19)
(0.896063 0.293933 -3.88997e-19)
(0.615746 0.0210466 -2.07177e-20)
(1.22496 0.0493228 -2.64323e-19)
(0.926903 0.0913819 -1.95262e-20)
(0.973616 0.171048 -4.46945e-19)
(1.01785 0.349607 1.12773e-19)
(0.611603 0.0234739 -5.59458e-20)
(1.22538 0.0508349 5.47598e-20)
(0.936003 0.0983783 -2.00201e-21)
(1.00149 0.19775 4.51283e-19)
(1.11967 0.428267 -4.47954e-19)
(0.614419 0.0242022 3.21402e-20)
(1.23729 0.0482532 1.14408e-19)
(0.958716 0.0957956 -9.86833e-20)
(1.07263 0.189046 7.44849e-19)
(1.26238 0.40579 -3.8601e-19)
(0.61583 0.0194711 -1.93462e-20)
(1.24855 0.0410792 -8.21526e-20)
(0.982037 0.0813815 -1.27355e-20)
(1.11715 0.152448 -1.93782e-19)
(1.32424 0.308813 6.09806e-20)
(0.616938 0.013076 -1.4567e-20)
(1.25801 0.0306668 8.72465e-36)
(1.00038 0.0613075 -8.72504e-20)
(1.14981 0.110576 6.00985e-20)
(1.35999 0.211576 1.35704e-19)
(0.617786 0.00364533 3.68471e-20)
(1.26474 0.0190429 -1.5452e-20)
(1.0124 0.0389741 -3.4585e-20)
(1.17023 0.0684203 4.35883e-20)
(1.37469 0.12523 -2.17515e-19)
(0.604713 -0.00323076 -8.56011e-20)
(1.22999 0.00233054 -3.09194e-21)
(0.983282 0.009763 -2.29318e-20)
(1.14211 0.0155417 -8.61857e-21)
(1.3336 0.0281393 -5.0878e-20)
(1.46251 0.534684 3.34775e-19)
(1.60375 0.501378 7.28222e-19)
(1.7495 0.399785 -9.92815e-19)
(1.85601 0.25603 5.4302e-20)
(1.9158 0.0891886 3.81253e-19)
(1.4981 0.344639 6.38924e-20)
(1.59001 0.30999 8.44264e-19)
(1.69076 0.234854 9.21469e-20)
(1.76342 0.145589 -7.8881e-19)
(1.80281 0.0513172 -2.3894e-19)
(1.50956 0.210228 -1.8875e-19)
(1.56887 0.190131 -1.26708e-19)
(1.6367 0.146784 1.18279e-19)
(1.69093 0.0926562 -2.50788e-19)
(1.72094 0.0340901 2.08628e-19)
(1.50737 0.113612 2.53365e-19)
(1.55245 0.0998478 -6.72946e-21)
(1.60389 0.0755211 1.87454e-19)
(1.64787 0.0464118 1.69143e-19)
(1.67315 0.0157692 -1.48023e-19)
(1.45544 0.0210859 -2.96486e-20)
(1.48447 0.0157682 1.79007e-19)
(1.51707 0.0104081 9.36626e-20)
(1.54416 0.00537291 -1.88043e-19)
(1.55761 0.000820386 1.30792e-22)
(2.13411 -0.0388535 8.17109e-20)
(2.87365 0.213509 -1.1975e-18)
(2.82969 0.0599732 2.25419e-18)
(2.74174 0.0917309 1.10709e-18)
(2.64874 0.0531821 -5.71038e-19)
(1.91274 0.226461 8.95456e-19)
(2.68222 0.532757 -2.13724e-18)
(2.6893 0.33745 -1.37018e-18)
(2.60853 0.274652 1.64391e-18)
(2.54272 0.187161 -8.31377e-19)
(1.57585 0.428774 1.65464e-19)
(2.30008 0.787595 3.10831e-18)
(2.36343 0.591335 3.15972e-19)
(2.30039 0.467425 1.97009e-18)
(2.22823 0.343682 1.24365e-18)
(1.21571 0.551717 1.50386e-18)
(1.8339 0.938962 1.32923e-18)
(1.9347 0.771462 -2.64037e-18)
(1.90384 0.621828 1.73158e-19)
(1.82768 0.496472 6.24618e-19)
(0.891798 0.599126 1.02614e-18)
(1.38149 0.978796 -1.45245e-18)
(1.49947 0.852221 -4.13332e-19)
(1.51003 0.713474 7.40998e-19)
(1.44473 0.564586 1.34279e-19)
(0.616632 0.580026 -9.01102e-20)
(0.988517 0.917061 9.56905e-19)
(1.11211 0.828659 8.8873e-19)
(1.15135 0.706561 -6.48104e-19)
(1.16703 0.598729 7.92736e-20)
(0.387712 0.502288 -3.78317e-19)
(0.665942 0.77373 -6.01008e-19)
(0.788507 0.716293 -1.03095e-19)
(0.854059 0.615691 -2.67575e-19)
(0.906582 0.542934 -1.18943e-19)
(0.207886 0.373673 -2.58753e-19)
(0.418424 0.563937 8.81583e-19)
(0.539039 0.528463 -5.82821e-19)
(0.625785 0.454648 -5.10169e-19)
(0.699687 0.405932 1.93957e-19)
(0.0850772 0.204788 -8.67723e-20)
(0.251523 0.304143 -2.40304e-19)
(0.371879 0.283889 2.05621e-19)
(0.473069 0.240403 3.35155e-19)
(0.558912 0.213404 1.7647e-20)
(0.0295368 0.010447 2.91226e-20)
(0.175225 0.0149718 -6.21429e-20)
(0.296142 0.00727177 1.20962e-20)
(0.40389 -0.0035758 -1.32232e-20)
(0.494285 -0.00869295 -3.20511e-20)
(0.97551 0.216229 1.4462e-19)
(0.924201 0.0568467 2.1786e-19)
(0.952112 0.00335431 -1.42284e-21)
(0.969773 -0.00566689 3.44074e-21)
(0.980715 -0.00266896 7.97633e-22)
(0.87496 0.162172 9.71915e-20)
(0.910247 0.030884 -1.5121e-19)
(0.951244 -0.0064617 -9.6298e-21)
(0.971106 -0.00938592 1.92561e-21)
(0.982143 -0.00372393 -2.64856e-21)
(0.789789 0.10137 1.98377e-19)
(0.896572 0.00959125 -9.14447e-20)
(0.949757 -0.0147154 -6.49251e-21)
(0.972599 -0.0130994 5.6857e-21)
(0.984027 -0.00481242 3.54569e-21)
(0.73308 0.0242664 -1.03108e-19)
(0.890936 -0.0187178 1.05283e-19)
(0.950373 -0.0253 1.75933e-21)
(0.975095 -0.0172606 -1.09223e-21)
(0.986488 -0.00594535 1.1862e-21)
(0.709922 -0.0591878 -2.52365e-21)
(0.892901 -0.0510544 -1.34483e-20)
(0.953739 -0.0368416 -1.66727e-21)
(0.978733 -0.0215766 4.95229e-21)
(0.989542 -0.00708206 3.12401e-21)
(1.11374 0.0275309 -1.85727e-19)
(0.940906 0.00946298 0)
(0.923797 0.00118196 -1.39727e-21)
(0.926353 -0.000588108 2.01889e-21)
(0.933168 -0.000334881 -3.34371e-21)
(1.17013 0.178092 0)
(0.979739 0.0510495 0)
(0.964612 0.00619324 2.97712e-20)
(0.97076 -0.00284654 5.40011e-21)
(0.97927 -0.00161174 5.16405e-22)
(1.22502 7.8587e-05 -8.19248e-20)
(1.3715 -0.0254147 -2.6282e-19)
(1.50227 -0.0184763 2.08885e-19)
(1.51962 -0.00696971 6.52121e-19)
(1.41053 0.0483378 1.55204e-19)
(2.30232 0.0335071 7.24133e-20)
(2.3585 0.0696955 -1.01992e-19)
(2.16947 0.162179 2.24502e-19)
(1.86401 0.255947 2.92012e-20)
(1.4717 0.394427 -2.26437e-19)
(1.06223 -0.586525 8.42757e-20)
(1.06889 -0.684812 -2.35943e-19)
(1.06574 -0.79828 -2.56109e-19)
(1.04709 -0.913067 2.04845e-19)
(0.718236 -0.860435 1.59068e-19)
(0.888078 -0.512621 2.60146e-20)
(0.855537 -0.59177 -7.89222e-20)
(0.803566 -0.689009 -1.67868e-19)
(0.736115 -0.793371 1.52289e-19)
(0.462016 -0.731166 -2.67106e-21)
(0.710046 -0.377604 -4.01623e-20)
(0.658432 -0.434876 -6.09258e-20)
(0.578237 -0.508205 4.96327e-21)
(0.4795 -0.588417 -5.9256e-20)
(0.254757 -0.534459 -1.56775e-19)
(0.588352 -0.19353 -3.41737e-19)
(0.525324 -0.227176 -3.24355e-19)
(0.426108 -0.271307 3.0656e-19)
(0.307646 -0.319628 1.68655e-19)
(0.116212 -0.290262 1.65831e-20)
(0.530848 0.0180136 -1.14725e-19)
(0.462571 0.0101327 -1.57131e-19)
(0.354788 -0.000731044 -2.12134e-20)
(0.228434 -0.0127457 1.07053e-19)
(0.0526856 -0.0182906 2.48045e-20)
(2.54667 -0.0300658 1.18814e-18)
(2.66956 -0.0705658 5.46307e-19)
(2.76176 -0.188933 -1.09975e-18)
(2.83171 -0.110891 -3.49723e-18)
(2.17355 -0.333157 1.90046e-19)
(2.34849 -0.115453 2.03555e-18)
(2.43943 -0.240276 2.5569e-18)
(2.52196 -0.392218 2.07548e-19)
(2.60769 -0.413079 3.47366e-19)
(2.01608 -0.616204 -2.6667e-19)
(2.05657 -0.281268 -5.04492e-18)
(2.12236 -0.416875 5.37897e-19)
(2.1831 -0.581274 1.52076e-18)
(2.26102 -0.67241 -8.07165e-19)
(1.72029 -0.809624 1.43258e-18)
(1.73321 -0.421849 1.34964e-18)
(1.77028 -0.550302 -3.27197e-18)
(1.80517 -0.711283 -3.65061e-18)
(1.8513 -0.840079 1.40199e-18)
(1.37299 -0.907149 8.63784e-19)
(1.40818 -0.511289 3.99565e-19)
(1.4098 -0.626029 3.12621e-19)
(1.42058 -0.775004 -5.46476e-19)
(1.43258 -0.913908 -7.45817e-19)
(1.02619 -0.915888 -8.55969e-21)
(0.609654 0.0217032 -1.80598e-20)
(1.1997 0.0129381 7.17545e-21)
(0.888701 -0.000335003 -1.62801e-19)
(0.927486 -0.051133 -1.70117e-19)
(1.06485 -0.207705 -3.26903e-20)
(0.614177 0.0270255 -5.73403e-21)
(1.20544 0.0177482 -3.80621e-20)
(0.891156 0.00885677 -2.73555e-19)
(0.913309 -0.0278708 2.02411e-19)
(0.960886 -0.128156 4.7496e-20)
(0.617473 0.0287072 -4.95947e-21)
(1.21039 0.0227907 -4.4685e-21)
(0.892336 0.0191061 -2.95811e-20)
(0.901896 -0.00685433 1.34745e-19)
(0.847889 -0.0770489 -2.37895e-19)
(0.619619 0.0285584 1.05033e-19)
(1.21445 0.0282022 9.83299e-21)
(0.894518 0.0314668 7.79417e-20)
(0.899674 0.022154 -1.92195e-20)
(0.767088 -0.00702849 4.61828e-21)
(0.620769 0.0271443 9.46732e-21)
(1.21781 0.0336295 -4.17598e-20)
(0.897792 0.0446439 5.47351e-20)
(0.903831 0.0536097 5.1472e-20)
(0.731495 0.0672465 -5.5983e-20)
(0.593368 0.00891508 0)
(1.15345 0.00424971 1.64793e-21)
(0.855695 -0.00160826 -4.40041e-20)
(0.949163 -0.0093463 3.5488e-20)
(1.17259 -0.044026 -1.66699e-19)
(0.612103 0.017751 -4.34252e-21)
(1.20286 0.00885697 2.79185e-20)
(0.894483 -0.00328811 1.04001e-19)
(0.979035 -0.0447052 -1.90094e-19)
(1.19834 -0.181014 -1.95775e-19)
(1.50153 -0.0606637 -5.09619e-20)
(1.62856 -0.022111 7.61953e-19)
(1.76694 0.0324684 4.74929e-19)
(1.68266 0.0699935 -5.55396e-20)
(1.34726 0.0550979 0)
(1.49485 -0.340305 7.14188e-19)
(1.69353 -0.288537 2.31203e-18)
(1.96618 -0.162687 -2.50987e-18)
(2.18553 -0.015314 -8.66843e-19)
(2.23491 0.0476443 5.58387e-19)
)
;

boundaryField
{
    left
    {
        type            fixedValue;
        value           uniform (1 0 0);
    }
    right
    {
        type            zeroGradient;
    }
    down
    {
        type            noSlip;
    }
    up
    {
        type            noSlip;
    }
    cylinder
    {
        type            noSlip;
    }
    defaultFaces
    {
        type            empty;
    }
}


// ************************************************************************* //
