# Selection   : all
# Cells       : 440
# Volume      : 7.374263e+01
# Time        	maxMag(U)
8.915         	2.772106e+00
8.96          	2.770465e+00
9.01          	2.768249e+00
