/*--------------------------------*- C++ -*----------------------------------*\
  =========                 |
  \\      /  F ield         | OpenFOAM: The Open Source CFD Toolbox
   \\    /   O peration     | Website:  https://openfoam.org
    \\  /    A nd           | Version:  13
     \\/     M anipulation  |
\*---------------------------------------------------------------------------*/
FoamFile
{
    format      ascii;
    class       volScalarField;
    location    "0.5";
    object      p;
}
// * * * * * * * * * * * * * * * * * * * * * * * * * * * * * * * * * * * * * //

dimensions      [0 2 -2 0 0 0 0];

internalField   nonuniform List<scalar> 
440
(
7.84266
10.5991
12.962
13.1449
10.1709
20.7358
24.1192
27.1147
27.8157
25.9287
41.2736
44.3049
47.008
47.8008
46.6403
67.407
69.5048
71.4183
72.0749
71.3876
96.6838
97.5008
98.2978
98.6979
98.6643
-0.42145
-0.520713
-0.0490708
0.510225
0.851279
-1.67574
-2.33742
-2.0726
-1.37468
-0.73683
-2.02963
-2.90853
-2.82518
-2.06597
-0.94658
-0.6795
-0.810918
-0.402535
0.56515
2.43215
3.09372
4.4055
5.83598
7.26952
9.52129
2.10892
2.29242
1.37588
0.70737
0.239306
1.07388
2.09424
1.25363
0.649532
0.225779
-0.079121
1.67724
1.11607
0.601361
0.215526
-0.383324
1.07443
0.904095
0.55797
0.20986
1.52947
0.490223
0.616739
0.509522
0.207657
4.4035
0.264132
0.342057
0.459102
0.196408
6.74112
0.719027
0.43551
0.456345
0.137497
10.0033
2.46143
1.0888
0.577849
0.0983398
13.8947
4.77158
2.14736
0.842849
0.0965854
16.6316
7.13688
3.47091
1.30826
0.183044
100.708
75.8598
53.3444
33.1701
12.3679
102.404
78.9619
57.5567
39.0766
23.5029
104.305
82.7219
62.4945
45.2537
32.9069
105.188
85.0415
66.5237
51.205
40.679
105.107
84.764
66.3495
51.2725
40.9186
219.89
216.412
216.121
218.238
220.971
202.709
200.244
200.504
203.245
206.537
180.561
178.789
179.153
181.575
184.454
154.762
153.419
153.625
155.218
157.115
126.881
126.168
126.107
126.567
127.16
235.577
236.005
236.642
237.065
236.808
236.166
236.801
237.356
237.333
236.379
234.973
235.949
236.366
236.094
235.106
230.088
231.69
232.257
232.395
232.304
221.597
223.463
224.478
225.689
227.044
235.77
234.732
234.911
234.11
234.268
235.741
234.717
234.858
234.072
234.808
235.731
234.679
234.802
234.195
235.341
235.732
234.62
234.802
234.454
234.933
235.736
234.54
234.875
234.655
232.24
235.744
234.406
234.929
234.434
228.74
235.923
234.269
234.817
233.952
226.376
236.813
234.035
234.179
232.261
223.354
240.843
234.02
232.994
229.79
219.674
249.811
234.743
231.778
227.242
216.92
217.779
196.253
175.046
151.753
126.467
207.387
191.391
172.345
150.442
126.672
198.899
186.218
168.635
148.108
126.354
191.761
180.802
165.118
146.281
125.94
191.543
180.783
165.373
146.681
126.17
96.4125
95.5357
95.088
94.3211
94.1645
57.3338
55.3869
53.6815
51.7598
50.994
29.5055
27.1622
24.3996
22.1007
20.7763
15.0548
12.6383
10.173
8.15285
7.18245
9.226
7.33843
5.95153
4.97599
4.38893
5.99706
4.89486
4.31456
4.22539
4.31357
4.09151
3.63118
3.55782
3.71262
3.86595
2.78877
2.7727
3.00438
3.30664
3.46472
1.68911
1.99239
2.44176
2.79172
2.93641
0.643059
1.04004
1.61125
2.01185
2.18538
3.63545
3.20384
2.0925
0.99344
0.293044
3.68909
3.03347
2.00047
0.938376
0.281441
3.4924
2.77425
1.87212
0.886293
0.271011
3.17449
2.53359
1.71112
0.831883
0.261114
2.75747
2.3864
1.53229
0.772475
0.252871
4.50335
3.18874
2.00533
1.03055
0.321893
3.76642
3.28171
2.09515
1.02739
0.305766
94.9201
54.164
27.5285
14.506
9.48643
93.6989
51.1547
23.0055
9.49098
5.28107
232.148
232.229
232.179
231.665
230.588
232.737
232.911
233.141
233.18
232.806
233.299
233.471
233.857
234.254
234.425
233.892
234.043
234.445
235.045
235.462
234.628
234.863
235.365
235.975
236.231
141.993
141.802
140.973
140.463
139.552
185.225
184.416
182.437
180.671
178.693
215.522
214.152
211.802
208.988
206.614
229.156
228.149
226.099
223.601
221.156
232.003
231.389
230.418
229.036
227.137
238.828
234.457
234.565
233.513
232.904
237.13
234.497
234.654
233.683
232.924
236.372
234.584
234.757
233.906
233.252
236.01
234.665
234.859
234.101
233.624
235.841
234.717
234.918
234.17
233.932
252.265
235.794
234.922
233.448
231.989
243.172
234.703
234.502
233.391
232.706
226.943
221.868
208.762
182.048
141.243
231.139
226.897
213.316
185.071
142.466
)
;

boundaryField
{
    left
    {
        type            zeroGradient;
    }
    right
    {
        type            fixedValue;
        value           uniform 0;
    }
    down
    {
        type            zeroGradient;
    }
    up
    {
        type            zeroGradient;
    }
    cylinder
    {
        type            zeroGradient;
    }
    defaultFaces
    {
        type            empty;
    }
}


// ************************************************************************* //
