/*--------------------------------*- C++ -*----------------------------------*\
  =========                 |
  \\      /  F ield         | OpenFOAM: The Open Source CFD Toolbox
   \\    /   O peration     | Website:  https://openfoam.org
    \\  /    A nd           | Version:  13
     \\/     M anipulation  |
\*---------------------------------------------------------------------------*/
FoamFile
{
    format      ascii;
    class       surfaceScalarField;
    location    "0.5";
    object      phi;
}
// * * * * * * * * * * * * * * * * * * * * * * * * * * * * * * * * * * * * * //

dimensions      [0 3 -1 0 0 0 0];

internalField   nonuniform List<scalar> 
823
(
0.0113774
-0.0505552
0.0391778
0.0387582
-0.133437
0.106056
0.0788328
-0.205878
0.165803
0.130175
-0.268867
0.217525
-0.323253
0.259403
0.194025
0.0107028
-0.0612579
0.0361427
-0.158877
0.0726482
-0.242383
0.117974
-0.314193
-0.375598
0.17032
0.00837698
-0.0696349
0.0282852
-0.178785
0.0567263
-0.270824
0.0918124
-0.34928
-0.416051
0.132265
0.00529934
-0.0749342
0.0179959
-0.191481
0.0362305
-0.289059
0.0588856
-0.371935
-0.442416
0.0852513
0.00196203
-0.0768963
0.00663022
-0.19615
0.0132901
-0.295719
0.0215226
-0.380167
0.0310633
-0.451957
0.00668199
-0.0107269
0.00404485
0.0222395
-0.0308575
0.0153
0.0454553
-0.0484278
0.0252119
0.0746103
-0.0638543
0.0346993
-0.0769331
0.108268
0.0432757
0.0057697
-0.0164966
0.0215197
-0.0466076
0.0467588
-0.0736669
0.0798281
-0.0969236
-0.116029
0.118924
0.00639842
-0.0228951
0.0236736
-0.0638827
0.0512689
-0.101262
0.0879694
-0.133624
-0.160081
0.132022
0.00753725
-0.0304323
0.0270924
-0.0834378
0.0573301
-0.1315
0.0970489
-0.173343
-0.207878
0.144846
0.00874545
0.0313635
0.0656665
0.109849
0.161374
0.322444
-0.956155
0.741979
0.47348
-0.819566
0.66853
0.569791
-0.3503
0.253989
0.608701
-0.0736384
0.034729
-0.0040135
-0.00107728
0.330703
-1.16793
0.470987
-0.95985
0.571292
-0.450605
0.618532
-0.120879
-0.0150689
0.336987
-1.3729
0.461993
-1.08486
0.560128
-0.54874
0.612395
-0.173145
-0.0324997
0.337756
-1.56581
0.449484
-1.19658
0.539839
-0.639096
0.600344
-0.23365
-0.0606674
0.32787
-1.73231
0.429146
-1.29786
0.509549
-0.719498
0.577526
-0.301627
-0.0973053
1.1976
-1.58965
-1.34025
1.00804
-1.1083
0.898051
-0.609508
0.857916
-0.261493
-0.0786452
1.33021
-1.13272
-1.78714
0.983146
-0.761242
0.778584
-0.404946
0.697893
-0.180802
-0.0562841
1.1897
-0.60755
-1.71487
0.816628
-0.388171
0.612922
-0.20124
0.525798
-0.0936781
-0.0306167
0.822451
-0.185267
-1.24473
0.545355
-0.111075
0.39728
-0.0531659
0.329508
-0.0259058
-0.00926459
0.306735
-0.492001
0.19566
0.142494
0.116588
1.5626
0.0462518
-1.57779
1.52169
0.126163
1.46265
0.191299
1.39631
0.236661
0.250082
1.67588
0.0356527
-1.66528
1.69934
0.102697
1.73084
0.159802
1.76532
0.202184
0.22826
1.38797
0.0184777
-1.3708
1.43706
0.0536064
1.51389
0.0829752
1.61018
0.105892
0.123575
0.9777
0.00531455
-0.964537
1.01588
0.0154225
1.07582
0.0230434
1.15388
0.0278265
0.0327221
0.392987
-0.387672
0.408409
0.431453
0.459279
0.12878
0.327615
-0.264648
-0.191748
0.0781608
0.27321
-0.222591
0.0385242
0.209794
-0.170157
0.0113397
0.136446
-0.109262
0.0519554
-0.0406158
0.115952
0.378902
-0.167239
0.0714954
0.317667
0.0356163
0.245673
0.0105601
0.161503
0.0625155
0.0888502
0.418274
-0.128222
0.0548101
0.351707
0.0272868
0.273196
0.00806448
0.180725
0.07058
0.0552422
0.443535
-0.0805031
0.0337635
0.373186
0.016655
0.290305
0.00486419
0.192516
0.0754442
0.0174813
-0.0259035
0.0105001
0.00508601
0.00145207
0.0724762
0.0872075
-0.107042
-0.0526412
0.042785
0.0736008
-0.0439095
0.0196822
0.0568476
-0.0337448
0.00512205
0.0367416
-0.0221815
0.013264
-0.00814197
0.0760562
0.125787
-0.114636
0.04375
0.105907
0.0196621
0.0809354
0.00509708
0.0513066
0.0183612
0.084517
0.168482
-0.127212
0.0491673
0.141257
0.0227747
0.107328
0.00618653
0.0678948
0.0245477
0.094156
0.214641
-0.140315
0.0558316
0.179581
0.0265568
0.136603
0.00743791
0.0870137
0.0319857
0.107443
-0.15745
0.0644325
0.0308782
0.00863008
0.5115
0.171352
-0.286873
0.557042
0.167499
-0.213041
0.49388
0.312455
-0.249292
0.333773
0.804028
-0.643921
1.03994
-0.813214
0.510164
0.0571678
0.553182
0.124481
0.484432
0.381205
0.330823
0.957637
1.25613
0.509098
-0.055951
0.540319
0.0932606
0.464817
0.456707
0.328367
1.09409
1.45729
0.505451
-0.165423
0.521612
0.0770996
0.441616
0.536703
0.32449
1.21121
1.64146
0.496713
-0.266156
0.494564
0.0792491
0.413663
0.617603
0.31262
1.31226
1.79663
0.768222
-0.430358
0.851236
-0.00376427
0.957302
0.511536
1.16946
1.1001
1.6186
1.34749
0.713059
-0.539397
0.791154
-0.0818594
0.957608
0.345083
1.29843
0.759276
1.14319
1.77384
0.603327
-0.538704
0.635835
-0.114367
0.804567
0.17635
1.1728
0.391043
0.611983
1.704
0.448636
-0.383319
0.406877
-0.0726079
0.536702
0.0465246
0.816049
0.111695
0.186912
1.24112
0.220701
0.148093
0.194618
0.306313
0.493224
1.40255
-0.246806
1.46572
-0.230414
1.52299
-0.185488
1.56316
-0.120671
-0.040531
1.75272
-0.225686
1.71979
-0.197477
1.69065
-0.156352
1.67086
-0.100878
-0.034951
1.60151
-0.123189
1.50878
-0.104747
1.43457
-0.0821411
1.38706
-0.0533669
-0.0186924
1.15106
-0.0331276
1.0743
-0.0279832
1.01529
-0.0231398
0.97757
-0.0156427
-0.00565907
0.460097
0.432114
0.408974
0.393331
0.00250139
0.0430059
-0.0455073
0.00732792
0.101051
-0.105877
0.0160952
0.148395
-0.157162
0.0165785
0.15191
-0.152393
0.114028
0.0148141
-0.112263
0.00682837
0.0361775
0.0201778
0.087701
0.040958
0.127615
0.0482551
0.144612
0.116381
0.0459015
0.00880923
0.0273683
0.0270766
0.0694337
0.0521507
0.102541
0.0730919
0.123671
0.114035
0.0754379
0.00780123
0.0195671
0.0255135
0.0517215
0.0497483
0.0783059
0.0774302
0.0959893
0.099244
0.0922213
0.00509901
0.0144681
0.0179735
0.038847
0.0367666
0.0595128
0.0600071
0.0727487
0.0767471
0.082504
0.00342459
0.0110435
0.0125824
0.0296892
0.0274431
0.0446521
0.0470519
0.0531399
0.0561606
0.0676384
0.00222644
0.00881703
0.00893329
0.0229823
0.0222602
0.0313251
0.0409997
0.0344004
0.0347863
0.062374
0.00166586
0.00715117
0.0100895
0.0145587
0.0261152
0.0152994
0.0466415
0.0138741
0.0115664
0.0698614
0.00369347
0.0034577
0.0174534
0.000798677
0.0367574
-0.00400472
0.0597447
-0.00911318
-0.0143064
0.0856173
0.0075025
0.0236012
0.0448084
0.0703944
0.0993636
0.153706
0.0199712
-0.106039
0.243104
-0.129931
0.0405332
0.264531
-0.0380721
0.0166445
0.270981
0.000448951
-0.00689833
-0.003909
-0.00337815
0.214561
-0.132216
0.32486
-0.24023
0.351118
-0.06433
0.355343
-0.00377678
-0.0076887
0.259715
-0.32207
0.390743
-0.371258
0.433033
-0.10662
0.435991
-0.00673554
-0.00677513
0.292848
-0.529301
0.437764
-0.516173
0.501427
-0.170284
0.508878
-0.0141863
-0.00242836
0.312041
0.464398
0.548103
0.568646
0.0706467
0.0386939
-0.109341
0.0785826
-0.00793593
0.0828779
-0.00429528
0.0807918
0.00208613
0.000855489
0.194033
-0.261379
0.22663
0.238979
0.234167
0.0207316
-0.00433142
-0.0164002
0.0342817
-0.01355
0.05676
-0.0224783
0.0856189
-0.0288589
-0.0237216
0.0539228
-0.0434401
0.0862742
0.139234
0.202596
0.0478532
-0.0551204
0.0763358
-0.0690687
0.027569
-0.05214
0.0724241
0.0123389
-0.0443602
0.0595904
0.0033175
-0.0300373
0.0390587
-0.0112611
0.0145786
0.0454763
-0.0322147
-0.0683821
0.0250248
-0.0316884
0.00985665
-0.029192
0.00219753
-0.0223781
-0.00906353
0.0561199
-0.00662628
-0.0817084
0.0331802
-0.00874869
0.0143241
-0.0103359
0.0026073
-0.0106613
-0.00645622
0.0700016
0.0215798
-0.0982077
0.0447661
0.0164869
0.0233353
0.0110949
0.00691816
0.0057558
0.000461926
0.074178
-0.105239
0.0467556
0.0241058
0.00768009
0.0165852
-0.114026
-0.0148225
0.0160946
-0.151902
0.00730672
-0.148374
0.00248916
-0.101059
-0.0430181
0.0482718
-0.116371
-0.0459265
0.0409323
-0.144563
0.020164
-0.127606
0.00682125
-0.0877167
-0.0361969
0.0731268
-0.113966
-0.0755325
0.0521238
-0.12356
0.0270652
-0.102547
0.00880624
-0.0694578
-0.0273906
0.0773425
-0.0989615
-0.0923465
0.0496212
-0.0958384
0.0254327
-0.078359
0.00777528
-0.0518004
-0.0196153
0.0599613
-0.0825869
0.036547
0.0177784
0.00503676
0.34208
0.583145
-0.529245
0.281041
0.224321
-0.163283
0.248322
0.0534577
-0.0207388
0.165555
0.115526
-0.032759
-0.000491124
0.0969778
0.408315
0.570809
0.372276
0.260361
0.336514
0.0892196
0.233783
0.218257
0.16491
0.460818
0.505971
0.452441
0.268738
0.409817
0.131844
0.283777
0.344297
0.366979
0.498144
0.403806
0.516429
0.250453
0.461211
0.187062
0.317383
0.488125
0.586154
0.512913
0.550325
0.488095
0.332299
0.158668
0.351383
0.0848392
0.0738292
0.0804696
0.00436958
0.0724909
0.00797868
-0.0369108
0.109402
0.332189
0.242735
0.226366
0.201586
0.261654
0.0856707
0.023731
0.0567916
0.028879
0.0342926
0.022499
0.0207351
0.0135575
0.0043349
0.202798
0.13933
0.0862967
0.0539277
)
;

boundaryField
{
    left
    {
        type            calculated;
        value           nonuniform List<scalar> 
17
(
-0.60402
-0.60402
-0.60402
-0.60402
-0.60402
-0.39598
-0.39598
-0.39598
-0.39598
-0.39598
-0.39598
-0.39598
-0.39598
-0.39598
-0.39598
-0.510051
-0.510051
)
;
    }
    right
    {
        type            calculated;
        value           nonuniform List<scalar> 
17
(
0.0799363
0.231644
0.278268
0.359123
0.435078
0.504531
0.56514
0.613791
0.629588
0.629825
0.628511
0.614164
0.839256
0.675532
0.500131
0.308156
0.107323
)
;
    }
    down
    {
        type            calculated;
        value           uniform 0;
    }
    up
    {
        type            calculated;
        value           uniform 0;
    }
    cylinder
    {
        type            calculated;
        value           uniform 0;
    }
    defaultFaces
    {
        type            empty;
    }
}


// ************************************************************************* //
