/*--------------------------------*- C++ -*----------------------------------*\
  =========                 |
  \\      /  F ield         | OpenFOAM: The Open Source CFD Toolbox
   \\    /   O peration     | Website:  https://openfoam.org
    \\  /    A nd           | Version:  13
     \\/     M anipulation  |
\*---------------------------------------------------------------------------*/
FoamFile
{
    format      ascii;
    class       volVectorField;
    location    "0.5";
    object      vorticity;
}
// * * * * * * * * * * * * * * * * * * * * * * * * * * * * * * * * * * * * * //

dimensions      [0 0 -1 0 0 0 0];

internalField   nonuniform List<vector> 
440
(
(5.41395e-16 7.03137e-16 -6.85468)
(-2.52207e-16 -4.45213e-16 -6.22892)
(-2.09744e-16 -4.22164e-16 -5.87648)
(2.43315e-16 5.40027e-16 -5.4468)
(-1.31486e-17 3.6974e-17 -5.12454)
(1.72119e-16 3.4794e-16 -8.49935)
(2.70368e-16 5.88386e-16 -7.40029)
(1.19274e-16 2.76721e-16 -6.79432)
(-3.03597e-17 6.39849e-17 -6.19799)
(-6.9409e-18 3.92616e-17 -5.77775)
(1.45528e-16 4.11032e-16 -9.89609)
(-6.70016e-16 -2.00872e-15 -8.38951)
(2.81424e-16 1.15038e-15 -7.56498)
(5.99027e-16 2.30098e-15 -6.81402)
(-1.18729e-16 -9.02499e-16 -6.28771)
(2.21204e-16 9.49438e-16 -10.8992)
(1.86947e-16 1.09607e-15 -9.11896)
(-3.43804e-16 -1.8949e-15 -8.15062)
(-1.55041e-16 -1.77344e-15 -7.29465)
(9.17887e-17 4.33074e-16 -6.70995)
(1.69555e-16 2.07142e-15 -11.4323)
(7.02158e-17 8.0014e-16 -9.51358)
(-1.45898e-17 -1.43773e-15 -8.47441)
(-1.24447e-16 -1.4074e-15 -7.56599)
(2.7675e-18 -4.69822e-16 -6.97369)
(1.11167e-16 1.59224e-17 -1.23966)
(1.42803e-16 8.36795e-17 -1.20996)
(-1.88447e-16 -1.503e-16 -1.172)
(2.49543e-17 4.3691e-17 -1.16676)
(1.90571e-16 2.42145e-16 -1.17927)
(-3.67512e-16 -9.65509e-17 -2.14421)
(-3.33818e-16 -2.05947e-16 -2.06239)
(1.92146e-18 -6.02891e-19 -1.95077)
(1.65683e-17 1.31397e-17 -1.82681)
(-2.53644e-17 -3.01138e-17 -1.76593)
(-1.38534e-17 -2.11868e-17 -3.07228)
(5.02967e-16 3.5959e-16 -2.98312)
(-2.25863e-17 -4.00614e-17 -2.85557)
(-3.57677e-16 -4.1575e-16 -2.62735)
(-2.18897e-18 1.85025e-17 -2.47024)
(4.55518e-16 3.07198e-16 -4.12356)
(-2.09386e-16 -1.8593e-16 -3.95497)
(8.62838e-17 8.80016e-17 -3.80924)
(4.23291e-16 6.00558e-16 -3.51057)
(-5.16751e-17 -1.65346e-16 -3.26441)
(3.66081e-16 3.59647e-16 -5.32306)
(1.4418e-16 1.90767e-16 -5.01526)
(2.27314e-16 3.29551e-16 -4.81374)
(-1.51366e-16 -3.44016e-16 -4.43171)
(-3.09022e-16 -7.58982e-16 -4.09905)
(-2.94544e-16 -3.54573e-16 -1.14355)
(1.61694e-16 1.17832e-16 -0.0671672)
(3.89679e-17 2.20574e-17 0.140549)
(-5.60204e-17 -1.06059e-16 -0.147292)
(-7.16336e-18 -5.14286e-17 -0.388741)
(1.75628e-16 2.15671e-16 -1.4996)
(-2.17095e-17 -1.52133e-17 -0.280495)
(1.68151e-17 -1.11017e-17 0.200118)
(7.32619e-17 3.51203e-17 0.0561097)
(1.65593e-17 2.49793e-17 -0.0741499)
(1.25507e-16 3.1144e-16 -1.84253)
(1.60243e-16 3.16751e-16 -0.505996)
(-1.51796e-17 7.37098e-18 0.165861)
(5.39882e-17 -1.38518e-18 0.199793)
(-5.00688e-20 -2.70971e-19 0.0428609)
(-4.80624e-17 -1.51034e-16 -2.13205)
(-4.26201e-17 -1.8963e-17 -0.644696)
(-1.88421e-17 -3.61074e-17 0.101222)
(-4.48639e-17 2.36057e-17 0.319623)
(1.644e-17 -2.56918e-17 0.144307)
(1.02985e-17 1.25152e-16 -2.35817)
(-5.17827e-17 -2.84548e-16 -0.682819)
(2.36555e-18 -6.50375e-19 0.0499382)
(2.00519e-17 -3.47869e-17 0.442032)
(2.45628e-18 -3.48e-17 0.44848)
(-2.6298e-17 1.42329e-16 -1.57724)
(2.66555e-17 4.92386e-17 -0.179414)
(-3.24053e-18 -3.03742e-18 0.386678)
(-1.09713e-18 -5.17223e-17 0.77086)
(6.59275e-18 1.90599e-16 0.818563)
(-1.66845e-18 1.86378e-17 -0.164593)
(1.6778e-16 8.57798e-17 0.734651)
(1.14939e-18 -1.80301e-18 0.959762)
(3.71647e-17 1.87929e-16 1.04331)
(2.34687e-19 8.44553e-20 0.968874)
(-2.12552e-16 -2.99293e-16 1.66853)
(-1.24239e-18 6.3653e-19 1.55904)
(6.52894e-17 1.7797e-16 1.28857)
(-1.91338e-17 -1.03031e-16 1.08149)
(8.22386e-18 1.6109e-16 1.0292)
(5.67792e-17 1.21997e-16 3.09836)
(7.03781e-17 2.52965e-16 2.09922)
(-5.60074e-18 -6.50578e-18 1.5229)
(8.79379e-19 1.90565e-19 1.1825)
(3.16105e-19 1.03197e-18 1.08436)
(4.98161e-17 1.0798e-15 4.24935)
(3.84458e-18 2.6625e-16 2.52564)
(2.42615e-18 -2.77453e-16 1.70977)
(-1.64824e-18 1.38857e-16 1.30653)
(6.39968e-19 -1.85409e-16 1.15321)
(1.62978e-16 5.7057e-16 -5.00059)
(-1.10959e-16 6.17834e-16 -4.90634)
(1.64762e-17 -6.79968e-16 -4.7561)
(4.04001e-17 4.46354e-17 -4.56936)
(1.13517e-17 7.22155e-17 -4.22418)
(3.25773e-17 -3.89595e-17 0.0147168)
(7.94561e-18 2.85923e-17 -0.278327)
(-4.9065e-17 8.63686e-18 -0.718966)
(-9.93631e-18 -2.38018e-17 -1.23993)
(-1.06647e-17 2.2123e-17 -1.49532)
(-1.62033e-20 7.37907e-18 3.01389)
(2.64145e-17 1.54456e-16 2.81186)
(-4.65587e-18 -2.0015e-16 2.44327)
(-6.0567e-18 6.92894e-17 1.96649)
(-8.09713e-18 6.83954e-17 1.55182)
(1.44162e-17 8.14813e-17 4.768)
(2.3306e-17 -1.01506e-16 4.60201)
(-1.75468e-17 1.49402e-17 4.30372)
(-1.84064e-17 8.97614e-17 3.93306)
(1.87789e-17 5.95923e-18 3.57857)
(-2.61403e-17 -3.80848e-19 7.2174)
(-1.56295e-17 -1.55843e-16 6.98367)
(1.61941e-17 4.21625e-16 6.53694)
(8.61418e-18 -1.00992e-16 5.95299)
(1.54932e-17 8.7745e-17 5.40177)
(2.09055e-16 -4.3903e-16 -5.15369)
(-7.06086e-17 2.29455e-16 -5.50129)
(-2.12927e-16 3.91884e-16 -5.96119)
(1.31001e-16 -2.03362e-16 -6.35211)
(-1.21815e-17 6.70006e-18 -7.05252)
(-5.60873e-17 1.40969e-16 -5.76161)
(-4.54937e-16 1.31381e-15 -6.2121)
(-2.03348e-16 5.35227e-16 -6.84587)
(-2.79557e-17 3.95686e-17 -7.5002)
(-3.82621e-16 6.77263e-16 -8.68368)
(6.19492e-17 -5.45907e-16 -6.26485)
(3.06248e-18 -1.80928e-17 -6.81352)
(-3.15609e-16 1.30782e-15 -7.59685)
(-1.01581e-16 3.84586e-16 -8.46538)
(1.72965e-16 -4.02938e-16 -10.0483)
(9.86661e-17 -1.32978e-15 -6.69098)
(1.13877e-16 -9.11522e-16 -7.28939)
(-1.91926e-16 8.78597e-16 -8.16738)
(-1.90273e-16 1.13239e-15 -9.16617)
(-1.14105e-16 5.10533e-16 -10.999)
(2.99368e-17 -7.00621e-16 -6.96624)
(-7.34708e-17 3.37893e-16 -7.56313)
(-1.43277e-17 -3.98257e-16 -8.47951)
(3.74321e-17 -3.25525e-16 -9.52965)
(-1.26123e-16 1.62867e-15 -11.4672)
(2.74476e-16 -3.12807e-16 -1.19456)
(2.59536e-16 -2.7195e-16 -1.22625)
(-5.47914e-17 2.77994e-17 -1.32378)
(5.65197e-17 -2.72185e-17 -1.4736)
(6.77283e-17 -6.92367e-18 -1.64682)
(9.45016e-17 -1.1394e-16 -1.84243)
(1.86731e-16 -1.85391e-16 -1.96148)
(-1.71448e-17 9.76118e-18 -2.17337)
(-7.95498e-19 -1.20239e-18 -2.33655)
(4.93221e-19 1.32741e-18 -2.45166)
(-2.60749e-16 4.05289e-16 -2.5649)
(1.42084e-16 -1.18748e-16 -2.77408)
(1.76831e-16 -1.55553e-16 -3.05977)
(-1.04407e-16 6.53646e-17 -3.20868)
(3.9991e-16 -1.82619e-16 -3.33014)
(1.32508e-16 -2.88606e-16 -3.3437)
(-5.07688e-16 6.86745e-16 -3.62899)
(-7.44307e-16 7.90999e-16 -3.96607)
(2.52747e-16 -2.14276e-16 -4.13356)
(1.62944e-16 -1.16832e-16 -4.35364)
(1.56494e-17 -6.07442e-17 -4.15364)
(5.56679e-18 -6.65565e-17 -4.51391)
(-1.24423e-16 1.75487e-16 -4.92874)
(-1.47615e-16 1.84446e-16 -5.15925)
(-5.22503e-18 7.13096e-18 -5.53154)
(-1.36117e-16 -6.32626e-18 0.269078)
(-1.35828e-17 2.09641e-18 0.0102745)
(-1.59318e-18 -2.87139e-18 0.0425446)
(2.73991e-16 -7.71676e-17 0.116735)
(-1.22903e-16 1.68117e-16 -1.04354)
(8.80721e-17 6.40884e-18 0.158767)
(3.84637e-17 2.45257e-17 0.0771826)
(-4.81738e-17 2.16443e-17 0.238888)
(-5.397e-17 1.51236e-18 -0.0658707)
(-2.24987e-17 7.57393e-17 -1.45056)
(1.34692e-16 4.11856e-18 0.0529812)
(-3.07331e-18 -1.14539e-18 0.169247)
(1.64752e-17 7.55804e-18 0.346795)
(-3.28233e-17 1.06265e-16 -0.312092)
(8.42359e-17 -2.06189e-16 -1.82773)
(-3.54115e-19 -9.30427e-19 -0.0425026)
(-2.6793e-17 3.60365e-19 0.319354)
(2.30811e-17 -9.68185e-18 0.344448)
(7.46385e-17 -2.61274e-16 -0.475106)
(5.47266e-18 -3.76315e-17 -2.12277)
(-3.28648e-17 -5.49874e-20 -0.117607)
(1.83554e-17 -1.43957e-17 0.469002)
(-1.06708e-17 9.76268e-18 0.276366)
(1.33013e-17 3.01305e-16 -0.50927)
(1.26698e-17 -2.18869e-16 -2.32509)
(-4.15175e-17 1.32381e-17 -0.181437)
(1.3554e-17 -3.53991e-17 0.678217)
(-2.22719e-17 -1.71113e-17 0.429359)
(9.68608e-17 3.20084e-16 -0.0927902)
(2.26671e-17 -9.61366e-17 -1.48523)
(5.31778e-18 3.34024e-19 -0.205141)
(-4.1353e-17 1.3954e-16 1.03714)
(-6.50857e-18 3.94369e-18 0.927468)
(-1.64492e-16 6.69559e-17 0.70326)
(7.31656e-17 2.21926e-17 -0.143071)
(9.47749e-18 5.92483e-17 -0.139031)
(1.94287e-18 4.76753e-18 1.38702)
(-6.20566e-17 1.79962e-16 1.38478)
(8.63554e-17 -1.38727e-16 1.50929)
(-2.38264e-17 5.83867e-17 1.60515)
(-1.05878e-17 -8.67347e-18 0.373581)
(1.70816e-17 1.37959e-16 1.52245)
(2.45348e-18 5.05239e-18 1.57146)
(-8.04262e-18 2.00711e-17 2.06441)
(-3.21425e-18 -7.34499e-17 3.0531)
(-5.97138e-17 -2.45049e-16 1.71605)
(4.88571e-18 1.82645e-16 1.78142)
(-1.35601e-18 -2.68714e-16 1.67035)
(-5.45856e-18 2.64396e-16 2.49818)
(1.51611e-17 -6.88383e-18 4.25426)
(5.63525e-17 -7.43397e-17 -4.15634)
(1.24397e-16 -2.92133e-16 -4.48797)
(-7.19547e-17 4.12488e-16 -4.6833)
(-2.1124e-16 -3.97256e-16 -4.85079)
(1.60027e-16 -8.84029e-17 -4.97846)
(5.47015e-17 -1.02425e-17 -1.391)
(1.88335e-16 1.97834e-16 -1.16225)
(9.28974e-17 1.66294e-16 -0.689772)
(-1.38625e-16 -8.0918e-17 -0.261542)
(-3.41317e-17 -1.49434e-16 0.0218867)
(-9.05682e-17 5.02528e-17 1.53906)
(-8.06087e-17 -1.89685e-17 1.94581)
(-1.87075e-16 5.42764e-16 2.40131)
(5.46838e-17 -1.05608e-16 2.76883)
(2.69022e-17 7.26519e-17 2.99479)
(-1.58216e-17 1.82115e-16 3.54791)
(2.60079e-19 5.87323e-17 3.91388)
(3.11333e-17 1.93402e-17 4.28744)
(3.55978e-17 -1.1469e-16 4.59084)
(-3.25733e-17 2.62251e-17 4.76415)
(7.89041e-18 -1.86902e-16 5.39901)
(-1.68006e-17 1.06286e-16 5.95421)
(4.62486e-18 -5.3425e-16 6.53946)
(4.94746e-18 3.31478e-16 6.98671)
(8.7929e-18 1.21955e-17 7.21888)
(-4.7719e-18 -1.76347e-17 6.43569)
(6.78314e-18 1.90804e-16 4.75537)
(-7.46268e-18 -2.45319e-16 2.22273)
(-1.50415e-17 1.66948e-16 -1.44714)
(1.7207e-18 -3.43443e-16 -3.44214)
(8.96144e-17 -5.37265e-16 5.80533)
(-3.21773e-17 3.32055e-16 4.27506)
(8.75953e-18 2.08086e-16 2.61353)
(-6.66784e-17 1.34594e-16 -0.580178)
(6.5366e-17 -4.82955e-16 -2.88099)
(7.41537e-17 -2.2188e-16 4.7187)
(1.04974e-16 -4.76586e-16 3.68532)
(1.30386e-17 -3.91515e-17 2.82044)
(-9.73657e-17 -3.92248e-17 0.53441)
(-5.92438e-17 2.31688e-16 -1.85743)
(2.38738e-16 -3.98846e-16 3.52977)
(2.67318e-17 -1.59467e-16 3.03735)
(-8.61558e-17 3.40067e-16 2.56526)
(7.35788e-18 -1.3229e-17 1.48976)
(-1.4722e-16 2.4895e-17 -0.295553)
(7.49442e-17 -8.19707e-17 2.56614)
(-8.68794e-17 1.43411e-16 2.36193)
(-4.77957e-17 1.89741e-16 2.08068)
(1.65136e-17 -4.00109e-17 1.60604)
(-2.68093e-17 -2.67924e-17 0.929533)
(-1.88498e-16 1.68753e-16 1.91213)
(8.32306e-17 -1.00863e-16 1.7712)
(4.32274e-17 -9.6854e-17 1.4722)
(-1.33604e-17 1.16775e-16 0.961307)
(-2.55358e-18 8.97022e-18 0.676667)
(-5.9426e-17 2.58481e-17 1.4951)
(-6.98267e-17 8.00427e-17 1.29128)
(-2.55628e-17 5.04765e-17 0.911717)
(7.33796e-18 -2.15638e-17 0.529734)
(1.0046e-17 -1.32865e-17 0.322867)
(-5.10971e-17 9.60644e-18 1.17562)
(1.31779e-16 -1.52343e-16 0.677049)
(3.42367e-17 1.08248e-16 0.211305)
(7.77303e-17 1.97987e-16 -0.0027611)
(-6.25847e-17 -7.55436e-17 -0.10443)
(-5.95599e-17 3.38407e-17 0.697506)
(-3.57516e-18 4.36406e-17 -0.0604267)
(-6.99146e-17 -1.59892e-16 -0.323243)
(-1.36376e-16 -1.28197e-16 -0.397128)
(1.65685e-17 4.04442e-17 -0.456487)
(-6.48857e-18 -1.37274e-17 -0.161857)
(2.6679e-17 1.7162e-17 -0.641349)
(-1.29241e-17 -8.71994e-18 -0.664468)
(8.14547e-18 4.14569e-18 -0.72238)
(9.05297e-17 7.59519e-17 -0.764121)
(-1.60061e-17 1.14415e-17 -0.0856936)
(-1.01121e-16 -3.00853e-16 -0.87036)
(2.96503e-18 4.49529e-17 -0.989446)
(-3.46956e-18 2.71302e-16 -1.06684)
(7.31199e-20 -2.88331e-17 -1.07433)
(-2.19e-17 -1.2341e-17 -0.201742)
(1.59858e-16 1.82399e-16 -0.403403)
(1.26144e-17 2.26381e-16 -0.781755)
(-2.23324e-18 1.55622e-17 -0.971347)
(-1.16681e-18 1.26077e-16 -1.00773)
(-9.44804e-17 -3.23348e-17 -0.410543)
(2.27595e-16 2.05629e-16 -0.108459)
(1.60425e-18 -3.93383e-18 -0.522559)
(-3.44315e-18 -3.25851e-16 -0.844292)
(6.58369e-20 6.20322e-18 -0.926637)
(1.01675e-16 4.10211e-17 -0.61262)
(-3.73552e-16 -1.24208e-16 0.033656)
(-2.30671e-17 -6.33255e-17 -0.238814)
(1.41702e-18 -3.27551e-18 -0.662671)
(-6.73005e-19 -9.04609e-17 -0.821912)
(3.51254e-17 3.77994e-17 -0.835532)
(-3.69952e-17 -6.27001e-17 0.0467988)
(3.21437e-17 3.66444e-17 -0.00521914)
(-3.47058e-18 7.07971e-18 -0.413471)
(-7.10001e-18 -1.61824e-16 -0.681836)
(4.43121e-18 -4.70008e-18 -1.25403)
(-3.42569e-34 5.22643e-19 -1.07318)
(4.55833e-19 2.37608e-19 -1.24241)
(5.65851e-19 -2.71911e-16 -1.24757)
(-2.36269e-19 7.65639e-20 -1.20897)
(-1.44566e-18 3.8543e-18 -0.572303)
(-2.87045e-18 1.05793e-18 -1.07205)
(-8.42077e-18 -3.12612e-16 -1.13275)
(3.53102e-18 -2.52598e-16 -1.1536)
(-8.21655e-19 1.45767e-16 -1.13628)
(-2.92356e-18 -1.2903e-17 -5.5945)
(3.62651e-17 1.68802e-15 -4.78992)
(-1.33677e-17 -4.75884e-16 -3.69103)
(-1.4645e-17 -8.12033e-18 -2.70348)
(-4.55313e-18 6.70924e-17 -2.06645)
(-3.60536e-19 -4.08735e-18 -4.48332)
(-1.07058e-16 6.01644e-16 -3.70881)
(1.85214e-16 -8.35956e-16 -2.69066)
(-5.22562e-17 1.18877e-16 -1.70233)
(-9.52239e-17 4.23581e-17 -0.508236)
(1.19271e-17 -7.72223e-17 0.643313)
(1.10004e-18 2.61456e-17 0.913228)
(5.3109e-17 1.09827e-16 1.42511)
(-3.75218e-17 -5.98313e-17 1.76591)
(2.26564e-18 7.18612e-18 1.93594)
(-5.42675e-18 3.26334e-17 0.261296)
(-1.29867e-17 1.62009e-16 0.43722)
(2.60104e-17 7.71995e-17 0.785248)
(9.69703e-18 1.51995e-17 1.21306)
(1.1748e-16 7.04244e-17 1.51903)
(4.54471e-17 -5.23574e-17 -0.137468)
(-7.43578e-18 -1.88678e-17 -0.0638734)
(-4.35219e-17 1.01105e-16 0.0821844)
(1.04187e-17 4.22463e-17 0.484505)
(-4.59224e-17 -2.28108e-17 1.08751)
(8.57375e-17 -1.0877e-16 -0.433662)
(7.86472e-17 -9.86382e-17 -0.395476)
(-5.12364e-17 5.15888e-17 -0.346935)
(-5.47925e-17 7.16336e-17 -0.249444)
(1.85341e-17 2.62841e-17 0.457083)
(6.07283e-17 -3.46661e-17 -0.721963)
(5.21772e-17 -3.95017e-17 -0.69988)
(2.2229e-17 -7.18151e-18 -0.677164)
(-3.08977e-17 2.83497e-17 -0.693275)
(-4.2684e-17 1.05804e-17 -0.813923)
(9.0436e-18 5.34058e-16 -3.44213)
(2.1312e-17 1.26898e-16 -1.44594)
(-1.16182e-18 1.69168e-16 2.2227)
(5.28047e-18 5.99065e-16 4.75392)
(-1.11216e-17 -6.61672e-18 6.43617)
(1.39501e-16 5.46151e-16 -2.88046)
(3.92463e-17 1.31639e-16 -0.579263)
(-4.32652e-17 9.90528e-18 2.61211)
(-1.46567e-17 1.68512e-17 4.27332)
(6.54005e-19 -9.03552e-18 5.80675)
(-4.10752e-16 -9.62563e-16 -1.85365)
(7.89358e-17 -9.49602e-17 0.534146)
(-1.35052e-17 -2.0403e-16 2.81624)
(1.4002e-17 1.59302e-16 3.68487)
(-2.11297e-16 -5.85552e-16 4.7207)
(9.08248e-17 1.06762e-16 -0.291382)
(-8.59537e-17 3.04673e-16 1.48491)
(1.87822e-16 6.57192e-16 2.56067)
(-4.33861e-17 -2.63984e-16 3.03895)
(-8.4888e-17 -1.25418e-16 3.53371)
(2.64703e-17 -7.37091e-17 0.919756)
(4.65311e-18 4.18338e-17 1.58093)
(3.23381e-17 8.82655e-17 2.06764)
(4.97364e-17 8.03023e-17 2.36461)
(4.75403e-18 -4.42285e-19 2.57508)
(1.84256e-17 1.72351e-17 -0.0329994)
(2.17541e-17 -1.07876e-16 -1.3693)
(7.95143e-18 -5.35918e-17 -1.07148)
(-6.264e-17 2.59561e-16 -0.971697)
(-4.63489e-18 1.87994e-18 -0.149488)
(-7.66655e-18 -1.84336e-18 0.183286)
(-4.19581e-17 3.67583e-16 -1.24914)
(4.09716e-17 -3.44722e-16 -0.922037)
(1.55002e-16 -2.67478e-16 -0.52144)
(1.43793e-17 -1.54738e-17 -0.217598)
(-4.38955e-17 -4.1752e-17 0.336929)
(3.44436e-19 2.08063e-18 -1.05127)
(1.7049e-17 -9.1381e-17 -0.702442)
(1.45293e-16 -1.50636e-16 -0.171537)
(-1.27062e-16 2.11705e-17 -0.363291)
(7.3948e-17 2.20116e-17 0.409501)
(2.09493e-18 1.00334e-17 -0.702002)
(-2.22524e-17 6.24405e-17 -0.436506)
(-1.77161e-16 3.96656e-17 0.0496907)
(-8.42633e-17 6.27161e-17 -0.506618)
(2.06935e-17 1.28892e-18 0.371189)
(-1.17646e-17 -2.33454e-17 -0.243171)
(-2.66879e-17 4.18759e-17 -0.175943)
(-8.28066e-17 2.91102e-17 0.149796)
(1.43771e-16 -5.0757e-17 -0.706545)
(-1.33287e-17 -2.69563e-19 -1.77433)
(-8.9172e-18 2.62384e-16 -1.79537)
(9.2211e-19 -8.15386e-19 -1.19123)
(6.97164e-18 -4.20223e-16 -1.10855)
(-9.11422e-18 -7.69467e-18 -1.26961)
(8.12338e-17 -1.07559e-16 -0.525349)
(9.29632e-17 -4.17782e-16 -1.4681)
(-2.03348e-17 3.05436e-16 -1.11876)
(-1.91921e-17 1.2453e-16 -1.13235)
(-1.21208e-17 -3.05561e-17 -0.626154)
(-7.05217e-18 -9.09869e-17 -2.0674)
(2.47436e-17 2.78841e-16 -2.70486)
(1.51056e-17 4.54032e-16 -3.69229)
(-8.35931e-18 -8.86043e-16 -4.79102)
(4.65664e-18 3.22062e-18 -5.59496)
(9.69849e-17 4.31058e-17 -0.493017)
(1.0909e-16 3.115e-16 -1.69774)
(-1.5507e-16 -6.95326e-16 -2.69011)
(-3.81449e-17 -4.91678e-16 -3.70873)
(2.45498e-17 4.17484e-16 -4.48325)
)
;

boundaryField
{
    left
    {
        type            calculated;
        value           nonuniform List<vector> 
17
(
(-4.15175e-17 1.3185e-17 -0.478329)
(5.31778e-18 9.68379e-20 -0.622163)
(9.47749e-18 5.23823e-17 -0.6158)
(-1.05878e-17 -8.64166e-18 0.0396741)
(-5.97138e-17 -2.39562e-16 1.65991)
(-1.36117e-16 -5.67337e-18 0.435324)
(8.80721e-17 6.28687e-18 0.226521)
(1.34692e-16 4.03985e-18 0.0263852)
(-3.54115e-19 -1.19801e-18 -0.156001)
(-3.28648e-17 4.76975e-20 -0.31292)
(1.84256e-17 1.63289e-17 0.379866)
(-7.66655e-18 -1.92436e-18 0.638827)
(-4.38955e-17 -3.84648e-17 0.765891)
(7.3948e-17 1.97654e-17 0.769032)
(2.06935e-17 1.09543e-18 0.637595)
(-1.33287e-17 -0 -1.70936)
(8.12338e-17 -9.79669e-17 -0.232827)
)
;
    }
    right
    {
        type            calculated;
        value           nonuniform List<vector> 
17
(
(-2.36269e-19 4.75152e-20 -1.20883)
(-8.21655e-19 1.45781e-16 -1.13555)
(7.31199e-20 -2.89949e-17 -1.0733)
(-1.16681e-18 1.26021e-16 -1.00634)
(6.58369e-20 6.4087e-18 -0.925576)
(-6.73005e-19 -9.04484e-17 -0.82308)
(-7.10001e-18 -1.61883e-16 -0.689208)
(-7.16336e-18 -5.11972e-17 -0.406078)
(1.65593e-17 2.48915e-17 -0.101184)
(-5.00688e-20 -5.01689e-19 0.00613713)
(1.644e-17 -2.555e-17 0.100634)
(2.45628e-18 -3.49082e-17 0.393287)
(6.59275e-18 1.90525e-16 0.76256)
(2.34687e-19 -0 0.928195)
(8.22386e-18 1.61199e-16 1.00535)
(3.16105e-19 9.98126e-19 1.07532)
(6.39968e-19 -1.85527e-16 1.15707)
)
;
    }
    down
    {
        type            calculated;
        value           nonuniform List<vector> 
20
(
(0 -2.69563e-19 -2.10582)
(-3.02919e-18 2.62384e-16 -1.9565)
(7.68796e-19 -8.15386e-19 -1.2273)
(7.39935e-18 -4.20223e-16 -1.14425)
(-1.5323e-17 -7.69467e-18 -1.46011)
(-6.89521e-18 -9.09869e-17 -2.28555)
(3.15345e-17 2.78841e-16 -2.95985)
(2.0514e-17 4.54032e-16 -3.99426)
(-2.81724e-18 -8.86043e-16 -5.10548)
(0 3.22062e-18 -5.92356)
(-1.32718e-17 -1.2903e-17 -5.92295)
(5.88303e-17 1.68802e-15 -5.10399)
(-3.19673e-20 -4.75884e-16 -3.99263)
(-3.90882e-17 -8.12033e-18 -2.95905)
(-1.39029e-17 6.70924e-17 -2.28529)
(8.1638e-18 -4.70008e-18 -1.44937)
(0 5.22643e-19 -1.10767)
(8.45238e-19 2.37608e-19 -1.2701)
(5.81833e-19 -2.71911e-16 -1.27158)
(-5.7912e-19 7.65639e-20 -1.23006)
)
;
    }
    up
    {
        type            calculated;
        value           nonuniform List<vector> 
20
(
(5.22342e-17 1.0798e-15 4.56623)
(2.86256e-18 2.6625e-16 2.63276)
(4.38858e-18 -2.77453e-16 1.76604)
(-2.36834e-18 1.38857e-16 1.35589)
(7.67928e-19 -1.85409e-16 1.18178)
(-4.57885e-17 -3.80848e-19 7.88879)
(-2.52199e-18 -1.55843e-16 7.6316)
(1.54883e-17 4.21625e-16 7.1371)
(7.97152e-18 -1.00992e-16 6.48378)
(3.0044e-17 8.7745e-17 5.88098)
(1.60013e-17 -1.86902e-16 5.89076)
(-3.07301e-17 1.06286e-16 6.49542)
(9.03537e-19 -5.3425e-16 7.14774)
(3.71087e-17 3.31478e-16 7.64012)
(9.72396e-20 1.21955e-17 7.89225)
(-4.52886e-17 -2.45049e-16 2.08399)
(4.53178e-18 1.82645e-16 1.96591)
(-4.75457e-18 -2.68714e-16 1.73995)
(-2.2181e-18 2.64396e-16 2.61404)
(1.04722e-17 -6.88383e-18 4.58554)
)
;
    }
    cylinder
    {
        type            calculated;
        value           nonuniform List<vector> 
40
(
(1.11572e-16 1.07341e-17 -1.263)
(-3.67862e-16 -9.50932e-17 -2.19619)
(-1.43859e-17 -1.99011e-17 -3.16506)
(4.56038e-16 3.06349e-16 -4.28042)
(3.6578e-16 3.6052e-16 -5.56737)
(5.36007e-16 7.07739e-16 -7.23905)
(1.69883e-16 3.4931e-16 -9.06751)
(1.31404e-16 4.17977e-16 -10.6279)
(2.33726e-16 9.46432e-16 -11.7447)
(1.77632e-16 2.07078e-15 -12.3368)
(-1.28413e-17 6.13653e-18 -7.46781)
(-3.80841e-16 6.78353e-16 -9.28386)
(1.76488e-16 -4.02615e-16 -10.8082)
(-1.26877e-16 5.07467e-16 -11.8637)
(-1.33721e-16 1.62807e-15 -12.3786)
(6.77792e-17 -6.27691e-18 -1.70767)
(6.00186e-19 1.77295e-18 -2.52984)
(4.0084e-16 -1.79951e-16 -3.44749)
(1.61925e-16 -1.18494e-16 -4.53771)
(-6.23907e-18 5.94366e-18 -5.80523)
(2.4125e-18 7.01416e-18 2.03666)
(1.1815e-16 6.93304e-17 1.61422)
(-4.41885e-17 -2.75288e-17 1.23482)
(1.95686e-17 2.19754e-17 0.768558)
(-4.2566e-17 9.08111e-18 -0.867037)
(-1.6414e-17 -6.20018e-18 7.24419)
(1.22734e-17 -1.18251e-17 6.46591)
(-2.15308e-16 -5.83233e-16 5.16054)
(-8.64198e-17 -1.2448e-16 3.78392)
(1.82559e-18 2.05882e-18 2.7167)
(-1.51688e-17 -1.8453e-17 7.24333)
(8.63262e-17 -5.38055e-16 6.46348)
(6.30963e-17 -2.27116e-16 5.15727)
(2.42095e-16 -3.96789e-16 3.77851)
(8.62477e-17 -7.23168e-17 2.70542)
(-1.92641e-16 1.63902e-16 2.00771)
(-6.01794e-17 2.46186e-17 1.57753)
(-5.03564e-17 1.17803e-17 1.28239)
(-6.06944e-17 2.91147e-17 0.960498)
(-6.85497e-18 -1.83827e-17 0.0788804)
)
;
    }
    defaultFaces
    {
        type            empty;
    }
}


// ************************************************************************* //
