/*--------------------------------*- C++ -*----------------------------------*\
  =========                 |
  \\      /  F ield         | OpenFOAM: The Open Source CFD Toolbox
   \\    /   O peration     | Website:  https://openfoam.org
    \\  /    A nd           | Version:  13
     \\/     M anipulation  |
\*---------------------------------------------------------------------------*/
FoamFile
{
    format      ascii;
    class       volScalarField;
    location    "4.05";
    object      p;
}
// * * * * * * * * * * * * * * * * * * * * * * * * * * * * * * * * * * * * * //

dimensions      [0 2 -2 0 0 0 0];

internalField   nonuniform List<scalar> 
1800
(
-0.872471
-0.873233
-0.872619
-0.869873
-0.865301
-0.85947
-0.85439
-0.852941
-0.854612
-0.897308
-0.895888
-0.894752
-0.892563
-0.888816
-0.883558
-0.877077
-0.870478
-0.865854
-0.8619
-0.895818
-0.928212
-0.924177
-0.919708
-0.914452
-0.90865
-0.90244
-0.895996
-0.890066
-0.885406
-0.895581
-0.968124
-0.961023
-0.953633
-0.946092
-0.938459
-0.930474
-0.921787
-0.912401
-0.903352
-0.897562
-1.02101
-1.0109
-1.00088
-0.990798
-0.980065
-0.967693
-0.952857
-0.935412
-0.916199
-0.896607
-1.08897
-1.07605
-1.06305
-1.04922
-1.03259
-1.01163
-0.985953
-0.956288
-0.924014
-0.890728
-1.17117
-1.15564
-1.13866
-1.11838
-1.09158
-1.05734
-1.01697
-0.972848
-0.927296
-0.882523
-1.26223
-1.24452
-1.22161
-1.19069
-1.14879
-1.09719
-1.03978
-0.980374
-0.921718
-0.865556
-1.35292
-1.33305
-1.30138
-1.25527
-1.19424
-1.12322
-1.0485
-0.974644
-0.904115
-0.838185
-1.43074
-1.40808
-1.36476
-1.30006
-1.218
-1.12773
-1.03697
-0.950057
-0.868834
-0.793821
-0.983741
-0.992043
-1.0026
-1.01609
-1.03415
-1.05669
-1.08279
-1.11212
-1.14649
-1.18808
-0.958783
-0.96442
-0.971858
-0.982257
-0.997202
-1.01658
-1.03944
-1.06513
-1.09453
-1.12911
-0.958809
-0.960849
-0.964697
-0.972138
-0.984294
-1.00096
-1.02125
-1.04421
-1.06959
-1.09806
-0.962412
-0.960425
-0.960616
-0.965068
-0.974344
-0.988263
-1.00602
-1.02681
-1.04951
-1.0729
-0.955894
-0.950561
-0.947584
-0.948689
-0.95419
-0.96392
-0.977394
-0.993976
-1.01259
-1.03074
-0.937312
-0.930433
-0.925083
-0.922358
-0.922447
-0.925418
-0.931159
-0.939396
-0.949628
-0.959719
-0.913168
-0.907094
-0.90115
-0.89549
-0.889974
-0.884777
-0.880235
-0.876709
-0.874754
-0.87489
-0.889984
-0.886449
-0.881812
-0.875342
-0.86652
-0.855384
-0.842427
-0.828507
-0.8154
-0.807746
-0.87194
-0.871156
-0.868704
-0.86315
-0.854045
-0.841465
-0.826066
-0.809024
-0.792601
-0.781096
-0.860281
-0.861426
-0.860227
-0.855599
-0.847537
-0.836305
-0.822603
-0.807339
-0.792255
-0.778588
-1.42424
-1.6421
-1.19057
-0.820617
-0.5628
-0.25478
-0.0918695
0.00145126
0.0244392
0.0205248
-1.33387
-1.63454
-1.31545
-0.978883
-0.641374
-0.290857
-0.103971
-0.00378758
0.021499
0.019066
-1.27937
-1.67128
-1.4687
-1.13021
-0.717577
-0.329111
-0.118761
-0.0114876
0.0172663
0.0168847
-1.23522
-1.71876
-1.6203
-1.26727
-0.788764
-0.367955
-0.136027
-0.0215331
0.0118267
0.0141283
-1.17397
-1.74479
-1.74069
-1.38195
-0.853263
-0.406386
-0.155567
-0.0337617
0.00524879
0.0109302
-1.08347
-1.73
-1.81822
-1.46928
-0.909667
-0.444086
-0.177344
-0.0480298
-0.00240679
0.00738756
-0.961751
-1.67385
-1.84263
-1.52705
-0.956517
-0.480833
-0.201412
-0.0642807
-0.0110988
0.0035702
-0.830627
-1.58114
-1.82245
-1.55523
-0.991986
-0.515777
-0.22762
-0.0825394
-0.0208564
-0.000458534
-0.722336
-1.46373
-1.77137
-1.55674
-1.01538
-0.547577
-0.255414
-0.102861
-0.0318417
-0.00467678
-0.683261
-1.34156
-1.69917
-1.53953
-1.0297
-0.576177
-0.28412
-0.125167
-0.0442988
-0.00915372
-0.569283
-1.2397
-1.63789
-1.47219
-1.00062
-0.585495
-0.311219
-0.152023
-0.0609908
-0.0151661
-0.630246
-1.14309
-1.45874
-1.298
-0.917233
-0.580006
-0.340735
-0.184936
-0.0816874
-0.0221794
-0.643963
-1.01171
-1.2497
-1.13397
-0.847814
-0.583761
-0.375862
-0.220146
-0.103023
-0.0284216
-0.652231
-0.889942
-1.06807
-0.996027
-0.79075
-0.594106
-0.418532
-0.261131
-0.127735
-0.0352662
-0.620614
-0.782629
-0.915657
-0.877334
-0.74367
-0.612457
-0.46745
-0.303703
-0.151088
-0.0404103
-0.578876
-0.69105
-0.788078
-0.775795
-0.706363
-0.633575
-0.51107
-0.339817
-0.17132
-0.0444094
-0.532908
-0.613683
-0.682367
-0.690348
-0.675388
-0.652423
-0.545347
-0.36811
-0.184878
-0.0467071
-0.488898
-0.551286
-0.60055
-0.628137
-0.652582
-0.657346
-0.556657
-0.378166
-0.19067
-0.0478848
-0.455118
-0.518852
-0.561267
-0.594515
-0.637662
-0.651881
-0.552092
-0.377123
-0.190357
-0.0485278
-0.429874
-0.511291
-0.569113
-0.605918
-0.632834
-0.644079
-0.541268
-0.374865
-0.188197
-0.049352
-0.664291
-0.720937
-0.763801
-0.797996
-0.826045
-0.856
-0.884128
-0.906791
-0.891866
-0.877231
-0.516027
-0.581178
-0.634952
-0.680589
-0.717773
-0.748141
-0.767345
-0.777837
-0.774103
-0.776077
-0.398266
-0.465987
-0.524356
-0.57368
-0.613231
-0.64413
-0.665043
-0.680472
-0.689084
-0.698337
-0.30188
-0.370055
-0.429771
-0.480835
-0.522685
-0.557456
-0.584832
-0.60925
-0.629218
-0.648861
-0.22357
-0.291338
-0.35088
-0.403313
-0.447339
-0.486076
-0.518432
-0.548045
-0.573586
-0.597818
-0.160712
-0.227595
-0.286683
-0.339682
-0.385048
-0.425492
-0.460035
-0.491126
-0.5183
-0.54331
-0.111491
-0.17729
-0.235921
-0.288511
-0.334106
-0.374228
-0.408803
-0.439183
-0.466076
-0.490452
-0.075424
-0.140223
-0.198382
-0.249967
-0.294978
-0.333653
-0.367116
-0.395535
-0.420851
-0.442696
-0.0539131
-0.118101
-0.175976
-0.226946
-0.271544
-0.309122
-0.341415
-0.367452
-0.390259
-0.407795
-0.04473
-0.109319
-0.16747
-0.218852
-0.263592
-0.301415
-0.333337
-0.35844
-0.379266
-0.392197
0.692243
0.622396
0.542289
0.456346
0.363258
0.260708
0.148925
0.0344937
-0.0611561
-0.106887
0.496128
0.420744
0.336525
0.244156
0.141798
0.0279187
-0.0961899
-0.222218
-0.326349
-0.374801
0.281413
0.203376
0.116815
0.0205675
-0.0874566
-0.208376
-0.340251
-0.473492
-0.58277
-0.631953
0.0760888
-0.00506953
-0.0954496
-0.196455
-0.309846
-0.43651
-0.574229
-0.711745
-0.822561
-0.870424
-0.108472
-0.193821
-0.289002
-0.395187
-0.513781
-0.645246
-0.787708
-0.926509
-1.03374
-1.0809
-0.271741
-0.361255
-0.460684
-0.570943
-0.693308
-0.828037
-0.970388
-1.10643
-1.20936
-1.25448
-0.415257
-0.507365
-0.608846
-0.720722
-0.843995
-0.978018
-1.11721
-1.24701
-1.34242
-1.38387
-0.541675
-0.632917
-0.733073
-0.843168
-0.963714
-1.09313
-1.22478
-1.34366
-1.42813
-1.46473
-0.647131
-0.73502
-0.831274
-0.936603
-1.05081
-1.1713
-1.29046
-1.39389
-1.46503
-1.49638
-0.731216
-0.813552
-0.903387
-1.00087
-1.105
-1.21219
-1.31434
-1.399
-1.45589
-1.48241
1.97224
1.98889
2.00611
2.02269
2.03772
2.05045
2.06013
2.06663
2.07188
2.077
1.90736
1.92082
1.93408
1.94602
1.95588
1.96293
1.9664
1.96648
1.96616
1.96793
1.82133
1.8306
1.83865
1.84453
1.84772
1.84748
1.84307
1.83501
1.82754
1.82518
1.71618
1.72071
1.72249
1.72097
1.71592
1.70661
1.69237
1.67415
1.65778
1.6506
1.59186
1.5906
1.58517
1.57536
1.56121
1.54194
1.5169
1.48748
1.46115
1.44875
1.45232
1.44514
1.43159
1.41214
1.3873
1.35639
1.31887
1.27675
1.23938
1.22109
1.29764
1.28399
1.26227
1.23328
1.19768
1.15471
1.10401
1.04832
0.999217
0.974858
1.13671
1.11559
1.08363
1.04291
0.99473
0.938402
0.873652
0.803926
0.743019
0.712616
0.974448
0.945801
0.903204
0.850011
0.788142
0.717005
0.636637
0.551568
0.478256
0.441984
0.824825
0.778808
0.719126
0.650594
0.574159
0.488272
0.392802
0.293169
0.208404
0.166987
1.68179
1.6686
1.65852
1.65169
1.6518
1.65647
1.67677
1.71646
1.78565
1.8966
1.67591
1.66365
1.65456
1.64673
1.64684
1.64926
1.66811
1.70277
1.76309
1.85748
1.67065
1.65875
1.65043
1.64132
1.64132
1.64087
1.65804
1.68592
1.73495
1.80659
1.66589
1.65395
1.64613
1.63551
1.63523
1.6313
1.64659
1.66572
1.70177
1.74338
1.66161
1.64931
1.64166
1.62934
1.62854
1.62057
1.63377
1.64198
1.66417
1.66684
1.65779
1.64485
1.63702
1.62285
1.62121
1.60875
1.61949
1.6147
1.62238
1.57624
1.65441
1.6406
1.63219
1.6161
1.61319
1.59592
1.60362
1.58386
1.57652
1.47008
1.65149
1.63658
1.62718
1.60911
1.60446
1.58216
1.58597
1.54969
1.52634
1.34986
1.64906
1.63279
1.62201
1.6019
1.59503
1.56764
1.56642
1.51238
1.47009
1.21368
1.64714
1.62923
1.61674
1.59451
1.58506
1.5525
1.54604
1.47368
1.41088
1.07308
1.64532
1.62535
1.60963
1.58528
1.57101
1.53236
1.51578
1.42447
1.33987
0.938305
1.64472
1.62189
1.60157
1.57522
1.55437
1.51091
1.48107
1.38186
1.26904
0.918267
1.64598
1.61961
1.59337
1.56575
1.53733
1.49145
1.44775
1.34752
1.21141
0.910157
1.64967
1.61851
1.58526
1.55703
1.52044
1.47419
1.41657
1.32005
1.16434
0.907575
1.6565
1.61839
1.57734
1.54909
1.50306
1.4592
1.38763
1.29891
1.12786
0.90769
1.66712
1.61939
1.5697
1.54197
1.48598
1.44635
1.36138
1.28315
1.10107
0.90713
1.68134
1.61879
1.56124
1.53273
1.46857
1.43445
1.33833
1.27107
1.08249
0.906556
1.70659
1.62243
1.55583
1.52597
1.45352
1.42382
1.31915
1.26276
1.07049
0.907247
1.71934
1.61472
1.54391
1.51426
1.44083
1.41633
1.30681
1.25899
1.06496
0.910386
1.79602
1.62775
1.54747
1.51175
1.43516
1.41314
1.30132
1.25922
1.06248
0.915299
0.679624
0.520288
0.330342
0.148104
-0.0148506
-0.159455
-0.288702
-0.404262
-0.50586
-0.59311
0.634624
0.509579
0.366327
0.222292
0.08855
-0.0340424
-0.147017
-0.253018
-0.351105
-0.439655
0.622971
0.517106
0.402612
0.284555
0.169703
0.0599054
-0.0446177
-0.143654
-0.236189
-0.321341
0.638319
0.539848
0.437347
0.334612
0.233283
0.134134
0.0377646
-0.0549512
-0.143235
-0.225812
0.658072
0.565327
0.470558
0.37743
0.285815
0.194803
0.104744
0.0163237
-0.0686659
-0.149258
0.677938
0.59055
0.501742
0.414951
0.329643
0.244009
0.158248
0.0728776
-0.00949515
-0.0881868
0.696565
0.614139
0.530135
0.447574
0.365918
0.283423
0.200301
0.1172
0.0367168
-0.040269
0.713268
0.635244
0.555207
0.475316
0.395204
0.313884
0.231827
0.150036
0.0707582
-0.00492991
0.728126
0.653607
0.576593
0.497783
0.417244
0.335183
0.252668
0.170954
0.0917208
0.0162988
0.740086
0.667084
0.590678
0.510797
0.428576
0.345241
0.262099
0.180225
0.101032
0.0256255
-1.83613
-1.79427
-1.7046
-1.59205
-1.47824
-1.37473
-1.28576
-1.2124
-1.15492
-1.11378
-1.91691
-1.88047
-1.80533
-1.70824
-1.60689
-1.51282
-1.431
-1.36314
-1.31022
-1.2736
-1.92913
-1.89746
-1.83822
-1.76009
-1.67504
-1.59337
-1.52059
-1.45898
-1.41006
-1.37541
-1.88597
-1.85821
-1.81378
-1.75552
-1.6892
-1.62257
-1.56107
-1.50752
-1.46391
-1.432
-1.8075
-1.78325
-1.75077
-1.71005
-1.66215
-1.61146
-1.5623
-1.51744
-1.47886
-1.44762
-1.71516
-1.6945
-1.67067
-1.64292
-1.61011
-1.57374
-1.53648
-1.5004
-1.46773
-1.44002
-1.62623
-1.6095
-1.59179
-1.57248
-1.55031
-1.52537
-1.49877
-1.47206
-1.44637
-1.42314
-1.55056
-1.53801
-1.5249
-1.51087
-1.49528
-1.47783
-1.45878
-1.43818
-1.41836
-1.39928
-1.49138
-1.48266
-1.47329
-1.46296
-1.45168
-1.43937
-1.42605
-1.41197
-1.3969
-1.38968
-1.44757
-1.44198
-1.43552
-1.42798
-1.41972
-1.41101
-1.40174
-1.39259
-1.37992
-1.37787
-1.41669
-1.41329
-1.40895
-1.4035
-1.39757
-1.39174
-1.3863
-1.38133
-1.37405
-1.35069
-1.39626
-1.39405
-1.39082
-1.38668
-1.38235
-1.37841
-1.375
-1.37184
-1.36676
-1.33987
-1.3841
-1.38176
-1.37868
-1.37506
-1.37142
-1.36826
-1.36595
-1.36412
-1.3608
-1.34952
-1.37716
-1.37429
-1.37157
-1.36957
-1.36856
-1.36883
-1.37058
-1.37383
-1.37872
-1.38771
-1.36769
-1.36502
-1.3641
-1.36604
-1.3708
-1.3783
-1.3885
-1.40144
-1.41748
-1.43874
-1.34505
-1.34429
-1.34694
-1.35446
-1.36657
-1.38284
-1.40296
-1.42667
-1.45366
-1.48419
-1.29876
-1.3013
-1.30812
-1.3207
-1.3387
-1.3616
-1.38895
-1.42034
-1.45497
-1.4924
-1.22544
-1.23168
-1.24221
-1.25826
-1.27995
-1.30686
-1.33828
-1.37332
-1.41155
-1.45537
-1.13307
-1.1418
-1.15435
-1.17144
-1.19392
-1.2216
-1.25366
-1.28949
-1.33036
-1.37991
-1.04452
-1.05401
-1.06641
-1.08239
-1.10331
-1.12904
-1.15868
-1.19189
-1.23068
-1.2779
-1.3391
-1.53906
-1.07303
-0.758062
-0.544066
-0.286887
-0.124092
-0.0386354
-0.00110515
0.00678216
-1.41659
-1.6336
-1.06353
-0.66308
-0.461066
-0.249561
-0.116785
-0.038992
-0.00163625
0.00667101
-1.50104
-1.69853
-1.03738
-0.552041
-0.379859
-0.2137
-0.107141
-0.0352295
0.000772893
0.00781338
-1.59232
-1.74415
-0.999911
-0.445199
-0.307653
-0.182887
-0.0957033
-0.0277409
0.00568784
0.0100435
-1.68433
-1.79188
-0.963184
-0.367001
-0.260285
-0.163357
-0.0851414
-0.0185038
0.01169
0.0128566
-1.75964
-1.83836
-0.939601
-0.334576
-0.245135
-0.157206
-0.0774394
-0.00972082
0.0173331
0.0156721
-1.79405
-1.86009
-0.944193
-0.353268
-0.271073
-0.162587
-0.0734237
-0.00273331
0.021762
0.0180729
-1.7717
-1.84188
-0.976139
-0.424967
-0.326617
-0.175863
-0.0731274
0.00199232
0.0246928
0.019853
-1.68553
-1.77861
-1.03195
-0.535547
-0.401523
-0.195999
-0.0762896
0.00431304
0.026093
0.0209069
-1.54711
-1.69703
-1.10011
-0.671831
-0.482072
-0.222656
-0.0826025
0.00415603
0.025994
0.0211484
-1.1631
-1.11148
-0.930076
-0.834972
-0.620352
-0.312617
-0.113779
-0.021168
0.00964467
0.0106529
-1.1562
-1.0995
-0.923148
-0.838059
-0.628637
-0.317575
-0.115899
-0.0221413
0.00914124
0.0105108
-1.16828
-1.14102
-0.938426
-0.844534
-0.635861
-0.322454
-0.119379
-0.0247513
0.007667
0.0100202
-1.20507
-1.24136
-0.976995
-0.850189
-0.638352
-0.323293
-0.123286
-0.029125
0.00509808
0.00907616
-1.26892
-1.40458
-1.03315
-0.814976
-0.600773
-0.313239
-0.12663
-0.0349337
0.00162278
0.00779903
-1.07251
-1.2246
-1.32597
-1.39055
-1.40483
-1.40758
-1.38412
-1.35133
-1.31128
-1.26626
-1.07331
-1.2278
-1.32752
-1.39022
-1.39916
-1.40113
-1.37654
-1.33923
-1.30593
-1.25672
-1.07607
-1.23225
-1.33104
-1.39179
-1.39859
-1.39995
-1.3751
-1.34118
-1.31345
-1.27389
-1.08264
-1.24095
-1.34026
-1.39881
-1.40754
-1.40566
-1.38377
-1.35733
-1.3365
-1.32029
-1.09393
-1.25494
-1.35564
-1.41237
-1.4246
-1.41847
-1.40162
-1.37997
-1.36633
-1.37078
1.47509
1.46283
1.44315
1.41932
1.39228
1.36091
1.32435
1.28446
1.24993
1.23319
1.59181
1.59269
1.58656
1.57549
1.56071
1.54169
1.51777
1.4904
1.4665
1.45544
1.70607
1.71294
1.71472
1.71274
1.70789
1.69965
1.6873
1.67164
1.65778
1.65186
1.80812
1.81995
1.82869
1.83483
1.83867
1.8396
1.83684
1.83075
1.8251
1.82374
1.89573
1.91134
1.92503
1.93691
1.94699
1.95468
1.9592
1.96063
1.96155
1.96399
1.96346
1.98157
1.99909
2.01563
2.03085
2.0441
2.05457
2.06205
2.06816
2.07376
2.01049
2.03028
2.05033
2.06994
2.08846
2.10524
2.11948
2.13079
2.14026
2.14797
2.03497
2.05543
2.07674
2.09795
2.11821
2.13682
2.15299
2.16624
2.17738
2.18615
2.03664
2.05685
2.07815
2.0994
2.11965
2.13819
2.15423
2.16733
2.17833
2.18703
2.01564
2.0346
2.05453
2.07424
2.09274
2.10931
2.12318
2.13402
2.14304
2.15051
-0.897764
-0.945236
-1.00753
-1.08528
-1.17937
-1.28924
-1.41162
-1.5353
-1.63617
-1.68306
-0.632595
-0.686553
-0.753986
-0.835702
-0.932963
-1.04604
-1.17348
-1.3046
-1.41319
-1.46337
-0.333908
-0.394117
-0.466513
-0.55155
-0.650612
-0.764494
-0.891762
-1.02334
-1.13832
-1.18989
-0.0244159
-0.0892531
-0.16483
-0.251272
-0.349867
-0.461559
-0.585248
-0.713845
-0.825126
-0.878971
0.273196
0.206812
0.13138
0.0469522
-0.0476783
-0.153678
-0.27042
-0.391558
-0.495443
-0.5475
0.54245
0.47902
0.408183
0.329984
0.243204
0.146528
0.0403132
-0.0697811
-0.163876
-0.211671
0.779545
0.7233
0.661013
0.592569
0.516668
0.431927
0.338555
0.241608
0.158893
0.116793
0.992644
0.945326
0.893047
0.835616
0.771586
0.699542
0.619634
0.53636
0.465422
0.429528
1.19114
1.15191
1.10777
1.05969
1.00636
0.94628
0.879455
0.809687
0.750421
0.720794
1.36465
1.33337
1.296
1.25638
1.21379
1.16646
1.11382
1.05854
1.01151
0.988316
1.79362
1.70343
1.68017
1.66951
1.66291
1.66645
1.67249
1.69122
1.67744
1.61126
1.77633
1.70271
1.68041
1.67116
1.66543
1.67068
1.6802
1.70489
1.71136
1.68924
1.76076
1.70102
1.67984
1.67184
1.66701
1.67363
1.68681
1.71884
1.74441
1.7648
1.74679
1.69852
1.67862
1.67165
1.66772
1.67538
1.69171
1.72933
1.77169
1.82637
1.73424
1.69536
1.67687
1.67068
1.66766
1.67604
1.69478
1.73672
1.79284
1.87538
1.72297
1.69167
1.67467
1.669
1.66683
1.67559
1.69603
1.74094
1.80758
1.91097
1.71285
1.68754
1.67207
1.66665
1.66525
1.67401
1.69552
1.74201
1.81577
1.93328
1.70377
1.68309
1.66912
1.6637
1.66293
1.6713
1.69331
1.73998
1.81744
1.9428
1.69564
1.67839
1.66584
1.66019
1.65989
1.66747
1.68943
1.73499
1.81287
1.93967
1.68834
1.67354
1.6623
1.65618
1.65616
1.66253
1.6839
1.72716
1.80226
1.92412
1.96012
1.70557
1.67192
1.65598
1.65006
1.64836
1.64055
1.63818
1.56486
1.50648
1.88571
1.69966
1.67297
1.65905
1.65201
1.64973
1.64143
1.63962
1.56741
1.50245
1.86279
1.70475
1.67664
1.66209
1.6542
1.65209
1.64449
1.64405
1.57849
1.50091
1.83622
1.70457
1.6784
1.66482
1.65675
1.65566
1.65115
1.65406
1.60001
1.5111
1.81319
1.70389
1.67946
1.66724
1.65964
1.66046
1.65971
1.66931
1.63182
1.53467
1.24414
1.12659
0.969587
0.768117
0.525021
0.248559
-0.0482292
-0.346841
-0.627135
-0.871626
1.23857
1.12474
0.973637
0.777807
0.540607
0.268216
-0.0280221
-0.329869
-0.61627
-0.86758
1.24929
1.13222
0.979511
0.786114
0.55342
0.284006
-0.0125556
-0.317766
-0.609432
-0.866316
1.28233
1.15163
0.988429
0.793531
0.563505
0.295784
-0.00181576
-0.310424
-0.606828
-0.868796
1.3397
1.18591
1.00275
0.800079
0.569245
0.302413
0.0045574
-0.306584
-0.607675
-0.87537
)
;

boundaryField
{
    left
    {
        type            zeroGradient;
    }
    right
    {
        type            fixedValue;
        value           uniform 0;
    }
    down
    {
        type            zeroGradient;
    }
    up
    {
        type            zeroGradient;
    }
    cylinder
    {
        type            zeroGradient;
    }
    defaultFaces
    {
        type            empty;
    }
}


// ************************************************************************* //
