/*--------------------------------*- C++ -*----------------------------------*\
  =========                 |
  \\      /  F ield         | OpenFOAM: The Open Source CFD Toolbox
   \\    /   O peration     | Website:  https://openfoam.org
    \\  /    A nd           | Version:  13
     \\/     M anipulation  |
\*---------------------------------------------------------------------------*/
FoamFile
{
    format      ascii;
    class       volVectorField;
    location    "4.05";
    object      U;
}
// * * * * * * * * * * * * * * * * * * * * * * * * * * * * * * * * * * * * * //

dimensions      [0 1 -1 0 0 0 0];

internalField   nonuniform List<vector> 
1800
(
(-0.0331821 0.0274519 1.27418e-20)
(-0.0787633 0.0496425 5.57304e-21)
(-0.103593 0.0571483 -5.03312e-21)
(-0.106325 0.0587408 2.06577e-20)
(-0.082801 0.0599226 7.95547e-20)
(-0.0288764 0.0634136 4.04356e-20)
(0.0582332 0.0710406 -1.88073e-20)
(0.176266 0.0835139 2.26143e-20)
(0.334766 0.126674 1.15624e-19)
(0.416173 0.156799 1.11581e-19)
(-0.0447886 0.0339528 8.53698e-21)
(-0.0880648 0.0618956 -1.90228e-20)
(-0.0896646 0.0679223 1.90619e-22)
(-0.0504705 0.0612439 -3.82381e-20)
(0.0319969 0.0484031 1.54313e-20)
(0.159841 0.0332225 8.9802e-20)
(0.33286 0.0183009 -4.78952e-20)
(0.543754 0.00191065 2.55902e-20)
(0.802309 0.0125832 -1.75094e-19)
(0.946345 0.0178751 1.54985e-19)
(-0.0480572 0.0320369 3.37162e-21)
(-0.0757656 0.0561444 1.23952e-20)
(-0.0403302 0.0586222 1.38886e-21)
(0.0559605 0.0474457 -8.58188e-21)
(0.212684 0.0296142 -9.40719e-20)
(0.425591 0.0100563 1.89319e-20)
(0.684 -0.00747209 3.72923e-20)
(0.970661 -0.0218463 -1.55944e-20)
(1.27423 -0.0255742 1.9213e-22)
(1.52185 -0.0389698 6.78616e-22)
(-0.0435535 0.0247271 -6.63781e-21)
(-0.038685 0.0360505 -2.11186e-20)
(0.0538011 0.0299965 -2.15348e-20)
(0.228864 0.0139551 1.91143e-20)
(0.47791 -0.00477424 1.69969e-20)
(0.782377 -0.0208536 7.2991e-21)
(1.11477 -0.031376 -2.04792e-21)
(1.44544 -0.0352799 5.37155e-20)
(1.75039 -0.0345857 4.03991e-20)
(1.99927 -0.0343911 -1.5785e-20)
(-0.0304626 0.0152485 5.07199e-20)
(0.0291767 0.0118021 4.81665e-20)
(0.203043 -0.00144214 -3.22846e-20)
(0.476198 -0.0167522 -3.97644e-20)
(0.820791 -0.027288 -9.78599e-20)
(1.19546 -0.0300481 1.5932e-21)
(1.55686 -0.0256855 1.17195e-19)
(1.87169 -0.0169426 6.14374e-20)
(2.12008 -0.00724146 2.27012e-21)
(2.30552 -0.00439128 -5.7364e-20)
(-0.00446353 0.00417422 -5.16536e-20)
(0.136682 -0.0113623 -6.30276e-21)
(0.413996 -0.0249919 1.73804e-19)
(0.790136 -0.0297894 -4.23178e-20)
(1.20719 -0.0233728 -1.09147e-19)
(1.60367 -0.00861394 2.14403e-19)
(1.93529 0.00922526 -2.37417e-19)
(2.18243 0.0253668 -3.34736e-19)
(2.34842 0.0366254 2.90047e-19)
(2.44631 0.0419866 1.59475e-21)
(0.0383046 -0.0067715 6.15758e-20)
(0.287108 -0.0268058 -1.29139e-19)
(0.677466 -0.029814 -4.09388e-19)
(1.1366 -0.0142316 1.87597e-19)
(1.57869 0.012788 4.17319e-19)
(1.94183 0.0418139 -1.66161e-21)
(2.20252 0.0659833 -9.34872e-19)
(2.36809 0.0822406 2.62022e-21)
(2.46079 0.0915045 1.18107e-18)
(2.50699 0.0916836 3.29654e-19)
(0.099337 -0.0142025 5.99697e-20)
(0.474545 -0.0261195 3.17478e-19)
(0.967944 -0.00674029 3.2334e-19)
(1.46945 0.0338503 -1.11852e-19)
(1.88732 0.0775673 -3.99166e-19)
(2.18431 0.11284 -1.52871e-19)
(2.3683 0.13599 0)
(2.46799 0.14828 5.1274e-19)
(2.5142 0.15251 -7.80896e-21)
(2.52888 0.150503 -4.9818e-19)
(0.176507 -0.0140829 5.58778e-20)
(0.683231 -0.00201978 3.14686e-19)
(1.25156 0.0484728 5.76293e-19)
(1.75203 0.111853 -5.88724e-19)
(2.11569 0.164533 -5.15933e-19)
(2.34117 0.19905 2.19047e-19)
(2.46129 0.217246 -1.06481e-18)
(2.51436 0.223847 -8.05572e-19)
(2.52976 0.223481 1.00594e-18)
(2.52498 0.216992 8.78794e-19)
(0.264418 -0.00278617 -5.07467e-20)
(0.892056 0.0491341 2.45595e-19)
(1.49986 0.133917 1.57789e-19)
(1.96876 0.21368 -1.25328e-18)
(2.26901 0.267968 4.94761e-20)
(2.43117 0.296902 2.59858e-18)
(2.50285 0.307527 -1.51976e-18)
(2.52442 0.307179 -9.05516e-19)
(2.52148 0.300802 3.18981e-19)
(2.50586 0.290089 -7.32594e-19)
(-0.008608 0.0180098 -1.20238e-19)
(-0.0632586 0.0802833 -4.82011e-20)
(-0.135226 0.126098 1.54521e-21)
(-0.213484 0.149547 1.35409e-20)
(-0.290278 0.15857 4.18826e-21)
(-0.363794 0.161313 2.0006e-19)
(-0.433312 0.162297 2.82684e-20)
(-0.498669 0.163491 -2.38492e-19)
(-0.562401 0.165879 -1.08073e-20)
(-0.62909 0.170395 2.97066e-20)
(-0.0144794 0.0770642 -2.11782e-20)
(-0.0672054 0.201828 -4.22945e-20)
(-0.131846 0.278364 5.8573e-20)
(-0.201308 0.314839 3.69989e-20)
(-0.269659 0.328057 3.63052e-20)
(-0.335209 0.330958 1.79156e-19)
(-0.397157 0.330082 -2.04823e-19)
(-0.455075 0.327913 -2.18654e-19)
(-0.510555 0.325459 2.94265e-19)
(-0.567195 0.323893 -8.14739e-20)
(-0.0225715 0.108078 -6.90174e-21)
(-0.0689787 0.277522 -3.47474e-20)
(-0.117591 0.387249 -1.77137e-20)
(-0.167455 0.445116 -1.35481e-19)
(-0.216461 0.469421 -4.14433e-20)
(-0.263414 0.476608 4.27053e-19)
(-0.307391 0.476301 -8.86919e-20)
(-0.347593 0.47268 -2.81863e-19)
(-0.384231 0.467249 3.17398e-19)
(-0.419457 0.461127 1.84624e-19)
(-0.0272618 0.10521 1.54663e-21)
(-0.0664028 0.289528 -2.23655e-21)
(-0.0977785 0.428081 -2.47507e-21)
(-0.125312 0.515423 1.51206e-20)
(-0.151103 0.561045 3.39293e-20)
(-0.175537 0.579723 -1.40406e-19)
(-0.198099 0.58374 -1.03408e-19)
(-0.21783 0.580353 1.16016e-19)
(-0.233582 0.572762 -7.83925e-21)
(-0.242777 0.562896 6.08973e-21)
(-0.0246267 0.0775786 0)
(-0.0559716 0.242189 -9.49144e-21)
(-0.07401 0.391648 3.45196e-20)
(-0.0831471 0.506847 2.87723e-20)
(-0.087472 0.583097 1.36468e-19)
(-0.0890196 0.625966 -8.99685e-20)
(-0.0884521 0.644714 3.14641e-20)
(-0.0856123 0.647661 4.74209e-20)
(-0.0798245 0.640371 0)
(-0.0647403 0.627252 1.08835e-20)
(-0.0156781 0.0418527 -2.03579e-20)
(-0.0385043 0.161233 5.11675e-20)
(-0.0493779 0.294033 4.32462e-20)
(-0.0493898 0.4167 -4.83886e-20)
(-0.0411578 0.51518 4.4603e-20)
(-0.0268465 0.585143 3.01486e-20)
(-0.00800256 0.628504 -1.19038e-19)
(0.0145223 0.649878 -2.96966e-20)
(0.0397406 0.65359 1.36396e-19)
(0.0749734 0.643336 5.01305e-21)
(-0.00498152 0.0129675 5.72724e-21)
(-0.0196246 0.0820982 8.22934e-20)
(-0.0289198 0.178425 -4.73256e-20)
(-0.0296934 0.282215 -7.99309e-21)
(-0.0212005 0.378205 -1.64435e-20)
(-0.00389595 0.45736 -4.31967e-20)
(0.0211613 0.516095 -9.3984e-21)
(0.0528964 0.554596 -4.20409e-20)
(0.0899571 0.574487 8.43033e-21)
(0.134548 0.572363 1.62954e-20)
(0.00200503 -0.00220136 1.42544e-20)
(-0.00892128 0.0289261 -3.32989e-20)
(-0.0219943 0.086194 -5.22564e-20)
(-0.0308619 0.156689 1.68234e-20)
(-0.0317692 0.22909 1.34573e-20)
(-0.0231211 0.294843 1.72653e-19)
(-0.00469303 0.348744 2.05251e-19)
(0.0233067 0.388569 -1.03324e-19)
(0.0615022 0.413358 -6.02401e-20)
(0.105851 0.408862 5.27172e-20)
(0.00106178 -0.00357451 1.3141e-20)
(-0.0159735 0.00713919 -2.35127e-20)
(-0.0383785 0.0336481 6.13756e-20)
(-0.0588398 0.069989 8.84794e-20)
(-0.0719485 0.110526 -8.86164e-20)
(-0.0747061 0.149743 2.0373e-19)
(-0.0654877 0.18331 -1.14932e-20)
(-0.0429261 0.208105 -3.93057e-19)
(-0.00518858 0.220344 -8.05213e-20)
(0.0454621 0.206992 6.45348e-20)
(-0.0141422 0.0101886 1.80362e-21)
(-0.0494451 0.0201832 -2.30032e-21)
(-0.0833329 0.0295877 -1.16726e-20)
(-0.11056 0.0413419 4.42897e-20)
(-0.125862 0.0562979 8.0079e-20)
(-0.12555 0.0732697 -1.17806e-19)
(-0.107214 0.0909046 -1.33273e-19)
(-0.0691479 0.108115 9.61528e-20)
(-0.00948768 0.121875 -1.07166e-19)
(0.0689979 0.122963 -6.37609e-20)
(-0.961218 0.207132 -6.90589e-19)
(-1.2007 0.551156 3.97203e-19)
(-0.7178 0.59759 -3.68402e-19)
(-0.214152 0.0387152 5.62349e-19)
(0.299864 -0.444995 -2.06422e-19)
(0.569916 -0.561999 -1.53843e-19)
(0.792436 -0.568081 -5.98098e-20)
(0.915986 -0.453591 7.81563e-21)
(0.984287 -0.385278 2.5386e-20)
(1.06838 -0.245489 3.78231e-21)
(-0.855719 0.319766 -3.39108e-19)
(-1.13128 0.520287 5.68727e-20)
(-0.60511 0.427866 -2.48375e-20)
(-0.0248835 -0.115447 -5.93818e-19)
(0.465732 -0.550449 -9.40849e-19)
(0.723603 -0.636437 0)
(0.917909 -0.612975 -6.99538e-20)
(1.00853 -0.479275 4.83402e-22)
(1.0603 -0.40117 -3.56574e-22)
(1.10898 -0.255741 -1.42648e-20)
(-0.620642 0.419406 3.10586e-19)
(-0.875795 0.497225 -1.1789e-19)
(-0.376659 0.268102 3.92178e-19)
(0.206077 -0.258674 8.42198e-20)
(0.660961 -0.646318 5.79367e-20)
(0.890758 -0.702973 -6.67931e-20)
(1.04952 -0.64926 0)
(1.10232 -0.49807 0)
(1.13508 -0.410294 -2.86928e-20)
(1.14935 -0.26127 0)
(-0.322319 0.487681 2.3235e-20)
(-0.511571 0.480694 1.34585e-19)
(-0.0725374 0.135789 -4.23808e-20)
(0.47417 -0.382628 0)
(0.875814 -0.729983 6.15504e-19)
(1.06287 -0.758913 -1.1962e-19)
(1.182 -0.675983 0)
(1.19515 -0.509188 1.02319e-19)
(1.20625 -0.41257 0)
(1.18739 -0.262198 1.81587e-20)
(-0.0346998 0.519209 1.72365e-19)
(-0.114937 0.465059 5.27893e-20)
(0.26121 0.0361714 2.16272e-20)
(0.759909 -0.483321 0)
(1.10127 -0.798434 2.208e-19)
(1.23427 -0.802356 2.45705e-19)
(1.31006 -0.692945 -4.64425e-20)
(1.2844 -0.512482 -6.40909e-21)
(1.27254 -0.408044 -2.14309e-20)
(1.22181 -0.258677 1.38483e-21)
(0.206148 0.51822 1.46769e-18)
(0.249192 0.452873 2.28632e-19)
(0.5866 -0.0351384 -7.67551e-21)
(1.04643 -0.561464 4.10308e-19)
(1.32636 -0.850669 -3.32356e-19)
(1.40047 -0.832753 1.02132e-19)
(1.43008 -0.700392 2.44012e-19)
(1.36749 -0.508346 -2.06179e-19)
(1.33305 -0.39701 7.57297e-22)
(1.25198 -0.250911 -3.97749e-20)
(0.378886 0.474542 7.1053e-20)
(0.54991 0.439436 -1.43182e-19)
(0.884261 -0.0835684 -1.12938e-20)
(1.32088 -0.618489 -8.54468e-21)
(1.54097 -0.886281 -1.61425e-19)
(1.55653 -0.85051 -6.68078e-20)
(1.53959 -0.69903 -9.00797e-20)
(1.44237 -0.497557 2.10826e-20)
(1.387 -0.380003 3.00195e-20)
(1.27763 -0.23921 2.72871e-22)
(0.459848 0.37586 -5.26302e-19)
(0.768043 0.415292 -2.93557e-19)
(1.14903 -0.118683 0)
(1.57708 -0.655814 6.9242e-20)
(1.73886 -0.904533 8.96088e-20)
(1.69881 -0.855934 -3.29068e-20)
(1.63728 -0.689715 -2.68244e-19)
(1.50787 -0.481125 8.65596e-20)
(1.43373 -0.357803 -1.59765e-21)
(1.29864 -0.223996 -1.94464e-20)
(0.412411 0.231944 4.05938e-19)
(0.895007 0.365464 8.43562e-19)
(1.39038 -0.150703 -2.09641e-19)
(1.81178 -0.675388 -3.68256e-20)
(1.91544 -0.905707 3.03381e-20)
(1.82464 -0.849326 -1.7513e-19)
(1.72265 -0.673222 9.94694e-20)
(1.56378 -0.460186 -2.80259e-21)
(1.47274 -0.331473 7.64247e-21)
(1.31494 -0.205812 3.05114e-20)
(0.355946 0.03116 -2.54942e-19)
(0.966672 0.264394 8.0047e-19)
(1.63035 -0.179754 1.44087e-19)
(2.02321 -0.683138 1.20259e-19)
(2.06774 -0.894101 -8.47803e-21)
(1.93234 -0.832636 -5.74188e-20)
(1.79559 -0.650524 -3.07134e-20)
(1.61051 -0.435898 0)
(1.50373 -0.302372 -5.14761e-20)
(1.32656 -0.185376 3.65294e-20)
(1.02324 -0.02092 -2.70818e-19)
(1.39159 0.0807921 -4.68271e-19)
(2.01609 -0.2969 5.32547e-19)
(2.29005 -0.705069 -3.14642e-20)
(2.24464 -0.869777 -3.76099e-20)
(2.0525 -0.799811 -6.69927e-20)
(1.87357 -0.612362 -1.04338e-19)
(1.65753 -0.398987 5.39077e-20)
(1.5311 -0.261393 -2.12881e-20)
(1.33563 -0.157576 -2.05617e-20)
(1.93689 0.0126445 -3.46926e-20)
(2.13909 -0.0258172 -6.03704e-19)
(2.5689 -0.407161 -1.02791e-18)
(2.57746 -0.726751 1.53075e-19)
(2.35512 -0.823706 -4.0462e-19)
(2.09242 -0.715813 -4.59139e-21)
(1.88914 -0.514456 1.52788e-19)
(1.65727 -0.313904 -3.08323e-20)
(1.52596 -0.189293 1.07366e-19)
(1.32769 -0.1147 1.05219e-20)
(2.29506 -0.0336744 4.48279e-20)
(2.5259 -0.111993 2.87314e-20)
(2.69397 -0.433694 -8.64338e-21)
(2.5191 -0.655201 1.15519e-35)
(2.31188 -0.725096 -3.88983e-20)
(2.10421 -0.632164 -1.22688e-34)
(1.91781 -0.441844 3.44943e-20)
(1.67541 -0.254084 1.1883e-33)
(1.52941 -0.134112 -4.63353e-21)
(1.31975 -0.0780953 8.83941e-21)
(2.41119 -0.0571237 6.36255e-35)
(2.57394 -0.151144 3.03297e-19)
(2.60776 -0.398955 4.42257e-19)
(2.50093 -0.59958 0)
(2.35682 -0.676018 1.37883e-19)
(2.12826 -0.570413 -3.79926e-20)
(1.8975 -0.358677 -1.36752e-19)
(1.62893 -0.171845 2.92547e-33)
(1.47106 -0.0615172 -6.90947e-20)
(1.27475 -0.0347677 -1.0965e-20)
(2.42459 -0.0912694 4.59956e-20)
(2.50933 -0.17243 -6.86415e-21)
(2.54152 -0.38113 0)
(2.47323 -0.563103 0)
(2.29121 -0.602837 0)
(2.01686 -0.468163 0)
(1.77259 -0.257569 7.46185e-21)
(1.51954 -0.0924979 3.21255e-33)
(1.3794 -0.00111112 -6.36315e-21)
(1.21428 -0.000164965 -1.5487e-33)
(2.40767 -0.112589 6.21343e-20)
(2.44666 -0.186182 0)
(2.48134 -0.361919 0)
(2.39816 -0.509779 0)
(2.15002 -0.516489 0)
(1.82332 -0.368229 0)
(1.55911 -0.167013 -1.36685e-20)
(1.3295 -0.0237717 8.52739e-20)
(1.22195 0.0494148 -7.13931e-21)
(1.11332 0.0285616 -5.99722e-21)
(2.37166 -0.127896 0)
(2.37725 -0.192132 1.21787e-19)
(2.38653 -0.336282 1.63407e-19)
(2.19856 -0.437244 0)
(1.81742 -0.395851 4.6863e-20)
(1.4382 -0.240511 -2.07127e-20)
(1.19646 -0.0723466 -5.29529e-20)
(1.03642 0.0318027 -3.34161e-20)
(0.992327 0.0779685 2.59533e-20)
(0.964542 0.0423171 -1.84113e-20)
(2.25111 -0.12782 -6.27049e-21)
(2.21179 -0.182238 -5.19511e-21)
(2.09839 -0.276634 3.57587e-21)
(1.72153 -0.306451 -3.53526e-35)
(1.23958 -0.232921 -1.35907e-21)
(0.882032 -0.114284 2.86773e-36)
(0.722222 -0.00879033 -1.29902e-20)
(0.669729 0.0522669 -5.1088e-20)
(0.704285 0.0748574 -7.38579e-21)
(0.754808 0.0389434 1.57227e-20)
(1.81735 -0.107799 3.79487e-20)
(1.68189 -0.141922 -3.48501e-20)
(1.38319 -0.152018 -2.73932e-20)
(0.907871 -0.117236 0)
(0.515471 -0.0755427 -1.72083e-20)
(0.304264 -0.0348958 -1.156e-20)
(0.251996 0.00730898 -2.61946e-20)
(0.28751 0.0365776 -2.87611e-21)
(0.37236 0.0444621 -3.63142e-21)
(0.462316 0.0227106 -1.44867e-20)
(0.730876 -0.026719 0)
(0.547772 -0.0142424 0)
(0.341688 0.0018941 0)
(0.171792 0.000892748 0)
(0.0456103 -0.00825927 0)
(-0.046055 -0.00832893 0)
(-0.0707224 -0.00144064 -1.25128e-20)
(-0.0334418 0.00484838 7.31245e-35)
(0.0324435 0.00610838 -7.85829e-21)
(0.100444 0.0031007 -1.58283e-20)
(2.45185 0.264948 7.09252e-19)
(2.49023 0.204485 4.23641e-20)
(2.50638 0.144089 -6.56599e-20)
(2.52484 0.100073 -2.09807e-19)
(2.52035 0.0480762 -3.35113e-20)
(2.48872 0.0254196 -4.99073e-20)
(2.43448 -0.0237895 -1.62167e-19)
(2.19426 -0.016572 2.1194e-20)
(2.0111 -0.0562928 0)
(1.31465 -0.00215303 6.40491e-20)
(2.37791 0.225361 2.33249e-19)
(2.39276 0.18316 -2.53555e-19)
(2.45659 0.128158 -6.03257e-20)
(2.43914 0.0957737 -1.06563e-19)
(2.52146 0.0470328 9.10533e-20)
(2.44995 0.0194901 1.52335e-19)
(2.55694 -0.019851 -1.81569e-19)
(2.38384 -0.0567168 1.30622e-20)
(2.46416 -0.0690017 -3.90127e-20)
(2.1185 -0.117925 5.45881e-20)
(2.33043 0.194528 -1.02885e-19)
(2.3173 0.150672 2.38146e-19)
(2.40818 0.116467 1.35515e-19)
(2.36545 0.0724126 -2.34341e-19)
(2.46905 0.0502417 -4.6051e-20)
(2.39855 -0.00053537 3.17498e-19)
(2.50587 -0.00533596 5.23682e-20)
(2.42138 -0.0681417 -4.9891e-20)
(2.49479 -0.0516334 -2.26762e-20)
(2.40587 -0.121324 -1.92241e-20)
(2.28383 0.162586 -2.8474e-19)
(2.27825 0.113911 -6.25597e-20)
(2.3531 0.099608 4.78925e-20)
(2.33282 0.0467704 -2.93145e-21)
(2.40137 0.0439659 -2.18691e-19)
(2.37748 -0.0137058 -6.50685e-20)
(2.42973 -0.00460214 1.72929e-19)
(2.41914 -0.0637807 -1.26256e-20)
(2.44327 -0.0470347 3.16624e-20)
(2.452 -0.100934 1.05161e-20)
(2.23872 0.126757 3.15272e-20)
(2.25514 0.082247 1.32758e-19)
(2.3028 0.0744571 -8.44402e-21)
(2.31324 0.0275932 1.40257e-19)
(2.34832 0.0264293 -5.81552e-20)
(2.35966 -0.020119 -1.93877e-19)
(2.37954 -0.0169093 2.88935e-20)
(2.39768 -0.0589847 -5.49769e-20)
(2.40402 -0.0557141 -1.87937e-20)
(2.4284 -0.0898165 -2.41507e-20)
(2.19999 0.0880287 -1.57887e-19)
(2.22976 0.0537817 -6.33717e-20)
(2.26238 0.0447632 -1.77318e-20)
(2.28781 0.0103385 9.57018e-20)
(2.31025 0.00423475 2.63146e-19)
(2.33363 -0.0282433 -5.63432e-20)
(2.34668 -0.0334135 5.06344e-21)
(2.36919 -0.0620309 -7.99897e-20)
(2.37549 -0.0681269 -1.17383e-19)
(2.39721 -0.0919366 -1.78021e-20)
(2.1524 0.0504 -4.86879e-20)
(2.18582 0.0262965 -1.14926e-19)
(2.21324 0.0160203 -1.48156e-19)
(2.24326 -0.00763629 -2.55725e-19)
(2.26363 -0.0166921 8.30004e-20)
(2.29116 -0.0393141 6.77381e-20)
(2.30484 -0.048412 -1.37471e-20)
(2.33081 -0.0696738 7.96788e-20)
(2.33828 -0.0794679 -7.09203e-20)
(2.36444 -0.0991103 -4.71103e-20)
(2.04156 0.0162278 6.05589e-20)
(2.07458 0.000287013 2.05925e-20)
(2.09509 -0.00833839 1.5745e-20)
(2.1288 -0.0241903 -3.35545e-20)
(2.14333 -0.0320307 -3.19432e-20)
(2.17944 -0.0482457 -5.96313e-20)
(2.18702 -0.0561651 -4.69333e-20)
(2.22757 -0.0732901 1.07215e-19)
(2.22663 -0.081888 -4.37059e-20)
(2.27443 -0.100258 2.06661e-21)
(1.72466 -0.0118137 -7.16651e-20)
(1.74499 -0.0197885 -1.63539e-20)
(1.75211 -0.0247845 1.25978e-19)
(1.77734 -0.0326256 -2.10248e-20)
(1.77941 -0.0371975 -3.59915e-20)
(1.81261 -0.0457939 7.43297e-20)
(1.807 -0.0507276 -5.77466e-20)
(1.85134 -0.0610069 4.66053e-20)
(1.83393 -0.0673112 -2.35401e-20)
(1.89355 -0.0801547 -9.65032e-20)
(0.874862 -0.0105183 5.13203e-20)
(0.86766 -0.00989156 4.46336e-20)
(0.859301 -0.00926543 4.47961e-20)
(0.855858 -0.00896812 7.49225e-20)
(0.848216 -0.00899564 -3.81843e-20)
(0.849807 -0.00932462 -5.33491e-20)
(0.839691 -0.0101555 2.42292e-20)
(0.848694 -0.0117566 -2.20582e-21)
(0.827464 -0.0128072 3.31448e-21)
(0.853288 -0.0189365 -5.00982e-21)
(1.54296 0.945886 -8.10299e-20)
(1.52738 0.991565 2.57113e-20)
(1.53083 1.04478 -6.10593e-19)
(1.53915 1.10512 2.25799e-19)
(1.54521 1.16853 1.14907e-18)
(1.5403 1.22684 -1.41241e-19)
(1.50251 1.25754 -1.02122e-18)
(1.38226 1.20898 -2.61564e-21)
(1.09264 0.987523 -4.99425e-19)
(0.510242 0.472084 1.15956e-19)
(1.70411 0.917599 0)
(1.69323 0.961786 7.06261e-19)
(1.69313 1.01122 1.56721e-18)
(1.70103 1.06901 -9.67835e-19)
(1.71021 1.13079 -2.26298e-18)
(1.7083 1.18679 -1.47759e-19)
(1.6681 1.21319 -1.89272e-19)
(1.53252 1.1591 6.89989e-19)
(1.20519 0.937127 1.0294e-18)
(0.556895 0.440273 4.05877e-19)
(1.85205 0.88098 6.51932e-20)
(1.84997 0.924475 0)
(1.85138 0.970656 -6.44535e-20)
(1.86004 1.02365 9.86245e-19)
(1.87116 1.08026 5.33424e-20)
(1.87015 1.13034 -2.20377e-18)
(1.82473 1.14961 1.39179e-18)
(1.67068 1.08913 8.17269e-19)
(1.30392 0.869219 -8.76846e-19)
(0.593953 0.399294 -2.5859e-19)
(1.98302 0.834596 -1.78263e-19)
(1.99019 0.876096 -1.31575e-19)
(1.99664 0.91862 2.69084e-19)
(2.00804 0.966117 -3.33995e-19)
(2.02083 1.01607 -1.54407e-18)
(2.01879 1.0584 -1.19994e-18)
(1.9652 1.06865 1.25546e-18)
(1.78895 1.00017 8.2552e-19)
(1.38052 0.784536 0)
(0.616928 0.349706 0)
(2.09748 0.774429 -8.77902e-19)
(2.11287 0.813078 -1.61265e-18)
(2.12562 0.851783 -6.20114e-19)
(2.1407 0.893821 -3.18197e-20)
(2.15462 0.936723 0)
(2.14956 0.969529 1.27138e-19)
(2.08344 0.969332 1.46024e-19)
(1.8793 0.894724 1.81284e-19)
(1.42825 0.68587 -2.58872e-19)
(0.62244 0.292631 -6.462e-20)
(2.19845 0.704448 1.04539e-18)
(2.21988 0.738869 -3.89169e-20)
(2.2379 0.772919 -1.22746e-18)
(2.25595 0.808811 0)
(2.26932 0.843525 0)
(2.25707 0.866485 0)
(2.17215 0.855711 1.38751e-18)
(1.93494 0.774316 -1.51903e-18)
(1.44191 0.574727 -9.52837e-19)
(0.607722 0.23085 1.75081e-20)
(2.28612 0.624504 -1.35031e-18)
(2.31179 0.65415 -2.83482e-18)
(2.33318 0.683435 -4.91581e-21)
(2.35215 0.713094 5.74599e-19)
(2.36158 0.739469 -3.40786e-20)
(2.33671 0.752018 1.20113e-18)
(2.22643 0.730214 -6.6282e-19)
(1.95048 0.642735 -1.71946e-18)
(1.41643 0.456179 8.68295e-20)
(0.571729 0.16849 6.89208e-20)
(2.36203 0.540758 -1.04274e-18)
(2.38872 0.565417 1.44199e-20)
(2.41069 0.589144 3.91977e-19)
(2.42741 0.611733 -3.79287e-19)
(2.42829 0.628936 5.9103e-19)
(2.38407 0.630305 1.55276e-18)
(2.24023 0.597439 -1.24668e-19)
(1.9195 0.505765 -8.86982e-19)
(1.34798 0.336973 1.97558e-19)
(0.515277 0.110135 3.62811e-20)
(2.42359 0.454185 3.76974e-19)
(2.44961 0.474399 7.32685e-20)
(2.46941 0.492512 -3.847e-19)
(2.47983 0.507781 -9.0648e-19)
(2.46589 0.515506 5.8209e-20)
(2.3936 0.505691 3.96205e-20)
(2.20675 0.462886 -1.06817e-18)
(1.83626 0.370207 4.63184e-19)
(1.23535 0.224497 1.31602e-19)
(0.441422 0.060137 -4.05282e-20)
(2.47162 0.370562 6.90175e-19)
(2.49401 0.385891 -1.02755e-18)
(2.50801 0.397882 1.49785e-19)
(2.50642 0.405492 2.01867e-18)
(2.46917 0.403655 9.67547e-19)
(2.3581 0.383339 -2.08231e-18)
(2.11858 0.332865 -1.89354e-18)
(1.69661 0.243687 7.76192e-19)
(1.08085 0.126294 -4.09231e-20)
(0.355425 0.0218963 -1.08546e-19)
(0.551755 0.36917 -1.94282e-19)
(0.510637 0.382186 -1.73956e-19)
(0.464257 0.396003 8.45725e-20)
(0.413272 0.410762 -2.70605e-19)
(0.357389 0.426332 -2.75132e-20)
(0.295769 0.441381 2.33382e-19)
(0.227433 0.450401 4.5088e-20)
(0.152858 0.437596 -7.9768e-21)
(0.0792608 0.368899 1.43659e-20)
(0.0157457 0.187912 1.53292e-20)
(0.590791 0.47751 1.51003e-19)
(0.550855 0.497361 1.94707e-19)
(0.506516 0.518622 4.33307e-20)
(0.458008 0.541439 -6.16686e-20)
(0.404714 0.565565 -2.4005e-19)
(0.345532 0.589125 -8.92519e-21)
(0.278805 0.604653 7.91901e-20)
(0.203225 0.590728 3.3266e-20)
(0.122397 0.500543 -1.10215e-19)
(0.0382518 0.256354 -3.79083e-20)
(0.648072 0.578154 -1.38304e-19)
(0.609576 0.60392 -1.25116e-19)
(0.567802 0.631582 1.1039e-19)
(0.522519 0.6616 8.19307e-20)
(0.472828 0.693849 -7.54266e-20)
(0.417325 0.725999 -3.70157e-20)
(0.353322 0.748548 -1.05168e-19)
(0.276719 0.734321 -6.62448e-20)
(0.185396 0.623984 -6.40445e-20)
(0.0710327 0.31998 1.13533e-21)
(0.723215 0.674903 5.45891e-20)
(0.686713 0.707188 -4.06741e-20)
(0.648438 0.741245 -8.74762e-20)
(0.607163 0.77775 -3.71008e-20)
(0.561551 0.8167 -6.90075e-20)
(0.510008 0.855415 -1.16168e-21)
(0.448828 0.882572 -2.62413e-19)
(0.370531 0.865878 4.77478e-20)
(0.265507 0.735215 -3.07835e-19)
(0.112514 0.376262 4.88711e-20)
(0.81166 0.755242 -1.68665e-21)
(0.777815 0.792568 9.49944e-21)
(0.744257 0.832207 -4.77367e-20)
(0.708878 0.875201 -2.50998e-19)
(0.669559 0.921319 1.16609e-19)
(0.623908 0.967161 2.90045e-20)
(0.5666 0.999537 5.00293e-20)
(0.485956 0.981335 -1.64961e-19)
(0.363192 0.832524 3.74921e-19)
(0.162378 0.424561 2.73499e-19)
(0.916749 0.834577 -7.35577e-20)
(0.884643 0.876403 -1.64306e-19)
(0.854468 0.919375 3.12223e-20)
(0.823535 0.965936 9.69676e-20)
(0.789685 1.01642 3.48501e-19)
(0.750023 1.06675 2.55512e-19)
(0.697105 1.1015 6.24399e-19)
(0.614048 1.0791 2.58685e-19)
(0.471598 0.911981 1.47868e-19)
(0.217487 0.462236 2.03124e-19)
(1.02804 0.887695 -1.03218e-19)
(1.00207 0.934338 5.64462e-19)
(0.979754 0.981866 3.76245e-19)
(0.956515 1.03278 -4.88501e-19)
(0.929592 1.08761 -2.46554e-19)
(0.895944 1.14214 6.55553e-19)
(0.846494 1.17939 -1.04089e-19)
(0.758874 1.15384 -4.43852e-19)
(0.59229 0.971558 1.87472e-20)
(0.277441 0.488715 2.48227e-19)
(1.14651 0.942069 2.82487e-19)
(1.12085 0.989039 5.70414e-20)
(1.10334 1.03685 -7.44301e-19)
(1.08817 1.08952 1.6104e-19)
(1.07068 1.14671 5.71829e-19)
(1.0458 1.2028 -3.17572e-19)
(1.0015 1.23908 -9.91956e-20)
(0.90936 1.20728 -1.83301e-19)
(0.71691 1.01006 1.84585e-20)
(0.338391 0.50288 -2.93398e-19)
(1.27403 0.961529 1.80876e-20)
(1.25881 1.01236 -5.42853e-19)
(1.24864 1.06118 -4.60933e-21)
(1.23908 1.1149 4.68338e-19)
(1.22746 1.1744 -4.87362e-19)
(1.20852 1.23296 9.5567e-19)
(1.16706 1.26948 6.42607e-19)
(1.06753 1.23304 -9.47013e-19)
(0.845219 1.02489 -7.34571e-20)
(0.399162 0.504331 -3.2043e-19)
(1.37545 0.973178 -3.26477e-19)
(1.37172 1.02466 -3.09922e-19)
(1.37858 1.07503 2.90803e-19)
(1.38357 1.12932 7.69143e-19)
(1.38322 1.18806 2.76414e-19)
(1.3726 1.2448 -7.93932e-19)
(1.33427 1.27761 1.03051e-19)
(1.22597 1.2344 2.14744e-19)
(0.971469 1.01749 -2.86727e-19)
(0.457074 0.493903 -2.25944e-19)
(0.997651 0.00881196 5.5354e-22)
(1.01114 0.0372126 -1.61971e-20)
(1.02034 0.0476809 -1.17264e-20)
(1.03133 0.0697835 0)
(1.02658 0.0881128 1.30069e-20)
(1.02379 0.106975 1.92483e-20)
(1.00115 0.136283 2.50813e-20)
(0.960875 0.172401 5.9802e-20)
(0.883004 0.236017 -9.68203e-20)
(0.731134 0.30373 -1.16168e-19)
(0.99905 0.00679705 3.31065e-20)
(1.00852 0.0352239 -5.2105e-20)
(1.0195 0.0447096 2.08849e-22)
(1.02901 0.0694278 -1.47776e-20)
(1.02602 0.0883297 6.73198e-21)
(1.02414 0.111699 -1.01537e-20)
(1.00187 0.145186 -5.87813e-20)
(0.967682 0.190589 0)
(0.891064 0.272411 2.02426e-19)
(0.762564 0.37423 -2.6365e-19)
(0.999871 0.00499286 -2.36437e-20)
(1.00716 0.0336959 1.43075e-20)
(1.01867 0.0414334 3.06859e-20)
(1.02843 0.0696821 8.06708e-21)
(1.02572 0.0879599 -1.66533e-20)
(1.0272 0.117148 1.29614e-21)
(1.00358 0.153338 -4.28556e-20)
(0.979751 0.209242 -7.3876e-21)
(0.902673 0.307336 4.33783e-22)
(0.808961 0.441963 6.55428e-19)
(1.00023 0.00328431 -2.63021e-20)
(1.0068 0.0325771 1.984e-21)
(1.01794 0.0378381 2.52234e-20)
(1.02933 0.0704967 1.70952e-20)
(1.02588 0.0869282 -8.48383e-21)
(1.03264 0.123359 -1.25316e-20)
(1.00646 0.160364 6.37812e-20)
(0.996827 0.228821 -2.59848e-21)
(0.917386 0.33967 -2.3046e-19)
(0.869955 0.505365 7.62625e-20)
(1.0003 0.0015538 1.80753e-20)
(1.0071 0.0317676 -2.60006e-20)
(1.01754 0.033951 -2.04139e-20)
(1.03139 0.0717425 1.02096e-20)
(1.02692 0.0852555 0)
(1.03984 0.130226 0)
(1.01131 0.166161 5.5627e-20)
(1.01725 0.249163 1.37995e-21)
(0.937637 0.36931 -1.08365e-19)
(0.941373 0.562886 8.92507e-20)
(1.00031 -0.000223479 5.04204e-21)
(1.00768 0.031149 2.06441e-20)
(1.01772 0.0298176 -5.66019e-20)
(1.03423 0.0732504 -2.00631e-20)
(1.02923 0.0830022 -4.45029e-22)
(1.04842 0.137641 5.55915e-20)
(1.01833 0.170508 8.71639e-20)
(1.04151 0.270763 3.93951e-23)
(0.960062 0.394016 1.77676e-19)
(1.02963 0.620417 -2.04737e-19)
(1.0004 -0.00205678 -1.92435e-20)
(1.00823 0.0305812 1.07252e-20)
(1.01876 0.0254854 -1.5867e-20)
(1.03751 0.0748152 -4.29086e-20)
(1.03328 0.0803029 1.46603e-21)
(1.05764 0.145293 -1.52585e-21)
(1.02897 0.173661 -3.92507e-21)
(1.0664 0.292834 -1.948e-19)
(0.993323 0.414886 1.33621e-19)
(1.11268 0.662046 -5.00481e-19)
(1.00068 -0.00393535 -3.21285e-21)
(1.00858 0.0299168 -3.05805e-20)
(1.02083 0.0209956 3.22264e-20)
(1.04103 0.0762165 2.30595e-20)
(1.03933 0.0773284 7.83737e-22)
(1.06727 0.152747 -6.59679e-20)
(1.04309 0.17589 -5.02725e-20)
(1.09395 0.315385 3.52238e-19)
(1.02677 0.432889 1.2325e-20)
(1.22543 0.721153 7.91475e-19)
(1.00114 -0.00582329 1.27743e-20)
(1.00874 0.0290216 1.37555e-20)
(1.02387 0.0163862 3.84047e-20)
(1.04487 0.0773182 -2.54409e-20)
(1.04726 0.0741208 -6.77106e-20)
(1.077 0.160151 8.4283e-22)
(1.06158 0.175644 -7.06366e-20)
(1.12137 0.336229 4.63359e-19)
(1.0806 0.433896 -7.85568e-21)
(1.29326 0.738593 -1.09687e-18)
(1.00176 -0.00765763 3.04445e-22)
(1.0089 0.0277337 2.12396e-20)
(1.02752 0.0121482 1.26238e-20)
(1.04959 0.0778589 -5.12161e-20)
(1.05572 0.0725543 -6.72039e-20)
(1.08656 0.16677 -5.72996e-20)
(1.08046 0.183041 -1.31416e-19)
(1.14443 0.360094 -4.25165e-19)
(1.13583 0.462795 -2.31303e-19)
(1.42639 0.809984 -1.15975e-18)
(1.00284 -0.0107289 -9.43455e-22)
(1.00876 0.0259587 -4.53917e-21)
(1.03273 0.00396456 -1.49963e-20)
(1.05742 0.0773181 2.79713e-20)
(1.06624 0.0636339 5.15683e-20)
(1.10592 0.171253 -3.73178e-20)
(1.10293 0.167698 1.32739e-19)
(1.18919 0.370945 -3.93578e-19)
(1.19553 0.403336 -1.78783e-19)
(1.4408 0.800278 6.0783e-19)
(1.00482 -0.0152418 2.16687e-22)
(1.00693 0.023169 7.60093e-21)
(1.04243 -0.0092506 -1.06594e-20)
(1.06505 0.0737292 5.17035e-20)
(1.08387 0.0479316 8.91575e-20)
(1.12314 0.168917 1.11753e-19)
(1.14398 0.142878 3.07866e-20)
(1.21713 0.35798 1.93904e-19)
(1.29314 0.353167 3.07364e-19)
(1.46021 0.701293 2.32099e-20)
(1.00613 -0.0195228 -1.2073e-21)
(1.00479 0.018212 -3.62473e-21)
(1.05785 -0.0225863 3.80784e-21)
(1.06881 0.067829 3.96151e-21)
(1.10895 0.032437 2.7408e-34)
(1.13233 0.160641 -6.33323e-21)
(1.19386 0.118285 -4.48124e-34)
(1.23358 0.333999 1.67086e-20)
(1.3694 0.299241 -5.12707e-20)
(1.4955 0.612303 -5.27643e-20)
(1.00386 -0.0238084 1.49898e-20)
(1.00766 0.00947613 -4.0976e-35)
(1.07449 -0.0345795 -4.34649e-21)
(1.07286 0.0577265 -2.20591e-20)
(1.13444 0.0187084 -4.53754e-20)
(1.14351 0.147172 -3.78658e-20)
(1.23429 0.0949165 -5.92459e-34)
(1.25601 0.305894 -7.60874e-20)
(1.40905 0.247426 -1.39779e-19)
(1.5321 0.522239 8.89693e-20)
(0.99592 -0.0285716 0)
(1.02117 -0.00428468 -1.10552e-35)
(1.08654 -0.0441145 0)
(1.08518 0.0423012 0)
(1.15443 0.00651922 0)
(1.1667 0.12688 0)
(1.25717 0.0746352 -4.35563e-34)
(1.28817 0.270999 0)
(1.42641 0.202987 -1.82035e-20)
(1.5623 0.429342 5.26234e-20)
(0.982812 -0.0349947 2.242e-21)
(1.04589 -0.0205714 -5.28738e-22)
(1.09259 -0.0511216 -5.47325e-21)
(1.10917 0.0251553 0)
(1.16879 -0.00315176 0)
(1.1988 0.102553 5.79796e-21)
(1.26937 0.0588183 4.29518e-20)
(1.32097 0.230151 -1.21117e-20)
(1.44346 0.164942 -2.65834e-20)
(1.58176 0.341901 2.0087e-19)
(0.968309 -0.0477404 -8.21069e-20)
(1.07871 -0.045066 2.75473e-21)
(1.09138 -0.0613054 -6.08446e-21)
(1.14086 -0.000448495 -1.39407e-20)
(1.16787 -0.0151056 -2.82892e-20)
(1.22181 0.0738246 -1.35726e-20)
(1.26243 0.0450882 -3.67951e-20)
(1.33925 0.183983 -2.96683e-20)
(1.45046 0.130493 -5.2417e-20)
(1.59497 0.260411 6.57454e-20)
(0.958171 -0.054084 -5.20391e-21)
(1.10567 -0.0573035 -1.7401e-20)
(1.06808 -0.0594987 -6.6453e-21)
(1.14542 -0.0160108 -4.76049e-21)
(1.10692 -0.0170187 -4.47972e-35)
(1.1948 0.0485657 6.25216e-21)
(1.18439 0.0347308 -7.95205e-34)
(1.31304 0.134467 -1.15698e-20)
(1.3981 0.095572 1.6542e-20)
(1.58559 0.18124 2.39811e-20)
(0.953494 -0.0945387 1.97596e-19)
(1.05932 -0.0889027 -4.81589e-21)
(0.951272 -0.0736106 -7.10256e-21)
(0.993953 -0.0346088 1.23933e-20)
(0.88567 -0.0164539 1.60007e-20)
(0.997703 0.024975 1.55416e-20)
(0.941056 0.0252573 1.55345e-20)
(1.13706 0.0791372 -8.1659e-21)
(1.18685 0.0588447 -1.76621e-20)
(1.43437 0.102445 1.30032e-19)
(0.825008 -0.0468278 7.89622e-21)
(0.726621 -0.0334838 -9.20333e-35)
(0.530133 -0.0184549 -8.19213e-21)
(0.475363 -0.0034246 0)
(0.396191 0.000112329 0)
(0.46551 0.00859094 6.22046e-21)
(0.446823 0.00522876 -4.40138e-36)
(0.592082 0.0170886 -1.11011e-20)
(0.646636 0.00947642 -2.42875e-20)
(0.830041 0.0182512 5.18298e-20)
(1.64219 0.832823 -1.82548e-19)
(1.74166 0.815422 -2.70797e-19)
(1.85536 0.784385 0)
(1.96211 0.742659 1.48164e-19)
(2.05987 0.687543 6.28183e-19)
(2.14862 0.625474 -1.10384e-19)
(2.22678 0.555044 1.59786e-18)
(2.29977 0.482736 -7.81858e-20)
(2.35868 0.406622 -3.45346e-19)
(2.41485 0.335446 3.00172e-19)
(1.66755 0.685212 9.23588e-20)
(1.74072 0.670759 1.07613e-19)
(1.8356 0.641056 -1.30155e-20)
(1.91922 0.603331 2.05772e-19)
(2.00955 0.554109 -1.68282e-19)
(2.07797 0.504327 -3.90873e-19)
(2.15576 0.446779 -1.15916e-19)
(2.20978 0.394231 5.3178e-19)
(2.27855 0.334201 -1.9953e-20)