/*--------------------------------*- C++ -*----------------------------------*\
  =========                 |
  \\      /  F ield         | OpenFOAM: The Open Source CFD Toolbox
   \\    /   O peration     | Website:  https://openfoam.org
    \\  /    A nd           | Version:  13
     \\/     M anipulation  |
\*---------------------------------------------------------------------------*/
FoamFile
{
    format      ascii;
    class       volScalarField;
    location    "0.43";
    object      strainRateViscosityModel:nu;
}
// * * * * * * * * * * * * * * * * * * * * * * * * * * * * * * * * * * * * * //

dimensions      [0 2 -1 0 0 0 0];

internalField   nonuniform List<scalar> 
1800
(
9.40488
9.19759
9.01003
8.80088
8.57605
8.34403
8.11538
7.89817
7.62439
7.37958
9.58524
9.41878
9.26688
9.09729
8.91111
8.71136
8.5035
8.28864
8.02736
7.70226
9.70219
9.56269
9.42802
9.27094
9.08865
8.87894
8.64086
8.369
8.03061
7.61073
9.77539
9.65614
9.53324
9.38286
9.20047
8.98169
8.72277
8.41594
8.0288
7.55465
9.82168
9.71831
9.60559
9.46166
9.2807
9.05694
8.78547
8.45887
8.04777
7.55621
9.85185
9.76082
9.6573
9.52059
9.34355
9.11896
8.84034
8.50016
8.07153
7.57024
9.87179
9.78991
9.69399
9.56396
9.39147
9.16769
8.8842
8.53253
8.08736
7.5757
9.88475
9.80925
9.71889
9.59395
9.42495
9.20146
8.9131
8.55005
8.08854
7.56357
9.8926
9.82107
9.73417
9.61221
9.44467
9.21963
8.92484
8.54923
8.07122
7.52872
9.89647
9.82686
9.74154
9.6207
9.4531
9.22574
8.92513
8.53954
8.05038
7.49286
1.75509
1.40452
1.21946
1.32804
1.72848
2.24101
2.48829
2.44793
2.36109
2.33723
3.67774
1.78977
1.50298
1.98146
2.68357
2.96539
2.82218
2.68058
2.69439
2.74567
4.66961
2.57908
2.44344
3.16988
3.58716
3.35071
3.09356
3.12769
3.26376
3.34308
5.25238
3.88774
3.81867
4.2087
4.17859
3.83642
3.72991
3.86044
3.9615
4.01076
6.04931
5.27764
5.11895
5.11938
4.91506
4.65705
4.58217
4.61568
4.61656
4.65681
6.95766
6.46057
6.22704
6.03748
5.78814
5.54649
5.39096
5.29584
5.22563
5.2785
7.77109
7.3778
7.11669
6.8598
6.58699
6.32056
6.08786
5.90235
5.77244
5.82627
8.39997
8.05525
7.79184
7.5154
7.22605
6.93089
6.64221
6.38689
6.1935
6.23082
8.8493
8.54531
8.29085
8.01004
7.70535
7.37914
7.03545
6.70129
6.41641
6.42276
9.16163
8.9015
8.66623
8.39651
8.09549
7.76553
7.4063
7.03572
6.70899
6.75316
2.19386
1.72961
1.33079
0.929942
0.60254
0.312238
0.127131
0.0629394
0.0588836
0.0906886
2.53123
1.85262
1.41096
0.932022
0.582503
0.296562
0.105945
0.0308479
0.0182977
0.0177665
2.95341
1.98413
1.48709
0.935976
0.555875
0.276278
0.0882459
0.0208526
0.0131225
0.0103099
3.44631
2.15467
1.56016
0.943489
0.525883
0.253105
0.0750307
0.0183242
0.0126358
0.0102418
3.9881
2.39216
1.63767
0.954614
0.494505
0.227007
0.0655741
0.017661
0.0125347
0.0102029
4.53272
2.70251
1.73322
0.97124
0.464083
0.198004
0.0579211
0.0175648
0.0125764
0.0101975
5.0004
3.06167
1.85433
0.993396
0.435313
0.166345
0.0501035
0.0177328
0.0127433
0.0102265
5.31575
3.44437
2.021
1.03567
0.415711
0.135139
0.0413685
0.0176469
0.0128444
0.0101748
5.34605
3.72749
2.17024
1.06747
0.394184
0.103971
0.0314899
0.0169441
0.0112174
0.0192744
5.20461
3.99391
2.40631
1.1717
0.411913
0.089438
0.0240624
0.0107878
0.0235869
0.106172
4.94728
3.94728
2.46339
1.18636
0.385775
0.0561765
0.0102516
0.0405739
0.149501
0.227833
5.33392
3.35324
2.14371
0.996514
0.343779
0.0879748
0.078161
0.189078
0.266376
0.343251
4.90651
3.04265
2.23747
1.18391
0.564826
0.251426
0.194437
0.265347
0.36084
0.447128
4.54386
3.62379
2.66881
1.62182
0.872437
0.453967
0.316478
0.368673
0.453855
0.535888
5.11136
4.7438
3.33672
2.1546
1.22721
0.699903
0.481028
0.476077
0.540549
0.611705
6.25389
5.66875
4.05631
2.67119
1.59475
0.962922
0.664016
0.596584
0.626725
0.67594
7.26281
6.37401
4.71475
3.15527
1.95761
1.23225
0.859896
0.724858
0.711415
0.730026
8.00024
6.91242
5.26108
3.59065
2.30236
1.5004
1.06037
0.859034
0.796386
0.776749
8.51883
7.33099
5.69829
3.97159
2.62337
1.75878
1.25413
0.987727
0.874136
0.814096
8.93102
7.69131
6.05036
4.28418
2.92888
2.03484
1.47261
1.1377
0.967018
0.855379
6.51284
6.43967
6.43048
6.44885
6.48755
6.53026
6.58244
6.7111
6.89593
6.82716
0.260821
1.05749
2.00827
2.92355
3.70473
4.31762
4.73466
4.98452
5.22399
5.73027
3.85052
3.5435
3.28406
3.11064
3.10569
3.2495
3.47208
3.71369
4.16572
4.84643
6.64435
6.62737
6.53721
6.34462
6.04293
5.65707
5.24828
4.89425
4.73734
4.54735
7.69193
7.67662
7.63221
7.54137
7.3962
7.18987
6.92695
6.61913
6.28523
5.65499
8.44957
8.43317
8.3944
8.32777
8.22964
8.09679
7.92844
7.71689
7.42792
6.90769
8.9397
8.92396
8.89031
8.83682
8.7617
8.66294
8.5382
8.37898
8.15475
7.80871
9.27299
9.25982
9.23247
9.18986
9.13053
9.05247
8.95271
8.82484
8.65286
8.43097
9.50446
9.49417
9.47308
9.44024
9.39426
9.33319
9.25424
9.15288
9.0229
8.87537
9.6899
9.68285
9.66852
9.64604
9.61405
9.5707
9.51361
9.43975
9.34638
9.2441
7.24902
7.52678
7.83709
8.08759
8.34463
8.59943
8.84124
9.0615
9.25456
9.46029
7.58362
7.94828
8.24095
8.48101
8.70921
8.92469
9.12222
9.29897
9.45391
9.61809
7.49883
7.95748
8.3259
8.6204
8.87564
9.09765
9.28801
9.4495
9.58536
9.72228
7.44711
7.95767
8.37372
8.70192
8.97651
9.20591
9.39469
9.54806
9.67131
9.78825
7.45647
7.98069
8.41857
8.76484
9.0505
9.28353
9.46976
9.61591
9.72869
9.83023
7.48249
8.01169
8.46399
8.82144
9.11232
9.34473
9.52606
9.66447
9.76797
9.85765
7.50367
8.03786
8.50276
8.86861
9.16196
9.39189
9.56764
9.6989
9.79479
9.87571
7.51116
8.05246
8.52871
8.90208
9.19747
9.42521
9.5964
9.72213
9.81244
9.88729
7.49837
8.05045
8.53742
8.91898
9.21769
9.44504
9.61372
9.73606
9.8229
9.89405
7.48288
8.04359
8.53593
8.92345
9.22526
9.45331
9.62124
9.74217
9.82746
9.89694
2.54376
2.50239
2.52329
2.73255
2.90535
2.52416
1.67984
1.17604
1.51692
4.15076
2.95603
2.86793
2.71131
2.71366
3.10104
3.41553
2.80069
1.89254
2.11191
5.11412
3.4527
3.40776
3.24943
3.06576
3.2681
3.82321
3.79493
3.14688
3.2718
5.44298
3.95124
3.93947
3.91122
3.80095
3.89353
4.31971
4.58714
4.45944
4.64815
5.90265
4.50593
4.47828
4.55216
4.62156
4.78332
5.1152
5.43739
5.61473
5.88975
6.62473
5.10815
5.06551
5.2038
5.40019
5.65905
5.98102
6.30799
6.59334
6.89775
7.40344
5.65867
5.62211
5.82165
6.09267
6.40859
6.74084
7.06793
7.37707
7.67743
8.08538
6.07013
6.05509
6.31698
6.64315
6.99505
7.33944
7.66673
7.97359
8.25841
8.61073
6.26275
6.2811
6.63189
7.02609
7.41988
7.78399
8.11629
8.41633
8.6826
8.98791
6.60186
6.57122
6.95653
7.3795
7.78109
8.14281
8.46626
8.75025
8.99292
9.25189
0.102778
0.148944
0.0973014
0.0440796
0.0121037
0.347305
0.891666
1.4555
1.93104
2.41737
0.0691906
0.134808
0.0942087
0.0436317
0.0138275
0.338777
0.902933
1.52665
2.01884
2.6918
0.0478278
0.12869
0.0946216
0.0481681
0.0230101
0.34504
0.921087
1.58707
2.09918
3.01102
0.0354117
0.129814
0.0989095
0.0576832
0.0413751
0.362394
0.940901
1.63438
2.21035
3.40316
0.0294963
0.136407
0.105616
0.0696596
0.06564
0.383625
0.957753
1.67801
2.39214
3.87485
0.0285378
0.146549
0.113168
0.0816258
0.0916386
0.403974
0.973855
1.74007
2.65923
4.37139
0.0324115
0.159349
0.12011
0.0915282
0.114508
0.419356
0.992938
1.83711
2.99008
4.80104
0.0425244
0.175465
0.125992
0.0990506
0.133429
0.436951
1.0385
1.99561
3.35563
5.08477
0.0620137
0.195806
0.131049
0.100871
0.139308
0.441435
1.0765
2.14546
3.63298
5.08737
0.093946
0.218297
0.13711
0.105341
0.157406
0.489812
1.2123
2.40292
3.8829
4.89567
0.152812
0.246533
0.147831
0.10418
0.146
0.483757
1.27076
2.51446
3.89158
4.67806
0.257696
0.277664
0.139559
0.0848145
0.0818036
0.369014
1.12693
2.30905
3.4372
5.19769
0.422817
0.275184
0.115238
0.0206524
0.0145644
0.298493
1.12356
2.33767
3.25237
4.94058
0.675348
0.264396
0.0246546
0.0830447
0.119559
0.502251
1.40449
2.60284
3.70206
4.69358
1.05827
0.0534078
0.246951
0.266559
0.339894
0.872097
1.9193
3.19273
4.69888
5.172
1.51451
0.107439
0.533319
0.448375
0.624859
1.29976
2.46831
3.91152
5.59595
6.22178
2.1922
0.688114
0.850155
0.723165
0.971676
1.73865
2.99169
4.59197
6.30216
7.21641
3.79099
1.7017
1.27365
1.06745
1.34722
2.15735
3.46431
5.1655
6.85449
7.969
6.85979
3.57609
1.96431
1.44814
1.70702
2.53589
3.87908
5.63242
7.29554
8.50732
9.04902
6.38427
2.84806
2.02379
2.14083
2.91328
4.23264
6.02099
7.6867
8.93803
6.62663
6.68927
6.51219
6.39011
6.34944
6.32299
6.3058
6.31745
6.36199
6.47628
5.53298
5.01393
4.7695
4.52778
4.12905
3.54255
2.80011
1.93312
1.04528
0.284445
4.85238
4.23779
3.82738
3.61599
3.42858
3.30879
3.31373
3.45638
3.65459
3.87392
4.70876
4.882
5.02499
5.33538
5.70056
6.05166
6.33376
6.52152
6.61675
6.64179
5.68494
6.28421
6.61144
6.91102
7.17235
7.38159
7.53196
7.62829
7.67683
7.6925
6.86541
7.38851
7.68452
7.90247
8.07675
8.21498
8.31792
8.38865
8.43062
8.44895
7.76527
8.12064
8.3521
8.51802
8.64805
8.75105
8.82961
8.88586
8.92168
8.93902
8.40466
8.63275
8.80893
8.94097
9.04404
9.12468
9.18597
9.23007
9.25856
9.27261
8.86617
9.0162
9.14761
9.25059
9.33082
9.39282
9.43943
9.47267
9.494
9.50442
9.24863
9.3504
9.44298
9.51627
9.57292
9.61586
9.64747
9.66956
9.68348
9.69011
9.50937
8.98517
8.23567
6.92804
5.59787
0.131169
3.36076
5.96022
7.21384
8.15163
9.46531
8.92138
8.1679
6.89035
5.54929
0.563757
2.62215
5.70586
6.91618
7.91371
9.36556
8.78262
8.02002
6.80936
5.36623
1.60347
1.4135
5.2065
6.30909
7.40302
9.1824
8.5449
7.77421
6.65483
5.18626
2.74001
0.723027
4.23827
5.42133
6.57117
8.86791
8.17331
7.40368
6.3766
5.02628
3.36795
0.970907
2.6315
4.31675
5.39348
8.35026
7.62938
6.87302
5.91689
4.76481
3.43991
1.7192
1.3018
3.04914
3.98789
7.53572
6.89619
6.15509
5.22714
4.29935
3.26938
2.14301
1.17233
1.65613
2.55732
6.32504
6.03708
5.28082
4.23152
3.53325
2.91251
2.11831
1.43491
1.06829
1.23539
4.63144
5.23164
4.47376
2.9994
2.43713
2.27454
1.85588
1.38443
1.12222
0.658922
2.67268
4.53867
4.02092
1.9669
1.39704
1.4885
1.40976
1.21119
1.06345
0.844664
1.27676
3.78737
3.6656
1.33802
0.816602
0.897622
0.970633
0.955564
0.970988
1.01919
0.613547
2.96686
3.08039
0.957827
0.575674
0.639396
0.758313
0.818828
0.842906
0.876047
0.355443
2.1854
2.2825
0.689081
0.49213
0.593654
0.724324
0.808769
0.846756
0.871749
0.265438
1.5464
1.48565
0.520541
0.532035
0.671016
0.784362
0.855488
0.879129
0.889667
0.239902
1.0169
0.842139
0.509893
0.664841
0.798434
0.899571
0.963128
0.979077
0.976299
0.243236
0.494664
0.495594
0.630156
0.810929
0.948266
1.04608
1.10409
1.11498
1.10704
0.180053
0.203127
0.502524
0.749405
0.966752
1.1126
1.20311
1.25081
1.26756
1.26793
0.0462251
0.247679
0.644208
0.915122
1.12892
1.24787
1.32467
1.39354
1.44872
1.46991
0.0573534
0.488871
0.816929
1.09195
1.22844
1.3371
1.48431
1.6396
1.72607
1.74215
0.676626
0.856794
1.03946
1.1882
1.32643
1.59352
1.90035
2.07004
2.07517
2.04392
0.362819
0.0800935
0.221262
0.545484
0.787764
0.88142
0.869229
0.820793
0.787833
0.790954
0.461589
0.200834
0.315609
0.515792
0.717088
0.800181
0.788379
0.744856
0.718827
0.732384
0.524558
0.368875
0.435479
0.507495
0.64652
0.719467
0.708862
0.669021
0.648945
0.671335
0.636306
0.582585
0.589566
0.548646
0.580085
0.631383
0.624083
0.590603
0.577701
0.607947
0.801523
0.796388
0.734403
0.630158
0.534175
0.542833
0.5372
0.511159
0.505468
0.542133
1.00323
0.990898
0.865995
0.727953
0.521896
0.459307
0.448775
0.430889
0.432466
0.474082
1.21994
1.16168
0.979607
0.813974
0.541866
0.390719
0.361536
0.350669
0.358743
0.40334
1.44425
1.31615
1.07815
0.874729
0.575682
0.346587
0.279592
0.271615
0.285338
0.331317
1.67797
1.46148
1.16603
0.909523
0.602225
0.327587
0.209066
0.195124
0.210345
0.254308
1.9226
1.59987
1.24904
0.92502
0.610925
0.321148
0.157509
0.124447
0.140911
0.182105
2.00873
0.746812
0.715295
0.95945
1.18865
1.27423
1.25043
1.18643
1.12819
1.07154
1.39424
0.482728
0.576998
0.869039
1.10114
1.18805
1.16744
1.10753
1.05473
1.0114
0.751652
0.288022
0.479278
0.792306
1.02735
1.11606
1.09807
1.04123
0.993218
0.960961
0.253506
0.170416
0.403519
0.720653
0.952719
1.03979
1.02268
0.968534
0.925595
0.905417
0.435808
0.0329145
0.265615
0.608167
0.857336
0.95569
0.945006
0.894782
0.856855
0.848594
9.35452
9.28992
9.14084
8.8729
8.43731
7.77858
6.87099
5.75892
4.58159
3.5367
9.19233
9.0955
8.88092
8.51142
7.94121
7.1361
6.10924
4.95469
3.84439
2.78651
9.02372
8.90008
8.6264
8.16078
7.46143
6.51576
5.37101
4.16825
3.08097
1.94221
8.81613
8.662
8.32126
7.74763
6.90581
5.81385
4.5546
3.29452
2.22569
1.09007
8.58729
8.37916
7.92557
7.17714
6.11216
4.79175
3.3504
2.08506
0.994021
0.301974
1.06158
1.02592
1.01821
1.02185
0.916835
0.80085
1.29438
3.68067
3.85723
1.32427
0.950826
0.935571
0.928364
0.872991
0.72096
0.590524
0.912997
3.13788
3.1052
0.648371
0.98742
0.98391
0.967195
0.894429
0.749407
0.58727
0.701514
2.36616
2.33847
0.378044
1.05372
1.06538
1.06111
1.00142
0.890777
0.742939
0.658681
1.54876
1.62304
0.277677
1.18392
1.20765
1.21302
1.16533
1.07495
0.950788
0.788348
0.901778
0.908922
0.246599
1.34544
1.36517
1.3732
1.34733
1.27667
1.1434
0.922934
0.663316
0.354329
0.216165
1.54475
1.54077
1.5091
1.4668
1.41424
1.30524
1.06563
0.744483
0.270353
0.0661405
1.80693
1.79975
1.71764
1.56768
1.43056
1.33302
1.19427
0.886961
0.487233
0.0464879
2.0846
2.13016
2.12522
1.93137
1.59467
1.3133
1.179
1.04349
0.840576
0.666097
2.29464
2.34197
2.46395
2.50816
2.20231
1.61096
1.17416
1.06252
1.29192
1.99798
8.15144
7.21348
5.95986
3.36026
0.131426
5.59641
6.92754
8.23547
8.98519
9.50947
7.91302
6.91507
5.70486
2.62155
0.563629
5.54544
6.8889
8.16731
8.92143
9.46562
7.40157
6.30721
5.20472
1.41537
1.59976
5.36173
6.80709
8.01915
8.78275
9.36615
6.56853
5.41845
4.23608
0.72618
2.73175
5.18154
6.65198
7.77323
8.54523
9.18343
5.3891
4.31223
2.63233
0.971065
3.35667
5.02033
6.37315
7.40274
8.17405
8.86967
3.9794
3.04102
1.30986
1.71356
3.42668
4.75592
5.91207
6.87212
7.63084
8.35324
2.54034
1.65266
1.1875
2.13331
3.25072
4.28258
5.21835
6.1541
6.899
7.54107
1.21634
1.08763
1.45257
2.10769
2.88021
3.50265
4.21705
5.28133
6.04281
6.3359
0.671447
1.15373
1.40806
1.84289
2.232
2.40026
2.98369
4.47824
5.24242
4.65598
0.886016
1.10344
1.24848
1.41388
1.46461
1.36965
1.94355
4.02462
4.5635
2.71781
2.08844
0.543072
1.05629
0.641158
0.677917
0.761829
0.631827
0.299052
0.0638612
0.357071
1.62817
0.238334
0.863146
0.491462
0.584047
0.683235
0.590731
0.355638
0.267546
0.489481
1.3323
0.0567124
0.634882
0.353743
0.494637
0.601963
0.557623
0.458997
0.473822
0.592123
1.09472
0.0154221
0.385212
0.246585
0.408364
0.516369
0.556948
0.62504
0.730315
0.758334
0.84286
0.0931607
0.185613
0.169099
0.327659
0.437752
0.603173
0.801132
0.968482
0.974803
0.6302
0.157274
0.0478501
0.115052
0.251854
0.380639
0.687118
0.965585
1.18274
1.21786
0.457449
0.208913
0.0527199
0.0397476
0.184358
0.357567
0.775549
1.1022
1.36925
1.46868
0.324305
0.209436
0.0972406
0.0107799
0.117098
0.362001
0.840366
1.2115
1.53558
1.71828
0.224716
0.193578
0.102573
0.0387784
0.0514091
0.370844
0.873964
1.30077
1.68597
1.95606
0.152872
0.169728
0.102798
0.0441701
0.018687
0.364531
0.88595
1.37996
1.81949
2.17989
9.33654
6.77028
2.66682
1.70782
1.2141
1.13092
0.975421
0.78796
0.79927
2.03366
8.21087
4.63635
2.21579
1.42641
1.08318
1.04525
0.899858
0.656325
0.530349
1.39874
6.11995
3.0639
1.78527
1.21979
0.979426
0.979801
0.838899
0.565301
0.330764
0.740803
4.13255
1.87574
1.49587
1.01383
0.874471
0.911282
0.780354
0.490425
0.230326
0.223725
2.8344
1.06157
1.24329
0.81427
0.771728
0.831549
0.68775
0.356872
0.0444344
0.397456
3.54768
4.58888
5.76283
6.87312
7.7801
8.43843
8.87368
9.14132
9.29019
9.35461
2.78072
3.8407
4.95193
6.10745
7.13549
7.94122
8.51164
8.88114
9.09566
9.19239
1.92815
3.07156
4.16179
5.36626
6.51322
7.46029
8.16035
8.62631
8.90011
9.02374
1.0542
2.20224
3.28104
4.54633
5.80967
6.90361
7.74651
8.32079
8.66185
8.81611
0.300012
0.961232
2.06307
3.3369
4.78475
6.10858
7.17516
7.92462
8.37879
8.5872
)
;

boundaryField
{
    left
    {
        type            calculated;
        value           nonuniform List<scalar> 
35
(
0.299137
0.572572
0.993353
1.62824
2.52447
3.69438
5.06511
6.47603
8.15852
9.4418
0.200035
0.122084
0.073952
0.0472007
0.0343309
0.0301831
0.0338377
0.0499277
0.0881841
0.157318
4.93322
4.06066
3.23299
2.51111
1.91503
1.42372
1.02564
0.716953
0.485486
0.31739
9.61572
8.9791
7.92216
6.84795
5.8595
)
;
    }
    right
    {
        type            calculated;
        value           nonuniform List<scalar> 
35
(
1.07125
1.01165
0.961958
0.907568
0.852142
0.795957
0.738746
0.678755
0.616122
0.550756
0.482792
0.411687
0.338781
0.260253
0.186187
0.0919585
0.0173627
0.0101845
0.0101577
0.0101254
0.0101093
0.0101125
0.0101256
0.0216962
0.119524
0.248878
0.366004
0.47048
0.557921
0.63094
0.691068
0.740306
0.782348
0.816087
0.853675
)
;
    }
    down
    {
        type            calculated;
        value           nonuniform List<scalar> 
40
(
9.45428
7.26624
2.89757
1.79653
1.25419
1.15953
1.00158
0.829768
0.900277
2.2608
3.83282
4.88215
6.03354
7.09246
7.94427
8.55476
8.95427
9.1991
9.33551
9.39476
9.39466
9.33523
9.19858
8.95341
8.55344
7.94236
7.08959
6.02837
4.87278
3.81847
2.2318
0.846826
0.759094
0.991249
1.22011
1.30374
1.27773
1.21171
1.15145
1.09056
)
;
    }
    up
    {
        type            calculated;
        value           nonuniform List<scalar> 
40
(
9.03411
7.8089
6.16811
4.39564
3.03669
2.13032
1.54566
1.18485
0.994763
0.867829
9.72926
9.72304
9.71045
9.69064
9.66234
9.62377
9.57262
9.50586
9.42075
9.32814
9.33499
9.42651
9.51035
9.5762
9.62662
9.6646
9.69237
9.71168
9.72378
9.72951
9.2707
7.09672
3.24323
2.17354
2.25915
3.03373
4.35512
6.15047
7.81374
9.04487
)
;
    }
    cylinder
    {
        type            calculated;
        value           nonuniform List<scalar> 
80
(
1.93806
4.49616
5.4921
5.75462
6.29521
7.08739
7.86095
8.47458
8.91242
9.21291
9.44582
9.61873
9.72982
9.7983
9.84096
9.86846
9.8865
9.89817
9.90522
9.90869
9.50045
9.65065
9.74905
9.81048
9.84901
9.8739
9.89017
9.90055
9.90657
9.90914
5.26634
6.21206
6.20181
6.30675
6.82822
7.52361
8.17514
8.68574
9.05066
9.30256
0.995484
0.47227
0.264587
0.183482
0.160101
0.165965
0.0831086
0.042004
0.741991
2.37283
9.59437
9.5558
9.46734
9.30173
9.0096
8.51113
7.68602
6.3666
4.38818
2.24038
9.59427
9.55547
9.46673
9.30065
9.00774
8.50794
7.68022
6.3542
4.35799
2.1913
0.952807
0.442259
0.244324
0.170873
0.150443
0.165676
0.163253
0.085265
0.0434486
0.711851
)
;
    }
    defaultFaces
    {
        type            empty;
    }
}


// ************************************************************************* //
