# Selection   : all
# Cells       : 440
# Volume      : 7.374263e+01
# Time        	max(p)
8.615         	2.096890e+00
8.66          	2.067634e+00
8.71          	2.060846e+00
