/*--------------------------------*- C++ -*----------------------------------*\
  =========                 |
  \\      /  F ield         | OpenFOAM: The Open Source CFD Toolbox
   \\    /   O peration     | Website:  https://openfoam.org
    \\  /    A nd           | Version:  13
     \\/     M anipulation  |
\*---------------------------------------------------------------------------*/
FoamFile
{
    format      ascii;
    class       volVectorField;
    location    "7.56";
    object      U;
}
// * * * * * * * * * * * * * * * * * * * * * * * * * * * * * * * * * * * * * //

dimensions      [0 1 -1 0 0 0 0];

internalField   nonuniform List<vector> 
440
(
(-0.071383 0.0593779 -6.28819e-20)
(-0.0650519 0.107843 2.38122e-20)
(0.0774339 0.0955165 1.87116e-20)
(0.520879 0.0904883 3.19241e-19)
(0.522413 0.184011 -3.6296e-21)
(-0.0623142 0.0336402 2.82598e-20)
(0.106671 -0.00609558 -1.26168e-19)
(0.592225 -0.0495231 -8.95652e-20)
(1.15235 -0.0761481 2.58817e-20)
(1.60727 -0.0826407 -1.55716e-20)
(0.00755294 -0.00579966 4.32507e-20)
(0.55987 -0.0598324 7.94069e-19)
(1.34839 -0.0495406 -4.98407e-19)
(1.92158 -0.0188927 -1.45985e-18)
(2.46445 -0.00481135 6.23814e-19)
(0.232712 -0.0529951 -1.72173e-19)
(1.26758 -0.00388637 -6.08168e-19)
(2.03909 0.0642948 1.87888e-18)
(2.47747 0.100832 2.10759e-18)
(2.52181 0.11804 -5.59364e-19)
(0.610191 -0.0048518 -3.05739e-19)
(1.81737 0.183844 -6.71829e-19)
(2.35875 0.257527 2.06952e-18)
(2.46584 0.268528 2.13053e-18)
(2.55121 0.24035 7.10448e-19)
(-0.0263072 0.0439819 1.50719e-19)
(-0.124007 -0.032736 6.47102e-20)
(-0.224412 -0.0815127 -2.04248e-19)
(-0.310202 -0.117541 1.47472e-20)
(-0.367827 -0.166955 -3.70914e-20)
(-0.0552361 0.175262 -5.09105e-20)
(-0.137497 0.17218 -3.42607e-19)
(-0.216056 0.127319 8.49037e-20)
(-0.287458 0.0729505 8.72448e-20)
(-0.318612 -0.00837904 -1.6366e-19)
(-0.1032 0.250404 -3.88752e-19)
(-0.171168 0.334658 3.77075e-19)
(-0.208215 0.309769 -1.83672e-19)
(-0.231229 0.24817 -8.48277e-19)
(-0.217391 0.153708 3.52394e-21)
(-0.101906 0.205163 7.32234e-21)
(-0.129394 0.344207 -6.92171e-20)
(-0.105172 0.365831 5.34415e-20)
(-0.0530663 0.339644 7.78717e-19)
(-0.00514355 0.291826 -1.58416e-19)
(-0.0807218 0.107233 -1.68068e-21)
(-0.117397 0.216655 -7.71544e-21)
(-0.0961307 0.255331 4.30864e-21)
(0.0303081 0.257232 -1.2478e-19)
(0.0797173 0.321622 -4.48963e-19)
(-0.514702 -0.519262 -7.11491e-19)
(0.706546 -0.329295 5.20053e-20)
(0.819025 0.884877 3.45614e-19)
(-0.159406 0.536192 -1.85103e-19)
(0.942001 -0.29185 -3.04026e-19)
(-0.156041 -0.633725 9.9576e-19)
(0.250909 -0.57078 -3.40274e-20)
(0.843502 0.967121 -2.07153e-20)
(0.10212 0.5063 -3.05819e-19)
(1.19569 -0.4296 2.84733e-19)
(0.310782 -0.646939 4.4465e-19)
(-0.347791 -0.715561 -1.00427e-18)
(0.704607 0.933569 4.61796e-20)
(0.544237 0.439861 -6.54669e-19)
(1.50369 -0.542922 5.33537e-20)
(0.899535 -0.563629 -4.10064e-19)
(-0.345988 -0.713976 1.90333e-20)
(-0.0489728 0.798953 1.09754e-18)
(1.22336 0.271688 1.71415e-19)
(1.82674 -0.60678 -5.48892e-19)
(1.6081 -0.544826 -2.01318e-19)
(0.523726 -0.612184 1.37147e-18)
(-0.69804 0.465921 0)
(1.87283 -0.0738839 3.54036e-19)
(2.03504 -0.651969 -2.08341e-19)
(2.14055 -0.495676 -4.88882e-19)
(1.9286 -0.306343 9.17263e-20)
(0.271212 0.260329 2.40486e-20)
(2.34268 -0.435087 7.19255e-20)
(2.1404 -0.661836 3.68111e-19)
(2.35703 -0.566936 7.26255e-20)
(1.83622 -0.119056 -2.6889e-19)
(1.38588 0.311928 1.64494e-20)
(2.70064 -0.572663 4.18768e-19)
(2.04054 -0.584043 0)
(2.31576 -0.309283 -4.7578e-19)
(1.60579 0.0104988 2.17459e-20)
(1.94265 0.00533312 3.26759e-19)
(2.52254 -0.586958 -2.62469e-19)
(1.52073 -0.417736 5.58528e-20)
(2.00382 -0.21756 -5.24684e-21)
(1.59428 -0.016992 1.36751e-19)
(2.01429 -0.122755 1.95302e-20)
(1.88441 -0.450689 1.27555e-33)
(0.8187 -0.242611 -4.49575e-21)
(1.19612 -0.0276468 8.71203e-20)
(1.09751 -0.0208765 -1.78142e-21)
(1.06159 -0.125485 -4.37694e-20)
(0.304253 -0.035377 1.04849e-19)
(-0.283619 0.0271637 -2.35807e-20)
(2.41257 0.254458 -8.54581e-19)
(2.66451 0.0322978 -1.16707e-18)
(2.44627 0.0862678 8.46926e-19)
(2.78711 -0.137282 6.84226e-20)
(2.02409 0.0698106 -3.32321e-20)
(2.10947 0.18918 6.96803e-20)
(2.49364 -0.014698 -4.10757e-20)
(2.24662 0.042249 -1.47003e-19)
(2.54894 -0.171616 -2.28753e-19)
(2.34821 -0.154618 -7.00618e-21)
(2.11242 0.0801101 7.84796e-20)
(2.26476 -0.00434102 9.79263e-20)
(2.22046 -0.0298573 -1.34254e-19)
(2.29695 -0.103268 4.76413e-20)
(2.30328 -0.153111 2.74487e-20)
(2.05159 0.0198824 1.15614e-19)
(2.02606 -0.0159444 1.42674e-19)
(2.13245 -0.0333978 -1.82158e-20)
(2.07604 -0.0699388 -2.29803e-20)
(2.18581 -0.0887651 2.2516e-20)
(1.45923 -0.00575915 1.77609e-19)
(1.39821 -0.00604419 -1.16841e-20)
(1.49142 -0.0188412 2.09925e-20)
(1.39196 -0.014223 -2.05522e-20)
(1.50608 -0.0335269 1.68735e-20)
(1.58406 0.824749 1.13667e-18)
(1.53465 0.925433 -3.64943e-19)
(1.53142 1.05953 -1.38023e-18)
(1.46396 1.1114 7.47045e-19)
(0.899643 0.80236 -1.76626e-19)
(1.86425 0.798086 -5.92053e-19)
(1.83408 0.875958 -3.03942e-18)
(1.84333 0.982756 -1.16457e-18)
(1.75484 0.997582 -4.23923e-19)
(1.07596 0.705233 -6.80449e-19)
(2.18174 0.666512 7.49009e-19)
(2.15783 0.738397 2.07583e-19)
(2.12816 0.830935 -2.26875e-18)
(1.99958 0.822856 -6.48061e-19)
(1.19054 0.553048 5.03301e-19)
(2.34512 0.559723 2.28103e-18)
(2.33409 0.610949 1.69068e-18)
(2.33627 0.664118 -1.98877e-18)
(2.1221 0.624176 -1.49511e-18)
(1.17325 0.367773 -2.90348e-19)
(2.50085 0.401047 1.13038e-18)
(2.51366 0.424429 -8.44867e-19)
(2.40861 0.452339 5.82809e-19)
(2.08311 0.400147 4.90084e-19)
(0.988562 0.163544 -4.19059e-19)
(0.566559 0.475201 -6.46729e-19)
(0.475845 0.511857 -4.85777e-19)
(0.358984 0.548368 5.38963e-20)
(0.224199 0.553862 -4.66675e-21)
(0.0556051 0.400067 8.97184e-20)
(0.678554 0.639311 1.14186e-19)
(0.615124 0.697303 -3.03189e-19)
(0.527246 0.764294 1.90589e-19)
(0.401999 0.822183 -8.81693e-20)
(0.176271 0.627917 1.24564e-19)
(0.769609 0.838728 1.44198e-19)
(0.697046 0.920612 4.75224e-19)
(0.643451 1.01757 1.01646e-19)
(0.561995 1.05623 -3.09921e-19)
(0.309668 0.779032 2.58131e-19)
(1.05592 0.903479 2.23669e-19)
(1.00889 0.98482 -6.82095e-19)
(0.957097 1.08231 -1.91497e-18)
(0.875097 1.15124 7.74196e-19)
(0.517081 0.85782 -1.72447e-19)
(1.11205 0.955856 -1.07949e-19)
(1.15096 1.07811 -1.86105e-19)
(1.18077 1.19173 -3.67749e-19)
(1.12957 1.21161 -4.15675e-19)
(0.695876 0.866504 -6.65853e-21)
(1.00742 0.0604186 -1.04634e-19)
(0.98896 0.0250208 -3.97711e-20)
(1.04271 0.127242 -1.56998e-21)
(0.942783 0.142862 -3.10696e-19)
(0.891138 0.290082 3.32432e-19)
(0.994223 0.0595363 6.63133e-20)
(1.00294 0.0197484 1.41808e-19)
(1.03458 0.136698 1.38612e-19)
(0.980849 0.170557 4.47378e-20)
(0.932146 0.372756 -1.49801e-20)
(0.997995 0.0589997 9.07517e-20)
(0.990808 0.0114403 -5.41795e-21)
(1.08025 0.154574 -6.31838e-21)
(0.938801 0.170105 1.62205e-19)
(1.14232 0.51598 -5.22235e-19)
(0.991229 0.0595327 -4.11958e-22)
(1.01257 -0.000517635 -1.97026e-19)
(1.079 0.171966 -7.08075e-20)
(1.03052 0.178953 -4.10655e-19)
(1.15217 0.566698 9.37374e-20)
(0.987336 0.0520457 -1.58197e-20)
(1.02289 -0.000786174 5.74407e-20)
(1.12868 0.175701 3.34505e-20)
(0.999464 0.207822 4.88918e-19)
(1.38725 0.698621 -4.91303e-19)
(0.949256 0.0533037 -9.2281e-21)
(1.1039 -0.0312867 1.17154e-19)
(1.10725 0.20914 -8.25379e-20)
(1.24269 0.133318 9.39107e-19)
(1.29757 0.738869 -3.72497e-19)
(0.899369 0.0197492 -1.67107e-21)
(1.20304 -0.0358407 -1.02823e-19)
(1.02812 0.138005 4.90634e-21)
(1.34329 0.143486 -2.84033e-19)
(1.22515 0.503239 -4.77984e-20)
(0.955285 0.00510553 -4.541e-21)
(1.16647 -0.046754 1.47143e-35)
(1.0427 0.125263 -2.95382e-20)
(1.25314 0.110388 9.1546e-20)
(1.37817 0.331006 1.83832e-19)
(1.07911 -0.0476993 4.39911e-21)
(0.987135 -0.0446433 -2.92542e-20)
(1.11149 0.0818883 1.85385e-20)
(1.18419 0.0489423 2.93435e-20)
(1.56384 0.180237 -2.82391e-19)
(0.993741 -0.0241595 -4.17996e-20)
(0.747641 -0.0198469 -5.12543e-21)
(0.913149 0.0137194 2.24304e-20)
(0.905828 -0.00942278 -1.73889e-20)
(1.14193 0.0428547 -6.44655e-20)
(1.83586 0.599072 3.01322e-19)
(1.90818 0.641128 7.50857e-19)
(2.19633 0.492228 -1.08209e-18)
(2.23274 0.483355 -3.70729e-20)
(2.47944 0.275897 4.97147e-19)
(1.77117 0.382834 9.73239e-20)
(1.74931 0.424487 1.06603e-18)
(2.05819 0.30985 1.38396e-19)
(1.95411 0.327353 -9.70486e-19)
(2.32057 0.146952 -2.89055e-19)
(1.73652 0.284119 -2.53407e-19)
(1.8109 0.259915 -1.62775e-19)
(1.97283 0.210109 1.60043e-19)
(1.98098 0.179531 -3.05861e-19)
(2.16031 0.10118 2.74646e-19)
(1.72617 0.144744 3.84491e-19)
(1.82604 0.118608 -6.31458e-21)
(1.85763 0.0968334 2.3322e-19)
(1.95008 0.0713648 2.04021e-19)
(1.95553 0.0407525 -1.92123e-19)
(1.28856 0.0410408 -4.60045e-20)
(1.34686 0.0306885 2.51924e-19)
(1.35821 0.0244063 1.15106e-19)
(1.41202 0.0121824 -2.30818e-19)
(1.3886 0.00634677 1.90292e-22)
(1.14376 -0.0268965 4.85608e-20)
(2.18226 -0.0535069 -4.04161e-19)
(2.42186 -0.0439824 1.13941e-18)
(2.4004 -0.00139709 5.08341e-19)
(2.27031 0.0304119 -3.43447e-19)
(0.686308 0.0874374 8.06414e-20)
(1.95022 0.0710843 -4.11325e-19)
(2.43336 0.0727504 -5.40184e-19)
(2.50854 0.0851481 6.47877e-19)
(2.22421 0.0750125 -3.88913e-19)
(0.176955 0.0640742 -3.55776e-20)
(1.28029 0.128224 4.1415e-19)
(2.0727 0.146008 6.16506e-20)
(2.47745 0.137993 3.07935e-19)
(2.70599 0.137929 1.21133e-19)
(-0.0708104 -0.0421157 1.93343e-19)
(0.41054 0.0477321 1.8691e-19)
(1.24532 0.120918 -3.79324e-19)
(1.76337 0.15027 1.7708e-20)
(2.37443 0.181587 -5.22305e-20)
(-0.121143 -0.0984161 1.37971e-19)
(-0.0565802 -0.081064 -1.4686e-19)
(0.380366 -0.00267823 -2.15085e-20)
(0.874983 0.0274863 3.73471e-20)
(1.27396 0.0730066 -5.02686e-20)
(-0.0833788 -0.0779005 4.44913e-21)
(-0.157837 -0.113732 9.07171e-20)
(-0.0789643 -0.119011 1.32425e-19)
(0.119624 -0.106783 -1.36172e-19)
(0.443691 -0.0663964 9.02546e-21)
(-0.0318302 -0.0404424 1.19085e-21)
(-0.098265 -0.135113 -8.15142e-20)
(-0.119526 -0.232188 -7.18028e-20)
(-0.0867697 -0.301809 2.81532e-20)
(-0.00018764 -0.310252 1.65071e-20)
(-0.0238259 -0.067171 8.67264e-21)
(-0.0555585 -0.2423 1.88904e-19)
(-0.0606532 -0.383671 -9.08809e-20)
(-0.0517163 -0.464769 -2.53832e-19)
(-0.0357753 -0.50177 3.06361e-20)
(-0.0271947 -0.127311 -1.2012e-20)
(-0.0642836 -0.347101 -5.67078e-20)
(-0.0930011 -0.464395 9.57428e-20)
(-0.119758 -0.493423 1.70501e-20)
(-0.132385 -0.473058 -2.41951e-20)
(-0.018945 -0.0972223 1.75284e-21)
(-0.0953564 -0.253999 -2.57984e-21)
(-0.181523 -0.298567 -2.36153e-21)
(-0.261952 -0.293121 2.7826e-20)
(-0.323697 -0.290583 7.21622e-20)
(1.6043 0.404139 -2.29606e-20)
(1.64417 0.317015 5.68451e-19)
(1.51412 0.160861 -5.95399e-20)
(0.63681 0.128377 -6.43501e-22)
(0.388086 0.00321511 -3.9012e-21)
(1.16224 0.146067 3.46589e-21)
(1.54027 0.314405 -1.88743e-19)
(1.52428 0.29126 -5.27255e-20)
(0.473037 0.261239 5.61476e-21)
(0.343375 0.0265511 5.8557e-20)
(0.389597 -0.113219 -1.18388e-19)
(1.2728 0.250133 -3.09972e-19)
(1.35829 0.423697 2.52842e-20)
(0.190237 0.396933 -4.19227e-19)
(0.396078 0.0323532 9.43802e-21)
(-0.209582 -0.2192 1.44073e-19)
(1.00388 0.122668 1.23078e-18)
(1.14214 0.564946 -1.74389e-19)
(-0.0829409 0.49482 -4.6278e-21)
(0.536605 -0.0293889 -2.29996e-19)
(-0.564645 -0.339041 6.19584e-20)
(0.8558 -0.0847154 2.31783e-19)
(0.946146 0.731007 2.89421e-19)
(-0.227361 0.54663 9.86369e-21)
(0.72565 -0.14523 -6.70508e-19)
(0.674288 0.182178 -2.27495e-20)
(-0.160156 -0.0771811 0)
(-0.158159 -0.111477 -2.26269e-20)
(-0.0884572 -0.0641843 6.00633e-20)
(0.159013 -0.025844 -6.39462e-21)
(2.09795 0.413271 0)
(1.53396 0.345908 0)
(1.21964 0.0906351 3.58787e-19)
(0.599916 -0.0326715 9.42279e-20)
(0.474146 -0.045445 3.19793e-21)
(0.723768 0.000108373 -1.16121e-19)
(0.780107 -0.00312287 1.67499e-19)
(0.960901 -0.0187238 -1.84748e-20)
(1.09951 0.0108587 3.07104e-19)
(1.41653 0.0492884 1.9629e-19)
(1.65046 0.0195643 1.09601e-19)
(1.78265 0.0713199 2.10308e-19)
(1.98458 0.0187083 -5.85228e-20)
(2.62168 0.160548 -5.50924e-20)
(2.22143 0.0756129 3.35275e-20)
(0.90085 -0.467241 -1.63439e-20)
(0.886915 -0.554713 -1.47312e-19)
(0.875653 -0.648976 -1.18221e-19)
(0.80087 -0.714167 7.32703e-20)
(0.481498 -0.556101 1.16832e-19)
(0.797571 -0.371346 1.28878e-19)
(0.739503 -0.434022 2.57232e-19)
(0.663105 -0.502062 -4.12332e-20)
(0.549236 -0.559444 1.20322e-19)
(0.295784 -0.440564 4.0889e-20)
(0.640899 -0.230836 -1.68109e-19)
(0.550878 -0.268105 -4.37015e-20)
(0.449723 -0.315872 1.28685e-19)
(0.33241 -0.35849 -1.15792e-20)
(0.145295 -0.283282 -1.02686e-19)
(0.54342 0.00188659 -4.48468e-19)
(0.457307 -0.0117056 -3.71072e-19)
(0.347956 -0.0346348 2.87469e-19)
(0.221791 -0.0656046 1.85267e-19)
(0.0590598 -0.0699055 1.38006e-20)
(0.521941 0.206742 -1.8456e-19)
(0.436825 0.210787 -1.8254e-19)
(0.321156 0.213124 -8.20813e-20)
(0.184336 0.219055 1.88676e-20)
(0.0268677 0.16658 1.25405e-20)
(1.98999 -0.0432895 7.5161e-19)
(2.26821 -0.107748 2.6824e-19)
(2.33552 -0.191598 -7.05726e-19)
(2.18202 -0.218245 -1.43728e-18)
(1.29998 -0.187748 1.06298e-19)
(1.99006 -0.122193 1.28256e-18)
(2.06604 -0.231965 1.68518e-18)
(2.08167 -0.352011 1.37399e-19)
(2.00192 -0.409703 2.34978e-19)
(1.2737 -0.355361 -1.54586e-19)
(1.68696 -0.28369 -3.35691e-18)
(1.75489 -0.398156 4.00819e-19)
(1.80153 -0.519078 1.03998e-18)
(1.73778 -0.591053 -4.06852e-19)
(1.12016 -0.4966 6.32627e-19)
(1.4912 -0.40142 7.92761e-19)
(1.50518 -0.496211 -2.07935e-18)
(1.48581 -0.609997 -2.43369e-18)
(1.41449 -0.694575 7.51392e-19)
(0.90648 -0.56834 4.88576e-19)
(1.19966 -0.458229 1.68602e-19)
(1.14944 -0.548567 2.21806e-19)
(1.13936 -0.667014 -3.61852e-19)
(1.08367 -0.74961 -4.37769e-19)
(0.681296 -0.590906 -4.14344e-21)
(1.04394 0.0581669 8.0787e-21)
(0.927746 0.0490712 -6.72945e-21)
(1.12129 0.0820318 -7.7971e-21)
(0.803283 0.0105295 -1.83407e-19)
(1.10667 -0.203824 -6.21792e-21)
(1.06151 0.0642379 -2.65969e-21)
(0.917195 0.0440016 5.67728e-20)
(1.11544 0.0988056 -5.63244e-20)
(0.887053 0.0559172 9.57156e-20)
(0.987616 -0.0876422 -2.6822e-20)
(1.06481 0.0637022 -6.60717e-20)
(0.922236 0.0388282 5.92518e-22)
(1.09845 0.0993481 -2.29664e-20)
(0.883212 0.0780434 3.68366e-21)
(0.95907 -0.0270183 -1.44051e-19)
(1.04739 0.0635779 8.00762e-20)
(0.954211 0.0339686 3.53568e-21)
(1.06117 0.105837 3.72131e-20)
(0.921587 0.102642 3.9439e-20)
(0.862341 0.084724 1.2647e-19)
(1.02198 0.0610259 2.02075e-20)
(0.984163 0.0316651 -3.24776e-20)
(1.03372 0.113466 5.00195e-20)
(0.948171 0.128221 8.48725e-20)
(0.836517 0.184953 -1.38305e-19)
(0.877759 0.0335682 0)
(0.722534 0.0292858 1.05882e-20)
(0.59907 0.0232876 2.66865e-21)
(0.342349 -0.00745068 3.85335e-20)
(0.656884 -0.05234 -1.06154e-19)
(1.00684 0.0745659 -6.55464e-20)
(0.952515 0.068696 -2.2954e-20)
(1.02244 0.0826276 -2.72554e-20)
(0.811573 0.0048091 -9.22371e-20)
(1.00788 -0.187577 -1.11585e-19)
(0.911333 -0.062318 -2.50852e-20)
(0.994359 -0.0318048 4.45223e-19)
(1.08317 0.0366848 2.82431e-19)
(0.961116 0.0531321 2.26462e-20)
(0.741634 0.0279209 0)
(1.28103 -0.307595 2.50187e-19)
(1.38984 -0.272504 1.32352e-18)
(1.56041 -0.155433 -1.52403e-18)
(1.66009 -0.0229714 -4.72883e-19)
(1.55038 0.0263878 3.43669e-19)
)
;

boundaryField
{
    left
    {
        type            fixedValue;
        value           uniform (1 0 0);
    }
    right
    {
        type            zeroGradient;
    }
    down
    {
        type            noSlip;
    }
    up
    {
        type            noSlip;
    }
    cylinder
    {
        type            noSlip;
    }
    defaultFaces
    {
        type            empty;
    }
}


// ************************************************************************* //
