/*--------------------------------*- C++ -*----------------------------------*\
  =========                 |
  \\      /  F ield         | OpenFOAM: The Open Source CFD Toolbox
   \\    /   O peration     | Website:  https://openfoam.org
    \\  /    A nd           | Version:  13
     \\/     M anipulation  |
\*---------------------------------------------------------------------------*/
FoamFile
{
    format      ascii;
    class       volVectorField;
    location    "0.33";
    object      U;
}
// * * * * * * * * * * * * * * * * * * * * * * * * * * * * * * * * * * * * * //

dimensions      [0 1 -1 0 0 0 0];

internalField   nonuniform List<vector> 
440
(
(0.218268 -0.176702 -1.81078e-19)
(0.613086 -0.436666 1.07911e-18)
(0.984287 -0.640897 4.23686e-19)
(1.32751 -0.795348 1.2414e-18)
(1.63252 -0.916657 -2.60038e-19)
(0.304901 -0.177689 -5.44576e-19)
(0.819146 -0.428709 -1.01969e-18)
(1.27998 -0.618905 1.14459e-19)
(1.6919 -0.761627 -1.21527e-18)
(2.05373 -0.875074 -1.02098e-18)
(0.384888 -0.15241 -6.98115e-19)
(1.0047 -0.36302 1.58993e-18)
(1.53978 -0.51839 -1.93487e-18)
(2.00473 -0.632631 1.37858e-18)
(2.40596 -0.721462 1.43045e-18)
(0.445878 -0.102748 5.62414e-19)
(1.14612 -0.243087 -1.29959e-18)
(1.73747 -0.344815 -7.50778e-19)
(2.24297 -0.418221 1.96679e-18)
(2.6745 -0.474458 2.5001e-18)
(0.479269 -0.0361591 6.86942e-19)
(1.22366 -0.0847557 1.69148e-19)
(1.84594 -0.119364 2.53142e-18)
(2.37407 -0.143865 -1.06207e-18)
(2.823 -0.162495 -4.83758e-19)
(-0.000874369 -0.0514001 2.8456e-19)
(0.0502283 -0.143795 -3.78723e-19)
(0.106088 -0.22174 1.09601e-18)
(0.171567 -0.291581 -1.75057e-19)
(0.239672 -0.353176 -1.58771e-18)
(0.013688 -0.0841698 -2.6233e-19)
(0.0894055 -0.227455 -4.23861e-19)
(0.174273 -0.349588 1.12382e-19)
(0.268618 -0.449377 6.07747e-20)
(0.364944 -0.529387 -3.83484e-20)
(0.0433141 -0.114217 6.87571e-20)
(0.165485 -0.303 5.19936e-19)
(0.296225 -0.467055 9.37748e-20)
(0.432965 -0.598355 1.46407e-18)
(0.568059 -0.696785 -2.502e-20)
(0.0866129 -0.140998 6.6751e-20)
(0.276373 -0.367783 -3.35189e-20)
(0.469495 -0.562885 2.16548e-19)
(0.66141 -0.718285 -2.04273e-18)
(0.844116 -0.830119 9.58749e-19)
(0.142129 -0.161731 -2.36165e-19)
(0.420084 -0.412851 -4.43221e-19)
(0.691392 -0.621438 -7.71962e-19)
(0.950121 -0.782316 9.55368e-19)
(1.18517 -0.89268 3.46148e-18)
(0.592456 -0.590877 -4.15852e-18)
(0.958501 -0.51444 1.15874e-18)
(1.28112 -0.209949 3.57283e-19)
(1.43646 -0.0560468 -6.45714e-19)
(1.48946 -0.013528 -9.89847e-20)
(0.78605 -0.741943 4.88179e-18)
(1.04312 -0.619205 -3.34864e-19)
(1.31243 -0.275115 -1.40193e-19)
(1.45747 -0.0832842 4.2569e-19)
(1.49591 -0.0219354 1.74259e-19)
(1.03692 -0.876693 1.5344e-18)
(1.17894 -0.70418 4.09222e-18)
(1.34372 -0.335888 6.53517e-20)
(1.46804 -0.107094 4.68545e-19)
(1.50039 -0.0294627 -5.61354e-20)
(1.33065 -0.987775 1.23526e-18)
(1.3586 -0.766362 -4.18221e-19)
(1.39229 -0.387598 -7.82101e-19)
(1.47063 -0.12731 -3.04742e-19)
(1.50581 -0.0359227 1.99375e-20)
(1.62987 -1.04692 -3.46912e-21)
(1.55328 -0.807998 -1.66781e-18)
(1.45077 -0.433646 0)
(1.4632 -0.157656 2.54519e-19)
(1.50795 -0.0441833 2.87957e-20)
(2.15616 -1.11458 -1.5771e-18)
(1.83087 -0.799913 -4.9615e-19)
(1.56228 -0.436674 -1.07442e-20)
(1.45735 -0.164898 3.02274e-20)
(1.43931 -0.0421155 -1.08709e-19)
(2.63335 -0.889255 -1.61307e-18)
(1.90221 -0.590767 2.9531e-18)
(1.44672 -0.305703 4.72149e-21)
(1.2174 -0.124044 2.22349e-19)
(1.17019 -0.0344819 0)
(2.47913 -0.522496 -6.93203e-18)
(1.6067 -0.338307 -1.49618e-19)
(1.15165 -0.171644 2.02954e-18)
(0.924373 -0.0755854 -3.001e-19)
(0.871694 -0.0207907 -6.58737e-20)
(1.76245 -0.219942 6.83779e-18)
(1.08906 -0.135725 1.27303e-18)
(0.751831 -0.065904 2.24461e-19)
(0.58782 -0.0315628 2.81959e-33)
(0.539039 -0.00975496 -9.81444e-20)
(0.683134 0.000143203 1.55456e-18)
(0.395323 0.0234672 7.16966e-19)
(0.267491 0.0237492 -5.14989e-19)
(0.210185 0.0124698 1.98189e-19)
(0.187821 0.00397001 -5.23038e-20)
(3.58193 -0.168158 1.25611e-17)
(3.41721 -0.502915 -1.04429e-17)
(3.13669 -0.786948 7.1083e-18)
(2.78058 -0.996 2.32e-18)
(2.33304 -1.10162 -4.14762e-19)
(3.78462 -0.103588 1.03952e-17)
(3.71758 -0.324459 -6.63953e-19)
(3.57787 -0.551819 -4.27044e-18)
(3.37846 -0.785738 2.69078e-18)
(3.10052 -1.01972 -6.62796e-19)
(3.11487 -0.0605647 3.65437e-18)
(3.09869 -0.181698 -2.5186e-18)
(3.05966 -0.309682 5.01255e-18)
(2.999 -0.444852 -1.52764e-19)
(2.92452 -0.593576 -4.79037e-18)
(2.19087 -0.0276237 2.78869e-18)
(2.18385 -0.0833851 8.42995e-18)
(2.16462 -0.144036 -6.53244e-19)
(2.13406 -0.207321 -6.60744e-18)
(2.11305 -0.269476 1.94583e-18)
(0.879438 -0.00184251 5.21216e-18)
(0.876486 -0.00524066 -1.16429e-19)
(0.867359 -0.00957164 -4.25969e-20)
(0.850484 -0.0162612 -2.00906e-18)
(0.841123 -0.0229185 -3.60437e-18)
(1.653 0.939819 2.26973e-18)
(1.34824 0.816592 -7.67988e-20)
(1.00338 0.658633 -3.36469e-20)
(0.627899 0.449508 -1.96418e-19)
(0.225255 0.182322 -1.34365e-19)
(2.07043 0.892424 -1.21748e-18)
(1.71064 0.777715 -1.1985e-18)
(1.29832 0.632605 7.32903e-19)
(0.834065 0.438752 -4.84386e-19)
(0.312162 0.182104 -4.16172e-21)
(2.41859 0.735821 -5.90379e-19)
(2.01967 0.645354 5.2526e-19)
(1.55501 0.528774 2.43728e-18)
(1.01756 0.370212 8.08422e-19)
(0.391351 0.155292 5.26163e-19)
(2.68205 0.486707 1.43226e-20)
(2.25242 0.428294 -2.71945e-19)
(1.74746 0.352331 -6.46745e-19)
(1.15479 0.247653 2.05657e-18)
(0.450337 0.104148 -3.26854e-19)
(2.82552 0.173867 -1.17078e-18)
(2.37732 0.152647 -1.60654e-18)
(1.84944 0.125349 -7.28738e-19)
(1.22674 0.0878366 7.96316e-19)
(0.48087 0.0366879 -3.25842e-19)
(0.239832 0.415436 -2.12625e-18)
(0.169982 0.352022 -1.80432e-18)
(0.102807 0.275767 3.11622e-19)
(0.0454451 0.182691 -4.14634e-20)
(-0.00174491 0.0671303 3.35844e-20)
(0.370909 0.592458 -8.06067e-19)
(0.274011 0.508318 -6.58487e-19)
(0.17869 0.398001 5.94323e-21)
(0.0924858 0.25858 -2.31854e-20)
(0.0167183 0.0961295 2.40798e-20)
(0.581784 0.751888 2.17626e-18)
(0.446274 0.648367 -1.57978e-19)
(0.307941 0.506238 -1.44194e-19)
(0.174336 0.327976 -2.14363e-19)
(0.0482864 0.123754 1.6849e-19)
(0.862069 0.87385 -1.2997e-18)
(0.679197 0.757591 1.98765e-18)
(0.485296 0.593664 3.19348e-19)
(0.288322 0.388169 1.0047e-19)
(0.0924902 0.149122 -1.18106e-19)
(1.2036 0.924655 -4.42414e-19)
(0.969089 0.811478 -4.58891e-19)
(0.70861 0.644935 3.62335e-19)
(0.433355 0.429139 3.60578e-19)
(0.148473 0.168552 1.89905e-21)
(0.916247 0.158208 -3.74297e-19)
(1.46982 0.140742 5.41898e-20)
(1.29138 0.19914 2.17852e-20)
(1.00366 0.502429 -4.40267e-19)
(0.59602 0.643682 4.44006e-21)
(0.914325 0.0850239 1.60663e-19)
(1.47204 0.121695 2.6468e-19)
(1.31518 0.241666 1.80665e-19)
(1.0565 0.614268 -8.74077e-20)
(0.784172 0.800167 7.68322e-19)
(0.911916 0.0145902 3.35026e-20)
(1.48566 0.101384 -1.9437e-20)
(1.3226 0.284821 -5.71631e-20)
(1.16711 0.706546 -4.82249e-19)
(1.03752 0.933868 1.56177e-19)
(0.911331 -0.0529438 -2.17333e-20)
(1.50017 0.0822966 -5.99681e-19)
(1.34217 0.327365 1.09931e-19)
(1.32988 0.770766 1.23951e-18)
(1.33484 1.03885 9.39425e-19)
(0.911777 -0.119475 -1.84323e-20)
(1.50799 0.0691146 1.55813e-19)
(1.37523 0.371159 -6.84614e-20)
(1.51322 0.812529 -4.09184e-19)
(1.63555 1.08994 -2.75261e-18)
(0.908912 -0.213421 2.17999e-19)
(1.50203 0.0367176 4.29325e-19)
(1.46404 0.372858 -1.75431e-20)
(1.76948 0.793849 2.97861e-18)
(2.1522 1.14192 -5.52263e-18)
(0.876256 -0.336937 -2.58562e-20)
(1.38729 -0.0229565 -6.31753e-19)
(1.42698 0.269972 7.96924e-21)
(1.84915 0.590801 -3.04707e-18)
(2.59535 0.900063 1.66636e-18)
(0.78383 -0.411509 5.43464e-18)
(1.10307 -0.0849711 6.68541e-35)
(1.14323 0.146022 -2.16579e-18)
(1.57919 0.337003 2.6762e-18)
(2.45747 0.529183 5.03261e-18)
(0.632948 -0.291148 1.49773e-19)
(0.7221 -0.0704657 5.25226e-19)
(0.73701 0.0517005 2.53323e-19)
(1.0763 0.134244 6.24745e-19)
(1.7584 0.220436 -8.63972e-18)
(0.322069 -0.0432603 -4.30324e-18)
(0.295523 0.00501311 2.80072e-19)
(0.266708 -0.0128388 1.10072e-18)
(0.393732 -0.0239925 -7.73082e-19)
(0.686094 -0.000397442 -1.46482e-18)
(2.34836 1.12076 4.68571e-18)
(2.78716 1.01235 3.4686e-18)
(3.14082 0.803277 -5.68763e-18)
(3.41899 0.519549 -1.46136e-17)
(3.58243 0.185856 1.57623e-17)
(3.07923 1.01875 5.00791e-18)
(3.35436 0.795184 2.56448e-17)
(3.5572 0.560655 7.24399e-18)
(3.70128 0.331817 -3.0834e-17)
(3.77804 0.11113 -5.17367e-18)
(2.906 0.591916 -7.23129e-18)
(2.98612 0.448082 -3.3811e-18)
(3.05224 0.312135 -6.30068e-18)
(3.09528 0.18176 -6.88931e-18)
(3.11403 0.0584523 6.52259e-18)
(2.10623 0.265973 5.41182e-18)
(2.13008 0.205826 -4.04859e-19)
(2.16251 0.1431 4.87039e-18)
(2.18311 0.0821704 6.28875e-18)
(2.19077 0.0260137 -5.88757e-18)
(0.842459 0.0220804 -5.7423e-19)
(0.851876 0.015668 3.51985e-18)
(0.868601 0.00913913 2.44272e-18)
(0.877477 0.00479646 -5.16898e-18)
(0.879833 0.0013631 -3.84257e-20)
(0.281926 0.0207564 5.52021e-19)
(0.65666 0.040466 -7.4344e-19)
(0.973124 0.0440664 -8.18577e-19)
(0.944302 0.0274312 -1.51795e-18)
(0.697834 0.0163853 -6.63706e-19)
(0.24557 0.0554592 7.45541e-19)
(0.591254 0.107073 1.44151e-18)
(0.864664 0.125141 -6.97106e-19)
(0.939933 0.0969973 1.96056e-18)
(0.724158 0.0532382 -2.70085e-18)
(0.185612 0.0742637 4.96099e-19)
(0.476375 0.145892 -1.39916e-18)
(0.707753 0.184757 -9.13812e-19)
(0.857293 0.175408 -1.81035e-18)
(0.741549 0.101222 -2.86198e-18)
(0.123298 0.0774736 -7.72681e-19)
(0.344748 0.160354 -1.37658e-18)
(0.534515 0.214872 4.39813e-18)
(0.677687 0.233297 -3.66586e-19)
(0.713042 0.180014 2.25348e-18)
(0.075268 0.0723671 -6.23118e-19)
(0.230697 0.160102 1.56392e-18)
(0.372248 0.224509 6.10988e-19)
(0.482758 0.25771 -1.29488e-18)
(0.561212 0.258371 -1.75203e-19)
(0.0451411 0.0637789 8.38021e-20)
(0.149937 0.148754 -1.22079e-18)
(0.247705 0.212084 -9.42242e-19)
(0.325353 0.233952 -9.12947e-20)
(0.371105 0.223644 -5.02547e-20)
(0.026431 0.0556792 3.11968e-19)
(0.0950838 0.134186 5.93229e-19)
(0.1609 0.184534 -2.09692e-19)
(0.213764 0.195037 2.59449e-19)
(0.253624 0.184893 1.71585e-19)
(0.0132631 0.0487655 2.48932e-19)
(0.0585823 0.111186 1.30213e-18)
(0.103631 0.120876 -1.23596e-18)
(0.142563 0.107074 -2.78153e-18)
(0.178712 0.0856203 4.08649e-19)
(0.00608179 0.0392992 -2.36379e-19)
(0.0422339 0.0490167 -1.7995e-18)
(0.0793819 0.0220486 3.20926e-18)
(0.119265 -0.00966936 1.3177e-18)
(0.160579 -0.0434209 -2.69668e-19)
(0.00995302 0.00286723 2.08831e-19)
(0.0418674 -0.0492061 -4.49994e-19)
(0.0817855 -0.0954154 8.94001e-20)
(0.130294 -0.143394 1.05959e-19)
(0.180798 -0.189608 5.8684e-21)
(0.338594 0.0713015 -7.81415e-20)
(0.615306 -0.0421072 -1.2224e-18)
(0.702728 -0.0139442 2.54736e-19)
(0.721051 0.001996 3.83595e-19)
(0.718747 0.0010945 1.58505e-20)
(0.303026 -0.0350781 -1.00308e-19)
(0.751234 -0.11471 1.44528e-18)
(0.885937 -0.0242553 9.2003e-19)
(0.920772 0.00236768 7.7178e-20)
(0.925572 0.00191444 -4.13253e-20)
(0.31891 -0.150031 -7.97322e-19)
(0.833556 -0.197746 3.08511e-18)
(1.04549 -0.0443716 -1.83163e-19)
(1.1059 0.000776542 -3.55893e-19)
(1.11753 0.00229134 8.2295e-20)
(0.374042 -0.288168 1.0963e-18)
(0.880089 -0.296659 -2.6443e-18)
(1.16318 -0.0861874 -5.20352e-19)
(1.2662 -0.00641165 -3.39068e-20)
(1.28759 0.00152359 -8.22786e-21)
(0.461183 -0.436128 5.08051e-19)
(0.913898 -0.40331 -5.63594e-19)
(1.23618 -0.144932 4.57232e-19)
(1.38367 -0.0265378 1.27945e-19)
(1.43243 -0.00395239 -3.99163e-20)
(0.182974 -0.0449411 9.54579e-19)
(0.145338 -0.00518596 0)
(0.162554 0.00118921 1.17537e-19)
(0.163497 7.32424e-05 8.70909e-21)
(0.160565 -0.000322441 -7.80491e-20)
(0.400016 0.0699492 0)
(0.409805 -0.000552706 0)
(0.466312 -0.00436864 6.19028e-20)
(0.471893 0.00160248 8.9204e-21)
(0.4653 0.000525567 3.06821e-20)
(0.162661 -0.000821155 -3.68399e-19)
(0.186375 -0.00179221 3.10731e-18)
(0.213181 -0.00502172 -6.86425e-19)
(0.22978 -0.0149904 -3.11664e-18)
(0.245677 -0.0170045 -7.96983e-19)
(0.431969 0.00444063 6.09835e-19)
(0.484493 0.0196924 4.11535e-18)
(0.536389 0.0466849 -6.73076e-18)
(0.567585 0.0805846 2.20907e-18)
(0.598316 0.16219 3.79537e-18)
(0.370592 -0.220181 -3.33952e-19)
(0.324186 -0.231209 -9.14404e-20)
(0.248309 -0.212439 -3.22944e-19)
(0.150748 -0.1507 3.85723e-19)
(0.0458503 -0.0645867 1.1424e-19)
(0.257659 -0.168528 4.20168e-19)
(0.215104 -0.180693 1.41281e-18)
(0.16238 -0.176242 2.64535e-19)
(0.0967365 -0.13474 2.35436e-19)
(0.0268292 -0.0571417 -1.81825e-20)
(0.1931 -0.0536503 -3.09073e-19)
(0.151519 -0.0762126 -1.03171e-19)
(0.108663 -0.0937566 1.63132e-18)
(0.0622969 -0.0961856 2.88376e-19)
(0.0131208 -0.0477312 -3.1023e-19)
(0.177576 0.0873356 -6.34422e-19)
(0.131804 0.05357 -7.05997e-19)
(0.0871367 0.0200214 1.30271e-18)
(0.0490738 -0.00989325 1.59334e-18)
(0.0111933 -0.0293431 1.98483e-19)
(0.186896 0.243507 1.2364e-19)
(0.132929 0.197295 -1.19942e-19)
(0.0809433 0.147623 2.48147e-19)
(0.0376115 0.0966669 6.14354e-19)
(-0.00246606 0.0354487 8.98003e-20)
(0.697831 -0.0163404 1.53127e-18)
(0.944308 -0.0274077 -1.80071e-18)
(0.972932 -0.0441916 2.2697e-18)
(0.656672 -0.0405283 3.64434e-19)
(0.281959 -0.0207651 5.36579e-19)
(0.72415 -0.0531289 1.77205e-18)
(0.939793 -0.0970104 7.94645e-18)
(0.86446 -0.125243 1.03356e-18)
(0.591305 -0.107112 1.34929e-18)
(0.245665 -0.0554803 -4.78415e-19)
(0.741477 -0.100967 -1.22212e-18)
(0.856685 -0.175235 -2.29548e-18)
(0.70767 -0.184815 2.92405e-18)
(0.476441 -0.145961 -1.08388e-19)
(0.185734 -0.0742992 3.39571e-19)
(0.71254 -0.179819 2.06699e-20)
(0.676959 -0.23322 -7.68222e-18)
(0.534544 -0.215192 -5.99609e-18)
(0.344881 -0.16069 1.09134e-18)
(0.12348 -0.0775789 5.08032e-19)
(0.55875 -0.256741 4.71285e-19)
(0.481687 -0.25703 5.32878e-19)
(0.372303 -0.225188 -8.97684e-19)
(0.23095 -0.160974 -8.87519e-19)
(0.0756162 -0.0726288 -5.14166e-21)
(0.72613 0.372659 1.17205e-18)
(0.888577 0.125422 -1.91868e-19)
(0.683914 0.0190591 2.59873e-19)
(0.64878 0.0384446 -7.66864e-19)
(0.363025 -0.0609944 -1.01248e-19)
(0.825023 0.39714 -1.68323e-19)
(1.10327 0.153584 -5.35415e-19)
(0.875338 0.0380888 8.29091e-19)
(0.807296 0.103177 1.68174e-18)
(0.341275 0.0553414 1.05584e-19)
(0.887573 0.370718 -2.15906e-18)
(1.29102 0.166776 -3.70279e-20)
(1.04294 0.0640481 2.34621e-19)
(0.908036 0.183599 1.61651e-18)
(0.364311 0.177681 -1.38094e-18)
(0.911693 0.310367 1.37893e-18)
(1.44953 0.166801 2.08916e-20)
(1.16871 0.104541 -1.85135e-19)
(0.959283 0.282081 -5.65127e-19)
(0.412823 0.323488 -5.54506e-19)
(0.916259 0.234243 1.50708e-19)
(1.48093 0.154577 1.10479e-20)
(1.24515 0.151339 -4.29477e-20)
(0.983205 0.389104 -2.91702e-20)
(0.481574 0.479856 1.35388e-18)
(0.275367 0.0483759 0)
(0.244953 -0.0108894 6.42222e-19)
(0.159117 -0.0158089 1.28313e-19)
(0.151508 0.0053661 -1.21389e-19)
(0.184455 0.0439822 -1.8076e-18)
(0.57248 0.266134 -1.01932e-17)
(0.612547 0.0746037 -2.53156e-18)
(0.450127 0.0124053 5.03186e-19)
(0.427206 0.00132918 -6.69931e-19)
(0.408202 -0.0681484 -6.62673e-19)
(0.245824 0.0169581 -1.16385e-21)
(0.229879 0.0150766 1.92844e-18)
(0.213258 0.00506425 5.24067e-19)
(0.186424 0.00180192 3.23117e-19)
(0.162677 0.000824995 0)
(0.599281 -0.162052 -1.08913e-19)
(0.568176 -0.0802658 2.5498e-18)
(0.536502 -0.0464562 -1.35968e-19)
(0.484553 -0.0196391 -2.70041e-19)
(0.431993 -0.00441842 7.60328e-19)
)
;

boundaryField
{
    left
    {
        type            fixedValue;
        value           uniform (1 0 0);
    }
    right
    {
        type            zeroGradient;
    }
    down
    {
        type            noSlip;
    }
    up
    {
        type            noSlip;
    }
    cylinder
    {
        type            noSlip;
    }
    defaultFaces
    {
        type            empty;
    }
}


// ************************************************************************* //
