/*--------------------------------*- C++ -*----------------------------------*\
  =========                 |
  \\      /  F ield         | OpenFOAM: The Open Source CFD Toolbox
   \\    /   O peration     | Website:  https://openfoam.org
    \\  /    A nd           | Version:  13
     \\/     M anipulation  |
\*---------------------------------------------------------------------------*/
FoamFile
{
    format      ascii;
    class       volScalarField;
    location    "2.4";
    object      p;
}
// * * * * * * * * * * * * * * * * * * * * * * * * * * * * * * * * * * * * * //

dimensions      [0 2 -2 0 0 0 0];

internalField   nonuniform List<scalar> 
440
(
-1.39895
-1.36941
-1.35673
-1.37357
-1.44276
-1.46595
-1.43455
-1.41386
-1.40239
-1.40144
-1.61329
-1.57426
-1.52818
-1.47041
-1.40772
-1.7728
-1.72278
-1.61838
-1.49359
-1.36913
-1.8806
-1.80646
-1.63683
-1.46006
-1.29994
-0.970881
-0.976103
-0.991271
-1.009
-1.01327
-1.17413
-1.181
-1.20449
-1.23796
-1.26041
-1.35984
-1.36337
-1.38534
-1.42487
-1.46347
-1.43265
-1.42405
-1.42732
-1.45232
-1.47854
-1.4012
-1.37796
-1.35727
-1.37176
-1.38938
-0.805391
-0.0986857
0.0283718
0.0404724
0.0187736
-0.989552
-0.142428
0.0251648
0.0391221
0.0183813
-1.19745
-0.196518
0.0160145
0.0354888
0.0174655
-1.359
-0.263953
-0.00242525
0.0285174
0.0155339
-1.41602
-0.349714
-0.0313218
0.0172033
0.0121179
-1.2697
-0.386375
-0.0653905
-0.00260857
0.00556144
-0.947464
-0.363954
-0.104441
-0.0364175
-0.00740775
-0.801388
-0.363314
-0.11862
-0.0386195
-0.00808315
-0.671142
-0.373015
-0.166121
-0.0658262
-0.0163836
-0.575356
-0.370619
-0.186939
-0.0746056
-0.0175439
-1.02762
-1.13953
-1.27586
-1.39006
-1.52306
-0.756149
-0.884264
-0.980966
-1.04561
-1.07782
-0.580679
-0.69688
-0.770605
-0.822587
-0.849708
-0.465258
-0.571593
-0.639733
-0.684466
-0.703391
-0.410398
-0.514174
-0.580865
-0.617554
-0.619108
0.293624
0.134332
-0.0615388
-0.283474
-0.542322
-0.120495
-0.294538
-0.510611
-0.755755
-1.0354
-0.532552
-0.717906
-0.94715
-1.20464
-1.4557
-0.890555
-1.07899
-1.30848
-1.55563
-1.75233
-1.13891
-1.32396
-1.53671
-1.75782
-1.88756
1.61394
1.63486
1.65348
1.65913
1.64877
1.40882
1.417
1.41543
1.39498
1.3534
1.16281
1.14332
1.10013
1.03234
0.937318
0.877624
0.830174
0.745614
0.627698
0.475824
0.590565
0.485523
0.344165
0.173701
-0.0339788
1.45438
1.37267
1.42317
1.44296
1.5459
1.44209
1.35851
1.40177
1.4083
1.45415
1.43059
1.34235
1.37835
1.36116
1.33557
1.4199
1.32504
1.35237
1.30507
1.15842
1.41035
1.30665
1.32466
1.2418
0.968811
1.39991
1.2818
1.28788
1.14418
0.767545
1.39062
1.25365
1.25744
1.0479
0.757625
1.39096
1.23551
1.23497
0.988118
0.734489
1.38686
1.21325
1.21898
0.944439
0.722438
1.41668
1.20887
1.20977
0.917956
0.722561
0.295357
0.00275463
-0.339958
-0.637404
-0.849767
0.258976
0.0580229
-0.176955
-0.396536
-0.593229
0.286635
0.110884
-0.0797851
-0.267899
-0.441739
0.325106
0.161831
-0.00919087
-0.178285
-0.335528
0.351395
0.19368
0.0310936
-0.130583
-0.281325
-1.02666
-0.925981
-0.797257
-0.695631
-0.635988
-1.07821
-1.02874
-0.93573
-0.865516
-0.831002
-1.00519
-0.963143
-0.913742
-0.882001
-0.873836
-0.872569
-0.838742
-0.803583
-0.783646
-0.779924
-0.770908
-0.747168
-0.726259
-0.71006
-0.752171
-0.738293
-0.71992
-0.69882
-0.693309
-0.696828
-0.795871
-0.793189
-0.798237
-0.813588
-0.829513
-0.748969
-0.758586
-0.777848
-0.802063
-0.81636
-0.752859
-0.76237
-0.777496
-0.790242
-0.790717
-0.827221
-0.834138
-0.847859
-0.858988
-0.855916
-0.792802
-0.227754
-0.0370413
0.0232653
0.0153303
-0.77048
-0.166699
-0.0246444
0.0302819
0.0208949
-0.704093
-0.104953
-0.000416394
0.034393
0.0181965
-0.667206
-0.076932
0.0157223
0.0380839
0.0190522
-0.697426
-0.0733133
0.025637
0.0399368
0.0188293
-0.53339
-0.382915
-0.130667
0.00241091
0.0150542
-0.706415
-0.340194
-0.0799465
0.0330772
0.0269542
-0.601937
-0.833404
-0.86788
-0.859762
-0.689837
-0.617201
-0.825648
-0.880692
-0.825072
-0.848738
1.4618
1.44992
1.42453
1.38725
1.33843
1.60548
1.6267
1.63716
1.6352
1.62144
1.71803
1.74853
1.77383
1.78942
1.79311
1.76611
1.80087
1.83869
1.87056
1.8862
1.73322
1.76449
1.79944
1.82788
1.83955
-0.268342
-0.346647
-0.471187
-0.626586
-0.793674
0.229013
0.123444
-0.0180608
-0.188663
-0.393034
0.669482
0.559311
0.428238
0.274356
0.090162
1.0161
0.93369
0.833871
0.71339
0.571491
1.29061
1.23842
1.16954
1.08569
0.988081
1.52297
1.41549
1.48117
1.4841
1.55699
1.50746
1.41086
1.47475
1.48994
1.58998
1.4937
1.40424
1.46757
1.49356
1.63254
1.4802
1.39576
1.45587
1.48712
1.62558
1.46709
1.38519
1.441
1.4702
1.60002
1.57639
1.42479
1.47566
1.43199
1.44856
1.5338
1.41395
1.47253
1.4472
1.46434
1.18481
1.01922
0.714743
0.259921
-0.247608
1.25949
1.04738
0.730028
0.278529
-0.239092
)
;

boundaryField
{
    left
    {
        type            zeroGradient;
    }
    right
    {
        type            fixedValue;
        value           uniform 0;
    }
    down
    {
        type            zeroGradient;
    }
    up
    {
        type            zeroGradient;
    }
    cylinder
    {
        type            zeroGradient;
    }
    defaultFaces
    {
        type            empty;
    }
}


// ************************************************************************* //
