# Selection   : all
# Cells       : 440
# Volume      : 7.374263e+01
# Time        	min(p)
0.7           	-2.263630e+00
0.75          	-2.172987e+00
0.8           	-2.069700e+00
