/*--------------------------------*- C++ -*----------------------------------*\
  =========                 |
  \\      /  F ield         | OpenFOAM: The Open Source CFD Toolbox
   \\    /   O peration     | Website:  https://openfoam.org
    \\  /    A nd           | Version:  13
     \\/     M anipulation  |
\*---------------------------------------------------------------------------*/
FoamFile
{
    format      ascii;
    class       volVectorField;
    location    "0.325";
    object      U;
}
// * * * * * * * * * * * * * * * * * * * * * * * * * * * * * * * * * * * * * //

dimensions      [0 1 -1 0 0 0 0];

internalField   nonuniform List<vector> 
440
(
(0.218268 -0.176702 -1.81078e-19)
(0.613086 -0.436666 1.07911e-18)
(0.984287 -0.640897 4.23686e-19)
(1.32751 -0.795347 1.24139e-18)
(1.63252 -0.916655 -2.6004e-19)
(0.304901 -0.177689 -5.44577e-19)
(0.819146 -0.428709 -1.0197e-18)
(1.27998 -0.618905 1.14457e-19)
(1.6919 -0.761627 -1.21527e-18)
(2.05373 -0.875074 -1.02098e-18)
(0.384888 -0.15241 -6.98116e-19)
(1.0047 -0.36302 1.58994e-18)
(1.53978 -0.51839 -1.93488e-18)
(2.00474 -0.632631 1.37857e-18)
(2.40596 -0.721461 1.43046e-18)
(0.445878 -0.102748 5.62415e-19)
(1.14612 -0.243088 -1.29959e-18)
(1.73747 -0.344815 -7.50777e-19)
(2.24298 -0.418221 1.96679e-18)
(2.6745 -0.474458 2.5001e-18)
(0.479269 -0.0361591 6.86943e-19)
(1.22366 -0.0847558 1.69149e-19)
(1.84594 -0.119364 2.53143e-18)
(2.37407 -0.143865 -1.06208e-18)
(2.823 -0.162495 -4.8376e-19)
(-0.000877807 -0.051396 2.84801e-19)
(0.0502202 -0.143792 -3.78154e-19)
(0.106075 -0.221742 1.09535e-18)
(0.171549 -0.291587 -1.75009e-19)
(0.239648 -0.353185 -1.58748e-18)
(0.0136868 -0.0841662 -2.62432e-19)
(0.0894054 -0.227448 -4.24395e-19)
(0.174272 -0.349581 1.12416e-19)
(0.268617 -0.449372 6.08113e-20)
(0.364943 -0.529384 -3.84373e-20)
(0.0433135 -0.114216 6.86523e-20)
(0.165486 -0.302996 5.20021e-19)
(0.296227 -0.46705 9.37271e-20)
(0.432967 -0.598349 1.4639e-18)
(0.568062 -0.69678 -2.5018e-20)
(0.0866127 -0.140997 6.67448e-20)
(0.276373 -0.367782 -3.34998e-20)
(0.469496 -0.562883 2.1653e-19)
(0.661411 -0.718283 -2.04274e-18)
(0.844118 -0.830117 9.58752e-19)
(0.142129 -0.161731 -2.36168e-19)
(0.420084 -0.412851 -4.43228e-19)
(0.691392 -0.621437 -7.71977e-19)
(0.95012 -0.782315 9.55385e-19)
(1.18517 -0.89268 3.46157e-18)
(0.59241 -0.590904 -4.16191e-18)
(0.958306 -0.514392 1.16278e-18)
(1.28059 -0.209919 3.56633e-19)
(1.43433 -0.0566062 -6.46788e-19)
(1.4865 -0.0137791 -9.92707e-20)
(0.786047 -0.741944 4.88385e-18)
(1.04303 -0.619092 -3.35531e-19)
(1.31202 -0.274787 -1.40278e-19)
(1.45505 -0.0834422 4.26203e-19)
(1.49275 -0.0220007 1.74919e-19)
(1.03692 -0.876685 1.53455e-18)
(1.17889 -0.704008 4.09313e-18)
(1.34345 -0.335234 6.5375e-20)
(1.46584 -0.106928 4.69111e-19)
(1.49743 -0.0293911 -5.64658e-20)
(1.33066 -0.987772 1.23568e-18)
(1.35853 -0.766179 -4.18245e-19)
(1.39216 -0.386671 -7.81792e-19)
(1.46894 -0.126846 -3.0472e-19)
(1.50308 -0.0357153 1.99356e-20)
(1.62987 -1.04693 -3.77522e-21)
(1.55316 -0.807851 -1.66683e-18)
(1.45069 -0.432575 0)
(1.4622 -0.156706 2.54822e-19)
(1.50574 -0.0437785 2.88696e-20)
(2.15616 -1.11457 -1.57714e-18)
(1.83069 -0.799835 -4.96039e-19)
(1.56232 -0.435867 -1.07283e-20)
(1.45794 -0.163989 2.96493e-20)
(1.4404 -0.0417029 -1.07313e-19)
(2.63338 -0.889243 -1.61309e-18)
(1.90228 -0.590735 2.9515e-18)
(1.44744 -0.305113 4.68819e-21)
(1.21962 -0.123279 2.23551e-19)
(1.17246 -0.0341255 0)
(2.47915 -0.522488 -6.93229e-18)
(1.60673 -0.338263 -1.49624e-19)
(1.15182 -0.171336 2.03071e-18)
(0.925556 -0.0751899 -2.9984e-19)
(0.873389 -0.0205657 -6.58224e-20)
(1.76245 -0.219942 6.83787e-18)
(1.08906 -0.135717 1.2743e-18)
(0.751877 -0.0658204 2.24494e-19)
(0.588517 -0.0314396 2.81833e-33)
(0.540224 -0.00965292 -9.89141e-20)
(0.683132 0.000142451 1.55469e-18)
(0.395318 0.0234645 7.17177e-19)
(0.267499 0.0237308 -5.14696e-19)
(0.210383 0.0123956 1.97326e-19)
(0.188195 0.00394141 -5.18724e-20)
(3.58193 -0.168158 1.25611e-17)
(3.41721 -0.502915 -1.04429e-17)
(3.13669 -0.786947 7.10827e-18)
(2.78058 -0.995998 2.31998e-18)
(2.33304 -1.10161 -4.14778e-19)
(3.78462 -0.103588 1.03953e-17)
(3.71758 -0.324459 -6.63955e-19)
(3.57788 -0.551819 -4.27046e-18)
(3.37846 -0.785738 2.69081e-18)
(3.10052 -1.01972 -6.62797e-19)
(3.11487 -0.0605646 3.65437e-18)
(3.09869 -0.181699 -2.51859e-18)
(3.05967 -0.309683 5.01254e-18)
(2.999 -0.444853 -1.52758e-19)
(2.92452 -0.593576 -4.79036e-18)
(2.19087 -0.0276237 2.78868e-18)
(2.18385 -0.0833858 8.42994e-18)
(2.16462 -0.144037 -6.53243e-19)
(2.13406 -0.207324 -6.60739e-18)
(2.11305 -0.269479 1.94583e-18)
(0.879438 -0.0018425 5.21216e-18)
(0.876486 -0.00524072 -1.16429e-19)
(0.867358 -0.00957179 -4.25979e-20)
(0.850483 -0.0162615 -2.00905e-18)
(0.841121 -0.0229191 -3.60431e-18)
(1.653 0.939808 2.2695e-18)
(1.34823 0.816587 -7.67274e-20)
(1.00337 0.658632 -3.35902e-20)
(0.6279 0.449509 -1.96423e-19)
(0.225256 0.182323 -1.34375e-19)
(2.07043 0.89242 -1.21744e-18)
(1.71064 0.777713 -1.19832e-18)
(1.29832 0.632605 7.3294e-19)
(0.834066 0.438753 -4.84396e-19)
(0.312163 0.182104 -4.16469e-21)
(2.41858 0.735819 -5.90425e-19)
(2.01967 0.645353 5.2526e-19)
(1.55501 0.528774 2.4373e-18)
(1.01756 0.370212 8.08427e-19)
(0.391352 0.155292 5.26166e-19)
(2.68205 0.486707 1.42774e-20)
(2.25242 0.428294 -2.71959e-19)
(1.74746 0.352331 -6.46744e-19)
(1.15479 0.247653 2.05657e-18)
(0.450338 0.104148 -3.26855e-19)
(2.82552 0.173867 -1.17079e-18)
(2.37733 0.152647 -1.60654e-18)
(1.84944 0.125349 -7.2874e-19)
(1.22674 0.0878366 7.96318e-19)
(0.48087 0.0366879 -3.25842e-19)
(0.239787 0.415377 -2.12536e-18)
(0.169948 0.351966 -1.80356e-18)
(0.102785 0.275717 3.11397e-19)
(0.0454342 0.182654 -4.12127e-20)
(-0.00174937 0.0671128 3.35662e-20)
(0.370902 0.592376 -8.06205e-19)
(0.274005 0.508246 -6.57976e-19)
(0.178685 0.397942 5.71007e-21)
(0.0924817 0.25854 -2.30942e-20)
(0.0167129 0.0961134 2.39991e-20)
(0.581787 0.751814 2.17596e-18)
(0.446276 0.648307 -1.5817e-19)
(0.30794 0.506195 -1.44166e-19)
(0.174333 0.32795 -2.14328e-19)
(0.0482818 0.123745 1.68529e-19)
(0.862069 0.873803 -1.29985e-18)
(0.679198 0.757557 1.98806e-18)
(0.485296 0.593642 3.19896e-19)
(0.288321 0.388158 1.00408e-19)
(0.0924882 0.149119 -1.18096e-19)
(1.20359 0.924632 -4.42453e-19)
(0.969088 0.811463 -4.58922e-19)
(0.70861 0.644928 3.62412e-19)
(0.433356 0.429137 3.60622e-19)
(0.148473 0.168552 1.89914e-21)
(0.915428 0.157969 -3.74204e-19)
(1.46886 0.14093 5.43274e-20)
(1.29003 0.199294 2.18784e-20)
(1.0033 0.50248 -4.37028e-19)
(0.595913 0.643616 2.40512e-21)
(0.913304 0.0849967 1.61185e-19)
(1.47098 0.122073 2.63834e-19)
(1.31379 0.24157 1.77364e-19)
(1.05635 0.614177 -8.83111e-20)
(0.784152 0.800048 7.68623e-19)
(0.910756 0.0148035 3.23248e-20)
(1.48461 0.10189 -1.94118e-20)
(1.32151 0.284519 -5.72207e-20)
(1.16715 0.706277 -4.83816e-19)
(1.03753 0.933728 1.57662e-19)
(0.910112 -0.0525041 -2.18325e-20)
(1.49937 0.0828235 -5.96609e-19)
(1.34155 0.326832 1.10542e-19)
(1.32996 0.770407 1.24022e-18)
(1.33484 1.03873 9.39198e-19)
(0.910605 -0.118769 -1.75446e-20)
(1.5078 0.0695429 1.54134e-19)
(1.37498 0.370434 -6.85141e-20)
(1.5133 0.812174 -4.09787e-19)
(1.63553 1.08986 -2.7533e-18)
(0.908063 -0.21261 2.18252e-19)
(1.50283 0.0372047 4.27825e-19)
(1.46406 0.372165 -1.71778e-20)
(1.76953 0.793578 2.97432e-18)
(2.15216 1.14186 -5.52268e-18)
(0.875976 -0.336528 -2.59147e-20)
(1.38929 -0.0227226 -6.31382e-19)
(1.42787 0.269515 7.99622e-21)
(1.84939 0.59063 -3.04598e-18)
(2.59539 0.900039 1.66621e-18)
(0.78376 -0.411466 5.43075e-18)
(1.10409 -0.0848095 6.67833e-35)
(1.14358 0.145852 -2.1667e-18)
(1.57929 0.336878 2.67772e-18)
(2.45751 0.529164 5.03265e-18)
(0.632904 -0.291117 1.49773e-19)
(0.722488 -0.0704089 5.25071e-19)
(0.737191 0.0516831 2.53494e-19)
(1.07633 0.134207 6.24822e-19)
(1.75841 0.220433 -8.63955e-18)
(0.322051 -0.0432631 -4.30308e-18)
(0.295608 0.00498467 2.79964e-19)
(0.26677 -0.0128166 1.10019e-18)
(0.393741 -0.0239909 -7.73205e-19)
(0.686091 -0.000395192 -1.46477e-18)
(2.34835 1.12074 4.68551e-18)
(2.78715 1.01234 3.46843e-18)
(3.14082 0.803272 -5.68747e-18)
(3.41899 0.519547 -1.46135e-17)
(3.58243 0.185855 1.57622e-17)
(3.07924 1.01874 5.00787e-18)
(3.35437 0.795182 2.56452e-17)
(3.55721 0.560654 7.24405e-18)
(3.70129 0.331817 -3.08342e-17)
(3.77805 0.11113 -5.17368e-18)
(2.90601 0.591912 -7.2314e-18)
(2.98612 0.448081 -3.38113e-18)
(3.05225 0.312136 -6.30082e-18)
(3.09528 0.181761 -6.88932e-18)
(3.11404 0.0584533 6.52258e-18)
(2.10623 0.265976 5.41166e-18)
(2.13007 0.20583 -4.04869e-19)
(2.16251 0.143103 4.87036e-18)
(2.18311 0.0821719 6.28873e-18)
(2.19077 0.0260144 -5.88756e-18)
(0.842456 0.0220814 -5.74212e-19)
(0.851874 0.0156686 3.5198e-18)
(0.8686 0.00913944 2.44271e-18)
(0.877477 0.00479662 -5.16896e-18)
(0.879833 0.00136317 -3.84256e-20)
(0.281924 0.0207563 5.52017e-19)
(0.656656 0.0404657 -7.43434e-19)
(0.973118 0.0440661 -8.18581e-19)
(0.944296 0.027431 -1.51795e-18)
(0.697829 0.0163852 -6.63705e-19)
(0.245568 0.0554588 7.45532e-19)
(0.59125 0.107072 1.44151e-18)
(0.864659 0.12514 -6.97094e-19)
(0.939928 0.0969967 1.96055e-18)
(0.724154 0.0532377 -2.70085e-18)
(0.185611 0.0742631 4.96093e-19)
(0.476372 0.145891 -1.39917e-18)
(0.707748 0.184756 -9.13807e-19)
(0.857288 0.175407 -1.81037e-18)
(0.741546 0.101221 -2.86197e-18)
(0.123297 0.0774731 -7.72683e-19)
(0.344745 0.160353 -1.37658e-18)
(0.534512 0.214871 4.39807e-18)
(0.677681 0.233295 -3.66579e-19)
(0.713039 0.180012 2.25336e-18)
(0.0752676 0.0723669 -6.23132e-19)
(0.230695 0.160102 1.5639e-18)
(0.372245 0.224508 6.10872e-19)
(0.482752 0.257704 -1.2948e-18)
(0.561202 0.258363 -1.75228e-19)
(0.0451412 0.0637796 8.37449e-20)
(0.149937 0.148755 -1.22064e-18)
(0.247703 0.21208 -9.41912e-19)
(0.325346 0.233939 -9.17082e-20)
(0.371097 0.223627 -5.02721e-20)
(0.0264295 0.0556797 3.11968e-19)
(0.0950855 0.134181 5.92919e-19)
(0.160901 0.184509 -2.09938e-19)
(0.213763 0.194997 2.5949e-19)
(0.253626 0.184844 1.71628e-19)
(0.0132588 0.0487596 2.48847e-19)
(0.0585846 0.111156 1.3029e-18)
(0.103632 0.120823 -1.23623e-18)
(0.142565 0.107014 -2.78146e-18)
(0.178717 0.0855556 4.08691e-19)
(0.00608088 0.0392883 -2.36368e-19)
(0.0422279 0.0489728 -1.79907e-18)
(0.0793672 0.022002 3.2088e-18)
(0.119245 -0.00971714 1.3178e-18)
(0.160554 -0.0434706 -2.69659e-19)
(0.0099438 0.00285153 2.08725e-19)
(0.0418501 -0.0492264 -4.49803e-19)
(0.0817599 -0.0954383 8.9378e-20)
(0.130259 -0.143419 1.05982e-19)
(0.180754 -0.189636 5.89235e-21)
(0.338606 0.0712421 -7.83696e-20)
(0.615471 -0.0421086 -1.22226e-18)
(0.702817 -0.0139908 2.54812e-19)
(0.721416 0.00184848 3.83139e-19)
(0.719494 0.00102329 1.59737e-20)
(0.30307 -0.035164 -1.00298e-19)
(0.751395 -0.114716 1.44443e-18)
(0.88602 -0.0243396 9.20318e-19)
(0.921197 0.00211822 7.72521e-20)
(0.926463 0.0017937 -4.16326e-20)
(0.318918 -0.150111 -7.97023e-19)
(0.833612 -0.197751 3.08225e-18)
(1.04549 -0.0444966 -1.83282e-19)
(1.10624 0.000422195 -3.5542e-19)
(1.11836 0.00212261 8.2727e-20)
(0.373978 -0.28823 1.09577e-18)
(0.879999 -0.296651 -2.64026e-18)
(1.16294 -0.0863821 -5.19972e-19)
(1.26635 -0.00693769 -3.39965e-20)
(1.28834 0.00127705 -8.49037e-21)
(0.461094 -0.436175 5.08172e-19)
(0.913697 -0.403287 -5.63863e-19)
(1.23569 -0.145085 4.56357e-19)
(1.3829 -0.0272735 1.28392e-19)
(1.43218 -0.00429705 -4.01963e-20)
(0.182976 -0.0449379 9.54567e-19)
(0.14537 -0.00517906 0)
(0.162579 0.00119773 1.17596e-19)
(0.163589 8.73871e-05 9.3164e-21)
(0.160744 -0.00030992 -7.82754e-20)
(0.400049 0.0699424 0)
(0.409917 -0.000560129 0)
(0.466383 -0.00438916 6.24498e-20)
(0.472157 0.00153848 1.04041e-20)
(0.465824 0.000497739 3.02597e-20)
(0.16266 -0.000821149 -3.68397e-19)
(0.186373 -0.00179221 3.1073e-18)
(0.21318 -0.00502173 -6.86435e-19)
(0.229779 -0.0149904 -3.11662e-18)
(0.245675 -0.0170037 -7.9698e-19)
(0.431966 0.0044406 6.09832e-19)
(0.48449 0.0196922 4.11534e-18)
(0.536386 0.0466842 -6.73082e-18)
(0.567584 0.0805825 2.20904e-18)
(0.598319 0.162188 3.79522e-18)
(0.370587 -0.22016 -3.34071e-19)
(0.324179 -0.231191 -9.13529e-20)
(0.248306 -0.212428 -3.22553e-19)
(0.150748 -0.150698 3.856e-19)
(0.0458497 -0.0645873 1.14249e-19)
(0.257666 -0.168474 4.2012e-19)
(0.215106 -0.180643 1.4129e-18)
(0.16238 -0.176203 2.64816e-19)
(0.0967375 -0.134725 2.35397e-19)
(0.0268259 -0.0571395 -1.81577e-20)
(0.193096 -0.0535939 -3.09037e-19)
(0.151514 -0.0761564 -1.03082e-19)
(0.108657 -0.0937006 1.63129e-18)
(0.0622955 -0.0961399 2.88497e-19)
(0.0131154 -0.0477191 -3.10093e-19)
(0.177526 0.0873618 -6.34434e-19)
(0.131766 0.0535994 -7.06034e-19)
(0.0871082 0.0200568 1.30244e-18)
(0.0490551 -0.00985189 1.59303e-18)
(0.0111918 -0.0293197 1.9847e-19)
(0.18682 0.243488 1.2366e-19)
(0.13287 0.197279 -1.19917e-19)
(0.0809019 0.147611 2.48155e-19)
(0.0375853 0.0966582 6.13988e-19)
(-0.00247518 0.0354428 8.96721e-20)
(0.697826 -0.0163403 1.53126e-18)
(0.944303 -0.0274075 -1.80071e-18)
(0.972926 -0.0441913 2.26969e-18)
(0.656668 -0.040528 3.64426e-19)
(0.281957 -0.020765 5.36575e-19)
(0.724146 -0.0531283 1.77203e-18)
(0.939788 -0.0970097 7.94643e-18)
(0.864454 -0.125242 1.03356e-18)
(0.591301 -0.107112 1.34929e-18)
(0.245663 -0.0554799 -4.78411e-19)
(0.741474 -0.100965 -1.22216e-18)
(0.85668 -0.175234 -2.29544e-18)
(0.707665 -0.184813 2.92404e-18)
(0.476438 -0.14596 -1.08393e-19)
(0.185733 -0.0742987 3.39573e-19)
(0.712538 -0.179817 2.08158e-20)
(0.676953 -0.233217 -7.68205e-18)
(0.53454 -0.21519 -5.99593e-18)
(0.344878 -0.160689 1.09133e-18)
(0.123479 -0.0775785 5.08033e-19)
(0.558741 -0.256731 4.71418e-19)
(0.48168 -0.257022 5.32856e-19)
(0.372299 -0.225185 -8.97599e-19)
(0.230948 -0.160973 -8.87483e-19)
(0.0756157 -0.0726287 -5.14152e-21)
(0.726067 0.372631 1.17185e-18)
(0.888981 0.125306 -1.91812e-19)
(0.684232 0.019092 2.60194e-19)
(0.6489 0.0385099 -7.66954e-19)
(0.363055 -0.0609501 -1.01267e-19)
(0.82492 0.397097 -1.68223e-19)
(1.1039 0.153386 -5.34453e-19)
(0.875658 0.0381616 8.28762e-19)
(0.807358 0.103301 1.68129e-18)
(0.341317 0.055403 1.05667e-19)
(0.887358 0.370601 -2.15518e-18)
(1.29206 0.166521 -3.70375e-20)
(1.04312 0.06423 2.33889e-19)
(0.907963 0.183756 1.61293e-18)
(0.364292 0.17773 -1.37854e-18)
(0.911211 0.310043 1.37478e-18)
(1.45049 0.166459 2.11595e-20)
(1.16836 0.104816 -1.84098e-19)
(0.959038 0.282228 -5.58312e-19)
(0.412706 0.323501 -5.53222e-19)
(0.915626 0.233874 1.50039e-19)
(1.48021 0.154518 9.82159e-21)
(1.24414 0.151633 -4.22261e-20)
(0.982815 0.389218 -2.72986e-20)
(0.481406 0.479832 1.35396e-18)
(0.275354 0.0483761 0)
(0.24499 -0.0108717 6.41904e-19)
(0.159186 -0.0158031 1.28354e-19)
(0.151545 0.00535678 -1.22049e-19)
(0.184459 0.0439769 -1.80762e-18)
(0.572441 0.266122 -1.01929e-17)
(0.612708 0.0745704 -2.53011e-18)
(0.450357 0.0123944 5.03617e-19)
(0.427312 0.0013539 -6.70222e-19)
(0.408237 -0.068138 -6.62724e-19)
(0.245822 0.0169568 -1.1682e-21)
(0.229877 0.0150765 1.92843e-18)
(0.213257 0.00506424 5.24049e-19)
(0.186423 0.00180192 3.23121e-19)
(0.162676 0.000824989 0)
(0.599284 -0.16205 -1.08719e-19)
(0.568176 -0.0802633 2.54992e-18)
(0.536499 -0.0464554 -1.35904e-19)
(0.48455 -0.019639 -2.70022e-19)
(0.43199 -0.00441839 7.60322e-19)
)
;

boundaryField
{
    left
    {
        type            fixedValue;
        value           uniform (1 0 0);
    }
    right
    {
        type            zeroGradient;
    }
    down
    {
        type            noSlip;
    }
    up
    {
        type            noSlip;
    }
    cylinder
    {
        type            noSlip;
    }
    defaultFaces
    {
        type            empty;
    }
}


// ************************************************************************* //
