/*--------------------------------*- C++ -*----------------------------------*\
  =========                 |
  \\      /  F ield         | OpenFOAM: The Open Source CFD Toolbox
   \\    /   O peration     | Website:  https://openfoam.org
    \\  /    A nd           | Version:  13
     \\/     M anipulation  |
\*---------------------------------------------------------------------------*/
FoamFile
{
    format      ascii;
    class       volScalarField;
    location    "3.8";
    object      p;
}
// * * * * * * * * * * * * * * * * * * * * * * * * * * * * * * * * * * * * * //

dimensions      [0 2 -2 0 0 0 0];

internalField   nonuniform List<scalar> 
1800
(
-0.955154
-0.955814
-0.954709
-0.950861
-0.944505
-0.936125
-0.928209
-0.923417
-0.920474
-0.960546
-0.981763
-0.980618
-0.978302
-0.974121
-0.968076
-0.960368
-0.951944
-0.944979
-0.938335
-0.968574
-1.0182
-1.01407
-1.00954
-1.0041
-0.997899
-0.990939
-0.983304
-0.975691
-0.969186
-0.975889
-1.0623
-1.05495
-1.04739
-1.03972
-1.03177
-1.0231
-1.01321
-1.00211
-0.990924
-0.982342
-1.11935
-1.10891
-1.09866
-1.08833
-1.0771
-1.06373
-1.04732
-1.02778
-1.00605
-0.983717
-1.19149
-1.17824
-1.1649
-1.15056
-1.13294
-1.11036
-1.0825
-1.05031
-1.01534
-0.979439
-1.27766
-1.26183
-1.24432
-1.22304
-1.19453
-1.15793
-1.11483
-1.06789
-1.01959
-0.972281
-1.37209
-1.35411
-1.33031
-1.29771
-1.25332
-1.19875
-1.13824
-1.07587
-1.01447
-0.955814
-1.46513
-1.44492
-1.41192
-1.36344
-1.29927
-1.22488
-1.14692
-1.07007
-0.996841
-0.928476
-1.54401
-1.52086
-1.47576
-1.40809
-1.32251
-1.22872
-1.13471
-1.04486
-0.961005
-0.883612
-0.985282
-0.992571
-1.00184
-1.01433
-1.03187
-1.05433
-1.08071
-1.11058
-1.1458
-1.18876
-1.00486
-1.00936
-1.01592
-1.02666
-1.04314
-1.06512
-1.09154
-1.12158
-1.15611
-1.19722
-1.03574
-1.03665
-1.03974
-1.04847
-1.06347
-1.08434
-1.11007
-1.13952
-1.17231
-1.2098
-1.05558
-1.05214
-1.0519
-1.05781
-1.07017
-1.08837
-1.11136
-1.13784
-1.16609
-1.19159
-1.05455
-1.04761
-1.04419
-1.04676
-1.05561
-1.0704
-1.09052
-1.11526
-1.14381
-1.17433
-1.03493
-1.02651
-1.02056
-1.01875
-1.02138
-1.02858
-1.04022
-1.05595
-1.0753
-1.0962
-1.00713
-0.999761
-0.993026
-0.987365
-0.982819
-0.979791
-0.978852
-0.98052
-0.985421
-0.994158
-0.979787
-0.975366
-0.969877
-0.962681
-0.953319
-0.942116
-0.929991
-0.918233
-0.908875
-0.907672
-0.957813
-0.9564
-0.95302
-0.946361
-0.9354
-0.920725
-0.903373
-0.884965
-0.868126
-0.858942
-0.943031
-0.943863
-0.941867
-0.935711
-0.925326
-0.911066
-0.893801
-0.874848
-0.856347
-0.8404
-1.43235
-1.61592
-1.07247
-0.64003
-0.368879
-0.127748
-0.0186663
0.0309788
0.0327494
0.0182718
-1.43911
-1.71185
-1.24291
-0.774123
-0.42807
-0.153162
-0.0274836
0.0270293
0.0304783
0.0172694
-1.45832
-1.82716
-1.47198
-0.906054
-0.488266
-0.181438
-0.0395198
0.0206603
0.0269682
0.0156623
-1.4566
-1.92071
-1.63273
-1.02891
-0.547123
-0.21145
-0.0544041
0.0120561
0.0223236
0.0135429
-1.40295
-1.9725
-1.75719
-1.13591
-0.603619
-0.242782
-0.0717673
0.00143019
0.0166631
0.0110255
-1.30347
-1.97477
-1.83724
-1.22369
-0.656949
-0.275516
-0.0914083
-0.0110085
0.0101059
0.00821349
-1.16164
-1.92897
-1.87381
-1.2896
-0.706189
-0.309806
-0.113347
-0.0251372
0.00274263
0.00518968
-1.00237
-1.84242
-1.87221
-1.3322
-0.749593
-0.345151
-0.137586
-0.0409537
-0.0054206
0.00201637
-0.860501
-1.73369
-1.8416
-1.35299
-0.785544
-0.380316
-0.163863
-0.058529
-0.0145026
-0.00129036
-0.76576
-1.61903
-1.79546
-1.35874
-0.81526
-0.414512
-0.191677
-0.0778583
-0.0246939
-0.00478198
-0.652293
-1.53072
-1.72438
-1.30847
-0.80826
-0.437572
-0.221
-0.101888
-0.0384317
-0.00946114
-0.719093
-1.37948
-1.52413
-1.1686
-0.764599
-0.453727
-0.254512
-0.131199
-0.0553756
-0.0150271
-0.728628
-1.19851
-1.31403
-1.04627
-0.733019
-0.47601
-0.290584
-0.16103
-0.0721058
-0.0198878
-0.724047
-1.03781
-1.13508
-0.945659
-0.70981
-0.504461
-0.332927
-0.194807
-0.091169
-0.0252068
-0.68971
-0.901695
-0.98369
-0.86016
-0.69591
-0.541008
-0.380268
-0.228667
-0.108304
-0.0288987
-0.64474
-0.788888
-0.856883
-0.788574
-0.689239
-0.577747
-0.42345
-0.259637
-0.124029
-0.031935
-0.596233
-0.696473
-0.751491
-0.728245
-0.686723
-0.611564
-0.459179
-0.282889
-0.135215
-0.0335286
-0.54919
-0.624673
-0.672261
-0.684107
-0.682618
-0.626156
-0.471898
-0.294495
-0.141588
-0.0344962
-0.513805
-0.587931
-0.633333
-0.659155
-0.675322
-0.62427
-0.471592
-0.29647
-0.143936
-0.0351814
-0.488796
-0.581823
-0.640128
-0.66624
-0.670891
-0.614042
-0.46508
-0.294571
-0.145007
-0.0363306
-0.750024
-0.807027
-0.849783
-0.883445
-0.910203
-0.938267
-0.964487
-0.985733
-0.97125
-0.945909
-0.597381
-0.662537
-0.716469
-0.76138
-0.798441
-0.827628
-0.846984
-0.855512
-0.851287
-0.846926
-0.475999
-0.543675
-0.602402
-0.651088
-0.69099
-0.720908
-0.742081
-0.756098
-0.764792
-0.773165
-0.376663
-0.444905
-0.504777
-0.555475
-0.597326
-0.631492
-0.658594
-0.682428
-0.702116
-0.722027
-0.295934
-0.363769
-0.423175
-0.475371
-0.518967
-0.557286
-0.588988
-0.618273
-0.643284
-0.667789
-0.231019
-0.297873
-0.356617
-0.409327
-0.454024
-0.494031
-0.527787
-0.558524
-0.585169
-0.610288
-0.180103
-0.245759
-0.303922
-0.356081
-0.400893
-0.440468
-0.474236
-0.504158
-0.530522
-0.554793
-0.142688
-0.207242
-0.264857
-0.315844
-0.359961
-0.397925
-0.430477
-0.458283
-0.482906
-0.504421
-0.120313
-0.184181
-0.241464
-0.291705
-0.335339
-0.372028
-0.403278
-0.428526
-0.450488
-0.467614
-0.110652
-0.17485
-0.232442
-0.283069
-0.326881
-0.363733
-0.394618
-0.41881
-0.438804
-0.451166
0.623813
0.552457
0.470697
0.38306
0.288223
0.183826
0.0700843
-0.0463545
-0.143738
-0.19042
0.425283
0.348352
0.262483
0.168388
0.0641919
-0.0516726
-0.177919
-0.306157
-0.412212
-0.461692
0.207857
0.128255
0.0400252
-0.0579985
-0.167946
-0.290971
-0.425125
-0.560709
-0.672156
-0.722445
-0.000356059
-0.0831038
-0.175183
-0.27803
-0.393444
-0.52233
-0.662467
-0.802434
-0.915834
-0.964679
-0.187496
-0.274529
-0.371529
-0.479689
-0.600475
-0.734414
-0.879346
-1.02122
-1.13079
-1.17899
-0.353208
-0.444505
-0.54588
-0.65827
-0.782968
-0.920412
-1.06572
-1.20484
-1.31021
-1.35644
-0.498871
-0.592913
-0.696529
-0.810752
-0.936605
-1.07352
-1.2159
-1.34894
-1.44694
-1.4895
-0.627118
-0.7205
-0.822997
-0.935643
-1.05899
-1.19153
-1.3266
-1.4489
-1.53595
-1.5736
-0.734454
-0.824552
-0.923239
-1.03125
-1.14846
-1.27228
-1.39505
-1.50195
-1.57554
-1.60779
-0.820036
-0.904665
-0.997032
-1.09734
-1.20461
-1.31528
-1.4211
-1.50908
-1.56815
-1.59537
1.92197
1.93801
1.95457
1.97047
1.9848
1.99681
2.00578
2.01161
2.01634
2.02115
1.85524
1.86805
1.88061
1.89181
1.9009
1.90715
1.90981
1.90913
1.90818
1.9096
1.76733
1.77591
1.78321
1.78831
1.79067
1.78956
1.78427
1.77535
1.76717
1.76443
1.66025
1.66406
1.66506
1.6627
1.65676
1.64652
1.63131
1.61213
1.59495
1.58735
1.5339
1.53187
1.52562
1.51494
1.49985
1.47959
1.4535
1.42303
1.3958
1.38292
1.39227
1.38431
1.3699
1.34951
1.32367
1.29168
1.25302
1.20974
1.17137
1.15253
1.23542
1.22097
1.19836
1.16839
1.13172
1.0876
1.03566
0.978698
0.928486
0.903503
1.07246
1.05051
1.01758
0.975784
0.926424
0.868823
0.802707
0.731575
0.669431
0.63833
0.908306
0.878782
0.835143
0.780762
0.717587
0.645028
0.563128
0.476477
0.401775
0.364726
0.757366
0.710181
0.649171
0.579225
0.501294
0.413809
0.316628
0.215228
0.128919
0.0866417
1.6397
1.62633
1.61607
1.60983
1.60981
1.61441
1.63472
1.67388
1.7416
1.84942
1.63368
1.62126
1.61191
1.60467
1.60457
1.60685
1.62552
1.65943
1.71796
1.80888
1.62827
1.61624
1.60758
1.59907
1.59876
1.59812
1.61492
1.64183
1.68874
1.75654
1.62337
1.61131
1.6031
1.59306
1.59239
1.58821
1.60297
1.62088
1.65451
1.69181
1.61896
1.60653
1.59846
1.58669
1.58542
1.57714
1.58967
1.59638
1.6159
1.61367
1.61501
1.60192
1.59364
1.58001
1.57782
1.56499
1.57492
1.56831
1.57312
1.52132
1.61152
1.59752
1.58866
1.57305
1.56954
1.55182
1.5586
1.53666
1.5263
1.41327
1.6085
1.59334
1.58349
1.56586
1.56055
1.53774
1.5405
1.50166
1.47519
1.29101
1.60597
1.58938
1.57817
1.55846
1.55086
1.5229
1.52048
1.46349
1.41798
1.15267
1.60397
1.58564
1.57275
1.55087
1.54062
1.50746
1.49966
1.42396
1.35775
1.00983
1.60206
1.58153
1.56548
1.5414
1.52629
1.48697
1.46896
1.37408
1.28629
0.873521
1.6014
1.5778
1.55741
1.53108
1.50934
1.46522
1.43396
1.33119
1.21533
0.854784
1.60261
1.57521
1.54903
1.52138
1.492
1.44549
1.40042
1.29687
1.15775
0.848538
1.60625
1.57378
1.54076
1.51249
1.4748
1.42795
1.36912
1.26967
1.11075
0.847656
1.61299
1.57324
1.53274
1.50447
1.45705
1.41269
1.34018
1.24897
1.07431
0.849202
1.62349
1.5738
1.52503
1.49732
1.43977
1.39953
1.31401
1.23377
1.04773
0.849867
1.63758
1.57301
1.51636
1.48818
1.42212
1.38738
1.29111
1.22229
1.02942
0.850189
1.66281
1.57654
1.51073
1.48136
1.40686
1.37665
1.27218
1.21451
1.01763
0.851297
1.67546
1.56901
1.49856
1.46946
1.39405
1.3693
1.26001
1.211
1.01219
0.854534
1.75205
1.58201
1.50226
1.46674
1.38827
1.3663
1.25464
1.2112
1.00972
0.859444
0.611865
0.450734
0.258385
0.0735667
-0.0916296
-0.238279
-0.369294
-0.486551
-0.589642
-0.678079
0.567494
0.441084
0.296091
0.149975
0.0144452
-0.109813
-0.224139
-0.331411
-0.430802
-0.520318
0.556896
0.449799
0.333913
0.214214
0.0978841
-0.0133556
-0.119137
-0.219377
-0.312763
-0.398451
0.573761
0.473993
0.370155
0.26608
0.163488
0.0631061
-0.034341
-0.128022
-0.217049
-0.300141
0.595036
0.500957
0.404866
0.310536
0.217762
0.125656
0.0345977
-0.0546747
-0.140322
-0.221384
0.616319
0.527534
0.437374
0.349401
0.262967
0.176328
0.0896512
0.00356057
-0.0793377
-0.15842
0.636045
0.55215
0.466754
0.383008
0.300278
0.216879
0.132947
0.0492204
-0.0317413
-0.108924
0.653456
0.573976
0.492566
0.411523
0.330415
0.24827
0.165484
0.0831486
0.00349616
-0.0723136
0.668808
0.59293
0.514627
0.434702
0.353189
0.270302
0.187078
0.104843
0.0252748
-0.0502446
0.681046
0.606783
0.529186
0.448217
0.365006
0.280816
0.196961
0.114564
0.0350426
-0.0404568
-1.72013
-1.68051
-1.59583
-1.48925
-1.38117
-1.2827
-1.19799
-1.12819
-1.07357
-1.0346
-1.7989
-1.76426
-1.69333
-1.60162
-1.50569
-1.4165
-1.33891
-1.27462
-1.22462
-1.1902
-1.81188
-1.78162
-1.72567
-1.65212
-1.57198
-1.49497
-1.42636
-1.36839
-1.32257
-1.29041
-1.77173
-1.74505
-1.70301
-1.64832
-1.58622
-1.52388
-1.46644
-1.41658
-1.37622
-1.34702
-1.69765
-1.67421
-1.64336
-1.60518
-1.56062
-1.51366
-1.4683
-1.4271
-1.39192
-1.36373
-1.61019
-1.59016
-1.56738
-1.54129
-1.51091
-1.47759
-1.44376
-1.41126
-1.38213
-1.35777
-1.52595
-1.50973
-1.49269
-1.47442
-1.45386
-1.43118
-1.40739
-1.38383
-1.36154
-1.34164
-1.45441
-1.44226
-1.42963
-1.41626
-1.40172
-1.38583
-1.36891
-1.35099
-1.33427
-1.31869
-1.39868
-1.3903
-1.38132
-1.37152
-1.36096
-1.3497
-1.33783
-1.32574
-1.31309
-1.30891
-1.35757
-1.35233
-1.3463
-1.33932
-1.33172
-1.32379
-1.31553
-1.30775
-1.29701
-1.29798
-1.32826
-1.32524
-1.32149
-1.31677
-1.31162
-1.30648
-1.30169
-1.2974
-1.29083
-1.26884
-1.30786
-1.30614
-1.30359
-1.3003
-1.29681
-1.29354
-1.29058
-1.28764
-1.28246
-1.25718
-1.29449
-1.29282
-1.29066
-1.28822
-1.2858
-1.28371
-1.28219
-1.28092
-1.27809
-1.26864
-1.28441
-1.28263
-1.28135
-1.28108
-1.28187
-1.2838
-1.28696
-1.29128
-1.2969
-1.30627
-1.26905
-1.26812
-1.26917
-1.27305
-1.27959
-1.28862
-1.30006
-1.31388
-1.33021
-1.35077
-1.23841
-1.23983
-1.24428
-1.25278
-1.26512
-1.28101
-1.30028
-1.32269
-1.34795
-1.3766
-1.18704
-1.19213
-1.19987
-1.212
-1.22842
-1.24885
-1.27288
-1.29987
-1.32898
-1.36053
-1.11822
-1.12576
-1.13648
-1.15093
-1.16984
-1.19319
-1.22042
-1.25093
-1.28547
-1.32814
-1.04722
-1.05625
-1.06791
-1.08266
-1.10181
-1.12543
-1.15278
-1.18357
-1.21987
-1.26562
-0.997613
-1.00653
-1.01763
-1.0316
-1.05015
-1.07324
-1.09997
-1.13016
-1.16622
-1.21124
-1.27275
-1.47236
-0.996223
-0.657839
-0.450306
-0.220996
-0.0796959
-0.0130077
0.0096841
0.00857508
-1.34807
-1.54946
-0.967584
-0.553158
-0.367493
-0.185231
-0.0729025
-0.0138851
0.00877079
0.00831106
-1.42967
-1.59857
-0.921213
-0.436237
-0.287548
-0.150928
-0.0637212
-0.0110039
0.0103604
0.00901288
-1.5188
-1.63121
-0.865094
-0.327997
-0.218284
-0.120424
-0.051879
-0.00433179
0.0142229
0.010531
-1.60353
-1.66205
-0.813325
-0.251578
-0.173444
-0.097872
-0.0390086
0.00467433
0.019313
0.0125038
-1.66563
-1.68506
-0.78006
-0.220228
-0.158909
-0.0846269
-0.0272718
0.0139253
0.0244044
0.0145192
-1.68213
-1.68133
-0.775789
-0.238675
-0.176667
-0.0797024
-0.0184438
0.0218237
0.0286389
0.0162628
-1.63898
-1.64212
-0.802382
-0.304804
-0.212506
-0.0819942
-0.0131647
0.0276884
0.0316536
0.0175745
-1.54421
-1.59096
-0.853803
-0.400248
-0.259504
-0.0911755
-0.0114759
0.0312592
0.0333498
0.0183831
-1.46909
-1.57503
-0.940189
-0.513032
-0.312689
-0.106691
-0.0133113
0.0323894
0.0337145
0.0186343
-1.10818
-1.07576
-0.886538
-0.76759
-0.543776
-0.254938
-0.0747033
0.00146688
0.019237
0.0121754
-1.10233
-1.06526
-0.881504
-0.770093
-0.550729
-0.258826
-0.0763317
0.000731187
0.0188492
0.0120451
-1.11378
-1.10683
-0.89627
-0.774237
-0.555498
-0.262365
-0.0788831
-0.00137677
0.0175713
0.0115794
-1.14762
-1.20314
-0.929516
-0.771624
-0.552996
-0.260724
-0.0813376
-0.00495246
0.0153103
0.0107031
-1.20591
-1.35467
-0.973887
-0.726536
-0.511379
-0.248178
-0.0829547
-0.00971347
0.012272
0.00955408
-0.995435
-1.14359
-1.24366
-1.30816
-1.32495
-1.33034
-1.31064
-1.28136
-1.24522
-1.20343
-0.996268
-1.14676
-1.24534
-1.30808
-1.31975
-1.32455
-1.30344
-1.26994
-1.24007
-1.19451
-0.99891
-1.15109
-1.2488
-1.30971
-1.31917
-1.32333
-1.30136
-1.27103
-1.24602
-1.20954
-1.00516
-1.1594
-1.25758
-1.31637
-1.32739
-1.32811
-1.30836
-1.28458
-1.2654
-1.25103
-1.01587
-1.17272
-1.27213
-1.3291
-1.34305
-1.33912
-1.32356
-1.30338
-1.29
-1.29541
1.45718
1.44602
1.42781
1.40565
1.38045
1.35111
1.31688
1.27956
1.24749
1.23218
1.56986
1.57121
1.56589
1.5559
1.54241
1.52487
1.50271
1.47731
1.45533
1.44535
1.67963
1.68671
1.68896
1.68767
1.68366
1.67643
1.66531
1.65107
1.63861
1.63349
1.77731
1.78915
1.79808
1.80456
1.80887
1.81043
1.80847
1.80337
1.79868
1.79791
1.86082
1.87629
1.88997
1.90196
1.91225
1.92027
1.92525
1.92728
1.92881
1.93164
1.92502
1.94287
1.96021
1.97665
1.99183
2.00512
2.01575
2.02349
2.02989
2.03569
1.96898
1.98841
2.00815
2.02748
2.04577
2.06238
2.07653
2.08785
2.09737
2.10514
1.99086
2.01089
2.03178
2.05257
2.07244
2.09069
2.10656
2.11958
2.13058
2.13928
1.9903
2.01
2.03077
2.05149
2.07122
2.08925
2.10483
2.11752
2.12823
2.13675
1.96727
1.98566
2.005
2.02409
2.04197
2.05792
2.07119
2.08148
2.09008
2.0973
-0.825369
-0.870613
-0.930029
-1.00422
-1.094
-1.19875
-1.31518
-1.43249
-1.5278
-1.57203
-0.569503
-0.621097
-0.685536
-0.763603
-0.856491
-0.964387
-1.08579
-1.21025
-1.31286
-1.36009
-0.281946
-0.339576
-0.408799
-0.490056
-0.584678
-0.69337
-0.814638
-0.939604
-1.04823
-1.09665
0.0155376
-0.0464875
-0.118713
-0.201262
-0.295381
-0.401932
-0.519753
-0.641872
-0.747006
-0.797425
0.301371
0.237973
0.165987
0.0854611
-0.00477549
-0.105804
-0.216924
-0.331899
-0.430003
-0.478679
0.559954
0.499508
0.432035
0.357577
0.274952
0.182933
0.0819442
-0.0224542
-0.111229
-0.155859
0.787726
0.734277
0.6751
0.610078
0.537955
0.457436
0.368791
0.276982
0.199053
0.15981
0.992512
0.947713
0.898217
0.843825
0.783141
0.714841
0.63913
0.560412
0.493712
0.460336
1.18342
1.14642
1.10479
1.05942
1.00904
0.95223
0.889059
0.823245
0.767654
0.740193
1.35058
1.32118
1.28607
1.24881
1.20872
1.16412
1.11449
1.0625
1.01853
0.997134
1.75264
1.66238
1.63958
1.62949
1.6235
1.62874
1.6374
1.65811
1.64799
1.58731
1.73525
1.66153
1.63967
1.631
1.62578
1.63244
1.64433
1.67063
1.67996
1.66178
1.71959
1.6597
1.63893
1.63152
1.62713
1.63489
1.65014
1.6835
1.71112
1.73388
1.70552
1.65708
1.63753
1.63116
1.6276
1.63616
1.65428
1.69293
1.73663
1.79234
1.69287
1.6538
1.6356
1.63001
1.62728
1.63635
1.6566
1.6993
1.75618
1.8386
1.6815
1.64998
1.63321
1.62815
1.62619
1.63546
1.65714
1.70256
1.76947
1.87187
1.67127
1.64573
1.63041
1.62561
1.62434
1.63346
1.65594
1.70271
1.77632
1.89223
1.66208
1.64116
1.62726
1.62246
1.62175
1.63035
1.65307
1.69981
1.77677
1.90006
1.65381
1.63635
1.62379
1.61875
1.61844
1.62614
1.64856
1.694
1.77106
1.89537
1.64639
1.63138
1.62004
1.61452
1.61445
1.62083
1.64243
1.68536
1.75932
1.87835
1.91943
1.66498
1.6317
1.61624
1.61113
1.61161
1.60693
1.60685
1.53936
1.48233
1.84501
1.65904
1.63275
1.61927
1.61302
1.61289
1.60779
1.60826
1.54188
1.4788
1.82207
1.66405
1.63637
1.62228
1.61513
1.61518
1.61076
1.61269
1.55273
1.47826
1.79543
1.66377
1.63805
1.62496
1.6176
1.61862
1.61718
1.62248
1.57361
1.48932
1.77231
1.66296
1.639
1.62732
1.62039
1.6232
1.62544
1.63718
1.60428
1.51312
1.23138
1.11883
0.968351
0.775309
0.542407
0.277347
-0.00756097
-0.294674
-0.564667
-0.800738
1.22602
1.11703
0.97223
0.7846
0.557329
0.296159
0.0117905
-0.27839
-0.554221
-0.796846
1.23691
1.12452
0.978062
0.792694
0.569649
0.311275
0.0266103
-0.266755
-0.547613
-0.795595
1.26966
1.14379
0.987056
0.800103
0.579469
0.322622
0.0369522
-0.259641
-0.545024
-0.797891
1.32593
1.17759
1.00146
0.806841
0.585242
0.32913
0.04318
-0.255835
-0.54571
-0.804075
)
;

boundaryField
{
    left
    {
        type            zeroGradient;
    }
    right
    {
        type            fixedValue;
        value           uniform 0;
    }
    down
    {
        type            zeroGradient;
    }
    up
    {
        type            zeroGradient;
    }
    cylinder
    {
        type            zeroGradient;
    }
    defaultFaces
    {
        type            empty;
    }
}


// ************************************************************************* //
