/*--------------------------------*- C++ -*----------------------------------*\
  =========                 |
  \\      /  F ield         | OpenFOAM: The Open Source CFD Toolbox
   \\    /   O peration     | Website:  https://openfoam.org
    \\  /    A nd           | Version:  13
     \\/     M anipulation  |
\*---------------------------------------------------------------------------*/
FoamFile
{
    format      ascii;
    class       surfaceScalarField;
    location    "3.8";
    object      phi;
}
// * * * * * * * * * * * * * * * * * * * * * * * * * * * * * * * * * * * * * //

dimensions      [0 3 -1 0 0 0 0];

internalField   nonuniform List<scalar> 
3485
(
-0.0017261
0.00404957
-0.00232347
-0.00429548
0.00796051
-0.00539113
-0.00571092
0.00890513
-0.00748969
-0.00436921
0.00734167
-0.00868338
0.00108897
0.00333078
-0.00878896
0.0118024
-0.00316032
-0.00755313
0.0287485
-0.012141
-0.00480509
0.052429
-0.0233033
-0.000377157
0.0835666
-0.0357535
0.00461598
-0.0416127
0.00786282
0.117316
-0.000681747
0.00473132
-0.000870952
0.00814971
0.0011323
0.00690187
0.00693071
0.00154326
0.0178959
-0.00763439
0.0350471
-0.0203116
0.058796
-0.0358898
0.0890013
-0.0535087
0.125375
-0.072127
-0.085657
0.169419
0.000328228
0.00440309
0.00277753
0.00570041
0.00894229
0.000737112
0.0204261
-0.00994057
0.0383171
-0.0255253
0.0629132
-0.0449077
0.0935101
-0.0664867
0.128489
-0.0884873
0.165878
-0.109517
-0.126862
0.207083
0.000999888
0.0034032
0.00585437
0.000845929
0.0163695
-0.00977799
0.0337576
-0.0273287
0.0582858
-0.0500535
0.0888306
-0.0754525
0.123155
-0.100811
0.158536
-0.123868
0.192228
-0.143209
-0.158182
0.223548
0.00186612
0.00153709
0.00952574
-0.00681369
0.0246401
-0.0248924
0.0475936
-0.0502822
0.0769274
-0.0793873
0.109679
-0.108204
0.142411
-0.133542
0.172189
-0.153647
0.197135
-0.168154
-0.177942
0.216895
0.0030249
-0.00148781
0.0138384
-0.0176272
0.0333041
-0.0443582
0.0600101
-0.0769882
0.0904462
-0.109823
0.1205
-0.138258
0.146944
-0.159986
0.168121
-0.174824
0.1839
-0.183933
-0.188939
0.194896
0.00434689
-0.0058347
0.0181824
-0.0314627
0.0406297
-0.0668054
0.0680236
-0.104382
0.0955715
-0.137371
0.119556
-0.162243
0.138275
-0.178705
0.151806
-0.188356
0.161183
-0.19331
-0.1955
0.167745
0.005644
-0.0114787
0.021675
-0.0474937
0.0448636
-0.0899941
0.0698524
-0.129371
0.092077
-0.159596
0.109329
-0.179495
0.121517
-0.190893
0.129667
-0.196506
0.13505
-0.198692
-0.198997
0.138547
0.00667672
-0.0181554
0.0235725
-0.0643895
0.0452368
-0.111658
0.0659392
-0.150073
0.0823916
-0.176048
0.093904
-0.191008
0.101295
-0.198284
0.105826
-0.201036
0.108554
-0.20142
-0.200593
0.110149
0.00726355
-0.025419
0.0235712
-0.0806972
0.0421461
-0.130233
0.0580063
-0.165933
0.0692773
-0.187319
0.0762545
-0.197985
0.0800963
-0.202126
0.0819671
-0.202907
0.0826815
-0.202134
0.0826214
-0.200533
-0.00487665
0.0102379
-0.00536125
-0.0151909
0.0240484
-0.0137341
-0.0283699
0.0317365
-0.0185576
-0.0429784
0.0353182
-0.0207097
-0.0583116
0.0367932
-0.0214599
-0.0740613
0.0373948
-0.0216452
-0.0900767
0.0376393
-0.0216238
-0.106241
0.0376784
-0.0215145
-0.122441
0.0375728
-0.0213722
0.0377086
-0.138738
-0.0214114
-0.00261476
0.0128527
-0.0091804
0.0306141
-0.018578
0.0411341
-0.0297421
0.0464822
-0.041822
0.0488732
-0.0543002
0.0498729
-0.066904
0.0502432
-0.0794686
0.0502429
-0.0918481
0.0499523
0.04976
-0.1039
0.000275025
0.0125776
-0.000871789
0.0317609
-0.00440661
0.0446689
-0.0100117
0.0520873
-0.016905
0.0557665
-0.0243529
0.0573208
-0.0318786
0.0577689
-0.0392245
0.0575888
-0.0462073
0.0569351
0.0559834
-0.0524306
0.00262475
0.00995288
0.00672576
0.0276599
0.00980016
0.0415945
0.0108915
0.050996
0.0101954
0.0564625
0.00838705
0.0591292
0.00612713
0.0600288
0.00386866
0.0598473
0.00186067
0.0589431
0.0576008
0.000243221
0.00370983
0.00624305
0.0113502
0.0200195
0.0200168
0.0329279
0.0278405
0.0431723
0.0340981
0.0502049
0.0389096
0.0543177
0.0428025
0.056136
0.0463739
0.0562758
0.0501292
0.0551878
0.0529329
0.0547971
0.00344231
0.00280074
0.0117926
0.0116692
0.0229801
0.0217404
0.0351194
0.031033
0.0469323
0.038392
0.0578331
0.0434169
0.0677702
0.0461989
0.0769882
0.0470578
0.0858095
0.0463664
0.0439657
0.0947768
0.00234476
0.000455973
0.00890808
0.00510591
0.0188476
0.0118008
0.0310055
0.0188751
0.0442727
0.0251249
0.0578314
0.0298581
0.0712142
0.0328161
0.084241
0.034031
0.0969368
0.0336706
0.0312433
0.109659
0.00094197
-0.000485997
0.00434068
0.0017072
0.0103769
0.00576462
0.0187772
0.0104748
0.0290071
0.0148949
0.0404795
0.0183857
0.0527079
0.0205877
0.0653916
0.0213473
0.0785163
0.020546
0.0174234
0.0923362
-0.000700002
0.000214005
-0.00103476
0.00204195
1.75563e-05
0.0047123
0.0029018
0.00759058
0.00767258
0.0101241
0.014201
0.0118573
0.0223077
0.012481
0.0318464
0.0118087
0.0427301
0.00966226
0.00549364
0.0546598
-0.00210946
-0.00545865
-0.00823603
-0.00932883
-0.00799364
-0.0036895
0.0039864
0.0154179
0.0296962
0.0430526
-0.226678
0.282343
-0.194403
-0.201294
0.295773
-0.321157
-0.0769453
0.112271
-0.23662
0.0291349
-0.194712
0.0886317
0.0995482
-0.403584
0.33317
0.146583
-0.411381
0.364346
0.175282
-0.368313
0.339614
0.191954
-0.278134
0.261462
0.203474
-0.226221
0.2147
-0.141272
0.134726
-0.175555
0.353998
-0.153915
0.274133
-0.0410551
-0.000588823
0.0595893
-0.295356
0.124859
-0.468854
0.167352
-0.453873
0.19148
-0.392441
0.204278
-0.290931
0.211797
-0.23374
-0.145354
-0.102692
0.40426
-0.0851441
0.256585
0.00731558
-0.0930485
0.0948908
-0.382932
0.152578
-0.52654
0.188701
-0.489996
0.207486
-0.411226
0.216408
-0.299854
0.220231
-0.237563
-0.147123
-0.0255272
0.43003
-0.0101447
0.241203
0.057388
-0.160581
0.131586
-0.457129
0.180351
-0.575306
0.209629
-0.519275
0.222756
-0.424352
0.22772
-0.304818
0.228212
-0.238056
-0.14687
0.0476806
0.437147
0.0568807
0.232003
0.107055
-0.210756
0.166587
-0.516661
0.206292
-0.615011
0.228985
-0.541967
0.23683
-0.432198
0.237916
-0.305904
0.23539
-0.23553
-0.144911
0.108889
0.423034
0.114998
0.225894
0.152154
-0.247911
0.1983
-0.562808
0.22936
-0.64607
0.245941
-0.558548
0.249272
-0.435529
0.246855
-0.303486
0.241608
-0.230283
-0.141539
0.153021
0.379673
0.16184
0.217074
0.190647
-0.276718
0.225497
-0.597658
0.248649
-0.669223
0.259983
-0.569882
0.259748
-0.435295
0.254458
-0.298196
0.246825
-0.22265
-0.137027
0.175015
0.296994
0.196209
0.195881
0.221743
-0.302252
0.247294
-0.623209
0.263538
-0.685467
0.270788
-0.577132
0.268032
-0.432538
0.260663
-0.290827
0.251065
-0.213051
-0.13164
0.171285
0.180369
0.219223
0.147942
0.245807
-0.328836
0.263386
-0.640788
0.27391
-0.695992
0.278315
-0.581537
0.27404
-0.428263
0.265419
-0.282207
0.254351
-0.201983
-0.125662
0.154689
0.0687329
0.235584
0.0670468
0.262905
-0.356156
0.273517
-0.6514
0.280494
-0.702969
0.283026
-0.584069
0.277956
-0.423193
0.268747
-0.272998
0.256714
-0.18995
-0.119388
0.423191
0.0373992
-0.391857
0.576974
-0.086736
0.661016
-0.440198
0.657485
-0.647869
0.611798
-0.657281
0.554575
-0.526846
0.497741
-0.366359
0.450439
-0.225697
0.409364
-0.148875
-0.0949407
0.668041
0.00759586
-0.638237
0.74572
-0.164415
0.755969
-0.450448
0.697979
-0.589879
0.625206
-0.584509
0.559015
-0.460654
0.499074
-0.306418
0.450821
-0.177445
0.409666
-0.10772
-0.0698126
0.765084
-0.0331229
-0.724365
0.788631
-0.187962
0.747354
-0.409171
0.685926
-0.528451
0.628185
-0.526768
0.569302
-0.401772
0.507972
-0.245087
0.455576
-0.125048
0.411088
-0.0632316
-0.0430109
0.773534
-0.0671385
-0.739519
0.774816
-0.189243
0.741478
-0.375834
0.697398
-0.484371
0.637899
-0.467268
0.567356
-0.331228
0.497843
-0.175574
0.442698
-0.069903
0.399968
-0.0205017
-0.0182579
0.757801
-0.0911254
-0.733814
0.75818
-0.189623
0.731604
-0.349257
0.683899
-0.436667
0.614879
-0.398248
0.539743
-0.256092
0.473189
-0.10902
0.422733
-0.0194471
0.385047
0.0171844
0.00331194
0.740953
-0.107373
-0.724705
0.741441
-0.190111
0.713234
-0.32105
0.65336
-0.376793
0.56859
-0.313479
0.486117
-0.173618
0.423505
-0.0464092
0.38252
0.0215382
0.356098
0.043606
0.0181347
0.721655
-0.115064
-0.713964
0.714477
-0.182933
0.665154
-0.271728
0.573659
-0.285298
0.468911
-0.20873
0.388436
-0.0931428
0.341264
0.000762098
0.319191
0.0436111
0.310448
0.0523495
0.0231783
0.673405
-0.104319
-0.68415
0.63661
-0.146138
0.544369
-0.179487
0.418578
-0.159506
0.309744
-0.0998962
0.248894
-0.0322931
0.229883
0.0197727
0.232964
0.0405301
0.243973
0.0413408
0.0184034
0.519881
-0.0606187
-0.563581
0.437789
-0.0640465
0.314705
-0.0564034
0.19633
-0.0411305
0.122688
-0.0262543
0.097866
-0.00747141
0.106293
0.0113455
0.128378
0.0184455
0.15137
0.0183481
0.00817575
0.183475
-0.244094
0.119429
0.0630253
0.0218948
-0.0043595
-0.0118309
-0.000485393
0.0179601
0.0363082
0.549983
0.0714371
-0.538799
0.562305
0.0978281
0.577264
0.123588
0.593259
0.151749
0.608987
0.179168
0.621918
0.203965
0.614769
0.230697
0.584241
0.237611
0.495985
0.257675
0.221444
0.530598
0.0603701
-0.519531
0.545304
0.083123
0.56118
0.107711
0.583274
0.129655
0.603712
0.158731
0.631063
0.176613
0.650011
0.211748
0.666688
0.220934
0.666111
0.258252
0.249318
0.516737
0.0505573
-0.506924
0.531614
0.0682463
0.54703
0.0922946
0.568457
0.108228
0.590247
0.136942
0.616992
0.149868
0.645855
0.182886
0.674339
0.192451
0.707061
0.22553
0.232014
0.50731
0.0407642
-0.497517
0.521073
0.0544834
0.537064
0.0763037
0.556324
0.0889682
0.579526
0.11374
0.604241
0.125153
0.6359
0.151226
0.666391
0.16196
0.705323
0.186598
0.197818
0.499891
0.0306176
-0.489744
0.512488
0.041886
0.529085
0.0597076
0.54726
0.0707927
0.570988
0.0900122
0.595312
0.100828
0.626531
0.120008
0.657717
0.130774
0.695793
0.148522
0.159797
0.492378
0.020584
-0.482344
0.504393
0.0298702
0.520925
0.0431755
0.539028
0.0526901
0.562454
0.0665858
0.587179
0.0761037
0.617509
0.0896774
0.64918
0.0991033
0.686019
0.111682
0.121112
0.481501
0.0111504
-0.472067
0.493278
0.0180928
0.509323
0.0271306
0.527662
0.0343518
0.550633
0.0436142
0.575893
0.0508437
0.60579
0.0597802
0.638069
0.066825
0.674796
0.0749553
0.0819438
0.456545
0.00304493
-0.448439
0.467427
0.00721031
0.482225
0.0123329
0.499954
0.016623
0.521832
0.0217359
0.546751
0.0259247
0.575876
0.0306549
0.608103
0.0345984
0.644539
0.0385195
0.0423328
0.384835
-0.00147163
-0.380319
0.392035
1.10312e-05
0.402553
0.00181456
0.415873
0.00330343
0.432665
0.00494361
0.452336
0.00625379
0.475422
0.00756831
0.50148
0.00854121
0.530679
0.00931964
0.00943098
0.192907
-0.194379
0.192918
0.194733
0.198036
0.20298
0.209234
0.216802
0.225343
0.234663
0.0715043
0.14795
-0.136286
-0.0831683
0.0607948
0.150119
-0.139409
0.0509194
0.152725
-0.14285
0.0413501
0.156205
-0.146636
0.0318406
0.159903
-0.150394
0.0224862
0.162688
-0.153334
0.0137182
0.161842
-0.153074
0.0063592
0.151405
-0.144046
0.00150738
0.120979
-0.116127
0.056748
-0.0552406
0.0674141
0.158382
-0.0778466
0.0571377
0.160395
0.0472042
0.162659
0.0376242
0.165785
0.0283046
0.169223
0.0193613
0.171632
0.0112563
0.169947
0.00479381
0.157867
0.00089836
0.124874
0.0576464
0.0597514
0.167593
-0.0689624
0.0502652
0.169881
0.0409082
0.172016
0.0318661
0.174828
0.0231821
0.177907
0.0150304
0.179783
0.00790167
0.177076
0.00264014
0.163129
3.25371e-05
0.127482
0.0576789
0.0483852
0.175494
-0.0562858
0.0401463
0.17812
0.0318538
0.180308
0.0237626
0.182919
0.0160525
0.185617
0.00903017
0.186806
0.00326338
0.182843
-0.000368763
0.166761
-0.00107109
0.128184
0.0566078
0.0348842
0.182298
-0.0416883
0.0278811
0.185123
0.0207837
0.187405
0.0138383
0.189864
0.00732802
0.192127
0.00167633
0.192457
-0.00227596
0.186795
-0.00364468
0.16813
-0.0023261
0.126866
0.0542817
0.0194856
0.188003
-0.0251909
0.0137061
0.190903
0.00789156
0.19322
0.00227023
0.195485
-0.00278636
0.197184
-0.00663927
0.19631
-0.00847131
0.188627
-0.00744762
0.167106
-0.00365754
0.123075
0.0506242
0.00283897
0.19285
-0.00768527
-0.00185291
0.195595
-0.00643362
0.197801
-0.0106697
0.199721
-0.014102
0.200616
-0.0159924
0.198201
-0.0153406
0.187975
-0.0114062
0.163172
-0.00493277
0.116602
0.0456914
-0.0158199
0.196567
0.0121026
-0.0192928
0.199068
-0.0225148
0.201023
-0.0251964
0.202403
-0.0267435
0.202163
-0.0262268
0.197684
-0.0225858
0.184334
-0.0153426
0.155929
-0.00605423
0.107314
0.0396372
-0.0361716
0.199171
0.0335681
-0.03841
0.201306
-0.0401974
0.20281
-0.0411259
0.203331
-0.0404285
0.201466
-0.0370182
0.194274
-0.0298655
0.177182
-0.0189622
0.145025
-0.00689156
0.0952431
0.0327456
-0.0586282
0.0572657
-0.0594567
-0.0595536
-0.058348
-0.0548672
-0.0479128
-0.0366646
-0.0218725
-0.00732666
0.109722
0.0383739
-0.121934
-0.0261622
0.0972287
0.0394196
-0.026926
0.084442
0.0405538
-0.0277672
0.0713366
0.0417633
-0.0286579
0.0578947
0.0430294
-0.0295876
0.044141
0.0442148
-0.030461
0.0302602
0.0447796
-0.0308988
0.0168954
0.0431981
-0.0298333
0.00569169
0.0361997
-0.024996
0.0183377
-0.012646
0.108424
0.0505455
-0.120595
0.0960481
0.0517952
0.0833925
0.0532094
0.070426
0.0547298
0.0571232
0.0563323
0.0435066
0.0578313
0.0297703
0.0585159
0.0165709
0.0563975
0.00555133
0.0472193
0.023889
0.106729
0.0625623
-0.118746
0.0944461
0.0640784
0.0819086
0.0657468
0.0690902
0.0675482
0.0559679
0.0694546
0.0425596
0.0712396
0.029056
0.0720196
0.0161171
0.0693364
0.00536749
0.0579689
0.0292565
0.10444
0.0745791
-0.116457
0.092306
0.0762122
0.0799118
0.0781411
0.0672351
0.0802248
0.0542736
0.0824161
0.0410791
0.0844341
0.0278741
0.0852246
0.0153315
0.081879
0.00503681
0.0682636
0.0342933
0.101619
0.0863434
-0.113383
0.0897095
0.0881213
0.0776296
0.0902211
0.0653069
0.0925476
0.0526911
0.0950319
0.0398142
0.0973109
0.0269196
0.0981191
0.01472
0.0940786
0.004797
0.0781866
0.0390903
0.097668
0.0981548
-0.109479
0.0858644
0.0999249
0.0739057
0.10218
0.0618036
0.10465
0.0495475
0.107288
0.0371649
0.109694
0.0248833
0.110401
0.0134049
0.105557
0.00425208
0.0873394
0.0433424
0.0935054
0.109306
-0.104656
0.0823558
0.111074
0.071009
0.113527
0.0593708
0.116288
0.0474555
0.119203
0.0353828
0.121766
0.0234722
0.122311
0.0124787
0.11655
0.00388126
0.0959369
0.0472236
0.0860388
0.120282
-0.0970148
0.0752961
0.121817
0.064605
0.124218
0.0538349
0.127058
0.0428735
0.130165
0.0317582
0.132882
0.0208097
0.13326
0.0108181
0.126542
0.00321913
0.103536
0.0504428
0.0811378
0.129512
-0.0903682
0.071493
0.131462
0.0612702
0.134441
0.0507004
0.137628
0.0399521
0.140913
0.0291867
0.143647
0.0187721
0.143674
0.00950305
0.135811
0.00270669
0.110332
0.0531494
0.0700528
-0.0768263
0.0621056
0.0536966
0.0446882
0.0352076
0.0255207
0.0161207
0.00788597
0.00209119
0.201655
0.00379113
-0.00745629
0.205522
0.0249702
-0.0288374
0.209608
0.0323737
-0.0364592
0.212162
0.049878
-0.0524326
0.213927
0.0627476
-0.0645126
0.212933
0.0781431
-0.0771488
0.208438
0.104517
-0.100022
0.197235
0.13587
-0.124667
0.172168
0.189893
-0.164827
0.251288
-0.201054
0.201312
0.000468874
0.204693
0.0215891
0.208743
0.0283241
0.210612
0.0480086
0.21246
0.0609003
0.21062
0.0799829
0.206212
0.108925
0.19439
0.147692
0.169514
0.214769
0.300207
0.200936
-0.00247743
0.203713
0.0188123
0.207651
0.0243859
0.208702
0.0469573
0.210593
0.0590096
0.207726
0.0828502
0.203431
0.11322
0.190479
0.160644
0.166271
0.238977
0.347732
0.200504
-0.00499194
0.202586
0.0167302
0.206306
0.0206668
0.206472
0.0467908
0.208316
0.0571659
0.204278
0.0868875
0.200138
0.11736
0.185599
0.175182
0.162494
0.262083
0.393769
0.199995
-0.00699706
0.201319
0.0154061
0.204699
0.0172869
0.203951
0.0475391
0.205601
0.0555153
0.200316
0.0921732
0.196256
0.12142
0.179915
0.191523
0.158089
0.283908
0.438475
0.199388
-0.00839517
0.199916
0.0148777
0.202831
0.014372
0.201157
0.0492132
0.202441
0.0542314
0.195845
0.0987687
0.19178
0.125486
0.173203
0.2101
0.153336
0.303776
0.482331
0.198668
-0.00907375
0.198388
0.0151578
0.200706
0.0120547
0.198116
0.0518026
0.19881
0.0535378
0.190959
0.10662
0.186492
0.129953
0.166045
0.230546
0.147558
0.322263
0.525233
0.197831
-0.00891527
0.196747
0.0162425
0.198334
0.0104678
0.194841
0.0552948
0.194717
0.0536625
0.185641
0.115695
0.180517
0.135078
0.157571
0.253492
0.141572
0.338262
0.56979
0.196886
-0.00781132
0.194999
0.0181295
0.195735
0.00973181
0.191342
0.0596873
0.190121
0.0548839
0.180032
0.125784
0.173827
0.141283
0.150363
0.276956
0.13476
0.353865
0.614182
0.195881
-0.00570253
0.193108
0.0209021
0.192991
0.0098487
0.187528
0.0651512
0.184967
0.0574442
0.173439
0.137312
0.165171
0.14955
0.13986
0.302268
0.12821
0.365515
0.665565
0.305006
-0.00869815
0.30749
0.0184178
0.317194
0.000144961
0.319
0.0633456
0.330596
0.0458477
0.33095
0.136959
0.350347
0.130154
0.35522
0.297394
0.407159
0.313576
0.596066
0.476658
0.305112
-0.0118003
0.308924
0.0146058
0.319602
-0.0105329
0.322917
0.0600304
0.335788
0.0329768
0.33999
0.132757
0.360486
0.109657
0.375177
0.282704
0.422853
0.2659
0.529794
0.489126
0.305155
-0.0149447
0.311382
0.00837822
0.321637
-0.0207877
0.327711
0.053956
0.340512
0.0201763
0.349548
0.123721
0.36917
0.0900352
0.390266
0.261607
0.432311
0.223855
0.458071
0.504034
0.30561
-0.0185449
0.31486
-0.000871121
0.323426
-0.0293537
0.333615
0.0437671
0.34451
0.00928069
0.358282
0.109949
0.375322
0.0729956
0.40136
0.23557
0.441798
0.183416
0.383779
0.51609
0.306996
-0.0235305
0.319172
-0.0130473
0.326123
-0.0363042
0.340197
0.0296921
0.349909
-0.000430455
0.367684
0.092174
0.381842
0.0588376
0.413338
0.204073
0.447699
0.149056
0.311968
0.51951
0.30934
-0.0308599
0.324003
-0.0277111
0.329952
-0.0422531
0.347359
0.0122848
0.355909
-0.00897992
0.375645
0.0724383
0.387556
0.0469257
0.422533
0.169096
0.452215
0.119374
0.243549
0.520634
0.312697
-0.0415471
0.328571
-0.0435851
0.334325
-0.048007
0.352918
-0.00630834
0.358103
-0.0141646
0.378669
0.0518729
0.388764
0.0368303
0.427454
0.130406
0.455402
0.0914261
0.178287
0.520664
0.315851
-0.0553878
0.328789
-0.0565231
0.331582
-0.0507998
0.344647
-0.0193734
0.34377
-0.0132877
0.363548
0.0320952
0.373505
0.0268726
0.417268
0.0866436
0.447287
0.0614071
0.113483
0.512091
0.308666
-0.0620439
0.303683
-0.0515401
0.291318
-0.0384341
0.287667
-0.0157229
0.280621
-0.00624206
0.298252
0.0144642
0.311821
0.013304
0.36012
0.0383447
0.393935
0.0275918
0.0475124
0.459906
0.239966
0.188426
0.149992
0.134269
0.128027
0.142491
0.155795
0.19414
0.221732
0.269244
0.489769
-0.0962795
0.494161
-0.082239
0.497579
-0.07238
0.50069
-0.0593972
0.505177
-0.0461749
0.509794
-0.0298086
0.515619
-0.0135103
0.521925
0.00579665
0.530041
0.0254527
0.0485073
0.489995
-0.0971491
0.490492
-0.0827355
0.490563
-0.0724511
0.490615
-0.0594496
0.492088
-0.0476479
0.494155
-0.0318755
0.498207
-0.0175622
0.503513
0.000490622
0.510569
0.0183971
0.0395444
0.497579
-0.0906946
0.494013
-0.079169
0.490669
-0.069108
0.488157
-0.0569369
0.486621
-0.0461117
0.487057
-0.0323116
0.488725
-0.0192305
0.492581
-0.00336502
0.497968
0.0130092
0.0305884
0.505017
-0.0796209
0.496752
-0.0709043
0.490147
-0.0625029
0.485756
-0.0525464
0.48222
-0.0425749
0.481279
-0.0313707
0.481372
-0.0193239
0.484626
-0.00661893
0.489204
0.00843186
0.0222747
0.507342
-0.0674526
0.497294
-0.0608562
0.488902
-0.0541107
0.482897
-0.0465414
0.478342
-0.0380206
0.476227
-0.0292549
0.47577
-0.0188672
0.478047
-0.00889638
0.48249
0.00398889
0.0150208
0.507814
-0.0546333
0.496752
-0.0497935
0.487388
-0.0447466
0.480108
-0.0392616
0.474765
-0.0326779
0.471575
-0.0260649
0.470598
-0.0178903
0.471871
-0.0101693
0.475968
-0.000107532
0.00864442
0.506883
-0.0408527
0.494636
-0.0375463
0.484091
-0.0342012
0.475476
-0.0306466
0.469013
-0.0262156
0.464637
-0.021688
0.462719
-0.0159732
0.463034
-0.0104841
0.466355
-0.00342828
0.00293202
0.496395
-0.0251569
0.482405
-0.0235554
0.470266
-0.0220628
0.460073
-0.0204529
0.452109
-0.0182517
0.446246
-0.0158253
0.442913
-0.0126405
0.441861
-0.00943203
0.443834
-0.00540125
-0.00167311
0.443781
-0.0090326
0.429404
-0.00917863
0.416652
-0.00931027
0.405469
-0.00927002
0.396079
-0.00886177
0.388451
-0.00819738
0.382983
-0.00717287
0.379594
-0.00604256
0.378798
-0.00460552
-0.00319368
0.260212
0.251033
0.241723
0.232453
0.223591
0.215394
0.208221
0.202178
0.197573
0.00717497
0.0445288
-0.0517038
0.0169146
0.115256
-0.124996
0.0234215
0.162051
-0.168557
0.0257552
0.187065
-0.189399
0.0249513
0.197574
-0.196771
0.0222932
0.200033
-0.197375
0.0187196
0.198158
-0.194584
0.0148597
0.193005
-0.189146
0.0112944
0.183341
-0.179775
0.165735
0.0086104
-0.163051
0.00858048
0.0359484
0.0226142
0.101223
0.0344046
0.15026
0.0415756
0.179894
0.0446885
0.194462
0.0451049
0.199616
0.0439587
0.199304
0.0419057
0.195058
0.039152
0.186094
0.169441
0.0354465
0.00914777
0.0268006
0.0268091
0.0835612
0.0441724
0.132897
0.0570172
0.167049
0.0649139
0.186565
0.0690206
0.19551
0.0705996
0.197725
0.0703703
0.195288
0.0683469
0.188118
0.174188
0.0635996
0.00875514
0.0180454
0.0285311
0.0637853
0.0510312
0.110397
0.070208
0.147873
0.0839677
0.172805
0.0927762
0.186701
0.0978845
0.192617
0.10023
0.192942
0.0998321
0.188516
0.178285
0.0957348
0.00752432
0.0105211
0.0271993
0.0441103
0.0531395
0.0844566
0.0785763
0.122436
0.099348
0.152033
0.11435
0.171699
0.124286
0.182682
0.130205
0.187023
0.132599
0.186122
0.180717
0.130168
0.00578045
0.00474067
0.0230781
0.0268127
0.0493414
0.0581933
0.0791045
0.0926728
0.107002
0.124136
0.129804
0.148897
0.146574
0.165912
0.157786
0.175811
0.164119
0.179788
0.179171
0.165665
0.00394654
0.000794129
0.0173954
0.0133639
0.0405403
0.0350483
0.0706398
0.0625733
0.103143
0.0916333
0.133733
0.118306
0.159543
0.140102
0.179367
0.155987
0.193275
0.16588
0.171827
0.200619
0.00235954
-0.00156541
0.0116302
0.00409321
0.0294161
0.0172624
0.0554744
0.036515
0.0874669
0.0596408
0.121858
0.0839143
0.15515
0.10681
0.18445
0.126687
0.208395
0.141935
0.153104
0.227118
0.00117556
-0.00274098
0.00683601
-0.00156724
0.0188633
0.0052351
0.0383481
0.0170302
0.0650303
0.0329586
0.0972521
0.0516925
0.132486
0.0715761
0.16808
0.0910936
0.200639
0.109376
0.120725
0.233017
0.000394965
-0.00313594
0.00334706
-0.00451933
0.0105037
-0.00192153
0.0232404
0.00429351
0.0423715
0.0138275
0.0678387
0.0262253
0.0986427
0.0407721
0.133256
0.0564799
0.169427
0.0732053
0.0866553
0.203497
-5.92415e-05
-0.0030767
0.0011349
-0.00571348
0.00481152
-0.00559815
0.0121321
-0.00302711
0.0241107
0.00184897
0.0414255
0.00891049
0.0642456
0.017952
0.0920872
0.0286383
0.124495
0.0407973
0.0566629
0.154488
-0.000192235
-0.00288447
0.000218475
-0.00612419
0.00196645
-0.00734613
0.00574215
-0.0068028
0.0122449
-0.00465377
0.0220946
-0.000939244
0.0357838
0.00426276
0.0533867
0.0110355
0.0745544
0.0196296
0.0318998
0.0993174
0.000197693
-0.00308216
0.00104376
-0.00697026
0.00268417
-0.00898654
0.00527842
-0.00939705
0.00907998
-0.00845533
0.0144551
-0.00631442
0.0217375
-0.0030196
0.0312536
0.00151938
0.0432894
0.00759375
0.0154526
0.0597367
0.00101072
-0.00409288
0.00318983
-0.00914937
0.00608827
-0.011885
0.00955027
-0.0128591
0.0136234
-0.0125285
0.0184954
-0.0111864
0.0244611
-0.00898527
0.0319497
-0.00596922
0.0416605
-0.00211705
0.00268983
0.0544232
0.00159925
-0.00569213
0.00449746
-0.0120476
0.00790306
-0.0152906
0.0116465
-0.0166025
0.0158457
-0.0167277
0.0207358
-0.0160765
0.0266023
-0.0148517
0.0337717
-0.0131387
0.0426102
-0.0109555
-0.00842298
0.053723
0.00132884
-0.00702097
0.00311544
-0.0138342
0.00474061
-0.0169157
0.0062975
-0.0181594
0.00809467
-0.0185248
0.0104525
-0.0184343
0.0136482
-0.0180474
0.0179205
-0.0174111
0.0234784
-0.0165133
-0.0154416
0.030497
-1.26197e-05
-0.00700835
-0.00120499
-0.0126418
-0.00342834
-0.0146924
-0.00611258
-0.0154751
-0.00875858
-0.0158788
-0.0110419
-0.016151
-0.0127843
-0.016305
-0.0139143
-0.0162811
-0.0144419
-0.0159858
-0.0155267
-0.0143568
-0.00226451
-0.00474384
-0.00779829
-0.00710803
-0.0151503
-0.00734037
-0.0232627
-0.00736274
-0.0315356
-0.00760595
-0.0396855
-0.00800104
-0.0475838
-0.00840684
-0.0551587
-0.00870614
-0.0623252
-0.0088192
-0.00887231
-0.0689796
-0.00455372
-0.000190119
-0.0140222
0.00236042
-0.025861
0.00449847
-0.0386959
0.00547211
-0.051946
0.00564417
-0.0654054
0.00545833
-0.0789788
0.00516658
-0.0925728
0.00488788
-0.106076
0.00468356
0.00450679
-0.119455
-0.00555137
-0.0169251
-0.0309841
-0.0462217
-0.0620375
-0.0782243
-0.0946816
-0.111308
-0.127997
-0.144901
0.207705
0.126606
-0.179824
0.205642
0.492284
-0.490221
0.170804
0.545229
-0.510391
0.164617
0.23206
-0.225873
0.179532
-0.0726133
0.0576988
0.188387
-0.167961
0.159105
0.191169
-0.13754
0.134757
0.194049
-0.0855306
0.0826511
0.198633
-0.0524643
0.0478801
-0.0306316
0.0243615
0.16584
0.0600837
0.197659
0.460465
0.180682
0.562205
0.185809
0.226933
0.191955
-0.0787597
0.188695
-0.1647
0.187361
-0.136206
0.19077
-0.0889397
0.197469
-0.059163
-0.037857
0.134474
-0.0146538
0.177223
0.417716
0.177662
0.561767
0.186838
0.217757
0.180272
-0.0721936
0.169487
-0.153915
0.170371
-0.13709
0.178838
-0.097406
0.190811
-0.071136
-0.0475708
0.11244
-0.072671
0.143422
0.386734
0.155297
0.549892
0.162304
0.21075
0.146841
-0.0567306
0.138859
-0.145933
0.148956
-0.147188
0.16536
-0.11381
0.183497
-0.089273
-0.0600175
0.0796032
-0.0985512
0.0951072
0.37123
0.110714
0.534285
0.113553
0.207911
0.10359
-0.0467673
0.111115
-0.153458
0.133394
-0.169466
0.156678
-0.137094
0.179096
-0.111691
-0.0741559
0.024336
-0.0923902
0.0334884
0.362078
0.0461135
0.52166
0.0528461
0.201178
0.0694493
-0.0633705
0.0967683
-0.180777
0.127915
-0.200613
0.154596
-0.163775
0.17846
-0.135555
-0.0885954
-0.0517253
-0.0550217
-0.0479919
0.358344
-0.0270196
0.500688
0.00389003
0.170269
0.0549737
-0.114454
0.0949667
-0.22077
0.130144
-0.235791
0.157358
-0.190989
0.180611
-0.158807
-0.102352
-0.137779
0.0137774
-0.135108
0.355673
-0.0818036
0.447384
-0.014831
0.103296
0.0547913
-0.184077
0.100618
-0.266597
0.136809
-0.271981
0.162936
-0.217116
0.184441
-0.180312
-0.114892
-0.20643
0.100753
-0.194721
0.343964
-0.102479
0.355142
-0.0118535
0.0126706
0.0629733
-0.258903
0.11163
-0.315254
0.146789
-0.307141
0.170624
-0.240952
0.18953
-0.199218
-0.125821
-0.238552
-0.215744
-0.0972226
0.0040797
0.0783467
0.127439
0.159912
0.180422
0.195904
0.0444371
0.0363822
-0.0808193
0.00134408
0.043093
-0.0299374
0.0312815
-0.0451275
0.0151901
-0.0388661
-0.00626145
-0.0124223
-0.0264438
0.0129126
-0.0253349
0.0283753
-0.0154627
0.0362134
-0.0078381
-0.00307007
0.190854
0.11464
-0.269112
0.0728267
0.16112
-0.0149441
0.119052
-0.0440646
0.0443106
-0.0242027
-0.0261233
0.0193697
-0.0700161
0.0590468
-0.065012
0.0839866
-0.0404025
0.0978983
-0.0217498
-0.00910622
0.337296
0.182109
-0.404765
0.187729
0.310687
0.0561377
0.250644
0.00945705
0.0909912
0.0323294
-0.0489957
0.0739522
-0.111639
0.109067
-0.100126
0.13153
-0.0628664
0.145169
-0.0353887
-0.0158119
0.420133
0.206084
-0.444108
0.294458
0.436362
0.150399
0.394703
0.0878529
0.153537
0.101883
-0.0630256
0.133215
-0.142971
0.156387
-0.123299
0.170261
-0.0767403
0.179065
-0.0441924
-0.0210514
0.410222
-0.383961
0.356362
0.240675
0.168339
0.163013
0.179147
0.190606
0.196517
0.200204
0.0114594
-0.000136486
-0.0113229
0.0131112
-0.0016518
0.0161515
-0.00304029
0.0206132
-0.00446168
0.0270679
-0.00645469
0.0341609
-0.00709307
0.0443588
-0.0101978
0.0544909
-0.0101321
0.0680599
-0.013569
-0.0127594
0.0314409
-0.000830349
-0.0307471
0.0361626
-0.00637347
0.0447739
-0.0116516
0.0581937
-0.0178814
0.0770325
-0.0252935
0.100242
-0.0303023
0.133257
-0.0432131
0.169104
-0.0459796
0.216305
-0.06077
-0.0655657
0.0485203
-0.00238482
-0.0469659
0.0560498
-0.0139029
0.0696417
-0.0252436
0.0908589
-0.0390986
0.119637
-0.0540713
0.157795
-0.0684605
0.207013
-0.0924311
0.262572
-0.101538
0.333728
-0.131926
-0.136604
0.0626096
-0.00496159
-0.0600328
0.0724508
-0.0237442
0.0901301
-0.0429228
0.116812
-0.0657804
0.152693
-0.0899528
0.200565
-0.116332
0.254872
-0.146738
0.320856
-0.167523
0.391116
-0.202186
-0.189596
0.07387
-0.0702212
0.0855723
0.106249
0.136204
0.176418
0.225751
0.279633
0.339228
0.37006
0.0847515
-0.0794609
0.0872995
-0.09259
0.075987
-0.0806439
0.0894084
0.0667977
-0.0825187
0.091708
0.0569472
-0.0845253
0.0943758
0.0463713
-0.0865593
0.0971352
0.0352045
-0.0883356
0.0995024
0.0238196
-0.0887467
0.100132
0.0129935
-0.0847894
0.0956156
0.00421728
-0.0702846
0.0790608
-0.0351729
0.0393902
0.0938542
-0.0697187
-0.103596
0.083692
-0.0704817
0.0728478
-0.0716744
0.0613962
-0.0730738
0.0495
-0.0746632
0.0373376
-0.0761733
0.0252008
-0.0766099
0.0137688
-0.0733575
0.00449714
-0.0610129
-0.0306758
0.0959616
-0.0586278
-0.107052
0.0847651
-0.0592851
0.0733628
-0.0602722
0.0617544
-0.0614654
0.0499023
-0.0628111
0.0377972
-0.0640681
0.0256247
-0.0644374
0.0140462
-0.061779
0.00458328
-0.05155
-0.0260925
0.101618
-0.0471712
-0.113074
0.0900107
-0.0476783
0.0781704
-0.0484318
0.0660138
-0.0493088
0.053487
-0.0502843
0.0406209
-0.0512021
0.0276526
-0.051469
0.0152769
-0.0494033
0.00506853
-0.0413416
-0.021024
0.104338
-0.0352122
-0.116297
0.0922531
-0.0355937
0.0799251
-0.0361037
0.0673263
-0.03671
0.0544437
-0.0374018
0.0413153
-0.0380737
0.0281435
-0.0382972
0.0155725
-0.0368323
0.00517115
-0.0309403
-0.0158528
0.107327
-0.0231009
-0.119438
0.0950067
-0.0232733
0.0824389
-0.023536
0.0695893
-0.0238604
0.0564302
-0.0242427
0.0429769
-0.0246203
0.0294129
-0.0247332
0.0163844
-0.0238038
0.00550589
-0.0200618
-0.0103469
0.10902
-0.0108142
-0.121307
0.0965374
-0.0107908
0.0837964
-0.010795
0.0707666
-0.0108306
0.0574215
-0.0108976
0.0437756
-0.0109745
0.0300063
-0.0109639
0.0167514
-0.0105489
0.00564465
-0.00895501
-0.00470229
0.110188
0.00151799
-0.12252
0.0976184
0.00177899
0.084774
0.00204942
0.0716265
0.00231687
0.0581523
0.00257664
0.0443679
0.00280987
0.0304495
0.00295448
0.0170327
0.00286797
0.00575912
0.00231854
0.00105683
0.110633
0.0138556
-0.12297
0.0980429
0.0143688
0.0851694
0.014923
0.0719846
0.0155016
0.0584651
0.0160962
0.0446263
0.0166487
0.0306427
0.016938
0.0171507
0.01636
0.00580251
0.0136667
0.00685934
0.110411
-0.122718
0.0978542
0.08501
0.0718537
0.0583623
0.04455
0.0305892
0.017116
0.00578662
0.0142928
-0.160819
-0.0165252
0.00969489
-0.175177
0.00409258
-0.183543
-0.00165017
-0.188842
-0.00688763
-0.192137
-0.0108565
-0.192802
-0.0124922
-0.187763
-0.0106404
-0.170409
-0.00521724
-0.130419
-0.056921
0.0378367
-0.157486
-0.0411698
0.0315351
-0.168876
0.0240497
-0.176058
0.0163022
-0.181094
0.00881141
-0.184646
0.00215336
-0.186144
-0.00270574
-0.182904
-0.00458536
-0.16853