/*--------------------------------*- C++ -*----------------------------------*\
  =========                 |
  \\      /  F ield         | OpenFOAM: The Open Source CFD Toolbox
   \\    /   O peration     | Website:  https://openfoam.org
    \\  /    A nd           | Version:  13
     \\/     M anipulation  |
\*---------------------------------------------------------------------------*/
FoamFile
{
    format      ascii;
    class       volVectorField;
    location    "5.65";
    object      U;
}
// * * * * * * * * * * * * * * * * * * * * * * * * * * * * * * * * * * * * * //

dimensions      [0 1 -1 0 0 0 0];

internalField   nonuniform List<vector> 
440
(
(-0.0913159 0.0660138 -7.46179e-20)
(-0.123277 0.116144 -3.1016e-20)
(-0.0496175 0.104649 5.22348e-20)
(0.307305 0.159854 3.24705e-19)
(0.133362 0.358484 1.02652e-20)
(-0.0896654 0.0487726 2.64081e-20)
(-0.00295319 0.0353773 -9.3337e-20)
(0.380026 -0.00620118 -8.25152e-20)
(0.906227 -0.0196026 4.77391e-20)
(1.22952 0.00534794 -3.8051e-23)
(-0.0445719 0.0192732 4.833e-20)
(0.351902 -0.0118773 5.55813e-19)
(1.04613 0.00808632 -2.88893e-19)
(1.61274 0.0493644 -9.37277e-19)
(2.17107 0.078504 3.18844e-19)
(0.134098 -0.031495 -1.61261e-19)
(0.990847 0.0132476 -4.33848e-19)
(1.76848 0.100788 1.37256e-18)
(2.26748 0.159148 1.52568e-18)
(2.4269 0.197987 -4.27274e-19)
(0.452127 -0.00950736 -2.68871e-19)
(1.57506 0.188948 -5.40168e-19)
(2.18327 0.298569 1.63195e-18)
(2.36568 0.338286 1.81352e-18)
(2.44342 0.323455 6.20372e-19)
(0.0239994 -0.352712 -1.74157e-19)
(-0.0365547 -0.491024 1.06197e-19)
(-0.118007 -0.457599 -1.91129e-19)
(-0.196477 -0.386623 5.29403e-20)
(-0.253647 -0.304374 4.11026e-19)
(0.0326149 -0.225212 -2.18825e-20)
(-0.0613942 -0.29732 -4.31893e-20)
(-0.171296 -0.266487 -8.25486e-20)
(-0.267034 -0.20923 -6.63348e-20)
(-0.33223 -0.137545 1.09435e-19)
(0.00260262 -0.0551984 1.68054e-19)
(-0.0885431 -0.0502702 7.99759e-21)
(-0.172864 -0.0482221 9.71438e-20)
(-0.240455 -0.0468682 1.93241e-20)
(-0.289029 -0.0192578 1.71193e-21)
(-0.00742213 -0.00024132 3.10283e-21)
(-0.0686926 0.0419488 1.04719e-20)
(-0.12265 0.0739838 1.3348e-20)
(-0.166338 0.076795 -2.35681e-19)
(-0.20687 0.0900332 7.65743e-20)
(-0.0499303 0.0384939 -4.20557e-21)
(-0.141972 0.0865662 -1.54321e-20)
(-0.223448 0.143359 -9.09005e-20)
(-0.220044 0.196613 8.14767e-20)
(-0.239329 0.276837 7.02683e-22)
(-0.353754 0.145161 1.80043e-18)
(-0.582637 0.823018 -2.22856e-21)
(0.0772814 0.288296 3.00371e-19)
(0.884421 -0.519677 -3.29422e-19)
(1.1317 -0.472567 2.39819e-21)
(-0.483097 0.216026 -1.35098e-18)
(-0.673574 0.716827 5.29441e-20)
(0.50107 0.0270095 8.66137e-20)
(1.23965 -0.658792 2.18621e-19)
(1.33355 -0.513754 2.672e-20)
(-0.416815 0.162423 -7.47259e-19)
(-0.262975 0.532907 -6.98144e-19)
(1.01466 -0.2137 -4.08776e-20)
(1.72942 -0.734567 -5.9467e-20)
(1.5615 -0.523364 2.28191e-20)
(-0.379332 0.169585 1.7563e-19)
(0.324897 0.376399 1.33964e-19)
(1.4643 -0.396111 6.07768e-20)
(2.11139 -0.772557 7.60001e-20)
(1.78078 -0.49962 1.62582e-19)
(-0.292115 -0.0319235 -1.05483e-19)
(0.951318 0.0932244 5.3612e-19)
(1.79243 -0.569241 0)
(2.22119 -0.81533 -1.50592e-19)
(1.84497 -0.470446 3.8235e-20)
(1.19269 0.0271387 -2.28237e-19)
(1.77605 -0.0871187 -1.60022e-19)
(2.17741 -0.639319 -7.75695e-21)
(2.28385 -0.78966 -4.58012e-20)
(1.8108 -0.42192 -7.58894e-20)
(1.94358 0.0409198 -5.90191e-21)
(2.49844 -0.157881 6.11944e-19)
(2.55609 -0.655183 -3.8389e-21)
(2.22729 -0.690014 2.7431e-19)
(1.56809 -0.311937 0)
(2.10971 0.0122618 -1.44584e-19)
(2.59311 -0.259613 -5.17511e-21)
(2.36795 -0.540202 4.0898e-19)
(1.79472 -0.43151 -8.61688e-20)
(1.22558 -0.1789 -7.24795e-21)
(2.22081 -0.0697412 8.01175e-20)
(2.37577 -0.24055 2.04967e-19)
(1.94768 -0.422933 6.44665e-21)
(1.25125 -0.287485 -1.38646e-34)
(0.685293 -0.0792134 5.76893e-20)
(1.58951 -0.0295978 8.93529e-20)
(1.38093 -0.127152 6.96505e-20)
(0.536409 -0.0388037 -1.16828e-19)
(0.0663839 0.0427567 6.98372e-21)
(-0.0816802 0.0191904 1.18609e-20)
(2.37048 0.324512 -7.643e-19)
(2.54997 0.137506 -9.40778e-19)
(2.42427 0.168998 5.41192e-19)
(2.5452 0.0139024 8.76853e-20)
(1.90464 0.155185 -2.41431e-20)
(2.08642 0.217197 7.39084e-20)
(2.31364 0.141647 -3.62717e-20)
(2.23628 0.0622525 -1.23852e-19)
(2.38068 0.0132894 -2.03398e-19)
(2.2869 -0.122488 -4.74567e-21)
(2.00264 0.100685 7.97505e-20)
(2.10818 0.12016 6.98707e-20)
(2.15382 -0.0108912 -6.67416e-20)
(2.1787 0.0282606 2.72518e-20)
(2.26283 -0.0941761 -2.48149e-20)
(2.04512 0.0348563 1.15708e-19)
(2.09454 0.0605847 1.80414e-19)
(2.18855 -0.029474 -2.04281e-20)
(2.18754 -0.00606346 -1.06499e-19)
(2.28408 -0.0795528 3.51051e-20)
(1.59468 -0.0215841 1.90587e-19)
(1.61868 -0.0162776 -1.18985e-20)
(1.63416 -0.0335654 1.84468e-20)
(1.62811 -0.02258 -4.64163e-20)
(1.64931 -0.0443203 -3.70265e-20)
(1.56376 0.85694 1.06353e-18)
(1.52741 0.957624 -3.34822e-19)
(1.5277 1.08607 -1.29288e-18)
(1.45707 1.12817 7.1058e-19)
(0.89338 0.804529 -1.69571e-19)
(1.84398 0.816296 -5.4961e-19)
(1.81817 0.897233 -2.91211e-18)
(1.82451 1.00501 -1.12787e-18)
(1.72941 1.00848 -3.94048e-19)
(1.04515 0.687801 -6.28588e-19)
(2.13149 0.718214 7.08658e-19)
(2.11468 0.783187 1.8808e-19)
(2.09203 0.864168 -2.1942e-18)
(1.94323 0.84101 -5.88151e-19)
(1.11997 0.530174 4.20668e-19)
(2.2828 0.613177 2.15504e-18)
(2.28064 0.661525 1.57264e-18)
(2.26414 0.699949 -1.80197e-18)
(2.01509 0.641121 -1.31998e-18)
(1.05735 0.33732 -2.27706e-19)
(2.42879 0.468947 1.01802e-18)
(2.41843 0.485885 -7.29734e-19)
(2.30206 0.495963 5.23395e-19)
(1.91843 0.413689 3.87579e-19)
(0.825188 0.132593 -3.10269e-19)
(0.583137 0.428659 -7.31411e-19)
(0.488846 0.463528 -5.74735e-19)
(0.366449 0.497632 6.95653e-20)
(0.226899 0.496567 -1.71122e-20)
(0.0544382 0.349651 7.04489e-20)
(0.700899 0.593477 4.3818e-20)
(0.638327 0.65071 -3.47616e-19)
(0.545203 0.715553 1.74242e-19)
(0.410831 0.775079 -8.02097e-20)
(0.175239 0.594761 1.15376e-19)
(0.766944 0.809752 1.70297e-19)
(0.697718 0.894954 4.21041e-19)
(0.645484 0.994403 7.5991e-20)
(0.561733 1.03749 -2.86485e-19)
(0.307035 0.768787 2.36669e-19)
(1.05834 0.872389 2.08508e-19)
(1.00496 0.95983 -6.49866e-19)
(0.952626 1.06528 -1.85641e-18)
(0.869984 1.1392 7.55715e-19)
(0.511995 0.849205 -1.66915e-19)
(1.15509 0.938915 -1.18004e-19)
(1.1756 1.05793 -1.94454e-19)
(1.19173 1.1729 -3.43361e-19)
(1.13552 1.20262 -3.97323e-19)
(0.696714 0.864674 -6.43656e-21)
(0.987161 0.0475278 -8.88842e-20)
(1.02034 0.00889721 -3.08127e-20)
(1.03328 0.135158 -1.75849e-21)
(0.937732 0.105178 -2.0557e-19)
(0.913656 0.25205 3.08686e-19)
(0.973557 0.044589 5.52581e-20)
(1.04414 0.00252231 1.14031e-19)
(1.01441 0.15285 1.13792e-19)
(0.971082 0.121851 2.28633e-20)
(0.936045 0.326252 2.3648e-20)
(0.981144 0.0428478 7.42378e-20)
(1.0319 -0.00617281 -4.40024e-21)
(1.05193 0.171929 -3.30793e-21)
(0.919388 0.128106 1.45549e-19)
(1.14087 0.46948 -4.33163e-19)
(0.979275 0.0410071 -3.03124e-22)
(1.05035 -0.0167674 -1.66727e-19)
(1.03303 0.204847 -6.12397e-20)
(1.00547 0.116538 -3.78814e-19)
(1.20532 0.517111 7.85695e-20)
(0.984858 0.0327302 -1.19534e-20)
(1.04629 -0.0111049 4.73802e-20)
(1.06433 0.201531 2.88955e-20)
(1.01743 0.134306 4.84295e-19)
(1.40586 0.652978 -4.41219e-19)
(0.966631 0.0316103 -4.81153e-21)
(1.10047 -0.0312988 9.44406e-20)
(1.01568 0.234609 -6.20399e-20)
(1.26019 0.0598633 9.84688e-19)
(1.34893 0.701434 -3.59263e-19)
(0.947889 -0.000299429 -1.38861e-21)
(1.15486 -0.0134867 -8.30203e-20)
(0.923668 0.159517 5.45599e-21)
(1.40788 0.0177276 -3.8836e-19)
(1.38407 0.486174 -1.75842e-20)
(0.979552 -0.0161444 2.77499e-21)
(1.10556 0.00678294 1.38874e-35)
(1.02888 0.105745 -7.53989e-21)
(1.38542 -0.0572715 1.12208e-19)
(1.32841 0.359101 1.55381e-19)
(1.04277 -0.0523784 3.94551e-21)
(0.965589 -0.00301679 -2.64669e-20)
(1.22576 0.00831815 2.20405e-20)
(1.15548 -0.039047 2.6746e-20)
(1.24022 0.276454 -2.23402e-19)
(0.951036 -0.0226086 -3.89911e-20)
(0.785595 -0.0228005 -2.0983e-21)
(0.972692 -0.0082986 2.61618e-20)
(0.674884 -0.00939949 -1.38829e-20)
(0.982582 0.0976772 -4.90569e-20)
(1.77875 0.638643 2.86187e-19)
(1.89391 0.656209 6.92622e-19)
(2.12117 0.553232 -9.89971e-19)
(2.19575 0.527236 1.57464e-20)
(2.38628 0.35453 4.2789e-19)
(1.75805 0.451869 7.82658e-20)
(1.77026 0.455593 9.53653e-19)
(1.95179 0.414542 1.02045e-19)
(1.93254 0.361287 -8.35551e-19)
(2.14498 0.275692 -2.66556e-19)
(1.6216 0.373924 -2.11516e-19)
(1.65624 0.326172 -1.39121e-19)
(1.7927 0.319503 2.24536e-19)
(1.82681 0.220749 -2.7119e-19)
(1.96997 0.217574 2.5303e-19)
(1.55759 0.258758 3.54762e-19)
(1.64941 0.197214 2.01257e-21)
(1.77277 0.192947 2.13189e-19)
(1.86415 0.113256 1.83823e-19)
(1.95894 0.124031 -1.86252e-19)
(1.30718 0.0584152 -4.77358e-20)
(1.39153 0.0343131 2.36349e-19)
(1.48339 0.0214328 1.01846e-19)
(1.52609 -0.000689704 -2.19827e-19)
(1.57752 -0.00411565 2.52693e-22)
(1.32327 -0.0350905 7.10698e-20)
(2.41015 -0.0377405 -5.26738e-19)
(2.6353 -0.032708 1.39792e-18)
(2.61185 0.0145064 6.2376e-19)
(2.44492 0.0380699 -4.32455e-19)
(0.841967 0.0997771 1.32537e-19)
(2.18403 0.102037 -5.25121e-19)
(2.64217 0.104631 -7.21271e-19)
(2.67696 0.115009 9.08185e-19)
(2.42102 0.106277 -6.14525e-19)
(0.258281 0.0903886 -2.98254e-20)
(1.51822 0.174959 5.63825e-19)
(2.31311 0.203263 8.4275e-20)
(2.68865 0.199725 6.25896e-19)
(2.82386 0.188105 2.81251e-19)
(-0.0424583 -0.0207942 2.37077e-19)
(0.589248 0.10754 2.41385e-19)
(1.48353 0.194604 -5.40341e-19)
(2.02485 0.233775 3.20155e-20)
(2.61854 0.261573 1.17672e-19)
(-0.112725 -0.0885342 1.71462e-19)
(0.0243732 -0.036464 -1.98524e-19)
(0.570069 0.0700314 -2.88852e-20)
(1.07951 0.115276 4.75721e-20)
(1.62144 0.218704 -2.36486e-20)
(-0.0886197 -0.0950204 -2.24269e-21)
(-0.133905 -0.142013 1.26527e-19)
(0.0262579 -0.137431 8.31856e-20)
(0.245315 -0.103061 -2.91602e-20)
(0.755779 0.0130899 6.25137e-21)
(-0.0592286 -0.0958265 -1.6185e-20)
(-0.110159 -0.224049 -9.88341e-20)
(-0.0810487 -0.282753 -3.67245e-20)
(-0.00326565 -0.278518 5.02651e-21)
(0.190371 -0.167135 1.14167e-20)
(-0.0543972 -0.165352 -1.19442e-20)
(-0.067281 -0.381915 1.98705e-19)
(-0.0340496 -0.459995 -4.55188e-20)
(0.0269247 -0.447135 1.6439e-19)
(0.0827301 -0.370401 -9.7157e-20)
(-0.0469918 -0.308365 -3.28996e-22)
(-0.0364609 -0.578301 6.85655e-20)
(-0.00765625 -0.627389 -3.69546e-19)
(0.030389 -0.572326 -5.20127e-19)
(0.0623552 -0.483181 8.64229e-20)
(-0.0156117 -0.395522 -5.76552e-21)
(-0.036495 -0.610059 3.4667e-20)
(-0.067093 -0.588987 -1.62877e-20)
(-0.0972483 -0.500708 -4.44691e-20)
(-0.1171 -0.401557 9.6879e-20)
(1.61389 0.551704 -7.96068e-20)
(1.29711 0.346886 6.1854e-19)
(0.684416 0.120136 -7.84816e-20)
(0.205135 -0.0379731 -6.34542e-21)
(0.621868 -0.0994662 -1.91672e-21)
(1.35019 0.490428 2.04148e-20)
(1.11805 0.45726 6.72461e-20)
(0.375474 0.24349 2.95596e-20)
(-0.0909498 -0.0449369 -7.97181e-21)
(0.526163 -0.176921 1.68946e-20)
(1.05324 0.297944 3.37472e-20)
(0.938515 0.545356 6.43003e-19)
(-0.0227783 0.36823 5.9623e-20)
(-0.107477 -0.100523 -6.40318e-19)
(0.54923 -0.274545 -1.23424e-20)
(0.582115 0.145575 1.35498e-20)
(0.574964 0.694402 -1.8776e-18)
(-0.333231 0.466897 -2.33468e-19)
(0.158425 -0.228574 3.11409e-21)
(0.667338 -0.36024 -1.15229e-20)
(0.00934457 0.147844 -1.57369e-19)
(-0.022119 0.825219 -5.43446e-20)
(-0.272197 0.459136 2.26582e-19)
(0.537141 -0.37567 -4.1324e-20)
(0.886052 -0.423591 -2.49869e-20)
(0.442301 0.161624 -5.42679e-20)
(-0.262603 -0.0861203 0)
(-0.161962 -0.10807 -4.78446e-20)
(0.0171898 -0.053516 4.58574e-20)
(0.285096 -0.0215673 1.18558e-20)
(2.07448 0.534176 0)
(1.42457 0.30952 0)
(0.845822 0.0209376 3.70126e-19)
(0.537916 -0.072051 1.62194e-20)
(0.761655 -0.0650005 -1.0413e-20)
(0.795602 0.00246559 -1.45376e-19)
(0.87199 -0.00298803 3.12827e-19)
(1.03053 0.0027138 -2.09606e-20)
(1.10252 0.00981305 3.24322e-19)
(1.45662 0.096628 2.14433e-19)
(1.78306 0.0281954 1.39175e-19)
(1.95639 0.0824903 3.85044e-19)
(2.10049 0.0746403 -2.90455e-19)
(2.69218 0.202146 2.6087e-20)
(2.40127 0.178578 1.53355e-19)
(0.965106 -0.522458 2.31574e-20)
(0.958404 -0.620403 -2.09522e-19)
(0.956278 -0.727495 -1.79514e-19)
(0.888606 -0.805041 1.07872e-19)
(0.547543 -0.640349 1.46854e-19)
(0.861075 -0.431264 1.12245e-19)
(0.804772 -0.50048 1.60107e-19)
(0.728719 -0.57515 -1.04106e-19)
(0.615464 -0.64396 1.5441e-19)
(0.343676 -0.520724 4.19187e-20)
(0.68207 -0.292884 -1.24328e-19)
(0.593184 -0.338549 -6.12649e-20)
(0.493501 -0.396158 2.20989e-20)
(0.376061 -0.446246 -4.5342e-20)
(0.175434 -0.358324 -1.42515e-19)
(0.576433 -0.0593717 -4.5375e-19)
(0.491068 -0.0792216 -3.6525e-19)
(0.380111 -0.108967 2.9755e-19)
(0.250516 -0.146012 1.55272e-19)
(0.0770672 -0.137452 1.38697e-20)
(0.546385 0.148868 -1.44076e-19)
(0.460193 0.14784 -1.63594e-19)
(0.340683 0.143917 -4.21246e-20)
(0.198403 0.146306 5.63158e-20)
(0.0340433 0.10859 1.53168e-20)
(2.17787 -0.0357841 9.23221e-19)
(2.44236 -0.106892 3.15822e-19)
(2.52953 -0.19837 -8.343e-19)
(2.39895 -0.224218 -1.8076e-18)
(1.47692 -0.215901 1.40575e-19)
(2.14713 -0.130283 1.56392e-18)
(2.24082 -0.246578 2.05686e-18)
(2.26417 -0.375639 1.71825e-19)
(2.19786 -0.438164 2.98546e-19)
(1.4361 -0.405489 -1.97953e-19)
(1.84197 -0.301878 -4.04735e-18)
(1.90725 -0.425225 4.4952e-19)
(1.95682 -0.558283 1.26784e-18)
(1.90746 -0.641248 -5.00838e-19)
(1.25733 -0.562029 7.98681e-19)
(1.60589 -0.434753 9.82009e-19)
(1.62119 -0.537714 -2.59646e-18)
(1.61116 -0.6628 -3.00228e-18)
(1.55383 -0.760013 9.39203e-19)
(1.01771 -0.643113 6.14137e-19)
(1.29717 -0.501743 2.2629e-19)
(1.2505 -0.603284 2.85122e-19)
(1.2464 -0.734084 -4.59648e-19)
(1.19819 -0.828775 -5.57648e-19)
(0.768186 -0.670473 -5.3434e-21)
(1.01587 0.0458192 7.27994e-21)
(0.981221 0.0481613 -1.63936e-21)
(1.11972 0.0865892 5.78372e-21)
(0.836561 -0.0139538 -2.5744e-19)
(1.16331 -0.232084 -1.98222e-20)
(1.03453 0.0500757 -2.45197e-21)
(0.95362 0.0393225 3.70146e-20)
(1.12205 0.106061 -6.88697e-22)
(0.914314 0.0265224 2.17061e-19)
(1.03805 -0.119532 9.53816e-22)
(1.04131 0.0488871 -5.92073e-20)
(0.945726 0.0305168 2.12847e-22)
(1.1008 0.106191 -6.01798e-21)
(0.912002 0.0475196 1.04438e-19)
(0.996382 -0.0570202 -2.58107e-19)
(1.02863 0.0497836 7.11117e-20)
(0.968958 0.0227505 2.54158e-21)
(1.06088 0.111429 2.19638e-20)
(0.943434 0.0708806 -4.48591e-20)
(0.889897 0.0513896 7.15169e-20)
(1.00378 0.0475967 1.75846e-20)
(1.00438 0.0195105 -2.32537e-20)
(1.02907 0.117977 3.46039e-20)
(0.955474 0.0925293 4.61452e-20)
(0.860379 0.148684 -2.67819e-20)
(0.873674 0.0333206 0)
(0.756123 0.0298656 9.61579e-21)
(0.5855 0.0199439 6.03052e-21)
(0.38907 -0.0135489 5.2336e-20)
(0.733093 -0.0564402 -1.73435e-19)
(0.984556 0.0660882 -6.21497e-20)
(1.01243 0.0708776 -8.18656e-21)
(1.0085 0.0829781 -6.18604e-20)
(0.842426 -0.0169419 -1.44526e-19)
(1.07011 -0.214728 -1.81449e-19)
(1.02809 -0.0658665 -3.96424e-20)
(1.12162 -0.0352665 5.9481e-19)
(1.22804 0.0391587 3.55702e-19)
(1.09755 0.0614325 3.23696e-20)
(0.851179 0.0336589 0)
(1.3808 -0.332542 3.98753e-19)
(1.50763 -0.294031 1.70546e-18)
(1.70369 -0.16726 -1.87104e-18)
(1.81468 -0.0227086 -5.81615e-19)
(1.72844 0.0355594 4.32747e-19)
)
;

boundaryField
{
    left
    {
        type            fixedValue;
        value           uniform (1 0 0);
    }
    right
    {
        type            zeroGradient;
    }
    down
    {
        type            noSlip;
    }
    up
    {
        type            noSlip;
    }
    cylinder
    {
        type            noSlip;
    }
    defaultFaces
    {
        type            empty;
    }
}


// ************************************************************************* //
