/*--------------------------------*- C++ -*----------------------------------*\
  =========                 |
  \\      /  F ield         | OpenFOAM: The Open Source CFD Toolbox
   \\    /   O peration     | Website:  https://openfoam.org
    \\  /    A nd           | Version:  13
     \\/     M anipulation  |
\*---------------------------------------------------------------------------*/
FoamFile
{
    format      ascii;
    class       volScalarField;
    location    "0.4";
    object      p;
}
// * * * * * * * * * * * * * * * * * * * * * * * * * * * * * * * * * * * * * //

dimensions      [0 2 -2 0 0 0 0];

internalField   nonuniform List<scalar> 
1800
(
-1.05287
-1.04074
-1.00466
-0.940342
-0.855926
-0.765325
-0.677801
-0.597458
-0.525387
-0.466373
-1.23687
-1.22289
-1.18066
-1.10636
-1.01064
-0.909289
-0.812332
-0.724324
-0.647184
-0.584005
-1.41278
-1.39638
-1.34705
-1.26181
-1.15438
-1.04212
-0.935442
-0.83874
-0.753378
-0.681143
-1.57553
-1.55608
-1.49882
-1.40226
-1.28362
-1.16163
-1.04673
-0.942952
-0.851326
-0.773064
-1.71975
-1.69666
-1.63062
-1.52237
-1.39289
-1.26181
-1.13931
-1.02893
-0.931324
-0.846968
-1.84056
-1.81331
-1.73796
-1.61833
-1.47909
-1.34039
-1.21182
-1.09634
-0.994204
-0.905347
-1.93285
-1.90103
-1.81606
-1.68561
-1.53781
-1.39281
-1.25941
-1.13992
-1.03423
-0.941752
-1.99237
-1.95577
-1.86133
-1.72122
-1.5665
-1.41687
-1.28014
-1.158
-1.04993
-0.954933
-2.01517
-1.97374
-1.87035
-1.7221
-1.56228
-1.40972
-1.2712
-1.14773
-1.03846
-0.942031
-1.99845
-1.95245
-1.84108
-1.68665
-1.52379
-1.3701
-1.23124
-1.10766
-0.998222
-0.90132
0.279305
0.288584
0.300562
0.315891
0.331611
0.345242
0.355527
0.362201
0.365534
0.365903
0.235598
0.245091
0.257618
0.274256
0.292102
0.308382
0.321518
0.331017
0.337052
0.34013
0.166844
0.175891
0.189342
0.208079
0.229263
0.249658
0.267189
0.281026
0.291194
0.298424
0.0737092
0.0824357
0.0970756
0.118634
0.144306
0.170184
0.193524
0.213057
0.22862
0.241271
-0.0422322
-0.0336722
-0.0175191
0.00760228
0.0388606
0.0714699
0.101857
0.128235
0.150231
0.169334
-0.178823
-0.170246
-0.152217
-0.12279
-0.084939
-0.0445426
-0.00612619
0.0279565
0.0571293
0.0833802
-0.333247
-0.324397
-0.304112
-0.269679
-0.224424
-0.17551
-0.128481
-0.0862577
-0.0495782
-0.0159933
-0.501939
-0.492544
-0.469546
-0.429385
-0.376037
-0.318148
-0.262305
-0.211949
-0.167879
-0.127362
-0.680769
-0.670769
-0.644328
-0.597373
-0.53487
-0.467171
-0.40196
-0.343156
-0.291506
-0.24446
-0.86584
-0.854989
-0.824181
-0.769065
-0.69595
-0.617004
-0.540909
-0.471903
-0.410696
-0.356482
0.343336
0.2607
0.203435
0.160842
0.127138
0.0994522
0.0751866
0.0527964
0.0313828
0.0104336
0.333182
0.255088
0.201807
0.160243
0.126744
0.0990974
0.0748683
0.0525431
0.0312154
0.0103615
0.316125
0.245404
0.198482
0.158942
0.126087
0.0986662
0.0745492
0.0523138
0.0310701
0.0102971
0.291309
0.232181
0.193519
0.156934
0.125161
0.0981516
0.0742226
0.0521028
0.0309433
0.0102395
0.2577
0.216051
0.186987
0.154218
0.123959
0.0975473
0.0738824
0.0519048
0.0308318
0.0101886
0.214248
0.197663
0.179
0.150806
0.122478
0.0968476
0.0735232
0.0517149
0.0307325
0.0101441
0.159629
0.177458
0.169774
0.14675
0.120722
0.0960495
0.0731407
0.0515284
0.0306425
0.0101062
0.0918445
0.154905
0.159394
0.142085
0.118689
0.0951488
0.0727303
0.0513408
0.0305591
0.0100755
0.0101712
0.128597
0.147581
0.136661
0.11629
0.0940997
0.0722707
0.0511408
0.0304773
0.010053
-0.0792273
0.0988299
0.134727
0.130607
0.113535
0.0928888
0.0717494
0.0509195
0.0303911
0.0100407
-0.130544
0.0735732
0.120758
0.122214
0.108609
0.0900356
0.0700704
0.0499277
0.0298831
0.00993628
-0.144946
0.044575
0.0987215
0.107649
0.0995516
0.0844891
0.0666559
0.0478556
0.0287728
0.00959758
-0.141052
0.0283621
0.0849888
0.0968193
0.0918281
0.0793615
0.063361
0.0458144
0.0276624
0.00925246
-0.13388
0.0136809
0.0715511
0.0864216
0.0843868
0.0743549
0.0601108
0.0437894
0.0265513
0.00890048
-0.123619
0.00353259
0.0601903
0.0771955
0.0775477
0.0696246
0.0569888
0.0418265
0.025464
0.00855027
-0.113039
-0.00397824
0.0502029
0.0688739
0.0712952
0.0652295
0.0540528
0.0399658
0.0244222
0.00820851
-0.104102
-0.00990109
0.0414735
0.061434
0.065669
0.0612353
0.05136
0.0382464
0.0234462
0.00788056
-0.0979726
-0.0153629
0.0336525
0.0548049
0.0606947
0.0577015
0.0489667
0.0367086
0.0225572
0.00757497
-0.0937387
-0.0203269
0.0264484
0.0486746
0.0561261
0.0544661
0.0467692
0.035285
0.021698
0.0072569
-0.0999609
-0.0273472
0.0198914
0.0438465
0.0527658
0.052145
0.0452077
0.0342814
0.0210951
0.00703713
-0.73848
-0.77782
-0.793769
-0.787514
-0.761358
-0.716704
-0.658492
-0.586231
-0.507705
-0.420702
-0.564076
-0.603494
-0.624059
-0.626821
-0.612971
-0.584336
-0.544492
-0.494627
-0.439608
-0.382317
-0.429523
-0.467788
-0.490355
-0.498567
-0.492412
-0.474587
-0.446578
-0.410721
-0.369455
-0.326657
-0.325978
-0.363485
-0.387211
-0.398713
-0.39745
-0.386494
-0.366169
-0.339413
-0.307471
-0.274024
-0.247416
-0.283967
-0.308358
-0.321924
-0.324072
-0.317687
-0.302752
-0.282318
-0.257216
-0.230562
-0.18741
-0.223435
-0.248458
-0.26351
-0.268222
-0.265086
-0.254116
-0.238163
-0.217867
-0.195752
-0.142796
-0.178707
-0.204393
-0.220582
-0.227216
-0.226387
-0.218271
-0.205387
-0.188415
-0.169435
-0.11098
-0.14733
-0.173951
-0.191316
-0.199515
-0.200312
-0.194076
-0.18307
-0.168129
-0.151057
-0.093998
-0.130508
-0.15777
-0.176477
-0.186378
-0.188662
-0.183795
-0.173256
-0.158842
-0.140392
-0.0826671
-0.121384
-0.151348
-0.172619
-0.185332
-0.190482
-0.188618
-0.180674
-0.168111
-0.150161
0.655556
0.602378
0.54072
0.474286
0.401956
0.321382
0.231953
0.137701
0.0557938
0.014726
0.464418
0.405938
0.339872
0.266716
0.184815
0.0923215
-0.0106429
-0.11878
-0.21203
-0.258198
0.251615
0.189543
0.119954
0.0416628
-0.0472523
-0.148447
-0.261537
-0.380457
-0.482872
-0.533006
0.0442907
-0.0226813
-0.0981214
-0.183437
-0.280321
-0.390297
-0.512888
-0.641503
-0.752199
-0.805294
-0.147367
-0.220923
-0.303852
-0.397435
-0.503226
-0.622694
-0.755196
-0.893428
-1.01221
-1.06695
-0.322057
-0.402611
-0.4932
-0.595083
-0.709806
-0.838673
-0.981015
-1.12865
-1.25396
-1.308
-0.479782
-0.566445
-0.663798
-0.773157
-0.896151
-1.03388
-1.18437
-1.34219
-1.46544
-1.52076
-0.619004
-0.71048
-0.813258
-0.928687
-1.05846
-1.20368
-1.36214
-1.52031
-1.64469
-1.69956
-0.736902
-0.831872
-0.938598
-1.05848
-1.19327
-1.34348
-1.50555
-1.66483
-1.78734
-1.84028
-0.832174
-0.928721
-1.03744
-1.15997
-1.29767
-1.45059
-1.61418
-1.77242
-1.89033
-1.9403
1.85028
1.86627
1.88447
1.90331
1.92129
1.9376
1.95153
1.96267
1.97199
1.97961
1.79538
1.80927
1.82487
1.8407
1.85538
1.86807
1.87804
1.88508
1.89078
1.8961
1.72062
1.73157
1.74348
1.75503
1.76498
1.77249
1.7768
1.77794
1.77844
1.78054
1.62645
1.63376
1.64101
1.64713
1.65105
1.65193
1.64898
1.64255
1.63631
1.63446
1.51343
1.51656
1.51842
1.51816
1.51498
1.50802
1.49649
1.48103
1.46666
1.46033
1.38357
1.38235
1.37813
1.3705
1.35905
1.34292
1.32137
1.29543
1.27163
1.26027
1.2386
1.23264
1.22202
1.20659
1.18628
1.16024
1.12778
1.09039
1.05628
1.03932
1.08634
1.07477
1.05588
1.03061
0.999548
0.96192
0.917086
0.867018
0.821793
0.798878
0.93054
0.913437
0.885959
0.850149
0.807267
0.756614
0.697714
0.633315
0.575868
0.546771
0.784724
0.752562
0.709798
0.660036
0.603907
0.539812
0.466946
0.388526
0.319244
0.284124
1.70277
1.51421
1.6701
1.56892
1.58149
1.59104
1.60194
1.62957
1.68202
1.78336
1.69646
1.50871
1.66481
1.56266
1.57441
1.58227
1.59058
1.61412
1.65898
1.74707
1.69072
1.50306
1.65979
1.55581
1.56682
1.57264
1.57755
1.59577
1.62983
1.69947
1.68554
1.49733
1.65505
1.54841
1.55877
1.56215
1.56287
1.5744
1.59486
1.64013
1.68088
1.49156
1.6506
1.54048
1.5503
1.55081
1.54656
1.54991
1.55459
1.56806
1.67682
1.48584
1.64644
1.53204
1.54144
1.53859
1.52863
1.52225
1.5095
1.48244
1.67316
1.48024
1.64254
1.52314
1.53223
1.52548
1.50904
1.49138
1.45986
1.38179
1.67005
1.47483
1.63885
1.51379
1.52272
1.51148
1.48778
1.45726
1.4058
1.26778
1.66749
1.4697
1.63533
1.50405
1.51296
1.49662
1.46494
1.42005
1.34624
1.13773
1.66573
1.46499
1.63193
1.49396
1.50297
1.48096
1.44091
1.38148
1.28319
1.00354
1.6638
1.45978
1.62695
1.48359
1.48946
1.46046
1.40914
1.33143
1.20795
0.87153
1.66428
1.4548
1.62115
1.47435
1.47415
1.43868
1.37698
1.28517
1.14295
0.825758
1.66624
1.45091
1.61601
1.4659
1.45998
1.4186
1.34798
1.24619
1.09002
0.793896
1.67051
1.4482
1.6116
1.4584
1.44721
1.40058
1.32248
1.21376
1.04699
0.7731
1.6774
1.44666
1.60797
1.45194
1.43605
1.38489
1.30077
1.18715
1.01356
0.760003
1.68746
1.44629
1.60507
1.44656
1.42666
1.37172
1.28295
1.16584
0.988936
0.751753
1.70086
1.44673
1.60268
1.44225
1.41915
1.36115
1.269
1.14952
0.971758
0.747234
1.72175
1.44945
1.6024
1.43919
1.41364
1.35326
1.25887
1.13792
0.960727
0.746159
1.73641
1.44818
1.59633
1.43717
1.41027
1.34815
1.25263
1.1311
0.955115
0.749259
1.79555
1.45833
1.59825
1.43489
1.40953
1.34551
1.2496
1.12757
0.952976
0.750957
0.626659
0.464083
0.275184
0.0926582
-0.0737675
-0.224686
-0.362269
-0.485395
-0.590846
-0.675733
0.559627
0.433332
0.289409
0.144664
0.00860364
-0.116469
-0.231683
-0.337086
-0.429608
-0.506042
0.527076
0.422742
0.309745
0.191255
0.0751477
-0.0337117
-0.134434
-0.226731
-0.3083
-0.376257
0.518322
0.425784
0.330332
0.229729
0.128212
0.031541
-0.0579074
-0.139913
-0.213177
-0.275707
0.521752
0.436145
0.351003
0.262836
0.172548
0.0849829
0.00317393
-0.0723124
-0.140493
-0.199519
0.530225
0.449642
0.37122
0.291291
0.208787
0.127452
0.0507156
-0.020319
-0.08477
-0.141047
0.540035
0.463337
0.389578
0.31503
0.237703
0.160641
0.0874249
0.0194534
-0.0424974
-0.097106
0.550107
0.476087
0.405412
0.334107
0.259819
0.185331
0.114251
0.048103
-0.012323
-0.0657467
0.562482
0.490746
0.421616
0.351004
0.277172
0.203057
0.132095
0.065847
0.00520774
-0.048565
0.576816
0.508678
0.440616
0.369049
0.29441
0.220096
0.148682
0.0814883
0.019684
-0.0354241
-2.91309
-2.83924
-2.67722
-2.4852
-2.30111
-2.13914
-2.0016
-1.88735
-1.79526
-1.72566
-2.98721
-2.92316
-2.77792
-2.59544
-2.41457
-2.25244
-2.11302
-1.99596
-1.90101
-1.83001
-2.96176
-2.90797
-2.78359
-2.61568
-2.44109
-2.28036
-2.14005
-2.02082
-1.9228
-1.84769
-2.84873
-2.80543
-2.7034
-2.55344
-2.38729
-2.22879
-2.0879
-1.96694
-1.86639
-1.78712
-2.66572
-2.63305
-2.5521
-2.42117
-2.26413
-2.10742
-1.96499
-1.84152
-1.73808
-1.65455
-2.43011
-2.40754
-2.3447
-2.23188
-2.08393
-1.92851
-1.78362
-1.65674
-1.55033
-1.46441
-2.15538
-2.14098
-2.09316
-1.99647
-1.85856
-1.70618
-1.56019
-1.43098
-1.32211
-1.236
-1.85174
-1.84259
-1.80587
-1.72307
-1.59724
-1.45214
-1.30912
-1.18055
-1.07116
-0.986289
-1.53173
-1.52522
-1.49519
-1.42422
-1.3133
-1.18197
-1.04971
-0.929111
-0.825288
-0.749767
-1.21192
-1.20524
-1.17901
-1.11831
-1.02388
-0.910929
-0.795322
-0.687726
-0.591189
-0.517447
-0.909275
-0.901289
-0.877634
-0.826383
-0.748959
-0.65713
-0.563423
-0.476761
-0.399879
-0.332376
-0.637039
-0.628161
-0.60684
-0.563937
-0.501852
-0.429615
-0.356527
-0.289222
-0.230289
-0.176156
-0.401407
-0.392485
-0.373087
-0.337301
-0.287782
-0.231474
-0.175123
-0.12337
-0.0782283
-0.0362188
-0.203473
-0.194764
-0.177195
-0.14742
-0.108124
-0.0647451
-0.0221865
0.0163789
0.0496287
0.0801166
-0.0416859
-0.0331895
-0.0173703
0.00741565
0.0384273
0.0713383
0.102607
0.130145
0.153237
0.173576
0.0863427
0.0946723
0.108984
0.129845
0.154436
0.17926
0.20177
0.220664
0.235663
0.247854
0.182818
0.191036
0.20419
0.222167
0.242084
0.261026
0.277146
0.289687
0.298667
0.304788
0.249408
0.257557
0.269926
0.285985
0.302804
0.317841
0.329703
0.337988
0.342897
0.344906
0.287274
0.295387
0.307342
0.322376
0.337535
0.350468
0.36002
0.365981
0.368642
0.368357
0.297176
0.305383
0.317277
0.332112
0.346945
0.35945
0.368522
0.373997
0.376192
0.375442
-0.00832562
0.109597
0.131015
0.130341
0.118765
0.101015
0.0802333
0.0580362
0.0350986
0.0117855
0.0913595
0.139971
0.145483
0.136847
0.120593
0.100886
0.0794431
0.0571929
0.0345
0.0115797
0.169065
0.164602
0.15733
0.141638
0.122057
0.100745
0.0787307
0.0564359
0.0339633
0.0113935
0.225835
0.185929
0.168014
0.14626
0.123395
0.100629
0.0781013
0.0557621
0.0334838
0.0112254
0.267762
0.205733
0.177635
0.150288
0.124549
0.10052
0.0775449
0.0551644
0.0330571
0.0110738
0.298975
0.2237
0.185916
0.153678
0.125513
0.100412
0.0770519
0.0546361
0.0326792
0.0109371
0.321475
0.238985
0.192704
0.156429
0.12628
0.100292
0.0766121
0.0541702
0.032346
0.0108139
0.336494
0.250838
0.197919
0.158532
0.126839
0.100148
0.0762152
0.0537599
0.0320536
0.0107031
0.344891
0.258581
0.20148
0.159976
0.127175
0.0999675
0.0758516
0.0533985
0.0317982
0.0106034
0.347154
0.261903
0.203328
0.16075
0.127279
0.0997391
0.0755117
0.0530795
0.0315758
0.0105139
-0.247997
-0.0175231
0.071158
0.103349
0.107203
0.0969811
0.0794951
0.0585176
0.0358093
0.012139
-0.222508
-0.000696684
0.0794126
0.106048
0.108227
0.0972728
0.0794922
0.0584056
0.0356853
0.0120822
-0.172352
0.0220839
0.088
0.109928
0.109949
0.0978899
0.0795987
0.0583275
0.0355633
0.0120182
-0.118692
0.0494283
0.100384
0.115708
0.11252
0.0989169
0.0799048
0.0583426
0.035488
0.0119712
-0.0682686
0.0840528
0.117899
0.123961
0.116136
0.100337
0.0803879
0.0584398
0.0354551
0.0119414
-1.66174
-1.76116
-1.78352
-1.73738
-1.62258
-1.47492
-1.2802
-1.08496
-0.879171
-0.674925
-1.66049
-1.75922
-1.77686
-1.72506
-1.6052
-1.45433
-1.2565
-1.0547
-0.849045
-0.640172
-1.6629
-1.76138
-1.77585
-1.71915
-1.59441
-1.43319
-1.22869
-1.01306
-0.799779
-0.594221
-1.67253
-1.77226
-1.78552
-1.72455
-1.59468
-1.41852
-1.20406
-0.96997
-0.748576
-0.549074
-1.69034
-1.79271
-1.80598
-1.74166
-1.6064
-1.41722
-1.19056
-0.942641
-0.711514
-0.499257
1.3239
1.30301
1.27366
1.23921
1.20052
1.15603
1.10427
1.04698
0.995331
0.968128
1.44421
1.44005
1.42778
1.40903
1.38499
1.35497
1.31815
1.27621
1.23841
1.21944
1.56223
1.56329
1.55899
1.55022
1.53754
1.52025
1.4975
1.47035
1.44576
1.434
1.66482
1.67062
1.67398
1.67463
1.67225
1.66603
1.65514
1.64021
1.62648
1.62061
1.75231
1.76202
1.77079
1.77805
1.78311
1.78512
1.78328
1.77794
1.77289
1.77193
1.81956
1.83238
1.84564
1.85839
1.86962
1.87846
1.88412
1.88663
1.88847
1.89154
1.86658
1.88186
1.89851
1.91532
1.93105
1.94485
1.95597
1.96417
1.971
1.97717
1.89314
1.90999
1.92887
1.94835
1.96703
1.98408
1.99877
2.01069
2.02076
2.02894
1.8993
1.91678
1.93665
1.95734
1.97737
1.99591
2.01224
2.02587
2.03742
2.04651
1.88498
1.90218
1.92183
1.94229
1.96207
1.98035
1.99642
2.00977
2.02106
2.02996
-1.53167
-1.60224
-1.69283
-1.80435
-1.9391
-2.09932
-2.28369
-2.48133
-2.65453
-2.73672
-1.25611
-1.32881
-1.41948
-1.52927
-1.66095
-1.8168
-1.99702
-2.1996
-2.37818
-2.46572
-0.919645
-0.994914
-1.08651
-1.19524
-1.32363
-1.47447
-1.64938
-1.84363
-2.02551
-2.11628
-0.550301
-0.628178
-0.720425
-0.827577
-0.95185
-1.0962
-1.26215
-1.44524
-1.61718
-1.7105
-0.180588
-0.259488
-0.350228
-0.453241
-0.570547
-0.705092
-0.85867
-1.02725
-1.1844
-1.27296
0.161401
0.0860866
0.0012985
-0.0933769
-0.199926
-0.321297
-0.459257
-0.61005
-0.749661
-0.829286
0.466029
0.399353
0.324898
0.242208
0.149216
0.0430606
-0.0778024
-0.209638
-0.330727
-0.399468
0.742753
0.686164
0.622774
0.552386
0.472745
0.381103
0.276337
0.162315
0.0587484
0.000992836
1.00022
0.951596
0.89525
0.833247
0.763789
0.684353
0.594118
0.496779
0.40965
0.362264
1.21553
1.17306
1.12094
1.06566
1.00658
0.941141
0.867976
0.789641
0.720061
0.682899
1.80924
1.55412
1.72355
1.59105
1.62326
1.6295
1.62903
1.63374
1.60664
1.48802
1.79381
1.55187
1.71974
1.59249
1.62111
1.62963
1.63204
1.64396
1.63571
1.57139
1.77971
1.54912
1.71522
1.59315
1.61863
1.62897
1.6347
1.65334
1.66145
1.65263
1.76687
1.54593
1.71015
1.59298
1.61577
1.62746
1.63587
1.66001
1.68203
1.71377
1.75515
1.54234
1.70468
1.59195
1.61247
1.62501
1.63563
1.66405
1.69777
1.76115
1.74442
1.53838
1.69894
1.59007
1.60867
1.62163
1.63393
1.66534
1.70878
1.79443
1.73458
1.5341
1.69307
1.58735
1.60435
1.61731
1.63074
1.66378
1.71482
1.81508
1.72556
1.52951
1.68717
1.58383
1.59948
1.61209
1.62599
1.65937
1.71539
1.82407
1.71729
1.52465
1.68133
1.57955
1.59404
1.60596
1.61963
1.65217
1.71013
1.82184
1.70971
1.51954
1.67562
1.57457
1.58804
1.59894
1.61162
1.64223
1.69902
1.8083
1.95305
1.5664
1.7259
1.59114
1.62401
1.62185
1.60797
1.58833
1.50082
1.36299
1.89243
1.55965
1.72506
1.59221
1.62368
1.62318
1.60964
1.59164
1.50778
1.36482
1.87124
1.56091
1.72786
1.59205
1.62413
1.62462
1.61279
1.59768
1.52251
1.36946
1.84731
1.55895
1.72744
1.59149
1.62435
1.62625
1.61725
1.60662
1.5434
1.38377
1.82656
1.55639
1.72616
1.59056
1.62434
1.62794
1.62232
1.61803
1.56967
1.40337
1.0337
0.892902
0.699153
0.439764
0.123176
-0.227378
-0.586284
-0.930077
-1.23676
-1.48515
1.02672
0.886763
0.700212
0.45047
0.144269
-0.2002
-0.559611
-0.909219
-1.22408
-1.48006
1.0493
0.90104
0.709057
0.462223
0.16379
-0.176613
-0.538927
-0.895144
-1.21724
-1.47937
1.1035
0.935506
0.725777
0.474964
0.180444
-0.158229
-0.524501
-0.887661
-1.21666
-1.48479
1.18361
0.98851
0.750653
0.487864
0.19162
-0.147
-0.515998
-0.884982
-1.2213
-1.49689
)
;

boundaryField
{
    left
    {
        type            zeroGradient;
    }
    right
    {
        type            fixedValue;
        value           uniform 0;
    }
    down
    {
        type            zeroGradient;
    }
    up
    {
        type            zeroGradient;
    }
    cylinder
    {
        type            zeroGradient;
    }
    defaultFaces
    {
        type            empty;
    }
}


// ************************************************************************* //
