/*--------------------------------*- C++ -*----------------------------------*\
  =========                 |
  \\      /  F ield         | OpenFOAM: The Open Source CFD Toolbox
   \\    /   O peration     | Website:  https://openfoam.org
    \\  /    A nd           | Version:  13
     \\/     M anipulation  |
\*---------------------------------------------------------------------------*/
FoamFile
{
    format      ascii;
    class       surfaceScalarField;
    location    "0.4";
    object      phi;
}
// * * * * * * * * * * * * * * * * * * * * * * * * * * * * * * * * * * * * * //

dimensions      [0 3 -1 0 0 0 0];

internalField   nonuniform List<scalar> 
3485
(
0.0026813
-0.0125063
0.00982504
0.00969584
-0.0547776
0.047763
0.0193817
-0.095007
0.0853211
0.0301249
-0.123388
0.112645
0.0408947
-0.139197
0.128427
0.0512377
-0.145751
0.135408
0.0610381
-0.146763
0.136962
0.0703031
-0.144923
0.135658
0.0790537
-0.141742
0.132991
-0.137803
0.129295
0.0875612
0.00309325
-0.0155996
0.0106359
-0.0623202
0.0205581
-0.104929
0.0311418
-0.133972
0.0414536
-0.149508
0.0512091
-0.155507
0.0604703
-0.156024
0.0694308
-0.153884
0.0783578
-0.150669
-0.147093
0.0876485
0.00348352
-0.0190831
0.0114584
-0.0702951
0.0214385
-0.114909
0.0316203
-0.144154
0.0411706
-0.159059
0.049935
-0.164271
0.058056
-0.164145
0.0657272
-0.161555
0.0730872
-0.158029
-0.154197
0.0801912
0.00385472
-0.0229378
0.0121632
-0.0786036
0.0220564
-0.124802
0.0317175
-0.153815
0.0404777
-0.167819
0.0483609
-0.172154
0.0556356
-0.17142
0.0625668
-0.168486
0.0693481
-0.16481
-0.161057
0.0762075
0.00414702
-0.0270848
0.0125821
-0.0870387
0.0221087
-0.134329
0.0309556
-0.162662
0.0386343
-0.175498
0.0453222
-0.178842
0.0513677
-0.177465
0.05706
-0.174178
0.0625878
-0.170338
-0.166539
0.0680698
0.00437256
-0.0314574
0.0127466
-0.0954128
0.0216986
-0.143281
0.0295877
-0.170551
0.0361392
-0.182049
0.0416858
-0.184389
0.0466499
-0.182429
0.0513401
-0.178869
0.0559345
-0.174932
-0.171155
0.0605503
0.00447405
-0.0359314
0.0125234
-0.103462
0.0206188
-0.151376
0.0273152
-0.177247
0.0325555
-0.187289
0.0367982
-0.188632
0.0405077
-0.186139
0.0439899
-0.182351
0.0474079
-0.17835
-0.174578
0.0508312
0.00446042
-0.0403919
0.0119542
-0.110956
0.0189861
-0.158408
0.0243682
-0.182629
0.0282559
-0.191177
0.0312073
-0.191583
0.033703
-0.188634
0.0360297
-0.184677
0.0383241
-0.180644
-0.17688
0.0406265
0.00430116
-0.044693
0.0109954
-0.11765
0.0167578
-0.164171
0.0206944
-0.186566
0.0231549
-0.193638
0.0247668
-0.193195
0.0260073
-0.189875
0.0271353
-0.185805
0.0282607
-0.18177
-0.178007
0.0293873
0.00401199
-0.048705
0.00971275
-0.123351
0.0140669
-0.168525
0.0164931
-0.188992
0.0175096
-0.194654
0.0177875
-0.193473
0.0177842
-0.189872
0.0177242
-0.185745
0.01769
-0.181736
0.0176666
-0.177983
-1.10227e-05
-0.000925088
0.00093611
0.0028548
-0.00726773
0.00440191
0.00932392
-0.0143906
0.00792149
0.0188164
-0.020129
0.0106365
0.0303333
-0.0238642
0.0123473
0.0429657
-0.0258526
0.0132202
0.0560645
-0.0266198
0.013521
0.0692304
-0.0266479
0.0134819
0.082257
-0.0262935
0.0132668
-0.0259381
0.0952003
0.0129949
6.93289e-05
-0.000994417
0.0030816
-0.01028
0.00968293
-0.020992
0.0192594
-0.0297055
0.0308037
-0.0354085
0.0434129
-0.0384618
0.0564491
-0.039656
0.0695253
-0.039724
0.0824453
-0.0392135
-0.0387622
0.0952693
0.00018623
-0.00118065
0.00339834
-0.0134921
0.0101841
-0.0277777
0.0198793
-0.0394007
0.0314639
-0.046993
0.0440428
-0.0510407
0.0569944
-0.0526076
0.0699483
-0.0526779
0.0827223
-0.0519874
-0.0514216
0.0953817
0.000348096
-0.00152874
0.00383261
-0.0169766
0.0108702
-0.0348153
0.0207285
-0.049259
0.0323704
-0.0586349
0.0449137
-0.063584
0.0577605
-0.0654544
0.0705638
-0.0654812
0.0831591
-0.0645828
-0.0638768
0.0956144
0.000562802
-0.00209155
0.00440783
-0.0208216
0.0117762
-0.0421837
0.0218464
-0.0593292
0.0335622
-0.0703507
0.0460625
-0.0760843
0.0587841
-0.0781761
0.071413
-0.0781101
0.083807
-0.0769767
-0.0760937
0.0960238
0.00083733
-0.00292888
0.00513802
-0.0251223
0.0129154
-0.0499611
0.0232373
-0.0696511
0.0350284
-0.0821418
0.047461
-0.0885169
0.0600228
-0.0907379
0.0724455
-0.0905328
0.0846134
-0.0891447
-0.0880244
0.0965441
0.00117059
-0.00409947
0.00600949
-0.0299612
0.0142501
-0.0582017
0.0248302
-0.0802311
0.0366595
-0.0939712
0.0489591
-0.100816
0.0612848
-0.103064
0.0734277
-0.102676
0.0853034
-0.10102
-0.0995605
0.0968395
0.00154247
-0.00564194
0.0069476
-0.0353664
0.0156398
-0.0668939
0.0264168
-0.0910082
0.0381833
-0.105738
0.0502236
-0.112857
0.0621725
-0.115012
0.0738856
-0.114389
0.0853064
-0.112441
-0.11047
0.0962159
0.00190766
-0.0075496
0.00784695
-0.0413057
0.0169068
-0.0759537
0.0277472
-0.101849
0.0392816
-0.117272
0.0508725
-0.124448
0.0622409
-0.126381
0.0733071
-0.125455
0.0840368
-0.123171
-0.120437
0.0940036
0.00227544
0.00873283
0.0181002
0.0288968
0.0400516
0.051012
0.0615934
0.0717965
0.0816166
0.0904749
0.152334
-0.160671
0.103537
0.180042
-0.112369
0.0846609
0.194231
-0.0841191
0.0699303
0.201227
-0.0635838
0.0565882
0.204392
-0.0479115
0.0447462
0.205422
-0.0356149
0.0345853
0.205207
-0.0258403
0.0260546
0.204231
-0.0178255
0.0188015
0.202804
-0.011921
0.0133484
-0.00395739
0.00584119
0.151292
-0.216694
0.17908
-0.140157
0.193542
-0.0985808
0.200783
-0.0708249
0.204143
-0.0512712
0.205327
-0.0367995
0.205243
-0.0257561
0.204385
-0.0169677
0.203071
-0.0106065
-0.00219294
0.149451
-0.270764
0.177258
-0.167964
0.192027
-0.11335
0.199602
-0.078399
0.203265
-0.054934
0.204724
-0.0382588
0.204897
-0.0259287
0.204288
-0.0163588
0.203219
-0.00953753
-0.000683364
0.146775
-0.321924
0.174565
-0.195754
0.189683
-0.128468
0.197684
-0.0863996
0.201761
-0.0590108
0.203615
-0.0401129
0.204169
-0.0264836
0.203938
-0.0161277
0.203246
-0.00884552
0.000436753
0.143279
-0.369179
0.170989
-0.223465
0.186508
-0.143986
0.195034
-0.0949263
0.199638
-0.0636144
0.202006
-0.0424807
0.203066
-0.0275441
0.203339
-0.0164011
0.203153
-0.00865943
0.00103456
0.138983
-0.411618
0.166486
-0.250968
0.182492
-0.159993
0.191659
-0.104093
0.196906
-0.0688609
0.199906
-0.0454807
0.201593
-0.0292312
0.202494
-0.0173023
0.20294
-0.00910515
0.000979709
0.133908
-0.448686
0.160965
-0.278026
0.177603
-0.176631
0.187556
-0.114046
0.193573
-0.0748776
0.197325
-0.0492327
0.199757
-0.0316636
0.201406
-0.018951
0.202606
-0.0103048
0.000145183
0.128138
-0.480608
0.154349
-0.304237
0.171763
-0.194045
0.182693
-0.124976
0.189635
-0.0818192
0.194269
-0.053867
0.197567
-0.0349617
0.200081
-0.0214645
0.202153
-0.0123765
-0.00159211
0.121909
-0.508513
0.146876
-0.329205
0.164965
-0.212134
0.177018
-0.137028
0.185063
-0.0898645
0.190731
-0.0595353
0.195025
-0.0392556
0.198522
-0.0249613
0.201581
-0.0154357
-0.00435112
0.116103
-0.534141
0.139808
-0.352909
0.158072
-0.230399
0.170952
-0.149908
0.180037
-0.0989496
0.186788
-0.0662868
0.192165
-0.0446326
0.196745
-0.0295408
0.200896
-0.0195874
-0.00824513
0.384595
-0.470772
-0.447963
0.350266
-0.31858
0.332629
-0.212762
0.324195
-0.141474
0.319841
-0.0945955
0.317257
-0.0637032
0.315556
-0.042931
0.314405
-0.0283902
0.313611
-0.0187939
-0.00789821
0.395581
-0.399187
-0.467166
0.359103
-0.282103
0.340329
-0.193987
0.330153
-0.131298
0.324109
-0.0885515
0.320231
-0.0598246
0.317637
-0.0403375
0.315905
-0.0266577
0.314743
-0.0176328
-0.00740608
0.410673
-0.332335
-0.477525
0.372372
-0.243802
0.349748
-0.171363
0.336462
-0.118012
0.328329
-0.0804191
0.323091
-0.0545865
0.319619
-0.036865
0.317326
-0.0243653
0.31581
-0.0161164
-0.00677041
0.420123
-0.27032
-0.482137
0.381534
-0.205214
0.357125
-0.146954
0.341824
-0.102711
0.332069
-0.0706638
0.325677
-0.0481949
0.321426
-0.0326137
0.318627
-0.0215666
0.316783
-0.0142725
-0.00599976
0.427086
-0.213506
-0.4839
0.388749
-0.166877
0.363201
-0.121405
0.346381
-0.0858909
0.335309
-0.059592
0.327945
-0.0408306
0.323021
-0.0276898
0.319778
-0.0183243
0.317643
-0.0121368
-0.00510668
0.431967
-0.161382
-0.484091
0.394239
-0.129149
0.368008
-0.0951741
0.350094
-0.0679769
0.338001
-0.0474987
0.32985
-0.03268
0.32437
-0.0222091
0.320755
-0.0147097
0.31837
-0.00975154
-0.00410672
0.435219
-0.113044
-0.483557
0.398226
-0.0921562
0.371596
-0.0685436
0.352928
-0.0493098
0.340087
-0.0346568
0.331338
-0.0239315
0.325425
-0.0162956
0.321517
-0.0108024
0.318931
-0.00716547
-0.0030183
0.436474
-0.0666157
-0.482903
0.400036
-0.0557174
0.373305
-0.0418128
0.354278
-0.0302826
0.34102
-0.0213988
0.331913
-0.0148254
0.325732
-0.0101139
0.321641
-0.00671115
0.318924
-0.00444892
-0.00187096
0.425867
-0.0197044
-0.472779
0.390329
-0.0201789
0.364647
-0.0161308
0.346379
-0.0120144
0.333579
-0.00859948
0.324746
-0.00599181
0.318732
-0.00410027
0.314751
-0.00272964
0.312108
-0.00180616
-0.000753632
0.304134
-0.323838
0.283955
0.267824
0.255809
0.24721
0.241218
0.237118
0.234388
0.232582
0.473202
0.0152577
-0.470793
0.474927
0.0276626
0.475707
0.0398461
0.47584
0.050699
0.474127
0.0622633
0.472546
0.06965
0.467016
0.0817383
0.463622
0.083585
0.452531
0.0987391
0.0921289
0.453886
0.0130169
-0.451645
0.456314
0.0252343
0.458628
0.0375323
0.461245
0.0480821
0.463074
0.0604338
0.465519
0.0672053
0.466582
0.0806753
0.467864
0.0823027
0.469201
0.0974026
0.0941638
0.437642
0.0107456
-0.43537
0.440584
0.0222917
0.444055
0.0340617
0.448128
0.0440092
0.4526
0.0559615
0.457316
0.0624886
0.462732
0.0752594
0.467277
0.0777577
0.47356
0.0911195
0.0901993
0.42507
0.00853404
-0.422859
0.428285
0.019077
0.432503
0.0298437
0.437479
0.0390331
0.443599
0.0498411
0.44987
0.0562181
0.457748
0.0673811
0.464868
0.0706384
0.474169
0.0818186
0.0822304
0.415314
0.00638939
-0.413169
0.4187
0.0156903
0.423392
0.0251523
0.429034
0.0333913
0.436162
0.0427123
0.443649
0.0487321
0.453002
0.058028
0.462093
0.0615474
0.473386
0.0705256
0.0717155
0.407914
0.00426763
-0.405792
0.411449
0.0121555
0.416461
0.0201398
0.422613
0.0272392
0.430368
0.0349582
0.438763
0.0403366
0.449017
0.047774
0.45944
0.0511243
0.471878
0.0580874
0.0595027
0.402374
0.00211464
-0.400221
0.406076
0.00845405
0.411354
0.0148617
0.417936
0.0206575
0.426129
0.0267649
0.435197
0.0312688
0.445985
0.0369852
0.45727
0.0398397
0.470341
0.0450161
0.0462873
0.39642
-0.000251625
-0.394054
0.400411
0.00446336
0.40614
0.00913243
0.413341
0.0134566
0.422162
0.0179438
0.43203
0.0214008
0.443437
0.0255784
0.455463
0.0278135
0.469093
0.0313863
0.0324774
0.372988
-0.00193533
-0.371305
0.377012
0.000439365
0.383229
0.0029158
0.391429
0.00525625
0.401661
0.00771254
0.413322
0.0097391
0.42676
0.012141
0.440965
0.0136078
0.456666
0.0156862
0.0163642
0.239976
-0.241911
0.240415
0.243331
0.248587
0.2563
0.266039
0.27818
0.291788
0.307474
0.075023
0.127504
-0.116399
-0.0861275
0.0647997
0.129659
-0.119435
0.055285
0.132383
-0.122868
0.0460066
0.136009
-0.126731
0.036633
0.14005
-0.130676
0.027106
0.143739
-0.134212
0.0176851
0.145021
-0.1356
0.00909003
0.138479
-0.129884
0.00263079
0.113371
-0.106912
0.0545646
-0.0519339
0.0750209
0.137665
-0.0851824
0.0647664
0.139913
0.0547165
0.142433
0.0449606
0.145765
0.0353669
0.149643
0.0258698
0.153236
0.0166764
0.154215
0.00844728
0.146708
0.0023862
0.119432
0.0569508
0.0711102
0.146731
-0.0801758
0.0615137
0.14951
0.0518082
0.152138
0.0422479
0.155326
0.0328808
0.15901
0.0237237
0.162393
0.0149998
0.162939
0.00735662
0.154351
0.00193236
0.124857
0.0588832
0.0630109
0.154637
-0.0709171
0.0546215
0.157899
0.0459404
0.160819
0.0371981
0.164068
0.0285385
0.16767
0.0200916
0.17084
0.0121775
0.170853
0.00551047
0.161018
0.00115553
0.129212
0.0600387
0.0519715
0.161309
-0.0586435
0.0449881
0.164882
0.0376785
0.168129
0.0301668
0.17158
0.0226072
0.17523
0.0152239
0.178224
0.00844995
0.177626
0.00310985
0.166358
0.00016641
0.132155
0.0602051
0.0397314
0.166771
-0.0451937
0.0341046
0.170509
0.0281936
0.17404
0.0220354
0.177738
0.0157645
0.181501
0.00965585
0.184332
0.00429015
0.182992
0.000382014
0.170267
-0.00078861
0.133326
0.0594165
0.0274992
0.171122
-0.0318499
0.0230772
0.174931
0.0184385
0.178679
0.0135804
0.182596
0.0086251
0.186456
0.00388726
0.18907
-8.38329e-05
0.186963
-0.00200579
0.172188
-0.00166214
0.132982
0.0577544
0.015719
0.174414
-0.019011
0.0124007
0.178249
0.00892875
0.182151
0.00531272
0.186212
0.00167375
0.190095
-0.00163193
0.192376
-0.00382955
0.189161
-0.00424564
0.172605
-0.00240849
0.131145
0.0553459
0.00440394
0.176729
-0.00671877
0.00212351
0.18053
-0.000227668
0.184502
-0.0026567
0.188641
-0.00499439
0.192432
-0.00684142
0.194223
-0.0075454
0.189865
-0.00630176
0.171361
-0.00305045
0.127894
0.0522954
-0.00669016
0.0054357
-0.00789579
-0.0091395
-0.0103703
-0.0114104
-0.0118417
-0.0109691
-0.00813298
-0.00359043
0.105102
0.0243517
-0.116511
-0.0129425
0.0933778
0.0249777
-0.0132538
0.0813227
0.0256389
-0.0135839
0.0689086
0.0263459
-0.0139318
0.0561147
0.0270963
-0.0143025
0.0429501
0.0278445
-0.0146799
0.0295608
0.0283371
-0.0149478
0.016549
0.0276778
-0.014666
0.00556852
0.0236619
-0.0126814
0.0123319
-0.00676341
0.104263
0.0357307
-0.115642
0.092583
0.0366575
0.0805838
0.0376382
0.0682379
0.0386917
0.0555252
0.039809
0.042456
0.0409137
0.0291801
0.041613
0.0163026
0.0405553
0.00546691
0.0344977
0.0177988
0.10304
0.0470704
-0.11438
0.0914295
0.0482684
0.0795161
0.0495516
0.0672732
0.0509346
0.0546808
0.0524015
0.0417507
0.0538438
0.0286382
0.0547255
0.0159533
0.0532402
0.00532265
0.0451283
0.0231215
0.101342
0.0583558
-0.112627
0.0898309
0.0597793
0.0780411
0.0613414
0.0659435
0.0630322
0.0535176
0.0648273
0.0407787
0.0665827
0.0278899
0.0676143
0.0154681
0.065662
0.00511904
0.0554773
0.0282405
0.0990525
0.0695455
-0.110242
0.0876969
0.0711349
0.0760993
0.072939
0.0642219
0.0749096
0.0520367
0.0770126
0.0395573
0.0790621
0.0269577
0.0802139
0.0148713
0.0777484
0.00488296
0.0654657
0.0331235
0.0956983
0.0805759
-0.106729
0.0845724
0.0822608
0.0732341
0.0842773
0.0616545
0.0864892
0.0498126
0.0888545
0.0377254
0.0911494
0.0255703
0.0923689
0.0139839
0.0893348
0.00451952
0.0749301
0.037643
0.0922256
0.091166
-0.102816
0.0815846
0.0929018
0.0707217
0.0951402
0.059555
0.0976558
0.0480589
0.100351
0.0362826
0.102926
0.024456
0.104196
0.0132614
0.100529
0.00423305
0.0839585
0.0418761
0.0849688
0.101313
-0.0951162
0.0749153
0.102955
0.0647857
0.10527
0.0544829
0.107959
0.0439132
0.11092
0.0330634
0.113776
0.0221426
0.115116
0.0118445
0.110827
0.00366994
0.092133
0.045546
0.0822688
0.110153
-0.0911082
0.0730861
0.112138
0.0632947
0.115061
0.0530459
0.118207
0.0424892
0.121477
0.0317459
0.124519
0.0210721
0.12579
0.0111529
0.120747
0.00340846
0.0998775
0.0489545
0.0714815
-0.077728
0.0641843
0.0563773
0.0478539
0.0386547
0.0289613
0.0191512
0.0100139
0.00297939
0.201837
0.0114419
-0.0152892
0.204846
0.0269856
-0.0299949
0.205546
0.0348508
-0.0355503
0.206453
0.0372426
-0.0381493
0.205879
0.0432263
-0.0426523
0.203555
0.0519739
-0.0496501
0.197683
0.0646918
-0.05882
0.187065
0.0818284
-0.0712104
0.162404
0.109332
-0.0846712
0.148308
-0.102415
0.201569
0.00786255
0.204416
0.0241386
0.205053
0.0342138
0.205908
0.0363878
0.205253
0.0438808
0.20279
0.0544374
0.196764
0.0707173
0.185804
0.0927887
0.160855
0.134281
0.193522
0.201185
0.00466705
0.203722
0.0216017
0.204193
0.0337431
0.204859
0.0357219
0.203989
0.0447509
0.201253
0.0571731
0.194984
0.0769867
0.183552
0.10422
0.158417
0.159416
0.237559
0.200681
0.00197621
0.202767
0.0195153
0.202975
0.0335347
0.203318
0.0353789
0.202099
0.0459708
0.198958
0.0603135
0.192337
0.0836076
0.180302
0.116256
0.155354
0.184364
0.280285
0.200049
-8.34131e-05
0.201554
0.0180103
0.201413
0.0336757
0.201302
0.0354902
0.1996
0.0476728
0.195923
0.0639905
0.188815
0.0907161
0.176034
0.129036
0.151761
0.208637
0.321804
0.199288
-0.0013816
0.20009
0.0172082
0.199522
0.0342437
0.198827
0.0361855
0.196514
0.0499856
0.192169
0.0683358
0.184418
0.0984671
0.170706
0.142748
0.147563
0.23178
0.362639
0.198384
-0.00177567
0.198381
0.0172107
0.197318
0.0353067
0.195911
0.0375934
0.192864
0.0530326
0.18772
0.0734796
0.179213
0.106974
0.164278
0.157683
0.142766
0.253291
0.402589
0.197335
-0.00112092
0.196441
0.0181043
0.194823
0.0369254
0.192574
0.0398423
0.188676
0.0569307
0.182605
0.0795499
0.173226
0.116354
0.156985
0.173924
0.136763
0.273513
0.444236
0.19615
0.000718684
0.194303
0.0199514
0.19206
0.0391683
0.188839
0.0430631
0.183977
0.0617936
0.176862
0.0866645
0.166571
0.126645
0.149968
0.190527
0.131026
0.292455
0.484154
0.19495
0.00375831
0.192006
0.0228955
0.189094
0.0420801
0.184682
0.0474754
0.178858
0.0676176
0.170548
0.0949748
0.158516
0.138676
0.140163
0.20888
0.122037
0.310581
0.528462
0.303647
0.00212196
0.306587
0.0199546
0.310779
0.0378886
0.313324
0.0449306
0.316232
0.0647094
0.319452
0.0917546
0.324714
0.133414
0.33548
0.198114
0.364407
0.281654
0.472713
0.420156
0.304404
-0.00027221
0.307787
0.0165716
0.312447
0.0332292
0.31585
0.0415272
0.320138
0.0604219
0.325665
0.0862274
0.33432
0.124759
0.350295
0.182139
0.380536
0.251413
0.413248
0.440001
0.305179
-0.00344054
0.309195
0.0125548
0.314166
0.0282584
0.31839
0.0373037
0.323847
0.0549642
0.331244
0.0788303
0.342728
0.113275
0.361541
0.163326
0.394326
0.218628
0.350905
0.456668
0.30603
-0.00746009
0.310667
0.0079176
0.31589
0.0230349
0.320802
0.0323925
0.327289
0.0484774
0.336255
0.0698637
0.349912
0.0996187
0.370811
0.142427
0.40487
0.184569
0.28944
0.466336
0.307005
-0.0124552
0.312228
0.00269448
0.317588
0.0176749
0.323025
0.0269558
0.330369
0.0411335
0.340618
0.0596143
0.355861
0.0843764
0.378431
0.119857
0.412256
0.150744
0.230807
0.47089
0.308172
-0.0186168
0.313937
-0.00307029
0.319244
0.0123677
0.325009
0.0211903
0.333025
0.0331173
0.34428
0.0483598
0.360639
0.0680177
0.384435
0.0960604
0.417276
0.117903
0.1758
0.472283
0.309602
-0.0262089
0.315826
-0.00929394
0.320822
0.00737198
0.326693
0.0153192
0.335202
0.0246078
0.347199
0.0363634
0.364321
0.0508958
0.388901
0.0714801
0.420583
0.0862204
0.124288
0.472095
0.31124
-0.0354388
0.317705
-0.0157592
0.322055
0.0030227
0.327737
0.0096375
0.336571
0.015773
0.349086
0.0238482
0.366749
0.0332335
0.391765
0.0464636
0.422521
0.0554651
0.0760149
0.470794
0.30898
-0.0424088
0.313166
-0.0199447
0.316477
-0.000288394
0.32215
0.00396423
0.331199
0.00672413
0.344093
0.0109541
0.362206
0.01512
0.387371
0.0212991
0.418093
0.0247428
0.0328254
0.461283
0.259601
0.239657
0.239368
0.243333
0.250057
0.261011
0.276131
0.29743
0.322173
0.354998
0.435374
-0.101345
0.441935
-0.0917433
0.446407
-0.0846487
0.450111
-0.074621
0.453728
-0.0622601
0.457366
-0.0488315
0.460974
-0.0354584
0.464472
-0.0225092
0.467729
-0.00997547
0.00237123
0.442437
-0.10378
0.444061
-0.0933678
0.443778
-0.0843651
0.44342
-0.0742634
0.443598
-0.0624377
0.444424
-0.0496573
0.445798
-0.0368325
0.447575
-0.0242865
0.449533
-0.0119337
0.000259576
0.451296
-0.0984077
0.447163
-0.0892349
0.442825
-0.0800271
0.43879
-0.070229
0.435778
-0.0594256
0.433942
-0.0478211
0.433126
-0.0360165
0.433179
-0.0243397
0.433969
-0.0127242
-0.00114119
0.456327
-0.0883988
0.447924
-0.0808318
0.440495
-0.0725982
0.433965
-0.0636992
0.42874
-0.0542007
0.425024
-0.0441047
0.422716
-0.0337084
0.421644
-0.0232686
0.421703
-0.012783
-0.00229649
0.458351
-0.07586
0.44739
-0.0698709
0.437863
-0.0630716
0.429696
-0.0555323
0.423052
-0.0475563
0.418076
-0.0391291
0.414725
-0.0303569
0.412861
-0.0214042
0.412378
-0.0123004
-0.00308753
0.458431
-0.0620083
0.446039
-0.0574785
0.435191
-0.0522243
0.425949
-0.0462897
0.418383
-0.0399902
0.412572
-0.0333182
0.408499
-0.0262838
0.406069
-0.018974
0.40519
-0.0114223
-0.00368949
0.45752
-0.0474331
0.444303
-0.0442616
0.432636
-0.0405571
0.42269
-0.0363438
0.414516
-0.0318163
0.408155
-0.026957
0.403602
-0.0217311
0.400798
-0.0161699
0.399689
-0.0103133
-0.00422165
0.455633
-0.0322729
0.441689
-0.0303169
0.429346
-0.028214
0.418785
-0.0257836
0.41005
-0.0230812
0.403175
-0.0200814
0.398164
-0.0167204
0.394987
-0.0129928
0.393616
-0.00894235
-0.00465941
0.444177
-0.0151671
0.428797
-0.014937
0.41514
-0.0145574
0.403273
-0.0139167
0.393214
-0.0130218
0.384976
-0.0118434
0.378595
-0.0103391
0.374133
-0.00853123
0.371682
-0.00649096
-0.00428236
0.339831
0.324894
0.310337
0.29642
0.283398
0.271555
0.261216
0.252684
0.246193
0.00905532
0.0624479
-0.0715032
0.0189415
0.159308
-0.169194
0.0236961
0.214053
-0.218807
0.0238458
0.236377
-0.236526
0.0214412
0.241674
-0.239269
0.0179931
0.240281
-0.236833
0.0142673
0.236762
-0.233036
0.0106813
0.231903
-0.228317
0.00770641
0.223653
-0.220678
0.206553
0.00601418
-0.204861
0.0108527
0.0515951
0.0255265
0.144634
0.035561
0.204018
0.0402884
0.231649
0.0416388
0.240323
0.041449
0.240471
0.0407395
0.237471
0.0398658
0.232776
0.0387351
0.224783
0.20854
0.0367482
0.0116505
0.0399447
0.0303259
0.125959
0.0456873
0.188657
0.0554354
0.221901
0.0610133
0.234745
0.0644219
0.237062
0.0669541
0.234939
0.0689937
0.230737
0.0699674
0.22381
0.210425
0.0680831
0.0113701
0.0285745
0.0324961
0.104833
0.0525179
0.168635
0.0673832
0.207036
0.0775816
0.224547
0.0849699
0.229674
0.0910737
0.228835
0.0965056
0.225305
0.100647
0.219669
0.210051
0.10102
0.0101959
0.0183786
0.0316461
0.0833825
0.0546845
0.145597
0.0740196
0.187701
0.0888699
0.209697
0.100511
0.218033
0.110461
0.218885
0.119619
0.216146
0.127818
0.21147
0.204916
0.132953
0.00843629
0.00994233
0.0280342
0.0637846
0.0516054
0.122026
0.0736966
0.16561
0.0923683
0.191025
0.107977
0.202423
0.121662
0.205201
0.134387
0.203421
0.146523
0.199334
0.19399
0.157449
0.00637884
0.00356349
0.0225529
0.0476106
0.0441914
0.100387
0.0667205
0.143081
0.0875976
0.170148
0.106269
0.183752
0.123233
0.188237
0.139228
0.187426
0.154723
0.18384
0.178324
0.170388
0.0042188
-0.000655311
0.0163156
0.0355137
0.0343348
0.0823678
0.0550941
0.122321
0.076069
0.149173
0.0960688
0.163752
0.114897
0.169408
0.132818
0.169505
0.150197
0.166461
0.160982
0.16754
0.00238569
-0.003041
0.0106158
0.0272836
0.0245987
0.0683848
0.042444
0.104476
0.0620363
0.129581
0.0819434
0.143845
0.101504
0.149848
0.12059
0.150419
0.13939
0.14766
0.141336
0.159036
0.000877812
-0.00391881
0.00618286
0.0219786
0.016755
0.0578127
0.0315844
0.0896465
0.0490078
0.112157
0.0675606
0.125292
0.0862466
0.131162
0.104484
0.132182
0.121851
0.130293
0.125018
0.138169
-7.40747e-05
-0.00384474
0.00344106
0.0184635
0.0117335
0.0495203
0.0242604
0.0771195
0.0397216
0.096696
0.0567948
0.108219
0.0744757
0.113481
0.0921363
0.114521
0.109427
0.113003
0.110307
0.124138
-0.000448073
-0.00339667
0.00221147
0.0158039
0.00929365
0.0424381
0.0204075
0.0660057
0.03446
0.0826435
0.0502736
0.0924053
0.0668903
0.0968641
0.083647
0.0977645
0.100132
0.0965182
0.0952504
0.115188
-0.000548277
-0.00284839
0.00183394
0.0134217
0.00835269
0.0359194
0.0186355
0.0557229
0.0316733
0.0696058
0.0463877
0.0776909
0.061894
0.0813578
0.0775644
0.0820941
0.0929782
0.0811043
0.0804742
0.107754
-0.000507923
-0.00234047
0.00182893
0.0110848
0.00810192
0.0296464
0.0178987
0.0459261
0.030234
0.0572705
0.0440938
0.063831
0.0586641
0.0667876
0.0733721
0.0673861
0.0878382
0.0666382
0.0662982
0.102014
-0.000418125
-0.00192234
0.00197218
0.00869453
0.00816701
0.0234516
0.0177085
0.0363846
0.0296121
0.0453668
0.0429027
0.0505404
0.0568205
0.0528698
0.0708452
0.0533614
0.0846515
0.0528319
0.0526551
0.0982946
-0.000325906
-0.00159644
0.00214677
0.00622185
0.00834168
0.0172566
0.0177667
0.0269596
0.0294334
0.0337002
0.04239
0.0375837
0.0559164
0.0393435
0.0695357
0.039742
0.0829691
0.0393986
0.0393369
0.0962873
-0.000250139
-0.0013463
0.00230063
0.00367108
0.00852404
0.0110332
0.0179065
0.0175772
0.0294573
0.0221494
0.0422402
0.0248009
0.0555612
0.0260225
0.0689735
0.0263297
0.0822281
0.026144
0.0261766
0.0953883
-0.000190233
-0.00115607
0.00242968
0.00105117
0.00869281
0.00477011
0.0180719
0.00819813
0.0295758
0.0106454
0.0422786
0.0120981
0.0555028
0.0127983
0.0688198
0.0130127
0.0819975
0.0129663
0.0130827
0.0950913
-0.000138322
-0.00101774
0.00254918
-0.00163634
0.0088623
-0.00154301
0.0182613
-0.00120089
0.0297548
-0.000848071
0.0424235
-0.000570613
0.0556014
-0.000379624
0.0688712
-0.000257062
0.0820106
-0.000173078
2.66523e-05
0.0950667
-8.16343e-05
0.00268393
0.00906242
0.0184981
0.0299973
0.0426468
0.0557882
0.0690131
0.0821068
0.0951284
0.139019
0.316698
-0.331578
0.15098
0.131859
-0.14382
0.160253
0.0445317
-0.0538055
0.167598
0.00592384
-0.0132682
0.173884
-0.00898492
0.00269842
0.179544
-0.0133057
0.00764573
0.184771
-0.0132615
0.00803463
0.189632
-0.011521
0.00665999
0.194199
-0.00956239
0.00499509
-0.00627229
0.00219546
0.138814
0.293072
0.155808
0.114866
0.166494
0.0338454
0.173867
-0.00144969
0.179458
-0.0145758
0.184173
-0.0180205
0.188332
-0.0174208
0.192069
-0.0152577
0.195491
-0.0129841
-0.00921351
0.140156
0.26067
0.160631
0.094391
0.172196
0.0222802
0.17941
-0.00866366
0.184474
-0.0196397
0.188371
-0.0219174
0.191582
-0.0206324
0.194308
-0.0179837
0.196696
-0.0153724
-0.0111277
0.142447
0.220237
0.165172
0.0716665
0.177357
0.0100948
0.184437
-0.0157429
0.188968
-0.0241709
0.192139
-0.0250887
0.194511
-0.0230042
0.196341
-0.0198142
0.197813
-0.0168441
-0.0121288
0.145111
0.17342
0.169261
0.0475167
0.181894
-0.00253837
0.188843
-0.0226913
0.192925
-0.028253
0.195467
-0.0276313
0.19711
-0.024647
0.198162
-0.0208666
0.198837
-0.0175188
-0.0123349
0.147673
0.122035
0.172801
0.022389
0.185781
-0.0155186
0.192619
-0.0295294
0.196326
-0.0319601
0.19834
-0.0296453
0.199368
-0.0256751
0.199764
-0.0212619
0.199764
-0.0175195
-0.0118683
0.149827
0.0675966
0.175723
-0.00350743
0.18898
-0.0287758
0.195739
-0.0362885
0.199151
-0.0353723
0.200742
-0.0312359
0.201274
-0.0262071
0.201137
-0.0211248
0.20059
-0.0169727
-0.0108551
0.151408
0.0112801
0.177961
-0.0300601
0.191455
-0.0422699
0.198178
-0.0430117
0.201383
-0.0385774
0.20266
-0.0325132
0.202818
-0.0263645
0.202275
-0.0205824
0.20131
-0.0160074
-0.00942457
0.15235
-0.0460031
0.179454
-0.0571644
0.193171
-0.0559867
0.199915
-0.0497559
0.203007
-0.0416691
0.204084
-0.0335908
0.203992
-0.0262716
0.203174
-0.0197644
0.201921
-0.014755
-0.00770863
0.152663
0.180159
0.194103
0.200935
0.204012
0.205007
0.20479
0.203827
0.20242
0.104031
-0.00231836
-0.101713
0.105401
-0.00137011
0.10494
0.00046139
0.105269
-0.000329667
0.10635
-0.00108098
0.107585
-0.00123466
0.108661
-0.00107633
0.109486
-0.000824878
0.110063
-0.000577273
-0.000237547
0.223151
0.0551886
-0.280658
0.195495
0.026286
0.184386
0.0115698
0.1814
0.00265639
0.181754
-0.00143495
0.183217
-0.00269711
0.184811
-0.0026704
0.186146
-0.00216042
0.187148
-0.00157866
-0.000675377
0.255683
0.151571
-0.352066
0.214647
0.0673221
0.199762
0.0264555
0.195689
0.00672862
0.195784
-0.00152974
0.197258
-0.00417099
0.198957
-0.00436919
0.20041
-0.00361384
0.201523
-0.00269159
-0.00117091
0.254656
0.248784
-0.351869
0.214806
0.107171
0.200673
0.040589
0.197011
0.0103902
0.197343
-0.00186125
0.198968
-0.00579654
0.200748
-0.00614913
0.20225
-0.00511561
0.203394
-0.00383529
-0.0016804
0.249122
-0.331916
0.212473
0.199257
0.196379
0.197216
0.199065
0.20095
0.202495
0.203655
0.0139146
0.000274697
-0.0141892
0.0151671
-0.00125257
0.0175644
-0.00239726
0.0208128
-0.00324842
0.0253925
-0.00457972
0.0311334
-0.00574086
0.04202
-0.0108866
0.055242
-0.013222
0.0773836
-0.0221416
-0.0243289
0.039271
0.000325106
-0.0393214
0.0437085
-0.00569005
0.0524169
-0.0111057
0.0659779
-0.0168095
0.0855456
-0.0241474
0.111904
-0.0320995
0.147973
-0.0469553
0.187496
-0.0527447
0.236293
-0.0709393
-0.0686934
0.0613232
-0.000519335
-0.0604788
0.0690638
-0.0134306
0.0838877
-0.0259297
0.106863
-0.0397852
0.138678
-0.0559616
0.179354
-0.0727758
0.225915
-0.0935161
0.273085
-0.0999145
0.318908
-0.116763
-0.101851
0.0792744
-0.00259694
-0.0771968
0.0898295
-0.0239857
0.109372
-0.0454718
0.138547
-0.0689602
0.176666
-0.0940809
0.221053
-0.117163
0.263925
-0.136388
0.303284
-0.139273
0.332389
-0.145868
-0.121331
0.0930512
-0.089634
0.105814
0.128425
0.160485
0.199357
0.239643
0.273644
0.30191
0.315078
0.0931518
-0.0887178
0.0970513
-0.101485
0.084348
-0.090907
0.0997108
0.075284
-0.0940941
0.103158
0.065313
-0.0974324
0.107403
0.0542153
-0.100772
0.111869
0.0420871
-0.103931
0.116059
0.0292631
-0.105873
0.118697
0.0165119
-0.10297
0.115721
0.00560058
-0.0868434
0.0977546
-0.0438556
0.0494561
0.105121
-0.0786138
-0.115225
0.0944887
-0.0802746
0.082853
-0.0824584
0.0703621
-0.0849414
0.05728
-0.0876896
0.043812
-0.0904631
0.030173
-0.0922341
0.0169486
-0.0897452
0.00575295
-0.0756477
-0.0381026
0.101185
-0.0671389
-0.11266
0.0896595
-0.0687492
0.0779677
-0.0707666
0.066082
-0.0730557
0.0539116
-0.0755192
0.04137
-0.0779216
0.0285337
-0.0793977
0.0159773
-0.0771888
0.00535068
-0.0650211
-0.0327519
0.104749
-0.0557462
-0.116142
0.0932388
-0.0572388
0.0814234
-0.0589512
0.0691928
-0.0608251
0.0564843
-0.0628107
0.0433094
-0.0647467
0.029846
-0.0659344
0.0167336
-0.0640764
0.00564793
-0.0539355
-0.027104
0.105151
-0.044221
-0.116677
0.0934147
-0.0455021
0.0813553
-0.0468918
0.0689404
-0.0484101
0.0561487
-0.050019
0.0429884
-0.0515864
0.0295995
-0.0525454
0.0165731
-0.0510501
0.00556286
-0.0429252
-0.0215411
0.10572
-0.0327546
-0.117186
0.0939731
-0.0337555
0.0818935
-0.0348122
0.0694471
-0.0359637
0.0566055
-0.0371775
0.0433717
-0.0383526
0.0298891
-0.0390628
0.01676
-0.037921
0.00565089
-0.031816
-0.0158902
0.105962
-0.0213217
-0.117395
0.0942093
-0.0220032
0.0821094
-0.0227123
0.0696324
-0.0234867
0.056756
-0.0243011
0.0434879
-0.0250845
0.0299717
-0.0255466
0.0168083
-0.0247576
0.00566862
-0.0206764
-0.0102216
0.10604
-0.00990058
-0.117461
0.0942829
-0.0102459
0.0821752
-0.0106047
0.0696895
-0.011001
0.0568047
-0.0114163
0.0435286
-0.0118084
0.0300044
-0.0120224
0.0168324
-0.0115856
0.0056817
-0.00952569
-0.00453992
0.105937
0.00151168
-0.117349
0.0941813
0.00150993
0.082078
0.00149859
0.0695993
0.0014778
0.0567241
0.00145889
0.043461
0.0014547
0.0299534
0.00148514
0.0168012
0.00156667
0.00566991
0.00160557
0.00113
0.105623
-0.117054
0.0938793
0.081794
0.06934
0.0564965
0.0432713
0.0298086
0.0167093
0.00563341
0.023029
-0.202601
-0.0252894
0.0177698
-0.215418
0.0113636
-0.22191
0.00469069
-0.226363
-0.00181497
-0.230327
-0.00756393
-0.23352
-0.0113464
-0.232744
-0.0115118
-0.218642
-0.00655914
-0.174147
-0.0780623
0.0520951
-0.197913
-0.0567833
0.043952
-0.207275
0.0347124
-0.212671
0.0253124
-0.216963
0.0160721
-0.221087
0.00729834
-0.224746