/*--------------------------------*- C++ -*----------------------------------*\
  =========                 |
  \\      /  F ield         | OpenFOAM: The Open Source CFD Toolbox
   \\    /   O peration     | Website:  https://openfoam.org
    \\  /    A nd           | Version:  13
     \\/     M anipulation  |
\*---------------------------------------------------------------------------*/
FoamFile
{
    format      ascii;
    class       volScalarField;
    location    "0.06";
    object      p;
}
// * * * * * * * * * * * * * * * * * * * * * * * * * * * * * * * * * * * * * //

dimensions      [0 2 -2 0 0 0 0];

internalField   nonuniform List<scalar> 
440
(
11.7985
14.522
16.7321
16.6453
13.4757
24.6764
28.024
30.9263
31.4698
29.4315
45.2573
48.2628
50.9158
51.6286
50.3728
71.4831
73.5647
75.4525
76.0711
75.3301
100.878
101.686
102.471
102.857
102.804
0.841715
0.471004
0.769592
1.38652
1.89638
0.880133
-0.121465
-0.277636
0.193663
0.862896
1.36955
0.36994
0.0206481
0.368216
1.36453
3.111
2.98929
3.10726
3.6768
5.33547
7.06608
8.37699
9.60892
10.714
12.7327
3.86936
4.3396
3.10786
1.91609
0.654186
2.97642
4.37033
3.10517
1.89622
0.64659
2.0146
4.24178
3.13776
1.89984
0.645811
1.94201
3.98416
3.1585
1.92553
0.651355
4.1693
3.78847
3.14337
1.96548
0.662444
7.64711
4.02874
3.07991
1.98471
0.670246
9.96235
4.11854
3.02323
1.97736
0.663972
13.0748
5.62708
3.57564
2.07898
0.663527
17.191
8.3659
4.6844
2.3365
0.688501
20.1904
11.0746
5.84066
2.70808
0.782157
104.829
79.769
57.0374
36.6805
15.8685
106.527
82.883
61.31
42.6994
27.0316
108.43
86.6984
66.307
48.8999
36.3823
109.316
89.0532
70.4175
54.9711
44.2897
109.241
88.8052
70.3033
55.1418
44.6905
225.043
221.46
220.976
222.975
225.676
207.642
205.081
205.221
207.885
211.143
185.278
183.439
183.739
186.121
188.979
159.28
157.898
158.075
159.654
161.544
131.211
130.485
130.419
130.88
131.476
242.554
243.09
243.738
243.997
243.489
242.776
243.426
243.822
243.531
242.403
241.104
242.005
242.178
241.677
240.666
235.77
237.241
237.57
237.551
237.485
226.977
228.69
229.487
230.564
231.917
244.64
241.917
241.567
240.491
240.711
244.546
241.855
241.497
240.298
241.19
244.54
241.765
241.392
240.213
241.606
244.615
241.649
241.288
240.201
241.017
244.769
241.512
241.209
240.074
238.047
245.042
241.392
241.106
239.439
233.94
245.547
241.363
241.003
239.145
231.579
246.268
241.259
240.453
237.607
228.671
249.675
241.176
239.332
234.753
224.69
258.074
241.511
238.332
231.909
221.642
222.683
201.128
179.764
156.277
130.792
212.282
196.184
177.013
154.96
131.006
203.871
191.012
173.244
152.535
130.619
196.485
185.378
169.577
150.633
130.182
196.074
185.235
169.759
150.994
130.398
99.839
99.0097
98.5933
97.8256
97.6555
59.4003
57.5831
55.9133
53.9442
53.1358
30.4964
28.2936
25.497
23.0816
21.6709
15.4289
13.0702
10.5437
8.38084
7.31424
9.43628
7.53142
6.17534
5.16066
4.50834
6.00545
4.91529
4.48379
4.53795
4.70898
3.91551
3.5988
3.74553
4.10775
4.40135
2.63496
2.8734
3.37242
3.86228
4.13914
1.90164
2.33506
2.98946
3.49814
3.76886
1.36808
1.52737
2.0841
2.66101
3.0265
4.60231
4.53862
3.62167
2.22753
0.757776
4.93117
4.46565
3.5531
2.18718
0.744663
4.85654
4.33062
3.42159
2.1131
0.719575
4.68067
4.25078
3.28181
2.03068
0.692142
4.39821
4.26036
3.16836
1.96072
0.669207
5.52357
4.38844
3.37111
2.10755
0.719638
4.59537
4.50747
3.55809
2.21098
0.755052
98.3404
56.1516
28.5071
15.0786
10.0723
97.1266
53.196
23.9391
9.75318
5.45466
240.157
240.316
240.384
239.989
238.924
240.58
240.87
241.262
241.471
241.22
240.889
241.153
241.668
242.245
242.542
241.236
241.503
242.054
242.808
243.313
241.855
242.252
242.909
243.529
243.676
146.85
146.641
145.808
145.325
144.459
191.433
190.579
188.55
186.815
184.966
222.985
221.527
219.057
216.207
213.973
237.399
236.294
234.094
231.532
229.149
240.27
239.591
238.564
237.203
235.291
247.478
241.648
241.473
240.581
240.351
246.117
241.761
241.487
240.666
240.119
245.504
241.87
241.53
240.77
240.222
245.114
241.93
241.567
240.787
240.344
244.828
241.944
241.588
240.688
240.467
260.401
242.797
242.091
240.72
239.38
251.394
241.811
241.557
240.58
240.302
234.735
229.67
216.148
188.414
146.171
239.337
234.999
220.74
191.382
147.387
)
;

boundaryField
{
    left
    {
        type            zeroGradient;
    }
    right
    {
        type            fixedValue;
        value           uniform 0;
    }
    down
    {
        type            zeroGradient;
    }
    up
    {
        type            zeroGradient;
    }
    cylinder
    {
        type            zeroGradient;
    }
    defaultFaces
    {
        type            empty;
    }
}


// ************************************************************************* //
