/*--------------------------------*- C++ -*----------------------------------*\
  =========                 |
  \\      /  F ield         | OpenFOAM: The Open Source CFD Toolbox
   \\    /   O peration     | Website:  https://openfoam.org
    \\  /    A nd           | Version:  13
     \\/     M anipulation  |
\*---------------------------------------------------------------------------*/
FoamFile
{
    format      ascii;
    class       volVectorField;
    location    "0.06";
    object      U;
}
// * * * * * * * * * * * * * * * * * * * * * * * * * * * * * * * * * * * * * //

dimensions      [0 1 -1 0 0 0 0];

internalField   nonuniform List<vector> 
440
(
(0.219214 -0.177433 -1.77397e-19)
(0.615141 -0.439188 1.0486e-18)
(0.987092 -0.645615 3.48834e-19)
(1.33056 -0.802705 1.38915e-18)
(1.63539 -0.926091 -2.70574e-19)
(0.305501 -0.178045 -5.43352e-19)
(0.820495 -0.429883 -9.98331e-19)
(1.28175 -0.621074 1.41954e-19)
(1.69369 -0.765011 -1.2324e-18)
(2.05513 -0.879542 -1.04264e-18)
(0.385308 -0.152589 -6.98803e-19)
(1.00555 -0.363554 1.55047e-18)
(1.54076 -0.519338 -1.89908e-18)
(2.00558 -0.634077 1.53294e-18)
(2.40642 -0.723428 1.38174e-18)
(0.446192 -0.102832 5.66338e-19)
(1.14664 -0.243324 -1.29207e-18)
(1.73794 -0.345227 -7.92798e-19)
(2.24324 -0.418833 1.93106e-18)
(2.67437 -0.475321 2.54776e-18)
(0.479499 -0.036188 6.91612e-19)
(1.22394 -0.0848688 1.74224e-19)
(1.84608 -0.119593 2.53428e-18)
(2.37397 -0.144229 -1.08407e-18)
(2.82254 -0.163027 -4.96409e-19)
(-0.00182312 -0.0653024 1.37345e-19)
(0.0416759 -0.181581 4.94107e-20)
(0.0964383 -0.277262 9.93104e-19)
(0.1613 -0.354113 -2.17749e-19)
(0.229307 -0.41672 -2.28625e-18)
(0.0162012 -0.0926123 -3.31549e-19)
(0.089278 -0.252327 -9.04749e-19)
(0.172946 -0.392274 3.09745e-20)
(0.266104 -0.503901 2.12469e-20)
(0.361391 -0.588367 4.18386e-20)
(0.0464626 -0.119235 1.4981e-19)
(0.169297 -0.318806 8.47659e-19)
(0.300234 -0.495605 1.8943e-19)
(0.436626 -0.638429 1.05378e-18)
(0.570975 -0.742796 -1.94391e-20)
(0.0891028 -0.143945 6.848e-20)
(0.280519 -0.377327 -8.99533e-20)
(0.474525 -0.580305 3.44471e-19)
(0.666731 -0.744118 -1.7129e-18)
(0.849061 -0.86131 9.23571e-19)
(0.143716 -0.163292 -2.37448e-19)
(0.423085 -0.418062 -4.24993e-19)
(0.695217 -0.631079 -6.73756e-19)
(0.9544 -0.797133 8.39561e-19)
(1.18914 -0.911257 3.14336e-18)
(0.582506 -0.639393 -2.76423e-18)
(0.970244 -0.443092 -2.8044e-19)
(1.15041 -0.199912 9.18979e-20)
(1.20737 -0.0878441 -4.8813e-19)
(1.23554 -0.0237848 -1.57991e-19)
(0.769066 -0.794806 4.34866e-18)
(1.02988 -0.531251 -6.34494e-20)
(1.19478 -0.231848 -3.14874e-19)
(1.23233 -0.0990683 -9.99931e-20)
(1.24998 -0.026508 2.85026e-19)
(1.02191 -0.928465 1.04226e-18)
(1.13366 -0.61197 1.6625e-18)
(1.23984 -0.260651 2.16784e-19)
(1.25978 -0.107768 -3.43279e-20)
(1.26553 -0.0284485 -1.5093e-19)
(1.32024 -1.0338 1.61283e-18)
(1.29093 -0.673197 -2.54602e-19)
(1.29145 -0.28338 -2.23991e-19)
(1.28866 -0.113159 1.56155e-19)
(1.28165 -0.0294838 -6.65427e-20)
(1.6241 -1.0859 -1.58054e-19)
(1.46857 -0.714588 -9.39894e-22)
(1.34877 -0.3038 0)
(1.31653 -0.115831 5.58841e-20)
(1.29758 -0.0295201 7.45068e-20)
(2.14422 -1.13145 -1.87215e-18)
(1.72283 -0.697785 -7.33875e-19)
(1.46244 -0.288834 4.62933e-20)
(1.35849 -0.107204 -2.06554e-19)
(1.31789 -0.0269381 -2.07557e-19)
(2.59729 -0.893396 -1.62249e-18)
(1.86834 -0.528136 2.18477e-18)
(1.51958 -0.216377 4.96561e-20)
(1.38501 -0.0810767 1.64922e-19)
(1.32879 -0.0201044 0)
(2.47324 -0.52118 -7.04626e-18)
(1.64229 -0.282484 -1.66973e-19)
(1.32825 -0.116296 2.02608e-18)
(1.20712 -0.0455611 -2.86615e-19)
(1.15404 -0.0117404 2.99289e-20)
(1.75351 -0.216908 7.0282e-18)
(1.09336 -0.110623 1.62756e-18)
(0.840564 -0.0451797 3.31675e-19)
(0.753298 -0.0169081 4.1897e-33)
(0.719165 -0.00431142 -2.88991e-19)
(0.679167 -0.00061557 1.70477e-18)
(0.397208 0.0213453 8.12666e-19)
(0.302345 0.0116162 -2.68101e-19)
(0.268038 0.00557104 1.47092e-19)
(0.253611 0.0022597 -5.91934e-20)
(3.58271 -0.168869 1.28676e-17)
(3.41732 -0.50359 -1.05833e-17)
(3.13619 -0.788473 7.16618e-18)
(2.77951 -0.999273 2.36216e-18)
(2.33229 -1.10814 -4.35958e-19)
(3.76532 -0.103007 1.04057e-17)
(3.69949 -0.321335 -6.64759e-19)
(3.56086 -0.547219 -4.27376e-18)
(3.36149 -0.779493 2.67497e-18)
(3.08316 -1.01103 -6.60618e-19)
(3.10092 -0.0605153 3.68414e-18)
(3.08502 -0.181095 -2.53695e-18)
(3.0469 -0.308219 5.06198e-18)
(2.98765 -0.442359 -1.5513e-19)
(2.91495 -0.590096 -4.89513e-18)
(2.17913 -0.02754 2.80927e-18)
(2.17208 -0.0830365 8.49343e-18)
(2.15297 -0.143333 -6.60679e-19)
(2.12271 -0.206051 -6.69127e-18)
(2.10217 -0.267438 1.98474e-18)
(0.875199 -0.00181937 5.23984e-18)
(0.872229 -0.0051791 -1.17974e-19)
(0.863115 -0.00946457 -3.82492e-20)
(0.846331 -0.0160986 -2.0287e-18)
(0.837048 -0.0227376 -3.64094e-18)
(1.6529 0.944877 2.3427e-18)
(1.34901 0.821086 -1.0186e-19)
(1.00469 0.661769 -9.32959e-20)
(0.629188 0.451356 -1.82819e-19)
(0.226004 0.18294 -1.35926e-19)
(2.06939 0.894516 -1.25047e-18)
(1.71043 0.77954 -1.31902e-18)
(1.29867 0.633857 7.00512e-19)
(0.834604 0.43948 -4.892e-19)
(0.312525 0.18234 -7.74877e-21)
(2.41723 0.736329 -5.73298e-19)
(2.01894 0.645795 5.31448e-19)
(1.55478 0.529081 2.41038e-18)
(1.01764 0.370399 8.04781e-19)
(0.391499 0.155361 5.29087e-19)
(2.68075 0.486492 4.79925e-20)
(2.25162 0.428148 -2.56272e-19)
(1.74708 0.352265 -6.62185e-19)
(1.15474 0.247646 2.05726e-18)
(0.450429 0.104167 -3.28561e-19)
(2.82463 0.173416 -1.17748e-18)
(2.37684 0.152331 -1.61812e-18)
(1.84926 0.125176 -7.32008e-19)
(1.22681 0.0877744 7.99869e-19)
(0.481013 0.0366889 -3.27008e-19)
(0.235079 0.450864 -2.7731e-18)
(0.165339 0.388153 -2.02287e-18)
(0.0985565 0.307724 2.66311e-19)
(0.0421836 0.202935 6.25585e-20)
(-0.00122454 0.0740644 8.9054e-20)
(0.370506 0.625059 -7.61713e-19)
(0.274236 0.539526 -6.50999e-19)
(0.179478 0.422396 7.14419e-20)
(0.0938245 0.272618 -4.97599e-20)
(0.018743 0.100816 3.87488e-20)
(0.583989 0.777575 2.1982e-18)
(0.449196 0.671749 1.61763e-20)
(0.311122 0.523294 -5.29103e-20)
(0.177311 0.337797 -2.52691e-19)
(0.0504168 0.12706 1.65377e-19)
(0.864541 0.891498 -1.2077e-18)
(0.68247 0.773132 1.76066e-18)
(0.488713 0.604699 -1.91362e-20)
(0.291335 0.39468 1.3376e-19)
(0.0943037 0.151371 -1.28711e-19)
(1.20472 0.935159 -4.61542e-19)
(0.971212 0.820605 -4.73251e-19)
(0.710977 0.651317 3.28918e-19)
(0.43553 0.432924 3.49921e-19)
(0.149744 0.169857 1.89072e-21)
(0.765796 0.143896 -1.19017e-18)
(1.31851 0.150836 5.30072e-20)
(1.13675 0.218756 4.61571e-20)
(0.986733 0.443363 -2.07547e-18)
(0.592649 0.659646 5.22549e-19)
(0.76005 0.101586 4.16937e-19)
(1.32702 0.1451 8.69012e-19)
(1.1741 0.243428 3.85758e-19)
(1.04101 0.528081 2.17119e-19)
(0.775325 0.817485 8.80643e-19)
(0.754476 0.0601057 -2.64754e-19)
(1.34543 0.134827 -5.28859e-20)
(1.21349 0.264296 -1.9744e-19)
(1.13655 0.606363 1.84777e-19)
(1.02631 0.951776 -1.34968e-19)
(0.749234 0.0180699 -5.50869e-20)
(1.37204 0.120963 -1.24642e-18)
(1.25952 0.279666 -2.08133e-19)
(1.28593 0.665424 -3.74615e-19)
(1.32339 1.05576 1.00499e-18)
(0.744911 -0.0216207 2.71055e-19)
(1.40675 0.104277 1.16182e-19)
(1.31056 0.295084 1.21344e-19)
(1.45587 0.706134 1.27042e-18)
(1.62522 1.10587 -3.1964e-18)
(0.748564 -0.0819405 9.79721e-19)
(1.45544 0.0741987 5.80576e-19)
(1.41448 0.271852 -2.78996e-19)
(1.69749 0.682067 4.43366e-18)
(2.13427 1.14227 -5.78123e-18)
(0.764321 -0.177044 -6.50634e-20)
(1.50028 0.0266721 -2.30099e-19)
(1.48278 0.201106 5.19161e-20)
(1.83732 0.517703 -2.6698e-18)
(2.56376 0.896355 1.62832e-18)
(0.753215 -0.357404 4.78661e-18)
(1.37327 -0.0389932 3.22522e-35)
(1.34102 0.110796 -1.92252e-18)
(1.63287 0.277151 2.92382e-18)
(2.45832 0.522172 5.1471e-18)
(0.625462 -0.280678 1.9356e-19)
(0.865703 -0.0582025 1.61336e-19)
(0.844628 0.0400427 3.57888e-19)
(1.0921 0.107547 6.94188e-19)
(1.75335 0.215055 -8.77336e-18)
(0.319082 -0.0406673 -4.14254e-18)
(0.334728 -0.00586961 1.16914e-19)
(0.306017 -0.0021409 9.70407e-19)
(0.400193 -0.0214555 -8.49568e-19)
(0.683547 0.00048779 -1.47661e-18)
(2.34379 1.12156 4.69084e-18)
(2.78302 1.01219 3.48904e-18)
(3.13801 0.802568 -5.81265e-18)
(3.4175 0.518463 -1.48633e-17)
(3.58256 0.18479 1.60743e-17)
(3.06282 1.00805 4.95438e-18)
(3.33898 0.787022 2.56346e-17)
(3.54207 0.554503 7.27056e-18)
(3.685 0.327127 -3.09e-17)
(3.75963 0.10851 -5.17103e-18)
(2.90008 0.586311 -7.38196e-18)
(2.97738 0.443932 -3.44301e-18)
(3.04113 0.309502 -6.44643e-18)
(3.08246 0.180439 -6.95369e-18)
(3.10033 0.0580021 6.57226e-18)
(2.09712 0.263328 5.46602e-18)
(2.11985 0.204288 -4.17851e-19)
(2.15154 0.142282 4.90979e-18)
(2.17172 0.0817474 6.3417e-18)
(2.17914 0.0258482 -5.92958e-18)
(0.838851 0.0220435 -5.71518e-19)
(0.84797 0.0155838 3.54212e-18)
(0.864491 0.00907194 2.46296e-18)
(0.873285 0.00475454 -5.19673e-18)
(0.875613 0.00134946 -3.87159e-20)
(0.293026 0.0214563 5.65471e-19)
(0.679756 0.0418464 -7.63348e-19)
(1.00198 0.0456228 -7.72685e-19)
(0.973857 0.0287249 -1.50236e-18)
(0.723288 0.0172325 -6.5214e-19)
(0.255658 0.0573223 7.78587e-19)
(0.612657 0.11084 1.39801e-18)
(0.891744 0.129502 -7.32747e-19)
(0.967891 0.100844 1.94885e-18)
(0.749199 0.0559326 -2.64894e-18)
(0.193602 0.0766426 5.14246e-19)
(0.494082 0.15098 -1.29622e-18)
(0.731063 0.190809 -9.06406e-19)
(0.882627 0.18088 -1.8333e-18)
(0.765151 0.10565 -2.88247e-18)
(0.128672 0.0797726 -7.42543e-19)
(0.357672 0.165796 -1.323e-18)
(0.552759 0.221607 4.30372e-18)
(0.699363 0.240129 -3.69377e-19)
(0.735498 0.185843 2.16236e-18)
(0.0785334 0.0746421 -5.97052e-19)
(0.239138 0.165831 1.44708e-18)
(0.384891 0.231262 5.38567e-19)
(0.497847 0.264702 -1.21137e-18)
(0.580674 0.266146 -1.87851e-19)
(0.0469459 0.0663434 5.05106e-20)
(0.156066 0.153618 -9.97067e-19)
(0.256668 0.213801 -5.49421e-19)
(0.337143 0.233879 -3.84916e-19)
(0.391652 0.225903 -1.137e-20)
(0.0259263 0.0571523 2.78414e-19)
(0.0992005 0.130807 1.64283e-19)
(0.166492 0.167252 -4.09579e-19)
(0.223981 0.172851 1.58505e-19)
(0.272603 0.162913 1.13368e-19)
(0.0119703 0.0444989 1.50169e-19)
(0.0622382 0.0823486 2.9641e-18)
(0.108601 0.0798948 -1.90049e-18)
(0.15476 0.0657583 -3.42827e-18)
(0.199618 0.0465547 7.22721e-19)
(0.0129935 0.0171953 -4.88615e-19)
(0.0445383 -0.00760847 -2.15365e-18)
(0.0824343 -0.0341527 3.73824e-18)
(0.127303 -0.0637053 1.8782e-18)
(0.173545 -0.0943379 -3.68025e-19)
(-0.00563836 -0.0369952 4.64432e-20)
(0.0299338 -0.103937 -2.82759e-19)
(0.0720045 -0.155921 9.73142e-20)
(0.122477 -0.203832 8.21523e-20)
(0.175364 -0.24792 -4.2653e-19)
(0.416825 0.0666769 1.91685e-19)
(0.665627 -0.0370402 -3.56128e-19)
(0.771435 -0.0311101 2.25413e-19)
(0.833952 -0.0155708 3.28084e-19)
(0.867862 -0.00471221 4.16317e-20)
(0.379399 -0.0622391 1.72339e-19)
(0.796581 -0.115009 6.16649e-19)
(0.959238 -0.0552354 9.31263e-19)
(1.04778 -0.0262648 1.18902e-19)
(1.09713 -0.00774448 -1.14621e-19)
(0.387528 -0.177676 -3.09381e-19)
(0.854365 -0.184357 1.56949e-18)
(1.04087 -0.0904609 -2.32501e-19)
(1.14573 -0.0435416 -5.70103e-19)
(1.19814 -0.0122981 2.02917e-19)
(0.416757 -0.323001 7.51327e-19)
(0.892126 -0.269357 -4.08047e-19)
(1.0744 -0.128406 -4.89437e-19)
(1.16713 -0.0595442 -6.0462e-20)
(1.21208 -0.0164533 -6.93352e-21)
(0.472747 -0.476914 2.85063e-19)
(0.929553 -0.355213 -1.833e-19)
(1.10952 -0.164924 3.37911e-19)
(1.18563 -0.0743874 2.35094e-19)
(1.22278 -0.0203609 1.74074e-20)
(0.183203 -0.0470801 8.58356e-19)
(0.150075 -0.00471234 0)
(0.177683 0.00365759 1.15584e-19)
(0.192119 0.00259067 1.0286e-19)
(0.198356 0.000989093 -1.34176e-19)
(0.428145 0.0678327 0)
(0.430008 -0.00426139 0)
(0.512595 -0.0133253 4.35528e-19)
(0.554449 -0.00640347 2.87618e-19)
(0.5733 -0.00197234 -1.82119e-20)
(0.169629 -0.000837291 -3.755e-19)
(0.193994 -0.00163093 3.10993e-18)
(0.221024 -0.00434287 -6.71467e-19)
(0.23681 -0.0138892 -3.03991e-18)
(0.250993 -0.0158585 -7.07866e-19)
(0.449295 0.00473079 6.16808e-19)
(0.50278 0.020908 4.06893e-18)
(0.554931 0.0493002 -6.54869e-18)
(0.585652 0.0842462 2.2151e-18)
(0.617602 0.167672 3.95261e-18)
(0.391507 -0.223938 -4.41614e-19)
(0.336881 -0.23247 2.49364e-20)
(0.257108 -0.213859 -9.39889e-20)
(0.156721 -0.154642 3.02812e-19)
(0.0474341 -0.0669216 1.09588e-19)
(0.275949 -0.154875 5.72658e-19)
(0.226012 -0.165711 1.89751e-18)
(0.16801 -0.162435 5.60354e-19)
(0.100549 -0.129728 2.06648e-19)
(0.0264127 -0.0575768 1.794e-20)
(0.207196 -0.0317671 -5.70795e-19)
(0.160124 -0.0514742 -7.2684e-20)
(0.112131 -0.0673896 2.11802e-18)
(0.0652883 -0.0735038 4.80243e-19)
(0.0129906 -0.0433798 -3.14621e-19)
(0.180984 0.115023 -1.0845e-18)
(0.132059 0.0845309 -9.99745e-19)
(0.0845292 0.0542615 1.56629e-18)
(0.0446018 0.0267601 1.96825e-18)
(0.0111565 -0.000770317 2.97807e-19)
(0.18013 0.275395 -8.22782e-20)
(0.124589 0.231606 -2.67027e-19)
(0.0714473 0.182122 1.7764e-19)
(0.0268143 0.124654 4.55302e-19)
(-0.00816349 0.0459301 3.54438e-20)
(0.723281 -0.0171893 1.56082e-18)
(0.973851 -0.0287125 -1.79033e-18)
(1.00179 -0.0457666 2.28115e-18)
(0.679773 -0.0419177 4.03902e-19)
(0.293066 -0.0214669 5.49455e-19)
(0.74917 -0.0558389 1.83997e-18)
(0.967719 -0.100868 7.8752e-18)
(0.891555 -0.129622 1.0263e-18)
(0.612724 -0.110895 1.36097e-18)
(0.25577 -0.0573491 -4.89065e-19)
(0.76499 -0.105463 -1.36923e-18)
(0.882053 -0.180765 -2.25717e-18)
(0.730995 -0.190887 2.89253e-18)
(0.494181 -0.151069 -7.56761e-20)
(0.193753 -0.076693 3.14334e-19)
(0.734913 -0.185736 7.66004e-20)
(0.698826 -0.240171 -7.71216e-18)
(0.552784 -0.221902 -5.87479e-18)
(0.357843 -0.166088 1.01966e-18)
(0.128876 -0.0798874 4.95528e-19)
(0.579259 -0.265477 5.10246e-19)
(0.497276 -0.264654 4.80283e-19)
(0.385011 -0.231879 -8.27273e-19)
(0.239467 -0.166513 -8.20106e-19)
(0.0788709 -0.0749084 -4.80611e-21)
(0.701743 0.3621 1.06393e-18)
(1.01647 0.101235 -4.65666e-20)
(0.785406 0.0390877 1.7807e-19)
(0.679762 0.0413985 -1.83524e-19)
(0.428605 -0.0628397 -1.13661e-20)
(0.768955 0.356977 -1.56068e-19)
(1.27743 0.11715 -9.85575e-19)
(0.979994 0.0751275 3.00462e-19)
(0.819289 0.119574 8.02505e-19)
(0.397272 0.0702017 -1.36072e-19)
(0.780486 0.287328 -2.04863e-18)
(1.35219 0.130362 -8.01608e-20)
(1.05542 0.115734 5.43187e-20)
(0.879136 0.190334 6.08564e-19)
(0.408397 0.188967 -5.59323e-19)
(0.77724 0.23377 2.00023e-18)
(1.33319 0.144264 1.07758e-19)
(1.07976 0.155111 -1.06186e-19)
(0.914107 0.274662 4.82355e-19)
(0.436192 0.337067 3.05787e-20)
(0.771725 0.18762 3.43613e-19)
(1.32066 0.150925 -2.20642e-19)
(1.1048 0.189087 -2.71542e-21)
(0.94878 0.358613 4.54389e-19)
(0.487781 0.49401 1.07974e-18)
(0.271888 0.0473936 0)
(0.2645 -0.00445934 5.38919e-19)
(0.179486 -0.0159949 1.035e-19)
(0.154386 0.00414899 -2.69233e-19)
(0.184683 0.0461906 -1.64519e-18)
(0.560618 0.256143 -1.00045e-17)
(0.686133 0.064909 -1.8143e-18)
(0.517579 0.0179724 1.13744e-18)
(0.438544 0.00621741 -2.53243e-19)
(0.431 -0.0661924 -2.62512e-19)
(0.251196 0.0159049 4.58452e-20)
(0.236919 0.0139865 1.85037e-18)
(0.221113 0.00439415 5.41187e-19)
(0.194047 0.00164283 3.05223e-19)
(0.169645 0.000841638 0)
(0.617788 -0.167374 -5.62611e-19)
(0.585921 -0.0840993 2.38759e-18)
(0.55499 -0.0491166 -2.75116e-19)
(0.502833 -0.0208542 -3.3437e-19)
(0.449318 -0.00470732 7.8179e-19)
)
;

boundaryField
{
    left
    {
        type            fixedValue;
        value           uniform (1 0 0);
    }
    right
    {
        type            zeroGradient;
    }
    down
    {
        type            noSlip;
    }
    up
    {
        type            noSlip;
    }
    cylinder
    {
        type            noSlip;
    }
    defaultFaces
    {
        type            empty;
    }
}


// ************************************************************************* //
