/*--------------------------------*- C++ -*----------------------------------*\
  =========                 |
  \\      /  F ield         | OpenFOAM: The Open Source CFD Toolbox
   \\    /   O peration     | Website:  https://openfoam.org
    \\  /    A nd           | Version:  13
     \\/     M anipulation  |
\*---------------------------------------------------------------------------*/
FoamFile
{
    format      ascii;
    class       volScalarField;
    location    "0.16";
    object      p;
}
// * * * * * * * * * * * * * * * * * * * * * * * * * * * * * * * * * * * * * //

dimensions      [0 2 -2 0 0 0 0];

internalField   nonuniform List<scalar> 
440
(
8.30678
11.0622
13.4188
13.5876
10.6034
21.1862
24.5694
27.5633
28.2592
26.3663
41.7149
44.7464
47.4491
48.2404
47.0774
67.8456
69.9436
71.857
72.513
71.8245
97.1236
97.9405
98.7373
99.1371
99.1029
0.158165
0.0194442
0.444591
0.981576
1.31961
-1.04165
-1.76084
-1.56511
-0.917385
-0.298302
-1.4514
-2.35567
-2.32321
-1.61396
-0.517718
-0.157173
-0.291542
0.0965227
1.03393
2.88234
3.58576
4.89769
6.32011
7.73558
9.97318
2.58442
2.86598
1.8984
1.08248
0.365362
1.4983
2.63407
1.78294
1.02254
0.350517
0.31698
2.2043
1.65054
0.974183
0.339727
0.0299325
1.62485
1.46346
0.933437
0.333555
1.98578
1.07286
1.21019
0.893246
0.331937
4.93814
0.863482
0.914354
0.842198
0.33297
7.21051
1.13977
0.908325
0.861655
0.330515
10.4502
2.87253
1.57335
1.00521
0.314167
14.3812
5.31351
2.66308
1.23445
0.299794
17.1472
7.75424
3.94453
1.58297
0.355973
101.145
76.2947
53.7784
33.6059
12.8161
102.842
79.3963
57.9868
39.5038
23.9348
104.742
83.1581
62.9278
45.6822
33.3332
105.624
85.4786
66.9622
51.6466
41.1268
105.543
85.1996
66.7861
51.7139
41.3726
220.343
216.886
216.606
218.73
221.466
203.147
200.694
200.961
203.705
206.998
181.003
179.236
179.601
182.025
184.904
155.205
153.864
154.069
155.664
157.561
127.323
126.609
126.549
127.01
127.603
235.832
236.239
236.827
237.185
236.881
236.561
237.172
237.684
237.614
236.632
235.487
236.455
236.859
236.577
235.575
230.617
232.226
232.805
232.956
232.864
222.091
223.971
225.003
226.228
227.588
236.724
235.207
235.333
234.325
234.55
236.684
235.194
235.32
234.333
235.209
236.679
235.165
235.305
234.497
235.843
236.707
235.117
235.329
234.762
235.456
236.761
235.056
235.405
234.95
232.724
236.842
234.98
235.463
234.729
229.113
237.015
234.886
235.369
234.394
226.804
237.762
234.67
234.699
232.686
223.788
241.567
234.649
233.497
230.086
220.033
250.467
235.349
232.37
227.484
217.237
218.193
196.674
175.478
152.191
126.905
207.831
191.838
172.791
150.886
127.114
199.359
186.674
169.081
148.547
126.791
192.166
181.218
165.544
146.713
126.375
191.936
181.197
165.8
147.114
126.606
96.8518
95.9747
95.5268
94.7599
94.6035
57.7927
55.8448
54.1388
52.2177
51.4519
29.9818
27.6366
24.8741
22.5772
21.2525
15.5434
13.1256
10.6648
8.65048
7.67965
9.69991
7.81548
6.44366
5.48278
4.89397
6.42738
5.33463
4.78289
4.71835
4.8174
4.46408
4.0223
3.98079
4.16306
4.33184
3.14703
3.16477
3.42278
3.74141
3.90816
2.1643
2.45785
2.90586
3.25414
3.40357
1.20867
1.55471
2.09349
2.49003
2.67006
4.16521
3.68144
2.55874
1.38392
0.444421
4.19288
3.51698
2.46558
1.33506
0.433154
3.97543
3.27901
2.33665
1.28844
0.421569
3.66635
3.08155
2.18049
1.22431
0.403773
3.2597
2.96965
2.02859
1.1524
0.383712
5.02811
3.64557
2.44208
1.35923
0.441422
4.31743
3.75591
2.55731
1.40193
0.449766
95.3597
54.6252
28.0085
14.9961
9.97978
94.1387
51.6145
23.4798
9.97517
5.77434
232.509
232.597
232.566
232.079
231.015
233.13
233.312
233.561
233.626
233.273
233.676
233.849
234.236
234.644
234.827
234.193
234.346
234.74
235.318
235.716
234.863
235.098
235.578
236.132
236.337
142.412
142.221
141.393
140.882
139.971
185.625
184.816
182.838
181.071
179.093
215.904
214.533
212.186
209.373
206.997
229.52
228.512
226.467
223.975
221.531
232.363
231.745
230.785
229.42
227.527
239.472
235.004
235.051
233.912
233.242
237.886
235.05
235.131
234.085
233.3
237.232
235.131
235.218
234.286
233.604
236.942
235.184
235.288
234.407
233.908
236.803
235.205
235.322
234.396
234.169
252.802
236.306
235.449
233.891
232.332
243.735
235.245
235.002
233.798
233.032
227.312
222.24
209.141
182.445
141.661
231.508
227.272
213.699
185.469
142.884
)
;

boundaryField
{
    left
    {
        type            zeroGradient;
    }
    right
    {
        type            fixedValue;
        value           uniform 0;
    }
    down
    {
        type            zeroGradient;
    }
    up
    {
        type            zeroGradient;
    }
    cylinder
    {
        type            zeroGradient;
    }
    defaultFaces
    {
        type            empty;
    }
}


// ************************************************************************* //
