# Selection   : all
# Cells       : 440
# Volume      : 7.374263e+01
# Time        	minMag(U)
3.8           	1.240403e-02
3.85          	1.197628e-02
3.9           	1.170528e-02
