/*--------------------------------*- C++ -*----------------------------------*\
  =========                 |
  \\      /  F ield         | OpenFOAM: The Open Source CFD Toolbox
   \\    /   O peration     | Website:  https://openfoam.org
    \\  /    A nd           | Version:  13
     \\/     M anipulation  |
\*---------------------------------------------------------------------------*/
FoamFile
{
    format      ascii;
    class       volScalarField;
    location    "1.85";
    object      p;
}
// * * * * * * * * * * * * * * * * * * * * * * * * * * * * * * * * * * * * * //

dimensions      [0 2 -2 0 0 0 0];

internalField   nonuniform List<scalar> 
1800
(
-1.56582
-1.55747
-1.54779
-1.53794
-1.53187
-1.53188
-1.53797
-1.54829
-1.55782
-1.57522
-1.60278
-1.59392
-1.58469
-1.576
-1.56996
-1.56733
-1.56669
-1.56535
-1.56051
-1.55665
-1.65898
-1.64881
-1.63921
-1.63046
-1.62278
-1.61482
-1.6041
-1.58832
-1.56692
-1.54197
-1.73172
-1.71979
-1.70865
-1.69778
-1.68501
-1.66745
-1.64292
-1.61092
-1.5722
-1.5303
-1.81899
-1.80517
-1.79125
-1.77527
-1.75286
-1.72115
-1.67982
-1.63064
-1.57659
-1.52156
-1.91719
-1.90155
-1.8829
-1.85763
-1.82062
-1.77096
-1.71128
-1.64571
-1.57794
-1.51143
-2.01955
-2.00201
-1.97589
-1.93664
-1.8808
-1.81091
-1.73289
-1.65225
-1.57287
-1.49752
-2.11639
-2.09633
-2.05955
-2.00236
-1.92499
-1.83457
-1.7394
-1.64529
-1.5554
-1.47142
-2.19593
-2.17219
-2.12207
-2.04445
-1.94511
-1.83568
-1.7256
-1.62012
-1.52159
-1.43086
-2.24612
-2.2174
-2.15243
-2.05384
-1.93432
-1.80871
-1.68644
-1.57175
-1.46598
-1.36916
-0.878844
-0.885642
-0.893656
-0.902794
-0.913154
-0.923222
-0.931333
-0.935688
-0.932689
-0.917962
-1.00902
-1.01457
-1.02162
-1.03097
-1.04277
-1.05524
-1.0664
-1.0743
-1.07511
-1.06319
-1.15711
-1.16112
-1.16717
-1.17729
-1.19153
-1.20773
-1.22339
-1.23628
-1.24248
-1.23507
-1.30199
-1.30428
-1.30898
-1.32025
-1.33752
-1.35819
-1.37916
-1.39778
-1.4106
-1.41031
-1.42232
-1.42194
-1.42513
-1.43667
-1.4559
-1.48003
-1.50559
-1.52918
-1.54834
-1.55438
-1.50337
-1.49963
-1.4999
-1.50895
-1.52658
-1.5506
-1.57761
-1.60386
-1.62514
-1.63213
-1.54345
-1.53666
-1.5327
-1.5361
-1.54783
-1.56715
-1.59163
-1.61756
-1.6401
-1.64848
-1.55282
-1.54435
-1.53644
-1.53285
-1.5361
-1.54729
-1.56554
-1.58766
-1.60873
-1.61622
-1.54902
-1.54038
-1.53029
-1.52162
-1.51817
-1.52254
-1.5351
-1.55325
-1.57287
-1.57673
-1.54925
-1.54095
-1.53059
-1.52012
-1.51394
-1.51512
-1.52433
-1.53904
-1.55334
-1.55272
-0.762439
-0.0980197
0.0274156
0.114478
0.100634
0.0780168
0.0572541
0.0392272
0.0228209
0.00771694
-0.865138
-0.141589
0.00882147
0.106237
0.0963785
0.075209
0.0552101
0.0377865
0.0219723
0.00738935
-1.00223
-0.20024
-0.0158513
0.094202
0.0905561
0.0716151
0.0527415
0.0361232
0.0210174
0.00702694
-1.15559
-0.266781
-0.0459408
0.0782626
0.0830452
0.0671833
0.0498248
0.0342249
0.0199486
0.0066282
-1.30643
-0.338684
-0.0802548
0.0585083
0.0736969
0.0618572
0.0464395
0.0320811
0.0187595
0.00619243
-1.44259
-0.414904
-0.117563
0.035113
0.0623629
0.0555839
0.0425731
0.0296857
0.0174462
0.00571993
-1.54521
-0.496722
-0.157452
0.00852595
0.0489454
0.0483105
0.0382193
0.0270391
0.0160098
0.00521337
-1.6007
-0.583279
-0.199963
-0.020604
0.0334594
0.0399738
0.0333532
0.0241363
0.0144523
0.00467896
-1.6043
-0.66874
-0.244631
-0.0513394
0.0161391
0.0305242
0.0279094
0.0209417
0.0127575
0.00412104
-1.56293
-0.747036
-0.290034
-0.082216
-0.00230829
0.0201348
0.0218916
0.0174254
0.0108954
0.00353596
-1.44471
-0.750436
-0.31049
-0.107382
-0.0224447
0.00689278
0.0136593
0.012458
0.00822949
0.00272515
-1.2142
-0.69037
-0.313649
-0.129272
-0.0447504
-0.00934978
0.00314652
0.00598883
0.0048052
0.00163536
-1.05046
-0.644188
-0.319478
-0.144389
-0.0610774
-0.0224513
-0.00591223
0.000221606
0.00169342
0.000644431
-0.924102
-0.603448
-0.326569
-0.164532
-0.0813781
-0.0376513
-0.0157584
-0.00574451
-0.00142919
-0.000361998
-0.829457
-0.575849
-0.337169
-0.182143
-0.0972877
-0.0499918
-0.0242077
-0.011018
-0.00421983
-0.00125528
-0.756253
-0.557296
-0.351136
-0.202794
-0.114653
-0.0625705
-0.0324039
-0.0159466
-0.00676327
-0.00205853
-0.700352
-0.549171
-0.370116
-0.224921
-0.130736
-0.0734141
-0.0393465
-0.0200756
-0.00887151
-0.00270482
-0.660469
-0.549812
-0.391798
-0.24726
-0.145639
-0.0828632
-0.0451683
-0.0234271
-0.010534
-0.00317929
-0.638516
-0.556724
-0.408679
-0.262328
-0.154599
-0.0878003
-0.0482174
-0.025147
-0.0113771
-0.0033729
-0.626464
-0.561757
-0.417589
-0.269974
-0.159983
-0.0912473
-0.0503306
-0.026364
-0.0120475
-0.00357074
-1.20241
-1.27072
-1.32062
-1.3595
-1.38589
-1.4131
-1.43629
-1.47572
-1.50657
-1.56492
-1.01435
-1.08503
-1.14002
-1.18538
-1.21882
-1.24905
-1.27097
-1.29405
-1.31364
-1.34103
-0.865943
-0.9344
-0.990842
-1.03656
-1.07217
-1.09928
-1.11909
-1.13296
-1.14526
-1.15566
-0.745402
-0.811136
-0.866694
-0.911275
-0.94669
-0.972275
-0.99105
-1.00274
-1.0113
-1.0162
-0.648466
-0.711326
-0.764688
-0.807931
-0.842293
-0.867618
-0.885769
-0.897102
-0.903299
-0.904946
-0.570688
-0.630748
-0.681719
-0.723439
-0.756519
-0.781283
-0.798678
-0.809406
-0.814219
-0.814183
-0.509158
-0.566742
-0.615604
-0.655595
-0.687268
-0.710843
-0.727345
-0.737177
-0.741439
-0.740816
-0.462922
-0.518497
-0.565793
-0.604093
-0.634349
-0.656354
-0.671965
-0.680644
-0.68472
-0.683218
-0.435126
-0.489958
-0.53592
-0.573068
-0.602424
-0.623532
-0.638454
-0.646064
-0.649873
-0.647144
-0.422115
-0.477214
-0.52377
-0.561899
-0.591632
-0.61343
-0.628146
-0.635927
-0.638726
-0.633971
0.35082
0.2792
0.197147
0.109231
0.0141886
-0.0904096
-0.204508
-0.321777
-0.420634
-0.469302
0.136402
0.0584567
-0.0284772
-0.123661
-0.228949
-0.346033
-0.47386
-0.60443
-0.713398
-0.765924
-0.09915
-0.180694
-0.270927
-0.371068
-0.483282
-0.608911
-0.746325
-0.886292
-1.00248
-1.05701
-0.326874
-0.412738
-0.508126
-0.614561
-0.733932
-0.867269
-1.01259
-1.1597
-1.28075
-1.33524
-0.53572
-0.627157
-0.728984
-0.842459
-0.969136
-1.10993
-1.26254
-1.41547
-1.537
-1.59075
-0.724766
-0.821909
-0.929943
-1.04992
-1.18306
-1.32976
-1.4887
-1.64194
-1.76111
-1.81401
-0.894243
-0.996114
-1.10902
-1.23376
-1.37158
-1.52219
-1.68079
-1.83201
-1.94661
-1.99691
-1.04512
-1.14967
-1.2647
-1.39124
-1.5302
-1.68063
-1.83629
-1.98123
-2.08744
-2.13346
-1.17719
-1.28088
-1.39482
-1.52
-1.65673
-1.80306
-1.9515
-2.08521
-2.17958
-2.22016
-1.2858
-1.38674
-1.49747
-1.61863
-1.74975
-1.88777
-2.02398
-2.14185
-2.22203
-2.2566
1.76038
1.77468
1.78941
1.80347
1.81604
1.82643
1.83395
1.83861
1.84244
1.84669
1.68406
1.69525
1.70617
1.71578
1.72339
1.7283
1.72985
1.7283
1.72674
1.72776
1.58711
1.59428
1.60024
1.60411
1.60537
1.60332
1.59731
1.58792
1.57945
1.5765
1.47095
1.47356
1.47355
1.47036
1.46376
1.45305
1.4376
1.41844
1.40136
1.39375
1.33534
1.33244
1.32554
1.31442
1.29907
1.27876
1.25286
1.22281
1.19602
1.18325
1.18376
1.17516
1.16044
1.14001
1.11432
1.08271
1.04467
1.00219
0.964509
0.945826
1.01636
1.0015
0.978799
0.949006
0.912741
0.869272
0.818212
0.76225
0.712816
0.687913
0.841614
0.819496
0.786737
0.745317
0.69653
0.639711
0.57456
0.504421
0.442919
0.411669
0.664484
0.634887
0.591477
0.537508
0.474914
0.403108
0.322062
0.236155
0.161708
0.124101
0.499279
0.452173
0.391347
0.321623
0.244025
0.156982
0.0602439
-0.0409842
-0.127725
-0.171157
1.50998
1.47964
1.48148
1.47764
1.47458
1.48493
1.50502
1.5418
1.60128
1.6969
1.50284
1.47374
1.47557
1.47065
1.4664
1.47377
1.49058
1.52098
1.56962
1.6474
1.49626
1.46779
1.46952
1.46323
1.45761
1.46157
1.47468
1.4971
1.53236
1.5863
1.49018
1.46185
1.46336
1.45542
1.44824
1.44832
1.45736
1.47002
1.48989
1.51287
1.48462
1.45594
1.45712
1.44724
1.43829
1.43399
1.43869
1.43951
1.44288
1.42596
1.47955
1.4501
1.45082
1.43875
1.42775
1.41857
1.41866
1.4055
1.39157
1.32474
1.47498
1.44437
1.44446
1.42998
1.41663
1.40215
1.3972
1.36792
1.33613
1.20765
1.47095
1.43876
1.43806
1.42095
1.40492
1.38482
1.37415
1.32696
1.27625
1.07589
1.46747
1.4333
1.43162
1.41171
1.39264
1.36673
1.34934
1.28278
1.21031
0.927615
1.46461
1.42801
1.42515
1.40229
1.37994
1.34806
1.32368
1.23699
1.14096
0.774296
1.46173
1.42185
1.41689
1.39058
1.36306
1.32383
1.28862
1.18098
1.06076
0.62785
1.46013
1.41547
1.40773
1.37773
1.34443
1.29835
1.25045
1.13202
0.983991
0.598984
1.46049
1.40997
1.39892
1.36543
1.32643
1.27545
1.2148
1.09257
0.922894
0.584022
1.46343
1.40537
1.39042
1.35369
1.309
1.25564
1.18221
1.0616
0.873893
0.577719
1.46947
1.4017
1.38186
1.34238
1.29207
1.23888
1.15291
1.03859
0.836162
0.575807
1.4793
1.39902
1.37408
1.33181
1.27611
1.225
1.12772
1.02264
0.808567
0.573183
1.49256
1.39576
1.36443
1.31983
1.261
1.2136
1.10663
1.01159
0.789705
0.570546
1.51713
1.39703
1.35826
1.31015
1.24824
1.2046
1.0899
1.00428
0.777736
0.569264
1.52896
1.38855
1.34461
1.29823
1.23822
1.19827
1.07871
1.00046
0.772158
0.570545
1.60448
1.40152
1.34696
1.29408
1.23456
1.19512
1.0733
0.999353
0.769203
0.573559
0.33366
0.157553
-0.0509364
-0.252827
-0.436913
-0.603452
-0.754898
-0.892117
-1.01265
-1.11707
0.281995
0.142749
-0.0163467
-0.176984
-0.328533
-0.46883
-0.599052
-0.720125
-0.830738
-0.930082
0.266796
0.148741
0.0202662
-0.112655
-0.242563
-0.36637
-0.483479
-0.593327
-0.694777
-0.785879
0.280339
0.170466
0.0553552
-0.0604152
-0.174203
-0.284433
-0.390091
-0.490279
-0.583817
-0.669139
0.298627
0.194922
0.0886631
-0.0156682
-0.117481
-0.217119
-0.314054
-0.407395
-0.495296
-0.576102
0.316854
0.21898
0.119785
0.0234509
-0.070142
-0.16238
-0.253128
-0.341404
-0.424882
-0.501881
0.333935
0.241475
0.148033
0.0572901
-0.0311032
-0.11861
-0.205126
-0.289521
-0.369416
-0.443198
0.349512
0.261877
0.173146
0.0861246
0.000540129
-0.0845383
-0.168702
-0.25064
-0.328032
-0.399263
0.363709
0.280122
0.19507
0.109932
0.0248256
-0.0601309
-0.143881
-0.224986
-0.301508
-0.372035
0.375889
0.294749
0.211192
0.125569
0.0390656
-0.0470281
-0.13127
-0.212368
-0.28871
-0.359081
-1.17791
-1.14248
-1.06621
-0.969442
-0.870882
-0.780909
-0.703409
-0.63946
-0.589386
-0.553693
-1.21699
-1.18573
-1.12285
-1.04121
-0.955279
-0.875078
-0.8051
-0.746935
-0.701573
-0.670292
-1.19452
-1.16657
-1.11793
-1.05449
-0.984955
-0.917766
-0.857696
-0.806844
-0.766703
-0.738763
-1.12491
-1.0995
-1.06354
-1.01844
-0.967323
-0.915734
-0.867976
-0.826358
-0.792585
-0.76811
-1.02879
-1.00584
-0.97943
-0.949283
-0.914972
-0.878836
-0.843749
-0.811692
-0.784316
-0.762498
-0.927463
-0.907567
-0.887627
-0.867374
-0.845508
-0.822353
-0.799273
-0.777379
-0.758226
-0.742795
-0.836685
-0.820863
-0.805397
-0.790346
-0.775257
-0.760235
-0.745737
-0.732284
-0.719863
-0.708164
-0.763936
-0.752782
-0.741097
-0.72868
-0.716119
-0.704466
-0.695044
-0.688053
-0.685713
-0.686717
-0.708639
-0.70158
-0.692811
-0.681224
-0.668648
-0.657658
-0.650874
-0.650436
-0.655233
-0.67244
-0.671784
-0.667315
-0.658556
-0.645649
-0.631565
-0.619973
-0.615246
-0.62243
-0.640666
-0.688035
-0.665616
-0.660426
-0.650429
-0.635663
-0.61971
-0.60759
-0.603377
-0.610367
-0.628756
-0.652408
-0.689229
-0.681905
-0.672341
-0.66111
-0.650662
-0.644417
-0.64532
-0.655198
-0.675344
-0.699807
-0.721252
-0.714107
-0.708433
-0.706025
-0.708146
-0.71599
-0.730182
-0.750615
-0.776748
-0.801906
-0.742922
-0.738911
-0.738556
-0.744297
-0.756604
-0.77535
-0.800007
-0.829703
-0.862942
-0.890708
-0.744457
-0.744753
-0.748427
-0.758021
-0.773763
-0.795116
-0.821618
-0.851494
-0.884654
-0.909234
-0.728524
-0.732176
-0.738198
-0.748074
-0.762327
-0.780476
-0.801811
-0.825379
-0.848541
-0.865825
-0.708867
-0.714679
-0.722043
-0.731416
-0.74335
-0.757274
-0.772319
-0.787315
-0.799712
-0.806566
-0.702074
-0.709208
-0.717546
-0.726854
-0.737496
-0.748661
-0.759293
-0.768061
-0.772466
-0.770246
-0.723062
-0.730868
-0.739825
-0.749276
-0.759413
-0.769129
-0.777248
-0.78232
-0.781611
-0.772617
-0.781485
-0.789081
-0.797828
-0.807109
-0.817016
-0.826326
-0.833574
-0.837159
-0.833993
-0.820922
-0.822948
-0.596655
-0.305109
-0.0550239
0.0569264
0.0714057
0.0614071
0.0460001
0.0281737
0.00991603
-0.900377
-0.545112
-0.218735
-0.0013323
0.0729291
0.0745683
0.0615087
0.0454325
0.0276231
0.00969807
-0.956791
-0.491765
-0.14255
0.0411667
0.0845155
0.0770641
0.0617357
0.0450004
0.0271553
0.00950403
-0.98641
-0.439556
-0.0825681
0.0701977
0.0918627
0.0790361
0.0619792
0.0446085
0.0267209
0.00931789
-0.960576
-0.375037
-0.0368352
0.0893589
0.0969924
0.0806107
0.0621015
0.0441823
0.0262871
0.00913137
-0.881532
-0.288973
-0.000407689
0.103357
0.100837
0.0817059
0.0620279
0.0436875
0.0258377
0.00893972
-0.785296
-0.196048
0.0255203
0.11333
0.103434
0.0822313
0.0617055
0.0430935
0.0253565
0.00873717
-0.716743
-0.124117
0.0398717
0.118872
0.104742
0.0821533
0.0610968
0.0423731
0.0248278
0.0085182
-0.687758
-0.084966
0.043963
0.1207
0.104751
0.0814489
0.0601706
0.0415024
0.0242375
0.00827794
-0.702648
-0.0773929
0.0394077
0.119221
0.103405
0.0800832
0.0588987
0.0404601
0.0235725
0.0080121
-0.53284
-0.602261
-0.461558
-0.166716
0.00812164
0.0586195
0.0601427
0.0467745
0.0291251
0.0103506
-0.525723
-0.600693
-0.472927
-0.170799
0.009355
0.0594055
0.0602025
0.0466622
0.0289804
0.0102865
-0.566172
-0.609636
-0.472784
-0.169386
0.0128544
0.0604535
0.0600861
0.0464393
0.0288061
0.0102212
-0.648489
-0.618637
-0.450444
-0.15505
0.021606
0.0627113
0.0601799
0.0462846
0.0286636
0.010156
-0.749251
-0.620135
-0.381609
-0.106798
0.0392499
0.0676458
0.0611098
0.0463647
0.0285794
0.0100999
-0.519782
-0.632048
-0.704736
-0.740009
-0.749165
-0.726467
-0.714601
-0.66639
-0.636775
-0.591119
-0.520101
-0.633902
-0.704815
-0.738509
-0.742747
-0.719905
-0.707136
-0.65354
-0.634889
-0.583357
-0.522087
-0.636851
-0.706303
-0.739175
-0.737193
-0.721834
-0.695269
-0.66101
-0.642653
-0.610761
-0.527378
-0.643537
-0.712461
-0.74433
-0.738693
-0.728479
-0.690804
-0.681374
-0.663384
-0.683049
-0.536741
-0.654698
-0.723657
-0.753764
-0.748125
-0.733374
-0.698315
-0.692699
-0.678744
-0.756119
1.50526
1.49705
1.48229
1.46392
1.44283
1.41805
1.38894
1.35736
1.33109
1.31938
1.59005
1.59322
1.59004
1.58246
1.57167
1.55722
1.53868
1.51754
1.50006
1.49285
1.67114
1.67896
1.68218
1.68212
1.67962
1.67429
1.66559
1.65439
1.64519
1.64223
1.74056
1.7524
1.76156
1.7685
1.77348
1.776
1.77544
1.77224
1.76968
1.77047
1.79781
1.81272
1.82598
1.83767
1.84781
1.8559
1.8613
1.8642
1.86684
1.87059
1.83844
1.85529
1.87167
1.88723
1.90164
1.91432
1.92462
1.93239
1.93908
1.94523
1.86208
1.88017
1.89851
1.91645
1.93341
1.94882
1.96198
1.97264
1.98178
1.98942
1.86668
1.8851
1.90428
1.92333
1.94151
1.95818
1.97266
1.98459
1.99478
2.00303
1.85163
1.86957
1.88845
1.90724
1.92508
1.94133
1.9553
1.96666
1.97634
1.98425
1.81631
1.8329
1.8503
1.86743
1.8834
1.89756
1.9092
1.91814
1.92569
1.93226
-0.388473
-0.429968
-0.484573
-0.552797
-0.635326
-0.731598
-0.838608
-0.946132
-1.03277
-1.07224
-0.181041
-0.227953
-0.286751
-0.358137
-0.443223
-0.54223
-0.654058
-0.768294
-0.861971
-0.904028
0.0560745
0.00434359
-0.058116
-0.131706
-0.217699
-0.316831
-0.427812
-0.542165
-0.641722
-0.684673
0.303576
0.248751
0.184463
0.110607
0.0260025
-0.0702275
-0.177113
-0.288272
-0.384073
-0.428541
0.542549
0.487405
0.424254
0.353174
0.273073
0.182855
0.08303
-0.0207438
-0.109229
-0.151852
0.759153
0.707516
0.649277
0.584533
0.512185
0.430996
0.34124
0.247985
0.168886
0.13026
0.950447
0.905694
0.855488
0.799812
0.737492
0.667236
0.589232
0.50807
0.439573
0.406164
1.12365
1.08679
1.04537
0.999351
0.947409
0.888245
0.822064
0.75305
0.695194
0.667317
1.28649
1.25609
1.22111
1.18262
1.13942
1.09018
1.03505
0.977666
0.930043
0.907575
1.42702
1.4024
1.37221
1.34008
1.30543
1.26671
1.22356
1.1786
1.14156
1.12451
1.62873
1.52082
1.51873
1.51211
1.51782
1.54268
1.56628
1.60406
1.62188
1.59406
1.61116
1.51981
1.51836
1.51242
1.51682
1.5412
1.56623
1.6069
1.6387
1.64549
1.59522
1.51767
1.51682
1.5117
1.51509
1.53874
1.56531
1.60986
1.65508
1.69585
1.5808
1.51464
1.51435
1.51006
1.51261
1.53536
1.56309
1.61028
1.66652
1.73334
1.56774
1.51089
1.51112
1.50756
1.50939
1.53107
1.5594
1.60831
1.67311
1.76066
1.55587
1.50655
1.50724
1.50426
1.50541
1.52582
1.55419
1.60387
1.67468
1.77724
1.54505
1.50174
1.50281
1.50022
1.50068
1.5196
1.54745
1.59685
1.67098
1.78312
1.53515
1.49657
1.49795
1.49548
1.49521
1.5124
1.53916
1.58716
1.66185
1.77825
1.52607
1.49112
1.49273
1.4901
1.48902
1.50423
1.52933
1.57479
1.64728
1.76233
1.5177
1.48545
1.48722
1.48414
1.48213
1.49507
1.51795
1.55969
1.62715
1.7352
1.79469
1.52354
1.50781
1.50102
1.51263
1.53492
1.54895
1.57004
1.53375
1.50717
1.72066
1.5173
1.50836
1.50296
1.51342
1.5358
1.54957
1.57144
1.53734
1.50402
1.69807
1.52214
1.51293
1.50576
1.51468
1.53742
1.552
1.5756
1.54838
1.5062
1.67155
1.52202
1.51589
1.5085
1.51613
1.53959
1.55638
1.58318
1.56696
1.51733
1.64847
1.52137
1.51788
1.51072
1.51743
1.54177
1.56149
1.59305
1.59124
1.53535
1.30953
1.22075
1.0994
0.940964
0.747668
0.526616
0.288713
0.0496627
-0.173296
-0.365094
1.30386
1.21787
1.10191
0.948395
0.759962
0.542199
0.304763
0.0631156
-0.164709
-0.361824
1.31521
1.22503
1.10642
0.95428
0.769433
0.554156
0.316566
0.0723655
-0.159526
-0.360889
1.34892
1.24476
1.11476
0.959847
0.776665
0.562667
0.324304
0.0775808
-0.157894
-0.363137
1.40332
1.27826
1.12892
0.965516
0.780556
0.566867
0.328305
0.0797523
-0.159306
-0.368991
)
;

boundaryField
{
    left
    {
        type            zeroGradient;
    }
    right
    {
        type            fixedValue;
        value           uniform 0;
    }
    down
    {
        type            zeroGradient;
    }
    up
    {
        type            zeroGradient;
    }
    cylinder
    {
        type            zeroGradient;
    }
    defaultFaces
    {
        type            empty;
    }
}


// ************************************************************************* //
