/*--------------------------------*- C++ -*----------------------------------*\
  =========                 |
  \\      /  F ield         | OpenFOAM: The Open Source CFD Toolbox
   \\    /   O peration     | Website:  https://openfoam.org
    \\  /    A nd           | Version:  13
     \\/     M anipulation  |
\*---------------------------------------------------------------------------*/
FoamFile
{
    format      ascii;
    class       surfaceScalarField;
    location    "1.85";
    object      phi;
}
// * * * * * * * * * * * * * * * * * * * * * * * * * * * * * * * * * * * * * //

dimensions      [0 3 -1 0 0 0 0];

internalField   nonuniform List<scalar> 
3485
(
0.000223479
0.00557255
-0.00579603
0.00331266
0.00974065
-0.0128298
0.0106978
0.00738835
-0.0147735
0.0232178
-0.00124208
-0.0112779
0.041298
-0.0155642
-0.00251598
0.0648694
-0.034528
0.0109566
0.0931357
-0.0565257
0.0282593
0.124691
-0.0796699
0.0481151
0.157697
-0.102214
0.0692071
-0.120262
0.0887646
0.189195
0.000596335
0.00497622
0.00487176
0.00546523
0.0145431
-0.00228295
0.0305743
-0.0172734
0.0530707
-0.0380606
0.0810185
-0.0624758
0.112423
-0.0879304
0.144769
-0.112015
0.175356
-0.132801
-0.149344
0.204438
0.00142269
0.00355353
0.00789769
-0.00100977
0.0210011
-0.0153864
0.0412702
-0.0375425
0.0677584
-0.0645487
0.0981407
-0.0928581
0.129408
-0.119198
0.15871
-0.141318
0.184179
-0.15827
-0.170358
0.205193
0.00243683
0.0011167
0.0115335
-0.0101064
0.0283687
-0.0322216
0.0523246
-0.0614983
0.0809296
-0.0931537
0.110708
-0.122636
0.138443
-0.146933
0.16204
-0.164915
0.180672
-0.176902
-0.184053
0.194367
0.00355409
-0.00243739
0.0153635
-0.0219158
0.035413
-0.0522712
0.061392
-0.0874773
0.089393
-0.121155
0.115638
-0.148882
0.137708
-0.169002
0.154782
-0.181989
0.167248
-0.189368
-0.193089
0.176285
0.00472454
-0.00716193
0.0189369
-0.0361281
0.0409287
-0.074263
0.0666184
-0.113167
0.0914977
-0.146034
0.112538
-0.169922
0.12866
-0.185124
0.14023
-0.193559
0.148305
-0.197442
-0.198533
0.153749
0.00582077
-0.0129827
0.0216836
-0.051991
0.0438628
-0.0964423
0.0671182
-0.136422
0.0874178
-0.166334
0.103019
-0.185523
0.114026
-0.196131
0.121451
-0.200984
0.126428
-0.20242
-0.202062
0.129957
0.00668088
-0.0196636
0.023114
-0.0684241
0.0437669
-0.117095
0.0632668
-0.155922
0.0786848
-0.181752
0.0894911
-0.196329
0.0964986
-0.203139
0.100884
-0.20537
0.103648
-0.205184
-0.203746
0.105333
0.00717404
-0.0268376
0.0230131
-0.0842631
0.0409142
-0.134996
0.0561834
-0.171191
0.0670915
-0.19266
0.0739515
-0.203189
0.0778802
-0.207068
0.079993
-0.207483
0.081063
-0.206254
-0.204207
0.0815237
0.00723217
-0.0340698
0.0214964
-0.0985273
0.0360279
-0.149528
0.0471588
-0.182322
0.0541619
-0.199663
0.0578282
-0.206856
0.0593154
-0.208555
0.0595592
-0.207726
0.0591169
-0.205812
0.0581797
-0.20327
-0.00525122
0.0150231
-0.00977188
-0.0156692
0.0268338
-0.0164157
-0.028009
0.0292238
-0.016884
-0.0405215
0.0271793
-0.0146668
-0.0523784
0.0233162
-0.0114593
-0.0632207
0.0188411
-0.00799878
-0.0728927
0.0142263
-0.00455432
-0.0813174
0.00957745
-0.00115271
-0.088362
0.00481193
0.0022326
-0.000206256
-0.0938628
0.00570703
-0.00412236
0.0191455
-0.0129628
0.0356741
-0.023873
0.040134
-0.0351869
0.0384932
-0.0459803
0.0341096
-0.0557675
0.0286283
-0.0642911
0.0227499
-0.0714156
0.0167019
-0.0770656
0.0104619
0.00384358
-0.0811154
-0.00229442
0.0214399
-0.0083923
0.041772
-0.0166842
0.048426
-0.0257348
0.0475438
-0.0345144
0.0428893
-0.0423507
0.0364646
-0.0488117
0.029211
-0.0536428
0.021533
-0.0567408
0.0135599
0.00515643
-0.0580537
3.53406e-06
0.0214363
-0.00227041
0.044046
-0.00672141
0.052877
-0.0123416
0.0531639
-0.0180754
0.0486231
-0.0230756
0.0414648
-0.0267016
0.0328369
-0.028462
0.0232935
-0.0281174
0.0132153
0.00260393
-0.0255649
0.00227292
0.0191634
0.00436083
0.0419581
0.00475876
0.052479
0.00372099
0.0542017
0.00208653
0.0502576
0.000747309
0.042804
0.000470809
0.0331134
0.00186447
0.0218998
0.00559848
0.0094813
-0.00373989
0.0119423
0.00378625
0.0153772
0.00957806
0.0361663
0.0147885
0.0472686
0.0188007
0.0501894
0.0219409
0.0471174
0.0248327
0.0399122
0.0281129
0.0298332
0.0323992
0.0176135
0.0382069
0.00367358
-0.0121292
0.0465962
0.00404604
0.0113311
0.0116445
0.0285678
0.0200844
0.0388287
0.0281872
0.0420867
0.0357414
0.0395633
0.0430045
0.0326491
0.0503833
0.0224543
0.0582716
0.00972517
0.0672343
-0.00528908
-0.0234425
0.0785476
0.00315835
0.00817277
0.0102494
0.0214767
0.0193851
0.0296931
0.0294018
0.03207
0.0398407
0.0291244
0.050731
0.0217588
0.062353
0.0108324
0.0750974
-0.00301925
0.0890979
-0.0192895
-0.0397021
0.105358
0.00176437
0.00640841
0.0069549
0.0162862
0.0149636
0.0216844
0.0251898
0.0218437
0.0373766
0.0169376
0.0516092
0.00752619
0.0681954
-0.00575387
0.0872692
-0.0220931
0.108486
-0.0405062
-0.0625409
0.131325
0.000612377
0.00406872
0.0109796
0.0215454
0.035967
0.0544498
0.0769553
0.102977
0.131678
0.157902
-0.0463501
-0.259513
0.212001
0.0548138
-0.328132
0.226968
0.124309
-0.23839
0.168895
0.166543
-0.175083
0.132849
0.189809
-0.128318
0.105052
0.201867
-0.0929416
0.0808839
0.207824
-0.0711334
0.0651766
0.21016
-0.0491349
0.0467986
0.210904
-0.041315
0.0405707
-0.026816
0.0274304
-0.0344307
-0.306198
0.0567657
-0.419328
0.125934
-0.307558
0.167378
-0.216527
0.190391
-0.151331
0.202387
-0.104938
0.20831
-0.0770564
0.210641
-0.0514654
0.211375
-0.0420489
-0.0262263
-0.0109573
-0.353294
0.0643999
-0.494685
0.129414
-0.372572
0.168699
-0.255812
0.190896
-0.173528
0.202661
-0.116703
0.208545
-0.08294
0.210939
-0.0538591
0.21176
-0.0428704
-0.0257828
0.0201368
-0.398996
0.0796252
-0.554174
0.135894
-0.428841
0.171067
-0.290985
0.191549
-0.19401
0.202758
-0.127912
0.208544
-0.0887259
0.211055
-0.0563701
0.212057
-0.0438726
-0.0256051
0.0558463
-0.4429
0.100306
-0.598633
0.145166
-0.473701
0.174693
-0.320513
0.192536
-0.211854
0.202767
-0.138142
0.208338
-0.0942969
0.210997
-0.0590292
0.212263
-0.0451394
-0.0258094
0.0918708
-0.488175
0.12244
-0.629202
0.155452
-0.506713
0.179067
-0.344128
0.193842
-0.226628
0.202752
-0.147052
0.207966
-0.0995103
0.210777
-0.0618409
0.212379
-0.0467409
-0.0265068
0.121656
-0.531283
0.142167
-0.649713
0.164584
-0.529129
0.183042
-0.362586
0.195101
-0.238688
0.202674
-0.154625
0.207456
-0.104293
0.210419
-0.0648033
0.212409
-0.0487313
-0.0278004
0.143368
-0.569293
0.157069
-0.663414
0.171067
-0.543128
0.185461
-0.37698
0.19567
-0.248897
0.20231
-0.161265
0.206774
-0.108757
0.209931
-0.0679608
0.212362
-0.0511624
-0.0297869
0.157615
-0.595583
0.166211
-0.672011
0.174383
-0.551299
0.185751
-0.388349
0.194957
-0.258102
0.201298
-0.167606
0.205775
-0.113234
0.209279
-0.0714649
0.212232
-0.0541147
-0.0325652
0.166817
-0.604499
0.170504
-0.675698
0.175068
-0.555862
0.184215
-0.397497
0.192822
-0.266709
0.199338
-0.174122
0.204237
-0.118133
0.208353
-0.075581
0.211977
-0.0577392
-0.0362534
0.590172
-0.582967
-0.611704
0.520891
-0.606417
0.448901
-0.483872
0.399654
-0.34825
0.37055
-0.237605
0.353775
-0.157347
0.343393
-0.107752
0.33712
-0.0693073
0.332676
-0.0532957
-0.0337341
0.607836
-0.496254
-0.694549
0.514458
-0.51304
0.445203
-0.414616
0.401369
-0.304416
0.3745
-0.210735
0.357669
-0.140516
0.346537
-0.0966192
0.33949
-0.062261
0.334257
-0.0480622
-0.0306433
0.618273
-0.414986
-0.699541
0.541243
-0.43601
0.477195
-0.350569
0.426652
-0.253873
0.39102
-0.175103
0.36756
-0.117056
0.352225
-0.081284
0.342803
-0.0528395
0.336104
-0.0413631
-0.0267971
0.616289
-0.346806
-0.684469
0.542309
-0.36203
0.478957
-0.287216
0.429643
-0.20456
0.394809
-0.140269
0.371301
-0.0935484
0.355242
-0.0652244
0.344987
-0.042585
0.337472
-0.033848
-0.0223898
0.616206
-0.292188
-0.670824
0.550793
-0.296617
0.489467
-0.225891
0.43839
-0.153482
0.400901
-0.10278
0.375349
-0.0679956
0.357869
-0.0477451
0.346693
-0.0314088
0.338469
-0.0256236
-0.0175148
0.61467
-0.246174
-0.660684
0.552475
-0.234422
0.491291
-0.164707
0.439834
-0.102026
0.401876
-0.0648218
0.376044
-0.042164
0.358325
-0.0300255
0.346941
-0.0200256
0.338459
-0.0171408
-0.0123846
0.604123
-0.200189
-0.650108
0.540299
-0.170598
0.479023
-0.103431
0.429452
-0.052455
0.393795
-0.0291639
0.36994
-0.0183094
0.353601
-0.013687
0.343072
-0.00949574
0.335048
-0.00911672
-0.00736911
0.557135
-0.139961
-0.617364
0.487474
-0.100937
0.43023
-0.0461864
0.389701
-0.0119262
0.362541
-0.00200337
0.344962
-0.000730442
0.332898
-0.00162372
0.325055
-0.00165233
0.318747
-0.00280879
-0.00313776
0.413018
-0.0608114
-0.492167
0.345055
-0.0329742
0.305401
-0.00653151
0.286887
0.00658764
0.27752
0.00736337
0.271862
0.00492725
0.267518
0.00272094
0.264441
0.00142401
0.261338
0.000294301
-0.000551889
0.130008
-0.190819
0.0970339
0.0905024
0.09709
0.104453
0.109381
0.112102
0.113526
0.11382
0.552454
0.0483237
-0.542598
0.563535
0.070443
0.576671
0.0921965
0.591399
0.115228
0.607482
0.137666
0.625081
0.158686
0.638604
0.180844
0.648945
0.194852
0.637277
0.216106
0.214768
0.529543
0.0394936
-0.520713
0.541475
0.0585113
0.554709
0.0789618
0.571814
0.0981233
0.590243
0.119238
0.612358
0.136571
0.6352
0.158002
0.657965
0.172087
0.681727
0.192344
0.201947
0.51264
0.0316346
-0.504781
0.523933
0.0472189
0.536693
0.066201
0.553132
0.0816846
0.571531
0.100839
0.592772
0.11533
0.616913
0.133861
0.642215
0.146785
0.671317
0.163242
0.173723
0.499215
0.0239246
-0.491505
0.509736
0.0366978
0.522567
0.0533695
0.538162
0.0660905
0.556393
0.0826074
0.576924
0.0947996
0.600541
0.110243
0.626036
0.121289
0.654606
0.134672
0.14386
0.488229
0.0162538
-0.480558
0.49824
0.0266868
0.511163
0.0404461
0.526407
0.0508473
0.544637
0.0643772
0.565043
0.0743936
0.588391
0.0868953
0.613677
0.0960032
0.641515
0.106834
0.114551
0.478667
0.00883495
-0.471248
0.488366
0.0169869
0.501186
0.0276271
0.516326
0.035707
0.534541
0.0461624
0.555028
0.0539057
0.578378
0.0635455
0.60371
0.0706715
0.631473
0.0790713
0.0853396
0.467637
0.00202586
-0.460828
0.476898
0.00772605
0.489328
0.0151972
0.504248
0.0207874
0.522291
0.0281188
0.54284
0.0333573
0.566273
0.040112
0.591975
0.0449701
0.620239
0.0508067
0.0554707
0.444443
-0.0032795
-0.439137
0.452215
-4.6269e-05
0.463139
0.00427285
0.4766
0.00732626
0.493313
0.0114065
0.512615
0.0140547
0.534937
0.0177908
0.559833
0.0200732
0.587375
0.0232653
0.025482
0.375256
-0.00440666
-0.374129
0.378406
-0.0031958
0.384423
-0.0017441
0.392548
-0.000799202
0.403528
0.000426187
0.41647
0.00111258
0.432108
0.00215305
0.449711
0.00247066
0.469707
0.00326875
0.00302184
0.184106
-0.188512
0.18091
0.179166
0.178366
0.178793
0.179905
0.182058
0.184529
0.187798
0.0750855
0.146761
-0.13492
-0.0869257
0.064169
0.148916
-0.138
0.0540735
0.15151
-0.141415
0.0442685
0.155015
-0.14521
0.0344816
0.158804
-0.149018
0.0247737
0.161809
-0.152101
0.0155322
0.161431
-0.15219
0.00754656
0.151819
-0.143833
0.00198495
0.12238
-0.116818
0.0582981
-0.0563131
0.0722198
0.157446
-0.0829052
0.0616377
0.159498
0.0513672
0.161781
0.0414341
0.164948
0.0317221
0.168516
0.0222958
0.171235
0.0135527
0.170174
0.00627327
0.159098
0.00148499
0.127168
0.059783
0.0655396
0.166844
-0.0749375
0.0557514
0.169287
0.0460185
0.171513
0.0365496
0.174417
0.0273733
0.177693
0.0186183
0.17999
0.0107191
0.178074
0.00445609
0.165361
0.000742917
0.130881
0.060526
0.0555968
0.175071
-0.0638238
0.0469706
0.177913
0.0382172
0.180267
0.0296002
0.183034
0.0212857
0.186007
0.0134988
0.187777
0.00675497
0.184817
0.00185647
0.17026
-0.000276602
0.133014
0.0602494
0.0435276
0.182253
-0.0507099
0.0360741
0.185366
0.0284507
0.18789
0.0208844
0.1906
0.0136255
0.193266
0.00705919
0.194343
0.00172736
0.190149
-0.00126878
0.173256
-0.00145497
0.133201
0.0587944
0.0298683
0.188405
-0.0360199
0.0235735
0.191661
0.017135
0.194329
0.010757
0.196978
0.00473299
0.19929
-0.000446376
0.199522
-0.00378754
0.19349
-0.00462996
0.174098
-0.00270393
0.131275
0.0560905
0.0150053
0.193649
-0.020249
0.00975861
0.196908
0.00448996
0.199597
-0.000611925
0.20208
-0.0051538
0.203832
-0.00850117
0.20287
-0.00985374
0.194843
-0.00826235
0.172507
-0.00393955
0.126952
0.0521509
-0.00118571
0.198024
-0.00318967
-0.00536793
0.20109
-0.00942692
0.203656
-0.013163
0.205816
-0.0161285
0.206797
-0.0175483
0.20429
-0.016404
0.193699
-0.0119826
0.168085
-0.00510618
0.120075
0.0470447
-0.0190185
0.201249
0.0157935
-0.022019
0.20409
-0.0247777
0.206415
-0.027014
0.208053
-0.0281361
0.20792
-0.0272135
0.203367
-0.0231892
0.189674
-0.0156194
0.160516
-0.00611675
0.110573
0.040928
-0.0384769
0.0364562
-0.0401981
-0.0415093
-0.0420115
-0.0409477
-0.0372434
-0.0298914
-0.0189036
-0.00685821
0.105531
0.0374352
-0.117329
-0.025637
0.0934717
0.0385008
-0.0264415
0.0811376
0.0396513
-0.0273172
0.0685031
0.040889
-0.0282545
0.0555503
0.0421967
-0.0292439
0.0423049
0.043444
-0.0301986
0.0289541
0.0441163
-0.0307655
0.0161305
0.0427366
-0.029913
0.00541814
0.036056
-0.0253436
0.0184842
-0.0130661
0.105137
0.0492959
-0.116997
0.0930828
0.0505546
0.0807686
0.0519654
0.0681665
0.0534911
0.055253
0.0551102
0.0420507
0.0566464
0.0287487
0.0574182
0.0159862
0.0554991
0.00534994
0.0466922
0.0238342
0.104427
0.0611045
-0.116236
0.0923786
0.062603
0.0800866
0.0642574
0.067526
0.0660517
0.0546773
0.0679589
0.041562
0.0697617
0.0283683
0.0706119
0.0157381
0.0681294
0.00524702
0.0571833
0.0290812
0.102872
0.0729617
-0.114729
0.090901
0.0745737
0.0786885
0.0764699
0.0662094
0.0785309
0.0534571
0.0807111
0.0404801
0.0827387
0.0274932
0.0835988
0.0151492
0.0804734
0.00499494
0.0673375
0.0340761
0.100933
0.0846536
-0.112625
0.0891015
0.0864049
0.0771049
0.0884664
0.0648791
0.0907567
0.0523759
0.0932143
0.0396215
0.0954932
0.0268437
0.0963766
0.0147289
0.0925882
0.00482943
0.077237
0.0389056
0.0976829
0.0963996
-0.109429
0.0859385
0.0981493
0.0740337
0.100371
0.061977
0.102814
0.0497602
0.105431
0.0374098
0.107844
0.0251392
0.108647
0.0136233
0.104104
0.00436694
0.0864934
0.0432725
0.0941486
0.107588
-0.105337
0.0829771
0.109321
0.0716234
0.111725
0.0599847
0.114452
0.048062
0.117354
0.0359615
0.119944
0.0239833
0.120625
0.0128562
0.115231
0.0040558
0.0952937
0.0473283
0.0875373
0.118623
-0.0985719
0.07671
0.120148
0.0659214
0.122513
0.0550543
0.125319
0.0439941
0.128414
0.0327595
0.131179
0.0216404
0.131744
0.0113961
0.125476
0.00347123
0.103219
0.0507995
0.0831657
0.127958
-0.0925013
0.0734328
0.129881
0.0631079
0.132838
0.05241
0.136017
0.041508
0.139316
0.0305523
0.142134
0.0198796
0.142417
0.0102521
0.135103
0.00302161
0.110449
0.0538211
0.0729195
-0.0798815
0.0648007
0.0562246
0.0470317
0.0373301
0.0273638
0.0175912
0.0088612
0.00249196
0.201406
0.00931737
-0.0127336
0.205182
0.0219941
-0.0257699
0.208943
0.036441
-0.0402023
0.212084
0.0577718
-0.0609122
0.212368
0.0740113
-0.0742958
0.210612
0.096049
-0.0942929
0.203845
0.11481
-0.108042
0.191232
0.141019
-0.128407
0.166129
0.188836
-0.163732
0.244568
-0.195769
0.201084
0.00622325
0.204534
0.0185439
0.207999
0.0329765
0.210865
0.0549054
0.21119
0.073686
0.209183
0.0980562
0.202671
0.121322
0.189775
0.153916
0.164786
0.213825
0.292357
0.200689
0.00352403
0.203741
0.0154923
0.206839
0.029878
0.209232
0.0525126
0.209513
0.0734049
0.206941
0.100628
0.200663
0.1276
0.187179
0.1674
0.162677
0.238326
0.338798
0.200216
0.00129766
0.202797
0.0129116
0.205447
0.0272277
0.207196
0.0507636
0.207344
0.0732567
0.203886
0.104086
0.197891
0.133595
0.18325
0.182041
0.159855
0.261721
0.383925
0.199663
-0.000375159
0.201704
0.0108699
0.203805
0.0251268
0.204781
0.049788
0.20468
0.0733572
0.200056
0.108711
0.194411
0.13924
0.178168
0.198285
0.156296
0.283593
0.427596
0.199028
-0.00141295
0.200467
0.00943088
0.201898
0.0236959
0.202021
0.0496646
0.201511
0.0738671
0.195591
0.114631
0.190273
0.144558
0.172103
0.216454
0.152211
0.303485
0.470379
0.198312
-0.00173544
0.19909
0.00865354
0.199716
0.0230699
0.198951
0.0504289
0.197806
0.0750126
0.19062
0.121817
0.185294
0.149883
0.165406
0.236342
0.1471
0.321792
0.512141
0.197518
-0.00126388
0.197579
0.00859249
0.197264
0.023385
0.195602
0.0520912
0.193548
0.0770668
0.185157
0.130207
0.179543
0.155497
0.157402
0.258483
0.141634
0.33756
0.555203
0.196645
8.1132e-05
0.195943
0.00929393
0.194563
0.024765
0.192004
0.0546502
0.188715
0.0803562
0.179402
0.13952
0.172972
0.161927
0.150477
0.280978
0.135159
0.352878
0.597861
0.195729
0.00234213
0.19415
0.0108732
0.19168
0.0272341
0.188109
0.0582214
0.183414
0.0850515
0.172778
0.150156
0.164623
0.170082
0.140189
0.305412
0.129155
0.363911
0.647135
0.304861
-0.000508724
0.309644
0.00609049
0.315204
0.0216735
0.321188
0.0522377
0.330331
0.0759083
0.332856
0.147632
0.352775
0.150163
0.357184
0.301003
0.407352
0.313743
0.577594
0.476894
0.305414
-0.00391269
0.311237
0.000267415
0.317392
0.015519
0.325149
0.0444801
0.334461
0.0665971
0.341021
0.141071
0.363566
0.127618
0.377189
0.287379
0.423574
0.267358
0.512456
0.488712
0.306166
-0.00806804
0.313181
-0.00674768
0.320198
0.00850162
0.329542
0.0351363
0.338076
0.0580629
0.349396
0.129751
0.371736
0.105278
0.390976
0.268139
0.431828
0.226506
0.440119
0.504165
0.307188
-0.0132456
0.315531
-0.0150905
0.323847
0.000184853
0.333869
0.0251142
0.342205
0.0497276
0.357144
0.114812
0.37708
0.0853419
0.40107
0.24415
0.441059
0.186517
0.363089
0.518089
0.308526
-0.0197619
0.318532
-0.0250959
0.328363
-0.00964632
0.33821
0.0152677
0.347018
0.0409188
0.364431
0.0973995
0.381281
0.0684915
0.412587
0.212844
0.44894
0.150164
0.288516
0.523513
0.310256
-0.0280072
0.322243
-0.0370833
0.333526
-0.0209291
0.34278
0.0060133
0.351938
0.0317613
0.3713
0.0780369
0.384419
0.0553731
0.422072
0.175191
0.455463
0.116774
0.219548
0.524431
0.31274
-0.0387375
0.326534
-0.050877
0.337971
-0.0323663
0.345839
-0.00185473
0.35488
0.0227205
0.375255
0.057662
0.386132
0.0444962
0.428775
0.132548
0.459878
0.0856701
0.156543
0.522883
0.315509
-0.0522365
0.326751
-0.0621188
0.334178
-0.0397936
0.339623
-0.00729915
0.348719
0.0136239
0.369602
0.0367793
0.381123
0.0329747
0.42758
0.0860917
0.458078
0.0551722
0.0974488
0.517172
0.309402
-0.0596283
0.30189
-0.054607
0.293892
-0.0317957
0.293673
-0.00708009
0.303072
0.00422501
0.323574
0.0162773
0.340596
0.0159533
0.389171
0.0375163
0.420282
0.0240608
0.0402617
0.477469
0.242382
0.187775
0.155979
0.148899
0.153124
0.169401
0.185355
0.222871
0.246932
0.287193
0.490145
-0.100177
0.495214
-0.0879746
0.499028
-0.0787513
0.503328
-0.0681237
0.508263
-0.0556447
0.513933
-0.0416896
0.520038
-0.026354
0.526498
-0.00965032
0.534182
0.00811
0.0280397
0.489998
-0.101463
0.491713
-0.0896899
0.492564
-0.0796024
0.494022
-0.0695816
0.495794
-0.0574167
0.498764
-0.0446597
0.502209
-0.0297987
0.507193
-0.0146345
0.512922
0.00238059
0.0202491
0.499244
-0.0965413
0.496756
-0.0872026
0.494416
-0.0772622
0.492359
-0.0675245
0.490901
-0.0559586
0.490853
-0.0446115
0.491664
-0.0306102
0.49446
-0.0174304
0.498109
-0.00126802
0.0135765
0.508448
-0.0869005
0.500664
-0.0794191
0.494471
-0.0710684
0.489299
-0.062353
0.485254
-0.0519135
0.482681
-0.0420388
0.481763
-0.0296923
0.482862
-0.0185287
0.485884
-0.00429074
0.00795614
0.511572
-0.0749596
0.500953
-0.0688006
0.49192
-0.0620351
0.484431
-0.0548638
0.478724
-0.0462069
0.474681
-0.0379957
0.472851
-0.0278622
0.473
-0.0186777
0.475654
-0.00694497
0.0030523
0.510812
-0.0613411
0.498565
-0.056553
0.487984
-0.0514539
0.479146
-0.046026
0.472428
-0.0394887
0.467568
-0.0331362
0.465094
-0.0253887
0.464633
-0.0182165
0.466866
-0.00917795
-0.00132924
0.50817
-0.0466289
0.494858
-0.0432407
0.483219
-0.0398148
0.473398
-0.0362053
0.465747
-0.0318372
0.460058
-0.0274471
0.456748
-0.0220794
0.455528
-0.0169964
0.457045
-0.0106943
-0.00511284
0.500615
-0.030072
0.485623
-0.0282487
0.472414
-0.0266059
0.461077
-0.0248676
0.451877
-0.0226374
0.444659
-0.020229
0.439785
-0.0172055
0.437019
-0.0142306
0.436923
-0.0105982
-0.00732704
0.459039
-0.0116419
0.442427
-0.0116361
0.427483
-0.0116621
0.414159
-0.0115436
0.402613
-0.0110918
0.392797
-0.0104123
0.38501
-0.00941927
0.379142
-0.00836249
0.375604
-0.00705973
-0.00585212
0.275552
0.263916
0.252253
0.24071
0.229618
0.219206
0.209787
0.201424
0.194364
0.00735245
0.040715
-0.0480674
0.0175516
0.109351
-0.11955
0.0244167
0.156384
-0.163249
0.0268872
0.182127
-0.184597
0.0260543
0.193315
-0.192482
0.0232849
0.196381
-0.193612
0.019562
0.195076
-0.191353
0.0155263
0.190404
-0.186368
0.0117673
0.180992
-0.177233
0.163275
0.00887587
-0.160384
0.0087202
0.0319948
0.0233743
0.0946972
0.0357881
0.14397
0.0433178
0.174597
0.0465264
0.190106
0.0468665
0.196041
0.0455337
0.196409
0.0431929
0.192745
0.0400111
0.184174
0.167559
0.0357267
0.00919137
0.0228034
0.0275609
0.0763276
0.0458669
0.125664
0.0594073
0.161056
0.0676248
0.181889
0.0717529
0.191913
0.0731537
0.195008
0.072578
0.19332
0.0700468
0.186705
0.173016
0.06459
0.00865334
0.0141501
0.0290528
0.0559282
0.0528073
0.10191
0.0732208
0.140643
0.0878047
0.167305
0.096998
0.18272
0.102169
0.189838
0.104353
0.191136
0.103496
0.187563
0.177956
0.0985564
0.00724091
0.00690914
0.0271739
0.0359952
0.054362
0.0747215
0.08155
0.113455
0.103878
0.144977
0.119862
0.166735
0.130197
0.179502
0.136044
0.185289
0.138067
0.185539
0.181293
0.13473
0.00534819
0.00156095
0.022376
0.0189674
0.0493709
0.0477265
0.0809652
0.0818607
0.111208
0.114734
0.136177
0.141766
0.154516
0.161163
0.1667
0.173106
0.173474
0.178765
0.179412
0.175355
0.00343728
-0.00187633
0.0161041
0.00630053
0.0390749
0.0247558
0.0702405
0.0506951
0.105036
0.0799385
0.138592
0.10821
0.167309
0.132445
0.189329
0.151086
0.204637
0.163457
0.172242
0.211807
0.0017162
-0.00359253
0.009713
-0.00169626
0.0263763
0.00809246
0.0523178
0.0247537
0.0857158
0.0465405
0.123006
0.0709206
0.160246
0.0952048
0.19381
0.117522
0.221575
0.135692
0.149242
0.244575
4.88755e-05
-0.00364141
0.00352283
-0.00517022
0.0133567
-0.00174137
0.0315366
0.00657379
0.0584162
0.0196609
0.0926669
0.0366699
0.131687
0.0561848
0.172525
0.0766843
0.210191
0.0980259
0.111673
0.24776
-0.00134032
-0.00230109
-0.00107838
-0.00543216
0.00367837
-0.00649812
0.0148317
-0.00457957
0.0335099
0.000982675
0.06018
0.00999979
0.0941584
0.0222064
0.134224
0.0366191
0.178631
0.0536188
0.0675472
0.222757
-0.000852913
-0.00144818
-0.000128211
-0.00615686
0.00389344
-0.0105198
0.0121146
-0.0128007
0.0253008
-0.0122035
0.0439258
-0.00862517
0.0684412
-0.00230904
0.0986681
0.0063922
0.135081
0.0172062
0.0311851
0.171443
0.00122012
-0.0026683
0.0055673
-0.010504
0.0128705
-0.017823
0.0226901
-0.0226204
0.0347903
-0.0243037
0.0492549
-0.0230898
0.0664089
-0.019463
0.0866844
-0.0138833
0.110534
-0.00664346
0.00373405
0.137985
0.00292515
-0.00559344
0.00975523
-0.0173341
0.0187949
-0.0268626
0.0289832
-0.0328086
0.0399296
-0.0352501
0.0516988
-0.034859
0.0645518
-0.0323161
0.0787253
-0.0280568
0.0942554
-0.0221736
-0.013917
0.111906
0.0029114
-0.00850484
0.00836453
-0.0227873
0.0143154
-0.0328135
0.020014
-0.0385072
0.0256129
-0.0408491
0.0316824
-0.0409285
0.0388382
-0.0394718
0.0475241
-0.0367427
0.0578583
-0.0325077
-0.0261469
0.0700881
0.0012515
-0.00975634
0.00252499
-0.0240608
0.00270438
-0.0329929
0.0018832
-0.037686
0.000718094
-0.039684
-3.02819e-05
-0.0401801
0.000243336
-0.0397454
0.00195605
-0.0384554
0.00559922
-0.0361509
-0.0323096
0.0117619
-0.00100043
-0.00875591
-0.00425612
-0.0208051
-0.00934823
-0.0279008
-0.0155037
-0.0315306
-0.0219784
-0.0332092
-0.0282291
-0.0339295
-0.0338657
-0.0341088
-0.0385421
-0.033779
-0.041941
-0.032752
-0.0309012
-0.0433494
-0.00300189
-0.00575401
-0.00973686
-0.0140701
-0.01846
-0.0191777
-0.0279575
-0.0220331
-0.0375223
-0.0236444
-0.0468014
-0.0246504
-0.0556007
-0.0253095
-0.0637292
-0.0256504
-0.0708841
-0.0255971
-0.0250762
-0.0767091
-0.00450975
-0.00124427
-0.013627
-0.00495289
-0.0246555
-0.00814915
-0.0360835
-0.0106051
-0.04719
-0.0125379
-0.057691
-0.0141493
-0.0674761
-0.0155245
-0.0764415
-0.016685
-0.0844055
-0.0176331
-0.0182955
-0.0911862
-0.00536556
0.00412129
-0.0158204
0.00550191
-0.0281125
0.00414297
-0.0405684
0.00185082
-0.052434
-0.000672339
-0.0634332
-0.00315008
-0.0734671
-0.00549064
-0.0824537
-0.00769839
-0.0902694
-0.00981743
-0.0118389
-0.096726
-0.00565058
-0.0165644
-0.0293055
-0.0421215
-0.0542531
-0.065402
-0.0754469
-0.084298
-0.0918829
-0.0980147
0.24482
0.25416
-0.327537
0.27208
0.386463
-0.413723
0.26591
0.176397
-0.170227
0.228959
0.0571708
-0.0202194
0.198979
0.0234098
0.00656936
0.188775
0.00292523
0.00727892
0.190079
-0.0109324
0.00962866
0.194924
-0.0143294
0.00948389
0.201069
-0.0166863
0.0105422
-0.0137153
0.00790576
0.23266
0.159485
0.271884
0.347238
0.254358
0.193924
0.214152
0.097377
0.192987
0.0445747
0.189442
0.00646984
0.192879
-0.0143697
0.197655
-0.0191054
0.202924
-0.0219548
-0.0183921
0.204505
0.0668871
0.240422
0.311321
0.217122
0.217224
0.190793
0.123706
0.185767
0.0495998
0.189671
0.00256603
0.195103
-0.0198014
0.19978
-0.0237825
0.204235
-0.0264098
-0.0220177
0.143069
-0.00609385
0.173561
0.28083
0.16682
0.223965
0.169738
0.120788
0.181329
0.0380086
0.190714
-0.00681892
0.197269
-0.0263566
0.201675
-0.0281885
0.205361
-0.0300959
-0.0246947
0.0557912
-0.0501231
0.0966962
0.239925
0.12773
0.192931
0.158806
0.0897122
0.18048
0.0163348
0.192494
-0.0188334
0.199402
-0.0332645
0.203412
-0.0321978
0.20639
-0.0330741
-0.0265355
-0.0183303
-0.0751422
0.046754
0.17484
0.111997
0.127688
0.156796
0.0449132
0.181848
-0.00871697
0.194587
-0.0315726
0.20141
-0.0400874
0.204986
-0.0357744
0.207338
-0.0354262
-0.0276584
-0.0566517
-0.0951997
0.0331666
0.085022
0.112084
0.0487704
0.158895
-0.00189773
0.183973
-0.0337945
0.196629
-0.0442292
0.203212
-0.0466701
0.206388
-0.0389499
0.208209
-0.037248
-0.0281852
-0.0616453
-0.124741
0.0398502
-0.0164735
0.116804
-0.0281835
0.161777
-0.0468709
0.186042
-0.0580594
0.19843
-0.0566169
0.204767
-0.0530074
0.207608
-0.0417908
0.209003
-0.0386423
-0.0282396
-0.0560371
-0.165429
0.0491897
-0.1217
0.120715
-0.0997088
0.164097
-0.0902525
0.187729
-0.0816922
0.19991
-0.0687981
0.206057
-0.0591538
0.208645
-0.0443785
0.209717
-0.0397146
-0.0279464
-0.0514435
0.0538242
0.123011
0.165607
0.188966
0.201052
0.207075
0.209495
0.210351
0.0239773
0.0592275
-0.0832048
-0.00827653
0.0322538
-0.00541352
-0.00286301
0.0179795
-0.023393
0.037373
-0.0193935
0.0459714
-0.00859841
0.0491279
-0.00315652
0.0503971
-0.00126923
0.0511778
-0.000780714
-0.000530245
0.152088
0.192559
-0.285419
0.0607407
0.123601
0.0523625
0.00551519
0.0822963
-0.0533268
0.108293
-0.0453901
0.120901
-0.0212065
0.126382
-0.00863718
0.129076
-0.00396417
0.13106
-0.0027644
-0.00182766
0.30878
0.313852
-0.430073
0.183154
0.249227
0.140127
0.0485423
0.146666
-0.0598663
0.16003
-0.0587535
0.168196
-0.0293723
0.172821
-0.0132622
0.175732
-0.00687518
0.178349
-0.00538117
-0.00364994
0.412675
0.36805
-0.466873
0.301808
0.360093
0.237713
0.112638
0.211294
-0.0334475
0.199
-0.046459
0.195061
-0.0254336
0.195657
-0.0138583
0.197583
-0.00880099
0.200247
-0.00804506
-0.00573031
0.432442
-0.391928
0.378812
0.321223
0.267556
0.227666
0.209511
0.205282
0.205965
0.208462
0.0108577
-0.000147211
-0.0107105
0.0124575
-0.00159982
0.0154159
-0.00295843
0.019941
-0.00452511
0.0260594
-0.00611834
0.0343984
-0.00833904
0.0434765
-0.00907812
0.0563778
-0.0129013
0.0685978
-0.01222
-0.0146071
0.0302057
-0.000883611
-0.0294693
0.0348799
-0.006274
0.043549
-0.0116275
0.0571581
-0.0181342
0.0763907
-0.025351
0.101702
-0.0336502
0.13491
-0.0422859
0.176574
-0.0545656
0.224277
-0.0599231
-0.0757491
0.0470297
-0.002499
-0.0454143
0.0545854
-0.0138297
0.0683808
-0.0254229
0.0902035
-0.0399569
0.119994
-0.0551417
0.16062
-0.074276
0.212732
-0.0943979
0.273565
-0.115399
0.349664
-0.136022
-0.156158
0.0610979
-0.00514726
-0.0584496
0.0710745
-0.0238063
0.0890857
-0.0434341
0.116761
-0.0676323
0.154108
-0.0924883
0.204405
-0.124574
0.263519
-0.153512
0.332202
-0.184081
0.411567
-0.215387
-0.211464
0.072451
-0.0687224
0.0843714
0.105527
0.136451
0.178693
0.229474
0.287769
0.348263
0.380636
0.0831598
-0.0743113
0.0824468
-0.0912952
0.0744249
-0.0754411
0.084176
0.0654545
-0.0772521
0.0862225
0.0558904
-0.0791653
0.0887293
0.0455993
-0.0810474
0.0913385
0.0346936
-0.0825905
0.0934961
0.0235369
-0.0826758
0.0938325
0.0128835
-0.0784205
0.0890739
0.00419805
-0.064214
0.0728995
-0.0314722
0.0356702
0.0915016
-0.0647992
-0.101014
0.0816109
-0.0655504
0.0710298
-0.066671
0.0598327
-0.0679682
0.0482058
-0.0694205
0.0363457
-0.0707303
0.0245358
-0.0708659
0.0134176
-0.0673024
0.00438641
-0.0551828
-0.0270858
0.0914487
-0.0541199
-0.102128
0.0806905
-0.0547922
0.0697608
-0.0557414
0.0586712
-0.0568786
0.0473824
-0.0581317
0.0358704
-0.0592183
0.024299
-0.0592946
0.0132975
-0.0563008
0.0043242
-0.0462095
-0.0227616
0.096038
-0.0433635
-0.106794
0.0851222
-0.0438764
0.0739755
-0.0445946
0.0625053
-0.0454083
0.0506514
-0.0462779
0.0384468
-0.0470136
0.0261348
-0.0469826
0.0144025
-0.0445685
0.00476068
-0.0365677
-0.0180009
0.0977546
-0.0321916
-0.108927
0.0864483
-0.0325702
0.0748864
-0.0330327
0.0630463
-0.0335682
0.0509229
-0.0341546
0.0385655
-0.0346562
0.0261856
-0.0346027
0.014416
-0.0327988
0.00474655
-0.0268983
-0.0132543
0.10042
-0.0209341
-0.111678
0.0889174
-0.0210675
0.0771577
-0.021273
0.0651087
-0.0215193
0.0527476
-0.0217934
0.0400985
-0.0220071
0.0273569
-0.0218612
0.0151643
-0.0206062
0.00505648
-0.0167905
-0.00819784
0.102047
-0.00943989
-0.113541
0.0903518
-0.00937255
0.0783952
-0.00931631
0.0661506
-0.00927469
0.0535973
-0.00924011
0.0407605
-0.00917031
0.027832
-0.00893268
0.0154469
-0.00822109
0.00515701
-0.0065006
-0.00304082
0.103628
0.00215361
-0.115222
0.0917859
0.00246963
0.0796715
0.00279805
0.0672582
0.00313862
0.0545269
0.00349115
0.0415043
0.00385231
0.0283809
0.00419075
0.0157904
0.00436935
0.00529561
0.00399422
0.00225478
0.10469
0.0138582
-0.116394
0.0927392
0.0144202
0.0805148
0.0150224
0.0679913
0.0156622
0.0551483
0.0163341
0.0420084
0.0169921
0.0287561
0.0174431
0.0160221
0.0171033
0.00538403
0.0146323
0.00763882
0.105295
-0.117074
0.093274
0.0809792
0.0683869
0.0554772
0.0422707
0.0289483
0.0161386
0.00542728
0.0139483
-0.158197
-0.0161348
0.00931926
-0.172604
0.00364233
-0.180691
-0.00219208
-0.185519
-0.00752351
-0.18828
-0.0115582
-0.188447
-0.0131748
-0.18298
-0.011137
-0.165287
-0.00539811
-0.125289
-0.0534655
0.0376105
-0.155136
-0.0406716
0.0314158
-0.16641
0.0239333
-0.173209
0.0161328
-0.177718
0.00855791