/*--------------------------------*- C++ -*----------------------------------*\
  =========                 |
  \\      /  F ield         | OpenFOAM: The Open Source CFD Toolbox
   \\    /   O peration     | Website:  https://openfoam.org
    \\  /    A nd           | Version:  13
     \\/     M anipulation  |
\*---------------------------------------------------------------------------*/
FoamFile
{
    format      ascii;
    class       volVectorField;
    location    "1.85";
    object      U;
}
// * * * * * * * * * * * * * * * * * * * * * * * * * * * * * * * * * * * * * //

dimensions      [0 1 -1 0 0 0 0];

internalField   nonuniform List<vector> 
1800
(
(-0.0531944 0.0476184 1.88008e-20)
(-0.101655 0.100462 8.60756e-21)
(-0.081255 0.122915 -6.47242e-20)
(0.00806567 0.113635 4.49063e-20)
(0.164885 0.0758462 6.70022e-20)
(0.382495 0.0146979 1.6659e-21)
(0.648294 -0.0624144 1.46358e-20)
(0.94081 -0.149384 1.20991e-19)
(1.25224 -0.230252 7.4939e-20)
(1.491 -0.308729 6.13205e-20)
(-0.0535362 0.0415124 7.96942e-21)
(-0.0729508 0.0694213 -1.01837e-19)
(-0.00167378 0.063481 5.72104e-22)
(0.15507 0.0282072 -7.48168e-20)
(0.389159 -0.0290523 3.17959e-20)
(0.682918 -0.100193 4.54195e-20)
(1.00948 -0.176684 1.28964e-20)
(1.33821 -0.251733 1.84973e-20)
(1.64316 -0.314544 5.04528e-20)
(1.87963 -0.379915 -4.51505e-20)
(-0.0461967 0.0316483 8.78314e-21)
(-0.0185918 0.035601 2.87732e-20)
(0.124006 0.00640067 -1.147e-21)
(0.366861 -0.046826 -7.96873e-21)
(0.686445 -0.11295 -1.425e-19)
(1.04634 -0.181774 2.78173e-20)
(1.40497 -0.245282 8.00857e-20)
(1.72698 -0.298441 -1.43412e-20)
(1.98837 -0.339224 -1.56463e-21)
(2.1934 -0.380484 4.29072e-21)
(-0.0272153 0.0174769 -1.10855e-20)
(0.0690253 -0.00270995 -3.35131e-20)
(0.301886 -0.0493049 -3.16636e-20)
(0.639635 -0.109655 3.63093e-20)
(1.03433 -0.171276 3.3891e-20)
(1.42958 -0.225322 1.26199e-20)
(1.7784 -0.267492 -6.399e-21)
(2.05352 -0.297985 2.0621e-19)
(2.25167 -0.316961 2.32339e-19)
(2.37063 -0.332786 -1.16484e-19)
(0.00602652 0.000837191 7.61374e-20)
(0.194118 -0.0404361 7.00034e-20)
(0.53062 -0.0952394 -5.13588e-20)
(0.956556 -0.149632 -6.1699e-20)
(1.39625 -0.194426 -2.28673e-19)
(1.78429 -0.226419 3.35182e-21)
(2.08477 -0.24686 3.70263e-19)
(2.29192 -0.258645 1.4987e-19)
(2.41761 -0.264002 -2.17348e-21)
(2.489 -0.27316 -1.58719e-19)
(0.0554033 -0.0154611 -6.8909e-20)
(0.356203 -0.0696238 -1.3083e-20)
(0.798149 -0.120107 2.66609e-19)
(1.28784 -0.156342 -1.24315e-19)
(1.73194 -0.177917 -2.51288e-19)
(2.07601 -0.188666 5.63792e-19)
(2.30917 -0.192857 -5.37004e-19)
(2.44781 -0.193882 -7.51166e-19)
(2.51955 -0.19312 5.9207e-19)
(2.54384 -0.195096 2.06122e-21)
(0.121146 -0.0279905 6.89864e-20)
(0.548308 -0.0819134 -1.82766e-19)
(1.0824 -0.114575 -7.31975e-19)
(1.60012 -0.125418 3.96928e-19)
(2.01276 -0.124825 8.74841e-19)
(2.29382 -0.120392 -3.29202e-21)
(2.45975 -0.115885 -1.78237e-18)
(2.54317 -0.112622 1.5988e-20)
(2.57449 -0.110467 2.02758e-18)
(2.57679 -0.113571 5.51094e-19)
(0.201019 -0.0329626 5.32713e-20)
(0.756737 -0.0701854 3.56505e-19)
(1.35709 -0.0740163 6.81314e-19)
(1.86812 -0.0588061 -9.53886e-20)
(2.22798 -0.0417765 -7.30315e-19)
(2.44354 -0.0293348 -2.77538e-19)
(2.55254 -0.0223233 0)
(2.59493 -0.0195814 8.01984e-19)
(2.60061 -0.0196337 -1.68963e-20)
(2.58538 -0.0239228 -7.44448e-19)
(0.29037 -0.0269205 4.28274e-20)
(0.964137 -0.0304548 4.86567e-19)
(1.60011 0.000338037 9.25921e-19)
(2.07968 0.0374603 -1.0229e-18)
(2.37966 0.0639947 -8.96713e-19)
(2.53658 0.0781661 3.29918e-19)
(2.60136 0.0829981 -1.52647e-18)
(2.61548 0.082206 -1.15423e-18)
(2.60439 0.0783081 1.39143e-18)
(2.58028 0.0703835 1.20738e-18)
(0.38274 -0.00749699 8.89701e-21)
(1.15366 0.0371391 3.89384e-19)
(1.79763 0.103251 2.21043e-19)
(2.23218 0.156299 -1.84841e-18)
(2.47425 0.186085 3.1457e-20)
(2.58279 0.197157 3.53839e-18)
(2.61517 0.196647 -2.03576e-18)
(2.61054 0.190257 -1.16431e-18)
(2.58942 0.181007 4.16486e-19)
(2.55938 0.168706 -9.46102e-19)
(-0.0137574 0.155741 2.18996e-19)
(-0.0704978 0.269319 -1.3339e-19)
(-0.137239 0.284181 1.09669e-21)
(-0.203539 0.254446 -3.03606e-20)
(-0.261813 0.207695 8.82558e-22)
(-0.310818 0.156164 7.39719e-20)
(-0.351249 0.104392 1.03671e-19)
(-0.383926 0.0531242 -6.62684e-20)
(-0.406951 0.00137726 1.82375e-20)
(-0.413718 -0.0518916 -5.04725e-20)
(-0.0307025 0.214032 -1.76178e-20)
(-0.0936251 0.38615 6.91923e-21)
(-0.156105 0.421234 9.14935e-21)
(-0.213927 0.390216 2.94232e-20)
(-0.26255 0.331951 -1.91684e-19)
(-0.301557 0.26457 6.0888e-20)
(-0.331657 0.195284 -1.05993e-19)
(-0.3537 0.125919 -1.40487e-19)
(-0.365973 0.0558757 -9.68452e-20)
(-0.360284 -0.0157337 3.30231e-20)
(-0.0521607 0.252442 -1.14302e-19)
(-0.122729 0.475872 3.6222e-20)
(-0.178382 0.534999 1.56294e-20)
(-0.222948 0.508497 -1.68666e-19)
(-0.256357 0.443041 -4.65309e-20)
(-0.279458 0.362066 4.35786e-19)
(-0.292946 0.27591 -2.49863e-19)
(-0.297558 0.188316 -2.26342e-20)
(-0.292146 0.0999713 -3.30572e-20)
(-0.267462 0.0110351 -8.1267e-20)
(-0.0722699 0.263529 -1.36099e-19)
(-0.150169 0.525116 9.63301e-21)
(-0.197048 0.612529 3.75079e-20)
(-0.22434 0.599024 -1.64541e-19)
(-0.237618 0.533494 3.81583e-19)
(-0.239361 0.443328 -1.47696e-19)
(-0.230387 0.342124 -1.70329e-19)
(-0.21111 0.236199 1.96868e-19)
(-0.181464 0.128917 4.61044e-20)
(-0.132643 0.0227779 -4.81037e-21)
(-0.0847197 0.244833 0)
(-0.167497 0.523704 6.31454e-20)
(-0.205057 0.640806 -2.34114e-19)
(-0.213443 0.649953 1.33282e-19)
(-0.203187 0.594755 2.35014e-19)
(-0.179213 0.503544 -2.60623e-19)
(-0.143572 0.39214 1.1434e-19)
(-0.0957807 0.269537 -1.05206e-19)
(-0.0379662 0.14057 0)
(0.0379267 0.0139445 -6.45448e-21)
(-0.0857444 0.202183 1.45773e-20)
(-0.17009 0.470652 1.28503e-20)
(-0.200529 0.610006 -7.43829e-20)
(-0.193172 0.646835 9.58402e-20)
(-0.161257 0.612509 -6.22658e-20)
(-0.112114 0.532172 2.36379e-19)
(-0.0493585 0.422097 -4.54822e-19)
(0.0255734 0.291764 2.52927e-20)
(0.111202 0.145765 2.79713e-19)
(0.220328 -0.00134007 -1.63339e-21)
(-0.0765225 0.149262 6.11785e-21)
(-0.15905 0.380145 4.45817e-20)
(-0.186145 0.523436 2.51255e-20)
(-0.169328 0.581366 5.66262e-21)
(-0.121358 0.570654 -4.02189e-20)
(-0.050839 0.510021 1.94199e-19)
(0.0368566 0.413832 2.19788e-19)
(0.139051 0.29107 2.7349e-19)
(0.253295 0.14534 -1.3875e-19)
(0.400104 -0.0117226 -4.94666e-20)
(-0.0632433 0.101967 -1.9258e-21)
(-0.141443 0.279774 -4.1596e-20)
(-0.16774 0.405101 -1.84988e-20)
(-0.147033 0.46652 7.44872e-21)
(-0.0888475 0.469307 -3.5696e-20)
(-0.00108307 0.425002 -2.10622e-19)
(0.110599 0.344456 -2.55411e-19)
(0.243428 0.236127 2.08962e-19)
(0.391338 0.102277 8.19407e-20)
(0.589074 -0.0528322 -4.89246e-20)
(-0.0534947 0.0703916 -2.31034e-20)
(-0.126 0.195878 -1.56758e-19)
(-0.14915 0.288605 1.37352e-19)
(-0.122682 0.335176 7.24215e-20)
(-0.0516281 0.335631 1.17508e-20)
(0.0585544 0.296226 -1.08624e-19)
(0.203182 0.224339 -1.84487e-20)
(0.378833 0.127737 4.10174e-19)
(0.57196 0.00830993 6.68025e-20)
(0.831904 -0.129719 -4.42774e-20)
(-0.0510385 0.0546124 -1.29415e-20)
(-0.115267 0.138318 -1.15575e-19)
(-0.125327 0.194399 -4.32738e-20)
(-0.0791997 0.214598 6.32566e-20)
(0.0217367 0.199082 1.71096e-20)
(0.173812 0.151937 4.66449e-20)
(0.371258 0.0789538 1.08895e-19)
(0.604301 -0.0128325 -9.05791e-20)
(0.855845 -0.117307 4.51066e-20)
(1.15221 -0.220909 -3.11412e-21)
(-0.381391 -0.329227 5.51722e-19)
(0.0168266 -0.389758 -3.55795e-19)
(0.48322 -0.283643 -6.26423e-20)
(0.706011 -0.214854 2.00795e-20)
(0.865664 -0.163361 -1.15068e-20)
(0.954529 -0.122144 -9.45431e-21)
(1.00266 -0.0961852 -1.06793e-20)
(1.03238 -0.068201 -2.29377e-21)
(1.04623 -0.0584782 1.20612e-20)
(1.06212 -0.039307 2.03014e-21)
(-0.25201 -0.395123 5.83381e-19)
(0.064226 -0.524827 3.09511e-19)
(0.521387 -0.381536 -9.79885e-21)
(0.729603 -0.274756 -3.97752e-20)
(0.881078 -0.197753 -5.96464e-20)
(0.965273 -0.141416 0)
(1.01069 -0.107184 -1.27059e-20)
(1.03792 -0.0743277 4.3358e-21)
(1.05068 -0.0624462 3.03623e-22)
(1.06463 -0.0414922 -3.96807e-21)
(-0.0535412 -0.460188 -7.16443e-19)
(0.168291 -0.638988 -1.50949e-19)
(0.584982 -0.475837 6.81414e-20)
(0.766897 -0.331988 1.21962e-20)
(0.902856 -0.230719 -6.3826e-22)
(0.979119 -0.159873 4.18965e-21)
(1.02032 -0.117588 0)
(1.04428 -0.0800239 0)
(1.05561 -0.0660266 -6.18295e-21)
(1.06731 -0.0433993 0)
(0.20198 -0.522772 -1.14569e-19)
(0.337824 -0.727947 5.12352e-19)
(0.67972 -0.559094 -3.3471e-20)
(0.821427 -0.383608 0)
(0.932458 -0.260905 8.03513e-20)
(0.996519 -0.17691 -1.42174e-20)
(1.03162 -0.127116 0)
(1.05143 -0.0851534 1.7832e-20)
(1.06097 -0.0691377 0)
(1.07015 -0.0449876 2.50422e-21)
(0.497837 -0.581649 -2.89006e-19)
(0.555364 -0.792573 3.03978e-19)
(0.802078 -0.624871 2.50229e-20)
(0.893397 -0.426381 0)
(0.970802 -0.286606 3.10414e-20)
(1.01795 -0.191731 3.33227e-20)
(1.04474 -0.135423 3.68972e-21)
(1.05941 -0.089567 3.52e-22)
(1.06675 -0.071699 -4.73858e-21)
(1.07313 -0.0462204 1.54569e-21)
(0.811702 -0.640684 -1.68086e-18)
(0.796182 -0.836555 -5.32666e-19)
(0.939339 -0.671289 -1.46853e-20)
(0.977598 -0.458585 1.42969e-19)
(1.01703 -0.306434 -5.87649e-20)
(1.04357 -0.203476 1.97823e-20)
(1.05983 -0.142088 3.62592e-20)
(1.06825 -0.0930848 -3.60547e-20)
(1.07292 -0.0736238 -4.84658e-23)
(1.0762 -0.0470646 -4.64493e-21)
(1.10126 -0.692456 1.47134e-19)
(1.03824 -0.863261 1.31885e-19)
(1.07765 -0.700025 -4.66648e-20)
(1.06509 -0.480734 -4.90993e-21)
(1.06779 -0.320144 -8.57687e-20)
(1.07257 -0.211604 2.97027e-21)
(1.07684 -0.146698 -1.65016e-20)
(1.07801 -0.0954901 -1.86677e-21)
(1.0795 -0.0748035 4.9669e-21)
(1.07936 -0.047486 -9.09407e-22)
(1.35775 -0.732348 2.45627e-21)
(1.26582 -0.874723 2.30667e-19)
(1.20862 -0.7136 0)
(1.14819 -0.494415 3.01251e-20)
(1.11834 -0.32874 7.56854e-20)
(1.103 -0.216313 -1.97776e-21)
(1.09521 -0.149102 -5.94464e-20)
(1.08863 -0.096615 1.54794e-20)
(1.08648 -0.0751218 -2.46864e-22)
(1.08263 -0.0474455 -2.50748e-21)
(1.58373 -0.753914 2.0556e-19)
(1.4692 -0.870644 -6.18001e-19)
(1.32863 -0.714038 1.31016e-19)
(1.22364 -0.50087 -2.07712e-20)
(1.16504 -0.333599 -1.0592e-21)
(1.13232 -0.218527 -6.47317e-20)
(1.11373 -0.149671 2.01739e-20)
(1.09971 -0.0965356 1.88747e-22)
(1.09378 -0.0745584 -1.29137e-21)
(1.08597 -0.0469213 2.32201e-21)
(1.79518 -0.750415 -2.16976e-19)
(1.64449 -0.851036 -5.59112e-19)
(1.43617 -0.702397 1.8104e-21)
(1.2913 -0.500048 -1.53198e-19)
(1.20681 -0.335158 -9.00958e-20)
(1.15875 -0.219133 -4.02572e-20)
(1.13097 -0.149113 -1.35765e-20)
(1.11047 -0.0956286 0)
(1.10101 -0.0732796 -6.91952e-21)
(1.08928 -0.0459355 5.4119e-21)
(2.13683 -0.7387 -8.88639e-19)
(1.85959 -0.801618 -1.72794e-20)
(1.56839 -0.666067 -2.5277e-19)
(1.37308 -0.482804 2.62974e-20)
(1.2556 -0.32675 2.62085e-20)
(1.1881 -0.213703 -2.63357e-20)
(1.1498 -0.144495 -1.50516e-20)
(1.12254 -0.0922218 1.10195e-20)
(1.10936 -0.0702062 -4.73205e-21)
(1.0932 -0.0440616 -2.44701e-21)
(2.23481 -0.688044 1.65485e-19)
(1.85568 -0.699563 -2.81338e-19)
(1.54785 -0.547774 2.38015e-20)
(1.37355 -0.392842 -1.67491e-20)
(1.2688 -0.27077 1.02297e-19)
(1.20198 -0.181602 7.77014e-20)
(1.1614 -0.125836 5.11107e-20)
(1.13104 -0.0815138 -5.5381e-21)
(1.11626 -0.0631319 1.74124e-20)
(1.09654 -0.0402142 3.2021e-21)
(2.2195 -0.564042 -1.3619e-19)
(1.92833 -0.583945 -3.46724e-20)
(1.66502 -0.481761 3.53345e-20)
(1.4728 -0.358418 7.42762e-36)
(1.33729 -0.249076 -8.62069e-21)
(1.24371 -0.165625 -2.20507e-34)
(1.18557 -0.113516 2.15087e-21)
(1.14443 -0.0730179 -9.90778e-36)
(1.12473 -0.0564113 -1.02187e-23)
(1.10015 -0.0361144 -1.70376e-22)
(2.19187 -0.474574 -4.83765e-34)
(1.93244 -0.497846 9.04785e-20)
(1.67235 -0.394954 -2.34216e-20)
(1.48151 -0.28043 0)
(1.35006 -0.19226 -4.79413e-20)
(1.25725 -0.129056 -3.64627e-20)
(1.19716 -0.0905826 -2.57073e-20)
(1.15257 -0.0593963 1.70251e-34)
(1.13088 -0.047029 -7.95905e-21)
(1.10283 -0.0308013 -1.18158e-22)
(2.16454 -0.396643 -8.53396e-20)
(1.95146 -0.406463 1.1453e-20)
(1.71243 -0.318737 0)
(1.51603 -0.225413 0)
(1.37458 -0.154181 0)
(1.27363 -0.102423 0)
(1.20795 -0.0713268 9.41902e-22)
(1.15913 -0.0465811 2.01905e-34)
(1.13553 -0.0373446 -2.35943e-22)
(1.10458 -0.0250255 -3.8765e-35)
(2.14544 -0.334954 1.76742e-20)
(1.95428 -0.330914 0)
(1.7222 -0.243776 0)
(1.52305 -0.158931 0)
(1.37876 -0.103876 0)
(1.27648 -0.0683095 0)
(1.20995 -0.0483733 -2.1694e-21)
(1.16004 -0.0320644 1.1992e-20)
(1.13614 -0.0267057 -3.35641e-22)
(1.1037 -0.0186942 1.30505e-21)
(2.10993 -0.280689 0)
(1.91428 -0.25474 6.52149e-21)
(1.68271 -0.168212 -3.54313e-20)
(1.48664 -0.0958455 0)
(1.3484 -0.0575365 -2.70001e-20)
(1.25351 -0.0367052 -1.76826e-20)
(1.19249 -0.0265389 -1.36045e-20)
(1.14613 -0.0179476 -6.51832e-21)
(1.12428 -0.0161033 6.15156e-21)
(1.09278 -0.0122147 -1.80921e-21)
(1.97089 -0.218409 6.21069e-21)
(1.73732 -0.172847 1.25012e-20)
(1.51042 -0.0930917 -1.40777e-20)
(1.34147 -0.0374881 -3.51232e-36)
(1.23255 -0.016734 7.64935e-21)
(1.16237 -0.00993391 -1.14193e-34)
(1.11806 -0.00821456 -2.76555e-21)
(1.08338 -0.00610349 -4.83459e-21)
(1.06757 -0.00686473 -4.52784e-22)
(1.04141 -0.00624482 9.43109e-22)
(1.50529 -0.134751 -2.07385e-20)
(1.24345 -0.0826531 1.04079e-20)
(1.06075 -0.0236312 2.24741e-20)
(0.968275 0.00782013 0)
(0.926823 0.012074 1.24993e-20)
(0.905066 0.00835268 7.30565e-21)
(0.891056 0.00442401 1.583e-21)
(0.877448 0.00218247 2.55916e-21)
(0.871977 5.12721e-05 -3.164e-21)
(0.856764 -0.00146832 -6.57146e-22)
(0.50868 -0.0145497 0)
(0.355727 -0.00119772 0)
(0.298432 0.00665091 0)
(0.307488 0.00798043 0)
(0.333306 0.00559193 0)
(0.354183 0.00342521 0)
(0.366825 0.00206293 -3.01571e-21)
(0.373117 0.00120107 8.71816e-36)
(0.377086 0.000622231 -5.50257e-22)
(0.375044 3.94777e-05 -1.07045e-21)
(2.48814 0.144304 9.09121e-19)
(2.51114 0.0614017 5.79367e-20)
(2.53423 -0.0264091 -1.01684e-19)
(2.5308 -0.0989359 -3.31429e-19)
(2.54468 -0.184324 -7.45996e-20)
(2.5016 -0.240216 -1.25364e-19)
(2.52029 -0.329902 -4.3825e-19)
(2.38048 -0.353847 7.24367e-20)
(2.41098 -0.453213 0)
(2.02998 -0.401018 1.07943e-19)
(2.39367 0.115773 2.80976e-19)
(2.39994 0.050999 -3.43763e-19)
(2.44943 -0.0215758 -6.11635e-20)
(2.42489 -0.0792978 -1.53645e-19)
(2.48149 -0.156181 1.11054e-19)
(2.42026 -0.204781 2.18971e-19)
(2.49122 -0.289418 -2.66526e-19)
(2.38677 -0.33181 -3.2196e-21)
(2.45142 -0.422706 -3.18808e-20)
(2.31225 -0.464802 1.20175e-19)
(2.31737 0.0947418 -1.29636e-19)
(2.32351 0.0348875 2.86219e-19)
(2.36585 -0.0172696 1.94257e-19)
(2.35074 -0.0749005 -3.08883e-19)
(2.38986 -0.128196 -1.73824e-20)
(2.3586 -0.185102 4.11806e-19)
(2.38862 -0.239218 5.78327e-20)
(2.35368 -0.301205 -6.95874e-20)
(2.35819 -0.352597 -3.44759e-20)
(2.33457 -0.427886 -3.83181e-20)
(2.25116 0.0702707 -3.05751e-19)
(2.26799 0.0162147 -2.63771e-20)
(2.29405 -0.0206391 -1.06521e-20)
(2.29821 -0.0753483 -3.2075e-20)
(2.31289 -0.111915 -1.94876e-19)
(2.30947 -0.167722 -1.14346e-19)
(2.30892 -0.203632 2.36541e-19)
(2.30487 -0.262812 -6.99476e-22)
(2.2868 -0.297722 3.94356e-20)
(2.28498 -0.362874 2.61257e-20)
(2.19825 0.0450312 5.27238e-20)
(2.22126 -0.000686764 1.2162e-19)
(2.23894 -0.029158 -4.23127e-20)
(2.2526 -0.076186 2.41915e-19)
(2.25833 -0.104415 -4.06026e-20)
(2.26474 -0.151911 -2.58787e-19)
(2.25802 -0.179973 4.1793e-20)
(2.25918 -0.228324 -1.20918e-19)
(2.24112 -0.256584 7.06913e-20)
(2.23747 -0.306832 4.46076e-20)
(2.15487 0.0191975 -1.65725e-19)
(2.1784 -0.017577 -8.05572e-20)
(2.19433 -0.0409387 1.3474e-20)
(2.2096 -0.078936 1.25323e-19)
(2.21536 -0.102287 2.31667e-19)
(2.22301 -0.140347 -7.60487e-20)
(2.21905 -0.164026 6.88206e-21)
(2.21968 -0.201778 -2.87648e-20)
(2.20658 -0.225822 -2.39117e-20)
(2.20088 -0.263353 -7.02647e-20)
(2.10615 -0.00532762 -6.1344e-20)
(2.12795 -0.0339672 -1.30526e-19)
(2.14255 -0.0527646 -1.30744e-19)
(2.15787 -0.0826157 -2.5436e-19)
(2.16363 -0.101261 4.10937e-20)
(2.17329 -0.131604 4.84186e-20)
(2.17033 -0.150457 2.92464e-20)
(2.17537 -0.180587 5.39723e-20)
(2.16319 -0.199276 -9.26464e-20)
(2.16538 -0.228636 -3.23323e-20)
(2.00378 -0.0260969 5.94945e-20)
(2.0208 -0.0463482 4.72458e-20)
(2.02843 -0.0597947 2.16532e-20)
(2.0428 -0.0815195 -4.35439e-20)
(2.04142 -0.0943557 -4.06654e-20)
(2.05573 -0.117435 -9.82756e-21)
(2.04438 -0.129672 -4.06368e-20)
(2.06156 -0.153586 4.78196e-20)
(2.03825 -0.16481 -2.71833e-20)
(2.06191 -0.188773 4.773e-20)
(1.69941 -0.0389049 -5.1476e-20)
(1.69863 -0.0493793 2.81485e-22)
(1.69047 -0.056918 1.00972e-19)
(1.68955 -0.0678964 -4.31017e-21)
(1.67409 -0.0745697 -2.72565e-20)
(1.67752 -0.0866962 5.45388e-20)
(1.65203 -0.0922864 -3.38116e-20)
(1.66552 -0.106178 1.72096e-20)
(1.62461 -0.109931 1.09958e-20)
(1.65653 -0.125813 1.24058e-20)
(0.845154 -0.0152914 4.67543e-20)
(0.821691 -0.0150952 3.6097e-20)
(0.798441 -0.0147013 3.46485e-20)
(0.775822 -0.0146689 5.37764e-20)
(0.752201 -0.0146006 -2.651e-20)
(0.731424 -0.0150003 -2.71173e-20)
(0.706199 -0.0156086 1.04301e-20)
(0.690259 -0.0166151 -2.17885e-21)
(0.657265 -0.0169754 3.10528e-21)
(0.658192 -0.0217452 -4.14333e-21)
(1.55383 0.930196 -8.19042e-20)
(1.53728 0.976152 2.83584e-20)
(1.54007 1.02965 -6.17703e-19)
(1.5482 1.0907 2.47872e-19)
(1.5545 1.15547 1.15578e-18)
(1.55059 1.21643 -1.55368e-19)
(1.51529 1.25224 -1.04903e-18)
(1.39948 1.21226 -2.23207e-20)
(1.11437 1.00065 -5.25811e-19)
(0.527159 0.487105 1.32769e-19)
(1.71882 0.897183 0)
(1.70764 0.942438 7.29671e-19)
(1.70703 0.992817 1.61643e-18)
(1.71485 1.05194 -9.87692e-19)
(1.72468 1.11588 -2.31325e-18)
(1.72464 1.17564 -1.6023e-19)
(1.68836 1.20878 -2.04751e-19)
(1.55902 1.16528 7.43301e-19)
(1.23713 0.954298 1.085e-18)
(0.580578 0.458228 4.4966e-19)
(1.87203 0.85773 7.15968e-20)
(1.87052 0.902541 0)
(1.87167 0.949892 -7.20179e-20)
(1.88024 1.00444 1.00958e-18)
(1.89231 1.06368 5.89724e-20)
(1.89414 1.11854 -2.29784e-18)
(1.85453 1.14603 1.4462e-18)
(1.70897 1.09781 8.74427e-19)
(1.34875 0.890236 -9.44825e-19)
(0.626136 0.420069 -2.97095e-19)
(2.00663 0.804705 -1.80714e-19)
(2.01574 0.848408 -1.34669e-19)
(2.0232 0.892951 2.83793e-19)
(2.03543 0.942752 -3.51811e-19)
(2.05014 0.996227 -1.64097e-18)
(2.05262 1.04439 -1.26487e-18)
(2.00719 1.06466 1.34431e-18)
(1.84275 1.01109 8.69149e-19)
(1.44241 0.80904 0)
(0.659502 0.372682 0)
(2.12766 0.738693 -9.55523e-19)
(2.14527 0.779763 -1.71788e-18)
(2.15963 0.820786 -6.66124e-19)
(2.17639 0.865461 -3.71769e-20)
(2.19348 0.912485 0)
(2.19479 0.953193 1.51131e-19)
(2.14087 0.964684 1.76616e-19)
(1.95297 0.905342 2.20533e-19)
(1.51037 0.71193 -3.20622e-19)
(0.676639 0.316954 -8.05114e-20)
(2.23293 0.659722 1.14157e-18)
(2.25826 0.697087 -4.69203e-20)
(2.27946 0.734016 -1.34014e-18)
(2.30074 0.773401 0)
(2.31935 0.813496 0)
(2.31736 0.844515 0)
(2.24971 0.847129 1.57479e-18)
(2.03249 0.784304 -1.74616e-18)
(1.54742 0.601514 -1.1244e-18)
(0.674922 0.255108 2.03313e-21)
(2.32685 0.570592 -1.50528e-18)
(2.35685 0.603306 -3.16021e-18)
(2.38287 0.635358 -5.47593e-21)
(2.40721 0.668639 6.34905e-19)
(2.42513 0.700986 -4.32947e-20)
(2.41525 0.723189 1.35946e-18)
(2.3275 0.716846 -7.42585e-19)
(2.07634 0.650226 -2.05566e-18)
(1.54925 0.481515 1.4524e-19)
(0.652859 0.190884 1.05866e-19)
(2.40643 0.474145 -1.19934e-18)
(2.43991 0.50106 1.8633e-20)
(2.46876 0.527791 4.55388e-19)
(2.49373 0.55472 -4.3665e-19)
(2.50739 0.57907 6.69967e-19)
(2.48424 0.592126 1.82079e-18)
(2.3702 0.577122 -1.97804e-19)
(2.0795 0.508317 -1.10617e-18)
(1.51197 0.358034 2.62201e-19)
(0.610314 0.128521 4.76045e-20)
(2.47327 0.372774 4.43679e-19)
(2.50714 0.394758 9.60829e-20)
(2.53606 0.415754 -4.67135e-19)
(2.55852 0.435789 -1.06648e-18)
(2.56337 0.451765 9.17423e-20)
(2.52043 0.455558 8.44202e-20)
(2.37231 0.432938 -1.42067e-18)
(2.03661 0.364974 5.80119e-19)
(1.43306 0.237981 1.73429e-19)
(0.54861 0.0722566 -1.07418e-19)
(2.5238 0.27066 8.50861e-19)
(2.55702 0.287614 -1.26515e-18)
(2.58371 0.302514 2.01011e-19)
(2.59985 0.315414 2.51076e-18)
(2.58995 0.323126 1.24937e-18)
(2.51905 0.318461 -2.67938e-18)
(2.32819 0.290451 -2.54052e-18)
(1.94346 0.227381 1.1324e-18)
(1.31253 0.128634 -1.99606e-20)
(0.471027 0.0259648 -4.5739e-20)
(0.529479 0.373512 -1.55326e-19)
(0.489772 0.386896 -1.61887e-19)
(0.445133 0.401253 6.86093e-20)
(0.396149 0.416721 -2.27859e-19)
(0.342501 0.433167 -1.76827e-20)
(0.283381 0.44929 2.16424e-19)
(0.217888 0.459712 3.38395e-20)
(0.14656 0.4487 4.78452e-21)
(0.0763252 0.381212 2.11731e-20)
(0.0155979 0.196887 1.32525e-20)
(0.573486 0.478048 1.29605e-19)
(0.534568 0.497864 1.65032e-19)
(0.491499 0.519217 4.90639e-20)
(0.444484 0.542274 -4.86394e-20)
(0.39293 0.566816 -2.20401e-19)
(0.335784 0.591013 -1.68024e-20)
(0.271453 0.607548 5.96019e-20)
(0.198651 0.595224 4.02022e-20)
(0.120646 0.506873 -1.24708e-19)
(0.0385607 0.262042 -4.311e-20)
(0.635491 0.575959 -1.07584e-19)
(0.597791 0.601515 -9.4657e-20)
(0.556931 0.629056 9.82921e-20)
(0.512674 0.659024 6.92408e-20)
(0.464169 0.691302 -8.16445e-20)
(0.410083 0.723632 -2.60501e-20)
(0.347826 0.746753 -1.1216e-19)
(0.273365 0.733947 -7.60075e-20)
(0.184311 0.626033 -6.90078e-20)
(0.0715272 0.323502 7.66022e-22)
(0.713561 0.669888 3.30819e-20)
(0.677586 0.701702 -5.5801e-20)
(0.639898 0.735441 -8.41368e-20)
(0.599333 0.771759 -5.49642e-20)
(0.554603 0.810627 -7.09189e-20)
(0.504148 0.849419 -3.03088e-21)
(0.44434 0.877109 -2.78497e-19)
(0.367801 0.862047 4.97287e-20)
(0.264745 0.734577 -3.22264e-19)
(0.113127 0.378711 5.08435e-20)
(0.80583 0.748919 6.94218e-21)
(0.772213 0.78563 1.38841e-20)
(0.738782 0.824744 -5.13726e-20)
(0.70358 0.867309 -2.71097e-19)
(0.66461 0.913118 1.24181e-19)
(0.619541 0.958869 2.79385e-20)
(0.563134 0.991755 5.84913e-20)
(0.483857 0.97549 -1.635e-19)
(0.36287 0.830673 3.89033e-19)
(0.163295 0.426908 2.84632e-19)
(0.912991 0.825962 -9.00604e-20)
(0.881137 0.86723 -1.8255e-19)
(0.851054 0.909789 3.51795e-20)
(0.820153 0.956001 1.03605e-19)
(0.786396 1.00624 3.62299e-19)
(0.747015 1.05663 2.58305e-19)
(0.694735 1.09228 6.38155e-19)
(0.612894 1.07258 2.65856e-19)
(0.472224 0.910438 1.59709e-19)
(0.219137 0.465432 2.13475e-19)
(1.02688 0.87841 -1.12152e-19)
(1.0007 0.924408 6.0151e-19)
(0.978167 0.971523 3.89497e-19)
(0.954802 1.02217 -4.93186e-19)
(0.927841 1.07685 -2.46084e-19)
(0.894307 1.13157 6.73817e-19)
(0.84536 1.17006 -1.10329e-19)
(0.75899 1.1479 -4.46466e-19)
(0.594415 0.971459 6.73123e-21)
(0.280329 0.493435 2.5878e-19)
(1.14811 0.930795 2.99592e-19)
(1.12207 0.977278 6.175e-20)
(1.10396 1.02478 -7.79473e-19)
(1.08832 1.07734 1.56971e-19)
(1.07061 1.13472 5.75125e-19)
(1.04584 1.1916 -3.28682e-19)
(1.00224 1.23 -9.66583e-20)
(0.911739 1.20277 -1.84741e-19)
(0.721701 1.01241 1.87529e-20)
(0.343303 0.509712 -3.13001e-19)
(1.27799 0.949826 2.06297e-20)
(1.26258 1.00038 -5.64982e-19)
(1.25204 1.04907 -4.68623e-21)
(1.24201 1.10275 4.74491e-19)
(1.23 1.1625 -4.86505e-19)
(1.21108 1.22214 9.54127e-19)
(1.17051 1.26148 6.44764e-19)
(1.07315 1.23069 -9.62456e-19)
(0.853817 1.03034 -7.11199e-20)
(0.406912 0.513635 -3.41231e-19)
(1.38162 0.958983 -3.33025e-19)
(1.37723 1.01036 -3.16495e-19)
(1.38387 1.06098 3.05324e-19)
(1.38886 1.11579 7.73863e-19)
(1.38859 1.17543 2.83464e-19)
(1.37848 1.23404 -7.86755e-19)
(1.34173 1.27082 8.82808e-20)
(1.23659 1.23474 2.14605e-19)
(0.98576 1.02667 -2.91792e-19)
(0.468825 0.506021 -2.42938e-19)
(0.969519 0.016728 1.27082e-21)
(1.02573 0.0345988 -1.91917e-20)
(1.01702 0.0546491 -1.60789e-20)
(1.02169 0.0838873 0)
(1.03058 0.104571 2.19748e-20)
(1.01151 0.133715 3.07905e-20)
(0.98752 0.156331 4.1003e-20)
(0.932765 0.188587 8.76097e-20)
(0.851846 0.246001 -1.28015e-19)
(0.702801 0.30705 -1.96699e-19)
(0.969721 0.0150181 4.08019e-20)
(1.02449 0.0325174 -6.26993e-20)
(1.0159 0.0525019 1.26465e-22)
(1.02083 0.0824769 -2.06249e-20)
(1.03195 0.10693 1.08895e-20)
(1.0153 0.138918 -1.53618e-20)
(0.994333 0.168095 -9.57936e-20)
(0.946485 0.208556 0)
(0.867782 0.282648 2.64643e-19)
(0.740623 0.375701 -2.71329e-19)
(0.969585 0.0135034 -3.09116e-20)
(1.02399 0.0305832 1.74502e-20)
(1.01524 0.0504111 4.40273e-20)
(1.02116 0.0811231 1.09424e-20)
(1.03366 0.10875 -2.59994e-20)
(1.02101 0.144064 1.2698e-21)
(1.00124 0.17884 -6.57978e-20)
(0.964494 0.228289 -5.51069e-21)
(0.886126 0.317851 -3.16278e-23)
(0.792326 0.441691 7.58415e-19)
(0.969143 0.0121145 -3.31626e-20)
(1.02416 0.0287268 2.64664e-21)
(1.01505 0.0483111 3.61041e-20)
(1.02249 0.0799131 2.27687e-20)
(1.03587 0.109954 -1.28367e-20)
(1.0284 0.149378 -1.72995e-20)
(1.00862 0.188295 9.49113e-20)
(0.986455 0.24812 -1.5028e-21)
(0.90705 0.350572 -2.898e-19)
(0.857296 0.503608 9.32772e-20)
(0.968432 0.0107972 2.33517e-20)
(1.02491 0.0268793 -3.34427e-20)
(1.01531 0.0461642 -2.87574e-20)
(1.0246 0.0788808 1.33602e-20)
(1.03884 0.110498 0)
(1.03704 0.155055 0)
(1.01713 0.196164 7.90348e-20)
(1.01141 0.268332 1.23025e-22)
(0.931884 0.380212 -1.31697e-19)
(0.933144 0.560229 9.69331e-20)
(0.967483 0.00950402 6.52833e-21)
(1.0262 0.0249655 2.74457e-20)
(1.01607 0.0439634 -7.67178e-20)
(1.0273 0.0779943 -2.6218e-20)
(1.04286 0.110388 -6.31057e-22)
(1.04648 0.161173 7.18828e-20)
(1.02733 0.202138 1.2038e-19)
(1.03919 0.289367 -9.39553e-22)
(0.959081 0.404924 2.18325e-19)
(1.02363 0.615608 -2.2526e-19)
(0.966319 0.00818361 -2.64211e-20)
(1.02798 0.0229053 1.47111e-20)
(1.01733 0.041728 -2.03285e-20)
(1.0304 0.0771497 -5.53414e-20)
(1.04821 0.109728 2.00638e-21)
(1.05613 0.167539 -1.72252e-21)
(1.04035 0.206324 -6.839e-21)
(1.06739 0.310586 -2.37785e-19)
(0.995358 0.425579 1.60101e-19)
(1.11116 0.656784 -5.51188e-19)
(0.964932 0.00680037 -4.10553e-21)
(1.03022 0.0206211 -4.33721e-20)
(1.01907 0.0394936 4.10867e-20)
(1.03386 0.0761994 2.98004e-20)
(1.05503 0.108687 1.04445e-21)
(1.06578 0.173799 -8.25157e-20)
(1.05625 0.209018 -6.50217e-20)
(1.09782 0.332096 4.22184e-19)
(1.03148 0.442252 1.53991e-20)
(1.22613 0.712938 8.64787e-19)
(0.963261 0.00531473 1.8204e-20)
(1.03294 0.0180491 2.00803e-20)
(1.0213 0.037319 4.64194e-20)
(1.0378 0.0750427 -3.26037e-20)
(1.06338 0.107422 -8.71677e-20)
(1.07514 0.179774 1.27841e-21)
(1.07656 0.208974 -8.86237e-20)
(1.12697 0.35169 5.45429e-19)
(1.08852 0.443912 -9.32104e-21)
(1.2972 0.729899 -1.19751e-18)
(0.961194 0.00384037 6.21149e-22)
(1.03615 0.0152138 3.18198e-20)
(1.02398 0.0353463 1.58954e-20)
(1.04237 0.0737324 -6.58123e-20)
(1.07256 0.107542 -8.3342e-20)
(1.08423 0.185184 -6.90581e-20)
(1.09746 0.215397 -1.60193e-19)
(1.15218 0.373442 -4.90056e-19)
(1.14276 0.469555 -2.66468e-19)
(1.43408 0.797537 -1.2643e-18)
(0.958204 0.00140295 -1.8793e-21)
(1.04012 0.0108331 -7.18445e-21)
(1.02843 0.0309493 -1.72846e-20)
(1.04792 0.0695184 3.50308e-20)
(1.08599 0.100898 5.99122e-20)
(1.09908 0.186938 -4.51874e-20)
(1.12437 0.199696 1.49612e-19)
(1.19805 0.3838 -4.57021e-19)
(1.2106 0.411125 -2.00679e-19)
(1.45115 0.786417 6.74587e-19)
(0.956638 -0.00265814 3.68512e-21)
(1.04408 0.00427865 1.57352e-20)
(1.03575 0.0233836 -1.08016e-20)
(1.05484 0.0607769 6.65998e-20)
(1.10534 0.0885401 9.69808e-20)
(1.10829 0.181128 1.32494e-19)
(1.16858 0.173088 3.3411e-20)
(1.22541 0.370233 2.21703e-19)
(1.30943 0.36199 3.27384e-19)
(1.47301 0.687829 2.08744e-20)
(0.955445 -0.00730014 -2.31296e-21)
(1.04901 -0.0036169 -4.2422e-21)
(1.04417 0.0153294 3.14879e-21)
(1.06531 0.0499744 5.12442e-21)
(1.12326 0.0773689 2.85855e-34)
(1.11809 0.169967 -7.89228e-21)
(1.21166 0.144763 -5.66608e-34)
(1.24453 0.34792 2.06368e-20)
(1.37275 0.308373 -5.96154e-20)
(1.50891 0.600072 -5.832e-20)
(0.953963 -0.0130653 1.42686e-20)
(1.05571 -0.0132634 -4.78569e-35)
(1.05356 0.00608076 -3.65321e-21)
(1.08059 0.0377684 -3.05167e-20)
(1.13507 0.0672255 -4.54886e-20)
(1.13804 0.153548 -4.25114e-20)
(1.23821 0.117611 -7.12107e-34)
(1.26791 0.32201 -8.58153e-20)
(1.40346 0.256493 -1.49039e-19)
(1.55083 0.505995 9.95746e-20)
(0.95199 -0.0203158 0)
(1.06463 -0.0243792 8.00888e-35)
(1.06506 -0.00568679 0)
(1.09987 0.0245737 0)
(1.14197 0.0562214 0)
(1.16755 0.13289 0)
(1.24746 0.0943739 -4.70608e-34)
(1.29546 0.288238 0)
(1.42507 0.20972 -2.1533e-20)
(1.58787 0.407255 5.94451e-20)
(0.949615 -0.0287335 3.77115e-21)
(1.07601 -0.0373825 7.86151e-21)
(1.0791 -0.0176984 -4.75138e-21)
(1.12088 0.0142952 0)
(1.14802 0.045751 0)
(1.19814 0.110168 6.90471e-21)
(1.24899 0.0761825 4.03271e-20)
(1.32137 0.244846 -1.48499e-20)
(1.44953 0.166482 -3.17753e-20)
(1.60926 0.315924 2.27687e-19)
(0.94809 -0.0430488 -7.69683e-20)
(1.09095 -0.0569521 -1.80423e-21)
(1.09357 -0.0359258 -5.36838e-21)
(1.13686 9.44584e-06 -1.8877e-20)
(1.1497 0.0325778 -2.42874e-20)
(1.21927 0.0843132 -1.05938e-20)
(1.24699 0.0614338 -3.29504e-20)
(1.33965 0.193579 -3.0745e-20)
(1.46945 0.126524 -5.80459e-20)
(1.61896 0.2339 8.12537e-20)
(0.950752 -0.0494358 -7.4269e-21)
(1.10257 -0.0662137 -1.83374e-20)
(1.08489 -0.042206 -5.98516e-21)
(1.12149 -0.00425214 -5.11927e-21)
(1.12171 0.0238731 -1.63687e-35)
(1.209 0.0591375 7.36729e-21)
(1.21543 0.0486579 -9.32801e-34)
(1.34144 0.137419 -1.4525e-20)
(1.45614 0.0878842 2.02411e-20)
(1.61948 0.157828 2.79953e-20)
(0.954304 -0.089539 1.94798e-19)
(1.05569 -0.0948224 -4.06138e-21)
(0.967213 -0.0612639 -6.38588e-21)
(0.974822 -0.0151283 1.40015e-20)
(0.963684 0.00913517 1.19204e-20)
(1.06482 0.0321471 1.56801e-20)
(1.05333 0.0332697 1.44689e-20)
(1.2357 0.0781211 -9.97194e-21)
(1.30697 0.0515555 -2.29578e-20)
(1.51543 0.0870554 1.46257e-19)
(0.829988 -0.0453988 9.52474e-21)
(0.733146 -0.0349541 -9.48001e-35)
(0.532573 -0.0146316 -7.5869e-21)
(0.497975 -0.0019816 0)
(0.483968 0.00174759 0)
(0.54582 0.00789308 7.49518e-21)
(0.557122 0.00592053 -6.44744e-36)
(0.695981 0.0159661 -1.4134e-20)
(0.752841 0.00770131 -3.00696e-20)
(0.910997 0.0155534 6.10376e-20)
(1.65428 0.815895 -2.01622e-19)
(1.75581 0.793076 -2.98344e-19)
(1.87242 0.758978 0)
(1.98162 0.709224 1.53534e-19)
(2.08548 0.648349 6.65926e-19)
(2.17571 0.576459 -1.3354e-19)
(2.2616 0.496822 1.76777e-18)
(2.33216 0.413174 -8.36452e-20)
(2.39744 0.323577 -4.07261e-19)
(2.44547 0.235484 3.65531e-19)
(1.67601 0.666389 1.01484e-19)
(1.75596 0.643572 1.19734e-19)
(1.85175 0.610801 -1.28182e-20)
(1.94382 0.56232 2.20768e-19)
(2.03518 0.510344 -1.84288e-19)
(2.10997 0.448339 -4.38405e-19)
(2.18701 0.387348 -1.26467e-19)
(2.242 0.319915 6.06066e-19)
(2.30667 0.253622 -2.36141e-20)
(2.3396 0.18563 -5.26937e-19)
(1.71127 0.547796 1.04061e-19)
(1.78457 0.519738 1.94031e-19)