/*--------------------------------*- C++ -*----------------------------------*\
  =========                 |
  \\      /  F ield         | OpenFOAM: The Open Source CFD Toolbox
   \\    /   O peration     | Website:  https://openfoam.org
    \\  /    A nd           | Version:  13
     \\/     M anipulation  |
\*---------------------------------------------------------------------------*/
FoamFile
{
    format      ascii;
    class       volScalarField;
    location    "0.45";
    object      p;
}
// * * * * * * * * * * * * * * * * * * * * * * * * * * * * * * * * * * * * * //

dimensions      [0 2 -2 0 0 0 0];

internalField   nonuniform List<scalar> 
440
(
7.85351
10.61
12.9731
13.1563
10.183
20.7475
24.1309
27.1266
27.8277
25.941
41.2856
44.317
47.0202
47.813
46.6526
67.4193
69.5172
71.4306
72.0873
71.4
96.6964
97.5134
98.3104
98.7105
98.6769
-0.402462
-0.501998
-0.0309865
0.527357
0.867714
-1.66543
-2.32619
-2.06049
-1.3624
-0.724769
-2.02384
-2.90187
-2.81678
-2.05617
-0.936221
-0.67234
-0.803304
-0.393604
0.575553
2.44344
3.10311
4.41504
5.84607
7.28046
9.53309
2.12407
2.30804
1.3966
0.723011
0.241859
1.08577
2.10507
1.27451
0.664917
0.228427
-0.0680292
1.68481
1.1353
0.615131
0.217977
-0.370072
1.08201
0.922177
0.570602
0.212488
1.54507
0.499488
0.633753
0.522304
0.210988
4.42071
0.274449
0.353197
0.475497
0.206211
6.75499
0.725427
0.442528
0.47615
0.154509
10.0163
2.46978
1.09762
0.595512
0.112456
13.9089
4.78487
2.16003
0.857247
0.108666
16.6464
7.15216
3.48403
1.31475
0.190749
100.721
75.8723
53.357
33.1829
12.3811
102.416
78.9744
57.569
39.0887
23.5152
104.317
82.7344
62.5069
45.2659
32.9191
105.2
85.0543
66.5366
51.2182
40.6924
105.119
84.7768
66.3624
51.2856
40.9322
219.903
216.427
216.137
218.255
220.989
202.722
200.258
200.518
203.26
206.552
180.574
178.802
179.166
181.589
184.467
154.775
153.433
153.638
155.231
157.128
126.894
126.18
126.12
126.58
127.173
235.575
236.002
236.637
237.057
236.799
236.174
236.808
237.362
237.338
236.383
234.991
235.967
236.385
236.114
235.125
230.108
231.711
232.279
232.42
232.328
221.614
223.481
224.498
225.71
227.066
235.798
234.739
234.92
234.105
234.269
235.77
234.725
234.868
234.07
234.817
235.76
234.688
234.816
234.198
235.357
235.762
234.63
234.818
234.46
234.951
235.766
234.553
234.893
234.661
232.255
235.774
234.422
234.949
234.441
228.751
235.947
234.293
234.838
233.967
226.389
236.83
234.056
234.196
232.272
223.366
240.854
234.043
233.009
229.796
219.684
249.82
234.764
231.795
227.246
216.928
217.79
196.264
175.059
151.766
126.479
207.4
191.404
172.358
150.455
126.685
198.913
186.232
168.648
148.12
126.366
191.772
180.813
165.13
146.294
125.952
191.553
180.794
165.385
146.693
126.183
96.4244
95.5476
95.0999
94.333
94.1764
57.3473
55.4003
53.6949
51.7733
51.0075
29.5202
27.1769
24.4143
22.1155
20.7912
15.0703
12.6538
10.1886
8.16865
7.1983
9.24174
7.35426
5.96753
4.99214
4.40508
6.01287
4.91073
4.33054
4.24146
4.32969
4.1076
3.64716
3.5737
3.72845
3.88177
2.8066
2.79004
3.02124
3.32317
3.48115
1.70873
2.0114
2.45987
2.80946
2.95409
0.663772
1.06032
1.63052
2.03042
2.20368
3.65155
3.22005
2.10836
1.01057
0.301354
3.70486
3.04984
2.01642
0.956063
0.28992
3.50882
2.79143
1.8883
0.903993
0.279359
3.19203
2.55207
1.72806
0.849593
0.269279
2.775
2.405
1.55101
0.789214
0.258877
4.51931
3.20522
2.02036
1.04444
0.327539
3.78275
3.29798
2.11099
1.04337
0.313294
94.932
54.1776
27.5433
14.5216
9.50216
93.7109
51.1684
23.0203
9.50662
5.29704
232.153
232.235
232.185
231.671
230.595
232.744
232.917
233.147
233.187
232.813
233.304
233.476
233.862
234.259
234.429
233.893
234.044
234.446
235.044
235.46
234.625
234.86
235.361
235.967
236.222
142.004
141.812
140.984
140.473
139.562
185.234
184.425
182.446
180.68
178.702
215.529
214.159
211.809
208.996
206.621
229.162
228.155
226.105
223.608
221.163
232.009
231.394
230.424
229.042
227.144
238.839
234.469
234.582
233.518
232.91
237.143
234.509
234.67
233.689
232.931
236.39
234.595
234.773
233.912
233.258
236.031
234.675
234.873
234.102
233.627
235.866
234.725
234.929
234.167
233.931
252.273
235.804
234.938
233.454
231.996
243.181
234.715
234.518
233.396
232.712
226.949
221.875
208.769
182.056
141.253
231.145
226.903
213.323
185.08
142.476
)
;

boundaryField
{
    left
    {
        type            zeroGradient;
    }
    right
    {
        type            fixedValue;
        value           uniform 0;
    }
    down
    {
        type            zeroGradient;
    }
    up
    {
        type            zeroGradient;
    }
    cylinder
    {
        type            zeroGradient;
    }
    defaultFaces
    {
        type            empty;
    }
}


// ************************************************************************* //
