/*--------------------------------*- C++ -*----------------------------------*\
  =========                 |
  \\      /  F ield         | OpenFOAM: The Open Source CFD Toolbox
   \\    /   O peration     | Website:  https://openfoam.org
    \\  /    A nd           | Version:  13
     \\/     M anipulation  |
\*---------------------------------------------------------------------------*/
FoamFile
{
    format      ascii;
    class       surfaceScalarField;
    location    "0.45";
    object      phi;
}
// * * * * * * * * * * * * * * * * * * * * * * * * * * * * * * * * * * * * * //

dimensions      [0 3 -1 0 0 0 0];

internalField   nonuniform List<scalar> 
823
(
0.0113773
-0.0505555
0.0391782
0.0387582
-0.133437
0.106056
0.0788335
-0.205878
0.165802
0.130177
-0.268867
0.217523
-0.323251
0.259399
0.194029
0.0107027
-0.0612582
0.0361427
-0.158877
0.0726486
-0.242384
0.117976
-0.314194
-0.375598
0.170323
0.00837699
-0.0696352
0.0282853
-0.178785
0.0567267
-0.270825
0.0918135
-0.34928
-0.416051
0.132267
0.00529939
-0.0749346
0.0179961
-0.191482
0.0362309
-0.28906
0.0588864
-0.371936
-0.442418
0.0852526
0.00196205
-0.0768966
0.0066303
-0.19615
0.0132902
-0.29572
0.0215228
-0.380169
0.0310636
-0.451958
0.00669383
-0.0107163
0.00402239
0.0222566
-0.0308366
0.0152739
0.0454738
-0.0484
0.0251828
0.0746281
-0.0638228
0.0346685
-0.0768983
0.108283
0.0432432
0.005777
-0.0164933
0.0215387
-0.0465984
0.0467897
-0.073651
0.0798694
-0.0969025
-0.116004
0.118975
0.00640139
-0.0228947
0.0236833
-0.0638803
0.0512884
-0.101256
0.0879994
-0.133614
-0.160067
0.132063
0.00753795
-0.0304327
0.0270952
-0.0834376
0.0573371
-0.131498
0.0970617
-0.173338
-0.207871
0.144865
0.00874549
0.0313641
0.0656685
0.109853
0.161382
0.322342
-0.955661
0.741602
0.472936
-0.818501
0.667907
0.567799
-0.349056
0.254193
0.605232
-0.077133
0.0397001
-0.00666252
0.00210677
0.330793
-1.16748
0.470823
-0.958531
0.568874
-0.447107
0.611447
-0.119706
-0.0149613
0.33715
-1.37257
0.462257
-1.08364
0.558218
-0.543068
0.605507
-0.166995
-0.0295087
0.337877
-1.56558
0.449977
-1.19574
0.539017
-0.632108
0.594873
-0.22285
-0.0545326
0.327916
-1.73211
0.429565
-1.29739
0.509784
-0.712328
0.576099
-0.289165
-0.0903297
1.19749
-1.58936
-1.34024
1.00803
-1.10793
0.900942
-0.605242
0.865256
-0.253479
-0.0733451
1.33039
-1.13259
-1.78716
0.983736
-0.761274
0.781398
-0.402905
0.703693
-0.175774
-0.0522096
1.18981
-0.607512
-1.71489
0.81676
-0.388227
0.614266
-0.20041
0.530053
-0.0915604
-0.028539
0.822481
-0.185259
-1.24474
0.545347
-0.111093
0.397887
-0.0529505
0.331816
-0.0254898
-0.00867548
0.306739
-0.491998
0.195647
0.142696
0.117206
1.5626
0.0462521
-1.57779
1.52169
0.126165
1.46265
0.191304
1.39631
0.236669
0.250096
1.67588
0.0356531
-1.66528
1.69935
0.102697
1.73085
0.159803
1.76533
0.202189
0.22827
1.38798
0.0184778
-1.3708
1.43707
0.0536055
1.5139
0.0829737
1.61019
0.105891
0.123576
0.9777
0.00531458
-0.964537
1.01588
0.0154221
1.07581
0.0230427
1.15388
0.0278256
0.0327214
0.392986
-0.387672
0.408409
0.431451
0.459277
0.128785
0.32761
-0.264637
-0.191758
0.0781627
0.273208
-0.222586
0.0385245
0.209794
-0.170155
0.0113396
0.136447
-0.109263
0.0519564
-0.0406168
0.115954
0.3789
-0.167243
0.071495
0.317667
0.0356155
0.245673
0.0105597
0.161503
0.0625161
0.0888511
0.418274
-0.128225
0.0548101
0.351708
0.0272865
0.273197
0.0080643
0.180725
0.0705804
0.0552432
0.443536
-0.080505
0.0337638
0.373187
0.016655
0.290305
0.00486417
0.192516
0.0754445
0.0174818
-0.0259044
0.0105003
0.00508609
0.00145208
0.0724096
0.087145
-0.106947
-0.0526075
0.042743
0.0735455
-0.0438789
0.0196613
0.0568009
-0.0337192
0.00511627
0.036708
-0.022163
0.0132488
-0.00813247
0.076078
0.125726
-0.114659
0.0437678
0.105856
0.0196734
0.0808954
0.00510104
0.0512803
0.0183499
0.0845745
0.168441
-0.127289
0.0492054
0.141225
0.0227946
0.107306
0.00619283
0.0678821
0.0245427
0.0942011
0.214619
-0.14038
0.0558594
0.179566
0.0265707
0.136595
0.00744225
0.0870106
0.031985
0.107464
-0.157482
0.0644442
0.0308837
0.00863172
0.510578
0.169976
-0.284574
0.554453
0.169882
-0.213758
0.492524
0.312212
-0.250283
0.333261
0.80424
-0.644977
1.0392
-0.812884
0.508698
0.0572583
0.550177
0.128404
0.483091
0.379298
0.330614
0.956716
1.25515
0.507229
-0.0539907
0.537631
0.0980016
0.463952
0.452977
0.3285
1.09217
1.45637
0.503648
-0.161659
0.520003
0.0816472
0.441503
0.531477
0.324761
1.20891
1.64075
0.49577
-0.26145
0.494384
0.0830337
0.414085
0.611775
0.312886
1.31011
1.79615
0.769481
-0.42691
0.853267
-0.000752672
0.95766
0.507382
1.16947
1.09829
1.61817
1.34746
0.71562
-0.53851
0.795202
-0.080334
0.958989
0.343594
1.29876
0.75852
1.14305
1.77389
0.604052
-0.538542
0.637351
-0.113634
0.805073
0.175872
1.17295
0.390646
0.611952
1.70404
0.448802
-0.383324
0.407596
-0.0724274
0.536997
0.0464708
0.816075
0.111568
0.186908
1.24112
0.220697
0.148269
0.19474
0.306308
0.493216
1.40253
-0.246832
1.46572
-0.23043
1.52299
-0.185498
1.56316
-0.120676
-0.0405334
1.75276
-0.225702
1.71981
-0.197484
1.69067
-0.156354
1.67087
-0.100878
-0.03495
1.60153
-0.123189
1.50879
-0.104744
1.43457
-0.0821377
1.38706
-0.0533644
-0.0186912
1.15106
-0.0331252
1.07429
-0.0279807
1.01529
-0.023138
0.97757
-0.0156416
-0.00565855
0.460091
0.43211
0.408972
0.39333
0.00250132
0.0430045
-0.0455058
0.00732774
0.101048
-0.105874
0.0160948
0.148391
-0.157158
0.0165781
0.151906
-0.152389
0.114025
0.0148137
-0.11226
0.00682818
0.0361763
0.0201773
0.0876985
0.0409571
0.127612
0.0482541
0.144609
0.116378
0.0459003
0.00880894
0.0273674
0.0270758
0.0694317
0.0521494
0.102538
0.0730905
0.123668
0.114032
0.0754364
0.00780092
0.0195665
0.0255126
0.05172
0.049747
0.0783036
0.0774286
0.0959862
0.0992406
0.0922203
0.00509879
0.0144677
0.0179728
0.0388459
0.0367657
0.0595108
0.0600064
0.0727455
0.0767428
0.0825041
0.00342458
0.0110431
0.0125823
0.0296882
0.0274433
0.0446498
0.0470524
0.0531363
0.0561562
0.067639
0.00222823
0.00881488
0.00893776
0.0229786
0.0222669
0.0313207
0.0410074
0.0343958
0.0347806
0.0623831
0.00166573
0.00714915
0.010085
0.0145593
0.0261043
0.0153014
0.0466235
0.0138766
0.0115678
0.0698362
0.00367776
0.00347139
0.0174224
0.000814701
0.0367116
-0.00398792
0.0596838
-0.00909569
-0.014289
0.0855405
0.00749375
0.0235823
0.0447772
0.0703499
0.099304
0.15373
0.0198972
-0.105988
0.243114
-0.129886
0.040502
0.264648
-0.0382536
0.016719
0.271782
-0.00112143
-0.00601212
-0.0048868
-0.00285697
0.21455
-0.13227
0.324829
-0.240166
0.351238
-0.0646622
0.356288
-0.00617124
-0.00916851
0.259599
-0.322033
0.390581
-0.371148
0.433048
-0.107129
0.436945
-0.0100675
-0.00880353
0.292617
-0.529109
0.437377
-0.515908
0.501096
-0.170848
0.509359
-0.0183303
-0.00491143
0.311797
0.463795
0.54714
0.56851
0.0706541
0.038684
-0.109338
0.0785936
-0.00793955
0.0829021
-0.00430849
0.081051
0.00185109
0.000732613
0.194071
-0.261375
0.226633
0.239044
0.234882
0.020731
-0.00433129
-0.0163997
0.0342806
-0.0135496
0.0567584
-0.0224777
0.0856168
-0.0288584
-0.0237213
0.0539212
-0.0434388
0.0862719
0.139231
0.202593
0.0478651
-0.0551067
0.076327
-0.0690856
0.0275752
-0.0521259
0.0724158
0.01234
-0.0443505
0.0595858
0.00331737
-0.0300349
0.0390575
-0.011261
0.0145783
0.0455185
-0.0321899
-0.0684354
0.025056
-0.0316633
0.00987347
-0.029168
0.0022015
-0.0223629
-0.00905944
0.0561433
-0.00660034
-0.081733
0.0332035
-0.00872344
0.0143445
-0.010309
0.0026159
-0.0106343
-0.00644352
0.069943
0.0215847
-0.098128
0.0447281
0.0164915
0.0233167
0.0111025
0.00691451
0.00576791
0.000470963
0.0740605
-0.105083
0.0466734
0.0240567
0.00766157
0.0165849
-0.114023
-0.0148221
0.0160944
-0.151899
0.00730656
-0.148371
0.0024891
-0.101057
-0.0430167
0.048271
-0.116368
-0.0459255
0.0409315
-0.144559
0.0201635
-0.127603
0.00682108
-0.0877141
-0.0361957
0.0731265
-0.113963
-0.0755319
0.0521228
-0.123556
0.0270645
-0.102544
0.00880596
-0.0694557
-0.0273897
0.0773426
-0.0989563
-0.0923492
0.0496201
-0.0958331
0.0254317
-0.0783559
0.00777489
-0.0517988
-0.0196148
0.0599651
-0.0825943
0.0365478
0.0177778
0.00503645
0.342199
0.582975
-0.529194
0.281435
0.223724
-0.16296
0.248725
0.0531889
-0.0204794
0.16567
0.11632
-0.0332641
-0.000271711
0.0968561
0.40863
0.570325
0.372888
0.259466
0.336925
0.0891528
0.233879
0.219366
0.165172
0.461382
0.504923
0.453114
0.267733
0.41007
0.132197
0.283753
0.345683
0.367192
0.499458
0.401444
0.517277
0.249915
0.46102
0.188453
0.317115
0.489588
0.586179
0.512849
0.549006
0.487177
0.331788
0.158671
0.35138
0.0849082
0.0737632
0.080652
0.00425614
0.0725218
0.00813029
-0.0368799
0.109402
0.332236
0.24304
0.226817
0.201684
0.26166
0.0856691
0.0237326
0.05679
0.0288792
0.0342915
0.0224984
0.0207344
0.013557
0.00433476
0.202798
0.139328
0.0862946
0.0539262
)
;

boundaryField
{
    left
    {
        type            calculated;
        value           nonuniform List<scalar> 
17
(
-0.60402
-0.60402
-0.60402
-0.60402
-0.60402
-0.39598
-0.39598
-0.39598
-0.39598
-0.39598
-0.39598
-0.39598
-0.39598
-0.39598
-0.39598
-0.510051
-0.510051
)
;
    }
    right
    {
        type            calculated;
        value           nonuniform List<scalar> 
17
(
0.0803184
0.232758
0.279526
0.360569
0.43658
0.505467
0.565705
0.609788
0.619745
0.620054
0.619896
0.611896
0.848272
0.682557
0.506383
0.311953
0.108531
)
;
    }
    down
    {
        type            calculated;
        value           uniform 0;
    }
    up
    {
        type            calculated;
        value           uniform 0;
    }
    cylinder
    {
        type            calculated;
        value           uniform 0;
    }
    defaultFaces
    {
        type            empty;
    }
}


// ************************************************************************* //
