/*--------------------------------*- C++ -*----------------------------------*\
  =========                 |
  \\      /  F ield         | OpenFOAM: The Open Source CFD Toolbox
   \\    /   O peration     | Website:  https://openfoam.org
    \\  /    A nd           | Version:  13
     \\/     M anipulation  |
\*---------------------------------------------------------------------------*/
FoamFile
{
    format      ascii;
    class       volScalarField;
    location    "0.45";
    object      strainRateViscosityModel:nu;
}
// * * * * * * * * * * * * * * * * * * * * * * * * * * * * * * * * * * * * * //

dimensions      [0 2 -1 0 0 0 0];

internalField   nonuniform List<scalar> 
440
(
9.41959
8.96968
8.54438
8.04232
7.5863
9.68997
9.35816
8.98172
8.47999
7.87558
9.80075
9.53084
9.15876
8.58508
7.84826
9.84963
9.61818
9.25862
8.64756
7.86608
9.86917
9.65607
9.30593
8.68096
7.9088
1.29767
1.78925
2.04927
2.29982
2.36373
3.37805
3.30308
3.32038
3.43042
3.50126
5.89081
5.27206
4.93073
4.73278
4.763
7.76971
6.99348
6.42097
5.90666
5.82972
8.8208
8.15126
7.55198
6.91855
6.8724
1.85115
0.840146
0.388118
0.106192
0.040818
2.62234
0.917559
0.337853
0.0624739
0.0114354
3.51883
1.16546
0.289109
0.03904
0.0104637
4.09527
1.45447
0.273691
0.0285138
0.0104117
4.60615
1.77181
0.330611
0.0147443
0.0205734
4.23204
1.75113
0.273007
0.0308046
0.193037
3.70853
1.81577
0.583915
0.323301
0.45431
4.91728
3.20799
1.21978
0.573753
0.601712
7.0096
4.29116
1.90522
0.922524
0.763813
8.27287
5.0792
2.49452
1.33749
0.951521
2.84856
3.68309
4.62055
5.50681
6.15054
3.68371
3.6963
3.77158
3.85131
3.36715
8.22665
8.08668
7.79939
7.3853
6.34576
9.05294
8.99241
8.8591
8.62157
8.16025
9.60671
9.56995
9.48702
9.33804
9.11879
7.50368
8.01249
8.55933
9.01086
9.46428
7.79406
8.45154
8.98703
9.37785
9.70867
7.77896
8.55898
9.15938
9.54076
9.80945
7.81626
8.62754
9.25738
9.62275
9.85359
7.89135
8.67367
9.30536
9.65744
9.87034
2.51447
2.45573
2.25625
2.10249
2.02892
3.4753
3.42655
3.46469
3.68129
4.22597
4.64142
4.66314
5.04989
5.59586
6.44317
5.68943
5.83006
6.49907
7.18778
8.0398
6.75573
6.84341
7.58094
8.2429
8.93552
0.183378
0.0511634
0.250963
0.830831
2.00786
0.146284
0.0672862
0.201659
0.862029
2.6569
0.123175
0.0783898
0.163508
1.0794
3.4498
0.113914
0.0788818
0.169673
1.39931
3.95368
0.127271
0.09273
0.270233
1.74919
4.37383
0.190652
0.129944
0.269574
1.87748
4.1083
0.322485
0.149026
0.241613
1.78165
3.85661
0.646565
0.300341
0.784871
3.03059
4.90456
2.26697
0.843791
1.5174
4.16097
6.96079
5.05282
2.55917
2.43575
5.04104
8.27897
5.95
5.26847
4.40389
3.51129
2.78025
3.52036
3.9892
3.96959
3.8756
3.76347
6.32039
7.35232
7.77925
8.06793
8.21866
8.12147
8.60011
8.84956
8.98869
9.05207
9.11688
9.33777
9.48739
9.5705
9.60696
9.3107
7.91655
1.39853
3.62981
7.73647
9.08163
7.44043
3.20569
1.64051
6.78866
8.39833
6.57724
4.20813
1.00341
4.14731
6.81509
5.09423
3.4549
1.7004
1.03856
4.5032
3.14497
2.0386
1.37768
0.459882
2.59654
1.61864
1.00233
0.796504
0.926178
1.45469
0.77865
0.578841
0.61182
0.684777
0.800418
0.403744
0.586948
0.755558
0.829017
0.305637
0.501686
0.87963
1.04432
1.10591
0.158706
0.931666
1.2762
1.51152
1.56557
0.190591
0.360053
0.699344
0.771047
0.748093
0.395107
0.49533
0.566227
0.624153
0.622857
0.610332
0.638659
0.448937
0.470985
0.486158
0.958801
0.78316
0.397966
0.320939
0.348567
1.32432
0.832227
0.398297
0.18777
0.19403
1.10539
0.857567
1.11647
1.11373
1.03892
0.283906
0.471128
0.857308
0.919939
0.87619
9.19097
8.83838
7.75837
5.72965
3.5592
8.58701
7.72252
5.85111
3.49109
0.865941
0.965924
0.860395
1.02821
1.62016
2.65778
0.816407
0.770887
0.707021
0.825456
1.52389
1.05985
1.0111
0.848138
0.553809
0.73762
1.37553
1.33825
1.14074
0.791427
0.224178
1.83741
1.79085
1.54022
1.2249
0.592958
7.736
3.62671
1.39984
7.91478
9.31084
6.78481
1.6402
3.20246
7.43732
9.08226
4.13344
1.01087
4.19407
6.57259
8.39987
1.03604
1.70615
3.43318
5.08495
6.82153
0.476887
1.37704
2.01459
3.12679
4.52601
1.30463
0.562306
0.554216
0.457056
0.177496
0.667945
0.31178
0.466776
0.522723
0.48953
0.38518
0.189416
0.373253
0.620676
0.804911
0.27956
0.0689004
0.3318
0.76187
1.21464
0.231365
0.0346003
0.298734
0.828955
1.56905
5.47922
2.46761
1.0469
0.972771
1.14248
2.88354
1.09924
0.732139
0.562323
0.250383
3.56842
5.73545
7.75956
8.83891
9.19112
0.842102
3.4711
5.84438
7.72115
8.58686
)
;

boundaryField
{
    left
    {
        type            calculated;
        value           nonuniform List<scalar> 
17
(
0.433188
1.09638
2.17357
3.91025
6.57969
0.290999
0.181627
0.136801
0.140027
0.20229
2.95654
2.05398
1.31595
0.795076
0.483124
6.97816
4.579
)
;
    }
    right
    {
        type            calculated;
        value           nonuniform List<scalar> 
17
(
1.03926
0.877539
0.749714
0.62477
0.487155
0.346414
0.187154
0.0358487
0.010766
0.0102535
0.0104748
0.0282317
0.240649
0.512284
0.640959
0.780355
0.943043
)
;
    }
    down
    {
        type            calculated;
        value           nonuniform List<scalar> 
20
(
5.99329
3.00415
1.1561
1.05549
1.85275
4.27021
6.3834
8.13103
9.01556
9.30909
9.30892
9.01492
8.12956
6.37928
4.26359
1.83127
0.932358
1.18315
1.17132
1.08779
)
;
    }
    up
    {
        type            calculated;
        value           nonuniform List<scalar> 
20
(
8.5486
5.40683
2.72334
1.48224
1.01551
9.69562
9.66614
9.59856
9.47419
9.29337
9.29631
9.47642
9.60015
9.66725
9.69603
5.70109
3.1635
2.67547
5.3965
8.56524
)
;
    }
    cylinder
    {
        type            calculated;
        value           nonuniform List<scalar> 
40
(
1.35959
3.58185
6.11737
7.96067
8.95725
9.50518
9.74578
9.84079
9.88145
9.89746
9.54756
9.76286
9.84856
9.88496
9.89849
2.26506
4.50194
6.68966
8.23287
9.07007
3.04364
1.84822
1.0861
0.435916
0.601824
9.51892
9.33171
8.74199
7.26919
4.98563
9.51875
9.33097
8.73995
7.261
4.95698
2.96503
1.73115
1.07162
0.668298
0.105189
)
;
    }
    defaultFaces
    {
        type            empty;
    }
}


// ************************************************************************* //
