/*--------------------------------*- C++ -*----------------------------------*\
  =========                 |
  \\      /  F ield         | OpenFOAM: The Open Source CFD Toolbox
   \\    /   O peration     | Website:  https://openfoam.org
    \\  /    A nd           | Version:  13
     \\/     M anipulation  |
\*---------------------------------------------------------------------------*/
FoamFile
{
    format      ascii;
    class       volVectorField;
    location    "0.45";
    object      U;
}
// * * * * * * * * * * * * * * * * * * * * * * * * * * * * * * * * * * * * * //

dimensions      [0 1 -1 0 0 0 0];

internalField   nonuniform List<vector> 
440
(
(0.218265 -0.176699 -1.81088e-19)
(0.613083 -0.436665 1.07895e-18)
(0.98429 -0.640906 4.23501e-19)
(1.32753 -0.795373 1.24204e-18)
(1.63254 -0.916708 -2.60014e-19)
(0.304897 -0.177686 -5.44532e-19)
(0.819138 -0.428705 -1.01961e-18)
(1.27997 -0.618904 1.14497e-19)
(1.6919 -0.761634 -1.21521e-18)
(2.05373 -0.875096 -1.02099e-18)
(0.384883 -0.152408 -6.9809e-19)
(1.00468 -0.363017 1.58981e-18)
(1.53976 -0.518388 -1.93473e-18)
(2.00472 -0.632632 1.37907e-18)
(2.40595 -0.72147 1.43011e-18)
(0.445871 -0.102746 5.62401e-19)
(1.1461 -0.243085 -1.29954e-18)
(1.73745 -0.344813 -7.50801e-19)
(2.24295 -0.418221 1.96665e-18)
(2.67447 -0.474461 2.50014e-18)
(0.47926 -0.0361585 6.86919e-19)
(1.22364 -0.0847548 1.69142e-19)
(1.84591 -0.119363 2.53135e-18)
(2.37404 -0.143864 -1.06203e-18)
(2.82297 -0.162494 -4.83737e-19)
(-0.000858657 -0.0515588 2.79536e-19)
(0.0502405 -0.144086 -3.85016e-19)
(0.106164 -0.22207 1.10553e-18)
(0.171701 -0.291902 -1.75982e-19)
(0.239863 -0.353486 -1.59363e-18)
(0.0137068 -0.0842654 -2.61691e-19)
(0.0893718 -0.227687 -4.20529e-19)
(0.174222 -0.349922 1.11474e-19)
(0.268547 -0.449761 6.01014e-20)
(0.364852 -0.529805 -3.682e-20)
(0.0433294 -0.114253 7.02028e-20)
(0.165472 -0.303111 5.22024e-19)
(0.296191 -0.467249 9.4604e-20)
(0.432908 -0.598618 1.46343e-18)
(0.567981 -0.697101 -2.50156e-20)
(0.0866179 -0.141001 6.68668e-20)
(0.276373 -0.367813 -3.4207e-20)
(0.469493 -0.562956 2.17261e-19)
(0.661406 -0.718404 -2.04008e-18)
(0.844112 -0.830277 9.58154e-19)
(0.142128 -0.161728 -2.36022e-19)
(0.420084 -0.412855 -4.42939e-19)
(0.691398 -0.621459 -7.71255e-19)
(0.950134 -0.782363 9.54481e-19)
(1.18518 -0.892752 3.45787e-18)
(0.592904 -0.591118 -4.0959e-18)
(0.961479 -0.515555 1.07522e-18)
(1.2896 -0.210737 3.68774e-19)
(1.47092 -0.0442032 -6.20702e-19)
(1.53995 -0.00679884 -9.15692e-20)
(0.785856 -0.742517 4.85022e-18)
(1.04412 -0.621463 -3.20984e-19)
(1.31778 -0.280637 -1.40403e-19)
(1.50241 -0.0800328 4.03878e-19)
(1.56505 -0.0204557 1.61556e-19)
(1.0367 -0.877283 1.53553e-18)
(1.17909 -0.707292 4.06561e-18)
(1.34529 -0.347367 6.63505e-20)
(1.51056 -0.112527 4.43347e-19)
(1.56579 -0.0318319 -5.10861e-20)
(1.33059 -0.988166 1.22699e-18)
(1.35934 -0.769343 -4.18517e-19)
(1.39153 -0.404302 -7.80192e-19)
(1.50225 -0.139755 -3.01057e-19)
(1.56533 -0.0419453 1.7377e-20)
(1.62984 -1.04714 1.28604e-21)
(1.55488 -0.810105 -1.68894e-18)
(1.45031 -0.452432 0)
(1.47989 -0.179979 2.58793e-19)
(1.54504 -0.054309 3.30858e-20)
(2.1562 -1.11497 -1.5779e-18)
(1.83334 -0.8007 -4.95932e-19)
(1.56058 -0.449253 -1.05604e-20)
(1.43721 -0.184658 4.659e-20)
(1.4041 -0.0537798 -1.64884e-19)
(2.63287 -0.889557 -1.61253e-18)
(1.9009 -0.591018 2.97149e-18)
(1.43649 -0.314742 5.56239e-21)
(1.18067 -0.138156 2.0536e-19)
(1.13005 -0.0416929 0)
(2.47878 -0.522686 -6.9284e-18)
(1.60607 -0.338793 -1.49431e-19)
(1.14955 -0.176396 2.00558e-18)
(0.904878 -0.0832431 -3.09069e-19)
(0.838853 -0.0260839 -5.66782e-20)
(1.7624 -0.219961 6.83638e-18)
(1.08897 -0.135749 1.25421e-18)
(0.751612 -0.0671634 2.24252e-19)
(0.577141 -0.0338182 2.85757e-33)
(0.517471 -0.0119159 -8.48462e-20)
(0.683156 0.000155534 1.55282e-18)
(0.395333 0.023518 7.13967e-19)
(0.267515 0.023989 -5.17818e-19)
(0.20717 0.0137858 2.13449e-19)
(0.181002 0.00461237 -6.21949e-20)
(3.5819 -0.168157 1.25615e-17)
(3.41718 -0.502927 -1.04433e-17)
(3.13668 -0.786974 7.10861e-18)
(2.78059 -0.996052 2.32048e-18)
(2.33309 -1.10172 -4.14471e-19)
(3.78457 -0.103585 1.03949e-17)
(3.71751 -0.324457 -6.63919e-19)
(3.57778 -0.551816 -4.27011e-18)
(3.37835 -0.785744 2.69022e-18)
(3.10039 -1.01974 -6.62792e-19)
(3.11485 -0.0605659 3.65443e-18)
(3.09867 -0.181686 -2.51873e-18)
(3.05964 -0.309666 5.0127e-18)
(2.99895 -0.444847 -1.52882e-19)
(2.92442 -0.593593 -4.79053e-18)
(2.19087 -0.0276238 2.78875e-18)
(2.18384 -0.0833742 8.43023e-18)
(2.16463 -0.144014 -6.53258e-19)
(2.13408 -0.20729 -6.60826e-18)
(2.11307 -0.269443 1.94592e-18)
(0.879439 -0.00184249 5.21222e-18)
(0.876489 -0.00523957 -1.16436e-19)
(0.867368 -0.00956913 -4.25827e-20)
(0.850503 -0.0162563 -2.00931e-18)
(0.84115 -0.0229095 -3.60519e-18)
(1.65309 0.939998 2.27364e-18)
(1.34828 0.816674 -7.80804e-20)
(1.00338 0.658648 -3.46892e-20)
(0.62788 0.449491 -1.96324e-19)
(0.225237 0.182305 -1.34189e-19)
(2.07048 0.892488 -1.21816e-18)
(1.71067 0.777731 -1.20155e-18)
(1.29832 0.632595 7.32261e-19)
(0.834049 0.438734 -4.84196e-19)
(0.312148 0.182093 -4.10649e-21)
(2.41859 0.735845 -5.89607e-19)
(2.01967 0.645357 5.25252e-19)
(1.555 0.528767 2.4368e-18)
(1.01754 0.370203 8.08344e-19)
(0.391342 0.155288 5.26099e-19)
(2.68203 0.486717 1.50639e-20)
(2.2524 0.428295 -2.71725e-19)
(1.74744 0.352328 -6.46755e-19)
(1.15477 0.247649 2.05646e-18)
(0.450329 0.104146 -3.26839e-19)
(2.82549 0.173871 -1.17063e-18)
(2.3773 0.152648 -1.60651e-18)
(1.84942 0.125348 -7.28707e-19)
(1.22672 0.0878354 7.96292e-19)
(0.480861 0.0366873 -3.25834e-19)
(0.240621 0.416562 -2.14115e-18)
(0.170561 0.353071 -1.81634e-18)
(0.103184 0.276692 3.15091e-19)
(0.0456349 0.183383 -4.53235e-20)
(-0.00166651 0.0674446 3.40043e-20)
(0.37104 0.593976 -8.03201e-19)
(0.274118 0.509648 -6.67123e-19)
(0.178778 0.399073 1.01393e-20)
(0.0925623 0.259291 -2.48159e-20)
(0.0168156 0.0964169 2.5498e-20)
(0.581725 0.753241 2.18143e-18)
(0.446242 0.649452 -1.54244e-19)
(0.307949 0.507012 -1.44537e-19)
(0.174383 0.328436 -2.15036e-19)
(0.0483685 0.123917 1.67791e-19)
(0.862066 0.874704 -1.29677e-18)
(0.679183 0.758209 1.98011e-18)
(0.485292 0.594042 3.0917e-19)
(0.288336 0.388358 1.01594e-19)
(0.0925251 0.14917 -1.1828e-19)
(1.20366 0.925059 -4.41696e-19)
(0.969107 0.811733 -4.58295e-19)
(0.708602 0.645054 3.60906e-19)
(0.433339 0.42917 3.59771e-19)
(0.148467 0.168543 1.89738e-21)
(0.930124 0.162919 -3.96786e-19)
(1.48587 0.136785 5.28122e-20)
(1.3151 0.196738 2.02363e-20)
(1.00989 0.500947 -4.8961e-19)
(0.597887 0.644932 3.84213e-20)
(0.932466 0.0864106 1.57621e-19)
(1.4912 0.114247 2.82885e-19)
(1.34065 0.243657 2.37264e-19)
(1.05899 0.615206 -6.96898e-20)
(0.784513 0.802319 7.624e-19)
(0.933445 0.0115218 5.04254e-20)
(1.50516 0.0916746 -2.01375e-20)
(1.3432 0.290678 -5.67858e-20)
(1.16611 0.710811 -4.49733e-19)
(1.03737 0.936402 1.28103e-19)
(0.934045 -0.0606648 -2.01316e-20)
(1.51466 0.0721369 -6.62156e-19)
(1.35369 0.337636 9.64609e-20)
(1.32806 0.776787 1.21924e-18)
(1.33492 1.041 9.43439e-19)
(0.932994 -0.131751 -2.78716e-20)
(1.5094 0.0611123 1.88552e-19)
(1.37979 0.384782 -6.63328e-20)
(1.51158 0.818434 -3.94391e-19)
(1.63588 1.09136 -2.7407e-18)
(0.923649 -0.226642 2.23869e-19)
(1.48313 0.0272453 4.60673e-19)
(1.46318 0.384647 -2.64386e-20)
(1.76827 0.798203 3.05181e-18)
(2.1528 1.14291 -5.52139e-18)
(0.881155 -0.342695 -2.51386e-20)
(1.35128 -0.0271497 -6.37786e-19)
(1.41232 0.277525 7.53313e-21)
(1.84513 0.593578 -3.06172e-18)
(2.59474 0.90047 1.6685e-18)
(0.785246 -0.411998 5.49366e-18)
(1.08757 -0.0878466 6.87304e-35)
(1.13812 0.148674 -2.147e-18)
(1.57746 0.338984 2.65051e-18)
(2.45693 0.529494 5.03215e-18)
(0.633794 -0.29158 1.50086e-19)
(0.716233 -0.0713556 5.27482e-19)
(0.734206 0.0519219 2.50285e-19)
(1.07577 0.13481 6.23543e-19)
(1.75837 0.220482 -8.64262e-18)
(0.322383 -0.0432017 -4.30582e-18)
(0.294288 0.00543948 2.82064e-19)
(0.265757 -0.0131601 1.10815e-18)
(0.393574 -0.0240166 -7.71301e-19)
(0.686149 -0.000435667 -1.46568e-18)
(2.34854 1.12106 4.68898e-18)
(2.78725 1.01249 3.47152e-18)
(3.14086 0.803353 -5.69046e-18)
(3.41899 0.519587 -1.46152e-17)
(3.58241 0.185873 1.57632e-17)
(3.07899 1.01881 5.00854e-18)
(3.35416 0.795212 2.56384e-17)
(3.55704 0.560664 7.24306e-18)
(3.70116 0.331821 -3.08307e-17)
(3.77797 0.111136 -5.17347e-18)
(2.90581 0.591975 -7.22943e-18)
(2.98602 0.448095 -3.38066e-18)
(3.0522 0.31212 -6.29849e-18)
(3.09525 0.181736 -6.88932e-18)
(3.11401 0.0584357 6.52276e-18)
(2.10626 0.265926 5.41441e-18)
(2.13011 0.205774 -4.04698e-19)
(2.16253 0.14306 4.87095e-18)
(2.18312 0.0821457 6.28909e-18)
(2.19077 0.0260025 -5.88778e-18)
(0.842512 0.0220647 -5.74519e-19)
(0.851915 0.015659 3.52066e-18)
(0.868623 0.00913428 2.44303e-18)
(0.877488 0.00479395 -5.16926e-18)
(0.879837 0.00136206 -3.84277e-20)
(0.281961 0.0207588 5.52095e-19)
(0.656734 0.0404705 -7.43547e-19)
(0.97322 0.0440712 -8.18516e-19)
(0.944392 0.0274344 -1.518e-18)
(0.697909 0.0163874 -6.63723e-19)
(0.245602 0.0554656 7.45688e-19)
(0.591322 0.107085 1.44151e-18)
(0.864753 0.125154 -6.97302e-19)
(0.94002 0.0970083 1.96076e-18)
(0.724233 0.0532462 -2.70087e-18)
(0.185638 0.0742721 4.96205e-19)
(0.476432 0.145909 -1.39896e-18)
(0.707828 0.184778 -9.13895e-19)
(0.857376 0.17543 -1.81022e-18)
(0.741616 0.10124 -2.86219e-18)
(0.123315 0.0774811 -7.72671e-19)
(0.34479 0.160368 -1.37662e-18)
(0.534574 0.214896 4.39895e-18)
(0.67777 0.233331 -3.66679e-19)
(0.7131 0.180042 2.25489e-18)
(0.0752765 0.0723716 -6.22985e-19)
(0.230725 0.16011 1.5642e-18)
(0.372296 0.224537 6.12234e-19)
(0.482841 0.257786 -1.29578e-18)
(0.561345 0.258478 -1.74912e-19)
(0.0451441 0.0637746 8.43209e-20)
(0.149948 0.148753 -1.22227e-18)
(0.247739 0.212137 -9.45631e-19)
(0.325447 0.234102 -8.70047e-20)
(0.371228 0.223849 -5.00435e-20)
(0.0264531 0.0556839 3.12048e-19)
(0.095069 0.134263 5.95567e-19)
(0.160891 0.184819 -2.0781e-19)
(0.213775 0.195482 2.59288e-19)
(0.253619 0.185433 1.71275e-19)
(0.0133183 0.048841 2.49863e-19)
(0.0585829 0.111492 1.30249e-18)
(0.103664 0.121388 -1.23538e-18)
(0.142609 0.107635 -2.78486e-18)
(0.178757 0.0862266 4.08387e-19)
(0.00612685 0.0393969 -2.37025e-19)
(0.0424063 0.0493109 -1.80611e-18)
(0.0796643 0.0223492 3.21629e-18)
(0.119646 -0.0093801 1.31601e-18)
(0.161072 -0.0431255 -2.69743e-19)
(0.0100235 0.00263804 2.09977e-19)
(0.0420853 -0.0493339 -4.52135e-19)
(0.0821261 -0.0955117 8.97589e-20)
(0.130765 -0.143466 1.05499e-19)
(0.18141 -0.189659 4.33146e-21)
(0.338597 0.0719826 -7.54564e-20)
(0.613329 -0.0420613 -1.22315e-18)
(0.702135 -0.013377 2.53929e-19)
(0.715982 0.00470324 3.93581e-19)
(0.70609 0.00250399 1.37135e-20)
(0.302698 -0.0341422 -1.00241e-19)
(0.749543 -0.114575 1.45783e-18)
(0.885609 -0.0231533 9.17754e-19)
(0.914973 0.00691768 7.60957e-20)
(0.910734 0.00429338 -3.68463e-20)
(0.319153 -0.149291 -8.04952e-19)
(0.833547 -0.197661 3.12786e-18)
(1.04641 -0.0426017 -1.8166e-19)
(1.10112 0.00753239 -3.64256e-19)
(1.10266 0.00584636 7.52075e-20)
(0.375204 -0.287785 1.10413e-18)
(0.882227 -0.296868 -2.69664e-18)
(1.16759 -0.0834642 -5.28782e-19)
(1.26502 0.00277105 -3.25942e-20)
(1.27659 0.00612256 -2.77362e-21)
(0.462456 -0.436019 5.04712e-19)
(0.917437 -0.403896 -5.55544e-19)
(1.2445 -0.142834 4.72843e-19)
(1.39428 -0.0131473 1.20767e-19)
(1.42865 0.00321689 -2.80373e-20)
(0.182959 -0.0449787 9.54769e-19)
(0.144939 -0.0052607 0)
(0.162324 0.00104728 1.16648e-19)
(0.162222 -0.000205255 -1.19218e-21)
(0.157574 -0.000569702 -7.4377e-20)
(0.399695 0.0700192 0)
(0.408434 -0.000444123 0)
(0.46575 -0.00412584 5.3344e-20)
(0.468245 0.00271911 -1.63752e-20)
(0.456526 0.00106428 3.91687e-20)
(0.162681 -0.00082125 -3.68447e-19)
(0.186398 -0.00179215 3.10755e-18)
(0.213207 -0.00502125 -6.86307e-19)
(0.229806 -0.01499 -3.11689e-18)
(0.2457 -0.0170122 -7.96995e-19)
(0.432019 0.00444114 6.09901e-19)
(0.484547 0.019695 4.11548e-18)
(0.536442 0.0466952 -6.73008e-18)
(0.567614 0.0806121 2.20937e-18)
(0.598307 0.162214 3.79729e-18)
(0.370679 -0.220498 -3.32823e-19)
(0.324299 -0.231495 -9.25841e-20)
(0.248362 -0.212599 -3.28557e-19)
(0.15076 -0.150728 3.87509e-19)
(0.0458619 -0.0645799 1.14114e-19)
(0.257559 -0.169322 4.2151e-19)
(0.215082 -0.181431 1.41308e-18)
(0.162384 -0.176833 2.60746e-19)
(0.096723 -0.134985 2.36139e-19)
(0.0268817 -0.0571782 -1.84875e-20)
(0.193172 -0.0544796 -3.10274e-19)
(0.151597 -0.0770415 -1.04635e-19)
(0.108751 -0.0945926 1.63276e-18)
(0.0623174 -0.0968824 2.86847e-19)
(0.0132047 -0.0479213 -3.1259e-19)
(0.17837 0.0870052 -6.35181e-19)
(0.132414 0.0531827 -7.05818e-19)
(0.0875848 0.0195297 1.3074e-18)
(0.049365 -0.0104968 1.59889e-18)
(0.0112233 -0.0297036 1.98849e-19)
(0.188162 0.243941 1.23492e-19)
(0.13389 0.197675 -1.20257e-19)
(0.0816156 0.14792 2.48161e-19)
(0.0380291 0.0968764 6.19951e-19)
(-0.00232956 0.035566 9.16868e-20)
(0.697906 -0.0163426 1.53147e-18)
(0.944398 -0.0274111 -1.8008e-18)
(0.973028 -0.0441968 2.26993e-18)
(0.656746 -0.0405329 3.64563e-19)
(0.281995 -0.0207675 5.36651e-19)
(0.724224 -0.053138 1.77243e-18)
(0.939879 -0.0970222 7.94672e-18)
(0.864549 -0.125258 1.03364e-18)
(0.591373 -0.107125 1.34944e-18)
(0.245697 -0.0554867 -4.78481e-19)
(0.741538 -0.10099 -1.22166e-18)
(0.85677 -0.175261 -2.29617e-18)
(0.707748 -0.184837 2.92435e-18)
(0.476498 -0.145977 -1.08311e-19)
(0.18576 -0.0743077 3.39536e-19)
(0.712584 -0.179855 1.84716e-20)
(0.677057 -0.233269 -7.68488e-18)
(0.534607 -0.215223 -5.99857e-18)
(0.344924 -0.160704 1.09156e-18)
(0.123496 -0.0775856 5.08038e-19)
(0.558901 -0.256904 4.69125e-19)
(0.481797 -0.257164 5.33271e-19)
(0.372361 -0.225246 -8.98961e-19)
(0.230979 -0.160985 -8.88066e-19)
(0.0756249 -0.072631 -5.14361e-21)
(0.727137 0.373022 1.17476e-18)
(0.882761 0.127124 -1.91861e-19)
(0.679091 0.0190262 2.54137e-19)
(0.646545 0.0370717 -7.61061e-19)
(0.362708 -0.0616223 -1.00924e-19)
(0.826636 0.397817 -1.69858e-19)
(1.09321 0.156621 -5.55998e-19)
(0.870562 0.0375497 8.33327e-19)
(0.805997 0.100752 1.68259e-18)
(0.340731 0.0544551 1.04118e-19)
(0.890716 0.372244 -2.22176e-18)
(1.27542 0.17052 -3.71718e-20)
(1.04043 0.0620736 2.4614e-19)
(0.908885 0.180496 1.67366e-18)
(0.36469 0.176984 -1.42109e-18)
(0.919501 0.315411 1.45349e-18)
(1.42733 0.172214 1.71945e-20)
(1.17422 0.100781 -2.04582e-19)
(0.962961 0.279085 -6.85408e-19)
(0.414768 0.32338 -5.7689e-19)
(0.926848 0.240674 1.65896e-19)
(1.48908 0.156114 3.07703e-20)
(1.26224 0.147274 -6.29309e-20)
(0.989575 0.386644 -6.58844e-20)
(0.484401 0.480378 1.35622e-18)
(0.275572 0.048371 0)
(0.244452 -0.0111483 6.4739e-19)
(0.158049 -0.0158939 1.27547e-19)
(0.150856 0.00549613 -1.12392e-19)
(0.184403 0.0440629 -1.8075e-18)
(0.573094 0.266289 -1.01968e-17)
(0.610256 0.0750548 -2.55423e-18)
(0.446617 0.0127764 4.99341e-19)
(0.425264 0.000812244 -6.62715e-19)
(0.407759 -0.0682852 -6.62083e-19)
(0.245841 0.016973 -1.03459e-21)
(0.229902 0.0150777 1.92868e-18)
(0.213284 0.00506432 5.24369e-19)
(0.186448 0.00180197 3.23051e-19)
(0.162697 0.000825103 0)
(0.599232 -0.162095 -1.12598e-19)
(0.568189 -0.0803072 2.54795e-18)
(0.536552 -0.0464696 -1.37117e-19)
(0.484607 -0.0196419 -2.70357e-19)
(0.432043 -0.0044189 7.60448e-19)
)
;

boundaryField
{
    left
    {
        type            fixedValue;
        value           uniform (1 0 0);
    }
    right
    {
        type            zeroGradient;
    }
    down
    {
        type            noSlip;
    }
    up
    {
        type            noSlip;
    }
    cylinder
    {
        type            noSlip;
    }
    defaultFaces
    {
        type            empty;
    }
}


// ************************************************************************* //
