/*--------------------------------*- C++ -*----------------------------------*\
  =========                 |
  \\      /  F ield         | OpenFOAM: The Open Source CFD Toolbox
   \\    /   O peration     | Website:  https://openfoam.org
    \\  /    A nd           | Version:  13
     \\/     M anipulation  |
\*---------------------------------------------------------------------------*/
FoamFile
{
    format      ascii;
    class       volScalarField;
    location    "0.355";
    object      p;
}
// * * * * * * * * * * * * * * * * * * * * * * * * * * * * * * * * * * * * * //

dimensions      [0 2 -2 0 0 0 0];

internalField   nonuniform List<scalar> 
1800
(
5.79157
7.89874
10.0517
11.4802
12.3148
12.7258
12.8574
12.7011
11.4565
7.36648
9.64428
12.1201
14.6251
16.3093
17.3662
18.0293
18.4845
18.7244
18.0011
15.325
16.0391
18.664
21.3368
23.2003
24.4608
25.3429
25.9941
26.378
25.9076
24.0779
25.0363
27.6058
30.2543
32.169
33.5345
34.5439
35.3066
35.759
35.3534
33.6696
36.0964
38.4573
40.9097
42.7215
44.0461
45.0424
45.7972
46.2468
45.897
44.3421
48.7745
50.8271
52.9709
54.5773
55.7685
56.6709
57.3533
57.7641
57.4831
56.1242
62.7239
64.3968
66.1527
67.4847
68.4869
69.2567
69.8482
70.2253
70.0504
68.9619
77.6506
78.8923
80.2035
81.2129
81.989
82.6029
83.0971
83.452
83.4187
82.6824
93.2697
94.0494
94.8811
95.536
96.0589
96.4965
96.8793
97.2027
97.313
96.9785
109.299
109.604
109.936
110.211
110.449
110.669
110.886
111.1
111.261
111.289
-0.514387
-0.765592
-0.547051
-0.136838
0.32974
0.792377
1.15111
1.36314
1.50699
1.651
-0.441631
-0.947614
-1.04801
-0.838689
-0.417255
0.00711656
0.303502
0.546113
0.822373
1.0928
0.520427
-0.433641
-1.24456
-1.40433
-1.08022
-0.770136
-0.549796
-0.243584
0.161161
0.545726
0.901292
-0.22907
-1.40605
-1.74021
-1.52146
-1.3601
-1.22564
-0.917124
-0.460183
0.0477906
0.472352
-0.487881
-1.41357
-1.70088
-1.64192
-1.64406
-1.59828
-1.33198
-0.838898
-0.14376
-0.218992
-0.731437
-1.12388
-1.25015
-1.26799
-1.32685
-1.31212
-1.09862
-0.570707
0.363421
-0.540376
-0.500565
-0.320309
-0.172078
-0.0853167
-0.0608572
-0.0175203
0.15714
0.738857
1.97101
-0.0454522
0.541673
1.26421
1.7699
2.10079
2.31626
2.46893
2.6894
3.42354
5.08785
1.41003
2.51826
3.76729
4.6894
5.36011
5.85362
6.19553
6.53729
7.52681
9.81627
3.65739
5.30037
7.11877
8.49495
9.51799
10.2787
10.8021
11.2568
12.32
14.4852
2.36207
2.50009
2.39868
2.1642
1.67369
1.25936
0.91814
0.648942
0.404008
0.146198
2.00244
2.46732
2.28349
2.06852
1.58122
1.18227
0.875321
0.626899
0.391129
0.140344
1.5188
2.43296
2.17433
1.96499
1.49276
1.11087
0.834431
0.605393
0.378682
0.134738
0.89334
2.3506
2.07156
1.85205
1.40508
1.0434
0.795086
0.585646
0.367971
0.130332
0.201959
2.17827
1.96324
1.72881
1.31618
0.979631
0.758199
0.568103
0.3592
0.127199
-0.366915
1.90411
1.83007
1.59298
1.22399
0.919631
0.724551
0.552897
0.352418
0.125291
-0.513031
1.56014
1.65667
1.44035
1.12604
0.862983
0.694684
0.54021
0.347712
0.12464
0.217772
1.23446
1.43265
1.26032
1.01722
0.807962
0.668894
0.530312
0.345226
0.12539
2.47508
1.10065
1.13689
1.027
0.886312
0.75064
0.646819
0.523566
0.345216
0.127677
6.71082
1.47193
0.78434
0.718539
0.721077
0.686218
0.627524
0.520192
0.348142
0.131672
10.0468
2.65383
0.773946
0.488444
0.546992
0.607654
0.60479
0.516251
0.348454
0.131843
11.8362
2.64679
0.335696
0.119916
0.388889
0.554572
0.583759
0.494923
0.327687
0.116749
12.9259
2.83251
0.433109
0.175949
0.475093
0.602235
0.581533
0.465735
0.302303
0.100044
14.2343
4.40259
1.30292
0.740176
0.799447
0.748573
0.609626
0.44528
0.274885
0.0804043
16.409
7.15048
2.73735
1.62418
1.27549
0.974149
0.673404
0.436662
0.249349
0.0607868
19.3065
9.93107
4.3929
2.61504
1.83174
1.25454
0.773979
0.446244
0.230437
0.0436518
21.8165
12.002
5.92367
3.59136
2.41655
1.56304
0.900911
0.474157
0.221409
0.0314514
23.0968
13.187
7.12433
4.49846
3
1.88112
1.04425
0.518908
0.224245
0.0260307
23.0363
13.5653
7.98464
5.34735
3.59207
2.21593
1.20772
0.584026
0.242803
0.0292642
22.4832
13.7896
8.75488
6.20678
4.21546
2.58874
1.41049
0.684613
0.291666
0.0454668
111.845
97.8986
84.1336
71.1284
59.1891
48.4089
38.8275
30.1508
20.1391
5.03262
112.825
99.5364
86.0353
73.0289
60.9862
50.106
40.5739
32.3171
23.653
11.5385
113.356
100.271
87.3896
75.0629
63.5239
52.9321
43.5028
35.3152
27.5302
18.3961
114.569
102.828
90.8684
79.0366
67.6787
57.0823
47.4484
38.8475
31.1406
23.8772
115.146
104.135
93.2138
82.5226
72.1753
62.2502
52.7865
43.8743
36.0541
29.8734
115.495
104.768
94.2614
84.0997
74.3793
65.1501
56.391
48.1495
41.1074
36.0895
115.727
105.168
94.8562
84.9241
75.4815
66.6013
58.2928
50.6257
44.2723
40.1534
115.827
105.306
95.0394
85.168
75.814
67.0683
58.9647
51.5717
45.4554
41.4965
115.777
105.091
94.665
84.646
75.1669
66.3345
58.2047
50.8356
44.6121
40.1598
115.653
104.707
94.0191
83.7417
74.0164
64.9664
56.6719
49.1774
42.6688
37.4744
234.194
229.837
228.274
227.836
227.747
227.999
228.734
230.116
232.268
234.408
225.628
222.614
221.568
221.531
221.759
222.245
223.176
224.784
227.256
229.732
216.112
213.941
213.171
213.297
213.729
214.434
215.559
217.329
219.944
222.542
205.805
203.78
203.077
203.274
203.819
204.649
205.873
207.682
210.251
212.771
194.48
192.573
191.919
192.107
192.64
193.452
194.629
196.324
198.678
200.969
182.113
180.389
179.796
179.938
180.392
181.103
182.139
183.617
185.647
187.612
168.766
167.304
166.811
166.913
167.27
167.843
168.682
169.875
171.503
173.074
154.631
153.515
153.16
153.238
153.494
153.906
154.514
155.376
156.547
157.674
140.021
139.308
139.101
139.15
139.296
139.53
139.881
140.383
141.064
141.721
125.496
125.152
125.012
124.965
124.952
124.974
125.041
125.161
125.338
125.514
246.549
246.782
247.028
247.242
247.542
248.036
248.578
248.912
248.928
248.428
246.654
246.981
247.378
247.677
247.875
248.205
248.62
248.538
247.743
246.737
246.693
247.087
247.529
247.837
247.919
248.05
248.328
247.967
246.587
245.334
246.593
247.094
247.523
247.755
247.691
247.583
247.624
247.202
245.902
244.738
246.109
246.765
247.157
247.268
247.097
246.828
246.66
246.304
245.49
244.692
244.901
245.747
246.091
246.064
245.842
245.566
245.377
245.21
244.968
244.677
242.553
243.654
244
243.895
243.694
243.536
243.507
243.642
243.949
244.187
238.667
240.157
240.635
240.577
240.501
240.557
240.798
241.296
242.11
242.848
233.193
235.252
235.967
236.041
236.171
236.521
237.111
238.017
239.323
240.535
227.836
229.706
230.456
230.628
230.938
231.557
232.5
233.852
235.7
237.409
247.04
246.8
246.773
246.557
246.451
246.279
245.917
245.669
245.579
245.723
247.002
246.799
246.767
246.558
246.45
246.287
245.941
245.674
245.416
245.772
246.975
246.794
246.758
246.553
246.443
246.296
245.964
245.647
245.208
245.883
246.956
246.786
246.746
246.541
246.432
246.303
245.975
245.579
245.01
246.087
246.943
246.777
246.732
246.525
246.418
246.304
245.969
245.486
244.884
246.33
246.935
246.766
246.716
246.505
246.401
246.293
245.945
245.398
244.856
246.434
246.934
246.754
246.699
246.483
246.38
246.27
245.914
245.341
244.895
246.093
246.938
246.74
246.681
246.458
246.356
246.239
245.892
245.332
244.906
244.849
246.948
246.723
246.661
246.432
246.33
246.217
245.915
245.392
244.719
242.07
246.964
246.704
246.636
246.403
246.307
246.222
246.007
245.505
244.033
237.351
247
246.683
246.601
246.36
246.254
246.158
245.913
245.152
242.479
233.783
247.114
246.669
246.572
246.323
246.211
246.218
246.134
245.366
242.214
231.834
247.362
246.682
246.548
246.26
246.136
246.198
246.168
245.311
241.948
230.584
247.83
246.745
246.532
246.189
245.994
245.928
245.729
244.632
240.569
229.386
248.684
246.823
246.557
246.091
245.779
245.405
244.829
243.311
238.094
227.534
250.502
246.895
246.653
246.01
245.492
244.732
243.711
241.621
235.434
224.975
254.377
247.193
246.795
245.941
245.146
244.015
242.595
239.987
233.35
222.632
262.679
248.326
247.057
245.886
244.781
243.329
241.587
238.688
232.103
221.371
280.242
251.058
247.694
245.91
244.433
242.682
240.679
237.755
231.658
221.401
306.214
255.105
249.192
246.112
244.147
242.066
239.799
236.941
231.388
221.929
236.479
221.126
210.503
201.189
191.028
179.725
167.33
153.958
139.912
125.782
230.082
217.784
208.634
199.915
189.98
178.743
166.398
153.147
139.424
125.949
223.551
214.186
206.009
197.484
187.771
176.931
165.178
152.677
139.659
126.48
218.45
210.943
202.95
194.1
184.256
173.489
161.994
150.049
137.985
126.15
213.056
206.659
198.662
189.565
179.894
169.755
159.204
148.336
137.281
126.188
207.444
202.146
194.885
186.414
177.417
167.962
158.043
147.721
137.101
126.314
203.641
199.202
192.614
184.719
176.187
167.102
157.482
147.407
136.997
126.387
202.358
198.102
191.758
184.147
175.835
166.9
157.381
147.378
137.02
126.451
203.684
198.971
192.523
184.94
176.609
167.594
157.958
147.812
137.297
126.566
206.358
200.925
194.19
186.481
177.986
168.756
158.874
148.471
137.695
126.702
112.235
112.405
112.49
112.341
111.834
111.473
111.289
111.573
111.566
111.317
89.6646
90.1278
90.3463
89.9127
88.4809
87.3946
86.7738
87.4354
87.4731
86.8867
68.8254
69.4529
69.714
69.0472
67.1081
65.3966
64.3765
64.9252
65.2296
64.6746
50.7113
51.3174
51.5068
50.6836
48.7048
46.5391
45.2092
45.2447
45.9831
45.7498
36.0693
36.4774
36.5273
35.6459
33.8543
31.5387
29.8952
29.33
30.1376
30.3254
25.0198
25.1229
25.0004
24.0772
22.4998
20.4709
18.6804
17.7389
17.9939
18.4939
17.1356
16.9848
16.7695
15.7785
14.3644
12.8614
11.3742
10.3093
9.96954
10.336
11.6503
11.4729
11.4238
10.4245
9.10609
8.10455
7.2131
6.37024
5.78171
5.69782
7.97761
7.88876
8.18394
7.31637
6.15102
5.56074
5.23182
4.84705
4.36301
3.98321
6.10952
5.90411
6.28854
5.55125
4.68263
4.40659
4.43024
4.42054
4.2678
3.8718
5.34348
5.10617
5.18736
4.49366
3.96187
3.90533
4.05453
4.19679
4.3176
4.37407
4.91853
4.80869
4.52996
3.86379
3.57764
3.66406
3.8664
4.03344
4.15287
4.23895
4.54298
4.49736
4.06424
3.51308
3.39184
3.5532
3.77676
3.95482
4.07243
4.13263
4.09188
4.03612
3.62902
3.2765
3.28453
3.48568
3.69711
3.85357
3.95172
3.99291
3.54836
3.45441
3.17993
3.05845
3.17302
3.38764
3.57626
3.71293
3.79377
3.8174
2.90373
2.80811
2.74592
2.83326
3.02771
3.23051
3.39523
3.51398
3.58051
3.5938
2.18673
2.20051
2.33121
2.56219
2.79572
2.99306
3.14771
3.26082
3.32644
3.34159
1.51729
1.63315
1.88021
2.16941
2.42288
2.63581
2.81027
2.94738
3.03384
3.06178
0.84746
0.983048
1.25386
1.57675
1.88132
2.14852
2.38193
2.56446
2.66924
2.70732
0.179948
0.0980397
0.327136
0.730229
1.14262
1.51697
1.83602
2.05044
2.15486
2.21762
3.72761
3.77054
3.64043
3.3123
2.66608
1.97944
1.3885
0.908869
0.49595
0.145521
3.80027
3.74426
3.59
3.29636
2.62622
1.92129
1.33548
0.874036
0.480243
0.146841
3.82699
3.63956
3.47875
3.24258
2.58165
1.86561
1.28456
0.841385
0.466756
0.148532
3.78913
3.46624
3.32748
3.14091
2.52379
1.8108
1.23569
0.810904
0.455278
0.150028
3.68394
3.26194
3.16219
2.98927
2.4411
1.75277
1.18831
0.78242
0.445496
0.151217
3.52418
3.06801
3.00576
2.80881
2.32792
1.68828
1.14242
0.756075
0.437176
0.152007
3.33416
2.90335
2.86618
2.63157
2.18815
1.61463
1.09783
0.732013
0.430031
0.152253
3.12851
2.76642
2.74215
2.48007
2.03779
1.53034
1.05379
0.710182
0.423681
0.151856
2.90377
2.6511
2.62722
2.35832
1.89696
1.4378
1.00936
0.690553
0.41809
0.150846
2.65142
2.55984
2.51403
2.25734
1.77635
1.34489
0.963682
0.671629
0.413949
0.15001
5.48824
4.04303
3.34686
2.96637
2.48991
1.9702
1.45871
0.980279
0.539985
0.15484
4.68469
3.82251
3.38238
3.02679
2.53005
1.97958
1.44973
0.967274
0.529031
0.150031
4.015
3.73053
3.44251
3.09545
2.56874
1.98739
1.44097
0.955998
0.520856
0.146924
3.69523
3.73089
3.52723
3.17496
2.60919
1.99433
1.43176
0.945433
0.514368
0.145399
3.68049
3.77361
3.6285
3.26666
2.65425
2.00083
1.42072
0.933906
0.508388
0.145387
112.066
89.003
67.9556
50.1872
36.1753
25.8572
18.6887
13.8142
10.6327
8.81879
111.845
88.4407
67.2494
49.4529
35.373
24.8529
17.3849
12.2808
9.13858
7.63866
111.659
87.9605
66.6112
48.7123
34.4618
23.6802
15.9647
10.7462
7.6023
6.14459
111.449
87.3868
65.7709
47.6476
33.1372
22.0862
14.1934
8.96193
5.87728
4.50196
111.194
86.6587
64.6417
46.1745
31.3373
20.0188
12.0251
6.99007
4.50781
3.69235
243.788
243.826
243.944
244.116
244.33
244.34
243.837
243.137
243.238
243.013
244.002
244.073
244.186
244.375
244.646
244.821
244.604
243.955
243.695
243.586
244.199
244.247
244.359
244.555
244.839
245.101
245.074
244.568
244.137
244.084
244.44
244.473
244.57
244.742
244.998
245.284
245.389
245.12
244.732
244.662
244.71
244.728
244.808
244.956
245.168
245.429
245.631
245.633
245.467
245.375
244.994
245.006
245.074
245.195
245.366
245.594
245.862
246.101
246.204
246.191
245.257
245.275
245.357
245.49
245.666
245.896
246.193
246.548
246.845
246.964
245.533
245.552
245.649
245.838
246.09
246.387
246.744
247.149
247.505
247.681
245.904
245.935
246.015
246.238
246.603
247.047
247.544
248.052
248.386
248.349
246.297
246.405
246.506
246.699
247.097
247.657
248.247
248.788
249.132
248.926
136.544
136.285
136.263
136.525
136.307
135.909
135.368
135.197
135.268
135.433
160.991
160.394
160.416
161.053
160.401
159.278
157.815
157.358
157.564
158.022
183.232
182.665
182.953
183.476
182.425
180.68
178.712
178.023
178.272
178.894
202.195
201.949
202.667
202.678
201.32
199.123
197.116
196.272
196.449
197.051
217.663
217.837
218.622
218.034
216.366
214.022
212.201
211.298
211.337
211.742
229.541
230.022
230.252
229.292
227.485
225.429
223.819
222.873
222.739
222.84
237.738
238.074
237.71
236.636
235.145
233.617
232.167
231.15
230.924
230.772
242.392
242.27
241.66
240.826
239.949
238.932
237.579
236.553
236.493
236.314
244.114
243.694
243.199
242.842
242.546
241.961
240.773
239.878
240.161
240.075
244.252
243.825
243.672
243.693
243.766
243.525
242.654
241.893
242.276
242.085
254.903
246.945
247.569
246.361
246.105
245.598
245.04
244.666
244.532
244.566
252.071
246.881
247.383
246.346
246.157
245.659
245.057
244.701
244.611
244.538
250.152
246.888
247.163
246.347
246.212
245.724
245.102
244.798
244.78
244.57
248.974
246.916
246.955
246.37
246.269
245.795
245.185
244.954
245.005
244.675
248.292
246.917
246.823
246.411
246.323
245.875
245.314
245.142
245.239
244.841
247.843
246.872
246.789
246.459
246.372
245.964
245.479
245.32
245.436
245.039
247.53
246.82
246.785
246.497
246.411
246.062
245.644
245.46
245.578
245.237
247.32
246.796
246.78
246.523
246.431
246.156
245.773
245.554
245.666
245.419
247.184
246.794
246.777
246.541
246.44
246.228
245.851
245.611
245.7
245.571
247.097
246.798
246.775
246.551
246.447
246.265
245.891
245.647
245.674
245.672
317.407
253.827
249.976
247.024
246.211
245.647
245.301
244.967
244.267
242.746
295.675
251.438
248.856
246.796
246.129
245.617
245.256
244.936
244.479
243.547
277.234
249.282
248.261
246.626
246.088
245.597
245.205
244.877
244.56
244.219
265.83
247.937
247.937
246.501
246.07
245.584
245.146
244.794
244.55
244.548
259.059
247.207
247.714
246.397
246.066
245.573
245.075
244.69
244.504
244.58
239.323
237.473
234.258
229.351
222.151
211.799
197.751
179.95
158.878
135.8
240.505
238.969
235.794
230.66
223.159
212.605
198.489
180.658
159.441
136.022
242.018
240.52
237.339
232.087
224.338
213.521
199.232
181.298
159.922
136.208
243.681
242.275
239.147
233.873
225.94
214.85
200.299
182.139
160.496
136.418
244.468
243.631
241.13
236.06
228.019
216.654
201.774
183.269
161.223
136.671
)
;

boundaryField
{
    left
    {
        type            zeroGradient;
    }
    right
    {
        type            fixedValue;
        value           uniform 0;
    }
    down
    {
        type            zeroGradient;
    }
    up
    {
        type            zeroGradient;
    }
    cylinder
    {
        type            zeroGradient;
    }
    defaultFaces
    {
        type            empty;
    }
}


// ************************************************************************* //
