/*--------------------------------*- C++ -*----------------------------------*\
  =========                 |
  \\      /  F ield         | OpenFOAM: The Open Source CFD Toolbox
   \\    /   O peration     | Website:  https://openfoam.org
    \\  /    A nd           | Version:  13
     \\/     M anipulation  |
\*---------------------------------------------------------------------------*/
FoamFile
{
    format      ascii;
    class       surfaceScalarField;
    location    "0.355";
    object      phi;
}
// * * * * * * * * * * * * * * * * * * * * * * * * * * * * * * * * * * * * * //

dimensions      [0 3 -1 0 0 0 0];

internalField   nonuniform List<scalar> 
3485
(
0.00137161
-0.0112584
0.00988678
0.00505111
-0.0319074
0.0282279
0.0107644
-0.0513833
0.0456701
0.0183132
-0.0696767
0.0621278
0.0275469
-0.0868338
0.0776001
0.0383514
-0.102898
0.092094
0.0506381
-0.117902
0.105615
0.064364
-0.131864
0.118138
0.0796266
-0.144852
0.129589
-0.156882
0.139487
0.0970219
0.0015003
-0.0127587
0.00544581
-0.0358529
0.0114763
-0.0574138
0.0193241
-0.0775244
0.028774
-0.0962838
0.0396489
-0.113773
0.0518047
-0.130057
0.0651335
-0.145193
0.079544
-0.159262
-0.172188
0.0948501
0.00147415
-0.0142328
0.00532697
-0.0397057
0.0111746
-0.0632614
0.0187212
-0.085071
0.0277262
-0.105289
0.0379902
-0.124037
0.0493474
-0.141415
0.0616583
-0.157504
0.0747909
-0.172395
-0.186031
0.0886339
0.00133885
-0.0155717
0.00485904
-0.0432259
0.010211
-0.0686134
0.0171175
-0.0919775
0.0253547
-0.113526
0.0347418
-0.133424
0.0451328
-0.151806
0.0564077
-0.168779
0.0684599
-0.184447
-0.198787
0.081216
0.00116693
-0.0167386
0.00425604
-0.046315
0.00897334
-0.0733307
0.0150822
-0.0980864
0.0223926
-0.120836
0.0307539
-0.141786
0.0400485
-0.1611
0.0501837
-0.178914
0.061082
-0.195345
-0.210401
0.0726955
0.000980041
-0.0177187
0.00358805
-0.048923
0.00758688
-0.0773295
0.0127845
-0.103284
0.019027
-0.127079
0.0261941
-0.148953
0.0341937
-0.1691
0.0429565
-0.187677
0.0524277
-0.204816
-0.220549
0.0625761
0.000780755
-0.0184994
0.00286514
-0.0510074
0.00606929
-0.0805337
0.0102435
-0.107458
0.0152675
-0.132103
0.0210482
-0.154734
0.0275163
-0.175568
0.0346233
-0.194784
0.0423349
-0.212528
-0.228852
0.0506376
0.000569739
-0.0190692
0.00209361
-0.0525313
0.00443821
-0.0828783
0.00749327
-0.110513
0.0111696
-0.135779
0.0153982
-0.158962
0.0201294
-0.180299
0.0253319
-0.199986
0.0309896
-0.218186
-0.234969
0.0371071
0.000352547
-0.0194217
0.00129591
-0.0534746
0.00274534
-0.0843277
0.00462888
-0.112397
0.00688729
-0.138038
0.00947424
-0.161549
0.0123568
-0.183182
0.0155162
-0.203146
0.0189472
-0.221617
-0.238687
0.0226645
0.000137835
-0.0195595
0.000502604
-0.0538394
0.00105725
-0.0848823
0.00177
-0.113109
0.00261438
-0.138882
0.00356927
-0.162504
0.00461918
-0.184232
0.0057546
-0.204281
0.00697207
-0.222834
0.00827667
-0.239991
0.000505078
-0.00187938
0.0013743
0.00212923
-0.00625707
0.00463292
0.0054674
-0.0113597
0.00802149
0.0101488
-0.0160986
0.0114172
0.0155807
-0.0200902
0.0146583
0.0214942
-0.0234956
0.0175821
0.027973
-0.0266787
0.0201999
0.0351608
-0.0298652
0.0226775
0.0430458
-0.0330147
0.0251296
-0.0359804
0.0514988
0.0275274
0.000428228
-0.00230761
0.00211746
-0.00794631
0.00545313
-0.0146953
0.00985284
-0.0204983
0.0149539
-0.0251912
0.0208524
-0.0293941
0.0277168
-0.0335431
0.0355011
-0.0376495
0.0440009
-0.0415145
-0.0450319
0.0530524
0.000680763
-0.00298837
0.00271086
-0.0099764
0.00579362
-0.0177781
0.00980522
-0.0245099
0.0148845
-0.0302705
0.0211985
-0.0357082
0.0286824
-0.041027
0.0370638
-0.0460309
0.0461253
-0.0505759
-0.0546799
0.0557733
0.000865834
-0.00385421
0.00305633
-0.0121669
0.00609158
-0.0208134
0.0102343
-0.0286527
0.015749
-0.0357852
0.0226204
-0.0425796
0.0306112
-0.0490178
0.039486
-0.0549057
0.0491468
-0.0602367
-0.0650436
0.0595106
0.000920537
-0.00477474
0.00319796
-0.0144443
0.00652703
-0.0241424
0.0111376
-0.0332633
0.0171668
-0.0418144
0.0244923
-0.049905
0.032924
-0.0574496
0.0423622
-0.064344
0.0527421
-0.0706166
-0.076233
0.0639315
0.000942245
-0.00571699
0.00337138
-0.0168735
0.0070954
-0.0278664
0.0121853
-0.0383532
0.0186511
-0.0482802
0.0263832
-0.0576371
0.0352844
-0.0663508
0.045306
-0.0743655
0.0563685
-0.0816792
-0.0881789
0.0683145
0.000979079
-0.00669607
0.00358322
-0.0194776
0.00764277
-0.031926
0.013112
-0.0438224
0.0199351
-0.0551033
0.0280263
-0.0657284
0.0373236
-0.075648
0.04778
-0.0848219
0.0593223
-0.0932215
-0.100662
0.0718054
0.00101753
-0.0077136
0.00376712
-0.0222272
0.00807128
-0.0362302
0.0138216
-0.0495727
0.0209237
-0.0622054
0.0292889
-0.0740936
0.0388478
-0.0852069
0.0495435
-0.0955176
0.0613171
-0.104995
-0.113413
0.0740683
0.00105435
-0.00876795
0.00393626
-0.0251091
0.00846076
-0.0407547
0.0144826
-0.0555946
0.0218758
-0.0695985
0.0305301
-0.0827479
0.0403503
-0.0950272
0.0512478
-0.106415
0.0631416
-0.116889
-0.126298
0.0760264
0.00111883
0.00423763
0.00915302
0.0156863
0.0236878
0.033034
0.0436219
0.0553447
0.0680447
0.0812337
0.114378
-0.413202
0.350323
0.168062
-0.469735
0.416051
0.209844
-0.418929
0.377147
0.242975
-0.323056
0.289925
0.268452
-0.210676
0.1852
0.286667
-0.105213
0.0869973
0.296923
-0.0321387
0.0218834
0.301388
-0.00498196
0.000516455
0.302848
-0.000750916
-0.00070869
0.00122888
-0.000366962
0.116085
-0.476235
0.169833
-0.523484
0.211708
-0.460803
0.244638
-0.355986
0.270083
-0.236122
0.288169
-0.123299
0.298283
-0.0422526
0.302763
-0.00946195
0.304614
-0.00260148
0.00179838
0.117964
-0.538425
0.17081
-0.57633
0.212426
-0.50242
0.24491
-0.38847
0.270243
-0.261455
0.288019
-0.141074
0.297773
-0.0520065
0.302226
-0.0139148
0.304212
-0.00458805
0.00219311
0.12036
-0.599275
0.171255
-0.627225
0.212125
-0.543289
0.24392
-0.420265
0.269054
-0.286589
0.286628
-0.158648
0.296332
-0.0617099
0.301181
-0.0187643
0.303599
-0.00700571
0.00214091
0.123239
-0.658582
0.171385
-0.675371
0.21092
-0.582824
0.241778
-0.451123
0.266576
-0.311386
0.284146
-0.176219
0.294182
-0.0717455
0.299768
-0.0243508
0.302876
-0.0101134
0.0013803
0.126065
-0.716333
0.171254
-0.720559
0.208913
-0.620483
0.23859
-0.480801
0.262859
-0.335655
0.280614
-0.193974
0.291381
-0.082512
0.298011
-0.0309806
0.302049
-0.0141523
-0.000341217
0.127974
-0.772502
0.170698
-0.763283
0.206186
-0.655971
0.23448
-0.509095
0.257986
-0.35916
0.276048
-0.212036
0.287944
-0.0944079
0.295921
-0.0389579
0.301126
-0.0193572
-0.00326808
0.128029
-0.826462
0.169245
-0.804499
0.202628
-0.689354
0.229454
-0.535921
0.251987
-0.381693
0.270405
-0.230455
0.283843
-0.107846
0.293496
-0.0486107
0.300098
-0.0259591
-0.00765244
0.125928
-0.876364
0.166492
-0.845063
0.198207
-0.721069
0.223637
-0.561351
0.245008
-0.403064
0.263727
-0.249173
0.279052
-0.123172
0.290696
-0.0602546
0.298893
-0.0341559
-0.0137172
0.122226
-0.917357
0.161638
-0.884474
0.192054
-0.751485
0.216371
-0.585668
0.236618
-0.423312
0.255639
-0.268194
0.27334
-0.140873
0.28707
-0.0739838
0.295853
-0.0429394
-0.0206192
0.583862
-0.919787
-0.581432
0.561106
-0.861718
0.523882
-0.714261
0.487513
-0.549299
0.459497
-0.395296
0.447105
-0.255802
0.448683
-0.142451
0.44863
-0.0739304
0.443461
-0.0377709
-0.0183447
0.682787
-0.871166
-0.731408
0.61971
-0.798641
0.554218
-0.648769
0.497613
-0.492694
0.455223
-0.352905
0.432027
-0.232606
0.421664
-0.132088
0.413821
-0.0660879
0.408302
-0.032252
-0.0161475
0.754067
-0.774823
-0.85041
0.655468
-0.700042
0.564384
-0.557685
0.489562
-0.417872
0.433472
-0.296816
0.398476
-0.197609
0.38233
-0.115941
0.374606
-0.0583641
0.36958
-0.0272257
-0.0136938
0.779213
-0.641484
-0.912552
0.654249
-0.575078
0.547236
-0.450671
0.462798
-0.333434
0.401053
-0.235071
0.361168
-0.157724
0.340831
-0.0956043
0.331569
-0.049102
0.326624
-0.0222814
-0.0112283
0.753164
-0.492337
-0.902311
0.617921
-0.439835
0.506823
-0.339573
0.421272
-0.247883
0.359575
-0.173374
0.318796
-0.116946
0.296266
-0.0730741
0.285933
-0.0387691
0.281039
-0.0173875
-0.00877454
0.685203
-0.345792
-0.831748
0.552894
-0.307526
0.446814
-0.233492
0.366703
-0.167773
0.309627
-0.116297
0.271476
-0.0787949
0.249042
-0.0506405
0.238155
-0.0278816
0.23327
-0.0125024
-0.0063723
0.582666
-0.213844
-0.714614
0.462984
-0.187845
0.369507
-0.140015
0.300342
-0.098608
0.251748
-0.0677029
0.219054
-0.0461006
0.198868
-0.0304545
0.188427
-0.0174408
0.183773
-0.00784826
-0.00410892
0.448779
-0.105519
-0.557105
0.351221
-0.0902866
0.277148
-0.0659418
0.223732
-0.0451917
0.186784
-0.0307552
0.161801
-0.0211177
0.145717
-0.0143704
0.136854
-0.0085777
0.132835
-0.0038289
-0.00213049
0.286598
-0.03022
-0.361896
0.220925
-0.0246143
0.172525
-0.0175412
0.138794
-0.0114604
0.115755
-0.00771714
0.10002
-0.00538201
0.0894735
-0.00382413
0.0833269
-0.00243105
0.0805497
-0.00105176
-0.000680351
0.101316
-0.131536
0.0767015
0.0591603
0.0476999
0.0399828
0.0346008
0.0307767
0.0283456
0.0272939
0.738828
0.0102243
-0.740776
0.733081
0.0284116
0.72344
0.0467479
0.710164
0.0639136
0.693568
0.0791727
0.674069
0.092194
0.652259
0.103026
0.628692
0.112202
0.604238
0.119304
0.119828
0.845554
0.0134007
-0.848731
0.837325
0.036641
0.827289
0.0567841
0.816591
0.0746112
0.805244
0.0905199
0.792884
0.104554
0.779263
0.116647
0.764558
0.126907
0.749082
0.13478
0.137502
0.844996
0.0114287
-0.843024
0.848897
0.0327397
0.853037
0.0526447
0.856489
0.0711583
0.858851
0.0881587
0.859935
0.103469
0.859606
0.116976
0.85797
0.128542
0.855293
0.137457
0.142385
0.80022
0.0093075
-0.798099
0.80583
0.0271303
0.81443
0.0440441
0.825654
0.059935
0.839026
0.0747864
0.853884
0.0886111
0.869464
0.101396
0.885108
0.112899
0.900002
0.122563
0.129835
0.737871
0.00704143
-0.735605
0.74416
0.0208408
0.754131
0.0340737
0.767513
0.0465525
0.784097
0.058203
0.803681
0.069027
0.826019
0.0790583
0.850666
0.0882511
0.876605
0.0966239
0.104128
0.653924
0.0048561
-0.651738
0.660207
0.0145578
0.670383
0.0238976
0.684227
0.0327086
0.701532
0.0408972
0.722122
0.0484376
0.745821
0.0553594
0.772351
0.0617203
0.801249
0.0677258
0.0736299
0.549113
0.00291753
-0.547175
0.554814
0.00885694
0.564141
0.0145713
0.576909
0.0199405
0.592919
0.0248871
0.611973
0.0293831
0.633878
0.0334548
0.658417
0.0371815
0.685394
0.0407484
0.0444098
0.422792
0.00137649
-0.421251
0.427413
0.00423646
0.435008
0.0069759
0.445423
0.00952597
0.458471
0.0118388
0.473959
0.0138956
0.4917
0.0157138
0.511531
0.0173499
0.533352
0.0189276
0.0206571
0.273828
0.000366893
-0.272818
0.276915
0.00114958
0.281999
0.0018918
0.288955
0.00256941
0.29763
0.00316441
0.307856
0.00366905
0.319482
0.00408794
0.332395
0.00443658
0.346563
0.00476036
0.00532326
0.100483
-0.100117
0.101633
0.103525
0.106094
0.109259
0.112928
0.117016
0.121452
0.126213
0.077966
0.159472
-0.142448
-0.0949895
0.0630531
0.147435
-0.132522
0.0496365
0.134388
-0.120971
0.0376157
0.12032
-0.108299
0.0270344
0.105163
-0.0945815
0.0179825
0.0888902
-0.0798383
0.0105752
0.0714592
-0.0640519
0.00496427
0.0528098
-0.0471988
0.00134823
0.0328754
-0.0292594
0.0116398
-0.0102915
0.0779665
0.174411
-0.0929059
0.0638893
0.161512
0.050852
0.147425
0.038946
0.132226
0.0282809
0.115828
0.0190029
0.0981682
0.0112908
0.0791712
0.00536001
0.0587406
0.00147728
0.0367582
0.0131171
0.0731987
0.187914
-0.0867011
0.0603832
0.174328
0.0483589
0.159449
0.0372539
0.143331
0.027206
0.125876
0.0183806
0.106994
0.0109771
0.0865748
0.00523542
0.0644822
0.0014496
0.040544
0.0145666
0.0667853
0.200344
-0.0792161
0.0550429
0.18607
0.0440556
0.170436
0.0339253
0.153461
0.0247683
0.135033
0.0167277
0.115034
0.00998182
0.0933207
0.0047514
0.0697127
0.00130959
0.0439858
0.0158762
0.059323
0.211652
-0.070631
0.0487225
0.196671
0.0388719
0.180287
0.0298438
0.162489
0.0217256
0.143151
0.01463
0.12213
0.00870238
0.0992483
0.00412636
0.0742887
0.00113091
0.0469813
0.0170071
0.0506055
0.221519
-0.0604725
0.041416
0.20586
0.0329306
0.188772
0.025199
0.170221
0.0182846
0.150065
0.0122724
0.128142
0.00727496
0.104246
0.00343645
0.0781272
0.000937235
0.0494805
0.0179444
0.0404621
0.229564
-0.0485072
0.0330159
0.213307
0.0261784
0.19561
0.0199784
0.176421
0.0144579
0.155586
0.00967757
0.132922
0.00572039
0.108203
0.00269368
0.0811539
0.000731798
0.0514424
0.0186762
0.029057
0.235443
-0.0349359
0.023653
0.218711
0.0187157
0.200547
0.0142556
0.180881
0.0102964
0.159545
0.00687748
0.136341
0.00405549
0.111025
0.00190418
0.0833052
0.000515244
0.0528313
0.0191914
0.0169185
0.238929
-0.0204037
0.0137424
0.221887
0.0108551
0.203435
0.00825476
0.183481
0.00595131
0.161849
0.00396629
0.138326
0.002332
0.112659
0.00109055
0.0845467
0.000293203
0.0536286
0.0194846
0.00482743
-0.00589022
0.00387991
0.00303348
0.00228288
0.00162771
0.00107165
0.000621373
0.000285696
7.49301e-05
0.0435084
0.041191
-0.0523744
-0.0323249
0.0351639
0.03815
-0.0298054
0.0275281
0.0347638
-0.027128
0.0208195
0.0311705
-0.0244619
0.0150313
0.0276245
-0.0218363
0.00992432
0.0240766
-0.0189697
0.00539608
0.0199441
-0.0154158
0.00194715
0.0143533
-0.0109044
0.000379163
0.00734313
-0.00577514
0.00207327
-0.0016941
0.04377
0.0503624
-0.0529415
0.0351179
0.0468021
0.0270808
0.0428009
0.0199418
0.0383095
0.0140089
0.0335575
0.00927965
0.0288059
0.00550919
0.0237145
0.00256164
0.0173009
0.000615163
0.00928961
0.00268843
0.0450876
0.0599389
-0.0546641
0.0361419
0.0557477
0.027879
0.0510638
0.0204207
0.0457678
0.0140938
0.0398844
0.00915739
0.0337423
0.00555142
0.0273205
0.00290371
0.0199486
0.000809941
0.0113834
0.00349838
0.047577
0.0701529
-0.057791
0.0381123
0.0652124
0.0295104
0.0596657
0.0218105
0.0534677
0.0151428
0.0465521
0.00976735
0.0391178
0.00580438
0.0312835
0.0029808
0.0227722
0.000880877
0.0134833
0.00437925
0.0510399
0.0811086
-0.0619956
0.0409064
0.075346
0.0317578
0.0688142
0.0236569
0.0615686
0.0166292
0.0535799
0.0108042
0.0449427
0.00631832
0.0357693
0.00308105
0.0260095
0.000886675
0.0156777
0.00526593
0.0547032
0.0927338
-0.0663284
0.043954
0.0860952
0.0342439
0.0785243
0.0256484
0.0701641
0.0181903
0.061038
0.0119273
0.0512057
0.00695569
0.0407409
0.00329263
0.0296725
0.000913118
0.0180572
0.00617905
0.0577161
0.10484
-0.0698227
0.0465322
0.0972792
0.0364059
0.0886505
0.0273983
0.0791718
0.0195456
0.0688906
0.0128988
0.0578525
0.00753793
0.0461018
0.00353417
0.0336763
0.000962406
0.0206289
0.00714145
0.059737
0.117189
-0.0720851
0.0483395
0.108677
0.0379789
0.0990112
0.0287009
0.0884497
0.0205575
0.0770341
0.0136177
0.0647924
0.00797242
0.0517471
0.00372694
0.0379218
0.0010068
0.0233491
0.00814825
0.0615236
0.12966
-0.0739948
0.0500098
0.12019
0.0394467
0.109574
0.029906
0.0979904
0.021474
0.0854661
0.0142475
0.0720188
0.00834078
0.0576538
0.00388735
0.0423752
0.00104263
0.0261938
0.00919089
0.06636
-0.0791485
0.054028
0.0426313
0.032323
0.0232075
0.015388
0.00898987
0.00416626
0.00110065
0.214893
0.0580178
-0.074921
0.236136
0.0920971
-0.11334
0.258587
0.123905
-0.146356
0.270308
0.114696
-0.126418
0.270284
0.113937
-0.113913
0.249786
0.181316
-0.160818
0.216886
0.294085
-0.261186
0.173774
0.410963
-0.36785
0.117917
0.492297
-0.43644
0.459433
-0.393891
0.214136
0.0418715
0.234313
0.0719199
0.256018
0.1022
0.26836
0.102355
0.269599
0.112698
0.250267
0.200647
0.217458
0.326895
0.173922
0.454499
0.117901
0.548318
0.524393
0.213487
0.0263741
0.233047
0.0523596
0.254047
0.0812011
0.266784
0.0896172
0.268209
0.111273
0.249472
0.219384
0.216744
0.359623
0.173059
0.498184
0.117993
0.603384
0.587722
0.212951
0.0114124
0.23232
0.032991
0.252651
0.06087
0.265479
0.0767894
0.266221
0.110531
0.24744
0.238165
0.214801
0.392262
0.171486
0.541499
0.118711
0.656159
0.648642
0.212632
-0.00322949
0.2321
0.0135229
0.251737
0.0412326
0.264157
0.0643698
0.263526
0.111162
0.244172
0.257519
0.211736
0.424698
0.169559
0.583676
0.120165
0.705553
0.706811
0.212623
-0.0178627
0.232325
-0.00617879
0.251159
0.022398
0.262547
0.0529822
0.259966
0.113744
0.239697
0.277787
0.207733
0.456663
0.167529
0.623879
0.121911
0.751171
0.762394
0.212917
-0.0327902
0.232882
-0.0261433
0.250743
0.00453667
0.260463
0.0432626
0.255451
0.118755
0.234134
0.299104
0.20303
0.487766
0.165398
0.661512
0.123097
0.793472
0.815668
0.213349
-0.0481499
0.233611
-0.0464046
0.250289
-0.0121415
0.257684
0.0358672
0.249828
0.126611
0.227526
0.321407
0.197676
0.517616
0.162772
0.696416
0.122728
0.833515
0.866311
0.213633
-0.0637933
0.234347
-0.0671179
0.249615
-0.0274099
0.254215
0.0312675
0.243275
0.137551
0.220188
0.344493
0.191812
0.545992
0.15926
0.728968
0.120426
0.87235
0.912742
0.213811
-0.0796145
0.234866
-0.0881731
0.248638
-0.0411818
0.249652
0.0302536
0.235207
0.151996
0.211475
0.368226
0.184558
0.572909
0.154011
0.759514
0.116698
0.909663
0.950291
0.332397
-0.110001
0.371407
-0.127184
0.406841
-0.0766152
0.425648
0.0114461
0.441141
0.136503
0.468115
0.341252
0.506782
0.534242
0.549614
0.716682
0.581272
0.878005
0.945152
0.586412
0.333693
-0.141684
0.373964
-0.167454
0.409515
-0.112166
0.42658
-0.00561904
0.440541
0.122542
0.477698
0.304094
0.534891
0.47705
0.604624
0.646949
0.675333
0.807297
0.8876
0.732884
0.335802
-0.175476
0.375509
-0.207161
0.410792
-0.147449
0.426288
-0.0211145
0.435339
0.11349
0.477294
0.26214
0.547997
0.406347
0.63943
0.555515
0.74246
0.704267
0.783671
0.84639
0.339283
-0.212749
0.37375
-0.241627
0.390033
-0.163732
0.390515
-0.0215968
0.404864
0.0991413
0.455835
0.211169
0.535867
0.326315
0.641442
0.44994
0.767522
0.578187
0.646559
0.904633
0.346961
-0.2577
0.356332
-0.250997
0.342052
-0.149452
0.340667
-0.0202126
0.362533
0.0772761
0.416027
0.157675
0.498522
0.243819
0.608617
0.339845
0.744133
0.44267
0.495586
0.895107
0.341226
-0.296916
0.322512
-0.232283
0.291064
-0.118005
0.288346
-0.0174946
0.311737
0.0538847
0.362513
0.106899
0.440593
0.16574
0.546213
0.234225
0.679
0.309883
0.347843
0.826742
0.314366
-0.309272
0.272236
-0.190153
0.235747
-0.0815157
0.23148
-0.0132275
0.253063
0.0323018
0.297197
0.0627648
0.365158
0.0977786
0.458585
0.140799
0.578915
0.189554
0.215042
0.711716
0.273837
-0.281098
0.213252
-0.129569
0.175619
-0.0438823
0.170522
-0.00813031
0.187652
0.0151717
0.221704
0.0287128
0.274514
0.044968
0.348816
0.0664969
0.447097
0.0912734
0.106118
0.556021
0.214645
-0.193733
0.140619
-0.0555429
0.11002
-0.0132839
0.104964
-0.00307395
0.116202
0.00393348
0.137741
0.00717419
0.171279
0.01143
0.220025
0.0177511
0.286348
0.02495
0.0304041
0.362062
0.108277
0.0527341
0.0394502
0.0363762
0.0403097
0.0474839
0.0589139
0.076665
0.101615
0.132019
0.608591
-0.117168
0.632273
-0.116588
0.655106
-0.109534
0.67627
-0.10038
0.695223
-0.0895841
0.711367
-0.0766165
0.724265
-0.0614054
0.733595
-0.0442661
0.739082
-0.0258907
-0.0075839
0.750238
-0.134522
0.765161
-0.131511
0.77938
-0.123754
0.792618
-0.113617
0.804692
-0.101658
0.815836
-0.0877604
0.826398
-0.0719671
0.836392
-0.0542604
0.844845
-0.0343436
-0.0114696
0.851032
-0.139164
0.853492
-0.133971
0.855019
-0.125281
0.855405
-0.114003
0.85456
-0.100813
0.852659
-0.0858588
0.849928
-0.0692361
0.846764
-0.0510969
0.843965
-0.0315444
-0.0105285
0.892678
-0.127209
0.878645
-0.119938
0.863944
-0.110581
0.849358
-0.0994167
0.835493
-0.0869484
0.82305
-0.0734158
0.812655
-0.0588411
0.804768
-0.0432105
0.799753
-0.0265293
-0.00887434
0.870437
-0.102539
0.845638
-0.0951387
0.822003
-0.0869457
0.800526
-0.0779396
0.781676
-0.0680988
0.765728
-0.0574672
0.752899
-0.0460122
0.743409
-0.0337211
0.737529
-0.0206485
-0.00695059
0.797061
-0.0728577
0.768973
-0.0670503
0.743145
-0.0611177
0.72005
-0.0548444
0.699978
-0.0480273
0.683116
-0.0406047
0.669644
-0.0325403
0.659771
-0.0238481
0.653728
-0.0146054
-0.00496115
0.683005
-0.0441466
0.65651
-0.040555
0.632404
-0.0370125
0.610878
-0.0333183
0.592143
-0.0292925
0.576394
-0.0248548
0.563827
-0.0199732
0.554645
-0.0146668
0.549043
-0.00900319
-0.00309285
0.532508
-0.0206344
0.510903
-0.01895
0.491269
-0.0173778
0.473697
-0.0157467
0.458345
-0.01394
0.445392
-0.0119024
0.435033
-0.0096142
0.427455
-0.00708914
0.422822
-0.00437015
-0.00152183
0.346779
-0.00535115
0.332637
-0.00480826
0.319743
-0.00448391
0.308129
-0.00413259
0.297902
-0.00371271
0.289209
-0.00321002
0.282215
-0.00261929
0.277072
-0.00194681
0.273911
-0.001209
-0.000428884
0.126668
0.12186
0.117376
0.113243
0.109531
0.106321
0.103701
0.101754
0.100545
0.00018504
0.0116077
-0.0117928
0.000623679
0.0304428
-0.0308814
0.00123705
0.0462365
-0.0468499
0.00197715
0.0594612
-0.0602013
0.00277636
0.0700143
-0.0708136
0.00376917
0.079881
-0.0808738
0.00396309
0.0772595
-0.0774534
0.00408444
0.0700353
-0.0701567
0.00394455
0.0610733
-0.0609334
0.0499506
0.00350682
-0.0495129
0.000533346
0.0110744
0.0018037
0.0291724
0.00358475
0.0444555
0.00574072
0.0573053
0.00807207
0.067683
0.0110386
0.0769145
0.0116748
0.0766232
0.0120797
0.0696305
0.0117724
0.0613805
0.0510729
0.0106501
0.000835416
0.0102389
0.00283156
0.0271763
0.00563859
0.0416484
0.00904073
0.0539031
0.0127383
0.0639855
0.0172458
0.0724069
0.0187884
0.0750807
0.0195699
0.068849
0.0193837
0.0615668
0.0524294
0.0180272
0.00105587
0.00918308
0.00359665
0.0246355
0.00719294
0.0380522
0.0115548
0.0495413
0.0163551
0.0591852
0.0217457
0.0670162
0.0250705
0.0717559
0.0263527
0.0675668
0.0266009
0.0613186
0.0535612
0.025469
0.00115133
0.00803176
0.0039789
0.021808
0.00804093
0.0339901
0.0129957
0.0445865
0.01855
0.0536309
0.0245554
0.0610108
0.0299497
0.0663616
0.0320874
0.0654291
0.0330086
0.0603974
0.0540861
0.0324838
0.00111136
0.0069204
0.00396557
0.0189538
0.00818477
0.0297709
0.013389
0.0393823
0.0193163
0.0477035
0.0257699
0.0545573
0.0324134
0.0597181
0.0363099
0.0615326
0.0381215
0.0585858
0.0537022
0.0385054
0.000926172
0.00599423
0.00357264
0.0163073
0.00770993
0.0256336
0.0128806
0.0342117
0.0187852
0.041799
0.0253364
0.0480061
0.0323189
0.0527356
0.0382729
0.0555786
0.0415848
0.0552739
0.0521783
0.0431087
0.000567943
0.00542629
0.00278659
0.0140886
0.00665706
0.0217632
0.0116205
0.0292482
0.0172033
0.0362162
0.0234462
0.0417632
0.0302846
0.0458972
0.0371823
0.0486808
0.0425594
0.0498968
0.0489196
0.0458181
0.000104257
0.00532203
0.0017691
0.0124238
0.00517591
0.0183564
0.0098147
0.0246095
0.0149568
0.0310741
0.0206211
0.0360989
0.0269033
0.0396151
0.0335866
0.0419975
0.0400842
0.0433992
0.0437913
0.0452125
-0.000174634
0.00549666
0.00108818
0.011161
0.00385717
0.0155874
0.00788754
0.0205791
0.0125024
0.0264592
0.0175732
0.0310281
0.023179
0.0340093
0.0292508
0.0359257
0.035637
0.037013
0.037365
0.0420632
-1.949e-05
0.00551615
0.00114244
0.00999906
0.00328036
0.0134495
0.00641603
0.0174434
0.0102988
0.0225764
0.0148409
0.026486
0.0199605
0.0288897
0.0254923
0.0303939
0.0312296
0.0312757
0.0316911
0.0369035
0.000379958
0.0051362
0.00153573
0.00884329
0.00318561
0.0117996
0.00549744
0.0151316
0.00871831
0.0193555
0.0129041
0.0223002
0.0177554
0.0240384
0.0230217
0.0251275
0.0285124
0.0257851
0.0260553
0.0341482
0.000627213
0.00450898
0.00171246
0.00775804
0.00303484
0.0104772
0.00485581
0.0133106
0.00784608
0.0163652
0.0119338
0.0182125
0.0166836
0.0192887
0.0218556
0.0199555
0.0273176
0.0203231
0.0204046
0.0329683
0.000679756
0.00382922
0.00164846
0.00678933
0.00282933
0.00929634
0.00470933
0.0114306
0.00797798
0.0130966
0.0122035
0.0139869
0.0170158
0.0144764
0.0222526
0.0147187
0.0278172
0.0147585
0.0145978
0.033624
0.000664452
0.00316477
0.00155505
0.00589873
0.00299168
0.0078597
0.00557073
0.00885153
0.00935357
0.00931373
0.0138678
0.00947273
0.0189038
0.00944036
0.0243618
0.00926066
0.0301734
0.00894687
0.00850425
0.036267
0.000592075
0.00257269
0.00170447
0.00478632
0.00403783
0.00552633
0.00748518
0.00540418
0.0117291
0.00506981
0.0165681
0.00463375
0.0219003
0.0041081
0.0276661
0.00349492
0.0338137
0.00279921
0.00203321
0.0402847
0.00051634
0.00205634
0.00245874
0.00284391
0.0057131
0.00227196
0.00970094
0.00141634
0.0142821
0.000488633
0.0194089
-0.000493013
0.0250499
-0.0015329
0.0311627
-0.00261795
0.0376879
-0.0037259
-0.00484449
0.0445656
0.000853759
0.00120258
0.0035876
0.000110063
0.00714219
-0.00128264
0.011321
-0.00276247
0.016107
-0.00429736
0.0215087
-0.00589474
0.0274868
-0.00751103
0.0339539
-0.00908502
0.0408276
-0.0105996
-0.0120827
0.0480658
0.00149857
-0.000296001
0.00413045
-0.00252183
0.00755003
-0.00470222
0.0117558
-0.00696822
0.0167543
-0.0092959
0.0224737
-0.0116142
0.028753
-0.0137903
0.0354708
-0.0158028
0.0425977
-0.0177265
-0.0196167
0.0501317
0.00107829
0.00318937
0.00650864
0.0109576
0.01632
0.0222879
0.0286975
0.0355722
0.0429752
0.050886
0.051428
0.0836792
-0.0982037
0.0772588
-0.00738223
-0.0184485
0.0997701
-0.0507902
0.0282789
0.113334
-0.0465712
0.0330078
0.121249
-0.0265742
0.0186587
0.124905
-0.00808687
0.0044307
0.126429
0.0016708
-0.00319465
0.127667
0.00341933
-0.00465698
0.129308
0.00207902
-0.00372031
-0.000346734
-0.00180105
0.0585861
0.0592412
0.0915425
-0.0403387
0.118619
-0.0778665
0.134532
-0.062485
0.143213
-0.035255
0.146907
-0.0117806
0.148233
0.000345238
0.149305
0.0023472
0.150859
0.000525536
-0.00228055
0.0665375
0.025672
0.104824
-0.0786248
0.135736
-0.108779
0.155306
-0.0820553
0.165266
-0.0452152
0.169022
-0.0155361
0.170024
-0.000656723
0.170748
0.00162315
0.171999
-0.000725328
-0.0038117
0.0753445
-0.0160486
0.117559
-0.120839
0.151351
-0.142571
0.174703
-0.105407
0.186733
-0.0572457
0.190803
-0.0196057
0.191492
-0.00134593
0.191783
0.00133189
0.192593
-0.00153512
-0.00480574
0.0843264
-0.064108
0.129292
-0.165805
0.165221
-0.178499
0.191873
-0.13206
0.206834
-0.0722064
0.211805
-0.0245771
0.212339
-0.0018797
0.212194
0.00147663
0.212489
-0.0018305
-0.00518413
0.0927291
-0.116552
0.139702
-0.212778
0.177269
-0.216066
0.206431
-0.161221
0.224679
-0.0904548
0.231463
-0.0313606
0.232203
-0.00262024
0.231729
0.00195064
0.231515
-0.00161682
-0.00492937
0.0999098
-0.171897
0.148536
-0.261404
0.187421
-0.254952
0.218316
-0.192116
0.239548
-0.111687
0.249092
-0.0409045
0.250656
-0.0041843
0.250087
0.00251989
0.249454
-0.000983891
-0.00408853
0.105536
-0.229367
0.155688
-0.311556
0.195651
-0.294915
0.227674
-0.224139
0.251118
-0.13513
0.263901
-0.0536876
0.267167
-0.00745032
0.266927
0.00276004
0.266075
-0.000131958
-0.0027791
0.109593
-0.288829
0.161208
-0.36317
0.202019
-0.335726
0.234735
-0.256855
0.259482
-0.159878
0.275195
-0.0694008
0.280995
-0.0132501
0.281694
0.00206093
0.28094
0.000621778
-0.00121102
0.11238
0.16526
0.206681
0.23975
0.265073
0.282669
0.291303
0.29388
0.293793
0.013199
0.00607781
-0.0192768
0.0109824
0.00221662
0.0114954
-0.000513074
0.0128953
-0.00139987
0.0136015
-0.000706208
0.0137319
-0.0001304
0.0135669
0.000165053
0.0133467
0.000220172
0.0131528
0.000193972
0.000129876
0.0372452
0.0232141
-0.0543815
0.0314798
0.00798198
0.033963
-0.00299628
0.0379603
-0.00539717
0.0401052
-0.0028511
0.0405239
-0.00054913
0.0400567
0.000632265
0.0394271
0.000849807
0.0388953
0.000725822
0.000420888
0.0579628
0.0480903
-0.082839
0.0508647
0.0150801
0.0558212
-0.00795276
0.0623103
-0.0118864
0.0659307
-0.00647145
0.0667074
-0.00132583
0.0659909
0.00134882
0.0649955
0.00184521
0.0641804
0.00154097
0.000827106
0.0739078
0.0753857
-0.101203
0.0680626
0.0209253
0.0763463
-0.0162364
0.0855627
-0.0211027
0.0908141
-0.0117229
0.0920781
-0.00258987
0.0911963
0.00223066
0.089901
0.0031405
0.088877
0.00256507
0.00130269
0.0814119
-0.10423
0.0838885
0.0959308
0.107836
0.114772
0.116613
0.115649
0.114133
0.112977
0.00273334
-0.000172904
-0.00256043
0.00326414
-0.000530804
0.00417626
-0.000912114
0.00548715
-0.00131089
0.00718336
-0.00169621
0.00922771
-0.00204435
0.0115841
-0.0023564
0.0141723
-0.0025882
0.0168574
-0.00268509
-0.00241942
0.0077865
-0.00064562
-0.00731378
0.00923322
-0.00197752
0.0117123
-0.00339119
0.0152683
-0.00486687
0.019882
-0.00630999
0.0254795
-0.00764183
0.0319613
-0.00883822
0.0391523
-0.0097792
0.0467633
-0.0102961
-0.0100376
0.0124766
-0.00138359
-0.0117386
0.014726
-0.00422696
0.0185585
-0.00722363
0.0240219
-0.0103303
0.0310758
-0.0133639
0.0395819
-0.016148
0.0493231
-0.0185794
0.0600458
-0.0205018
0.0714092
-0.0216596
-0.0214674
0.0168055
-0.00234743
-0.0158417
0.0197295
-0.00715088
0.0246722
-0.0121663
0.031648
-0.0173061
0.0405458
-0.0222617
0.0511011
-0.0267033
0.0629314
-0.0304098
0.0756876
-0.033258
0.0888537
-0.0348257
-0.033817
0.0207907
-0.0196313
0.0242899
0.0301508
0.0383137
0.0485358
0.0603379
0.0730369
0.085597
0.0959837
0.0314899
-0.0312819
0.0370948
-0.0373029
0.0256228
-0.0308787
0.0367458
0.0199581
-0.0300461
0.0357108
0.014705
-0.0286507
0.0339038
0.0100773
-0.0264441
0.0310719
0.0062147
-0.0227629
0.0266255
0.00312133
-0.0176429
0.0207363
0.00102323
-0.0136184
0.0157165
-8.3012e-05
-0.0101555
0.0112617
-0.00563298
0.00554998
0.0295315
-0.0254104
-0.035403
0.0238081
-0.0251553
0.0183108
-0.0245488
0.0132164
-0.0235562
0.00877617
-0.0220039
0.00537268
-0.0193594
0.00303479
-0.015305
0.00140716
-0.0119907
0.000304268
-0.00905258
-0.00532871
0.0295156
-0.0194152
-0.0355108
0.0237048
-0.0193445
0.0181807
-0.0190246
0.0130596
-0.0184351
0.00854342
-0.0174878
0.00508197
-0.0158979
0.0030301
-0.0132531
0.00166199
-0.0106226
0.000591735
-0.00798233
-0.00473698
0.0314107
-0.0131497
-0.0376762
0.0253801
-0.0133139
0.0196673
-0.0133118
0.0143592
-0.0131269
0.00959474
-0.0127233
0.00569719
-0.0120004
0.00323102
-0.0107869
0.00178262
-0.00917419
0.000737908
-0.00693761
-0.00399906
0.0349372
-0.00650238
-0.0415846
0.0285721
-0.00694869
0.0225606
-0.00730033
0.0169695
-0.00753587
0.0118904
-0.00764425
0.00750634
-0.00761627
0.00416066
-0.00744124
0.00200847
-0.00702199
0.000803572
-0.0057327
-0.00319548
0.039144
0.000581999
-0.0462284
0.032385
-0.000189666
0.026023
-0.000938329
0.0201311
-0.00164398
0.0147696
-0.00228273
0.0100018
-0.0028485
0.00591155
-0.00335094
0.00267002
-0.00378045
0.000719179
-0.00378185
-0.0024763
0.0428575
0.00806086
-0.0503363
0.0357188
0.00694898
0.0289747
0.00580586
0.0227228
0.00460791
0.0170609
0.0033791
0.012027
0.00218543
0.00760655
0.00106954
0.00381198
1.41299e-05
0.00096668
-0.000936541
-0.00150961
0.0450449
0.0158171
-0.0528012
0.0376623
0.0143316
0.0306528
0.0128154
0.0240565
0.0112042
0.0180154
0.00942019
0.0127074
0.00749351
0.00820453
0.00557239
0.00448789
0.00373078
0.00160387
0.00194748
9.42645e-05
0.0451867
0.0238644
-0.0532339
0.0376183
0.0219
0.030531
0.0199027
0.0238425
0.0178926
0.0175311
0.0157316
0.0117938
0.0132308
0.00699419
0.010372
0.00339851
0.00732647
0.00114025
0.00420575
0.00123452