/*--------------------------------*- C++ -*----------------------------------*\
  =========                 |
  \\      /  F ield         | OpenFOAM: The Open Source CFD Toolbox
   \\    /   O peration     | Website:  https://openfoam.org
    \\  /    A nd           | Version:  13
     \\/     M anipulation  |
\*---------------------------------------------------------------------------*/
FoamFile
{
    format      ascii;
    class       volScalarField;
    location    "0.355";
    object      strainRateViscosityModel:nu;
}
// * * * * * * * * * * * * * * * * * * * * * * * * * * * * * * * * * * * * * //

dimensions      [0 2 -1 0 0 0 0];

internalField   nonuniform List<scalar> 
1800
(
9.40489
9.19758
9.01001
8.80085
8.576
8.34397
8.11532
7.89814
7.62442
7.37965
9.58524
9.41878
9.26688
9.09727
8.91109
8.71132
8.50346
8.28861
8.02736
7.70229
9.7022
9.56269
9.42802
9.27093
9.08863
8.87892
8.64084
8.36898
8.03061
7.61075
9.7754
9.65614
9.53324
9.38286
9.20047
8.98168
8.72276
8.41593
8.02881
7.55468
9.82168
9.71831
9.60559
9.46166
9.2807
9.05694
8.78547
8.45887
8.04778
7.55624
9.85186
9.76082
9.65731
9.52059
9.34355
9.11896
8.84034
8.50016
8.07154
7.57026
9.8718
9.78992
9.69399
9.56397
9.39148
9.16769
8.88421
8.53253
8.08737
7.57571
9.88475
9.80925
9.71889
9.59396
9.42496
9.20147
8.91311
8.55006
8.08855
7.56358
9.89261
9.82108
9.73417
9.61222
9.44468
9.21964
8.92485
8.54924
8.07123
7.52873
9.89647
9.82687
9.74154
9.62071
9.45311
9.22575
8.92514
8.53955
8.05039
7.49286
1.73043
1.4054
1.22501
1.32991
1.72351
2.23285
2.48322
2.4465
2.36021
2.33587
3.65137
1.79531
1.50767
1.97816
2.67548
2.96228
2.82452
2.6831
2.69522
2.7457
4.65469
2.58326
2.44576
3.16588
3.584
3.35372
3.09785
3.12986
3.26464
3.34392
5.24486
3.89011
3.82019
4.20749
4.17889
3.83944
3.73266
3.86199
3.96295
4.01251
6.04634
5.27866
5.11976
5.11918
4.91552
4.65859
4.58384
4.6173
4.61842
4.65877
6.95668
6.46091
6.22735
6.03742
5.7883
5.54713
5.39195
5.2971
5.22711
5.27997
7.77084
7.37789
7.11675
6.8597
6.58692
6.3207
6.08825
5.90301
5.77332
5.82719
8.39992
8.05526
7.79181
7.51528
7.2259
6.9308
6.64225
6.38713
6.19394
6.23136
8.8493
8.5453
8.2908
8.00994
7.7052
7.37899
7.03536
6.70132
6.41661
6.42309
9.16164
8.90149
8.6662
8.39644
8.09539
7.76542
7.40621
7.0357
6.70911
6.75337
2.19207
1.728
1.32796
0.922613
0.585872
0.280365
0.0938542
0.0325641
0.0244704
0.0269782
2.5316
1.85373
1.41165
0.929209
0.570076
0.265172
0.0713276
0.0175799
0.0120514
0.0102694
2.95524
1.98712
1.49067
0.937801
0.549807
0.248692
0.058784
0.0151213
0.0113086
0.0100894
3.44863
2.15834
1.56544
0.948977
0.526733
0.231347
0.0528208
0.0147637
0.0112287
0.0100707
3.99015
2.39565
1.64351
0.962395
0.501711
0.212358
0.0499428
0.0147977
0.0112212
0.0100658
4.53429
2.70555
1.73889
0.980096
0.476401
0.191139
0.0478893
0.0150287
0.0112742
0.0100745
5.00161
3.06433
1.85959
1.00255
0.451255
0.167046
0.0450752
0.0153867
0.0113832
0.0100974
5.31677
3.44685
2.02602
1.04498
0.433825
0.142263
0.0408864
0.0156931
0.0115144
0.0101242
5.34701
3.72986
2.1751
1.07702
0.413668
0.115283
0.0341066
0.0156472
0.0112427
0.0100398
5.20546
3.9965
2.41165
1.1821
0.431231
0.103044
0.0302363
0.0119906
0.0103413
0.0232452
4.94849
3.95027
2.46958
1.19849
0.405269
0.0666061
0.0109052
0.017568
0.0752697
0.161598
5.336
3.35795
2.14914
1.00027
0.334984
0.061247
0.055672
0.172358
0.261306
0.319294
4.90804
3.04226
2.23161
1.17044
0.543278
0.224067
0.204979
0.281145
0.359937
0.431477
4.54234
3.61846
2.65905
1.60762
0.854185
0.427843
0.320836
0.390245
0.473245
0.542607
5.10947
4.74085
3.33112
2.14619
1.2152
0.678983
0.489403
0.507794
0.571948
0.633523
6.25351
5.66808
4.0548
2.66788
1.58856
0.949661
0.674009
0.631798
0.668031
0.713064
7.26291
6.37423
4.715
3.1547
1.95553
1.22667
0.873771
0.762872
0.75945
0.779655
8.00035
6.91271
5.26167
3.59119
2.30313
1.50161
1.07812
0.898234
0.848728
0.836921
8.51887
7.33114
5.69871
3.97237
2.62582
1.76476
1.27458
1.02671
0.928423
0.882287
8.93102
7.6913
6.05051
4.28502
2.93329
2.04576
1.49582
1.17567
1.02118
0.929743
6.51285
6.43967
6.4305
6.4489
6.48764
6.5304
6.58263
6.71133
6.89621
6.82746
0.260907
1.0577
2.00858
2.924
3.70533
4.31838
4.73558
4.98563
5.22533
5.73165
3.85037
3.54331
3.28376
3.11022
3.10528
3.24922
3.47204
3.71399
4.16636
4.84761
6.64447
6.62748
6.53727
6.34458
6.04271
5.65658
5.24745
4.89313
4.73607
4.54618
7.692
7.67669
7.63227
7.54144
7.39626
7.18989
6.92688
6.61888
6.28472
5.65405
8.44961
8.43321
8.39444
8.32782
8.22968
8.09684
7.9285
7.71694
7.42793
6.90761
8.93972
8.92398
8.89033
8.83684
8.76172
8.66297
8.53825
8.37904
8.15481
7.8088
9.273
9.25983
9.23248
9.18987
9.13054
9.05248
8.95273
8.82487
8.65289
8.43102
9.50447
9.49417
9.47308
9.44025
9.39427
9.3332
9.25425
9.15288
9.02291
8.87539
9.6899
9.68284
9.66852
9.64604
9.61405
9.5707
9.51361
9.43975
9.34637
9.2441
7.24968
7.52718
7.8372
8.08754
8.34451
8.59931
8.84114
9.06144
9.25455
9.46032
7.58397
7.94844
8.24095
8.48093
8.70911
8.92461
9.12217
9.29894
9.45391
9.61811
7.49905
7.95756
8.32587
8.62032
8.87557
9.09759
9.28797
9.44949
9.58537
9.72229
7.44727
7.95771
8.37368
8.70187
8.97646
9.20588
9.39467
9.54805
9.67132
9.78826
7.45657
7.98072
8.41855
8.76481
9.05047
9.28351
9.46976
9.61591
9.7287
9.83024
7.48254
8.0117
8.46398
8.82142
9.1123
9.34473
9.52605
9.66447
9.76798
9.85765
7.5037
8.03786
8.50275
8.8686
9.16196
9.39189
9.56764
9.69891
9.7948
9.87571
7.51117
8.05246
8.52871
8.90208
9.19747
9.42521
9.59641
9.72214
9.81244
9.8873
7.49838
8.05046
8.53742
8.91899
9.21769
9.44504
9.61373
9.73607
9.82291
9.89405
7.48289
8.04359
8.53594
8.92346
9.22527
9.45332
9.62125
9.74218
9.82747
9.89694
2.53393
2.49397
2.517
2.72487
2.889
2.50165
1.66539
1.1717
1.51284
4.11647
2.94985
2.86183
2.70728
2.7129
3.09892
3.40405
2.78481
1.88181
2.10236
5.09804
3.45265
3.40669
3.24798
3.06618
3.27017
3.82278
3.78868
3.13628
3.25936
5.43356
3.95604
3.94365
3.91415
3.80307
3.89542
4.32076
4.58547
4.45335
4.63903
5.89498
4.51193
4.48415
4.55704
4.62489
4.78515
5.11584
5.43658
5.61161
5.88485
6.61996
5.11326
5.07052
5.20789
5.4029
5.66035
5.9813
6.30743
6.59182
6.89552
7.40119
5.66241
5.62562
5.82423
6.09417
6.40914
6.74076
7.06747
7.37629
7.6765
8.08454
6.07269
6.0573
6.31834
6.64375
6.9951
7.33917
7.66634
7.97315
8.25802
8.61048
6.26455
6.28247
6.63255
7.02623
7.41972
7.7837
8.11599
8.41608
8.68243
8.98786
6.60316
6.57218
6.9569
7.37951
7.78093
8.14259
8.46606
8.75012
8.99286
9.2519
0.0986594
0.141018
0.0820309
0.0352977
0.0117607
0.317571
0.868173
1.43749
1.91843
2.40714
0.0656254
0.129152
0.0803078
0.0355326
0.0142298
0.312427
0.884773
1.51395
2.01187
2.68706
0.0447456
0.125475
0.0822107
0.0408146
0.0237969
0.323653
0.909641
1.5806
2.09822
3.01204
0.0327362
0.128644
0.0874947
0.0506606
0.04236
0.34649
0.936873
1.63407
2.2142
3.4078
0.0270344
0.136876
0.0949934
0.0631565
0.0671159
0.373872
0.961313
1.68285
2.39859
3.88056
0.025865
0.14845
0.103405
0.0762007
0.0940544
0.400666
0.984271
1.7482
2.66625
4.37679
0.0288833
0.162404
0.111521
0.0876891
0.118332
0.422094
1.00858
1.84656
2.99657
4.80576
0.0376133
0.179061
0.11886
0.0970349
0.139056
0.444541
1.05725
2.00512
3.36141
5.08889
0.0558638
0.199363
0.125474
0.100868
0.146512
0.451628
1.09611
2.1543
3.63804
5.09115
0.0874253
0.221985
0.133264
0.106807
0.166309
0.501402
1.23169
2.4114
3.88802
4.89923
0.146639
0.250898
0.146969
0.106801
0.154947
0.491621
1.28643
2.52202
3.89627
4.68163
0.252182
0.283749
0.14156
0.090354
0.0906062
0.365303
1.1325
2.31441
3.44252
5.20164
0.417487
0.282624
0.122487
0.0243739
0.0148479
0.276139
1.10747
2.33012
3.25028
4.94264
0.669874
0.273398
0.0269115
0.0839081
0.127638
0.478732
1.38402
2.58807
3.69279
4.6904
1.05133
0.0601078
0.239889
0.287767
0.356621
0.859389
1.9073
3.18262
4.69273
5.16798
1.5136
0.0968473
0.534879
0.472052
0.643849
1.2937
2.46282
3.90717
5.59373
6.22058
2.18932
0.689877
0.851923
0.749591
0.99244
1.73899
2.99052
4.59077
6.30186
7.21644
3.78973
1.69703
1.2775
1.09204
1.36823
2.1627
3.46616
5.16578
6.85476
7.96917
6.85944
3.5755
1.9684
1.4699
1.72746
2.54495
3.88307
5.63337
7.29583
8.50739
9.04899
6.38457
2.85429
2.04168
2.15962
2.92592
4.23911
6.02244
7.68684
8.93799
6.62807
6.69045
6.51313
6.39085
6.34996
6.32332
6.30598
6.31753
6.36201
6.47629
5.53634
5.01718
4.77227
4.53009
4.13093
3.54403
2.80121
1.93386
1.04572
0.2846
4.85438
4.23862
3.82752
3.6155
3.4276
3.30755
3.31252
3.45544
3.654
3.87364
4.70624
4.87924
5.02255
5.33353
5.69943
6.05112
6.33363
6.52159
6.61689
6.64194
5.68275
6.28295
6.61076
6.91075
7.17233
7.38167
7.53208
7.6284
7.67692
7.69258
6.86504
7.38843
7.68457
7.90258
8.07686
8.21508
8.318
8.38872
8.43068
8.449
7.76539
8.12075
8.3522
8.5181
8.64811
8.7511
8.82965
8.8859
8.9217
8.93905
8.40475
8.63281
8.80897
8.94099
9.04406
9.12469
9.18599
9.23008
9.25856
9.27261
8.86618
9.0162
9.14761
9.25059
9.33082
9.39282
9.43943
9.47267
9.494
9.50442
9.24859
9.35037
9.44295
9.51625
9.5729
9.61585
9.64746
9.66955
9.68347
9.69011
9.5093
8.98505
8.2355
6.92787
5.59781
0.131171
3.36072
5.96009
7.21365
8.15146
9.46524
8.92125
8.16772
6.89018
5.54922
0.563749
2.62211
5.70575
6.91598
7.91352
9.36547
8.78248
8.01984
6.80917
5.36614
1.60346
1.41344
5.20641
6.3089
7.40281
9.18228
8.54472
7.774
6.65461
5.18613
2.73999
0.722969
4.23817
5.42115
6.57094
8.86776
8.1731
7.40343
6.37635
5.0261
3.3679
0.970874
2.63138
4.31659
5.39324
8.35005
7.62912
6.87273
5.91659
4.76457
3.43978
1.71923
1.30168
3.04894
3.98765
7.53545
6.89587
6.15474
5.22679
4.29903
3.26919
2.14303
1.17239
1.65587
2.55703
6.32477
6.03669
5.28042
4.23114
3.53286
2.91222
2.11829
1.43508
1.06828
1.235
4.63132
5.23116
4.47329
2.99911
2.43682
2.27421
1.85584
1.38464
1.12244
0.658868
2.67291
4.53804
4.02023
1.96678
1.39698
1.48842
1.40987
1.21152
1.06373
0.84501
1.27723
3.78658
3.66467
1.33813
0.816783
0.897915
0.971098
0.95608
0.971385
1.01954
0.614003
2.96572
3.07929
0.958385
0.576197
0.640078
0.759132
0.819647
0.843606
0.876693
0.355802
2.18327
2.28073
0.690079
0.49307
0.594547
0.725166
0.809599
0.84751
0.872475
0.265733
1.54301
1.48268
0.521425
0.532914
0.671565
0.784724
0.855819
0.879456
0.890037
0.24021
1.013
0.838707
0.509699
0.664534
0.797884
0.898811
0.962332
0.978342
0.975677
0.243498
0.492282
0.49269
0.627964
0.808669
0.945878
1.04368
1.10184
1.11285
1.105
0.180506
0.20196
0.499394
0.74552
0.962298
1.10839
1.19947
1.24746
1.26409
1.26434
0.046418
0.245821
0.640266
0.909716
1.12393
1.24399
1.32102
1.38924
1.44378
1.46478
0.0562463
0.486243
0.812467
1.08839
1.22654
1.33454
1.47953
1.63329
1.71983
1.73635
0.668361
0.851727
1.03833
1.18997
1.32602
1.58847
1.89268
2.06344
2.07045
2.03985
0.362851
0.0801897
0.220387
0.544228
0.785992
0.875995
0.862388
0.823559
0.80322
0.814854
0.461996
0.201635
0.314333
0.51359
0.714321
0.793137
0.779284
0.745084
0.731375
0.750867
0.525071
0.368754
0.434057
0.50447
0.642574
0.710542
0.697052
0.666075
0.657926
0.683597
0.636392
0.581139
0.587606
0.545068
0.574737
0.620321
0.609477
0.584186
0.582449
0.613176
0.800429
0.793268
0.731191
0.625962
0.527343
0.529369
0.519682
0.500918
0.505333
0.539727
1.00047
0.98614
0.861023
0.722458
0.513611
0.443192
0.428321
0.416314
0.42636
0.46297
1.2155
1.15557
0.972836
0.806373
0.531796
0.371801
0.338196
0.331783
0.346703
0.383974
1.43864
1.30942
1.07021
0.864883
0.562958
0.324792
0.253371
0.246931
0.264134
0.300424
1.67236
1.45531
1.15824
0.898427
0.58637
0.302701
0.179941
0.166767
0.185502
0.218005
1.91846
1.59555
1.24306
0.914672
0.593218
0.292186
0.127124
0.0860481
0.0951853
0.126044
2.00863
0.747131
0.716654
0.960052
1.18896
1.2746
1.25441
1.20081
1.15203
1.11188
1.39414
0.483255
0.578415
0.869624
1.10123
1.18737
1.16955
1.1201
1.07799
1.04984
0.751512
0.28863
0.480555
0.792699
1.02716
1.11441
1.09832
1.05191
1.0153
0.99694
0.25312
0.171427
0.404414
0.720678
0.952114
1.03699
1.02079
0.976937
0.946
0.938134
0.435358
0.0331075
0.265983
0.607695
0.856274
0.951692
0.940599
0.900254
0.874811
0.877223
9.35443
9.28982
9.14072
8.87275
8.43711
7.77833
6.87069
5.75861
4.58132
3.53651
9.19222
9.09537
8.88077
8.51124
7.94098
7.13582
6.10891
4.95436
3.8441
2.78631
9.02359
8.89994
8.62623
8.16057
7.46117
6.51546
5.37069
4.16794
3.08069
1.94204
8.81599
8.66184
8.32107
7.7474
6.90554
5.81355
4.55429
3.2942
2.22535
1.08969
8.58714
8.37899
7.92537
7.1769
6.11189
4.79147
3.3501
2.08471
0.99354
0.301793
1.06244
1.02689
1.0195
1.02325
0.917957
0.801661
1.29504
3.67882
3.85548
1.3252
0.951947
0.936822
0.929889
0.874566
0.722457
0.591928
0.914537
3.13513
3.10196
0.649082
0.988463
0.984966
0.968361
0.895608
0.750879
0.589332
0.703869
2.36174
2.33275
0.3785
1.05399
1.06547
1.06113
1.00152
0.891456
0.74462
0.66091
1.54266
1.6149
0.277991
1.18244
1.20588
1.21103
1.16334
1.07349
0.950012
0.787718
0.895945
0.901443
0.246932
1.34136
1.36095
1.36882
1.34244
1.27121
1.1379
0.918034
0.658569
0.351559
0.215768
1.5371
1.53318
1.502
1.45979
1.40609
1.29526
1.05594
0.73763
0.268746
0.0659681
1.79533
1.78763
1.7058
1.55788
1.42279
1.32477
1.18343
0.876829
0.482201
0.046224
2.0714
2.11582
2.10857
1.91464
1.58256
1.30678
1.17372
1.03462
0.829751
0.658756
2.2828
2.33052
2.45081
2.48962
2.1811
1.59638
1.16865
1.06021
1.2839
1.96674
8.15126
7.21329
5.95973
3.36021
0.131428
5.59635
6.92738
8.2353
8.98506
9.5094
7.91283
6.91487
5.70475
2.6215
0.563624
5.54537
6.88873
8.16714
8.9213
9.46555
7.40136
6.30702
5.20462
1.41531
1.59976
5.36164
6.8069
8.01896
8.7826
9.36606
6.5683
5.41827
4.23597
0.726116
2.73176
5.1814
6.65176
7.77302
8.54505
9.18331
5.38884
4.31205
2.63212
0.971082
3.35665
5.02015
6.37289
7.40249
8.17383
8.86952
3.9791
3.04071
1.30964
1.71376
3.42659
4.75568
5.91176
6.87181
7.63056
8.35304
2.53985
1.65212
1.18771
2.13357
3.25059
4.28226
5.21799
6.1537
6.89863
7.54084
1.21552
1.08762
1.45311
2.10796
2.87999
3.50232
4.21672
5.28079
6.04228
6.33576
0.671332
1.15426
1.4087
1.84323
2.23195
2.40024
2.98355
4.47742
5.24162
4.65625
0.886762
1.10409
1.24939
1.41467
1.46516
1.37009
1.9437
4.0233
4.56234
2.71864
2.08715
0.542289
1.05226
0.652404
0.690613
0.763687
0.630773
0.29811
0.0650068
0.357456
1.62645
0.239845
0.857365
0.502571
0.596337
0.683904
0.588055
0.354595
0.268762
0.490207
1.331
0.0542105
0.62916
0.364581
0.505727
0.60095
0.553504
0.458341
0.474144
0.592918
1.09158
0.0163747
0.377742
0.25701
0.417583
0.513612
0.552128
0.623922
0.728499
0.758376
0.838267
0.0967803
0.182297
0.175562
0.334116
0.433207
0.59814
0.797727
0.96377
0.972887
0.625299
0.160262
0.043141
0.121642
0.254607
0.374823
0.680626
0.958144
1.1745
1.21292
0.452355
0.206578
0.0543078
0.0262322
0.183623
0.350073
0.764901
1.08974
1.35718
1.46007
0.319125
0.20435
0.0865132
0.013203
0.106004
0.35106
0.823282
1.19417
1.52012
1.70619
0.21966
0.185561
0.0888956
0.0368161
0.039046
0.352968
0.851057
1.28017
1.66875
1.94201
0.148206
0.160807
0.0866565
0.0370969
0.0150039
0.336092
0.860361
1.35894
1.80315
2.16642
9.33652
6.7702
2.66866
1.71708
1.22526
1.13903
0.982746
0.792259
0.801031
2.03397
8.21084
4.63619
2.2166
1.43608
1.0954
1.05258
0.905711
0.659933
0.531805
1.39879
6.11978
3.06371
1.78539
1.22998
0.992203
0.986108
0.843291
0.568037
0.331949
0.740651
4.132
1.87532
1.49463
1.02432
0.887681
0.916394
0.783134
0.49224
0.231386
0.22285
2.83337
1.06163
1.24083
0.825326
0.784638
0.834832
0.688485
0.357183
0.0444635
0.39701
3.54763
4.58867
5.76253
6.87281
7.77984
8.43823
8.87352
9.1412
9.29008
9.35452
2.78056
3.84044
4.95161
6.10712
7.1352
7.94099
8.51145
8.881
9.09554
9.19228
1.92796
3.07131
4.16149
5.36595
6.51293
7.46004
8.16015
8.62615
8.89997
9.02362
1.05328
2.20166
3.28063
4.54601
5.80938
6.90335
7.74629
8.32061
8.6617
8.81597
0.299665
0.960269
2.06247
3.33648
4.78445
6.10832
7.17492
7.92442
8.37862
8.58705
)
;

boundaryField
{
    left
    {
        type            calculated;
        value           nonuniform List<scalar> 
35
(
0.297195
0.573085
0.995963
1.63036
2.52553
3.69379
5.0641
6.47587
8.15849
9.44179
0.196654
0.121025
0.0754344
0.050736
0.0390045
0.0350987
0.0379585
0.0518478
0.0873297
0.155085
4.9329
4.0595
3.23108
2.50938
1.91303
1.42039
1.02124
0.71171
0.479897
0.312428
9.61571
8.97912
7.92223
6.84804
5.85948
)
;
    }
    right
    {
        type            calculated;
        value           nonuniform List<scalar> 
35
(
1.11166
1.0502
0.998036
0.940291
0.880604
0.819374
0.75634
0.68965
0.619454
0.545912
0.468734
0.388971
0.304255
0.220343
0.126756
0.0265177
0.0101758
0.0100554
0.0100405
0.0100317
0.01003
0.010035
0.0100423
0.0100744
0.0268756
0.177536
0.340407
0.452395
0.562719
0.651068
0.727029
0.789309
0.842328
0.884308
0.928184
)
;
    }
    down
    {
        type            calculated;
        value           nonuniform List<scalar> 
40
(
9.45426
7.26612
2.89916
1.80538
1.26494
1.16788
1.00939
0.834254
0.901979
2.26106
3.83274
4.88191
6.03323
7.09216
7.94402
8.55457
8.95413
9.19898
9.33542
9.39467
9.39457
9.33514
9.19846
8.95327
8.55325
7.94211
7.08929
6.02806
4.87251
3.81827
2.23167
0.847034
0.7604
0.991812
1.22044
1.30438
1.28217
1.22655
1.17529
1.13133
)
;
    }
    up
    {
        type            calculated;
        value           nonuniform List<scalar> 
40
(
9.03409
7.80885
6.16814
4.39626
3.04112
2.14191
1.5686
1.22127
1.04794
0.943522
9.72926
9.72304
9.71045
9.69064
9.66233
9.62377
9.57262
9.50585
9.42075
9.32813
9.33494
9.42647
9.51032
9.57618
9.62661
9.66458
9.69236
9.71167
9.72378
9.72951
9.27068
7.09699
3.24834
2.18978
2.27727
3.04706
4.36183
6.15179
7.81379
9.0448
)
;
    }
    cylinder
    {
        type            calculated;
        value           nonuniform List<scalar> 
80
(
1.90253
4.45658
5.47066
5.74378
6.29093
7.08601
7.86061
8.47453
8.91242
9.21291
9.44583
9.61873
9.72983
9.7983
9.84096
9.86847
9.8865
9.89818
9.90523
9.9087
9.50049
9.65067
9.74907
9.81049
9.84902
9.8739
9.89017
9.90055
9.90658
9.90914
5.22325
6.1965
6.19514
6.30062
6.82396
7.52153
8.17439
8.68555
9.05064
9.30259
0.996299
0.472768
0.264862
0.183677
0.16049
0.166252
0.083305
0.0418293
0.735467
2.33086
9.59431
9.55573
9.46726
9.30163
9.00947
8.51095
7.68583
6.36659
4.38879
2.24145
9.59421
9.55541
9.46665
9.30055
9.0076
8.50775
7.67996
6.35396
4.35799
2.19167
0.953236
0.442595
0.244567
0.171082
0.150726
0.16611
0.163937
0.0857947
0.0435066
0.702436
)
;
    }
    defaultFaces
    {
        type            empty;
    }
}


// ************************************************************************* //
