# Selection   : all
# Cells       : 440
# Volume      : 7.374263e+01
# Time        	max(p)
5.615         	2.367870e+00
5.66          	2.374190e+00
5.71          	2.386364e+00
