/*--------------------------------*- C++ -*----------------------------------*\
  =========                 |
  \\      /  F ield         | OpenFOAM: The Open Source CFD Toolbox
   \\    /   O peration     | Website:  https://openfoam.org
    \\  /    A nd           | Version:  13
     \\/     M anipulation  |
\*---------------------------------------------------------------------------*/
FoamFile
{
    format      ascii;
    class       volScalarField;
    location    "2.615";
    object      p;
}
// * * * * * * * * * * * * * * * * * * * * * * * * * * * * * * * * * * * * * //

dimensions      [0 2 -2 0 0 0 0];

internalField   nonuniform List<scalar> 
440
(
-1.39507
-1.36679
-1.35369
-1.36264
-1.44865
-1.44913
-1.41929
-1.39716
-1.38607
-1.39162
-1.58545
-1.54761
-1.50561
-1.45525
-1.40324
-1.74032
-1.69041
-1.59296
-1.47631
-1.35864
-1.84914
-1.77809
-1.61493
-1.44445
-1.29028
-1.02882
-1.03287
-1.04753
-1.06879
-1.07975
-1.23149
-1.23578
-1.25747
-1.29423
-1.32617
-1.39103
-1.39236
-1.41073
-1.44786
-1.49381
-1.44317
-1.43278
-1.43206
-1.44958
-1.48244
-1.40389
-1.38088
-1.36
-1.3647
-1.39121
-0.932171
-0.190115
0.0011406
0.039653
0.021747
-1.11957
-0.256322
-0.00484769
0.0377169
0.021613
-1.2936
-0.316346
-0.0194778
0.0323707
0.0205619
-1.42495
-0.378888
-0.0445992
0.0221963
0.0178236
-1.47459
-0.457643
-0.0789973
0.0065877
0.012907
-1.32673
-0.479569
-0.113126
-0.0177544
0.0039968
-0.986455
-0.4334
-0.14242
-0.0521234
-0.0110426
-0.838097
-0.42399
-0.161752
-0.0555142
-0.0113375
-0.697094
-0.422843
-0.209982
-0.0862779
-0.021909
-0.589247
-0.414031
-0.231625
-0.0956793
-0.0212277
-1.02792
-1.13985
-1.29548
-1.42765
-1.57897
-0.757795
-0.888969
-0.990407
-1.06119
-1.09886
-0.582471
-0.70202
-0.77858
-0.835226
-0.867393
-0.469525
-0.57873
-0.650074
-0.697253
-0.720134
-0.416287
-0.522754
-0.591808
-0.630076
-0.633068
0.314555
0.155398
-0.042045
-0.265858
-0.524557
-0.105669
-0.279183
-0.494248
-0.738408
-1.01781
-0.51871
-0.702485
-0.930306
-1.18682
-1.43656
-0.88095
-1.06672
-1.29343
-1.53723
-1.72984
-1.1266
-1.3091
-1.51809
-1.73507
-1.85933
1.59786
1.61997
1.63987
1.64646
1.63672
1.3945
1.40401
1.40381
1.38468
1.34376
1.15619
1.13745
1.09439
1.02632
0.930753
0.877909
0.831707
0.747729
0.630041
0.478346
0.603371
0.496762
0.353676
0.18176
-0.0269406
1.43597
1.36009
1.40348
1.42708
1.52422
1.424
1.34645
1.38271
1.39411
1.43165
1.41286
1.33071
1.36002
1.34834
1.3136
1.40254
1.31381
1.33469
1.29357
1.13856
1.39332
1.29582
1.30741
1.23102
0.951239
1.38337
1.27103
1.27118
1.13554
0.75385
1.37432
1.24236
1.24228
1.04181
0.754332
1.37531
1.22537
1.22092
0.981893
0.727553
1.37108
1.20214
1.20547
0.937702
0.711125
1.40164
1.19803
1.19629
0.911352
0.7089
0.306957
0.0103689
-0.331437
-0.635183
-0.843079
0.258014
0.0557272
-0.177733
-0.396855
-0.591428
0.279787
0.105977
-0.0838096
-0.267645
-0.442848
0.315273
0.154916
-0.014874
-0.180482
-0.33964
0.34112
0.186623
0.0255867
-0.13403
-0.286875
-1.08742
-0.985862
-0.856095
-0.75328
-0.693032
-1.14545
-1.09483
-1.00077
-0.929081
-0.892762
-1.0764
-1.03476
-0.984879
-0.951748
-0.941457
-0.947862
-0.915741
-0.881795
-0.861192
-0.85431
-0.84912
-0.82883
-0.809346
-0.791325
-0.822148
-0.797335
-0.782766
-0.764243
-0.751733
-0.745055
-0.838868
-0.835127
-0.837262
-0.847349
-0.860523
-0.801015
-0.8085
-0.824082
-0.844715
-0.857871
-0.79971
-0.808403
-0.823195
-0.837149
-0.840721
-0.878383
-0.884338
-0.897715
-0.91093
-0.912484
-0.840269
-0.264186
-0.0761123
0.00863649
0.015614
-0.816903
-0.201325
-0.0668944
0.0177815
0.0196362
-0.77592
-0.145426
-0.0343913
0.0279328
0.0192305
-0.761085
-0.123438
-0.0145881
0.0345608
0.0207794
-0.809119
-0.137452
-0.00194877
0.0385439
0.0213073
-0.587956
-0.411424
-0.176405
-0.0156954
0.0132628
-0.755946
-0.372213
-0.133824
0.0103467
0.0244011
-0.657913
-0.891311
-0.934736
-0.918565
-0.758579
-0.673545
-0.885737
-0.946681
-0.889235
-0.905527
1.42602
1.41396
1.38814
1.35017
1.30043
1.57369
1.59466
1.6049
1.60274
1.58862
1.69018
1.72103
1.74713
1.76357
1.76771
1.7423
1.77717
1.81502
1.8468
1.86232
1.71332
1.74494
1.78001
1.80843
1.82011
-0.321331
-0.400353
-0.525369
-0.681441
-0.848518
0.179523
0.0738278
-0.0681544
-0.239006
-0.443219
0.623193
0.512598
0.381338
0.227524
0.0436962
0.973965
0.891453
0.791345
0.67056
0.528336
1.25224
1.19926
1.12977
1.04562
0.94794
1.5036
1.40153
1.4575
1.46227
1.52612
1.48812
1.39704
1.45188
1.46843
1.56187
1.4745
1.39065
1.44546
1.47397
1.60658
1.4612
1.38243
1.43463
1.46879
1.60255
1.44836
1.37223
1.42051
1.45322
1.57797
1.55744
1.41074
1.45073
1.40778
1.41336
1.51437
1.39958
1.44787
1.42281
1.43063
1.14575
0.97652
0.668346
0.210256
-0.299849
1.22019
1.00464
0.683808
0.228978
-0.291563
)
;

boundaryField
{
    left
    {
        type            zeroGradient;
    }
    right
    {
        type            fixedValue;
        value           uniform 0;
    }
    down
    {
        type            zeroGradient;
    }
    up
    {
        type            zeroGradient;
    }
    cylinder
    {
        type            zeroGradient;
    }
    defaultFaces
    {
        type            empty;
    }
}


// ************************************************************************* //
