/*--------------------------------*- C++ -*----------------------------------*\
  =========                 |
  \\      /  F ield         | OpenFOAM: The Open Source CFD Toolbox
   \\    /   O peration     | Website:  https://openfoam.org
    \\  /    A nd           | Version:  13
     \\/     M anipulation  |
\*---------------------------------------------------------------------------*/
FoamFile
{
    format      ascii;
    class       volScalarField;
    location    "0.25";
    object      p;
}
// * * * * * * * * * * * * * * * * * * * * * * * * * * * * * * * * * * * * * //

dimensions      [0 2 -2 0 0 0 0];

internalField   nonuniform List<scalar> 
1800
(
-0.986811
-0.959472
-0.894183
-0.802565
-0.706101
-0.616027
-0.535951
-0.465587
-0.403593
-0.353046
-1.16897
-1.13828
-1.064
-0.960282
-0.851704
-0.750534
-0.660653
-0.582037
-0.514097
-0.458671
-1.34219
-1.30775
-1.22396
-1.10807
-0.987556
-0.875436
-0.775637
-0.688029
-0.611656
-0.547243
-1.50123
-1.46277
-1.3693
-1.24178
-1.11036
-0.988552
-0.880192
-0.78496
-0.701749
-0.63095
-1.64041
-1.59772
-1.49447
-1.35598
-1.21463
-1.08411
-0.968006
-0.865799
-0.776244
-0.69914
-1.75461
-1.70761
-1.59487
-1.44649
-1.29664
-1.15886
-1.03641
-0.928518
-0.833786
-0.75162
-1.8388
-1.78749
-1.66578
-1.50888
-1.35211
-1.20858
-1.08114
-0.968789
-0.869981
-0.783761
-1.88875
-1.83328
-1.70355
-1.53979
-1.37788
-1.2303
-1.09938
-0.983926
-0.882237
-0.793059
-1.90108
-1.84173
-1.70524
-1.5365
-1.37137
-1.22145
-1.08859
-0.971426
-0.868106
-0.777095
-1.87366
-1.81092
-1.6692
-1.49745
-1.33102
-1.18046
-1.0471
-0.929481
-0.825637
-0.733862
0.341214
0.355752
0.370717
0.385059
0.396336
0.403498
0.406812
0.407003
0.404768
0.400704
0.299075
0.313846
0.330348
0.347242
0.36153
0.371733
0.377901
0.380711
0.38087
0.379126
0.230958
0.246106
0.264971
0.285777
0.304655
0.319484
0.329986
0.336766
0.340552
0.342348
0.138103
0.153787
0.175826
0.201847
0.226794
0.247705
0.263888
0.275854
0.28436
0.290772
0.022201
0.0386097
0.0646135
0.0970814
0.129443
0.157726
0.180763
0.198951
0.213092
0.225007
-0.114492
-0.0971328
-0.0664046
-0.0263616
0.0145939
0.0513387
0.0821972
0.107436
0.127918
0.145993
-0.269064
-0.250487
-0.214331
-0.165741
-0.115248
-0.0692104
-0.02982
0.00305599
0.030359
0.0549697
-0.437861
-0.417753
-0.375519
-0.317588
-0.256888
-0.201049
-0.152753
-0.111986
-0.0776632
-0.0465262
-0.616625
-0.594591
-0.545535
-0.477384
-0.405744
-0.339548
-0.281955
-0.233051
-0.191487
-0.15408
-0.801036
-0.776595
-0.719798
-0.64027
-0.556507
-0.478707
-0.410425
-0.351762
-0.301188
-0.257031
0.359545
0.278363
0.22008
0.175589
0.140088
0.110403
0.0838975
0.0591133
0.0351969
0.0116852
0.35231
0.275081
0.219316
0.175539
0.140112
0.110357
0.0838028
0.0590115
0.0351186
0.011647
0.338542
0.268522
0.217107
0.174927
0.139977
0.110306
0.0837561
0.0589652
0.0350802
0.0116225
0.317461
0.25892
0.213511
0.173757
0.139671
0.110241
0.0837499
0.0589687
0.0350784
0.0116109
0.288017
0.246564
0.208609
0.172036
0.139185
0.110152
0.0837766
0.0590162
0.0351096
0.0116117
0.249082
0.231715
0.202501
0.16978
0.138508
0.11003
0.0838286
0.0591016
0.0351704
0.0116245
0.199631
0.214526
0.19533
0.167017
0.137634
0.109866
0.0838981
0.0592189
0.0352574
0.011649
0.138474
0.194508
0.187169
0.163772
0.136557
0.109649
0.0839772
0.0593617
0.0353669
0.0116851
0.0650298
0.170473
0.177704
0.159909
0.135204
0.109344
0.0840491
0.0595212
0.0354951
0.0117329
-0.0150929
0.143106
0.167312
0.155569
0.133611
0.108956
0.0841111
0.0596934
0.035639
0.0117959
-0.0595335
0.119796
0.15655
0.149403
0.130161
0.107092
0.0831008
0.0591415
0.0353859
0.011777
-0.0746715
0.0920781
0.137165
0.13714
0.122642
0.102528
0.0803185
0.0574694
0.0344993
0.0115148
-0.0724301
0.0761167
0.123372
0.127038
0.115815
0.0981357
0.0775573
0.0557865
0.0335956
0.0112411
-0.0662933
0.0631976
0.110698
0.117553
0.109263
0.0938251
0.0748079
0.054097
0.0326799
0.0109587
-0.0567745
0.0542246
0.0998993
0.109005
0.103151
0.0897032
0.0721371
0.0524404
0.0317733
0.0106744
-0.0466738
0.0475885
0.0906167
0.101335
0.0975343
0.0858444
0.0696036
0.0508545
0.0308963
0.0103946
-0.0380766
0.042266
0.082602
0.0945188
0.0924639
0.0823152
0.0672614
0.0493754
0.0300676
0.0101242
-0.0323122
0.0372849
0.075499
0.0884854
0.0879651
0.0791661
0.0651565
0.0480352
0.0293037
0.00986942
-0.0291916
0.0319724
0.06858
0.0827337
0.0837111
0.0761882
0.063154
0.0467457
0.0285378
0.00959282
-0.0346773
0.0274525
0.0641485
0.0793022
0.0812343
0.0744643
0.0619962
0.0460016
0.0280975
0.00943563
-0.580051
-0.62185
-0.641359
-0.639466
-0.61808
-0.579615
-0.527374
-0.462937
-0.39199
-0.314432
-0.414105
-0.456603
-0.480916
-0.488151
-0.479215
-0.456997
-0.422836
-0.380551
-0.332703
-0.282662
-0.286738
-0.32796
-0.354372
-0.366954
-0.365863
-0.354332
-0.331972
-0.303587
-0.269016
-0.232691
-0.18826
-0.228885
-0.256635
-0.272455
-0.276364
-0.271369
-0.256689
-0.237041
-0.211554
-0.184693
-0.113514
-0.153298
-0.181764
-0.199628
-0.206977
-0.206285
-0.197074
-0.183418
-0.164551
-0.144374
-0.0564934
-0.0958167
-0.124895
-0.144239
-0.154093
-0.156404
-0.15113
-0.141609
-0.127293
-0.111578
-0.0141454
-0.0533469
-0.08301
-0.103504
-0.11522
-0.119668
-0.117165
-0.110446
-0.0992841
-0.0866706
0.0158789
-0.0236496
-0.0541097
-0.0756956
-0.0888943
-0.0949172
-0.0943117
-0.0893604
-0.0801708
-0.069575
0.0325928
-0.00704883
-0.0384442
-0.0613874
-0.0760721
-0.0833663
-0.0838938
-0.0794479
-0.0706524
-0.0590019
0.0437794
0.00112856
-0.0331117
-0.0591504
-0.0773177
-0.0881476
-0.0923362
-0.0906852
-0.0840129
-0.0722386
0.825208
0.77468
0.715746
0.652382
0.583551
0.506651
0.420141
0.326302
0.239757
0.192566
0.631187
0.575345
0.51233
0.442731
0.364865
0.276591
0.17697
0.0690452
-0.0301621
-0.0838148
0.41632
0.356854
0.290467
0.215869
0.131116
0.0342507
-0.0755366
-0.194874
-0.304818
-0.36384
0.210671
0.146188
0.0738728
-0.00789872
-0.100907
-0.207074
-0.327223
-0.457788
-0.578071
-0.641571
0.0220811
-0.0488938
-0.128565
-0.218597
-0.320741
-0.43697
-0.56803
-0.710048
-0.840782
-0.90739
-0.150877
-0.228272
-0.315083
-0.413052
-0.523995
-0.649926
-0.791306
-0.943679
-1.08508
-1.15149
-0.308639
-0.39133
-0.484208
-0.589027
-0.707632
-0.842009
-0.992672
-1.15377
-1.30212
-1.3673
-0.448562
-0.535326
-0.63305
-0.743404
-0.868262
-1.00948
-1.16666
-1.33861
-1.48292
-1.55051
-0.566928
-0.656835
-0.758336
-0.872895
-1.00243
-1.14898
-1.31229
-1.48397
-1.63019
-1.69745
-0.660751
-0.753479
-0.857419
-0.974522
-1.107
-1.25656
-1.42247
-1.59505
-1.74019
-1.80566
2.00125
2.01772
2.03727
2.05796
2.07798
2.09646
2.11273
2.12624
2.13762
2.14662
1.94856
1.96314
1.98028
1.99819
2.01514
2.03025
2.0428
2.05239
2.06016
2.06677
1.87589
1.88774
1.90137
1.91521
1.92766
1.93783
1.94492
1.94872
1.95123
1.95439
1.78392
1.79227
1.80137
1.80994
1.81658
1.82035
1.82039
1.81665
1.81224
1.8111
1.67349
1.67771
1.68146
1.68374
1.68342
1.6795
1.67105
1.65822
1.64525
1.6392
1.54584
1.54559
1.54335
1.53848
1.53017
1.51738
1.49912
1.47581
1.45293
1.44114
1.40315
1.39838
1.38982
1.37716
1.36
1.33732
1.3081
1.27306
1.23915
1.22088
1.25108
1.24126
1.22518
1.20336
1.17598
1.14208
1.10058
1.05255
1.00662
0.981405
1.09622
1.081
1.05634
1.02393
0.984811
0.938133
0.88281
0.820357
0.761314
0.728761
0.951144
0.921817
0.882329
0.836006
0.783525
0.723208
0.653547
0.576324
0.504023
0.46415
1.93805
1.62241
1.89356
1.73811
1.73977
1.74608
1.75588
1.78075
1.8342
1.93614
1.93147
1.61632
1.8881
1.73147
1.73242
1.73719
1.7445
1.76565
1.81188
1.90071
1.92556
1.60997
1.88311
1.72411
1.72447
1.72736
1.73137
1.74766
1.78329
1.85349
1.92025
1.60344
1.87863
1.71605
1.71598
1.71662
1.71653
1.72665
1.74818
1.79465
1.91552
1.59681
1.87464
1.70732
1.70698
1.70498
1.69999
1.70247
1.70674
1.72382
1.91136
1.59016
1.87113
1.6979
1.69754
1.69244
1.68177
1.67502
1.65988
1.63983
1.90775
1.58361
1.86806
1.68782
1.68772
1.679
1.66185
1.64433
1.60826
1.54124
1.90469
1.57728
1.86536
1.6771
1.67758
1.66466
1.64023
1.61041
1.55225
1.4289
1.90218
1.57128
1.86295
1.66578
1.66718
1.64944
1.617
1.5733
1.49091
1.30011
1.90028
1.56583
1.86074
1.65392
1.65659
1.63339
1.59258
1.53457
1.42679
1.16807
1.8985
1.55993
1.85632
1.643
1.64251
1.61237
1.56005
1.48371
1.35033
1.03399
1.89918
1.55448
1.85033
1.63467
1.62684
1.5901
1.5271
1.43604
1.28357
0.977911
1.90156
1.55046
1.84508
1.62706
1.61247
1.56957
1.49744
1.39527
1.22931
0.938898
1.90609
1.54793
1.8407
1.6203
1.59964
1.55119
1.47149
1.361
1.186
0.912892
1.91327
1.5469
1.83725
1.61453
1.58856
1.53528
1.4495
1.33283
1.15276
0.895704
1.92366
1.54729
1.83473
1.60983
1.57937
1.52203
1.43156
1.31041
1.12835
0.884774
1.93763
1.54892
1.83298
1.60624
1.57217
1.51155
1.41763
1.29341
1.11139
0.878665
1.95796
1.55215
1.83201
1.60379
1.56704
1.5039
1.40767
1.28152
1.10065
0.876679
1.97491
1.55444
1.82931
1.60259
1.56413
1.49922
1.40177
1.2748
1.09565
0.879805
2.02989
1.56361
1.83179
1.60065
1.56335
1.4968
1.39876
1.27127
1.09359
0.881274
0.792567
0.627362
0.437883
0.257244
0.0931688
-0.0575543
-0.196729
-0.321799
-0.429026
-0.516524
0.719288
0.592666
0.447891
0.303484
0.168648
0.0433036
-0.073838
-0.180984
-0.275241
-0.353625
0.683474
0.580778
0.466512
0.34632
0.229984
0.120659
0.0180741
-0.0765087
-0.160338
-0.230924
0.669305
0.579506
0.483248
0.380375
0.278342
0.181558
0.0904721
0.00590606
-0.0699584
-0.135098
0.66739
0.585485
0.500616
0.41012
0.318601
0.230575
0.147257
0.0694021
-0.00121106
-0.0626713
0.671562
0.594987
0.517428
0.435237
0.351076
0.26921
0.191341
0.118265
0.0514945
-0.00720515
0.678256
0.60545
0.532791
0.456128
0.376981
0.299352
0.225204
0.155377
0.0912031
0.0342681
0.68598
0.615728
0.546307
0.473082
0.396999
0.321973
0.250098
0.182245
0.119671
0.0638409
0.696951
0.628629
0.560754
0.488567
0.413256
0.338786
0.267248
0.199538
0.136882
0.0807954
0.711534
0.646986
0.580283
0.507719
0.432148
0.357368
0.285074
0.216266
0.152262
0.0944153
-3.03703
-2.94427
-2.75125
-2.53859
-2.34527
-2.18043
-2.04348
-1.93158
-1.84246
-1.77527
-3.10807
-3.02435
-2.84171
-2.63216
-2.43778
-2.27084
-2.13183
-2.01805
-1.92759
-1.86063
-3.06735
-2.99338
-2.82459
-2.62047
-2.42613
-2.25741
-2.11639
-2.00059
-1.90783
-1.838
-2.92463
-2.86022
-2.70766
-2.51157
-2.31884
-2.14902
-2.00618
-1.8884
-1.79323
-1.71947
-2.69751
-2.6421
-2.50669
-2.32146
-2.13304
-1.96408
-1.82073
-1.70196
-1.60527
-1.52887
-2.4081
-2.36104
-2.24259
-2.07126
-1.89122
-1.72677
-1.58586
-1.46847
-1.37222
-1.29623
-2.08082
-2.04111
-1.93878
-1.78448
-1.61789
-1.46314
-1.32919
-1.21699
-1.12417
-1.05181
-1.73945
-1.70564
-1.61822
-1.48328
-1.33477
-1.19488
-1.0726
-0.969526
-0.883714
-0.81749
-1.40455
-1.37532
-1.30147
-1.18689
-1.05959
-0.938649
-0.8323
-0.742326
-0.667157
-0.612062
-1.09044
-1.06496
-1.00304
-0.908027
-0.802285
-0.701383
-0.612135
-0.535843
-0.469977
-0.419663
-0.805674
-0.783129
-0.731653
-0.654562
-0.569481
-0.488851
-0.418348
-0.359315
-0.30991
-0.26719
-0.553596
-0.533215
-0.49062
-0.428896
-0.361724
-0.298714
-0.244162
-0.198896
-0.161749
-0.127886
-0.334106
-0.315357
-0.280086
-0.230962
-0.178463
-0.129848
-0.0881952
-0.053852
-0.0259876
-0.000308723
-0.1463
-0.128822
-0.099611
-0.0608794
-0.0205678
0.0159425
0.0465576
0.0712932
0.0909059
0.108669
0.0106852
0.027157
0.0513983
0.0816334
0.111916
0.138371
0.159708
0.176217
0.188652
0.199353
0.137643
0.153336
0.173658
0.197211
0.219571
0.238036
0.251953
0.261803
0.268332
0.273166
0.235228
0.250347
0.267757
0.286351
0.3028
0.315272
0.32359
0.328367
0.330331
0.330609
0.303946
0.318676
0.334135
0.349396
0.361847
0.370248
0.374745
0.37603
0.374818
0.371909
0.344225
0.358738
0.373163
0.38664
0.396934
0.403128
0.405544
0.404918
0.401951
0.397256
0.356478
0.370925
0.385187
0.398382
0.408307
0.41411
0.416152
0.415176
0.41188
0.406814
-0.00595935
0.131582
0.151403
0.146974
0.132589
0.112327
0.0890657
0.0643633
0.0388704
0.0129909
0.0886755
0.163381
0.164947
0.152753
0.134031
0.111956
0.0881178
0.0634226
0.0382227
0.0127713
0.165068
0.188872
0.175831
0.156886
0.135137
0.111601
0.0872696
0.062583
0.0376446
0.012574
0.22361
0.210077
0.185612
0.160953
0.136173
0.111304
0.0865293
0.0618439
0.0371336
0.0123982
0.268536
0.228509
0.194413
0.164558
0.137092
0.111059
0.0858924
0.0612015
0.0366869
0.0122428
0.302638
0.244417
0.202065
0.167679
0.137896
0.110864
0.0853536
0.0606513
0.0363017
0.0121066
0.327706
0.257583
0.208464
0.170309
0.138586
0.110713
0.0849067
0.0601887
0.0359752
0.0119889
0.345149
0.267745
0.213528
0.172431
0.139156
0.110599
0.0845448
0.0598088
0.0357045
0.0118888
0.355969
0.274678
0.217179
0.174026
0.139602
0.110515
0.084261
0.0595065
0.0354866
0.0118053
0.360711
0.278237
0.219369
0.175083
0.139915
0.110453
0.0840477
0.0592765
0.0353184
0.0117377
-0.211087
0.0170446
0.0951182
0.120496
0.121266
0.1084
0.0883649
0.0648304
0.0395322
0.0133203
-0.175806
0.0364247
0.103468
0.123822
0.122452
0.108745
0.0883935
0.0647532
0.0394389
0.0132755
-0.143324
0.0547449
0.112479
0.128048
0.124296
0.109415
0.0885257
0.0646856
0.0393257
0.0132157
-0.107786
0.0767236
0.123942
0.133639
0.126813
0.110445
0.0888421
0.0647128
0.0392663
0.0131772
-0.0652528
0.105238
0.139073
0.141147
0.130264
0.111809
0.089318
0.0648195
0.0392491
0.0131553
-1.70828
-1.79242
-1.78513
-1.69556
-1.5403
-1.35265
-1.13728
-0.936855
-0.740533
-0.564816
-1.70769
-1.79201
-1.77998
-1.68374
-1.52157
-1.32677
-1.10505
-0.897189
-0.698768
-0.519652
-1.71131
-1.79495
-1.77819
-1.67423
-1.50336
-1.2967
-1.06795
-0.850076
-0.651276
-0.486013
-1.72187
-1.80582
-1.78498
-1.67273
-1.49162
-1.27133
-1.03571
-0.810612
-0.615709
-0.456251
-1.74019
-1.82527
-1.80076
-1.68061
-1.48941
-1.2578
-1.01573
-0.785738
-0.586616
-0.412808
1.42888
1.40782
1.3782
1.34315
1.3036
1.25799
1.2045
1.14415
1.08711
1.05445
1.55698
1.55143
1.53825
1.51891
1.4945
1.46425
1.42695
1.38354
1.34222
1.31936
1.68146
1.68132
1.67681
1.66841
1.65617
1.63919
1.61636
1.58821
1.5611
1.5468
1.79163
1.79634
1.79918
1.79981
1.79757
1.7915
1.7806
1.76512
1.74985
1.74255
1.88358
1.89239
1.90099
1.90864
1.91431
1.917
1.91578
1.91067
1.90514
1.90347
1.95505
1.96739
1.98083
1.99425
2.00629
2.016
2.02254
2.02572
2.02778
2.03079
2.00573
2.02078
2.03792
2.0557
2.07254
2.08751
2.09987
2.10922
2.11689
2.12353
2.03574
2.05256
2.07217
2.09286
2.11289
2.13137
2.1476
2.16105
2.17243
2.1815
2.04504
2.06266
2.08348
2.1056
2.1272
2.14741
2.16556
2.18105
2.19428
2.20454
2.03346
2.05097
2.07175
2.09385
2.11545
2.13565
2.15381
2.16931
2.18253
2.19278
-1.58467
-1.65425
-1.74316
-1.85327
-1.98763
-2.14938
-2.3405
-2.55414
-2.75449
-2.85415
-1.30224
-1.37437
-1.46397
-1.57291
-1.70457
-1.86227
-2.0479
-2.2604
-2.46509
-2.5695
-0.949452
-1.02435
-1.11543
-1.22408
-1.35333
-1.50647
-1.68602
-1.88949
-2.09151
-2.20135
-0.555957
-0.634679
-0.727585
-0.83574
-0.9618
-1.10904
-1.28007
-1.47266
-1.66138
-1.77282
-0.159403
-0.240768
-0.333578
-0.438777
-0.55889
-0.697156
-0.85625
-1.03398
-1.20655
-1.31162
0.206934
0.128083
0.040173
-0.0576112
-0.167683
-0.293169
-0.436621
-0.595923
-0.749547
-0.843852
0.530429
0.459779
0.38175
0.295632
0.199098
0.0892178
-0.0362601
-0.175237
-0.308431
-0.389945
0.820203
0.759959
0.693366
0.620083
0.537723
0.443501
0.335598
0.216264
0.10284
0.0343358
1.08858
1.03722
0.978557
0.914625
0.843524
0.76256
0.670204
0.568746
0.473534
0.417359
1.31468
1.27078
1.21728
1.16071
1.10043
1.03363
0.958347
0.876139
0.799628
0.755414
2.04947
1.66591
1.96022
1.75389
1.78005
1.78313
1.77971
1.77826
1.74004
1.61093
2.03355
1.66294
1.95437
1.75711
1.77814
1.78347
1.78301
1.78968
1.77061
1.70013
2.01891
1.65969
1.9479
1.75925
1.77595
1.78302
1.78628
1.80005
1.79886
1.78559
2.00552
1.65615
1.94098
1.76028
1.7734
1.78171
1.78798
1.80771
1.82198
1.85123
1.99323
1.65232
1.93382
1.76017
1.7704
1.77946
1.78819
1.81257
1.84047
1.90148
1.98194
1.64817
1.9266
1.75894
1.76686
1.77628
1.78689
1.8145
1.85424
1.93723
1.97156
1.64369
1.91945
1.75664
1.76274
1.77215
1.78403
1.81342
1.86248
1.96035
1.96203
1.63888
1.91249
1.75333
1.75798
1.76707
1.77955
1.80942
1.86452
1.97185
1.95329
1.63372
1.9058
1.7491
1.75256
1.76103
1.77339
1.80262
1.86048
1.97166
1.94532
1.62823
1.89947
1.744
1.74649
1.75403
1.76551
1.79307
1.85038
1.95977
2.1928
1.68562
1.96825
1.75523
1.78199
1.77644
1.75858
1.73216
1.6352
1.46409
2.13617
1.67882
1.96677
1.75632
1.7814
1.77745
1.76025
1.73535
1.64167
1.46663
2.1133
1.67676
1.96824
1.75555
1.7815
1.77868
1.76327
1.74133
1.65553
1.47207
2.08886
1.67321
1.96676
1.75434
1.78143
1.78008
1.76755
1.75019
1.67584
1.49064
2.06734
1.66924
1.96442
1.75271
1.78116
1.78155
1.77268
1.76169
1.70196
1.51801
1.13759
0.99795
0.794119
0.512157
0.16615
-0.216761
-0.604365
-0.967018
-1.28358
-1.53534
1.12693
0.98557
0.788739
0.518582
0.186604
-0.186926
-0.574178
-0.94395
-1.27021
-1.53051
1.14861
0.9965
0.793919
0.52884
0.207421
-0.15993
-0.550059
-0.928181
-1.26323
-1.53047
1.20191
1.0276
0.807622
0.541288
0.225817
-0.138662
-0.532789
-0.919361
-1.26275
-1.53665
1.283
1.07888
0.830837
0.554454
0.238569
-0.125174
-0.521916
-0.915303
-1.26729
-1.54933
)
;

boundaryField
{
    left
    {
        type            zeroGradient;
    }
    right
    {
        type            fixedValue;
        value           uniform 0;
    }
    down
    {
        type            zeroGradient;
    }
    up
    {
        type            zeroGradient;
    }
    cylinder
    {
        type            zeroGradient;
    }
    defaultFaces
    {
        type            empty;
    }
}


// ************************************************************************* //
