/*--------------------------------*- C++ -*----------------------------------*\
  =========                 |
  \\      /  F ield         | OpenFOAM: The Open Source CFD Toolbox
   \\    /   O peration     | Website:  https://openfoam.org
    \\  /    A nd           | Version:  13
     \\/     M anipulation  |
\*---------------------------------------------------------------------------*/
FoamFile
{
    format      ascii;
    class       volVectorField;
    location    "0.25";
    object      U;
}
// * * * * * * * * * * * * * * * * * * * * * * * * * * * * * * * * * * * * * //

dimensions      [0 1 -1 0 0 0 0];

internalField   nonuniform List<vector> 
1800
(
(0.224851 -0.20659 1.30402e-19)
(0.758922 -0.649689 5.92052e-20)
(1.14163 -0.927302 -5.40622e-19)
(1.34058 -1.04004 5.26773e-19)
(1.42213 -1.05099 1.22107e-18)
(1.44671 -1.01488 5.1471e-19)
(1.4481 -0.962391 -2.64455e-19)
(1.44092 -0.907213 -6.69399e-19)
(1.43144 -0.851523 -3.51623e-19)
(1.40257 -0.803926 -2.86902e-19)
(0.272334 -0.213266 3.39191e-20)
(0.883448 -0.645216 -5.88125e-19)
(1.30517 -0.907273 5.64889e-21)
(1.51454 -1.00935 -4.32366e-19)
(1.59267 -1.01499 1.04858e-19)
(1.6093 -0.977019 1.19027e-18)
(1.60242 -0.924109 -8.56473e-19)
(1.58829 -0.868549 4.33611e-19)
(1.57285 -0.813637 7.12998e-19)
(1.54967 -0.770939 -3.64909e-19)
(0.3243 -0.215063 2.97007e-20)
(1.01135 -0.625067 1.71563e-19)
(1.46762 -0.865191 4.29424e-19)
(1.68362 -0.95451 -3.05156e-19)
(1.75602 -0.955398 -1.44931e-18)
(1.76334 -0.917539 3.21485e-19)
(1.74699 -0.867168 5.6442e-19)
(1.72405 -0.815436 -6.39468e-20)
(1.70045 -0.765496 -4.74537e-21)
(1.66974 -0.725356 -2.83802e-20)
(0.380118 -0.210902 -3.51476e-20)
(1.13999 -0.588054 -1.91392e-19)
(1.62527 -0.800507 -3.16665e-19)
(1.84417 -0.875365 5.97917e-20)
(1.90936 -0.871786 3.82984e-19)
(1.90742 -0.834875 3.19504e-20)
(1.88243 -0.787629 -2.29914e-20)
(1.85196 -0.739508 5.19351e-19)
(1.82164 -0.693214 4.32214e-19)
(1.78748 -0.657187 -1.4784e-19)
(0.438859 -0.19995 1.26019e-19)
(1.26629 -0.534099 2.53233e-19)
(1.77381 -0.71457 -7.14854e-20)
(1.99141 -0.774481 -8.14804e-20)
(2.04772 -0.767736 -1.14547e-18)
(2.03636 -0.733676 9.85585e-21)
(2.00322 -0.691625 8.94712e-19)
(1.96585 -0.649341 2.98646e-19)
(1.92956 -0.609231 1.6832e-20)
(1.89162 -0.577886 -1.94449e-19)
(0.499048 -0.181268 -6.95762e-20)
(1.38657 -0.462959 5.20787e-19)
(1.9089 -0.608281 1.1891e-18)
(2.12123 -0.653388 -8.30767e-19)
(2.16756 -0.644749 -8.32228e-19)
(2.14718 -0.614873 1.38523e-18)
(2.1068 -0.579085 -9.86443e-19)
(2.06348 -0.543421 -1.1038e-18)
(2.02213 -0.50985 7.86654e-19)
(1.98111 -0.483981 -2.32417e-20)
(0.558923 -0.154304 1.96064e-19)
(1.49709 -0.375479 -9.28642e-19)
(2.02649 -0.484034 -3.21087e-18)
(2.22997 -0.515429 1.35735e-18)
(2.26572 -0.506619 2.10636e-18)
(2.23708 -0.482495 -6.02439e-21)
(2.19064 -0.454272 -2.68397e-18)
(2.14261 -0.426343 6.49333e-21)
(2.09734 -0.400272 2.40527e-18)
(2.0539 -0.380437 6.29595e-19)
(0.616291 -0.118785 -6.86749e-20)
(1.5939 -0.272966 6.0153e-19)
(2.12272 -0.344496 2.48231e-18)
(2.31446 -0.363866 -5.19199e-20)
(2.33959 -0.35661 -1.35741e-18)
(2.30381 -0.339513 -4.2102e-19)
(2.25263 -0.319764 0)
(2.20111 -0.300274 9.42616e-19)
(2.15303 -0.282225 -1.48779e-21)
(2.10793 -0.268961 -7.71724e-19)
(0.668773 -0.074946 -6.41751e-21)
(1.67335 -0.157628 1.40093e-18)
(2.1945 -0.193215 2.17472e-18)
(2.37241 -0.202717 -1.98294e-18)
(2.38751 -0.198702 -1.40164e-18)
(2.34602 -0.189691 4.24784e-19)
(2.29158 -0.179097 -1.77337e-18)
(2.23789 -0.168538 -1.23403e-18)
(2.18818 -0.158832 1.43664e-18)
(2.14221 -0.15237 1.21904e-18)
(0.713956 -0.0235363 1.81827e-19)
(1.7323 -0.0323183 9.1975e-19)
(2.23949 -0.0340898 4.02778e-19)
(2.40235 -0.0360701 -2.85315e-18)
(2.4085 -0.0367863 2.15493e-20)
(2.36287 -0.0365857 4.04634e-18)
(2.30665 -0.0355351 -2.1558e-18)
(2.2521 -0.0341515 -1.17654e-18)
(2.20192 -0.0328738 3.99497e-19)
(2.15599 -0.0332005 -8.92099e-19)
(0.0013222 -0.0355456 1.14859e-19)
(0.0261266 -0.124079 1.05165e-19)
(0.0795689 -0.187532 -1.91593e-21)
(0.142911 -0.219296 -6.90464e-21)
(0.207979 -0.229322 -1.91457e-21)
(0.270404 -0.228041 -4.36694e-20)
(0.328253 -0.221954 9.62106e-21)
(0.381108 -0.214297 -1.73541e-20)
(0.429111 -0.206464 2.27877e-21)
(0.473017 -0.200126 -5.87651e-21)
(0.00635684 -0.0539965 5.94197e-20)
(0.0457989 -0.200981 1.08741e-19)
(0.11003 -0.307398 -1.16274e-19)
(0.178561 -0.359717 -4.61907e-20)
(0.244935 -0.374451 -6.47894e-20)
(0.306736 -0.369619 -7.77341e-20)
(0.363177 -0.356569 3.29356e-20)
(0.41439 -0.340961 -1.06691e-20)
(0.46066 -0.325267 -2.95276e-21)
(0.503602 -0.313386 -6.26658e-21)
(0.0144581 -0.0726119 -1.3404e-20)
(0.0780754 -0.275893 2.46778e-19)
(0.16019 -0.422979 7.80459e-20)
(0.237354 -0.4944 2.74955e-19)
(0.30592 -0.513205 4.76381e-20)
(0.366689 -0.504694 -2.71904e-19)
(0.420793 -0.484822 -2.19042e-20)
(0.469276 -0.461528 8.71448e-20)
(0.512672 -0.438335 -4.01911e-20)
(0.55409 -0.421107 -7.3044e-21)
(0.0258446 -0.0913382 -1.06636e-19)
(0.122942 -0.347635 -5.05079e-20)
(0.229579 -0.532004 2.8995e-20)
(0.318472 -0.620423 -1.20769e-19)
(0.389924 -0.642406 5.36066e-20)
(0.449165 -0.630066 1.77789e-19)
(0.499979 -0.6036 5.25338e-20)
(0.544663 -0.573017 -1.54925e-20)
(0.584107 -0.542849 1.88966e-20)
(0.623444 -0.520524 -2.36654e-21)
(0.0408139 -0.110125 0)
(0.18033 -0.415033 8.23474e-20)
(0.317476 -0.632237 3.5504e-19)
(0.420693 -0.734931 -2.77565e-19)
(0.495463 -0.758968 -5.42607e-19)
(0.55258 -0.742657 1.86013e-19)
(0.599154 -0.709941 -2.7474e-20)
(0.639023 -0.672618 -8.94951e-20)
(0.673548 -0.636161 0)
(0.710251 -0.60903 -8.10076e-21)
(0.0597432 -0.128878 1.70264e-20)
(0.250083 -0.476872 2.0339e-19)
(0.422852 -0.721471 8.87677e-20)
(0.542331 -0.835181 2.16267e-19)
(0.620517 -0.859984 -1.72216e-19)
(0.674809 -0.839614 -2.74146e-19)
(0.716217 -0.80114 4.76011e-19)
(0.750356 -0.757798 4.89114e-20)
(0.779161 -0.715885 -2.82777e-19)
(0.812647 -0.684215 -6.42374e-21)
(0.0830648 -0.147395 1.76183e-20)
(0.331887 -0.531836 2.07534e-19)
(0.544295 -0.797538 8.98427e-20)
(0.681174 -0.918624 2.18595e-20)
(0.762481 -0.942862 2.96603e-19)
(0.813139 -0.918485 -3.76204e-19)
(0.848518 -0.874957 -3.75599e-19)
(0.876146 -0.826546 -3.18769e-19)
(0.898651 -0.78014 2.32179e-19)
(0.928131 -0.744079 2.52238e-19)
(0.111178 -0.165269 -1.20167e-19)
(0.425084 -0.578439 -5.36082e-20)
(0.679809 -0.858324 2.35705e-19)
(0.834308 -0.982988 -1.58807e-19)
(0.918019 -1.00546 3.10183e-19)
(0.964157 -0.97743 7.42069e-19)
(0.992749 -0.929928 5.14244e-19)
(1.01325 -0.877825 -3.95454e-19)
(1.02912 -0.828131 -1.88541e-19)
(1.053 -0.787697 2.70696e-19)
(0.14425 -0.181764 -2.53929e-19)
(0.528385 -0.614926 -6.58505e-19)
(0.826509 -0.901666 8.12748e-19)
(0.99776 -1.02611 7.72884e-19)
(1.08258 -1.0458 -7.08151e-19)
(1.12307 -1.01473 7.8119e-19)
(1.14403 -0.964706 1.20079e-19)
(1.15674 -0.910767 -9.32111e-19)
(1.16566 -0.85919 -2.2685e-19)
(1.18035 -0.814506 3.03293e-19)
(0.182164 -0.195857 1.82054e-20)
(0.640103 -0.639277 -5.95119e-19)
(0.981201 -0.925282 -4.47611e-19)
(1.16733 -1.0457 7.42562e-19)
(1.25131 -1.06154 5.91079e-19)
(1.28441 -1.02788 -7.006e-19)
(1.29612 -0.976454 -5.77632e-19)
(1.29952 -0.92198 3.42518e-19)
(1.30018 -0.868928 -3.518e-19)
(1.29878 -0.82079 -2.1639e-19)
(0.628796 -0.162524 1.28888e-20)
(0.805781 -0.124437 -2.63468e-20)
(0.889298 -0.0973499 1.08649e-20)
(0.937924 -0.0761934 5.26545e-21)
(0.966368 -0.059041 -2.2824e-21)
(0.98319 -0.0449339 9.23321e-22)
(0.99348 -0.0332848 -9.16991e-22)
(0.999892 -0.0235285 -3.25191e-21)
(1.00372 -0.0155951 4.9361e-21)
(1.00622 -0.00620778 3.10637e-21)
(0.646361 -0.232679 8.06334e-20)
(0.8167 -0.161985 -1.55769e-21)
(0.897192 -0.11766 4.03399e-21)
(0.943927 -0.0874707 2.56274e-22)
(0.971125 -0.065578 7.59143e-22)
(0.987035 -0.0488334 0)
(0.996621 -0.0356511 -9.64451e-22)
(1.0025 -0.0249604 3.34016e-21)
(1.00596 -0.0164424 5.13033e-22)
(1.00816 -0.00652544 -3.2237e-21)
(0.674657 -0.300549 -4.54634e-20)
(0.832461 -0.198704 -2.42302e-20)
(0.907718 -0.137712 8.68615e-21)
(0.951301 -0.0986403 -8.68146e-21)
(0.976619 -0.0720234 -3.99863e-21)
(0.991307 -0.0526438 6.26299e-21)
(1.00002 -0.0379343 0)
(1.00527 -0.0263216 0)
(1.00832 -0.0172343 -3.64448e-22)
(1.01019 -0.00681855 0)
(0.713623 -0.364835 -2.86325e-20)
(0.852919 -0.234049 4.24908e-20)
(0.9208 -0.157261 8.16281e-21)
(0.960033 -0.109587 0)
(0.982848 -0.0783122 5.72189e-21)
(0.995999 -0.0563262 2.07232e-22)
(1.00367 -0.0401099 0)
(1.0082 -0.0275966 -8.57964e-22)
(1.01079 -0.0179614 0)
(1.0123 -0.0070834 -4.43531e-23)
(0.763133 -0.424269 -2.64703e-20)
(0.877909 -0.267548 6.94647e-20)
(0.936337 -0.176077 -4.63856e-21)
(0.970098 -0.120202 0)
(0.989803 -0.0843831 -8.46112e-22)
(1.0011 -0.0598425 -1.10272e-21)
(1.00756 -0.0421537 6.35852e-21)
(1.01128 -0.0287699 1.28733e-21)
(1.01334 -0.0186138 -1.21672e-21)
(1.01447 -0.00731618 2.9508e-21)
(0.822796 -0.477531 -5.96883e-19)
(0.907224 -0.298841 -1.31589e-19)
(0.954202 -0.193986 1.99267e-21)
(0.981458 -0.130386 1.51222e-20)
(0.997469 -0.090181 2.05376e-21)
(1.0066 -0.0631573 8.35323e-22)
(1.01168 -0.044042 -4.505e-21)
(1.01448 -0.0298256 -3.82877e-22)
(1.01597 -0.0191816 -2.54875e-22)
(1.0167 -0.007513 1.60446e-21)
(0.891613 -0.523105 -1.05903e-20)
(0.940318 -0.327393 5.3655e-20)
(0.97416 -0.210819 4.30284e-21)
(0.994038 -0.140055 -3.83407e-22)
(1.00582 -0.0956591 -1.10902e-20)
(1.01247 -0.0662398 5.42751e-21)
(1.016 -0.0457533 2.77453e-22)
(1.0178 -0.0307486 -4.85386e-21)
(1.01867 -0.0196552 -1.82609e-22)
(1.01896 -0.00766999 -2.09677e-21)
(0.968277 -0.560242 2.51501e-19)
(0.975883 -0.352684 6.40357e-20)
(0.995462 -0.226298 0)
(1.00755 -0.149053 -2.50406e-21)
(1.01474 -0.10074 8.49713e-21)
(1.01867 -0.0690507 1.69799e-21)
(1.0205 -0.0472655 -3.33462e-21)
(1.0212 -0.0315253 9.60484e-22)
(1.0214 -0.0200261 2.34949e-23)
(1.02124 -0.00778443 3.48499e-22)
(1.05332 -0.590859 -3.67658e-19)
(1.0136 -0.376394 -1.7366e-19)
(1.017 -0.241423 3.48147e-20)
(1.02125 -0.157755 1.24497e-21)
(1.02385 -0.10553 -2.04714e-21)
(1.02501 -0.0716042 -3.80074e-21)
(1.0251 -0.0485699 -2.45005e-22)
(1.02466 -0.0321447 6.07307e-22)
(1.02415 -0.0202864 -3.69326e-21)
(1.02353 -0.00785601 -4.19455e-21)
(1.1482 -0.613718 2.52447e-19)
(1.05841 -0.397625 -1.70366e-19)
(1.04014 -0.257284 -2.54192e-20)
(1.03509 -0.167266 -2.08276e-20)
(1.03285 -0.110697 -9.65598e-21)
(1.03127 -0.0742266 -4.56153e-21)
(1.02966 -0.0498 -3.32045e-21)
(1.02811 -0.0326491 0)
(1.02689 -0.0204456 1.4953e-21)
(1.02581 -0.00787335 1.06673e-21)
(1.29481 -0.597968 3.98654e-19)
(1.15049 -0.395995 1.14248e-19)
(1.09184 -0.258424 -7.18182e-20)
(1.06477 -0.168737 3.56116e-21)
(1.05043 -0.111573 4.76661e-21)
(1.04219 -0.0745057 -4.62309e-22)
(1.03681 -0.0497112 4.0567e-21)
(1.03304 -0.0324061 2.66227e-21)
(1.03056 -0.0201857 -2.63914e-21)
(1.02874 -0.00775318 8.00936e-22)
(1.34663 -0.498013 -6.22778e-21)
(1.18769 -0.342797 1.15659e-19)
(1.12177 -0.232082 8.78512e-20)
(1.08737 -0.156017 -1.01222e-20)
(1.06626 -0.104839 3.79889e-20)
(1.05305 -0.0705246 2.37146e-20)
(1.04435 -0.0471757 1.67755e-20)
(1.03846 -0.0307668 -1.51847e-21)
(1.03469 -0.0191599 5.85123e-21)
(1.03206 -0.00734836 3.95149e-21)
(1.40007 -0.426548 -1.18799e-19)
(1.23581 -0.305072 -9.2874e-21)
(1.15555 -0.210839 3.6e-21)
(1.1104 -0.143716 -2.17237e-37)
(1.08181 -0.0973126 2.04332e-21)
(1.06358 -0.0656732 -6.62168e-35)
(1.05162 -0.0439587 -4.01746e-21)
(1.04364 -0.0286507 -2.61548e-34)
(1.03862 -0.0178267 1.07655e-21)
(1.03518 -0.00683112 -3.16316e-21)
(1.43347 -0.352091 -1.82304e-34)
(1.27104 -0.261026 -2.89845e-20)
(1.183 -0.184723 -3.10776e-20)
(1.13022 -0.128022 0)
(1.09567 -0.0875236 -1.67664e-20)
(1.07314 -0.0593396 -1.11643e-20)
(1.05828 -0.0397847 -5.32761e-21)
(1.04841 -0.0259329 -3.67202e-34)
(1.04224 -0.0161316 -1.37011e-21)
(1.03803 -0.00618002 3.08029e-21)
(1.45463 -0.284058 -6.77106e-20)
(1.29806 -0.217492 3.645e-21)
(1.20545 -0.156981 0)
(1.147 -0.110279 0)
(1.10769 -0.0760305 0)
(1.08155 -0.0517769 0)
(1.06419 -0.0347802 -9.00554e-22)
(1.05265 -0.0226808 -4.12584e-34)
(1.04545 -0.0141101 1.00938e-21)
(1.04056 -0.00540587 3.75643e-34)
(1.46756 -0.221393 -2.19235e-20)
(1.31815 -0.17424 0)
(1.22322 -0.12794 0)
(1.16071 -0.0909239 0)
(1.11771 -0.063154 0)
(1.08867 -0.0431864 0)
(1.06922 -0.0290658 1.62807e-21)
(1.05628 -0.0189659 4.05795e-21)
(1.04821 -0.0118019 9.77821e-22)
(1.04272 -0.00452214 3.64311e-21)
(1.47502 -0.16361 0)
(1.3325 -0.13174 -8.97829e-21)
(1.23667 -0.0981101 -1.31732e-20)
(1.17137 -0.0703922 0)
(1.12565 -0.0492012 -8.3384e-21)
(1.09438 -0.0337681 -5.81935e-21)
(1.07328 -0.0227682 -2.34236e-21)
(1.05921 -0.0148659 -2.45672e-21)
(1.05043 -0.00925206 3.72421e-21)
(1.04446 -0.00354521 2.36598e-21)
(1.4782 -0.109693 5.95672e-21)
(1.34123 -0.0900207 5.01643e-21)
(1.24538 -0.0677083 -2.38235e-21)
(1.17843 -0.0489232 3.88243e-36)
(1.13093 -0.0343581 -4.33628e-22)
(1.09812 -0.0236472 -4.76874e-35)
(1.07587 -0.0159662 1.44851e-21)
(1.06099 -0.0104281 5.00468e-21)
(1.0517 -0.00648326 8.53468e-22)
(1.04537 -0.00247733 -2.76805e-21)
(1.46289 -0.0572505 -2.7927e-20)
(1.32994 -0.0510114 8.56772e-21)
(1.23608 -0.0393428 9.89055e-21)
(1.1697 -0.0287447 0)
(1.12222 -0.0203022 5.86506e-21)
(1.08923 -0.0140135 4.09703e-21)
(1.06678 -0.00947427 4.1238e-21)
(1.05174 -0.00619032 1.77201e-21)
(1.04236 -0.0038438 -1.20415e-21)
(1.03597 -0.00146345 3.08461e-21)
(1.17633 -0.00578904 0)
(1.08267 -0.00821763 0)
(1.01141 -0.006956 0)
(0.959297 -0.00521769 0)
(0.921518 -0.00371783 0)
(0.895107 -0.00258089 0)
(0.877063 -0.00175037 1.32291e-21)
(0.864962 -0.00114772 -6.73601e-36)
(0.857393 -0.000696938 8.82747e-22)
(0.852292 -0.000253491 2.64892e-21)
(2.07514 -0.0313695 8.26823e-19)
(2.0641 -0.133776 5.64138e-20)
(2.0358 -0.23379 -1.16319e-19)
(1.99062 -0.32934 -3.27422e-19)
(1.9305 -0.418425 -1.06686e-19)
(1.85467 -0.500571 -1.62969e-19)
(1.77219 -0.568275 -4.04711e-19)
(1.66562 -0.63797 1.23312e-19)
(1.58445 -0.662682 0)
(1.43434 -0.739895 4.23599e-20)
(1.99095 -0.023204 2.26066e-19)
(1.98217 -0.100127 -3.13047e-19)
(1.96074 -0.175873 -1.97185e-20)
(1.9258 -0.249373 -1.29883e-19)
(1.88167 -0.31795 3.56124e-20)
(1.82142 -0.385799 1.26088e-19)
(1.76392 -0.435409 -1.55865e-20)
(1.67687 -0.505489 7.58599e-20)
(1.6212 -0.514871 -9.60979e-20)
(1.51289 -0.597286 2.48565e-20)
(1.92004 -0.0175368 -1.09142e-19)
(1.91331 -0.0784603 2.16558e-19)
(1.89668 -0.138219 1.74155e-19)
(1.86874 -0.196569 -2.26249e-19)
(1.83438 -0.250412 6.5426e-20)
(1.78583 -0.3062 1.61045e-19)
(1.74101 -0.343921 -3.79746e-20)
(1.673 -0.40585 4.94781e-20)
(1.62485 -0.41233 5.61621e-20)
(1.54548 -0.484742 7.4303e-20)
(1.86519 -0.0151548 -2.18426e-19)
(1.85976 -0.0620463 1.31529e-20)
(1.846 -0.108164 -6.23527e-20)
(1.82286 -0.153723 -4.78962e-20)
(1.79428 -0.195758 -3.10449e-20)
(1.75465 -0.240546 -9.24411e-20)
(1.71647 -0.270443 9.82085e-20)
(1.66315 -0.321322 2.02539e-20)
(1.61984 -0.327975 -5.44721e-21)
(1.56001 -0.386871 9.33127e-21)
(1.82233 -0.0124679 4.35544e-20)
(1.81782 -0.0483102 7.16171e-20)
(1.80603 -0.0835589 -4.47736e-20)
(1.78641 -0.118537 1.95193e-19)
(1.76159 -0.150896 -3.02613e-21)
(1.72854 -0.185647 -1.42264e-19)
(1.6947 -0.209353 2.13155e-20)
(1.65168 -0.248871 -7.71156e-20)
(1.61263 -0.255838 8.49044e-20)
(1.56528 -0.301337 5.99295e-20)
(1.78972 -0.0109543 -1.15896e-19)
(1.78591 -0.0373985 -5.56848e-20)
(1.77548 -0.0634248 1.79044e-20)
(1.75833 -0.0893508 7.84641e-20)
(1.73603 -0.113526 8.94215e-20)
(1.70751 -0.139501 -4.0747e-20)
(1.67669 -0.157911 3.28241e-21)
(1.64036 -0.187413 2.61261e-20)
(1.60461 -0.194241 5.6456e-20)
(1.56494 -0.228215 -4.23439e-20)
(1.76576 -0.00992529 -4.11814e-20)
(1.76254 -0.0282714 -8.39966e-20)
(1.75311 -0.0463164 -7.52064e-20)
(1.73769 -0.0643665 -1.32892e-19)
(1.71714 -0.0813828 6.27516e-21)
(1.69159 -0.0997262 1.1133e-20)
(1.66281 -0.113262 2.93418e-20)
(1.63061 -0.134306 1.87634e-21)
(1.59732 -0.140324 -3.31116e-20)
(1.56218 -0.164794 7.07637e-22)
(1.74629 -0.00894308 4.16488e-20)
(1.74398 -0.0200415 2.55595e-20)
(1.73577 -0.0309121 1.20484e-20)
(1.72203 -0.0417811 -2.21919e-20)
(1.70316 -0.0521508 -1.85326e-20)
(1.67993 -0.0635883 8.11392e-21)
(1.65283 -0.0723098 -9.75577e-21)
(1.62319 -0.0862004 -1.32621e-20)
(1.59158 -0.0906229 1.17688e-21)
(1.55895 -0.107921 3.20842e-20)
(1.68983 -0.0112589 -4.04271e-20)
(1.68867 -0.014896 -3.59609e-21)
(1.68359 -0.0182632 6.42925e-20)
(1.67442 -0.0216371 -6.11241e-21)
(1.6609 -0.024795 -1.02956e-20)
(1.64387 -0.0289555 1.01757e-20)
(1.62249 -0.0316502 2.37101e-21)
(1.59945 -0.0384862 -1.11905e-20)
(1.57146 -0.0397007 1.64433e-20)
(1.54629 -0.0502108 6.14955e-20)
(1.23029 -0.00623348 3.72539e-20)
(1.22369 -0.00440388 2.75318e-20)
(1.21864 -0.00258958 2.46415e-20)
(1.21536 -0.000895014 3.41685e-20)
(1.21321 0.00064585 -1.15078e-20)
(1.21276 0.00182583 -1.22476e-20)
(1.211 0.00306604 -7.3685e-23)
(1.21314 0.00261868 2.3987e-21)
(1.20607 0.0044961 -3.88442e-21)
(1.21456 0.000387488 4.23823e-21)
(1.36652 0.736985 -5.23601e-20)
(1.35668 0.785022 2.51547e-20)
(1.36213 0.838958 -4.27092e-19)
(1.37171 0.899181 2.20016e-19)
(1.3813 0.963653 8.04871e-19)
(1.3878 1.03037 -1.40011e-19)
(1.37895 1.09009 -8.2558e-19)
(1.31205 1.10246 -4.06014e-20)
(1.08419 0.957363 -4.77138e-19)
(0.524807 0.483643 1.13434e-19)
(1.51833 0.711016 0)
(1.51601 0.758057 5.26122e-19)
(1.51997 0.809337 1.17735e-18)
(1.5292 0.867594 -7.03564e-19)
(1.54182 0.931236 -1.69488e-18)
(1.55363 0.997836 -1.39967e-19)
(1.54943 1.05752 -1.7974e-19)
(1.47909 1.06979 6.65853e-19)
(1.22348 0.926421 1.02779e-18)
(0.59041 0.464512 4.3703e-19)
(1.64969 0.684814 6.4185e-20)
(1.65834 0.72943 0)
(1.66794 0.777019 -6.70164e-20)
(1.68158 0.83053 7.17889e-19)
(1.69918 0.889545 5.29964e-20)
(1.71656 0.952097 -1.81385e-18)
(1.71641 1.00821 1.1788e-18)
(1.64158 1.01807 7.91113e-19)
(1.3572 0.877681 -9.3489e-19)
(0.651729 0.435639 -2.90901e-19)
(1.76003 0.645356 -1.10878e-19)
(1.77856 0.6861 -9.0361e-20)
(1.79723 0.729443 2.16642e-19)
(1.81905 0.777854 -2.72284e-19)
(1.84431 0.831479 -1.32175e-18)
(1.86877 0.888654 -1.02713e-18)
(1.87308 0.939455 1.16483e-18)
(1.79307 0.945531 8.01171e-19)
(1.47916 0.809668 0)
(0.704557 0.39597 0)
(1.8556 0.586155 -7.68699e-19)
(1.88227 0.622679 -1.32157e-18)
(1.90995 0.661686 -5.30468e-19)
(1.94067 0.70501 -3.48723e-20)
(1.97442 0.75295 0)
(2.00645 0.803994 1.45778e-19)
(2.01493 0.848437 1.73014e-19)
(1.9286 0.850211 2.2206e-19)
(1.5844 0.721751 -3.39066e-19)
(0.745621 0.346054 -8.58348e-20)
(1.94091 0.508207 9.16028e-19)
(1.97382 0.540351 -4.52691e-20)
(2.00891 0.574729 -1.09383e-18)
(2.04742 0.61261 0)
(2.08884 0.654297 0)
(2.12757 0.698411 0)
(2.13891 0.735611 1.49326e-18)
(2.04427 0.733051 -1.88048e-18)
(1.66951 0.615991 -1.34782e-18)
(0.773007 0.288277 2.16205e-20)
(2.01566 0.415758 -1.2406e-18)
(2.05318 0.442934 -2.60514e-18)
(2.09395 0.471861 -4.55492e-21)
(2.13861 0.503474 5.33026e-19)
(2.18621 0.538061 -4.2579e-20)
(2.23002 0.574322 1.25301e-18)
(2.24207 0.604034 -7.3705e-19)
(2.13797 0.597049 -2.39189e-18)
(1.73119 0.49584 1.71971e-19)
(0.786517 0.226216 1.31997e-19)
(2.07693 0.312716 -1.01099e-18)
(2.11792 0.333997 1.79827e-20)
(2.16293 0.356429 3.96795e-19)
(2.21221 0.380839 -3.86809e-19)
(2.26438 0.40747 6.05655e-19)
(2.31153 0.435289 1.77461e-18)
(2.32273 0.455423 -2.34404e-19)
(2.20541 0.44809 -1.3942e-18)
(1.76769 0.368326 3.65952e-19)
(0.786892 0.161285 7.03066e-20)
(2.12169 0.201899 3.81319e-19)
(2.1653 0.216514 8.83921e-20)
(2.21338 0.231559 -4.26968e-19)
(2.2659 0.247901 -9.8643e-19)
(2.32109 0.265706 1.00265e-19)
(2.36974 0.283918 1.06013e-19)
(2.37719 0.297232 -1.71565e-18)
(2.24459 0.291061 7.9904e-19)
(1.78034 0.234535 2.74736e-19)
(0.774372 0.0964766 -2.06439e-19)
(2.14857 0.08578 7.64062e-19)
(2.1938 0.0927924 -1.17518e-18)
(2.24355 0.0999327 1.92907e-19)
(2.29778 0.10774 2.47996e-18)
(2.35431 0.116319 1.3149e-18)
(2.40238 0.125281 -3.05968e-18)
(2.4038 0.131935 -3.36344e-18)
(2.25632 0.128801 1.84917e-18)
(1.76843 0.0996387 -1.89433e-21)
(0.749711 0.034175 2.15041e-20)
(0.521322 0.194909 -1.93598e-19)
(0.48679 0.201615 -1.74331e-19)
(0.444282 0.20893 1.04965e-19)
(0.396063 0.216826 -3.48824e-19)
(0.343153 0.225326 -4.78842e-20)
(0.28495 0.234344 2.92693e-19)
(0.220251 0.242549 8.35146e-20)
(0.148671 0.243144 -5.35576e-20)
(0.0759948 0.214928 -8.75924e-21)
(0.0132651 0.115675 2.55307e-20)
(0.547884 0.294746 1.56637e-19)
(0.514162 0.308139 2.26393e-19)
(0.472997 0.322971 3.49502e-20)
(0.42636 0.339014 -9.88374e-20)
(0.375164 0.356224 -3.2758e-19)
(0.318797 0.374465 1.97407e-20)
(0.2558 0.391447 1.95401e-19)
(0.184645 0.395401 -5.03636e-22)
(0.108049 0.350234 -4.50868e-20)
(0.0305599 0.187167 -1.38391e-20)
(0.591499 0.39036 -1.71051e-19)
(0.55923 0.410212 -1.84155e-19)
(0.520393 0.432184 1.59236e-19)
(0.476454 0.455953 1.47417e-19)
(0.428143 0.481434 -6.22234e-20)
(0.374835 0.50844 -1.24671e-19)
(0.314641 0.533733 -8.53488e-20)
(0.244072 0.540732 2.55282e-20)
(0.160699 0.479008 -3.27049e-20)
(0.0586358 0.254756 5.6524e-21)
(0.651111 0.47957 9.42129e-20)
(0.620904 0.505556 -3.87972e-21)
(0.585315 0.534121 -1.29288e-19)
(0.545122 0.565003 8.38237e-20)
(0.500811 0.59813 -9.17947e-20)
(0.451733 0.633243 3.64139e-20)
(0.395405 0.666181 -1.21301e-19)
(0.325581 0.675808 -4.668e-20)
(0.232591 0.598257 -2.15539e-19)
(0.0966219 0.316735 5.00102e-20)
(0.72525 0.560393 -2.97424e-20)
(0.697674 0.592081 -1.11013e-20)
(0.666194 0.626542 -4.24364e-20)
(0.630757 0.663758 -1.49504e-19)
(0.591523 0.703724 6.55515e-20)
(0.547794 0.746101 -8.52094e-20)
(0.496331 0.785818 1.53752e-19)
(0.427438 0.797502 -1.00012e-20)
(0.322004 0.705141 2.82478e-19)
(0.143462 0.37161 2.18045e-19)
(0.811937 0.631082 1.13702e-21)
(0.787426 0.667771 -5.97644e-20)
(0.760731 0.707121 1.58806e-19)
(0.730892 0.749632 8.74239e-20)
(0.697699 0.795447 1.92053e-19)
(0.660364 0.844092 9.64149e-20)
(0.614699 0.889573 3.8421e-19)
(0.546905 0.902596 1.86904e-19)
(0.426676 0.796507 1.68608e-19)
(0.197897 0.417599 1.91146e-19)
(0.909066 0.689586 -9.29405e-20)
(0.888559 0.730626 2.69792e-19)
(0.867827 0.77394 1.57664e-19)
(0.844744 0.820647 -1.63833e-19)
(0.818595 0.871147 -9.17899e-20)
(0.788483 0.924884 4.46013e-19)
(0.749177 0.975014 -9.56291e-20)
(0.682233 0.988745 -2.92098e-19)
(0.544668 0.870364 -4.62373e-20)
(0.258539 0.453534 2.13495e-19)
(1.00938 0.735935 1.54799e-19)
(0.992338 0.779693 5.27701e-20)
(0.978099 0.82532 -5.26638e-19)
(0.963145 0.874985 4.87988e-20)
(0.945889 0.929095 3.19796e-19)
(0.924934 0.986731 -2.41697e-19)
(0.893568 1.04012 -5.21579e-20)
(0.82801 1.05346 -1.31835e-19)
(0.671438 0.92413 1.4386e-20)
(0.322904 0.478036 -2.79022e-19)
(1.12539 0.758892 2.24971e-20)
(1.11538 0.805777 -3.54726e-19)
(1.10843 0.853046 -2.74648e-21)
(1.10038 0.904691 2.91206e-19)
(1.09006 0.96182 -2.87913e-19)
(1.07643 1.02313 6.02361e-19)
(1.05147 1.07983 4.43791e-19)
(0.985532 1.09357 -7.37016e-19)
(0.806731 0.956639 -5.20897e-20)
(0.390224 0.49122 -3.02111e-19)
(1.20676 0.77422 -1.99068e-19)
(1.20865 0.822386 -2.01651e-19)
(1.21866 0.871162 2.28579e-19)
(1.22649 0.923945 4.95401e-19)
(1.22986 0.98171 2.03033e-19)
(1.22811 1.04347 -5.08885e-19)
(1.21223 1.10018 2.83886e-20)
(1.14673 1.11194 1.63573e-19)
(0.944602 0.968494 -2.4828e-19)
(0.457832 0.493103 -2.20204e-19)
(0.749122 0.0226207 1.31969e-20)
(1.18294 0.0385907 -1.96188e-20)
(0.918144 0.0444692 -7.85629e-21)
(1.01819 0.0477503 0)
(0.991732 0.0551805 1.96054e-20)
(0.970817 0.0658254 2.42484e-20)
(0.945924 0.0802211 3.09949e-20)
(0.897407 0.0989732 6.30112e-20)
(0.83238 0.125049 -9.23414e-20)
(0.661786 0.160257 -1.03822e-19)
(0.748714 0.0201069 3.76817e-20)
(1.18304 0.0385298 -6.62116e-20)
(0.918721 0.0467772 -8.57657e-22)
(1.01995 0.0494087 -1.15542e-20)
(0.994371 0.0587561 9.84861e-21)
(0.974648 0.0718209 -1.24681e-20)
(0.951009 0.0906336 -7.75411e-20)
(0.905013 0.116493 0)
(0.841734 0.160574 2.00685e-19)
(0.683008 0.223675 -2.45875e-19)
(0.748101 0.0176681 -5.00759e-20)
(1.18331 0.038334 1.8298e-20)
(0.919187 0.0488481 3.18858e-20)
(1.02214 0.0508569 1.54823e-20)
(0.997371 0.0621407 -2.37626e-20)
(0.979163 0.0776538 4.23504e-22)
(0.957174 0.100861 -5.53261e-20)
(0.915359 0.133919 -4.95988e-21)
(0.854815 0.195495 2.73472e-22)
(0.716954 0.285025 6.14745e-19)
(0.747278 0.0154191 -1.2982e-20)
(1.18371 0.038005 3.74778e-21)
(0.919555 0.050631 2.7283e-20)
(1.02475 0.0520868 1.52569e-20)
(1.00074 0.0653144 -1.15362e-20)
(0.984363 0.0832806 -1.43358e-20)
(0.964491 0.110812 8.2902e-20)
(0.928344 0.15112 -1.46751e-21)
(0.871786 0.22951 -2.48811e-19)
(0.762953 0.343061 6.53191e-20)
(0.746237 0.0134258 1.06369e-20)
(1.18417 0.037525 -3.72523e-20)
(0.919847 0.0520718 -2.12218e-20)
(1.0278 0.0530952 6.97388e-21)
(1.00449 0.0682592 0)
(0.990244 0.088662 0)
(0.973032 0.120421 7.0873e-20)
(0.943847 0.167951 2.52787e-22)
(0.892844 0.26213 -1.20165e-19)
(0.820146 0.396859 8.96264e-20)
(0.744968 0.0117603 -4.10001e-23)
(1.1846 0.0368663 3.13012e-20)
(0.920091 0.0531149 -4.64413e-20)
(1.0313 0.0538855 -3.22926e-20)
(1.00861 0.070958 -1.74212e-22)
(0.996802 0.0937648 5.87745e-20)
(0.982865 0.129651 1.10775e-19)
(0.961684 0.184258 -7.65851e-22)
(0.91832 0.292527 1.99126e-19)
(0.887461 0.44631 -1.96696e-19)
(0.743459 0.0105112 -2.39923e-20)
(1.1849 0.0359886 1.63969e-20)
(0.920329 0.0537055 -7.58747e-21)
(1.03527 0.0544693 -5.46695e-20)
(1.01308 0.0733919 6.44079e-22)
(1.00404 0.0985601 -1.12461e-21)
(0.994034 0.138468 -6.62183e-21)
(0.98159 0.199961 -1.95948e-19)
(0.948705 0.319456 1.50113e-19)
(0.962854 0.49022 -4.59836e-19)
(0.74169 0.00976449 7.97742e-21)
(1.18499 0.0348246 -4.82516e-20)
(0.920613 0.05379 1.92869e-20)
(1.03971 0.0548652 4.11955e-20)
(1.01789 0.0755325 3.63329e-22)
(1.01196 0.103007 -6.87191e-20)
(1.00657 0.146763 -6.09207e-20)
(1.00328 0.215125 3.52915e-19)
(0.984487 0.34313 1.11479e-20)
(1.04459 0.53352 7.41156e-19)
(0.739633 0.00962197 -2.7129e-22)
(1.18484 0.033302 2.13995e-20)
(0.921021 0.0532951 1.02136e-20)
(1.04461 0.0550884 -4.32266e-20)
(1.02299 0.0773353 -7.2868e-20)
(1.0205 0.106998 1.488e-21)
(1.0204 0.154065 -8.38457e-20)
(1.02675 0.227924 4.58595e-19)
(1.02824 0.357087 -7.1593e-21)
(1.12786 0.558087 -1.00952e-18)
(0.737305 0.0103049 5.66022e-21)
(1.18517 0.031656 3.19574e-20)
(0.921448 0.0521901 1.16978e-20)
(1.05 0.055189 -9.40926e-20)
(1.02805 0.078969 -6.88371e-20)
(1.02861 0.111259 -5.83818e-20)
(1.03266 0.162991 -1.50281e-19)
(1.04534 0.245602 -4.28933e-19)
(1.06595 0.382756 -2.47919e-19)
(1.2118 0.614256 -1.10202e-18)
(0.736458 0.0102964 -1.59088e-20)
(1.18771 0.0291305 -6.61437e-21)
(0.923076 0.0493438 -1.02795e-20)
(1.0561 0.0542851 7.7133e-21)
(1.03694 0.0780726 5.0999e-20)
(1.0431 0.111082 -4.04033e-20)
(1.0563 0.162897 1.34765e-19)
(1.08355 0.243353 -4.24211e-19)
(1.13196 0.36405 -1.78741e-19)
(1.24731 0.597479 5.85354e-19)
(0.73686 0.00798513 1.22643e-20)
(1.19163 0.0258661 1.25393e-20)
(0.927358 0.0442228 5.82678e-22)
(1.06152 0.0515286 4.22291e-20)
(1.04732 0.0740482 7.95574e-20)
(1.05868 0.105961 1.17982e-19)
(1.08015 0.154564 2.83345e-20)
(1.12072 0.227737 2.22854e-19)
(1.18329 0.331896 2.88057e-19)
(1.32034 0.513173 -6.36538e-21)
(0.737042 0.00507653 -1.60728e-20)
(1.19582 0.0221579 -3.89056e-21)
(0.931962 0.0389397 -5.41541e-21)
(1.06706 0.0476193 1.64453e-20)
(1.05728 0.0686277 2.19872e-34)
(1.07332 0.0984705 -8.13186e-21)
(1.10174 0.142626 -5.38096e-34)
(1.1527 0.207207 1.89562e-20)
(1.22214 0.292003 -5.34995e-20)
(1.37701 0.43779 -4.64535e-20)
(0.737293 0.00133447 3.18858e-20)
(1.2 0.0177701 -4.2072e-35)
(0.936554 0.0333583 5.1164e-21)
(1.07247 0.0426773 -1.65799e-20)
(1.06648 0.061866 -3.16546e-20)
(1.08657 0.0889042 -3.94307e-20)
(1.12076 0.127806 -6.66935e-34)
(1.17927 0.183389 -9.59541e-20)
(1.25315 0.250405 -1.33038e-19)
(1.41448 0.36454 8.5409e-20)
(0.737679 -0.0034438 0)
(1.20431 0.0127618 8.17906e-36)
(0.941066 0.027514 0)
(1.07757 0.0368824 0)
(1.07471 0.0539214 0)
(1.09818 0.0775804 0)
(1.13704 0.110728 -3.9856e-34)
(1.20067 0.157148 0)
(1.27785 0.208619 -2.03394e-20)
(1.43671 0.295669 5.18803e-20)
(0.738285 -0.00927957 1.76813e-20)
(1.20902 0.00723564 -2.67461e-21)
(0.945486 0.0215335 4.42176e-21)
(1.08222 0.0304314 0)
(1.08181 0.0449913 0)
(1.10799 0.0648397 6.87773e-21)
(1.1505 0.0919608 2.77666e-20)
(1.2174 0.129241 -1.41082e-20)
(1.29694 0.167573 -3.00915e-20)
(1.44897 0.231395 1.96147e-19)
(0.739192 -0.0168403 -5.56508e-20)
(1.21434 0.00113201 4.40003e-21)
(0.9498 0.0155792 4.0518e-21)
(1.08623 0.0235314 -5.26067e-21)
(1.08767 0.0352822 -1.07493e-20)
(1.11588 0.051003 -8.60797e-21)
(1.16112 0.071967 -2.08188e-20)
(1.22997 0.10029 -3.94244e-20)
(1.311 0.127621 -5.34532e-20)
(1.45521 0.171716 7.90931e-20)
(0.74039 -0.0228821 -2.50949e-20)
(1.2205 -0.00484543 -1.45379e-20)
(0.95377 0.0102866 3.55805e-21)
(1.08918 0.016392 -1.23292e-20)
(1.09185 0.0249713 5.33282e-35)
(1.12153 0.0363381 7.41542e-21)
(1.16868 0.0510605 -9.60046e-34)
(1.23867 0.0706231 -1.42851e-20)
(1.3204 0.0885335 1.88373e-20)
(1.458 0.115251 2.58234e-20)
(0.73922 -0.0414054 1.74728e-19)
(1.2164 -0.0126098 -1.03801e-20)
(0.94801 0.00361682 3.40424e-21)
(1.08183 0.0100678 2.73442e-21)
(1.08524 0.014854 3.21396e-21)
(1.11591 0.0219843 1.37423e-20)
(1.16433 0.030801 7.75704e-21)
(1.235 0.042399 -5.3092e-21)
(1.3166 0.0524212 -2.17713e-20)
(1.45106 0.0658717 1.37585e-19)
(0.677807 -0.0279224 2.18812e-20)
(1.03001 -0.0127638 -7.20964e-35)
(0.775045 0.00262034 2.61587e-21)
(0.899778 0.00101517 0)
(0.897534 0.0030373 0)
(0.924684 0.00453997 7.64965e-21)
(0.967342 0.00629176 -9.17222e-36)
(1.02848 0.00882095 -1.4184e-20)
(1.1001 0.0106481 -2.75415e-20)
(1.20898 0.0127039 5.62697e-20)
(1.44741 0.623972 -1.71028e-19)
(1.54033 0.612793 -2.76343e-19)
(1.63879 0.595773 0)
(1.72927 0.563609 1.00013e-19)
(1.81065 0.511596 4.84231e-19)
(1.88499 0.441663 -1.32175e-19)
(1.95116 0.358825 1.42606e-18)
(2.00559 0.267629 -6.337e-20)
(2.04548 0.170814 -3.47203e-19)
(2.06885 0.0713162 3.10906e-19)
(1.48895 0.510836 6.68491e-20)
(1.55529 0.501871 1.0942e-19)
(1.63339 0.481055 -5.08199e-21)
(1.7111 0.445486 1.68256e-19)
(1.78106 0.397151 -1.47372e-19)
(1.84263 0.338997 -3.68791e-19)
(1.89556 0.273682 -9.22758e-20)
(1.93806 0.203337 5.14935e-19)
(1.96869 0.129631 -1.9988e-20)
(1.9864 0.0537083 -4.36636e-19)
(1.52193 0.407193 9.67004e-20)
(1.57281 0.394665 1.70714e-19)