/*--------------------------------*- C++ -*----------------------------------*\
  =========                 |
  \\      /  F ield         | OpenFOAM: The Open Source CFD Toolbox
   \\    /   O peration     | Website:  https://openfoam.org
    \\  /    A nd           | Version:  13
     \\/     M anipulation  |
\*---------------------------------------------------------------------------*/
FoamFile
{
    format      ascii;
    class       surfaceScalarField;
    location    "0.4";
    object      phi;
}
// * * * * * * * * * * * * * * * * * * * * * * * * * * * * * * * * * * * * * //

dimensions      [0 3 -1 0 0 0 0];

internalField   nonuniform List<scalar> 
823
(
0.0241639
-0.0967982
0.0726343
0.0629077
-0.250298
0.211555
0.0998286
-0.294731
0.25781
0.132182
-0.297347
0.264994
-0.285286
0.255051
0.162418
0.0283978
-0.125196
0.0658946
-0.287795
0.0993847
-0.328221
0.129976
-0.327938
-0.317554
0.162243
0.0296772
-0.154873
0.0614487
-0.319567
0.0864765
-0.353248
0.107718
-0.34918
-0.335964
0.126128
0.0285147
-0.183388
0.0530531
-0.344105
0.0696544
-0.36985
0.0823752
-0.361901
-0.348041
0.0944516
0.0234077
-0.206795
0.0377601
-0.358458
0.043196
-0.375286
0.0466917
-0.365397
0.0492182
-0.350567
0.00670978
-0.0132865
0.00657675
0.0412298
-0.0535944
0.0190743
0.0883792
-0.0711836
0.0240342
0.138182
-0.0746696
0.0248671
-0.0753867
0.189202
0.0243666
0.00897645
-0.022263
0.045467
-0.0900849
0.0932167
-0.118933
0.143193
-0.124646
-0.125873
0.193679
0.0126433
-0.0349063
0.0519273
-0.129369
0.100231
-0.167237
0.150175
-0.17459
-0.174671
0.198973
0.0170578
-0.0519641
0.0584889
-0.1708
0.105967
-0.214715
0.15423
-0.222853
-0.218709
0.198268
0.0206702
0.0614248
0.104519
0.14666
0.183002
0.340038
-0.328089
0.177253
0.389364
-0.16747
0.118144
0.40244
-0.0884774
0.0754016
0.402207
-0.0438661
0.0440994
-0.00940929
0.0155082
0.33443
-0.46884
0.38491
-0.21795
0.400152
-0.10372
0.401943
-0.045657
-0.00535236
0.322508
-0.592375
0.375063
-0.270504
0.394055
-0.122711
0.399799
-0.0514013
-0.00540882
0.303687
-0.697794
0.359368
-0.326185
0.384112
-0.147456
0.395773
-0.0630618
-0.0115979
0.278977
-0.793769
0.337382
-0.38459
0.370222
-0.180296
0.38981
-0.0826499
-0.0258855
0.73144
-0.631039
-0.89417
0.66022
-0.313369
0.633591
-0.153667
0.624039
-0.0730981
-0.0231496
0.753338
-0.446645
-0.937732
0.677372
-0.237403
0.644499
-0.120795
0.630307
-0.0589064
-0.0187769
0.775867
-0.279535
-0.942977
0.693771
-0.155307
0.654028
-0.0810515
0.635536
-0.0404149
-0.0129757
0.784986
-0.120367
-0.944154
0.701001
-0.071322
0.658479
-0.0385294
0.637712
-0.0196478
-0.00633481
0.717605
-0.837972
0.646283
0.607754
0.588106
0.900985
0.0380805
-0.889847
0.903998
0.091438
0.914106
0.11602
0.893797
0.182553
0.162045
0.846802
0.0271771
-0.835898
0.864795
0.0734448
0.886436
0.094379
0.919806
0.149183
0.144119
0.807498
0.0163283
-0.79665
0.831254
0.0496895
0.858238
0.067395
0.9035
0.103921
0.104642
0.782525
0.00469241
-0.770889
0.809603
0.0226113
0.843034
0.0339639
0.89436
0.0525952
0.0548482
0.673954
-0.669261
0.696565
0.730529
0.783124
0.135754
0.269199
-0.223943
-0.181011
0.0948177
0.279075
-0.238138
0.0566489
0.29201
-0.253841
0.0213016
0.29443
-0.259083
0.202986
-0.181685
0.121257
0.304112
-0.15617
0.0855307
0.314801
0.0500464
0.327494
0.0180074
0.326469
0.220994
0.0831831
0.328759
-0.10783
0.0570429
0.340941
0.0295357
0.355001
0.00658916
0.349416
0.227583
0.0381076
0.344399
-0.0537473
0.0215703
0.357478
0.00574265
0.370829
-0.00552388
0.360682
0.222059
-0.00511317
-0.0010552
-0.0130317
-0.0174883
-0.0152636
0.195589
0.0725852
-0.242734
-0.0254403
0.145857
0.0761426
-0.0264101
0.0933673
0.0801965
-0.0277072
0.0393365
0.0826371
-0.0286062
0.0612089
-0.0218724
0.18778
0.118864
-0.234058
0.139672
0.124251
0.0890719
0.130796
0.0374932
0.134216
0.0987021
0.170359
0.162785
-0.21428
0.125875
0.168735
0.0795228
0.177149
0.0326722
0.181066
0.131374
0.158211
0.199479
-0.194905
0.118098
0.208848
0.0741849
0.221062
0.0299389
0.225313
0.161313
0.116212
-0.140676
0.0869213
0.0541422
0.0203717
0.407512
0.0278121
-0.0393446
0.409259
0.061368
-0.0631151
0.398291
0.100804
-0.0898359
0.351743
0.162382
-0.115834
0.289891
-0.180882
0.404967
0.0188248
0.404809
0.0615258
0.391501
0.114112
0.34639
0.207493
0.402223
0.399995
0.0148095
0.395893
0.0656274
0.378678
0.131328
0.336716
0.249455
0.524659
0.39271
0.0180792
0.382747
0.0755898
0.36181
0.152265
0.324367
0.286897
0.654121
0.383472
0.030587
0.365615
0.0934468
0.337907
0.179973
0.289948
0.334856
0.803394
0.610289
0.0243186
0.62224
0.0814953
0.643192
0.159021
0.69322
0.284828
0.630811
0.865803
0.614666
0.0136734
0.632885
0.0632764
0.664897
0.127009
0.731343
0.218382
0.462846
0.899307
0.618514
-0.00081984
0.641725
0.0400654
0.681041
0.0876925
0.754264
0.145159
0.298036
0.919074
0.620557
-0.017356
0.647066
0.013556
0.69091
0.0438481
0.766015
0.0700545
0.141974
0.922077
0.586664
0.60022
0.644068
0.714123
0.856097
0.890841
-0.206048
0.88539
-0.150719
0.881342
-0.103782
0.882135
-0.0545402
-0.00876773
0.869821
-0.176562
0.848816
-0.129714
0.834591
-0.0895569
0.832357
-0.0523061
-0.012309
0.866962
-0.12445
0.831999
-0.0947515
0.809095
-0.0666526
0.797261
-0.0404718
-0.011698
0.86021
-0.0625825
0.816219
-0.0507604
0.787554
-0.0379879
0.772218
-0.0251358
-0.0103691
0.793515
0.742754
0.704766
0.679631
0.0458069
0.24583
-0.291637
0.0631298
0.440005
-0.457328
0.0607053
0.467463
-0.465039
0.0533233
0.457586
-0.450204
0.426062
0.0420332
-0.414772
0.0744603
0.17137
0.129578
0.384888
0.161843
0.435198
0.184082
0.435347
0.422841
0.187304
0.0727144
0.0986557
0.150802
0.3068
0.210566
0.375433
0.261672
0.384241
0.380484
0.304029
0.0485709
0.0500849
0.125435
0.229936
0.19836
0.302509
0.264991
0.317609
0.306798
0.338677
0.0231953
0.0268896
0.0829298
0.170201
0.151013
0.234426
0.215816
0.252807
0.242469
0.280145
0.0100811
0.0168085
0.0559906
0.124292
0.115814
0.174602
0.17964
0.188981
0.187818
0.234291
0.00657725
0.0102312
0.0460652
0.0848037
0.100154
0.120514
0.159316
0.129818
0.132681
0.214453
0.00573825
0.00449299
0.0417218
0.0488202
0.0915761
0.0706594
0.145364
0.0760299
0.0791029
0.198942
0.00542743
-0.000934443
0.0395924
0.0146552
0.0872835
0.0229683
0.138232
0.0250809
0.0270191
0.190316
0.00564231
0.0393719
0.0863744
0.136322
0.187708
0.293811
0.347294
-0.406813
0.332794
0.0629264
-0.101909
0.357908
-0.0148835
-0.0102311
0.376399
-0.0268546
0.00836337
-0.0188368
0.0044836
0.31296
0.248787
0.355551
0.0203356
0.374421
-0.0337537
0.385078
-0.0375118
-0.0251881
0.326619
0.12111
0.370903
-0.023948
0.386647
-0.0494982
0.391959
-0.042823
-0.0254498
0.336056
-0.0246293
0.38217
-0.0700625
0.395588
-0.0629163
0.397163
-0.0443976
-0.0215485
0.340332
0.388413
0.400898
0.4006
0.466251
0.100881
-0.567133
0.441433
0.0248181
0.440094
0.00133921
0.444581
-0.00448684
-0.00210446
0.581095
-0.887027
0.504004
0.495112
0.498988
0.104284
-0.00560601
-0.0986777
0.162822
-0.0585384
0.268774
-0.105952
0.428302
-0.159528
-0.138831
0.239721
-0.203294
0.368486
0.566563
0.745712
0.140396
-0.157816
0.188075
-0.170655
0.1071
-0.167189
0.200486
0.0696634
-0.179278
0.216714
0.0288258
-0.185315
0.226153
-0.135061
0.163887
0.187417
-0.116836
-0.228397
0.142251
-0.122023
0.0917144
-0.128741
0.038936
-0.132537
-0.0961248
0.188374
-0.0694174
-0.235793
0.140148
-0.0737973
0.0896708
-0.0782642
0.0378663
-0.0807325
-0.0582585
0.197097
-0.021989
-0.244525
0.147184
-0.0238844
0.0944036
-0.0254836
0.0399705
-0.0262994
-0.0182881
0.198551
-0.245981
0.148257
0.0950661
0.0401605
0.0805018
-0.392837
-0.102438
0.0476029
-0.417305
0.0154053
-0.432841
-0.00922013
-0.432703
-0.300857
0.168964
-0.348633
-0.213167
0.117578
-0.365919
0.065616
-0.38088
0.0207822
-0.387869
-0.280075
0.19738
-0.296807
-0.249206
0.142135
-0.310673
0.087154
-0.325899
0.0348446
-0.335559
-0.245231
0.211059
-0.247334
-0.260533
0.156486
-0.2561
0.0999883
-0.269401
0.0428632
-0.278434
-0.202368
0.199063
-0.258322
0.143449
0.090762
0.0384808
0.38275
0.060025
-0.0467951
0.362598
0.0480579
-0.027906
0.336565
0.0282557
-0.00222296
0.306062
-0.0344396
0.0649429
-0.242109
0.377516
0.392316
0.0636889
0.381141
0.0592324
0.360495
0.0489015
0.333931
-0.00787512
-0.136575
0.39984
0.0598283
0.394941
0.0641317
0.377904
0.0659386
0.342139
0.0278898
-0.0302293
0.404935
0.050873
0.404343
0.0647231
0.391297
0.0789854
0.349009
0.0701776
0.0742541
0.407508
0.409116
0.398265
0.352609
0.466676
0.0433748
0.446386
0.0202902
0.447705
-0.00131936
0.483613
-0.035908
-0.187225
0.670838
0.506631
0.499015
0.495473
0.524507
0.714798
0.532407
0.138432
0.40748
0.124927
0.271176
0.136304
0.153905
0.117271
0.0552275
0.594909
0.459303
0.3464
0.250504
)
;

boundaryField
{
    left
    {
        type            calculated;
        value           nonuniform List<scalar> 
17
(
-0.60402
-0.60402
-0.60402
-0.60402
-0.60402
-0.39598
-0.39598
-0.39598
-0.39598
-0.39598
-0.39598
-0.39598
-0.39598
-0.39598
-0.39598
-0.510051
-0.510051
)
;
    }
    right
    {
        type            calculated;
        value           nonuniform List<scalar> 
17
(
0.446685
0.501368
0.390753
0.391429
0.39222
0.393262
0.39456
0.396108
0.397886
0.399856
0.401962
0.404098
0.621303
0.625934
0.629735
0.631071
0.581771
)
;
    }
    down
    {
        type            calculated;
        value           uniform 0;
    }
    up
    {
        type            calculated;
        value           uniform 0;
    }
    cylinder
    {
        type            calculated;
        value           uniform 0;
    }
    defaultFaces
    {
        type            empty;
    }
}


// ************************************************************************* //
