/*--------------------------------*- C++ -*----------------------------------*\
  =========                 |
  \\      /  F ield         | OpenFOAM: The Open Source CFD Toolbox
   \\    /   O peration     | Website:  https://openfoam.org
    \\  /    A nd           | Version:  13
     \\/     M anipulation  |
\*---------------------------------------------------------------------------*/
FoamFile
{
    format      ascii;
    class       volVectorField;
    location    "0.4";
    object      U;
}
// * * * * * * * * * * * * * * * * * * * * * * * * * * * * * * * * * * * * * //

dimensions      [0 1 -1 0 0 0 0];

internalField   nonuniform List<vector> 
440
(
(0.42862 -0.319086 -4.27678e-19)
(1.19374 -0.852173 5.87857e-19)
(1.48173 -0.955771 1.0255e-18)
(1.54552 -0.923568 -1.53481e-18)
(1.48091 -0.843389 6.36976e-20)
(0.623472 -0.320907 5.20569e-20)
(1.52574 -0.769647 -1.05116e-18)
(1.80845 -0.823109 -8.33416e-19)
(1.83918 -0.783922 2.50689e-19)
(1.79186 -0.730155 1.26895e-19)
(0.844518 -0.27607 -2.97462e-20)
(1.83045 -0.609187 3.86549e-18)
(2.07692 -0.618908 -2.54982e-18)
(2.07128 -0.596445 -5.6221e-18)
(1.99471 -0.541983 1.75145e-18)
(1.06077 -0.170213 -5.02602e-19)
(2.06962 -0.371946 -2.03235e-18)
(2.2644 -0.348895 4.56866e-18)
(2.22606 -0.342966 3.94362e-18)
(2.13828 -0.310846 -1.0655e-18)
(1.23928 -0.00791099 -1.02207e-18)
(2.21793 -0.0889242 -1.53356e-18)
(2.35441 -0.0527992 3.35697e-18)
(2.291 -0.0757902 3.15239e-18)
(2.19728 -0.0628966 9.50127e-19)
(-0.00040001 -0.0616692 -3.32322e-21)
(0.0725925 -0.223288 -3.43351e-19)
(0.193952 -0.286115 3.47071e-19)
(0.302999 -0.29127 -4.61166e-20)
(0.40757 -0.28444 -2.61941e-19)
(0.0245974 -0.10728 1.98809e-19)
(0.168952 -0.4243 5.02711e-19)
(0.320586 -0.540494 8.74938e-20)
(0.430413 -0.543827 4.91505e-20)
(0.533944 -0.528123 -5.27985e-20)
(0.0732062 -0.162087 -6.13416e-19)
(0.340512 -0.608315 -8.67808e-19)
(0.538371 -0.757397 -2.55807e-19)
(0.648817 -0.756283 9.44582e-19)
(0.745796 -0.727281 -1.55309e-20)
(0.154429 -0.224251 -3.11904e-19)
(0.582401 -0.756968 4.82685e-19)
(0.82851 -0.913613 -5.95985e-19)
(0.936991 -0.906507 -1.14359e-18)
(1.01108 -0.859827 1.62829e-19)
(0.272655 -0.282225 5.23533e-20)
(0.873808 -0.84578 -1.52399e-19)
(1.15199 -0.985838 -6.28275e-19)
(1.24728 -0.969054 6.97647e-19)
(1.26846 -0.902665 1.4877e-18)
(0.691474 -0.177611 -1.10301e-19)
(0.889337 -0.101919 4.39446e-20)
(0.9608 -0.0597648 -9.96479e-22)
(0.988315 -0.0334489 -3.51988e-21)
(1.00033 -0.0115855 -2.58821e-21)
(0.727101 -0.280784 1.73867e-19)
(0.908726 -0.140101 -1.4671e-21)
(0.971788 -0.0740126 -1.11067e-20)
(0.995243 -0.0387538 -4.19112e-21)
(1.00482 -0.0130742 5.60066e-21)
(0.791026 -0.369748 1.96792e-19)
(0.935706 -0.174847 1.02521e-19)
(0.985952 -0.0870644 7.17026e-21)
(1.00344 -0.0434832 4.98407e-21)
(1.00979 -0.0143454 -3.25502e-21)
(0.88656 -0.440879 -3.22181e-19)
(0.966825 -0.205365 -1.60296e-21)
(1.00209 -0.0981625 -1.71356e-20)
(1.01253 -0.0472918 -4.81617e-21)
(1.01511 -0.0153057 -1.23403e-22)
(1.0211 -0.494709 -3.6651e-20)
(1.00185 -0.237165 -1.04261e-19)
(1.01773 -0.110856 0)
(1.02149 -0.0511337 9.69391e-21)
(1.0205 -0.0160907 2.11835e-21)
(1.28972 -0.475705 2.42211e-20)
(1.10997 -0.232843 3.49837e-20)
(1.06014 -0.109619 1.08836e-21)
(1.03936 -0.0503802 1.28056e-21)
(1.02861 -0.0157714 -6.73724e-21)
(1.35296 -0.320427 4.53443e-20)
(1.14555 -0.16799 -8.4569e-20)
(1.08243 -0.0853938 2.69124e-22)
(1.05294 -0.0415273 -1.43574e-20)
(1.03628 -0.0132494 0)
(1.40589 -0.225778 9.3742e-21)
(1.1852 -0.122984 3.90101e-21)
(1.10369 -0.0633293 -2.01838e-20)
(1.06456 -0.0312268 6.03992e-21)
(1.04257 -0.00999153 -2.52749e-21)
(1.42629 -0.126053 -5.95352e-20)
(1.2037 -0.0734993 9.84007e-21)
(1.114 -0.0392795 -9.58601e-22)
(1.0698 -0.0198831 2.3788e-35)
(1.04478 -0.00641523 -4.56879e-21)
(1.29705 -0.0221991 -6.19756e-21)
(1.1094 -0.0144657 -4.6327e-21)
(1.02882 -0.0083677 2.38876e-21)
(0.987173 -0.00435816 -1.04159e-21)
(0.963159 -0.00139773 4.28419e-22)
(2.02307 -0.0646977 -1.12463e-18)
(1.99841 -0.238242 -1.22836e-18)
(1.87838 -0.435798 1.16804e-18)
(1.78983 -0.516389 -1.74541e-19)
(1.534 -0.719299 -5.25116e-20)
(1.89956 -0.0295661 -5.67314e-22)
(1.89387 -0.116707 -2.85518e-20)
(1.81146 -0.252407 -4.86559e-20)
(1.76143 -0.276917 -1.35195e-19)
(1.62022 -0.442941 6.74431e-21)
(1.81114 -0.0235102 3.74464e-20)
(1.80417 -0.0752679 9.96058e-20)
(1.75179 -0.162978 -1.4438e-19)
(1.70052 -0.174326 3.30358e-20)
(1.61474 -0.283135 8.56803e-20)
(1.75398 -0.0201032 7.61598e-20)
(1.74755 -0.0435697 3.8937e-20)
(1.71505 -0.0870365 -6.28176e-21)
(1.66692 -0.0911958 6.77281e-20)
(1.6102 -0.146951 -9.85488e-21)
(1.51486 -0.010423 1.06432e-19)
(1.49861 -0.0104563 -8.01128e-21)
(1.48 -0.0158989 1.28378e-20)
(1.44276 -0.0113138 7.74626e-21)
(1.42548 -0.0244892 3.85018e-20)
(1.42259 0.723968 9.12356e-19)
(1.41089 0.828934 -2.6399e-19)
(1.42449 0.955945 -1.11313e-18)
(1.39821 1.02652 6.61657e-19)
(0.89255 0.808917 -1.77857e-19)
(1.70288 0.649085 -5.01657e-19)
(1.71273 0.742739 -2.60744e-18)
(1.73531 0.860396 -1.03717e-18)
(1.71345 0.911023 -4.09919e-19)
(1.10536 0.732478 -7.16421e-19)
(1.92962 0.544016 7.07904e-19)
(1.96761 0.620184 1.87214e-19)
(2.01041 0.724315 -2.16736e-18)
(1.98641 0.737602 -7.33537e-19)
(1.27787 0.596951 6.04343e-19)
(2.08708 0.382166 2.30505e-18)
(2.15331 0.431205 1.81028e-18)
(2.21837 0.517811 -2.17827e-18)
(2.17547 0.498176 -2.08419e-18)
(1.36189 0.405514 -4.50305e-19)
(2.17674 0.177556 1.26421e-18)
(2.26294 0.192524 -9.52582e-19)
(2.33727 0.245277 7.82076e-19)
(2.25553 0.211772 8.04535e-19)
(1.34603 0.19418 -9.81773e-19)
(0.530142 0.264773 -6.26997e-19)
(0.459099 0.284903 -5.99713e-19)
(0.353296 0.309748 9.97119e-20)
(0.225464 0.330019 -5.56753e-20)
(0.0578771 0.255754 4.71896e-20)
(0.616402 0.464611 6.87286e-20)
(0.55147 0.510086 -2.97386e-19)
(0.458455 0.566578 1.46852e-19)
(0.339631 0.614801 -6.63504e-20)
(0.141319 0.480905 9.57392e-20)
(0.753289 0.635429 2.88659e-19)
(0.698496 0.701881 2.94108e-19)
(0.627684 0.781858 -4.72564e-20)
(0.529959 0.845603 -1.9399e-19)
(0.282053 0.661226 1.4961e-19)
(0.953139 0.738003 1.16829e-19)
(0.915893 0.822597 -2.70715e-19)
(0.871315 0.92165 -1.2148e-18)
(0.796912 0.999981 5.70132e-19)
(0.473702 0.78598 -1.89846e-19)
(1.1004 0.799607 -1.23242e-19)
(1.10862 0.906036 -1.92251e-19)
(1.1165 1.01585 -2.43593e-19)
(1.07945 1.07872 -3.13664e-19)
(0.677922 0.837295 -5.59308e-21)
(0.718552 0.0254436 -8.83004e-20)
(1.19811 0.0466539 -3.41339e-20)
(0.889222 0.0687819 -6.86132e-21)
(0.932211 0.0995186 -3.13926e-19)
(0.763444 0.166604 2.47613e-19)
(0.717543 0.0217202 8.09752e-20)
(1.19952 0.0516684 1.25077e-19)
(0.897235 0.0810695 1.02237e-19)
(0.944429 0.13538 7.00924e-20)
(0.828823 0.245317 1.14005e-20)
(0.715666 0.0187395 9.43236e-20)
(1.19992 0.0554703 -4.47361e-21)
(0.907506 0.0924897 1.33896e-20)
(0.962269 0.16583 1.42833e-19)
(0.936253 0.327297 -4.17759e-19)
(0.712745 0.017057 -8.22687e-21)
(1.19948 0.0576475 -1.57005e-19)
(0.919026 0.102143 -4.68171e-20)
(0.99292 0.185102 -4.01627e-19)
(1.06754 0.380004 8.65224e-20)
(0.708559 0.0185068 -3.23062e-20)
(1.1995 0.0589292 3.95652e-20)
(0.929338 0.110457 2.14331e-20)
(1.02408 0.208079 3.96429e-19)
(1.1814 0.488406 -4.35374e-19)
(0.705942 0.0184474 1.90356e-21)
(1.21484 0.0551349 6.94171e-20)
(0.950404 0.10778 -8.49023e-20)
(1.10337 0.194064 7.13085e-19)
(1.25779 0.475055 -3.4895e-19)
(0.706489 0.0118771 -7.90511e-21)
(1.22747 0.045519 -6.07756e-20)
(0.974753 0.0899157 3.90632e-22)
(1.14584 0.158656 -1.99575e-19)
(1.34406 0.343668 3.85951e-20)
(0.707045 0.00618391 -3.70884e-21)
(1.23852 0.0326021 7.08446e-36)
(0.994259 0.0674087 -5.09677e-20)
(1.17741 0.113725 6.44138e-20)
(1.38803 0.239089 1.33264e-19)
(0.706893 -0.00755828 1.54169e-20)
(1.24496 0.0177221 -1.00175e-20)
(1.00608 0.0423143 4.7397e-21)
(1.19662 0.0699689 4.41538e-20)
(1.40715 0.141003 -2.11708e-19)
(0.679257 -0.0109471 -4.7079e-20)
(1.16197 -0.000744313 -1.51319e-21)
(0.930351 0.0110738 1.27136e-20)
(1.11981 0.0151193 -8.67479e-21)
(1.30771 0.0327602 -4.89961e-20)
(1.53743 0.500461 2.86945e-19)
(1.68191 0.476773 6.62334e-19)
(1.83534 0.412002 -9.76433e-19)
(1.94679 0.292237 7.93141e-20)
(2.01181 0.125821 3.68679e-19)
(1.55086 0.334275 6.74242e-20)
(1.63622 0.318705 8.47332e-19)
(1.74106 0.260539 8.41446e-20)
(1.82979 0.171262 -7.75993e-19)
(1.88932 0.0759219 -2.45604e-19)
(1.56499 0.195739 -1.86442e-19)
(1.62416 0.182385 -1.22111e-19)
(1.69263 0.150493 1.57959e-19)
(1.75769 0.101485 -2.45381e-19)
(1.80206 0.0444246 2.02789e-19)
(1.55742 0.108346 2.64244e-19)
(1.60435 0.0966853 -5.11329e-21)
(1.6528 0.0767552 1.75097e-19)
(1.70374 0.0467482 1.49993e-19)
(1.74128 0.0146854 -1.34041e-19)
(1.44386 0.0188456 -3.14179e-20)
(1.47084 0.011408 1.73291e-19)
(1.49045 0.0042734 8.02763e-20)
(1.51013 -0.00243252 -1.69272e-19)
(1.51918 -0.00699586 5.98918e-22)
(1.75589 -0.05425 8.41311e-20)
(2.86187 0.0826763 -9.18722e-19)
(2.96002 0.0353669 2.18166e-18)
(2.86487 0.0907188 1.00474e-18)
(2.60944 0.0874052 -5.91324e-19)
(1.36534 0.128662 3.99744e-19)
(2.66554 0.322289 -1.38987e-18)
(2.92374 0.262329 -1.39773e-18)
(2.89301 0.248186 1.77988e-18)
(2.75601 0.194806 -1.06953e-18)
(0.828944 0.204245 -7.5078e-20)
(2.18579 0.531062 2.00203e-18)
(2.6149 0.512686 3.2928e-19)
(2.6657 0.471154 2.41548e-18)
(2.66535 0.367527 1.51769e-18)
(0.402304 0.183303 7.97467e-19)
(1.58197 0.661934 1.00913e-18)
(2.0854 0.732656 -3.20577e-18)
(2.21793 0.659293 2.34748e-19)
(2.19999 0.581744 9.34407e-19)
(0.176768 0.137776 9.00794e-19)
(1.0443 0.700282 -1.15256e-18)
(1.49656 0.845505 -6.00586e-19)
(1.68231 0.79494 1.04674e-18)
(1.61756 0.687974 2.13093e-19)
(0.0820604 0.102518 2.46031e-19)
(0.653522 0.647853 7.53732e-19)
(1.01228 0.81627 1.1828e-18)
(1.18399 0.80521 -1.20653e-18)
(1.25199 0.722553 9.24939e-20)
(0.0386618 0.0741716 -3.26757e-19)
(0.387684 0.527604 -4.61453e-19)
(0.653051 0.682303 -1.60083e-19)
(0.795998 0.682107 -2.84079e-19)
(0.91016 0.6379 -1.07702e-19)
(0.0117939 0.0449471 -2.2727e-19)
(0.205928 0.367165 7.63465e-19)
(0.394186 0.485024 -7.57931e-19)
(0.515905 0.483514 -1.15473e-18)
(0.632313 0.463215 3.50364e-19)
(-0.00432123 0.0126 -9.8952e-20)
(0.0935596 0.181909 -3.04424e-19)
(0.231264 0.246347 4.31524e-19)
(0.343662 0.242983 6.18596e-19)
(0.453867 0.235504 -3.05288e-20)
(-0.0088701 -0.0225938 4.34395e-20)
(0.0485479 -0.0179338 -9.12125e-20)
(0.164076 -0.0168563 1.98212e-20)
(0.273456 -0.0216267 -9.99882e-21)
(0.379446 -0.0215457 -9.10673e-20)
(0.9284 0.277155 1.23204e-19)
(0.915556 0.0674087 1.33793e-19)
(0.950173 0.00562642 -2.04554e-21)
(0.972281 -0.00670055 -1.39601e-21)
(0.986796 -0.0034442 9.4526e-22)
(0.802675 0.205235 1.08692e-19)
(0.900056 0.0336688 -2.07053e-19)
(0.950323 -0.00820061 -2.82745e-20)
(0.974301 -0.0119845 1.76824e-21)
(0.988508 -0.00503401 -3.27841e-21)
(0.730397 0.133804 1.45031e-19)
(0.886997 0.0103145 -1.39114e-19)
(0.948625 -0.0172778 -7.9279e-21)
(0.975863 -0.01662 1.05881e-20)
(0.990508 -0.00659074 3.83125e-21)
(0.691762 0.0391045 -4.30599e-20)
(0.878387 -0.0247488 2.09782e-19)
(0.949271 -0.0308844 4.15363e-21)
(0.978633 -0.022168 -1.23672e-21)
(0.99314 -0.00827363 1.26356e-21)
(0.680193 -0.0680078 7.32979e-21)
(0.879079 -0.0625519 -2.92284e-20)
(0.953289 -0.0451288 -4.63192e-22)
(0.982769 -0.0278307 5.73055e-21)
(0.996419 -0.00995782 2.73207e-21)
(0.913443 -0.0271843 -1.77889e-19)
(0.852677 -0.00666674 0)
(0.856939 -0.0024618 -2.90988e-21)
(0.865957 -0.00125207 5.73771e-21)
(0.875755 -0.000442229 -3.31291e-21)
(1.22501 0.178133 0)
(1.00041 0.045401 0)
(0.968503 0.00514023 5.53813e-20)
(0.972618 -0.00373572 1.22071e-20)
(0.98297 -0.00205409 -8.86838e-23)
(0.87434 0.0130383 -9.99594e-20)
(0.939545 0.00364391 -1.55322e-19)
(1.02745 0.0112485 1.50632e-19)
(1.15944 -0.0111345 8.19285e-19)
(1.15312 0.0190626 2.13102e-19)
(1.95704 0.0755311 9.23126e-20)
(2.16059 0.110376 9.06256e-20)
(2.28294 0.197476 -1.64036e-19)
(2.29191 0.274629 1.75927e-19)
(1.80103 0.433624 -8.88371e-20)
(0.981444 -0.567068 1.24953e-19)
(0.987089 -0.677648 -2.37849e-19)
(0.996794 -0.796626 -2.89888e-19)
(0.9583 -0.886096 1.80896e-19)
(0.601605 -0.721467 1.45868e-19)
(0.870689 -0.47156 5.64647e-20)
(0.830618 -0.55316 -2.92123e-21)
(0.77418 -0.650645 -1.56075e-19)
(0.683693 -0.743962 1.45053e-19)
(0.391379 -0.61048 1.32249e-20)
(0.679919 -0.34742 -4.97227e-20)
(0.619535 -0.405354 -5.48002e-20)
(0.538043 -0.477022 -3.57685e-20)
(0.428569 -0.541891 -6.22976e-20)
(0.207076 -0.435388 -1.35926e-19)
(0.564859 -0.159871 -3.36068e-19)
(0.497262 -0.193525 -2.93649e-19)
(0.397488 -0.237115 2.5725e-19)
(0.273735 -0.277913 1.26582e-19)
(0.0931224 -0.224201 1.15958e-20)
(0.512072 0.0489811 -1.20438e-19)
(0.440136 0.0424481 -1.46296e-19)
(0.331973 0.0331521 -2.98516e-20)
(0.202475 0.0234665 7.35004e-20)
(0.0411989 0.0146738 1.78235e-20)
(2.50701 0.0275012 1.11003e-18)
(2.69539 -0.0385168 4.47357e-19)
(2.79185 -0.165426 -1.12326e-18)
(2.7792 -0.170678 -2.84621e-18)
(1.86372 -0.283015 1.80525e-19)
(2.37603 -0.0897592 1.84236e-18)
(2.45915 -0.215713 2.37627e-18)
(2.51074 -0.367175 2.01321e-19)
(2.52549 -0.436225 3.49872e-19)
(1.74701 -0.514896 -2.50089e-19)
(2.06001 -0.273986 -4.62503e-18)
(2.10756 -0.40144 4.85498e-19)
(2.14726 -0.559846 1.46756e-18)
(2.15611 -0.670289 -6.62264e-19)
(1.48499 -0.677793 1.09851e-18)
(1.74658 -0.407186 1.1294e-18)
(1.74801 -0.521246 -2.98973e-18)
(1.75599 -0.669857 -3.48242e-18)
(1.74287 -0.801405 1.1745e-18)
(1.1722 -0.750478 7.40179e-19)
(1.40098 -0.487585 3.05366e-19)
(1.35644 -0.598943 2.9152e-19)
(1.35453 -0.743661 -5.45242e-19)
(1.32599 -0.86948 -6.71755e-19)
(0.860175 -0.752943 -6.87001e-21)
(0.710015 0.0301649 -3.57816e-21)
(1.17478 0.0193419 -5.53031e-21)
(0.878407 0.00370127 -4.30934e-20)
(0.927781 -0.0396324 -1.34065e-19)
(1.09272 -0.226812 -2.15185e-20)
(0.713819 0.0342703 -3.33882e-21)
(1.18032 0.0241663 3.17099e-20)
(0.882126 0.0173746 -9.57769e-20)
(0.918317 -0.0227623 1.22488e-19)
(0.982376 -0.117151 1.63792e-20)
(0.716503 0.034086 -2.94673e-20)
(1.18628 0.0292583 1.09e-22)
(0.881683 0.0294185 -1.91693e-20)
(0.911338 -0.00626693 6.44591e-20)
(0.871835 -0.0706835 -2.41626e-19)
(0.718087 0.0322463 7.67039e-20)
(1.19137 0.0349486 3.41721e-21)
(0.88204 0.0427507 3.88245e-20)
(0.915059 0.025878 2.5046e-20)
(0.78252 0.00992007 5.21103e-20)
(0.718739 0.0290897 1.32453e-20)
(1.19538 0.04089 -2.86571e-20)
(0.884187 0.0560218 3.99623e-20)
(0.922663 0.0617693 5.74586e-20)
(0.747084 0.0855425 -5.30678e-20)
(0.668093 0.0175197 0)
(1.0651 0.00837602 4.63805e-21)
(0.78222 -0.00107293 -8.92589e-21)
(0.899273 -0.00714117 4.44874e-20)
(1.07137 -0.0425866 -1.73002e-19)
(0.708138 0.0312788 -3.02656e-20)
(1.17898 0.0156596 -1.54495e-20)
(0.879665 -0.00103548 1.64413e-20)
(0.987629 -0.0350893 -1.66569e-19)
(1.14261 -0.2084 -1.7614e-19)
(1.43243 -0.0607138 -3.74533e-20)
(1.53053 -0.0244904 6.60119e-19)
(1.64978 0.0529731 4.14395e-19)
(1.47252 0.0897255 -6.25725e-21)
(1.07218 0.0531848 0)
(1.54169 -0.299619 4.53516e-19)
(1.71011 -0.267079 1.93865e-18)
(1.95653 -0.146526 -2.20709e-18)
(2.13192 0.0127665 -7.40178e-19)
(2.05736 0.0815022 5.15662e-19)
)
;

boundaryField
{
    left
    {
        type            fixedValue;
        value           uniform (1 0 0);
    }
    right
    {
        type            zeroGradient;
    }
    down
    {
        type            noSlip;
    }
    up
    {
        type            noSlip;
    }
    cylinder
    {
        type            noSlip;
    }
    defaultFaces
    {
        type            empty;
    }
}


// ************************************************************************* //
