/*--------------------------------*- C++ -*----------------------------------*\
  =========                 |
  \\      /  F ield         | OpenFOAM: The Open Source CFD Toolbox
   \\    /   O peration     | Website:  https://openfoam.org
    \\  /    A nd           | Version:  13
     \\/     M anipulation  |
\*---------------------------------------------------------------------------*/
FoamFile
{
    format      ascii;
    class       volScalarField;
    location    "57.9";
    object      p;
}
// * * * * * * * * * * * * * * * * * * * * * * * * * * * * * * * * * * * * * //

dimensions      [0 2 -2 0 0 0 0];

internalField   nonuniform List<scalar> 
440
(
-0.581523
-0.567479
-0.574178
-0.530142
-0.584914
-0.62535
-0.608264
-0.58773
-0.561245
-0.540833
-0.727943
-0.69631
-0.659128
-0.612713
-0.559606
-0.855354
-0.808208
-0.725605
-0.626447
-0.526311
-0.94691
-0.88409
-0.742629
-0.59508
-0.458696
-1.18425
-1.20181
-1.24031
-1.30115
-1.38034
-1.00918
-1.02931
-1.07519
-1.1491
-1.23647
-0.806606
-0.800508
-0.790268
-0.770101
-0.744848
-0.636685
-0.629999
-0.613973
-0.582037
-0.53241
-0.516742
-0.512341
-0.494999
-0.4468
-0.391504
-1.40638
-1.45954
-0.988451
0.446725
-0.00390932
-1.01572
-1.24506
-0.882425
0.326123
-0.00406114
-0.721383
-1.07057
-0.733393
0.143098
-0.0283702
-0.523671
-1.12791
-0.615408
0.0282097
-0.067956
-0.37686
-1.20548
-0.527149
-0.011499
-0.060003
-0.151931
-1.12652
-0.402081
-0.0603805
-0.0346295
-0.032814
-0.799298
-0.240353
-0.071943
-0.0591045
0.0409839
-0.530716
-0.194395
-0.0424605
-0.0232779
0.0890346
-0.34865
-0.181223
-0.0620902
-0.0443963
0.177475
-0.23709
-0.213472
-0.0641933
-0.0308489
-0.221231
-0.339055
-0.458304
-0.59566
-0.656945
0.0156674
-0.0996891
-0.159544
-0.197052
-0.185411
0.169047
0.0794713
0.0221769
-0.00985919
-0.0289867
0.26645
0.182902
0.117441
0.084143
0.0590178
0.312017
0.226422
0.162021
0.133384
0.12267
1.01512
0.869832
0.68715
0.485411
0.264851
0.626542
0.471457
0.282098
0.0687081
-0.166587
0.23962
0.081451
-0.114963
-0.337255
-0.54911
-0.0894115
-0.251421
-0.44785
-0.659433
-0.822651
-0.319201
-0.476319
-0.656202
-0.843389
-0.948892
2.11539
2.14731
2.17748
2.19441
2.19381
1.93519
1.95739
1.97509
1.97631
1.95653
1.7202
1.70991
1.67796
1.62448
1.54634
1.47615
1.44353
1.37661
1.27994
1.1562
1.24695
1.14929
1.02144
0.873442
0.695759
1.8671
1.86218
1.83831
1.91101
1.99383
1.85836
1.85183
1.82129
1.89395
1.91295
1.85071
1.83835
1.80127
1.86524
1.80816
1.84434
1.82236
1.77974
1.82065
1.65018
1.83925
1.80568
1.75738
1.77634
1.48167
1.83581
1.78039
1.72867
1.67109
1.28678
1.83645
1.75171
1.72582
1.55912
1.36835
1.84114
1.73887
1.7256
1.49755
1.39695
1.84134
1.7119
1.72302
1.43666
1.40359
1.87739
1.70778
1.7223
1.40142
1.42854
0.994742
0.715162
0.391706
0.117914
-0.0780271
0.911303
0.715672
0.500559
0.309676
0.141515
0.905317
0.73775
0.576849
0.423
0.286919
0.94694
0.787785
0.641308
0.502737
0.38036
0.991806
0.833268
0.687488
0.550178
0.426043
-1.75948
-1.57866
-1.37716
-1.2084
-1.10437
-1.86498
-1.77091
-1.59686
-1.43728
-1.32295
-1.80809
-1.74637
-1.6137
-1.47511
-1.34913
-1.66644
-1.61616
-1.53712
-1.43475
-1.32103
-1.51285
-1.4894
-1.44785
-1.38114
-1.28209
-1.41684
-1.41098
-1.38729
-1.39123
-1.28359
-1.35089
-1.35328
-1.34203
-1.3686
-1.28512
-1.26068
-1.25678
-1.25046
-1.25891
-1.228
-1.19656
-1.17861
-1.15696
-1.13888
-1.12522
-1.19836
-1.19079
-1.18693
-1.19259
-1.2084
-0.776974
-0.953212
0.120577
0.410127
0.0474895
-0.827722
-0.983208
0.082903
0.479108
0.0397346
-0.96807
-1.19025
-0.418333
0.528053
0.011826
-1.27747
-1.59597
-0.87334
0.535994
-0.00304336
-1.52076
-1.70398
-0.987115
0.511378
0.00886087
-0.47696
-1.0825
0.0323963
0.325519
0.0587063
-0.726173
-0.975284
0.107951
0.367873
0.0621018
-1.04417
-1.23696
-1.24127
-1.1215
-0.891329
-1.06612
-1.25905
-1.25857
-1.16975
-1.05714
1.68543
1.65714
1.61042
1.54609
1.46072
1.89419
1.91177
1.91327
1.89658
1.86206
2.07168
2.10312
2.12687
2.13785
2.13396
2.17797
2.217
2.25803
2.29086
2.30521
2.19108
2.22861
2.27033
2.30507
2.32115
-0.61786
-0.738754
-0.92702
-1.15113
-1.4208
0.0204832
-0.126935
-0.323199
-0.560763
-0.866572
0.608482
0.456564
0.273684
0.0573504
-0.216655
1.08099
0.962092
0.818124
0.643353
0.42944
1.45978
1.37604
1.26729
1.13693
0.982392
1.92542
1.88631
1.86523
1.86488
1.85897
1.91073
1.88451
1.86615
1.88616
1.93309
1.8984
1.88149
1.86638
1.90988
2.0172
1.88705
1.87706
1.86122
1.92013
2.03381
1.87659
1.87106
1.85154
1.92071
2.03246
1.98037
1.8907
1.85018
1.78384
1.71575
1.93531
1.88203
1.84615
1.80729
1.73245
1.33737
1.09224
0.674206
0.0722087
-0.578671
1.42376
1.12778
0.691627
0.0931758
-0.572473
)
;

boundaryField
{
    left
    {
        type            zeroGradient;
    }
    right
    {
        type            fixedValue;
        value           uniform 0;
    }
    down
    {
        type            zeroGradient;
    }
    up
    {
        type            zeroGradient;
    }
    cylinder
    {
        type            zeroGradient;
    }
    defaultFaces
    {
        type            empty;
    }
}


// ************************************************************************* //
