# Selection   : all
# Cells       : 440
# Volume      : 7.374263e+01
# Time        	min(p)
9.315         	-1.609210e+00
9.36          	-1.643484e+00
9.41          	-1.666027e+00
