# Selection   : all
# Cells       : 1800
# Volume      : 7.372328e+01
# Time        	maxMag(U)
0.95          	3.137455e+00
0.975         	3.129407e+00
1             	3.121240e+00
