# Selection   : all
# Cells       : 440
# Volume      : 7.374263e+01
# Time        	min(p)
7.015         	-1.115900e+00
7.06          	-1.147682e+00
7.11          	-1.158895e+00
