# Selection   : all
# Cells       : 440
# Volume      : 7.374263e+01
# Time        	minMag(U)
0.7           	1.485973e-02
0.75          	4.027606e-02
0.8           	1.157871e-02
