/*--------------------------------*- C++ -*----------------------------------*\
  =========                 |
  \\      /  F ield         | OpenFOAM: The Open Source CFD Toolbox
   \\    /   O peration     | Website:  https://openfoam.org
    \\  /    A nd           | Version:  13
     \\/     M anipulation  |
\*---------------------------------------------------------------------------*/
FoamFile
{
    format      ascii;
    class       volScalarField;
    location    "0.375";
    object      p;
}
// * * * * * * * * * * * * * * * * * * * * * * * * * * * * * * * * * * * * * //

dimensions      [0 2 -2 0 0 0 0];

internalField   nonuniform List<scalar> 
440
(
7.88154
10.6382
13.0014
13.1852
10.213
20.7769
24.1604
27.1562
27.8577
25.9715
41.3156
44.3471
47.0503
47.8433
46.6831
67.4497
69.5476
71.4611
72.1179
71.4306
96.7273
97.5443
98.3413
98.7414
98.7079
-0.354958
-0.45579
0.0130669
0.569164
0.908131
-1.6326
-2.29288
-2.02703
-1.32972
-0.692971
-2.00127
-2.87828
-2.79105
-2.02892
-0.908476
-0.649381
-0.779635
-0.367885
0.603425
2.47259
3.12905
4.44128
5.87322
7.30894
9.56298
2.16211
2.34749
1.44503
0.75972
0.252845
1.11698
2.13513
1.32396
0.700536
0.23897
-0.0392454
1.70879
1.18192
0.648325
0.228155
-0.337653
1.10623
0.96747
0.602615
0.222339
1.58215
0.526738
0.678262
0.554691
0.220533
4.46192
0.303389
0.387746
0.511511
0.223238
6.78897
0.743895
0.467382
0.518511
0.18507
10.0488
2.4922
1.12565
0.636301
0.139461
13.9443
4.81895
2.19499
0.892641
0.132799
16.6833
7.19122
3.51881
1.33383
0.207533
100.752
75.9031
53.388
33.2143
12.4133
102.447
79.0049
57.5992
39.1187
23.5456
104.348
82.7654
62.5375
45.296
32.9492
105.231
85.0856
66.5682
51.2503
40.7252
105.15
84.808
66.3939
51.3178
40.9653
219.936
216.464
216.176
218.295
221.029
202.753
200.291
200.553
203.295
206.587
180.606
178.835
179.199
181.622
184.5
154.807
153.464
153.67
155.263
157.16
126.925
126.212
126.151
126.611
127.204
235.576
236
236.63
237.045
236.784
236.196
236.828
237.379
237.352
236.396
235.033
236.01
236.429
236.159
235.168
230.153
231.758
232.331
232.474
232.383
221.653
223.523
224.544
225.759
227.116
235.866
234.761
234.943
234.1
234.275
235.838
234.748
234.895
234.073
234.839
235.829
234.714
234.85
234.21
235.396
235.833
234.659
234.858
234.476
234.993
235.839
234.586
234.935
234.679
232.292
235.85
234.466
234.992
234.462
228.777
236.012
234.339
234.883
234.001
226.42
236.879
234.102
234.235
232.3
223.397
240.887
234.091
233.045
229.811
219.707
249.849
234.81
231.838
227.259
216.949
217.819
196.293
175.089
151.797
126.51
207.432
191.436
172.39
150.487
126.716
198.945
186.264
168.68
148.151
126.397
191.799
180.842
165.16
146.324
125.983
191.58
180.823
165.415
146.724
126.214
96.4544
95.5775
95.1297
94.3629
94.2063
57.3807
55.4336
53.7282
51.8068
51.041
29.5565
27.213
24.4506
22.152
20.8278
15.1084
12.6919
10.2271
8.2075
7.23725
9.28018
7.39292
6.00677
5.03194
4.44485
6.05076
4.94889
4.36944
4.28099
4.36948
4.14481
3.68451
3.61147
3.76662
3.92016
2.84653
2.82973
3.06055
3.3622
3.52009
1.75431
2.05566
2.50248
2.85129
2.99583
0.713549
1.1084
1.67604
2.07452
2.24733
3.69114
3.25951
2.14609
1.04794
0.317472
3.74323
3.08949
2.05421
0.994461
0.306107
3.54794
2.83261
1.92641
0.942804
0.294857
3.23356
2.5962
1.76764
0.889017
0.284153
2.81728
2.45004
1.59452
0.826739
0.270805
4.55833
3.24462
2.05595
1.07492
0.338945
3.8232
3.33756
2.14859
1.07857
0.328143
94.962
54.2114
27.58
14.5597
9.54071
93.7409
51.2021
23.0568
9.54485
5.3361
232.169
232.251
232.202
231.69
230.614
232.762
232.935
233.166
233.207
232.834
233.32
233.491
233.876
234.272
234.442
233.901
234.051
234.451
235.046
235.458
234.623
234.857
235.355
235.956
236.207
142.03
141.838
141.01
140.499
139.588
185.256
184.447
182.469
180.702
178.725
215.549
214.178
211.829
209.015
206.641
229.179
228.171
226.122
223.626
221.181
232.025
231.41
230.44
229.06
227.162
238.869
234.503
234.618
233.533
232.927
237.18
234.541
234.707
233.706
232.95
236.437
234.627
234.808
233.928
233.275
236.086
234.703
234.906
234.111
233.636
235.93
234.75
234.954
234.164
233.933
252.296
235.834
234.977
233.471
232.015
243.206
234.749
234.555
233.411
232.728
226.967
221.893
208.788
182.078
141.279
231.162
226.921
213.343
185.102
142.502
)
;

boundaryField
{
    left
    {
        type            zeroGradient;
    }
    right
    {
        type            fixedValue;
        value           uniform 0;
    }
    down
    {
        type            zeroGradient;
    }
    up
    {
        type            zeroGradient;
    }
    cylinder
    {
        type            zeroGradient;
    }
    defaultFaces
    {
        type            empty;
    }
}


// ************************************************************************* //
