# Selection   : all
# Cells       : 440
# Volume      : 7.374263e+01
# Time        	maxMag(U)
3.3           	2.827988e+00
3.35          	2.828076e+00
3.4           	2.827365e+00
