/*--------------------------------*- C++ -*----------------------------------*\
  =========                 |
  \\      /  F ield         | OpenFOAM: The Open Source CFD Toolbox
   \\    /   O peration     | Website:  https://openfoam.org
    \\  /    A nd           | Version:  13
     \\/     M anipulation  |
\*---------------------------------------------------------------------------*/
FoamFile
{
    format      ascii;
    class       volScalarField;
    location    "1.25";
    object      p;
}
// * * * * * * * * * * * * * * * * * * * * * * * * * * * * * * * * * * * * * //

dimensions      [0 2 -2 0 0 0 0];

internalField   nonuniform List<scalar> 
1800
(
-1.41348
-1.40355
-1.39729
-1.39567
-1.39584
-1.39089
-1.37333
-1.33854
-1.28522
-1.22504
-1.49507
-1.48412
-1.47645
-1.4719
-1.4661
-1.45213
-1.42444
-1.38125
-1.32515
-1.26543
-1.58724
-1.57553
-1.56601
-1.55698
-1.54232
-1.51595
-1.47487
-1.41999
-1.35534
-1.28773
-1.68983
-1.67738
-1.66494
-1.64899
-1.62241
-1.5812
-1.52555
-1.45912
-1.38673
-1.315
-1.79923
-1.7858
-1.76863
-1.74248
-1.70075
-1.6424
-1.57098
-1.49213
-1.41115
-1.33307
-1.90916
-1.89437
-1.87016
-1.8305
-1.77121
-1.69492
-1.60846
-1.51855
-1.43002
-1.34673
-2.01155
-1.99458
-1.96072
-1.9048
-1.82619
-1.73198
-1.63129
-1.53094
-1.43512
-1.34639
-2.09732
-2.07692
-2.03129
-1.95742
-1.85948
-1.7489
-1.63596
-1.52692
-1.42493
-1.33143
-2.15704
-2.13195
-2.07324
-1.9808
-1.86485
-1.74006
-1.61685
-1.50052
-1.39327
-1.29563
-2.18226
-2.15179
-2.07956
-1.96955
-1.83824
-1.70225
-1.57137
-1.44977
-1.33865
-1.23781
-0.427456
-0.431674
-0.43395
-0.432225
-0.425781
-0.41345
-0.394561
-0.369342
-0.338561
-0.302625
-0.493691
-0.497111
-0.498635
-0.496637
-0.490308
-0.478139
-0.459121
-0.433055
-0.400535
-0.362552
-0.590468
-0.592968
-0.593891
-0.59219
-0.586849
-0.575792
-0.557545
-0.531109
-0.496659
-0.455492
-0.709815
-0.711379
-0.712105
-0.711609
-0.708505
-0.69981
-0.683503
-0.657344
-0.620672
-0.573776
-0.840275
-0.840868
-0.841752
-0.843339
-0.843955
-0.839733
-0.826266
-0.801358
-0.763453
-0.709302
-0.968649
-0.968015
-0.968621
-0.972079
-0.976403
-0.976696
-0.967267
-0.944808
-0.906078
-0.846789
-1.08413
-1.08162
-1.08164
-1.08594
-1.09255
-1.09607
-1.09033
-1.07042
-1.03233
-0.968474
-1.18203
-1.17739
-1.17596
-1.17981
-1.18713
-1.19221
-1.18826
-1.16942
-1.13147
-1.06414
-1.26462
-1.25788
-1.25468
-1.25711
-1.26345
-1.26793
-1.26296
-1.24229
-1.20161
-1.13096
-1.33894
-1.33042
-1.32559
-1.32612
-1.33022
-1.3314
-1.32186
-1.29557
-1.24835
-1.17608
-0.0832042
0.0929438
0.135926
0.116992
0.0934984
0.0728781
0.054822
0.038279
0.0226215
0.00762186
-0.132221
0.0739245
0.125623
0.111362
0.0899186
0.0703442
0.0529834
0.0370211
0.0218927
0.00734732
-0.205383
0.0498479
0.112235
0.104582
0.0858435
0.0675624
0.0510165
0.035702
0.021138
0.00706338
-0.29658
0.0195926
0.095992
0.0966306
0.0812384
0.0645172
0.0489127
0.0343155
0.0203527
0.0067694
-0.397939
-0.0174995
0.0774916
0.0875202
0.0760716
0.0611919
0.0466639
0.032856
0.0195328
0.00646524
-0.503357
-0.0616578
0.0570936
0.0772911
0.07034
0.0575808
0.0442664
0.0313196
0.0186747
0.00615139
-0.607537
-0.113458
0.0342757
0.0658097
0.0640213
0.0536888
0.041725
0.029707
0.0177771
0.00582966
-0.703747
-0.172474
0.0079257
0.0526215
0.0569405
0.0494688
0.039032
0.0280169
0.0168402
0.00550413
-0.784029
-0.235259
-0.0222118
0.0373564
0.0487963
0.0447655
0.0361219
0.026222
0.0158522
0.00517798
-0.846653
-0.296815
-0.0545687
0.0205183
0.0396468
0.039519
0.0329407
0.0242881
0.0147915
0.00484981
-0.824574
-0.319951
-0.0788487
0.00252621
0.0278985
0.0321043
0.0282609
0.021376
0.0131823
0.00437903
-0.715345
-0.310204
-0.0997735
-0.0188384
0.0124243
0.0218604
0.0216937
0.0172958
0.0109779
0.00367635
-0.632731
-0.300635
-0.109711
-0.0314642
0.00135564
0.0135874
0.0159854
0.0136078
0.00893809
0.00301622
-0.563928
-0.292795
-0.123802
-0.0473989
-0.0113611
0.00472826
0.010164
0.00995518
0.00694238
0.00235778
-0.511512
-0.287224
-0.134374
-0.0593088
-0.0217085
-0.00301165
0.004882
0.00659007
0.00508927
0.00173933
-0.471857
-0.284818
-0.146203
-0.0714669
-0.0317227
-0.0103258
-4.54178e-05
0.00348639
0.00338662
0.0011649
-0.444509
-0.286841
-0.158961
-0.0830241
-0.0407536
-0.0168429
-0.00443346
0.000738946
0.00187649
0.00064727
-0.429256
-0.293455
-0.172474
-0.094156
-0.0488751
-0.0225015
-0.008181
-0.00156822
0.000610452
0.000209464
-0.426103
-0.303805
-0.184615
-0.102391
-0.0542551
-0.026194
-0.0106698
-0.00310149
-0.000255155
-8.19406e-05
-0.422776
-0.311948
-0.194935
-0.110562
-0.0593717
-0.0293636
-0.0127101
-0.0043444
-0.000985832
-0.000321048
-1.06518
-1.12532
-1.1665
-1.18923
-1.19802
-1.19395
-1.18209
-1.16339
-1.13951
-1.11535
-0.87449
-0.934702
-0.979069
-1.00679
-1.02118
-1.02267
-1.01457
-0.99871
-0.977004
-0.955396
-0.72471
-0.783126
-0.827575
-0.857738
-0.874883
-0.880132
-0.87503
-0.862083
-0.842968
-0.821132
-0.604488
-0.660985
-0.704626
-0.736096
-0.754974
-0.763156
-0.76088
-0.750899
-0.733855
-0.712741
-0.509153
-0.563435
-0.606126
-0.638142
-0.658321
-0.66855
-0.668666
-0.661114
-0.646321
-0.6272
-0.433734
-0.486064
-0.527934
-0.560029
-0.581242
-0.593043
-0.595356
-0.590212
-0.578068
-0.561405
-0.374902
-0.425765
-0.467003
-0.499068
-0.521191
-0.534353
-0.538795
-0.535963
-0.526593
-0.512241
-0.331328
-0.381279
-0.422308
-0.454417
-0.477337
-0.491632
-0.498032
-0.497163
-0.490436
-0.477936
-0.305815
-0.355857
-0.396863
-0.428865
-0.452286
-0.46757
-0.475502
-0.476055
-0.471329
-0.460205
-0.293474
-0.344409
-0.386645
-0.420314
-0.44531
-0.462084
-0.47109
-0.472789
-0.468344
-0.456404
0.465954
0.399706
0.323743
0.242375
0.154424
0.0575965
-0.048087
-0.156769
-0.248457
-0.293718
0.252846
0.180338
0.0994617
0.0108837
-0.0871372
-0.196202
-0.315345
-0.437118
-0.538834
-0.588129
0.0188178
-0.0573824
-0.141728
-0.235414
-0.340468
-0.458152
-0.586955
-0.718251
-0.827342
-0.879024
-0.207181
-0.287974
-0.377793
-0.478108
-0.590679
-0.716489
-0.853639
-0.992516
-1.10707
-1.15946
-0.414015
-0.50096
-0.597793
-0.705771
-0.826364
-0.960411
-1.1057
-1.251
-1.36818
-1.4196
-0.600419
-0.693926
-0.797884
-0.913342
-1.04155
-1.18295
-1.33565
-1.48423
-1.59948
-1.65073
-0.767897
-0.867066
-0.976986
-1.09854
-1.23285
-1.38017
-1.53534
-1.68361
-1.79595
-1.84549
-0.916677
-1.0197
-1.13336
-1.25866
-1.39647
-1.54595
-1.70101
-1.84575
-1.95209
-1.99824
-1.04721
-1.15116
-1.26576
-1.39203
-1.53032
-1.67876
-1.83001
-1.96707
-2.06413
-2.10565
-1.15474
-1.25773
-1.37136
-1.49637
-1.63237
-1.77638
-1.9197
-2.04498
-2.13036
-2.16646
1.84134
1.85658
1.87249
1.88799
1.90219
1.91439
1.92391
1.93062
1.93619
1.94147
1.76947
1.78189
1.79437
1.80587
1.81563
1.82294
1.82714
1.82835
1.82915
1.83154
1.67721
1.68592
1.69386
1.70012
1.70409
1.70506
1.70237
1.69646
1.69102
1.68975
1.5657
1.57016
1.57255
1.57226
1.56895
1.56193
1.55055
1.53566
1.52234
1.51669
1.43503
1.43437
1.43031
1.42255
1.41098
1.39491
1.3737
1.34859
1.32618
1.31572
1.28814
1.28211
1.27067
1.25413
1.23283
1.20608
1.17339
1.13651
1.1038
1.0878
1.1252
1.11322
1.09417
1.0687
1.03732
0.999338
0.95434
0.904735
0.860893
0.838984
0.954166
0.935216
0.906527
0.869908
0.826543
0.775796
0.717347
0.654215
0.598827
0.570791
0.779653
0.753664
0.714828
0.666185
0.609563
0.544412
0.470674
0.392362
0.324463
0.290219
0.614786
0.572101
0.516651
0.452941
0.381942
0.302169
0.213357
0.120296
0.0404854
0.000487326
1.59203
1.54148
1.56305
1.54862
1.54649
1.55892
1.5765
1.61303
1.67205
1.7734
1.58506
1.53572
1.55707
1.54164
1.53814
1.54782
1.56212
1.59255
1.64156
1.72637
1.57863
1.52987
1.551
1.53422
1.5292
1.53575
1.5462
1.56901
1.6055
1.66791
1.5727
1.52398
1.54489
1.5264
1.51971
1.52268
1.52876
1.5423
1.56418
1.59735
1.56727
1.5181
1.53875
1.51822
1.50969
1.50863
1.50981
1.51228
1.51813
1.51369
1.56233
1.51226
1.53261
1.50971
1.49914
1.49358
1.48931
1.4788
1.46782
1.41606
1.55788
1.50651
1.52649
1.5009
1.48808
1.47756
1.46724
1.44188
1.41341
1.30278
1.55395
1.50088
1.5204
1.49181
1.47648
1.46062
1.44356
1.40168
1.35464
1.17517
1.55058
1.49541
1.51434
1.4825
1.46436
1.44288
1.41823
1.35839
1.29004
1.03091
1.54781
1.49015
1.5083
1.47299
1.4518
1.4245
1.39198
1.31341
1.22202
0.881362
1.54496
1.48404
1.50056
1.46145
1.43547
1.40068
1.35653
1.25756
1.14209
0.736077
1.54352
1.47768
1.49201
1.44909
1.41748
1.37534
1.31962
1.20761
1.06522
0.700155
1.54402
1.47212
1.48389
1.43734
1.40027
1.35234
1.28637
1.16673
1.00174
0.677043
1.54702
1.46742
1.47619
1.42633
1.38398
1.33202
1.25643
1.13415
0.9498
0.663436
1.55304
1.46365
1.46848
1.41597
1.36882
1.31436
1.22976
1.10901
0.910272
0.657183
1.56272
1.4608
1.46286
1.40646
1.35519
1.29928
1.20692
1.0904
0.882154
0.653474
1.5759
1.45734
1.45414
1.39707
1.34316
1.28679
1.1882
1.07704
0.862613
0.651282
1.59946
1.45814
1.4492
1.38935
1.33346
1.277
1.17393
1.06775
0.849625
0.650724
1.61137
1.44959
1.43647
1.38036
1.32606
1.27014
1.16457
1.06228
0.842552
0.652214
1.68401
1.46162
1.43782
1.37684
1.32353
1.26646
1.16033
1.05982
0.838994
0.654856
0.444144
0.267109
0.0595659
-0.140356
-0.321488
-0.484139
-0.631954
-0.765413
-0.883237
-0.983704
0.385896
0.245801
0.0870002
-0.0708726
-0.218018
-0.353292
-0.47897
-0.595657
-0.702316
-0.796433
0.364672
0.246432
0.11949
-0.00943002
-0.133938
-0.252434
-0.365023
-0.470929
-0.568027
-0.6525
0.372136
0.264337
0.153013
0.0423449
-0.0659581
-0.171334
-0.272813
-0.369017
-0.457388
-0.536409
0.387996
0.287864
0.186361
0.0872839
-0.00946753
-0.104677
-0.197653
-0.286979
-0.369847
-0.444595
0.405765
0.311903
0.217589
0.126296
0.0374171
-0.0505682
-0.137418
-0.221774
-0.30062
-0.372097
0.422776
0.334158
0.245373
0.159456
0.0756406
-0.00765504
-0.0902882
-0.170855
-0.246424
-0.315113
0.438454
0.35427
0.269779
0.187323
0.106209
0.0252777
-0.0550575
-0.133233
-0.206549
-0.27312
0.453006
0.372722
0.291585
0.21074
0.129958
0.0490799
-0.0309469
-0.108476
-0.181172
-0.247411
0.465714
0.388233
0.308733
0.227374
0.14502
0.0627899
-0.017824
-0.0953234
-0.16796
-0.234458
-1.51826
-1.47462
-1.37879
-1.25842
-1.13729
-1.02747
-0.93288
-0.854284
-0.791923
-0.746621
-1.55475
-1.51705
-1.4373
-1.33335
-1.22478
-1.12387
-1.0356
-0.961496
-0.902729
-0.861133
-1.51851
-1.48581
-1.42396
-1.34113
-1.25014
-1.16215
-1.08284
-1.01445
-0.958605
-0.917305
-1.42542
-1.3965
-1.35132
-1.29119
-1.22127
-1.14971
-1.08233
-1.02209
-0.971393
-0.932652
-1.29899
-1.27318
-1.24112
-1.20126
-1.15299
-1.10024
-1.04756
-0.99811
-0.954087
-0.917123
-1.16414
-1.14127
-1.11796
-1.09262
-1.06246
-1.02772
-0.99055
-0.95268
-0.916518
-0.883555
-1.03997
-1.02063
-1.0023
-0.984797
-0.96678
-0.947346
-0.926168
-0.903564
-0.879684
-0.856448
-0.937874
-0.921464
-0.905246
-0.890266
-0.878725
-0.871018
-0.865631
-0.859459
-0.85198
-0.840986
-0.865795
-0.849641
-0.832805
-0.816553
-0.807138
-0.807524
-0.816382
-0.828757
-0.83926
-0.848631
-0.837077
-0.820554
-0.801595
-0.783583
-0.775692
-0.782454
-0.802705
-0.831719
-0.860021
-0.892457
-0.85328
-0.837678
-0.820962
-0.808949
-0.808476
-0.823001
-0.851625
-0.88642
-0.916647
-0.917923
-0.888055
-0.876896
-0.870572
-0.875318
-0.893323
-0.923807
-0.962403
-1.00048
-1.03326
-1.0255
-0.894807
-0.89159
-0.898172
-0.920132
-0.956346
-1.00244
-1.0519
-1.09563
-1.12459
-1.10677
-0.844807
-0.847953
-0.85999
-0.885522
-0.922439
-0.965311
-1.0073
-1.04091
-1.06043
-1.03415
-0.744601
-0.749611
-0.759131
-0.775588
-0.797862
-0.821832
-0.842487
-0.854496
-0.851537
-0.830179
-0.628202
-0.633026
-0.638529
-0.64547
-0.653576
-0.660403
-0.663061
-0.658873
-0.64528
-0.620577
-0.523067
-0.5277
-0.531134
-0.533003
-0.533179
-0.530123
-0.522285
-0.50871
-0.488526
-0.460577
-0.44539
-0.450149
-0.453127
-0.452999
-0.449497
-0.44149
-0.428131
-0.409302
-0.384969
-0.354235
-0.402342
-0.407223
-0.410219
-0.409379
-0.404228
-0.39375
-0.377401
-0.35546
-0.328395
-0.295689
-0.396342
-0.401067
-0.403878
-0.402599
-0.396602
-0.384837
-0.366809
-0.342903
-0.313837
-0.279494
-0.940606
-0.216476
0.0679182
0.117099
0.105307
0.0877604
0.068878
0.0494038
0.0297087
0.0101988
-0.943876
-0.110593
0.107117
0.125042
0.107067
0.0869852
0.0675944
0.0482443
0.0289134
0.00992065
-0.869122
-0.0196419
0.12887
0.128203
0.106764
0.0859856
0.0663321
0.0471351
0.0281657
0.00965698
-0.707846
0.0483431
0.135766
0.129297
0.106676
0.0849332
0.0650817
0.0460578
0.0274474
0.00940076
-0.511148
0.0919384
0.138737
0.129908
0.105993
0.0837115
0.0638008
0.0449912
0.0267473
0.00914905
-0.33775
0.115744
0.14214
0.129909
0.104897
0.0823433
0.0624824
0.0439263
0.0260605
0.00890001
-0.206787
0.125846
0.145823
0.129086
0.103408
0.0808234
0.0611122
0.0428529
0.0253812
0.00865142
-0.119285
0.125585
0.14798
0.127448
0.101541
0.0791349
0.0596748
0.0417609
0.0247035
0.00840117
-0.0747442
0.118783
0.147264
0.124958
0.0992828
0.0772586
0.0581559
0.0406406
0.0240214
0.00814731
-0.062819
0.10778
0.143181
0.121505
0.096611
0.0751781
0.0565423
0.0394829
0.0233293
0.00788807
-0.715723
-0.438035
-0.0937997
0.0628977
0.0924179
0.0865442
0.0702942
0.0511332
0.0311418
0.0107771
-0.717559
-0.442149
-0.0962079
0.0651188
0.0931455
0.0864014
0.0700169
0.0508995
0.030958
0.0107105
-0.748373
-0.429239
-0.0828262
0.0713492
0.0947556
0.0863615
0.0697306
0.0506367
0.0307459
0.0106278
-0.807095
-0.382819
-0.0520105
0.0820273
0.0974741
0.0867377
0.0695726
0.0503899
0.030522
0.0105299
-0.890166
-0.298666
0.0206745
0.107466
0.104636
0.0881298
0.0696403
0.0501747
0.0302887
0.0104286
-0.705831
-0.817158
-0.873454
-0.901356
-0.881187
-0.854529
-0.814766
-0.773761
-0.73916
-0.705821
-0.705076
-0.817846
-0.871251
-0.896146
-0.871707
-0.840072
-0.805976
-0.752584
-0.738274
-0.693601
-0.707021
-0.820238
-0.871839
-0.893855
-0.868421
-0.834386
-0.805944
-0.75549
-0.753102
-0.72417
-0.713273
-0.827497
-0.879322
-0.898252
-0.875002
-0.841386
-0.814337
-0.787163
-0.787075
-0.803763
-0.724751
-0.840526
-0.893939
-0.910033
-0.890914
-0.857515
-0.833041
-0.824629
-0.831338
-0.902396
1.54332
1.53187
1.51285
1.48962
1.46323
1.43254
1.39671
1.35774
1.32468
1.30928
1.63404
1.63542
1.62955
1.61854
1.60374
1.58466
1.56079
1.5338
1.51103
1.50104
1.72095
1.72739
1.7286
1.72597
1.72046
1.71164
1.69891
1.68329
1.67017
1.66509
1.79528
1.80606
1.81386
1.81906
1.82193
1.82191
1.81833
1.81181
1.80633
1.8055
1.85685
1.87102
1.88331
1.89377
1.90241
1.9087
1.91199
1.91258
1.91321
1.91578
1.90099
1.91729
1.93312
1.94804
1.96166
1.97338
1.9825
1.98896
1.99448
1.99996
1.92811
1.94602
1.96417
1.98188
1.99853
2.01351
2.02612
2.03613
2.0447
2.05201
1.93603
1.95453
1.97385
1.99309
2.01145
2.02828
2.04288
2.05487
2.06508
2.07336
1.92455
1.94288
1.96225
1.98163
2.00013
2.01709
2.0318
2.04387
2.05414
2.0624
1.89308
1.91032
1.92855
1.94668
1.96379
1.9792
1.99222
2.00253
2.01124
2.01851
-0.57611
-0.626052
-0.691397
-0.772675
-0.870906
-0.985878
-1.11485
-1.24646
-1.35438
-1.40354
-0.352508
-0.407297
-0.476126
-0.559722
-0.659493
-0.776069
-0.908429
-1.04702
-1.16286
-1.21557
-0.0916932
-0.151043
-0.223019
-0.308067
-0.407731
-0.523205
-0.653721
-0.791004
-0.913047
-0.967174
0.185048
0.122765
0.0493002
-0.0355059
-0.133046
-0.244658
-0.369894
-0.502391
-0.619306
-0.675628
0.455012
0.392448
0.320399
0.238914
0.146736
0.0423082
-0.0743566
-0.197604
-0.305292
-0.359289
0.701352
0.642558
0.575917
0.501529
0.418139
0.324067
0.219153
0.108494
0.0123587
-0.0365483
0.919304
0.867934
0.810094
0.745796
0.673691
0.592061
0.500711
0.404323
0.321058
0.27875
1.11643
1.07362
1.02538
0.971756
0.911225
0.842074
0.764203
0.68196
0.611456
0.576084
1.30101
1.26521
1.22382
1.17831
1.12734
1.06922
1.00384
0.935057
0.876751
0.848123
1.45878
1.42919
1.3927
1.35392
1.31225
1.26583
1.21403
1.15963
1.11388
1.09195
1.7072
1.57926
1.60308
1.58445
1.59419
1.61691
1.63745
1.67203
1.68466
1.64562
1.69026
1.57862
1.60223
1.58427
1.59232
1.6152
1.63698
1.67541
1.70245
1.70183
1.67486
1.5769
1.60029
1.58326
1.58985
1.61265
1.63594
1.67844
1.71926
1.75616
1.66091
1.5743
1.59748
1.58144
1.58676
1.60927
1.63365
1.679
1.73127
1.79653
1.64826
1.57097
1.59392
1.57882
1.58303
1.60499
1.62995
1.67731
1.73836
1.82599
1.63674
1.56703
1.58975
1.57543
1.57862
1.59976
1.62484
1.67322
1.7406
1.84422
1.62623
1.56258
1.58507
1.57132
1.57354
1.59355
1.61826
1.66657
1.73773
1.85165
1.61659
1.55773
1.57998
1.56654
1.56778
1.58635
1.61017
1.65729
1.72954
1.84836
1.60773
1.55255
1.57457
1.56112
1.56134
1.57818
1.60052
1.64531
1.71594
1.83431
1.59956
1.54711
1.5689
1.55513
1.55423
1.56904
1.5893
1.63058
1.69682
1.80934
1.86796
1.58
1.59195
1.57691
1.59215
1.61006
1.62105
1.63758
1.59002
1.56062
1.79578
1.57367
1.59215
1.57852
1.5926
1.61107
1.62181
1.6394
1.59518
1.55703
1.7741
1.57898
1.59737
1.58077
1.59351
1.61261
1.62431
1.64391
1.60777
1.55803
1.7485
1.57951
1.60055
1.58264
1.59431
1.61455
1.62862
1.65187
1.62741
1.56745
1.7262
1.5794
1.60256
1.58387
1.59479
1.61636
1.63305
1.66163
1.65283
1.58284
1.32997
1.22742
1.08873
0.907556
0.686737
0.435888
0.168591
-0.0969919
-0.341023
-0.546748
1.32363
1.22413
1.09188
0.916538
0.701262
0.454011
0.187027
-0.0817644
-0.331386
-0.542921
1.33585
1.23245
1.09739
0.92363
0.712479
0.467946
0.20047
-0.0714992
-0.325784
-0.541965
1.37317
1.25495
1.10718
0.930254
0.72106
0.477824
0.209089
-0.0660703
-0.324493
-0.544977
1.43343
1.29286
1.12331
0.936862
0.725742
0.482635
0.213268
-0.0643172
-0.326928
-0.552477
)
;

boundaryField
{
    left
    {
        type            zeroGradient;
    }
    right
    {
        type            fixedValue;
        value           uniform 0;
    }
    down
    {
        type            zeroGradient;
    }
    up
    {
        type            zeroGradient;
    }
    cylinder
    {
        type            zeroGradient;
    }
    defaultFaces
    {
        type            empty;
    }
}


// ************************************************************************* //
