/*--------------------------------*- C++ -*----------------------------------*\
  =========                 |
  \\      /  F ield         | OpenFOAM: The Open Source CFD Toolbox
   \\    /   O peration     | Website:  https://openfoam.org
    \\  /    A nd           | Version:  13
     \\/     M anipulation  |
\*---------------------------------------------------------------------------*/
FoamFile
{
    format      ascii;
    class       surfaceScalarField;
    location    "0.3675";
    object      phi;
}
// * * * * * * * * * * * * * * * * * * * * * * * * * * * * * * * * * * * * * //

dimensions      [0 3 -1 0 0 0 0];

internalField   nonuniform List<scalar> 
3485
(
0.00445505
-0.0527365
0.0482815
0.0132161
-0.116263
0.107502
0.0231071
-0.137166
0.127275
0.0330314
-0.141434
0.13151
0.0427035
-0.14064
0.130967
0.0520637
-0.13814
0.12878
0.0611138
-0.135006
0.125956
0.0698665
-0.131714
0.122961
0.0782668
-0.128423
0.120023
-0.124734
0.11676
0.0862407
0.0044054
-0.0571419
0.0127907
-0.124649
0.0221281
-0.146504
0.0314302
-0.150736
0.0404712
-0.149681
0.0492385
-0.146908
0.0577749
-0.143542
0.0661314
-0.140071
0.0743779
-0.13667
-0.133218
0.0828627
0.00432179
-0.0614637
0.0122498
-0.132577
0.0209237
-0.155177
0.0294738
-0.159287
0.0377255
-0.157932
0.0456907
-0.154873
0.0534208
-0.151272
0.0609663
-0.147616
0.068378
-0.144082
-0.14054
0.0756996
0.00420141
-0.0656651
0.0115898
-0.139965
0.0195058
-0.163093
0.0272179
-0.166999
0.0346131
-0.165327
0.0417367
-0.161996
0.0486577
-0.158193
0.0554335
-0.154392
0.0621074
-0.150755
-0.147222
0.0687892
0.00402431
-0.0696894
0.010765
-0.146706
0.0178009
-0.170129
0.0245543
-0.173752
0.0309717
-0.171745
0.0371259
-0.168151
0.0430962
-0.164164
0.0489403
-0.160236
0.0547043
-0.156519
-0.152984
0.060466
0.00378875
-0.0734782
0.00977868
-0.152696
0.0158337
-0.176184
0.0215439
-0.179462
0.0269137
-0.177115
0.0320442
-0.173281
0.0370214
-0.169141
0.0419033
-0.165118
0.0467314
-0.161348
-0.157823
0.0515708
0.0034778
-0.076956
0.00860047
-0.157819
0.0135691
-0.181153
0.0181423
-0.184035
0.0223778
-0.18135
0.0264006
-0.177304
0.0302991
-0.173039
0.0341288
-0.168948
0.0379262
-0.165145
-0.161635
0.0417384
0.00309137
-0.0800473
0.00724152
-0.161969
0.0110461
-0.184957
0.0144134
-0.187403
0.0174569
-0.184394
0.0203211
-0.180168
0.0230918
-0.17581
0.0258167
-0.171673
0.0285259
-0.167854
-0.164359
0.0312499
0.00262671
-0.0826741
0.00571163
-0.165054
0.00829155
-0.187537
0.0103835
-0.189495
0.0121912
-0.186201
0.0138564
-0.181833
0.0154568
-0.17741
0.0170316
-0.173247
0.018603
-0.169426
-0.165943
0.0201867
0.00209287
-0.0847669
0.004049
-0.16701
0.00534371
-0.188832
0.00612302
-0.190274
0.00668413
-0.186762
0.007134
-0.182283
0.00753575
-0.177812
0.00793351
-0.173645
0.00833913
-0.169831
0.00875459
-0.166358
0.00430602
-0.00841939
0.00411337
0.0145434
-0.0192049
0.00896754
0.0268947
-0.0230045
0.0106533
0.0397755
-0.0239738
0.011093
0.0526787
-0.0240303
0.011127
0.0654119
-0.0237343
0.0110012
0.0778824
-0.02327
0.0107995
0.0900495
-0.0227329
0.0105658
0.101902
-0.0221779
0.0103258
-0.0217769
0.113577
0.010101
0.00431643
-0.0127358
0.0145171
-0.0294056
0.0268034
-0.0352908
0.0396068
-0.0367772
0.0524268
-0.0368503
0.0650748
-0.0363822
0.0774616
-0.0356568
0.0895492
-0.0348205
0.101329
-0.0339581
-0.0333866
0.112939
0.00433499
-0.0170708
0.014489
-0.0395596
0.0266886
-0.0474904
0.0393867
-0.0494753
0.0520921
-0.0495557
0.0646213
-0.0489114
0.0768898
-0.0479254
0.0888633
-0.0467939
0.100538
-0.0456333
-0.0448962
0.112048
0.00436234
-0.0214331
0.014457
-0.0496542
0.0265431
-0.0595765
0.039102
-0.0620342
0.0516546
-0.0621083
0.0640247
-0.0612815
0.0761342
-0.0600348
0.0879536
-0.0586133
0.0994859
-0.0571657
-0.0562664
0.110856
0.00439791
-0.0258311
0.0144165
-0.0596728
0.0263565
-0.0715165
0.0387351
-0.0744128
0.0510891
-0.0744623
0.0632522
-0.0734446
0.0751545
-0.0719372
0.0867736
-0.0702323
0.0981196
-0.0685118
-0.0674496
0.109303
0.00443915
-0.0302702
0.0143592
-0.0695929
0.0261127
-0.08327
0.0382608
-0.0865609
0.0503603
-0.0865619
0.0622581
-0.0853424
0.0738954
-0.0835745
0.0852581
-0.081595
0.0963644
-0.0796181
-0.0783819
0.107297
0.00448061
-0.0347508
0.0142719
-0.0793842
0.0257893
-0.0947875
0.0376462
-0.0984178
0.0494237
-0.0983393
0.060985
-0.0969038
0.072285
-0.0948744
0.0833189
-0.0926289
0.0941111
-0.0904103
-0.0889643
0.104693
0.00451192
-0.0392627
0.0141321
-0.0890044
0.0253538
-0.106009
0.0368496
-0.109914
0.0482291
-0.109719
0.0593736
-0.108048
0.0702529
-0.105754
0.0808719
-0.103248
0.0912553
-0.100794
-0.0990457
0.101337
0.0045201
-0.0437828
0.0139138
-0.0983981
0.0247695
-0.116865
0.035829
-0.120973
0.046734
-0.120624
0.0573876
-0.118702
0.0677746
-0.116141
0.0779093
-0.113383
0.0878068
-0.110691
-0.108421
0.0971825
0.00449863
0.013603
0.0240134
0.0345502
0.0448939
0.0549723
0.0647873
0.074366
0.0836978
0.0920362
0.158841
-0.12695
0.0816865
0.182573
-0.0922542
0.0685229
0.194224
-0.0685054
0.0568537
0.19987
-0.0517331
0.0460877
0.202291
-0.038872
0.0364503
0.202884
-0.0286453
0.0280526
0.202398
-0.0203428
0.0208285
0.201242
-0.0134304
0.0145864
0.199649
-0.00764339
0.00923706
-0.00146732
0.00343544
0.157694
-0.171705
0.181535
-0.116095
0.193469
-0.0804399
0.199361
-0.057625
0.201984
-0.0414949
0.202742
-0.029404
0.2024
-0.0200001
0.201375
-0.0124054
0.199907
-0.0061755
0.000374268
0.155748
-0.215405
0.179594
-0.139941
0.191872
-0.0927179
0.19811
-0.0638624
0.201048
-0.044433
0.202096
-0.0304515
0.202023
-0.0199278
0.201259
-0.0116413
0.20005
-0.00496615
0.00195457
0.152987
-0.257536
0.176752
-0.163706
0.189433
-0.105399
0.196118
-0.0705476
0.199487
-0.0478018
0.200945
-0.0319097
0.20127
-0.0202525
0.200897
-0.0112686
0.200076
-0.00414534
0.00314162
0.149398
-0.297631
0.173016
-0.187324
0.186153
-0.118536
0.193392
-0.0777863
0.197308
-0.0517176
0.199298
-0.0338993
0.200143
-0.0210982
0.200287
-0.0114126
0.199984
-0.00384249
0.00380211
0.144958
-0.335292
0.168395
-0.210761
0.182043
-0.132184
0.189942
-0.085686
0.194521
-0.0562963
0.197161
-0.0365396
0.198648
-0.0225852
0.199432
-0.0121966
0.199775
-0.00418466
0.00380663
0.139638
-0.370237
0.162863
-0.233986
0.177105
-0.146427
0.18578
-0.0943611
0.19114
-0.0616557
0.194548
-0.0399481
0.196795
-0.0248318
0.198339
-0.0137405
0.199448
-0.00529399
0.00302952
0.133394
-0.402294
0.156365
-0.256957
0.17134
-0.161402
0.180916
-0.103937
0.187178
-0.0679172
0.191469
-0.0442399
0.194591
-0.0279537
0.197011
-0.0161603
0.199004
-0.00728733
0.00134871
0.125942
-0.431054
0.14877
-0.279785
0.164673
-0.177304
0.175322
-0.114586
0.182632
-0.0752266
0.187934
-0.0495416
0.192046
-0.0320663
0.195455
-0.019569
0.198446
-0.0102787
-0.00135204
0.116251
-0.455269
0.138967
-0.3025
0.15637
-0.194708
0.168616
-0.126832
0.177326
-0.0839371
0.183872
-0.0560873
0.189141
-0.0373356
0.193668
-0.0240955
0.197775
-0.0143862
-0.00518802
0.360754
-0.40482
-0.411202
0.333243
-0.27499
0.321118
-0.182582
0.315609
-0.121324
0.312772
-0.0810995
0.311058
-0.0543734
0.309906
-0.0361842
0.309124
-0.0233132
0.30863
-0.0138923
-0.00499809
0.373878
-0.34714
-0.431559
0.343873
-0.244985
0.329137
-0.167847
0.321253
-0.113439
0.316633
-0.076479
0.313713
-0.0514536
0.311787
-0.0342588
0.310528
-0.0220538
0.309761
-0.0131255
-0.00471454
0.387133
-0.291831
-0.442442
0.355101
-0.212952
0.337156
-0.149901
0.326741
-0.103025
0.320359
-0.0700968
0.316271
-0.0473658
0.313594
-0.0315814
0.31187
-0.0203297
0.310836
-0.012092
-0.00433816
0.396389
-0.239789
-0.448431
0.363826
-0.180389
0.34388
-0.129956
0.331555
-0.0906999
0.323715
-0.0622561
0.318608
-0.0422591
0.315256
-0.02823
0.313107
-0.0181803
0.311826
-0.0108108
-0.00387578
0.403016
-0.191556
-0.451249
0.370676
-0.14805
0.34946
-0.108739
0.335682
-0.0769223
0.326652
-0.0532256
0.32068
-0.0362871
0.316741
-0.0242915
0.314214
-0.0156528
0.31271
-0.00930676
-0.00333508
0.40767
-0.147018
-0.452207
0.37591
-0.11629
0.353939
-0.0867681
0.339095
-0.0620785
0.329126
-0.0432564
0.322446
-0.0296074
0.318013
-0.0198586
0.315166
-0.0128053
0.313472
-0.00761303
-0.00272628
0.410835
-0.105672
-0.452181
0.379765
-0.0852193
0.357381
-0.0643849
0.341789
-0.0464864
0.331111
-0.032578
0.323877
-0.0223731
0.319049
-0.015031
0.315943
-0.00969898
0.314093
-0.0057636
-0.00206098
0.412756
-0.066676
-0.451752
0.382314
-0.0547771
0.359748
-0.0418188
0.343678
-0.030417
0.332512
-0.0214116
0.324881
-0.0147419
0.319767
-0.00991708
0.31647
-0.00640158
0.314504
-0.00379779
-0.00135324
0.411619
-0.0286244
-0.449671
0.38174
-0.024898
0.359322
-0.019401
0.343153
-0.0142475
0.331814
-0.0100727
0.324023
-0.00695155
0.318788
-0.00468146
0.315409
-0.0030232
0.313396
-0.00178435
-0.000629247
0.366014
-0.394639
0.341116
0.321715
0.307468
0.297395
0.290444
0.285762
0.282739
0.280955
0.441271
0.0083444
-0.440861
0.441014
0.0204438
0.440031
0.0322327
0.4383
0.0434692
0.435649
0.0542223
0.432315
0.0638001
0.427547
0.0735565
0.422808
0.0804389
0.414083
0.0915882
0.0891209
0.423862
0.00770797
-0.423225
0.424741
0.0195643
0.425807
0.0311668
0.42706
0.042217
0.428286
0.0529955
0.429682
0.0624046
0.430738
0.0725004
0.431976
0.0792006
0.432623
0.0909415
0.0901846
0.409389
0.00688137
-0.408562
0.410941
0.0180123
0.413171
0.0289363
0.416058
0.0393299
0.419511
0.0495425
0.423478
0.0584379
0.427954
0.0680245
0.432536
0.0746185
0.438342
0.0851351
0.0860853
0.398066
0.0059453
-0.39713
0.400066
0.0160131
0.403099
0.0259024
0.407116
0.0353135
0.412116
0.0445422
0.417908
0.0526456
0.424724
0.0612093
0.431908
0.0674344
0.440716
0.0763268
0.0783702
0.389193
0.0049342
-0.388182
0.391502
0.0137044
0.39509
0.0223145
0.39989
0.0305138
0.405929
0.038503
0.412989
0.045586
0.421321
0.0528766
0.430326
0.05843
0.440995
0.0656578
0.0681158
0.382382
0.00386563
-0.381313
0.384911
0.011175
0.388883
0.0183425
0.394226
0.0251709
0.400959
0.0317693
0.408886
0.037659
0.418197
0.0435661
0.42842
0.0482071
0.440252
0.0538252
0.056161
0.377323
0.00274747
-0.376205
0.380017
0.0084808
0.384264
0.0140953
0.389993
0.0194419
0.397197
0.0245657
0.405708
0.0291479
0.415639
0.0336354
0.426642
0.0372037
0.439168
0.0412995
0.0431474
0.373501
0.00156553
-0.372319
0.376357
0.00562435
0.380849
0.00960353
0.386898
0.0133924
0.394467
0.0169974
0.403407
0.020207
0.413751
0.0232923
0.425241
0.0257132
0.438139
0.0284014
0.0295342
0.366886
0.000345904
-0.365666
0.369942
0.002568
0.374777
0.00476891
0.381303
0.00686624
0.389443
0.00885778
0.399017
0.0106322
0.409996
0.012314
0.4221
0.0136092
0.435464
0.015037
0.015328
0.304657
-0.304312
0.307225
0.311994
0.318861
0.327718
0.338351
0.350665
0.364274
0.379311
0.0810778
0.12299
-0.11233
-0.0917373
0.0711609
0.125237
-0.11532
0.0615934
0.128136
-0.118568
0.0520902
0.131557
-0.122054
0.0425149
0.135321
-0.125746
0.032801
0.1393
-0.129587
0.0229498
0.143081
-0.133229
0.0131741
0.144372
-0.134596
0.00449
0.132065
-0.123381
0.0729635
-0.0684735
0.0765674
0.131836
-0.0854131
0.0674639
0.13434
0.0583171
0.137283
0.0491735
0.1407
0.0399977
0.144497
0.0307398
0.148558
0.0214001
0.15242
0.01219
0.153582
0.00409224
0.140163
0.0770557
0.0689485
0.139417
-0.0765295
0.0609916
0.142297
0.0528261
0.145448
0.0445545
0.148972
0.0361938
0.152858
0.0277273
0.157025
0.0191806
0.160967
0.0107862
0.161976
0.00350995
0.147439
0.0805657
0.0604269
0.146064
-0.0670746
0.0535043
0.14922
0.0463704
0.152582
0.0390854
0.156257
0.0316675
0.160275
0.0241255
0.164567
0.0165159
0.168577
0.00909944
0.169393
0.00281462
0.153724
0.0833803
0.0514537
0.151865
-0.0572544
0.0454949
0.155178
0.0393741
0.158703
0.0331035
0.162528
0.0266899
0.166689
0.0201557
0.171101
0.0135826
0.17515
0.00726016
0.175715
0.00207828
0.158906
0.0854586
0.0421327
0.156778
-0.0470457
0.0371359
0.160175
0.0320235
0.163815
0.0267831
0.167768
0.0214163
0.172056
0.0159574
0.17656
0.0104993
0.180608
0.00532976
0.180885
0.00132545
0.16291
0.086784
0.0325216
0.160749
-0.036493
0.0285082
0.164189
0.0244169
0.167907
0.0202285
0.171956
0.0159438
0.176341
0.011601
0.180903
0.00733118
0.184878
0.00339506
0.184821
0.000535224
0.16577
0.0873193
0.0226139
0.163711
-0.0255756
0.0196319
0.167171
0.0165995
0.170939
0.0135026
0.175053
0.0103425
0.179501
0.0071746
0.184071
0.00412773
0.187925
0.00146278
0.187486
-0.000211646
0.167444
0.0871076
0.0124312
0.165601
-0.0143209
0.0105319
0.16907
0.00860159
0.172869
0.00663478
0.17702
0.0046538
0.181482
0.00266889
0.186056
0.000825141
0.189768
-0.000505676
0.188817
-0.000845999
0.167785
0.0862616
0.00208929
-0.00284684
0.00132792
0.000552095
-0.000239996
-0.00104177
-0.00174849
-0.00225414
-0.00226971
-0.0014947
0.107382
0.0214786
-0.118551
-0.0103093
0.0958803
0.0220376
-0.0105362
0.0840502
0.0226092
-0.0107791
0.0718765
0.0232147
-0.011041
0.0593359
0.0238662
-0.0113256
0.0464054
0.0245644
-0.0116339
0.0330887
0.0252628
-0.0119461
0.0195765
0.0256245
-0.0121122
0.0070714
0.023812
-0.0113069
0.0137754
-0.00670403
0.106564
0.0326076
-0.117693
0.0951152
0.0334862
0.0833495
0.0343749
0.0712512
0.035313
0.0587968
0.0363206
0.0459632
0.037398
0.0327545
0.0384714
0.0193624
0.0390166
0.00698212
0.0361923
0.0207575
0.105412
0.0436714
-0.116476
0.0940442
0.0448543
0.082373
0.0460461
0.0703832
0.0473027
0.0580509
0.0486529
0.0453526
0.0500964
0.0322932
0.0515309
0.0190662
0.0522436
0.00686031
0.0483982
0.0276178
0.103841
0.0546384
-0.114808
0.0925894
0.0561055
0.0810528
0.0575827
0.0692145
0.059141
0.0570501
0.0608173
0.0445359
0.0626106
0.0316773
0.0643895
0.0186697
0.0652512
0.00669855
0.0603693
0.0343164
0.101734
0.065464
-0.11256
0.0906517
0.0671882
0.0793064
0.0689281
0.0676796
0.0707678
0.0557446
0.0727522
0.0434769
0.0748783
0.0308831
0.0769833
0.0181631
0.0779711
0.00649326
0.0720392
0.0408097
0.0989316
0.0760789
-0.109546
0.0880921
0.0780276
0.0770133
0.0800069
0.065674
0.0821071
0.0540466
0.0843796
0.0421057
0.0868192
0.0298589
0.0892301
0.0175101
0.0903199
0.00622255
0.0833267
0.0470322
0.0953994
0.0863562
-0.105677
0.0849397
0.0884873
0.0742556
0.090691
0.0633113
0.0930514
0.0520764
0.0956145
0.0405301
0.0983655
0.028689
0.101071
0.0167689
0.10224
0.00592038
0.0941752
0.0529526
0.0905446
0.0961469
-0.100335
0.0806034
0.0984285
0.0704606
0.100834
0.0600767
0.103435
0.0494121
0.106279
0.0384362
0.109341
0.027164
0.112343
0.0158183
0.113586
0.0055331
0.10446
0.0584857
0.0859037
0.104934
-0.0946912
0.0767675
0.107565
0.0672303
0.110371
0.0573488
0.113317
0.0471444
0.116484
0.0366231
0.119863
0.0258227
0.123144
0.0149788
0.12443
0.00520135
0.114238
0.063687
0.0778569
-0.0852528
0.070102
0.0619047
0.0531677
0.0439055
0.0341818
0.0240961
0.0139296
0.00478647
0.200936
0.0149185
-0.0178644
0.203093
0.0221156
-0.0242727
0.202973
0.0271299
-0.0270097
0.203731
0.029246
-0.0300048
0.203062
0.0354469
-0.0347773
0.200696
0.0436747
-0.0413087
0.195164
0.0550289
-0.0494966
0.184406
0.0702148
-0.0594572
0.160824
0.0939583
-0.0703766
0.125361
-0.0830877
0.200771
0.0121373
0.202797
0.0200892
0.202624
0.027303
0.203295
0.0285751
0.202511
0.0362307
0.199989
0.0461967
0.194267
0.0607511
0.183229
0.0812527
0.159612
0.117575
0.167281
0.200478
0.00964913
0.202213
0.018354
0.201899
0.0276171
0.202351
0.028123
0.201327
0.0372545
0.198532
0.0489917
0.192526
0.066757
0.181123
0.0926558
0.157588
0.141111
0.208392
0.200046
0.00759283
0.201339
0.0170608
0.200807
0.0281496
0.200907
0.0280223
0.19952
0.0386423
0.196335
0.0521762
0.189946
0.0731463
0.178091
0.104511
0.15476
0.164442
0.248344
0.199472
0.00611075
0.200186
0.0163471
0.199363
0.0289725
0.198975
0.0284096
0.197103
0.0405148
0.193413
0.0558666
0.186533
0.0800258
0.174146
0.116898
0.151146
0.187441
0.28693
0.198744
0.00535643
0.198757
0.0163338
0.197586
0.0301441
0.196568
0.0294275
0.194094
0.0429886
0.189782
0.0601783
0.182299
0.0875091
0.169291
0.129907
0.146767
0.209965
0.324151
0.19785
0.00549579
0.197063
0.0171208
0.195498
0.03171
0.193698
0.031227
0.190514
0.0461729
0.185465
0.0652269
0.177267
0.0957076
0.163524
0.143649
0.141682
0.231806
0.360157
0.196781
0.00670464
0.195119
0.0187824
0.193123
0.0337061
0.190382
0.0339683
0.186386
0.0501685
0.180481
0.0711321
0.171426
0.104763
0.156816
0.158259
0.13561
0.253012
0.395432
0.195526
0.00916802
0.192948
0.0213609
0.190484
0.0361697
0.186627
0.0378251
0.181741
0.0550552
0.17489
0.0779826
0.164959
0.114694
0.149891
0.173327
0.129602
0.273301
0.430342
0.194154
0.0130043
0.190588
0.0249264
0.187609
0.0391488
0.182375
0.0430587
0.176389
0.0610411
0.168117
0.0862552
0.156374
0.126437
0.139312
0.190389
0.118006
0.294608
0.463095
0.302587
0.012428
0.304525
0.0229875
0.307622
0.0360517
0.309108
0.0415728
0.311257
0.0588921
0.314067
0.0834458
0.318892
0.121612
0.328989
0.180292
0.354563
0.269034
0.407149
0.41051
0.303398
0.0110407
0.305582
0.0208027
0.309053
0.0325805
0.311464
0.0391622
0.314919
0.0554376
0.319752
0.0786122
0.327624
0.11374
0.341904
0.166013
0.370954
0.239983
0.351431
0.426672
0.304103
0.00894814
0.306714
0.0181914
0.31048
0.0288144
0.313757
0.0358853
0.318368
0.0508267
0.324936
0.0720441
0.335255
0.103421
0.352438
0.14883
0.383584
0.208836
0.296894
0.438121
0.304761
0.00619719
0.307814
0.0151381
0.311853
0.0247763
0.315886
0.0318515
0.321507
0.0452065
0.329528
0.0640229
0.341758
0.0911904
0.360996
0.129592
0.392835
0.176997
0.24509
0.444639
0.305406
0.00280103
0.308879
0.0116653
0.313141
0.0205145
0.317803
0.0271897
0.324273
0.0387365
0.333481
0.0548146
0.347155
0.0775165
0.367788
0.10896
0.399386
0.145399
0.196582
0.447894
0.306076
-0.00126489
0.309921
0.00782065
0.314313
0.0161225
0.319467
0.0220355
0.326628
0.0315756
0.336768
0.0446742
0.351499
0.0627852
0.373027
0.0874325
0.40395
0.114476
0.151409
0.449123
0.306787
-0.00604213
0.31095
0.00365829
0.315345
0.0117273
0.320847
0.0165337
0.328535
0.0238871
0.339377
0.0338322
0.354857
0.0473053
0.376915
0.0653745
0.407052
0.0843396
0.109231
0.44923
0.307632
-0.0116638
0.311969
-0.000678394
0.316179
0.00751682
0.321876
0.0108368
0.329937
0.0158264
0.341276
0.0224928
0.357263
0.0313185
0.379597
0.0430401
0.409049
0.0548877
0.0695098
0.44877
0.307553
-0.0172069
0.31162
-0.00474507
0.315474
0.00366276
0.321289
0.00502226
0.329576
0.00753898
0.341235
0.0108338
0.357543
0.0150109
0.379983
0.0206001
0.409009
0.0258616
0.032276
0.446243
0.284803
0.280058
0.283721
0.288743
0.296282
0.307116
0.322127
0.342727
0.368589
0.400865
0.416916
-0.0981439
0.419497
-0.0879939
0.422623
-0.0796555
0.426197
-0.0706481
0.429754
-0.0608113
0.433024
-0.050316
0.435849
-0.0393185
0.438141
-0.0278668
0.439838
-0.0160183
-0.00386966
0.426012
-0.0974835
0.425391
-0.0873733
0.424896
-0.0791602
0.42436
-0.0701119
0.423772
-0.0602234
0.423257
-0.0498008
0.422898
-0.03896
0.422749
-0.0277176
0.422843
-0.0161125
-0.00425167
0.432419
-0.091781
0.427466
-0.082421
0.422809
-0.0745033
0.418711
-0.0660133
0.415273
-0.0567851
0.412522
-0.04705
0.410462
-0.0369005
0.409106
-0.0263615
0.40847
-0.015476
-0.0043441
0.435379
-0.082521
0.42739
-0.0744323
0.420154
-0.0672669
0.413805
-0.0596639
0.408439
-0.0514193
0.404089
-0.0426999
0.400767
-0.0335786
0.398488
-0.0240824
0.397269
-0.0142576
-0.00420517
0.436356
-0.0709832
0.426274
-0.0643507
0.417244
-0.0582361
0.409334
-0.0517545
0.402639
-0.0447238
0.397192
-0.0372531
0.393007
-0.0293934
0.390098
-0.0211737
0.388485
-0.0126449
-0.00390232
0.436174
-0.0580342
0.424717
-0.0528939
0.414492
-0.0480113
0.40554
-0.0428028
0.397943
-0.0371267
0.391741
-0.0310511
0.386956
-0.0246081
0.383609
-0.0178268
0.381723
-0.010759
-0.00349193
0.435426
-0.0442298
0.423103
-0.0405715
0.412109
-0.037017
0.402478
-0.0331723
0.394286
-0.0289347
0.38758
-0.0243443
0.382391
-0.0194192
0.378749
-0.0141848
0.376681
-0.00869139
-0.00301544
0.434428
-0.0298884
0.421571
-0.0277138
0.410091
-0.025537
0.400015
-0.0230964
0.39142
-0.0203395
0.38436
-0.0172849
0.37888
-0.0139391
0.375022
-0.0103269
0.372826
-0.00649512
-0.00250823
0.431245
-0.0148912
0.417923
-0.0143917
0.406001
-0.0136142
0.395463
-0.0125592
0.386391
-0.0112667
0.378857
-0.00975172
0.372943
-0.00802483
0.36873
-0.00611329
0.366288
-0.00405324
-0.00188691
0.385973
0.371582
0.357967
0.345408
0.334142
0.32439
0.316365
0.310252
0.306198
0.00541868
0.102409
-0.107828
0.00956858
0.203732
-0.207882
0.0115402
0.231075
-0.233046
0.0123222
0.233484
-0.234266
0.0127087
0.230045
-0.230432
0.0130298
0.225868
-0.226189
0.0134293
0.22201
-0.22241
0.0139858
0.218555
-0.219112
0.0147429
0.215109
-0.215866
0.210404
0.0154658
-0.211127
0.00707325
0.0953357
0.0146899
0.196115
0.0204874
0.225277
0.0250357
0.228935
0.0290851
0.225996
0.0330656
0.221887
0.0371853
0.217891
0.0415435
0.214197
0.0461784
0.210474
0.205777
0.0508058
0.00806333
0.0872724
0.0185914
0.185587
0.0279024
0.215966
0.0360308
0.220807
0.0435539
0.218473
0.0509504
0.214491
0.0584975
0.210344
0.0663098
0.206385
0.0743554
0.202428
0.197685
0.0824468
0.0083631
0.0789093
0.0209748
0.172975
0.0331988
0.203742
0.0444062
0.2096
0.0549276
0.207952
0.0652162
0.204202
0.0756042
0.199956
0.0862564
0.195733
0.0971302
0.191554
0.186834
0.107981
0.00810393
0.0708053
0.0218336
0.159246
0.0360897
0.189486
0.049619
0.19607
0.0624388
0.195132
0.0748968
0.191744
0.0873265
0.187526
0.0999392
0.18312
0.112769
0.178724
0.173951
0.125653
0.00749082
0.0633145
0.0214451
0.145292
0.0367394
0.174192
0.0516835
0.181126
0.0659935
0.180822
0.0798539
0.177884
0.093535
0.173845
0.107247
0.169408
0.121094
0.164878
0.159881
0.135164
0.00673871
0.0565758
0.020278
0.131752
0.0357417
0.158728
0.0512449
0.165623
0.066288
0.165779
0.080884
0.163288
0.0951922
0.159536
0.109374
0.155226
0.123517
0.150735
0.145549
0.137848
0.00600973
0.0505661
0.0188076
0.118954
0.0338519
0.143684
0.0492526
0.150222
0.0643992
0.150632
0.0791631
0.148524
0.0935798
0.14512
0.107726
0.14108
0.121692
0.136769
0.131695
0.135546
0.00541531
0.0451508
0.0174378
0.106932
0.0318248
0.129297
0.0467766
0.13527
0.0616623
0.135746
0.0762714
0.133915
0.0905505
0.130841
0.104508
0.127122
0.118149
0.123129
0.117834
0.132011
0.00498703
0.0401637
0.0163591
0.0955599
0.0300772
0.115579
0.0444347
0.120913
0.0588096
0.121372
0.0729336
0.119791
0.0866671
0.117107
0.099943
0.113846
0.112641
0.110431
0.106074
0.1244
0.00473309
0.0354306
0.0156757
0.0846173
0.0289093
0.102345
0.0428088
0.107013
0.0567943
0.107386
0.0706033
0.105982
0.0840892
0.103621
0.0971773
0.100758
0.109872
0.0977356
0.095165
0.120782
0.00458804
0.0308426
0.0152689
0.0739364
0.0281766
0.0894373
0.0417252
0.0934649
0.0553625
0.0937487
0.0688338
0.0925107
0.0819894
0.0904655
0.0947428
0.0880042
0.107075
0.0854032
0.0836958
0.118545
0.00449866
0.0263439
0.0150246
0.0634105
0.02773
0.0767319
0.0410414
0.0801535
0.0544261
0.0803641
0.0676452
0.0792915
0.0805601
0.0775506
0.0930909
0.0754734
0.105212
0.0732826
0.0720205
0.116887
0.00443827
0.0219057
0.0148755
0.0529733
0.027467
0.0641403
0.0406381
0.0669824
0.0538667
0.0671355
0.0669288
0.0662295
0.0796983
0.0647811
0.0921063
0.0630654
0.10413
0.0612591
0.0602825
0.115868
0.00439438
0.0175113
0.014781
0.0425867
0.0273125
0.0516087
0.0404059
0.053889
0.0535433
0.0539981
0.0665104
0.0532623
0.079192
0.0520995
0.091528
0.0507294
0.103499
0.0492885
0.0485413
0.11524
0.00436103
0.0131502
0.014716
0.0322318
0.0272145
0.0391102
0.0402646
0.040839
0.053349
0.0409137
0.0662602
0.0403511
0.0788903
0.0394694
0.0911853
0.0384344
0.103128
0.0373459
0.0368079
0.114861
0.00433567
0.00881458
0.0146672
0.0219002
0.0271438
0.0266336
0.0401666
0.0278161
0.0532188
0.0278616
0.0660969
0.027473
0.078698
0.0268683
0.0909721
0.0261602
0.102903
0.0254149
0.0250769
0.114634
0.00431786
0.00449672
0.0146289
0.0115892
0.0270854
0.0141772
0.0400856
0.0148159
0.0531132
0.014834
0.0659678
0.0146184
0.0785497
0.0142863
0.0908119
0.013898
0.102739
0.0134879
0.0133433
0.114472
0.00430685
0.00018987
0.0145971
0.00129892
0.0270292
0.00174507
0.0400026
0.00184248
0.0530027
0.00183392
0.0658314
0.00178962
0.0783915
0.00172622
0.090638
0.00165154
0.102556
0.00156981
0.00161289
0.114287
0.00430324
0.0145697
0.026968
0.0399035
0.0528644
0.0656552
0.0781809
0.0903983
0.102294
0.114008
0.136185
0.251043
-0.266446
0.14903
0.114476
-0.12732
0.158914
0.0394343
-0.0493183
0.166349
0.00672126
-0.0141564
0.172394
-0.00644368
0.000398606
0.177718
-0.0106951
0.00537111
0.182575
-0.010988
0.00613138
0.18708
-0.00963416
0.00512835
0.19128
-0.00771322
0.00351333
-0.00518409
0.00134815
0.141488
0.2281
0.156438
0.0995253
0.166099
0.0297732
0.172819
1.64899e-06
0.177963
-0.0115876
0.182273
-0.0150049
0.18606
-0.0147751
0.189458
-0.0130329
0.192539
-0.0107934
-0.00790791
0.144873
0.200114
0.161847
0.0825511
0.171921
0.0196989
0.178342
-0.00641852
0.182882
-0.0161282
0.18637
-0.0184924
0.189223
-0.0176285
0.191636
-0.0154461
0.193712
-0.0128692
-0.00962766
0.148126
0.167856
0.16683
0.0638467
0.177198
0.00933132
0.183353
-0.0125739
0.187306
-0.0200809
0.190052
-0.021239
0.192076
-0.0196518
0.193615
-0.0169851
0.194799
-0.0140534
-0.0104544
0.151184
0.131912
0.171218
0.0438124
0.181835
-0.00128574
0.187743
-0.0184816
0.191196
-0.0235346
0.193302
-0.0233443
0.194606
-0.0209557
0.195386
-0.0177653
0.195795
-0.0144629
-0.0105042
0.153888
0.0928856
0.174978
0.0227218
0.185798
-0.0121057
0.191496
-0.0241794
0.194533
-0.0265714
0.196101
-0.0249122
0.1968
-0.0216551
0.196941
-0.0179064
0.196697
-0.0142186
-0.00989729
0.156118
0.0514016
0.178071
0.000768842
0.189044
-0.0230782
0.194583
-0.0297189
0.197294
-0.0292821
0.198434
-0.0260517
0.198647
-0.0218686
0.198272
-0.0175318
0.197499
-0.0134453
-0.00875812
0.157797
0.00807695
0.180431
-0.0218649
0.191534
-0.0341819
0.196982
-0.0351662
0.199463
-0.0317633
0.200288
-0.0268765
0.200138
-0.0217186
0.199373
-0.0167675
0.198198
-0.0122702
-0.00721404
0.158845
-0.0364815
0.181996
-0.0450159
0.193243
-0.0454286
0.198671
-0.040595
0.201025
-0.0341172
0.201652
-0.0275036
0.201264
-0.0213297
0.200238
-0.0157424
0.198792
-0.0108236
-0.00539572
0.159213
0.18272
0.194145
0.199638
0.201971
0.20252
0.202019
0.200863
0.199276
0.184749
0.0308697
-0.215619
0.166746
0.0180034
0.158632
0.00811368
0.155982
0.0026498
0.155819
0.000163162
0.156574
-0.000755305
0.15751
-0.000935591
0.158313
-0.000802653
0.158857
-0.00054467
-0.000203045
0.236983
0.0913759
-0.29749
0.208543
0.0464434
0.197096
0.019561
0.193435
0.0063108
0.193118
0.000480396
0.194027
-0.00166461
0.195196
-0.00210426
0.196208
-0.00181502
0.196913
-0.00124914
-0.000475007
0.240375
0.155077
-0.304076
0.210988
0.0758305
0.199692
0.0308573
0.196275
0.00972777
0.196137
0.000618045
0.197158
-0.00268562
0.198397
-0.00334301
0.199454
-0.00287192
0.200188
-0.00198315
-0.000759706
0.235301
0.215134
-0.295359
0.208319
0.102813
0.198498
0.040678
0.195869
0.0123575
0.19613
0.000356667
0.197348
-0.00390334
0.198677
-0.00467276
0.199775
-0.00396918
0.200526
-0.00273434
-0.00104967
0.229959
-0.281271
0.205452
0.196811
0.195012
0.195768
0.197235
0.198694
0.199853
0.200632
0.0209057
-0.000775468
-0.0201302
0.0248597
-0.00395403
0.0326055
-0.00774583
0.0452868
-0.0126813
0.0639577
-0.0186709
0.0885005
-0.0245427
0.118316
-0.029816
0.150279
-0.0319626
0.185215
-0.0349362
-0.0304034
0.0568121
-0.00322941
-0.0543581
0.066807
-0.013949
0.0846594
-0.0255982
0.110077
-0.0380993
0.141084
-0.0496773
0.174412
-0.0578709
0.207545
-0.0629488
0.238375
-0.0627929
0.269492
-0.066053
-0.0584012
0.0822599
-0.00694158
-0.0785477
0.094892
-0.0265811
0.115398
-0.0461045
0.141294
-0.0639953
0.169287
-0.0776703
0.197397
-0.0859807
0.225106
-0.0906574
0.252414
-0.0901011
0.279706
-0.0933455
-0.082771
0.0972211
-0.011192
-0.0929707
0.109786
-0.0391464
0.128798
-0.0651158
0.151651
-0.0868486
0.176376
-0.102396
0.202027
-0.111632
0.227209
-0.115839
0.251902
-0.114794
0.274425
-0.115868
-0.103705
0.10476
-0.100486
0.11642
0.133751
0.154883
0.17814
0.201672
0.223681
0.244433
0.260576
0.10111
-0.0889641
0.0982512
-0.110397
0.0915523
-0.0919712
0.101529
0.0814524
-0.0951313
0.105231
0.0705688
-0.0983352
0.109219
0.0588649
-0.10167
0.113374
0.0464089
-0.105159
0.117615
0.0333117
-0.108587
0.121684
0.0198453
-0.110413
0.123879
0.00725454
-0.102302
0.114893
-0.05789
0.0651446
0.105832
-0.0788748
-0.115921
0.0951968
-0.081336
0.0839099
-0.0838444
0.0720489
-0.0864743
0.0596671
-0.0892882
0.0467911
-0.0922831
0.0334562
-0.0952519
0.0198706
-0.0968274
0.00724439
-0.0896759
-0.0506457
0.106084
-0.0679653
-0.116994
0.0948656
-0.0701173
0.0833041
-0.0722829
0.0713784
-0.0745486
0.0590533
-0.0769631
0.0462895
-0.0795193
0.0330808
-0.0820432
0.0196201
-0.0833667
0.00712015
-0.077176
-0.0435255
0.107401
-0.0568784
-0.118488
0.0960115
-0.0587273
0.0842811
-0.0605525
0.0721764
-0.0624438
0.0596649
-0.0644517
0.0467223
-0.0665767
0.0333566
-0.0686774
0.0197674
-0.0697776
0.00717252
-0.064581
-0.036353
0.107999
-0.0457017
-0.119175
0.0964881
-0.0472167
0.0846353
-0.0486998
0.0724239
-0.0502325
0.0598295
-0.0518573
0.0468269
-0.0535741
0.0334182
-0.0552688
0.0197948
-0.0561542
0.00717183
-0.051958
-0.0291812
0.108355
-0.0345006
-0.119556
0.0968072
-0.0356688
0.084913
-0.0368056
0.0726589
-0.0379783
0.0600208
-0.0392192
0.0469742
-0.0405276
0.0335222
-0.0418167
0.0198566
-0.0424887
0.00719109
-0.0392925
-0.0219901
0.10849
-0.0232948
-0.119695
0.0969305
-0.0241097
0.0850217
-0.0248968
0.0727503
-0.0257068
0.0600938
-0.0265627
0.0470294
-0.0274632
0.0335611
-0.0283484
0.0198803
-0.0288078
0.00719739
-0.0266096
-0.0147927
0.108466
-0.0120869
-0.119674
0.0969054
-0.0125491
0.0849965
-0.0129879
0.0727261
-0.0134364
0.0600715
-0.0139081
0.0470102
-0.0144019
0.033546
-0.0148842
0.0198696
-0.0151314
0.00719216
-0.0139322
-0.00760051
0.108288
-0.0008835
-0.119491
0.0967354
-0.000996676
0.0848384
-0.00109094
0.0725831
-0.0011811
0.059947
-0.00127207
0.0469074
-0.00136236
0.033468
-0.0014448
0.0198195
-0.00148279
0.00717185
-0.00128461
-0.000428659
0.107929
-0.119122
0.0963962
0.0845262
0.072304
0.0597064
0.0467101
0.0333192
0.0197242
0.00713268
0.0179867
-0.207981
-0.0211327
0.0145638
-0.212443
0.0111195
-0.215668
0.00769498
-0.218985
0.00431354
-0.222808
0.00105147
-0.22717
-0.00192497
-0.231289
-0.00374971
-0.231221
-0.003266
-0.208365
-0.111094
0.0494667
-0.200941
-0.0565064
0.0419815
-0.204958
0.034675
-0.208361
0.0276113
-0.211921
0.0207415
-0.215938
0.0140269
-0.220455
0.00765602
-0.224919
0.00219079
-0.225756
-0.000957541
-0.205217
-0.112051
0.0763217
-0.190175
-0.0870885
0.0654579
-0.194094
0.0549762
-0.197879
0.0448949