/*--------------------------------*- C++ -*----------------------------------*\
  =========                 |
  \\      /  F ield         | OpenFOAM: The Open Source CFD Toolbox
   \\    /   O peration     | Website:  https://openfoam.org
    \\  /    A nd           | Version:  13
     \\/     M anipulation  |
\*---------------------------------------------------------------------------*/
FoamFile
{
    format      ascii;
    class       volScalarField;
    location    "54.7";
    object      p;
}
// * * * * * * * * * * * * * * * * * * * * * * * * * * * * * * * * * * * * * //

dimensions      [0 2 -2 0 0 0 0];

internalField   nonuniform List<scalar> 
440
(
-1.32198
-1.30898
-1.30796
-1.30706
-1.32644
-1.34361
-1.32216
-1.29837
-1.27098
-1.23782
-1.4615
-1.4205
-1.36216
-1.28449
-1.19397
-1.57558
-1.5168
-1.40153
-1.26145
-1.11976
-1.63627
-1.55443
-1.37499
-1.18931
-1.02011
-0.727006
-0.716922
-0.69981
-0.678233
-0.65556
-0.871405
-0.874585
-0.878535
-0.884488
-0.888059
-1.08328
-1.10277
-1.13917
-1.19461
-1.25766
-1.25331
-1.28133
-1.32628
-1.3903
-1.46755
-1.30612
-1.31076
-1.32321
-1.33796
-1.35232
-0.527212
0.0717422
-0.938489
-1.0373
-0.13816
-0.706089
0.382537
-1.00224
-1.05531
-0.142855
-1.06875
0.367507
-1.06902
-0.930411
-0.138696
-1.26304
0.3688
-1.00561
-0.873792
-0.132773
-1.18186
0.496472
-0.625963
-0.846894
-0.127503
-0.717081
0.702513
-0.0189639
-0.763258
-0.126901
-0.290196
0.326329
0.0715193
-0.47769
-0.125048
-0.214595
0.443749
0.25968
-0.189006
-0.120608
-0.122467
0.469509
0.340486
-0.044815
-0.116878
-0.105433
0.483529
0.450162
0.104286
-0.10525
-0.734773
-0.850823
-0.998693
-1.13486
-1.26623
-0.438505
-0.551069
-0.618586
-0.648964
-0.632691
-0.240174
-0.337807
-0.384985
-0.406699
-0.399608
-0.123259
-0.211834
-0.261633
-0.278582
-0.268139
-0.0708359
-0.158048
-0.206755
-0.223564
-0.206043
0.65707
0.506539
0.317348
0.101139
-0.144984
0.220098
0.0555906
-0.146216
-0.377641
-0.645918
-0.205797
-0.379377
-0.598128
-0.841767
-1.09419
-0.580123
-0.761753
-0.985694
-1.22625
-1.42486
-0.842457
-1.02861
-1.24259
-1.46582
-1.59938
1.92746
1.95687
1.98476
1.99924
1.99629
1.72068
1.73829
1.74983
1.74424
1.71712
1.47649
1.46555
1.4319
1.37459
1.28981
1.19959
1.16227
1.08976
0.985155
0.848102
0.93552
0.833661
0.699215
0.53937
0.343248
1.70009
1.68454
1.67837
1.72998
1.82268
1.6887
1.6706
1.6566
1.69795
1.72595
1.67832
1.65401
1.63241
1.65417
1.60233
1.66914
1.6353
1.60548
1.601
1.42715
1.66117
1.6152
1.57701
1.54239
1.23956
1.65391
1.58574
1.54021
1.44121
1.0314
1.64825
1.54724
1.50864
1.35126
1.06184
1.65499
1.52334
1.47815
1.29844
1.01516
1.6446
1.50125
1.45943
1.26283
0.963435
1.68394
1.49546
1.45278
1.24496
0.937715
0.634726
0.313314
-0.0381
-0.348283
-0.552368
0.560074
0.342618
0.102721
-0.114782
-0.294529
0.565716
0.396259
0.213372
0.0423215
-0.117715
0.595097
0.451504
0.295568
0.141161
-0.00676416
0.612501
0.480444
0.335134
0.185121
0.0423955
-1.01749
-0.889943
-0.733865
-0.605778
-0.529809
-1.04692
-0.990348
-0.872711
-0.775903
-0.716387
-0.94789
-0.901648
-0.834575
-0.77548
-0.733738
-0.786556
-0.747726
-0.708754
-0.677019
-0.653455
-0.664014
-0.644107
-0.618088
-0.606888
-0.627587
-0.599098
-0.593457
-0.566984
-0.580859
-0.554919
-0.577406
-0.572849
-0.557688
-0.552195
-0.53524
-0.591361
-0.58477
-0.569192
-0.545686
-0.526261
-0.625275
-0.615732
-0.601785
-0.584275
-0.56513
-0.659852
-0.645005
-0.630063
-0.612284
-0.592473
-0.592545
-0.344187
-0.228056
-0.582574
0.012082
-0.546392
-0.344669
-0.333545
-0.577347
-0.0407907
-0.396472
-0.348914
-0.474805
-0.615107
-0.0866129
-0.457814
-0.37183
-0.648966
-0.705066
-0.115981
-0.525589
-0.309701
-0.818713
-0.867685
-0.129248
-0.0595844
-0.460458
-0.204034
-0.557909
0.0943356
-0.488009
-0.443031
-0.14282
-0.568043
0.0634939
-0.48763
-0.699211
-0.682767
-0.64685
-0.400577
-0.505382
-0.692725
-0.705553
-0.643004
-0.641979
1.72711
1.70674
1.66986
1.61784
1.54948
1.87857
1.90018
1.9067
1.89686
1.87189
2.00458
2.0378
2.06242
2.07483
2.07387
2.06478
2.10398
2.14513
2.17898
2.19499
2.04107
2.07751
2.11754
2.15058
2.16543
-0.133429
-0.231924
-0.38686
-0.573786
-0.785025
0.400381
0.273463
0.103673
-0.100855
-0.3551
0.87974
0.747455
0.589293
0.402878
0.172442
1.25841
1.15764
1.03446
0.88442
0.704468
1.55822
1.48915
1.39753
1.28717
1.15852
1.76942
1.72691
1.73126
1.75883
1.81028
1.75309
1.72177
1.72597
1.76688
1.85009
1.73874
1.71503
1.72088
1.7756
1.90552
1.72509
1.70683
1.71053
1.77083
1.90143
1.71217
1.69685
1.696
1.75571
1.8794
1.82692
1.73621
1.72588
1.69738
1.71163
1.78075
1.72582
1.71845
1.71466
1.71565
1.45504
1.27614
0.943831
0.445487
-0.10374
1.52743
1.30147
0.954766
0.462474
-0.0962528
)
;

boundaryField
{
    left
    {
        type            zeroGradient;
    }
    right
    {
        type            fixedValue;
        value           uniform 0;
    }
    down
    {
        type            zeroGradient;
    }
    up
    {
        type            zeroGradient;
    }
    cylinder
    {
        type            zeroGradient;
    }
    defaultFaces
    {
        type            empty;
    }
}


// ************************************************************************* //
