/*--------------------------------*- C++ -*----------------------------------*\
  =========                 |
  \\      /  F ield         | OpenFOAM: The Open Source CFD Toolbox
   \\    /   O peration     | Website:  https://openfoam.org
    \\  /    A nd           | Version:  13
     \\/     M anipulation  |
\*---------------------------------------------------------------------------*/
FoamFile
{
    format      ascii;
    class       surfaceScalarField;
    location    "54.7";
    object      phi;
}
// * * * * * * * * * * * * * * * * * * * * * * * * * * * * * * * * * * * * * //

dimensions      [0 3 -1 0 0 0 0];

internalField   nonuniform List<scalar> 
823
(
0.0107889
0.00756179
-0.0183507
0.0425709
-0.00825887
-0.0235231
0.105556
-0.0599913
-0.00299428
0.193771
-0.127501
0.0392867
-0.181876
0.0709722
0.304674
0.00917234
-0.00161055
0.0634197
-0.0625063
0.160253
-0.156824
0.271046
-0.238294
-0.311045
0.400215
0.0230824
-0.0246929
0.110164
-0.149588
0.219096
-0.265757
0.319699
-0.338897
-0.377327
0.385982
0.0461134
-0.0708063
0.140962
-0.244437
0.219809
-0.344604
0.264853
-0.383942
-0.392526
0.280052
0.0577892
-0.128596
0.125185
-0.311832
0.160795
-0.380214
0.173146
-0.396293
0.181605
-0.400985
-0.00961388
-0.00290185
0.0125157
-0.0300059
-0.0266519
0.0470439
-0.0657995
-0.0273733
0.0631669
-0.111379
-0.0180809
0.0636604
-0.016652
-0.155674
0.0609469
-0.0148019
0.0119001
-0.0437777
0.00232387
-0.0813567
0.0102056
-0.118729
0.0192917
0.0127514
-0.148133
-0.0106454
0.0225455
-0.0345821
0.0262605
-0.0549485
0.0305721
-0.0626687
0.0270118
0.00796731
-0.0578846
-0.00191062
0.0244561
-0.00839688
0.0327468
-0.00239574
0.0245709
0.020861
0.00375502
-0.026244
0.0550724
0.00610542
0.0153291
0.0369057
0.0799475
0.124676
0.0994364
-0.805301
0.550191
0.305577
0.508339
-0.71448
0.249532
1.65561
-1.59956
0.441111
-0.754603
0.563024
-1.01266
0.983755
0.233028
-1.18646
0.552598
0.18877
0.428863
1.77934
0.525432
-0.851172
-1.03505
0.318102
-1.56245
0.574164
-0.0672924
0.522394
1.83111
0.584837
-0.913615
-1.06008
0.195528
-1.7029
0.22991
-0.101674
0.463637
1.59739
0.630814
-1.08079
-1.07892
0.0288545
-1.60708
-0.0224978
-0.050322
0.513972
1.06092
0.679921
-1.24674
-1.08313
0.768066
-1.16936
-1.20579
0.452496
0.265248
1.14576
0.367654
1.23357
-1.33455
-0.927421
0.91059
-0.72402
-1.35593
0.879831
0.296007
1.38271
-0.135226
1.2482
-1.20004
-0.698132
1.00304
-0.399124
-1.32793
1.14159
0.157457
1.39273
-0.386367
1.04575
-0.853065
-0.42512
1.03677
-0.177662
-1.25823
1.19723
-0.00301081
1.13809
-0.327222
0.659486
-0.374462
-0.133903
0.668239
-0.8459
0.665228
0.338006
-0.0364558
1.10704
0.142533
-1.06797
1.17266
0.214438
1.27183
0.286808
1.29431
0.377735
0.393195
1.02681
0.0891936
-0.973466
1.09533
0.145914
1.17401
0.208128
1.27952
0.272227
0.316782
0.962605
0.0467402
-0.920151
1.01864
0.0898769
1.09962
0.12715
1.20858
0.16327
0.197428
0.890522
0.0123517
-0.856134
0.948952
0.0314468
1.03088
0.0452224
1.13515
0.0589989
0.0743496
0.635882
-0.623531
0.667329
0.712552
0.771551
0.13755
0.305675
-0.252015
-0.191211
0.0912888
0.311025
-0.264763
0.0503362
0.321818
-0.280866
0.0166693
0.314342
-0.280675
0.205084
-0.188415
0.100824
0.342262
-0.13741
0.0646563
0.347193
0.03217
0.354304
0.0066953
0.339817
0.211779
0.0635667
0.375278
-0.0965831
0.0327149
0.378044
0.0064532
0.380566
-0.00717765
0.353448
0.204602
-0.0111394
0.390914
-0.00449625
-0.0276988
0.394604
-0.0358173
0.388685
-0.0277116
0.345342
0.17689
-0.0885862
0.0785153
-0.0902752
-0.0818046
-0.0482946
0.201478
0.102505
-0.254172
-0.0498111
0.147564
0.107068
-0.0531537
0.0918858
0.112173
-0.0564949
0.0374605
0.112619
-0.0581933
0.0806994
-0.0432389
0.193386
0.146762
-0.237644
0.147056
0.153399
0.0955669
0.163662
0.040602
0.167583
0.121301
0.150883
0.192437
-0.196558
0.107384
0.196898
0.0651109
0.205935
0.024762
0.207932
0.146063
0.155143
0.22612
-0.188826
0.115423
0.236618
0.0708279
0.25053
0.0274548
0.251305
0.173518
0.102747
-0.128643
0.0746018
0.0442663
0.0148967
0.406471
0.0668982
-0.0773899
0.418876
0.0451906
-0.0575954
0.414557
0.153365
-0.149046
0.391287
0.226556
-0.203286
0.448078
-0.310962
0.403551
0.0593271
0.412909
0.0358321
0.404707
0.161567
0.376425
0.254837
0.586859
0.396562
0.0587447
0.408028
0.0243661
0.384804
0.184791
0.365445
0.274196
0.755746
0.392283
0.0624408
0.39633
0.0203193
0.372922
0.2082
0.337101
0.310017
0.90402
0.384434
0.073986
0.386697
0.0180569
0.341245
0.253651
0.311932
0.339331
1.08731
0.617981
0.0600253
0.660861
-0.0248228
0.693129
0.221383
0.744594
0.287867
0.816056
1.01585
0.630513
0.0335328
0.681841
-0.0761505
0.721939
0.181284
0.751921
0.257885
0.525153
1.04282
0.647764
-0.0102112
0.673894
-0.10228
0.703541
0.151636
0.791817
0.169609
0.290331
1.02664
0.649343
-0.0555336
0.619369
-0.072306
0.698616
0.0723892
0.81421
0.0540155
0.126539
0.978001
0.548487
0.476181
0.54857
0.602585
0.729125
1.04079
-0.216154
1.03186
-0.128477
1.03172
-0.0964412
1.03178
-0.00456457
0.0423292
0.983955
-0.157284
0.971605
-0.116127
0.943783
-0.0686197
0.959158
-0.0199391
0.0280208
0.963072
-0.0937163
0.932331
-0.0853864
0.903743
-0.0400314
0.910038
-0.0262348
0.0179079
0.920861
-0.0365765
0.872662
-0.0371877
0.850836
-0.0182051
0.841499
-0.0168984
0.00327354
0.692548
0.655361
0.637156
0.620257
0.052926
0.151056
-0.203982
0.0781052
0.33745
-0.36263
0.077816
0.393984
-0.393695
0.0673348
0.397483
-0.387002
0.36617
0.0538588
-0.352694
0.0784399
0.0726157
0.155439
0.260451
0.190632
0.358791
0.194466
0.393649
0.386204
0.174431
0.0641234
0.00849226
0.188238
0.136337
0.287994
0.259035
0.352974
0.328669
0.384796
0.354382
0.0290954
-0.0206031
0.137685
0.0277473
0.270214
0.126505
0.402028
0.196855
0.284938
0.501886
0.00409739
-0.0247005
0.0561613
-0.0243166
0.165646
0.0170207
0.30239
0.0601109
0.129885
0.457444
-0.00577037
-0.0189301
0.00616595
-0.0362529
0.0578283
-0.0346417
0.143544
-0.0256043
0.0218089
0.25162
-0.00803854
-0.0108916
-0.0128535
-0.0314379
-0.000892178
-0.046603
0.0270799
-0.0535764
-0.0388496
0.0877384
-0.00248377
-0.00840784
-0.000204012
-0.0337177
0.00905582
-0.0558629
0.0237313
-0.068252
-0.06992
0.0548018
0.00412173
-0.0125296
0.0168656
-0.0464615
0.0319341
-0.0709314
0.0448757
-0.0811936
-0.0826495
0.0576052
-1.3853e-05
0.000568479
-0.00719596
-0.0247292
-0.0464317
0.413164
0.837836
-0.999379
0.360057
0.604426
-0.551319
0.0661354
0.750197
-0.456276
0.0533567
-0.205396
0.218175
-0.69112
0.516071
0.463335
0.462239
0.425896
0.641865
0.128381
1.04771
0.11586
-0.192875
-0.809606
0.473984
0.0430566
0.379182
0.736667
0.126391
1.3005
0.184416
-0.250901
-0.894769
0.404755
-0.304094
0.352358
0.789064
0.150089
1.50277
0.27311
-0.373922
-0.948986
0.199665
0.27425
0.177459
0.366561
-0.0542925
0.684146
-0.629854
-0.197754
0.143462
-0.210966
0.0132117
-0.030959
-0.180007
-0.220952
0.837743
-1.15298
0.429886
-0.0131785
0.0249894
0.0891617
-0.0136558
-0.0755059
0.1473
-0.0581384
0.258647
-0.111347
0.421229
-0.162582
-0.208625
0.205525
-0.165322
0.321818
0.564853
0.904157
0.141211
-0.140931
0.171708
-0.171988
0.107965
-0.146522
0.179768
0.0700661
-0.15389
0.191789
0.0287584
-0.1533
0.194608
-0.106405
0.135163
0.183633
-0.101761
-0.222802
0.13929
-0.102179
0.0886072
-0.103207
0.0365395
-0.101233
-0.0698655
0.183395
-0.0517386
-0.233417
0.132407
-0.0511909
0.0814187
-0.0522197
0.0328184
-0.0526324
-0.0370471
0.200322
-0.000849952
-0.25121
0.148742
0.000388768
0.0951765
0.00134579
0.0401734
0.00237061
0.00312633
0.203849
-0.25451
0.151084
0.0959352
0.0401126
0.0415296
-0.330471
-0.0637523
0.0151372
-0.360609
-0.00792091
-0.370636
-0.01737
-0.35318
-0.221352
0.127615
-0.298692
-0.159395
0.0838014
-0.316795
0.0403873
-0.327222
0.00795803
-0.320751
-0.213394
0.147188
-0.257024
-0.188856
0.103116
-0.272723
0.060371
-0.284477
0.0214619
-0.281842
-0.191932
0.167447
-0.220457
-0.204014
0.123257
-0.228534
0.0757481
-0.236968
0.0302353
-0.236329
-0.161696
0.162199
-0.210948
0.113433
0.0682542
0.026533
0.388071
0.107744
-0.0998354
0.387423
0.0938036
-0.0931554
0.355122
0.145714
-0.113413
0.302763
0.0573783
-0.0050195
-0.228339
0.359115
0.396436
0.107287
0.40188
0.0883599
0.394974
0.15262
0.346911
0.105442
-0.104231
0.401996
0.101271
0.411856
0.0784998
0.409798
0.154678
0.3712
0.14404
0.0335515
0.407064
0.090186
0.417229
0.0683354
0.420719
0.151188
0.389198
0.17556
0.171539
0.408776
0.419516
0.421658
0.393933
0.4137
0.0963512
0.331442
0.0822581
0.248222
0.0832197
0.251382
-0.00316047
-0.193761
0.445143
0.506567
0.49567
0.465476
0.457296
0.62265
0.356004
0.0891396
0.276926
0.0790774
0.184748
0.0921779
0.107033
0.077715
0.0315273
0.500841
0.375905
0.279227
0.197547
)
;

boundaryField
{
    left
    {
        type            calculated;
        value           nonuniform List<scalar> 
17
(
-0.60402
-0.60402
-0.60402
-0.60402
-0.60402
-0.39598
-0.39598
-0.39598
-0.39598
-0.39598
-0.39598
-0.39598
-0.39598
-0.39598
-0.39598
-0.510051
-0.510051
)
;
    }
    right
    {
        type            calculated;
        value           nonuniform List<scalar> 
17
(
0.189993
0.320109
0.228406
0.234346
0.269579
0.327327
0.40133
0.470015
0.547819
0.609874
0.649646
0.684133
1.07786
1.01891
0.77274
0.368269
-0.170358
)
;
    }
    down
    {
        type            calculated;
        value           uniform 0;
    }
    up
    {
        type            calculated;
        value           uniform 0;
    }
    cylinder
    {
        type            calculated;
        value           uniform 0;
    }
    defaultFaces
    {
        type            empty;
    }
}


// ************************************************************************* //
