/*--------------------------------*- C++ -*----------------------------------*\
  =========                 |
  \\      /  F ield         | OpenFOAM: The Open Source CFD Toolbox
   \\    /   O peration     | Website:  https://openfoam.org
    \\  /    A nd           | Version:  13
     \\/     M anipulation  |
\*---------------------------------------------------------------------------*/
FoamFile
{
    format      ascii;
    class       volVectorField;
    location    "0.2075";
    object      U;
}
// * * * * * * * * * * * * * * * * * * * * * * * * * * * * * * * * * * * * * //

dimensions      [0 1 -1 0 0 0 0];

internalField   nonuniform List<vector> 
1800
(
(0.280011 -0.256436 1.2796e-19)
(0.857387 -0.734959 5.77395e-20)
(1.21338 -0.987941 -6.17094e-19)
(1.37022 -1.06428 5.47094e-19)
(1.42294 -1.0501 1.2078e-18)
(1.43356 -1.00166 4.98447e-19)
(1.42971 -0.944912 -2.5377e-19)
(1.42125 -0.889325 -6.42326e-19)
(1.41201 -0.834845 -3.37054e-19)
(1.38442 -0.788034 -2.74628e-19)
(0.333421 -0.260253 2.51852e-20)
(0.989838 -0.724707 -7.08345e-19)
(1.38008 -0.96337 6.28211e-21)
(1.5429 -1.0318 -4.34558e-19)
(1.59001 -1.01455 1.01059e-19)
(1.59199 -0.965474 1.15802e-18)
(1.57974 -0.908736 -8.28083e-19)
(1.56422 -0.852705 4.18168e-19)
(1.54873 -0.798509 6.88232e-19)
(1.52581 -0.756358 -3.5206e-19)
(0.390411 -0.258026 3.7938e-20)
(1.12374 -0.697008 2.04841e-19)
(1.54416 -0.915703 4.93137e-19)
(1.71019 -0.974989 -3.18286e-19)
(1.75032 -0.95572 -1.43795e-18)
(1.743 -0.908163 3.13783e-19)
(1.72174 -0.854383 5.46634e-19)
(1.69796 -0.802033 -6.06784e-20)
(1.67493 -0.7524 -4.58969e-21)
(1.64538 -0.712419 -2.68274e-20)
(0.450156 -0.248893 -4.37142e-20)
(1.25619 -0.651166 -2.26312e-19)
(1.70175 -0.844846 -3.48203e-19)
(1.86826 -0.893967 5.72606e-20)
(1.90061 -0.87335 3.82038e-19)
(1.88428 -0.828341 3.07764e-20)
(1.8547 -0.778305 -2.23308e-20)
(1.82356 -0.729745 5.03735e-19)
(1.79383 -0.683801 4.19611e-19)
(1.76058 -0.647904 -1.44371e-19)
(0.511569 -0.232222 1.32279e-19)
(1.38398 -0.587456 2.88082e-19)
(1.84867 -0.752303 -6.92966e-20)
(2.01265 -0.791144 -7.81457e-20)
(2.03646 -0.77053 -1.13905e-18)
(2.01141 -0.729838 9.61005e-21)
(1.97422 -0.685383 8.72296e-19)
(1.93647 -0.64252 2.89056e-19)
(1.90092 -0.602388 1.55612e-20)
(1.86404 -0.570952 -1.89766e-19)
(0.573123 -0.207367 -6.70502e-20)
(1.5035 -0.506234 6.33999e-19)
(1.98074 -0.639512 1.27895e-18)
(2.13939 -0.668432 -8.55468e-19)
(2.15425 -0.649104 -8.27132e-19)
(2.12113 -0.614064 1.3606e-18)
(2.07722 -0.57633 -9.61981e-19)
(2.03375 -0.540112 -1.07796e-18)
(1.9932 -0.506412 7.65711e-19)
(1.95322 -0.480314 -2.13158e-20)
(0.633021 -0.174013 2.34765e-19)
(1.61117 -0.408702 -1.07175e-18)
(2.09415 -0.508986 -3.45676e-18)
(2.24498 -0.528986 1.38649e-18)
(2.25088 -0.51243 2.09281e-18)
(2.21066 -0.484412 -5.91188e-21)
(2.16122 -0.454568 -2.6241e-18)
(2.11318 -0.426014 7.87155e-21)
(2.06871 -0.399615 2.34858e-18)
(2.02626 -0.379416 6.14133e-19)
(0.689157 -0.132165 -9.20557e-20)
(1.70336 -0.296599 6.62718e-19)
(2.1854 -0.363683 2.65988e-18)
(2.32641 -0.376202 -4.73872e-20)
(2.32378 -0.363858 -1.34802e-18)
(2.27768 -0.343989 -4.14712e-19)
(2.22403 -0.322904 0)
(2.17261 -0.302745 9.22135e-19)
(2.12529 -0.284228 -3.61141e-21)
(2.08109 -0.270484 -7.56035e-19)
(0.739278 -0.0822723 -9.8164e-21)
(1.77675 -0.172392 1.57221e-18)
(2.25166 -0.20726 2.30469e-18)
(2.3815 -0.214023 -2.01196e-18)
(2.3712 -0.207199 -1.39492e-18)
(2.32067 -0.196351 4.17611e-19)
(2.2642 -0.184649 -1.73527e-18)
(2.21068 -0.173387 -1.21216e-18)
(2.16165 -0.163114 1.40482e-18)
(2.11648 -0.156109 1.19107e-18)
(0.78114 -0.0252569 2.0664e-19)
(1.82862 -0.0392105 1.01956e-18)
(2.29088 -0.0437827 4.23972e-19)
(2.40886 -0.0465518 -2.88248e-18)
(2.39212 -0.0463422 1.86574e-20)
(2.3387 -0.0450523 3.97817e-18)
(2.28085 -0.0430684 -2.11623e-18)
(2.22646 -0.0409754 -1.1482e-18)
(2.17681 -0.0391056 3.92782e-19)
(2.13151 -0.0389168 -8.74735e-19)
(0.0025737 -0.0457208 1.21056e-19)
(0.034911 -0.141797 1.19111e-19)
(0.0947092 -0.199784 -1.94081e-21)
(0.161446 -0.222857 -6.4623e-21)
(0.227489 -0.226498 -1.61969e-21)
(0.289367 -0.221832 -3.10398e-20)
(0.345981 -0.21439 1.17912e-20)
(0.397405 -0.206428 -2.51263e-20)
(0.443989 -0.198725 2.03906e-21)
(0.486543 -0.192612 -5.30573e-21)
(0.00932806 -0.0720432 6.91841e-20)
(0.0576792 -0.233501 1.19512e-19)
(0.127292 -0.331199 -1.19042e-19)
(0.197578 -0.368618 -4.39649e-20)
(0.263764 -0.372203 -6.17171e-20)
(0.324432 -0.361375 -6.42725e-20)
(0.379415 -0.345862 2.12534e-20)
(0.429165 -0.329628 -1.9173e-20)
(0.474076 -0.31406 4.96074e-21)
(0.515695 -0.30246 -7.79414e-21)
(0.0203503 -0.0981273 -4.82336e-21)
(0.0953058 -0.32231 2.73479e-19)
(0.181276 -0.457514 8.06314e-20)
(0.257529 -0.508203 2.68939e-19)
(0.323989 -0.511436 4.36661e-20)
(0.382653 -0.494544 -2.33814e-19)
(0.43492 -0.471227 -2.69481e-20)
(0.481873 -0.44705 7.17618e-20)
(0.523988 -0.424008 -2.8168e-20)
(0.564108 -0.407133 -2.08596e-21)
(0.0357811 -0.123736 -1.05989e-19)
(0.14755 -0.40664 -5.86358e-20)
(0.255941 -0.576109 2.8413e-20)
(0.340299 -0.638515 -1.17426e-19)
(0.407045 -0.64099 5.50077e-20)
(0.462866 -0.618198 1.61798e-19)
(0.511344 -0.587477 4.34998e-20)
(0.554408 -0.555837 -7.98643e-21)
(0.592671 -0.525882 1.83081e-20)
(0.630728 -0.504009 -2.1003e-21)
(0.0558055 -0.148627 0)
(0.214029 -0.484921 8.17739e-20)
(0.35023 -0.68442 4.01406e-19)
(0.444443 -0.756535 -2.81319e-19)
(0.511329 -0.757763 -5.21467e-19)
(0.563441 -0.729323 1.70116e-19)
(0.607089 -0.691749 -2.25631e-20)
(0.645238 -0.653287 -8.6553e-20)
(0.678699 -0.617147 0)
(0.714124 -0.590601 -7.44885e-21)
(0.0806451 -0.172512 8.00508e-21)
(0.294178 -0.555567 2.43268e-19)
(0.462703 -0.779953 1.12037e-19)
(0.568015 -0.859395 2.09527e-19)
(0.63471 -0.858842 -1.66933e-19)
(0.682233 -0.825123 -2.56097e-19)
(0.72008 -0.781411 4.37545e-19)
(0.752397 -0.736938 4.7481e-20)
(0.780258 -0.695485 -2.51885e-19)
(0.812449 -0.66459 -5.98734e-21)
(0.110525 -0.194997 2.2583e-20)
(0.387187 -0.61695 2.73511e-19)
(0.591485 -0.860332 7.16975e-20)
(0.708546 -0.944461 2.03107e-20)
(0.774517 -0.94163 2.88526e-19)
(0.816578 -0.903158 -3.55983e-19)
(0.847769 -0.85421 -3.51647e-19)
(0.873489 -0.804718 -2.92803e-19)
(0.895156 -0.758924 2.12744e-19)
(0.923385 -0.723893 2.29194e-19)
(0.145594 -0.215519 -1.19126e-19)
(0.491887 -0.667381 -9.07118e-20)
(0.734176 -0.923343 2.11366e-19)
(0.862982 -1.00945 -1.5412e-19)
(0.927496 -1.00401 3.02962e-19)
(0.96328 -0.961574 7.08306e-19)
(0.987131 -0.908589 4.8092e-19)
(1.00569 -0.855388 -3.70322e-19)
(1.02084 -0.806367 -1.74839e-19)
(1.04382 -0.767203 2.5161e-19)
(0.185777 -0.233268 -2.70893e-19)
(0.606548 -0.70507 -7.89004e-19)
(0.887636 -0.966911 9.15296e-19)
(1.02741 -1.05236 8.05796e-19)
(1.08944 -1.04418 -6.97827e-19)
(1.11809 -0.998892 7.50648e-19)
(1.13398 -0.943471 1.15469e-19)
(1.14492 -0.888387 -8.7529e-19)
(1.15341 -0.837464 -2.12755e-19)
(1.16812 -0.7941 2.86031e-19)
(0.230708 -0.247223 3.6814e-21)
(0.729012 -0.728143 -6.97007e-19)
(1.0483 -0.988997 -4.64952e-19)
(1.19747 -1.07118 7.53872e-19)
(1.25548 -1.06014 5.88841e-19)
(1.27562 -1.01301 -6.76348e-19)
(1.28225 -0.956639 -5.50733e-19)
(1.28429 -0.90129 3.24776e-19)
(1.28513 -0.849102 -3.33048e-19)
(1.28481 -0.802106 -2.04825e-19)
(0.634001 -0.156548 6.16101e-21)
(0.808946 -0.120494 -1.46264e-20)
(0.889743 -0.0942497 1.20315e-20)
(0.93723 -0.0737681 3.89386e-21)
(0.964946 -0.0571485 -1.5905e-21)
(0.981334 -0.043446 1.71048e-21)
(0.991344 -0.032089 -1.85009e-22)
(0.99755 -0.0225495 -3.34852e-21)
(1.00123 -0.0146362 4.45707e-21)
(1.00356 -0.00565272 3.21078e-21)
(0.651473 -0.224367 7.5423e-20)
(0.819365 -0.157144 -6.05514e-21)
(0.897398 -0.114005 3.99167e-21)
(0.943044 -0.0847242 1.82407e-21)
(0.969561 -0.0634938 4.30659e-21)
(0.985075 -0.0472269 0)
(0.994413 -0.0343787 -1.6645e-22)
(1.00011 -0.0239286 3.30572e-21)
(1.00345 -0.0154368 5.32373e-22)
(1.0055 -0.00594378 -3.21247e-21)
(0.679752 -0.290071 -4.04214e-20)
(0.834428 -0.192986 -1.96828e-20)
(0.907624 -0.133513 6.59998e-21)
(0.950191 -0.0955819 -8.75162e-21)
(0.974892 -0.0697561 -4.09597e-21)
(0.989231 -0.0509264 6.40444e-21)
(0.997734 -0.0365918 0)
(1.00283 -0.0252428 0)
(1.00577 -0.0161879 1.14072e-23)
(1.00753 -0.00621383 0)
(0.718681 -0.352446 -2.79125e-20)
(0.85404 -0.22747 3.27774e-20)
(0.92034 -0.152534 8.31348e-21)
(0.958657 -0.106231 0)
(0.980936 -0.0758734 2.11215e-21)
(0.993795 -0.0545071 1.01964e-21)
(1.0013 -0.0387051 0)
(1.00571 -0.0264774 -2.0042e-21)
(1.00821 -0.0168806 0)
(1.00964 -0.00645954 -1.974e-22)
(0.768024 -0.410335 -2.40409e-20)
(0.878108 -0.260109 5.96183e-20)
(0.935437 -0.170843 -4.82508e-21)
(0.968416 -0.116564 0)
(0.987685 -0.0817874 -2.1804e-21)
(0.998757 -0.0579331 -2.90559e-21)
(1.0051 -0.0406957 6.57965e-21)
(1.00873 -0.0276177 1.35866e-21)
(1.01073 -0.0175059 -1.02035e-21)
(1.01181 -0.00667738 3.07409e-21)
(0.827307 -0.462559 -5.79535e-19)
(0.906535 -0.290563 -1.15975e-19)
(0.952789 -0.188264 2.1333e-21)
(0.979433 -0.126488 1.11265e-20)
(0.995126 -0.0874452 4.35417e-21)
(1.0041 -0.0611705 -8.48513e-23)
(1.00911 -0.0425406 -6.74846e-21)
(1.01187 -0.0286484 1.61638e-21)
(1.01333 -0.0180542 -2.70416e-22)
(1.01403 -0.00686371 1.98179e-21)
(0.89548 -0.507719 -1.18513e-20)
(0.938983 -0.318435 4.87744e-20)
(0.972224 -0.204662 4.80247e-21)
(0.991649 -0.135925 -2.56835e-22)
(1.00323 -0.0928037 -8.22805e-21)
(1.00982 -0.0641901 5.55606e-21)
(1.01333 -0.0442193 1.14136e-21)
(1.01513 -0.0295552 -5.08624e-21)
(1.01599 -0.0185164 -4.78201e-22)
(1.01629 -0.00701476 -2.19515e-21)
(0.970803 -0.544769 2.41579e-19)
(0.974257 -0.343154 6.02819e-20)
(0.993153 -0.219749 0)
(1.00485 -0.14473 -3.10863e-21)
(1.01193 -0.0977947 6.09238e-21)
(1.01586 -0.0669574 1.85974e-21)
(1.01773 -0.0457118 -6.22346e-22)
(1.01847 -0.0303251 2.08114e-22)
(1.01869 -0.0188845 3.88667e-23)
(1.01857 -0.00712782 5.1058e-22)
(1.05261 -0.575032 -3.49584e-19)
(1.01101 -0.36612 -1.67156e-19)
(1.01422 -0.234266 3.13037e-20)
(1.01826 -0.153132 1.66207e-21)
(1.02084 -0.102456 -2.0304e-21)
(1.02206 -0.0694597 -1.27888e-21)
(1.02223 -0.0469998 -1.21813e-21)
(1.02187 -0.0309442 6.38064e-22)
(1.02141 -0.01915 -3.88108e-21)
(1.02086 -0.00720283 -4.6155e-21)
(1.14265 -0.597952 2.37201e-19)
(1.05228 -0.387534 -1.64263e-19)
(1.03555 -0.249922 -2.31877e-20)
(1.03121 -0.162401 -1.62408e-20)
(1.0294 -0.107464 -6.56035e-21)
(1.02808 -0.0719941 -3.02002e-21)
(1.02666 -0.0481895 -2.85994e-21)
(1.02524 -0.0314379 0)
(1.02412 -0.0193131 1.97242e-21)
(1.02315 -0.00722577 8.52147e-22)
(1.28497 -0.582306 3.6902e-19)
(1.14127 -0.384705 1.0862e-19)
(1.08516 -0.250621 -6.37555e-20)
(1.05968 -0.163688 2.72666e-21)
(1.04633 -0.108275 3.83039e-21)
(1.03865 -0.0722639 6.58822e-22)
(1.0336 -0.0481153 5.01598e-21)
(1.03007 -0.0312182 2.27268e-21)
(1.02773 -0.0190815 -2.56813e-21)
(1.02607 -0.00711882 9.87699e-22)
(1.33635 -0.488201 -5.19613e-21)
(1.17978 -0.335674 1.10088e-19)
(1.11586 -0.226816 8.33355e-20)
(1.08228 -0.152228 -9.41e-21)
(1.06195 -0.102163 3.46412e-20)
(1.04931 -0.0686145 2.13037e-20)
(1.041 -0.0457705 1.52716e-20)
(1.03539 -0.0296949 -1.33377e-21)
(1.03183 -0.0181388 5.31009e-21)
(1.0294 -0.0067556 4.05368e-21)
(1.38797 -0.417947 -1.11896e-19)
(1.22618 -0.29821 -8.88237e-21)
(1.14865 -0.205985 3.09544e-21)
(1.10473 -0.140314 -3.84848e-37)
(1.07714 -0.0949257 2.37775e-21)
(1.0596 -0.0639698 -5.9943e-35)
(1.04812 -0.0426998 -4.35291e-21)
(1.04049 -0.0276838 -2.78069e-34)
(1.03572 -0.0168941 1.1513e-21)
(1.03253 -0.00628556 -3.37717e-21)
(1.4206 -0.345689 -1.73896e-34)
(1.26084 -0.255787 -2.67563e-20)
(1.17561 -0.180964 -2.96419e-20)
(1.12418 -0.125281 0)
(1.09072 -0.0855427 -1.55765e-20)
(1.06897 -0.0579014 -1.02238e-20)
(1.05465 -0.0387077 -4.47067e-21)
(1.04519 -0.0250955 -3.99245e-34)
(1.0393 -0.0153086 -1.02672e-21)
(1.0354 -0.00569322 3.30421e-21)
(1.44126 -0.279272 -6.22039e-20)
(1.28742 -0.213461 3.42569e-21)
(1.19767 -0.154118 0)
(1.14067 -0.108162 0)
(1.10252 -0.0744708 0)
(1.07724 -0.0506272 0)
(1.06046 -0.033906 -9.94824e-22)
(1.04937 -0.0219905 -4.48899e-34)
(1.0425 -0.013414 1.09082e-21)
(1.03796 -0.00498796 4.04351e-34)
(1.45388 -0.218053 -1.84596e-20)
(1.30723 -0.171418 0)
(1.21516 -0.125957 0)
(1.15418 -0.0894362 0)
(1.11239 -0.0620329 0)
(1.08425 -0.042343 0)
(1.06543 -0.0284106 1.81616e-21)
(1.05296 -0.0184363 3.70077e-21)
(1.04524 -0.0112472 1.06204e-21)
(1.04014 -0.0041821 3.80843e-21)
(1.46117 -0.16159 0)
(1.32142 -0.130081 -8.32694e-21)
(1.22844 -0.0969854 -1.25124e-20)
(1.16474 -0.0695315 0)
(1.12025 -0.0485276 -7.86614e-21)
(1.08989 -0.0332427 -5.4379e-21)
(1.06945 -0.0223434 -1.86304e-21)
(1.05588 -0.0145075 -2.26002e-21)
(1.04747 -0.00885084 3.57099e-21)
(1.04191 -0.00329056 2.66053e-21)
(1.46453 -0.108871 5.11387e-21)
(1.33043 -0.0894652 4.57186e-21)
(1.2374 -0.0674461 -2.00963e-21)
(1.17204 -0.0487129 4.14348e-36)
(1.12572 -0.0341602 -6.84262e-22)
(1.09381 -0.0234654 -4.48401e-35)
(1.07221 -0.0157927 1.64647e-21)
(1.05783 -0.0102571 5.54662e-21)
(1.04891 -0.00625147 9.35306e-22)
(1.04301 -0.00231796 -3.02304e-21)
(1.45384 -0.0588389 -2.33835e-20)
(1.32404 -0.0517165 8.09024e-21)
(1.23254 -0.0398105 9.3571e-21)
(1.16729 -0.0290322 0)
(1.12064 -0.0204631 5.54695e-21)
(1.08829 -0.014094 3.85523e-21)
(1.0663 -0.00949718 4.14864e-21)
(1.05166 -0.00617028 1.65047e-21)
(1.04257 -0.00375712 -9.53086e-22)
(1.03657 -0.00138936 3.31054e-21)
(1.21322 -0.00746878 0)
(1.11541 -0.00906414 0)
(1.04209 -0.00747068 0)
(0.988361 -0.00555204 0)
(0.94953 -0.00394022 0)
(0.922454 -0.00272654 0)
(0.903996 -0.00184206 1.52707e-21)
(0.891681 -0.00119999 -7.60779e-36)
(0.884031 -0.000716975 9.73537e-22)
(0.879018 -0.000254963 2.91328e-21)
(2.05242 -0.0360364 8.11704e-19)
(2.04016 -0.136665 5.50869e-20)
(2.01084 -0.234733 -1.12224e-19)
(1.96502 -0.328138 -3.21055e-19)
(1.90433 -0.415121 -1.02574e-19)
(1.82914 -0.494322 -1.57762e-19)
(1.74566 -0.561084 -3.95722e-19)
(1.64279 -0.626117 1.18901e-19)
(1.55925 -0.651393 0)
(1.41309 -0.726334 4.25353e-20)
(1.96895 -0.0266582 2.26337e-19)
(1.95927 -0.102367 -3.05444e-19)
(1.93699 -0.176798 -2.36551e-20)
(1.90199 -0.248656 -1.27732e-19)
(1.85702 -0.316205 3.95664e-20)
(1.79839 -0.380699 1.26294e-19)
(1.73915 -0.431618 -2.50556e-20)
(1.65581 -0.495503 7.01217e-20)
(1.59931 -0.506435 -8.9976e-20)
(1.49197 -0.586163 2.47402e-20)
(1.89929 -0.0203039 -1.07049e-19)
(1.89183 -0.0802172 2.17e-19)
(1.87439 -0.138957 1.69024e-19)
(1.84651 -0.195892 -2.24965e-19)
(1.81122 -0.249314 5.54465e-20)
(1.76417 -0.301936 1.70534e-19)
(1.71795 -0.341865 -3.04578e-20)
(1.65234 -0.398011 4.17353e-20)
(1.60417 -0.406329 5.00733e-20)
(1.5255 -0.476682 6.65464e-20)
(1.84525 -0.0168718 -2.23477e-19)
(1.83917 -0.063066 4.30366e-21)
(1.82472 -0.10854 -5.03917e-20)
(1.80164 -0.153027 -4.30087e-20)
(1.77238 -0.19494 -4.64243e-20)
(1.73384 -0.237098 -8.87452e-20)
(1.69496 -0.269037 1.02037e-19)
(1.64311 -0.31513 1.77254e-20)
(1.60029 -0.323422 -2.93461e-21)
(1.54123 -0.380539 9.31086e-21)
(1.803 -0.0135326 4.05667e-20)
(1.7979 -0.0488864 7.72949e-20)
(1.78554 -0.0837106 -3.98713e-20)
(1.76591 -0.117913 1.85379e-19)
(1.74068 -0.150261 -7.65663e-21)
(1.70835 -0.18306 -1.42989e-19)
(1.6743 -0.208353 2.13622e-20)
(1.63226 -0.244264 -7.4018e-20)
(1.5938 -0.252571 7.65175e-20)
(1.54727 -0.296701 5.31755e-20)
(1.77079 -0.0112766 -1.18364e-19)
(1.7664 -0.0374562 -5.47824e-20)
(1.7555 -0.0632789 1.32405e-20)
(1.73826 -0.0887429 7.75732e-20)
(1.71576 -0.112993 1.01801e-19)
(1.68771 -0.137674 -4.05911e-20)
(1.65696 -0.157251 3.29198e-21)
(1.62139 -0.184237 1.84888e-20)
(1.58623 -0.192102 4.37487e-20)
(1.54752 -0.225053 -3.89702e-20)
(1.74712 -0.00956149 -4.05313e-20)
(1.7433 -0.0278405 -8.47413e-20)
(1.73344 -0.0458851 -8.11515e-20)
(1.71785 -0.0637623 -1.40259e-19)
(1.69721 -0.0809475 1.34083e-20)
(1.67197 -0.0985447 1.5292e-20)
(1.64344 -0.112939 2.44452e-20)
(1.61193 -0.132357 6.68491e-21)
(1.57916 -0.139155 -3.31115e-20)
(1.54516 -0.162922 -1.96091e-21)
(1.7291 -0.00805907 4.31522e-20)
(1.72601 -0.0192908 2.32252e-20)
(1.7172 -0.0303283 1.18631e-20)
(1.70304 -0.0412926 -2.213e-20)
(1.68394 -0.0519751 -1.86327e-20)
(1.66074 -0.0631227 8.89404e-22)
(1.63377 -0.0725285 -1.17936e-20)
(1.60471 -0.0854174 -4.3861e-21)
(1.57347 -0.0904743 -1.41783e-21)
(1.54207 -0.10716 2.68693e-20)
(1.68524 -0.00905946 -4.40363e-20)
(1.68344 -0.0130678 -5.71236e-21)
(1.67744 -0.0169172 7.01911e-20)
(1.66709 -0.0207966 -8.63206e-21)
(1.65234 -0.0246648 -1.22399e-20)
(1.63403 -0.0291726 1.43706e-20)
(1.61153 -0.0328851 -2.00076e-21)
(1.58745 -0.0396092 -6.55016e-21)
(1.55891 -0.041622 1.09667e-20)
(1.53286 -0.0523292 4.53382e-20)
(1.27933 -0.00487082 3.89845e-20)
(1.27411 -0.0033228 2.96197e-20)
(1.26984 -0.0018369 2.70306e-20)
(1.2667 -0.000487014 3.87613e-20)
(1.26417 0.000661601 -1.37708e-20)
(1.26254 0.00148144 -1.72333e-20)
(1.25943 0.00216666 2.30289e-21)
(1.25903 0.00152225 2.52363e-21)
(1.25023 0.00285105 -4.05395e-21)
(1.25527 -0.00168802 4.31044e-21)
(1.36312 0.729484 -5.13446e-20)
(1.35513 0.77789 2.54185e-20)
(1.36072 0.831459 -4.12308e-19)
(1.36942 0.890859 2.21966e-19)
(1.37828 0.954563 7.76022e-19)
(1.38539 1.02141 -1.4116e-19)
(1.381 1.0848 -8.15718e-19)
(1.32594 1.10916 -4.06342e-20)
(1.11329 0.98083 -4.94451e-19)
(0.546933 0.504713 1.01388e-19)
(1.50949 0.707138 0)
(1.5094 0.75336 5.16791e-19)
(1.51466 0.803944 1.15039e-18)
(1.52425 0.861214 -6.83291e-19)
(1.53697 0.9238 -1.65007e-18)
(1.54995 0.990182 -1.39744e-19)
(1.55119 1.05329 -1.7965e-19)
(1.49497 1.07742 6.7028e-19)
(1.25743 0.950453 1.07945e-18)
(0.616346 0.485686 4.53849e-19)
(1.63514 0.681868 6.38497e-20)
(1.64534 0.724949 0)
(1.65681 0.771711 -6.69097e-20)
(1.672 0.824355 7.00462e-19)
(1.69083 0.882421 5.28288e-20)
(1.71041 0.944756 -1.78634e-18)
(1.71721 1.00421 1.16963e-18)
(1.65914 1.02573 8.00134e-19)
(1.39584 0.90113 -9.84184e-19)
(0.681333 0.456153 -2.93599e-19)
(1.74201 0.63994 -1.08319e-19)
(1.76137 0.679383 -8.82358e-20)
(1.78178 0.722215 2.13168e-19)
(1.80546 0.770099 -2.67999e-19)
(1.83249 0.823053 -1.30441e-18)
(1.85998 0.88018 -1.01516e-18)
(1.87282 0.934418 1.16226e-18)
(1.81248 0.952074 8.20435e-19)
(1.5228 0.831466 0)
(0.738015 0.41532 0)
(1.83663 0.577596 -7.61634e-19)
(1.86359 0.613396 -1.29944e-18)
(1.89245 0.652242 -5.22755e-19)
(1.92465 0.695286 -3.49351e-20)
(1.96006 0.74275 0)
(1.99555 0.793898 1.45827e-19)
(2.01409 0.841891 1.7303e-19)
(1.95045 0.855214 2.22721e-19)
(1.63376 0.741328 -3.40654e-19)
(0.783539 0.363977 -8.68388e-20)
(1.92202 0.497901 9.02436e-19)
(1.95484 0.529654 -4.59033e-20)
(1.99052 0.563937 -1.07664e-18)
(2.0299 0.601546 0)
(2.07266 0.642794 0)
(2.11514 0.687056 0)
(2.13806 0.727853 1.49578e-18)
(2.06949 0.736711 -1.91613e-18)
(1.72562 0.633016 -1.43753e-18)
(0.815999 0.30423 5.12938e-20)
(1.99654 0.405202 -1.22237e-18)
(2.03377 0.432022 -2.56227e-18)
(2.07469 0.460711 -4.47218e-21)
(2.11975 0.491917 5.22326e-19)
(2.16842 0.525991 -4.27847e-20)
(2.21639 0.562405 1.23861e-18)
(2.24191 0.595247 -7.3606e-19)
(2.1668 0.599395 -2.45861e-18)
(1.79534 0.51055 1.70354e-19)
(0.834637 0.239776 1.32927e-19)
(2.05696 0.302786 -9.97474e-19)
(2.09755 0.323652 1.84469e-20)
(2.14242 0.345672 3.90599e-19)
(2.19177 0.369519 -3.7961e-19)
(2.24491 0.395499 5.93525e-19)
(2.29678 0.423169 1.75921e-18)
(2.32313 0.447497 -2.37396e-19)
(2.23937 0.448149 -1.4451e-18)
(1.84051 0.377962 3.9655e-19)
(0.840254 0.172448 7.78731e-20)
(2.10052 0.193118 3.74141e-19)
(2.14362 0.207262 9.02575e-20)
(2.19132 0.221771 -4.21126e-19)
(2.24369 0.237449 -9.62691e-19)
(2.29991 0.254628 1.01998e-19)
(2.35408 0.272684 1.0837e-19)
(2.37912 0.287986 -1.73464e-18)
(2.28479 0.288015 8.32838e-19)
(1.86097 0.239924 2.99342e-19)
(0.832815 0.104122 -2.19408e-19)
(2.12578 0.0783706 7.50273e-19)
(2.17044 0.0851083 -1.14486e-18)
(2.21972 0.0916366 1.93072e-19)
(2.27377 0.098675 2.42815e-18)
(2.33158 0.106414 1.29531e-18)
(2.38626 0.114845 -3.02649e-18)
(2.40797 0.122073 -3.39194e-18)
(2.30198 0.122663 1.93459e-18)
(1.85704 0.0994637 -5.37501e-21)
(0.812809 0.0374724 1.00623e-20)
(0.52313 0.18954 -1.97313e-19)
(0.4892 0.196084 -1.78259e-19)
(0.446915 0.203225 1.09437e-19)
(0.398767 0.210932 -3.65236e-19)
(0.345998 0.219239 -5.11622e-20)
(0.288008 0.228139 3.0744e-19)
(0.223544 0.236671 9.04268e-20)
(0.152007 0.23892 -6.07062e-20)
(0.0785149 0.21393 -1.17733e-20)
(0.013667 0.11664 2.78108e-20)
(0.549194 0.289017 1.59774e-19)
(0.516096 0.302276 2.33789e-19)
(0.475158 0.316922 3.48477e-20)
(0.428581 0.332727 -1.0461e-19)
(0.377514 0.349691 -3.43651e-19)
(0.321368 0.367843 2.31465e-20)
(0.258703 0.385533 2.12915e-19)
(0.187883 0.392418 -4.20509e-21)
(0.110884 0.352369 -3.92935e-20)
(0.0313135 0.190795 -1.1631e-20)
(0.592261 0.384304 -1.76227e-19)
(0.560655 0.404033 -1.9268e-19)
(0.522058 0.425799 1.66703e-19)
(0.478164 0.449282 1.56455e-19)
(0.429962 0.474472 -6.21028e-20)
(0.376894 0.501422 -1.36002e-19)
(0.317202 0.527805 -8.51338e-20)
(0.247465 0.538996 3.53293e-20)
(0.164353 0.484235 -3.04386e-20)
(0.0601262 0.260992 6.1881e-21)
(0.651234 0.473202 9.88154e-20)
(0.621759 0.499062 -5.43035e-22)
(0.586446 0.527399 -1.35e-19)
(0.546291 0.557955 9.6332e-20)
(0.502074 0.590754 -9.53667e-20)
(0.453276 0.625856 4.05896e-20)
(0.397697 0.660268 -1.09956e-19)
(0.329381 0.675323 -5.57996e-20)
(0.23754 0.606531 -2.11972e-19)
(0.0992323 0.325535 5.07145e-20)
(0.724651 0.553673 -3.20388e-20)
(0.697907 0.585231 -1.28352e-20)
(0.666754 0.619438 -4.24691e-20)
(0.631342 0.656291 -1.42492e-19)
(0.59218 0.695904 6.1862e-20)
(0.548778 0.738321 -9.68284e-20)
(0.498379 0.779892 1.65184e-19)
(0.431861 0.798198 1.68473e-21)
(0.328751 0.716312 2.80771e-19)
(0.147617 0.382884 2.18649e-19)
(0.810641 0.62385 5.0571e-21)
(0.787112 0.660449 -5.38109e-20)
(0.760842 0.699577 1.69324e-19)
(0.731047 0.741745 8.75882e-20)
(0.697915 0.787216 1.81263e-19)
(0.660965 0.835971 8.40059e-20)
(0.616729 0.883698 3.69118e-19)
(0.552348 0.904514 1.84233e-19)
(0.435911 0.810499 1.69274e-19)
(0.204106 0.431248 1.90985e-19)
(0.906958 0.682059 -9.31948e-20)
(0.887428 0.723037 2.58815e-19)
(0.867048 0.766097 1.45494e-19)
(0.843914 0.812447 -1.4149e-19)
(0.817793 0.862608 -8.04959e-20)
(0.7882 0.916517 4.33979e-19)
(0.750859 0.969238 -9.5992e-20)
(0.688667 0.991796 -2.86917e-19)
(0.55675 0.886876 -4.31332e-20)
(0.267153 0.469292 2.17522e-19)
(1.00791 0.727139 1.51922e-19)
(0.9922 0.770987 5.31399e-20)
(0.978364 0.816498 -5.17527e-19)
(0.963154 0.865872 4.02053e-20)
(0.945605 0.919699 3.02118e-19)
(0.924965 0.977659 -2.38114e-19)
(0.895861 1.03414 -4.9095e-20)
(0.836352 1.0575 -1.30755e-19)
(0.687335 0.943015 1.47756e-20)
(0.334498 0.495754 -2.76746e-19)
(1.12166 0.751779 2.30305e-20)
(1.11252 0.798642 -3.49122e-19)
(1.106 0.845686 -2.64652e-21)
(1.09804 0.896985 2.80069e-19)
(1.08787 0.95367 -2.73761e-19)
(1.07507 1.01507 5.7795e-19)
(1.05329 1.07482 4.32658e-19)
(0.995262 1.0991 -7.3534e-19)
(0.826462 0.977712 -5.60798e-20)
(0.405006 0.510536 -3.06789e-19)
(1.20505 0.765307 -1.90835e-19)
(1.20755 0.813787 -1.94273e-19)
(1.21706 0.862355 2.25854e-19)
(1.22404 0.914758 4.75151e-19)
(1.22696 0.97224 1.98426e-19)
(1.22598 1.03442 -4.88845e-19)
(1.21398 1.09476 2.32972e-20)
(1.15834 1.11801 1.63985e-19)
(0.968766 0.990923 -2.60699e-19)
(0.476129 0.513477 -2.25117e-19)
(0.727886 0.0233204 1.61384e-20)
(1.19282 0.0372977 -2.07091e-20)
(0.914476 0.0425611 -5.83731e-21)
(1.01307 0.045922 0)
(0.989267 0.0533862 2.06778e-20)
(0.969139 0.063933 2.47899e-20)
(0.944022 0.0780599 3.15021e-20)
(0.896201 0.0963512 6.37869e-20)
(0.831114 0.121692 -9.32807e-20)
(0.659771 0.155639 -1.04137e-19)
(0.727514 0.0209774 3.86816e-20)
(1.19303 0.0374212 -7.05729e-20)
(0.915133 0.0450275 -1.17255e-21)
(1.01487 0.0476116 -1.04699e-20)
(0.991913 0.0569354 1.00894e-20)
(0.972907 0.0698871 -1.29017e-20)
(0.949014 0.0883266 -7.92357e-20)
(0.903579 0.11387 0)
(0.840245 0.15678 2.03102e-19)
(0.680416 0.218429 -2.46633e-19)
(0.72694 0.0186779 -5.60764e-20)
(1.19339 0.0374028 1.92629e-20)
(0.91567 0.0472598 3.09455e-20)
(1.01707 0.0491019 1.68172e-20)
(0.994928 0.0603066 -2.42732e-20)
(0.977344 0.0756888 1.58412e-22)
(0.955102 0.0984291 -5.65527e-20)
(0.91362 0.131276 -5.03091e-21)
(0.853138 0.191193 2.85412e-22)
(0.713656 0.279279 6.19429e-19)
(0.72616 0.0165506 -9.59951e-21)
(1.19386 0.0372432 4.56186e-21)
(0.9161 0.0492043 2.73367e-20)
(1.01967 0.0503827 1.42986e-20)
(0.998322 0.0634794 -1.22711e-20)
(0.98245 0.0812934 -1.49643e-20)
(0.962341 0.10828 8.48106e-20)
(0.926215 0.148433 -1.50162e-21)
(0.869978 0.224639 -2.52519e-19)
(0.758804 0.336931 6.54834e-20)
(0.725161 0.014672 8.691e-21)
(1.19437 0.0369246 -4.00801e-20)
(0.916446 0.0508039 -2.14403e-20)
(1.02269 0.0514499 5.92294e-21)
(1.0021 0.0664353 0)
(0.988225 0.0866608 0)
(0.970793 0.117813 7.24757e-20)
(0.941255 0.165203 2.6665e-22)
(0.890949 0.256854 -1.23053e-19)
(0.814987 0.390273 9.01802e-20)
(0.72393 0.0131219 -1.28138e-21)
(1.19483 0.036418 3.42056e-20)
(0.916736 0.0520004 -4.44421e-20)
(1.02615 0.0523082 -3.42417e-20)
(1.00624 0.0691561 -5.42746e-22)
(0.994668 0.0917567 6.08971e-20)
(0.980513 0.126988 1.13262e-19)
(0.95862 0.181426 -7.85334e-22)
(0.916287 0.28721 2.0444e-19)
(0.881171 0.438931 -1.9652e-19)
(0.722449 0.0119949 -2.50181e-20)
(1.19514 0.0356811 1.76141e-20)
(0.917014 0.0527356 -5.61907e-21)
(1.03006 0.0529727 -5.58204e-20)
(1.01075 0.0716217 1.49296e-21)
(1.00178 0.0965523 -1.11812e-21)
(0.991534 0.135773 -6.77817e-21)
(0.97811 0.196998 -1.98967e-19)
(0.946386 0.314429 1.54143e-19)
(0.955536 0.482133 -4.58258e-19)
(0.720691 0.0113823 1.06127e-20)
(1.19521 0.0346445 -5.29382e-20)
(0.917334 0.0529526 1.69712e-20)
(1.03444 0.0534682 4.45445e-20)
(1.0156 0.0738013 7.00254e-22)
(1.00957 0.101007 -7.09341e-20)
(1.00388 0.144077 -6.22129e-20)
(0.999472 0.211962 3.58147e-19)
(0.98173 0.338394 1.09048e-20)
(1.03628 0.52339 7.39204e-19)
(0.718626 0.011407 -3.14781e-21)
(1.195 0.0332332 2.35765e-20)
(0.917774 0.0525773 3.6229e-21)
(1.03927 0.0538146 -4.66505e-20)
(1.02073 0.0756381 -7.79348e-20)
(1.01796 0.104996 1.54734e-21)
(1.01747 0.151411 -8.56302e-20)
(1.02265 0.224595 4.65299e-19)
(1.02441 0.353104 -7.02653e-21)
(1.12005 0.548113 -1.00833e-18)
(0.716288 0.01227 6.92195e-21)
(1.19514 0.0316644 3.52754e-20)
(0.918246 0.0515638 1.25796e-20)
(1.04453 0.0540435 -1.03094e-19)
(1.02577 0.0772716 -7.28924e-20)
(1.02586 0.109201 -6.00203e-20)
(1.02935 0.160213 -1.53467e-19)
(1.04081 0.241807 -4.36143e-19)
(1.06045 0.378773 -2.52013e-19)
(1.1994 0.601402 -1.11007e-18)
(0.716059 0.0124283 -1.94335e-20)
(1.1974 0.0293056 -7.25035e-21)
(0.920009 0.0488274 -1.05038e-20)
(1.05048 0.053363 3.21372e-21)
(1.0346 0.0764764 5.22166e-20)
(1.04022 0.109091 -4.14386e-20)
(1.05283 0.16019 1.37869e-19)
(1.07931 0.239555 -4.32818e-19)
(1.1253 0.36178 -1.81215e-19)
(1.24793 0.580632 5.94016e-19)
(0.716538 0.0103174 1.55017e-20)
(1.20124 0.0263515 1.33083e-20)
(0.924231 0.043919 3.02684e-21)
(1.05573 0.0508617 4.09074e-20)
(1.04477 0.0726772 8.07554e-20)
(1.05559 0.104186 1.207e-19)
(1.07643 0.152181 2.89586e-20)
(1.11594 0.224555 2.2839e-19)
(1.17615 0.329172 2.9503e-19)
(1.32025 0.500138 -9.94632e-21)
(0.716769 0.00760312 -1.95462e-20)
(1.20526 0.0229566 -4.45016e-21)
(0.928703 0.0388603 -8.24735e-21)
(1.0611 0.0471607 1.91828e-20)
(1.05452 0.0674782 2.21817e-34)
(1.07003 0.096904 -8.33903e-21)
(1.09784 0.140534 -5.4639e-34)
(1.14737 0.204379 1.93729e-20)
(1.21564 0.289666 -5.38122e-20)
(1.37318 0.425875 -4.59185e-20)
(0.717056 0.00403918 3.53918e-20)
(1.20918 0.0189093 -4.74529e-35)
(0.933116 0.0335137 7.96331e-21)
(1.06634 0.0424127 -1.62879e-20)
(1.0635 0.0609437 -3.18671e-20)
(1.0831 0.087565 -4.01353e-20)
(1.11669 0.126037 -6.78659e-34)
(1.17349 0.180893 -9.8537e-20)
(1.24717 0.248562 -1.3467e-19)
(1.40798 0.354512 8.49499e-20)
(0.717474 -0.000427212 0)
(1.21317 0.0142738 5.92434e-36)
(0.937395 0.0279019 0)
(1.07127 0.0367968 0)
(1.07153 0.0532253 0)
(1.09455 0.0764832 0)
(1.13281 0.109296 -4.05892e-34)
(1.1946 0.155007 0)
(1.27204 0.20731 -2.05761e-20)
(1.42878 0.287674 5.16973e-20)
(0.718075 -0.00581727 2.12423e-20)
(1.2174 0.00914493 -3.29691e-21)
(0.941512 0.0221282 7.26854e-21)
(1.07573 0.0305014 0)
(1.07846 0.0445133 0)
(1.10423 0.063991 7.06425e-21)
(1.14612 0.0908647 2.82195e-20)
(1.21117 0.127507 -1.43832e-20)
(1.29109 0.166741 -3.05046e-20)
(1.44043 0.225415 1.94873e-19)
(0.718942 -0.0127605 -5.21776e-20)
(1.22208 0.00354931 4.80909e-21)
(0.945446 0.0163524 6.88357e-21)
(1.07957 0.0237243 -5.09577e-21)
(1.08414 0.0350104 -1.06996e-20)
(1.11201 0.050403 -8.53027e-21)
(1.15662 0.0711991 -2.10935e-20)
(1.22367 0.099013 -4.02121e-20)
(1.30504 0.127177 -5.4087e-20)
(1.44646 0.167658 8.12139e-20)
(0.720121 -0.018731 -2.97566e-20)
(1.22749 -0.00221031 -1.5578e-20)
(0.949037 0.0109505 6.31403e-21)
(1.08247 0.0166541 -1.40978e-20)
(1.08832 0.0249002 6.73386e-35)
(1.11769 0.0359895 7.61926e-21)
(1.1642 0.0506252 -9.78746e-34)
(1.23243 0.0698592 -1.45552e-20)
(1.31445 0.0884193 1.91538e-20)
(1.44919 0.113144 2.59039e-20)
(0.719431 -0.0349278 1.77356e-19)
(1.2255 -0.00872103 -1.09457e-20)
(0.945614 0.00469131 6.16215e-21)
(1.07775 0.0102817 2.54214e-21)
(1.08436 0.0149932 3.25341e-21)
(1.11472 0.021888 1.38972e-20)
(1.16246 0.0306935 7.82481e-21)
(1.23137 0.0421241 -5.45568e-21)
(1.31333 0.052622 -2.22641e-20)
(1.44417 0.0652277 1.3748e-19)
(0.664231 -0.0245197 2.53698e-20)
(1.0627 -0.0105881 -7.41228e-35)
(0.79685 0.00293787 5.41245e-21)
(0.921345 0.0012681 0)
(0.923357 0.0031088 0)
(0.950539 0.00458552 7.85478e-21)
(0.993217 0.00638814 -9.35793e-36)
(1.05397 0.00888114 -1.44506e-20)
(1.12672 0.0108872 -2.80553e-20)
(1.23519 0.0128047 5.66278e-20)
(1.43935 0.617991 -1.73068e-19)
(1.52836 0.61262 -2.77392e-19)
(1.62403 0.597332 0)
(1.71285 0.561906 9.77846e-20)
(1.79383 0.505482 4.73477e-19)
(1.86818 0.432961 -1.36217e-19)
(1.93378 0.34961 1.39843e-18)
(1.98708 0.259014 -5.95896e-20)
(2.02553 0.163314 -3.47115e-19)
(2.04749 0.0648562 3.10246e-19)
(1.47894 0.508891 6.61047e-20)
(1.54363 0.5029 1.10105e-19)
(1.62202 0.480996 -4.38266e-21)
(1.6994 0.442109 1.64515e-19)
(1.76828 0.391044 -1.45657e-19)
(1.82853 0.331706 -3.69096e-19)
(1.87974 0.266456 -8.68892e-20)
(1.92033 0.196809 5.16648e-19)
(1.94922 0.124006 -1.95129e-20)
(1.96556 0.0491479 -4.34562e-19)