# Selection   : all
# Cells       : 1800
# Volume      : 7.372328e+01
# Time        	min(p)
2.45          	-3.860757e+00
2.475         	-3.321964e+00
2.5           	-3.240662e+00
