/*--------------------------------*- C++ -*----------------------------------*\
  =========                 |
  \\      /  F ield         | OpenFOAM: The Open Source CFD Toolbox
   \\    /   O peration     | Website:  https://openfoam.org
    \\  /    A nd           | Version:  13
     \\/     M anipulation  |
\*---------------------------------------------------------------------------*/
FoamFile
{
    format      ascii;
    class       volScalarField;
    location    "0.605";
    object      p;
}
// * * * * * * * * * * * * * * * * * * * * * * * * * * * * * * * * * * * * * //

dimensions      [0 2 -2 0 0 0 0];

internalField   nonuniform List<scalar> 
440
(
7.83082
10.5872
12.9499
13.1322
10.1572
20.7226
24.1059
27.1013
27.802
25.9145
41.2597
44.291
46.9941
47.7868
46.626
67.3928
69.4906
71.404
72.0607
71.3733
96.6693
97.4863
98.2833
98.6834
98.6498
-0.442682
-0.541976
-0.0699507
0.490525
0.832596
-1.68271
-2.34651
-2.08395
-1.38698
-0.749069
-2.03087
-2.91148
-2.83148
-2.07506
-0.956861
-0.68434
-0.816546
-0.410426
0.554657
2.42009
3.08457
4.3961
5.82573
7.25784
9.50816
2.09222
2.27473
1.35032
0.688499
0.235583
1.06179
2.0833
1.22889
0.630181
0.22309
-0.0905946
1.6708
1.09444
0.584171
0.214399
-0.398365
1.06775
0.884435
0.544014
0.207865
1.51097
0.480694
0.59913
0.494524
0.201258
4.38294
0.252978
0.334304
0.435971
0.17634
6.72509
0.71252
0.432866
0.429797
0.11149
9.98847
2.45231
1.08286
0.555938
0.07622
13.8784
4.75623
2.13521
0.827294
0.0788717
16.6147
7.1192
3.45749
1.30407
0.172939
100.694
75.8453
53.3297
33.1551
12.3524
102.389
78.9476
57.5425
39.0625
23.4886
104.29
82.7074
62.4802
45.2398
32.893
105.173
85.0267
66.5086
51.1897
40.6633
105.092
84.7492
66.3345
51.2572
40.9029
219.874
216.394
216.101
218.217
220.95
202.694
200.228
200.487
203.228
206.52
180.546
178.773
179.137
181.559
184.438
154.747
153.404
153.609
155.203
157.1
126.866
126.153
126.092
126.552
127.145
235.583
236.013
236.652
237.079
236.824
236.157
236.794
237.351
237.33
236.378
234.95
235.926
236.342
236.07
235.082
230.064
231.663
232.227
232.364
232.272
221.577
223.441
224.453
225.662
227.017
235.736
234.725
234.9
234.122
234.27
235.704
234.71
234.846
234.079
234.799
235.694
234.67
234.786
234.195
235.32
235.695
234.607
234.78
234.45
234.909
235.698
234.524
234.852
234.649
232.22
235.709
234.383
234.903
234.426
228.728
235.897
234.244
234.791
233.936
226.36
236.796
234.013
234.158
232.249
223.339
240.836
233.994
232.977
229.786
219.664
249.805
234.719
231.757
227.24
216.912
217.766
196.239
175.032
151.738
126.452
207.371
191.375
172.33
150.427
126.657
198.883
186.203
168.62
148.093
126.339
191.748
180.789
165.104
146.267
125.925
191.53
180.769
165.359
146.666
126.156
96.3991
95.5223
95.0746
94.3077
94.1511
57.3185
55.3716
53.6662
51.7445
50.9785
29.4887
27.1454
24.3827
22.0836
20.7592
15.037
12.6205
10.155
8.13479
7.16431
9.20787
7.32018
5.93319
4.95763
4.37052
5.97846
4.87628
4.29611
4.20708
4.29526
4.07176
3.61181
3.53898
3.69414
3.84759
2.766
2.75109
2.98383
3.28677
3.44505
1.66496
1.96905
2.4198
2.77031
2.91508
0.618572
1.01564
1.58801
1.98963
2.16362
3.61698
3.18513
2.0735
0.970871
0.281835
3.67079
3.01429
1.9813
0.914878
0.270434
3.47281
2.75365
1.85255
0.863796
0.260963
3.15341
2.51117
1.69044
0.809872
0.252584
2.73694
2.36419
1.5092
0.751563
0.245101
4.48485
3.16925
1.98707
1.01252
0.314497
3.74782
3.26297
2.07607
1.00663
0.295545
94.9066
54.1486
27.5116
14.4883
9.46834
93.6854
51.1392
22.9884
9.47297
5.26271
232.142
232.224
232.173
231.658
230.58
232.731
232.904
233.134
233.172
232.797
233.293
233.466
233.852
234.25
234.421
233.891
234.043
234.446
235.048
235.467
234.634
234.87
235.374
235.987
236.245
141.982
141.79
140.962
140.452
139.54
185.216
184.407
182.428
180.661
178.684
215.514
214.144
211.795
208.98
206.606
229.15
228.143
226.092
223.595
221.149
231.998
231.383
230.412
229.029
227.13
238.818
234.445
234.544
233.509
232.897
237.117
234.486
234.632
233.678
232.916
236.353
234.574
234.736
233.902
233.245
235.986
234.656
234.838
234.101
233.622
235.811
234.709
234.903
234.179
233.935
252.258
235.783
234.899
233.445
231.981
243.165
234.691
234.481
233.388
232.7
226.936
221.862
208.754
182.038
141.232
231.133
226.89
213.308
185.062
142.455
)
;

boundaryField
{
    left
    {
        type            zeroGradient;
    }
    right
    {
        type            fixedValue;
        value           uniform 0;
    }
    down
    {
        type            zeroGradient;
    }
    up
    {
        type            zeroGradient;
    }
    cylinder
    {
        type            zeroGradient;
    }
    defaultFaces
    {
        type            empty;
    }
}


// ************************************************************************* //
