/*--------------------------------*- C++ -*----------------------------------*\
  =========                 |
  \\      /  F ield         | OpenFOAM: The Open Source CFD Toolbox
   \\    /   O peration     | Website:  https://openfoam.org
    \\  /    A nd           | Version:  13
     \\/     M anipulation  |
\*---------------------------------------------------------------------------*/
FoamFile
{
    format      ascii;
    class       volVectorField;
    location    "4.67";
    object      U;
}
// * * * * * * * * * * * * * * * * * * * * * * * * * * * * * * * * * * * * * //

dimensions      [0 1 -1 0 0 0 0];

internalField   nonuniform List<vector> 
440
(
(-0.0702841 0.048029 -7.12337e-20)
(-0.108565 0.0660472 2.80456e-20)
(-0.018035 0.0867442 1.2719e-19)
(0.385436 0.100678 2.24609e-19)
(0.299097 0.295249 1.85854e-20)
(-0.100075 0.062034 3.84874e-20)
(0.00914782 0.019429 -1.14381e-19)
(0.448512 -0.006391 -1.08215e-19)
(1.00959 -0.0291097 8.25876e-20)
(1.43334 -0.0312391 2.59051e-20)
(-0.0377324 0.0229415 5.20967e-20)
(0.449079 -0.029906 6.48313e-19)
(1.2103 -0.000117801 -2.94126e-19)
(1.77242 0.0374642 -9.39464e-19)
(2.3094 0.0582046 3.06495e-19)
(0.177416 -0.0311574 -1.73032e-19)
(1.15391 0.00246733 -4.59553e-19)
(1.89449 0.0808723 1.43948e-18)
(2.33037 0.112388 1.4756e-18)
(2.41099 0.119795 -4.23197e-19)
(0.53415 0.00413157 -2.74056e-19)
(1.66743 0.167535 -5.44439e-19)
(2.185 0.246194 1.59773e-18)
(2.30597 0.252984 1.72679e-18)
(2.39496 0.229165 5.82737e-19)
(-0.0187885 -0.0734527 -1.20243e-19)
(-0.138796 -0.0222912 1.66083e-19)
(-0.253237 0.0473026 -2.84851e-19)
(-0.343658 0.116259 6.35477e-20)
(-0.41393 0.183204 5.2668e-19)
(-0.0406998 0.0986445 -2.75691e-20)
(-0.174718 0.205654 -1.38955e-19)
(-0.290104 0.219105 -3.86879e-20)
(-0.372826 0.240173 -2.77112e-20)
(-0.435592 0.28484 3.64039e-20)
(-0.0611254 0.173006 8.88323e-21)
(-0.158525 0.409772 2.27232e-20)
(-0.214068 0.46853 3.09709e-20)
(-0.239259 0.436932 -2.06791e-19)
(-0.263735 0.404649 6.11354e-21)
(-0.0317248 0.0806492 -2.1966e-20)
(-0.104339 0.310222 3.25945e-20)
(-0.124752 0.461207 3.96838e-20)
(-0.131469 0.542381 -1.30365e-19)
(-0.133805 0.564397 3.01235e-20)
(-0.0232686 0.0238222 -5.13154e-20)
(-0.113062 0.12821 -7.63445e-20)
(-0.161669 0.287082 -1.74621e-19)
(-0.142278 0.387666 1.33075e-19)
(-0.082941 0.551848 5.24929e-20)
(-0.623946 0.529785 1.37588e-19)
(-0.231667 0.347575 6.70556e-19)
(0.548478 -0.346572 2.23419e-19)
(0.812373 -0.537979 -1.81315e-19)
(0.968704 -0.348186 1.55506e-20)
(-0.68619 0.504505 -3.00379e-19)
(0.256623 0.136025 -1.47353e-19)
(0.892736 -0.465038 1.1825e-19)
(1.23971 -0.584498 3.28944e-19)
(1.18859 -0.354817 2.51818e-20)
(-0.407128 0.355676 -1.36693e-19)
(0.727824 -0.080087 9.95598e-19)
(1.10355 -0.601318 -9.24738e-20)
(1.45406 -0.634844 2.28814e-19)
(1.36348 -0.352572 5.09485e-21)
(-0.128805 0.328126 3.90051e-19)
(1.35756 -0.191563 -7.07349e-20)
(1.50962 -0.657022 9.02883e-20)
(1.57958 -0.664676 -1.42816e-19)
(1.44084 -0.353989 9.35085e-20)
(0.0915923 0.131644 -1.14092e-19)
(1.81743 -0.366181 -1.2226e-19)
(2.00409 -0.650879 0)
(1.79953 -0.628242 2.19921e-20)
(1.48453 -0.335381 3.13028e-20)
(1.39544 0.0429481 -2.52185e-19)
(2.27917 -0.477456 -6.55025e-20)
(2.39589 -0.608777 -2.32392e-20)
(2.04249 -0.519206 8.57437e-20)
(1.51758 -0.278127 -1.1826e-19)
(2.22681 0.0427543 -1.45467e-20)
(2.5333 -0.567086 9.05219e-19)
(2.3459 -0.621923 -1.67395e-20)
(1.93803 -0.347969 -1.49435e-19)
(1.35708 -0.142823 0)
(2.42779 -0.0511715 -1.97434e-19)
(2.39277 -0.451619 -4.16661e-21)
(1.8853 -0.413004 1.18402e-19)
(1.70797 -0.176758 5.65106e-20)
(1.31369 -0.0699143 -6.2627e-20)
(2.30518 -0.0582429 9.35985e-20)
(2.20066 -0.338007 2.32222e-19)
(1.52523 -0.36131 -1.47836e-20)
(1.12079 -0.106707 -5.56785e-34)
(0.88409 0.0011348 5.79705e-20)
(1.57024 -0.0697218 9.30828e-20)
(1.09474 -0.0815679 8.5463e-20)
(0.385247 0.0111334 -4.1539e-20)
(0.170968 0.0371192 -1.98897e-20)
(0.214141 0.0122682 1.78151e-20)
(2.35065 0.261447 -7.28015e-19)
(2.53838 0.0377126 -8.4178e-19)
(2.40666 0.130007 4.88909e-19)
(2.60488 -0.0383515 8.73375e-20)
(1.98397 0.131901 3.58886e-21)
(2.10575 0.150466 7.5937e-20)
(2.38835 0.0197254 -3.29903e-20)
(2.24206 0.0128466 -1.12029e-19)
(2.45342 -0.0464434 -1.6115e-19)
(2.32312 -0.136378 -4.38026e-21)
(2.13522 0.0425857 8.03574e-20)
(2.28665 0.0172449 6.45734e-20)
(2.24015 -0.0501975 -6.86481e-20)
(2.33149 -0.0363713 3.03501e-20)
(2.31203 -0.129267 -1.66929e-20)
(2.10251 -0.0224837 1.1033e-19)
(2.16266 -0.012746 1.62393e-19)
(2.17206 -0.0666814 -1.79135e-20)
(2.2078 -0.04184 -9.02612e-20)
(2.24719 -0.102001 3.38403e-20)
(1.52613 -0.0140426 1.84856e-19)
(1.5272 -0.0173655 -1.07664e-20)
(1.51412 -0.0190014 1.42708e-20)
(1.52256 -0.0237034 -3.88624e-20)
(1.52226 -0.0245933 -3.17472e-20)
(1.51655 0.863691 1.13708e-18)
(1.47651 0.946083 -3.73907e-19)
(1.47346 1.05905 -1.29757e-18)
(1.39483 1.0818 6.70484e-19)
(0.834979 0.746491 -1.52478e-19)
(1.7567 0.812799 -5.53941e-19)
(1.73526 0.877252 -2.92868e-18)
(1.74649 0.970152 -1.09878e-18)
(1.64494 0.956835 -3.63996e-19)
(0.97414 0.638087 -5.77712e-19)
(2.07455 0.673474 7.38732e-19)
(2.03509 0.725548 1.80725e-19)
(1.99731 0.800809 -2.12005e-18)
(1.85495 0.774883 -5.61041e-19)
(1.05914 0.492289 4.02353e-19)
(2.207 0.541929 2.13337e-18)
(2.1898 0.584698 1.5064e-18)
(2.1764 0.628972 -1.69619e-18)
(1.94739 0.57548 -1.27402e-18)
(1.03307 0.324814 -2.29053e-19)
(2.38298 0.379885 9.79542e-19)
(2.35898 0.395533 -6.97178e-19)
(2.23719 0.421531 5.0107e-19)
(1.90789 0.361192 3.82156e-19)
(0.876256 0.147425 -3.29258e-19)
(0.587439 0.486027 -6.37031e-19)
(0.493904 0.523483 -4.91036e-19)
(0.373481 0.559596 5.53693e-20)
(0.232334 0.555939 -5.82642e-21)
(0.057047 0.39032 8.19955e-20)
(0.683041 0.654139 1.11193e-19)
(0.616518 0.70748 -2.82579e-19)
(0.526339 0.771543 1.84588e-19)
(0.401837 0.82863 -8.58917e-20)
(0.176194 0.626342 1.21464e-19)
(0.759602 0.864712 9.44341e-20)
(0.682152 0.946587 4.88591e-19)
(0.625989 1.03764 1.18558e-19)
(0.547288 1.06033 -3.04807e-19)
(0.301108 0.763029 2.51444e-19)
(1.07001 0.93907 2.27924e-19)
(1.01031 1.0076 -6.9386e-19)
(0.94513 1.08997 -1.88293e-18)
(0.854885 1.13952 7.3771e-19)
(0.496967 0.825992 -1.61864e-19)
(1.08522 1.00371 -9.70454e-20)
(1.13239 1.11461 -1.70169e-19)
(1.15474 1.20528 -3.47449e-19)
(1.09099 1.19414 -3.82241e-19)
(0.658883 0.824146 -6.10042e-21)
(0.993262 0.0366601 -9.17864e-20)
(1.04261 0.023403 -2.77926e-20)
(1.02994 0.129057 -3.35574e-21)
(0.968553 0.108052 -1.63517e-19)
(0.922596 0.296015 2.88468e-19)
(0.984923 0.0317974 5.71933e-20)
(1.06288 0.0225553 8.87684e-20)
(1.00412 0.137422 1.18017e-19)
(1.01036 0.124398 1.86072e-20)
(0.953141 0.395912 -1.91264e-20)
(0.994321 0.0294373 7.72399e-20)
(1.04373 0.0148865 -3.61046e-21)
(1.04524 0.160117 3.40894e-21)
(0.967122 0.124766 1.48207e-19)
(1.17921 0.536199 -4.92794e-19)
(0.993187 0.0268972 6.11493e-23)
(1.05544 0.00842354 -1.31071e-19)
(1.02924 0.175461 -5.46577e-20)
(1.08249 0.0995457 -3.54735e-19)
(1.1723 0.627003 9.46522e-20)
(0.997589 0.0214135 -1.22572e-20)
(1.0433 0.0104964 3.73005e-20)
(1.07367 0.166334 2.37946e-20)
(1.05197 0.152544 4.17265e-19)
(1.33345 0.761229 -4.68704e-19)
(0.983972 0.0221722 -1.28035e-20)
(1.07553 -0.00860579 7.67242e-20)
(1.04478 0.197097 -4.76421e-20)
(1.30873 0.0486455 1.00222e-18)
(1.31588 0.809841 -3.29805e-19)
(0.970924 -5.70751e-05 -7.16724e-22)
(1.1123 -0.00378163 -6.65013e-20)
(1.017 0.10086 4.22173e-21)
(1.43799 0.0459509 -2.74384e-19)
(1.1059 0.65045 -8.96429e-20)
(0.989023 -0.0079625 -4.68614e-22)
(1.10015 -0.0067997 1.26613e-35)
(1.0897 0.0498793 3.50256e-22)
(1.30462 0.050609 8.01852e-20)
(1.11784 0.509667 1.7217e-19)
(1.0301 -0.0427977 2.47864e-21)
(1.02021 -0.0242922 -2.25596e-20)
(1.16797 -0.00267954 1.61438e-20)
(1.0401 0.0589229 1.82137e-20)
(1.44709 0.330158 -2.67091e-19)
(0.947773 -0.0221578 -3.52915e-20)
(0.83717 -0.0243394 6.74336e-23)
(0.886997 -0.00341028 1.43272e-20)
(0.700422 0.0106453 -2.3248e-20)
(1.24307 0.0789925 -6.26582e-20)
(1.7848 0.674009 2.94386e-19)
(1.84736 0.688648 7.75405e-19)
(2.12942 0.541497 -1.03733e-18)
(2.16311 0.497366 2.42288e-20)
(2.3984 0.27423 4.27386e-19)
(1.6679 0.438539 8.1016e-20)
(1.65226 0.449264 9.14378e-19)
(1.96428 0.334858 1.12151e-19)
(1.90252 0.305091 -8.62685e-19)
(2.23183 0.151914 -2.62974e-19)
(1.63824 0.294268 -2.17105e-19)
(1.75305 0.2698 -1.44661e-19)
(1.95297 0.205125 1.43232e-19)
(1.97958 0.154506 -2.63472e-19)
(2.16496 0.0984043 2.53532e-19)
(1.79089 0.161563 4.46714e-19)
(1.90822 0.124344 -4.51458e-21)
(1.99735 0.0790171 2.04803e-19)
(2.02759 0.0361597 1.8521e-19)
(2.09892 0.0215415 -1.88242e-19)
(1.465 0.0275707 -5.80732e-20)
(1.54766 0.0135548 2.67805e-19)
(1.55345 0.000741929 1.02563e-19)
(1.55095 -0.00443794 -2.14025e-19)
(1.53885 -0.00881109 1.76364e-23)
(1.22099 -0.0328595 7.24146e-20)
(2.27964 -0.0343188 -4.77251e-19)
(2.51627 -0.0403662 1.2915e-18)
(2.49894 0.00289307 5.87857e-19)
(2.35189 0.0256464 -4.1328e-19)
(0.793948 0.0914453 1.38009e-19)
(2.03877 0.121173 -5.15314e-19)
(2.48046 0.113492 -7.07896e-19)
(2.52037 0.119311 9.34771e-19)
(2.28771 0.108309 -6.38753e-19)
(0.286197 0.0906527 -2.61603e-20)
(1.44093 0.208799 5.67886e-19)
(2.15517 0.226009 8.29611e-20)
(2.50676 0.225524 6.27259e-19)
(2.61503 0.199977 2.33214e-19)
(0.0100794 -0.00444102 2.42004e-19)
(0.603684 0.139701 2.1895e-19)
(1.42994 0.210312 -4.06504e-19)
(1.91153 0.226747 2.4368e-20)
(2.4382 0.271341 1.52298e-19)
(-0.0750907 -0.0791697 1.38112e-19)
(0.0474556 -0.0321568 -1.4055e-19)
(0.56832 0.0538669 -1.63538e-21)
(1.09504 0.13889 6.37929e-20)
(1.55425 0.229135 3.12764e-20)
(-0.078589 -0.103648 4.35558e-21)
(-0.116533 -0.14854 6.53045e-20)
(0.0525554 -0.100063 3.05492e-20)
(0.37322 0.0324294 -1.57175e-19)
(0.78152 0.154516 8.35954e-21)
(-0.0575866 -0.0979181 -3.21262e-20)
(-0.102855 -0.191165 -4.94672e-20)
(-0.0705946 -0.18884 1.02822e-21)
(0.0668254 -0.108565 -1.20992e-20)
(0.282508 0.015402 1.11605e-20)
(-0.0516309 -0.169976 -2.69692e-20)
(-0.0668227 -0.322802 -4.90737e-20)
(-0.0427964 -0.352496 9.08442e-20)
(0.0172683 -0.293624 4.54886e-19)
(0.0976402 -0.19522 -1.0455e-19)
(-0.0499482 -0.266118 3.06291e-20)
(-0.0755121 -0.3949 2.40393e-19)
(-0.0877729 -0.366243 -7.08669e-19)
(-0.0863925 -0.277914 -5.99799e-19)
(-0.0785727 -0.170821 1.06807e-19)
(-0.0287451 -0.225055 -1.5637e-20)
(-0.105231 -0.258091 6.16296e-20)
(-0.185337 -0.194635 -2.00849e-20)
(-0.258372 -0.108234 -5.74418e-20)
(-0.309429 -0.0112839 -3.34514e-21)
(1.44291 0.507407 -2.83257e-20)
(1.04417 0.268678 6.05001e-19)
(0.658037 -0.000585107 -9.91902e-20)
(0.606913 -0.089426 -8.02182e-20)
(0.886412 -0.0491133 1.83355e-21)
(1.31008 0.426828 8.56421e-20)
(0.718465 0.335495 1.46998e-19)
(0.240694 0.0542277 -1.14552e-19)
(0.271288 -0.131976 -1.13715e-20)
(0.740783 -0.0967472 -2.88998e-20)
(0.855671 0.287291 1.14429e-19)
(-0.00679896 0.468926 6.0601e-19)
(-0.0245911 0.0726682 6.78876e-20)
(0.150743 -0.239222 -1.12642e-19)
(0.70542 -0.168759 -6.64256e-21)
(0.15447 0.393979 -6.15491e-20)
(-0.663889 0.540002 -1.72057e-18)
(0.00528469 -0.0449908 -3.56329e-19)
(0.199092 -0.344783 7.11182e-21)
(0.735116 -0.242287 2.76982e-20)
(-0.372202 0.504849 -5.72332e-20)
(-0.70714 0.484698 -1.21177e-19)
(0.187143 -0.217267 3.58458e-19)
(0.405617 -0.455339 -5.02241e-20)
(0.81269 -0.309245 5.43874e-20)
(0.512488 0.139032 -7.31108e-20)
(-0.126645 -0.057336 0)
(0.00954033 -0.0890669 -4.70141e-20)
(0.191929 -0.0472249 2.48351e-20)
(0.390205 -0.0204094 9.37205e-21)
(1.95271 0.443156 0)
(1.27183 0.241323 0)
(0.906202 -0.00455185 3.92673e-19)
(0.895484 -0.0708934 3.89606e-20)
(1.01241 -0.0352953 -6.37258e-21)
(0.744197 0.00211381 -1.30892e-19)
(0.816823 -0.000301372 2.89905e-19)
(0.940225 -0.0216583 -1.4244e-20)
(1.06662 0.0367332 2.79144e-19)
(1.31814 0.0810726 1.68156e-19)
(1.71624 0.0210368 1.251e-19)
(1.8754 0.0851467 3.77097e-19)
(1.9494 0.0833197 -1.58349e-19)
(2.48563 0.171265 6.60538e-20)
(2.1743 0.21688 2.25024e-19)
(0.917992 -0.477555 -8.5018e-21)
(0.906704 -0.567314 -1.8726e-19)
(0.89891 -0.666544 -1.32722e-19)
(0.832231 -0.742964 7.93165e-20)
(0.505962 -0.59146 1.38899e-19)
(0.821937 -0.387098 1.1639e-19)
(0.768648 -0.454439 2.08403e-19)
(0.69426 -0.525187 -6.5227e-20)
(0.578511 -0.584849 1.48417e-19)
(0.313071 -0.46814 5.41954e-20)
(0.655145 -0.244602 -1.24947e-19)
(0.567444 -0.285705 -5.75118e-20)
(0.466252 -0.338546 6.08582e-20)
(0.348644 -0.383908 -2.89802e-20)
(0.154726 -0.306181 -1.3139e-19)
(0.563962 -0.00659454 -4.28673e-19)
(0.476844 -0.0221491 -3.5343e-19)
(0.36365 -0.045041 2.89298e-19)
(0.232818 -0.0752624 1.64298e-19)
(0.0641132 -0.0822452 1.3897e-20)
(0.534111 0.201872 -1.49453e-19)
(0.443235 0.20246 -1.59668e-19)
(0.321352 0.202519 -5.79044e-20)
(0.182373 0.20887 2.7718e-20)
(0.0261413 0.155191 1.0665e-20)
(2.03583 -0.0336744 8.48275e-19)
(2.32644 -0.0931004 2.79764e-19)
(2.41338 -0.185933 -7.41822e-19)
(2.27953 -0.207497 -1.59035e-18)
(1.37967 -0.201403 1.35802e-19)
(2.07171 -0.119748 1.4134e-18)
(2.14426 -0.234188 1.89679e-18)
(2.15162 -0.359444 1.60471e-19)
(2.07359 -0.413455 2.82583e-19)
(1.33097 -0.377644 -1.8711e-19)
(1.74407 -0.286801 -3.71986e-18)
(1.81551 -0.407643 3.92602e-19)
(1.86687 -0.539801 1.1511e-18)
(1.81497 -0.613292 -4.32077e-19)
(1.1739 -0.526202 6.98756e-19)
(1.52735 -0.412998 8.67638e-19)
(1.53235 -0.508831 -2.32893e-18)
(1.51646 -0.627315 -2.6622e-18)
(1.46419 -0.71743 8.19932e-19)
(0.949219 -0.601872 5.65449e-19)
(1.22903 -0.466339 1.87386e-19)
(1.19132 -0.564534 2.70951e-19)
(1.19059 -0.692512 -4.02291e-19)
(1.14296 -0.782938 -4.91022e-19)
(0.721396 -0.628533 -4.6109e-21)
(1.01724 0.0395181 7.05376e-21)
(1.01546 0.0607394 -4.48048e-21)
(1.10371 0.0869221 -5.44075e-21)
(0.835941 -0.0103299 -2.51253e-19)
(1.10447 -0.202031 -1.92243e-20)
(1.0308 0.0421831 -2.20799e-21)
(0.986975 0.0521287 4.94082e-20)
(1.11931 0.107563 -3.30374e-20)
(0.914756 0.0302787 2.16026e-19)
(0.9967 -0.0895916 1.93502e-21)
(1.03644 0.0400061 -5.52048e-20)
(0.974158 0.042602 1.07247e-21)
(1.10575 0.10731 -1.33024e-20)
(0.925263 0.0570401 1.13632e-19)
(0.961492 -0.0280195 -2.43431e-19)
(1.02577 0.0407845 6.8143e-20)
(0.99247 0.0337675 1.21991e-21)
(1.07056 0.111048 3.0447e-20)
(0.957105 0.0789754 -6.36715e-20)
(0.879292 0.0845663 6.82166e-20)
(1.00577 0.0382263 1.75955e-20)
(1.02654 0.031655 -1.8963e-20)
(1.03207 0.112055 4.14224e-20)
(0.98067 0.10511 3.05094e-20)
(0.865503 0.188667 -6.96912e-20)
(0.889353 0.0329431 0)
(0.775301 0.0303021 1.13766e-20)
(0.559987 0.0191597 3.34349e-21)
(0.408354 -0.0129891 4.57635e-20)
(0.703607 -0.0470681 -1.70103e-19)
(0.993899 0.0618124 -6.03907e-20)
(1.0423 0.0805347 -2.17357e-20)
(0.975662 0.0797907 -4.43491e-20)
(0.842324 -0.0177812 -1.47188e-19)
(1.02582 -0.189375 -1.78466e-19)
(0.969611 -0.0592879 -3.69561e-20)
(1.05833 -0.0258872 5.62038e-19)
(1.14524 0.040479 3.32105e-19)
(1.01387 0.0559555 3.04497e-20)
(0.765127 0.0306408 0)
(1.31114 -0.314286 3.80051e-19)
(1.43774 -0.281967 1.58408e-18)
(1.62049 -0.156276 -1.73137e-18)
(1.73195 -0.0195872 -5.25267e-19)
(1.59201 0.0324893 3.96313e-19)
)
;

boundaryField
{
    left
    {
        type            fixedValue;
        value           uniform (1 0 0);
    }
    right
    {
        type            zeroGradient;
    }
    down
    {
        type            noSlip;
    }
    up
    {
        type            noSlip;
    }
    cylinder
    {
        type            noSlip;
    }
    defaultFaces
    {
        type            empty;
    }
}


// ************************************************************************* //
