/*--------------------------------*- C++ -*----------------------------------*\
  =========                 |
  \\      /  F ield         | OpenFOAM: The Open Source CFD Toolbox
   \\    /   O peration     | Website:  https://openfoam.org
    \\  /    A nd           | Version:  13
     \\/     M anipulation  |
\*---------------------------------------------------------------------------*/
FoamFile
{
    format      ascii;
    class       surfaceScalarField;
    location    "8.58";
    object      phi;
}
// * * * * * * * * * * * * * * * * * * * * * * * * * * * * * * * * * * * * * //

dimensions      [0 3 -1 0 0 0 0];

internalField   nonuniform List<scalar> 
823
(
-7.23097e-05
0.0145706
-0.0144983
0.0240925
0.00336646
-0.0275313
0.0935332
-0.0463842
-0.0230565
0.199044
-0.116042
0.010531
-0.153369
0.0067841
0.345629
0.00628512
0.0082855
0.0612662
-0.0516146
0.164741
-0.149859
0.283068
-0.234369
-0.307446
0.437145
0.0264809
-0.0181954
0.121217
-0.14635
0.238347
-0.26699
0.347074
-0.343096
-0.384379
0.424007
0.0497745
-0.0679699
0.149753
-0.246329
0.230684
-0.347921
0.275834
-0.388245
-0.399017
0.290471
0.0615382
-0.129508
0.130834
-0.315625
0.167899
-0.384986
0.182356
-0.402702
0.192462
-0.409122
-0.0151708
0.0763145
-0.0611436
-0.0476531
0.118397
-0.0859146
-0.0825133
0.120895
-0.0860348
-0.114348
0.112117
-0.0802827
0.100271
-0.142309
-0.0723092
0.0164777
0.0598367
0.0246269
0.110248
0.0257806
0.119741
0.0263124
0.111586
0.0958369
0.0307461
0.0269483
0.0328885
0.0606774
0.0765185
0.088898
0.0915207
0.112579
0.0879042
0.0761028
0.132313
0.0180773
0.0148112
0.0523245
0.0422713
0.0889621
0.0548832
0.127574
0.0492925
0.0459832
0.157693
0.000312878
0.0150529
0.0468796
0.106703
0.15947
-0.163491
0.238309
-0.217127
0.14832
-1.61026
1.29845
0.359257
-0.859271
0.648334
0.248325
0.941141
-0.830209
0.361411
-0.381349
0.197602
0.0714531
0.357354
-1.77001
0.280699
-0.782616
0.216001
1.00584
0.271237
0.404008
-0.200242
0.544976
-1.91098
0.329722
-0.567362
0.251531
1.08403
0.140096
0.408681
-0.451229
0.499495
-2.00179
0.307385
-0.375252
0.29172
1.09969
-0.046849
0.392425
-0.684183
0.326496
-1.93586
0.13065
-0.179407
0.334882
0.895463
-0.297702
1.32353
-0.758161
-1.24956
0.903767
-1.51609
0.509771
0.214589
0.876923
0.528311
-0.528532
1.40043
-0.707567
-1.45102
0.800853
-0.916519
0.695683
0.319759
1.17386
0.0501369
-0.574617
1.26227
-0.581287
-1.38855
0.773985
-0.428231
0.874545
0.219199
1.22068
-0.295997
-0.456782
1.06381
-0.321617
-1.32348
0.759089
-0.123508
0.951154
0.0271333
0.939609
-0.284452
-0.205132
0.535281
-0.856898
0.411773
0.438906
0.154454
1.13024
0.160724
-1.0985
1.21742
0.203286
1.31689
0.324538
1.36465
0.389384
0.460726
1.03187
0.100297
-0.971442
1.10975
0.125401
1.21248
0.221811
1.32759
0.274271
0.337297
0.982572
0.0469008
-0.929176
1.03751
0.0704593
1.13175
0.127578
1.24969
0.156331
0.198432
0.948297
0.00784652
-0.909243
0.998687
0.0200692
1.08515
0.0411198
1.19106
0.0504208
0.0660061
0.679282
-0.671436
0.699352
0.740471
0.790892
0.139792
0.307861
-0.252479
-0.195175
0.0933122
0.313384
-0.266904
0.0523164
0.324321
-0.283325
0.0180568
0.31543
-0.28117
0.203316
-0.185259
0.100733
0.344516
-0.137388
0.0646428
0.349474
0.032837
0.356127
0.00777671
0.34049
0.211093
0.07162
0.380868
-0.107971
0.0386078
0.382486
0.0105355
0.384199
-0.00522918
0.356255
0.205864
-0.0104082
0.396671
-0.00539474
-0.0270173
0.399095
-0.035092
0.392274
-0.0272045
0.348368
0.178659
-0.0855745
0.073123
-0.0891813
-0.081894
-0.0491512
0.194764
0.112848
-0.248248
-0.0593634
0.141018
0.117397
-0.0636512
0.0869501
0.12222
-0.0681526
0.0351126
0.121834
-0.0699965
0.0861403
-0.0510277
0.196884
0.156061
-0.240097
0.150247
0.164034
0.09772
0.174747
0.041594
0.17796
0.127734
0.134314
0.200934
-0.179187
0.0939461
0.204402
0.0556059
0.213087
0.0198711
0.213695
0.147605
0.155929
0.233221
-0.188216
0.116254
0.244077
0.0715562
0.257785
0.0279706
0.25728
0.175576
0.0819409
-0.101198
0.0591137
0.0335735
0.00968342
0.4057
0.0717063
-0.0814268
0.42208
0.0439988
-0.0603785
0.407665
0.206124
-0.191709
0.396134
0.220126
-0.208596
0.515325
-0.367439
0.40292
0.0647662
0.415141
0.0317771
0.398969
0.222297
0.386342
0.232752
0.66157
0.396639
0.0641072
0.409431
0.0189844
0.378476
0.253253
0.374897
0.236331
0.85728
0.393457
0.0666301
0.395087
0.0173537
0.370826
0.277514
0.356662
0.250496
1.02573
0.385531
0.0770782
0.385898
0.0169873
0.343588
0.319824
0.326386
0.267698
1.25091
0.622287
0.0588121
0.653239
-0.0139648
0.70757
0.265493
0.808099
0.167168
1.04777
1.01124
0.63705
0.0257826
0.654983
-0.0318976
0.752096
0.168379
0.788879
0.130385
0.818892
1.01776
0.644634
-0.0148307
0.665256
-0.0525197
0.745334
0.0883014
0.764195
0.111523
0.570594
1.01249
0.641912
-0.0527227
0.646199
-0.0568059
0.7024
0.0320998
0.758029
0.0558943
0.276064
1.05256
0.551298
0.494492
0.526592
0.582486
0.85855
1.0508
-0.234734
1.03912
-0.125708
1.05038
-0.119227
1.04498
5.84661e-06
0.0195994
0.969206
-0.186183
0.950682
-0.107184
0.935244
-0.103788
0.946983
-0.0117337
-0.00485939
0.94795
-0.121639
0.931157
-0.0903914
0.905652
-0.0782826
0.921533
-0.0276152
-0.0125021
0.986849
-0.05593
0.945703
-0.0492453
0.910037
-0.0426164
0.907501
-0.0250796
-0.0142433
0.80262
0.753375
0.710759
0.685679
0.0472811
0.137014
-0.184296
0.0727266
0.30637
-0.331815
0.0741937
0.361824
-0.363291
0.0641251
0.366328
-0.35626
0.335024
0.0524122
-0.323311
0.0674792
0.0695353
0.139965
0.233884
0.176211
0.325578
0.181481
0.361059
0.35748
0.159024
0.0551901
0.0143453
0.166444
0.122629
0.261823
0.230199
0.331111
0.29177
0.346292
0.342299
0.0256906
-0.0113454
0.118882
0.0294379
0.239454
0.109627
0.358393
0.172832
0.237126
0.467559
0.0048982
-0.0162436
0.0485828
-0.0142467
0.141516
0.0166937
0.257605
0.0567434
0.096507
0.398224
-0.0054754
-0.0107682
0.00124649
-0.0209685
0.0387036
-0.0207634
0.105822
-0.0103748
0.0121493
0.190179
-0.0039204
-0.00684779
-0.00526183
-0.0196271
0.00317578
-0.029201
0.0257724
-0.0329714
-0.0283729
0.0662946
-0.0058519
-0.000995885
-0.0140077
-0.0114713
-0.0246612
-0.0185476
-0.0362628
-0.0213698
-0.0222034
-0.0424323
-0.0240044
0.0230085
-0.0628971
0.0274213
-0.108149
0.0267046
-0.155119
0.0255997
0.0217066
-0.199029
-0.0381351
-0.0966283
-0.155958
-0.210641
-0.261244
0.385866
0.450789
-0.646475
0.529878
0.152653
-0.296665
0.527439
0.133506
-0.131067
0.388363
0.21274
-0.0736642
0.076704
0.00764389
0.283199
0.233885
0.492955
-0.0571026
0.562038
0.0644229
0.406925
0.367854
0.180292
0.0304044
0.161048
0.372383
-0.399081
0.538309
-0.101503
0.381387
0.524775
0.278017
-0.204752
0.166772
0.250745
-0.854579
0.491578
-0.342335
0.335526
0.680827
0.349802
-0.311599
0.132267
0.438266
0.288884
0.153269
0.46246
-0.615729
-0.0219576
0.175227
-0.00585227
-0.0161053
0.0746928
-0.0805451
-0.0686096
0.839062
-1.02308
0.717623
0.57045
0.416241
0.0837328
-0.0152967
-0.0684361
0.134517
-0.0507846
0.245288
-0.11077
0.414246
-0.168959
-0.201482
0.187967
-0.150852
0.296207
0.527735
0.826336
0.1387
-0.129983
0.160069
-0.168786
0.105362
-0.134626
0.167964
0.0675028
-0.140857
0.178716
0.0272324
-0.139939
0.18021
-0.0972682
0.124501
0.175849
-0.0909835
-0.214848
0.132587
-0.0913641
0.0841878
-0.0924583
0.0346563
-0.090408
-0.0626119
0.186825
-0.0423649
-0.235444
0.136661
-0.0411998
0.0849763
-0.0407739
0.0344831
-0.0399148
-0.0281288
0.198944
0.00881527
-0.250125
0.147105
0.0106398
0.0937693
0.0125616
0.0394549
0.0143997
0.0113261
0.203901
-0.254449
0.150889
0.0952985
0.0397016
0.0354519
-0.303361
-0.0554014
0.0126016
-0.33341
-0.00833331
-0.342356
-0.0159627
-0.324186
-0.200258
0.115441
-0.274176
-0.144626
0.0742184
-0.292187
0.0351687
-0.303306
0.0063564
-0.295374
-0.193902
0.132513
-0.236642
-0.170047
0.0934337
-0.253108
0.0542893
-0.264162
0.018882
-0.259966
-0.17502
0.151989
-0.203646
-0.184985
0.110891
-0.21201
0.066997
-0.220268
0.0259551
-0.218924
-0.149065
0.148876
-0.192453
0.10483
0.0632785
0.024564
0.386849
0.110025
-0.100894
0.386193
0.100459
-0.0998033
0.353111
0.164042
-0.130961
0.295259
0.0789495
-0.0210975
-0.17298
0.299454
0.395356
0.110649
0.40052
0.0952956
0.390805
0.173757
0.343498
0.126257
-0.0443305
0.401766
0.104863
0.411233
0.0858284
0.405352
0.179638
0.369137
0.162471
0.0893634
0.406902
0.0939399
0.418715
0.0740153
0.41395
0.184404
0.387941
0.188479
0.22718
0.408493
0.422129
0.414824
0.394708
0.413707
0.0963438
0.327167
0.0865399
0.234744
0.0924234
0.230453
0.00429111
-0.165254
0.395707
0.5055
0.492237
0.4537
0.436893
0.571093
0.317533
0.078174
0.247269
0.0702638
0.164593
0.0826754
0.0955847
0.0690088
0.0271487
0.456814
0.342093
0.254722
0.179104
)
;

boundaryField
{
    left
    {
        type            calculated;
        value           nonuniform List<scalar> 
17
(
-0.60402
-0.60402
-0.60402
-0.60402
-0.60402
-0.39598
-0.39598
-0.39598
-0.39598
-0.39598
-0.39598
-0.39598
-0.39598
-0.39598
-0.39598
-0.510051
-0.510051
)
;
    }
    right
    {
        type            calculated;
        value           nonuniform List<scalar> 
17
(
0.143302
0.355275
0.304015
0.303336
0.283663
0.263742
0.257337
0.268263
0.306175
0.382672
0.478665
0.585735
1.10775
1.21994
1.10284
0.687958
-0.0506773
)
;
    }
    down
    {
        type            calculated;
        value           uniform 0;
    }
    up
    {
        type            calculated;
        value           uniform 0;
    }
    cylinder
    {
        type            calculated;
        value           uniform 0;
    }
    defaultFaces
    {
        type            empty;
    }
}


// ************************************************************************* //
