# Selection   : all
# Cells       : 440
# Volume      : 7.374263e+01
# Time        	maxMag(U)
9.115         	2.762275e+00
9.16          	2.759082e+00
9.21          	2.755088e+00
