# Selection   : all
# Cells       : 440
# Volume      : 7.374263e+01
# Time        	min(p)
3.6           	-1.580470e+00
3.65          	-1.574466e+00
3.7           	-1.554188e+00
