/*--------------------------------*- C++ -*----------------------------------*\
  =========                 |
  \\      /  F ield         | OpenFOAM: The Open Source CFD Toolbox
   \\    /   O peration     | Website:  https://openfoam.org
    \\  /    A nd           | Version:  13
     \\/     M anipulation  |
\*---------------------------------------------------------------------------*/
FoamFile
{
    format      ascii;
    class       surfaceScalarField;
    location    "0.5775";
    object      phi;
}
// * * * * * * * * * * * * * * * * * * * * * * * * * * * * * * * * * * * * * //

dimensions      [0 3 -1 0 0 0 0];

internalField   nonuniform List<scalar> 
3485
(
0.00212215
-0.00449249
0.00237034
0.00866437
-0.0547444
0.0482022
0.0180357
-0.106401
0.0970295
0.0283605
-0.136479
0.126154
0.0386286
-0.147919
0.137651
0.0485117
-0.149446
0.139563
0.0579606
-0.146979
0.13753
0.0669738
-0.143272
0.134259
0.0755137
-0.139232
0.130692
-0.134977
0.126679
0.0838117
0.00259993
-0.00709242
0.00959332
-0.0617378
0.0189865
-0.115794
0.0289743
-0.146467
0.03877
-0.157715
0.0482475
-0.158924
0.0575096
-0.156241
0.0666904
-0.152453
0.0759869
-0.148528
-0.14474
0.0857503
0.00301946
-0.0101119
0.0103221
-0.0690404
0.0194938
-0.124966
0.0287935
-0.155766
0.0376183
-0.16654
0.0459607
-0.167266
0.0539561
-0.164236
0.0617147
-0.160211
0.0693073
-0.156121
-0.152116
0.0766827
0.00345449
-0.0135664
0.0110256
-0.0766115
0.0199317
-0.133872
0.028559
-0.164394
0.0365372
-0.174518
0.0440211
-0.17475
0.0512255
-0.171441
0.0582865
-0.167272
0.0652776
-0.163112
-0.159174
0.0723358
0.00380231
-0.0173687
0.0114554
-0.0842646
0.0198629
-0.142279
0.0275692
-0.1721
0.0344347
-0.181383
0.0407519
-0.181067
0.0467894
-0.177478
0.0526972
-0.17318
0.0585573
-0.168972
-0.165025
0.0644082
0.00409104
-0.0214597
0.011674
-0.0918476
0.0194352
-0.15004
0.0261283
-0.178793
0.0318511
-0.187106
0.0370199
-0.186236
0.0419436
-0.182402
0.0467736
-0.17801
0.0515744
-0.173773
-0.169845
0.0563945
0.00426622
-0.0257259
0.0115676
-0.099149
0.0184791
-0.156952
0.0240062
-0.18432
0.0284736
-0.191574
0.0323984
-0.190161
0.0361155
-0.186119
0.0397752
-0.18167
0.0434371
-0.177435
-0.173536
0.0471278
0.00432011
-0.030046
0.0111316
-0.105961
0.0170173
-0.162838
0.0212785
-0.188581
0.0244389
-0.194734
0.0270868
-0.192809
0.0295633
-0.188596
0.0320069
-0.184113
0.0344668
-0.179895
-0.176029
0.0369601
0.00422774
-0.0342738
0.010334
-0.112067
0.0150324
-0.167536
0.0179545
-0.191503
0.0197718
-0.196551
0.0211217
-0.194159
0.0223376
-0.189812
0.0235435
-0.185319
0.024781
-0.181132
-0.177306
0.0260582
0.00398882
-0.0382626
0.00919393
-0.117272
0.0125922
-0.170934
0.0141301
-0.193041
0.0145903
-0.197011
0.0146423
-0.194211
0.0145974
-0.189767
0.0145636
-0.185286
0.0145707
-0.181139
0.0146208
-0.177356
-0.00076124
0.000372207
0.000389033
0.00230894
-0.007829
0.00475882
0.0104548
-0.0174658
0.00931999
0.0220141
-0.0236862
0.0121269
0.0351425
-0.0264437
0.0133153
0.0487089
-0.0271379
0.0135716
0.0621823
-0.0268836
0.0134102
0.0753609
-0.0262786
0.0131001
0.0881932
-0.0255896
0.0127572
-0.0251064
0.100856
0.0124432
-0.000674597
0.0010468
0.00251777
-0.0110214
0.0107288
-0.0256769
0.0222792
-0.0352366
0.0353435
-0.0395081
0.0488147
-0.0406091
0.0621787
-0.0402477
0.0752437
-0.0393435
0.0879654
-0.0383113
-0.0376629
0.100522
-0.000547571
0.00159437
0.00281928
-0.0143882
0.0111276
-0.0339852
0.0226712
-0.0467802
0.0356513
-0.0524882
0.0489939
-0.0539516
0.0622084
-0.0534622
0.0751162
-0.0522513
0.0876828
-0.0508779
-0.0500669
0.100087
-0.000371794
0.00196617
0.00323449
-0.0179945
0.0116782
-0.0424289
0.0232178
-0.0583198
0.0360913
-0.0653617
0.0492696
-0.06713
0.0622941
-0.0664866
0.0750034
-0.0649606
0.0873742
-0.0632488
-0.0622752
0.0995825
-0.000152396
0.00211856
0.00377463
-0.0219215
0.0123989
-0.0510532
0.0239376
-0.0698585
0.0366812
-0.0781052
0.0496611
-0.0801099
0.0624596
-0.0792852
0.0749376
-0.0774386
0.0870834
-0.0753945
-0.0742516
0.0990598
0.000119896
0.00199867
0.00445052
-0.0262522
0.0132937
-0.0598963
0.0248258
-0.0813906
0.0374101
-0.0906896
0.0501565
-0.0928563
0.0627
-0.0918287
0.0749285
-0.0896671
0.0868394
-0.0873055
-0.0859642
0.0985521
0.000481338
0.00151733
0.00526805
-0.0310389
0.0143413
-0.0689696
0.0258375
-0.0928868
0.038212
-0.103064
0.0506742
-0.105318
0.0629266
-0.104081
0.0748925
-0.101633
0.086573
-0.0989859
-0.0973609
0.0979696
0.000889705
0.000627625
0.006175
-0.0363242
0.0154585
-0.0782531
0.0268507
-0.104279
0.0389229
-0.115136
0.0510024
-0.117398
0.0628719
-0.115951
0.0744979
-0.113259
0.0858772
-0.110365
-0.108263
0.0967793
0.00130675
-0.000679128
0.0070546
-0.042072
0.0164531
-0.0876516
0.0276009
-0.115427
0.039201
-0.126736
0.0507033
-0.1289
0.0619627
-0.12721
0.0729755
-0.124272
0.083711
-0.121101
-0.118206
0.0936542
0.00169121
0.00782136
0.0171993
0.0279265
0.0388413
0.0495044
0.0598243
0.0698113
0.0794023
0.0878753
0.154545
-0.153677
0.0999888
0.181201
-0.109066
0.0824092
0.194578
-0.0815198
0.0681428
0.201181
-0.0616782
0.0550751
0.204175
-0.0465259
0.0435327
0.205114
-0.0345834
0.0336441
0.204851
-0.0250358
0.0252992
0.203848
-0.0172215
0.0182244
0.202389
-0.0111503
0.0126089
-0.00336965
0.00527613
0.153374
-0.20653
0.180193
-0.135885
0.193863
-0.0951891
0.200721
-0.0685361
0.203914
-0.0497193
0.205014
-0.0356832
0.204885
-0.0249071
0.204004
-0.016341
0.202662
-0.00980834
-0.00158498
0.15141
-0.257852
0.178294
-0.162769
0.192308
-0.109203
0.199516
-0.0757444
0.203022
-0.0532245
0.204404
-0.0370653
0.204537
-0.0250405
0.203909
-0.0157124
0.202816
-0.00871555
-5.86318e-05
0.148636
-0.306906
0.175492
-0.189624
0.189913
-0.123625
0.197571
-0.083403
0.201502
-0.0571549
0.203288
-0.0388514
0.20381
-0.0255622
0.203564
-0.0154666
0.202852
-0.00800404
0.00107613
0.145055
-0.352902
0.171777
-0.216346
0.186679
-0.138526
0.194891
-0.0916152
0.199361
-0.0616249
0.201671
-0.0411616
0.202705
-0.0265964
0.202968
-0.0157292
0.202767
-0.0078027
0.00168516
0.140648
-0.394998
0.167128
-0.242827
0.182609
-0.154007
0.191485
-0.100492
0.196611
-0.0667506
0.199563
-0.0441138
0.20123
-0.0282637
0.202125
-0.0166241
0.202561
-0.00823883
0.00163804
0.135336
-0.432364
0.161482
-0.268973
0.177685
-0.170209
0.187359
-0.110166
0.193263
-0.0726545
0.196976
-0.0478272
0.199395
-0.0306826
0.201041
-0.0182704
0.202236
-0.0094338
0.000808139
0.129039
-0.464624
0.154696
-0.29463
0.171827
-0.18734
0.182496
-0.120835
0.189321
-0.0794796
0.193916
-0.052423
0.197206
-0.033972
0.199722
-0.0207861
0.201793
-0.0115054
-0.000927461
0.121857
-0.492827
0.146629
-0.319401
0.164824
-0.205535
0.176776
-0.132787
0.184741
-0.0874445
0.190378
-0.0580591
0.194665
-0.0382596
0.198168
-0.0242892
0.201234
-0.0145709
-0.00368761
0.114778
-0.51973
0.138554
-0.343176
0.157026
-0.224007
0.170211
-0.145972
0.179482
-0.0967156
0.186334
-0.0649118
0.191769
-0.0436945
0.196383
-0.0289032
0.200558
-0.0187452
-0.007588
0.378054
-0.459543
-0.43824
0.34644
-0.311562
0.330468
-0.208036
0.322837
-0.138341
0.318858
-0.0927363
0.31648
-0.0625342
0.314902
-0.0421167
0.313826
-0.027827
0.313099
-0.0180184
-0.00728268
0.390373
-0.389591
-0.460325
0.355641
-0.276831
0.338111
-0.190506
0.328686
-0.128916
0.323032
-0.0870819
0.319394
-0.0588967
0.316958
-0.03968
0.315326
-0.0261952
0.314254
-0.0169466
-0.00684274
0.406311
-0.324737
-0.471165
0.368886
-0.239406
0.347396
-0.169015
0.334926
-0.116447
0.327231
-0.0793868
0.322253
-0.0539184
0.318948
-0.0363752
0.316766
-0.0240132
0.315352
-0.0155325
-0.00627016
0.416508
-0.264659
-0.476586
0.378512
-0.20141
0.354929
-0.145433
0.340318
-0.101836
0.330979
-0.0700476
0.324846
-0.0477855
0.320768
-0.0322969
0.318086
-0.0213307
0.316354
-0.013801
-0.00557226
0.423664
-0.209468
-0.478855
0.38604
-0.163785
0.36115
-0.120543
0.344918
-0.0856039
0.334241
-0.0593703
0.32713
-0.0406747
0.322381
-0.0275478
0.319257
-0.0182064
0.317242
-0.0117863
-0.00476109
0.428576
-0.158732
-0.479312
0.391728
-0.126937
0.366089
-0.0949048
0.348688
-0.0682026
0.336963
-0.0476454
0.329059
-0.032771
0.323751
-0.0222393
0.320254
-0.0147101
0.317998
-0.00953021
-0.00385205
0.431814
-0.111658
-0.478887
0.395845
-0.0909682
0.369826
-0.0688853
0.351621
-0.0499977
0.339116
-0.0351406
0.330597
-0.0242527
0.324846
-0.0164879
0.321053
-0.0109169
0.3186
-0.00707717
-0.00286088
0.433417
-0.0669293
-0.478146
0.39822
-0.0557717
0.372104
-0.0427692
0.353443
-0.0313369
0.340439
-0.0221359
0.331508
-0.0153218
0.325455
-0.0104348
0.321454
-0.00691635
0.318859
-0.00448261
-0.00180953
0.426775
-0.0209518
-0.472753
0.392306
-0.0213021
0.366908
-0.0173713
0.348611
-0.0130402
0.335757
-0.00928212
0.326885
-0.00644942
0.320855
-0.00440442
0.316869
-0.00293015
0.314281
-0.00189481
-0.000760015
0.314682
-0.335634
0.29338
0.276009
0.262968
0.253686
0.247237
0.242832
0.239902
0.238007
0.470932
0.0128878
-0.469199
0.471906
0.025084
0.471991
0.0368753
0.471089
0.0480302
0.468821
0.0586623
0.466059
0.0671707
0.459862
0.0785325
0.456397
0.0801481
0.44456
0.0975869
0.0901313
0.452167
0.0111862
-0.450465
0.453928
0.0233225
0.45567
0.0351336
0.457444
0.0462562
0.458752
0.0573543
0.460464
0.0654583
0.460632
0.078365
0.461782
0.0789977
0.462563
0.0968062
0.092369
0.435908
0.00946051
-0.434182
0.438267
0.0209629
0.441174
0.0322275
0.444639
0.0427907
0.448462
0.0535314
0.452668
0.0612522
0.457413
0.07362
0.461359
0.0750516
0.467508
0.0906573
0.0887124
0.423477
0.00773872
-0.421755
0.426184
0.0182561
0.429824
0.0285868
0.434345
0.0382703
0.439792
0.048084
0.445672
0.0553723
0.453113
0.066179
0.459607
0.0685573
0.468922
0.0813426
0.0810485
0.413748
0.00602061
-0.41203
0.416705
0.0152988
0.420873
0.024419
0.426151
0.0329919
0.432673
0.041562
0.439837
0.0482085
0.448862
0.0571543
0.457371
0.0600481
0.468587
0.0701267
0.0707801
0.406398
0.00428409
-0.404661
0.409545
0.0121515
0.414077
0.0198867
0.419886
0.0271829
0.427091
0.0343568
0.435171
0.0401289
0.445086
0.0472391
0.454975
0.0501594
0.467299
0.057803
0.0587662
0.401044
0.00250664
-0.399266
0.404355
0.00884027
0.409166
0.0150759
0.415368
0.0209801
0.423023
0.0267024
0.43173
0.0314215
0.442145
0.0368242
0.452936
0.0393684
0.465833
0.0449057
0.0457121
0.396416
0.000501274
-0.394411
0.400013
0.0052438
0.405206
0.00988228
0.411883
0.0143038
0.420017
0.0185678
0.4293
0.0221391
0.440078
0.0260457
0.451482
0.027965
0.464649
0.0317382
0.0322156
0.37823
-0.00143354
-0.376295
0.382344
0.00112919
0.388489
0.00373743
0.396497
0.00629598
0.406243
0.00882167
0.417345
0.0110372
0.429943
0.0134479
0.44317
0.0147382
0.457828
0.0170797
0.0172908
0.242056
-0.243489
0.243185
0.246922
0.253218
0.26204
0.273077
0.286525
0.301263
0.318343
0.0788782
0.127789
-0.115393
-0.0912742
0.067521
0.129669
-0.118311
0.0571075
0.132452
-0.122038
0.0471425
0.136129
-0.126163
0.0372509
0.140231
-0.130339
0.0272924
0.14416
-0.134201
0.0174646
0.145734
-0.135907
0.00858591
0.138016
-0.129137
0.0022546
0.108224
-0.101893
0.0473712
-0.0451166
0.0802981
0.139001
-0.0915098
0.0688075
0.141159
0.0576955
0.143564
0.0470646
0.146759
0.036738
0.150557
0.0265933
0.154304
0.0168001
0.155528
0.0081291
0.146687
0.00207025
0.114283
0.0494414
0.0728291
0.148324
-0.0821522
0.0630079
0.15098
0.0530492
0.153522
0.0431731
0.156635
0.0334145
0.160316
0.0238006
0.163918
0.0146066
0.164722
0.00667761
0.154616
0.00144178
0.119519
0.0508832
0.0607447
0.155687
-0.0681084
0.0529767
0.158748
0.0448166
0.161683
0.0363993
0.165053
0.0278403
0.168875
0.0192925
0.172466
0.011173
0.172841
0.00446262
0.161326
0.000539754
0.123442
0.051423
0.0483558
0.161593
-0.0542617
0.0421654
0.164939
0.0355619
0.168286
0.0285948
0.17202
0.0213732
0.176097
0.0140988
0.17974
0.00727782
0.179662
0.00198852
0.166615
-0.000408189
0.125838
0.0510148
0.0371539
0.166522
-0.0420829
0.0320366
0.170056
0.0265981
0.173725
0.0208499
0.177768
0.0148771
0.182069
0.00889244
0.185725
0.00345279
0.185102
-0.000467249
0.170535
-0.00127883
0.12665
0.049736
0.0267711
0.170652
-0.0309006
0.0225292
0.174298
0.0180741
0.17818
0.0134062
0.182436
0.00859365
0.186882
0.00385404
0.190465
-0.000297118
0.189253
-0.00246504
0.172703
-0.00202756
0.126212
0.0477084
0.0165766
0.173905
-0.0198298
0.0132509
0.177624
0.00978662
0.181644
0.00619166
0.186031
0.00253341
0.19054
-0.000955167
0.193953
-0.00354
0.191838
-0.00439247
0.173556
-0.00262784
0.124448
0.0450806
0.00628557
0.176182
-0.00856283
0.00397194
0.179937
0.00158429
0.184032
-0.000866978
0.188482
-0.00331555
0.192989
-0.00548709
0.196125
-0.00680151
0.193152
-0.00620331
0.172958
-0.0031853
0.12143
0.0418953
-0.00407568
0.00290146
-0.00527752
-0.00653145
-0.00781603
-0.00903811
-0.00992481
-0.00981389
-0.00779061
-0.00363265
0.103493
0.0238878
-0.114792
-0.0125887
0.0918686
0.024511
-0.0128871
0.0798825
0.0251849
-0.0131989
0.0675141
0.0259013
-0.0135329
0.0547548
0.0266536
-0.0138944
0.0416134
0.0274127
-0.0142712
0.028237
0.0279264
-0.0145501
0.0153438
0.0271265
-0.0142334
0.00488513
0.0225093
-0.0120506
0.0110084
-0.00612324
0.102725
0.0351711
-0.114009
0.0911323
0.0361041
0.0791919
0.0371253
0.0668837
0.0382095
0.0541986
0.0393387
0.0411456
0.0404657
0.0278753
0.0411968
0.0151099
0.0398919
0.00479035
0.0328289
0.0157987
0.101616
0.0464228
-0.112868
0.0900761
0.0476443
0.0782079
0.0489935
0.0659906
0.0504267
0.053414
0.0519153
0.0404875
0.0533922
0.0273671
0.0543172
0.0147819
0.0524771
0.00465671
0.0429541
0.0204554
0.100053
0.057616
-0.111246
0.0885992
0.059098
0.0768417
0.060751
0.0647578
0.0625106
0.0523356
0.0643375
0.0395852
0.0661427
0.0266702
0.0672322
0.014332
0.0648153
0.00447297
0.0528131
0.0249284
0.0978758
0.0687075
-0.108967
0.0865658
0.070408
0.0749859
0.072331
0.0631066
0.0743899
0.0509099
0.0765342
0.0384045
0.078648
0.0257636
0.0798732
0.0137444
0.0768345
0.00423235
0.0623252
0.0291608
0.0949096
0.0796166
-0.105819
0.0838179
0.0814997
0.072484
0.0836648
0.06088
0.0859939
0.0489878
0.0884264
0.0368175
0.0908183
0.0245517
0.092139
0.0129628
0.0884234
0.0039117
0.0713763
0.0330725
0.0911369
0.0901483
-0.101669
0.0804954
0.0921412
0.0696224
0.0945378
0.0584525
0.0971638
0.046961
0.0999179
0.035173
0.102606
0.0233052
0.104007
0.0121692
0.0995593
0.00360238
0.0799431
0.0366748
0.0848646
0.100181
-0.094897
0.0747773
0.102229
0.0645533
0.104762
0.0541229
0.107594
0.043413
0.110628
0.0324059
0.113613
0.0213085
0.115104
0.0109425
0.109925
0.00311257
0.0877731
0.0397874
0.0822764
0.108795
-0.0908902
0.0731785
0.111327
0.0633957
0.114545
0.0530825
0.117907
0.042387
0.121323
0.0314269
0.124573
0.020481
0.12605
0.0103979
0.120008
0.00291819
0.0952527
0.0427056
0.0694143
-0.0760127
0.0624293
0.0549357
0.0466796
0.0376638
0.0280362
0.0181796
0.00905105
0.002411
0.202122
0.0126182
-0.0167506
0.204672
0.0283317
-0.0308819
0.205148
0.0345898
-0.035065
0.206107
0.0362852
-0.0372447
0.20521
0.0428221
-0.0419246
0.202704
0.0514519
-0.0489465
0.19661
0.0642132
-0.0581191
0.18589
0.0810067
-0.0702863
0.16013
0.109111
-0.083351
0.145472
-0.100133
0.201851
0.00875701
0.20426
0.0259226
0.204686
0.0341637
0.205585
0.0353865
0.204608
0.0437986
0.201967
0.0540931
0.195731
0.0704491
0.184691
0.0920473
0.158987
0.134815
0.19045
0.201455
0.00529154
0.203582
0.0237964
0.203863
0.0338826
0.204557
0.0346918
0.203376
0.0449793
0.200476
0.0569935
0.194015
0.0769101
0.182533
0.10353
0.157063
0.160285
0.234645
0.200927
0.0023545
0.202636
0.0220875
0.202686
0.0338327
0.203034
0.0343437
0.201527
0.0464867
0.198246
0.0602741
0.191465
0.0836909
0.179397
0.115598
0.154404
0.185278
0.277802
0.200262
8.18194e-05
0.20143
0.0209196
0.201168
0.0340945
0.201027
0.0344849
0.199076
0.0484379
0.195296
0.0640539
0.188095
0.0908926
0.175252
0.12844
0.151084
0.209446
0.319919
0.199457
-0.00138495
0.199972
0.0204047
0.199325
0.0347409
0.19855
0.0352601
0.196045
0.0509431
0.191648
0.068451
0.183914
0.0986266
0.170109
0.142245
0.14713
0.232424
0.361231
0.198501
-0.00189588
0.198267
0.0206388
0.197176
0.0358319
0.195619
0.0368163
0.192456
0.0541063
0.187319
0.0735887
0.178914
0.107031
0.164093
0.157066
0.142599
0.253918
0.402161
0.197394
-0.00129976
0.196331
0.0217017
0.194739
0.0374238
0.192253
0.0393021
0.188338
0.0580214
0.182329
0.0795975
0.173057
0.116303
0.157125
0.172998
0.13666
0.274384
0.443924
0.196145
0.000544599
0.194194
0.0236532
0.192034
0.0395842
0.188464
0.0428712
0.183719
0.0627668
0.17675
0.0865663
0.166614
0.126439
0.150528
0.189085
0.131844
0.293068
0.484877
0.194872
0.00366215
0.191926
0.0265993
0.189079
0.0424315
0.18422
0.04773
0.17845
0.0685372
0.17001
0.0950065
0.157967
0.138482
0.140257
0.206794
0.120957
0.312368
0.529821
0.303376
0.00229604
0.306815
0.0231607
0.310562
0.0386841
0.313142
0.0451505
0.316102
0.0655765
0.319547
0.0915624
0.325107
0.132922
0.336214
0.195687
0.361394
0.287189
0.466047
0.425167
0.304251
5.54021e-05
0.30795
0.019462
0.312296
0.0343378
0.315665
0.0417811
0.320057
0.0611849
0.325676
0.0859435
0.33464
0.123958
0.350434
0.179892
0.380136
0.257486
0.402098
0.444086
0.305118
-0.0030528
0.30929
0.0152903
0.314036
0.0295914
0.318192
0.0376257
0.323789
0.0555877
0.331258
0.0784745
0.342885
0.112331
0.361536
0.161242
0.395101
0.223922
0.339345
0.457854
0.306024
-0.00706679
0.310695
0.0106193
0.315734
0.024553
0.320581
0.0327785
0.3272
0.0489686
0.336218
0.0694569
0.349885
0.098663
0.370702
0.140425
0.405668
0.188956
0.279453
0.46556
0.307017
-0.012074
0.312177
0.00545945
0.317368
0.0193626
0.322769
0.0273769
0.33022
0.0415174
0.340493
0.0591845
0.355673
0.0834828
0.378112
0.117986
0.412868
0.1542
0.22315
0.469171
0.308159
-0.0182232
0.313781
-0.000162332
0.318914
0.0142295
0.324705
0.0215863
0.332807
0.033415
0.344051
0.0479408
0.360315
0.0672192
0.383876
0.0944244
0.417679
0.120396
0.170476
0.470353
0.309514
-0.025727
0.315544
-0.00619237
0.320354
0.00942
0.326344
0.0155962
0.334919
0.0248393
0.346871
0.0359889
0.363884
0.0502059
0.388146
0.0701627
0.420818
0.0877248
0.12106
0.470234
0.311223
-0.0349402
0.317488
-0.0124567
0.321546
0.00536124
0.327502
0.00964098
0.336391
0.0159503
0.348831
0.0235484
0.366357
0.0326805
0.390991
0.0455288
0.422731
0.0559839
0.0744444
0.469347
0.309629
-0.0425592
0.314781
-0.0176081
0.31794
0.00220224
0.323906
0.00367503
0.332955
0.00690099
0.345713
0.0107905
0.363597
0.0147965
0.38835
0.0207761
0.419713
0.0246202
0.0323802
0.461778
0.259451
0.241843
0.244045
0.24772
0.254621
0.265412
0.280208
0.300984
0.325604
0.357985
0.439247
-0.105354
0.4446
-0.0968631
0.446994
-0.0845465
0.449213
-0.0703269
0.452202
-0.057251
0.455872
-0.0457527
0.459775
-0.0348037
0.463462
-0.0235163
0.466596
-0.0116976
0.000298775
0.444663
-0.105931
0.443297
-0.0954966
0.442008
-0.0832582
0.442177
-0.0704954
0.443364
-0.0584384
0.444822
-0.0472103
0.446228
-0.0362103
0.447612
-0.0249
0.449062
-0.0131472
-0.00110473
0.451521
-0.0995983
0.446041
-0.0900158
0.441379
-0.0785963
0.437942
-0.0670593
0.435576
-0.056072
0.433972
-0.045606
0.433029
-0.0352671
0.432758
-0.0246289
0.433155
-0.0135449
-0.00213171
0.455091
-0.0891297
0.446062
-0.0809862
0.438483
-0.0710174
0.432534
-0.0611106
0.428097
-0.0516346
0.424856
-0.042365
0.422613
-0.0330248
0.421333
-0.0233481
0.42104
-0.0132519
-0.00284705
0.456403
-0.0763616
0.445248
-0.0698316
0.435891
-0.0616606
0.428306
-0.0535252
0.422334
-0.0456624
0.41776
-0.0377913
0.414451
-0.029716
0.412386
-0.0212822
0.411579
-0.0124458
-0.00329731
0.456343
-0.0623519
0.443894
-0.0573822
0.433334
-0.0511004
0.424616
-0.0448071
0.417593
-0.0386396
0.412123
-0.0323212
0.408107
-0.0257007
0.40552
-0.0186947
0.404368
-0.0112939
-0.00359058
0.455494
-0.0476116
0.442262
-0.0441502
0.430946
-0.0397851
0.421519
-0.0353795
0.413836
-0.030957
0.407791
-0.0262762
0.403317
-0.0212269
0.400399
-0.0157761
0.399048
-0.00994287
-0.00380904
0.453955
-0.0322189
0.44009
-0.0302861
0.428219
-0.0279134
0.418281
-0.0254419
0.410123
-0.0227991
0.403651
-0.0198041
0.398824
-0.0163999
0.395653
-0.0126043
0.39417
-0.00846086
-0.0040494
0.444816
-0.0152574
0.429736
-0.0152064
0.416734
-0.0149108
0.405648
-0.0143565
0.396302
-0.0134523
0.388629
-0.0121317
0.38268
-0.0104509
0.378567
-0.00849114
0.376412
-0.00630634
-0.00393194
0.342727
0.327521
0.31261
0.298253
0.284801
0.272669
0.262219
0.253727
0.247421
0.0103322
0.0486712
-0.0590034
0.0214217
0.150667
-0.161756
0.0261845
0.216911
-0.221674
0.0257786
0.243491
-0.243085
0.0227845
0.24891
-0.245916
0.0188949
0.246933
-0.243043
0.014754
0.243216
-0.239075
0.0105568
0.238655
-0.234458
0.00655582
0.230836
-0.226835
0.212104
0.00364303
-0.209191
0.0119278
0.0367434
0.0275536
0.135041
0.0375499
0.206915
0.0418744
0.239167
0.0431059
0.247678
0.0432577
0.246781
0.0431804
0.243293
0.0428597
0.238976
0.0414387
0.232257
0.216446
0.0370969
0.0122594
0.024484
0.0310704
0.11623
0.0458255
0.19216
0.0550328
0.22996
0.0608294
0.241882
0.0653449
0.242265
0.0696776
0.238961
0.0739113
0.234742
0.076791
0.229377
0.218907
0.0743295
0.0113086
0.0131754
0.031278
0.0962607
0.0494837
0.173954
0.0630893
0.216354
0.073361
0.23161
0.0822069
0.23342
0.090862
0.230306
0.0996991
0.225905
0.108003
0.221073
0.214656
0.112255
0.00935542
0.00381999
0.0283208
0.0772954
0.0481144
0.15416
0.0650123
0.199456
0.0791924
0.21743
0.0919962
0.220616
0.104552
0.21775
0.117416
0.213041
0.130529
0.207959
0.202619
0.142566
0.00685277
-0.00303279
0.0230979
0.0610503
0.0425405
0.134718
0.0611893
0.180807
0.0781893
0.20043
0.0941039
0.204701
0.109714
0.20214
0.125546
0.197208
0.141856
0.191649
0.185577
0.158898
0.00429463
-0.00732742
0.0170397
0.0483052
0.034745
0.117012
0.0536801
0.161872
0.0722137
0.181896
0.0901218
0.186793
0.107698
0.184564
0.125274
0.179632
0.14303
0.173893
0.167092
0.161515
0.00207871
-0.00940613
0.0114356
0.0389483
0.0267704
0.101678
0.0448591
0.143783
0.0636013
0.163154
0.0821375
0.168257
0.100288
0.166413
0.118116
0.161804
0.13581
0.1562
0.149544
0.153358
0.000495186
-0.00990132
0.00728037
0.0321631
0.0204422
0.0885158
0.0373134
0.126912
0.0556265
0.144841
0.0741614
0.149722
0.092446
0.148129
0.110379
0.14387
0.128046
0.138533
0.131466
0.146124
-0.000412171
-0.00948914
0.00459059
0.0271603
0.0159457
0.0771607
0.0313698
0.111488
0.048544
0.127667
0.0660231
0.132243
0.0830841
0.131068
0.0994196
0.127535
0.114716
0.123236
0.117415
0.128767
-0.000806328
-0.00868282
0.0032329
0.0231211
0.0134308
0.0669627
0.0277731
0.0971457
0.0440319
0.111408
0.060769
0.115506
0.0772593
0.114577
0.0932183
0.111576
0.108532
0.107923
0.104616
0.12133
-0.000932584
-0.00775023
0.00266173
0.0195268
0.0121714
0.0574531
0.025738
0.0835791
0.0412373
0.0959088
0.0572865
0.0994567
0.073186
0.098678
0.0886485
0.0961135
0.103604
0.0929678
0.0910061
0.117214
-0.000971734
-0.0067785
0.00235313
0.0162019
0.0113605
0.0484457
0.0242687
0.0706709
0.0390317
0.0811458
0.0543233
0.0841651
0.069474
0.0835273
0.0842001
0.0813874
0.0984107
0.0787573
0.0774609
0.111956
-0.000975857
-0.00580264
0.00217213
0.013054
0.0108167
0.0398012
0.0232185
0.0582691
0.0373886
0.0669756
0.0520502
0.0695035
0.0665616
0.069016
0.0806464
0.0673025
0.0942006
0.0652031
0.0642838
0.107378
-0.000960407
-0.00484224
0.00207828
0.0100153
0.0104811
0.0313983
0.0225367
0.0462135
0.0362969
0.0532155
0.0505253
0.0552751
0.0646087
0.0549326
0.0782887
0.0536225
0.0914732
0.0520185
0.0513657
0.104391
-0.000942058
-0.00390018
0.00202996
0.00704324
0.0102783
0.02315
0.022114
0.0343777
0.0356181
0.0397114
0.049584
0.0413092
0.0634225
0.0410941
0.0768926
0.0401524
0.0899165
0.0389947
0.0385639
0.102718
-0.000924478
-0.0029757
0.00201313
0.00410564
0.01017
0.0149931
0.0218756
0.0226721
0.0352317
0.0263554
0.0490518
0.0274891
0.062763
0.0273828
0.0761362
0.0267792
0.0891025
0.0260283
0.0257989
0.101867
-0.000898816
-0.00207688
0.00202944
0.00117738
0.010139
0.00688356
0.021772
0.0110391
0.0350446
0.0130827
0.0487843
0.0137494
0.0624293
0.0137378
0.0757583
0.0134502
0.0887077
0.013079
0.0130386
0.101468
-0.000865645
-0.00121124
0.00207994
-0.00176821
0.0101755
-0.00121204
0.0217691
-0.000554478
0.0349897
-0.000137835
0.0486761
6.29522e-05
0.0622759
0.00013812
0.0755735
0.00015258
0.088509
0.000143493
0.000284127
0.101263
-0.000822208
0.0021684
0.0102764
0.0218488
0.0350262
0.0486607
0.0622091
0.0754617
0.0883624
0.10109
0.137766
0.290024
-0.30646
0.149802
0.122118
-0.134154
0.159513
0.041372
-0.0510829
0.167211
0.00491129
-0.0126092
0.173601
-0.00902866
0.00263834
0.179263
-0.0130994
0.00743768
0.18445
-0.0130211
0.00783421
0.189263
-0.0113176
0.00650444
0.193763
-0.00927174
0.00477226
-0.00604547
0.00202265
0.139667
0.267571
0.155601
0.106184
0.16639
0.0305824
0.1737
-0.00239876
0.179257
-0.0145856
0.183913
-0.0177552
0.188015
-0.0171234
0.191699
-0.0150017
0.195054
-0.0126264
-0.00893532
0.142019
0.237508
0.160914
0.0872897
0.172251
0.0192455
0.179314
-0.00946142
0.184265
-0.0195367
0.188101
-0.0215916
0.191256
-0.0202786
0.193933
-0.017678
0.196259
-0.0149527
-0.0108022
0.144767
0.200118
0.165753
0.0663037
0.177502
0.00749647
0.184363
-0.016322
0.188765
-0.0239391
0.191865
-0.0246908
0.194178
-0.0225923
0.195962
-0.0194614
0.197376
-0.0163671
-0.0117598
0.147526
0.156984
0.170053
0.0437763
0.18211
-0.00456089
0.188785
-0.0229969
0.192726
-0.0278795
0.195188
-0.027153
0.196772
-0.0241761
0.19778
-0.0204695
0.198401
-0.0169887
-0.0119257
0.150017
0.109685
0.173747
0.0200468
0.186055
-0.0168692
0.192577
-0.0295188
0.196129
-0.031432
0.198056
-0.02908
0.199025
-0.0251449
0.199379
-0.0208231
0.19933
-0.0169403
-0.0114221
0.152099
0.0594536
0.176776
-0.00463016
0.189298
-0.0293917
0.195708
-0.0359283
0.198955
-0.0346796
0.200454
-0.0305788
0.200927
-0.0256178
0.200751
-0.020647
0.200159
-0.0163481
-0.010375
0.15367
0.00725135
0.179086
-0.0300463
0.1918
-0.0421052
0.198151
-0.0422796
0.201185
-0.0377135
0.202368
-0.0317615
0.202467
-0.0257175
0.201889
-0.0200684
0.200882
-0.015341
-0.00891341
0.15464
-0.0461256
0.18062
-0.0560262
0.193531
-0.0550155
0.199888
-0.0486367
0.202805
-0.0406305
0.203787
-0.0327436
0.203639
-0.025569
0.202787
-0.0192173
0.201497
-0.0140505
-0.00716924
0.154953
0.181336
0.194463
0.200902
0.203804
0.204704
0.204434
0.203442
0.202
0.110547
-0.00276674
-0.10778
0.10789
0.00265734
0.105746
0.00214376
0.105605
0.000141183
0.106548
-0.000943703
0.107726
-0.00117795
0.108792
-0.00106587
0.109627
-0.000834408
0.110205
-0.000578754
-0.000232952
0.2331
0.0683447
-0.304212
0.200838
0.0349192
0.18868
0.0143025
0.185405
0.00341583
0.185606
-0.00114465
0.186987
-0.00255951
0.188539
-0.00261775
0.189856
-0.00215083
0.19083
-0.00155334
-0.000646504
0.249903
0.156557
-0.338115
0.213678
0.0711447
0.200137
0.0278434
0.196403
0.00714923
0.196526
-0.00126703
0.197961
-0.00399495
0.199604
-0.00426033
0.20101
-0.00355686
0.202062
-0.00260533
-0.0010976
0.244849
0.237106
-0.325398
0.211937
0.104056
0.199821
0.0399601
0.196744
0.0102252
0.197206
-0.00172813
0.19881
-0.0055992
0.20054
-0.00599077
0.201988
-0.00500485
0.203061
-0.0036779
-0.00155657
0.239623
-0.308978
0.209525
0.198403
0.196019
0.196929
0.198767
0.200611
0.20211
0.203205
0.0114986
0.00071366
-0.0122122
0.0117263
-0.000227726
0.0123875
-0.000661247
0.0131732
-0.000785668
0.0149964
-0.00182321
0.0193739
-0.00437748
0.0313451
-0.0119712
0.048123
-0.0167779
0.0775889
-0.0294659
-0.0301914
0.0336927
0.0016669
-0.034646
0.0366972
-0.0032322
0.044179
-0.00814307
0.0581421
-0.0147487
0.081341
-0.0250221
0.115771
-0.0388075
0.16144
-0.0576402
0.210135
-0.0654725
0.262961
-0.0822921
-0.0714422
0.0557381
0.00164541
-0.0557166
0.0630995
-0.0105936
0.0794994
-0.024543
0.107423
-0.0426719
0.147173
-0.0647727
0.195161
-0.086795
0.242962
-0.105442
0.283466
-0.105977
0.315519
-0.114345
-0.0940385
0.0759928
-6.46444e-05
-0.0742828
0.0876655
-0.0222663
0.110999
-0.0478763
0.145971
-0.0776443
0.188032
-0.106834
0.229418
-0.128181
0.262133
-0.138157
0.28851
-0.132353
0.307975
-0.13381
-0.111461
0.0926505
-0.0890721
0.107481
0.133934
0.168544
0.204277
0.234994
0.258353
0.279358
0.291672
0.0911465
-0.0879183
0.0972077
-0.100436
0.0822382
-0.0906842
0.0995925
0.0732391
-0.0942434
0.103242
0.0634329
-0.0978948
0.107701
0.0525544
-0.101449
0.112327
0.0406378
-0.104812
0.116728
0.0279636
-0.106909
0.119583
0.0153855
-0.103127
0.115705
0.0049638
-0.0835686
0.0939903
-0.0389096
0.0438734
0.104554
-0.0780395
-0.114433
0.0940193
-0.0801491
0.0824464
-0.0826706
0.0699821
-0.0854304
0.0568683
-0.088335
0.0432863
-0.0912296
0.0294622
-0.0930845
0.0161322
-0.0897965
0.00523794
-0.0726743
-0.0336716
0.101666
-0.0667788
-0.112927
0.0901654
-0.0686482
0.0784052
-0.0709104
0.0663581
-0.0733833
0.0539533
-0.0759302
0.0411318
-0.0784081
0.0279979
-0.0799507
0.0152533
-0.0770519
0.00485388
-0.0622749
-0.0288177
0.103728
-0.0554696
-0.115037
0.0922071
-0.0571271
0.0803461
-0.0590494
0.068062
-0.0610993
0.0553189
-0.0631871
0.0421257
-0.0652149
0.0286446
-0.0664696
0.0156151
-0.0640224
0.00500335
-0.0516631
-0.0238144
0.104286
-0.044085
-0.115671
0.0926075
-0.0454484
0.0805701
-0.047012
0.0681421
-0.0486713
0.0553096
-0.0503546
0.0420783
-0.0519836
0.0285933
-0.0529846
0.0155722
-0.0510013
0.00497108
-0.041062
-0.0188433
0.104548
-0.0327137
-0.11592
0.0928636
-0.0337637
0.0808127
-0.0349611
0.0683657
-0.0362243
0.0555072
-0.037496
0.0422427
-0.0387192
0.0287185
-0.0394603
0.0156529
-0.0379357
0.00500892
-0.030418
-0.0138344
0.104629
-0.0213677
-0.115975
0.092949
-0.0220838
0.0808912
-0.0229033
0.0684312
-0.0237642
0.0555587
-0.0246235
0.0422818
-0.0254423
0.0287457
-0.0259243
0.0156661
-0.0248561
0.00501189
-0.0197638
-0.00882251
0.104569
-0.0100361
-0.115901
0.0928967
-0.0104115
0.0808443
-0.0108508
0.0683896
-0.0113095
0.0555236
-0.0117575
0.0422547
-0.0121733
0.0287272
-0.0123968
0.0156562
-0.0117851
0.00500932
-0.00911689
-0.00381318
0.104359
0.00127951
-0.115675
0.0927026
0.00124526
0.0806661
0.00118571
0.0682293
0.00112727
0.0553843
0.00108741
0.0421399
0.00107115
0.0286407
0.00110235
0.015602
0.00125361
0.00498774
0.00149732
0.00117456
0.103997
-0.115306
0.0923553
0.0803422
0.0679366
0.0551296
0.0419295
0.0284818
0.015502
0.00494868
0.0257253
-0.206907
-0.0280092
0.0196226
-0.220732
0.0122811
-0.227116
0.004755
-0.231549
-0.00254547
-0.235743
-0.00913136
-0.23933
-0.0136727
-0.238544
-0.0138564
-0.22149
-0.00781254
-0.1678
-0.066816
0.0550773
-0.202426
-0.0595586
0.0462143
-0.211869
0.0360712
-0.216973
0.0257826
-0.22126
0.0157133
-0.225673
0.00621278
-0.229829
-0.00178982
-0.230541