/*--------------------------------*- C++ -*----------------------------------*\
  =========                 |
  \\      /  F ield         | OpenFOAM: The Open Source CFD Toolbox
   \\    /   O peration     | Website:  https://openfoam.org
    \\  /    A nd           | Version:  13
     \\/     M anipulation  |
\*---------------------------------------------------------------------------*/
FoamFile
{
    format      ascii;
    class       surfaceScalarField;
    location    "0.975";
    object      phi;
}
// * * * * * * * * * * * * * * * * * * * * * * * * * * * * * * * * * * * * * //

dimensions      [0 3 -1 0 0 0 0];

internalField   nonuniform List<scalar> 
3485
(
0.00137168
-0.0112579
0.00988626
0.00505118
-0.0319067
0.0282272
0.0107642
-0.0513828
0.0456698
0.0183125
-0.0696769
0.0621285
0.0275453
-0.0868351
0.0776023
0.0383483
-0.102901
0.0920983
0.0506328
-0.117907
0.105622
0.0643558
-0.131871
0.118148
0.0796147
-0.144862
0.129603
-0.156896
0.139505
0.0970055
0.00150034
-0.0127583
0.00544584
-0.0358522
0.0114762
-0.0574132
0.0193235
-0.0775242
0.0287728
-0.0962843
0.0396466
-0.113775
0.0518006
-0.130061
0.065127
-0.145198
0.0795342
-0.159269
-0.172198
0.0948361
0.00147419
-0.0142325
0.005327
-0.039705
0.0111745
-0.0632607
0.0187208
-0.0850705
0.0277252
-0.105289
0.0379883
-0.124038
0.0493441
-0.141416
0.061653
-0.157507
0.074783
-0.172399
-0.186038
0.0886224
0.00133887
-0.0155713
0.00485904
-0.0432251
0.0102109
-0.0686125
0.017117
-0.0919767
0.0253538
-0.113525
0.0347401
-0.133424
0.0451299
-0.151806
0.0564032
-0.16878
0.0684532
-0.184449
-0.198791
0.0812066
0.00116694
-0.0167383
0.00425599
-0.0463142
0.00897314
-0.0733296
0.0150817
-0.0980853
0.0223916
-0.120835
0.0307522
-0.141785
0.0400458
-0.1611
0.0501797
-0.178914
0.0610763
-0.195346
-0.210402
0.0726877
0.000980025
-0.0177183
0.00358795
-0.0489221
0.0075866
-0.0773283
0.0127839
-0.103283
0.019026
-0.127077
0.0261924
-0.148951
0.0341911
-0.169099
0.0429529
-0.187676
0.0524228
-0.204816
-0.220549
0.0625696
0.000780725
-0.018499
0.002865
-0.0510064
0.00606896
-0.0805322
0.0102428
-0.107456
0.0152664
-0.132101
0.0210466
-0.154732
0.027514
-0.175566
0.0346201
-0.194782
0.0423308
-0.212526
-0.228851
0.0506322
0.000569701
-0.0190687
0.00209345
-0.0525302
0.00443785
-0.0828766
0.00749263
-0.110511
0.0111686
-0.135777
0.0153967
-0.15896
0.0201273
-0.180297
0.0253292
-0.199984
0.0309862
-0.218183
-0.234967
0.0371027
0.000352504
-0.0194212
0.00129575
-0.0534734
0.00274499
-0.0843259
0.00462829
-0.112394
0.00688641
-0.138035
0.009473
-0.161546
0.0123552
-0.183179
0.0155141
-0.203143
0.0189446
-0.221614
-0.238684
0.0226613
0.000137792
-0.019559
0.000502451
-0.0538381
0.00105694
-0.0848804
0.0017695
-0.113107
0.00261367
-0.138879
0.00356834
-0.162501
0.00461802
-0.184229
0.00575322
-0.204278
0.00697047
-0.222831
0.00827485
-0.239988
0.000486814
-0.00186833
0.00138152
0.00208466
-0.00625508
0.00465723
0.00542557
-0.0114282
0.00808724
0.0101137
-0.0162055
0.0115174
0.0155374
-0.0201988
0.0147751
0.0214334
-0.0235941
0.0176981
0.0278985
-0.026775
0.0203099
0.0350814
-0.0299703
0.0227874
0.0429668
-0.0331316
0.0252462
-0.0361063
0.0514205
0.0276526
0.000426747
-0.00229508
0.00211
-0.00793833
0.00543652
-0.0147547
0.00981186
-0.0205809
0.0148814
-0.0252683
0.0207555
-0.0294683
0.0276077
-0.0336272
0.0353859
-0.0377484
0.0438779
-0.0416236
-0.045147
0.0529186
0.000682849
-0.00297793
0.00271681
-0.0099723
0.0057791
-0.017817
0.00975925
-0.024561
0.014811
-0.0303201
0.0211076
-0.0357649
0.0285798
-0.0410994
0.0369473
-0.0461159
0.0459909
-0.0506673
-0.054776
0.0556199
0.00086869
-0.00384662
0.00306166
-0.0121653
0.00607853
-0.0208338
0.0101987
-0.0286811
0.0156958
-0.0358172
0.0225531
-0.0426221
0.0305279
-0.0490742
0.0393832
-0.0549713
0.0490242
-0.0603083
-0.0651209
0.0593691
0.000923463
-0.00477008
0.00320122
-0.014443
0.00651892
-0.0241515
0.0111161
-0.0332783
0.0171337
-0.0418348
0.0244463
-0.0499347
0.0328617
-0.0574896
0.0422826
-0.0643922
0.0526464
-0.0706721
-0.076295
0.0638206
0.000944187
-0.00571427
0.00337316
-0.016872
0.00709149
-0.0278699
0.0121741
-0.038361
0.0186322
-0.0482929
0.0263542
-0.0576568
0.0352431
-0.0663784
0.0452518
-0.0744009
0.056302
-0.0817222
-0.0882288
0.0682357
0.000980151
-0.00669442
0.00358436
-0.0194762
0.00764149
-0.031927
0.013107
-0.0438264
0.0199253
-0.0551112
0.0280099
-0.0657414
0.0372988
-0.0756673
0.0477459
-0.084848
0.0592783
-0.0932546
-0.100702
0.0717512
0.00101813
-0.00771255
0.00376799
-0.0222261
0.0080713
-0.0362303
0.0138198
-0.049575
0.0209191
-0.0622105
0.0292802
-0.0741025
0.0388335
-0.0852205
0.0495223
-0.0955368
0.061288
-0.10502
-0.113444
0.0740306
0.0010547
-0.00876726
0.00393689
-0.0251082
0.00846114
-0.0407546
0.0144821
-0.0555959
0.0218736
-0.069602
0.0305252
-0.0827541
0.0403416
-0.0950369
0.0512339
-0.106429
0.0631214
-0.116908
-0.126322
0.0759992
0.00111901
0.00423793
0.00915315
0.0156858
0.0236861
0.0330303
0.0436154
0.0553345
0.0680298
0.0812131
0.11432
-0.414673
0.351774
0.168126
-0.472013
0.418207
0.210275
-0.422218
0.380069
0.244169
-0.327099
0.293206
0.27099
-0.214865
0.188044
0.291622
-0.11059
0.0899567
0.30529
-0.0327458
0.0190784
0.310829
0.00944959
-0.0149892
0.311731
0.0244277
-0.0253291
0.0201604
-0.0193334
0.115896
-0.47765
0.169677
-0.525794
0.211792
-0.464333
0.245422
-0.36073
0.272387
-0.24183
0.293818
-0.132021
0.310244
-0.049172
0.31977
-7.61431e-05
0.324017
0.0201812
0.0191618
0.117703
-0.539733
0.170497
-0.578588
0.212199
-0.506035
0.245206
-0.393737
0.272026
-0.26865
0.293764
-0.15376
0.311826
-0.0672336
0.324763
-0.0130134
0.333542
0.0114023
0.0151191
0.120084
-0.600448
0.170863
-0.629367
0.211675
-0.546847
0.243753
-0.425816
0.270154
-0.295051
0.291936
-0.175541
0.310876
-0.0861736
0.325764
-0.0279013
0.338933
-0.00176751
0.00617214
0.122984
-0.659612
0.170975
-0.677357
0.210351
-0.586222
0.241254
-0.456719
0.266975
-0.320772
0.288626
-0.197191
0.308142
-0.10569
0.324054
-0.0438133
0.34028
-0.0179932
-0.0077217
0.125845
-0.717221
0.170863
-0.722375
0.208308
-0.623667
0.237846
-0.486258
0.262646
-0.345572
0.284046
-0.218592
0.303873
-0.125517
0.320732
-0.0606723
0.336671
-0.0339325
-0.0203271
0.127787
-0.773257
0.170339
-0.764927
0.205592
-0.658921
0.233641
-0.514306
0.257305
-0.369236
0.278337
-0.239624
0.298318
-0.145498
0.315964
-0.0783182
0.329999
-0.0479674
-0.0290568
0.127871
-0.827098
0.16892
-0.805976
0.202066
-0.692067
0.228604
-0.540843
0.250995
-0.391628
0.2715
-0.260129
0.291806
-0.165804
0.308352
-0.0948647
0.31885
-0.0584651
-0.0359646
0.125794
-0.876893
0.166199
-0.84638
0.197679
-0.723547
0.222824
-0.565989
0.243811
-0.412614
0.263659
-0.279977
0.282989
-0.185135
0.296725
-0.108601
0.304467
-0.0662068
-0.0427
0.122113
-0.917793
0.161374
-0.885641
0.191556
-0.753729
0.215598
-0.590031
0.235264
-0.432279
0.254505
-0.299218
0.270569
-0.2012
0.281059
-0.11909
0.288618
-0.0737664
-0.0497049
0.583958
-0.920272
-0.581479
0.561184
-0.862867
0.523941
-0.716487
0.487822
-0.553911
0.460425
-0.404883
0.443511
-0.282303
0.430663
-0.188352
0.42415
-0.112578
0.420743
-0.0703592
-0.048214
0.682871
-0.871679
-0.731464
0.619671
-0.799667
0.553827
-0.650642
0.496172
-0.496257
0.450363
-0.359073
0.418309
-0.250249
0.397741
-0.167784
0.387699
-0.102535
0.382046
-0.0647062
-0.0447787
0.753981
-0.775232
-0.850429
0.65506
-0.700746
0.563298
-0.55888
0.487138
-0.420098
0.429014
-0.30095
0.388675
-0.209909
0.362906
-0.142015
0.349354
-0.0889834
0.341586
-0.0569378
-0.0397722
0.77896
-0.641713
-0.912478
0.653677
-0.575463
0.54615
-0.451353
0.46082
-0.334769
0.3977
-0.237829
0.353836
-0.166045
0.325262
-0.113441
0.309211
-0.0729326
0.299708
-0.0474347
-0.0335629
0.752958
-0.492447
-0.902224
0.61752
-0.440026
0.506109
-0.339942
0.419982
-0.248641
0.357308
-0.175155
0.313676
-0.122413
0.284686
-0.0844513
0.267397
-0.0556434
0.256737
-0.036775
-0.0265503
0.685093
-0.345842
-0.831698
0.552681
-0.307614
0.446416
-0.233677
0.365937
-0.168162
0.308163
-0.117382
0.267926
-0.0821759
0.240732
-0.057257
0.223704
-0.0386154
0.212744
-0.0258151
-0.0192404
0.582614
-0.213864
-0.714591
0.462881
-0.18788
0.3693
-0.140096
0.299917
-0.0987787
0.250842
-0.0683075
0.216664
-0.0479977
0.193202
-0.0337949
0.177913
-0.0233258
0.16769
-0.0155929
-0.0122405
0.448757
-0.105525
-0.557096
0.351174
-0.0902979
0.277048
-0.0659702
0.223516
-0.0452467
0.186241
-0.0310324
0.160238
-0.0219939
0.142106
-0.0156631
0.129883
-0.0111033
0.121504
-0.00721413
-0.00622292
0.28659
-0.030221
-0.361894
0.220908
-0.0246158
0.172485
-0.0175474
0.138708
-0.0114692
0.115471
-0.00779557
0.0991101
-0.00563295
0.0875212
-0.0040742
0.0794602
-0.00304233
0.0740261
-0.00178
-0.00189768
0.101315
-0.131536
0.0766996
0.0591522
0.047683
0.0398874
0.0342545
0.0301803
0.0271379
0.0253579
0.73882
0.0102222
-0.740768
0.733074
0.0284072
0.723436
0.0467413
0.710163
0.0639052
0.69357
0.0791623
0.674077
0.092181
0.652273
0.10301
0.628714
0.112182
0.60427
0.11928
0.119797
0.845548
0.013398
-0.848724
0.837321
0.0366343
0.827288
0.0567747
0.816594
0.0745993
0.805251
0.0905049
0.792897
0.104535
0.779284
0.116623
0.764589
0.126877
0.749125
0.134744
0.137459
0.844982
0.0114253
-0.843009
0.848881
0.0327347
0.853018
0.0526377
0.85647
0.071148
0.858831
0.0881434
0.859918
0.103448
0.859594
0.116947
0.857966
0.128505
0.8553
0.13741
0.142329
0.800212
0.00930436
-0.798092
0.80582
0.0271269
0.814417
0.0440404
0.825635
0.0599302
0.839
0.0747792
0.853848
0.0885996
0.869416
0.101378
0.885049
0.112872
0.899934
0.122525
0.129786
0.737865
0.00703866
-0.7356
0.744154
0.0208384
0.754123
0.0340714
0.767503
0.0465501
0.784082
0.0581998
0.80366
0.0690223
0.825987
0.0790509
0.85062
0.0882392
0.876539
0.0966055
0.104101
0.653921
0.00485391
-0.651736
0.660203
0.0145561
0.670378
0.0238963
0.684221
0.0327074
0.701525
0.0408959
0.722111
0.0484359
0.745805
0.0553567
0.772329
0.0617158
0.801216
0.0677185
0.0736185
0.549112
0.00291604
-0.547174
0.554812
0.00885588
0.564138
0.0145705
0.576905
0.01994
0.592915
0.0248867
0.611968
0.0293826
0.633871
0.033454
0.658406
0.0371801
0.685379
0.040746
0.0444057
0.422793
0.0013757
-0.421252
0.427413
0.00423593
0.435008
0.0069756
0.445422
0.00952586
0.45847
0.0118388
0.473957
0.0138957
0.491697
0.0157138
0.511527
0.0173497
0.533346
0.0189271
0.020656
0.273828
0.000366652
-0.272819
0.276915
0.00114943
0.281999
0.00189174
0.288955
0.00256942
0.29763
0.00316447
0.307856
0.00366915
0.319482
0.00408805
0.332395
0.00443667
0.346562
0.00476039
0.00532319
0.100484
-0.100117
0.101633
0.103525
0.106094
0.109259
0.112928
0.117016
0.121453
0.126213
0.0779285
0.159505
-0.142493
-0.094941
0.0630254
0.147461
-0.132558
0.0496167
0.134407
-0.120998
0.0376022
0.120333
-0.108318
0.0270257
0.105171
-0.0945944
0.0179774
0.0888945
-0.0798461
0.0105726
0.0714606
-0.0640558
0.00496319
0.0528094
-0.0472
0.00134799
0.0328743
-0.0292591
0.0116389
-0.0102909
0.0779388
0.174434
-0.092868
0.0638697
0.16153
0.0508388
0.147437
0.0389375
0.132234
0.0282757
0.115833
0.0190001
0.0981701
0.0112895
0.0791712
0.00535955
0.0587393
0.00147721
0.0367566
0.0131161
0.0731783
0.187929
-0.0866726
0.0603692
0.174339
0.0483499
0.159457
0.0372484
0.143335
0.027203
0.125878
0.0183792
0.106994
0.0109766
0.0865738
0.00523535
0.0644806
0.00144963
0.0405423
0.0145658
0.0667702
0.200353
-0.0791948
0.0550326
0.186077
0.0440491
0.17044
0.0339215
0.153463
0.0247664
0.135033
0.0167269
0.115033
0.00998166
0.0933191
0.00475147
0.0697108
0.00130966
0.0439841
0.0158754
0.059312
0.211657
-0.0706155
0.048715
0.196674
0.0388672
0.180288
0.029841
0.162489
0.0217242
0.14315
0.0146295
0.122128
0.00870233
0.0992463
0.00412645
0.0742866
0.00113097
0.0469796
0.0170064
0.0505977
0.221521
-0.0604616
0.0414108
0.205861
0.0329274
0.188772
0.0251972
0.170219
0.0182837
0.150064
0.0122721
0.12814
0.00727496
0.104243
0.00343653
0.0781251
0.000937285
0.0494789
0.0179437
0.040457
0.229564
-0.0484999
0.0330125
0.213305
0.0261763
0.195608
0.0199772
0.176418
0.0144573
0.155583
0.00967743
0.13292
0.00572043
0.1082
0.00269377
0.0811517
0.00073184
0.0514408
0.0186755
0.029054
0.235441
-0.0349315
0.0236511
0.218708
0.0187146
0.200544
0.0142551
0.180878
0.0102962
0.159542
0.00687752
0.136338
0.0040556
0.111022
0.00190427
0.0833031
0.000515283
0.0528298
0.0191908
0.0169174
0.238926
-0.0204018
0.0137418
0.221884
0.0108549
0.203431
0.00825481
0.183478
0.00595148
0.161846
0.0039665
0.138323
0.00233219
0.112657
0.00109067
0.0845446
0.000293243
0.0536272
0.019484
0.00482786
-0.00589045
0.00388044
0.00303405
0.00228343
0.00162818
0.00107202
0.000621629
0.000285834
7.49731e-05
0.043677
0.0414198
-0.0525771
-0.0325197
0.0352966
0.0383701
-0.0299897
0.0276228
0.0349694
-0.0272957
0.0208833
0.0313528
-0.0246132
0.015081
0.0277835
-0.0219812
0.00997439
0.0242241
-0.0191176
0.0054444
0.0200876
-0.0155576
0.00197732
0.0144743
-0.0110072
0.000387097
0.00740094
-0.00581072
0.00208959
-0.00170249
0.0437659
0.0505935
-0.0529396
0.0351117
0.0470243
0.0270677
0.0430134
0.0199165
0.038504
0.0139756
0.0337244
0.00925317
0.0289466
0.00550435
0.0238364
0.00257672
0.0174019
0.0006221
0.00935557
0.00271169
0.0449353
0.0601515
-0.0544933
0.0360106
0.055949
0.0277703
0.0512538
0.0203307
0.0459436
0.0140176
0.0400375
0.00909626
0.0338679
0.00551334
0.0274193
0.00289156
0.0200237
0.000809514
0.0114376
0.00352121
0.0473557
0.070338
-0.0575422
0.0379203
0.0653845
0.0293509
0.0598231
0.0216855
0.053609
0.0150488
0.0466742
0.00969965
0.0392171
0.00576017
0.0313588
0.0029578
0.0228261
0.000874681
0.0135207
0.00439589
0.0508208
0.0812633
-0.0617461
0.0407182
0.0754871
0.0316021
0.0689391
0.0235352
0.061676
0.0165401
0.0536693
0.0107434
0.0450138
0.00628021
0.035822
0.00306046
0.0260458
0.000880011
0.0157012
0.0052759
0.0545201
0.0928591
-0.066116
0.0438001
0.0862071
0.0341191
0.0786201
0.025552
0.0702431
0.0181204
0.0611009
0.0118805
0.0512537
0.00692719
0.0407753
0.00327779
0.0296952
0.000908268
0.0180707
0.00618417
0.0575764
0.10494
-0.069657
0.0464179
0.0973656
0.0363159
0.0887221
0.0273304
0.0792286
0.0194973
0.068934
0.012867
0.057884
0.00751899
0.0461232
0.00352472
0.0336895
0.000959456
0.020636
0.00714362
0.0596352
0.117266
-0.0719613
0.0482589
0.108742
0.0379175
0.0990636
0.0286561
0.08849
0.0205265
0.0770636
0.0135978
0.0648128
0.007961
0.05176
0.00372152
0.037929
0.00100523
0.0233523
0.00814885
0.0614506
0.129719
-0.0739035
0.0499537
0.120239
0.0394053
0.109612
0.0298768
0.0980185
0.0214545
0.0854858
0.0142355
0.0720318
0.00833418
0.0576613
0.00388441
0.0423788
0.00104186
0.0261948
0.00919071
0.0663078
-0.0790817
0.0539887
0.0426027
0.0323032
0.0231946
0.0153802
0.00898575
0.00416451
0.00110023
0.213704
0.0622075
-0.0779214
0.23636
0.0905784
-0.113235
0.260874
0.124231
-0.148745
0.277138
0.111756
-0.128019
0.276318
0.109178
-0.108359
0.253305
0.178458
-0.155445
0.21903
0.293615
-0.259339
0.174917
0.412609
-0.368496
0.118453
0.494769
-0.438305
0.461796
-0.395921
0.213049
0.0471484
0.234624
0.0690038
0.258249
0.100605
0.275191
0.0948145
0.275977
0.108392
0.253705
0.200729
0.219233
0.328087
0.174659
0.457183
0.118107
0.551321
0.526964
0.212824
0.0323144
0.233554
0.0482735
0.256339
0.0778201
0.273281
0.0778728
0.274392
0.10728
0.252506
0.222615
0.217976
0.362617
0.173336
0.501824
0.117881
0.606776
0.590351
0.212962
0.0173419
0.233148
0.0280878
0.255204
0.0557638
0.27165
0.0614271
0.271883
0.107048
0.249846
0.244652
0.215422
0.397041
0.171343
0.545903
0.11837
0.659749
0.651179
0.213324
0.00200806
0.233246
0.00816551
0.254628
0.0343816
0.269949
0.046106
0.268366
0.108631
0.245798
0.267221
0.211775
0.431063
0.169101
0.588577
0.119709
0.709141
0.709141
0.213723
-0.0137248
0.233616
-0.0117275
0.254278
0.013719
0.267824
0.0325601
0.26374
0.112715
0.240476
0.290485
0.207296
0.464244
0.166888
0.628985
0.121435
0.754595
0.76446
0.213979
-0.0297136
0.23405
-0.0317987
0.253868
-0.00609884
0.265038
0.02139
0.257988
0.119765
0.234095
0.314378
0.202266
0.496072
0.164689
0.666563
0.122653
0.796631
0.817456
0.214002
-0.0457262
0.234432
-0.0522285
0.253178
-0.0248447
0.261354
0.0132138
0.251037
0.130082
0.226782
0.338633
0.196736
0.526117
0.162072
0.701227
0.122338
0.836365
0.867833
0.213818
-0.0615544
0.234752
-0.0731625
0.252092
-0.0421852
0.256806
0.00850045
0.243153
0.143735
0.218905
0.362882
0.190818
0.554203
0.158608
0.733437
0.120092
0.874881
0.914021
0.213692
-0.0772569
0.234979
-0.0944488
0.250604
-0.0578109
0.251064
0.00804094
0.23381
0.160989
0.20983
0.386862
0.183582
0.580452
0.153426
0.763593
0.116419
0.911888
0.951358
0.331968
-0.107215
0.370619
-0.133099
0.407043
-0.0942348
0.42437
-0.00928606
0.438776
0.146582
0.467385
0.358253
0.506584
0.541252
0.549578
0.720599
0.581376
0.880091
0.946228
0.586506
0.333674
-0.138879
0.373277
-0.172702
0.408477
-0.129435
0.421958
-0.0227669
0.43526
0.13328
0.475848
0.317665
0.534254
0.482846
0.604459
0.650394
0.675404
0.809146
0.888642
0.73299
0.336391
-0.17326
0.375573
-0.211884
0.408947
-0.162808
0.416694
-0.0305145
0.42699
0.122985
0.473823
0.270832
0.546416
0.410253
0.638788
0.558021
0.74228
0.705654
0.784506
0.846417
0.340537
-0.211787
0.373506
-0.244853
0.38423
-0.173532
0.38019
-0.0264751
0.39879
0.104386
0.452798
0.216824
0.534063
0.328988
0.640484
0.451601
0.767067
0.579071
0.647082
0.90449
0.348519
-0.258295
0.356636
-0.252971
0.337489
-0.154385
0.33407
-0.0230563
0.358447
0.0800084
0.413962
0.161309
0.497201
0.245748
0.607852
0.34095
0.743724
0.443199
0.495874
0.894932
0.340774
-0.297059
0.321174
-0.23337
0.287866
-0.121077
0.283828
-0.0190181
0.308826
0.0550101
0.361042
0.109093
0.439718
0.167072
0.54574
0.234929
0.678757
0.310182
0.347989
0.826642
0.314275
-0.309324
0.271569
-0.190664
0.233598
-0.0831063
0.228544
-0.0139649
0.250979
0.0325751
0.296128
0.0639447
0.36459
0.0986099
0.458318
0.141201
0.578794
0.189706
0.215106
0.711677
0.273774
-0.281088
0.212883
-0.129773
0.174327
-0.0445505
0.168739
-0.00837751
0.186214
0.0151004
0.220941
0.0292181
0.274161
0.0453895
0.348679
0.0666824
0.447049
0.0913368
0.106139
0.556015
0.214648
-0.193725
0.140477
-0.0556018
0.10936
-0.0134338
0.104066
-0.00308348
0.115334
0.00383291
0.137258
0.00729327
0.171089
0.011559
0.219969
0.0178025
0.286339
0.0249663
0.0304075
0.362071
0.108285
0.052683
0.0392492
0.0361657
0.0399986
0.0472919
0.0588508
0.0766533
0.10162
0.132027
0.60866
-0.117095
0.632323
-0.116531
0.65514
-0.109489
0.676291
-0.100346
0.695234
-0.0895587
0.711371
-0.0765981
0.724263
-0.0613928
0.73359
-0.044258
0.739075
-0.0258867
-0.00758336
0.750323
-0.134428
0.765225
-0.131433
0.779427
-0.123691
0.79265
-0.113569
0.804713
-0.101621
0.815848
-0.0877333
0.826403
-0.0719477
0.836392
-0.0542471
0.844841
-0.0343354
-0.0114667
0.851037
-0.139048
0.853479
-0.133875
0.854993
-0.125205
0.85537
-0.113946
0.854521
-0.100773
0.852621
-0.0858328
0.849895
-0.0692217
0.846738
-0.0510905
0.843946
-0.0315429
-0.0105298
0.892547
-0.127105
0.878531
-0.11986
0.863852
-0.110526
0.849289
-0.0993822
0.835445
-0.086929
0.823019
-0.0734066
0.812635
-0.0588383
0.804756
-0.0432111
0.799744
-0.0265314
-0.00887715
0.870306
-0.102479
0.845546
-0.0950994
0.821943
-0.0869225
0.800488
-0.0779277
0.781654
-0.0680941
0.765714
-0.0574669
0.75289
-0.0460142
0.743403
-0.0337242
0.737523
-0.0206518
-0.00695369
0.796996
-0.0728326
0.768932
-0.0670363
0.743121
-0.0611114
0.720037
-0.0548429
0.699971
-0.0480287
0.683112
-0.0406075
0.669641
-0.0325438
0.659769
-0.0238516
0.653726
-0.0146086
-0.00496386
0.682983
-0.0441391
0.656499
-0.0405523
0.632401
-0.0370128
0.610878
-0.0333203
0.592145
-0.0292955
0.576396
-0.0248581
0.563828
-0.0199764
0.554646
-0.0146697
0.549043
-0.00900564
-0.00309481
0.53251
-0.0206337
0.510908
-0.0189508
0.491275
-0.0173796
0.473704
-0.015749
0.458351
-0.0139423
0.445397
-0.0119047
0.435037
-0.00961625
0.427458
-0.0070909
0.422824
-0.00437157
-0.00152292
0.346789
-0.00535166
0.332648
-0.00480908
0.319753
-0.00448488
0.308137
-0.0041336
0.297909
-0.00371367
0.289215
-0.00321088
0.282219
-0.00262003
0.277075
-0.00194741
0.273913
-0.00120947
-0.000429234
0.126675
0.121866
0.117382
0.113248
0.109534
0.106323
0.103703
0.101756
0.100546
0.000185057
0.0116093
-0.0117943
0.000623737
0.0304466
-0.0308852
0.00123716
0.0462418
-0.0468552
0.00197733
0.0594677
-0.0602078
0.00277662
0.0700217
-0.070821
0.00376954
0.0798893
-0.0808822
0.00396349
0.0772675
-0.0774614
0.00408486
0.0700426
-0.070164
0.00394498
0.0610798
-0.06094
0.0499562
0.00350723
-0.0495184
0.000533397
0.0110759
0.00180387
0.0291761
0.00358509
0.0444606
0.00574126
0.0573115
0.00807285
0.0676901
0.0110397
0.0769225
0.011676
0.0766311
0.0120809
0.0696377
0.0117737
0.0613871
0.0510786
0.0106513
0.000835501
0.0102404
0.00283184
0.0271797
0.00563914
0.0416533
0.00904159
0.053909
0.0127395
0.0639922
0.0172475
0.0724145
0.0187903
0.0750884
0.0195719
0.0688561
0.0193857
0.0615732
0.052435
0.0180293
0.00105598
0.00918438
0.00359703
0.0246387
0.00719367
0.0380567
0.0115559
0.0495468
0.0163567
0.0591914
0.0217479
0.0670233
0.0250729
0.0717634
0.0263552
0.0675737
0.0266035
0.061325
0.0535669
0.0254717
0.00115146
0.00803292
0.00397935
0.0218108
0.0080418
0.0339942
0.0129971
0.0445916
0.0185519
0.0536367
0.0245578
0.0610174
0.0299525
0.0663687
0.0320904
0.0654358
0.0330118
0.0604036
0.0540916
0.032487
0.0011115
0.00692143
0.00396604
0.0189563
0.00818569
0.0297746
0.0133904
0.0393868
0.0193183
0.0477088
0.0257723
0.0545633
0.0324164
0.0597247
0.0363131
0.0615391
0.0381249
0.0585918
0.0537077
0.0385089
0.000926237
0.00599519
0.00357299
0.0163095
0.00771073
0.0256368
0.0128819
0.0342157
0.0187869
0.0418038
0.0253385
0.0480117
0.0323215
0.0527417
0.0382759
0.0555846
0.0415882
0.0552795
0.0521836
0.0431123
0.000567813
0.00542738
0.00278658
0.0140908
0.00665745
0.021766
0.0116213
0.0292519
0.0172043
0.0362208
0.0234474
0.0417685
0.0302863
0.0459029
0.0371846
0.0486863
0.0425623
0.0499019
0.0489244
0.0458214
0.000103725
0.00532366
0.0017684
0.0124261
0.00517544
0.0183589
0.00981453
0.0246128
0.0149565
0.0310788
0.0206208
0.0361043
0.0269034
0.0396203
0.0335873
0.0420023
0.0400858
0.0434035
0.0437954
0.0452147
-0.000175859
0.00549952
0.00108637
0.0111639
0.00385527
0.01559
0.00788566
0.0205824
0.0124998
0.0264647
0.0175704
0.0310337
0.0231766
0.0340141
0.0292493
0.0359296
0.0356364
0.0370164
0.0373683
0.0420635
-2.17553e-05
0.00552127
0.00113893
0.0100032
0.0032762
0.0134528
0.00641131
0.0174473
0.0102925
0.0225835
0.0148343
0.0264919
0.0199547
0.0288936
0.0254877
0.0303966
0.031226
0.0312781
0.0316936
0.0369007
0.000376544
0.00514473
0.00153001
0.00884974
0.00317825
0.0118045
0.00548856
0.015137
0.00870797
0.0193641
0.0128942
0.0223057
0.0177469
0.0240409
0.0230149
0.0251286
0.0285072
0.0257857
0.026056
0.0341448
0.000623183
0.00452155
0.00170504
0.00776788
0.00302487
0.0104847
0.00484468
0.0133172
0.00783726
0.0163715
0.0119283
0.0182146
0.0166814
0.0192879
0.021857
0.019953
0.0273229
0.0203198
0.0204012
0.0329778
0.000676596
0.00384495
0.00164217
0.00680229
0.00282247
0.00930438
0.0047076
0.011432
0.00798574
0.0130933
0.0122198
0.0139805
0.0170401
0.0144676
0.0222851
0.014708
0.0278582
0.0147467
0.0145856
0.0336738
0.000664916
0.00318003
0.00155683
0.00591037
0.00300324
0.00785797
0.00559743
0.00883785
0.00939588
0.00929487
0.0139249
0.00945145
0.0189753
0.00941715
0.0244477
0.00923569
0.0302741
0.00892024
0.00847669
0.0363831
0.000595029
0.002585
0.00172465
0.00478074
0.00408154
0.00550107
0.00754901
0.00537037
0.0118115
0.00503235
0.0166691
0.00459388
0.0220204
0.00406582
0.0278064
0.00344974
0.0339755
0.00275111
0.00198313
0.040469
0.000528592
0.0020564
0.00250258
0.00280674
0.00578015
0.00222349
0.00978667
0.00136385
0.0143857
0.000433319
0.0195319
-0.000552364
0.0251955
-0.00159777
0.0313336
-0.00268831
0.0378849
-0.00380028
-0.00492154
0.0447896
0.000885838
0.00117055
0.00363752
5.50439e-05
0.00720423
-0.00134323
0.0113948
-0.00282669
0.0161964
-0.00436835
0.02162
-0.00597598
0.0276237
-0.00760142
0.0341159
-0.00918055
0.0410134
-0.0106978
-0.0121836
0.0482755
0.00150682
-0.000336271
0.00413401
-0.00257216
0.00755644
-0.00476567
0.0117747
-0.00704493
0.0167958
-0.0093895
0.0225399
-0.01172
0.0288385
-0.0139001
0.0355705
-0.0159125
0.0427109
-0.0178382
-0.0197332
0.0502605
0.00104524
0.00313031
0.00645188
0.0109243
0.0163099
0.022288
0.0286979
0.0355727
0.0429807
0.0509001
0.0514343
0.0836927
-0.0982263
0.0773626
-0.00760223
-0.0183261
0.100024
-0.0512863
0.028625
0.113737
-0.0472159
0.0335027
0.121733
-0.0269593
0.0189629
0.125381
-0.00809972
0.00445195
0.126439
0.00335111
-0.00440903
0.126577
0.00738699
-0.00752478
0.126406
0.00800604
-0.00783466
0.00574252
-0.00625888
0.0586571
0.0591804
0.0917515
-0.0406967
0.118969
-0.078504
0.135027
-0.0632736
0.143791
-0.0357235
0.147475
-0.0117841
0.148268
0.00255855
0.148067
0.00758835
0.147552
0.00852031
0.00557338
0.0666931
0.025465
0.105156
-0.0791591
0.136213
-0.109561
0.155902
-0.0829633
0.165944
-0.0457646
0.169701
-0.0155419
0.170124
0.00213579
0.169426
0.00828698
0.168406
0.00953986
0.00588954
0.0755958
-0.016457
0.118014
-0.121577
0.151969
-0.143517
0.175426
-0.10642
0.187524
-0.0578622
0.191622
-0.01964
0.191715
0.00204225
0.190472
0.00953015
0.188874
0.0111379
0.0067645
0.0846687
-0.0647427
0.129857
-0.166765
0.165983
-0.179643
0.192754
-0.133192
0.207765
-0.0728724
0.212806
-0.0246813
0.212773
0.0020753
0.211036
0.0112671
0.208865
0.0133093
0.00821006
0.0931364
-0.11741
0.140349
-0.213978
0.178162
-0.217456
0.207498
-0.162527
0.225806
-0.0911802
0.232713
-0.0315892
0.232978
0.00181089
0.230923
0.0133217
0.228276
0.0159562
0.0101697
0.100334
-0.172955
0.149214
-0.262857
0.188407
-0.256648
0.219577
-0.193698
0.240948
-0.112551
0.250699
-0.0413399
0.251964
0.000545493
0.249919
0.0153673
0.246996
0.0188794
0.0125148
0.105913
-0.230593
0.156325
-0.313269
0.19666
-0.296984
0.2291
-0.226138
0.252871
-0.136322
0.266028
-0.054497
0.269286
-0.00271253
0.26777
0.0168834
0.26489
0.0217597
0.0150383
0.109856
-0.290189
0.161716
-0.365128
0.20295
-0.338219
0.236241
-0.259428
0.261626
-0.161707
0.278068
-0.0709392
0.284386
-0.00903014
0.284167
0.0171016
0.281797
0.0241304
0.017445
0.112485
0.165564
0.207414
0.241191
0.267528
0.286546
0.296594
0.298706
0.297507
0.0132009
0.00607751
-0.0192784
0.010991
0.00220992
0.0115125
-0.000521467
0.0129381
-0.00142564
0.0136557
-0.000717624
0.0137771
-0.00012136
0.0135536
0.000223444
0.0131859
0.000367702
0.0129203
0.000265609
0.000375456
0.0372501
0.0232138
-0.0543864
0.0315002
0.00795976
0.0340182
-0.00303948
0.0380827
-0.00549016
0.0402639
-0.0028988
0.0406711
-0.000528614
0.0400354
0.000859193
0.0390345
0.00136854
0.0380864
0.00121377
0.00126279
0.0579686
0.0480921
-0.0828469
0.0508946
0.0150337
0.0559161
-0.00806094
0.0625079
-0.012082
0.0661894
-0.00658032
0.0669605
-0.00129966
0.0659811
0.00183858
0.064406
0.00294366
0.0627762
0.00284351
0.00257758
0.0739104
0.0753933
-0.101212
0.0680971
0.020847
0.0764792
-0.0164431
0.0858314
-0.0214342
0.0911687
-0.0119177
0.0924438
-0.00257474
0.091227
0.00305541
0.089146
0.00502468
0.086909
0.00508042
0.00426604
0.0814035
-0.104237
0.0839242
0.096106
0.108175
0.11522
0.117097
0.115743
0.113243
0.110489
0.00273369
-0.000172927
-0.00256076
0.00326457
-0.000530876
0.00417681
-0.00091224
0.00548788
-0.00131107
0.00718431
-0.00169643
0.00922888
-0.00204458
0.0115855
-0.00235661
0.0141738
-0.00258835
0.016859
-0.00268517
-0.00241945
0.00778748
-0.000645704
-0.0073147
0.00923439
-0.00197778
0.0117138
-0.00339163
0.0152702
-0.00486748
0.0198845
-0.00631072
0.0254825
-0.00764261
0.0319649
-0.00883896
0.0391563
-0.00977983
0.0467678
-0.0102967
-0.010038
0.0124781
-0.00138377
-0.0117401
0.0147278
-0.00422749
0.0185608
-0.00722453
0.0240247
-0.0103315
0.0310794
-0.0133654
0.0395863
-0.0161495
0.0493283
-0.018581
0.0600518
-0.0205033
0.0714162
-0.0216611
-0.0214688
0.0168075
-0.00234772
-0.0158436
0.0197318
-0.00715174
0.024675
-0.0121678
0.0316516
-0.017308
0.0405502
-0.022264
0.0511064
-0.0267057
0.0629378
-0.0304123
0.075695
-0.0332605
0.088862
-0.0348281
-0.0338184
0.0207931
-0.0196336
0.0242927
0.0301542
0.0383179
0.0485409
0.060344
0.0730441
0.0856049
0.0959916
0.0314433
-0.0313071
0.0371116
-0.0372478
0.0255832
-0.0309041
0.0367642
0.0199251
-0.0300715
0.0357296
0.014679
-0.0286754
0.0339215
0.0100595
-0.0264668
0.0310862
0.00620454
-0.0227792
0.0266341
0.00311369
-0.0176478
0.0207386
0.00101732
-0.0136222
0.0157185
-8.68093e-05
-0.0101617
0.0112658
-0.0056425
0.0055557
0.029459
-0.025444
-0.0353221
0.0237435
-0.0251886
0.0182539
-0.0245818
0.0131682
-0.0235897
0.00873961
-0.0220382
0.00534996
-0.0193895
0.00301947
-0.0153173
0.00139633
-0.011999
0.000298086
-0.00906344
-0.00534441
0.0294302
-0.019456
-0.0354182
0.0236264
-0.0193847
0.0181093
-0.0190647
0.0129961
-0.0184765
0.00848986
-0.0175319
0.00504165
-0.0159413
0.00300346
-0.013279
0.00164415
-0.0106397
0.000582244
-0.00800152
-0.00476217
0.0313509
-0.0131931
-0.0376138
0.0253225
-0.0133562
0.0196121
-0.0133543
0.0143061
-0.0131705
0.00954328
-0.0127691
0.0056485
-0.0120465
0.00319501
-0.0108256
0.00175991
-0.00920461
0.000726397
-0.00696801
-0.00403576
0.0349541
-0.00653765
-0.0416095
0.0285805
-0.00698263
0.0225608
-0.00733462
0.0169613
-0.00757097
0.0118724
-0.00768018
0.00747882
-0.00765295
0.00413305
-0.00747977
0.00199162
-0.00706317
0.000798022
-0.0057744
-0.00323774
0.0392776
0.000570992
-0.0463863
0.0324941
-0.000199083
0.0261082
-0.000948723
0.0201946
-0.00165737
0.014814
-0.00229952
0.0100293
-0.00286828
0.00592443
-0.00337488
0.00267385
-0.00381258
0.000720593
-0.00382113
-0.00251714
0.0431199
0.00808998
-0.0506389
0.0359411
0.00697972
0.029156
0.00583637
0.0228648
0.00463389
0.0171698
0.00339543
0.0121109
0.00219062
0.00766897
0.00106706
0.00384984
6.5553e-06
0.00097987
-0.000951148
-0.00153726
0.0454023
0.0158966
-0.0532089
0.037972
0.01441
0.0309154
0.012893
0.0242685
0.0112808
0.0181744
0.00948952
0.0128199
0.00754515
0.00828417
0.00560277
0.00454235
0.00374838
0.00163283
0.00195838
9.55725e-05
0.0455565
0.0240022
-0.053662
0.0379361
0.0220304
0.0308044
0.0200247
0.0240738
0.0180114
0.0177114
0.0158519
0.0119112
0.0133453
0.00705135
0.0104626
0.00341919
0.00738055
0.00114827
0.00422931
0.00124384
0.0444952
-0.0530127
0.0365359
0.0292649
0.0226631
0.0165338
0.0107616
0.00566669