/*--------------------------------*- C++ -*----------------------------------*\
  =========                 |
  \\      /  F ield         | OpenFOAM: The Open Source CFD Toolbox
   \\    /   O peration     | Website:  https://openfoam.org
    \\  /    A nd           | Version:  13
     \\/     M anipulation  |
\*---------------------------------------------------------------------------*/
FoamFile
{
    format      ascii;
    class       volVectorField;
    location    "0.975";
    object      U;
}
// * * * * * * * * * * * * * * * * * * * * * * * * * * * * * * * * * * * * * //

dimensions      [0 1 -1 0 0 0 0];

internalField   nonuniform List<vector> 
1800
(
(0.0978001 -0.0883279 -4.48822e-20)
(0.286894 -0.24195 -3.41112e-20)
(0.473972 -0.379043 -4.85007e-19)
(0.657691 -0.500158 1.91467e-19)
(0.836612 -0.607172 7.44035e-20)
(1.00992 -0.70138 -3.90499e-20)
(1.17716 -0.783475 5.54999e-20)
(1.33794 -0.85369 1.97504e-19)
(1.4916 -0.912977 5.92314e-19)
(1.63354 -0.96692 8.10113e-19)
(0.11906 -0.0915021 -7.9109e-20)
(0.34429 -0.247708 -7.70611e-19)
(0.563281 -0.384749 3.78143e-21)
(0.775363 -0.504236 1.25734e-19)
(0.979506 -0.608922 -1.26247e-19)
(1.17522 -0.700697 7.65655e-20)
(1.36232 -0.780792 -2.80741e-19)
(1.54078 -0.850105 -5.03078e-20)
(1.71011 -0.910714 -6.936e-19)
(1.86786 -0.967058 6.29841e-19)
(0.14165 -0.0923226 4.88225e-20)
(0.403679 -0.24773 2.09287e-19)
(0.653754 -0.382116 5.43302e-19)
(0.892177 -0.497904 -1.90254e-19)
(1.11866 -0.598385 -1.4299e-19)
(1.33321 -0.685813 7.56025e-20)
(1.53606 -0.761708 9.82339e-20)
(1.72743 -0.827301 1.94051e-19)
(1.90721 -0.884807 2.73663e-21)
(2.07422 -0.937878 1.50979e-19)
(0.163906 -0.0897206 -4.57189e-20)
(0.461697 -0.239469 -2.0439e-19)
(0.741427 -0.367618 -1.81257e-19)
(1.00451 -0.476976 -1.4229e-19)
(1.25162 -0.571022 1.81301e-19)
(1.48351 -0.652128 -5.70877e-20)
(1.70093 -0.721907 -4.30994e-21)
(1.90453 -0.781624 2.90548e-21)
(2.09456 -0.833369 -1.60489e-19)
(2.27026 -0.880362 -1.05917e-19)
(0.184657 -0.0833562 -1.14034e-19)
(0.515893 -0.221807 8.76392e-20)
(0.823291 -0.33943 1.79834e-19)
(1.10931 -0.439063 2.43296e-19)
(1.37561 -0.524071 -2.8501e-19)
(1.62371 -0.596778 -3.58068e-21)
(1.85494 -0.658768 4.24951e-19)
(2.07043 -0.711264 -1.85055e-19)
(2.27083 -0.756166 -1.23984e-19)
(2.45578 -0.796401 -5.35384e-20)
(0.203189 -0.0734999 1.73587e-19)
(0.56447 -0.1952 1.02983e-18)
(0.89679 -0.298074 1.43257e-19)
(1.20351 -0.384735 -5.03127e-19)
(1.48719 -0.458226 -1.75496e-19)
(1.75003 -0.520669 6.37664e-19)
(1.9939 -0.573525 -1.45365e-19)
(2.22036 -0.617901 -4.31557e-19)
(2.43047 -0.655446 -3.16673e-19)
(2.6242 -0.688745 2.61586e-19)
(0.218898 -0.0605912 1.16339e-19)
(0.605744 -0.1607 -7.47582e-19)
(0.959312 -0.24503 -1.08559e-18)
(1.2837 -0.315798 3.83777e-19)
(1.58223 -0.375564 4.49928e-19)
(1.85767 -0.426128 -9.02014e-22)
(2.11239 -0.46874 -6.3965e-19)
(2.34829 -0.504326 2.1931e-19)
(2.56683 -0.534214 -3.64522e-19)
(2.76827 -0.560572 -3.11226e-19)
(0.231235 -0.0451722 -3.42481e-19)
(0.638198 -0.119684 -6.92591e-19)
(1.00849 -0.182294 1.21219e-18)
(1.34677 -0.2347 5.98691e-19)
(1.65693 -0.278852 -2.6975e-19)
(1.94224 -0.316136 -2.11491e-19)
(2.20543 -0.347516 0)
(2.44874 -0.37369 1.16797e-19)
(2.67398 -0.395623 -2.95837e-19)
(2.88171 -0.414971 -7.7418e-20)
(0.239766 -0.0278753 -2.04463e-19)
(0.660651 -0.0737557 5.62375e-19)
(1.04249 -0.112198 1.71005e-19)
(1.39031 -0.144289 -5.12484e-19)
(1.7084 -0.171277 -7.8418e-19)
(2.00037 -0.194054 3.66183e-20)
(2.26923 -0.213246 1.67126e-19)
(2.51752 -0.229294 -5.4683e-19)
(2.74731 -0.242785 -2.89766e-19)
(2.95953 -0.254779 -5.6359e-19)
(0.244259 -0.0094024 4.51401e-19)
(0.672451 -0.024704 3.44143e-19)
(1.0603 -0.0373616 -9.38584e-20)
(1.41303 -0.0477885 -1.29776e-20)
(1.73514 -0.0564624 -3.87501e-19)
(2.03041 -0.0637233 -8.57329e-20)
(2.30205 -0.0698104 -2.90573e-19)
(2.55275 -0.0748907 6.4655e-19)
(2.7848 -0.0791717 1.71001e-19)
(2.99945 -0.0830126 2.21999e-21)
(-0.00234133 -0.0217706 -3.54431e-20)
(0.00856952 -0.0693618 -6.98991e-20)
(0.0248464 -0.120624 -7.33396e-21)
(0.0492831 -0.17141 -3.39251e-20)
(0.0776336 -0.216825 -1.27392e-20)
(0.10646 -0.254961 -3.9009e-19)
(0.135471 -0.288884 -1.95666e-20)
(0.166252 -0.322205 1.19953e-19)
(0.199079 -0.35574 1.09382e-20)
(0.232969 -0.388128 -3.57026e-20)
(0.000852002 -0.0246649 -9.77634e-20)
(0.0149303 -0.0850519 -2.13725e-19)
(0.0393435 -0.160439 -5.29135e-20)
(0.0692654 -0.225422 -1.10224e-19)
(0.0994605 -0.275714 -9.60876e-20)
(0.130402 -0.318139 -2.79204e-19)
(0.164408 -0.35914 2.00152e-19)
(0.202069 -0.400568 1.6882e-19)
(0.241571 -0.440512 -2.5705e-19)
(0.281076 -0.476912 8.14506e-20)
(0.00549734 -0.0314711 -8.54172e-20)
(0.0287724 -0.107402 -8.69454e-19)
(0.0628694 -0.196177 -1.30286e-19)
(0.0974516 -0.269072 9.24479e-20)
(0.13179 -0.327316 6.76465e-20)
(0.169609 -0.380392 -4.47596e-19)
(0.212903 -0.432446 3.53298e-20)
(0.259098 -0.481969 3.67028e-19)
(0.305441 -0.52645 -3.86761e-19)
(0.351381 -0.565859 -2.58712e-19)
(0.0113682 -0.0409672 -1.77347e-21)
(0.0466239 -0.130868 1.9025e-19)
(0.0896522 -0.22537 1.60259e-21)
(0.133079 -0.307091 -1.06918e-20)
(0.177775 -0.377935 -2.9941e-20)
(0.227224 -0.443939 8.55677e-20)
(0.28108 -0.505735 7.25335e-20)
(0.335649 -0.561027 -1.35948e-19)
(0.389704 -0.609523 9.2116e-21)
(0.443866 -0.652103 -1.04426e-20)
(0.0185084 -0.0507599 0)
(0.0672391 -0.152424 5.52021e-21)
(0.121946 -0.253652 -5.11503e-19)
(0.178698 -0.345506 5.1767e-20)
(0.237805 -0.428616 -9.44617e-21)
(0.300511 -0.505146 4.88501e-21)
(0.365306 -0.574455 -2.51527e-20)
(0.429799 -0.63553 -7.76188e-21)
(0.493933 -0.68895 0)
(0.558124 -0.734974 -2.05804e-20)
(0.0273245 -0.0596436 3.18945e-20)
(0.0918951 -0.172852 -1.54638e-19)
(0.161769 -0.282529 -4.623e-20)
(0.234632 -0.383904 -5.82598e-20)
(0.309738 -0.476776 4.95582e-20)
(0.386739 -0.561571 6.08603e-21)
(0.464245 -0.637752 8.8647e-20)
(0.540939 -0.70501 -2.17527e-20)
(0.616909 -0.763526 -6.95852e-19)
(0.692159 -0.812743 -1.00992e-20)
(0.0379736 -0.067601 6.74548e-22)
(0.121236 -0.192175 5.54658e-20)
(0.209164 -0.310618 -7.83376e-20)
(0.299928 -0.420182 -1.66799e-20)
(0.392139 -0.520681 -7.29074e-20)
(0.484782 -0.612148 -9.24414e-21)
(0.576707 -0.694356 1.0234e-20)
(0.666948 -0.767188 -2.11224e-19)
(0.755534 -0.830323 3.83298e-19)
(0.842327 -0.88239 9.7125e-19)
(0.0503601 -0.0745987 1.51007e-20)
(0.155128 -0.209607 -1.42207e-19)
(0.263462 -0.335963 -2.13643e-19)
(0.373671 -0.452112 8.89634e-20)
(0.484105 -0.55827 -6.43053e-20)
(0.593549 -0.654627 9.85144e-20)
(0.70095 -0.741294 1.96486e-19)
(0.805418 -0.818327 -1.08884e-19)
(0.907032 -0.885151 -3.05827e-19)
(1.00571 -0.939577 7.25158e-19)
(0.064289 -0.0803583 -2.65179e-20)
(0.193284 -0.224024 -5.78106e-19)
(0.324296 -0.356558 5.24272e-19)
(0.455684 -0.47723 3.37457e-19)
(0.585741 -0.586747 -8.59078e-20)
(0.713228 -0.685665 3.08559e-19)
(0.837136 -0.774444 -1.59935e-19)
(0.956573 -0.853476 -7.72505e-19)
(1.07174 -0.922062 -4.03621e-19)
(1.18269 -0.977315 4.53551e-19)
(0.0795443 -0.084665 -7.98154e-20)
(0.235844 -0.234415 -5.44372e-19)
(0.392391 -0.370523 -8.32133e-21)
(0.547542 -0.492794 6.88689e-20)
(0.699596 -0.602464 3.3773e-19)
(0.847395 -0.700436 -1.85371e-19)
(0.990018 -0.787448 -1.69417e-19)
(1.12654 -0.863838 1.88936e-19)
(1.25682 -0.928667 -3.5157e-19)
(1.38008 -0.98038 -5.84477e-19)
(0.402855 -0.532293 9.81585e-19)
(0.684763 -0.618931 -2.38576e-19)
(0.913684 -0.558448 -1.41601e-19)
(1.08775 -0.432258 2.66896e-19)
(1.24053 -0.28138 -2.2945e-19)
(1.36332 -0.141029 -2.98453e-19)
(1.46264 -0.0374275 -2.6618e-19)
(1.52395 0.016219 -3.1852e-20)
(1.54794 0.0333337 -5.74611e-20)
(1.57016 0.0255899 3.07491e-20)
(0.468789 -0.620145 9.63867e-19)
(0.741372 -0.694357 7.07864e-20)
(0.966162 -0.618515 1.09928e-20)
(1.12481 -0.481561 -2.1414e-19)
(1.26579 -0.321843 -7.09717e-19)
(1.38162 -0.173944 0)
(1.48244 -0.0629814 -2.48957e-19)
(1.56165 0.000992515 5.25171e-20)
(1.60305 0.025685 4.61078e-21)
(1.64137 0.02075 3.48384e-20)
(0.556136 -0.705776 -9.98343e-19)
(0.81066 -0.767313 -7.12837e-20)
(1.02537 -0.67642 1.56377e-19)
(1.16606 -0.528673 -5.41161e-20)
(1.29122 -0.361078 -3.65947e-20)
(1.39756 -0.206747 6.39296e-20)
(1.49421 -0.0905124 0)
(1.58276 -0.0195534 0)
(1.64236 0.0120864 6.10847e-22)
(1.70478 0.012797 0)
(0.665644 -0.787491 -2.25188e-19)
(0.89549 -0.83585 4.05688e-19)
(1.09179 -0.731101 2.68479e-20)
(1.21228 -0.572598 0)
(1.31775 -0.398179 6.05397e-19)
(1.4122 -0.238377 -1.39311e-19)
(1.50139 -0.118585 0)
(1.59265 -0.0423048 1.38633e-19)
(1.65779 -0.00822843 0)
(1.75669 0.000912958 -5.42626e-20)
(0.79571 -0.864143 -1.48778e-19)
(0.997538 -0.897987 4.56536e-19)
(1.16603 -0.781404 -1.46549e-20)
(1.26361 -0.612511 0)
(1.34613 -0.432316 1.80522e-19)
(1.42609 -0.268035 2.63791e-19)
(1.50582 -0.14601 4.6727e-20)
(1.59653 -0.0652595 6.41035e-21)
(1.65659 -0.0306561 -1.61627e-20)
(1.78841 -0.0189948 3.77366e-20)
(0.942241 -0.934979 -1.33423e-18)
(1.11641 -0.952376 -9.44715e-19)
(1.2487 -0.82607 4.75214e-21)
(1.31983 -0.647697 5.76997e-19)
(1.37672 -0.462712 -3.08681e-19)
(1.4394 -0.295117 1.45869e-19)
(1.50857 -0.171857 2.26513e-19)
(1.59375 -0.0880026 -1.8736e-19)
(1.65544 -0.0519267 -1.91125e-21)
(1.7637 -0.0407529 -2.66776e-20)
(1.10011 -0.999625 -2.61296e-19)
(1.24997 -0.998833 2.87367e-19)
(1.34005 -0.863986 3.8955e-21)
(1.38061 -0.677478 -1.76588e-20)
(1.4096 -0.488627 -5.95724e-19)
(1.45212 -0.319049 5.34931e-20)
(1.50986 -0.195611 -9.48391e-20)
(1.58652 -0.108657 -2.56922e-20)
(1.6501 -0.0727303 1.42998e-20)
(1.7105 -0.0521797 -2.43119e-20)
(1.26435 -1.05697 -1.20019e-18)
(1.39472 -1.03797 2.10469e-19)
(1.43905 -0.894563 0)
(1.44498 -0.701425 3.44679e-20)
(1.44406 -0.509587 5.23984e-19)
(1.46386 -0.339428 -1.94257e-21)
(1.50862 -0.216965 -3.23222e-19)
(1.57929 -0.126745 8.17964e-20)
(1.61484 -0.0867355 -2.37045e-21)
(1.64506 -0.0581598 -7.23536e-20)
(1.43203 -1.1036 3.39084e-18)
(1.54804 -1.07068 2.45535e-19)
(1.54551 -0.918512 4.65481e-19)
(1.51319 -0.719956 -3.1791e-20)
(1.48021 -0.525747 -3.44778e-20)
(1.47415 -0.356494 -4.28148e-19)
(1.50499 -0.234722 9.97888e-20)
(1.55364 -0.142922 3.13695e-21)
(1.55674 -0.0910955 -2.42371e-20)
(1.57163 -0.0609094 8.54624e-20)
(1.59927 -1.12827 -2.99792e-18)
(1.70187 -1.09585 1.27176e-18)
(1.65388 -0.938479 -2.33757e-19)
(1.58136 -0.736561 -7.89919e-19)
(1.51503 -0.540641 -6.53681e-19)
(1.48052 -0.373961 -2.48684e-19)
(1.49453 -0.253019 -7.42828e-20)
(1.49588 -0.149374 0)
(1.48995 -0.0923417 -8.50634e-20)
(1.49302 -0.0620496 1.7578e-19)
(1.88822 -1.1703 -6.70967e-18)
(1.92742 -1.10537 -1.69119e-18)
(1.80479 -0.93265 -5.77345e-20)
(1.67305 -0.728276 1.11577e-19)
(1.56147 -0.535693 1.57197e-19)
(1.48829 -0.374522 -9.77992e-20)
(1.43668 -0.250068 -3.98683e-20)
(1.41122 -0.147612 7.83293e-20)
(1.39686 -0.0911434 -6.83962e-20)
(1.3882 -0.0618235 -8.04006e-20)
(2.28936 -1.13495 4.96006e-19)
(2.17885 -1.05689 -2.93656e-19)
(1.94258 -0.865631 4.8515e-19)
(1.73533 -0.665211 -8.26016e-20)
(1.5607 -0.481945 -1.61274e-20)
(1.42437 -0.334774 -7.7196e-20)
(1.33641 -0.224476 9.06153e-20)
(1.29426 -0.135664 -3.31764e-20)
(1.27256 -0.0851102 2.26813e-19)
(1.25376 -0.0586002 1.04922e-19)
(2.61059 -1.04367 2.27078e-18)
(2.35186 -0.94888 3.2568e-19)
(2.00796 -0.759666 -1.17492e-19)
(1.73192 -0.573211 1.693e-36)
(1.50396 -0.411562 -2.56817e-20)
(1.33714 -0.287662 1.49085e-33)
(1.23008 -0.194539 -2.19353e-20)
(1.17131 -0.120639 -1.78803e-33)
(1.14202 -0.0766389 7.22802e-21)
(1.11471 -0.0532485 -9.92463e-21)
(2.78699 -0.894014 3.88521e-33)
(2.36929 -0.795704 2.96657e-18)
(1.9733 -0.630621 1.81617e-18)
(1.65298 -0.469581 0)
(1.40562 -0.335396 8.27948e-19)
(1.22828 -0.234225 4.22439e-19)
(1.11127 -0.159392 1.70832e-19)
(1.04191 -0.101552 -3.14969e-33)
(1.00611 -0.0656384 -5.19056e-20)
(0.972176 -0.0461239 4.55429e-21)
(2.7636 -0.705922 3.84239e-18)
(2.2458 -0.629928 -1.46794e-19)
(1.84635 -0.491096 0)
(1.51526 -0.361781 0)
(1.27077 -0.255935 0)
(1.09635 -0.178758 0)
(0.979223 -0.122797 -1.29613e-20)
(0.905829 -0.0802098 -4.41103e-33)
(0.865782 -0.052762 8.20942e-21)
(0.827334 -0.037711 2.5304e-34)
(2.55114 -0.517051 3.2654e-18)
(2.02 -0.462934 0)
(1.63846 -0.353675 0)
(1.32661 -0.256762 0)
(1.10068 -0.179796 0)
(0.94113 -0.125704 0)
(0.832579 -0.0871961 3.3216e-20)
(0.761748 -0.0583006 -9.64337e-20)
(0.720892 -0.0389118 9.0888e-21)
(0.680756 -0.0285654 2.17271e-20)
(2.1901 -0.342716 0)
(1.7026 -0.30352 1.09793e-18)
(1.36123 -0.227621 1.09011e-18)
(1.09123 -0.16199 0)
(0.89826 -0.112366 6.65923e-19)
(0.763677 -0.0787799 4.01782e-19)
(0.671123 -0.0552473 2.49109e-19)
(0.608708 -0.0377976 8.64951e-20)
(0.570952 -0.0253836 -4.53816e-20)
(0.532647 -0.0194296 -2.95688e-22)
(1.70285 -0.191139 -6.73877e-19)
(1.30017 -0.165597 -2.74179e-19)
(1.02502 -0.121763 1.75656e-19)
(0.81504 -0.0844331 -2.11229e-34)
(0.667642 -0.0580842 -7.7155e-20)
(0.566007 -0.0410721 3.69818e-33)
(0.495356 -0.0292326 4.87735e-20)
(0.446302 -0.0205436 9.9022e-20)
(0.415467 -0.0136738 1.03224e-20)
(0.382982 -0.0111781 -4.04517e-22)
(1.10088 -0.0758224 3.40807e-18)
(0.823153 -0.0626798 -1.86603e-19)
(0.640565 -0.0442961 -5.89043e-19)
(0.506126 -0.0289853 0)
(0.413799 -0.019565 -6.40202e-19)
(0.350585 -0.0141373 -4.32169e-19)
(0.306034 -0.0104013 -2.04587e-19)
(0.274282 -0.0077349 -1.46185e-19)
(0.253724 -0.00507747 1.92542e-19)
(0.231352 -0.00463777 -3.86587e-20)
(0.397351 -0.00331885 0)
(0.287865 0.00159452 0)
(0.220887 0.0040944 0)
(0.173545 0.00624848 0)
(0.142371 0.0058597 0)
(0.121177 0.00472128 0)
(0.105825 0.00370793 5.58725e-20)
(0.0944476 0.00264325 -2.17319e-34)
(0.0868046 0.00244063 1.2772e-20)
(0.0781587 0.00112236 1.13909e-20)
(3.3671 -0.0863126 5.39218e-19)
(3.32642 -0.265088 -8.4188e-20)
(3.24735 -0.430659 8.52084e-19)
(3.13238 -0.582162 -6.04747e-19)
(2.98634 -0.718131 6.66399e-19)
(2.81524 -0.836391 2.75249e-19)
(2.62661 -0.934071 -1.92742e-18)
(2.42952 -1.00786 -7.74971e-20)
(2.22469 -1.0537 0)
(1.98487 -1.06659 4.25984e-19)
(3.86191 -0.0750611 7.07367e-18)
(3.79859 -0.234217 1.95629e-18)
(3.70428 -0.387316 -4.86734e-18)
(3.58426 -0.531999 -4.49148e-19)
(3.44239 -0.665904 3.55898e-18)
(3.28186 -0.787334 1.92356e-18)
(3.10651 -0.895086 -5.1689e-18)
(2.92205 -0.987727 -1.95227e-18)
(2.72761 -1.06342 2.20324e-18)
(2.49239 -1.12056 8.52208e-19)
(3.83307 -0.0533025 -1.2626e-19)
(3.82024 -0.171569 4.40352e-18)
(3.78545 -0.299766 -1.08813e-18)
(3.72433 -0.430925 -3.44615e-18)
(3.63617 -0.558738 -6.79978e-18)
(3.52371 -0.678812 1.02787e-17)
(3.39117 -0.788806 4.18059e-18)
(3.2435 -0.888004 -3.91187e-18)
(3.08161 -0.978743 -2.90281e-18)
(2.88723 -1.06304 -3.42514e-18)
(3.62866 -0.0472875 -4.83934e-18)
(3.61961 -0.144934 -4.35337e-18)
(3.59963 -0.243743 5.47204e-18)
(3.56735 -0.343099 1.91183e-18)
(3.5224 -0.442384 -8.97101e-18)
(3.46415 -0.540816 4.92125e-19)
(3.39181 -0.637057 3.88626e-18)
(3.3051 -0.730445 -1.05388e-18)
(3.20497 -0.823081 1.27675e-18)
(3.08303 -0.914794 2.81781e-19)
(3.34405 -0.0365797 -9.1598e-19)
(3.339 -0.111657 3.00406e-18)
(3.3271 -0.188678 1.61956e-18)
(3.30744 -0.267173 -1.89424e-18)
(3.27986 -0.346072 -2.00133e-18)
(3.24465 -0.42414 -2.4339e-18)
(3.20203 -0.50034 3.79642e-19)
(3.15174 -0.574502 1.39046e-19)
(3.09547 -0.64777 -2.1396e-18)
(3.03284 -0.721319 -2.03425e-18)
(2.96257 -0.0265557 -1.82247e-18)
(2.95981 -0.0798899 -5.87277e-20)
(2.9533 -0.1346 -1.6375e-18)
(2.9424 -0.190904 3.12134e-19)
(2.92675 -0.248551 5.36775e-18)
(2.90629 -0.306931 -3.66743e-19)
(2.88091 -0.365117 4.43372e-20)
(2.85022 -0.422062 -2.60855e-18)
(2.81643 -0.476887 -3.49556e-18)
(2.78599 -0.52987 3.7287e-19)
(2.48713 -0.0175116 -2.89323e-20)
(2.48578 -0.0519355 -8.143e-19)
(2.48259 -0.0872488 -2.6148e-18)
(2.47707 -0.123772 -3.43097e-18)
(2.4688 -0.161534 2.49651e-18)
(2.45744 -0.200268 1.50223e-18)
(2.44261 -0.239354 -1.38506e-18)
(2.4237 -0.277792 1.62448e-18)
(2.40274 -0.314485 -4.29699e-19)
(2.38952 -0.349543 -9.63759e-19)
(1.91464 -0.00968892 7.72442e-19)
(1.91408 -0.028298 -8.31781e-19)
(1.91278 -0.04744 -3.2768e-20)
(1.91032 -0.0673593 -3.47241e-20)
(1.90624 -0.0881303 -7.27403e-20)
(1.90013 -0.109615 -2.33191e-18)
(1.89151 -0.131405 -6.7867e-19)
(1.87978 -0.152783 2.62609e-18)
(1.86664 -0.172976 -6.03509e-19)
(1.86191 -0.192208 -1.35115e-18)
(1.23989 -0.00373787 -1.64278e-18)
(1.23967 -0.0106958 -8.48893e-19)
(1.23923 -0.0179013 2.33915e-18)
(1.23823 -0.0254786 -8.89758e-19)
(1.23625 -0.0334753 -6.74111e-19)
(1.2329 -0.0418316 1.35201e-18)
(1.22775 -0.05035 -1.29588e-18)
(1.22038 -0.0586655 1.28698e-18)
(1.21202 -0.0663427 -1.21032e-18)
(1.21007 -0.0735086 -4.2483e-18)
(0.454917 -0.000257999 6.63065e-19)
(0.454827 -0.000700545 7.03038e-19)
(0.454692 -0.00115912 7.48165e-19)
(0.454325 -0.00164005 1.35394e-18)
(0.453496 -0.00214017 -6.71973e-19)
(0.451984 -0.00263717 -1.2996e-18)
(0.449568 -0.00309908 6.14708e-19)
(0.445993 -0.0035929 2.48375e-20)
(0.441737 -0.0043922 -4.96535e-20)
(0.44035 -0.00504562 1.1057e-19)
(1.65357 0.997308 -2.85849e-19)
(1.51228 0.941885 1.79914e-20)
(1.3588 0.880765 -2.28806e-19)
(1.19768 0.808451 1.76295e-19)
(1.02958 0.723987 -1.91809e-19)
(0.854826 0.627081 -1.01076e-19)
(0.673759 0.516944 2.31967e-19)
(0.487035 0.392147 -3.04866e-19)
(0.29589 0.250642 3.09879e-19)
(0.101429 0.091643 2.38686e-19)
(1.8864 0.992214 0)
(1.72969 0.934757 6.39446e-19)
(1.56084 0.872781 3.32698e-19)
(1.38229 0.801861 1.62626e-19)
(1.19453 0.719882 4.31081e-19)
(0.997534 0.6259 -8.68377e-20)
(0.79136 0.518602 -7.85252e-20)
(0.576345 0.395989 8.87328e-20)
(0.353316 0.255174 -1.04513e-18)
(0.122697 0.0943544 -1.66636e-20)
(2.09105 0.959053 1.568e-19)
(1.92524 0.905079 0)
(1.74614 0.846469 -1.00729e-19)
(1.55494 0.779554 -3.83292e-19)
(1.3517 0.702085 5.3702e-20)
(1.13609 0.61279 3.97058e-19)
(0.907782 0.510088 -6.06833e-19)
(0.666588 0.391637 -2.00885e-19)
(0.412594 0.254043 7.83573e-19)
(0.14525 0.0947344 -1.75919e-19)
(2.28485 0.898363 1.87919e-19)
(2.11045 0.850567 1.19663e-20)
(1.9213 0.797865 2.45298e-20)
(1.71811 0.737003 3.6078e-20)
(1.50058 0.665856 -2.93001e-20)
(1.26792 0.583132 2.7323e-19)
(1.01926 0.487167 -2.06868e-19)
(0.753673 0.375529 -8.55532e-19)
(0.470269 0.244677 0)
(0.167387 0.0916959 0)
(2.46796 0.811824 -1.07087e-18)
(2.28436 0.770839 -6.09278e-19)
(2.08493 0.725063 -1.20691e-19)
(1.87003 0.671523 -6.65689e-20)
(1.6389 0.608295 0)
(1.39031 0.534136 2.40739e-19)
(1.12275 0.447433 2.67763e-19)
(0.834553 0.345834 2.86226e-19)
(0.523838 0.225952 -4.23723e-19)
(0.187907 0.0848976 -8.12305e-20)
(2.634 0.702096 7.66469e-19)
(2.44156 0.668065 -1.39168e-19)
(2.23244 0.62968 -2.21599e-19)
(2.00664 0.584306 0)
(1.76301 0.530279 0)
(1.49987 0.466487 0)
(1.21522 0.391463 -3.89784e-20)
(0.906682 0.303089 3.70271e-19)
(0.571497 0.198347 3.79147e-19)
(0.206082 0.0746239 -3.08558e-19)
(2.7758 0.572357 -1.1936e-18)
(2.5755 0.545261 -1.48141e-18)
(2.35786 0.51453 -3.03376e-22)
(2.1226 0.477946 -1.87648e-19)
(1.86818 0.434181 -9.28774e-20)
(1.59257 0.382317 -1.78829e-19)
(1.29332 0.321124 4.59077e-19)
(0.967487 0.248836 2.14862e-19)
(0.611582 0.162966 5.40011e-19)
(0.221314 0.06134 2.02847e-19)
(2.88707 0.425749 -1.15709e-18)
(2.68027 0.405633 8.47038e-20)
(2.45576 0.38282 1.64527e-19)
(2.21296 0.355611 1.68138e-20)
(1.95004 0.32305 -3.14393e-19)
(1.66465 0.284468 -1.742e-19)
(1.35397 0.238937 -6.21195e-19)
(1.01463 0.18514 1.18529e-19)
(0.642603 0.121236 5.1473e-20)
(0.233065 0.0456125 -6.26925e-21)
(2.96279 0.265187 1.01367e-19)
(2.7512 0.252354 3.96999e-19)
(2.52189 0.237904 -3.3029e-19)
(2.27394 0.22074 3.63004e-19)
(2.00523 0.200296 3.72541e-19)
(1.71322 0.176176 4.91887e-19)
(1.39481 0.147809 -6.35729e-19)
(1.04633 0.114389 -3.24409e-19)
(0.66341 0.0748095 -4.58505e-20)
(0.240915 0.028095 -3.26988e-19)
(3.00052 0.093577 5.81811e-19)
(2.78612 0.0887854 -1.86162e-19)
(2.55425 0.0834437 4.79557e-19)
(2.30366 0.0771499 -3.10657e-19)
(2.03208 0.0697276 2.66476e-19)
(1.73679 0.0610616 6.05398e-19)
(1.41457 0.0509782 3.78878e-19)
(1.06161 0.0392345 3.09336e-19)
(0.673395 0.0255065 2.65857e-19)
(0.244653 0.0095072 5.43605e-19)
(0.239686 0.452351 -4.69357e-19)
(0.204072 0.418619 -1.88027e-19)
(0.168489 0.381517 1.39271e-19)
(0.134942 0.343829 -4.19103e-19)
(0.105196 0.307685 -1.19336e-19)
(0.0782972 0.27043 6.92935e-19)
(0.0519229 0.224025 3.3576e-19)
(0.0259965 0.159145 -1.54932e-19)
(0.00706878 0.0797681 1.15016e-19)
(-0.0011204 0.0224667 -6.07868e-20)
(0.288684 0.544656 4.11592e-19)
(0.248778 0.507852 4.58661e-19)
(0.208227 0.46579 -1.15108e-20)
(0.16789 0.418739 -1.32944e-19)
(0.131156 0.370584 -3.14023e-19)
(0.100619 0.32296 8.2868e-20)
(0.0734941 0.269618 2.25508e-19)
(0.0459175 0.197137 1.65692e-19)
(0.0183612 0.102009 -5.91543e-19)
(0.00279811 0.0289111 -1.23704e-19)
(0.359648 0.633469 -6.01122e-19)
(0.313787 0.593308 -4.81646e-19)
(0.267995 0.547456 2.5795e-19)
(0.221358 0.494129 1.38545e-19)
(0.175811 0.434337 -6.2605e-21)
(0.136271 0.372091 -1.40339e-19)
(0.10212 0.305786 -2.97292e-20)
(0.0684441 0.225032 -5.54811e-19)
(0.033687 0.126122 -2.6931e-19)
(0.00764773 0.0378361 -3.90497e-20)
(0.454185 0.718191 5.03503e-19)
(0.400033 0.673979 1.64749e-19)
(0.346345 0.622948 -1.49535e-19)
(0.292216 0.563881 6.32165e-20)
(0.237742 0.495756 -6.31918e-22)
(0.186583 0.421045 1.2693e-21)
(0.140103 0.34079 -1.32595e-19)
(0.0954627 0.250347 3.77979e-19)
(0.0514449 0.147802 -4.19092e-19)
(0.013589 0.0477382 -6.4998e-20)
(0.571979 0.798126 -2.82191e-19)
(0.507836 0.750013 -8.88768e-20)
(0.44356 0.693143 -1.43712e-20)
(0.378955 0.627398 -7.05806e-20)
(0.313712 0.552113 5.87042e-20)
(0.24966 0.468185 5.29958e-20)
(0.18838 0.376803 -2.80211e-20)
(0.129327 0.276713 -2.81907e-19)
(0.0725333 0.16768 2.1825e-19)
(0.0209247 0.0568561 8.7231e-20)
(0.709403 0.871166 6.43201e-19)
(0.634357 0.819763 3.2056e-19)
(0.558123 0.757574 2.02629e-19)
(0.480851 0.685486 4.8233e-20)
(0.402411 0.603626 1.55412e-19)
(0.323871 0.512436 7.87729e-20)
(0.246469 0.41257 1.43654e-19)
(0.170868 0.303946 5.79534e-20)
(0.0980576 0.18682 -1.58048e-20)
(0.0300011 0.0650385 -1.32497e-20)
(0.862023 0.935039 -1.19789e-19)
(0.775544 0.880822 -8.24173e-19)
(0.686706 0.814175 -7.54625e-20)
(0.595728 0.736909 -5.30683e-20)
(0.502565 0.649688 -1.99796e-20)
(0.408128 0.552755 1.51722e-19)
(0.313481 0.44634 -4.38027e-20)
(0.219713 0.33043 6.49332e-20)
(0.128296 0.205089 -1.44624e-19)
(0.0409061 0.0724971 -1.27714e-21)
(1.02674 0.986163 -8.84465e-19)
(0.92848 0.929746 5.94333e-20)
(0.826666 0.859791 -2.34293e-19)
(0.721471 0.778949 -7.22535e-20)
(0.612774 0.688051 -2.37129e-20)
(0.501462 0.587096 -7.52056e-20)
(0.38853 0.47591 5.62408e-20)
(0.275165 0.354205 6.02886e-20)
(0.162983 0.221562 -9.82072e-21)
(0.0535448 0.0791217 -1.03757e-19)
(1.20391 1.01803 1.23815e-19)
(1.09352 0.961021 5.22865e-19)
(0.978266 0.88978 1.54996e-21)
(0.858233 0.807597 -2.94121e-20)
(0.733152 0.715329 1.50721e-19)
(0.603896 0.612568 -3.47116e-19)
(0.471406 0.498761 -2.44313e-19)
(0.336832 0.373214 3.56076e-19)
(0.201772 0.235009 1.44163e-19)
(0.0677022 0.0845326 -3.61955e-20)
(1.40061 1.01554 7.39515e-19)
(1.27807 0.962401 3.23596e-19)
(1.14784 0.895407 5.59627e-20)
(1.01088 0.816433 -1.94745e-19)
(0.867277 0.726543 -1.64164e-20)
(0.717905 0.62535 4.65479e-19)
(0.563586 0.51201 -2.6817e-19)
(0.405341 0.385478 -1.84463e-19)
(0.244705 0.24432 3.35772e-19)
(0.0831135 0.0884404 -6.0303e-21)
(0.977833 0.099135 8.55734e-21)
(1.14011 0.142947 -2.47228e-21)
(1.21342 0.191374 -2.46749e-20)
(1.32604 0.16931 0)
(1.38016 0.154776 -8.99354e-22)
(1.28083 0.233661 -6.0235e-20)
(1.13073 0.385457 -5.48117e-20)
(0.950146 0.543674 -9.11176e-21)
(0.712081 0.648694 -3.09137e-19)
(0.41674 0.595895 4.18847e-19)
(0.983746 0.0805384 2.01485e-19)
(1.13152 0.115278 -3.28601e-20)
(1.21056 0.160934 1.88071e-21)
(1.31676 0.14948 1.03085e-20)
(1.38491 0.157046 3.12618e-21)
(1.30082 0.268482 -6.1581e-22)
(1.16062 0.435821 7.32796e-21)
(0.994592 0.606899 0)
(0.761821 0.727837 8.09596e-19)
(0.479492 0.687138 -5.71786e-19)
(0.989535 0.0622391 -1.15257e-19)
(1.12779 0.0886035 6.29705e-21)
(1.21081 0.131318 7.87664e-20)
(1.31361 0.128285 1.93136e-20)
(1.38884 0.158238 -2.33357e-20)
(1.32068 0.301388 -3.46225e-20)
(1.1935 0.484742 -1.75488e-20)
(1.04448 0.668551 4.4935e-20)
(0.823244 0.804391 -1.29546e-21)
(0.564476 0.774946 -3.57958e-19)
(0.994909 0.0435914 -8.13863e-20)
(1.12861 0.0625433 1.53234e-20)
(1.21447 0.102341 7.54191e-20)
(1.31695 0.106991 3.19302e-20)
(1.39479 0.159113 -2.40651e-20)
(1.34062 0.332309 -2.85159e-20)
(1.2298 0.531477 8.56183e-20)
(1.10039 0.727472 2.70314e-20)
(0.899897 0.876082 -5.52326e-19)
(0.673656 0.857353 -1.77402e-19)
(0.999312 0.0240879 3.59898e-20)
(1.13313 0.0366619 -4.46294e-20)
(1.22098 0.0738762 -6.72657e-20)
(1.32539 0.0864172 2.33098e-20)
(1.4019 0.160584 0)
(1.36042 0.36157 0)
(1.26965 0.575327 8.41243e-20)
(1.16352 0.782255 -2.83441e-20)
(0.994584 0.940415 -1.18653e-19)
(0.805063 0.932712 -5.73528e-20)
(1.00195 0.00353001 3.18041e-21)
(1.14019 0.0105313 5.81249e-20)
(1.22934 0.0458237 -2.06489e-19)
(1.33692 0.0670996 -7.80047e-20)
(1.40906 0.163482 -4.70748e-21)
(1.38001 0.389269 1.33758e-19)
(1.3133 0.615402 1.59228e-19)
(1.23542 0.831172 -1.80663e-20)
(1.10771 0.99559 -4.48009e-20)
(0.953735 1.00039 3.35034e-21)
(1.00192 -0.0180396 3.04219e-21)
(1.14881 -0.0162305 3.09732e-20)
(1.23863 0.0182056 -6.54453e-20)
(1.34993 0.0494978 -1.58957e-19)
(1.41542 0.168064 1.16179e-20)
(1.39972 0.41504 7.2412e-21)
(1.36139 0.650563 -6.00942e-20)
(1.31721 0.87257 -1.05362e-19)
(1.23721 1.04134 -3.15004e-20)
(1.11387 1.06054 -9.79274e-19)
(0.998779 -0.040226 1.51766e-20)
(1.15846 -0.0439335 -1.48181e-19)
(1.24827 -0.00878977 1.33019e-19)
(1.36316 0.0343238 1.04486e-19)
(1.41989 0.174782 4.98297e-21)
(1.41955 0.438383 -1.39385e-19)
(1.41382 0.679769 1.52138e-21)
(1.40821 0.905525 -1.38448e-19)
(1.37927 1.07854 1.10966e-20)
(1.27988 1.1126 2.88297e-18)
(0.992876 -0.0624999 -8.9799e-20)
(1.16914 -0.0727093 8.26159e-20)
(1.25804 -0.034963 1.92348e-19)
(1.37596 0.021673 -1.16557e-19)
(1.42306 0.183402 -2.34435e-19)
(1.44112 0.458972 9.26312e-21)
(1.47183 0.70289 1.72057e-19)
(1.50837 0.930758 -5.82048e-19)
(1.53082 1.10848 -2.68579e-20)
(1.44839 1.15354 -6.47538e-18)
(0.985199 -0.0854024 4.08358e-21)
(1.18115 -0.102554 1.45329e-19)
(1.26796 -0.060122 6.24289e-20)
(1.38728 0.0141686 -2.82702e-19)
(1.42285 0.198001 -2.51676e-19)
(1.46199 0.480368 -7.64735e-20)
(1.53106 0.723726 8.59623e-20)
(1.6115 0.951622 -1.99197e-19)
(1.68373 1.13079 -1.08544e-18)
(1.61567 1.17248 -7.95101e-18)
(0.974849 -0.116539 -1.44933e-20)
(1.1959 -0.142196 -3.37853e-20)
(1.27735 -0.0939393 -7.86075e-20)
(1.39795 0.000314195 1.50057e-19)
(1.42318 0.19747 2.07256e-19)
(1.49147 0.475727 -6.36148e-20)
(1.61181 0.713029 -1.41915e-19)
(1.75371 0.940728 -1.19792e-18)
(1.9028 1.13276 -1.59851e-18)
(1.89939 1.20881 3.28564e-18)
(0.962289 -0.155353 -4.03659e-19)
(1.2149 -0.191742 2.01422e-20)
(1.28171 -0.139904 -5.94809e-20)
(1.39824 -0.0209358 3.49777e-19)
(1.39953 0.175428 3.4897e-19)
(1.49245 0.430286 1.32691e-20)
(1.66777 0.648498 -6.34462e-20)
(1.88054 0.866247 -2.75944e-19)
(2.13954 1.07158 2.82696e-19)
(2.28457 1.16094 -3.23613e-19)
(0.949521 -0.196 -2.79259e-20)
(1.24035 -0.241719 -5.50955e-20)
(1.2813 -0.184729 3.10904e-20)
(1.39343 -0.038575 2.70053e-20)
(1.3716 0.164699 1.71257e-33)
(1.46828 0.372509 2.56025e-21)
(1.6797 0.561769 -2.02501e-33)
(1.94869 0.759847 1.84958e-19)
(2.30179 0.956538 -9.30724e-19)
(2.58734 1.05854 -6.29238e-19)
(0.937062 -0.242869 1.41069e-18)
(1.27185 -0.281898 -7.76439e-34)
(1.24994 -0.229642 -4.0882e-20)
(1.26869 -0.0380912 -2.28664e-19)
(1.25982 0.14545 -4.43566e-19)
(1.38822 0.303284 -8.77603e-19)
(1.61839 0.460383 -5.05138e-33)
(1.92881 0.63129 -1.73687e-18)
(2.32558 0.802198 -3.17774e-18)
(2.75367 0.902649 1.67501e-18)
(0.927324 -0.300521 0)
(1.3169 -0.327001 -1.62495e-33)
(1.11296 -0.207324 0)
(1.10615 -0.0304513 0)
(1.1176 0.115253 0)
(1.25795 0.2333 0)
(1.48913 0.355636 -8.04151e-33)
(1.81472 0.491695 0)
(2.2133 0.634352 -3.39672e-19)
(2.73491 0.712056 1.25738e-18)
(0.916514 -0.360814 1.1614e-19)
(1.25153 -0.326113 -4.67573e-19)
(0.960312 -0.174357 -5.52777e-20)
(0.933135 -0.026279 0)
(0.95519 0.0827681 0)
(1.08969 0.165725 6.02661e-20)
(1.30602 0.254029 1.17477e-18)
(1.61579 0.35476 -1.95054e-19)
(1.99662 0.466236 -4.95305e-19)
(2.53241 0.5205 4.67323e-18)
(0.883482 -0.405308 -1.52012e-17)
(1.09208 -0.279941 1.0861e-18)
(0.792827 -0.130644 -7.28297e-20)
(0.746485 -0.0212533 -7.21968e-20)
(0.772199 0.0525497 -5.13431e-19)
(0.889265 0.104664 -7.73233e-19)
(1.0761 0.161354 -1.0475e-18)
(1.34595 0.229057 -1.38159e-18)
(1.68757 0.306132 -1.60473e-18)
(2.17992 0.344452 3.61204e-18)
(0.809013 -0.394512 -4.13722e-19)
(0.886455 -0.207578 -1.2166e-18)
(0.605652 -0.0829227 -1.25595e-19)
(0.549351 -0.0153619 -8.42737e-20)
(0.571416 0.0276031 -9.91989e-34)
(0.661396 0.0546056 9.35619e-20)
(0.805312 0.0846285 -1.48442e-32)
(1.01616 0.122959 -1.93435e-19)
(1.29245 0.167314 2.98975e-19)
(1.69929 0.192073 7.05793e-19)
(0.664259 -0.28884 3.4255e-17)
(0.618255 -0.108099 -3.13983e-18)
(0.393426 -0.0351376 -2.40571e-19)
(0.339209 -0.00737453 -1.59696e-19)
(0.353501 0.00924087 3.94372e-19)
(0.410339 0.0183742 7.84613e-19)
(0.501115 0.0292076 7.95542e-19)
(0.636705 0.0448914 4.5991e-19)
(0.820747 0.0634584 -1.9048e-19)
(1.10156 0.0762259 3.56952e-18)
(0.33684 -0.0768225 5.58847e-19)
(0.261851 -0.0023051 -6.76612e-33)
(0.144394 0.0190762 -3.04783e-19)
(0.120355 0.00338378 0)
(0.123541 -0.00235599 0)
(0.141804 -0.00542159 9.62954e-20)
(0.172343 -0.00624905 9.37e-35)
(0.220288 -0.00417839 -1.23567e-19)
(0.288129 -0.00161963 -2.8264e-19)
(0.399012 0.00331816 1.00162e-18)
(2.00207 1.09647 -1.78995e-18)
(2.23908 1.0785 -2.30496e-18)
(2.44209 1.02913 0)
(2.63708 0.952523 -7.5796e-19)
(2.82359 0.852523 -1.78251e-18)
(2.99276 0.7324 -2.24949e-18)
(3.13709 0.595048 -4.7574e-19)
(3.25054 0.442701 1.26927e-18)
(3.32824 0.276966 -3.54789e-18)
(3.36764 0.0986983 1.35668e-18)
(2.49869 1.14204 2.67782e-19)
(2.73058 1.08197 1.39745e-18)
(2.92389 1.00424 1.43929e-19)
(3.10675 0.909829 6.75742e-19)
(3.28061 0.80068 -1.10401e-18)
(3.43997 0.678339 -5.00061e-18)
(3.58097 0.544022 2.46813e-18)
(3.70048 0.399327 1.27037e-17)
(3.79428 0.246328 1.04073e-19)
(3.8587 0.0872582 -1.07365e-17)