/*--------------------------------*- C++ -*----------------------------------*\
  =========                 |
  \\      /  F ield         | OpenFOAM: The Open Source CFD Toolbox
   \\    /   O peration     | Website:  https://openfoam.org
    \\  /    A nd           | Version:  13
     \\/     M anipulation  |
\*---------------------------------------------------------------------------*/
FoamFile
{
    format      ascii;
    class       surfaceScalarField;
    location    "0.565";
    object      phi;
}
// * * * * * * * * * * * * * * * * * * * * * * * * * * * * * * * * * * * * * //

dimensions      [0 3 -1 0 0 0 0];

internalField   nonuniform List<scalar> 
3485
(
0.00137165
-0.0112581
0.00988645
0.00505113
-0.0319069
0.0282275
0.0107642
-0.051383
0.0456699
0.0183126
-0.0696768
0.0621284
0.0275457
-0.0868347
0.0776017
0.0383491
-0.1029
0.092097
0.0506343
-0.117905
0.10562
0.0643582
-0.131869
0.118145
0.0796183
-0.144859
0.129599
-0.156892
0.139499
0.0970105
0.00150032
-0.0127584
0.00544579
-0.0358524
0.0114762
-0.0574134
0.0193236
-0.0775243
0.028773
-0.0962841
0.0396471
-0.113774
0.0518017
-0.13006
0.0651288
-0.145196
0.079537
-0.159267
-0.172195
0.0948403
0.00147417
-0.0142326
0.00532696
-0.0397052
0.0111745
-0.0632609
0.0187208
-0.0850706
0.0277254
-0.105289
0.0379887
-0.124038
0.0493449
-0.141416
0.0616544
-0.157506
0.0747852
-0.172398
-0.186035
0.0886257
0.00133885
-0.0155714
0.00485901
-0.0432253
0.0102108
-0.0686127
0.0171171
-0.0919769
0.0253539
-0.113526
0.0347404
-0.133424
0.0451306
-0.151806
0.0564043
-0.168779
0.068455
-0.184448
-0.19879
0.0812092
0.00116693
-0.0167384
0.00425598
-0.0463144
0.00897315
-0.0733299
0.0150818
-0.0980855
0.0223918
-0.120836
0.0307526
-0.141785
0.0400465
-0.1611
0.0501807
-0.178914
0.0610778
-0.195345
-0.210402
0.0726898
0.000980023
-0.0177184
0.00358796
-0.0489223
0.00758664
-0.0773286
0.012784
-0.103283
0.0190262
-0.127078
0.0261928
-0.148952
0.0341918
-0.169099
0.0429539
-0.187676
0.0524241
-0.204816
-0.220549
0.0625713
0.000780729
-0.0184991
0.00286502
-0.0510066
0.00606903
-0.0805326
0.010243
-0.107457
0.0152667
-0.132102
0.021047
-0.154732
0.0275146
-0.175566
0.034621
-0.194782
0.0423319
-0.212527
-0.228851
0.0506337
0.000569708
-0.0190688
0.00209348
-0.0525304
0.00443793
-0.082877
0.00749278
-0.110512
0.0111688
-0.135778
0.0153971
-0.15896
0.0201279
-0.180297
0.02533
-0.199984
0.0309871
-0.218184
-0.234968
0.0371039
0.000352514
-0.0194213
0.00129579
-0.0534737
0.00274507
-0.0843263
0.00462843
-0.112395
0.00688663
-0.138036
0.00947331
-0.161547
0.0123556
-0.183179
0.0155147
-0.203143
0.0189453
-0.221614
-0.238684
0.0226622
0.000137802
-0.0195591
0.000502488
-0.0538384
0.00105702
-0.0848808
0.00176963
-0.113108
0.00261385
-0.13888
0.00356857
-0.162502
0.00461832
-0.184229
0.00575358
-0.204278
0.0069709
-0.222832
0.00827536
-0.239989
0.000493229
-0.00187151
0.00137828
0.00210138
-0.00625516
0.00464701
0.00544462
-0.0114057
0.00806246
0.0101335
-0.0161698
0.0114809
0.0155619
-0.020161
0.0147326
0.0214657
-0.0235586
0.0176549
0.0279377
-0.0267399
0.0202679
0.0351247
-0.0299322
0.0227452
0.0430125
-0.0330894
0.0252016
-0.0360609
0.0514684
0.027605
0.000427593
-0.0022991
0.00211387
-0.00794145
0.00544461
-0.0147364
0.00982885
-0.020554
0.01491
-0.0252421
0.0207939
-0.0294426
0.0276522
-0.0335981
0.035434
-0.0377141
0.04393
-0.0415854
-0.0451065
0.0529756
0.000682475
-0.00298158
0.00271544
-0.00997441
0.00578416
-0.0178052
0.00977487
-0.0245447
0.0148367
-0.0303039
0.0211403
-0.0357462
0.0286173
-0.0410751
0.03699
-0.0460868
0.0460401
-0.0506356
-0.0547425
0.0556761
0.000867782
-0.00384936
0.00305972
-0.0121664
0.0060823
-0.0208277
0.01021
-0.0286724
0.0157133
-0.0358073
0.0225756
-0.0426085
0.0305559
-0.0490554
0.039418
-0.0549489
0.049066
-0.0602836
-0.0650941
0.0594177
0.000922414
-0.00477178
0.00319984
-0.0144438
0.00652109
-0.024149
0.0111226
-0.0332739
0.0171439
-0.0418286
0.0244607
-0.0499253
0.0328816
-0.0574764
0.0423087
-0.0643759
0.0526782
-0.0706532
-0.0762738
0.0638579
0.00094348
-0.00571526
0.00337238
-0.0168727
0.00709243
-0.027869
0.0121773
-0.0383588
0.0186377
-0.0482891
0.026363
-0.0576506
0.0352561
-0.0663694
0.0452693
-0.0743891
0.0563239
-0.0817077
-0.0882119
0.0682619
0.000979761
-0.00669502
0.00358387
-0.0194768
0.00764169
-0.0319269
0.0131083
-0.0438253
0.019928
-0.0551088
0.0280148
-0.0657373
0.0373065
-0.0756611
0.0477568
-0.0848395
0.0592926
-0.0932436
-0.100688
0.0717691
0.00101791
-0.00771293
0.00376764
-0.0222265
0.00807117
-0.0362304
0.0138202
-0.0495744
0.0209204
-0.062209
0.0292828
-0.0740997
0.0388379
-0.0852162
0.049529
-0.0955306
0.0612974
-0.105012
-0.113434
0.074043
0.00105458
-0.00876751
0.00393665
-0.0251086
0.00846095
-0.0407547
0.0144822
-0.0555956
0.0218742
-0.069601
0.0305266
-0.0827522
0.0403442
-0.0950338
0.0512383
-0.106425
0.0631279
-0.116902
-0.126314
0.0760081
0.00111894
0.00423781
0.00915305
0.0156858
0.0236865
0.0330313
0.0436173
0.0553376
0.0680345
0.0812199
0.114379
-0.414136
0.351226
0.168173
-0.471199
0.417406
0.210249
-0.421071
0.378994
0.243975
-0.325528
0.291802
0.270521
-0.213134
0.186588
0.290642
-0.108313
0.0881915
0.303065
-0.0279595
0.0155364
0.307354
0.0111487
-0.0154376
0.307672
0.0175628
-0.0178803
0.0129856
-0.0116007
0.115985
-0.477146
0.169777
-0.524992
0.211858
-0.463152
0.245348
-0.359019
0.272017
-0.239803
0.292752
-0.129047
0.307403
-0.0426101
0.315067
0.00348462
0.318073
0.0145562
0.0130291
0.117804
-0.539274
0.170632
-0.577819
0.212339
-0.504859
0.245262
-0.391942
0.271815
-0.266356
0.292739
-0.149972
0.308247
-0.0581178
0.317789
-0.00605782
0.32399
0.00835529
0.0103686
0.120184
-0.60004
0.171011
-0.628647
0.211863
-0.545711
0.243922
-0.424
0.270134
-0.292568
0.291132
-0.170969
0.306794
-0.0737805
0.316937
-0.0161999
0.324253
0.00103904
0.00648516
0.123074
-0.659257
0.171123
-0.676695
0.210561
-0.58515
0.241501
-0.45494
0.267125
-0.318192
0.288176
-0.19202
0.303965
-0.08957
0.314741
-0.0269756
0.322857
-0.00707665
0.00182675
0.125922
-0.716917
0.171001
-0.721774
0.208522
-0.62267
0.238134
-0.484553
0.262905
-0.342963
0.283951
-0.213066
0.3001
-0.105719
0.31184
-0.0387148
0.321184
-0.0164206
-0.00406677
0.127852
-0.773
0.170465
-0.764387
0.2058
-0.658005
0.233947
-0.5127
0.257609
-0.366624
0.278491
-0.233948
0.295274
-0.122502
0.308363
-0.0518041
0.319254
-0.0273115
-0.0115368
0.127926
-0.826883
0.169034
-0.805496
0.202263
-0.691234
0.22892
-0.539357
0.251296
-0.389
0.271788
-0.254441
0.289447
-0.140161
0.304353
-0.0667096
0.315594
-0.0385533
-0.0190518
0.125841
-0.876715
0.166302
-0.845957
0.197862
-0.722795
0.223148
-0.564643
0.24411
-0.409962
0.263847
-0.274177
0.282523
-0.158837
0.298544
-0.0827308
0.307262
-0.0472716
-0.0244436
0.122152
-0.917647
0.161466
-0.885271
0.191724
-0.753053
0.21592
-0.588839
0.235563
-0.429605
0.254433
-0.293047
0.27368
-0.178085
0.287454
-0.0965044
0.293859
-0.0536773
-0.0304441
0.583932
-0.920115
-0.581464
0.561184
-0.862523
0.523984
-0.715853
0.487938
-0.552793
0.460436
-0.402102
0.445404
-0.278015
0.439495
-0.172175
0.435211
-0.0922203
0.431146
-0.0496129
-0.028756
0.682855
-0.871524
-0.731447
0.619715
-0.799382
0.55401
-0.650148
0.496711
-0.495494
0.451962
-0.357353
0.421238
-0.247291
0.405299
-0.156236
0.398382
-0.0853036
0.393858
-0.0450882
-0.0262781
0.754016
-0.775116
-0.850425
0.655198
-0.700564
0.563631
-0.558581
0.487804
-0.419667
0.430356
-0.299904
0.39095
-0.207885
0.368861
-0.134148
0.358996
-0.0754382
0.353611
-0.039703
-0.0232011
0.779033
-0.641649
-0.912499
0.653835
-0.575367
0.54644
-0.451186
0.461311
-0.334538
0.398626
-0.237219
0.355441
-0.164701
0.329584
-0.108291
0.317209
-0.0630631
0.310999
-0.0334929
-0.0196411
0.753012
-0.492414
-0.902247
0.617622
-0.439976
0.506287
-0.339851
0.420278
-0.248529
0.357884
-0.174824
0.314736
-0.121553
0.287696
-0.0812517
0.273659
-0.0490258
0.26666
-0.0264943
-0.0157035
0.685122
-0.345825
-0.831711
0.552735
-0.307589
0.446513
-0.233629
0.366101
-0.168117
0.308497
-0.117221
0.268597
-0.0816523
0.24275
-0.0554044
0.228322
-0.0345976
0.220903
-0.0190757
-0.0115628
0.582629
-0.213856
-0.714598
0.462909
-0.187869
0.369352
-0.140073
0.300002
-0.0987675
0.251022
-0.0682404
0.217071
-0.0477017
0.194504
-0.0328374
0.181109
-0.0212026
0.173902
-0.0118686
-0.00749879
0.448764
-0.105522
-0.557099
0.351189
-0.0902934
0.277077
-0.0659605
0.223557
-0.045248
0.186329
-0.031012
0.160479
-0.0218522
0.142908
-0.0152659
0.13192
-0.0102144
0.125747
-0.00569608
-0.00389076
0.286594
-0.0302201
-0.361895
0.220915
-0.0246149
0.1725
-0.0175448
0.138723
-0.0114714
0.115504
-0.00779277
0.0992399
-0.00558837
0.0879533
-0.00397933
0.0805631
-0.00282418
0.0763711
-0.00150412
-0.00122372
0.101316
-0.131536
0.0767013
0.0591564
0.047685
0.0398923
0.0343039
0.0303246
0.0275004
0.0259963
0.738822
0.0102229
-0.740769
0.733076
0.0284084
0.723436
0.0467432
0.710163
0.0639075
0.693569
0.0791652
0.674074
0.0921847
0.652268
0.103015
0.628707
0.112188
0.60426
0.119287
0.119807
0.845549
0.0133989
-0.848725
0.837321
0.0366363
0.827287
0.0567774
0.816592
0.0746027
0.805248
0.0905092
0.792893
0.10454
0.779277
0.11663
0.764579
0.126886
0.749112
0.134754
0.137472
0.844985
0.0114262
-0.843012
0.848885
0.0327361
0.853023
0.0526396
0.856475
0.0711509
0.858836
0.0881477
0.859923
0.103454
0.859597
0.116955
0.857968
0.128515
0.855298
0.137423
0.142345
0.800214
0.00930517
-0.798093
0.805822
0.0271278
0.814421
0.0440414
0.82564
0.0599315
0.839006
0.0747812
0.853857
0.0886029
0.869429
0.101383
0.885065
0.112879
0.899953
0.122536
0.129799
0.737867
0.00703935
-0.735601
0.744155
0.020839
0.754125
0.034072
0.767506
0.0465508
0.784086
0.0582007
0.803665
0.0690237
0.825995
0.0790531
0.850632
0.0882427
0.876557
0.0966108
0.104109
0.653921
0.00485443
-0.651736
0.660204
0.0145565
0.670379
0.0238966
0.684222
0.0327077
0.701526
0.0408963
0.722114
0.0484364
0.745809
0.0553576
0.772335
0.0617173
0.801225
0.0677208
0.073622
0.549112
0.00291639
-0.547174
0.554813
0.00885612
0.564138
0.0145707
0.576906
0.0199401
0.592916
0.0248868
0.611969
0.0293828
0.633872
0.0334543
0.658409
0.0371806
0.685383
0.040747
0.0444072
0.422792
0.00137588
-0.421252
0.427413
0.00423605
0.435008
0.00697566
0.445422
0.00952587
0.45847
0.0118387
0.473957
0.0138957
0.491697
0.0157138
0.511528
0.0173498
0.533348
0.0189274
0.0206565
0.273828
0.000366706
-0.272819
0.276915
0.00114946
0.281999
0.00189175
0.288955
0.0025694
0.297629
0.00316444
0.307856
0.00366912
0.319482
0.00408803
0.332395
0.00443667
0.346562
0.00476042
0.00532328
0.100484
-0.100117
0.101633
0.103525
0.106094
0.109259
0.112928
0.117016
0.121453
0.126213
0.0779378
0.159497
-0.142482
-0.094953
0.0630322
0.147455
-0.132549
0.0496216
0.134402
-0.120991
0.0376055
0.120329
-0.108313
0.0270278
0.105169
-0.0945912
0.0179786
0.0888935
-0.0798442
0.0105732
0.0714603
-0.0640549
0.00496345
0.0528095
-0.0471997
0.00134805
0.0328746
-0.0292592
0.0116392
-0.0102911
0.0779456
0.174429
-0.0928774
0.0638745
0.161526
0.050842
0.147434
0.0389395
0.132232
0.0282769
0.115832
0.0190007
0.0981697
0.0112898
0.0791712
0.00535965
0.0587397
0.00147722
0.036757
0.0131164
0.0731833
0.187925
-0.0866796
0.0603726
0.174336
0.048352
0.159455
0.0372497
0.143334
0.0272037
0.125878
0.0183795
0.106994
0.0109767
0.086574
0.00523535
0.064481
0.00144962
0.0405427
0.014566
0.0667739
0.200351
-0.0792
0.0550351
0.186075
0.0440506
0.170439
0.0339224
0.153462
0.0247668
0.135033
0.0167271
0.115034
0.00998168
0.0933195
0.00475144
0.0697112
0.00130963
0.0439846
0.0158756
0.0593146
0.211656
-0.0706193
0.0487168
0.196673
0.0388683
0.180288
0.0298417
0.162489
0.0217245
0.14315
0.0146296
0.122128
0.00870232
0.0992468
0.00412642
0.0742871
0.00113095
0.04698
0.0170066
0.0505996
0.22152
-0.0604642
0.041412
0.205861
0.0329281
0.188772
0.0251976
0.17022
0.0182839
0.150064
0.0122721
0.12814
0.00727494
0.104244
0.0034365
0.0781256
0.00093727
0.0494793
0.0179438
0.0404582
0.229564
-0.0485016
0.0330133
0.213305
0.0261768
0.195608
0.0199775
0.176419
0.0144574
0.155584
0.00967745
0.13292
0.00572041
0.108201
0.00269374
0.0811522
0.000731828
0.0514412
0.0186757
0.0290547
0.235442
-0.0349325
0.0236516
0.218709
0.0187149
0.200545
0.0142552
0.180879
0.0102962
0.159543
0.0068775
0.136339
0.00405557
0.111023
0.00190424
0.0833036
0.000515272
0.0528301
0.0191909
0.0169176
0.238926
-0.0204022
0.0137419
0.221884
0.0108549
0.203432
0.00825478
0.183479
0.00595143
0.161846
0.00396644
0.138324
0.00233214
0.112657
0.00109064
0.0845451
0.000293232
0.0536275
0.0194842
0.00482772
-0.00589034
0.00388029
0.00303389
0.00228328
0.00162806
0.00107193
0.000621564
0.0002858
7.49625e-05
0.0436289
0.0413624
-0.0525197
-0.0324716
0.0352582
0.0383149
-0.0299442
0.0275946
0.0349179
-0.0272543
0.0208635
0.031307
-0.0245759
0.0150657
0.0277436
-0.0219457
0.00995997
0.0241874
-0.0190817
0.00543126
0.0200522
-0.0155235
0.00196926
0.0144444
-0.0109824
0.000385037
0.00738545
-0.00580122
0.002085
-0.00169996
0.043763
0.0505349
-0.0529355
0.0351098
0.0469681
0.027068
0.0429597
0.0199203
0.0384547
0.013982
0.0336819
0.00925853
0.0289109
0.00550503
0.0238057
0.00257293
0.0173765
0.000620333
0.00933805
0.00270533
0.0449725
0.0600974
-0.054535
0.0360427
0.0558979
0.0277969
0.0512055
0.0203527
0.0458989
0.0140362
0.0399984
0.00911131
0.0338358
0.00552291
0.0273941
0.00289489
0.0200045
0.000809679
0.0114233
0.00351501
0.0474123
0.070291
-0.0576059
0.0379694
0.0653408
0.0293918
0.0597831
0.0217176
0.0535731
0.0150729
0.0466431
0.00971709
0.0391916
0.00577168
0.0313395
0.00296398
0.0228122
0.000876386
0.0135109
0.0043914
0.0508775
0.0812241
-0.0618106
0.0407669
0.0754514
0.0316425
0.0689075
0.0235668
0.0616488
0.0165633
0.0536466
0.0107593
0.0449956
0.00629028
0.0358085
0.003066
0.0260365
0.000881835
0.015695
0.00527323
0.0545674
0.0928275
-0.0661708
0.0438399
0.0861789
0.0341515
0.0785959
0.0255771
0.0702232
0.0181387
0.0610849
0.0118928
0.0512416
0.00693473
0.0407666
0.00328177
0.0296895
0.000909588
0.0180672
0.00618282
0.0576122
0.104915
-0.0696995
0.0464473
0.0973438
0.0363391
0.0887041
0.0273479
0.0792143
0.0195098
0.0689231
0.0128753
0.0578761
0.00752396
0.0461179
0.00352723
0.0336862
0.00096025
0.0206342
0.00714307
0.0596612
0.117246
-0.0719928
0.0482795
0.108726
0.0379332
0.0990504
0.0286676
0.0884799
0.0205345
0.0770562
0.0136029
0.0648077
0.00796396
0.0517568
0.00372293
0.0379272
0.00100564
0.0233515
0.00814871
0.0614691
0.129704
-0.0739266
0.049968
0.120227
0.0394158
0.109603
0.0298842
0.0980115
0.0214594
0.0854809
0.0142385
0.0720286
0.00833586
0.0576595
0.00388516
0.0423779
0.00104206
0.0261946
0.00919077
0.0663209
-0.0790986
0.0539985
0.0426099
0.0323081
0.0231978
0.0153822
0.00898677
0.00416494
0.00110034
0.214163
0.0608032
-0.0769765
0.236678
0.08981
-0.112325
0.260877
0.12354
-0.147738
0.275512
0.113949
-0.128584
0.274967
0.110584
-0.110038
0.252408
0.17954
-0.156982
0.218457
0.29379
-0.259839
0.174604
0.41221
-0.368358
0.118304
0.494154
-0.437853
0.461204
-0.39542
0.213522
0.0452705
0.234864
0.0684686
0.258144
0.10026
0.273249
0.0988426
0.274267
0.109566
0.252772
0.201036
0.21874
0.327822
0.174449
0.456502
0.118044
0.550559
0.526312
0.213177
0.0300838
0.233666
0.0479788
0.256081
0.0778455
0.271326
0.0835978
0.272604
0.108287
0.251661
0.221979
0.217627
0.361855
0.173251
0.500877
0.117904
0.605906
0.589682
0.213053
0.0150203
0.233094
0.0279383
0.254748
0.056191
0.269786
0.0685605
0.270186
0.107887
0.249173
0.242992
0.215245
0.395784
0.171375
0.544747
0.118457
0.658824
0.650532
0.21312
-0.000110426
0.233043
0.00801566
0.253974
0.0352602
0.268199
0.0543358
0.266888
0.109198
0.245347
0.264533
0.211762
0.429369
0.169221
0.587288
0.119827
0.708218
0.708549
0.213365
-0.0154858
0.233351
-0.0119701
0.253498
0.0151135
0.266217
0.041616
0.262577
0.112838
0.240268
0.286842
0.207415
0.462222
0.167057
0.627646
0.121558
0.753717
0.763936
0.213681
-0.0311769
0.233835
-0.0321244
0.253067
-0.00411791
0.263634
0.0310483
0.257206
0.119266
0.234119
0.309929
0.202474
0.493868
0.164875
0.665245
0.122767
0.795824
0.817004
0.213871
-0.047058
0.234331
-0.0525842
0.252445
-0.0222322
0.260223
0.0232705
0.250672
0.128817
0.227002
0.333599
0.196988
0.523882
0.162254
0.69998
0.122438
0.83564
0.867449
0.2138
-0.0628684
0.23475
-0.0735334
0.251468
-0.0389508
0.256002
0.0187366
0.243207
0.141612
0.219269
0.357537
0.19108
0.552071
0.158777
0.732283
0.120177
0.87424
0.913699
0.213704
-0.0785831
0.234998
-0.0948273
0.250087
-0.0540395
0.250594
0.0182297
0.234265
0.157941
0.210283
0.381519
0.183835
0.57852
0.153576
0.762541
0.116489
0.911327
0.95109
0.331897
-0.10847
0.370641
-0.133571
0.407007
-0.0904048
0.42482
0.000416447
0.439567
0.143193
0.46757
0.353516
0.50663
0.539459
0.549586
0.719585
0.581349
0.879564
0.945957
0.586482
0.333421
-0.139881
0.373007
-0.173157
0.408342
-0.12574
0.423638
-0.0148798
0.436973
0.129859
0.476387
0.314102
0.534435
0.481411
0.604506
0.649515
0.675387
0.808682
0.88838
0.732964
0.33602
-0.173891
0.374913
-0.212049
0.408628
-0.159456
0.420093
-0.0263443
0.429496
0.120456
0.474794
0.268804
0.546852
0.409353
0.638962
0.557405
0.742329
0.705315
0.784299
0.846411
0.340103
-0.211984
0.373003
-0.244949
0.385068
-0.171521
0.383031
-0.0243071
0.400264
0.103223
0.453553
0.215515
0.534522
0.328384
0.640727
0.4512
0.767182
0.578859
0.646955
0.904526
0.348218
-0.258192
0.356243
-0.252974
0.338114
-0.153393
0.335671
-0.0218632
0.359412
0.0794815
0.414449
0.160478
0.497522
0.245311
0.608038
0.340685
0.743824
0.443073
0.495804
0.894975
0.34087
-0.297052
0.321224
-0.233328
0.288305
-0.120474
0.284863
-0.0184213
0.309504
0.0548398
0.361384
0.108598
0.439927
0.166768
0.545852
0.234759
0.678815
0.31011
0.347954
0.826666
0.314284
-0.309325
0.271589
-0.190633
0.233908
-0.0827924
0.229189
-0.0137029
0.251463
0.0325665
0.296377
0.063684
0.364726
0.0984189
0.458381
0.141104
0.578822
0.189669
0.21509
0.711686
0.27378
-0.281095
0.212903
-0.129756
0.174525
-0.0444143
0.169119
-0.00829746
0.186545
0.0151412
0.221119
0.0291096
0.274246
0.045292
0.348712
0.0666378
0.44706
0.091321
0.106134
0.556016
0.214644
-0.193729
0.140483
-0.0555949
0.109469
-0.0133999
0.104252
-0.00308055
0.115531
0.00386179
0.137372
0.00726917
0.171135
0.0115288
0.219982
0.0177903
0.286341
0.0249621
0.0304067
0.362069
0.108282
0.0526866
0.0392867
0.0362062
0.040068
0.0473371
0.058866
0.0766563
0.101618
0.132025
0.608643
-0.117113
0.632311
-0.116545
0.655132
-0.1095
0.676285
-0.100354
0.695231
-0.0895648
0.711369
-0.0766026
0.724264
-0.0613958
0.733591
-0.0442599
0.739076
-0.0258876
-0.00758341
0.750302
-0.134452
0.765209
-0.131453
0.779415
-0.123707
0.792642
-0.113581
0.804708
-0.10163
0.815845
-0.0877398
0.826402
-0.0719524
0.836392
-0.0542503
0.844842
-0.0343373
-0.0114672
0.851036
-0.139077
0.853482
-0.133899
0.855
-0.125224
0.855379
-0.11396
0.854531
-0.100783
0.85263
-0.085839
0.849903
-0.0692251
0.846744
-0.0510919
0.84395
-0.0315432
-0.0105294
0.89258
-0.12713
0.878559
-0.119878
0.863875
-0.110539
0.849305
-0.0993904
0.835456
-0.0869335
0.823026
-0.0734087
0.81264
-0.0588389
0.804758
-0.0432109
0.799746
-0.0265308
-0.00887642
0.870338
-0.102494
0.845568
-0.0951087
0.821957
-0.0869279
0.800497
-0.0779304
0.781659
-0.0680951
0.765717
-0.0574668
0.752892
-0.0460136
0.743404
-0.0337234
0.737524
-0.0206509
-0.00695292
0.797011
-0.0728385
0.768942
-0.0670395
0.743127
-0.0611128
0.720039
-0.0548431
0.699972
-0.0480282
0.683112
-0.0406067
0.669642
-0.0325429
0.659769
-0.0238507
0.653726
-0.0146078
-0.0049632
0.682988
-0.0441408
0.656501
-0.0405528
0.632401
-0.0370126
0.610878
-0.0333197
0.592144
-0.0292947
0.576395
-0.0248573
0.563828
-0.0199756
0.554646
-0.014669
0.549043
-0.00900503
-0.00309433
0.532509
-0.0206338
0.510907
-0.0189505
0.491273
-0.0173791
0.473702
-0.0157484
0.458349
-0.0139417
0.445396
-0.0119041
0.435036
-0.00961573
0.427457
-0.00709046
0.422824
-0.00437122
-0.00152266
0.346786
-0.00535152
0.332645
-0.00480886
0.31975
-0.00448462
0.308135
-0.00413334
0.297907
-0.00371342
0.289213
-0.00321066
0.282218
-0.00261984
0.277074
-0.00194726
0.273912
-0.00120936
-0.00042915
0.126674
0.121865
0.11738
0.113247
0.109533
0.106323
0.103703
0.101756
0.100546
0.000185054
0.0116089
-0.011794
0.000623726
0.0304458
-0.0308845
0.00123714
0.0462407
-0.0468541
0.00197729
0.0594663
-0.0602065
0.00277657
0.0700202
-0.0708195
0.00376947
0.0798876
-0.0808805
0.00396341
0.0772658
-0.0774598
0.00408478
0.0700411
-0.0701625
0.0039449
0.0610785
-0.0609386
0.0499551
0.00350715
-0.0495173
0.000533387
0.0110756
0.00180384
0.0291753
0.00358502
0.0444595
0.00574115
0.0573102
0.00807269
0.0676887
0.0110394
0.0769209
0.0116758
0.0766295
0.0120807
0.0696362
0.0117734
0.0613857
0.0510774
0.0106511
0.000835483
0.0102401
0.00283178
0.027179
0.00563902
0.0416523
0.00904141
0.0539078
0.0127392
0.0639908
0.0172472
0.072413
0.0187899
0.0750868
0.0195715
0.0688546
0.0193853
0.0615719
0.0524339
0.0180289
0.00105596
0.00918412
0.00359694
0.0246381
0.00719351
0.0380557
0.0115556
0.0495457
0.0163563
0.0591902
0.0217474
0.0670219
0.0250724
0.0717618
0.0263547
0.0675723
0.026603
0.0613236
0.0535657
0.0254712
0.00115143
0.00803269
0.00397925
0.0218103
0.0080416
0.0339934
0.0129968
0.0445905
0.0185514
0.0536355
0.0245573
0.061016
0.0299519
0.0663673
0.0320898
0.0654344
0.0330111
0.0604023
0.0540905
0.0324864
0.00111147
0.00692123
0.00396593
0.0189558
0.00818549
0.0297738
0.0133901
0.0393859
0.0193179
0.0477077
0.0257718
0.054562
0.0324157
0.0597234
0.0363122
0.0615378
0.038124
0.0585905
0.0537064
0.0385081
0.000926229
0.005995
0.00357294
0.0163091
0.00771061
0.0256362
0.0128816
0.0342149
0.0187866
0.0418028
0.0253381
0.0480105
0.0323209
0.0527407
0.0382749
0.0555839
0.0415868
0.0552786
0.0521823
0.0431109
0.000567857
0.00542714
0.00278667
0.0140903
0.00665755
0.0217653
0.0116214
0.029251
0.0172044
0.0362198
0.0234475
0.0417674
0.0302861
0.0459021
0.0371839
0.0486861
0.0425606
0.0499018
0.0489239
0.0458191
0.000103869
0.00532327
0.00176871
0.0124254
0.00517591
0.0183581
0.0098152
0.0246117
0.0149574
0.0310776
0.0206216
0.0361032
0.0269037
0.03962
0.033587
0.0420028
0.0400845
0.0434044
0.0437961
0.0452123
-0.000175485
0.00549876
0.00108707
0.0111629
0.00385626
0.0155889
0.00788699
0.020581
0.0125016
0.0264629
0.0175719
0.0310329
0.0231773
0.0340146
0.0292489
0.0359312
0.0356349
0.0370184
0.0373703
0.0420607
-2.09732e-05
0.00551973
0.0011403
0.0100016
0.00327798
0.0134512
0.00641351
0.0174455
0.0102951
0.0225813
0.0148361
0.0264919
0.0199552
0.0288956
0.0254865
0.0303998
0.0312232
0.0312817
0.0316974
0.0368961
0.000377559
0.00514217
0.00153178
0.00884738
0.00318049
0.0118025
0.00549097
0.015135
0.00870925
0.019363
0.0128932
0.0223079
0.0177434
0.0240454
0.0230089
0.0251343
0.0284986
0.025792
0.0260627
0.0341333
0.00062392
0.00451825
0.00170636
0.00776494
0.00302634
0.0104825
0.00484471
0.0133166
0.0078329
0.0163748
0.0119195
0.0182213
0.0166686
0.0192963
0.0218404
0.0199625
0.0273022
0.0203302
0.0204121
0.0329528
0.000676407
0.00384184
0.00164176
0.00679958
0.00282019
0.00930409
0.00469952
0.0114373
0.00797035
0.013104
0.0121982
0.0139934
0.0170128
0.0144817
0.022252
0.0147233
0.0278193
0.0147629
0.0146025
0.0336289
0.000663293
0.00317855
0.00155276
0.00591011
0.00299184
0.00786501
0.00557658
0.00885255
0.00936726
0.00931331
0.0138891
0.00947151
0.0189325
0.0094384
0.0243977
0.00925805
0.0302169
0.0089437
0.00850104
0.0363184
0.000593616
0.00258492
0.00171428
0.00478944
0.00405929
0.00551999
0.00751812
0.00539371
0.0117737
0.00505773
0.0166244
0.00462078
0.0219687
0.00409415
0.0277471
0.00347959
0.0339083
0.00278249
0.00201578
0.0403936
0.000524097
0.00206082
0.00248546
0.00282806
0.00575497
0.00225048
0.00975576
0.00139292
0.0143495
0.00046399
0.0194901
-0.000519781
0.0251471
-0.00156287
0.0312778
-0.0026511
0.0378214
-0.0037612
-0.00488097
0.0447182
0.00087435
0.00118646
0.00362187
8.05308e-05
0.00718667
-0.00131434
0.0113752
-0.00279562
0.0161737
-0.00433448
0.0215923
-0.00593842
0.0275899
-0.00756049
0.0340763
-0.00913744
0.0409683
-0.0106533
-0.0121377
0.048225
0.00150625
-0.000319799
0.00413769
-0.00255092
0.0075618
-0.00473845
0.0117787
-0.00701252
0.0167955
-0.00935131
0.0225346
-0.0116775
0.0288298
-0.0138557
0.0355599
-0.0158676
0.0426989
-0.0177923
-0.0196853
0.0502466
0.00105848
0.00315456
0.00647857
0.0109469
0.0163282
0.0223056
0.0287179
0.0355954
0.0430048
0.0509245
0.0513822
0.0837887
-0.0982749
0.0772405
-0.00735373
-0.0185046
0.099839
-0.051018
0.0284195
0.113479
-0.046933
0.0332935
0.121404
-0.0266606
0.0187354
0.124992
-0.0078609
0.00427221
0.126015
0.00340481
-0.00442748
0.126293
0.00671881
-0.00699693
0.126723
0.00610201
-0.00653216
0.00324279
-0.00444126
0.0585757
0.0593463
0.091601
-0.0403792
0.11875
-0.078167
0.134721
-0.0629039
0.143408
-0.0353475
0.147025
-0.0114781
0.147757
0.00267277
0.147703
0.00677348
0.147888
0.00591666
0.00231832
0.0665875
0.0257116
0.10498
-0.0787713
0.135963
-0.109151
0.155555
-0.082496
0.165512
-0.0453039
0.169192
-0.0151581
0.169518
0.00234625
0.168962
0.00732984
0.168722
0.00615692
0.00182628
0.0754714
-0.0161309
0.117819
-0.121119
0.151696
-0.143027
0.175047
-0.105848
0.18705
-0.0573071
0.191055
-0.019163
0.191003
0.00239825
0.189882
0.00845059
0.189118
0.00692135
0.00186839
0.0845343
-0.0643469
0.129655
-0.16624
0.165695
-0.179068
0.192355
-0.132508
0.20726
-0.0722121
0.212187
-0.0240893
0.211942
0.00264314
0.210286
0.0101065
0.208967
0.00824002
0.00249191
0.0930051
-0.116958
0.140152
-0.213386
0.177873
-0.216789
0.20709
-0.161725
0.225282
-0.090404
0.232046
-0.0308526
0.23201
0.0026786
0.229967
0.0121499
0.228145
0.010062
0.00368454
0.100222
-0.172462
0.149037
-0.262202
0.188131
-0.255882
0.219174
-0.192768
0.240417
-0.111647
0.249988
-0.0404236
0.250838
0.00182862
0.248696
0.014292
0.246509
0.0122492
0.00537241
0.105835
-0.230071
0.156187
-0.312554
0.196417
-0.296113
0.228715
-0.225066
0.252339
-0.135271
0.265277
-0.0533621
0.267971
-0.000865209
0.266202
0.0160608
0.263893
0.0145586
0.00741408
0.109824
-0.289649
0.161632
-0.364362
0.20276
-0.337241
0.235891
-0.258197
0.261098
-0.160477
0.277269
-0.0695332
0.282845
-0.00644146
0.282147
0.0167584
0.280085
0.0166214
0.0095942
0.112501
0.165545
0.207299
0.240904
0.267015
0.285673
0.294768
0.296089
0.29483
0.013199
0.00607875
-0.0192777
0.0109819
0.00221704
0.011494
-0.000512086
0.0129107
-0.00141669
0.013616
-0.000705298
0.0137298
-0.000113826
0.0135095
0.0002203
0.0131912
0.000318367
0.0129365
0.000254718
0.000281958
0.0372441
0.0232191
-0.0543845
0.0314724
0.00798876
0.0339628
-0.00300249
0.0380006
-0.00545444
0.0401501
-0.00285489
0.0405349
-0.000498531
0.0399076
0.000847594
0.0389989
0.00122713
0.0381718
0.00108174
0.000934518
0.0579561
0.0481064
-0.0828435
0.0508465
0.0150984
0.0558247
-0.00798063
0.0623732
-0.012003
0.0660068
-0.00648852
0.0667415
-0.00123316
0.0657685
0.00182062
0.0643101
0.00268551
0.0629363
0.00245563
0.00188349
0.073891
0.0754218
-0.101206
0.0680302
0.0209592
0.0763545
-0.016305
0.0856483
-0.0212967
0.0909237
-0.0117639
0.0921489
-0.00245832
0.0909252
0.0030443
0.0889763
0.00463444
0.0871304
0.00430149
0.00307373
0.0813814
-0.104235
0.0838358
0.0959502
0.107947
0.114918
0.116732
0.115349
0.112987
0.110756
0.00273362
-0.000172922
-0.0025607
0.00326448
-0.000530862
0.0041767
-0.000912215
0.00548773
-0.00131104
0.00718412
-0.00169638
0.00922866
-0.00204454
0.0115852
-0.00235656
0.0141735
-0.00258828
0.0168585
-0.00268504
-0.00241922
0.00778728
-0.000645687
-0.00731452
0.00923415
-0.00197773
0.0117135
-0.00339154
0.0152698
-0.00486736
0.019884
-0.00631058
0.0254819
-0.00764246
0.0319642
-0.0088388
0.0391554
-0.00977956
0.0467665
-0.0102961
-0.0100372
0.0124778
-0.00138373
-0.0117398
0.0147275
-0.00422738
0.0185603
-0.00722435
0.0240242
-0.0103312
0.0310787
-0.0133651
0.0395854
-0.0161492
0.0493273
-0.0185806
0.0600503
-0.0205026
0.071414
-0.0216598
-0.0214668
0.0168071
-0.00234766
-0.0158432
0.0197313
-0.00715157
0.0246745
-0.0121675
0.0316509
-0.0173076
0.0405493
-0.0222636
0.0511054
-0.0267052
0.0629363
-0.0304116
0.0756927
-0.033259
0.0888583
-0.0348254
-0.0338149
0.0207926
-0.0196331
0.0242921
0.0301535
0.0383171
0.0485398
0.0603427
0.073042
0.0856021
0.0959889
0.0314554
-0.0313008
0.0371075
-0.0372621
0.0255934
-0.0308978
0.0367597
0.0199336
-0.0300651
0.035725
0.0146856
-0.0286692
0.0339172
0.010064
-0.0264611
0.0310828
0.00620708
-0.0227752
0.0266321
0.00311557
-0.0176466
0.0207382
0.00101875
-0.0136213
0.0157181
-8.58969e-05
-0.0101602
0.0112649
-0.0056402
0.00555431
0.0294775
-0.0254356
-0.0353427
0.0237599
-0.0251802
0.0182683
-0.0245735
0.0131803
-0.0235813
0.00874876
-0.0220296
0.00535557
-0.019382
0.00302321
-0.0153143
0.00139895
-0.011997
0.000299569
-0.00906082
-0.00534063
0.029452
-0.0194457
-0.0354419
0.0236464
-0.0193745
0.0181274
-0.0190545
0.0130122
-0.018466
0.00850335
-0.0175207
0.00505169
-0.0159303
0.00301
-0.0132726
0.00164849
-0.0106355
0.000584545
-0.00799687
-0.00475608
0.031367
-0.013182
-0.0376307
0.0253379
-0.0133454
0.0196268
-0.0133434
0.0143201
-0.0131593
0.00955667
-0.0127573
0.00566096
-0.0120346
0.00320408
-0.0108157
0.00176555
-0.00919697
0.000729251
-0.00696056
-0.00402683
0.0349522
-0.00652829
-0.041606
0.0285805
-0.00697357
0.0225626
-0.00732546
0.0169649
-0.00756159
0.0118782
-0.00767058
0.0074867
-0.00764316
0.00414061
-0.00746956
0.00199612
-0.00705247
0.000799482
-0.00576391
-0.00322734
0.0392477
0.00057472
-0.0463507
0.0324698
-0.000195729
0.0260895
-0.000945129
0.020181
-0.00165306
0.0148048
-0.00229439
0.0100241
-0.00286243
0.00592252
-0.00336799
0.00267373
-0.00380367
0.000720476
-0.00381065
-0.00250686
0.0430577
0.00808408
-0.050567
0.0358885
0.00697342
0.0291133
0.00583014
0.0228314
0.00462877
0.0171444
0.00339265
0.0120915
0.00219053
0.00765467
0.00106881
0.00384142
9.58474e-06
0.000977167
-0.000946382
-0.00152968
0.0453143
0.0158783
-0.0531085
0.0378959
0.0143919
0.0308509
0.0128751
0.0242164
0.0112632
0.0181353
0.00947379
0.0127921
0.00753377
0.00826434
0.00559654
0.00452875
0.00374518
0.00162576
0.00195663
9.6079e-05
0.0454618
0.023969
-0.0535525
0.0378547
0.021999
0.0307344
0.0199954
0.0240147
0.017983
0.0176652
0.0158233
0.0118806
0.0133184
0.00703549
0.0104416
0.00341247
0.00736821
0.00114542
0.00422368
0.0012415
0.0444147
-0.0529174
0.0364695
0.0292106
0.0226177