/*--------------------------------*- C++ -*----------------------------------*\
  =========                 |
  \\      /  F ield         | OpenFOAM: The Open Source CFD Toolbox
   \\    /   O peration     | Website:  https://openfoam.org
    \\  /    A nd           | Version:  13
     \\/     M anipulation  |
\*---------------------------------------------------------------------------*/
FoamFile
{
    format      ascii;
    class       volScalarField;
    location    "0.565";
    object      strainRateViscosityModel:nu;
}
// * * * * * * * * * * * * * * * * * * * * * * * * * * * * * * * * * * * * * //

dimensions      [0 2 -1 0 0 0 0];

internalField   nonuniform List<scalar> 
1800
(
9.40488
9.1976
9.01005
8.80093
8.57611
8.3441
8.11543
7.89817
7.62428
7.37938
9.58523
9.41878
9.26689
9.09731
8.91115
8.7114
8.50354
8.28866
8.02732
7.70215
9.70219
9.56269
9.42803
9.27095
9.08867
8.87897
8.64089
8.36902
8.03059
7.61065
9.77539
9.65614
9.53324
9.38287
9.20048
8.98171
8.72279
8.41595
8.02878
7.55459
9.82168
9.7183
9.60558
9.46166
9.2807
9.05695
8.78548
8.45888
8.04776
7.55617
9.85185
9.76081
9.6573
9.52059
9.34355
9.11896
8.84034
8.50016
8.07152
7.57021
9.87179
9.78991
9.69399
9.56396
9.39147
9.16769
8.8842
8.53252
8.08736
7.57568
9.88475
9.80925
9.71888
9.59395
9.42495
9.20146
8.91309
8.55005
8.08853
7.56356
9.8926
9.82107
9.73416
9.6122
9.44467
9.21963
8.92484
8.54923
8.07121
7.52871
9.89646
9.82686
9.74153
9.6207
9.4531
9.22573
8.92513
8.53953
8.05038
7.49285
1.78133
1.40533
1.21382
1.32355
1.73001
2.24791
2.49394
2.44923
2.36054
2.33675
3.70858
1.78474
1.49615
1.98149
2.69115
2.97015
2.81977
2.67579
2.69096
2.74347
4.6891
2.57367
2.4388
3.17404
3.59293
3.34828
3.08676
3.12251
3.26093
3.34098
5.26236
3.88424
3.81654
4.21153
4.17975
3.83228
3.7249
3.85745
3.95939
4.00849
6.05324
5.27623
5.11824
5.12048
4.91492
4.6548
4.57978
4.61374
4.61432
4.65427
6.95901
6.46018
6.22688
6.0379
5.78817
5.54579
5.38989
5.29438
5.22366
5.27639
7.7715
7.37777
7.11674
6.86008
6.58721
6.32052
6.08746
5.9015
5.77114
5.82483
8.40008
8.05529
7.79195
7.51562
7.22631
6.93106
6.64218
6.38653
6.19277
6.22992
8.84934
8.54535
8.29094
8.0102
7.70556
7.37934
7.03554
6.70118
6.41601
6.42217
9.16164
8.90153
8.66629
8.3966
8.09562
7.76567
7.40638
7.03567
6.70871
6.75271
2.19413
1.72992
1.33225
0.935509
0.615629
0.339539
0.162823
0.105233
0.115788
0.168815
2.52953
1.85041
1.40911
0.933218
0.591683
0.323656
0.147426
0.0670376
0.0524781
0.0969147
2.95062
1.98033
1.48276
0.932841
0.559118
0.298937
0.132387
0.0461604
0.025439
0.0244025
3.44316
2.15043
1.55462
0.937249
0.522794
0.268817
0.11524
0.0349145
0.0209562
0.0116879
3.98519
2.38825
1.63204
0.946877
0.486031
0.235234
0.0972938
0.0292269
0.0200795
0.0114439
4.53034
2.6991
1.72805
0.963267
0.451768
0.199248
0.0791969
0.0261692
0.0198986
0.0114179
4.99847
3.05862
1.84968
0.985829
0.420651
0.161731
0.0610904
0.0240633
0.0193742
0.0122773
5.31409
3.4415
2.01663
1.02847
0.39978
0.126193
0.0431461
0.0215675
0.0156844
0.0370119
5.3445
3.72479
2.16606
1.06034
0.377208
0.0926111
0.0283208
0.0168979
0.0269616
0.127873
5.20315
3.99101
2.40173
1.16413
0.394602
0.0762416
0.0153109
0.0155777
0.104515
0.198445
4.94563
3.94439
2.45851
1.17768
0.368653
0.0509639
0.0134091
0.0901365
0.18016
0.283692
5.33181
3.34965
2.14067
0.996537
0.352534
0.12079
0.103673
0.180648
0.27342
0.380837
4.90538
3.04426
2.2438
1.19713
0.58108
0.278815
0.191425
0.251901
0.350577
0.458335
4.5456
3.62894
2.67712
1.63418
0.885656
0.481895
0.323446
0.34398
0.427126
0.525942
5.11317
4.74634
3.34089
2.1613
1.23475
0.720607
0.483674
0.446815
0.502592
0.581625
6.25425
5.66926
4.05703
2.67335
1.59782
0.976373
0.664534
0.564761
0.580398
0.628675
7.26272
6.3738
4.71416
3.15516
1.95786
1.23851
0.854914
0.691309
0.659732
0.668364
8.00015
6.91216
5.26032
3.58978
2.30105
1.50088
1.05016
0.824166
0.741506
0.703599
8.51878
7.33082
5.69772
3.97074
2.62136
1.75531
1.24007
0.952859
0.818515
0.732572
8.93101
7.69125
6.05003
4.28351
2.92603
2.02718
1.45444
1.1029
0.912619
0.768112
6.51283
6.43966
6.43045
6.44878
6.48742
6.53006
6.58215
6.71074
6.89549
6.82661
0.260724
1.05725
2.00791
2.92304
3.70406
4.31678
4.73363
4.98328
5.2225
5.72872
3.85069
3.54375
3.28444
3.11113
3.10619
3.24987
3.47221
3.71352
4.16522
4.84539
6.64423
6.62728
6.53716
6.34467
6.04316
5.65758
5.24913
4.89541
4.73869
4.54863
7.69187
7.67657
7.63215
7.54132
7.39616
7.18986
6.92704
6.61938
6.28572
5.65591
8.44953
8.43313
8.39437
8.32773
8.22959
8.09674
7.92839
7.71685
7.42792
6.90778
8.93968
8.92394
8.89029
8.8368
8.76167
8.66291
8.53817
8.37894
8.15469
7.80865
9.27299
9.25981
9.23246
9.18985
9.13052
9.05245
8.95269
8.82482
8.65283
8.43092
9.50446
9.49417
9.47308
9.44024
9.39426
9.33319
9.25424
9.15287
9.02289
8.87535
9.6899
9.68285
9.66852
9.64604
9.61405
9.5707
9.51361
9.43975
9.34638
9.2441
7.2484
7.5264
7.83698
8.08764
8.34474
8.59955
8.84133
9.06155
9.25458
9.46026
7.58329
7.94813
8.24096
8.48108
8.7093
8.92477
9.12227
9.29899
9.45391
9.61807
7.49861
7.95741
8.32593
8.62046
8.87571
9.0977
9.28804
9.44951
9.58536
9.72226
7.44696
7.95763
8.37374
8.70197
8.97656
9.20595
9.3947
9.54806
9.67131
9.78824
7.45638
7.98067
8.41859
8.76488
9.05052
9.28355
9.46977
9.61591
9.72868
9.83023
7.48244
8.01168
8.46401
8.82146
9.11233
9.34474
9.52606
9.66446
9.76796
9.85764
7.50365
8.03786
8.50277
8.86862
9.16197
9.39189
9.56764
9.6989
9.79479
9.8757
7.51115
8.05246
8.52871
8.90209
9.19746
9.42521
9.5964
9.72213
9.81243
9.88729
7.49836
8.05045
8.53742
8.91898
9.21768
9.44503
9.61372
9.73606
9.8229
9.89404
7.48288
8.04359
8.53593
8.92344
9.22526
9.4533
9.62123
9.74217
9.82746
9.89693
2.55307
2.51029
2.52917
2.73999
2.9212
2.54558
1.69332
1.18007
1.52096
4.18273
2.96193
2.87368
2.71495
2.71424
3.10321
3.42673
2.81579
1.90258
2.12094
5.12934
3.45275
3.40877
3.25071
3.06513
3.26596
3.82372
3.80099
3.15686
3.28345
5.45198
3.9466
3.93548
3.90844
3.79883
3.89154
4.31861
4.58873
4.46516
4.65667
5.9099
4.50017
4.47264
4.54751
4.61837
4.7815
5.11447
5.43808
5.61762
5.8943
6.62919
5.10328
5.06072
5.1999
5.39761
5.65778
5.98071
6.30846
6.59473
6.8998
7.40553
5.65512
5.61878
5.8192
6.09124
6.40805
6.74089
7.06835
7.37778
7.67829
8.08615
6.06771
6.053
6.31568
6.64258
6.995
7.33968
7.6671
7.97398
8.25877
8.61095
6.26106
6.2798
6.63126
7.02595
7.42003
7.78426
8.11657
8.41657
8.68275
8.98795
6.60063
6.57032
6.95617
7.37948
7.78125
8.143
8.46643
8.75037
8.99298
9.25188
0.108138
0.154844
0.113813
0.0551939
0.0135627
0.377394
0.915893
1.47319
1.94341
2.4272
0.0742914
0.139793
0.109576
0.0553639
0.0140491
0.367381
0.922016
1.53907
2.02565
2.69634
0.0525068
0.131813
0.108296
0.0588645
0.0228406
0.368996
0.932821
1.59313
2.1
3.00995
0.0397028
0.130711
0.111046
0.0673095
0.040922
0.380343
0.944581
1.63431
2.20648
3.39862
0.0335352
0.135105
0.116293
0.0781714
0.0644687
0.394682
0.953473
1.67306
2.38587
3.86936
0.0327334
0.143335
0.122277
0.0886562
0.0892479
0.407821
0.962626
1.73221
2.65257
4.36628
0.0374507
0.154975
0.127566
0.096644
0.11042
0.41653
0.976614
1.8283
2.98403
4.79661
0.0486872
0.170866
0.131801
0.102187
0.127318
0.42895
1.01929
1.98701
3.35032
5.08091
0.0687435
0.191393
0.135071
0.101662
0.13161
0.430826
1.05661
2.13764
3.62835
5.08386
0.100336
0.213691
0.139044
0.104998
0.148
0.478193
1.19281
2.39553
3.87821
4.89235
0.158157
0.2415
0.146222
0.102644
0.137239
0.477163
1.255
2.50794
3.88729
4.67476
0.262027
0.271636
0.135711
0.07896
0.0741309
0.376296
1.12176
2.30476
3.43245
5.19413
0.426963
0.269457
0.10616
0.0168659
0.0146691
0.324694
1.13908
2.34559
3.25462
4.93887
0.679901
0.256467
0.0228574
0.0811052
0.109501
0.524759
1.42214
2.61642
3.71044
4.69656
1.06352
0.0487565
0.255726
0.246826
0.324834
0.884059
1.92899
3.20159
4.70419
5.17556
1.51477
0.117618
0.534352
0.42729
0.607636
1.30521
2.47237
3.91522
5.59779
6.22281
2.19432
0.685363
0.851535
0.700575
0.953568
1.73853
2.99228
4.59298
6.30236
7.21638
3.79193
1.70523
1.27248
1.04693
1.3291
2.15287
3.46249
5.16527
6.85423
7.96885
6.86006
3.57606
1.96234
1.43024
1.68961
2.52824
3.87553
5.63162
7.29529
8.50727
9.04905
6.38389
2.84381
2.0091
2.12496
2.90257
4.22704
6.01978
7.68658
8.93807
6.62527
6.68816
6.51132
6.38943
6.34896
6.32269
6.30564
6.31737
6.36197
6.47626
5.52991
5.01098
4.76698
4.5257
4.12735
3.54122
2.79913
1.93246
1.04489
0.284305
4.85066
4.23712
3.82732
3.61649
3.42949
3.30992
3.31483
3.45723
3.65512
3.87419
4.71108
4.88449
5.02718
5.33701
5.70156
6.05212
6.33387
6.52145
6.61662
6.64166
5.68685
6.28531
6.61202
6.91124
7.17237
7.38151
7.53186
7.62819
7.67674
7.69243
6.86572
7.38858
7.68446
7.90237
8.07664
8.21489
8.31784
8.38859
8.43057
8.44891
7.76517
8.12054
8.35201
8.51795
8.64799
8.75101
8.82958
8.88584
8.92165
8.939
8.40458
8.6327
8.80889
8.94094
9.04402
9.12466
9.18596
9.23006
9.25855
9.2726
8.86615
9.01619
9.14761
9.25059
9.33082
9.39282
9.43944
9.47267
9.494
9.50442
9.24866
9.35043
9.443
9.51629
9.57293
9.61587
9.64747
9.66956
9.68348
9.69011
9.50943
8.98528
8.23582
6.92818
5.59792
0.131167
3.36079
5.96033
7.21401
8.15179
9.46538
8.9215
8.16805
6.89051
5.54934
0.563762
2.62218
5.70596
6.91636
7.91388
9.36564
8.78276
8.0202
6.80953
5.36631
1.60347
1.41353
5.20658
6.30927
7.40322
9.1825
8.54506
7.77441
6.65503
5.18638
2.74001
0.723074
4.23834
5.4215
6.57139
8.86805
8.1735
7.40391
6.37684
5.02645
3.368
0.970937
2.63159
4.31689
5.39371
8.35044
7.62962
6.87329
5.91716
4.76502
3.44
1.71921
1.30189
3.04927
3.98808
7.53595
6.89647
6.15541
5.22745
4.29959
3.26951
2.14305
1.1724
1.65627
2.55747
6.32528
6.03742
5.28118
4.23181
3.53346
2.91264
2.11838
1.43499
1.06843
1.23551
4.6316
5.23207
4.47418
2.99957
2.43721
2.2746
1.85596
1.38456
1.12238
0.659045
2.67267
4.53927
4.02145
1.96684
1.39693
1.48845
1.40981
1.21136
1.06365
0.84481
1.27663
3.78835
3.66636
1.33761
0.816348
0.897548
0.970716
0.955752
0.971221
1.01938
0.613397
2.96858
3.08156
0.95705
0.575355
0.639473
0.758604
0.819148
0.843219
0.876297
0.355315
2.18798
2.28437
0.688383
0.49209
0.59418
0.725061
0.809472
0.847387
0.872279
0.265303
1.54936
1.48812
0.520766
0.532971
0.672343
0.785816
0.856905
0.880443
0.890831
0.239704
1.0189
0.844637
0.511991
0.667179
0.800841
0.902069
0.965615
0.981438
0.978475
0.243004
0.494569
0.498423
0.633697
0.814605
0.952049
1.04987
1.10769
1.11837
1.11029
0.178532
0.203858
0.506014
0.753594
0.971704
1.11752
1.20752
1.25479
1.27155
1.27206
0.0457033
0.250124
0.647619
0.920134
1.13374
1.25169
1.32799
1.39741
1.45341
1.47497
0.0593553
0.491193
0.820649
1.09506
1.22983
1.33846
1.48764
1.64498
1.7319
1.74764
0.688122
0.862085
1.04062
1.18592
1.32495
1.59618
1.90678
2.07652
2.07957
2.04722
0.362906
0.0801638
0.222695
0.548224
0.790969
0.88702
0.878937
0.826028
0.779559
0.765763
0.4617
0.201283
0.31755
0.518956
0.720583
0.806665
0.800038
0.752959
0.713303
0.712568
0.524962
0.370417
0.437892
0.511079
0.65045
0.727014
0.722795
0.680519
0.646872
0.657924
0.637469
0.585388
0.592753
0.552621
0.584612
0.640228
0.640385
0.605615
0.579547
0.601901
0.803877
0.80048
0.738731
0.634742
0.539464
0.553243
0.55597
0.529867
0.511862
0.544476
1.00689
0.996099
0.871645
0.733677
0.52815
0.471595
0.470025
0.453348
0.443952
0.485594
1.22469
1.16764
0.986416
0.82134
0.549571
0.405226
0.385309
0.376924
0.376191
0.425279
1.44953
1.32219
1.08546
0.883702
0.585606
0.363643
0.305966
0.301662
0.308794
0.363233
1.68273
1.46656
1.1727
0.919188
0.614725
0.347724
0.238365
0.229173
0.24249
0.300023
1.92545
1.60289
1.25363
0.933633
0.624987
0.345088
0.189816
0.162367
0.176828
0.234048
2.00895
0.747
0.715875
0.961896
1.19213
1.27744
1.25143
1.17781
1.11057
1.03197
1.39437
0.482671
0.577509
0.871402
1.10442
1.19169
1.17003
1.10141
1.03792
0.973012
0.751682
0.287819
0.479794
0.794648
1.03053
1.12009
1.10218
1.03744
0.977762
0.924555
0.253582
0.170123
0.404244
0.723091
0.955849
1.04429
1.02851
0.967466
0.912008
0.871842
0.435946
0.0327666
0.266332
0.610602
0.860395
0.960614
0.952743
0.896951
0.845927
0.818844
9.35461
9.29002
9.14095
8.87304
8.43748
7.77881
6.87125
5.7592
4.58186
3.53695
9.19244
9.09561
8.88105
8.51159
7.94142
7.13636
6.10953
4.95498
3.84466
2.78672
9.02383
8.90021
8.62655
8.16097
7.46166
6.51604
5.37131
4.16853
3.0812
1.94234
8.81626
8.66214
8.32143
7.74784
6.90606
5.81413
4.55488
3.29475
2.22587
1.09016
8.58744
8.37932
7.92576
7.17736
6.11241
4.792
3.35061
2.0852
0.994116
0.302041
1.06073
1.02499
1.01697
1.02054
0.91578
0.800078
1.29373
3.68242
3.8589
1.32342
0.949785
0.934417
0.926962
0.871552
0.719588
0.589223
0.911559
3.1405
3.10831
0.647728
0.986493
0.982975
0.966163
0.893388
0.748087
0.585393
0.69937
2.37038
2.34388
0.377633
1.05353
1.06535
1.06116
1.00138
0.890203
0.741442
0.656684
1.55451
1.63065
0.277395
1.18532
1.20933
1.21492
1.16722
1.07633
0.951539
0.788965
0.907235
0.915876
0.246297
1.34921
1.36907
1.37726
1.3519
1.28177
1.14852
0.927459
0.667714
0.356894
0.21652
1.55183
1.54779
1.51563
1.47328
1.42184
1.3146
1.07468
0.750815
0.271802
0.0662925
1.81775
1.81107
1.72864
1.5767
1.43769
1.34072
1.20452
0.896496
0.491889
0.0467141
2.097
2.14368
2.14096
1.94709
1.60586
1.31923
1.18396
1.05198
0.850854
0.672744
2.30579
2.35279
2.47648
2.52592
2.22242
1.62452
1.17918
1.06479
1.29973
2.02692
8.1516
7.21365
5.95997
3.36029
0.131424
5.59646
6.92769
8.23562
8.9853
9.50953
7.9132
6.91525
5.70496
2.62157
0.563633
5.54549
6.88906
8.16747
8.92155
9.46569
7.40177
6.30738
5.20479
1.41542
1.59975
5.36181
6.80727
8.01932
8.78288
9.36623
6.56874
5.41861
4.23616
0.726238
2.73173
5.18166
6.65218
7.77343
8.54539
9.18353
5.38933
4.31239
2.63253
0.971044
3.35668
5.02049
6.37339
7.40298
8.17424
8.86981
3.97968
3.04131
1.31006
1.71335
3.42675
4.75613
5.91236
6.87241
7.63109
8.35342
2.54081
1.65318
1.1873
2.13304
3.25084
4.28287
5.21869
6.15447
6.89934
7.54128
1.21713
1.08764
1.45204
2.10742
2.88039
3.50294
4.21736
5.28183
6.04331
6.33602
0.671551
1.15321
1.40745
1.84255
2.23203
2.40026
2.9838
4.479
5.24318
4.65573
0.885275
1.10279
1.2476
1.41311
1.46409
1.36922
1.94338
4.02586
4.56459
2.71704
2.08945
0.54324
1.05986
0.632736
0.666462
0.759813
0.632471
0.299881
0.0626682
0.356704
1.62948
0.237129
0.868114
0.48277
0.572571
0.682167
0.592819
0.356466
0.266477
0.488842
1.33345
0.0580257
0.639869
0.344851
0.483816
0.602262
0.560977
0.459415
0.473486
0.591446
1.09692
0.0148772
0.391486
0.236878
0.398697
0.518062
0.560896
0.625802
0.731936
0.758349
0.846385
0.0903349
0.188525
0.162761
0.320125
0.440928
0.607231
0.803886
0.972705
0.976588
0.634028
0.15509
0.0517935
0.106048
0.247182
0.384785
0.692304
0.971963
1.19019
1.22239
0.461581
0.209936
0.0506298
0.0516751
0.18242
0.363024
0.784295
1.11322
1.38028
1.4766
0.328858
0.211496
0.105498
0.0104649
0.122191
0.370389
0.855022
1.22723
1.54993
1.7295
0.229754
0.197363
0.11613
0.0371581
0.0617678
0.384384
0.894801
1.31999
1.70227
1.96926
0.158222
0.17513
0.119405
0.0517111
0.0250058
0.388125
0.910762
1.40013
1.83528
2.19271
9.33656
6.77029
2.66563
1.70162
1.20549
1.12405
0.968529
0.783956
0.79747
2.03335
8.2109
4.63638
2.21539
1.41984
1.07346
1.03893
0.894274
0.652956
0.528856
1.39869
6.12009
3.06387
1.78546
1.21275
0.968966
0.974254
0.834621
0.56275
0.329539
0.740958
4.13296
1.87579
1.49715
1.00646
0.863336
0.906654
0.777524
0.488727
0.229299
0.224618
2.83517
1.06128
1.24558
0.806219
0.760441
0.828391
0.686789
0.356608
0.0444348
0.397878
3.54772
4.58907
5.76311
6.87341
7.78034
8.43862
8.87382
9.14143
9.29028
9.3547
2.78087
3.84094
4.95222
6.10775
7.13575
7.94143
8.5118
8.88128
9.09577
9.1925
1.92833
3.07179
4.16205
5.36655
6.51349
7.46052
8.16054
8.62647
8.90024
9.02386
1.05511
2.20281
3.28142
4.54663
5.80993
6.90385
7.74672
8.32097
8.662
8.81624
0.300333
0.962162
2.06365
3.3373
4.78502
6.10883
7.17538
7.92481
8.37895
8.58735
)
;

boundaryField
{
    left
    {
        type            calculated;
        value           nonuniform List<scalar> 
35
(
0.299324
0.569859
0.989675
1.62651
2.52412
3.69514
5.06591
6.47613
8.15853
9.4418
0.206636
0.126876
0.0759706
0.046517
0.0319035
0.0273244
0.0320157
0.0503637
0.0903235
0.159331
4.9334
4.06142
3.23439
2.51255
1.91669
1.42637
1.02934
0.722005
0.49194
0.324497
9.61572
8.97909
7.92209
6.84785
5.85946
)
;
    }
    right
    {
        type            calculated;
        value           nonuniform List<scalar> 
35
(
1.03158
0.973044
0.925192
0.873584
0.821998
0.770584
0.71908
0.665933
0.61121
0.554861
0.496739
0.436737
0.374394
0.310131
0.242185
0.174232
0.0984033
0.0232204
0.0110533
0.0109358
0.0109055
0.0119905
0.0405388
0.142635
0.219738
0.308925
0.407248
0.484694
0.550373
0.602411
0.644451
0.678581
0.708784
0.734183
0.766237
)
;
    }
    down
    {
        type            calculated;
        value           nonuniform List<scalar> 
40
(
9.4543
7.26629
2.89651
1.79064
1.24599
1.15251
0.994242
0.825593
0.898533
2.26054
3.83288
4.88236
6.03382
7.09274
7.9445
8.55494
8.95441
9.1992
9.3356
9.39484
9.39474
9.33532
9.19868
8.95354
8.55361
7.94257
7.08984
6.02864
4.87306
3.81872
2.23205
0.847086
0.759717
0.993763
1.2237
1.30687
1.27834
1.20241
1.13381
1.05084
)
;
    }
    up
    {
        type            calculated;
        value           nonuniform List<scalar> 
40
(
9.0341
7.80887
6.16787
4.39519
3.03403
2.12212
1.52732
1.15148
0.942233
0.779716
9.72927
9.72305
9.71045
9.69064
9.66234
9.62377
9.57263
9.50586
9.42075
9.32814
9.33503
9.42654
9.51038
9.57622
9.62664
9.66461
9.69238
9.71168
9.72379
9.72951
9.27073
7.09639
3.23971
2.16023
2.24389
3.02243
4.34932
6.14937
7.8137
9.04492
)
;
    }
    cylinder
    {
        type            calculated;
        value           nonuniform List<scalar> 
80
(
1.97444
4.54048
5.51947
5.76912
6.30095
7.0893
7.86148
8.47471
8.91245
9.21291
9.44581
9.61872
9.72982
9.7983
9.84096
9.86846
9.8865
9.89817
9.90522
9.90869
9.50042
9.65062
9.74903
9.81047
9.849
9.87389
9.89016
9.90055
9.90657
9.90913
5.30616
6.22673
6.20828
6.3126
6.83222
7.52553
8.17582
8.68591
9.05067
9.30252
0.994741
0.471823
0.264345
0.183312
0.159755
0.165695
0.0829197
0.0421604
0.747719
2.41137
9.59443
9.55586
9.46741
9.30182
9.00973
8.51129
7.68619
6.3666
4.3876
2.23939
9.59433
9.55553
9.4668
9.30074
9.00787
8.50812
7.68043
6.35441
4.35807
2.19121
0.952691
0.442175
0.244267
0.170802
0.150292
0.165474
0.162007
0.0845249
0.0433678
0.726045
)
;
    }
    defaultFaces
    {
        type            empty;
    }
}


// ************************************************************************* //
