/*--------------------------------*- C++ -*----------------------------------*\
  =========                 |
  \\      /  F ield         | OpenFOAM: The Open Source CFD Toolbox
   \\    /   O peration     | Website:  https://openfoam.org
    \\  /    A nd           | Version:  13
     \\/     M anipulation  |
\*---------------------------------------------------------------------------*/
FoamFile
{
    format      ascii;
    class       volScalarField;
    location    "0.69";
    object      p;
}
// * * * * * * * * * * * * * * * * * * * * * * * * * * * * * * * * * * * * * //

dimensions      [0 2 -2 0 0 0 0];

internalField   nonuniform List<scalar> 
440
(
7.82733
10.5837
12.9463
13.1282
10.1526
20.7183
24.1015
27.097
27.7975
25.9097
41.2551
44.2864
46.9894
47.7821
46.6212
67.388
69.4858
71.3992
72.0559
71.3684
96.6644
97.4813
98.2783
98.6784
98.6448
-0.449564
-0.549082
-0.0771251
0.483854
0.826449
-1.68157
-2.34684
-2.0859
-1.38974
-0.751924
-2.02729
-2.90899
-2.83106
-2.07643
-0.958998
-0.68338
-0.816044
-0.411229
0.552321
2.41683
3.08276
4.39417
5.82333
7.25461
9.50414
2.08716
2.26876
1.34053
0.682107
0.235153
1.05895
2.08044
1.22041
0.623433
0.225206
-0.0933984
1.66964
1.08825
0.577942
0.217324
-0.403085
1.06602
0.879023
0.540787
0.209153
1.50455
0.477271
0.594621
0.48893
0.196174
4.37553
0.248876
0.33551
0.42434
0.16224
6.71977
0.710584
0.436222
0.418267
0.0980918
9.98375
2.44924
1.08391
0.547267
0.0640338
13.8729
4.75044
2.13261
0.823051
0.0698905
16.609
7.11246
3.45396
1.30552
0.168698
100.689
75.8403
53.3247
33.1498
12.3469
102.384
78.9428
57.5377
39.0578
23.4838
104.285
82.7024
62.4754
45.2352
32.8884
105.168
85.0216
66.5034
51.1843
40.6578
105.087
84.7441
66.3293
51.2518
40.8974
219.869
216.388
216.093
218.209
220.942
202.689
200.222
200.481
203.222
206.513
180.541
178.768
179.131
181.554
184.432
154.742
153.399
153.604
155.198
157.094
126.861
126.148
126.087
126.547
127.14
235.587
236.018
236.66
237.088
236.834
236.155
236.793
237.351
237.331
236.379
234.941
235.917
236.333
236.06
235.073
230.053
231.652
232.215
232.35
232.259
221.569
223.432
224.442
225.651
227.005
235.722
234.725
234.896
234.131
234.273
235.689
234.709
234.842
234.086
234.797
235.678
234.669
234.779
234.198
235.312
235.679
234.604
234.772
234.451
234.9
235.684
234.519
234.842
234.649
232.212
235.696
234.375
234.891
234.425
228.724
235.889
234.235
234.779
233.93
226.355
236.793
234.005
234.15
232.246
223.334
240.837
233.984
232.97
229.787
219.661
249.808
234.71
231.749
227.242
216.91
217.761
196.235
175.027
151.733
126.447
207.366
191.37
172.325
150.421
126.652
198.878
186.197
168.615
148.088
126.334
191.744
180.784
165.1
146.262
125.92
191.527
180.765
165.355
146.661
126.151
96.3949
95.5181
95.0704
94.3035
94.1469
57.3135
55.3666
53.6612
51.7394
50.9735
29.483
27.1397
24.377
22.0779
20.7534
15.0311
12.6145
10.149
8.1287
7.15818
9.20165
7.31391
5.92696
4.95147
4.36433
5.97181
4.8697
4.28975
4.20093
4.28916
4.06416
3.60451
3.53214
3.68764
3.84121
2.75662
2.74252
2.97599
3.27938
3.43778
1.65555
1.96001
2.4115
2.76228
2.90709
0.609663
1.0065
1.57929
1.98142
2.15569
3.61068
3.17855
2.0663
0.960895
0.276051
3.66443
3.00732
1.97404
0.904692
0.264854
3.46564
2.74579
1.84506
0.852692
0.2561
3.1456
2.50242
1.68248
0.801151
0.249131
2.72974
2.35579
1.50021
0.743645
0.242692
4.47839
3.16207
1.97989
1.0045
0.310664
3.74156
3.25643
2.06873
0.997331
0.290262
94.9024
54.1435
27.5059
14.4823
9.46217
93.6812
51.1341
22.9826
9.46681
5.25644
232.142
232.223
232.173
231.656
230.578
232.73
232.903
233.132
233.171
232.795
233.293
233.465
233.852
234.25
234.42
233.893
234.044
234.448
235.052
235.471
234.638
234.875
235.38
235.994
236.254
141.979
141.787
140.959
140.448
139.537
185.213
184.404
182.426
180.659
178.682
215.513
214.142
211.793
208.979
206.604
229.149
228.142
226.091
223.593
221.148
231.997
231.383
230.411
229.028
227.129
238.817
234.442
234.534
233.51
232.896
237.114
234.484
234.623
233.678
232.913
236.348
234.573
234.726
233.902
233.244
235.978
234.655
234.83
234.103
233.623
235.8
234.709
234.896
234.185
233.939
252.258
235.782
234.89
233.446
231.98
243.164
234.688
234.471
233.389
232.699
226.935
221.861
208.753
182.036
141.228
231.132
226.889
213.307
185.06
142.451
)
;

boundaryField
{
    left
    {
        type            zeroGradient;
    }
    right
    {
        type            fixedValue;
        value           uniform 0;
    }
    down
    {
        type            zeroGradient;
    }
    up
    {
        type            zeroGradient;
    }
    cylinder
    {
        type            zeroGradient;
    }
    defaultFaces
    {
        type            empty;
    }
}


// ************************************************************************* //
