/*--------------------------------*- C++ -*----------------------------------*\
  =========                 |
  \\      /  F ield         | OpenFOAM: The Open Source CFD Toolbox
   \\    /   O peration     | Website:  https://openfoam.org
    \\  /    A nd           | Version:  13
     \\/     M anipulation  |
\*---------------------------------------------------------------------------*/
FoamFile
{
    format      ascii;
    class       surfaceScalarField;
    location    "0.69";
    object      phi;
}
// * * * * * * * * * * * * * * * * * * * * * * * * * * * * * * * * * * * * * //

dimensions      [0 3 -1 0 0 0 0];

internalField   nonuniform List<scalar> 
823
(
0.0113778
-0.0505543
0.0391765
0.0387588
-0.133436
0.106055
0.0788325
-0.205877
0.165804
0.130172
-0.268869
0.21753
-0.323258
0.259413
0.194016
0.0107031
-0.0612574
0.0361432
-0.158876
0.0726483
-0.242383
0.117973
-0.314194
-0.3756
0.170314
0.00837703
-0.0696344
0.0282851
-0.178784
0.0567257
-0.270823
0.0918106
-0.349279
-0.41605
0.132261
0.00529927
-0.0749337
0.0179956
-0.19148
0.0362297
-0.289057
0.058884
-0.371933
-0.442415
0.0852486
0.00196197
-0.0768956
0.00663004
-0.196148
0.0132897
-0.295717
0.021522
-0.380165
0.0310623
-0.451955
0.00664099
-0.0107542
0.00411305
0.0221721
-0.0309136
0.0153823
0.0453716
-0.0485049
0.0253054
0.0745163
-0.0639441
0.0347995
-0.0770339
0.108167
0.0433831
0.00574928
-0.0165036
0.021465
-0.0466293
0.0466677
-0.0737077
0.0797038
-0.0969801
-0.116097
0.118767
0.00639137
-0.022895
0.0236491
-0.0638871
0.0512184
-0.101277
0.0878897
-0.133651
-0.160119
0.131912
0.00753586
-0.0304308
0.027086
-0.0834372
0.0573131
-0.131504
0.0970164
-0.173355
-0.207898
0.144795
0.00874564
0.031363
0.0656627
0.109838
0.161354
0.322506
-0.957666
0.743327
0.474438
-0.822566
0.670635
0.573804
-0.35424
0.254873
0.61481
-0.0669869
0.0259808
0.0033151
-0.00790245
0.330344
-1.16924
0.471033
-0.963255
0.57567
-0.458877
0.635971
-0.127288
-0.0166622
0.336514
-1.37384
0.461027
-1.08777
0.56324
-0.56109
0.632009
-0.196056
-0.0468107
0.33742
-1.56647
0.448096
-1.19844
0.54066
-0.653655
0.613413
-0.268809
-0.08485
0.327725
-1.73284
0.428176
-1.2989
0.508739
-0.734218
0.575083
-0.335153
-0.118945
1.19774
-1.59028
-1.34029
1.00783
-1.10899
0.889893
-0.616279
0.837652
-0.282912
-0.0973167
1.32982
-1.13301
-1.7871
0.982056
-0.76122
0.773939
-0.408161
0.684319
-0.193292
-0.0690642
1.18946
-0.607645
-1.71482
0.816308
-0.388071
0.610605
-0.202458
0.515999
-0.0986862
-0.0368946
0.822372
-0.185287
-1.24473
0.545347
-0.111046
0.3964
-0.0535114
0.324564
-0.02685
-0.0109279
0.306717
-0.492004
0.195672
0.14216
0.11531
1.56259
0.0462502
-1.57778
1.52169
0.126156
1.46266
0.191288
1.39633
0.236643
0.250052
1.67586
0.0356514
-1.66526
1.69932
0.102695
1.73081
0.159797
1.76528
0.202172
0.228236
1.38797
0.0184774
-1.37079
1.43706
0.0536078
1.51388
0.0829772
1.61015
0.105893
0.12357
0.977699
0.0053145
-0.964536
1.01588
0.0154232
1.07582
0.0230446
1.15388
0.0278276
0.0327219
0.392987
-0.387673
0.40841
0.431455
0.459282
0.128771
0.327625
-0.264667
-0.19173
0.0781584
0.273214
-0.222601
0.0385243
0.209793
-0.170159
0.0113401
0.136444
-0.109259
0.0519532
-0.0406132
0.115952
0.378905
-0.167232
0.0714974
0.317668
0.0356184
0.245672
0.0105611
0.161501
0.0625144
0.0888493
0.418274
-0.128218
0.0548108
0.351707
0.0272877
0.273195
0.00806495
0.180724
0.0705793
0.0552409
0.443533
-0.0805
0.0337631
0.373184
0.016655
0.290303
0.00486429
0.192514
0.0754436
0.0174806
-0.0259023
0.0104998
0.00508593
0.00145207
0.0726274
0.0873316
-0.107257
-0.052702
0.0428819
0.0737105
-0.0439649
0.0197317
0.0569404
-0.0337902
0.00513648
0.0368089
-0.0222137
0.0132948
-0.00815835
0.07602
0.12591
-0.114599
0.0437191
0.106011
0.0196422
0.0810173
0.00508996
0.0513612
0.0183849
0.0843962
0.168564
-0.12705
0.0490869
0.141321
0.0227324
0.107372
0.00617311
0.0679205
0.024558
0.0940602
0.214683
-0.140179
0.055772
0.179609
0.0265268
0.136617
0.00742845
0.0870189
0.0319865
0.107402
-0.157385
0.064409
0.0308672
0.00862674
0.513187
0.175205
-0.292413
0.562315
0.161679
-0.210807
0.496727
0.313328
-0.24774
0.33488
0.803227
-0.641379
1.04138
-0.813761
0.513442
0.0577432
0.55995
0.115171
0.4874
0.385878
0.331326
0.959301
1.25811
0.513498
-0.0597752
0.546693
0.0819758
0.466854
0.465718
0.328104
1.09805
1.45917
0.509851
-0.173647
0.525449
0.0663785
0.441913
0.549253
0.323904
1.21606
1.64289
0.498804
-0.276471
0.494601
0.0705817
0.412746
0.631108
0.31206
1.31675
1.79757
0.764581
-0.437032
0.845155
-0.00999196
0.956449
0.519814
1.16944
1.10375
1.61945
1.34756
0.707557
-0.540569
0.78251
-0.084945
0.954787
0.347537
1.29776
0.760781
1.14344
1.77376
0.602289
-0.538837
0.633196
-0.115852
0.803598
0.177136
1.17253
0.391849
0.612033
1.70394
0.448456
-0.383273
0.405556
-0.0729525
0.536111
0.0465808
0.816007
0.111953
0.186913
1.24113
0.220747
0.147795
0.194375
0.306329
0.493242
1.40259
-0.246759
1.46574
-0.230386
1.52299
-0.185471
1.56316
-0.120662
-0.0405272
1.75266
-0.225656
1.71974
-0.197464
1.69062
-0.156349
1.67084
-0.10088
-0.0349533
1.60147
-0.123191
1.50876
-0.104754
1.43456
-0.082148
1.38705
-0.0533718
-0.0186948
1.15107
-0.0331327
1.0743
-0.0279881
1.0153
-0.0231433
0.977571
-0.0156448
-0.00566003
0.460109
0.432121
0.408978
0.393333
0.00250152
0.0430083
-0.0455098
0.00732828
0.101056
-0.105882
0.0160959
0.148402
-0.157169
0.0165793
0.151916
-0.152399
0.114033
0.0148148
-0.112269
0.00682875
0.0361796
0.0201788
0.0877055
0.0409597
0.127621
0.0482572
0.144618
0.116387
0.0459037
0.00880978
0.0273698
0.0270781
0.0694372
0.0521532
0.102546
0.0730952
0.123676
0.11404
0.0754415
0.0078017
0.0195681
0.0255148
0.0517241
0.0497506
0.0783097
0.0774338
0.0959932
0.0992478
0.0922262
0.00509909
0.014469
0.0179738
0.0388494
0.0367677
0.0595158
0.0600105
0.0727504
0.0767488
0.0825095
0.0034239
0.0110451
0.0125807
0.0296926
0.0274436
0.0446528
0.0470575
0.0531365
0.0561563
0.0676499
0.00222277
0.00882232
0.00893018
0.0229852
0.022266
0.031317
0.0410158
0.0343866
0.0347726
0.0623996
0.0016734
0.00714892
0.0101278
0.0145307
0.0261849
0.0152599
0.0467402
0.0138311
0.011523
0.0699896
0.00374531
0.0034036
0.0175465
0.000729473
0.0368858
-0.00407948
0.0599087
-0.00919194
-0.0143881
0.0858196
0.0075165
0.0236283
0.0448541
0.0704616
0.0994564
0.15381
0.0198171
-0.105977
0.243367
-0.130308
0.0407501
0.2647
-0.0379993
0.016666
0.269728
0.00372939
-0.00875702
-0.00153382
-0.00467788
0.21479
-0.132574
0.325274
-0.240792
0.351392
-0.0641176
0.353906
0.00121571
-0.00413636
0.260128
-0.322712
0.391415
-0.372078
0.433597
-0.106299
0.434741
7.16839e-05
-0.00202631
0.293399
-0.530292
0.438783
-0.517462
0.502633
-0.170149
0.508574
-0.00586989
0.00341424
0.312491
0.465664
0.550389
0.5705
0.070668
0.0386778
-0.109346
0.07864
-0.00797198
0.0829567
-0.00431666
0.080373
0.00258366
0.00116402
0.194093
-0.261393
0.226871
0.23922
0.233046
0.0207327
-0.00433166
-0.0164011
0.0342835
-0.0135507
0.0567628
-0.0224793
0.0856229
-0.0288601
-0.023723
0.0539255
-0.0434423
0.0862785
0.139241
0.202607
0.0478305
-0.0551477
0.0763535
-0.0690364
0.0275576
-0.0521678
0.0724407
0.0123374
-0.0443791
0.0595993
0.003318
-0.0300415
0.0390609
-0.011261
0.014579
0.0453903
-0.0322649
-0.0682731
0.0249618
-0.0317394
0.00982316
-0.0292405
0.00218995
-0.0224083
-0.00907108
0.0560617
-0.00668206
-0.0816445
0.0331254
-0.0088031
0.0142785
-0.0103936
0.00258899
-0.0107188
-0.00648207
0.0701065
0.0215631
-0.0983516
0.0448325
0.016471
0.0233658
0.0110732
0.00692195
0.00572503
0.000439866
0.0744179
-0.105557
0.0469242
0.0242072
0.00771854
0.0165859
-0.114031
-0.0148232
0.016095
-0.151908
0.00730698
-0.148381
0.00248925
-0.101065
-0.0430206
0.0482731
-0.116376
-0.0459284
0.0409336
-0.144569
0.0201648
-0.127612
0.00682156
-0.0877214
-0.036199
0.073127
-0.11397
-0.0755329
0.0521255
-0.123568
0.0270664
-0.102553
0.00880671
-0.0694617
-0.0273923
0.0773418
-0.0989715
-0.0923402
0.0496229
-0.0958487
0.0254344
-0.0783647
0.00777598
-0.0518032
-0.0196163
0.0599529
-0.0825708
0.0365449
0.0177796
0.00503731
0.341916
0.583365
-0.529301
0.280527
0.225092
-0.163703
0.247474
0.0547673
-0.0217152
0.165319
0.113708
-0.0315522
-0.000926701
0.0972085
0.407784
0.57156
0.371374
0.261502
0.335661
0.0904806
0.233567
0.215802
0.164368
0.459844
0.507696
0.451403
0.269943
0.409262
0.132622
0.283771
0.341293
0.366495
0.495356
0.40832
0.514588
0.250711
0.461449
0.18576
0.317861
0.48488
0.586005
0.511887
0.551791
0.489811
0.333312
0.158667
0.351384
0.084769
0.0738979
0.0800371
0.00473188
0.0724334
0.0076037
-0.0369662
0.1094
0.332134
0.242329
0.225346
0.201397
0.261639
0.0856729
0.0237267
0.0567946
0.0288783
0.0342945
0.0225001
0.0207362
0.0135583
0.00433515
0.202795
0.139333
0.0863005
0.0539304
)
;

boundaryField
{
    left
    {
        type            calculated;
        value           nonuniform List<scalar> 
17
(
-0.60402
-0.60402
-0.60402
-0.60402
-0.60402
-0.39598
-0.39598
-0.39598
-0.39598
-0.39598
-0.39598
-0.39598
-0.39598
-0.39598
-0.39598
-0.510051
-0.510051
)
;
    }
    right
    {
        type            calculated;
        value           nonuniform List<scalar> 
17
(
0.079209
0.229532
0.27594
0.356508
0.432631
0.503134
0.566011
0.619397
0.655948
0.662157
0.651452
0.609177
0.816024
0.656066
0.48383
0.298598
0.104382
)
;
    }
    down
    {
        type            calculated;
        value           uniform 0;
    }
    up
    {
        type            calculated;
        value           uniform 0;
    }
    cylinder
    {
        type            calculated;
        value           uniform 0;
    }
    defaultFaces
    {
        type            empty;
    }
}


// ************************************************************************* //
