/*--------------------------------*- C++ -*----------------------------------*\
  =========                 |
  \\      /  F ield         | OpenFOAM: The Open Source CFD Toolbox
   \\    /   O peration     | Website:  https://openfoam.org
    \\  /    A nd           | Version:  13
     \\/     M anipulation  |
\*---------------------------------------------------------------------------*/
FoamFile
{
    format      ascii;
    class       volScalarField;
    location    "0.69";
    object      strainRateViscosityModel:nu;
}
// * * * * * * * * * * * * * * * * * * * * * * * * * * * * * * * * * * * * * //

dimensions      [0 2 -1 0 0 0 0];

internalField   nonuniform List<scalar> 
440
(
9.41955
8.96972
8.54449
8.04237
7.58621
9.68996
9.35816
8.98176
8.48003
7.87556
9.80074
9.53084
9.15876
8.58508
7.84825
9.84962
9.61817
9.25861
8.64755
7.86606
9.86917
9.65607
9.30591
8.68094
7.90878
1.30608
1.7909
2.05042
2.30063
2.36467
3.385
3.30257
3.31723
3.42571
3.49644
5.89235
5.27154
4.92819
4.72839
4.75814
7.76965
6.99346
6.4204
5.90498
5.82747
8.82069
8.15136
7.55207
6.91823
6.87166
1.85198
0.846296
0.41813
0.154105
0.140123
2.61713
0.910006
0.365637
0.119
0.0346283
3.51311
1.1498
0.304207
0.0772313
0.0131064
4.09203
1.43732
0.277691
0.0463591
0.0314024
4.60447
1.75463
0.324578
0.0117947
0.131921
4.22973
1.74133
0.29753
0.0606372
0.277348
3.7111
1.82391
0.62488
0.314489
0.419702
4.91938
3.20866
1.23828
0.55603
0.54677
7.00945
4.28894
1.91603
0.900651
0.673455
8.27283
5.07689
2.49614
1.30657
0.851567
2.84827
3.68263
4.61979
5.50572
6.14904
3.68373
3.6966
3.77216
3.85212
3.36783
8.22651
8.08655
7.79931
7.3854
6.34635
9.05291
8.99237
8.85904
8.6215
8.16016
9.60671
9.56995
9.48702
9.33805
9.1188
7.50327
8.01244
8.55943
9.01088
9.46419
7.794
8.45164
8.98713
9.37787
9.70864
7.77899
8.55904
9.15942
9.54077
9.80944
7.81627
8.62755
9.25739
9.62275
9.85359
7.89134
8.67366
9.30535
9.65743
9.87034
2.53051
2.47159
2.27176
2.11755
2.04638
3.47938
3.43134
3.47167
3.69135
4.24358
4.63663
4.65968
5.04963
5.59885
6.45051
5.68435
5.82627
6.49758
7.18785
8.04097
6.75347
6.84185
7.58041
8.24273
8.9354
0.206441
0.0590689
0.278412
0.865127
2.02441
0.176102
0.0747553
0.223607
0.884695
2.65989
0.155607
0.0791332
0.169074
1.08083
3.44176
0.144244
0.0658323
0.158128
1.38832
3.94355
0.149454
0.0726424
0.252648
1.73703
4.36563
0.201454
0.110698
0.270342
1.87022
4.10162
0.332936
0.128951
0.271517
1.80946
3.86108
0.663332
0.252238
0.775766
3.03665
4.90779
2.2739
0.817684
1.50989
4.16224
6.96072
5.05657
2.53969
2.42174
5.03825
8.2791
5.9473
5.26629
4.40247
3.51047
2.77984
3.52215
3.99094
3.97084
3.87628
3.76363
6.32097
7.35232
7.77904
8.06771
8.21849
8.12125
8.59995
8.84945
8.98862
9.05203
9.11693
9.33781
9.4874
9.57051
9.60696
9.31087
7.91685
1.39865
3.63019
7.73679
9.08185
7.44079
3.20596
1.64075
6.78904
8.39869
6.5777
4.20849
1.00356
4.14772
6.81565
5.09475
3.4553
1.70061
1.03875
4.50382
3.14534
2.03883
1.37789
0.459946
2.5972
1.61868
1.00244
0.796841
0.926448
1.45614
0.779066
0.579612
0.612761
0.685498
0.801499
0.405813
0.590296
0.759049
0.832338
0.305787
0.507407
0.885062
1.0506
1.11202
0.162205
0.935173
1.28109
1.51727
1.57169
0.190375
0.362199
0.708038
0.774729
0.730393
0.395581
0.500366
0.577092
0.633499
0.61793
0.614012
0.64692
0.463037
0.489126
0.501655
0.965914
0.795309
0.4156
0.348941
0.380159
1.33088
0.845679
0.420985
0.229863
0.262359
1.10558
0.857591
1.12123
1.10677
1.00015
0.283901
0.471414
0.863777
0.918153
0.846334
9.19116
8.83865
7.7588
5.7302
3.55966
8.58729
7.7229
5.85159
3.49152
0.866107
0.964755
0.858546
1.02699
1.6202
2.65822
0.813612
0.7677
0.704179
0.824653
1.52636
1.05964
1.01091
0.847706
0.553158
0.743779
1.38346
1.34641
1.14854
0.797213
0.228039
1.85401
1.80736
1.55543
1.23782
0.597838
7.73632
3.62712
1.39994
7.91508
9.31101
6.78522
1.64053
3.20264
7.43769
9.08249
4.13424
1.01087
4.19436
6.5731
8.40025
1.03672
1.70549
3.43366
5.0856
6.82214
0.476171
1.37637
2.01478
3.12758
4.52667
1.31132
0.54372
0.550714
0.453794
0.176079
0.676955
0.293347
0.467789
0.519998
0.486204
0.398078
0.158138
0.380415
0.621252
0.804405
0.288657
0.0716234
0.340218
0.772345
1.22283
0.244333
0.0438722
0.318256
0.855078
1.58639
5.48109
2.46066
1.03577
0.962111
1.14179
2.88743
1.08839
0.724589
0.556221
0.251937
3.56827
5.73579
7.75998
8.83918
9.19131
0.843444
3.47207
5.84497
7.72153
8.58713
)
;

boundaryField
{
    left
    {
        type            calculated;
        value           nonuniform List<scalar> 
17
(
0.454428
1.11943
2.18445
3.91024
6.58034
0.302843
0.187448
0.137223
0.142388
0.212023
2.95903
2.06108
1.33654
0.816477
0.497233
6.97874
4.57968
)
;
    }
    right
    {
        type            calculated;
        value           nonuniform List<scalar> 
17
(
1.00045
0.847803
0.732518
0.620792
0.503983
0.379557
0.256012
0.128088
0.0276344
0.0121828
0.0388513
0.172458
0.340363
0.475513
0.582309
0.687426
0.84335
)
;
    }
    down
    {
        type            calculated;
        value           nonuniform List<scalar> 
20
(
5.99499
2.99964
1.14526
1.04467
1.85297
4.27034
6.38386
8.13143
9.0158
9.30926
9.30909
9.01516
8.12995
6.3798
4.26409
1.83162
0.932231
1.18766
1.16371
1.04756
)
;
    }
    up
    {
        type            calculated;
        value           nonuniform List<scalar> 
20
(
8.54861
5.40484
2.72563
1.45575
0.916821
9.69562
9.66615
9.59857
9.47421
9.2934
9.29639
9.47646
9.60017
9.66726
9.69603
5.70455
3.14965
2.66171
5.39401
8.56549
)
;
    }
    cylinder
    {
        type            calculated;
        value           nonuniform List<scalar> 
40
(
1.37166
3.58982
6.11872
7.96043
8.95709
9.50513
9.74577
9.84079
9.88145
9.89745
9.54745
9.76283
9.84855
9.88496
9.89848
2.28455
4.52106
6.69736
8.23399
9.06989
3.04373
1.85028
1.09341
0.445093
0.605373
9.51905
9.33189
8.74232
7.26975
4.98619
9.51888
9.33114
8.74026
7.26152
4.95759
2.96576
1.73306
1.07385
0.668212
0.103757
)
;
    }
    defaultFaces
    {
        type            empty;
    }
}


// ************************************************************************* //
