# Selection   : all
# Cells       : 440
# Volume      : 7.374263e+01
# Time        	minMag(U)
4.21          	1.265580e-02
4.255         	8.641262e-03
4.305         	5.629658e-03
