/*--------------------------------*- C++ -*----------------------------------*\
  =========                 |
  \\      /  F ield         | OpenFOAM: The Open Source CFD Toolbox
   \\    /   O peration     | Website:  https://openfoam.org
    \\  /    A nd           | Version:  13
     \\/     M anipulation  |
\*---------------------------------------------------------------------------*/
FoamFile
{
    format      ascii;
    class       volScalarField;
    location    "2.5";
    object      p;
}
// * * * * * * * * * * * * * * * * * * * * * * * * * * * * * * * * * * * * * //

dimensions      [0 2 -2 0 0 0 0];

internalField   nonuniform List<scalar> 
1800
(
-1.50601
-1.50257
-1.49527
-1.4837
-1.47071
-1.45985
-1.45518
-1.46179
-1.47977
-1.53633
-1.53158
-1.52714
-1.52014
-1.51048
-1.49971
-1.49007
-1.48399
-1.48403
-1.49014
-1.51697
-1.57632
-1.56938
-1.56147
-1.55229
-1.54252
-1.5329
-1.52407
-1.51641
-1.51137
-1.51103
-1.63563
-1.62579
-1.61578
-1.60524
-1.5936
-1.58002
-1.56386
-1.54519
-1.52439
-1.50295
-1.71005
-1.69742
-1.68471
-1.67095
-1.65382
-1.63139
-1.60308
-1.56966
-1.53286
-1.49523
-1.79929
-1.78402
-1.76747
-1.74735
-1.71968
-1.68297
-1.63833
-1.58839
-1.53582
-1.48326
-1.89855
-1.88116
-1.85875
-1.82775
-1.78423
-1.72895
-1.66593
-1.59959
-1.53328
-1.46967
-1.99947
-1.97989
-1.94861
-1.90183
-1.83805
-1.76189
-1.68018
-1.59817
-1.51898
-1.44435
-2.09012
-2.06764
-2.02428
-1.95797
-1.87173
-1.77487
-1.67603
-1.5804
-1.49044
-1.40718
-2.15717
-2.13053
-2.0728
-1.98503
-1.87679
-1.76129
-1.64771
-1.54045
-1.44108
-1.34977
-1.12412
-1.12927
-1.13634
-1.14777
-1.16512
-1.18762
-1.21371
-1.2413
-1.26728
-1.28926
-1.27748
-1.28082
-1.28623
-1.29818
-1.31787
-1.34416
-1.37535
-1.40924
-1.4422
-1.47058
-1.42196
-1.42334
-1.42592
-1.43842
-1.46003
-1.48938
-1.52459
-1.56355
-1.60262
-1.63597
-1.53171
-1.52947
-1.53092
-1.54254
-1.56434
-1.59476
-1.63145
-1.672
-1.71796
-1.75453
-1.59333
-1.58723
-1.58585
-1.59467
-1.61384
-1.64203
-1.67717
-1.71698
-1.75881
-1.79603
-1.60857
-1.59937
-1.59442
-1.59812
-1.6111
-1.63285
-1.66202
-1.69669
-1.73462
-1.77005
-1.59144
-1.58114
-1.57303
-1.57006
-1.57357
-1.58449
-1.60285
-1.62772
-1.65776
-1.68889
-1.55993
-1.5509
-1.54129
-1.53243
-1.52611
-1.52479
-1.53036
-1.54362
-1.56487
-1.59292
-1.52768
-1.52116
-1.51172
-1.49937
-1.48619
-1.47574
-1.47159
-1.47639
-1.49218
-1.51864
-1.50523
-1.50109
-1.49266
-1.47953
-1.46436
-1.45104
-1.44401
-1.44724
-1.46252
-1.48986
-1.35981
-0.727431
-0.199849
0.0499454
0.0806372
0.0846976
0.0663637
0.0456239
0.0263237
0.00907335
-1.54409
-0.864804
-0.253937
0.0296834
0.0740786
0.0813878
0.0642734
0.0442409
0.0254631
0.00871478
-1.70604
-1.00782
-0.322607
0.00139025
0.0632625
0.0755791
0.060901
0.0422169
0.024302
0.00825832
-1.83914
-1.1343
-0.400267
-0.03403
0.0483147
0.0672506
0.056208
0.0395192
0.0228283
0.00770137
-1.91282
-1.23827
-0.478976
-0.0753194
0.0296231
0.0565178
0.050186
0.0361238
0.0210343
0.00704343
-1.92527
-1.31652
-0.553872
-0.12089
0.00779277
0.0437068
0.0429105
0.0320357
0.0189205
0.00628689
-1.87527
-1.36904
-0.622618
-0.169469
-0.0166885
0.029241
0.0345533
0.0273071
0.0165027
0.00544011
-1.79644
-1.39817
-0.684002
-0.219688
-0.04355
0.0134098
0.0252905
0.0220156
0.0138075
0.00451981
-1.72007
-1.40864
-0.737339
-0.269498
-0.0723083
-0.00363863
0.0152025
0.016199
0.0108402
0.00354203
-1.63915
-1.40623
-0.784292
-0.317271
-0.101869
-0.0215458
0.00441743
0.00988894
0.00758465
0.002508
-1.53328
-1.3281
-0.774027
-0.343202
-0.12872
-0.0419483
-0.0091985
0.00145276
0.00310227
0.00110992
-1.34965
-1.16037
-0.719238
-0.354978
-0.156185
-0.0659255
-0.0258095
-0.00900162
-0.00238107
-0.000634637
-1.2031
-1.03129
-0.680277
-0.369079
-0.181153
-0.0873074
-0.0408583
-0.0185453
-0.00739272
-0.00219552
-1.08328
-0.9289
-0.648568
-0.384412
-0.209175
-0.112194
-0.0581117
-0.0290293
-0.0126917
-0.003835
-0.979952
-0.85228
-0.632153
-0.406206
-0.23755
-0.133686
-0.0723362
-0.0377323
-0.017148
-0.00514774
-0.893068
-0.794618
-0.62434
-0.431267
-0.268767
-0.157457
-0.0874746
-0.0464197
-0.02133
-0.00630583
-0.819216
-0.751511
-0.626624
-0.461326
-0.299755
-0.178064
-0.0995161
-0.0530564
-0.0244218
-0.00704524
-0.759971
-0.722911
-0.634424
-0.488816
-0.326145
-0.194615
-0.108741
-0.0578872
-0.0265932
-0.00744983
-0.72273
-0.710825
-0.640609
-0.502963
-0.338526
-0.203229
-0.113737
-0.060407
-0.0276053
-0.0074738
-0.702673
-0.712166
-0.646054
-0.506629
-0.341304
-0.206696
-0.11631
-0.0619651
-0.02843
-0.00774702
-1.19213
-1.25974
-1.30944
-1.35164
-1.38188
-1.41858
-1.45139
-1.50649
-1.54248
-1.60971
-1.01304
-1.08676
-1.14386
-1.19613
-1.23611
-1.27741
-1.30931
-1.34466
-1.37456
-1.41542
-0.871493
-0.944186
-1.00494
-1.05799
-1.10102
-1.13797
-1.16813
-1.19497
-1.22042
-1.2471
-0.7554
-0.825341
-0.886585
-0.937811
-0.981133
-1.01586
-1.04549
-1.07026
-1.09361
-1.11612
-0.66049
-0.727654
-0.786972
-0.836481
-0.878662
-0.912761
-0.941636
-0.965644
-0.986538
-1.00506
-0.583554
-0.648127
-0.704764
-0.752657
-0.793069
-0.826187
-0.853468
-0.875635
-0.893756
-0.908547
-0.522459
-0.584623
-0.638799
-0.684759
-0.723078
-0.754255
-0.779236
-0.798836
-0.814192
-0.825987
-0.476524
-0.536719
-0.58895
-0.632736
-0.668883
-0.697444
-0.719859
-0.736426
-0.749006
-0.757447
-0.448956
-0.508043
-0.558871
-0.601099
-0.635894
-0.662528
-0.682961
-0.696711
-0.70682
-0.711525
-0.436589
-0.495978
-0.547227
-0.590101
-0.624595
-0.651188
-0.67094
-0.683691
-0.691797
-0.692402
0.31765
0.243177
0.157926
0.066624
-0.0320468
-0.14057
-0.258837
-0.38022
-0.482344
-0.532261
0.104782
0.0241853
-0.0656438
-0.163927
-0.272588
-0.393344
-0.525069
-0.659393
-0.771265
-0.824629
-0.128517
-0.212246
-0.304933
-0.407772
-0.52296
-0.651828
-0.792643
-0.935774
-1.05434
-1.10909
-0.353678
-0.441271
-0.538552
-0.647064
-0.76869
-0.904372
-1.05214
-1.20195
-1.32415
-1.37788
-0.557356
-0.650099
-0.753361
-0.868413
-0.996891
-1.13948
-1.29256
-1.4484
-1.56762
-1.62121
-0.740556
-0.838528
-0.947299
-1.06791
-1.20183
-1.35002
-1.50761
-1.66
-1.77709
-1.82922
-0.902229
-1.00439
-1.11727
-1.24167
-1.37886
-1.52869
-1.68563
-1.83394
-1.94527
-1.99396
-1.04654
-1.14993
-1.26344
-1.38816
-1.5249
-1.67256
-1.82463
-1.96469
-2.06611
-2.1099
-1.17086
-1.27213
-1.3832
-1.50502
-1.63774
-1.77916
-1.92149
-2.04807
-2.13635
-2.17434
-1.27278
-1.36978
-1.47594
-1.59176
-1.71662
-1.84716
-1.97457
-2.08315
-2.15636
-2.18835
1.71859
1.73253
1.74686
1.76044
1.77242
1.78212
1.78884
1.79263
1.79573
1.79957
1.64249
1.65316
1.66345
1.67231
1.67902
1.6829
1.68326
1.68045
1.67778
1.6782
1.54552
1.55197
1.55704
1.55983
1.55985
1.55639
1.54878
1.5377
1.52775
1.52401
1.42927
1.43097
1.4298
1.42522
1.41702
1.40449
1.387
1.36567
1.34669
1.33811
1.2935
1.28941
1.28108
1.26825
1.25096
1.22845
1.20011
1.16747
1.13838
1.12441
1.14198
1.13202
1.11557
1.0931
1.06509
1.03087
0.989933
0.944403
0.904054
0.883982
0.974735
0.958317
0.933693
0.901616
0.862736
0.816308
0.761962
0.702557
0.650128
0.623702
0.80083
0.776936
0.741954
0.697935
0.646214
0.586108
0.517332
0.443423
0.37869
0.34585
0.625212
0.593659
0.547787
0.490946
0.425127
0.349734
0.264772
0.174848
0.0970272
0.0578414
0.463063
0.413425
0.349632
0.276671
0.195561
0.104681
0.00381321
-0.10158
-0.191725
-0.236637
1.46784
1.44776
1.44078
1.43831
1.43601
1.44351
1.46427
1.50116
1.56184
1.65678
1.46089
1.44194
1.43527
1.43174
1.42868
1.43327
1.45096
1.48163
1.53141
1.60827
1.4545
1.43612
1.4296
1.42473
1.42076
1.42194
1.43625
1.45899
1.49537
1.54803
1.44865
1.43035
1.42382
1.41731
1.41225
1.40947
1.42022
1.43308
1.45421
1.47532
1.44332
1.42465
1.41792
1.40953
1.40315
1.39585
1.4029
1.40367
1.40862
1.38897
1.43849
1.41908
1.41192
1.40143
1.39342
1.38114
1.38421
1.37067
1.35884
1.28819
1.43416
1.41365
1.40582
1.39304
1.38306
1.36541
1.36405
1.33406
1.30499
1.17134
1.43037
1.40838
1.39961
1.38439
1.37205
1.34877
1.34223
1.29407
1.24682
1.03978
1.42713
1.40329
1.39331
1.37552
1.36041
1.33137
1.31856
1.25087
1.18258
0.891731
1.42449
1.3984
1.38693
1.36642
1.34836
1.31342
1.294
1.20621
1.11489
0.738672
1.42188
1.39278
1.37878
1.35505
1.33184
1.28999
1.26
1.15164
1.03746
0.593952
1.42056
1.38711
1.36973
1.34252
1.31294
1.26544
1.22242
1.10492
0.963534
0.571985
1.42121
1.3824
1.36093
1.33068
1.29418
1.24319
1.18687
1.06787
0.903818
0.562429
1.4244
1.37869
1.35233
1.3195
1.27582
1.22375
1.15399
1.03875
0.855202
0.559192
1.43068
1.376
1.34385
1.30878
1.25762
1.20748
1.1239
1.0166
0.81803
0.560636
1.44077
1.37438
1.33574
1.29882
1.23986
1.19443
1.09752
1.00031
0.79171
0.563049
1.45423
1.37213
1.32593
1.28711
1.22211
1.18364
1.07546
0.988014
0.774214
0.565991
1.47923
1.37447
1.31969
1.27766
1.20668
1.17504
1.05808
0.979545
0.763314
0.569458
1.49131
1.36663
1.30648
1.26504
1.19367
1.16905
1.04659
0.975506
0.758627
0.574042
1.56754
1.37969
1.30985
1.26103
1.18918
1.16648
1.04078
0.975185
0.756562
0.578739
0.303983
0.1302
-0.0763604
-0.275977
-0.455562
-0.616985
-0.761662
-0.89337
-1.0089
-1.11018
0.256585
0.119349
-0.0371875
-0.195111
-0.342303
-0.478525
-0.603731
-0.722496
-0.830286
-0.929836
0.245562
0.129439
0.00379228
-0.125768
-0.251983
-0.372813
-0.48751
-0.596571
-0.697106
-0.789845
0.263684
0.156176
0.0438034
-0.068825
-0.180037
-0.288451
-0.39358
-0.49384
-0.588522
-0.675819
0.287037
0.185996
0.0822576
-0.0197498
-0.120204
-0.219205
-0.31675
-0.410959
-0.501025
-0.584084
0.310842
0.21536
0.118054
0.0230332
-0.0702684
-0.162824
-0.254837
-0.344645
-0.430726
-0.510546
0.333159
0.242459
0.150126
0.0598193
-0.0290311
-0.117523
-0.205803
-0.2923
-0.375204
-0.452303
0.352964
0.266437
0.178131
0.0908685
0.00425154
-0.0823532
-0.168712
-0.253144
-0.333772
-0.408524
0.369945
0.286942
0.201802
0.115878
0.0292724
-0.0576431
-0.143881
-0.227743
-0.307609
-0.381702
0.382981
0.301988
0.217971
0.131226
0.0430402
-0.0451312
-0.131884
-0.21583
-0.295494
-0.369476
-1.19987
-1.1669
-1.09658
-1.00712
-0.915512
-0.831545
-0.759118
-0.699438
-0.652901
-0.619976
-1.25265
-1.22335
-1.16498
-1.08929
-1.00938
-0.934633
-0.869427
-0.815418
-0.773598
-0.74511
-1.24782
-1.22156
-1.1759
-1.1166
-1.05168
-0.988934
-0.93293
-0.885733
-0.8488
-0.823484
-1.19784
-1.17399
-1.13974
-1.09689
-1.0486
-1.0001
-0.955494
-0.917031
-0.886386
-0.864921
-1.12095
-1.09949
-1.07403
-1.04473
-1.01163
-0.977186
-0.944165
-0.914397
-0.889393
-0.869752
-1.03619
-1.01767
-0.998379
-0.978247
-0.956419
-0.933521
-0.91098
-0.889911
-0.871749
-0.857516
-0.958225
-0.94342
-0.928639
-0.913939
-0.898899
-0.883706
-0.868942
-0.855316
-0.843347
-0.832925
-0.894749
-0.884094
-0.873178
-0.861858
-0.850223
-0.83865
-0.827915
-0.818161
-0.811659
-0.808069
-0.846361
-0.83994
-0.832552
-0.823812
-0.814023
-0.804053
-0.795191
-0.789158
-0.785439
-0.794518
-0.810117
-0.807035
-0.802206
-0.795036
-0.785904
-0.776497
-0.768743
-0.766041
-0.767277
-0.790304
-0.787713
-0.785903
-0.781541
-0.773824
-0.764535
-0.754935
-0.746872
-0.743787
-0.746098
-0.748606
-0.784877
-0.782542
-0.777939
-0.770617
-0.761562
-0.752237
-0.745231
-0.742218
-0.744617
-0.747842
-0.795487
-0.792379
-0.788676
-0.784458
-0.780222
-0.776935
-0.775749
-0.777663
-0.783255
-0.79057
-0.80553
-0.803257
-0.801798
-0.801754
-0.803547
-0.807674
-0.814547
-0.824311
-0.836436
-0.848537
-0.809252
-0.809268
-0.810485
-0.81371
-0.819455
-0.827837
-0.838677
-0.851506
-0.866428
-0.874591
-0.807926
-0.810801
-0.814963
-0.820962
-0.829701
-0.841309
-0.855376
-0.87103
-0.887541
-0.906655
-0.810478
-0.815969
-0.822551
-0.830409
-0.840917
-0.854132
-0.869353
-0.885704
-0.903522
-0.925741
-0.833157
-0.839844
-0.847749
-0.857316
-0.86967
-0.884671
-0.901392
-0.918855
-0.937202
-0.958324
-0.890817
-0.897963
-0.906484
-0.916939
-0.930732
-0.947496
-0.966085
-0.985201
-1.00415
-1.02319
-0.989252
-0.99578
-1.00393
-1.01493
-1.0303
-1.0495
-1.07116
-1.09354
-1.11457
-1.13318
-0.828694
-0.848919
-0.543542
-0.318364
-0.11912
0.00328393
0.0385923
0.0384318
0.0257329
0.00956353
-0.911037
-0.862592
-0.460475
-0.22847
-0.0719132
0.0177941
0.0419884
0.0388422
0.0255687
0.00946536
-0.99908
-0.845051
-0.371766
-0.146625
-0.0319028
0.0310291
0.0461519
0.03993
0.0257507
0.00947094
-1.07179
-0.800655
-0.29605
-0.079171
0.000325514
0.0433207
0.0507286
0.0413876
0.0261121
0.00952493
-1.11824
-0.74322
-0.240757
-0.0292344
0.0252653
0.0546248
0.0552595
0.0429401
0.0265269
0.00959049
-1.12222
-0.679765
-0.200394
0.00697913
0.0458159
0.0650986
0.059442
0.0443835
0.0269081
0.0096421
-1.09957
-0.612909
-0.169652
0.0342916
0.0623025
0.0737276
0.0628998
0.0455448
0.0271839
0.009658
-1.08948
-0.56789
-0.149327
0.0530978
0.0740006
0.0800857
0.0654186
0.0463136
0.0273008
0.00962131
-1.12542
-0.570938
-0.146662
0.062145
0.0807709
0.0840281
0.0668811
0.0466173
0.0272175
0.0095186
-1.21552
-0.624559
-0.163452
0.0610449
0.0829011
0.0855643
0.067216
0.0464026
0.026901
0.00933894
-0.652595
-0.651837
-0.609277
-0.461804
-0.194064
-0.0249166
0.033121
0.0392084
0.0270764
0.0101827
-0.645339
-0.642782
-0.611081
-0.471684
-0.197867
-0.0247727
0.0335596
0.03929
0.0269717
0.0101048
-0.661651
-0.666584
-0.617536
-0.471194
-0.199989
-0.0238146
0.0337203
0.0389754
0.0266679
0.00998501
-0.702423
-0.720355
-0.617003
-0.456698
-0.19099
-0.0194523
0.0342826
0.0385316
0.0263025
0.00984004
-0.763081
-0.798385
-0.593866
-0.392776
-0.161206
-0.0102161
0.0358391
0.0383743
0.0260539
0.00972921
-0.587786
-0.70752
-0.788553
-0.837679
-0.849729
-0.847183
-0.833109
-0.79948
-0.770069
-0.728661
-0.588399
-0.709952
-0.789507
-0.837615
-0.844109
-0.84343
-0.825637
-0.789666
-0.766058
-0.720938
-0.590477
-0.713297
-0.791794
-0.838709
-0.84117
-0.843251
-0.818267
-0.791407
-0.769734
-0.737247
-0.595575
-0.720006
-0.798428
-0.843402
-0.845624
-0.845332
-0.818039
-0.801037
-0.782673
-0.782399
-0.604418
-0.730864
-0.80965
-0.852392
-0.856192
-0.848749
-0.825163
-0.808124
-0.793319
-0.823247
1.43356
1.42617
1.41267
1.39578
1.37629
1.35329
1.32622
1.29682
1.2724
1.26155
1.5229
1.52623
1.52368
1.5171
1.50754
1.49455
1.47769
1.45833
1.44229
1.43574
1.6083
1.61635
1.62014
1.62091
1.61939
1.61517
1.60771
1.59779
1.58961
1.58712
1.68218
1.69421
1.70375
1.71123
1.71688
1.72019
1.72054
1.7183
1.71649
1.71763
1.74343
1.7585
1.77207
1.78421
1.7949
1.80364
1.80977
1.81339
1.8166
1.82061
1.78775
1.80475
1.82137
1.83725
1.85203
1.86515
1.87593
1.88419
1.89126
1.89761
1.8144
1.83257
1.85108
1.86925
1.88648
1.90219
1.91569
1.92666
1.93606
1.94384
1.82143
1.83987
1.85913
1.87829
1.89657
1.91334
1.92791
1.93992
1.95018
1.95848
1.8081
1.82597
1.8448
1.86354
1.8813
1.89743
1.91124
1.92242
1.93194
1.93977
1.77391
1.7903
1.80751
1.82439
1.84005
1.85382
1.86501
1.87345
1.88058
1.88692
-0.448932
-0.487789
-0.538983
-0.602991
-0.680399
-0.770454
-0.870038
-0.969414
-1.04903
-1.08549
-0.238773
-0.283181
-0.338713
-0.406046
-0.48617
-0.5791
-0.683464
-0.789207
-0.87516
-0.91382
-0.00147639
-0.0508967
-0.11032
-0.180134
-0.261499
-0.354945
-0.458931
-0.565177
-0.65632
-0.695708
0.244161
0.191423
0.129903
0.0595034
-0.0208906
-0.11197
-0.212523
-0.316097
-0.404122
-0.444712
0.48025
0.426987
0.36631
0.298279
0.221845
0.136108
0.0418425
-0.0552011
-0.136881
-0.175806
0.693808
0.643732
0.587559
0.525357
0.45607
0.378657
0.293627
0.20611
0.132774
0.0973925
0.882143
0.838602
0.79005
0.736424
0.676602
0.609484
0.535444
0.459076
0.395314
0.364569
1.05202
1.01616
0.976171
0.931906
0.882126
0.825713
0.762993
0.69807
0.644103
0.618343
1.2112
1.18191
1.14859
1.11201
1.07102
1.02445
0.972494
0.918667
0.874239
0.853419
1.35004
1.32688
1.2988
1.2689
1.23653
1.20029
1.1599
1.11788
1.08335
1.06753
1.5864
1.48995
1.47493
1.46888
1.47013
1.49048
1.51264
1.54599
1.55912
1.52829
1.56867
1.48865
1.47464
1.4697
1.47032
1.49034
1.51443
1.55155
1.57905
1.58333
1.55264
1.4863
1.47326
1.4694
1.46963
1.48909
1.5151
1.55678
1.59867
1.63683
1.53817
1.48309
1.47102
1.46813
1.46809
1.48682
1.51432
1.55934
1.6131
1.67787
1.5251
1.4792
1.46807
1.46598
1.46576
1.48359
1.51194
1.55925
1.62251
1.70844
1.51324
1.47475
1.46452
1.46303
1.46265
1.47938
1.50793
1.55649
1.62659
1.72796
1.50246
1.46987
1.46048
1.45934
1.45876
1.4742
1.50232
1.55096
1.6251
1.73644
1.49263
1.46465
1.45601
1.45497
1.45412
1.46802
1.49514
1.54264
1.6179
1.73375
1.48364
1.45917
1.4512
1.44997
1.44876
1.46086
1.4864
1.53157
1.60502
1.7196
1.4754
1.45352
1.44611
1.4444
1.44272
1.45269
1.4761
1.51776
1.58636
1.69391
1.75407
1.49408
1.46625
1.45633
1.46197
1.48012
1.49185
1.50757
1.46965
1.43553
1.67964
1.48797
1.46707
1.45873
1.46311
1.48103
1.49252
1.50886
1.47233
1.43282
1.65668
1.49262
1.47094
1.46164
1.46467
1.48281
1.49508
1.51299
1.48256
1.43492
1.6298
1.49204
1.47305
1.46449
1.46662
1.48537
1.49998
1.52115
1.50077
1.44684
1.60641
1.49091
1.47434
1.46699
1.46863
1.48829
1.50602
1.53236
1.52588
1.4675
1.23795
1.14894
1.02796
0.871193
0.680719
0.462779
0.227535
-0.0100078
-0.233342
-0.427756
1.23276
1.14669
1.03071
0.878526
0.692732
0.478043
0.243309
0.00330455
-0.224789
-0.424543
1.2437
1.15364
1.03547
0.884762
0.702333
0.489977
0.255127
0.0126539
-0.219464
-0.423525
1.27525
1.17204
1.04368
0.890764
0.709941
0.498748
0.263163
0.0182173
-0.217482
-0.425475
1.32705
1.20356
1.05729
0.896715
0.714354
0.503502
0.26774
0.0209759
-0.218305
-0.430754
)
;

boundaryField
{
    left
    {
        type            zeroGradient;
    }
    right
    {
        type            fixedValue;
        value           uniform 0;
    }
    down
    {
        type            zeroGradient;
    }
    up
    {
        type            zeroGradient;
    }
    cylinder
    {
        type            zeroGradient;
    }
    defaultFaces
    {
        type            empty;
    }
}


// ************************************************************************* //
