/*--------------------------------*- C++ -*----------------------------------*\
  =========                 |
  \\      /  F ield         | OpenFOAM: The Open Source CFD Toolbox
   \\    /   O peration     | Website:  https://openfoam.org
    \\  /    A nd           | Version:  13
     \\/     M anipulation  |
\*---------------------------------------------------------------------------*/
FoamFile
{
    format      ascii;
    class       volVectorField;
    location    "41.2";
    object      U;
}
// * * * * * * * * * * * * * * * * * * * * * * * * * * * * * * * * * * * * * //

dimensions      [0 1 -1 0 0 0 0];

internalField   nonuniform List<vector> 
440
(
(-0.228819 0.186189 -5.65378e-20)
(-0.247651 0.210995 -2.84631e-19)
(-0.0724079 0.0717696 3.02288e-20)
(0.302788 0.0583772 -2.71084e-20)
(0.273603 0.120724 -1.69698e-23)
(-0.0730559 0.0512948 1.88342e-20)
(0.0521717 0.0675092 2.66349e-20)
(0.506383 0.010977 3.06529e-20)
(1.01799 -0.00979173 -4.91844e-21)
(1.47779 -0.0166076 -2.60367e-20)
(-0.0353228 0.0164596 4.91313e-20)
(0.418375 -0.0204998 5.69961e-19)
(1.14346 -0.00713874 -2.87997e-19)
(1.73076 0.0180612 -9.36724e-19)
(2.24297 0.0393176 4.39869e-19)
(0.169204 -0.0388578 -1.58825e-19)
(1.08403 0.00643421 -4.61606e-19)
(1.85275 0.0794123 1.4442e-18)
(2.29843 0.12772 1.62268e-18)
(2.41829 0.144914 -4.37624e-19)
(0.498998 -0.00775957 -2.73457e-19)
(1.62767 0.178391 -5.65669e-19)
(2.18506 0.266948 1.71919e-18)
(2.33508 0.286778 1.86979e-18)
(2.39494 0.266117 6.39616e-19)
(0.0207105 -0.257538 -1.13183e-19)
(0.0748168 -0.521813 -2.7424e-19)
(0.111385 -0.595113 4.77473e-19)
(0.118384 -0.534287 -5.30664e-20)
(0.0749009 -0.392041 -4.51894e-19)
(0.0983293 -0.317298 1.43247e-19)
(0.263909 -0.61628 5.37034e-19)
(0.315048 -0.64109 1.92204e-20)
(0.301277 -0.500352 1.1889e-20)
(0.206342 -0.267968 -1.43319e-20)
(0.262674 -0.493791 2.37408e-19)
(0.481877 -0.796378 2.24386e-19)
(0.488486 -0.758683 -4.57444e-20)
(0.426776 -0.566236 -5.28629e-19)
(0.282671 -0.29583 -5.72292e-21)
(0.407484 -0.642161 4.06984e-19)
(0.408113 -0.893199 -6.34317e-19)
(0.237095 -0.837299 8.23051e-19)
(0.0497264 -0.708996 1.54821e-18)
(-0.115116 -0.495934 -2.52087e-20)
(-0.0449905 -0.160975 1.56325e-19)
(-0.350421 -0.42935 3.72799e-19)
(-0.556168 -0.609977 6.35497e-19)
(-0.676115 -0.634595 -9.71623e-20)
(-0.793416 -0.521228 8.51716e-19)
(0.0847035 0.476019 2.56215e-18)
(-1.35135 1.01167 1.12083e-19)
(1.17871 -0.395161 1.2439e-18)
(0.953706 -1.04848 2.23219e-19)
(1.25893 -0.527361 -5.38497e-20)
(0.182778 0.746283 -1.08722e-18)
(-0.72424 0.911933 1.4928e-19)
(1.50661 -0.6388 2.42832e-19)
(1.22728 -1.06009 1.20156e-19)
(1.28714 -0.55515 8.7084e-20)
(0.703618 0.509096 -8.67431e-19)
(0.00667809 0.758923 -2.05853e-18)
(1.79058 -0.797816 -1.34464e-19)
(1.50241 -1.02471 5.80779e-20)
(1.30872 -0.530605 7.77601e-21)
(0.0152769 0.539112 1.39819e-19)
(0.202997 0.722058 4.34974e-19)
(2.03769 -0.902745 2.11406e-19)
(1.65723 -0.994473 -9.14297e-20)
(1.34175 -0.494285 8.40134e-20)
(-0.727623 0.00340696 -4.08079e-19)
(0.905664 0.394519 2.28166e-18)
(2.3828 -0.928074 0)
(1.76151 -0.925115 -9.74013e-20)
(1.33311 -0.444045 1.49388e-20)
(1.03205 -0.110189 -1.84614e-19)
(1.76664 -0.0523059 -4.73633e-19)
(2.62049 -0.905909 -1.15422e-20)
(1.94683 -0.772307 7.09769e-20)
(1.35748 -0.373707 -5.61343e-20)
(1.83857 0.170624 -2.10502e-21)
(2.38833 -0.085493 7.20983e-19)
(2.60432 -0.864199 -6.25975e-21)
(1.74708 -0.584512 5.71917e-20)
(1.15557 -0.208265 0)
(1.95428 0.0191933 -1.89732e-19)
(2.6259 -0.298543 -1.29517e-20)
(2.18585 -0.596152 6.49303e-19)
(1.48494 -0.325739 -2.11515e-20)
(1.11531 -0.139817 -4.54614e-20)
(2.0279 0.0185499 3.76274e-20)
(2.41683 -0.224763 1.36524e-19)
(1.75656 -0.437418 2.70197e-21)
(1.08452 -0.196509 -4.10386e-34)
(0.7659 -0.052051 4.10014e-20)
(1.55938 -0.0467689 9.51907e-20)
(1.27838 -0.130921 9.15913e-20)
(0.498569 0.00540117 -1.07729e-19)
(0.141382 -0.00776976 -9.35782e-21)
(-0.0367143 -0.0170756 1.31276e-20)
(2.33008 0.262098 -7.9482e-19)
(2.47361 0.0886858 -9.8532e-19)
(2.41682 0.086349 7.11115e-19)
(2.49876 -0.0329457 4.27648e-20)
(2.03201 0.0314242 -6.74249e-20)
(2.14676 0.124867 6.84263e-20)
(2.23417 0.127543 -3.76078e-20)
(2.27388 -0.0550985 -1.22309e-19)
(2.29099 -0.0107495 -2.20897e-19)
(2.30594 -0.265175 -4.69201e-21)
(2.09611 0.0315647 7.37566e-20)
(2.09715 0.111913 8.65203e-20)
(2.20396 -0.0871025 -1.01599e-19)
(2.14411 0.00655985 3.53156e-20)
(2.25919 -0.18248 2.34891e-20)
(2.00238 -0.00420683 1.09943e-19)
(2.02554 0.0585992 1.46722e-19)
(2.11317 -0.064554 -1.78673e-20)
(2.08411 0.00061179 -6.42618e-20)
(2.18734 -0.110576 2.60239e-20)
(1.43386 -0.0122744 1.75292e-19)
(1.48496 -0.0105766 -1.1452e-20)
(1.46239 -0.021784 1.74385e-20)
(1.49916 -0.0206048 -3.44024e-20)
(1.47631 -0.0306 -1.99796e-20)
(1.5365 0.854971 1.00299e-18)
(1.49929 0.947862 -2.99424e-19)
(1.49784 1.06864 -1.21178e-18)
(1.42749 1.10689 6.76828e-19)
(0.878608 0.792143 -1.70625e-19)
(1.80117 0.795131 -5.29235e-19)
(1.77737 0.876147 -2.80838e-18)
(1.78521 0.982916 -1.0897e-18)
(1.69508 0.987322 -3.8639e-19)
(1.02869 0.676904 -6.16259e-19)
(2.08578 0.697289 7.07764e-19)
(2.06846 0.758456 1.82567e-19)
(2.04904 0.835752 -2.15287e-18)
(1.9083 0.81577 -5.82488e-19)
(1.10678 0.52077 4.19144e-19)
(2.2295 0.572469 2.17463e-18)
(2.23127 0.621683 1.5727e-18)
(2.22161 0.665416 -1.79563e-18)
(1.99139 0.61412 -1.3345e-18)
(1.0597 0.334556 -2.33797e-19)
(2.38819 0.423035 1.01942e-18)
(2.38 0.443466 -7.32867e-19)
(2.27763 0.457184 5.27155e-19)
(1.92106 0.391568 4.01743e-19)
(0.857875 0.138041 -3.30373e-19)
(0.579593 0.384925 -7.24135e-19)
(0.490408 0.416514 -5.9788e-19)
(0.370736 0.448916 8.03239e-20)
(0.229864 0.455715 -2.9526e-20)
(0.0557782 0.327532 6.46634e-20)
(0.670679 0.563735 5.26834e-20)
(0.605756 0.620052 -3.22909e-19)
(0.515845 0.685981 1.68078e-19)
(0.387916 0.740003 -7.76484e-20)
(0.164937 0.564834 1.11521e-19)
(0.770378 0.759721 2.04698e-19)
(0.695268 0.836532 3.97812e-19)
(0.634192 0.93207 5.26593e-20)
(0.547197 0.982771 -2.67291e-19)
(0.297982 0.733577 2.15778e-19)
(1.0392 0.854389 2.02211e-19)
(0.988345 0.940355 -5.88293e-19)
(0.932942 1.03803 -1.73939e-18)
(0.845155 1.10279 7.12424e-19)
(0.49692 0.822899 -1.75847e-19)
(1.14629 0.893868 -1.31663e-19)
(1.1607 1.01265 -2.05706e-19)
(1.1735 1.12888 -3.12107e-19)
(1.11524 1.1659 -3.648e-19)
(0.68508 0.845437 -6.04372e-21)
(1.00797 0.0504288 -8.15939e-20)
(0.992453 0.0056172 -3.06763e-20)
(1.05183 0.115192 -1.39639e-21)
(0.943533 0.110879 -2.05032e-19)
(0.891748 0.226827 2.87386e-19)
(0.994459 0.0498191 5.02873e-20)
(1.00948 -0.00207219 1.13922e-19)
(1.0404 0.126447 9.74056e-20)
(0.967216 0.138576 2.2418e-20)
(0.924896 0.305821 2.41801e-20)
(0.999155 0.0490938 6.64424e-20)
(0.999562 -0.0114924 -4.41906e-21)
(1.08209 0.143779 -4.04145e-21)
(0.912625 0.145543 1.48883e-19)
(1.12263 0.442091 -4.04946e-19)
(0.993031 0.048514 -3.68352e-22)
(1.02494 -0.0234925 -1.69112e-19)
(1.0722 0.169349 -5.58947e-20)
(0.985139 0.151958 -3.56062e-19)
(1.17106 0.480711 8.60869e-20)
(0.992887 0.0390397 -1.05122e-20)
(1.03432 -0.0206052 5.10859e-20)
(1.10691 0.174951 2.76883e-20)
(0.969012 0.175261 4.3527e-19)
(1.37871 0.614693 -3.9824e-19)
(0.957761 0.0369212 -2.1584e-21)
(1.11512 -0.0473391 1.01035e-19)
(1.07069 0.212736 -7.18449e-20)
(1.1807 0.122107 8.33913e-19)
(1.34522 0.620267 -3.81103e-19)
(0.905829 0.00204569 -1.55174e-21)
(1.21794 -0.0399795 -8.21282e-20)
(0.949409 0.158941 4.49153e-21)
(1.29976 0.0912094 -2.96981e-19)
(1.38399 0.409798 1.92273e-20)
(0.977264 -0.0208022 -1.99521e-21)
(1.14488 -0.029843 1.19853e-35)
(0.983345 0.150777 -1.93982e-20)
(1.28105 0.0126457 8.89134e-20)
(1.3643 0.30945 1.44985e-19)
(1.1062 -0.066274 3.97982e-21)
(0.900901 -0.0182828 -2.81408e-20)
(1.16827 0.0778194 1.77108e-20)
(1.20375 -0.0150444 2.96346e-20)
(1.35888 0.187918 -2.0804e-19)
(0.99108 -0.0243395 -4.27526e-20)
(0.699162 -0.0155882 -5.28598e-21)
(0.993478 -0.000784002 1.83553e-20)
(0.80243 -0.0156583 -1.35572e-20)
(1.02169 0.0624827 -4.64815e-20)
(1.74163 0.666751 2.98688e-19)
(1.85659 0.642921 7.1275e-19)
(2.07598 0.556009 -9.95647e-19)
(2.15543 0.488033 3.64179e-20)
(2.33323 0.325936 4.25591e-19)
(1.66612 0.494861 3.56579e-20)
(1.74832 0.421119 9.2171e-19)
(1.88428 0.4233 8.93376e-20)
(1.97183 0.291045 -8.49885e-19)
(2.08705 0.27167 -2.69617e-19)
(1.61856 0.364391 -1.91601e-19)
(1.71799 0.26844 -1.39398e-19)
(1.8135 0.299683 2.16491e-19)
(1.92846 0.153953 -2.79348e-19)
(1.98481 0.206581 2.53946e-19)
(1.62834 0.209667 3.11226e-19)
(1.68995 0.144976 -2.60045e-21)
(1.79495 0.166122 2.138e-19)
(1.85817 0.0705525 1.86029e-19)
(1.93205 0.112804 -1.81392e-19)
(1.24028 0.053315 -3.73193e-20)
(1.28591 0.035453 2.13587e-19)
(1.36584 0.0282482 1.01053e-19)
(1.38028 0.00772197 -2.1396e-19)
(1.4459 0.00444002 3.30769e-22)
(1.41169 -0.0376756 7.6817e-20)
(2.52593 -0.01835 -6.10364e-19)
(2.74781 -0.0130023 1.62861e-18)
(2.72433 0.0391276 7.54089e-19)
(2.47494 0.047797 -5.08905e-19)
(0.937269 0.105881 1.64879e-19)
(2.31397 0.131707 -6.449e-19)
(2.74254 0.140719 -9.12994e-19)
(2.74373 0.150959 1.23303e-18)
(2.55745 0.149213 -9.00004e-19)
(0.309524 0.107691 -2.62969e-20)
(1.69357 0.221322 7.55597e-19)
(2.47635 0.273106 1.2348e-19)
(2.79711 0.285633 1.25781e-18)
(2.77003 0.259424 7.04852e-19)
(-0.0318725 -0.00940456 2.70118e-19)
(0.758712 0.167304 3.00077e-19)
(1.70622 0.289804 -8.65391e-19)
(2.28588 0.360934 7.94151e-20)
(2.80101 0.397633 6.87533e-19)
(-0.121124 -0.0963498 2.09235e-19)
(0.0976972 0.00536769 -2.47361e-19)
(0.782545 0.17502 -9.42299e-20)
(1.34905 0.283956 1.58699e-19)
(2.06321 0.468542 7.87211e-20)
(-0.097913 -0.112925 2.07049e-20)
(-0.120183 -0.130219 1.65986e-19)
(0.173113 -0.0769151 5.87635e-20)
(0.394885 -0.00785084 -3.20135e-20)
(1.23061 0.245743 6.27058e-21)
(-0.0757805 -0.128433 -1.93413e-20)
(-0.139104 -0.256721 -1.23827e-19)
(-0.056243 -0.284264 -8.48171e-21)
(0.0321217 -0.227231 -1.24697e-20)
(0.463732 0.0778987 1.38556e-20)
(-0.0645942 -0.177106 -1.42926e-20)
(-0.104553 -0.362656 2.1027e-19)
(-0.0757797 -0.401354 -7.38235e-20)
(-0.0093219 -0.347179 -2.02759e-20)
(0.12359 -0.148518 7.3662e-21)
(-0.048071 -0.232327 -8.34285e-21)
(-0.0733551 -0.45092 -7.47177e-22)
(-0.0529996 -0.514311 -1.65619e-19)
(0.00196603 -0.479147 -4.20102e-19)
(0.0518146 -0.37234 9.28596e-20)
(-0.0199039 -0.254851 9.13694e-21)
(-0.0277708 -0.496357 -2.19341e-20)
(-0.0142291 -0.577974 7.39058e-21)
(0.00723196 -0.546106 -4.24783e-20)
(0.0080397 -0.437587 -1.25579e-19)
(1.65675 0.742892 -9.42048e-20)
(1.10456 0.486828 -3.27735e-19)
(-0.532522 0.0931734 -5.51343e-20)
(0.273473 -0.415395 6.88163e-19)
(0.947371 -0.156459 6.48284e-21)
(1.45009 0.766502 5.27861e-20)
(0.901964 0.733002 1.72406e-18)
(-0.585984 0.088305 1.40854e-19)
(0.187314 -0.699639 2.34934e-20)
(0.99726 -0.262768 -1.29087e-20)
(1.5135 0.564118 -7.83788e-20)
(1.1524 0.975528 2.74076e-18)
(-0.0532224 0.178215 1.01179e-19)
(0.416138 -0.839549 -6.44968e-19)
(1.03383 -0.357832 2.76572e-21)
(1.07457 0.315845 -3.53098e-19)
(0.448079 1.16487 -3.50459e-18)
(0.552041 0.224038 1.51255e-19)
(0.772437 -0.913057 1.48431e-20)
(1.14133 -0.432684 -8.17095e-20)
(0.357943 0.380431 -3.7036e-19)
(-0.930442 1.17851 -1.68972e-19)
(0.943667 -0.0428543 6.62784e-19)
(0.851978 -1.00294 -6.69119e-20)
(1.22855 -0.48646 -1.70141e-19)
(-0.243621 0.117255 -5.42502e-20)
(-0.464501 -0.185157 0)
(-0.687704 -0.131308 -7.53419e-20)
(0.0302229 -0.111245 2.66762e-20)
(0.463981 -0.0301332 -1.5706e-20)
(1.8266 0.693654 0)
(1.22347 0.371049 0)
(-0.0804298 -0.00949272 3.07609e-19)
(0.396463 -0.248041 -2.25057e-19)
(0.828865 -0.102269 -4.26687e-21)
(0.790356 0.00694216 -1.39768e-19)
(0.873708 -0.00188602 3.22878e-19)
(1.02182 0.0448349 -3.58675e-20)
(0.911976 0.00782579 4.03198e-19)
(1.33807 0.208674 2.51766e-19)
(1.78113 0.0439161 1.34946e-19)
(2.02271 0.0892435 4.88237e-19)
(2.11509 0.169408 -8.28186e-19)
(2.52783 0.268512 2.85197e-19)
(2.51773 0.394911 5.11816e-19)
(0.994773 -0.545911 4.82414e-20)
(0.985186 -0.646901 -2.28779e-19)
(0.985128 -0.756959 -2.14141e-19)
(0.921046 -0.836277 1.26603e-19)
(0.569313 -0.666699 1.52688e-19)
(0.890095 -0.457495 1.03449e-19)
(0.83476 -0.530153 1.13361e-19)
(0.758357 -0.608049 -1.29912e-19)
(0.641176 -0.677154 1.56561e-19)
(0.358156 -0.544485 3.44467e-20)
(0.692978 -0.321967 -1.10388e-19)
(0.600833 -0.368459 -6.23654e-20)
(0.500357 -0.427925 -3.46428e-20)
(0.385741 -0.481267 -6.20122e-20)
(0.18369 -0.38422 -1.45661e-19)
(0.582563 -0.0898797 -4.40302e-19)
(0.498355 -0.112814 -3.52197e-19)
(0.389643 -0.147474 2.89674e-19)
(0.260942 -0.188475 1.41958e-19)
(0.0840676 -0.167833 1.31328e-20)
(0.546561 0.118036 -1.37284e-19)
(0.461323 0.115882 -1.58724e-19)
(0.343418 0.110052 -3.60071e-20)
(0.202818 0.107519 6.1658e-20)
(0.0367045 0.0785232 1.54544e-20)
(2.29537 -0.0250658 1.02367e-18)
(2.51562 -0.103414 3.7717e-19)
(2.61278 -0.199355 -9.5242e-19)
(2.4997 -0.225365 -2.04921e-18)
(1.55667 -0.228703 1.50764e-19)
(2.19495 -0.135221 1.69569e-18)
(2.3244 -0.253482 2.20202e-18)
(2.3586 -0.386431 1.82425e-19)
(2.2949 -0.450555 3.15505e-19)
(1.51067 -0.429131 -2.11198e-19)
(1.9316 -0.311027 -4.2927e-18)
(1.97983 -0.437157 4.92177e-19)
(2.02 -0.574199 1.36354e-18)
(1.98047 -0.662236 -5.53775e-19)
(1.3158 -0.590759 8.79847e-19)
(1.65401 -0.446632 1.05846e-18)
(1.67499 -0.555214 -2.77629e-18)
(1.67888 -0.687194 -3.21493e-18)
(1.62536 -0.789617 1.01631e-18)
(1.06711 -0.67516 6.5672e-19)
(1.356 -0.51765 2.43529e-19)
(1.30801 -0.620844 2.99699e-19)
(1.29571 -0.753623 -4.94897e-19)
(1.24314 -0.853908 -6.02463e-19)
(0.7988 -0.698266 -5.83549e-21)
(1.05884 0.0531 6.92488e-21)
(0.940552 0.0433892 1.11615e-21)
(1.13766 0.0693291 8.19367e-21)
(0.835719 -0.0148692 -2.6606e-19)
(1.20898 -0.251327 -2.12828e-20)
(1.06847 0.056101 -2.32787e-21)
(0.934527 0.0373653 2.61962e-20)
(1.13297 0.087234 3.95565e-21)
(0.908896 0.0243321 2.20959e-19)
(1.06586 -0.135994 4.85987e-21)
(1.06594 0.0532888 -5.54347e-20)
(0.937002 0.0286726 7.39963e-23)
(1.11624 0.0902151 -4.00921e-21)
(0.900512 0.0418565 1.10042e-19)
(1.01725 -0.0785984 -2.77696e-19)
(1.04743 0.0522335 6.57458e-20)
(0.960912 0.0207395 2.61205e-21)
(1.0779 0.0961881 1.85463e-20)
(0.938415 0.0677535 -4.36726e-20)
(0.894511 0.0323847 5.83788e-20)
(1.02228 0.050122 1.61862e-20)
(0.98682 0.0150213 -2.39286e-20)
(1.04815 0.103377 2.90761e-20)
(0.955138 0.0926589 4.68691e-20)
(0.855646 0.126159 -6.92012e-21)
(0.886294 0.0334769 0)
(0.719659 0.0270826 8.10522e-21)
(0.631161 0.0208491 6.84738e-21)
(0.381827 -0.0113659 5.69858e-20)
(0.76471 -0.0638679 -1.84135e-19)
(1.02791 0.0731362 -6.20088e-20)
(0.950455 0.0637036 4.71202e-22)
(1.05188 0.0720006 -6.74346e-20)
(0.842689 -0.0131074 -1.57347e-19)
(1.126 -0.2295 -1.91665e-19)
(1.07592 -0.0680376 -4.21217e-20)
(1.16834 -0.0379105 6.22976e-19)
(1.28341 0.037911 3.73875e-19)
(1.14468 0.0651399 2.90259e-20)
(0.896367 0.0357497 0)
(1.43575 -0.340904 4.18507e-19)
(1.56632 -0.299966 1.80223e-18)
(1.77167 -0.174071 -1.97589e-18)
(1.86975 -0.0209948 -6.33827e-19)
(1.82688 0.0407822 4.69325e-19)
)
;

boundaryField
{
    left
    {
        type            fixedValue;
        value           uniform (1 0 0);
    }
    right
    {
        type            zeroGradient;
    }
    down
    {
        type            noSlip;
    }
    up
    {
        type            noSlip;
    }
    cylinder
    {
        type            noSlip;
    }
    defaultFaces
    {
        type            empty;
    }
}


// ************************************************************************* //
