/*--------------------------------*- C++ -*----------------------------------*\
  =========                 |
  \\      /  F ield         | OpenFOAM: The Open Source CFD Toolbox
   \\    /   O peration     | Website:  https://openfoam.org
    \\  /    A nd           | Version:  13
     \\/     M anipulation  |
\*---------------------------------------------------------------------------*/
FoamFile
{
    format      ascii;
    class       volVectorField;
    location    "0.4";
    object      U;
}
// * * * * * * * * * * * * * * * * * * * * * * * * * * * * * * * * * * * * * //

dimensions      [0 1 -1 0 0 0 0];

internalField   nonuniform List<vector>
1800
(
(0.099963587928 -0.103798739567 -1.76647869961e-16)
(0.686056275391 -0.586932160262 2.60552437191e-17)
(1.13965020604 -0.930908476326 -1.87264925319e-18)
(1.35885411107 -1.06420641098 4.21989578671e-18)
(1.43905621994 -1.07449515102 -1.02022816839e-18)
(1.45984620056 -1.03422499992 2.82532505827e-18)
(1.4589287499 -0.978989308415 4.86828077865e-19)
(1.45053814257 -0.922451263843 1.06433040364e-19)
(1.44024231747 -0.865684598778 -1.32615252251e-18)
(1.40928311096 -0.818317840641 2.55080869485e-19)
(0.133037486096 -0.115906177125 1.00757288454e-18)
(0.803625978661 -0.584234739686 -4.86897615093e-19)
(1.30418867074 -0.909906146723 -4.63493186958e-19)
(1.53590139651 -1.03167879393 -5.70716062868e-19)
(1.61257715602 -1.03681332794 2.5960061378e-19)
(1.62509669508 -0.99488991355 1.17440802029e-18)
(1.61577074465 -0.93913927834 -7.74142122667e-19)
(1.60044565965 -0.881756850235 5.2879921438e-19)
(1.58426138488 -0.825301302697 7.80101551751e-19)
(1.56074089486 -0.782622805926 -3.51901631229e-19)
(0.171968238417 -0.125494926274 1.61969704357e-20)
(0.925208374616 -0.567108174248 1.75743977741e-19)
(1.46743248458 -0.866834498932 4.35631684147e-19)
(1.70766095153 -0.97466604214 -3.23302794626e-19)
(1.77861684714 -0.975382194303 -1.49216558242e-18)
(1.7816600797 -0.934145162033 3.27309248714e-19)
(1.76282463985 -0.881356375846 5.71273811322e-19)
(1.73869868984 -0.828161823716 -7.12977640913e-20)
(1.71444846695 -0.777150601233 -4.79420488778e-21)
(1.68326457932 -0.73683171827 -3.14803449113e-20)
(0.21651646135 -0.131200566335 -7.76879962204e-21)
(1.04831124285 -0.53421325338 -1.477649839e-19)
(1.62561381111 -0.801112158973 -3.21240659034e-19)
(1.87036487979 -0.892847718579 6.59724409775e-20)
(1.93414634765 -0.889363641014 3.8993566529e-19)
(1.92781705922 -0.84963157485 3.45325721669e-20)
(1.90023955838 -0.800334107785 -2.33302806674e-20)
(1.86842971933 -0.750947611106 5.26302279633e-19)
(1.83726899612 -0.703722400998 4.36023220672e-19)
(1.80248621474 -0.667719967146 -1.45879871936e-19)
(0.266113729462 -0.131844287006 1.04158349266e-19)
(1.17001775211 -0.485350400959 2.12002227086e-19)
(1.7744927749 -0.714173059523 -7.8845459282e-20)
(2.01926625864 -0.788912153257 -9.109993068e-20)
(2.07433877073 -0.782474340103 -1.17274455124e-18)
(2.05866005627 -0.746168260648 1.02141946305e-20)
(2.02295182895 -0.702428674917 9.01305439712e-19)
(1.98424135017 -0.65906680848 3.08657183878e-19)
(1.94709099283 -0.618173291207 2.04741134702e-20)
(1.9085491265 -0.586795699846 -1.94302994106e-19)
(0.319558399701 -0.126087215603 -7.6005685629e-20)
(1.2867839433 -0.420171964583 3.66158045612e-19)
(1.90974954362 -0.607079775292 1.22052750571e-18)
(2.15016875106 -0.664583947983 -8.44391449809e-19)
(2.19549789842 -0.656423927353 -8.51778451949e-19)
(2.17093884649 -0.624903210468 1.40166634713e-18)
(2.12805762671 -0.587845240954 -1.00367108763e-18)
(2.08339961436 -0.551366627492 -1.1108252048e-18)
(2.04114599943 -0.517230542585 8.0093842793e-19)
(1.9994672839 -0.491376780496 -2.82776904146e-20)
(0.375249056244 -0.112900410924 6.49403926943e-20)
(1.39496064227 -0.339319971185 -7.40941871182e-19)
(2.02740466946 -0.482219341588 -3.26983679146e-18)
(2.25942572224 -0.523190327969 1.38672181706e-18)
(2.29439931863 -0.514983181936 2.1526015071e-18)
(2.2618461706 -0.489777187681 -6.14766818945e-21)
(2.21303145628 -0.460669551592 -2.72480501164e-18)
(2.16367350229 -0.432162272913 7.30819240401e-22)
(2.11749085971 -0.405702747461 2.44154930262e-18)
(2.07335773426 -0.385921707101 6.41688730169e-19)
(0.431054450554 -0.0915214400084 7.15828890489e-21)
(1.49068339143 -0.243941418074 5.34723603509e-19)
(2.12371888477 -0.342298499454 2.51034697161e-18)
(2.34383993263 -0.36809219618 -7.11305310033e-20)
(2.36843794567 -0.361642419986 -1.38615239484e-18)
(2.32908118125 -0.343992561582 -4.25109353749e-19)
(2.27573409877 -0.323732262391 0)
(2.22294757221 -0.303909536141 9.58254503212e-19)
(2.17398063207 -0.285653580954 5.72254967649e-21)
(2.12813884423 -0.27249794114 -7.80765880667e-19)
(0.4844618616 -0.0617161988469 1.83915642308e-21)
(1.57037210118 -0.136058607604 1.16447490412e-18)
(2.19560615853 -0.190812406399 2.21670943594e-18)
(2.40107982633 -0.203316988417 -2.01137371461e-18)
(2.41596858775 -0.20051994111 -1.41471708347e-18)
(2.37126193284 -0.191392734526 4.33672524819e-19)
(2.31487609618 -0.180617693893 -1.81721572796e-18)
(2.26001396748 -0.169954197834 -1.24543185823e-18)
(2.20943372902 -0.160219750958 1.47018166632e-18)
(2.16274235949 -0.153916359414 1.25000328246e-18)
(0.532793929565 -0.023874434307 1.0002640269e-19)
(1.63096867767 -0.0184099726458 7.73953089075e-19)
(2.24055541122 -0.0315569279344 4.12361286783e-19)
(2.42971091065 -0.0330836600691 -2.90539520109e-18)
(2.43615779072 -0.0357610212028 3.34540487098e-20)
(2.38766758989 -0.0356096591504 4.13646989525e-18)
(2.32969305439 -0.0346573738892 -2.19281046494e-18)
(2.27400733772 -0.0333865593217 -1.21993333377e-18)
(2.22295220429 -0.0322791980839 4.03514604024e-19)
(2.17629955117 -0.0328401115568 -9.12000467866e-19)
(-0.00294794573679 -0.01558563492 1.17060164659e-19)
(0.0112423680097 -0.114784530367 8.87964646307e-20)
(0.0653234964764 -0.191735846822 -1.71178947202e-21)
(0.130194152487 -0.227330330866 -7.9677910856e-21)
(0.19686246133 -0.236795510312 -1.7250214004e-21)
(0.260512937688 -0.234301235453 -3.20981935042e-20)
(0.31921303929 -0.227358067845 1.62035900532e-20)
(0.372737020023 -0.219195297036 -3.19897910666e-20)
(0.421207372502 -0.211048142532 2.75541082243e-21)
(0.466807125696 -0.204525283416 -7.27523579681e-21)
(-0.00182293718111 -0.0171402320103 5.07920330646e-20)
(0.0291601445098 -0.181428296417 9.72685483524e-20)
(0.0964727624233 -0.311764320382 -1.08172309644e-19)
(0.167119494041 -0.371209609776 -4.35636770795e-20)
(0.234948593224 -0.385167691379 -7.05949867653e-20)
(0.297768012795 -0.378302355976 -6.8507454024e-20)
(0.354915860355 -0.363810565546 2.04904371338e-20)
(0.406714338435 -0.347363818085 -2.54234438903e-20)
(0.453388120446 -0.331159697206 8.03847366751e-21)
(0.498043192427 -0.319011917714 -9.14455020909e-21)
(-0.000364335353394 -0.0198453683377 -2.61746866758e-20)
(0.0582137060888 -0.246664856784 2.15637996522e-19)
(0.147474064327 -0.427478113889 7.49612625124e-20)
(0.227798579808 -0.50912116553 2.65939290253e-19)
(0.297613844653 -0.526944940979 4.54439927824e-20)
(0.359074971959 -0.515630718465 -2.45782361723e-19)
(0.413660908768 -0.493769096666 -3.27480663592e-20)
(0.462598328171 -0.469323709998 7.56897153513e-20)
(0.506298659119 -0.445447657768 -2.69587367139e-20)
(0.549475433258 -0.427862947983 -1.01269740989e-21)
(0.00189098861793 -0.0240908268843 -1.10938686935e-19)
(0.0985712097343 -0.309580341955 -3.97996232617e-20)
(0.217875577485 -0.536610253574 3.07993917961e-20)
(0.311388136754 -0.638059323361 -1.28255471115e-19)
(0.383820828228 -0.658869976555 6.71652431689e-20)
(0.44331704897 -0.64302860844 1.72418231697e-19)
(0.494321371329 -0.614080135621 4.51063495e-20)
(0.539289548518 -0.582060100327 -6.21295664601e-21)
(0.578917413982 -0.551055460204 2.02605816929e-20)
(0.620076465165 -0.528277634643 -2.27737254185e-21)
(0.00555785295393 -0.0302308101091 0)
(0.150393337156 -0.369240200872 8.64860592079e-20)
(0.306967138319 -0.636920219479 3.21259502287e-19)
(0.41662064603 -0.755083346675 -2.78033191285e-19)
(0.492050858732 -0.777784599079 -5.48344855291e-19)
(0.548894313385 -0.757369058102 1.79517840209e-19)
(0.595313394646 -0.721745924254 -2.31630996723e-20)
(0.635273131363 -0.682736271691 -9.49948906792e-20)
(0.669848203231 -0.645314382962 0)
(0.708449170755 -0.617614393312 -8.12004786811e-21)
(0.0113979893221 -0.0385410112192 3.72009270707e-20)
(0.213763739452 -0.424630070561 1.50129299981e-19)
(0.413712484975 -0.726194815795 7.34892045805e-20)
(0.54173176465 -0.857374919766 2.29619714982e-19)
(0.620225039304 -0.880722116241 -1.82077038838e-19)
(0.673655315562 -0.855763702507 -2.71513192066e-19)
(0.714540331897 -0.814039373231 4.68779727921e-19)
(0.748567081093 -0.76879872974 5.2174393928e-20)
(0.777297438059 -0.725820512709 -2.71317819471e-19)
(0.812766864365 -0.693448363441 -6.54779540926e-21)
(0.0202793231819 -0.0491114225187 6.34407822616e-21)
(0.28861334186 -0.474574839738 1.16131473212e-19)
(0.536667230316 -0.802255559178 1.06199950162e-19)
(0.684398877396 -0.942333787258 2.37873633197e-20)
(0.765657471731 -0.965046939056 3.08386334712e-19)
(0.81485154433 -0.935735130063 -3.78024401782e-19)
(0.849353315121 -0.888698304167 -3.78594256409e-19)
(0.876691681666 -0.838204797516 -3.14636366454e-19)
(0.899037428203 -0.790641018625 2.30520954504e-19)
(0.930628366856 -0.75369753363 2.48872683822e-19)
(0.03307225878 -0.0617345958989 -1.25311121313e-19)
(0.374520366899 -0.517665930955 -5.68798665834e-22)
(0.673797913904 -0.862985136965 2.61419340923e-19)
(0.841598570238 -1.00768161368 -1.6861960377e-19)
(0.924949402782 -1.02865272323 3.22504380046e-19)
(0.969068064107 -0.995502373922 7.49768825058e-19)
(0.996503394841 -0.94432947069 5.09638572666e-19)
(1.01662717767 -0.889996637627 -4.00015630225e-19)
(1.03237924076 -0.8390204605 -1.89065436491e-19)
(1.05857901216 -0.797378297803 2.7353239644e-19)
(0.0504105781983 -0.075764208931 -2.13457074577e-19)
(0.470392581215 -0.552146244203 -4.9254275936e-19)
(0.822130701215 -0.906210252615 7.97817571552e-19)
(1.00917492921 -1.05131351291 7.911146672e-19)
(1.09339800764 -1.0696911525 -7.29098314224e-19)
(1.13142524545 -1.03361409855 7.85977251222e-19)
(1.15110272395 -0.980014449214 1.29442097944e-19)
(1.16352962535 -0.923952595502 -9.29639102985e-19)
(1.17267772272 -0.871056360987 -2.2871753627e-19)
(1.18968461153 -0.824712134182 3.12874423825e-19)
(0.0725928833743 -0.0901446194112 5.84978330231e-20)
(0.574622859209 -0.575900684694 -4.7017083773e-19)
(0.978190960655 -0.92953827766 -4.62559010823e-19)
(1.18245615369 -1.07083024595 7.7281733971e-19)
(1.26553893637 -1.08572935862 5.9982781692e-19)
(1.29562983939 -1.04751643928 -7.12155112415e-19)
(1.30576118797 -0.992989556966 -5.82340520622e-19)
(1.30874711525 -0.936931310972 3.45273129727e-19)
(1.30980349021 -0.882739976689 -3.60350384233e-19)
(1.3091821803 -0.833150333966 -2.15818503802e-19)
(0.627259364538 -0.166173844367 2.67183553512e-20)
(0.803981122201 -0.127471812121 -5.43954635475e-20)
(0.888705633916 -0.0995974374182 8.04935150742e-21)
(0.938132869223 -0.0778771534446 1.00611445142e-20)
(0.96709285107 -0.0603229937249 -4.664427658e-21)
(0.984214719821 -0.0459191813512 -1.43492890341e-21)
(0.994699963594 -0.0340499845109 -3.2042316849e-21)
(1.00124930024 -0.024135117071 -3.26647765704e-21)
(1.00517250989 -0.0160856331859 6.74750402661e-21)
(1.00774090301 -0.00643738229282 3.08759835244e-21)
(0.644910577129 -0.237007228945 9.51388271675e-20)
(0.815170255042 -0.165847231743 8.46377230992e-21)
(0.896823718554 -0.120360452389 4.44161929322e-21)
(0.94428963471 -0.0893928009621 -4.33371561143e-21)
(0.971956397206 -0.0669987262459 -9.60882256e-21)
(0.988137082449 -0.0499022969327 0)
(0.997897384864 -0.0364691786186 -3.33269414545e-21)
(1.00389696654 -0.025602467459 3.7308229773e-21)
(1.00744611705 -0.0169587589841 5.04537413566e-22)
(1.00971021495 -0.00676684284432 -3.50486029665e-21)
(0.673184292772 -0.305537610356 -5.28033343415e-20)
(0.831257400249 -0.203352275701 -3.35324339603e-20)
(0.9076398827 -0.140840003675 1.44447268814e-20)
(0.951852876759 -0.100788986693 -9.18413622492e-21)
(0.977573571437 -0.0735752522131 -4.03805978064e-21)
(0.992495805101 -0.0537914398948 6.37369922345e-21)
(1.00136065142 -0.0388012139334 0)
(1.00671393966 -0.0269960209899 0)
(1.00983262601 -0.0177738799008 -1.39989884153e-21)
(1.01175527175 -0.00707053875704 0)
(0.712050194161 -0.370474958775 -3.14958337008e-20)
(0.852077315271 -0.239407081624 6.15420784246e-20)
(0.921073184536 -0.160777705056 8.68123316606e-21)
(0.960806127539 -0.111945433721 0)
(0.983941978924 -0.0799845631723 1.57424245914e-20)
(0.997281836278 -0.0575457933976 -1.94471848773e-21)
(1.00507821479 -0.0410213187248 0)
(1.0096884559 -0.0282997505789 2.10158322427e-21)
(1.0123287561 -0.0185212534616 0)
(1.01388469929 -0.00734456804272 3.21328154116e-22)
(0.761442191204 -0.430580485413 -2.74903141303e-20)
(0.877452379883 -0.273484111141 8.79224093359e-20)
(0.937006782419 -0.179926714434 -4.83931265729e-21)
(0.971121792642 -0.122744823617 0)
(0.991050090832 -0.0861628588971 2.51283500304e-21)
(1.00248686268 -0.0611261983223 3.48312333126e-21)
(1.00903779964 -0.0431040962254 6.28093512188e-21)
(1.01280969963 -0.0294975851861 1.20545487696e-21)
(1.01491778764 -0.0191907351466 -1.81223690605e-21)
(1.01606889437 -0.00758501465034 2.87141314685e-21)
(0.82105159603 -0.484611410071 -6.49391382056e-19)
(0.90717157413 -0.305155444771 -1.60020557062e-19)
(0.95529715716 -0.198085052094 2.03421816196e-21)
(0.982756579269 -0.13308236764 2.56885056666e-20)
(0.99888510196 -0.0920522491392 -3.53388716707e-21)
(1.00809378506 -0.0644959220002 3.22693760223e-21)
(1.01322490321 -0.0450251655921 8.31500556307e-22)
(1.01606210283 -0.0305733086848 -5.45504976589e-21)
(1.01757750603 -0.019772110511 -2.35647358321e-22)
(1.01832635889 -0.00778783837583 8.3266491885e-22)
(0.889911422222 -0.53109934349 -1.86791141204e-20)
(0.940716683782 -0.333764369188 6.32554236288e-20)
(0.975691642009 -0.21507017043 4.2883997331e-21)
(0.995631381751 -0.142867173303 -6.96464130849e-22)
(1.00741450414 -0.0976050027754 -1.8892927468e-20)
(1.01408367151 -0.0676236821694 5.50311093855e-21)
(1.01763531326 -0.04676299976 -1.85198538948e-21)
(1.01942507923 -0.0315117451855 -4.64187402815e-21)
(1.02030904361 -0.0202555366279 5.27746485661e-22)
(1.02059218234 -0.00794907934639 -2.01442070315e-21)
(0.966374589732 -0.569005994564 2.7949823268e-19)
(0.976613477897 -0.358799216271 7.49475753337e-20)
(0.997347719301 -0.230544898243 0)
(1.00944375432 -0.151921940525 -1.49282196629e-21)
(1.01652034194 -0.102738035993 1.48534386747e-20)
(1.02040734856 -0.0704691309313 1.42392658959e-21)
(1.02221110361 -0.0482952670999 -1.02091116923e-20)
(1.02289464506 -0.0322991352976 2.85968932207e-21)
(1.02308218866 -0.0206326731891 -1.17904469601e-23)
(1.02290824468 -0.00806611452996 -5.2341075731e-24)
(1.05123650887 -0.600537216146 -4.0325950763e-19)
(1.01390659476 -0.382914531474 -2.0204685601e-19)
(1.01883043458 -0.245799384652 4.47397332362e-20)
(1.02328013032 -0.160710529532 5.39832809255e-22)
(1.02577261791 -0.107580876912 -2.23621387235e-21)
(1.02685667461 -0.0730511203845 -1.00566024287e-20)
(1.02687964146 -0.049613164201 2.06037371789e-21)
(1.02640753128 -0.03292374338 5.76651781974e-22)
(1.02586821426 -0.0208949146321 -3.50821328705e-21)
(1.02521448124 -0.0081383433839 -3.50681360977e-21)
(1.14948132408 -0.623839040769 2.78035316822e-19)
(1.05992090436 -0.404365656388 -2.02445458496e-19)
(1.04238943604 -0.26207714509 -3.45284234224e-20)
(1.03737387091 -0.170531100883 -3.26731263129e-20)
(1.03495066657 -0.112937868397 -1.74867140875e-20)
(1.03322424698 -0.0757778457398 -8.49271836393e-21)
(1.0315254255 -0.0508948418819 -4.62559301102e-21)
(1.02990404811 -0.033449742252 0)
(1.02864054516 -0.0210609580708 4.94936634837e-22)
(1.02751830921 -0.00815604491875 1.63711161624e-21)
(1.2987241056 -0.60964177168 4.55194520627e-19)
(1.15516433398 -0.403247531084 1.46883107951e-19)
(1.09552679146 -0.263327343175 -9.56836419479e-20)
(1.06780549448 -0.172018453637 5.64288950272e-21)
(1.05295178064 -0.113814962507 7.20432699109e-21)
(1.04439145567 -0.0760529869439 -3.09289490392e-21)
(1.03881238815 -0.0507979553077 2.08950052883e-21)
(1.03492955303 -0.0331964403608 3.73177945715e-21)
(1.03235768655 -0.0207911524249 -2.9716914957e-21)
(1.03047551638 -0.00803285900653 4.31831456354e-22)
(1.3506592584 -0.505001969544 -1.04840449572e-20)
(1.19176869751 -0.347552519281 1.40982537353e-19)
(1.12549000443 -0.235569980099 1.06336962884e-19)
(1.09062747308 -0.158587460277 -1.24750684679e-20)
(1.06899124987 -0.106707717301 4.80138466607e-20)
(1.05542175574 -0.0718687796164 3.07422775839e-20)
(1.04649146997 -0.048147653071 2.13021142363e-20)
(1.04042783157 -0.0314890144135 -2.03532737179e-21)
(1.03654610849 -0.0197231453305 7.43720992952e-21)
(1.03383032047 -0.00761075176744 3.97084861544e-21)
(1.40576901939 -0.432857721209 -1.29614943655e-19)
(1.24057514761 -0.309094728121 -1.00650976995e-20)
(1.15962131863 -0.213742121247 4.75942962641e-21)
(1.11392252307 -0.145930911324 1.18920556545e-37)
(1.08473996067 -0.0989610081867 1.41797479501e-21)
(1.06609598547 -0.0668799501798 -8.49417838846e-35)
(1.05386193219 -0.0448415514146 -3.50219957654e-21)
(1.04567923044 -0.0293122514195 -2.40443727877e-34)
(1.04052752546 -0.0183465256712 9.76607058627e-22)
(1.03697361522 -0.00707455809056 -2.88962650577e-21)
(1.44026052423 -0.357185437391 -1.89139641761e-34)
(1.27631938658 -0.264327562589 -3.61651973644e-20)
(1.18737128172 -0.187138064138 -3.75326354239e-20)
(1.13395806687 -0.129893829577 0)
(1.09876729521 -0.088937248891 -2.06487220486e-20)
(1.07578933798 -0.0603898065232 -1.39894650946e-20)
(1.0606142685 -0.0405621568856 -7.5678873941e-21)
(1.05051417638 -0.0265208108309 -3.17685929866e-34)
(1.04416884871 -0.0165979848378 -2.19162293826e-21)
(1.03984209255 -0.00639990383361 2.78074899194e-21)
(1.46216784516 -0.288061749191 -7.79458562662e-20)
(1.30372745419 -0.220062684042 4.13131373528e-21)
(1.21005918853 -0.158890057308 0)
(1.15089794962 -0.111791361398 0)
(1.11093069284 -0.0771935506376 0)
(1.08430825905 -0.052655036012 0)
(1.06659586425 -0.0354385973275 -7.40877651633e-22)
(1.05480068443 -0.0231842091785 -3.561292313e-34)
(1.04742716429 -0.0145141972311 8.90427326285e-22)
(1.04239557994 -0.00559789430135 3.36163556359e-34)
(1.47558503741 -0.224351543534 -3.04206357205e-20)
(1.32413335387 -0.176141776661 0)
(1.22799942621 -0.129372208625 0)
(1.16472641019 -0.0920821135058 0)
(1.12105954863 -0.0640615174817 0)
(1.09152035691 -0.0438828456655 0)
(1.0717016097 -0.0295952751227 1.29935908896e-21)
(1.05847195811 -0.0193758146392 5.01488373364e-21)
(1.05020151977 -0.0121359218751 8.51080050659e-22)
(1.04456383908 -0.00468253920249 3.47526524043e-21)
(1.48337298886 -0.165559715731 0)
(1.33868976465 -0.133007849628 -1.1521831538e-20)
(1.24156162271 -0.0990837085016 -1.53211845922e-20)
(1.17547218122 -0.071201425337 0)
(1.12907481704 -0.0498499488846 -9.76752445836e-21)
(1.09728292017 -0.0342759225858 -6.90233393727e-21)
(1.07581276117 -0.0231610088558 -3.46172403715e-21)
(1.06144268036 -0.0151753515175 -2.96958185517e-21)
(1.05245158769 -0.00950960630839 4.17860253865e-21)
(1.04630877722 -0.00367071632716 1.90511707003e-21)
(1.48674130118 -0.110589753461 7.61963524036e-21)
(1.34760647806 -0.0906308089931 6.18112600639e-21)
(1.25039587699 -0.0682169135295 -3.2858675506e-21)
(1.18263938468 -0.0493778910754 3.39083316447e-36)
(1.13443245847 -0.0347400699928 1.22486831331e-22)
(1.1010955142 -0.0239571494824 -5.55135580851e-35)
(1.07846401536 -0.0162135438519 1.08936951865e-21)
(1.06327912215 -0.0106292737999 4.10056763484e-21)
(1.05376365811 -0.00665751328978 7.25512749692e-22)
(1.04726089189 -0.00256429391226 -2.39295884705e-21)
(1.47103519052 -0.0574503881182 -3.69707491834e-20)
(1.33608872843 -0.0513147986548 1.08983843316e-20)
(1.24091357873 -0.039618092971 1.18165210712e-20)
(1.17373072674 -0.0290002591506 0)
(1.12555417538 -0.0205215215203 7.00678172463e-21)
(1.09204516608 -0.0141950038176 4.93323398833e-21)
(1.06919404 -0.00962143784612 4.33980530582e-21)
(1.05385816636 -0.00631189080484 2.15820599237e-21)
(1.04424453256 -0.00395180915832 -1.79751657269e-21)
(1.03765688952 -0.00151840272437 2.7775355623e-21)
(1.15952580887 -0.00526517418467 0)
(1.06624067736 -0.00805287102402 0)
(0.995128747571 -0.00687105478261 0)
(0.943266817441 -0.00516981448149 0)
(0.905573360797 -0.00369389206267 0)
(0.879177744968 -0.00257262183445 0)
(0.861095342933 -0.00175148658312 9.40162101004e-22)
(0.848919891539 -0.00115532717093 -5.15889040017e-36)
(0.841265131359 -0.00070928897403 7.36053487306e-22)
(0.836051755323 -0.000261291570561 2.24980751062e-21)
(2.09422556579 -0.0313743987206 8.41797986507e-19)
(2.08331933573 -0.135280181381 5.79017936051e-20)
(2.05492372966 -0.236768460643 -1.23052336763e-19)
(2.00936633308 -0.333677490128 -3.29342356792e-19)
(1.94852412964 -0.424100424286 -1.1297650103e-19)
(1.87192814006 -0.507113765656 -1.6832420997e-19)
(1.78816435877 -0.576096356814 -4.00665274631e-19)
(1.68023520067 -0.647039234602 1.26893667073e-19)
(1.59980560753 -0.668726322676 0)
(1.44141914128 -0.752465928104 3.61421906282e-20)
(2.00914898114 -0.0230893341677 2.17002801655e-19)
(2.00035593381 -0.100997969236 -3.22305392947e-19)
(1.97861065215 -0.177807747242 -7.67032939123e-21)
(1.94329646195 -0.252352453536 -1.30081853897e-19)
(1.8983240946 -0.322270646265 2.23727384534e-20)
(1.83739439943 -0.390654345645 1.17779018442e-19)
(1.77898345755 -0.441766578348 1.39828992207e-20)
(1.68969263182 -0.51395819961 8.79075707076e-20)
(1.63624879594 -0.518453240222 -1.08781916743e-19)
(1.52232607771 -0.607942831833 2.24910182074e-20)
(1.93714938772 -0.0174012580129 -1.10999565868e-19)
(1.93044955854 -0.0792067759704 2.07380015725e-19)
(1.91356626022 -0.139842726624 1.81174197254e-19)
(1.88537944737 -0.198943364887 -2.199983315e-19)
(1.85030496113 -0.253903257195 8.90931828404e-20)
(1.80123592182 -0.309914796233 1.25576917856e-19)
(1.75589394226 -0.348992369116 -5.59226893417e-20)
(1.68582626282 -0.412850674104 6.8340599505e-20)
(1.63899224318 -0.414908183877 7.17734439573e-20)
(1.5557941916 -0.494109358488 9.26694584826e-20)
(1.88158552131 -0.0151014590671 -1.9762330642e-19)
(1.87616274245 -0.0625979317624 3.62657753284e-20)
(1.86214940838 -0.109376905762 -9.17570286541e-20)
(1.83876266026 -0.15549869656 -5.87327810942e-20)
(1.80955184601 -0.198457492527 1.01224637309e-20)
(1.76938641685 -0.243413560194 -9.77684123719e-20)
(1.73072248794 -0.274480902304 8.29223323565e-20)
(1.67577953679 -0.32690392238 2.57980107133e-20)
(1.63302313181 -0.330219820798 -1.24529064836e-20)
(1.5706793109 -0.394548766428 8.50239535646e-21)
(1.83818413036 -0.0124331711551 5.01966714396e-20)
(1.83365843715 -0.0486994247011 5.45114817302e-20)
(1.82164377087 -0.0844158776636 -5.5861903766e-20)
(1.80177341132 -0.11977990612 2.12463706266e-19)
(1.77638554091 -0.15281926467 8.6632154144e-21)
(1.74283324147 -0.187689670712 -1.33815308079e-19)
(1.70845300742 -0.21228939581 2.00505438008e-20)
(1.66425989898 -0.252907354045 -8.06076766458e-20)
(1.62520854774 -0.257568832843 1.01894260703e-19)
(1.57599652287 -0.307139445572 7.30472600733e-20)
(1.80520234343 -0.0109342751054 -1.0603082089e-19)
(1.8013879295 -0.0376287269764 -5.62958610794e-20)
(1.79075869277 -0.0639422143262 2.9106433551e-20)
(1.77332039813 -0.0901030276752 7.77659083394e-20)
(1.75050949536 -0.11473565498 5.5642781377e-20)
(1.72149043645 -0.140797219232 -3.93303395777e-20)
(1.69004512982 -0.159860573897 3.09450628594e-21)
(1.65283623853 -0.190132934051 4.3565273415e-20)
(1.61673919002 -0.195479269143 8.49876938637e-20)
(1.57553595248 -0.23235672385 -4.73332509016e-20)
(1.78110151503 -0.00992833461293 -4.18153970216e-20)
(1.77785421748 -0.0283546096105 -7.97123324228e-20)
(1.76823691104 -0.0465140554033 -5.81416686572e-20)
(1.75249086534 -0.0646529440386 -1.10580339891e-19)
(1.73143157588 -0.0819211359163 -1.10323343591e-20)
(1.70536340336 -0.100296179139 7.43781691606e-22)
(1.67589705339 -0.114269783505 3.92421778332e-20)
(1.6429948492 -0.135839674482 -9.77129298799e-21)
(1.60911354902 -0.140959723852 -3.1108466039e-20)
(1.57257174285 -0.167453160138 6.84093995165e-21)
(1.76191283707 -0.00903470777845 3.68199461403e-20)
(1.75955471274 -0.020039835045 3.13527423782e-20)
(1.75113493914 -0.0308155666933 1.22586409877e-20)
(1.73702520174 -0.0415994675143 -2.17797188214e-20)
(1.7176097716 -0.0520145673607 -1.77513521112e-20)
(1.69377559183 -0.0633828700052 2.45989967732e-20)
(1.66583991088 -0.0723247983262 -4.5751147653e-21)
(1.63555758811 -0.086495478866 -3.37702188964e-20)
(1.60312052065 -0.0903967100312 7.23136361568e-21)
(1.56907882303 -0.109069931384 4.08141179271e-20)
(1.70402912706 -0.011546167361 -2.913080856e-20)
(1.70318768868 -0.014712500422 2.04502372003e-21)
(1.69831005463 -0.0176477521159 4.80821488683e-20)
(1.68911018987 -0.0206329958742 -8.10396367329e-22)
(1.67536590804 -0.0235446822332 -4.86819063705e-21)
(1.65797929536 -0.0274602849279 -1.98083915031e-21)
(1.63589577028 -0.0301844286992 1.36093452729e-20)
(1.61226330576 -0.0372312422536 -2.2200488844e-20)
(1.58334271018 -0.0380920680817 2.5957534264e-20)
(1.55648528238 -0.0498239003634 9.07476257091e-20)
(1.19428400937 -0.00661368937195 3.26651956518e-20)
(1.18785168844 -0.00431528412781 2.22399340559e-20)
(1.18358217113 -0.00206476263111 1.89449475755e-20)
(1.18173404782 4.41097812135e-05 2.36044784136e-20)
(1.18156062675 0.00193889685013 -5.38766017316e-21)
(1.18351377781 0.00342173963165 -2.53694878929e-21)
(1.18428863935 0.00481631199953 -5.34954076447e-21)
(1.18942639874 0.00439355279792 3.08726478147e-21)
(1.18443533759 0.00663039567844 -4.87052666007e-21)
(1.19616359299 0.00175679130137 5.31692833324e-21)
(1.37583430221 0.74140512743 -5.41514253437e-20)
(1.36303323364 0.792119227346 2.40920308911e-20)
(1.36809337041 0.847165172158 -4.567064006e-19)
(1.37763123785 0.908405881183 2.12244822379e-19)
(1.38715899685 0.974149904009 8.58589253092e-19)
(1.39391942436 1.0422495988 -1.35124949222e-19)
(1.38432709242 1.10300601149 -8.57605006514e-19)
(1.30626138772 1.10879015825 -2.58233714045e-20)
(1.03611280963 0.926518980265 -4.47761736403e-19)
(0.448456860861 0.407615075659 1.4416642996e-19)
(1.53278301462 0.718233192712 0)
(1.52817173741 0.766129814256 5.43042006517e-19)
(1.5307771763 0.817593782417 1.22053530703e-18)
(1.53916671954 0.876754073063 -7.35971629013e-19)
(1.55136976144 0.94168321475 -1.76729467888e-18)
(1.56315822716 1.00973091213 -1.38611536476e-19)
(1.55777220024 1.07059020253 -1.7887950148e-19)
(1.47432227595 1.0765888771 6.65051033073e-19)
(1.16944309874 0.896824499518 9.42178725572e-19)
(0.502125653814 0.388783036796 3.90860169165e-19)
(1.66515878437 0.695549817849 6.2931603012e-20)
(1.67222989114 0.739824926934 0)
(1.68074842547 0.787275982574 -6.52143946859e-20)
(1.69396812941 0.841415965585 7.49036795541e-19)
(1.71149954826 0.901379762154 5.21015874055e-20)
(1.72901902694 0.965085316 -1.8682177768e-18)
(1.72757335894 1.02216662077 1.22541529023e-18)
(1.63777709911 1.02591406632 8.0128936129e-19)
(1.29705468897 0.85046911272 -8.52897486772e-19)
(0.551231278523 0.361824413776 -2.82568751672e-19)
(1.77462954421 0.656791566184 -1.2141407317e-19)
(1.79218263874 0.697138024479 -9.60819853869e-20)
(1.81053099635 0.740530460071 2.21828378123e-19)
(1.832642786 0.789542485336 -2.79192453481e-19)
(1.85838617926 0.843962975977 -1.34659207418e-18)
(1.88342880272 0.902120540116 -1.05688816433e-18)
(1.88661460515 0.953758556876 1.19428640905e-18)
(1.79000554544 0.954058908161 8.30561033375e-19)
(1.41272570516 0.785463692346 0)
(0.591582274992 0.325528532716 0)
(1.87001214488 0.596177198927 -7.72490466832e-19)
(1.89620945812 0.63278169362 -1.35799994791e-18)
(1.92408478213 0.672203546454 -5.40502932691e-19)
(1.95549959064 0.716235362236 -3.3429523894e-20)
(1.99005659336 0.764957059892 0)
(2.02305746391 0.816940634454 1.40293665072e-19)
(2.03066003977 0.862200476427 1.66834551659e-19)
(1.92611568222 0.858856637782 2.16218735376e-19)
(1.51165143351 0.701039337325 -3.28785312304e-19)
(0.620206050421 0.280543897529 -8.25869366922e-20)
(1.95628325503 0.516460920559 9.31668570198e-19)
(1.98904386686 0.549077148053 -4.22816531289e-20)
(2.02456682077 0.584090623801 -1.11452330917e-18)
(2.06387617091 0.622724389678 0)
(2.10624485759 0.665180721607 0)
(2.14621185679 0.71021046932 0)
(2.15680380163 0.748241116961 1.52845689542e-18)
(2.04248214302 0.741505632665 -1.91122096612e-18)
(1.59073558927 0.59940628689 -1.21765265452e-18)
(0.635478153743 0.229240254552 -3.64067552786e-20)
(2.03241143829 0.422491773563 -1.25517919984e-18)
(2.07001552337 0.450282491784 -2.6454301856e-18)
(2.11132630368 0.479871010912 -4.65378266162e-21)
(2.15681702192 0.51218811986 5.49151798732e-19)
(2.20546172832 0.547487388868 -4.06681673572e-20)
(2.25076667126 0.584643079257 1.28093018859e-18)
(2.26231138174 0.614861163678 -7.68598526554e-19)
(2.1363389972 0.605007908053 -2.44056908347e-18)
(1.64734892143 0.484862331677 1.74880223953e-19)
(0.63709255783 0.175435110303 1.2540325505e-19)
(2.09496726503 0.318040626598 -1.01758148091e-18)
(2.13625384158 0.339904250138 1.62876841351e-20)
(2.18188948148 0.362908804443 4.01422534114e-19)
(2.23203987842 0.387907216079 -3.95088627388e-19)
(2.28535829589 0.415147561768 6.26035900217e-19)
(2.33425019505 0.44367444691 1.81291279811e-18)
(2.34466918392 0.465556281426 -2.24157470007e-19)
(2.20417818323 0.454175931205 -1.44624398882e-18)
(1.67991736009 0.362406130985 3.24984752318e-19)
(0.626298049059 0.121754436722 3.35355166647e-20)
(2.14082782264 0.205793081337 3.90018328783e-19)
(2.18488500426 0.220891097631 8.1202581941e-20)
(2.23367028267 0.236368376966 -4.28117003491e-19)
(2.28705359627 0.253156016133 -1.01746459133e-18)
(2.34354149444 0.27149015571 9.14966712243e-20)
(2.39421849725 0.290623642142 9.31366671091e-20)
(2.40144080571 0.305723545583 -1.69603387882e-18)
(2.2445556289 0.293566633361 8.20901161788e-19)
(1.68733489043 0.234527920661 2.39486950567e-19)
(0.604806030791 0.0705940989828 -1.51679383549e-19)
(2.16841883499 0.0879384277554 7.71735470028e-19)
(2.21426346179 0.0954724533791 -1.18832012433e-18)