# Selection   : all
# Cells       : 440
# Volume      : 7.374263e+01
# Time        	minMag(U)
7.815         	1.111293e-02
7.86          	1.079496e-02
7.91          	1.043498e-02
