/*--------------------------------*- C++ -*----------------------------------*\
  =========                 |
  \\      /  F ield         | OpenFOAM: The Open Source CFD Toolbox
   \\    /   O peration     | Website:  https://openfoam.org
    \\  /    A nd           | Version:  13
     \\/     M anipulation  |
\*---------------------------------------------------------------------------*/
FoamFile
{
    format      ascii;
    class       volScalarField;
    location    "5.11";
    object      p;
}
// * * * * * * * * * * * * * * * * * * * * * * * * * * * * * * * * * * * * * //

dimensions      [0 2 -2 0 0 0 0];

internalField   nonuniform List<scalar> 
440
(
-0.66104
-0.641167
-0.650892
-0.608899
-0.71062
-0.70751
-0.689218
-0.668271
-0.640881
-0.633517
-0.814498
-0.78637
-0.755492
-0.71981
-0.684163
-0.9441
-0.901363
-0.832026
-0.749048
-0.666362
-1.04958
-0.993032
-0.866069
-0.731171
-0.605426
-0.923029
-0.934635
-0.958563
-0.989559
-1.01176
-0.759494
-0.76983
-0.786607
-0.80454
-0.81855
-0.692032
-0.691148
-0.692774
-0.695756
-0.699176
-0.679234
-0.671403
-0.663596
-0.65191
-0.638111
-0.629771
-0.620251
-0.606421
-0.574251
-0.573014
-1.0151
-1.01693
-0.769058
-0.301216
0.00106418
-0.899153
-1.05896
-0.881859
-0.337173
-0.00542425
-0.798428
-1.08545
-0.938888
-0.374257
-0.0150318
-0.711432
-1.06918
-0.926842
-0.395647
-0.0302498
-0.636809
-1.06776
-0.889721
-0.408513
-0.0549744
-0.452674
-1.02625
-0.82976
-0.412356
-0.0915119
-0.389073
-0.810222
-0.694868
-0.412059
-0.130907
-0.349569
-0.587185
-0.56046
-0.406793
-0.160776
-0.263285
-0.421988
-0.489442
-0.397588
-0.153954
-0.216342
-0.282175
-0.391751
-0.41187
-0.163155
-0.387167
-0.510388
-0.650517
-0.787081
-0.848837
-0.165944
-0.2992
-0.377691
-0.430717
-0.435218
-0.0249336
-0.139822
-0.219095
-0.280789
-0.318929
0.0664048
-0.0422706
-0.132006
-0.192153
-0.234027
0.114487
0.00287286
-0.0886475
-0.14672
-0.186132
0.847962
0.695479
0.502301
0.292334
0.0659079
0.447869
0.285609
0.0880633
-0.128649
-0.361957
0.0620883
-0.09977
-0.300233
-0.523866
-0.720914
-0.263511
-0.424798
-0.616498
-0.821751
-0.969249
-0.472734
-0.627036
-0.800497
-0.977476
-1.07171
2.00694
2.03896
2.06797
2.08209
2.07782
1.81237
1.83434
1.85206
1.85233
1.82976
1.59148
1.57586
1.53747
1.47687
1.38927
1.33385
1.29846
1.22638
1.12217
0.988496
1.08433
0.980115
0.84432
0.689298
0.500911
1.72785
1.72168
1.71763
1.79453
1.88471
1.71782
1.71164
1.69865
1.77361
1.796
1.7088
1.69871
1.67616
1.74304
1.69165
1.70101
1.68339
1.65226
1.6888
1.52077
1.69437
1.66777
1.62669
1.64145
1.34153
1.689
1.64473
1.59333
1.5337
1.14606
1.68605
1.61549
1.58263
1.38848
1.2069
1.69379
1.60335
1.57624
1.33318
1.24149
1.69128
1.57382
1.56841
1.29135
1.28464
1.72771
1.5736
1.56624
1.25792
1.33948
0.819771
0.534145
0.215012
-0.052952
-0.235275
0.74199
0.54575
0.332878
0.147545
-0.0215809
0.744852
0.57883
0.412669
0.260227
0.10922
0.816267
0.644792
0.485558
0.339082
0.199236
0.873685
0.694159
0.534954
0.38641
0.250071
-1.68371
-1.53354
-1.36071
-1.22092
-1.13849
-1.76716
-1.69709
-1.5661
-1.45754
-1.39091
-1.69766
-1.64817
-1.56593
-1.49447
-1.44271
-1.54245
-1.49965
-1.4538
-1.41398
-1.38183
-1.40503
-1.37941
-1.35454
-1.3382
-1.33966
-1.34027
-1.32537
-1.30594
-1.31717
-1.29489
-1.31035
-1.29896
-1.28736
-1.29078
-1.28832
-1.30195
-1.29514
-1.29242
-1.30005
-1.31818
-1.2549
-1.2606
-1.27922
-1.31071
-1.3479
-1.1059
-1.11708
-1.14261
-1.18016
-1.21392
-1.27132
-0.776507
-0.355547
-0.137264
-0.00966086
-1.27755
-0.73179
-0.335474
-0.134851
-0.00355806
-1.25843
-0.755201
-0.363221
-0.168839
0.00156904
-1.25159
-0.852532
-0.450464
-0.225425
0.0039216
-1.14942
-0.951652
-0.597787
-0.267858
0.00374923
-0.874829
-0.893473
-0.471718
-0.161312
-0.0146478
-1.15721
-0.837505
-0.392305
-0.140131
-0.0118204
-1.09096
-1.35153
-1.39639
-1.36123
-1.16175
-1.11089
-1.3607
-1.4098
-1.35829
-1.33019
1.60962
1.58493
1.5423
1.48221
1.40177
1.81013
1.82908
1.83291
1.81975
1.78977
1.98278
2.01563
2.04106
2.05385
2.05194
2.08454
2.12532
2.16894
2.20481
2.22076
2.09176
2.1298
2.17181
2.20585
2.22146
-0.645927
-0.754489
-0.926301
-1.13242
-1.37585
-0.016719
-0.157112
-0.342909
-0.565926
-0.853562
0.560266
0.414681
0.241187
0.0367844
-0.222285
1.01806
0.906193
0.77037
0.604461
0.401224
1.38849
1.30847
1.20533
1.08263
0.938278
1.79069
1.7541
1.7514
1.76073
1.77192
1.77533
1.74984
1.75126
1.78042
1.84087
1.76223
1.74463
1.75004
1.80187
1.91916
1.74999
1.73827
1.74379
1.80965
1.93263
1.73846
1.73099
1.73277
1.80744
1.92735
1.84583
1.76162
1.73758
1.68384
1.63205
1.80142
1.75109
1.73507
1.70558
1.64872
1.2639
1.02632
0.619991
0.0296862
-0.614684
1.35218
1.06212
0.639439
0.0519364
-0.605644
)
;

boundaryField
{
    left
    {
        type            zeroGradient;
    }
    right
    {
        type            fixedValue;
        value           uniform 0;
    }
    down
    {
        type            zeroGradient;
    }
    up
    {
        type            zeroGradient;
    }
    cylinder
    {
        type            zeroGradient;
    }
    defaultFaces
    {
        type            empty;
    }
}


// ************************************************************************* //
