/*--------------------------------*- C++ -*----------------------------------*\
  =========                 |
  \\      /  F ield         | OpenFOAM: The Open Source CFD Toolbox
   \\    /   O peration     | Website:  https://openfoam.org
    \\  /    A nd           | Version:  13
     \\/     M anipulation  |
\*---------------------------------------------------------------------------*/
FoamFile
{
    format      ascii;
    class       surfaceScalarField;
    location    "5.11";
    object      phi;
}
// * * * * * * * * * * * * * * * * * * * * * * * * * * * * * * * * * * * * * //

dimensions      [0 3 -1 0 0 0 0];

internalField   nonuniform List<scalar> 
823
(
-0.00319362
0.0154934
-0.0122998
0.0104463
0.0120577
-0.0256977
0.0646261
-0.0229666
-0.0312132
0.159046
-0.0788306
-0.015589
-0.0852413
-0.0446122
0.288899
0.00264438
0.012849
0.0426845
-0.0279824
0.127545
-0.107827
0.232362
-0.183647
-0.245266
0.392387
0.0209021
-0.00805303
0.10122
-0.1083
0.210399
-0.217007
0.319366
-0.292614
-0.340879
0.414978
0.0406078
-0.0486608
0.13358
-0.201273
0.219405
-0.302832
0.277215
-0.350424
-0.367163
0.3035
0.0535943
-0.102255
0.125393
-0.273071
0.17114
-0.348579
0.192709
-0.371992
0.206649
-0.381104
-0.0204225
-0.0245431
0.0449656
-0.0546923
-0.0229546
0.0572244
-0.0901135
-0.0119236
0.0473448
-0.124527
0.00140257
0.0330109
0.0150275
-0.156959
0.0174041
-0.0248968
0.000353703
-0.0645083
0.0166569
-0.103076
0.0266442
-0.135354
0.0336808
0.0422702
-0.162597
-0.0102848
0.0106385
-0.0286525
0.0350246
-0.0504927
0.0484844
-0.0697222
0.0529103
0.0550255
-0.0824775
0.00380372
0.00683476
0.0119576
0.0268707
0.0165305
0.0439115
0.0183565
0.0510843
0.0579093
0.0154727
-0.00546505
-0.00429199
0.00840631
0.0439015
0.0571986
-0.221225
0.648157
-0.58389
-0.0473164
0.741789
-0.915698
0.259868
-0.359315
0.0521314
0.389402
-0.841982
0.712448
-0.591655
0.560582
-0.111294
0.596854
0.119848
0.510647
0.36111
-0.600577
0.480739
-0.961611
-0.617485
0.036239
0.478137
0.301821
0.245065
0.465374
-0.764131
0.539342
-1.03558
-0.635337
0.179424
0.314186
0.485772
-0.0612824
0.6189
-0.897259
0.623463
-1.04014
-0.616679
0.226036
0.145348
0.553782
-0.389028
0.700046
-1.04352
0.694184
-1.03428
-0.574382
1.03578
0.16112
-1.05155
1.28044
-0.633691
1.36422
-1.1273
1.20146
-0.871516
-0.398768
1.45053
0.0775397
-1.36695
1.46202
-0.645176
1.32185
-0.987135
1.07286
-0.622528
-0.221516
1.51043
-0.0476433
-1.38524
1.38878
-0.523529
1.11551
-0.713869
0.89173
-0.398745
-0.105177
1.40868
-0.0855372
-1.37079
1.22376
-0.338604
0.856025
-0.346137
0.574929
-0.117649
-0.00626878
0.853099
-0.938636
0.514495
0.168358
0.0507092
1.07756
0.168501
-1.03941
1.14293
0.238127
1.23547
0.322439
1.21426
0.413596
0.451607
0.994279
0.0959057
-0.921684
1.06274
0.169665
1.1679
0.217281
1.26201
0.319486
0.346664
0.963534
0.0391456
-0.906774
1.03073
0.102466
1.12471
0.123306
1.2496
0.194594
0.211021
0.964401
0.00444052
-0.929696
1.03319
0.0336775
1.11443
0.0420664
1.23786
0.0711624
0.0780929
0.713637
-0.709196
0.747314
0.789381
0.860543
0.121087
0.30379
-0.25288
-0.171998
0.0780812
0.309374
-0.266367
0.0405114
0.318202
-0.280633
0.0117114
0.304603
-0.275803
0.191393
-0.179682
0.0757868
0.336252
-0.108249
0.0452339
0.339926
0.0193317
0.344105
0.000513389
0.323421
0.191906
0.0418425
0.365644
-0.0712341
0.0155298
0.366239
-0.00483577
0.36447
-0.0108454
0.329431
0.181061
-0.0367342
0.376088
0.0262903
-0.0462984
0.375803
-0.0467438
0.364916
-0.0310335
0.313721
0.150028
-0.10857
0.103553
-0.104758
-0.0884222
-0.0477724
0.206964
0.105267
-0.262279
-0.0499527
0.150881
0.109478
-0.0533947
0.0936922
0.113823
-0.0566344
0.0382259
0.113187
-0.0577206
0.0797711
-0.0415452
0.20596
0.149646
-0.250338
0.157673
0.157764
0.102928
0.168569
0.0440375
0.172077
0.123809
0.136642
0.196218
-0.183214
0.095416
0.19899
0.0564445
0.20754
0.0201958
0.208326
0.144004
0.161691
0.232087
-0.19756
0.1187
0.24198
0.0720104
0.25423
0.0276771
0.252659
0.171681
0.0819333
-0.102726
0.0575464
0.0311438
0.00800022
0.406744
0.0489369
-0.0597009
0.426042
0.011802
-0.0311
0.41021
0.19607
-0.180238
0.404833
0.147456
-0.142079
0.453948
-0.311394
0.406112
0.0388045
0.420674
-0.00276033
0.399068
0.217676
0.39308
0.153444
0.596689
0.400278
0.0345065
0.414181
-0.0166641
0.376741
0.255117
0.381786
0.148399
0.795262
0.396939
0.0335473
0.396206
-0.0159317
0.369213
0.28211
0.37066
0.146952
0.968361
0.38828
0.0412468
0.382763
-0.0104151
0.343503
0.321371
0.330547
0.159907
1.19618
0.622897
0.0223707
0.630784
-0.0183022
0.68496
0.267195
0.807922
0.0369458
1.00687
0.99723
0.636138
-0.00974653
0.619969
-0.00213345
0.739026
0.148138
0.800682
-0.0247106
0.828538
0.979018
0.636342
-0.0420683
0.640325
-0.00611658
0.750033
0.0384301
0.73495
-0.00962717
0.641275
0.922213
0.62279
-0.0608383
0.649205
-0.0325314
0.705272
-0.0176371
0.679357
0.016288
0.33408
0.986552
0.543182
0.510651
0.493014
0.509302
0.843381
1.01883
-0.193598
1.00187
-0.0912928
1.00226
-0.0716174
1.00131
0.0272337
0.0654591
0.915935
-0.130515
0.892589
-0.0679462
0.87365
-0.052679
0.897905
0.00297872
0.0416808
0.869656
-0.0779589
0.864625
-0.0629151
0.85688
-0.0449334
0.882499
-0.0226404
0.0174059
0.946144
-0.0375507
0.921912
-0.0386831
0.907508
-0.0305293
0.908922
-0.0240544
-0.00336756
0.805831
0.767148
0.736618
0.712564
0.0522235
0.165594
-0.217817
0.0765793
0.353049
-0.377405
0.0760457
0.40714
-0.406607
0.0658957
0.408905
-0.398755
0.375517
0.0543882
-0.36401
0.0791812
0.0864125
0.154841
0.277389
0.190285
0.371697
0.195732
0.403457
0.395098
0.176152
0.0673043
0.0191082
0.189158
0.155535
0.285702
0.275153
0.348503
0.340657
0.390262
0.353338
0.0320456
-0.0129374
0.141856
0.045725
0.272572
0.144436
0.396908
0.216321
0.294238
0.492932
0.00695545
-0.0198929
0.0655992
-0.0129187
0.176312
0.0337228
0.30794
0.0846937
0.153993
0.448185
0.000568409
-0.0204613
0.0219727
-0.034323
0.0808269
-0.0251314
0.167006
-0.00148559
0.0510969
0.269902
0.00346753
-0.0239288
0.0152598
-0.0461152
0.0387127
-0.0485844
0.0740633
-0.0368361
-0.00893034
0.134091
0.0138007
-0.0377295
0.0336463
-0.0659608
0.0526136
-0.0675517
0.0720211
-0.0562436
-0.0388814
0.101972
0.0137028
-0.0514324
0.0248197
-0.0770777
0.0302106
-0.0729426
0.0331734
-0.0592063
-0.0431493
0.0374412
-0.00646673
-0.02632
-0.0519179
-0.0781133
-0.103858
0.34843
0.766473
-0.845001
0.279971
0.537376
-0.468917
0.194533
0.138583
-0.0531451
0.23045
-0.163909
0.127992
-0.17423
0.0998759
0.333654
0.56691
0.192451
0.678579
0.0629312
0.268103
0.14724
-0.248218
-0.280148
0.245625
0.423257
0.0391153
0.885089
-0.022009
0.329228
0.131348
-0.401575
-0.39576
-0.00510232
0.4658
-0.108532
0.988518
0.00317538
0.217521
0.17103
-0.569429
-0.4959
-0.221948
-0.149128
0.120524
0.263543
0.0751728
0.553899
-0.629071
-0.0769702
0.152143
0.00840178
-0.085372
0.11917
-0.110768
-0.0566663
0.856469
-1.14757
0.539695
0.401178
0.418402
0.0945671
-0.0145592
-0.080008
0.151534
-0.0569669
0.263959
-0.112425
0.433675
-0.169715
-0.195397
0.211469
-0.17164
0.330654
0.571567
0.894783
0.14528
-0.146432
0.17735
-0.176198
0.111258
-0.152696
0.186719
0.0721689
-0.160843
0.199931
0.0296783
-0.16144
0.203931
-0.114734
0.144412
0.18773
-0.105927
-0.228235
0.142099
-0.107065
0.0905151
-0.109259
0.0376254
-0.108551
-0.0771084
0.191557
-0.0553384
-0.242146
0.139817
-0.0553256
0.0870368
-0.0564787
0.0353869
-0.0569008
-0.0417215
0.207944
-0.00260858
-0.260673
0.154387
-0.00176899
0.098983
-0.00107478
0.0421498
-6.7619e-05
0.000428343
0.211778
-0.264339
0.156614
0.0989051
0.0411168
0.0447822
-0.341127
-0.0676649
0.017495
-0.371468
-0.00661199
-0.3825
-0.0167811
-0.367236
-0.234598
0.130584
-0.306509
-0.165203
0.0843337
-0.325217
0.0400635
-0.33823
0.00746759
-0.33464
-0.227131
0.150572
-0.2639
-0.19318
0.10686
-0.281506
0.063607
-0.294976
0.023189
-0.294222
-0.203942
0.172762
-0.226367
-0.210295
0.12714
-0.235884
0.0780758
-0.245912
0.0311289
-0.247275
-0.172813
0.16689
-0.215907
0.117725
0.0717443
0.0284006
0.391578
0.0816415
-0.0772404
0.397318
0.0926092
-0.0983488
0.358841
0.170131
-0.131654
0.307095
0.0219465
0.0297999
-0.230341
0.361239
0.395454
0.0821675
0.409427
0.0786358
0.400402
0.179156
0.35315
0.0691991
-0.105426
0.399297
0.0788504
0.415139
0.0627935
0.415343
0.178952
0.379676
0.104866
0.0321037
0.403906
0.070924
0.419374
0.0473252
0.422299
0.176027
0.399097
0.128069
0.170527
0.407203
0.423428
0.419216
0.405206
0.425245
0.0848056
0.335538
0.0897071
0.249775
0.0857632
0.274366
-0.0245911
-0.19427
0.468636
0.517616
0.508975
0.463083
0.468292
0.635261
0.375658
0.092978
0.292355
0.083303
0.195738
0.096617
0.113841
0.0818969
0.0338333
0.512332
0.38534
0.288777
0.205471
)
;

boundaryField
{
    left
    {
        type            calculated;
        value           nonuniform List<scalar> 
17
(
-0.60402
-0.60402
-0.60402
-0.60402
-0.60402
-0.39598
-0.39598
-0.39598
-0.39598
-0.39598
-0.39598
-0.39598
-0.39598
-0.39598
-0.39598
-0.510051
-0.510051
)
;
    }
    right
    {
        type            calculated;
        value           nonuniform List<scalar> 
17
(
0.175836
0.461611
0.304804
0.253157
0.24696
0.27117
0.328225
0.420475
0.506569
0.557194
0.604805
0.651887
1.02584
0.895611
0.775391
0.476021
0.0444404
)
;
    }
    down
    {
        type            calculated;
        value           uniform 0;
    }
    up
    {
        type            calculated;
        value           uniform 0;
    }
    cylinder
    {
        type            calculated;
        value           uniform 0;
    }
    defaultFaces
    {
        type            empty;
    }
}


// ************************************************************************* //
