/*--------------------------------*- C++ -*----------------------------------*\
  =========                 |
  \\      /  F ield         | OpenFOAM: The Open Source CFD Toolbox
   \\    /   O peration     | Website:  https://openfoam.org
    \\  /    A nd           | Version:  13
     \\/     M anipulation  |
\*---------------------------------------------------------------------------*/
FoamFile
{
    format      ascii;
    class       surfaceScalarField;
    location    "4.95";
    object      phi;
}
// * * * * * * * * * * * * * * * * * * * * * * * * * * * * * * * * * * * * * //

dimensions      [0 3 -1 0 0 0 0];

internalField   nonuniform List<scalar> 
3485
(
-0.000733269
0.00230214
-0.00156887
-0.00165276
0.00484829
-0.0039288
-0.00152626
0.00552884
-0.00565534
0.000821643
0.00438138
-0.00672929
0.00649497
0.00139903
-0.00707236
0.0166352
-0.00355482
-0.00658544
0.0323045
-0.0104951
-0.00517418
0.0542744
-0.0192455
-0.00272435
0.0826232
-0.0291283
0.000779458
-0.0330924
0.00333629
0.112379
-0.000457212
0.00275935
-0.000306601
0.00469768
0.00176155
0.00346068
0.00704471
-0.000901776
0.0167617
-0.00831798
0.0319137
-0.0187068
0.053142
-0.0317235
0.0806961
-0.0467996
0.11465
-0.063082
-0.0740345
0.155592
0.000132279
0.00262707
0.00203613
0.00279383
0.00721086
-0.00171405
0.0170585
-0.0107494
0.0326936
-0.0239531
0.0546024
-0.0406155
0.0824628
-0.0595839
0.115151
-0.0794881
0.15127
-0.0992006
-0.115328
0.192564
0.000723062
0.00190401
0.00472336
-0.00120647
0.0137201
-0.0107107
0.0290074
-0.0260367
0.0510842
-0.0460299
0.0792927
-0.068824
0.111925
-0.0922162
0.146644
-0.114207
0.180861
-0.133418
-0.148773
0.214306
0.00156263
0.000341383
0.00820711
-0.00785095
0.0216121
-0.0241157
0.0424292
-0.0468539
0.0697404
-0.0733411
0.101182
-0.100266
0.133705
-0.124739
0.164426
-0.144928
0.191187
-0.160178
-0.170985
0.213398
0.00266034
-0.00231895
0.0123574
-0.017548
0.0301394
-0.0418977
0.0551396
-0.071854
0.0845049
-0.102706
0.114505
-0.130267
0.141866
-0.152099
0.164552
-0.167615
0.181933
-0.17756
-0.183278
0.194227
0.00393407
-0.00625303
0.0166473
-0.0302612
0.0377121
-0.0629625
0.0641474
-0.0982893
0.0915949
-0.130154
0.116286
-0.154957
0.13614
-0.171954
0.150815
-0.182289
0.161072
-0.187817
-0.190377
0.168171
0.00520991
-0.0114629
0.0202602
-0.0453116
0.0425605
-0.0852628
0.0673019
-0.123031
0.0899642
-0.152816
0.10803
-0.173024
0.121059
-0.184982
0.129874
-0.191104
0.1357
-0.193643
-0.194181
0.139504
0.00626751
-0.0177304
0.0224347
-0.0614787
0.0436997
-0.106528
0.0645745
-0.143906
0.0815854
-0.169827
0.0937512
-0.18519
0.101699
-0.19293
0.106622
-0.196027
0.109593
-0.196613
-0.195882
0.111294
0.00691509
-0.0246455
0.022774
-0.0773376
0.0412868
-0.125041
0.0574779
-0.160097
0.0692501
-0.181599
0.0767035
-0.192643
0.0809023
-0.197129
0.0830001
-0.198125
0.0838427
-0.197456
0.0838792
-0.195919
-0.00220344
-0.0118391
0.0140426
-0.00794284
-0.0236263
0.0293657
-0.015882
-0.028793
0.0367321
-0.0248451
-0.0310739
0.040037
-0.0340305
-0.0324539
0.0416393
-0.0429967
-0.0335818
0.0425481
-0.051526
-0.0344758
0.043005
-0.0594998
-0.0350141
0.042988
-0.0668377
-0.0351247
0.0424626
-0.034959
-0.0735217
0.0416431
-0.00357515
-0.00826398
-0.0114518
-0.0157496
-0.0216409
-0.0186039
-0.0329253
-0.0197895
-0.0446113
-0.0207679
-0.0563041
-0.021889
-0.0677591
-0.0230208
-0.078803
-0.0239702
-0.089316
-0.0246117
-0.0249654
-0.0993096
-0.00368923
-0.00457475
-0.0114724
-0.00796643
-0.0215082
-0.00856811
-0.0328469
-0.00845081
-0.0449524
-0.00866233
-0.0574423
-0.00939914
-0.0700033
-0.0104598
-0.0823803
-0.0115932
-0.0943784
-0.0126135
-0.0133839
-0.10596
-0.00269661
-0.00187815
-0.00840684
-0.00225619
-0.0159848
-0.000990131
-0.0249776
0.000541947
-0.0351055
0.00146563
-0.0460398
0.0015351
-0.0574112
0.00091164
-0.0688276
-0.00017678
-0.0800686
-0.00137256
-0.00253441
-0.090918
-0.00128001
-0.000598137
-0.00405653
0.000520326
-0.00797645
0.00292979
-0.0129781
0.00554361
-0.0190968
0.00758431
-0.0262495
0.00868775
-0.0341708
0.00883303
-0.0425323
0.00818467
-0.050872
0.00696718
0.00534089
-0.0587473
-0.000273745
-0.000324391
-0.000789752
0.00103633
-0.00153122
0.00367126
-0.00270378
0.00671617
-0.00455705
0.00943758
-0.00723546
0.0113662
-0.0106991
0.0122967
-0.0147206
0.0122062
-0.0189245
0.011171
0.00919523
-0.0227788
5.0999e-05
-0.00037539
0.000353223
0.000734109
0.000924893
0.00309959
0.0016172
0.00602387
0.00218088
0.0088739
0.00237699
0.01117
0.00207864
0.012595
0.00133927
0.0129456
0.000462714
0.0120476
0.00965445
3.49668e-06
-0.000205192
-0.000170198
-0.000396925
0.000925842
-0.000328444
0.00303111
5.25763e-05
0.00564285
0.000617748
0.00830873
0.00114935
0.0106384
0.00144792
0.0122964
0.00144658
0.0129469
0.00132287
0.0121713
0.00923473
0.00174258
-0.000686236
0.000516038
-0.00189021
0.00212982
-0.00299482
0.00413571
-0.00364003
0.00628806
-0.00368169
0.00835039
-0.00313034
0.0100871
-0.00206795
0.011234
-0.000612269
0.0114912
0.00133022
0.0102288
0.00633065
0.0042343
-0.00105283
-0.00285182
-0.00437144
-0.00481267
-0.00353464
-3.29801e-05
0.00602688
0.0147938
0.025802
0.0354689
-0.078455
-0.316802
0.321735
-0.00792342
0.197844
-0.268376
0.0189195
0.823259
-0.850102
-0.00303337
0.815337
-0.793384
0.0216513
0.409448
-0.434133
0.0873241
-0.117177
0.0515044
0.147729
-0.463616
0.403211
0.192726
-0.514963
0.469966
0.220737
-0.550426
0.522415
-0.384792
0.372265
-0.120423
-0.295688
-0.0514191
0.12884
-0.0228637
0.794704
-0.0141408
0.806614
0.0494154
0.345892
0.118261
-0.186023
0.176997
-0.522352
0.219119
-0.557084
0.241881
-0.573189
-0.39311
-0.148421
-0.253228
-0.0856631
0.0660822
-0.0453328
0.754374
-0.0103973
0.771678
0.0826546
0.25284
0.153569
-0.256937
0.207931
-0.576714
0.245597
-0.59475
0.262506
-0.590099
-0.397099
-0.150799
-0.193346
-0.0991803
0.0144633
-0.0360498
0.691243
0.017928
0.7177
0.11985
0.150918
0.190883
-0.32797
0.239264
-0.625095
0.271335
-0.626821
0.282101
-0.600865
-0.39674
-0.122135
-0.129959
-0.0889326
-0.0187392
-0.00701725
0.609328
0.0680686
0.642614
0.160263
0.0587231
0.227769
-0.395475
0.269495
-0.666821
0.295432
-0.652758
0.300142
-0.605575
-0.39215
-0.0694744
-0.083263
-0.0562139
-0.0319997
0.0322771
0.520837
0.124414
0.550478
0.201751
-0.0186143
0.262424
-0.456148
0.297246
-0.701643
0.317098
-0.67261
0.316156
-0.604632
-0.38357
-0.0143597
-0.0688998
-0.00258087
-0.0437785
0.0777928
0.440463
0.175491
0.45278
0.240756
-0.0838799
0.293228
-0.508619
0.321384
-0.7298
0.335698
-0.686925
0.329707
-0.598641
-0.371379
0.0196582
-0.0868155
0.0518257
-0.075946
0.129804
0.362485
0.218835
0.363749
0.274803
-0.139848
0.319051
-0.552867
0.341176
-0.751925
0.350783
-0.696531
0.340352
-0.58821
-0.356159
0.0388318
-0.121413
0.0949217
-0.132036
0.178289
0.279117
0.254339
0.2877
0.302657
-0.188166
0.339242
-0.589452
0.356248
-0.768931
0.362091
-0.702374
0.347866
-0.573985
-0.338556
0.0667079
-0.152652
0.119465
-0.184793
0.207148
0.191434
0.280545
0.214303
0.323577
-0.231199
0.353064
-0.618938
0.366712
-0.782579
0.369705
-0.705367
0.352265
-0.556545
-0.31917
0.364208
-0.158428
-0.358432
0.349324
-0.169909
0.421535
0.119223
0.577984
0.0578535
0.686306
-0.339521
0.719481
-0.652113
0.693763
-0.756861
0.642276
-0.65388
0.567238
-0.481508
-0.260193
0.603319
-0.153433
-0.608314
0.569384
-0.135974
0.612452
0.0761559
0.725016
-0.0547103
0.779737
-0.394243
0.763899
-0.636275
0.707737
-0.700699
0.639212
-0.585354
0.556033
-0.398329
-0.197866
0.685198
-0.134247
-0.704383
0.667082
-0.117859
0.728595
0.0146432
0.794437
-0.120552
0.79069
-0.390496
0.753608
-0.599193
0.695096
-0.642187
0.622795
-0.513054
0.536585
-0.312118
-0.134444
0.701329
-0.113694
-0.721882
0.70068
-0.117211
0.757602
-0.0422788
0.786692
-0.149642
0.77784
-0.381644
0.746316
-0.567669
0.675971
-0.571842
0.586171
-0.423254
0.491843
-0.217791
-0.0728087
0.70337
-0.101397
-0.715666
0.709558
-0.123399
0.744407
-0.0771271
0.763795
-0.169031
0.758595
-0.376443
0.70577
-0.514845
0.607146
-0.473218
0.50435
-0.320458
0.415686
-0.129127
-0.0225578
0.703064
-0.0977555
-0.706706
0.705646
-0.125981
0.723994
-0.0954747
0.738931
-0.183968
0.715651
-0.353163
0.625945
-0.425139
0.504532
-0.351805
0.399001
-0.214927
0.32427
-0.0543958
0.0127441
0.696991
-0.0966441
-0.698102
0.689423
-0.118413
0.69536
-0.101411
0.691835
-0.180444
0.621867
-0.283194
0.485324
-0.288597
0.349997
-0.216477
0.258307
-0.123237
0.213824
-0.00991358
0.0261533
0.660481
-0.0839951
-0.67313
0.635787
-0.0937186
0.623798
-0.0894228
0.573467
-0.130113
0.444897
-0.154624
0.291674
-0.135374
0.179029
-0.103832
0.118983
-0.0631904
0.107266
0.00180294
0.0206401
0.526572
-0.0477598
-0.562807
0.482432
-0.0495792
0.433418
-0.0404086
0.337078
-0.0337728
0.212123
-0.0296689
0.111165
-0.0344164
0.044591
-0.0372579
0.00982336
-0.0284228
0.0137488
-0.00212255
0.00805866
0.206896
-0.254656
0.157317
0.116909
0.0831357
0.0534669
0.0190504
-0.0182075
-0.0466303
-0.0487528
0.537631
0.072613
-0.526365
0.549722
0.0992031
0.564755
0.124471
0.579877
0.153049
0.595107
0.178996
0.604005
0.2045
0.590517
0.227794
0.548984
0.234097
0.455604
0.248972
0.209551
0.519035
0.0609728
-0.507394
0.533026
0.0852113
0.54976
0.107737
0.570853
0.131956
0.591753
0.158097
0.617354
0.178898
0.634858
0.21029
0.647492
0.221463
0.643378
0.253087
0.244614
0.505196
0.050691
-0.494914
0.5194
0.0710075
0.535366
0.0917716
0.55593
0.111393
0.578233
0.135794
0.603972
0.153159
0.633335
0.180927
0.659987
0.194812
0.691417
0.221656
0.231648
0.495343
0.0409523
-0.485604
0.508756
0.0575939
0.524688
0.0758401
0.543484
0.0925968
0.566617
0.11266
0.590811
0.128965
0.622284
0.149453
0.651881
0.165216
0.689529
0.184008
0.199296
0.487557
0.0312074
-0.477812
0.500174
0.0449772
0.516199
0.0598151
0.534401
0.0743944
0.557314
0.0897476
0.581634
0.104645
0.611574
0.119513
0.642485
0.134305
0.67862
0.147872
0.16225
0.48017
0.021598
-0.470561
0.492451
0.0326957
0.508291
0.043976
0.526715
0.0559695
0.549092
0.0673709
0.57402
0.0797175
0.60284
0.0906929
0.634299
0.102845
0.669141
0.11303
0.124685
0.469737
0.0124313
-0.46057
0.481933
0.0204999
0.497484
0.0284244
0.516262
0.0371917
0.538465
0.0451679
0.563963
0.0542191
0.592776
0.0618804
0.624811
0.0708097
0.659995
0.077847
0.0865775
0.445053
0.00432332
-0.436945
0.45651
0.00904338
0.471209
0.0137253
0.48956
0.0188402
0.51121
0.0235184
0.536661
0.0287682
0.565419
0.0331218
0.597904
0.0383251
0.63374
0.0420113
0.0471867
0.374526
-0.000703685
-0.369499
0.382558
0.00101119
0.393584
0.00269925
0.407928
0.00449669
0.425362
0.0060844
0.446297
0.00783304
0.470246
0.00917265
0.497829
0.0107417
0.528182
0.0116591
0.0125613
0.188397
-0.1891
0.189408
0.192107
0.196604
0.202688
0.210521
0.219694
0.230436
0.242095
0.0709608
0.143915
-0.132394
-0.0824813
0.060337
0.146126
-0.135503
0.0505118
0.148754
-0.138929
0.0409894
0.152227
-0.142705
0.0315344
0.155909
-0.146454
0.022245
0.158678
-0.149388
0.0135545
0.157856
-0.149166
0.00627861
0.147634
-0.140358
0.0014909
0.117931
-0.113143
0.0553498
-0.0538589
0.0668185
0.154246
-0.0771495
0.0566166
0.156328
0.046736
0.158635
0.0372047
0.161758
0.027944
0.16517
0.0190759
0.167546
0.0110613
0.165871
0.00469278
0.154002
0.000876881
0.121747
0.0562267
0.0589507
0.163344
-0.0680492
0.0495731
0.165706
0.0403066
0.167901
0.0313414
0.170723
0.0227369
0.173774
0.0146776
0.175605
0.00766126
0.172887
0.00251537
0.159148
7.4803e-06
0.124255
0.0562342
0.047551
0.171183
-0.0553893
0.0393965
0.17386
0.0311875
0.17611
0.0231744
0.178737
0.0155501
0.181398
0.00863831
0.182517
0.00299695
0.178529
-0.000471738
0.162617
-0.00108305
0.124866
0.0551511
0.0339578
0.177916
-0.0406913
0.0270408
0.180777
0.0200349
0.183116
0.0131817
0.18559
0.00676999
0.18781
0.00124289
0.188044
-0.00253401
0.182306
-0.00375918
0.163842
-0.00232887
0.123436
0.0528223
0.0185445
0.18358
-0.0242089
0.0128253
0.186497
0.00708878
0.188852
0.00156253
0.191116
-0.00337002
0.192743
-0.00706892
0.191743
-0.00872724
0.183964
-0.00751922
0.162634
-0.0036291
0.119546
0.0491932
0.00182059
0.188386
-0.00662656
-0.0028109
0.191128
-0.00730979
0.193351
-0.0114402
0.195246
-0.0147325
0.196035
-0.0164316
0.193442
-0.0155508
0.183083
-0.0114139
0.158497
-0.0048634
0.112995
0.0443298
-0.0168969
0.192051
0.0132327
-0.0203095
0.194541
-0.0234476
0.196489
-0.0260062
0.197805
-0.0273731
0.197402
-0.0266139
0.192683
-0.0227003
0.17917
-0.015248
0.151045
-0.00592939
0.103676
0.0384004
-0.0373383
0.194595
0.0347942
-0.0395051
0.196708
-0.0411834
0.198168
-0.0419438
0.198565
-0.0410014
0.196459
-0.037276
0.188957
-0.0298036
0.171697
-0.0187086
0.13995
-0.00669861
0.0916664
0.0317018
-0.0598001
0.0584763
-0.0605486
-0.0605057
-0.0590693
-0.0552527
-0.0478947
-0.0362941
-0.021385
-0.00705623
0.110742
0.0347326
-0.123026
-0.0224488
0.0981671
0.0357586
-0.0231837
0.0852876
0.0368818
-0.0240023
0.0720767
0.0380812
-0.0248703
0.0585154
0.0393393
-0.025778
0.0446273
0.0405332
-0.0266451
0.0305991
0.0411773
-0.027149
0.0170834
0.039879
-0.0263633
0.00575197
0.0336011
-0.0222697
0.0171732
-0.0114212
0.108909
0.0469201
-0.121096
0.096501
0.0481664
0.0838049
0.0495779
0.0707895
0.0510966
0.0574283
0.0527004
0.0437431
0.0542184
0.0299291
0.0549913
0.0166519
0.0531561
0.00557293
0.0446801
0.0227461
0.106802
0.0589259
-0.118807
0.094526
0.0604422
0.0819855
0.0621184
0.0691542
0.0639279
0.0560112
0.0658434
0.0425781
0.0676516
0.0290505
0.0685189
0.0160966
0.06611
0.00535093
0.0554258
0.028097
0.104188
0.0708815
-0.116143
0.0921005
0.0725293
0.0797499
0.074469
0.0671098
0.0765681
0.0541742
0.078779
0.0409955
0.0808302
0.0278021
0.0817123
0.0152764
0.0786357
0.00500933
0.0656928
0.0331064
0.101163
0.082597
-0.112878
0.0892997
0.0843923
0.0772604
0.0865083
0.0649793
0.0888492
0.0524086
0.0913497
0.0395801
0.0936588
0.0267388
0.0945536
0.014602
0.0907725
0.00474892
0.0755459
0.0378553
0.0971133
0.0943025
-0.108819
0.0853987
0.096107
0.0735174
0.0983896
0.0614778
0.100889
0.0492739
0.103554
0.0369411
0.105992
0.0247147
0.10678
0.013301
0.102186
0.00421474
0.0846321
0.04207
0.0928721
0.105404
-0.103973
0.0817741
0.107205
0.0704889
0.109675
0.0589226
0.112455
0.0470831
0.115393
0.0350876
0.117987
0.0232587
0.118609
0.012353
0.113092
0.00383818
0.0931469
0.0459082
0.0855683
0.116275
-0.0964398
0.0748899
0.117883
0.0642401
0.120325
0.0535058
0.123189
0.0425866
0.126312
0.0315243
0.129049
0.020641
0.129492
0.010724
0.123009
0.00319219
0.100679
0.0491004
0.0806133
0.125517
-0.0898547
0.0709976
0.127499
0.0608285
0.130494
0.0503185
0.133699
0.0396328
0.136998
0.0289366
0.139746
0.0185998
0.139829
0.00941252
0.132196
0.00268334
0.107408
0.0517837
0.0698516
-0.0767288
0.0618479
0.0534127
0.0444076
0.0349517
0.025309
0.015972
0.00781053
0.00207518
0.201897
0.0036589
-0.00756567
0.205399
0.0227112
-0.0262137
0.209624
0.0286971
-0.0329217
0.212389
0.0434586
-0.0462238
0.214603
0.0539908
-0.0562048
0.213845
0.0731006
-0.0723423
0.209092
0.0923749
-0.0876225
0.197811
0.113757
-0.102475
0.173274
0.158755
-0.134219
0.219085
-0.168837
0.201637
1.14609e-05
0.204535
0.019813
0.208722
0.0245106
0.210793
0.0413877
0.213078
0.051706
0.211475
0.0747035
0.206852
0.0969971
0.19483
0.12578
0.170117
0.183468
0.268106
0.201322
-0.00332082
0.203552
0.0175829
0.207615
0.0204477
0.208892
0.0401105
0.211159
0.0494393
0.208486
0.077377
0.204012
0.101471
0.190817
0.138975
0.166507
0.207777
0.315806
0.200926
-0.00625677
0.20245
0.0160585
0.206282
0.0166158
0.20669
0.0397021
0.208832
0.0472981
0.204936
0.0812724
0.200602
0.105805
0.185872
0.153705
0.162446
0.231204
0.362108
0.200436
-0.00870301
0.201229
0.0152659
0.204703
0.0131418
0.204197
0.0402075
0.206067
0.0454286
0.200856
0.0864835
0.196576
0.110084
0.180133
0.170148
0.157861
0.253476
0.40709
0.199843
-0.0105559
0.199888
0.015221
0.202862
0.0101674
0.201423
0.041646
0.202852
0.0439999
0.19626
0.0930762
0.191939
0.114404
0.173444
0.188643
0.152918
0.274002
0.45119
0.199141
-0.0117067
0.198431
0.0159307
0.20075
0.00784855
0.19839
0.0440057
0.199164
0.0432261
0.191231
0.101009
0.186529
0.119107
0.166263
0.208909
0.147105
0.293159
0.494322
0.198333
-0.0120499
0.196862
0.0174015
0.198364
0.00634712
0.19511
0.0472589
0.195005
0.0433313
0.185767
0.110248
0.180464
0.124409
0.15792
0.231452
0.140955
0.310125
0.538837
0.197436
-0.0114963
0.195182
0.0196558
0.195714
0.00581533
0.191594
0.0513781
0.190336
0.0445897
0.179989
0.120595
0.17367
0.130729
0.150744
0.254378
0.134226
0.326643
0.583208
0.196502
-0.0100081
0.193344
0.0228135
0.192883
0.0062759
0.187744
0.0565172
0.185109
0.0472251
0.173288
0.132415
0.165044
0.138973
0.140199
0.279224
0.127391
0.339451
0.63387
0.306103
-0.0141008
0.307955
0.0209619
0.316157
-0.00192634
0.318104
0.0545698
0.329447
0.0358821
0.328889
0.132973
0.346003
0.121859
0.349122
0.276104
0.396439
0.292134
0.566073
0.464236
0.306377
-0.0184673
0.309416
0.0179229
0.318131
-0.0106412
0.322088
0.050613
0.334524
0.0234461
0.337536
0.12996
0.356249
0.103147
0.369081
0.263273
0.412127
0.249087
0.501328
0.476872
0.306306
-0.0227632
0.311604
0.0126249
0.319939
-0.0189761
0.327188
0.0433641
0.339128
0.0115054
0.346467
0.122621
0.365164
0.0844505
0.384742
0.243694
0.42257
0.211259
0.431913
0.491985
0.306107
-0.0268603
0.314657
0.00407494
0.322009
-0.0263274
0.3332
0.0321732
0.342663
0.00204175
0.35449
0.110794
0.371747
0.0671931
0.396809
0.218633
0.4335
0.174568
0.361287
0.504126
0.306391
-0.0312413
0.318192
-0.00772588
0.325751
-0.0338859
0.339958
0.0179656
0.346861
-0.0048616
0.363488
0.0941682
0.378784
0.0518973
0.409334
0.188083
0.441005
0.142896
0.293724
0.508568
0.307656
-0.0368874
0.322824
-0.0228936
0.330738
-0.0418003
0.346493
0.00221074
0.351735
-0.0101034
0.371745
0.0741585
0.385162
0.0384799
0.418908
0.154337
0.447157
0.114648
0.230079
0.510802
0.310654
-0.045531
0.327998
-0.0402378
0.335536
-0.0493385
0.350703
-0.0129556
0.353626
-0.0130265
0.376091
0.051693
0.386942
0.0276293
0.423449
0.11783
0.450325
0.0877718
0.169746
0.510657
0.314112
-0.0576329
0.329067
-0.0551929
0.331774
-0.052045
0.341163
-0.0223446
0.340352
-0.0122154
0.362183
0.0298617
0.370539
0.0192737
0.41022
0.0781491
0.438588
0.0594039
0.109002
0.499331
0.307456
-0.0630785
0.303731
-0.0514685
0.290082
-0.0383953
0.284411
-0.0166745
0.278561
-0.00636471
0.295719
0.0127037
0.304774
0.0102188
0.347844
0.0350792
0.380203
0.0270441
0.0457684
0.443438
0.238932
0.187463
0.149068
0.132393
0.126029
0.138732
0.148951
0.18403
0.211074
0.256843
0.477009
-0.0952542
0.481506
-0.0816467
0.484977
-0.0715204
0.488259
-0.0586707
0.492755
-0.0451878
0.497435
-0.0288884
0.503231
-0.012423
0.509518
0.00694635
0.517656
0.0266563
0.0497667
0.47785
-0.0962316
0.478499
-0.0822955
0.47864
-0.0716617
0.478793
-0.0588238
0.480331
-0.0467257
0.482348
-0.0309052
0.486543
-0.016618
0.491515
0.00197362
0.498907
0.0192648
0.0412793
0.485829
-0.0900757
0.482316
-0.0787822
0.479036
-0.068382
0.476566
-0.0563536
0.475119
-0.0452789
0.475445
-0.0312312
0.477188
-0.0183609
0.480861
-0.00169986
0.48648
0.0136463
0.0328446
0.49347
-0.0794193
0.485414
-0.0707263
0.478949
-0.0619173
0.474553
-0.0519569
0.471001
-0.0417273
0.469968
-0.0301982
0.469982
-0.0183748
0.473069
-0.00478658
0.477549
0.00916608
0.0247895
0.49663
-0.0674815
0.486614
-0.0607102
0.478214
-0.0535173
0.472035
-0.0457776
0.467297
-0.0369889
0.464993
-0.027895
0.464284
-0.0176655
0.466449
-0.00695165
0.470575
0.00504063
0.0175517
0.497799
-0.0544786
0.486428
-0.0493393
0.476795
-0.0438843
0.469179
-0.0381624
0.463574
-0.0313832
0.460165
-0.0244864
0.458962
-0.0164622
0.460199
-0.00818934
0.464032
0.00120801
0.0110232
0.496363
-0.0401842
0.48365
-0.0366258
0.472778
-0.0330122
0.463895
-0.0292799
0.457274
-0.0247618
0.452841
-0.0200536
0.450854
-0.0144753
0.451307
-0.00864218
0.454532
-0.00201679
0.00498463
0.483354
-0.0242066
0.469218
-0.0224903
0.457082
-0.0208762
0.44698
-0.0191778
0.439162
-0.0169438
0.433546
-0.0144378
0.4304
-0.0113289
0.429719
-0.00796104
0.43184
-0.00413825
-0.000120305
0.427741
-0.00851014
0.413861
-0.00860979
0.401657
-0.00867223
0.391047
-0.00856843
0.382228
-0.0081245
0.375211
-0.00742088
0.370298
-0.00641585
0.367569
-0.00523195
0.367284
-0.00385324
-0.0023354
0.248333
0.239723
0.231051
0.222482
0.214358
0.206937
0.200521
0.195289
0.191436
0.00815428
0.0483245
-0.0564788
0.0188824
0.126418
-0.137147
0.0257358
0.177283
-0.184136
0.0279348
0.203523
-0.205722
0.0267976
0.213889
-0.212752
0.0237712
0.215832
-0.212805
0.0198365
0.213469
-0.209534
0.0156146
0.207929
-0.203707
0.0117058
0.197863
-0.193954
0.179462
0.00877313
-0.17653
0.0097119
0.0386126
0.0252396
0.110891
0.0378366
0.164686
0.0451451
0.196214
0.0480521
0.210982
0.0481716
0.215712
0.0467442
0.214896
0.0444473
0.210226
0.0414782
0.200832
0.183336
0.0376051
0.0102989
0.0283137
0.029949
0.0912406
0.0487003
0.145934
0.0620698
0.182845
0.0699415
0.203111
0.0738142
0.211839
0.0751469
0.213564
0.0747142
0.210659
0.0725193
0.203027
0.188371
0.0674835
0.00978586
0.0185279
0.0318988
0.0691277
0.0564723
0.121361
0.0767232
0.162594
0.0907185
0.189116
0.0993383
0.20322
0.10414
0.208761
0.106212
0.208587
0.105565
0.203674
0.192739
0.101197
0.00833384
0.010194
0.0303885
0.0470731
0.0590682
0.0926812
0.0863883
0.135273
0.10791
0.167594
0.122887
0.188243
0.132489
0.199159
0.138065
0.203011
0.140227
0.201513
0.195572
0.137394
0.0063349
0.00385913
0.0256957
0.0277122
0.0550368
0.0633401
0.0876197
0.102691
0.117202
0.138011
0.140459
0.164986
0.156866
0.182752
0.167392
0.192485
0.173046
0.19586
0.19459
0.174028
0.00427682
-0.000417685
0.0192662
0.0127229
0.0452778
0.0373284
0.0788011
0.0691674
0.114185
0.102628
0.146418
0.132752
0.172539
0.156631
0.191739
0.173285
0.204641
0.182958
0.188398
0.210833
0.00253095
-0.00294863
0.0128193
0.00243456
0.0328482
0.0172995
0.0622268
0.0397887
0.0978664
0.0669883
0.135317
0.0953022
0.170454
0.121493
0.200091
0.143648
0.223285
0.159763
0.171581
0.240102
0.00123928
-0.00418791
0.0074759
-0.00380207
0.0210066
0.00376883
0.0431275
0.0176679
0.0733654
0.0367504
0.109441
0.059227
0.14809
0.0828439
0.186096
0.105642
0.219563
0.126296
0.139525
0.251619
0.000340271
-0.00452818
0.00346183
-0.00692363
0.0113919
-0.00416124
0.0258513
0.0032085
0.0477706
0.014831
0.0768826
0.030115
0.111661
0.0480657
0.150005
0.0672981
0.188897
0.0874037
0.104586
0.223836
-0.000368258
-0.00415993
0.000486856
-0.00777875
0.004227
-0.00790139
0.0123704
-0.00493486
0.0261761
0.00102527
0.046383
0.00990814
0.0730138
0.021435
0.105247
0.0350646
0.142369
0.0502819
0.0706179
0.176338
-0.00085792
-0.00330201
-0.00145716
-0.00717951
-0.000414185
-0.00894436
0.00335872
-0.00870777
0.0108287
-0.00644466
0.0227633
-0.00202651
0.0397037
0.00449455
0.0616305
0.0131378
0.0878953
0.0240171
0.0402238
0.118289
-0.000981436
-0.00232057
-0.00193134
-0.0062296
-0.00182774
-0.00904797
-0.00012775
-0.0104078
0.00351457
-0.010087
0.00948482
-0.00799676
0.018026
-0.00404659
0.0292772
0.00188657
0.0433205
0.00997378
0.0209791
0.0625652
-0.00026221
-0.00205836
0.000336975
-0.00682879
0.00226771
-0.0109787
0.00550596
-0.013646
0.0099072
-0.0144882
0.0153842
-0.0134737
0.0220381
-0.0107005
0.0301881
-0.00626341
0.040411
-0.000249173
0.00750271
0.0538875
0.00105717
-0.00311553
0.00446022
-0.0102318
0.0099161
-0.0164346
0.0169086
-0.0206385
0.0249973
-0.022577
0.0339473
-0.0224237
0.0437593
-0.0205125
0.0546727
-0.0171769
0.0670803
-0.0126568
-0.00680631
0.0813894
0.00240164
-0.00551716
0.00835267
-0.0161829
0.0166029
-0.0246848
0.026168
-0.0302036
0.0364986
-0.0329076
0.0474227
-0.0333478
0.059016
-0.0321058
0.0714947
-0.0296556
0.0851603
-0.0263223
-0.0219642
0.100318
0.00331695
-0.00883411
0.0103326
-0.0231985
0.0189583
-0.0333105
0.0280459
-0.0392912
0.0372253
-0.0420869
0.0465829
-0.0427054
0.0563828
-0.0419056
0.0668966
-0.0401695
0.0783407
-0.0377663
-0.0346833
0.0910598
0.00325921
-0.0120933
0.00899572
-0.028935
0.014966
-0.0392808
0.0204108
-0.044736
0.0254336
-0.0471098
0.030447
-0.0477189
0.0358438
-0.0473024
0.0418783
-0.046204
0.0486822
-0.0445702
-0.0425836
0.0565824
0.00200308
-0.0140964
0.0043445
-0.0312765
0.00558612
-0.0405224
0.00575867
-0.0449085
0.00543127
-0.0467824
0.00515152
-0.0474391
0.00524849
-0.0473994
0.00585611
-0.0468116
0.0069978
-0.0457119
-0.0441489
0.00856317
-5.38281e-05
-0.00196463
-0.00575493
-0.0106265
-0.0157696
-0.0206606
-0.025055
-0.0288787
-0.032128
-0.0346338
0.2453
0.191376
-0.260339
0.213756
0.626024
-0.594479
0.125301
0.696662
-0.608207
0.0732324
0.403682
-0.351613
0.0730338
0.0182295
-0.0180308
0.0707175
-0.15058
0.152897
0.0733637
-0.165076
0.16243
0.0923296
-0.161084
0.142118
0.126556
-0.174387
0.14016
-0.11835
0.0890575
0.204424
0.105242
0.221428
0.609019
0.148996
0.769094
0.105731
0.446947
0.0942967
0.0296639
0.0683872
-0.124671
0.0616717
-0.15836
0.0790514
-0.178464
0.11576
-0.211096
-0.151024
0.169919
-0.00211241
0.223353
0.555585
0.165836
0.826611
0.129422
0.483361
0.0995286
0.0595569
0.0550859
-0.080228
0.0477275
-0.151002
0.0678119
-0.198548
0.107265
-0.25055
-0.185825
0.162557
-0.110782
0.218246
0.499897
0.175083
0.869774
0.140858
0.517585
0.0915861
0.108829
0.0383223
-0.0269641
0.0391643
-0.151844
0.0650203
-0.224404
0.106308
-0.291837
-0.220645
0.167177
-0.19657
0.203465
0.463609
0.176263
0.896976
0.139034
0.554815
0.073827
0.174036
0.0243642
0.0224987
0.0392205
-0.1667
0.0711819
-0.256366
0.112991
-0.333646
-0.253769
0.155357
-0.25161
0.179533
0.439434
0.167933
0.908577
0.124924
0.597823
0.050468
0.248492
0.0171488
0.0558179
0.0467988
-0.19635
0.083683
-0.29325
0.125084
-0.375047
-0.284246
0.12259
-0.28314
0.148557
0.413467
0.150146
0.906988
0.100493
0.647475
0.0274191
0.321566
0.017802
0.065435
0.0596396
-0.238188
0.100466
-0.334076
0.140802
-0.415383
-0.311564
0.0763359
-0.302894
0.111643
0.37816
0.123185
0.895446
0.0697157
0.700945
0.00916122
0.382121
0.0264164
0.0481798
0.076555
-0.288326
0.120468
-0.377989
0.159045
-0.45396
-0.335441
0.022958
-0.317289
0.0710413
0.330076
0.0908804
0.875607
0.0397776
0.752047
-0.000267396
0.422166
0.0414353
0.00647713
0.0970897
-0.343981
0.142877
-0.423776
0.178868
-0.489951
-0.355734
-0.0301872
0.0315136
0.0570182
0.015682
0.0037149
0.0616964
0.120926
0.167116
0.19958
0.0312131
0.0416432
-0.0728564
-0.000430413
0.0316436
-0.0212727
0.0208423
-0.0466024
0.0253297
-0.0599463
0.013344
-0.0392999
-0.0206464
-0.014208
-0.0250918
0.0041769
-0.0183849
0.0193202
-0.0151433
-0.00831337
0.170098
0.145301
-0.273756
0.0527394
0.149002
-0.0293389
0.102921
-0.0781275
0.0741183
-0.0807602
0.0159767
-0.0371668
-0.0642398
0.00594202
-0.0682007
0.038269
-0.0507119
0.0657015
-0.0425758
-0.0239924
0.329605
0.244331
-0.428635
0.158369
0.320239
0.0117848
0.249504
-0.058583
0.144486
-0.0489501
0.00634368
-0.00255746
-0.110632
0.0394608
-0.110219
0.0732944
-0.0845455
0.104348
-0.0736293
-0.0429613
0.438014
0.289488
-0.48317
0.262468
0.495784
0.0766028
0.43537
-0.0102676
0.231357
2.78798e-05
-0.00395177
0.0331493
-0.143754
0.0663546
-0.143424
0.0973038
-0.115495
0.129462
-0.105788
-0.0641698
0.46208
-0.43293
0.363384
0.190547
0.0702903
0.0483077
0.0574504
0.0764559
0.10308
0.137452
0.0123565
-7.38052e-05
-0.0122827
0.0140332
-0.00167675
0.0171297
-0.00309644
0.021513
-0.00438331
0.0279154
-0.00640242
0.0343826
-0.00646717
0.0437449
-0.00936233
0.0520415
-0.00829657
0.0634015
-0.0113601
-0.00945481
0.0340697
-0.000683309
-0.0334601
0.0390092
-0.00661634
0.048003
-0.0120902
0.0618893
-0.0182696
0.0815203
-0.0260334
0.104832
-0.0297786
0.138481
-0.0430115
0.174228
-0.0440433
0.221265
-0.058397
-0.0619462
0.0526793
-0.00221724
-0.0511454
0.060665
-0.014602
0.0750403
-0.0264656
0.0974872
-0.0407165
0.127886
-0.0564322
0.167672
-0.0695644
0.219754
-0.0950932
0.277567
-0.101857
0.352516
-0.133346
-0.138065
0.0679945
-0.00489174
-0.06532
0.0784886
-0.025096
0.0973439
-0.0453209
0.125824
-0.0691968
0.163828
-0.0944357
0.215032
-0.120768
0.272942
-0.153004
0.343527
-0.172441
0.421658
-0.211478
-0.199577
0.0801504
-0.076269
0.0926594
0.114822
0.146822
0.189781
0.24304
0.300869
0.36853
0.408671
0.0900157
-0.0872658
0.0952662
-0.0980161
0.0809019
-0.0885263
0.0976401
0.0712824
-0.0905632
0.100183
0.060905
-0.0927233
0.103101
0.0497155
-0.0949222
0.106112
0.0378613
-0.0969108
0.108765
0.0257216
-0.0975508
0.10969
0.0141008
-0.0935516
0.105172
0.00460304
-0.0779205
0.0874182
-0.039154
0.043757
0.0998169
-0.0770592
-0.110024
0.0891266
-0.077836
0.0776704
-0.0791071
0.0655493
-0.0806021
0.052951
-0.082324
0.0400551
-0.0840149
0.0271405
-0.0846362
0.0149008
-0.0813118
0.00489644
-0.0679161
-0.0342576
0.101906
-0.0653017
-0.113664
0.0900639
-0.0659934
0.0780204
-0.0670636
0.0657739
-0.0683557
0.0532693
-0.0698193
0.0404723
-0.0712179
0.0275508
-0.0717148
0.0151817
-0.0689428
0.0049895
-0.0577239
-0.0292681
0.107769
-0.0531882
-0.119882
0.0955133
-0.0537378
0.0830181
-0.0545684
0.0701875
-0.0555251
0.0569595
-0.0565913
0.0433601
-0.0576184
0.0296196
-0.0579744
0.0164425
-0.0557656
0.00548871
-0.0467701
-0.0237793
0.10989
-0.040568
-0.12251
0.097175
-0.0410228
0.0842126
-0.041606
0.0709786
-0.0422911
0.0574606
-0.0430733
0.043689
-0.0438468
0.0298499
-0.0441353
0.0165847
-0.0425005
0.00553553
-0.0357209
-0.0182438
0.112371
-0.0279317
-0.125008
0.0995145
-0.0281659
0.0864069
-0.0284984
0.0730111
-0.0288953
0.0592935
-0.0293557
0.0452571
-0.0298103
0.0310698
-0.029948
0.0173794
-0.0288101
0.00587259
-0.0242141
-0.0123712
0.113149
-0.015183
-0.125897
0.100224
-0.0152411
0.0870336
-0.0153082
0.0735472
-0.0154089
0.0597353
-0.0155438
0.0456063
-0.0156814
0.0313277
-0.0156693
0.0175384
-0.0150209
0.00593049
-0.0126061
-0.00644073
0.113463
-0.00254838
-0.126097
0.100566
-0.00234423
0.0873815
-0.0021239
0.0738799
-0.00190729
0.0600354
-0.00169937
0.0458608
-0.00150668
0.0315264
-0.00133497
0.017673
-0.00116741
0.0059917
-0.000924888
-0.000449035
0.113052
0.0100068
-0.125607
0.100232
0.0104754
0.0871148
0.0109932
0.0736728
0.0115348
0.0598808
0.0120926
0.045751
0.0126231
0.0314534
0.0129627
0.0176296
0.0126564
0.00597365
0.0107311
0.00552461
0.112089
-0.124531
0.0993806
0.0863715
0.0730359
0.0593505
0.0453285
0.0311421
0.0174352
0.00589659
0.015675
-0.173977
-0.0182278
0.0106164
-0.188896
0.00454642
-0.197637
-0.00165051
-0.203337
-0.00734733
-0.207108
-0.0117663
-0.208333
-0.0137419
-0.203746
-0.011905
-0.185973
-0.00595348
-0.143098
-0.0624322
0.0409421
-0.170101
-0.0448181
0.0339966