/*--------------------------------*- C++ -*----------------------------------*\
  =========                 |
  \\      /  F ield         | OpenFOAM: The Open Source CFD Toolbox
   \\    /   O peration     | Website:  https://openfoam.org
    \\  /    A nd           | Version:  13
     \\/     M anipulation  |
\*---------------------------------------------------------------------------*/
FoamFile
{
    format      ascii;
    class       volVectorField;
    location    "3.495";
    object      U;
}
// * * * * * * * * * * * * * * * * * * * * * * * * * * * * * * * * * * * * * //

dimensions      [0 1 -1 0 0 0 0];

internalField   nonuniform List<vector> 
440
(
(-0.0640982 0.0378692 -7.93408e-20)
(-0.110778 0.0990507 7.68574e-20)
(-0.0300111 0.135537 1.06784e-19)
(0.400126 0.173494 3.70314e-19)
(0.240277 0.413301 -8.06865e-22)
(-0.0901341 0.0421892 2.56614e-20)
(0.0198634 0.00970059 -1.50854e-19)
(0.467529 -0.022269 -1.19883e-19)
(1.04471 -0.0434437 5.94866e-20)
(1.43027 -0.00646111 1.25151e-20)
(-0.0434277 0.0149075 5.20662e-20)
(0.440881 -0.0254064 7.22498e-19)
(1.231 -0.00422946 -3.85656e-19)
(1.82381 0.0417502 -1.15056e-18)
(2.42615 0.0604805 3.56322e-19)
(0.168445 -0.0411645 -1.77417e-19)
(1.17447 0.0163939 -5.29145e-19)
(1.98566 0.100372 1.64608e-18)
(2.4761 0.143472 1.76572e-18)
(2.55587 0.174365 -4.88528e-19)
(0.545432 -0.00535805 -2.89615e-19)
(1.77064 0.203657 -6.11088e-19)
(2.35043 0.290364 1.84479e-18)
(2.47486 0.310466 1.93934e-18)
(2.56204 0.277364 6.42778e-19)
(-0.0424317 0.335775 1.21349e-19)
(-0.169541 0.513027 1.02548e-19)
(-0.288388 0.520386 -3.46934e-19)
(-0.388528 0.495575 6.01206e-20)
(-0.457534 0.464453 4.46271e-19)
(-0.088271 0.423636 -1.09433e-21)
(-0.181935 0.703973 -1.70737e-19)
(-0.249692 0.733865 4.20044e-20)
(-0.307994 0.692828 4.27619e-20)
(-0.336448 0.632838 -8.49917e-20)
(-0.112615 0.345825 -1.16374e-19)
(-0.18517 0.723602 5.23685e-20)
(-0.204508 0.847273 -3.63539e-20)
(-0.198042 0.844595 -5.00339e-19)
(-0.167885 0.786432 6.97904e-21)
(-0.079452 0.166458 -2.32737e-20)
(-0.147475 0.493589 3.39631e-20)
(-0.150817 0.685993 5.33866e-20)
(-0.106757 0.761807 2.37078e-19)
(-0.0693939 0.784306 -6.19677e-20)
(-0.0453905 0.0525751 -6.75174e-20)
(-0.125608 0.229593 -8.34523e-20)
(-0.154325 0.39905 -1.19442e-19)
(-0.0692854 0.493347 -9.37295e-20)
(-0.0589708 0.670219 -6.65777e-19)
(-0.667223 0.268829 -1.02718e-18)
(0.0523772 -0.283883 1.05936e-18)
(0.450777 -0.443367 8.00917e-20)
(0.695856 -0.369424 -4.76926e-20)
(0.95386 -0.188469 2.99379e-21)
(-0.301324 0.208076 6.19768e-19)
(0.536637 -0.430516 -2.16041e-19)
(0.779378 -0.519171 1.05832e-19)
(0.901067 -0.425732 1.38773e-19)
(1.02328 -0.216835 1.93715e-20)
(0.250159 0.104879 -2.13108e-20)
(1.03115 -0.538492 9.64602e-19)
(1.15736 -0.560139 -8.66093e-20)
(1.16512 -0.440623 1.57449e-19)
(1.12366 -0.224189 -3.39403e-21)
(0.762028 0.00729281 7.63314e-20)
(1.42359 -0.624307 -2.15441e-19)
(1.42522 -0.590902 -3.41573e-20)
(1.38003 -0.429637 -1.45126e-19)
(1.22415 -0.212181 7.29547e-20)
(1.20476 -0.164864 -1.29335e-19)
(1.7704 -0.668919 -1.82464e-19)
(1.62276 -0.596096 0)
(1.50504 -0.406118 9.71872e-20)
(1.28928 -0.18935 2.88793e-20)
(2.03033 -0.223065 -4.06706e-19)
(2.22591 -0.599939 8.58101e-20)
(1.86481 -0.539046 -1.92321e-20)
(1.59069 -0.357194 8.50832e-20)
(1.31761 -0.157564 -7.18862e-20)
(2.46989 -0.324534 1.99221e-20)
(2.30998 -0.584457 4.50717e-19)
(1.78212 -0.400279 -1.46625e-20)
(1.40491 -0.203953 -1.07572e-19)
(1.18153 -0.087077 0)
(2.39343 -0.241034 -4.03327e-19)
(2.14702 -0.3849 8.87893e-21)
(1.78774 -0.246113 -7.75178e-20)
(1.4989 -0.122072 6.32855e-20)
(1.22009 -0.0585292 -2.8112e-20)
(2.27846 -0.211749 9.57547e-20)
(1.83696 -0.336335 1.61667e-19)
(1.38418 -0.165409 -2.63622e-20)
(1.15984 -0.00282316 -4.70791e-34)
(1.00751 0.0148894 2.74961e-20)
(1.47273 -0.0863946 1.52282e-19)
(0.800934 -0.0394314 3.565e-20)
(0.444281 0.0102519 -7.12567e-21)
(0.418017 0.0173202 -1.10087e-20)
(0.466194 0.00478015 3.49172e-21)
(2.43564 0.295735 -7.62905e-19)
(2.69774 0.0653767 -9.97312e-19)
(2.49552 0.171168 5.41972e-19)
(2.8229 -0.0624689 1.29e-19)
(1.9983 0.21761 3.74399e-21)
(2.14174 0.22553 7.91544e-20)
(2.52698 0.0114822 -3.70184e-20)
(2.28373 0.0926609 -1.37528e-19)
(2.61601 -0.109265 -2.10017e-19)
(2.39539 -0.0955712 -7.31567e-21)
(2.12089 0.12228 7.93964e-20)
(2.2768 0.0173184 8.37621e-20)
(2.23665 0.0128117 -1.05678e-19)
(2.3294 -0.0652286 3.96453e-20)
(2.3482 -0.106215 -7.44672e-21)
(2.07176 0.0545981 1.14497e-19)
(2.10456 0.000700319 1.5462e-19)
(2.17024 -0.00511556 -1.90234e-20)
(2.18582 -0.0519051 -6.42781e-20)
(2.2448 -0.0708549 3.38372e-20)
(1.55964 -0.00752826 1.79933e-19)
(1.52309 -0.0143474 -1.15073e-20)
(1.59301 -0.0185913 1.97793e-20)
(1.54006 -0.0246107 -2.91046e-20)
(1.59837 -0.0328915 -9.64032e-22)
(1.58618 0.82236 1.13058e-18)
(1.53643 0.922846 -3.69226e-19)
(1.53326 1.05654 -1.35605e-18)
(1.46218 1.10729 7.3026e-19)
(0.892154 0.794434 -1.66794e-19)
(1.87895 0.803792 -5.77277e-19)
(1.84276 0.88063 -3.01084e-18)
(1.84367 0.984882 -1.15637e-18)
(1.75054 0.997481 -4.05594e-19)
(1.06652 0.699643 -6.60071e-19)
(2.18825 0.667647 7.48859e-19)
(2.16553 0.741201 1.98246e-19)
(2.13345 0.834566 -2.26354e-18)
(1.99735 0.825593 -6.38927e-19)
(1.17787 0.54896 4.73476e-19)
(2.35929 0.573782 2.20455e-18)
(2.34333 0.62542 1.63871e-18)
(2.33774 0.675297 -1.9109e-18)
(2.11301 0.632756 -1.44293e-18)
(1.15242 0.365423 -2.66159e-19)
(2.51689 0.420821 1.07438e-18)
(2.52227 0.44235 -7.88775e-19)
(2.40875 0.472506 5.60004e-19)
(2.06668 0.415856 4.4402e-19)
(0.94968 0.160248 -3.68872e-19)
(0.569442 0.489399 -5.82474e-19)
(0.481212 0.520624 -4.44278e-19)
(0.365174 0.550969 4.92136e-20)
(0.228732 0.556229 -2.84495e-21)
(0.0579007 0.400265 8.36998e-20)
(0.660271 0.658501 1.14613e-19)
(0.596793 0.718276 -2.56318e-19)
(0.511719 0.787267 1.75557e-19)
(0.390995 0.837006 -8.26671e-20)
(0.171237 0.626548 1.16887e-19)
(0.779206 0.847874 1.22429e-19)
(0.705056 0.923957 4.50096e-19)
(0.648318 1.01693 1.18523e-19)
(0.563164 1.05295 -3.04335e-19)
(0.30717 0.767944 2.586e-19)
(1.03731 0.911626 2.33692e-19)
(0.991976 0.992184 -7.35003e-19)
(0.945965 1.08963 -1.93609e-18)
(0.867648 1.15268 7.68389e-19)
(0.510169 0.847974 -1.55748e-19)
(1.12705 0.957035 -9.26489e-20)
(1.15672 1.07465 -1.67116e-19)
(1.17936 1.18544 -3.79678e-19)
(1.12411 1.20319 -4.23018e-19)
(0.686692 0.853192 -6.57499e-21)
(0.96035 0.0307419 -9.38206e-20)
(1.03985 0.0408975 -2.91978e-20)
(1.03295 0.129894 -1.97206e-21)
(0.956007 0.16877 -2.47914e-19)
(0.882267 0.323131 2.97812e-19)
(0.957699 0.0252711 6.18649e-20)
(1.04859 0.0415647 1.09671e-19)
(1.02135 0.133295 1.20343e-19)
(0.99841 0.207818 3.867e-20)
(0.924749 0.390317 -2.09378e-20)
(0.964211 0.0218753 8.2972e-20)
(1.03289 0.0363183 -4.27959e-21)
(1.07039 0.152754 -3.4075e-21)
(0.940889 0.201071 1.31141e-19)
(1.15339 0.551625 -4.94743e-19)
(0.963702 0.0186849 -1.02641e-21)
(1.04213 0.031344 -1.5258e-19)
(1.06368 0.166524 -6.21917e-20)
(1.03427 0.218264 -3.56591e-19)
(1.14413 0.588576 8.57515e-20)
(0.965522 0.0137463 -1.65335e-20)
(1.03552 0.0320862 4.11103e-20)
(1.10916 0.17414 2.83901e-20)
(0.99505 0.236229 4.31904e-19)
(1.43156 0.72007 -4.75045e-19)
(0.949582 0.0130207 -1.22969e-20)
(1.06652 0.0133376 8.89318e-20)
(1.10341 0.198955 -6.98145e-20)
(1.18846 0.159053 8.32746e-19)
(1.28327 0.769606 -3.33033e-19)
(0.944503 -0.00560106 -1.80195e-21)
(1.09601 0.00156246 -8.06242e-20)
(1.07953 0.14015 4.0288e-21)
(1.25958 0.175187 -2.45301e-19)
(1.28431 0.510295 -6.01602e-20)
(0.95957 -0.0138646 -1.21246e-21)
(1.08444 -0.00618966 1.21351e-35)
(1.10063 0.112266 -2.53573e-20)
(1.26103 0.125364 9.0566e-20)
(1.46494 0.342536 1.72444e-19)
(0.987683 -0.0439484 4.48618e-21)
(1.02026 -0.0228922 -2.26659e-20)
(1.14092 0.0443142 1.64449e-20)
(1.20717 0.0676427 2.65851e-20)
(1.58948 0.202374 -2.69504e-19)
(0.917914 -0.0223747 -3.77811e-20)
(0.841061 -0.024047 -2.07308e-21)
(0.879605 0.00393856 2.4165e-20)
(0.883505 0.00634891 -1.71681e-20)
(1.20096 0.0557883 -6.20029e-20)
(1.83124 0.597164 2.76108e-19)
(1.9146 0.649653 7.42602e-19)
(2.20469 0.488425 -1.05784e-18)
(2.24941 0.5029 -3.43697e-20)
(2.49784 0.286919 4.69342e-19)
(1.79944 0.352967 9.73091e-20)
(1.79833 0.418032 9.7592e-19)
(2.07342 0.293518 1.35666e-19)
(1.99437 0.343824 -9.37404e-19)
(2.33488 0.149813 -2.70181e-19)
(1.781 0.255469 -2.34116e-19)
(1.8425 0.266285 -1.52413e-19)
(1.9828 0.199461 1.31064e-19)
(1.99202 0.211243 -2.95792e-19)
(2.16165 0.106326 2.66166e-19)
(1.73479 0.147268 3.67132e-19)
(1.82541 0.143147 -5.9829e-21)
(1.86698 0.106801 2.21213e-19)
(1.95219 0.10685 1.98352e-19)
(1.99535 0.0528451 -1.92096e-19)
(1.34761 0.0395581 -4.45641e-20)
(1.4215 0.0294088 2.39231e-19)
(1.43182 0.0178355 1.09624e-19)
(1.50109 0.00888362 -2.24857e-19)
(1.48704 -0.00207568 7.37151e-23)
(1.11538 -0.0178004 6.3784e-20)
(2.09952 -0.0403571 -4.09172e-19)
(2.32944 -0.0318658 1.10873e-18)
(2.30572 0.00657847 4.85682e-19)
(2.15632 0.0329194 -3.45847e-19)
(0.709414 0.0958407 1.17615e-19)
(1.88105 0.0910178 -4.14776e-19)
(2.32919 0.0933611 -5.59896e-19)
(2.39069 0.0984109 6.81689e-19)
(2.13085 0.0872729 -4.39546e-19)
(0.240534 0.0830026 -1.72611e-20)
(1.27315 0.153474 4.3798e-19)
(1.99244 0.171192 5.82025e-20)
(2.35712 0.162408 3.77524e-19)
(2.53 0.149541 1.27956e-19)
(-0.0140931 -0.0093691 1.78236e-19)
(0.488583 0.0898621 1.78393e-19)
(1.24179 0.159305 -3.83408e-19)
(1.7184 0.182694 2.03777e-20)
(2.25278 0.208043 2.40281e-20)
(-0.0839721 -0.0692082 1.26345e-19)
(0.0278229 -0.0373288 -1.35496e-19)
(0.439764 0.0401832 -2.51162e-20)
(0.905944 0.0773215 4.62328e-20)
(1.271 0.126387 -1.68949e-20)
(-0.068072 -0.0723258 1.25264e-20)
(-0.0900793 -0.0998777 6.16869e-20)
(0.0207235 -0.078204 6.42836e-20)
(0.232404 -0.02655 -1.13837e-19)
(0.54767 0.0308323 3.1838e-21)
(-0.0508603 -0.0887654 -2.16498e-20)
(-0.0826729 -0.164161 -4.97105e-21)
(-0.0645093 -0.181197 1.60009e-20)
(-0.00492193 -0.153038 7.34541e-21)
(0.12441 -0.0939946 1.32448e-20)
(-0.0493121 -0.116342 -3.3038e-20)
(-0.100127 -0.184211 -2.65759e-19)
(-0.122562 -0.18016 1.97845e-19)
(-0.127732 -0.145 6.06884e-19)
(-0.100177 -0.0995568 -8.7166e-20)
(-0.0293862 -0.0273725 2.08907e-20)
(-0.130649 -0.0212702 1.70201e-19)
(-0.225244 -0.00249747 -5.03851e-19)
(-0.301554 0.0244128 -3.66641e-19)
(-0.341909 0.0560183 5.86247e-20)
(-0.0145394 0.152165 -7.28375e-21)
(-0.1359 0.243777 3.2997e-20)
(-0.257801 0.25886 -1.63258e-20)
(-0.364583 0.261554 1.4463e-20)
(-0.440383 0.26344 1.63323e-19)
(1.3053 0.421802 -1.67368e-20)
(1.08375 0.120604 8.03584e-19)
(1.0649 -0.0357533 -8.20468e-20)
(0.967517 -0.0113249 -1.23834e-19)
(1.00899 0.0135544 1.07968e-21)
(0.961992 0.28693 9.44103e-20)
(0.493809 0.126424 -1.94636e-19)
(0.564343 0.0148238 -2.14397e-19)
(0.65171 -0.0229779 -1.48731e-20)
(0.911643 -0.0146497 -2.14886e-20)
(0.226202 0.255535 7.6945e-20)
(-0.161724 0.143835 -6.26641e-20)
(0.30649 -0.0796654 3.66871e-20)
(0.540411 -0.108346 1.45834e-19)
(0.885498 -0.0544364 1.05908e-21)
(-0.404841 0.278241 1.73531e-19)
(-0.350088 0.0630514 -1.11489e-18)
(0.271558 -0.194009 -3.40796e-21)
(0.543238 -0.193001 4.5376e-21)
(0.894067 -0.102272 1.67379e-20)
(-0.695375 0.282687 1.13646e-19)
(-0.254262 -0.0926296 -7.56234e-20)
(0.300652 -0.329337 3.18994e-20)
(0.588556 -0.284736 -1.87689e-20)
(0.915688 -0.146965 2.85846e-20)
(0.678812 0.115202 -7.47526e-20)
(0.0946462 -0.0417741 0)
(0.216775 -0.069054 -3.27725e-20)
(0.342746 -0.0508655 1.86502e-20)
(0.472357 -0.0244503 3.14661e-21)
(1.83683 0.36075 0)
(1.28794 0.20031 0)
(1.29188 0.00107816 3.29246e-19)
(1.25451 -0.0339798 5.43151e-20)
(1.11798 -0.0115034 -2.23841e-21)
(0.693485 0.000262812 -1.2372e-19)
(0.746331 -0.00229569 2.86551e-19)
(0.883804 -0.0134587 -1.22971e-20)
(1.04138 0.0099015 2.36086e-19)
(1.2836 0.0517486 1.49338e-19)
(1.57382 0.0216482 1.18326e-19)
(1.67963 0.0714362 3.1152e-19)
(1.87277 0.0374767 -9.73736e-20)
(2.41732 0.157336 -1.75038e-20)
(2.07251 0.112018 7.37415e-20)
(0.855754 -0.434921 -2.81387e-20)
(0.837891 -0.519519 -1.494e-19)
(0.8244 -0.61222 -9.54647e-20)
(0.754626 -0.676457 5.80685e-20)
(0.457843 -0.529452 1.1947e-19)
(0.752687 -0.336194 1.14837e-19)
(0.699595 -0.397338 2.35796e-19)
(0.630829 -0.466141 -3.42307e-20)
(0.524264 -0.525804 1.29919e-19)
(0.284102 -0.420276 5.33373e-20)
(0.616715 -0.197446 -1.35104e-19)
(0.53541 -0.233382 -4.7869e-20)
(0.436507 -0.277901 1.24612e-19)
(0.317572 -0.317581 -8.74582e-21)
(0.136663 -0.258081 -1.08761e-19)
(0.527229 0.0261436 -3.9545e-19)
(0.443787 0.0137127 -3.3054e-19)
(0.334874 -0.00598049 2.66388e-19)
(0.20845 -0.0342491 1.68465e-19)
(0.0525756 -0.0499513 1.31384e-20)
(0.493775 0.232083 -1.53738e-19)
(0.408125 0.238802 -1.54131e-19)
(0.295932 0.24757 -6.62262e-20)
(0.167842 0.252409 1.46376e-20)
(0.0219303 0.177719 9.55512e-21)
(1.9195 -0.0375926 7.31408e-19)
(2.17953 -0.0988353 2.36036e-19)
(2.24629 -0.177499 -6.45189e-19)
(2.10028 -0.204817 -1.35097e-18)
(1.26185 -0.176418 1.18777e-19)
(1.90386 -0.112643 1.22518e-18)
(1.98521 -0.218327 1.63793e-18)
(2.00406 -0.334047 1.39714e-19)
(1.92255 -0.39144 2.49065e-19)
(1.22866 -0.339659 -1.64393e-19)
(1.62736 -0.265111 -3.15006e-18)
(1.69227 -0.376275 3.25096e-19)
(1.73184 -0.49347 9.93241e-19)
(1.66628 -0.564538 -3.6104e-19)
(1.07856 -0.47492 5.81373e-19)
(1.42929 -0.377279 7.34691e-19)
(1.44066 -0.469243 -1.98021e-18)
(1.42173 -0.579742 -2.23396e-18)
(1.35003 -0.661515 6.75262e-19)
(0.868469 -0.542291 4.81208e-19)
(1.15226 -0.426114 1.46338e-19)
(1.10565 -0.51388 2.32989e-19)
(1.09115 -0.628035 -3.42466e-19)
(1.03374 -0.709233 -4.11375e-19)
(0.652499 -0.561717 -3.76758e-21)
(0.982936 0.0405922 6.22653e-21)
(1.01684 0.0742608 -1.84749e-21)
(1.08229 0.074705 -4.9343e-21)
(0.797409 -1.08284e-05 -1.98697e-19)
(1.03979 -0.170367 -1.3627e-20)
(0.987336 0.0422739 -2.52867e-21)
(1.00077 0.0677675 4.08448e-20)
(1.10604 0.10166 -3.38009e-20)
(0.869318 0.0456024 1.41601e-19)
(0.935544 -0.059115 -7.64893e-21)
(0.989001 0.0385791 -5.5688e-20)
(0.989623 0.0594634 1.88135e-24)
(1.10431 0.106828 -1.44683e-20)
(0.882427 0.0800766 5.29978e-20)
(0.896977 -0.00246978 -1.79135e-19)
(0.979968 0.0377971 7.21229e-20)
(1.00495 0.0492245 3.72206e-21)
(1.07211 0.115861 2.85638e-20)
(0.92295 0.113741 4.89891e-22)
(0.828876 0.105445 9.0321e-20)
(0.967546 0.0342961 1.75847e-20)
(1.0283 0.0457632 -2.76216e-20)
(1.03827 0.118567 3.89501e-20)
(0.958143 0.150934 6.35747e-20)
(0.8129 0.205627 -1.15578e-19)
(0.877571 0.0333326 0)
(0.752203 0.0304709 1.12323e-20)
(0.54625 0.0191631 2.93175e-21)
(0.436365 -0.0087113 4.3481e-20)
(0.656602 -0.0408982 -1.3824e-19)
(0.971143 0.0630759 -6.03901e-20)
(1.02737 0.0889757 -1.17791e-20)
(0.94385 0.0647456 -4.13055e-20)
(0.844352 -0.00998961 -1.15259e-19)
(0.981447 -0.158226 -1.46543e-19)
(0.893464 -0.0595345 -3.00876e-20)
(0.972248 -0.027568 4.79632e-19)
(1.04924 0.0374564 2.87284e-19)
(0.92407 0.0499762 3.22482e-20)
(0.713726 0.0259123 0)
(1.23371 -0.285413 2.9254e-19)
(1.34095 -0.255353 1.34829e-18)
(1.50193 -0.142857 -1.47283e-18)
(1.59407 -0.0182256 -4.51243e-19)
(1.48695 0.0258918 3.47522e-19)
)
;

boundaryField
{
    left
    {
        type            fixedValue;
        value           uniform (1 0 0);
    }
    right
    {
        type            zeroGradient;
    }
    down
    {
        type            noSlip;
    }
    up
    {
        type            noSlip;
    }
    cylinder
    {
        type            noSlip;
    }
    defaultFaces
    {
        type            empty;
    }
}


// ************************************************************************* //
