/*--------------------------------*- C++ -*----------------------------------*\
  =========                 |
  \\      /  F ield         | OpenFOAM: The Open Source CFD Toolbox
   \\    /   O peration     | Website:  https://openfoam.org
    \\  /    A nd           | Version:  13
     \\/     M anipulation  |
\*---------------------------------------------------------------------------*/
FoamFile
{
    format      ascii;
    class       volScalarField;
    location    "0.635";
    object      p;
}
// * * * * * * * * * * * * * * * * * * * * * * * * * * * * * * * * * * * * * //

dimensions      [0 2 -2 0 0 0 0];

internalField   nonuniform List<scalar> 
1800
(
5.74581
7.85292
10.0057
11.4342
12.2685
12.6791
12.8101
12.6527
11.4066
7.3145
9.59559
12.0713
14.5762
16.2603
17.3169
17.9796
18.4343
18.6734
17.949
15.2712
15.9881
18.6128
21.2856
23.1488
24.4091
25.2908
25.9416
26.325
25.8538
24.0229
24.9834
27.5528
30.2012
32.1157
33.481
34.4901
35.2525
35.7045
35.2984
33.6138
36.0421
38.4029
40.8552
42.6668
43.9912
44.9874
45.7419
46.1913
45.8411
44.2856
48.719
50.7716
52.9153
54.5215
55.7125
56.6148
57.297
57.7077
57.4265
56.0671
62.6676
64.3404
66.0961
67.428
68.4301
69.1997
69.7912
70.1681
69.9931
68.9043
77.5934
78.835
80.1461
81.1554
81.9313
82.5452
83.0393
83.3942
83.3608
82.6244
93.2116
93.9913
94.8228
95.4777
96.0006
96.438
96.8208
97.1442
97.2544
96.92
109.241
109.545
109.877
110.152
110.389
110.61
110.827
111.041
111.202
111.23
-0.604423
-0.85691
-0.634215
-0.219588
0.252852
0.720558
1.0802
1.29125
1.43627
1.58283
-0.481818
-0.996853
-1.10596
-0.899522
-0.475478
-0.0512737
0.241798
0.484426
0.764385
1.03775
0.516517
-0.450346
-1.28147
-1.44676
-1.1198
-0.81361
-0.599509
-0.294066
0.113145
0.498974
0.909129
-0.231768
-1.42869
-1.76694
-1.54681
-1.39272
-1.26706
-0.961649
-0.50466
0.00322361
0.478343
-0.489315
-1.42898
-1.72005
-1.66291
-1.67318
-1.6362
-1.37425
-0.882962
-0.188738
-0.224274
-0.741039
-1.14125
-1.27074
-1.29138
-1.35651
-1.34869
-1.14016
-0.615581
0.316873
-0.558632
-0.520841
-0.344283
-0.198284
-0.113752
-0.0932707
-0.0548718
0.114959
0.692739
1.92283
-0.0745252
0.511798
1.23277
1.73718
2.06669
2.27988
2.42931
2.64596
3.37657
5.03879
1.37315
2.4811
3.72952
4.65098
5.32095
5.81326
6.15327
6.49247
7.47931
9.76679
3.61529
5.25817
7.07633
8.45225
9.47496
10.2351
10.7575
11.2105
12.2716
14.4348
2.30049
2.4396
2.33295
2.08858
1.58621
1.18344
0.857074
0.583322
0.352126
0.133442
1.95118
2.41622
2.22873
2.00503
1.50269
1.1043
0.807257
0.566481
0.353593
0.138231
1.4735
2.3869
2.12754
1.91279
1.42714
1.03735
0.762417
0.548676
0.351205
0.140771
0.848862
2.3046
2.02763
1.80673
1.3516
0.977748
0.723584
0.532311
0.344184
0.13993
0.154901
2.12893
1.91734
1.68458
1.27051
0.921686
0.689309
0.517338
0.338321
0.139124
-0.417672
1.85025
1.7792
1.54474
1.18038
0.866939
0.658315
0.503687
0.335601
0.139957
-0.567064
1.50203
1.59993
1.38464
1.079
0.811831
0.630109
0.491666
0.336506
0.141915
0.161584
1.17291
1.37045
1.19533
0.962581
0.754112
0.603995
0.481832
0.337552
0.142892
2.41799
1.03666
1.07005
0.952218
0.822499
0.69073
0.578826
0.473242
0.331478
0.136706
6.65296
1.40569
0.7129
0.634972
0.650957
0.619923
0.553869
0.459904
0.317971
0.125071
9.97972
2.57671
0.689765
0.393504
0.473761
0.540124
0.519815
0.43365
0.293293
0.107638
11.7649
2.57217
0.266333
0.0571064
0.355898
0.50413
0.484172
0.38999
0.25492
0.0811779
12.8625
2.77683
0.394164
0.150081
0.466844
0.564548
0.483742
0.358104
0.217178
0.0531201
14.1829
4.36341
1.27843
0.724259
0.78704
0.713625
0.524299
0.342834
0.184332
0.0252906
16.3595
7.1079
2.70005
1.59005
1.2401
0.932497
0.607233
0.348867
0.16085
0.000791559
19.2502
9.87426
4.33448
2.55738
1.77184
1.2013
0.724214
0.376662
0.149931
-0.0174709
21.7547
11.9363
5.85271
3.51826
2.33901
1.4993
0.863803
0.423381
0.152781
-0.0273694
23.0338
13.1193
7.04979
4.41853
2.91313
1.8122
1.01733
0.485327
0.16919
-0.0277371
22.9737
13.4983
7.91036
5.26576
3.5026
2.14787
1.19093
0.566257
0.202778
-0.0167907
22.4208
13.7233
8.68163
6.12673
4.12876
2.52644
1.40669
0.683334
0.272035
0.0109685
111.786
97.8399
84.0752
71.0699
59.1305
48.3502
38.7688
30.092
20.0807
4.97561
112.766
99.4776
85.9767
72.9702
60.9271
50.0463
40.5131
32.255
23.59
11.4767
113.297
100.212
87.3317
75.0053
63.4665
52.8745
43.4446
35.2559
27.4696
18.3355
114.51
102.769
90.8105
78.9796
67.6229
57.0276
47.3944
38.7939
31.0871
23.824
115.087
104.076
93.1549
82.4638
72.1168
62.1923
52.7299
43.8193
36.0009
29.8219
115.436
104.709
94.2024
84.0406
74.32
65.0906
56.3313
48.0899
41.0482
36.0312
115.668
105.109
94.7972
84.865
75.4222
66.5418
58.2329
50.5654
44.2114
40.092
115.768
105.247
94.9803
85.1088
75.7547
67.0087
58.9049
51.5116
45.3948
41.4352
115.718
105.032
94.6058
84.5867
75.1075
66.2749
58.1448
50.7754
44.5516
40.0987
115.594
104.648
93.9599
83.6824
73.9569
64.9067
56.6119
49.1172
42.6082
37.4133
234.123
229.76
228.193
227.751
227.66
227.912
228.646
230.027
232.178
234.317
225.56
222.541
221.492
221.453
221.679
222.164
223.095
224.702
227.173
229.65
216.046
213.872
213.099
213.224
213.655
214.359
215.484
217.253
219.867
222.465
205.74
203.713
203.009
203.205
203.749
204.578
205.802
207.61
210.179
212.698
194.417
192.507
191.853
192.041
192.572
193.384
194.561
196.255
198.61
200.9
182.05
180.325
179.732
179.874
180.327
181.038
182.073
183.551
185.581
187.546
168.704
167.241
166.748
166.85
167.207
167.779
168.618
169.812
171.439
173.01
154.57
153.454
153.099
153.176
153.432
153.844
154.451
155.314
156.484
157.612
139.961
139.247
139.04
139.09
139.235
139.469
139.82
140.322
141.003
141.66
125.436
125.092
124.952
124.905
124.892
124.914
124.981
125.101
125.278
125.454
246.548
246.786
247.038
247.256
247.554
248.054
248.606
248.942
248.948
248.435
246.625
246.955
247.358
247.663
247.863
248.198
248.621
248.537
247.722
246.703
246.637
247.033
247.478
247.789
247.872
248.003
248.284
247.924
246.536
245.281
246.518
247.02
247.449
247.681
247.614
247.5
247.536
247.113
245.818
244.659
246.026
246.681
247.07
247.176
246.998
246.721
246.545
246.185
245.376
244.586
244.819
245.662
245.999
245.963
245.732
245.449
245.253
245.081
244.841
244.555
242.473
243.57
243.908
243.793
243.583
243.419
243.384
243.516
243.823
244.063
238.589
240.075
240.544
240.478
240.395
240.446
240.684
241.179
241.992
242.731
233.115
235.17
235.879
235.946
236.072
236.418
237.006
237.911
239.216
240.428
227.76
229.626
230.371
230.538
230.845
231.462
232.404
233.755
235.602
237.31
246.942
246.72
246.683
246.489
246.42
246.299
245.923
245.668
245.567
245.714
246.901
246.719
246.678
246.492
246.419
246.307
245.932
245.652
245.378
245.737
246.874
246.715
246.67
246.487
246.41
246.308
245.935
245.6
245.144
245.822
246.856
246.708
246.657
246.475
246.396
246.305
245.926
245.51
244.927
246.01
246.844
246.699
246.641
246.456
246.377
246.292
245.901
245.403
244.794
246.248
246.837
246.687
246.622
246.432
246.353
246.267
245.866
245.31
244.768
246.356
246.835
246.673
246.602
246.406
246.324
246.231
245.83
245.259
244.814
246.022
246.838
246.655
246.581
246.377
246.29
246.189
245.813
245.262
244.834
244.785
246.847
246.633
246.557
246.345
246.255
246.159
245.844
245.336
244.655
242.009
246.864
246.609
246.528
246.31
246.223
246.156
245.945
245.461
243.976
237.293
246.902
246.583
246.488
246.255
246.159
246.086
245.872
245.13
242.441
233.741
247.017
246.564
246.45
246.206
246.105
246.127
246.071
245.332
242.176
231.798
247.26
246.571
246.414
246.13
246.028
246.09
246.067
245.239
241.885
230.534
247.712
246.626
246.385
246.046
245.89
245.822
245.619
244.537
240.482
229.317
248.55
246.692
246.408
245.954
245.678
245.313
244.745
243.229
238.011
227.461
250.385
246.759
246.515
245.882
245.386
244.65
243.656
241.568
235.375
224.914
254.264
247.07
246.668
245.822
245.032
243.936
242.558
239.955
233.31
222.584
262.57
248.208
246.943
245.778
244.658
243.247
241.556
238.665
232.071
221.327
280.13
250.944
247.593
245.812
244.305
242.595
240.647
237.734
231.628
221.357
306.1
254.99
249.098
246.024
244.014
241.974
239.763
236.917
231.357
221.885
236.417
221.067
210.445
201.13
190.97
179.665
167.27
153.898
139.853
125.723
230.028
217.734
208.582
199.861
189.923
178.685
166.339
153.088
139.364
125.89
223.495
214.13
205.952
197.424
187.71
176.869
165.116
152.616
139.598
126.42
218.381
210.874
202.882
194.032
184.189
173.424
161.931
149.988
137.925
126.091
212.984
206.59
198.597
189.503
179.834
169.696
159.145
148.278
137.222
126.13
207.386
202.089
194.829
186.359
177.36
167.905
157.985
147.663
137.043
126.255
203.59
199.15
192.561
184.664
176.131
167.045
157.424
147.349
136.938
126.328
202.309
198.051
191.705
184.092
175.779
166.843
157.324
147.32
136.962
126.393
203.635
198.92
192.47
184.885
176.553
167.538
157.9
147.754
137.239
126.507
206.309
200.874
194.137
186.426
177.931
168.699
158.816
148.413
137.636
126.644
112.187
112.357
112.441
112.292
111.785
111.425
111.24
111.525
111.517
111.268
89.6119
90.0753
90.2939
89.8603
88.4284
87.3419
86.721
87.3827
87.4203
86.8338
68.769
69.3967
69.658
68.9912
67.0519
65.3401
64.3199
64.8686
65.173
64.6178
50.6513
51.2578
51.4474
50.6243
48.6452
46.4792
45.1491
45.1845
45.9229
45.6895
36.0061
36.4145
36.4648
35.5835
33.7916
31.4757
29.8319
29.2667
30.0742
30.2619
24.9538
25.0573
24.9353
24.0121
22.4346
20.4052
18.6144
17.6728
17.9278
18.4278
17.0674
16.917
16.7022
15.7113
14.2969
12.7936
11.306
10.241
9.90132
10.2678
11.5804
11.4034
11.355
10.3556
9.03679
8.0349
7.1432
6.30027
5.71185
5.62813
7.90635
7.8181
8.11413
7.24636
6.08039
5.48985
5.16088
4.77614
4.29221
3.91259
6.03774
5.83277
6.21824
5.4805
4.61117
4.33502
4.35888
4.34941
4.19681
3.80092
5.27096
5.0341
5.11645
4.42217
3.88988
3.83353
3.98312
4.12575
4.24683
4.30353
4.84423
4.7351
4.4577
3.79133
3.50528
3.59232
3.79529
3.96277
4.08251
4.16879
4.46609
4.42134
3.98956
3.43887
3.31855
3.48107
3.70558
3.88422
4.00218
4.06255
4.01205
3.95716
3.55107
3.19945
3.20906
3.41198
3.62468
3.7819
3.88045
3.92178
3.46466
3.37148
3.09811
2.97801
3.0945
3.31108
3.50107
3.63862
3.71988
3.74362
2.81422
2.71993
2.66014
2.75005
2.94651
3.15082
3.31657
3.43597
3.50288
3.5163
2.09137
2.10769
2.2422
2.47652
2.71202
2.91043
3.06563
3.1793
3.24553
3.26096
1.41838
1.53632
1.78743
2.08024
2.33601
2.55023
2.72594
2.86446
2.95189
2.97996
0.742187
0.877291
1.15204
1.48066
1.79008
2.06137
2.29848
2.48316
2.588
2.62567
0.0700087
-0.0144552
0.220562
0.631766
1.05174
1.43344
1.75736
1.97251
2.07591
2.13911
3.65813
3.70133
3.5706
3.24456
2.59435
1.90746
1.31772
0.846743
0.456705
0.0983732
3.73083
3.67531
3.52016
3.22854
2.55493
1.85146
1.26538
0.808763
0.434574
0.0971827
3.75736
3.56944
3.40856
3.17449
2.51095
1.7986
1.2157
0.773024
0.414829
0.0976735
3.71843
3.39331
3.25598
3.07221
2.45374
1.74718
1.16869
0.739659
0.397563
0.0993325
3.61078
3.18527
3.0879
2.91904
2.37143
1.69269
1.12366
0.708674
0.38284
0.102152
3.44753
2.9876
2.92749
2.73528
2.25772
1.63126
1.08047
0.680497
0.370843
0.106098
3.25415
2.82029
2.78392
2.55281
2.11546
1.55925
1.03861
0.655554
0.361728
0.111008
3.04693
2.68322
2.65776
2.3958
1.95985
1.47409
0.996874
0.633962
0.35551
0.116598
2.82426
2.57177
2.54456
2.27129
1.81219
1.37712
0.953682
0.615413
0.352049
0.122466
2.57899
2.48872
2.43796
2.17304
1.68704
1.27644
0.907108
0.59903
0.351107
0.128231
5.41933
3.97317
3.27501
2.89577
2.41505
1.89497
1.39611
0.941895
0.538399
0.132518
4.61552
3.75248
3.31106
2.9568
2.45554
1.90369
1.38367
0.92339
0.51808
0.122055
3.9456
3.66041
3.37172
3.02614
2.49477
1.91145
1.37234
0.906857
0.502431
0.113386
3.62576
3.66079
3.45705
3.10635
2.53588
1.91894
1.36135
0.891355
0.488906
0.106749
3.61102
3.7039
3.55872
3.19868
2.58172
1.92664
1.34934
0.875191
0.475787
0.102002
112.017
88.9501
67.8988
50.127
36.112
25.7916
18.6215
13.746
10.564
8.74993
111.796
88.3878
67.1926
49.3926
35.3098
24.7874
17.3178
12.2125
9.06965
7.56953
111.61
87.9075
66.5543
48.652
34.3987
23.6147
15.8975
10.6776
7.53299
6.07503
111.4
87.3338
65.714
47.5872
33.074
22.0206
14.1259
8.89306
5.80763
4.43203
111.146
86.6057
64.5847
46.1141
31.2739
19.953
11.9573
6.92085
4.43771
3.62187
243.766
243.804
243.924
244.095
244.308
244.317
243.813
243.111
243.214
242.991
243.979
244.05
244.164
244.353
244.624
244.799
244.581
243.931
243.673
243.566
244.175
244.223
244.336
244.533
244.818
245.08
245.054
244.547
244.119
244.068
244.417
244.45
244.548
244.722
244.979
245.268
245.375
245.105
244.718
244.65
244.691
244.709
244.791
244.94
245.155
245.42
245.624
245.627
245.461
245.371
244.983
244.996
245.065
245.187
245.361
245.591
245.862
246.104
246.211
246.199
245.256
245.275
245.357
245.492
245.668
245.899
246.2
246.561
246.865
246.988
245.541
245.559
245.656
245.847
246.102
246.402
246.763
247.176
247.541
247.722
245.922
245.951
246.028
246.251
246.622
247.074
247.58
248.1
248.444
248.406
246.315
246.425
246.526
246.716
247.116
247.685
248.287
248.838
249.19
248.985
136.5
136.241
136.218
136.481
136.263
135.865
135.323
135.152
135.223
135.388
160.95
160.354
160.375
161.013
160.36
159.237
157.773
157.317
157.523
157.981
183.195
182.629
182.916
183.439
182.388
180.643
178.674
177.986
178.234
178.857
202.162
201.916
202.634
202.644
201.286
199.089
197.082
196.238
196.416
197.018
217.633
217.807
218.591
218.004
216.336
213.991
212.17
211.267
211.307
211.711
229.513
229.994
230.225
229.265
227.457
225.401
223.791
222.845
222.712
222.813
237.712
238.048
237.686
236.612
235.12
233.592
232.141
231.124
230.899
230.748
242.368
242.248
241.638
240.805
239.926
238.908
237.555
236.529
236.47
236.292
244.092
243.673
243.18
242.822
242.524
241.938
240.749
239.853
240.139
240.054
244.231
243.805
243.652
243.673
243.745
243.503
242.629
241.867
242.253
242.063
254.846
246.874
247.501
246.286
246.038
245.531
244.996
244.633
244.502
244.54
252.013
246.81
247.315
246.265
246.09
245.594
245.012
244.666
244.579
244.511
250.09
246.817
247.092
246.261
246.146
245.661
245.055
244.76
244.748
244.543
248.903
246.846
246.88
246.28
246.204
245.735
245.137
244.914
244.977
244.649
248.218
246.849
246.742
246.319
246.26
245.818
245.265
245.105
245.219
244.82
247.769
246.806
246.705
246.368
246.313
245.911
245.432
245.293
245.425
245.026
247.455
246.752
246.704
246.412
246.358
246.014
245.608
245.446
245.579
245.235
247.239
246.723
246.696
246.445
246.39
246.118
245.753
245.554
245.677
245.427
247.096
246.717
246.688
246.468
246.405
246.208
245.849
245.621
245.715
245.585
247.003
246.719
246.685
246.481
246.414
246.269
245.9
245.657
245.681
245.681
317.35
253.757
249.91
246.971
246.142
245.572
245.252
244.93
244.236
242.719
295.618
251.368
248.788
246.74
246.06
245.543
245.207
244.9
244.449
243.52
277.177
249.212
248.192
246.566
246.019
245.524
245.157
244.843
244.531
244.193
265.774
247.868
247.868
246.436
246.001
245.513
245.1
244.76
244.522
244.522
259.002
247.137
247.645
246.328
245.999
245.504
245.031
244.658
244.476
244.554
239.298
237.448
234.233
229.326
222.123
211.769
197.718
179.914
158.837
135.756
240.48
238.945
235.77
230.634
223.132
212.575
198.455
180.622
159.4
135.977
241.993
240.496
237.315
232.062
224.31
213.49
199.199
181.261
159.881
136.163
243.656
242.25
239.122
233.847
225.913
214.82
200.266
182.103
160.455
136.373
244.444
243.607
241.105
236.034
227.991
216.624
201.741
183.233
161.183
136.626
)
;

boundaryField
{
    left
    {
        type            zeroGradient;
    }
    right
    {
        type            fixedValue;
        value           uniform 0;
    }
    down
    {
        type            zeroGradient;
    }
    up
    {
        type            zeroGradient;
    }
    cylinder
    {
        type            zeroGradient;
    }
    defaultFaces
    {
        type            empty;
    }
}


// ************************************************************************* //
