/*--------------------------------*- C++ -*----------------------------------*\
  =========                 |
  \\      /  F ield         | OpenFOAM: The Open Source CFD Toolbox
   \\    /   O peration     | Website:  https://openfoam.org
    \\  /    A nd           | Version:  13
     \\/     M anipulation  |
\*---------------------------------------------------------------------------*/
FoamFile
{
    format      ascii;
    class       volVectorField;
    location    "0.635";
    object      U;
}
// * * * * * * * * * * * * * * * * * * * * * * * * * * * * * * * * * * * * * //

dimensions      [0 1 -1 0 0 0 0];

internalField   nonuniform List<vector> 
1800
(
(0.0978012 -0.088329 -4.48997e-20)
(0.286896 -0.241952 -3.41227e-20)
(0.473973 -0.379045 -4.85031e-19)
(0.657691 -0.500158 1.91472e-19)
(0.83661 -0.60717 7.43791e-20)
(1.00991 -0.701374 -3.90551e-20)
(1.17715 -0.783464 5.54923e-20)
(1.33793 -0.853672 1.97312e-19)
(1.49158 -0.912951 5.92205e-19)
(1.63352 -0.966884 8.09997e-19)
(0.119061 -0.091503 -7.91161e-20)
(0.344291 -0.24771 -7.70615e-19)
(0.563283 -0.38475 3.78149e-21)
(0.775364 -0.504236 1.25769e-19)
(0.979504 -0.608921 -1.26269e-19)
(1.17521 -0.700694 7.65949e-20)
(1.36231 -0.780785 -2.80844e-19)
(1.54077 -0.850093 -5.02464e-20)
(1.7101 -0.910696 -6.93426e-19)
(1.86785 -0.967032 6.29714e-19)
(0.141651 -0.0923232 4.88229e-20)
(0.40368 -0.247732 2.09289e-19)
(0.653755 -0.382117 5.43328e-19)
(0.892178 -0.497905 -1.90265e-19)
(1.11866 -0.598385 -1.42999e-19)
(1.33321 -0.685811 7.56145e-20)
(1.53605 -0.761704 9.82654e-20)
(1.72743 -0.827294 1.94069e-19)
(1.9072 -0.884795 2.73593e-21)
(2.07421 -0.93786 1.50984e-19)
(0.163907 -0.089721 -4.57191e-20)
(0.461699 -0.23947 -2.04392e-19)
(0.741428 -0.367619 -1.8126e-19)
(1.00451 -0.476977 -1.423e-19)
(1.25162 -0.571022 1.81313e-19)
(1.48351 -0.652126 -5.70912e-20)
(1.70092 -0.721904 -4.31078e-21)
(1.90453 -0.781619 2.93329e-21)
(2.09455 -0.833361 -1.60445e-19)
(2.27025 -0.88035 -1.05954e-19)
(0.184658 -0.0833566 -1.1404e-19)
(0.515894 -0.221807 8.76364e-20)
(0.823293 -0.339431 1.79843e-19)
(1.10931 -0.439063 2.43308e-19)
(1.37561 -0.524071 -2.85025e-19)
(1.62371 -0.596777 -3.58076e-21)
(1.85494 -0.658766 4.24985e-19)
(2.07042 -0.71126 -1.85054e-19)
(2.27083 -0.756161 -1.23989e-19)
(2.45577 -0.796393 -5.35658e-20)
(0.20319 -0.0735001 1.73592e-19)
(0.564471 -0.1952 1.02985e-18)
(0.896792 -0.298075 1.43255e-19)
(1.20351 -0.384735 -5.03144e-19)
(1.48719 -0.458227 -1.75504e-19)
(1.75003 -0.520669 6.37696e-19)
(1.9939 -0.573524 -1.45381e-19)
(2.22036 -0.617899 -4.31595e-19)
(2.43047 -0.655443 -3.16646e-19)
(2.62419 -0.68874 2.61591e-19)
(0.218899 -0.0605914 1.1634e-19)
(0.605746 -0.160701 -7.47595e-19)
(0.959314 -0.24503 -1.08561e-18)
(1.28371 -0.315798 3.83788e-19)
(1.58223 -0.375564 4.49947e-19)
(1.85767 -0.426128 -9.02071e-22)
(2.11239 -0.468739 -6.39689e-19)
(2.34829 -0.504325 2.19315e-19)
(2.56683 -0.534212 -3.64463e-19)
(2.76827 -0.560568 -3.11204e-19)
(0.231236 -0.0451723 -3.42488e-19)
(0.6382 -0.119684 -6.92607e-19)
(1.00849 -0.182294 1.21221e-18)
(1.34677 -0.2347 5.98704e-19)
(1.65694 -0.278852 -2.6976e-19)
(1.94224 -0.316135 -2.11497e-19)
(2.20543 -0.347515 0)
(2.44874 -0.373689 1.16807e-19)
(2.67398 -0.395621 -2.95842e-19)
(2.88171 -0.414969 -7.74338e-20)
(0.239766 -0.0278754 -2.04466e-19)
(0.660653 -0.0737558 5.62387e-19)
(1.04249 -0.112198 1.7101e-19)
(1.39031 -0.144289 -5.12497e-19)
(1.70841 -0.171277 -7.84198e-19)
(2.00037 -0.194053 3.662e-20)
(2.26924 -0.213245 1.67124e-19)
(2.51753 -0.229293 -5.46844e-19)
(2.74731 -0.242783 -2.89762e-19)
(2.95953 -0.254777 -5.63592e-19)
(0.24426 -0.00940242 4.5141e-19)
(0.672453 -0.024704 3.44151e-19)
(1.0603 -0.0373616 -9.38597e-20)
(1.41303 -0.0477884 -1.29799e-20)
(1.73514 -0.056462 -3.87508e-19)
(2.03041 -0.0637229 -8.57324e-20)
(2.30206 -0.0698097 -2.90579e-19)
(2.55276 -0.0748899 6.4656e-19)
(2.7848 -0.0791707 1.71003e-19)
(2.99945 -0.0830114 2.22343e-21)
(-0.00234541 -0.0217946 -3.35912e-20)
(0.00862292 -0.0693433 -7.05376e-20)
(0.0249152 -0.120441 -7.31458e-21)
(0.049342 -0.171101 -3.41177e-20)
(0.0776965 -0.216477 -1.27273e-20)
(0.106548 -0.254627 -3.90001e-19)
(0.135587 -0.288566 -1.94584e-20)
(0.166381 -0.321877 1.19943e-19)
(0.199211 -0.355383 1.0966e-20)
(0.233104 -0.387743 -3.58406e-20)
(0.000845845 -0.024698 -9.77512e-20)
(0.01495 -0.0850813 -2.11961e-19)
(0.039345 -0.160269 -5.474e-20)
(0.0692744 -0.225158 -1.10538e-19)
(0.0995092 -0.275449 -9.6763e-20)
(0.130494 -0.317887 -2.80122e-19)
(0.164521 -0.358873 2.0072e-19)
(0.202184 -0.400262 1.68467e-19)
(0.241688 -0.440168 -2.56362e-19)
(0.281203 -0.476543 8.12165e-20)
(0.00549419 -0.0315043 -8.54127e-20)
(0.0287796 -0.107425 -8.65279e-19)
(0.0628475 -0.196059 -1.29155e-19)
(0.0974496 -0.268903 9.36992e-20)
(0.131831 -0.327148 6.78704e-20)
(0.16968 -0.380206 -4.51071e-19)
(0.212977 -0.432215 3.57661e-20)
(0.25917 -0.481691 3.66967e-19)
(0.305524 -0.526144 -3.86264e-19)
(0.35148 -0.565534 -2.58453e-19)
(0.0113685 -0.0409964 -1.77791e-21)
(0.0466248 -0.130881 1.89578e-19)
(0.0896345 -0.225308 1.62582e-21)
(0.133075 -0.306999 -1.08443e-20)
(0.177799 -0.37783 -3.01448e-20)
(0.227258 -0.4438 8.71274e-20)
(0.281111 -0.505547 7.3357e-20)
(0.335686 -0.560804 -1.36214e-19)
(0.389757 -0.609277 9.20952e-21)
(0.443931 -0.651837 -1.0442e-20)
(0.0185096 -0.0507783 0)
(0.0672382 -0.152432 5.46032e-21)
(0.121936 -0.253626 -5.09471e-19)
(0.178694 -0.34546 5.1473e-20)
(0.237811 -0.428551 -1.05626e-20)
(0.30052 -0.505049 6.21926e-21)
(0.365314 -0.574321 -2.55422e-20)
(0.429815 -0.635366 -7.78063e-21)
(0.493958 -0.688761 0)
(0.558154 -0.734763 -2.05865e-20)
(0.0273266 -0.0596542 3.17948e-20)
(0.0918954 -0.17286 -1.54083e-19)
(0.161765 -0.282522 -4.583e-20)
(0.234628 -0.383882 -5.84069e-20)
(0.309736 -0.476738 4.96632e-20)
(0.386736 -0.561509 5.24246e-21)
(0.464241 -0.637663 9.02273e-20)
(0.540937 -0.704894 -2.17596e-20)
(0.616909 -0.763384 -6.96535e-19)
(0.69216 -0.812579 -1.01057e-20)
(0.0379758 -0.0676071 6.88335e-22)
(0.121238 -0.192181 5.58454e-20)
(0.209163 -0.310617 -7.85373e-20)
(0.299925 -0.420173 -1.67084e-20)
(0.392134 -0.520661 -7.29133e-20)
(0.484774 -0.612111 -9.69946e-21)
(0.576696 -0.694299 9.71776e-21)
(0.666935 -0.767108 -2.11909e-19)
(0.755518 -0.830219 3.83668e-19)
(0.842309 -0.882266 9.71744e-19)
(0.0503621 -0.0746024 1.51462e-20)
(0.15513 -0.209612 -1.42315e-19)
(0.263462 -0.335965 -2.13846e-19)
(0.373669 -0.452109 8.90404e-20)
(0.4841 -0.558259 -6.43269e-20)
(0.59354 -0.654605 9.88983e-20)
(0.700937 -0.741257 1.97051e-19)
(0.8054 -0.818272 -1.09271e-19)
(0.90701 -0.885077 -3.06031e-19)
(1.00568 -0.939485 7.25484e-19)
(0.0642906 -0.0803606 -2.64754e-20)
(0.193286 -0.224027 -5.7814e-19)
(0.324297 -0.35656 5.24345e-19)
(0.455682 -0.477229 3.37521e-19)
(0.585736 -0.586741 -8.59264e-20)
(0.71322 -0.685651 3.08775e-19)
(0.837123 -0.77442 -1.5998e-19)
(0.956556 -0.853438 -7.73186e-19)
(1.07172 -0.922009 -4.03777e-19)
(1.18266 -0.977248 4.53755e-19)
(0.0795455 -0.0846665 -7.98271e-20)
(0.235846 -0.234418 -5.44353e-19)
(0.392392 -0.370525 -8.26238e-21)
(0.547541 -0.492794 6.88089e-20)
(0.699592 -0.60246 3.37782e-19)
(0.847388 -0.700427 -1.85414e-19)
(0.990008 -0.787432 -1.69524e-19)
(1.12652 -0.863813 1.89053e-19)
(1.2568 -0.92863 -3.51678e-19)
(1.38006 -0.980331 -5.84666e-19)
(0.403021 -0.531801 9.86447e-19)
(0.684955 -0.618187 -2.4775e-19)
(0.913801 -0.557404 -1.43938e-19)
(1.08754 -0.430789 2.71072e-19)
(1.23977 -0.279707 -2.31631e-19)
(1.36175 -0.138865 -2.99561e-19)
(1.45821 -0.0323975 -2.64466e-19)
(1.51417 0.0196657 -3.17808e-20)
(1.53452 0.0281916 1.93498e-20)
(1.55062 0.0193206 3.03815e-20)
(0.468974 -0.619674 9.66569e-19)
(0.741624 -0.693618 7.21241e-20)
(0.966404 -0.617432 1.09406e-20)
(1.12483 -0.47997 -2.18183e-19)
(1.26535 -0.319965 -7.23406e-19)
(1.38019 -0.171317 0)
(1.47744 -0.0565469 -2.44685e-19)
(1.54942 0.00595795 5.18404e-20)
(1.5861 0.021899 4.47356e-21)
(1.61297 0.0160902 -1.08306e-20)
(0.556299 -0.705344 -9.98109e-19)
(0.810925 -0.766599 -7.10121e-20)
(1.02568 -0.675333 1.56487e-19)
(1.16627 -0.526999 -5.37556e-20)
(1.29115 -0.359003 -3.62271e-20)
(1.39641 -0.203566 6.46079e-20)
(1.48893 -0.0822569 0)
(1.56695 -0.0118049 0)
(1.61644 0.00945732 -2.96704e-20)
(1.66571 0.00966844 0)
(0.665761 -0.787108 -2.24787e-19)
(0.895727 -0.83518 4.03561e-19)
(1.09211 -0.730047 2.68327e-20)
(1.21259 -0.570898 0)
(1.31803 -0.395956 6.08568e-19)
(1.41141 -0.234618 -1.46615e-19)
(1.49671 -0.107905 0)
(1.57268 -0.0307959 1.33426e-19)
(1.62178 -0.00557527 0)
(1.69096 -0.000968084 4.24875e-21)
(0.795772 -0.863811 -1.48978e-19)
(0.997724 -0.897374 4.53983e-19)
(1.16632 -0.780411 -1.46739e-20)
(1.26395 -0.610843 0)
(1.34668 -0.430022 1.78769e-19)
(1.42552 -0.263818 2.74953e-19)
(1.50264 -0.13237 4.78286e-20)
(1.57242 -0.0492362 6.74869e-21)
(1.61927 -0.0208511 -2.42985e-20)
(1.69032 -0.011746 3.17213e-20)
(0.942256 -0.934697 -1.33014e-18)
(1.11654 -0.951825 -9.40823e-19)
(1.24896 -0.825152 4.77167e-21)
(1.32014 -0.646104 5.73905e-19)
(1.37743 -0.460423 -3.02533e-19)
(1.43873 -0.290681 1.47853e-19)
(1.5069 -0.15509 2.36839e-19)
(1.56947 -0.0667183 -1.88143e-19)
(1.61492 -0.0361613 -1.854e-21)
(1.68715 -0.0220099 2.9939e-20)
(1.1001 -0.999389 -2.60156e-19)
(1.25004 -0.998344 2.86249e-19)
(1.34026 -0.863151 3.96999e-21)
(1.38088 -0.675985 -1.75738e-20)
(1.41042 -0.486374 -5.85874e-19)
(1.45105 -0.314678 5.42411e-20)
(1.50885 -0.175833 -9.40418e-20)
(1.56472 -0.0834843 -2.76136e-20)
(1.61053 -0.0504377 -2.15488e-21)
(1.67762 -0.0329469 -2.24823e-20)
(1.26431 -1.05678 -1.201e-18)
(1.39475 -1.03754 2.09728e-19)
(1.43921 -0.893814 0)
(1.44519 -0.700053 3.44017e-20)
(1.44499 -0.507328 5.1674e-19)
(1.46215 -0.335282 -1.36695e-21)
(1.50746 -0.194636 -3.05086e-19)
(1.55785 -0.0994352 5.36141e-20)
(1.60605 -0.0632166 -3.50078e-22)
(1.63723 -0.0407085 -1.03734e-20)
(1.43198 -1.10345 3.39106e-18)
(1.54804 -1.07031 2.46292e-19)
(1.54564 -0.917846 4.63651e-19)
(1.51333 -0.718726 -3.17568e-20)
(1.48125 -0.523424 -3.43042e-20)
(1.47195 -0.352318 -4.25202e-19)
(1.50074 -0.211594 8.7119e-20)
(1.54944 -0.113355 3.06448e-21)
(1.57304 -0.071771 -2.51933e-20)
(1.57751 -0.0431414 1.61012e-20)
(1.59922 -1.12815 -2.99832e-18)
(1.70184 -1.09553 1.27249e-18)
(1.65398 -0.937892 -2.32445e-19)
(1.58144 -0.735495 -7.87269e-19)
(1.51617 -0.538246 -6.54421e-19)
(1.4779 -0.369494 -2.55817e-19)
(1.48803 -0.228835 -6.37531e-20)
(1.51915 -0.127232 0)
(1.51198 -0.0728948 -4.71722e-20)
(1.50895 -0.0430042 1.05463e-19)
(1.88816 -1.17019 -6.71299e-18)
(1.92738 -1.10508 -1.69231e-18)
(1.80489 -0.93211 -5.86439e-20)
(1.6731 -0.727375 1.12091e-19)
(1.56268 -0.533441 1.61814e-19)
(1.48545 -0.372079 -1.05437e-19)
(1.45481 -0.235529 -3.96263e-20)
(1.43571 -0.1284 6.7048e-20)
(1.424 -0.070444 -5.45603e-20)
(1.41297 -0.0421391 -4.83252e-20)
(2.28931 -1.13482 4.9565e-19)
(2.17884 -1.05663 -2.85545e-19)
(1.94281 -0.865206 5.03165e-19)
(1.73582 -0.66462 -8.66585e-20)
(1.56295 -0.480329 1.6614e-20)
(1.42765 -0.332727 -6.24428e-20)
(1.34703 -0.213987 9.83453e-20)
(1.31682 -0.118503 -3.28225e-20)
(1.30019 -0.0648706 1.96161e-19)
(1.28486 -0.0392718 8.76281e-20)
(2.61058 -1.04357 2.27091e-18)
(2.352 -0.948728 3.25879e-19)
(2.00843 -0.759389 -1.17953e-19)
(1.73283 -0.572814 1.59053e-36)
(1.50614 -0.410351 -2.54764e-20)
(1.3401 -0.285898 1.50959e-33)
(1.23735 -0.187353 -1.86521e-20)
(1.18975 -0.106993 -1.60773e-33)
(1.16805 -0.0584775 6.79876e-21)
(1.14866 -0.0355334 -1.60174e-20)
(2.78706 -0.89395 3.8877e-33)
(2.36952 -0.795593 2.96658e-18)
(1.97376 -0.630417 1.81889e-18)
(1.65371 -0.4693 0)
(1.40707 -0.334659 8.36006e-19)
(1.23047 -0.233104 4.33667e-19)
(1.11576 -0.154521 1.67008e-19)
(1.0557 -0.0914443 -2.79601e-33)
(1.02868 -0.0505792 -6.07049e-20)
(1.00606 -0.0308579 1.09357e-20)
(2.76368 -0.705879 3.84292e-18)
(2.24595 -0.62986 -1.46827e-19)
(1.84664 -0.490979 0)
(1.51568 -0.361651 0)
(1.27161 -0.255561 0)
(1.09779 -0.178053 0)
(0.98195 -0.119661 -1.2572e-20)
(0.915531 -0.0732439 -4.10157e-33)
(0.884054 -0.0413115 7.50822e-21)
(0.858844 -0.0254544 1.02189e-33)
(2.55119 -0.51703 3.26594e-18)
(2.02008 -0.462906 0)
(1.63861 -0.353626 0)
(1.32683 -0.256723 0)
(1.10113 -0.179633 0)
(0.942014 -0.125303 0)
(0.834159 -0.0853083 3.29012e-20)
(0.768212 -0.0538873 -8.66813e-20)
(0.734667 -0.0310679 8.36069e-21)
(0.708118 -0.0195354 3.66682e-20)
(2.19012 -0.342709 0)
(1.70264 -0.303509 1.09845e-18)
(1.36131 -0.2276 1.0906e-18)
(1.09135 -0.161987 0)
(0.898488 -0.112308 6.67788e-19)
(0.764176 -0.0785641 4.06422e-19)
(0.672008 -0.0542168 2.51805e-19)
(0.612807 -0.0353054 8.096e-20)
(0.580552 -0.0207276 -1.95634e-20)
(0.554639 -0.0135023 -5.18289e-21)
(1.70286 -0.191135 -6.73866e-19)
(1.30019 -0.165593 -2.74154e-19)
(1.02507 -0.121753 1.75633e-19)
(0.815103 -0.0844385 -2.11351e-34)
(0.667745 -0.0580707 -7.70169e-20)
(0.566268 -0.0409673 3.71745e-33)
(0.495845 -0.0287557 4.89628e-20)
(0.448763 -0.019367 9.84861e-20)
(0.421515 -0.0114684 9.73367e-21)
(0.398884 -0.00790623 -3.50105e-21)
(1.10088 -0.075821 3.40802e-18)
(0.823162 -0.0626781 -1.86516e-19)
(0.640589 -0.0442919 -5.88789e-19)
(0.506155 -0.0289895 0)
(0.413835 -0.0195652 -6.40067e-19)
(0.350701 -0.0140952 -4.32396e-19)
(0.306278 -0.0102431 -2.0287e-19)
(0.275559 -0.00734336 -1.39639e-19)
(0.256888 -0.00442202 1.61219e-19)
(0.240848 -0.00335524 -2.39235e-20)
(0.397352 -0.00331879 0)
(0.287867 0.00159399 0)
(0.220894 0.00409424 0)
(0.173553 0.0062464 0)
(0.142376 0.00585301 0)
(0.121211 0.00470919 0)
(0.105918 0.00365848 5.62592e-20)
(0.0948593 0.00252407 -2.16978e-34)
(0.0877176 0.00202662 1.22978e-20)
(0.0812047 0.000828031 1.14692e-20)
(3.3671 -0.0863112 5.39207e-19)
(3.32642 -0.265085 -8.41895e-20)
(3.24735 -0.430655 8.52088e-19)
(3.13238 -0.582156 -6.04768e-19)
(2.98634 -0.718122 6.66386e-19)
(2.81523 -0.836377 2.75208e-19)
(2.6266 -0.934052 -1.92763e-18)
(2.4295 -1.00784 -7.74248e-20)
(2.22467 -1.05366 0)
(1.98484 -1.06654 4.26213e-19)
(3.86191 -0.0750588 7.07365e-18)
(3.79859 -0.234212 1.95636e-18)
(3.70428 -0.387309 -4.86726e-18)
(3.58426 -0.531989 -4.49073e-19)
(3.44238 -0.66589 3.5588e-18)
(3.28185 -0.787315 1.92337e-18)
(3.1065 -0.895059 -5.16843e-18)
(2.92203 -0.98769 -1.95208e-18)
(2.72758 -1.06337 2.20306e-18)
(2.49235 -1.12049 8.52153e-19)
(3.83308 -0.0533 -1.2625e-19)
(3.82024 -0.171565 4.40365e-18)
(3.78547 -0.29976 -1.08828e-18)
(3.72434 -0.430917 -3.44614e-18)
(3.63618 -0.558728 -6.80021e-18)
(3.52372 -0.678798 1.02786e-17)
(3.39118 -0.788786 4.18061e-18)
(3.2435 -0.887975 -3.91174e-18)
(3.08161 -0.978702 -2.9027e-18)
(2.88723 -1.06298 -3.42493e-18)
(3.62866 -0.0472849 -4.83943e-18)
(3.61961 -0.14493 -4.35349e-18)
(3.59964 -0.243739 5.47225e-18)
(3.56736 -0.343093 1.91193e-18)
(3.52241 -0.442376 -8.97154e-18)
(3.46417 -0.540804 4.92222e-19)
(3.39184 -0.637041 3.88647e-18)
(3.30513 -0.730424 -1.054e-18)
(3.20501 -0.823055 1.27685e-18)
(3.08308 -0.914761 2.81762e-19)
(3.34405 -0.0365776 -9.16001e-19)
(3.339 -0.111655 3.00412e-18)
(3.3271 -0.188676 1.61959e-18)
(3.30744 -0.267171 -1.89425e-18)
(3.27987 -0.34607 -2.00139e-18)
(3.24466 -0.424136 -2.43409e-18)
(3.20204 -0.500333 3.79683e-19)
(3.15177 -0.57449 1.39003e-19)
(3.0955 -0.647753 -2.1398e-18)
(3.03288 -0.721296 -2.03447e-18)
(2.96257 -0.0265538 -1.82251e-18)
(2.95981 -0.0798884 -5.87236e-20)
(2.9533 -0.134599 -1.63754e-18)
(2.9424 -0.190903 3.12131e-19)
(2.92675 -0.24855 5.36786e-18)
(2.90629 -0.306929 -3.66757e-19)
(2.88092 -0.365115 4.43404e-20)
(2.85023 -0.422058 -2.60862e-18)
(2.81644 -0.476881 -3.49573e-18)
(2.78601 -0.529861 3.72785e-19)
(2.48713 -0.0175103 -2.89316e-20)
(2.48578 -0.0519344 -8.14318e-19)
(2.48259 -0.087248 -2.61487e-18)
(2.47708 -0.123771 -3.43104e-18)
(2.4688 -0.161534 2.49657e-18)
(2.45745 -0.200267 1.50226e-18)
(2.44261 -0.239353 -1.38508e-18)
(2.4237 -0.27779 1.6245e-18)
(2.40275 -0.314482 -4.29721e-19)
(2.38953 -0.349539 -9.6378e-19)
(1.91464 -0.0096881 7.72463e-19)
(1.91408 -0.0282974 -8.31804e-19)
(1.91278 -0.0474396 -3.27693e-20)
(1.91031 -0.067359 -3.47242e-20)
(1.90624 -0.0881301 -7.27413e-20)
(1.90013 -0.109614 -2.33196e-18)
(1.89151 -0.131404 -6.78679e-19)
(1.87978 -0.152782 2.62612e-18)
(1.86664 -0.172974 -6.03506e-19)
(1.86191 -0.192206 -1.35113e-18)
(1.23988 -0.00373752 -1.64283e-18)
(1.23967 -0.0106956 -8.48915e-19)
(1.23923 -0.0179012 2.33921e-18)
(1.23823 -0.0254786 -8.89779e-19)
(1.23625 -0.0334753 -6.74127e-19)
(1.2329 -0.0418316 1.35203e-18)
(1.22775 -0.0503499 -1.2959e-18)
(1.22038 -0.0586654 1.28699e-18)
(1.21202 -0.0663423 -1.21032e-18)
(1.21007 -0.0735079 -4.24827e-18)
(0.454916 -0.000257968 6.63084e-19)
(0.454827 -0.000700526 7.03057e-19)
(0.454692 -0.00115912 7.48185e-19)
(0.454325 -0.00164006 1.35398e-18)
(0.453496 -0.00214018 -6.71989e-19)
(0.451983 -0.00263719 -1.29962e-18)
(0.449567 -0.00309911 6.14717e-19)
(0.445992 -0.00359293 2.48371e-20)
(0.441736 -0.00439222 -4.96529e-20)
(0.44035 -0.00504562 1.1057e-19)
(1.65354 0.997234 -2.85753e-19)
(1.51226 0.941828 1.79984e-20)
(1.35878 0.880723 -2.2853e-19)
(1.19766 0.808421 1.76357e-19)
(1.02957 0.723967 -1.92033e-19)
(0.854821 0.62707 -1.01114e-19)
(0.673758 0.516938 2.31991e-19)
(0.487036 0.392146 -3.04937e-19)
(0.295892 0.250643 3.09878e-19)
(0.10143 0.0916441 2.38731e-19)
(1.88637 0.992162 0)
(1.72967 0.934718 6.39193e-19)
(1.56082 0.872753 3.32337e-19)
(1.38228 0.801842 1.62813e-19)
(1.19453 0.719871 4.31344e-19)
(0.997532 0.625895 -8.68571e-20)
(0.79136 0.5186 -7.85461e-20)
(0.576347 0.39599 8.8786e-20)
(0.353319 0.255175 -1.04518e-18)
(0.122699 0.0943556 -1.66358e-20)
(2.09103 0.959018 1.56805e-19)
(1.92522 0.905054 0)
(1.74613 0.846452 -1.00741e-19)
(1.55493 0.779543 -3.83443e-19)
(1.3517 0.702079 5.37088e-20)
(1.13609 0.612788 3.97143e-19)
(0.907784 0.510088 -6.06897e-19)
(0.66659 0.391639 -2.00879e-19)
(0.412596 0.254045 7.83593e-19)
(0.145251 0.0947354 -1.75946e-19)
(2.28484 0.898341 1.8803e-19)
(2.11044 0.850551 1.20044e-20)
(1.92129 0.797855 2.45051e-20)
(1.71811 0.736997 3.60987e-20)
(1.50058 0.665854 -2.92632e-20)
(1.26793 0.583131 2.73267e-19)
(1.01926 0.487168 -2.06879e-19)
(0.753675 0.375531 -8.55582e-19)
(0.470272 0.244678 0)
(0.167389 0.0916967 0)
(2.46796 0.811811 -1.07074e-18)
(2.28435 0.77083 -6.09084e-19)
(2.08493 0.725057 -1.20661e-19)
(1.87003 0.67152 -6.65727e-20)
(1.6389 0.608294 0)
(1.39031 0.534137 2.40754e-19)
(1.12275 0.447434 2.67781e-19)
(0.834556 0.345836 2.86245e-19)
(0.523841 0.225953 -4.2375e-19)
(0.187908 0.0848982 -8.12357e-20)
(2.634 0.702088 7.66335e-19)
(2.44156 0.66806 -1.39174e-19)
(2.23244 0.629677 -2.21561e-19)
(2.00665 0.584305 0)
(1.76301 0.530279 0)
(1.49988 0.466488 0)
(1.21523 0.391464 -3.89808e-20)
(0.906686 0.30309 3.70276e-19)
(0.571499 0.198348 3.79143e-19)
(0.206083 0.0746244 -3.08568e-19)
(2.7758 0.572353 -1.19351e-18)
(2.5755 0.545259 -1.48132e-18)
(2.35787 0.514528 -3.03259e-22)
(2.1226 0.477946 -1.87663e-19)
(1.86818 0.434182 -9.28804e-20)
(1.59258 0.382319 -1.78842e-19)
(1.29333 0.321125 4.59094e-19)
(0.967491 0.248837 2.14862e-19)
(0.611584 0.162967 5.40029e-19)
(0.221315 0.0613404 2.02854e-19)
(2.88707 0.425747 -1.15706e-18)
(2.68027 0.405632 8.47057e-20)
(2.45576 0.38282 1.64525e-19)
(2.21297 0.355611 1.68182e-20)
(1.95004 0.323051 -3.14406e-19)
(1.66465 0.284469 -1.74213e-19)
(1.35398 0.238938 -6.21212e-19)
(1.01464 0.185141 1.1853e-19)
(0.642605 0.121237 5.14762e-20)
(0.233066 0.0456128 -6.26894e-21)
(2.9628 0.265187 1.01359e-19)
(2.75121 0.252354 3.97007e-19)
(2.52189 0.237904 -3.30293e-19)
(2.27394 0.22074 3.63018e-19)
(2.00524 0.200297 3.72549e-19)
(1.71322 0.176177 4.91898e-19)
(1.39481 0.147809 -6.35742e-19)
(1.04633 0.11439 -3.24416e-19)
(0.663412 0.0748099 -4.58505e-20)
(0.240917 0.0280952 -3.26996e-19)
(3.00053 0.0935776 5.81811e-19)
(2.78613 0.088786 -1.86156e-19)
(2.55425 0.0834444 4.79564e-19)
(2.30367 0.0771506 -3.10671e-19)
(2.03208 0.0697283 2.66478e-19)
(1.73679 0.0610622 6.05413e-19)
(1.41457 0.0509787 3.78886e-19)
(1.06162 0.0392348 3.09344e-19)
(0.673397 0.0255066 2.65862e-19)
(0.244654 0.00950725 5.43616e-19)
(0.239513 0.451937 -4.6898e-19)
(0.203921 0.418223 -1.87239e-19)
(0.168367 0.381155 1.39069e-19)
(0.134853 0.34351 -4.19394e-19)
(0.105131 0.307398 -1.19518e-19)
(0.0782338 0.270147 6.9262e-19)
(0.0518559 0.22374 3.35857e-19)
(0.0259446 0.158909 -1.56023e-19)
(0.00705444 0.0796725 1.14363e-19)
(-0.00112729 0.0224411 -6.07022e-20)
(0.288616 0.544199 4.11149e-19)
(0.248714 0.50741 4.57979e-19)
(0.208168 0.465369 -1.18092e-20)
(0.167847 0.418359 -1.32527e-19)
(0.131135 0.370259 -3.1266e-19)
(0.100606 0.322679 8.27967e-20)
(0.0734726 0.269364 2.2478e-19)
(0.0458842 0.196918 1.65204e-19)
(0.0183327 0.101862 -5.90534e-19)
(0.00278544 0.0288631 -1.23555e-19)
(0.359671 0.633012 -6.00569e-19)
(0.313804 0.592872 -4.81201e-19)
(0.268002 0.547042 2.57336e-19)
(0.221355 0.493743 1.37982e-19)
(0.175811 0.434001 -5.94318e-21)
(0.136274 0.371813 -1.39858e-19)
(0.102121 0.305566 -2.92785e-20)
(0.0684348 0.224861 -5.55336e-19)
(0.0336635 0.125993 -2.69435e-19)
(0.00763393 0.0377826 -3.90733e-20)
(0.454244 0.717761 5.0307e-19)
(0.400083 0.673578 1.64729e-19)
(0.346384 0.622578 -1.49269e-19)
(0.292241 0.563546 6.33127e-20)
(0.237754 0.495464 -5.34707e-22)
(0.186588 0.420805 1.35863e-21)
(0.140105 0.340607 -1.32081e-19)
(0.095459 0.250216 3.78758e-19)
(0.0514306 0.147709 -4.19387e-19)
(0.0135769 0.0476969 -6.51743e-20)
(0.572025 0.797749 -2.82147e-19)
(0.507876 0.749666 -8.89069e-20)
(0.443592 0.692833 -1.43317e-20)
(0.378978 0.627128 -7.0039e-20)
(0.313724 0.551886 5.84258e-20)
(0.249663 0.468003 5.25348e-20)
(0.188378 0.376668 -2.78607e-20)
(0.129323 0.276619 -2.82295e-19)
(0.0725233 0.167618 2.18417e-19)
(0.0209149 0.0568305 8.72991e-20)
(0.709421 0.870854 6.43448e-19)
(0.634371 0.819482 3.21004e-19)
(0.558134 0.757331 2.03452e-19)
(0.480858 0.685282 4.82028e-20)
(0.402413 0.603461 1.54753e-19)
(0.323869 0.51231 7.82342e-20)
(0.246465 0.412479 1.43137e-19)
(0.170863 0.303885 5.79226e-20)
(0.0980504 0.186783 -1.60284e-20)
(0.0299947 0.065025 -1.33841e-20)
(0.862013 0.934793 -1.19755e-19)
(0.775535 0.880605 -8.25457e-19)
(0.686698 0.813993 -7.66573e-20)
(0.59572 0.736763 -5.15127e-20)
(0.502558 0.649575 -1.94408e-20)
(0.408121 0.552672 1.51346e-19)
(0.313475 0.446283 -4.38285e-20)
(0.219707 0.330394 6.50273e-20)
(0.128291 0.20507 -1.44614e-19)
(0.0409027 0.0724911 -1.24371e-21)
(1.02671 0.985975 -8.8496e-19)
(0.928456 0.929585 5.94264e-20)
(0.826646 0.859661 -2.33567e-19)
(0.721455 0.778848 -7.26381e-20)
(0.612762 0.687976 -2.42526e-20)
(0.501453 0.587043 -7.51636e-20)
(0.388523 0.475876 5.63028e-20)
(0.275161 0.354185 6.03175e-20)
(0.162981 0.221553 -9.82179e-21)
(0.0535436 0.0791197 -1.03811e-19)
(1.20388 1.01789 1.2383e-19)
(1.09349 0.960905 5.23319e-19)
(0.978242 0.889689 1.55462e-21)
(0.858214 0.807529 -2.97388e-20)
(0.733139 0.715281 1.50987e-19)
(0.603887 0.612535 -3.4743e-19)
(0.471401 0.498741 -2.44432e-19)
(0.336829 0.373204 3.56142e-19)
(0.201771 0.235005 1.44197e-19)
(0.0677022 0.0845325 -3.62401e-20)
(1.40057 1.01544 7.39926e-19)
(1.27804 0.962319 3.23808e-19)
(1.14782 0.895345 5.5894e-20)
(1.01087 0.816388 -1.95095e-19)
(0.867266 0.726512 -1.6452e-20)
(0.717898 0.62533 4.65662e-19)
(0.563582 0.512 -2.68255e-19)
(0.40534 0.385473 -1.84494e-19)
(0.244705 0.244319 3.3581e-19)
(0.0831143 0.0884412 -6.05508e-21)
(0.976221 0.0981475 8.72773e-21)
(1.1441 0.141893 -5.06467e-22)
(1.2134 0.190224 -2.3116e-20)
(1.32524 0.171142 0)
(1.37548 0.155922 1.43327e-21)
(1.27774 0.234784 -5.00305e-20)
(1.12859 0.385765 -5.46106e-20)
(0.948924 0.543453 -1.47194e-20)
(0.711443 0.648239 -3.01712e-19)
(0.416459 0.595425 4.30885e-19)
(0.981111 0.0790774 1.94044e-19)
(1.13632 0.114323 -2.99495e-20)
(1.20936 0.159977 1.90931e-21)
(1.31631 0.152839 1.21457e-20)
(1.37762 0.158058 3.64975e-21)
(1.2974 0.269197 -3.42683e-21)
(1.15857 0.435818 1.97495e-20)
(0.993633 0.606441 0)
(0.76142 0.727246 7.90368e-19)
(0.47938 0.686603 -5.63904e-19)
(0.985445 0.0602834 -1.12941e-19)
(1.13294 0.0878075 6.94728e-21)
(1.20843 0.130594 7.74704e-20)
(1.3134 0.13329 1.91859e-20)
(1.38046 0.159331 -2.28384e-20)
(1.31735 0.301402 -3.50541e-20)
(1.19179 0.484326 -4.3553e-21)
(1.04387 0.667846 4.44168e-20)
(0.8231 0.803684 -1.22942e-21)
(0.564505 0.774375 -3.78348e-19)
(0.989065 0.0412813 -8.11407e-20)
(1.13353 0.0618665 1.55159e-20)
(1.21114 0.101887 7.53304e-20)
(1.31666 0.113508 3.01522e-20)
(1.38627 0.160095 -2.3502e-20)
(1.33766 0.331428 -2.58243e-20)
(1.22855 0.530611 6.61977e-20)
(1.10013 0.726553 2.68147e-20)
(0.899957 0.875299 -5.43005e-19)
(0.673751 0.856781 -1.78099e-19)
(0.992017 0.0217806 3.73246e-20)
(1.13739 0.0360017 -4.7389e-20)
(1.21716 0.0737523 -6.75965e-20)
(1.32471 0.0940681 2.18497e-20)
(1.39391 0.161382 0)
(1.35798 0.359765 0)
(1.26887 0.574047 7.23332e-20)
(1.16354 0.781188 -2.82137e-20)
(0.994752 0.939611 -1.17838e-19)
(0.805154 0.932178 -5.73945e-20)
(0.994418 0.00163823 3.54644e-21)
(1.14374 0.00980903 5.76931e-20)
(1.2256 0.0461045 -2.07124e-19)
(1.33581 0.0755487 -7.58294e-20)
(1.4021 0.163983 -4.93594e-21)
(1.37818 0.386596 1.19668e-19)
(1.31293 0.613796 1.49548e-19)
(1.23561 0.830035 -1.80417e-20)
(1.1079 0.994819 -4.28843e-20)
(0.953787 0.999916 2.46076e-21)
(0.995643 -0.0194834 1.09258e-21)
(1.15181 -0.0170451 2.89232e-20)
(1.23551 0.0189642 -6.5278e-20)
(1.34858 0.0585075 -1.51908e-19)
(1.40988 0.168129 1.1945e-20)
(1.39852 0.411613 7.45711e-21)
(1.36131 0.648752 -5.93491e-20)
(1.31746 0.871439 -1.10906e-19)
(1.23736 1.04063 -2.95998e-20)
(1.11388 1.06013 -9.80428e-19)
(0.994364 -0.0415279 1.47832e-20)
(1.16099 -0.0448341 -1.40917e-19)
(1.24608 -0.00750475 1.31702e-19)
(1.36183 0.0437203 1.00692e-19)
(1.41609 0.174295 5.06253e-21)
(1.41893 0.434387 -1.29078e-19)
(1.41389 0.677894 -9.73211e-22)
(1.40846 0.904456 -1.25918e-19)
(1.37937 1.07791 1.11091e-20)
(1.27985 1.11226 2.88366e-18)
(0.989989 -0.0637744 -8.65578e-20)
(1.1711 -0.0736697 7.90851e-20)
(1.25678 -0.0331533 1.89226e-19)
(1.3749 0.0312993 -1.13059e-19)
(1.42121 0.182245 -2.19917e-19)
(1.44096 0.454642 9.25866e-21)
(1.47195 0.701083 1.66777e-19)
(1.50858 0.92978 -5.67304e-19)
(1.53088 1.10793 -2.68367e-20)
(1.44833 1.15326 -6.47433e-18)
(0.983344 -0.08664 4.12191e-21)
(1.18238 -0.103518 1.3929e-19)
(1.26737 -0.0577935 6.06643e-20)
(1.3865 0.0235123 -2.72686e-19)
(1.42302 0.195994 -2.39437e-19)
(1.46216 0.475974 -6.9998e-20)
(1.53118 0.722091 7.6068e-20)
(1.61166 0.950748 -2.13115e-19)
(1.68375 1.13032 -1.08727e-18)
(1.6156 1.17226 -7.95183e-18)
(0.973867 -0.117722 -1.45e-20)
(1.19609 -0.143149 -3.20429e-20)
(1.27698 -0.0912338 -7.55069e-20)
(1.39745 0.00871974 1.36714e-19)
(1.42595 0.19482 1.98525e-19)
(1.4921 0.471634 -5.8816e-20)
(1.61196 0.711566 -1.40918e-19)
(1.75383 0.939909 -1.2047e-18)
(1.90279 1.13233 -1.59982e-18)
(1.89932 1.2086 3.28651e-18)
(0.961866 -0.15629 -4.06578e-19)
(1.21388 -0.19261 1.56576e-20)
(1.28075 -0.13742 -5.69062e-20)
(1.39813 -0.0130144 3.26621e-19)
(1.40589 0.172963 3.42317e-19)
(1.49411 0.427257 -8.53652e-21)
(1.6683 0.647365 -6.83161e-20)
(1.88076 0.865524 -2.95301e-19)
(2.13955 1.07118 2.74698e-19)
(2.28449 1.16072 -3.23344e-19)
(0.949377 -0.196605 -2.78762e-20)
(1.23864 -0.242474 -5.47544e-20)
(1.2794 -0.181704 3.05289e-20)
(1.39344 -0.0319248 2.70775e-20)
(1.38058 0.161568 1.73041e-33)
(1.47118 0.370458 2.53955e-21)
(1.68097 0.56099 -2.04909e-33)
(1.94925 0.75933 1.85459e-19)
(2.30199 0.956265 -9.31197e-19)
(2.58733 1.05837 -6.29312e-19)
(0.937049 -0.243127 1.41297e-18)
(1.26983 -0.282405 -7.73923e-34)
(1.24972 -0.227738 -4.00765e-20)
(1.27234 -0.0357724 -2.27686e-19)
(1.26453 0.143961 -4.48092e-19)
(1.39016 0.301857 -8.89191e-19)
(1.61962 0.459738 -5.07533e-33)
(1.92949 0.630886 -1.73841e-18)
(2.32593 0.801991 -3.1771e-18)
(2.75378 0.902531 1.67535e-18)
(0.927289 -0.300536 0)
(1.31569 -0.327105 -1.62311e-33)
(1.11291 -0.206656 0)
(1.10843 -0.0291148 0)
(1.12058 0.114845 0)
(1.25908 0.232512 0)
(1.48997 0.355212 -8.08803e-33)
(1.81522 0.491413 0)
(2.21358 0.634204 -3.39787e-19)
(2.73504 0.711973 1.25763e-18)
(0.916464 -0.360787 1.16111e-19)
(1.25183 -0.326245 -4.68944e-19)
(0.960128 -0.173817 -5.49124e-20)
(0.93483 -0.0255566 0)
(0.957209 0.082618 0)
(1.09046 0.165272 6.06016e-20)
(1.30659 0.25376 1.17928e-18)
(1.61609 0.354594 -1.95063e-19)
(1.99678 0.466159 -4.95302e-19)
(2.53249 0.520456 4.67287e-18)
(0.883457 -0.405314 -1.52016e-17)
(1.09213 -0.279908 1.08753e-18)
(0.792741 -0.130341 -7.27059e-20)
(0.74758 -0.0209251 -7.66044e-20)
(0.773576 0.0525438 -5.11255e-19)
(0.889827 0.104409 -7.72399e-19)
(1.0765 0.161178 -1.04906e-18)
(1.34613 0.228963 -1.38349e-18)
(1.68766 0.306096 -1.6062e-18)
(2.17995 0.344437 3.61331e-18)
(0.808994 -0.394518 -4.13639e-19)
(0.886505 -0.207583 -1.21641e-18)
(0.605584 -0.0827811 -1.25723e-19)
(0.550023 -0.0152343 -8.41144e-20)
(0.572302 0.0276394 -9.83182e-34)
(0.661802 0.054487 9.39574e-20)
(0.805577 0.0845264 -1.48648e-32)
(1.01626 0.122911 -1.93432e-19)
(1.29249 0.167298 2.98915e-19)
(1.6993 0.192068 7.05742e-19)
(0.664247 -0.288845 3.42551e-17)
(0.618265 -0.108093 -3.14029e-18)
(0.393389 -0.0350896 -2.40834e-19)
(0.339552 -0.0073519 -1.56464e-19)
(0.353992 0.00927497 3.93351e-19)
(0.410593 0.0183398 7.83731e-19)
(0.50127 0.0291657 7.94975e-19)
(0.636752 0.0448738 4.59822e-19)
(0.82076 0.0634529 -1.90347e-19)
(1.10156 0.0762248 3.56924e-18)
(0.336835 -0.0768247 5.58805e-19)
(0.261853 -0.00230518 -6.76607e-33)
(0.144387 0.0190737 -3.05046e-19)
(0.120449 0.00334801 0)
(0.123687 -0.00234018 0)
(0.1419 -0.00540804 9.65451e-20)
(0.172401 -0.00624292 9.3306e-35)
(0.220302 -0.00417389 -1.23575e-19)
(0.28813 -0.00161853 -2.82578e-19)
(0.399007 0.00331847 1.00154e-18)
(2.00203 1.09637 -1.78969e-18)
(2.23905 1.07843 -2.30492e-18)
(2.44206 1.02908 0)
(2.63706 0.952488 -7.58149e-19)
(2.82358 0.8525 -1.78298e-18)
(2.99276 0.732385 -2.24949e-18)
(3.13709 0.595039 -4.76099e-19)
(3.25055 0.442697 1.26928e-18)
(3.32824 0.276964 -3.54791e-18)
(3.36764 0.0986985 1.35669e-18)
(2.49864 1.14192 2.67664e-19)
(2.73054 1.08188 1.39724e-18)
(2.92385 1.00417 1.43895e-19)
(3.10672 0.909784 6.75739e-19)
(3.28059 0.800649 -1.10397e-18)
(3.43996 0.678318 -5.00031e-18)
(3.58096 0.544009 2.46786e-18)
(3.70047 0.399319 1.27033e-17)