# Selection   : all
# Cells       : 440
# Volume      : 7.374263e+01
# Time        	min(p)
6.815         	-1.120840e+00
6.86          	-1.086165e+00
6.91          	-1.096208e+00
