# Selection   : all
# Cells       : 440
# Volume      : 7.374263e+01
# Time        	max(p)
8.515         	2.157110e+00
8.56          	2.129770e+00
8.61          	2.100004e+00
