/*--------------------------------*- C++ -*----------------------------------*\
  =========                 |
  \\      /  F ield         | OpenFOAM: The Open Source CFD Toolbox
   \\    /   O peration     | Website:  https://openfoam.org
    \\  /    A nd           | Version:  13
     \\/     M anipulation  |
\*---------------------------------------------------------------------------*/
FoamFile
{
    format      ascii;
    class       volVectorField;
    location    "8.11";
    object      U;
}
// * * * * * * * * * * * * * * * * * * * * * * * * * * * * * * * * * * * * * //

dimensions      [0 1 -1 0 0 0 0];

internalField   nonuniform List<vector> 
440
(
(-0.0764881 0.0591928 -7.9145e-20)
(-0.0772204 0.105371 4.19874e-20)
(0.0815662 0.0967377 3.89586e-20)
(0.549412 0.090648 2.99166e-19)
(0.580035 0.171881 4.82214e-21)
(-0.0713304 0.0376584 3.26145e-20)
(0.116064 -0.00916824 -1.43969e-19)
(0.648303 -0.0575095 -1.05513e-19)
(1.22141 -0.0935967 4.02279e-20)
(1.74446 -0.106111 -6.94607e-21)
(0.00590744 -0.00623891 4.84288e-20)
(0.60743 -0.0640106 8.54904e-19)
(1.42389 -0.059592 -5.30428e-19)
(2.01654 -0.0315029 -1.56006e-18)
(2.51169 -0.0233802 6.59887e-19)
(0.246981 -0.0554481 -1.79418e-19)
(1.33174 -0.00650906 -6.39656e-19)
(2.10469 0.0541808 2.00594e-18)
(2.51011 0.081641 2.21723e-18)
(2.54796 0.0921731 -5.95334e-19)
(0.639776 -0.00256851 -3.20311e-19)
(1.86278 0.181076 -6.9963e-19)
(2.38664 0.246269 2.14661e-18)
(2.49398 0.252724 2.22023e-18)
(2.57994 0.224513 7.40866e-19)
(-0.0445766 0.342531 2.72495e-19)
(-0.162585 0.429776 1.79998e-19)
(-0.266609 0.392762 -5.80116e-19)
(-0.353743 0.328104 7.91095e-20)
(-0.397456 0.235611 3.38179e-19)
(-0.087723 0.41975 -3.71289e-20)
(-0.155615 0.595224 -3.89276e-19)
(-0.195642 0.575395 7.66589e-20)
(-0.228259 0.501417 7.9907e-20)
(-0.23329 0.398335 -1.59973e-19)
(-0.116891 0.35498 -2.2937e-19)
(-0.157453 0.60816 2.42954e-19)
(-0.142622 0.645301 -8.39671e-20)
(-0.102069 0.599511 -8.8453e-19)
(-0.0549512 0.516223 1.11441e-20)
(-0.0892867 0.19138 -1.7748e-20)
(-0.116895 0.41925 2.28169e-21)
(-0.0741101 0.502363 7.66484e-20)
(0.0149124 0.502998 4.70231e-19)
(0.0835763 0.479859 -1.07378e-19)
(-0.0679463 0.0817183 -4.65289e-20)
(-0.116046 0.20253 -6.1859e-20)
(-0.0916216 0.262965 -9.39358e-20)
(0.0561372 0.267864 -3.55113e-20)
(0.131051 0.336675 -3.84894e-19)
(-0.343939 -0.358894 -2.06264e-18)
(-0.27962 -0.843899 7.2971e-19)
(1.07355 0.312873 -6.37007e-19)
(-0.00893546 0.696161 -4.08853e-19)
(0.738356 0.070009 -2.37395e-19)
(0.0550324 -0.30707 2.09564e-18)
(-0.511516 -1.00508 -2.03158e-19)
(0.932288 0.270111 -8.28094e-20)
(-0.0972286 0.72951 2.30823e-19)
(0.92754 -0.0570567 5.58849e-19)
(0.558272 -0.235373 6.56922e-19)
(0.339652 -1.16243 9.03603e-19)
(1.01902 0.135181 -2.24171e-22)
(0.068558 0.705271 -2.47494e-20)
(1.1989 -0.207476 1.40811e-20)
(1.12252 -0.265118 5.29886e-20)
(1.57881 -1.14632 -3.49691e-19)
(0.776359 0.126804 6.36038e-20)
(0.311326 0.709549 5.21431e-19)
(1.52029 -0.341746 2.59364e-19)
(1.41497 -0.501882 -2.21473e-19)
(2.1769 -0.999476 6.20578e-19)
(-0.238958 0.226991 0)
(0.95835 0.552274 -6.36632e-19)
(1.83701 -0.440235 -7.71692e-20)
(1.80773 -0.511068 -5.73452e-19)
(2.65034 -0.773441 1.3683e-19)
(0.118878 0.227953 -2.24495e-21)
(1.82005 0.114203 -1.84701e-19)
(2.0902 -0.524788 4.33311e-19)
(2.4257 -0.591698 6.39139e-20)
(2.0539 -0.534894 3.4702e-19)
(0.643007 0.427763 3.98622e-21)
(2.34582 -0.126074 -9.1341e-20)
(2.11201 -0.493673 0)
(2.35876 -0.413509 -5.74193e-19)
(1.69322 -0.160796 2.32372e-20)
(1.20981 0.205047 2.5869e-19)
(2.4429 -0.381603 -1.4604e-19)
(1.74132 -0.410578 8.97196e-20)
(2.08943 -0.291232 3.30833e-20)
(1.36662 -0.0908039 1.10349e-19)
(1.63258 0.0363046 -2.57635e-21)
(1.97004 -0.362898 1.07996e-33)
(1.0082 -0.260698 -1.43856e-20)
(1.16418 -0.0516688 1.31075e-19)
(0.751689 0.0144465 -2.1957e-20)
(1.01561 -0.0973552 -2.88851e-20)
(0.473118 -0.0685341 8.3485e-20)
(-0.185951 0.0183493 -4.19543e-20)
(2.44929 0.240691 -8.98919e-19)
(2.66405 0.00111518 -1.19044e-18)
(2.5059 0.06542 8.8049e-19)
(2.77838 -0.177025 7.53888e-20)
(2.18094 0.0512245 -2.37504e-20)
(2.15321 0.186278 6.72342e-20)
(2.45891 -0.0458939 -4.16358e-20)
(2.29252 0.0263515 -1.48684e-19)
(2.52681 -0.206309 -2.24742e-19)
(2.38567 -0.182168 -8.38513e-21)
(2.13014 0.0813867 7.75828e-20)
(2.26673 -0.0336416 1.03322e-19)
(2.23283 -0.0393092 -1.46204e-19)
(2.30583 -0.142742 5.09226e-20)
(2.30247 -0.176503 2.82319e-20)
(2.10491 0.0052529 1.16842e-19)
(2.09073 -0.0479797 1.31163e-19)
(2.17056 -0.0576379 -1.84004e-20)
(2.13316 -0.109766 -1.05867e-20)
(2.2048 -0.126738 2.53352e-20)
(1.50933 -0.0138628 1.72345e-19)
(1.42736 -0.0153988 -1.26967e-20)
(1.50637 -0.0269656 2.42915e-20)
(1.39428 -0.0245146 -1.52773e-20)
(1.48511 -0.045429 2.89404e-20)
(1.59423 0.843731 1.19159e-18)
(1.54804 0.944909 -3.87571e-19)
(1.54849 1.07993 -1.42617e-18)
(1.47953 1.12792 7.66725e-19)
(0.907359 0.809607 -1.77549e-19)
(1.88542 0.812711 -6.09672e-19)
(1.84968 0.887153 -3.15409e-18)
(1.8577 0.99285 -1.20605e-18)
(1.76963 1.00621 -4.28497e-19)
(1.08346 0.709443 -6.94269e-19)
(2.20072 0.672304 7.84578e-19)
(2.17887 0.743828 2.0996e-19)
(2.14903 0.836167 -2.33408e-18)
(2.0174 0.825941 -6.67739e-19)
(1.20176 0.556115 5.1119e-19)
(2.37274 0.559466 2.36761e-18)
(2.35342 0.608695 1.74735e-18)
(2.35356 0.662761 -2.04074e-18)
(2.14402 0.623539 -1.54928e-18)
(1.18978 0.371059 -2.97645e-19)
(2.52158 0.389952 1.17826e-18)
(2.53899 0.414902 -8.66022e-19)
(2.43858 0.44472 6.05457e-19)
(2.11367 0.395517 5.04688e-19)
(1.01509 0.168282 -4.36678e-19)
(0.567239 0.509601 -6.03336e-19)
(0.474914 0.549012 -4.35507e-19)
(0.357957 0.587721 4.25081e-20)
(0.224314 0.591014 6.39768e-21)
(0.0557625 0.424213 9.61716e-20)
(0.688319 0.667384 1.3609e-19)
(0.625023 0.726317 -2.85833e-19)
(0.536816 0.79413 1.95301e-19)
(0.411325 0.854927 -9.08036e-20)
(0.181595 0.652639 1.27773e-19)
(0.771788 0.873106 8.79479e-20)
(0.700789 0.958939 5.12071e-19)
(0.650173 1.05747 1.29597e-19)
(0.570545 1.09117 -3.28743e-19)
(0.315369 0.799864 2.77312e-19)
(1.07251 0.927257 2.52815e-19)
(1.02254 1.00749 -7.675e-19)
(0.970726 1.106 -2.04248e-18)
(0.889606 1.17472 8.12116e-19)
(0.525335 0.872406 -1.67583e-19)
(1.12301 0.98464 -1.06509e-19)
(1.1661 1.1062 -1.85743e-19)
(1.19585 1.2175 -3.8698e-19)
(1.14453 1.23343 -4.33795e-19)
(0.704647 0.878718 -6.88636e-21)
(1.01239 0.0592448 -1.05981e-19)
(0.988958 0.034791 -3.89694e-20)
(1.03643 0.13553 -1.61001e-21)
(0.944926 0.149032 -2.97273e-19)
(0.899209 0.310681 3.24605e-19)
(1.00056 0.0579637 6.71868e-20)
(1.00171 0.031051 1.39391e-19)
(1.02578 0.144591 1.44438e-19)
(0.988618 0.173854 4.32432e-20)
(0.939719 0.393821 -2.78857e-20)
(1.00474 0.0573949 9.18978e-20)
(0.987864 0.0239351 -5.32104e-21)
(1.07176 0.162628 -6.0994e-21)
(0.947546 0.171513 1.61759e-19)
(1.15791 0.541302 -5.28819e-19)
(0.998004 0.058052 -3.40424e-22)
(1.00762 0.0125535 -1.96009e-19)
(1.06779 0.178901 -7.19146e-20)
(1.05107 0.170367 -4.04381e-19)
(1.17114 0.598028 1.00067e-19)
(0.993314 0.0513586 -1.57485e-20)
(1.01324 0.0133204 5.55708e-20)
(1.12286 0.177621 3.36553e-20)
(1.0274 0.203007 4.89416e-19)
(1.40032 0.728161 -5.07093e-19)
(0.952571 0.054012 -9.85787e-21)
(1.09197 -0.0162726 1.13565e-19)
(1.10682 0.207982 -7.8494e-20)
(1.28352 0.115882 9.94982e-19)
(1.30614 0.787009 -3.77347e-19)
(0.895464 0.0227779 -1.57397e-21)
(1.19149 -0.0240159 -1.0428e-19)
(1.03775 0.126482 5.22078e-21)
(1.40568 0.123481 -3.00105e-19)
(1.20736 0.555228 -7.29746e-20)
(0.946563 0.0131379 -3.07565e-21)
(1.1639 -0.0393019 1.58622e-35)
(1.0775 0.0954554 -3.06519e-20)
(1.29024 0.105152 9.21362e-20)
(1.31455 0.385312 1.93445e-19)
(1.07191 -0.0394045 4.35423e-21)
(1.01153 -0.0503923 -3.0315e-20)
(1.13212 0.0568734 1.92621e-20)
(1.12903 0.0674018 2.48231e-20)
(1.55241 0.235646 -2.98877e-19)
(0.994673 -0.0239141 -4.142e-20)
(0.771198 -0.0216993 -4.36029e-21)
(0.889521 0.0131402 2.35941e-20)
(0.858902 0.00186565 -1.93039e-20)
(1.21777 0.050219 -6.85226e-20)
(1.85875 0.615901 3.06602e-19)
(1.93473 0.658913 7.78778e-19)
(2.219 0.499689 -1.11862e-18)
(2.26567 0.485315 -1.41963e-20)
(2.49483 0.264425 4.9959e-19)
(1.78288 0.374167 9.75865e-20)
(1.75882 0.435976 1.05985e-18)
(2.05358 0.299065 1.34375e-19)
(1.97941 0.333755 -9.70476e-19)
(2.29874 0.127309 -2.93437e-19)
(1.72208 0.273692 -2.53256e-19)
(1.79659 0.270614 -1.60937e-19)
(1.96345 0.192888 1.78383e-19)
(1.98308 0.188303 -3.04348e-19)
(2.1551 0.0785502 2.75995e-19)
(1.74193 0.145147 4.19362e-19)
(1.86547 0.123121 -4.46076e-21)
(1.89927 0.0798391 2.34029e-19)
(2.00335 0.0662387 2.0105e-19)
(2.0133 0.014624 -1.91152e-19)
(1.3734 0.0262521 -5.14875e-20)
(1.44558 0.0159193 2.64073e-19)
(1.4381 0.00724278 1.15498e-19)
(1.49303 -8.62285e-05 -2.27946e-19)
(1.44394 -0.00611588 3.47467e-22)
(1.07675 -0.0201144 5.02823e-20)
(2.0766 -0.0515927 -3.76197e-19)
(2.31755 -0.0418746 1.06238e-18)
(2.29472 -0.0017731 4.70376e-19)
(2.16433 0.028446 -3.24965e-19)
(0.651764 0.0876468 8.68187e-20)
(1.84877 0.0716048 -3.84235e-19)
(2.32241 0.0734492 -5.06006e-19)
(2.40388 0.0819166 6.03943e-19)
(2.12332 0.0729206 -3.65356e-19)
(0.18362 0.0655637 -2.61914e-20)
(1.20725 0.12728 3.91556e-19)
(1.96631 0.142343 5.42655e-20)
(2.35898 0.134191 2.72178e-19)
(2.58766 0.129531 8.64757e-20)
(-0.0522038 -0.0318557 1.74324e-19)
(0.397094 0.0514669 1.68567e-19)
(1.17312 0.118504 -3.3964e-19)
(1.6719 0.143289 1.53049e-20)
(2.24721 0.173053 -4.96493e-20)
(-0.104265 -0.0851136 1.17601e-19)
(-0.0388567 -0.070753 -1.27204e-19)
(0.35744 -0.00139905 -2.57339e-20)
(0.829195 0.0273897 2.80462e-20)
(1.19317 0.0658076 -4.23992e-20)
(-0.0737924 -0.07015 6.40162e-21)
(-0.137539 -0.10283 6.73418e-20)
(-0.0658131 -0.104363 9.90309e-20)
(0.122941 -0.087726 -1.19668e-19)
(0.414113 -0.0535822 5.82284e-21)
(-0.0296171 -0.03716 -3.05204e-22)
(-0.0926068 -0.112378 -4.43052e-20)
(-0.119393 -0.188884 -3.87553e-20)
(-0.0995156 -0.240498 2.07577e-20)
(-0.0132851 -0.24208 1.20824e-20)
(-0.0178894 -0.0371369 8.37666e-21)
(-0.0642496 -0.149197 9.96653e-20)
(-0.0959694 -0.246305 -3.49796e-20)
(-0.12075 -0.302139 -1.78998e-19)
(-0.123657 -0.322117 3.77669e-20)
(-0.016867 -0.0216827 -2.31225e-21)
(-0.0983554 -0.121452 -3.54222e-20)
(-0.179158 -0.172118 1.2145e-19)
(-0.254351 -0.171604 -2.92773e-20)
(-0.312248 -0.161347 -4.26331e-20)
(-0.0197261 0.134342 -2.15656e-21)
(-0.154497 0.135201 1.96587e-20)
(-0.290861 0.127961 -1.73386e-20)
(-0.411497 0.111997 7.59626e-20)
(-0.490217 0.0631359 2.6796e-19)
(1.49071 0.353929 -1.91701e-20)
(1.55473 0.24733 8.11702e-19)
(1.66088 0.144281 -4.31762e-20)
(0.993857 0.1137 -4.95141e-20)
(0.551303 0.0256528 7.63598e-21)
(0.920454 0.115767 4.36729e-20)
(1.31088 0.178932 -5.49835e-19)
(1.72001 0.224966 -5.12335e-20)
(0.987937 0.245704 -9.56426e-22)
(0.505894 0.0797801 -2.60795e-20)
(0.0360424 -0.076644 -8.39778e-20)
(0.904034 0.0221893 -5.71069e-19)
(1.6048 0.265866 1.41584e-21)
(0.817567 0.389209 -2.86929e-19)
(0.479826 0.144439 2.20223e-20)
(-0.55434 -0.129886 2.99693e-19)
(0.578106 -0.242394 -4.81118e-19)
(1.42972 0.291311 4.1906e-20)
(0.548849 0.519538 -2.36614e-21)
(0.513425 0.171045 -5.9891e-20)
(-0.680215 -0.267936 1.99418e-19)
(0.265004 -0.587232 -1.43839e-19)
(1.2625 0.317281 -1.87843e-19)
(0.25056 0.630946 7.96965e-21)
(0.605167 0.150034 -2.7198e-19)
(0.709222 0.166922 -3.92673e-20)
(-0.0704435 -0.0552358 0)
(-0.0944457 -0.107737 -1.42749e-20)
(-0.0357425 -0.06563 5.73399e-20)
(0.218466 -0.0290521 -1.57553e-20)
(2.004 0.365746 0)
(1.51543 0.304611 0)
(1.30752 0.103582 3.43654e-19)
(0.777975 -0.0311841 1.04566e-19)
(0.570656 -0.044774 -1.34599e-20)
(0.685025 -0.000388883 -1.12218e-19)
(0.743761 -0.00270606 2.09126e-19)
(0.896564 -0.0197478 -1.31789e-20)
(1.06869 0.00972595 2.72615e-19)
(1.33462 0.0421604 1.7284e-19)
(1.57055 0.0176807 1.06508e-19)
(1.68654 0.0676054 2.33513e-19)
(1.8957 0.0174259 -2.00113e-20)
(2.50294 0.144579 -5.07195e-20)
(2.10096 0.0713701 4.11218e-20)
(0.870811 -0.443185 -3.61679e-20)
(0.853838 -0.526464 -1.33377e-19)
(0.838898 -0.616576 -9.04613e-20)
(0.763225 -0.678386 5.72451e-20)
(0.457075 -0.526291 1.12124e-19)
(0.767931 -0.344093 1.32134e-19)
(0.710375 -0.404194 2.84883e-19)
(0.635466 -0.46974 -2.15545e-20)
(0.523278 -0.524403 1.18592e-19)
(0.279576 -0.413118 4.70967e-20)
(0.627035 -0.20168 -1.71424e-19)
(0.538559 -0.236312 -4.27642e-20)
(0.436585 -0.280224 1.57523e-19)
(0.31749 -0.319608 -2.05287e-21)
(0.13488 -0.254611 -9.84858e-20)
(0.534154 0.0312973 -4.40956e-19)
(0.44714 0.0207846 -3.66959e-19)
(0.336704 0.00196043 2.82883e-19)
(0.210401 -0.0260887 1.86867e-19)
(0.0517447 -0.0413111 1.35147e-20)
(0.518212 0.236876 -1.84855e-19)
(0.432577 0.243118 -1.80502e-19)
(0.316469 0.248473 -8.71558e-20)
(0.179574 0.25731 9.44348e-21)
(0.0238893 0.194227 1.10532e-20)
(1.90198 -0.0432839 7.04126e-19)
(2.17503 -0.105323 2.44342e-19)
(2.23725 -0.184017 -6.50252e-19)
(2.08116 -0.210899 -1.30565e-18)
(1.22943 -0.1741 1.03157e-19)
(1.89974 -0.118493 1.19207e-18)
(1.97661 -0.224052 1.57652e-18)
(1.99436 -0.339668 1.297e-19)
(1.90962 -0.394401 2.24555e-19)
(1.20496 -0.333314 -1.4735e-19)
(1.61401 -0.272878 -3.10952e-18)
(1.68371 -0.38417 3.61977e-19)
(1.72717 -0.500311 9.67186e-19)
(1.65874 -0.567702 -3.65905e-19)
(1.06211 -0.46852 5.70364e-19)
(1.42595 -0.386884 7.30413e-19)
(1.44061 -0.478829 -1.92741e-18)
(1.4225 -0.588447 -2.23006e-18)
(1.34944 -0.666858 6.7778e-19)
(0.860407 -0.538253 4.55166e-19)
(1.14962 -0.439355 1.46411e-19)
(1.10483 -0.526705 2.12225e-19)
(1.09364 -0.639678 -3.30307e-19)
(1.03532 -0.71675 -3.98958e-19)
(0.64835 -0.56047 -3.70979e-21)
(1.05235 0.0592065 8.18764e-21)
(0.921482 0.0546232 -6.75688e-21)
(1.11117 0.0844673 -7.89662e-21)
(0.797481 0.0187223 -1.81002e-19)
(1.06455 -0.185637 -6.04541e-21)
(1.06832 0.0647694 -2.665e-21)
(0.914506 0.0510698 5.61119e-20)
(1.10747 0.101738 -6.03574e-20)
(0.881205 0.064418 9.3467e-20)
(0.961204 -0.0703801 -2.66736e-20)
(1.07001 0.0636723 -6.64311e-20)
(0.92137 0.0472894 5.51557e-22)
(1.09313 0.103567 -2.55654e-20)
(0.880411 0.0879521 7.27404e-21)
(0.937729 -0.00886258 -1.38376e-19)
(1.05144 0.0630624 8.05845e-20)
(0.953627 0.0430316 3.63106e-21)
(1.05888 0.111448 3.95146e-20)
(0.918149 0.111791 3.24876e-20)
(0.854093 0.101967 1.2565e-19)
(1.02593 0.0602175 2.04285e-20)
(0.984241 0.0409419 -3.25286e-20)
(1.03038 0.120205 5.28122e-20)
(0.948053 0.136679 8.10473e-20)
(0.83508 0.204099 -1.44271e-19)
(0.880711 0.033755 0)
(0.714808 0.0293082 1.07305e-20)
(0.590399 0.0239549 2.72038e-21)
(0.32821 -0.00625055 3.83529e-20)
(0.622066 -0.048951 -1.01849e-19)
(1.01508 0.0758687 -6.64506e-20)
(0.94273 0.0719332 -2.38033e-20)
(1.01115 0.0846454 -2.45356e-20)
(0.797208 0.0104205 -9.16452e-20)
(0.975517 -0.172732 -1.09381e-19)
(0.856645 -0.0609065 -2.45056e-20)
(0.936954 -0.029563 4.25487e-19)
(1.01758 0.0354654 2.66736e-19)
(0.900288 0.0486729 2.45488e-20)
(0.697316 0.0251576 0)
(1.22203 -0.296164 2.35937e-19)
(1.32655 -0.262486 1.24485e-18)
(1.48664 -0.148527 -1.41873e-18)
(1.57904 -0.0226953 -4.37197e-19)
(1.4696 0.023054 3.24869e-19)
)
;

boundaryField
{
    left
    {
        type            fixedValue;
        value           uniform (1 0 0);
    }
    right
    {
        type            zeroGradient;
    }
    down
    {
        type            noSlip;
    }
    up
    {
        type            noSlip;
    }
    cylinder
    {
        type            noSlip;
    }
    defaultFaces
    {
        type            empty;
    }
}


// ************************************************************************* //
