/*--------------------------------*- C++ -*----------------------------------*\
  =========                 |
  \\      /  F ield         | OpenFOAM: The Open Source CFD Toolbox
   \\    /   O peration     | Website:  https://openfoam.org
    \\  /    A nd           | Version:  13
     \\/     M anipulation  |
\*---------------------------------------------------------------------------*/
FoamFile
{
    format      ascii;
    class       surfaceScalarField;
    location    "0.825";
    object      phi;
}
// * * * * * * * * * * * * * * * * * * * * * * * * * * * * * * * * * * * * * //

dimensions      [0 3 -1 0 0 0 0];

internalField   nonuniform List<scalar> 
3485
(
0.00137167
-0.011258
0.0098863
0.00505115
-0.0319067
0.0282273
0.0107642
-0.0513829
0.0456699
0.0183125
-0.0696769
0.0621286
0.0275453
-0.0868351
0.0776023
0.0383483
-0.102901
0.0920982
0.0506328
-0.117906
0.105622
0.0643559
-0.131871
0.118148
0.079615
-0.144862
0.129603
-0.156896
0.139505
0.0970059
0.00150034
-0.0127583
0.00544582
-0.0358522
0.0114762
-0.0574132
0.0193235
-0.0775243
0.0287727
-0.0962843
0.0396465
-0.113775
0.0518006
-0.130061
0.0651271
-0.145198
0.0795344
-0.159269
-0.172198
0.0948365
0.00147418
-0.0142325
0.00532698
-0.039705
0.0111745
-0.0632607
0.0187208
-0.0850706
0.0277252
-0.105289
0.0379883
-0.124038
0.0493441
-0.141416
0.0616531
-0.157506
0.0747831
-0.172399
-0.186037
0.0886227
0.00133886
-0.0155714
0.00485903
-0.0432252
0.0102108
-0.0686125
0.017117
-0.0919768
0.0253538
-0.113525
0.03474
-0.133424
0.0451299
-0.151806
0.0564032
-0.16878
0.0684534
-0.184449
-0.198791
0.0812068
0.00116693
-0.0167383
0.00425599
-0.0463142
0.00897313
-0.0733297
0.0150817
-0.0980853
0.0223916
-0.120835
0.0307522
-0.141785
0.0400458
-0.1611
0.0501798
-0.178914
0.0610764
-0.195346
-0.210402
0.0726879
0.000980023
-0.0177183
0.00358795
-0.0489222
0.00758659
-0.0773283
0.0127839
-0.103283
0.019026
-0.127078
0.0261924
-0.148951
0.0341912
-0.169099
0.042953
-0.187676
0.0524229
-0.204816
-0.220549
0.0625697
0.000780725
-0.018499
0.002865
-0.0510064
0.00606896
-0.0805323
0.0102428
-0.107456
0.0152665
-0.132101
0.0210466
-0.154732
0.0275141
-0.175566
0.0346202
-0.194782
0.0423309
-0.212526
-0.228851
0.0506324
0.000569701
-0.0190687
0.00209345
-0.0525302
0.00443786
-0.0828767
0.00749265
-0.110511
0.0111686
-0.135777
0.0153967
-0.15896
0.0201274
-0.180297
0.0253293
-0.199984
0.0309863
-0.218183
-0.234967
0.0371028
0.000352505
-0.0194212
0.00129575
-0.0534734
0.002745
-0.0843259
0.00462831
-0.112395
0.00688643
-0.138035
0.00947303
-0.161546
0.0123552
-0.183179
0.0155142
-0.203143
0.0189447
-0.221614
-0.238684
0.0226614
0.000137793
-0.019559
0.000502456
-0.0538381
0.00105695
-0.0848804
0.00176952
-0.113107
0.00261369
-0.138879
0.00356836
-0.162501
0.00461806
-0.184229
0.00575326
-0.204278
0.00697052
-0.222831
0.00827491
-0.239988
0.000487782
-0.00186883
0.00138105
0.00208726
-0.00625522
0.00465574
0.00542876
-0.0114251
0.00808362
0.0101173
-0.0162006
0.0115121
0.0155419
-0.0201935
0.0147689
0.0214393
-0.0235892
0.0176918
0.0279056
-0.0267701
0.0203037
0.0350893
-0.0299649
0.0227811
0.0429753
-0.0331256
0.0252396
-0.0360998
0.0514296
0.0276455
0.000426896
-0.00229573
0.00211066
-0.00793899
0.00543791
-0.0147524
0.00981463
-0.0205773
0.0148859
-0.0252648
0.0207617
-0.0294649
0.0276149
-0.0336233
0.0353938
-0.0377438
0.0438865
-0.0416184
-0.0451414
0.0529282
0.000682818
-0.00297855
0.00271665
-0.00997283
0.00577985
-0.0178156
0.00976153
-0.024559
0.0148148
-0.0303181
0.0211125
-0.0357626
0.0285855
-0.0410963
0.0369538
-0.0461121
0.0459985
-0.0506631
-0.0547715
0.0556286
0.000868555
-0.0038471
0.00306135
-0.0121656
0.00607901
-0.0208332
0.0102002
-0.0286802
0.0156982
-0.0358162
0.0225563
-0.0426206
0.0305319
-0.0490719
0.0393882
-0.0549685
0.0490303
-0.0603051
-0.0651174
0.0593762
0.000923295
-0.0047704
0.00320097
-0.0144433
0.00651915
-0.0241514
0.0111169
-0.033278
0.017135
-0.0418343
0.0244482
-0.0499337
0.0328644
-0.0574881
0.0422862
-0.0643903
0.0526508
-0.0706698
-0.0762924
0.0638258
0.000944069
-0.00571447
0.00337301
-0.0168722
0.00709155
-0.02787
0.0121745
-0.0383609
0.0186328
-0.0482926
0.0263553
-0.0576562
0.0352447
-0.0663775
0.045254
-0.0743996
0.0563048
-0.0817205
-0.0882267
0.0682391
0.000980082
-0.00669455
0.00358425
-0.0194764
0.00764144
-0.0319271
0.013107
-0.0438265
0.0199255
-0.0551111
0.0280104
-0.0657411
0.0372996
-0.0756667
0.0477471
-0.0848471
0.05928
-0.0932534
-0.1007
0.0717533
0.00101809
-0.00771264
0.00376791
-0.0222262
0.00807121
-0.0362305
0.0138198
-0.0495751
0.0209192
-0.0622105
0.0292804
-0.0741023
0.0388339
-0.0852202
0.0495229
-0.0955362
0.061289
-0.105019
-0.113443
0.0740319
0.00105468
-0.00876731
0.00393682
-0.0251084
0.00846105
-0.0407547
0.014482
-0.055596
0.0218735
-0.069602
0.0305252
-0.082754
0.0403417
-0.0950367
0.0512342
-0.106429
0.0631219
-0.116907
-0.126321
0.076
0.00111899
0.00423789
0.00915308
0.0156857
0.023686
0.0330303
0.0436155
0.0553346
0.0680301
0.0812137
0.114333
-0.414594
0.351691
0.16814
-0.471883
0.418076
0.210283
-0.422018
0.379875
0.244161
-0.326775
0.292897
0.270961
-0.214428
0.187628
0.291541
-0.109956
0.0893759
0.304959
-0.0311494
0.0177307
0.310006
0.0117594
-0.0168061
0.310401
0.02515
-0.0255448
0.0203811
-0.0190874
0.115912
-0.477578
0.169697
-0.525669
0.211811
-0.464133
0.245431
-0.360394
0.272379
-0.241375
0.293753
-0.13133
0.309907
-0.0473032
0.318869
0.00279743
0.322421
0.0215976
0.020044
0.117719
-0.539668
0.17052
-0.57847
0.212226
-0.505839
0.24523
-0.393399
0.27204
-0.268185
0.293721
-0.153011
0.311418
-0.0649999
0.323776
-0.00956103
0.331618
0.0137555
0.0169051
0.1201
-0.600392
0.170887
-0.629257
0.211707
-0.546659
0.243789
-0.425481
0.270192
-0.294588
0.291935
-0.174754
0.310413
-0.0834782
0.324513
-0.0236615
0.336566
0.00170283
0.00901877
0.122998
-0.659564
0.170999
-0.677257
0.210385
-0.586046
0.241297
-0.456393
0.267028
-0.320318
0.288691
-0.196417
0.307662
-0.10245
0.322603
-0.0386017
0.33738
-0.0130748
-0.00323455
0.125856
-0.717181
0.170884
-0.722286
0.208342
-0.623504
0.237893
-0.485944
0.262699
-0.345123
0.284174
-0.217892
0.303471
-0.121747
0.319247
-0.0543781
0.334345
-0.028172
-0.0154359
0.127796
-0.773224
0.170358
-0.764847
0.205626
-0.658772
0.233693
-0.514011
0.257348
-0.368778
0.278492
-0.239036
0.298004
-0.141259
0.31486
-0.0712345
0.328545
-0.0418564
-0.0243032
0.127878
-0.82707
0.168937
-0.805906
0.202099
-0.691934
0.228663
-0.540574
0.251024
-0.39114
0.271642
-0.259655
0.291496
-0.161112
0.308263
-0.0880021
0.319047
-0.0526397
-0.0307259
0.1258
-0.876871
0.166213
-0.846319
0.197708
-0.723428
0.22289
-0.565756
0.24385
-0.4121
0.263621
-0.279426
0.283299
-0.180791
0.297831
-0.102534
0.305383
-0.0601921
-0.0370003
0.122118
-0.917775
0.161387
-0.885589
0.191581
-0.753623
0.215665
-0.58984
0.235315
-0.431749
0.254383
-0.298495
0.271158
-0.197565
0.28266
-0.114036
0.289982
-0.067514
-0.0436702
0.583953
-0.920251
-0.581477
0.561182
-0.862817
0.523946
-0.716387
0.487861
-0.553755
0.460492
-0.40438
0.443972
-0.281974
0.432365
-0.185959
0.426421
-0.108091
0.423163
-0.0642559
-0.0421634
0.682868
-0.871659
-0.731461
0.619677
-0.799626
0.553857
-0.650567
0.496267
-0.496165
0.450652
-0.358765
0.418688
-0.25001
0.398942
-0.166213
0.389813
-0.0989627
0.384706
-0.0591488
-0.0390931
0.753986
-0.775216
-0.850428
0.65508
-0.700721
0.56335
-0.558836
0.487239
-0.420054
0.429249
-0.300775
0.389014
-0.209775
0.363806
-0.141004
0.351134
-0.0862914
0.344231
-0.0522449
-0.034755
0.77897
-0.641705
-0.912481
0.653699
-0.57545
0.546192
-0.451329
0.460887
-0.33475
0.397849
-0.237737
0.354054
-0.16598
0.325858
-0.112808
0.31061
-0.0710433
0.302139
-0.0437747
-0.0294218
0.752965
-0.492443
-0.902227
0.617533
-0.440019
0.506133
-0.339929
0.420018
-0.248634
0.357394
-0.175113
0.313806
-0.122392
0.28507
-0.0840717
0.268432
-0.0544059
0.258829
-0.0341715
-0.0233856
0.685097
-0.34584
-0.8317
0.552688
-0.30761
0.446428
-0.233669
0.365954
-0.16816
0.308208
-0.117367
0.267992
-0.082176
0.240961
-0.0570411
0.224427
-0.0378712
0.214426
-0.0241703
-0.0170455
0.582616
-0.213863
-0.714592
0.462884
-0.187879
0.369307
-0.140092
0.299925
-0.0987791
0.250864
-0.0683051
0.216691
-0.0480039
0.193332
-0.0336818
0.178388
-0.0229274
0.16894
-0.0147223
-0.010913
0.448757
-0.105525
-0.557096
0.351176
-0.0902971
0.277053
-0.0659683
0.223521
-0.0452474
0.18625
-0.0310338
0.160245
-0.0219989
0.142176
-0.0156134
0.130177
-0.0109276
0.122336
-0.00688232
-0.00558402
0.286591
-0.0302209
-0.361894
0.220909
-0.0246156
0.172488
-0.0175469
0.13871
-0.0114695
0.115473
-0.00779666
0.0991083
-0.0056345
0.0875554
-0.00406052
0.0796199
-0.00299207
0.0744693
-0.00173173
-0.00171803
0.101315
-0.131536
0.0766998
0.059153
0.0476834
0.0398868
0.0342523
0.0301917
0.0271997
0.0254679
0.73882
0.0102223
-0.740768
0.733075
0.0284073
0.723436
0.0467415
0.710163
0.0639054
0.69357
0.0791626
0.674076
0.0921814
0.652273
0.10301
0.628713
0.112182
0.604269
0.11928
0.119798
0.845548
0.0133981
-0.848724
0.837321
0.0366345
0.827288
0.056775
0.816593
0.0745997
0.805251
0.0905054
0.792897
0.104536
0.779283
0.116624
0.764588
0.126878
0.749123
0.134745
0.13746
0.844982
0.0114254
-0.843009
0.848882
0.0327348
0.853019
0.0526379
0.85647
0.0711483
0.858832
0.0881439
0.859919
0.103448
0.859594
0.116948
0.857966
0.128506
0.8553
0.137412
0.142331
0.800213
0.00930445
-0.798092
0.80582
0.027127
0.814418
0.0440405
0.825636
0.0599303
0.839
0.0747794
0.853849
0.0886
0.869418
0.101379
0.885051
0.112873
0.899936
0.122526
0.129787
0.737866
0.00703875
-0.7356
0.744154
0.0208384
0.754123
0.0340715
0.767503
0.0465502
0.784083
0.0581999
0.80366
0.0690224
0.825988
0.0790511
0.850621
0.0882396
0.876542
0.0966061
0.104102
0.653921
0.00485397
-0.651736
0.660203
0.0145561
0.670378
0.0238963
0.684221
0.0327074
0.701525
0.040896
0.722111
0.0484359
0.745806
0.0553567
0.772329
0.061716
0.801217
0.0677188
0.0736189
0.549112
0.00291609
-0.547174
0.554812
0.0088559
0.564138
0.0145706
0.576905
0.01994
0.592915
0.0248867
0.611968
0.0293826
0.633871
0.033454
0.658407
0.0371801
0.685379
0.0407461
0.0444059
0.422793
0.00137572
-0.421252
0.427413
0.00423595
0.435008
0.00697561
0.445422
0.00952586
0.45847
0.0118387
0.473957
0.0138957
0.491697
0.0157138
0.511527
0.0173497
0.533346
0.0189271
0.0206561
0.273828
0.000366659
-0.272819
0.276915
0.00114944
0.281999
0.00189174
0.288955
0.00256941
0.29763
0.00316447
0.307856
0.00366915
0.319482
0.00408805
0.332395
0.00443667
0.346561
0.00476039
0.0053232
0.100484
-0.100117
0.101633
0.103525
0.106094
0.109259
0.112928
0.117016
0.121453
0.126213
0.0779299
0.159504
-0.142491
-0.0949427
0.0630264
0.14746
-0.132557
0.0496175
0.134406
-0.120997
0.0376027
0.120332
-0.108317
0.027026
0.105171
-0.0945939
0.0179776
0.0888943
-0.0798459
0.0105727
0.0714605
-0.0640557
0.00496323
0.0528094
-0.0471999
0.001348
0.0328743
-0.0292591
0.011639
-0.010291
0.0779398
0.174434
-0.0928694
0.0638704
0.16153
0.0508393
0.147437
0.0389378
0.132234
0.0282759
0.115832
0.0190002
0.0981701
0.0112895
0.0791712
0.00535957
0.0587394
0.00147721
0.0367567
0.0131162
0.073179
0.187928
-0.0866736
0.0603697
0.174339
0.0483502
0.159457
0.0372486
0.143335
0.0272031
0.125878
0.0183793
0.106994
0.0109766
0.0865738
0.00523535
0.0644806
0.00144963
0.0405424
0.0145658
0.0667707
0.200353
-0.0791956
0.055033
0.186077
0.0440493
0.17044
0.0339217
0.153463
0.0247665
0.135033
0.016727
0.115033
0.00998166
0.0933191
0.00475147
0.0697108
0.00130965
0.0439842
0.0158755
0.0593123
0.211657
-0.070616
0.0487153
0.196674
0.0388673
0.180288
0.0298411
0.162489
0.0217243
0.14315
0.0146296
0.122128
0.00870233
0.0992463
0.00412644
0.0742867
0.00113097
0.0469797
0.0170064
0.050598
0.221521
-0.060462
0.041411
0.205861
0.0329275
0.188772
0.0251972
0.170219
0.0182837
0.150064
0.0122721
0.12814
0.00727495
0.104243
0.00343653
0.0781251
0.000937283
0.0494789
0.0179437
0.0404572
0.229564
-0.0485001
0.0330126
0.213305
0.0261764
0.195608
0.0199773
0.176418
0.0144573
0.155583
0.00967743
0.13292
0.00572043
0.1082
0.00269376
0.0811518
0.000731838
0.0514408
0.0186755
0.0290541
0.235441
-0.0349317
0.0236512
0.218708
0.0187146
0.200544
0.0142551
0.180878
0.0102962
0.159542
0.00687751
0.136338
0.0040556
0.111022
0.00190427
0.0833031
0.000515282
0.0528298
0.0191908
0.0169174
0.238926
-0.0204019
0.0137418
0.221884
0.0108549
0.203431
0.0082548
0.183478
0.00595147
0.161846
0.00396649
0.138323
0.00233218
0.112657
0.00109066
0.0845446
0.000293241
0.0536272
0.0194841
0.00482784
-0.00589044
0.00388043
0.00303403
0.00228341
0.00162817
0.00107201
0.000621621
0.000285829
7.49716e-05
0.0436695
0.0414119
-0.0525682
-0.0325131
0.0352905
0.0383625
-0.0299835
0.0276183
0.0349623
-0.0272901
0.02088
0.0313464
-0.0246082
0.0150785
0.027778
-0.0219765
0.00997215
0.0242191
-0.0191128
0.00544245
0.0200828
-0.0155531
0.00197613
0.0144703
-0.0110039
0.000386798
0.00739865
-0.00580932
0.00208888
-0.00170208
0.0437647
0.0505853
-0.052938
0.0351107
0.0470164
0.0270671
0.0430059
0.0199165
0.038497
0.0139761
0.0337184
0.00925364
0.0289416
0.00550433
0.0238322
0.00257618
0.0173984
0.000621843
0.00935299
0.00271073
0.0449399
0.0601438
-0.0544985
0.0360146
0.0559418
0.0277736
0.0512469
0.0203334
0.0459372
0.0140199
0.0400319
0.00909817
0.0338633
0.00551459
0.0274157
0.00289204
0.020021
0.000809536
0.0114355
0.00352026
0.0473634
0.0703312
-0.0575508
0.037927
0.0653782
0.0293565
0.0598174
0.0216899
0.0536039
0.0150521
0.0466697
0.00970204
0.0392134
0.00576177
0.031356
0.0029587
0.0228241
0.000874934
0.0135193
0.0043952
0.0508288
0.0812576
-0.0617552
0.040725
0.075482
0.0316078
0.0689346
0.0235396
0.0616721
0.0165434
0.053666
0.0107456
0.0450111
0.00628166
0.03582
0.00306128
0.0260444
0.000880286
0.0157002
0.00527548
0.0545269
0.0928546
-0.0661238
0.0438058
0.086203
0.0341238
0.0786166
0.0255556
0.0702402
0.0181231
0.0610985
0.0118823
0.0512519
0.0069283
0.040774
0.00327838
0.0296944
0.000908469
0.0180702
0.00618395
0.0575816
0.104936
-0.0696631
0.0464222
0.0973624
0.0363193
0.0887195
0.027333
0.0792266
0.0194991
0.0689324
0.0128682
0.0578828
0.00751973
0.0461224
0.0035251
0.033689
0.000959578
0.0206357
0.00714353
0.059639
0.117263
-0.0719659
0.0482619
0.10874
0.0379198
0.0990617
0.0286578
0.0884885
0.0205277
0.0770625
0.0135986
0.064812
0.00796145
0.0517595
0.00372173
0.0379287
0.00100529
0.0233521
0.00814882
0.0614533
0.129717
-0.0739069
0.0499558
0.120237
0.0394069
0.109611
0.0298779
0.0980175
0.0214553
0.0854851
0.0142359
0.0720313
0.00833444
0.057661
0.00388453
0.0423786
0.00104189
0.0261948
0.00919071
0.0663097
-0.0790842
0.0539901
0.0426038
0.0323039
0.0231951
0.0153805
0.0089859
0.00416458
0.00110025
0.213792
0.0619938
-0.0777956
0.236477
0.0902502
-0.112936
0.261019
0.123739
-0.14828
0.277023
0.112459
-0.128463
0.276191
0.109557
-0.108725
0.25319
0.178652
-0.155651
0.218949
0.293647
-0.259406
0.174871
0.412555
-0.368476
0.11843
0.494684
-0.438243
0.461714
-0.395852
0.213145
0.0468387
0.23473
0.0686647
0.258365
0.100104
0.27499
0.095834
0.275773
0.108774
0.253575
0.20085
0.21916
0.328062
0.174626
0.457089
0.118096
0.551214
0.526872
0.212903
0.0319256
0.233636
0.0479321
0.256411
0.0773287
0.273038
0.0792066
0.274146
0.107666
0.252381
0.222616
0.217921
0.362522
0.173321
0.501689
0.117882
0.606652
0.590256
0.212994
0.016921
0.233194
0.0277325
0.255222
0.0553009
0.271398
0.0630303
0.271632
0.107432
0.249742
0.244506
0.215392
0.396871
0.171345
0.545737
0.118381
0.659616
0.651086
0.213297
0.00161369
0.233258
0.00777142
0.254593
0.0339657
0.269698
0.047926
0.268137
0.108993
0.245726
0.266917
0.21177
0.430828
0.169117
0.58839
0.119725
0.709007
0.709056
0.213666
-0.0140626
0.233609
-0.0121718
0.254205
0.0133696
0.26758
0.0345518
0.263552
0.113021
0.240441
0.290027
0.207311
0.463958
0.166912
0.628789
0.121452
0.754467
0.764385
0.213934
-0.0300073
0.234044
-0.0322809
0.253775
-0.00636184
0.264811
0.0235158
0.257854
0.119977
0.234096
0.313786
0.202296
0.495757
0.164715
0.66637
0.122669
0.796513
0.817391
0.213982
-0.0459999
0.234433
-0.0527318
0.253079
-0.0250074
0.261158
0.0154365
0.250967
0.130169
0.226813
0.337939
0.196773
0.525798
0.162098
0.701045
0.122352
0.836258
0.867777
0.213808
-0.061818
0.234754
-0.0736784
0.25199
-0.0422425
0.256649
0.0107768
0.243148
0.14367
0.218959
0.362129
0.190857
0.553899
0.158633
0.733269
0.120104
0.874787
0.913974
0.213679
-0.0775073
0.234968
-0.0949672
0.250495
-0.0577694
0.250945
0.010327
0.233869
0.160745
0.209898
0.3861
0.183619
0.580178
0.153448
0.76344
0.116429
0.911806
0.951319
0.331918
-0.107415
0.370537
-0.133586
0.406927
-0.0941596
0.424396
-0.00714209
0.438906
0.146236
0.46742
0.357586
0.506594
0.541005
0.54958
0.720454
0.581372
0.880014
0.946189
0.586502
0.333604
-0.139009
0.373126
-0.173108
0.408274
-0.129308
0.422156
-0.0210248
0.435529
0.132863
0.475936
0.317179
0.534285
0.482655
0.604468
0.650271
0.675402
0.80908
0.888604
0.732986
0.336327
-0.173326
0.375365
-0.212145
0.408645
-0.162588
0.417215
-0.0295955
0.427368
0.122711
0.473968
0.270578
0.546482
0.410142
0.638815
0.557938
0.742288
0.705607
0.784477
0.846416
0.340489
-0.211805
0.373361
-0.245017
0.384177
-0.173403
0.380568
-0.0259869
0.398986
0.104294
0.4529
0.216664
0.534128
0.328914
0.640518
0.451548
0.767083
0.579042
0.647065
0.904495
0.348506
-0.258301
0.356545
-0.253056
0.337452
-0.15431
0.334256
-0.0227914
0.358572
0.0799781
0.414025
0.16121
0.497245
0.245695
0.607878
0.340915
0.743738
0.443182
0.495864
0.894938
0.340776
-0.297068
0.321127
-0.233406
0.287849
-0.121032
0.283945
-0.0188874
0.308913
0.0550104
0.361086
0.109037
0.439746
0.167035
0.545755
0.234906
0.678765
0.310172
0.347984
0.826646
0.314272
-0.309329
0.271544
-0.190678
0.233592
-0.0830807
0.228614
-0.0139093
0.25104
0.0325845
0.29616
0.0639171
0.364608
0.0985862
0.458327
0.141188
0.578798
0.189701
0.215104
0.711678
0.273772
-0.281091
0.212871
-0.129777
0.174328
-0.0445381
0.168779
-0.00836053
0.186255
0.015109
0.220964
0.029208
0.274173
0.0453773
0.348684
0.0666763
0.44705
0.0913344
0.106139
0.556015
0.214646
-0.193726
0.140471
-0.0556024
0.109363
-0.0134299
0.104085
-0.00308217
0.115357
0.00383679
0.137273
0.00729172
0.171095
0.0115551
0.219971
0.0178009
0.28634
0.0249656
0.0304073
0.362071
0.108284
0.0526814
0.0392515
0.0361694
0.0400061
0.0472979
0.0588529
0.0766538
0.101619
0.132027
0.608657
-0.117098
0.632321
-0.116533
0.655139
-0.109491
0.67629
-0.100347
0.695234
-0.0895595
0.71137
-0.0765988
0.724263
-0.0613932
0.73359
-0.0442583
0.739075
-0.0258869
-0.00758338
0.75032
-0.134432
0.765223
-0.131436
0.779425
-0.123693
0.792649
-0.11357
0.804712
-0.101623
0.815847
-0.0877342
0.826403
-0.0719484
0.836392
-0.0542475
0.844841
-0.0343357
-0.0114668
0.851037
-0.139052
0.85348
-0.133879
0.854994
-0.125208
0.855371
-0.113948
0.854523
-0.100774
0.852622
-0.0858337
0.849896
-0.0692221
0.846739
-0.0510907
0.843946
-0.031543
-0.0105298
0.892552
-0.127109
0.878535
-0.119862
0.863855
-0.110528
0.849291
-0.0993833
0.835446
-0.0869296
0.823019
-0.0734069
0.812636
-0.0588384
0.804756
-0.0432111
0.799744
-0.0265313
-0.00887706
0.870311
-0.102481
0.845549
-0.0951007
0.821945
-0.0869233
0.80049
-0.0779281
0.781654
-0.0680942
0.765714
-0.0574669
0.75289
-0.0460141
0.743403
-0.0337241
0.737523
-0.0206517
-0.00695359
0.796998
-0.0728334
0.768934
-0.0670367
0.743122
-0.0611116
0.720037
-0.0548429
0.699971
-0.0480286
0.683112
-0.0406074
0.669641
-0.0325437
0.659769
-0.0238515
0.653726
-0.0146085
-0.00496377
0.682984
-0.0441393
0.6565
-0.0405524
0.632401
-0.0370128
0.610878
-0.0333202
0.592145
-0.0292954
0.576395
-0.024858
0.563828
-0.0199763
0.554646
-0.0146696
0.549043
-0.00900555
-0.00309475
0.53251
-0.0206337
0.510908
-0.0189508
0.491275
-0.0173795
0.473704
-0.0157489
0.45835
-0.0139423
0.445397
-0.0119046
0.435037
-0.00961618
0.427458
-0.00709084
0.422824
-0.00437152
-0.00152289
0.346789
-0.00535164
0.332647
-0.00480905
0.319752
-0.00448484
0.308137
-0.00413357
0.297908
-0.00371364
0.289215
-0.00321085
0.282219
-0.00262
0.277075
-0.00194739
0.273913
-0.00120946
-0.000429223
0.126675
0.121866
0.117381
0.113248
0.109534
0.106323
0.103703
0.101756
0.100546
0.000185057
0.0116092
-0.0117943
0.000623737
0.0304465
-0.0308852
0.00123716
0.0462417
-0.0468552
0.00197733
0.0594676
-0.0602077
0.00277662
0.0700216
-0.0708209
0.00376954
0.0798892
-0.0808821
0.00396348
0.0772674
-0.0774613
0.00408486
0.0700425
-0.0701639
0.00394498
0.0610797
-0.0609399
0.0499561
0.00350723
-0.0495184
0.000533397
0.0110758
0.00180387
0.029176
0.00358509
0.0444605
0.00574126
0.0573114
0.00807284
0.06769
0.0110396
0.0769224
0.011676
0.076631
0.0120809
0.0696376
0.0117737
0.061387
0.0510785
0.0106513
0.0008355
0.0102403
0.00283184
0.0271797
0.00563913
0.0416532
0.00904158
0.053909
0.0127395
0.0639921
0.0172475
0.0724144
0.0187902
0.0750883
0.0195719
0.068856
0.0193857
0.0615732
0.052435
0.0180292
0.00105598
0.00918436
0.00359702
0.0246387
0.00719366
0.0380566
0.0115559
0.0495467
0.0163567
0.0591914
0.0217478
0.0670232
0.0250729
0.0717632
0.0263552
0.0675736
0.0266035
0.0613249
0.0535668
0.0254717
0.00115146
0.0080329
0.00397934
0.0218108
0.00804179
0.0339942
0.012997
0.0445915
0.0185518
0.0536366
0.0245578
0.0610173
0.0299524
0.0663686
0.0320904
0.0654357
0.0330117
0.0604035
0.0540916
0.0324869
0.00111149
0.00692141
0.00396603
0.0189563
0.00818568
0.0297745
0.0133904
0.0393868
0.0193182
0.0477087
0.0257723
0.0545632
0.0324163
0.0597246
0.036313
0.061539
0.0381248
0.0585917
0.0537076
0.0385089
0.000926239
0.00599518
0.00357299
0.0163095
0.00771073
0.0256368
0.0128819
0.0342157
0.0187869
0.0418037
0.0253385
0.0480116
0.0323215
0.0527417
0.0382758
0.0555847
0.041588
0.0552795
0.0521834
0.0431121
0.000567821
0.00542736
0.0027866
0.0140907
0.00665749
0.0217659
0.0116214
0.0292518
0.0172044
0.0362207
0.0234475
0.0417685
0.0302863
0.0459029
0.0371845
0.0486864
0.042562
0.049902
0.0489244
0.045821
0.000103745
0.00532361
0.00176845
0.012426
0.00517554
0.0183588
0.00981467
0.0246127
0.0149567
0.0310787
0.020621
0.0361042
0.0269035
0.0396204
0.0335873
0.0420026
0.0400855
0.0434038
0.0437957
0.0452143
-0.000175809
0.00549942
0.00108647
0.0111637
0.00385544
0.0155899
0.0078859
0.0205822
0.0125002
0.0264644
0.0175707
0.0310337
0.0231767
0.0340143
0.0292492
0.0359301
0.0356361
0.037017
0.0373689
0.0420629
-2.16454e-05
0.00552107
0.00113914
0.010003
0.00327648
0.0134525
0.00641167
0.017447
0.0102929
0.0225832
0.0148345
0.0264921
0.0199547
0.0288942
0.0254873
0.0303974
0.0312253
0.031279
0.0316946
0.0368996
0.000376676
0.00514439
0.00153025
0.0088494
0.00317855
0.0118042
0.00548886
0.0151367
0.00870799
0.0193641
0.0128938
0.0223063
0.0177459
0.024042
0.0230134
0.0251299
0.0285052
0.0257872
0.0260576
0.0341422
0.00062324
0.00452116
0.00170514
0.00776749
0.00302494
0.0104844
0.0048444
0.0133172
0.00783608
0.0163724
0.0119262
0.0182162
0.0166785
0.0192897
0.0218534
0.019955
0.0273185
0.020322
0.0204035
0.0329725
0.000676469
0.00384469
0.00164191
0.00680205
0.00282179
0.00930454
0.00470577
0.0114333
0.00798255
0.0130956
0.0122155
0.0139832
0.0170348
0.0144705
0.0222786
0.0147112
0.0278507
0.01475
0.0145891
0.0336652
0.000664564
0.00318012
0.00155597
0.00591064
0.003001
0.0078595
0.00559351
0.00884075
0.00939064
0.00929845
0.0139185
0.00945533
0.0189677
0.00942124
0.0244389
0.00923999
0.0302641
0.00892475
0.00848139
0.0363718
0.000594786
0.00258533
0.00172287
0.00478254
0.00407775
0.00550461
0.00754384
0.00537465
0.0118053
0.00503697
0.0166619
0.00459877
0.0220121
0.00407098
0.0277969
0.00345517
0.0339649
0.00275681
0.00198909
0.0404572
0.000527913
0.00205741
0.00249995
0.0028105
0.00577636
0.00222819
0.00978212
0.00136888
0.0143805
0.000438623
0.019526
-0.00054674
0.0251887
-0.00159177
0.0313258
-0.00268193
0.0378762
-0.00379357
-0.00491455
0.0447798
0.000884141
0.00117326
0.00363542
5.92023e-05
0.00720206
-0.00133847
0.0113925
-0.00282156
0.0161939
-0.00436278
0.021617
-0.00596986
0.02762
-0.00759478
0.0341117
-0.00917357
0.0410086
-0.0106905
-0.0121761
0.0482702
0.00150696
-0.000333706
0.004135
-0.00256885
0.00755794
-0.00476141
0.0117762
-0.00703987
0.0167971
-0.0093836
0.0225407
-0.0117135
0.0288391
-0.0138932
0.0355712
-0.0159056
0.0427117
-0.0178311
-0.0197258
0.0502614
0.00104734
0.00313422
0.00645643
0.0109286
0.0163139
0.0222922
0.0287027
0.0355783
0.0429868
0.0509065
0.0514232
0.0837145
-0.0982382
0.0773376
-0.00754974
-0.0183647
0.0999855
-0.0512298
0.028582
0.11368
-0.0471498
0.0334555
0.12165
-0.0268626
0.0188925
0.125267
-0.00797399
0.00435674
0.126282
0.00348706
-0.00450226
0.126379
0.00748169
-0.00757843
0.126276
0.00775066
-0.00764803
0.00533256
-0.00595103
0.058641
0.0592156
0.0917224
-0.0406312
0.118925
-0.0784324
0.134959
-0.0631838
0.143693
-0.0355969
0.147344
-0.0116247
0.148083
0.00274846
0.147825
0.00773873
0.147384
0.00819257
0.005057
0.0666736
0.0255145
0.105124
-0.0790811
0.136165
-0.109473
0.155826
-0.0828455
0.165834
-0.0456043
0.169555
-0.0153456
0.16991
0.00239286
0.169137
0.00851163
0.168188
0.00914222
0.00526873
0.0755744
-0.0163948
0.117981
-0.121487
0.151919
-0.143412
0.175345
-0.106272
0.187405
-0.0576639
0.191462
-0.0194027
0.191473
0.00238227
0.190132
0.00985237
0.188593
0.0106806
0.00604957
0.0846475
-0.0646705
0.129825
-0.166665
0.165934
-0.179521
0.192674
-0.133012
0.207642
-0.0726322
0.212638
-0.0243979
0.212503
0.00251701
0.210639
0.0117159
0.208507
0.0128128
0.00742195
0.0931178
-0.117331
0.140321
-0.213868
0.178117
-0.217317
0.207422
-0.162317
0.225687
-0.0908966
0.232541
-0.0312525
0.232682
0.00237663
0.230464
0.0139331
0.227823
0.0154543
0.00934277
0.100321
-0.172872
0.149192
-0.26274
0.188368
-0.256493
0.219511
-0.193459
0.24084
-0.112226
0.25053
-0.0409424
0.251645
0.00126187
0.249392
0.0161857
0.246424
0.0184226
0.0117002
0.105907
-0.230509
0.156312
-0.313145
0.196632
-0.296813
0.229046
-0.225873
0.25278
-0.13596
0.265873
-0.0540353
0.268948
-0.00181367
0.267171
0.0179626
0.264174
0.0214196
0.0143075
0.109857
-0.290105
0.161712
-0.365
0.202934
-0.338035
0.236201
-0.25914
0.261556
-0.161315
0.277935
-0.0704148
0.28404
-0.00791803
0.283493
0.0185092
0.280908
0.0240041
0.0168942
0.112493
0.16557
0.20741
0.241166
0.267479
0.28644
0.296253
0.297956
0.296415
0.0132005
0.00607783
-0.0192783
0.010989
0.00221146
0.0115084
-0.00051934
0.0129319
-0.00142354
0.0136465
-0.00071455
0.0137621
-0.000115687
0.0135359
0.000226287
0.0131717
0.00036416
0.0129102
0.00026152
0.000359037
0.0372488
0.0232152
-0.0543861
0.0314941
0.00796611
0.0340061
-0.00303133
0.0380646
-0.00548205
0.0402366
-0.00288653
0.0406301
-0.000509184
0.0399848
0.000871573
0.0389844
0.00136458
0.0380576
0.00118832
0.00120482
0.0579659
0.0480956
-0.0828464
0.0508841
0.0150479
0.0558963
-0.00804357
0.0624784
-0.0120642
0.0661451
-0.00655324
0.066896
-0.00126002
0.0658993
0.00186829
0.0643171
0.00294675
0.062727
0.00277843
0.00245578
0.073906
0.0754004
-0.101211
0.0680824
0.0208714
0.0764526
-0.0164138
0.0857916
-0.0214032
0.0911093
-0.011871
0.0923588
-0.00250951
0.0911155
0.00311163
0.0890164
0.00504585
0.0868343
0.00496049
0.00405994
0.0813985
-0.104236
0.0839051
0.0960732
0.108125
0.115147
0.116994
0.115604
0.113071
0.110383
0.00273369
-0.000172927
-0.00256076
0.00326456
-0.000530875
0.0041768
-0.000912239
0.00548787
-0.00131107
0.0071843
-0.00169642
0.00922887
-0.00204458
0.0115855
-0.0023566
0.0141738
-0.00258834
0.016859
-0.00268514
-0.0024194
0.00778747
-0.000645703
-0.00731469
0.00923437
-0.00197778
0.0117138
-0.00339162
0.0152702
-0.00486748
0.0198845
-0.00631072
0.0254825
-0.0076426
0.0319648
-0.00883895
0.0391563
-0.0097798
0.0467677
-0.0102966
-0.0100379
0.0124781
-0.00138376
-0.0117401
0.0147278
-0.00422749
0.0185607
-0.00722451
0.0240247
-0.0103315
0.0310794
-0.0133654
0.0395862
-0.0161495
0.0493282
-0.018581
0.0600517
-0.0205032
0.0714159
-0.0216608
-0.0214684
0.0168075
-0.00234771
-0.0158436
0.0197318
-0.00715173
0.024675
-0.0121678
0.0316515
-0.017308
0.0405502
-0.022264
0.0511064
-0.0267057
0.0629377
-0.0304122
0.0756947
-0.0332603
0.0888614
-0.0348276
-0.0338176
0.0207931
-0.0196336
0.0242927
0.0301542
0.0383178
0.0485408
0.0603439
0.0730438
0.0856045
0.0959912
0.0314449
-0.0313063
0.0371111
-0.0372497
0.0255846
-0.0309033
0.0367637
0.0199262
-0.0300707
0.0357291
0.0146799
-0.0286746
0.033921
0.0100601
-0.0264661
0.0310858
0.00620488
-0.0227787
0.0266339
0.00311393
-0.0176476
0.0207386
0.0010175
-0.0136221
0.0157185
-8.66938e-05
-0.0101615
0.0112657
-0.0056422
0.00555551
0.0294615
-0.025443
-0.0353249
0.0237457
-0.0251875
0.0182558
-0.0245807
0.0131698
-0.0235886
0.00874083
-0.0220371
0.0053507
-0.0193885
0.00301995
-0.0153169
0.00139667
-0.0119988
0.000298274
-0.00906311
-0.00534392
0.0294332
-0.0194547
-0.0354214
0.0236291
-0.0193834
0.0181117
-0.0190634
0.0129983
-0.0184752
0.00849168
-0.0175304
0.00504299
-0.0159398
0.00300432
-0.0132782
0.00164472
-0.0106392
0.000582542
-0.00800093
-0.00476138
0.0313532
-0.0131917
-0.0376162
0.0253246
-0.0133548
0.0196141
-0.0133529
0.014308
-0.0131691
0.00954514
-0.0127675
0.0056502
-0.0120449
0.00319623
-0.0108242
0.00176066
-0.0092036
0.000726776
-0.00696704
-0.0040346
0.0349541
-0.00653644
-0.0416093
0.0285807
-0.00698144
0.0225612
-0.00733341
0.0169619
-0.00756971
0.0118733
-0.00767888
0.00747999
-0.0076516
0.00413414
-0.00747836
0.00199226
-0.0070617
0.000798225
-0.00577299
-0.00323637
0.039274
0.000571493
-0.0463819
0.0324912
-0.000198616
0.026106
-0.000948211
0.0201931
-0.00165676
0.014813
-0.00229879
0.0100288
-0.00286744
0.00592433
-0.00337388
0.00267394
-0.0038113
0.000720608
-0.00381965
-0.00251575
0.0431119
0.00808924
-0.0506297
0.0359344
0.00697893
0.0291506
0.00583561
0.0228605
0.00463329
0.0171666
0.00339515
0.0121085
0.0021907
0.00766722
0.00106739
0.00384885
7.07976e-06
0.000979587
-0.000950378
-0.00153616
0.0453906
0.0158942
-0.0531956
0.037962
0.0144076
0.0309069
0.0128907
0.0242616
0.0112786
0.0181692
0.00948755
0.0128162
0.00754376
0.00828152
0.00560206
0.00454053
0.00374808
0.0016319
0.00195826
9.57514e-05
0.0455435
0.0239977
-0.053647
0.0379249
0.0220262
0.0307948
0.0200208
0.0240657
0.0180077
0.017705
0.0158482
0.0119069
0.0133419
0.00704899
0.01046
0.00341807
0.007379
0.00114777
0.00422857
0.00124353
0.0444836
-0.052999
0.0365263
0.029257
0.0226566
0.0165283
0.0107574
0.00566423
0.0020393
0.000458554