/*--------------------------------*- C++ -*----------------------------------*\
  =========                 |
  \\      /  F ield         | OpenFOAM: The Open Source CFD Toolbox
   \\    /   O peration     | Website:  https://openfoam.org
    \\  /    A nd           | Version:  13
     \\/     M anipulation  |
\*---------------------------------------------------------------------------*/
FoamFile
{
    format      ascii;
    class       volScalarField;
    location    "0.825";
    object      strainRateViscosityModel:nu;
}
// * * * * * * * * * * * * * * * * * * * * * * * * * * * * * * * * * * * * * //

dimensions      [0 2 -1 0 0 0 0];

internalField   nonuniform List<scalar> 
1800
(
9.40488
9.1976
9.01007
8.80096
8.57616
8.34416
8.11548
7.89818
7.6242
7.37923
9.58523
9.41878
9.2669
9.09733
8.91118
8.71144
8.50358
8.28868
8.0273
7.70207
9.70219
9.56269
9.42803
9.27096
9.08869
8.879
8.64092
8.36904
8.03058
7.6106
9.77539
9.65614
9.53324
9.38287
9.20049
8.98172
8.72281
8.41597
8.02878
7.55456
9.82168
9.7183
9.60558
9.46167
9.28071
9.05696
8.78549
8.45889
8.04775
7.55614
9.85185
9.76081
9.6573
9.52059
9.34355
9.11896
8.84034
8.50016
8.07152
7.5702
9.87179
9.78991
9.69398
9.56396
9.39147
9.16769
8.8842
8.53252
8.08735
7.57567
9.88475
9.80924
9.71888
9.59394
9.42494
9.20146
8.91309
8.55005
8.08853
7.56355
9.8926
9.82107
9.73416
9.6122
9.44467
9.21962
8.92483
8.54922
8.07121
7.52871
9.89646
9.82685
9.74153
9.62069
9.45309
9.22573
8.92512
8.53953
8.05038
7.49285
1.80112
1.40522
1.20915
1.31984
1.73038
2.2517
2.49666
2.44892
2.35902
2.33533
3.73031
1.7809
1.49112
1.98114
2.6958
2.97253
2.81705
2.67147
2.68765
2.74106
4.70281
2.56962
2.4353
3.17674
3.59669
3.3461
3.08134
3.11818
3.25827
3.33888
5.26931
3.88157
3.81493
4.21356
4.18062
3.8292
3.72101
3.8549
3.95746
4.00646
6.05588
5.2751
5.11772
5.12135
4.91493
4.65321
4.57796
4.61216
4.61247
4.6522
6.95987
6.45984
6.22676
6.03827
5.78828
5.54534
5.38913
5.29327
5.22212
5.27471
7.77173
7.37771
7.11678
6.86032
6.58743
6.32055
6.08723
5.90089
5.77015
5.82372
8.40013
8.05531
7.79202
7.5158
7.22653
6.93123
6.6422
6.3863
6.19223
6.22923
8.84934
8.54538
8.29101
8.01033
7.70573
7.37951
7.03564
6.70112
6.41572
6.42171
9.16164
8.90154
8.66633
8.39668
8.09573
7.76578
7.40646
7.03565
6.70852
6.75238
2.19328
1.72908
1.33173
0.937182
0.619925
0.350127
0.186116
0.13938
0.155993
0.240012
2.52754
1.84813
1.4067
0.932419
0.593684
0.334289
0.175258
0.10341
0.103334
0.182946
2.9481
1.97721
1.47902
0.929742
0.557864
0.306955
0.163112
0.0872638
0.0631728
0.126226
3.44052
2.14714
1.55032
0.932645
0.518407
0.271869
0.145968
0.0751652
0.0574257
0.0679306
3.9828
2.38521
1.62777
0.941683
0.479587
0.232634
0.124986
0.0612699
0.0643588
0.0292227
4.52836
2.6964
1.72409
0.958077
0.444502
0.192155
0.100772
0.0489206
0.0537561
0.0499706
4.99686
3.05617
1.84607
0.980849
0.413275
0.15236
0.0750748
0.0388558
0.0331409
0.110475
5.31272
3.43921
2.01326
1.02365
0.392362
0.116208
0.0501236
0.0265137
0.0399929
0.173123
5.34323
3.72265
2.16292
1.05558
0.369254
0.0834937
0.0303777
0.0201808
0.0967152
0.237059
5.20198
3.98877
2.39849
1.15934
0.385723
0.0668838
0.0104325
0.0549075
0.143081
0.290721
4.94433
3.94232
2.45554
1.17332
0.360538
0.0527438
0.0296394
0.107471
0.202759
0.352385
5.33034
3.34758
2.13981
0.998731
0.359636
0.139919
0.118171
0.17562
0.275887
0.419913
4.90475
3.04595
2.24865
1.20632
0.591815
0.295221
0.204786
0.24505
0.339087
0.471674
4.54684
3.63242
2.68217
1.64146
0.893256
0.496456
0.339879
0.333122
0.405452
0.514765
5.11431
4.74788
3.34296
2.16456
1.23829
0.730151
0.497135
0.435578
0.473948
0.549443
6.25447
5.66956
4.05709
2.67384
1.59852
0.98166
0.673952
0.552064
0.547098
0.578908
7.26268
6.3737
4.71361
3.15449
1.95716
1.24041
0.859086
0.676593
0.623282
0.604854
8.0001
6.91202
5.25977
3.58889
2.29992
1.50053
1.04963
0.806885
0.702962
0.629912
8.51876
7.33072
5.69728
3.97
2.62033
1.75368
1.23624
0.934169
0.779896
0.652393
8.931
7.69118
6.0497
4.28302
2.92516
2.02409
1.44707
1.08209
0.875089
0.684786
6.51282
6.43966
6.43043
6.44874
6.48733
6.52991
6.58195
6.71048
6.89515
6.82619
0.260658
1.05708
2.00765
2.92268
3.70359
4.31619
4.73292
4.98241
5.22145
5.72761
3.85081
3.54393
3.2847
3.11148
3.10654
3.25013
3.47233
3.71344
4.16494
4.84474
6.64416
6.62722
6.53712
6.3447
6.04331
5.65793
5.24971
4.89619
4.7396
4.54953
7.69184
7.67653
7.63212
7.54129
7.39613
7.18986
6.92709
6.61954
6.28604
5.6565
8.44951
8.43311
8.39435
8.32771
8.22957
8.09671
7.92836
7.71683
7.42793
6.90784
8.93967
8.92393
8.89028
8.83679
8.76166
8.6629
8.53815
8.37892
8.15467
7.80862
9.27298
9.25981
9.23246
9.18985
9.13052
9.05245
8.95269
8.82481
8.65281
8.4309
9.50446
9.49417
9.47307
9.44024
9.39426
9.33319
9.25424
9.15286
9.02288
8.87534
9.6899
9.68285
9.66852
9.64604
9.61405
9.5707
9.51361
9.43975
9.34638
9.2441
7.24803
7.52617
7.83692
8.08767
8.34481
8.59962
8.84139
9.06158
9.25458
9.46025
7.58309
7.94805
8.24096
8.48112
8.70935
8.92482
9.1223
9.299
9.45391
9.61805
7.49849
7.95737
8.32595
8.6205
8.87575
9.09774
9.28806
9.44952
9.58535
9.72225
7.44688
7.9576
8.37376
8.702
8.97659
9.20597
9.39471
9.54806
9.67131
9.78824
7.45632
7.98066
8.4186
8.7649
9.05054
9.28356
9.46977
9.61591
9.72868
9.83022
7.48241
8.01168
8.46402
8.82147
9.11234
9.34475
9.52606
9.66446
9.76796
9.85764
7.50364
8.03786
8.50277
8.86863
9.16197
9.39189
9.56763
9.6989
9.79479
9.8757
7.51114
8.05246
8.52871
8.90209
9.19746
9.42521
9.5964
9.72212
9.81243
9.88729
7.49836
8.05045
8.53742
8.91898
9.21768
9.44503
9.61371
9.73606
9.82289
9.89404
7.48288
8.04358
8.53592
8.92344
9.22525
9.4533
9.62123
9.74216
9.82746
9.89693
2.55912
2.51555
2.53329
2.74491
2.93079
2.55837
1.70172
1.18308
1.524
4.20035
2.9658
2.87751
2.71766
2.71521
3.10491
3.43333
2.82489
1.90921
2.12709
5.13752
3.4529
3.4095
3.25168
3.0651
3.26502
3.82402
3.80457
3.16326
3.29105
5.45693
3.94379
3.93305
3.90673
3.7976
3.89042
4.31792
4.58962
4.46877
4.6621
5.91415
4.49664
4.46918
4.54463
4.61637
4.78034
5.11396
5.43844
5.6194
5.89715
6.63184
5.1003
5.05779
5.19748
5.39598
5.65695
5.98045
6.3087
6.59556
6.90106
7.40676
5.65297
5.61675
5.81769
6.09034
6.40768
6.74088
7.06857
7.37819
7.6788
8.08659
6.06625
6.05173
6.31489
6.64222
6.99495
7.33981
7.66731
7.97421
8.25898
8.61108
6.26004
6.27902
6.63088
7.02586
7.42012
7.78442
8.11674
8.4167
8.68284
8.98797
6.5999
6.56979
6.95596
7.37947
7.78134
8.14312
8.46654
8.75045
8.99301
9.25186
0.113078
0.155014
0.122746
0.0639092
0.0157726
0.394741
0.931839
1.48474
1.95157
2.43358
0.0796592
0.140503
0.11858
0.0662248
0.0154663
0.387244
0.93584
1.54751
2.03036
2.69944
0.0579192
0.132136
0.116787
0.0694659
0.0242906
0.387313
0.94182
1.59724
2.1007
3.00941
0.0447901
0.129755
0.118549
0.076804
0.0423918
0.394918
0.947667
1.63412
2.20397
3.39581
0.0382235
0.132462
0.122484
0.0862965
0.0654803
0.404285
0.950663
1.66954
2.38176
3.86592
0.0373191
0.139433
0.126962
0.0952997
0.0892726
0.411974
0.954751
1.72682
2.64826
4.36311
0.042296
0.150841
0.130745
0.101649
0.10904
0.415553
0.965111
1.82242
2.98018
4.7939
0.0537924
0.167208
0.133477
0.105525
0.124351
0.424013
1.00579
1.98143
3.34697
5.07858
0.0735793
0.188292
0.135284
0.103075
0.127398
0.42388
1.04263
2.13267
3.62545
5.08174
0.104345
0.210916
0.137719
0.103958
0.142563
0.470641
1.17914
2.3909
3.87526
4.89036
0.161041
0.239498
0.143178
0.101039
0.131108
0.473606
1.24389
2.50389
3.88455
4.67278
0.264122
0.271003
0.133056
0.0758753
0.0695236
0.384395
1.11853
2.30235
3.42942
5.19195
0.429006
0.270239
0.0998341
0.0141958
0.0150283
0.345711
1.14956
2.35124
3.25614
4.93788
0.682269
0.254401
0.0228301
0.0812637
0.101038
0.53921
1.43247
2.62495
3.71556
4.69841
1.06566
0.0476229
0.263944
0.23568
0.314631
0.891325
1.93408
3.20683
4.70729
5.17768
1.51469
0.122487
0.538404
0.416496
0.596223
1.30829
2.4742
3.91733
5.59883
6.2234
2.19503
0.683404
0.856011
0.689313
0.942242
1.73843
2.99231
4.59358
6.30247
7.21636
3.7922
1.70631
1.27479
1.03701
1.31817
2.15031
3.46125
5.16516
6.85409
7.96877
6.86014
3.57569
1.96342
1.42166
1.67946
2.52393
3.87336
5.63117
7.29514
8.50724
9.04906
6.38369
2.84307
2.00197
2.11595
2.8966
4.22373
6.01908
7.68651
8.93809
6.62445
6.6875
6.5108
6.38903
6.34868
6.32251
6.30554
6.31733
6.36195
6.47625
5.52805
5.00921
4.76547
4.52445
4.12635
3.54043
2.79855
1.93208
1.04466
0.284222
4.84964
4.23674
3.8273
3.6168
3.43004
3.31059
3.31547
3.45772
3.65543
3.87436
4.71249
4.88599
5.02848
5.33798
5.70214
6.05239
6.33393
6.5214
6.61653
6.64158
5.68798
6.28595
6.61236
6.91136
7.17237
7.38147
7.5318
7.62814
7.67669
7.69239
6.8659
7.38861
7.68443
7.90231
8.07658
8.21483
8.3178
8.38855
8.43054
8.44888
7.7651
8.12049
8.35196
8.5179
8.64796
8.75098
8.82956
8.88582
8.92164
8.93899
8.40453
8.63268
8.80887
8.94093
9.04401
9.12465
9.18596
9.23006
9.25854
9.27259
8.86615
9.01619
9.14761
9.2506
9.33082
9.39283
9.43944
9.47267
9.494
9.50442
9.24869
9.35045
9.44301
9.51631
9.57294
9.61588
9.64748
9.66957
9.68348
9.69012
9.50947
8.98534
8.23589
6.92826
5.59797
0.131167
3.36084
5.96039
7.21409
8.15187
9.46542
8.92156
8.16813
6.89059
5.54939
0.563769
2.62222
5.70602
6.91644
7.91396
9.36568
8.78282
8.02028
6.80962
5.36636
1.60348
1.41357
5.20663
6.30935
7.40331
9.18255
8.54513
7.7745
6.65512
5.18645
2.74004
0.723099
4.23839
5.42158
6.57149
8.86812
8.1736
7.40402
6.37695
5.02653
3.36803
0.970959
2.63163
4.31696
5.39381
8.35053
7.62973
6.87343
5.9173
4.76512
3.44005
1.71925
1.30194
3.0493
3.98815
7.53605
6.89661
6.15556
5.22758
4.29967
3.26955
2.14311
1.17253
1.65627
2.55744
6.32539
6.03758
5.28135
4.2319
3.53344
2.9126
2.11846
1.43523
1.06859
1.23539
4.63171
5.23227
4.47437
2.99959
2.43709
2.27445
1.85603
1.38489
1.12274
0.65917
2.67281
4.53958
4.02166
1.9667
1.39676
1.48834
1.40995
1.21178
1.06409
0.845256
1.27677
3.78903
3.66666
1.33718
0.816158
0.897649
0.971129
0.956342
0.971798
1.01989
0.613504
2.96992
3.08224
0.95646
0.575304
0.640007
0.759494
0.820081
0.844077
0.87705
0.355385
2.18973
2.28547
0.688156
0.492643
0.595398
0.726505
0.810876
0.84866
0.873415
0.265322
1.55079
1.48921
0.521593
0.534673
0.674318
0.787836
0.858868
0.882281
0.892518
0.239651
1.01886
0.845506
0.514432
0.669848
0.803461
0.904677
0.968184
0.983889
0.980777
0.242867
0.492943
0.500053
0.636659
0.817731
0.955233
1.053
1.11067
1.12119
1.11301
0.176936
0.204035
0.50835
0.756393
0.975056
1.12085
1.21051
1.25751
1.27432
1.27495
0.0451854
0.252003
0.649466
0.92296
1.13627
1.25362
1.3297
1.39959
1.45622
1.47804
0.0611926
0.492552
0.822405
1.09605
1.2297
1.33854
1.48919
1.64794
1.73514
1.75062
0.697212
0.865524
1.04052
1.18335
1.32312
1.59723
1.91032
2.07995
2.08153
2.04843
0.363064
0.0805324
0.223907
0.550816
0.794816
0.891601
0.887006
0.83863
0.78817
0.753604
0.462122
0.202407
0.319275
0.521549
0.724056
0.810788
0.80846
0.767818
0.724444
0.704527
0.52581
0.372374
0.440203
0.513808
0.653562
0.730692
0.731638
0.697841
0.660935
0.655004
0.638987
0.588057
0.595696
0.555709
0.587443
0.643532
0.649787
0.625436
0.596654
0.605105
0.806127
0.803704
0.742233
0.638338
0.542222
0.556334
0.56607
0.552143
0.532147
0.554854
1.00971
0.999641
0.875558
0.737831
0.531136
0.474768
0.481007
0.477897
0.467474
0.504225
1.22779
1.17121
0.990481
0.825979
0.553098
0.408953
0.397439
0.403471
0.402949
0.453122
1.45252
1.32537
1.08926
0.888593
0.589879
0.368553
0.319697
0.329885
0.338895
0.401362
1.685
1.46881
1.17563
0.923833
0.619711
0.354433
0.254426
0.258921
0.275795
0.348759
1.92627
1.60371
1.25506
0.937236
0.630185
0.353904
0.209201
0.193722
0.214417
0.294957
2.00917
0.747547
0.717856
0.965731
1.19831
1.28492
1.25909
1.18025
1.10895
1.01022
1.39445
0.483009
0.579346
0.875039
1.11014
1.19861
1.17777
1.10589
1.03766
0.951716
0.751604
0.288023
0.481454
0.79805
1.0358
1.12647
1.10999
1.04366
0.979137
0.904432
0.253364
0.170378
0.405848
0.726303
0.96068
1.05009
1.03641
0.975698
0.91545
0.853572
0.435828
0.032703
0.267435
0.613364
0.864638
0.965716
0.96063
0.907323
0.851974
0.80331
9.35465
9.29006
9.14101
8.87311
8.43757
7.77891
6.87137
5.75933
4.58201
3.53712
9.19249
9.09566
8.88112
8.51167
7.94153
7.13649
6.10967
4.95512
3.84479
2.78684
9.02389
8.90028
8.62663
8.16106
7.46178
6.51618
5.37146
4.16866
3.0813
1.94239
8.81633
8.66222
8.32151
7.74794
6.90619
5.81427
4.555
3.29482
2.22583
1.08996
8.58751
8.3794
7.92585
7.17747
6.11254
4.79211
3.35064
2.08512
0.993892
0.302009
1.0602
1.0244
1.01619
1.01971
0.915123
0.799614
1.29337
3.68343
3.85985
1.32291
0.94914
0.933696
0.926084
0.870642
0.718727
0.588438
0.91073
3.14203
3.11009
0.647344
0.985904
0.98237
0.965487
0.892696
0.747231
0.584231
0.698095
2.37283
2.34701
0.37739
1.05334
1.06524
1.06108
1.00125
0.889759
0.740447
0.655405
1.55784
1.63512
0.277235
1.18604
1.2102
1.21591
1.16819
1.077
0.95181
0.789136
0.910368
0.92009
0.24613
1.35131
1.37124
1.37953
1.35444
1.2846
1.15133
0.929932
0.670164
0.358448
0.216796
1.55587
1.55181
1.5194
1.47703
1.42625
1.32001
1.07988
0.754425
0.272556
0.0664274
1.82405
1.81767
1.73508
1.58204
1.44198
1.34536
1.21063
0.90211
0.494566
0.0467847
2.10445
2.15176
2.15027
1.95639
1.61262
1.323
1.18721
1.05721
0.856895
0.676025
2.31281
2.3596
2.48421
2.53658
2.23444
1.63284
1.18261
1.06666
1.3047
2.04279
8.15168
7.21373
5.96003
3.36033
0.131423
5.5965
6.92777
8.2357
8.98536
9.50956
7.91328
6.91533
5.70501
2.62161
0.563639
5.54554
6.88914
8.16755
8.92161
9.46573
7.40186
6.30746
5.20484
1.41547
1.59976
5.36187
6.80735
8.01941
8.78295
9.36627
6.56884
5.41868
4.23623
0.726271
2.73173
5.18172
6.65228
7.77353
8.54546
9.18358
5.38943
4.31247
2.63265
0.97103
3.35669
5.02057
6.3735
7.40309
8.17434
8.86988
3.97982
3.04147
1.31018
1.71322
3.42678
4.75624
5.91249
6.87255
7.63122
8.35351
2.54109
1.65349
1.18716
2.13287
3.25089
4.28301
5.21885
6.15466
6.89952
7.54138
1.2176
1.08763
1.45171
2.10725
2.88048
3.50308
4.21751
5.28211
6.04358
6.33607
0.671607
1.15288
1.40705
1.84233
2.23203
2.40024
2.98385
4.47943
5.2436
4.65554
0.884816
1.10238
1.24704
1.41262
1.46375
1.36895
1.94328
4.02658
4.5652
2.71655
2.09005
0.543306
1.06116
0.629079
0.66082
0.758467
0.632597
0.30028
0.0619641
0.356484
1.63028
0.236774
0.870044
0.478803
0.566791
0.681294
0.593731
0.356863
0.265836
0.488463
1.33432
0.0583388
0.641922
0.340435
0.478177
0.602049
0.562567
0.459561
0.473215
0.59103
1.09814
0.014696
0.393967
0.231831
0.393457
0.518535
0.5628
0.626083
0.73275
0.758302
0.84816
0.0891706
0.189672
0.158357
0.315727
0.442104
0.609145
0.8052
0.974977
0.977529
0.635986
0.153889
0.0532374
0.101342
0.243945
0.386383
0.694708
0.975256
1.19432
1.2249
0.463788
0.209172
0.0490461
0.0532945
0.180381
0.365156
0.788531
1.11918
1.38655
1.48112
0.331537
0.210094
0.107256
0.0107979
0.122267
0.373909
0.862519
1.2361
1.55833
1.73608
0.233164
0.195715
0.121939
0.0354464
0.0643848
0.391086
0.906212
1.33133
1.71216
1.97725
0.162456
0.174297
0.127301
0.0572535
0.0289568
0.399118
0.925461
1.4126
1.84526
2.20075
9.33657
6.77033
2.66496
1.69944
1.20183
1.12051
0.964668
0.781605
0.796365
2.03313
8.21092
4.63645
2.21504
1.41742
1.06919
1.03561
0.891078
0.650954
0.527934
1.39865
6.12015
3.06395
1.78533
1.21006
0.964227
0.971264
0.832106
0.561211
0.328778
0.741041
4.13318
1.8759
1.49745
1.00354
0.858149
0.904077
0.775775
0.487675
0.228664
0.225159
2.8356
1.06126
1.24632
0.802877
0.755011
0.826499
0.686051
0.356391
0.0444307
0.398134
3.5477
4.58915
5.76324
6.87355
7.78045
8.43871
8.87389
9.14148
9.29033
9.35474
2.78094
3.84106
4.95237
6.1079
7.13588
7.94154
8.51189
8.88135
9.09583
9.19255
1.92842
3.07191
4.16219
5.3667
6.51362
7.46063
8.16064
8.62654
8.9003
9.02392
1.05565
2.20313
3.28163
4.54677
5.81005
6.90397
7.74682
8.32105
8.66207
8.8163
0.300526
0.962719
2.06398
3.33751
4.78515
6.10894
7.17549
7.9249
8.37903
8.58742
)
;

boundaryField
{
    left
    {
        type            calculated;
        value           nonuniform List<scalar> 
35
(
0.297844
0.566677
0.987119
1.62621
2.52455
3.69555
5.06612
6.47608
8.1585
9.4418
0.213529
0.133623
0.081231
0.0493503
0.0326753
0.0274305
0.0328065
0.052232
0.0921636
0.159913
4.93339
4.06161
3.2348
2.51295
1.91712
1.42718
1.03084
0.724718
0.496328
0.330452
9.61573
8.97907
7.92205
6.84777
5.85939
)
;
    }
    right
    {
        type            calculated;
        value           nonuniform List<scalar> 
35
(
1.00975
0.951484
0.904553
0.854569
0.805479
0.757345
0.709936
0.661945
0.613474
0.564529
0.515002
0.464657
0.41313
0.360007
0.304684
0.247008
0.185876
0.123423
0.0598927
0.0224603
0.0455925
0.115816
0.190588
0.261187
0.318312
0.382504
0.44998
0.500046
0.539586
0.569156
0.59267
0.612797
0.633211
0.652944
0.682775
)
;
    }
    down
    {
        type            calculated;
        value           nonuniform List<scalar> 
40
(
9.45431
7.26633
2.89589
1.78862
1.24258
1.1489
0.990155
0.823147
0.89746
2.26035
3.83287
4.88244
6.03396
7.09288
7.94461
8.55502
8.95447
9.19925
9.33565
9.39488
9.39478
9.33536
9.19874
8.95361
8.55369
7.94267
7.08994
6.02876
4.8732
3.8189
2.23229
0.847644
0.761745
0.997684
1.23006
1.31456
1.28606
1.20426
1.13195
1.02914
)
;
    }
    up
    {
        type            calculated;
        value           nonuniform List<scalar> 
40
(
9.0341
7.80882
6.16757
4.39479
3.0334
2.11898
1.51965
1.13119
0.906992
0.696823
9.72927
9.72305
9.71045
9.69064
9.66234
9.62377
9.57263
9.50586
9.42076
9.32814
9.33506
9.42656
9.5104
9.57623
9.62665
9.66461
9.69238
9.71169
9.72379
9.72952
9.27074
7.09622
3.23907
2.15378
2.23528
3.01614
4.3459
6.14873
7.81368
9.04496
)
;
    }
    cylinder
    {
        type            calculated;
        value           nonuniform List<scalar> 
80
(
2.00225
4.57171
5.53878
5.77931
6.30489
7.09056
7.8618
8.47477
8.91246
9.2129
9.44581
9.61871
9.72981
9.79829
9.84096
9.86846
9.8865
9.89817
9.90522
9.90869
9.50039
9.6506
9.74902
9.81046
9.849
9.87389
9.89016
9.90054
9.90657
9.90913
5.32769
6.23412
6.21138
6.31585
6.83455
7.52666
8.1762
8.68599
9.05066
9.3025
0.99429
0.471555
0.2642
0.183215
0.159559
0.165578
0.0828482
0.0422807
0.750192
2.43219
9.59446
9.55588
9.46745
9.30187
9.00979
8.51137
7.68627
6.36657
4.38722
2.23877
9.59436
9.55556
9.46683
9.30079
9.00793
8.5082
7.68053
6.3545
4.35816
2.19134
0.952823
0.442285
0.24435
0.170844
0.15028
0.165485
0.160885
0.0839316
0.0433598
0.737375
)
;
    }
    defaultFaces
    {
        type            empty;
    }
}


// ************************************************************************* //
