/*--------------------------------*- C++ -*----------------------------------*\
  =========                 |
  \\      /  F ield         | OpenFOAM: The Open Source CFD Toolbox
   \\    /   O peration     | Website:  https://openfoam.org
    \\  /    A nd           | Version:  13
     \\/     M anipulation  |
\*---------------------------------------------------------------------------*/
FoamFile
{
    format      ascii;
    class       volScalarField;
    location    "0.195";
    object      p;
}
// * * * * * * * * * * * * * * * * * * * * * * * * * * * * * * * * * * * * * //

dimensions      [0 2 -2 0 0 0 0];

internalField   nonuniform List<scalar> 
440
(
8.14192
10.8982
13.259
13.4365
10.4602
21.0315
24.4152
27.4105
28.11
26.2216
41.5662
44.598
47.3012
48.0937
46.9327
67.6996
69.7977
71.7113
72.3678
71.6801
96.9784
97.7954
98.5924
98.9923
98.9585
-0.00302332
-0.126668
0.314334
0.855804
1.19136
-1.26399
-1.95507
-1.72687
-1.05796
-0.43286
-1.67598
-2.5661
-2.50453
-1.76824
-0.660416
-0.359009
-0.490576
-0.0877779
0.86937
2.72948
3.4029
4.71548
6.14446
7.57235
9.82014
2.44476
2.68246
1.75729
0.983057
0.330733
1.3674
2.44679
1.63852
0.922076
0.31589
0.19208
2.01059
1.49774
0.871165
0.305005
-0.0974489
1.41985
1.29783
0.826998
0.298707
1.84676
0.856379
1.02877
0.783076
0.296919
4.77041
0.638527
0.725008
0.733735
0.299606
7.05823
0.972522
0.744051
0.755314
0.292657
10.3071
2.72099
1.41197
0.892495
0.267493
14.226
5.12618
2.49808
1.12676
0.252739
16.9814
7.54187
3.79772
1.49508
0.310478
101.002
76.1518
53.6364
33.4641
12.67
102.698
79.253
57.8447
39.3624
23.7921
104.598
83.0149
62.7854
45.541
33.1933
105.481
85.3357
66.8194
51.5035
40.9826
105.4
85.0573
66.644
51.5709
41.2262
220.195
216.738
216.459
218.584
221.32
203.004
200.55
200.817
203.561
206.854
180.859
179.091
179.457
181.881
184.76
155.06
153.719
153.925
155.519
157.416
127.178
126.465
126.404
126.865
127.457
235.704
236.114
236.715
237.092
236.805
236.417
237.034
237.562
237.511
236.539
235.33
236.304
236.719
236.447
235.449
230.461
232.073
232.657
232.81
232.718
221.94
223.82
224.855
226.08
227.439
236.412
235.026
235.179
234.21
234.423
236.376
235.015
235.159
234.215
235.062
236.369
234.987
235.139
234.38
235.681
236.39
234.939
235.161
234.651
235.291
236.428
234.878
235.24
234.848
232.568
236.484
234.794
235.3
234.636
228.988
236.633
234.686
235.2
234.263
226.665
237.406
234.457
234.532
232.546
223.643
241.286
234.442
233.331
229.98
219.909
250.21
235.154
232.177
227.398
217.127
218.055
196.533
175.335
152.047
126.761
207.687
191.693
172.646
150.741
126.969
199.208
186.525
168.935
148.402
126.647
192.029
181.079
165.403
146.571
126.232
191.803
181.059
165.659
146.971
126.463
96.7076
95.8306
95.3827
94.6159
94.4594
57.648
55.7002
53.9946
52.0735
51.3078
29.836
27.4914
24.7293
22.4319
21.1075
15.3968
12.9797
10.5176
8.50146
7.531
9.56198
7.67641
6.2987
5.33238
4.7442
6.30974
5.21296
4.64923
4.57454
4.66902
4.37178
3.92125
3.86558
4.03567
4.19729
3.06656
3.06751
3.31224
3.62253
3.78456
2.0416
2.335
2.781
3.12861
3.27513
1.05716
1.42595
1.97196
2.36558
2.54057
4.00127
3.5426
2.42093
1.27752
0.405726
4.03654
3.37588
2.32772
1.22724
0.394402
3.8298
3.13099
2.19943
1.18098
0.383387
3.52262
2.91967
2.04344
1.12257
0.368171
3.11511
2.79345
1.88828
1.05173
0.348434
4.86515
3.51547
2.31373
1.26555
0.408659
4.14616
3.61849
2.42101
1.29907
0.412085
95.2155
54.4803
27.8623
14.8489
9.83152
93.9945
51.4701
23.3353
9.83048
5.62753
232.367
232.451
232.414
231.917
230.848
232.975
233.152
233.393
233.447
233.087
233.522
233.693
234.076
234.476
234.652
234.056
234.206
234.599
235.178
235.577
234.737
234.969
235.452
236.019
236.24
142.269
142.077
141.249
140.738
139.827
185.481
184.672
182.694
180.928
178.949
215.761
214.39
212.042
209.229
206.854
229.378
228.37
226.324
223.832
221.387
232.221
231.604
230.641
229.271
227.376
239.224
234.817
234.89
233.753
233.116
237.6
234.859
234.975
233.927
233.155
236.919
234.939
235.068
234.136
233.465
236.616
234.997
235.146
234.273
233.784
236.481
235.023
235.178
234.278
234.053
252.59
236.129
235.273
233.718
232.205
243.516
235.061
234.835
233.636
232.908
227.171
222.097
208.998
182.301
141.517
231.365
227.128
213.556
185.326
142.74
)
;

boundaryField
{
    left
    {
        type            zeroGradient;
    }
    right
    {
        type            fixedValue;
        value           uniform 0;
    }
    down
    {
        type            zeroGradient;
    }
    up
    {
        type            zeroGradient;
    }
    cylinder
    {
        type            zeroGradient;
    }
    defaultFaces
    {
        type            empty;
    }
}


// ************************************************************************* //
