/*--------------------------------*- C++ -*----------------------------------*\
  =========                 |
  \\      /  F ield         | OpenFOAM: The Open Source CFD Toolbox
   \\    /   O peration     | Website:  https://openfoam.org
    \\  /    A nd           | Version:  13
     \\/     M anipulation  |
\*---------------------------------------------------------------------------*/
FoamFile
{
    format      ascii;
    class       volScalarField;
    location    "0.195";
    object      strainRateViscosityModel:nu;
}
// * * * * * * * * * * * * * * * * * * * * * * * * * * * * * * * * * * * * * //

dimensions      [0 2 -1 0 0 0 0];

internalField   nonuniform List<scalar> 
440
(
9.41953
8.96973
8.54437
8.0418
7.58438
9.68997
9.35822
8.98186
8.48008
7.8753
9.80076
9.53089
9.15886
8.58523
7.8484
9.84964
9.61822
9.25871
8.64773
7.8663
9.86919
9.65611
9.306
8.68108
7.90895
1.29224
1.76542
2.01701
2.26416
2.32877
3.37931
3.29694
3.30585
3.41046
3.48144
5.89186
5.27551
4.9304
4.72676
4.75501
7.77044
6.99591
6.42267
5.90508
5.8258
8.82081
8.15174
7.55226
6.91735
6.86939
1.82489
0.78667
0.245741
0.0269553
0.0103552
2.61449
0.90832
0.225348
0.0278272
0.010405
3.51855
1.19174
0.229425
0.0285285
0.0105286
4.09461
1.50701
0.267327
0.0272701
0.0105928
4.60139
1.83126
0.3678
0.0321076
0.01038
4.25051
1.8327
0.305166
0.0156461
0.0151457
3.71047
1.7107
0.375416
0.20383
0.317286
4.91305
3.15708
1.19023
0.765384
0.801014
7.01219
4.26995
1.88429
1.10846
1.02615
8.2723
5.07291
2.53924
1.58596
1.30286
2.84922
3.68359
4.62116
5.50748
6.15065
3.68424
3.69622
3.77041
3.84949
3.36408
8.22727
8.08739
7.80017
7.38581
6.34465
9.05311
8.99263
8.85947
8.62222
8.16122
9.60671
9.56995
9.48699
9.33794
9.11854
7.50449
8.01251
8.5589
9.0107
9.46448
7.79426
8.45125
8.98669
9.37775
9.70873
7.77893
8.5588
9.15923
9.54073
9.80947
7.81625
8.62753
9.25737
9.62276
9.85361
7.89141
8.67375
9.3054
9.65747
9.87036
2.44898
2.38993
2.19361
2.0467
1.97105
3.45563
3.40477
3.43887
3.64889
4.16808
4.65232
4.67074
5.04979
5.58648
6.4187
5.70326
5.84026
6.50298
7.18697
8.03515
6.76224
6.84787
7.58234
8.24312
8.9355
0.103531
0.0388104
0.175124
0.710144
1.94836
0.0782308
0.0549601
0.163386
0.79777
2.64857
0.0654273
0.0791164
0.166448
1.07797
3.47391
0.0562495
0.111003
0.20688
1.4327
3.9861
0.0663503
0.147838
0.317844
1.78938
4.40187
0.136895
0.1974
0.313314
1.92524
4.14411
0.290013
0.193968
0.150683
1.64908
3.84377
0.561165
0.491621
0.814284
2.9692
4.88661
2.21543
1.06636
1.58907
4.14593
6.96188
5.03557
2.72396
2.52897
5.05097
8.27852
5.96099
5.27779
4.41013
3.515
2.78199
3.5135
3.98186
3.96383
3.8722
3.76274
6.31603
7.35172
7.77994
8.06885
8.21941
8.12275
8.60102
8.85015
8.98902
9.05227
9.11657
9.33759
9.4873
9.57047
9.60695
9.31003
7.91536
1.39815
3.62817
7.73518
9.08073
7.43897
3.2049
1.63926
6.78701
8.39678
6.57515
4.20647
1.00365
4.14391
6.8129
5.09109
3.45158
1.70373
1.03594
4.50242
3.14
2.03496
1.38037
0.464373
2.60152
1.6186
1.00893
0.813502
0.941792
1.45417
0.783067
0.599937
0.642214
0.714055
0.769541
0.412759
0.612606
0.780688
0.854439
0.277595
0.50773
0.870822
1.03902
1.09978
0.161131
0.907566
1.24399
1.47834
1.53328
0.198574
0.369224
0.696583
0.812366
0.849896
0.420711
0.490295
0.534224
0.617493
0.652161
0.631303
0.617861
0.375387
0.400276
0.44529
0.952075
0.735875
0.297103
0.148767
0.127312
1.29412
0.764141
0.264889
0.042302
0.0149692
1.118
0.898887
1.15925
1.23429
1.24439
0.271753
0.500745
0.880514
1.00522
1.03671
9.1902
8.83733
7.75666
5.72884
3.56008
8.58591
7.72101
5.8486
3.48701
0.857389
0.978864
0.878052
1.03955
1.62243
2.65973
0.843618
0.799368
0.730401
0.832114
1.51072
1.06953
1.02017
0.857555
0.560752
0.699194
1.34072
1.30149
1.10464
0.764549
0.201323
1.76484
1.71768
1.47278
1.1701
0.581861
7.73471
3.62509
1.39945
7.91359
9.31018
6.78315
1.63896
3.20165
7.43584
9.08137
4.12998
1.01111
4.1926
6.57047
8.39838
1.03299
1.70991
3.43068
5.08192
6.81944
0.480238
1.38165
2.01371
3.12291
4.52491
1.25181
0.67652
0.59457
0.453393
0.183914
0.592082
0.454274
0.472923
0.518213
0.514608
0.319476
0.180025
0.332759
0.600915
0.808885
0.226238
0.0202978
0.253899
0.695992
1.17327
0.153625
0.0308727
0.191575
0.710329
1.49358
5.46481
2.55541
1.13429
1.00918
1.1554
2.846
1.21332
0.80039
0.580134
0.243004
3.56974
5.73474
7.75787
8.83785
9.19035
0.834507
3.46735
5.84197
7.71964
8.58576
)
;

boundaryField
{
    left
    {
        type            calculated;
        value           nonuniform List<scalar> 
17
(
0.374894
0.952818
2.08791
3.8919
6.57662
0.292546
0.226472
0.201195
0.192998
0.220031
2.93182
1.9766
1.20375
0.71669
0.439713
6.9741
4.56879
)
;
    }
    right
    {
        type            calculated;
        value           nonuniform List<scalar> 
17
(
1.24501
1.0364
0.847722
0.648176
0.438857
0.120674
0.0135949
0.0101246
0.0101201
0.0101409
0.0101449
0.0100498
0.0190619
0.353055
0.839367
1.04466
1.296
)
;
    }
    down
    {
        type            calculated;
        value           nonuniform List<scalar> 
20
(
5.9802
3.07667
1.24062
1.09412
1.85729
4.26857
6.38171
8.12937
9.0146
9.3084
9.30823
9.01396
8.12786
6.37739
4.26121
1.83397
0.972895
1.22835
1.29773
1.30119
)
;
    }
    up
    {
        type            calculated;
        value           nonuniform List<scalar> 
20
(
8.5475
5.39833
2.75931
1.71492
1.36932
9.69563
9.66614
9.59852
9.47406
9.29304
9.29585
9.47617
9.60005
9.66721
9.69602
5.68634
3.2994
2.76869
5.40556
8.5641
)
;
    }
    cylinder
    {
        type            calculated;
        value           nonuniform List<scalar> 
40
(
1.36016
3.5808
6.11641
7.96083
8.95714
9.5051
9.74577
9.8408
9.88146
9.89747
9.54782
9.76294
9.84858
9.88497
9.8985
2.1987
4.43761
6.66357
8.22835
9.07023
3.04833
1.83911
1.04378
0.38075
0.600755
9.51842
9.331
8.7407
7.26735
4.98538
9.51825
9.33025
8.7386
7.25898
4.95678
2.97237
1.73634
1.04656
0.624578
0.0897377
)
;
    }
    defaultFaces
    {
        type            empty;
    }
}


// ************************************************************************* //
