/*--------------------------------*- C++ -*----------------------------------*\
  =========                 |
  \\      /  F ield         | OpenFOAM: The Open Source CFD Toolbox
   \\    /   O peration     | Website:  https://openfoam.org
    \\  /    A nd           | Version:  13
     \\/     M anipulation  |
\*---------------------------------------------------------------------------*/
FoamFile
{
    format      ascii;
    class       volVectorField;
    location    "0.435";
    object      U;
}
// * * * * * * * * * * * * * * * * * * * * * * * * * * * * * * * * * * * * * //

dimensions      [0 1 -1 0 0 0 0];

internalField   nonuniform List<vector> 
1800
(
(0.097803 -0.0883307 -4.49286e-20)
(0.286898 -0.241954 -3.41417e-20)
(0.473974 -0.379045 -4.85085e-19)
(0.657689 -0.500154 1.91493e-19)
(0.836603 -0.607158 7.4374e-20)
(1.0099 -0.701353 -3.90392e-20)
(1.17713 -0.78343 5.54585e-20)
(1.3379 -0.853621 1.96917e-19)
(1.49155 -0.91288 5.91964e-19)
(1.63347 -0.966791 8.09715e-19)
(0.119063 -0.0915044 -7.91281e-20)
(0.344294 -0.247712 -7.70636e-19)
(0.563285 -0.384751 3.78168e-21)
(0.775363 -0.504235 1.2582e-19)
(0.9795 -0.608915 -1.26304e-19)
(1.1752 -0.70068 7.66739e-20)
(1.36229 -0.780762 -2.81048e-19)
(1.54075 -0.850058 -5.01185e-20)
(1.71007 -0.910647 -6.93052e-19)
(1.86781 -0.966966 6.29406e-19)
(0.141653 -0.0923244 4.88241e-20)
(0.403683 -0.247734 2.09294e-19)
(0.653758 -0.382119 5.43375e-19)
(0.892179 -0.497905 -1.90287e-19)
(1.11865 -0.598381 -1.43029e-19)
(1.33321 -0.685803 7.56386e-20)
(1.53604 -0.761689 9.83275e-20)
(1.72741 -0.827271 1.94092e-19)
(1.90718 -0.884763 2.73442e-21)
(2.07418 -0.937815 1.5099e-19)
(0.163909 -0.089722 -4.572e-20)
(0.461702 -0.239472 -2.04397e-19)
(0.741432 -0.367621 -1.81268e-19)
(1.00451 -0.476978 -1.42314e-19)
(1.25162 -0.57102 1.81334e-19)
(1.48351 -0.652122 -5.70962e-20)
(1.70092 -0.721895 -4.31233e-21)
(1.90452 -0.781604 2.9867e-21)
(2.09454 -0.833339 -1.60351e-19)
(2.27023 -0.88032 -1.06039e-19)
(0.18466 -0.0833574 -1.14049e-19)
(0.515898 -0.221809 8.76346e-20)
(0.823297 -0.339433 1.79854e-19)
(1.10932 -0.439065 2.43324e-19)
(1.37562 -0.524071 -2.85054e-19)
(1.62371 -0.596774 -3.58083e-21)
(1.85494 -0.65876 4.2504e-19)
(2.07042 -0.711251 -1.85047e-19)
(2.27082 -0.756147 -1.23995e-19)
(2.45577 -0.796373 -5.36339e-20)
(0.203192 -0.0735008 1.736e-19)
(0.564475 -0.195202 1.02989e-18)
(0.896798 -0.298076 1.43259e-19)
(1.20352 -0.384736 -5.0317e-19)
(1.4872 -0.458227 -1.7552e-19)
(1.75003 -0.520668 6.37745e-19)
(1.99391 -0.573521 -1.45408e-19)
(2.22036 -0.617893 -4.31656e-19)
(2.43047 -0.655434 -3.16582e-19)
(2.62419 -0.688727 2.61595e-19)
(0.218901 -0.0605919 1.16344e-19)
(0.605751 -0.160702 -7.47621e-19)
(0.959321 -0.245032 -1.08566e-18)
(1.28372 -0.315799 3.83808e-19)
(1.58224 -0.375565 4.49979e-19)
(1.85768 -0.426127 -9.02165e-22)
(2.1124 -0.468737 -6.39748e-19)
(2.3483 -0.504321 2.19322e-19)
(2.56684 -0.534206 -3.64341e-19)
(2.76828 -0.560559 -3.11136e-19)
(0.231238 -0.0451727 -3.42499e-19)
(0.638206 -0.119685 -6.92626e-19)
(1.0085 -0.182295 1.21226e-18)
(1.34678 -0.234701 5.98722e-19)
(1.65695 -0.278853 -2.69775e-19)
(1.94226 -0.316135 -2.11507e-19)
(2.20544 -0.347513 0)
(2.44876 -0.373686 1.16821e-19)
(2.67399 -0.395617 -2.95849e-19)
(2.88173 -0.414963 -7.74777e-20)
(0.239769 -0.0278757 -2.04472e-19)
(0.660659 -0.0737564 5.62412e-19)
(1.0425 -0.112199 1.71024e-19)
(1.39032 -0.14429 -5.12519e-19)
(1.70842 -0.171276 -7.84225e-19)
(2.00039 -0.194052 3.66226e-20)
(2.26925 -0.213244 1.67121e-19)
(2.51754 -0.229291 -5.46863e-19)
(2.74733 -0.24278 -2.89756e-19)
(2.95955 -0.254773 -5.63583e-19)
(0.244263 -0.0094025 4.51425e-19)
(0.67246 -0.0247041 3.44168e-19)
(1.06031 -0.0373614 -9.3861e-20)
(1.41305 -0.0477879 -1.29865e-20)
(1.73516 -0.0564612 -3.87519e-19)
(2.03043 -0.0637216 -8.57332e-20)
(2.30207 -0.069808 -2.90585e-19)
(2.55278 -0.0748878 6.46578e-19)
(2.78482 -0.0791681 1.71006e-19)
(2.99947 -0.0830085 2.23141e-21)
(-0.0023536 -0.021844 -2.95382e-20)
(0.00873293 -0.0693024 -7.29932e-20)
(0.025046 -0.12005 -7.2491e-21)
(0.0494276 -0.170434 -3.45499e-20)
(0.0777689 -0.215727 -1.26822e-20)
(0.106662 -0.25392 -3.89392e-19)
(0.135752 -0.287907 -1.90926e-20)
(0.166565 -0.321205 1.19892e-19)
(0.199388 -0.354655 1.10534e-20)
(0.233275 -0.386956 -3.62592e-20)
(0.000831662 -0.0247706 -9.7815e-20)
(0.0149927 -0.0851386 -2.08272e-19)
(0.0393356 -0.159868 -5.81731e-20)
(0.0692686 -0.224548 -1.10862e-19)
(0.0995844 -0.274851 -9.84301e-20)
(0.13066 -0.317336 -2.81641e-19)
(0.164727 -0.3583 2.01598e-19)
(0.202385 -0.399608 1.67288e-19)
(0.241882 -0.439432 -2.54657e-19)
(0.281413 -0.475757 8.06195e-20)
(0.00548447 -0.0315719 -8.54726e-20)
(0.0287909 -0.107456 -8.55695e-19)
(0.0627899 -0.195762 -1.26628e-19)
(0.0974352 -0.268496 9.55598e-20)
(0.131911 -0.326751 6.8134e-20)
(0.169826 -0.379781 -4.57047e-19)
(0.213123 -0.431694 3.62974e-20)
(0.259306 -0.481071 3.66353e-19)
(0.30568 -0.525469 -3.8484e-19)
(0.351669 -0.564823 -2.57709e-19)
(0.0113662 -0.0410551 -1.86627e-21)
(0.0466224 -0.130892 1.88061e-19)
(0.0895905 -0.225141 1.72385e-21)
(0.133064 -0.306764 -1.13565e-20)
(0.177847 -0.377566 -3.01453e-20)
(0.227331 -0.443463 9.01953e-20)
(0.281175 -0.505107 7.48632e-20)
(0.335761 -0.560291 -1.36504e-19)
(0.389865 -0.608721 9.22419e-21)
(0.444067 -0.651243 -1.04374e-20)
(0.0185098 -0.0508139 0)
(0.0672323 -0.152436 5.38943e-21)
(0.121908 -0.253546 -5.04987e-19)
(0.178681 -0.345329 5.0819e-20)
(0.237823 -0.428376 -1.30035e-20)
(0.300537 -0.504802 8.98327e-21)
(0.365331 -0.573995 -2.62923e-20)
(0.429847 -0.634979 -7.8584e-21)
(0.494011 -0.688324 0)
(0.558219 -0.73428 -2.05933e-20)
(0.0273288 -0.0596736 3.15931e-20)
(0.0918923 -0.172866 -1.52852e-19)
(0.16175 -0.282487 -4.49561e-20)
(0.234615 -0.383812 -5.86237e-20)
(0.309728 -0.476628 4.98114e-20)
(0.386727 -0.561344 3.41437e-21)
(0.464231 -0.637437 9.34909e-20)
(0.540932 -0.704611 -2.17557e-20)
(0.616909 -0.763047 -6.97752e-19)
(0.69216 -0.812195 -1.01171e-20)
(0.0379787 -0.0676177 7.17118e-22)
(0.121237 -0.192188 5.6666e-20)
(0.209155 -0.310604 -7.89404e-20)
(0.299913 -0.420136 -1.67627e-20)
(0.392118 -0.520594 -7.28501e-20)
(0.484753 -0.612004 -1.07433e-20)
(0.576669 -0.694145 8.56914e-21)
(0.666904 -0.766905 -2.13335e-19)
(0.755483 -0.829966 3.84398e-19)
(0.842269 -0.881969 9.72641e-19)
(0.0503648 -0.0746084 1.52332e-20)
(0.155131 -0.209617 -1.42541e-19)
(0.263457 -0.33596 -2.14241e-19)
(0.373658 -0.452089 8.91784e-20)
(0.484083 -0.558218 -6.43204e-20)
(0.593515 -0.654536 9.98398e-20)
(0.700904 -0.741153 1.98328e-19)
(0.805359 -0.818129 -1.10141e-19)
(0.906961 -0.884891 -3.06457e-19)
(1.00562 -0.939259 7.26124e-19)
(0.0642927 -0.0803641 -2.64001e-20)
(0.193287 -0.224031 -5.78246e-19)
(0.324294 -0.356558 5.24548e-19)
(0.455674 -0.477217 3.37712e-19)
(0.585721 -0.586715 -8.6041e-20)
(0.713197 -0.685606 3.09327e-19)
(0.837092 -0.77435 -1.60045e-19)
(0.956515 -0.853338 -7.74771e-19)
(1.07167 -0.921875 -4.04121e-19)
(1.1826 -0.977079 4.54201e-19)
(0.0795474 -0.0846688 -7.98491e-20)
(0.235848 -0.234421 -5.44343e-19)
(0.392391 -0.370524 -8.17074e-21)
(0.547536 -0.492787 6.87331e-20)
(0.699581 -0.602443 3.37916e-19)
(0.847371 -0.700396 -1.85568e-19)
(0.989982 -0.787383 -1.69824e-19)
(1.12649 -0.863742 1.89356e-19)
(1.25675 -0.928533 -3.51977e-19)
(1.38 -0.980207 -5.85085e-19)
(0.403203 -0.530808 1.0023e-18)
(0.685048 -0.616736 -2.82486e-19)
(0.913501 -0.555464 -1.5328e-19)
(1.08615 -0.428649 2.86428e-19)
(1.23638 -0.277896 -2.39329e-19)
(1.35434 -0.13662 -2.95129e-19)
(1.44408 -0.0337676 -2.50585e-19)
(1.49715 0.00669652 -3.20738e-20)
(1.52028 0.00963749 1.06944e-19)
(1.53873 0.00562919 3.40011e-20)
(0.469273 -0.618694 9.77619e-19)
(0.741964 -0.692124 7.86621e-20)
(0.966542 -0.615305 1.08453e-20)
(1.12417 -0.477376 -2.34607e-19)
(1.26272 -0.317269 -7.80893e-19)
(1.37274 -0.167404 0)
(1.46031 -0.0548908 -2.28654e-19)
(1.51874 -0.00632776 5.65055e-20)
(1.54917 0.00118584 4.60183e-21)
(1.58062 0.000991112 -5.92584e-20)
(0.55661 -0.704423 -9.99188e-19)
(0.811384 -0.76512 -7.22376e-20)
(1.02611 -0.673119 1.59929e-19)
(1.16629 -0.52403 -5.29282e-20)
(1.28955 -0.35536 -3.5107e-20)
(1.38964 -0.197473 6.51374e-20)
(1.47055 -0.0760236 0)
(1.52348 -0.0193673 0)
(1.55277 -0.0075974 -6.25084e-20)
(1.5857 -0.00416723 0)
(0.666 -0.786275 -2.243e-19)
(0.896178 -0.833771 4.00112e-19)
(1.09266 -0.727851 2.6922e-20)
(1.21309 -0.56771 0)
(1.31746 -0.391456 6.46122e-19)
(1.4058 -0.226016 -1.62335e-19)
(1.47799 -0.0957903 0)
(1.52371 -0.0313456 1.52097e-19)
(1.55224 -0.0158875 0)
(1.58334 -0.00862639 2.20594e-20)
(0.795904 -0.863079 -1.49244e-19)
(0.998092 -0.896072 4.48852e-19)
(1.16686 -0.778318 -1.48009e-20)
(1.26467 -0.607615 0)
(1.34688 -0.424894 1.83712e-19)
(1.42123 -0.252639 2.99091e-19)
(1.48387 -0.113947 4.88205e-20)
(1.5233 -0.0429194 7.21045e-21)
(1.55176 -0.0239871 -3.28288e-20)
(1.58173 -0.0129305 3.02117e-20)
(0.94229 -0.934066 -1.32272e-18)
(1.1168 -0.950644 -9.32792e-19)
(1.24941 -0.823209 4.83612e-21)
(1.32088 -0.642984 5.60846e-19)
(1.37802 -0.454971 -2.9821e-19)
(1.43564 -0.277091 1.52976e-19)
(1.48848 -0.130766 2.56342e-19)
(1.52304 -0.0542608 -1.94595e-19)
(1.55168 -0.0318601 -1.85377e-21)
(1.58118 -0.0170469 9.93025e-21)
(1.10006 -0.998854 -2.58097e-19)
(1.2502 -0.997284 2.84066e-19)
(1.3406 -0.861372 4.0738e-21)
(1.38153 -0.673056 -1.70891e-20)
(1.41102 -0.4809 -5.66734e-19)
(1.44877 -0.299021 5.34249e-20)
(1.49167 -0.146429 -9.60975e-20)
(1.52306 -0.0654822 -3.03164e-20)
(1.55204 -0.0396182 7.66172e-21)
(1.5817 -0.021102 -2.1233e-20)
(1.26422 -1.05633 -1.20225e-18)
(1.39483 -1.03659 2.08279e-19)
(1.43945 -0.892198 0)
(1.44574 -0.697333 3.30497e-20)
(1.44534 -0.502059 4.95808e-19)
(1.46012 -0.318066 -8.23947e-22)
(1.49277 -0.161108 -2.86421e-19)
(1.52309 -0.0767595 4.78876e-20)
(1.55272 -0.0473099 1.22075e-22)
(1.583 -0.0251667 1.53766e-20)
(1.43187 -1.10308 3.3911e-18)
(1.54805 -1.06948 2.47987e-19)
(1.54581 -0.916389 4.60059e-19)
(1.5138 -0.716185 -3.1062e-20)
(1.48121 -0.518463 -3.35185e-20)
(1.46961 -0.334179 -3.99939e-19)
(1.49097 -0.175233 7.36319e-20)
(1.52206 -0.0879051 3.37035e-21)
(1.55291 -0.054568 -2.80961e-20)
(1.5753 -0.0290505 -5.26644e-20)
(1.5991 -1.12786 -2.99903e-18)
(1.7018 -1.09482 1.27462e-18)
(1.65407 -0.936594 -2.27897e-19)
(1.58186 -0.733088 -7.73193e-19)
(1.51583 -0.533613 -6.41556e-19)
(1.47533 -0.350769 -2.48928e-19)
(1.48391 -0.19095 -5.07542e-20)
(1.5171 -0.10013 0)
(1.53438 -0.0594372 1.19086e-21)
(1.52687 -0.0308268 3.4797e-20)
(1.88804 -1.16991 -6.71999e-18)
(1.9273 -1.10442 -1.6961e-18)
(1.80493 -0.930883 -5.71132e-20)
(1.67344 -0.724957 1.12747e-19)
(1.56178 -0.529238 1.69184e-19)
(1.48393 -0.356888 -1.1371e-19)
(1.47304 -0.202495 -2.98094e-20)
(1.47484 -0.105347 4.04362e-20)
(1.45675 -0.0568536 -3.91684e-20)
(1.44252 -0.0294902 -2.42019e-20)
(2.28918 -1.13451 4.94939e-19)
(2.17879 -1.05601 -2.68124e-19)
(1.94309 -0.864174 5.4262e-19)
(1.73697 -0.662705 -9.88166e-20)
(1.56575 -0.477395 9.62874e-20)
(1.43912 -0.322358 -1.92351e-20)
(1.3804 -0.190859 8.58674e-20)
(1.35313 -0.0982646 -2.84034e-20)
(1.33778 -0.0489678 1.56124e-19)
(1.32318 -0.0260732 7.32034e-20)
(2.61056 -1.04332 2.27078e-18)
(2.35232 -0.948336 3.26314e-19)
(2.00939 -0.758711 -1.18792e-19)
(1.73511 -0.571428 1.26318e-36)
(1.51067 -0.407819 -2.5732e-20)
(1.34752 -0.277915 1.47551e-33)
(1.25947 -0.169309 -1.40093e-20)
(1.22535 -0.0880714 -1.5956e-33)
(1.20632 -0.0432079 7.38337e-21)
(1.19046 -0.0230894 -2.2243e-20)
(2.78723 -0.893791 3.89378e-33)
(2.37008 -0.795307 2.96481e-18)
(1.97488 -0.629902 1.8224e-18)
(1.65571 -0.468256 0)
(1.41073 -0.332854 8.55212e-19)
(1.23571 -0.22766 4.44334e-19)
(1.1319 -0.142615 1.43781e-19)
(1.08563 -0.0763118 -2.60544e-33)
(1.06442 -0.036774 -6.06119e-20)
(1.04811 -0.0196713 1.77232e-20)
(2.76387 -0.705772 3.84419e-18)
(2.24635 -0.629675 -1.46939e-19)
(1.84739 -0.490663 0)
(1.51693 -0.361058 0)
(1.27407 -0.254443 0)
(1.10132 -0.17432 0)
(0.992724 -0.111593 -1.19379e-20)
(0.939126 -0.062015 -3.86947e-33)
(0.915278 -0.0299614 7.52229e-21)
(0.898407 -0.0160686 1.8658e-33)
(2.5513 -0.516979 3.26734e-18)
(2.0203 -0.462833 0)
(1.63902 -0.353491 0)
(1.32753 -0.256452 0)
(1.10266 -0.178982 0)
(0.944367 -0.122906 0)
(0.841394 -0.0804251 3.2499e-20)
(0.785619 -0.0464196 -6.00405e-20)
(0.760127 -0.0226757 8.1133e-21)
(0.743068 -0.0122914 4.56931e-20)
(2.19018 -0.342694 0)
(1.70275 -0.303488 1.10015e-18)
(1.36152 -0.227554 1.09335e-18)
(1.09171 -0.161885 0)
(0.899378 -0.111947 6.75687e-19)
(0.765699 -0.0771436 4.14482e-19)
(0.676723 -0.051568 2.45056e-19)
(0.624852 -0.0309281 6.46429e-20)
(0.599768 -0.0153336 7.00232e-21)
(0.583322 -0.00851873 -4.29484e-21)
(1.70288 -0.191131 -6.73812e-19)
(1.30024 -0.165587 -2.74057e-19)
(1.02517 -0.121738 1.75512e-19)
(0.815269 -0.0844099 -2.12391e-34)
(0.668222 -0.0578934 -7.69861e-20)
(0.567245 -0.040239 3.74231e-33)
(0.49884 -0.0275927 4.96702e-20)
(0.456427 -0.0172578 9.58971e-20)
(0.434579 -0.00864995 9.19313e-21)
(0.420113 -0.00502148 -8.3728e-21)
(1.10089 -0.0758194 3.40777e-18)
(0.82318 -0.0626768 -1.86276e-19)
(0.640634 -0.0442876 -5.88392e-19)
(0.506218 -0.0289876 0)
(0.41405 -0.0195009 -6.39927e-19)
(0.351256 -0.0138207 -4.30765e-19)
(0.307938 -0.0099157 -1.93572e-19)
(0.279672 -0.00666067 -1.25237e-19)
(0.264245 -0.00344033 1.25006e-19)
(0.253844 -0.00216289 -9.24783e-21)
(0.397353 -0.00331877 0)
(0.287869 0.00159288 0)
(0.220903 0.00409257 0)
(0.173564 0.00623462 0)
(0.142438 0.00582496 0)
(0.121425 0.00466247 0)
(0.106488 0.00348115 5.71668e-20)
(0.0960995 0.00225926 -2.10458e-34)
(0.0899514 0.00156164 1.15971e-20)
(0.0855321 0.000566532 1.32968e-20)
(3.36712 -0.0863076 5.39195e-19)
(3.32643 -0.265079 -8.41862e-20)
(3.24736 -0.430645 8.52059e-19)
(3.13239 -0.582141 -6.04883e-19)
(2.98634 -0.718099 6.66296e-19)
(2.81522 -0.836344 2.75029e-19)
(2.62658 -0.934004 -1.92826e-18)
(2.42947 -1.00777 -7.71803e-20)
(2.22462 -1.05357 0)
(1.98478 -1.06641 4.26716e-19)
(3.86193 -0.0750536 7.07347e-18)
(3.7986 -0.2342 1.95633e-18)
(3.70428 -0.387292 -4.8669e-18)
(3.58425 -0.531965 -4.48963e-19)
(3.44237 -0.665858 3.55825e-18)
(3.28183 -0.787269 1.92294e-18)
(3.10646 -0.894995 -5.1671e-18)
(2.92199 -0.9876 -1.9515e-18)
(2.72752 -1.06325 2.20249e-18)
(2.49228 -1.12032 8.52057e-19)
(3.83311 -0.0532939 -1.26238e-19)
(3.82027 -0.171554 4.40389e-18)
(3.7855 -0.299746 -1.08847e-18)
(3.72438 -0.4309 -3.44619e-18)
(3.63622 -0.558705 -6.80089e-18)
(3.52375 -0.678765 1.02783e-17)
(3.3912 -0.788737 4.18042e-18)
(3.24352 -0.887903 -3.91117e-18)
(3.08161 -0.9786 -2.90225e-18)
(2.88721 -1.06284 -3.42422e-18)
(3.62868 -0.0472779 -4.83942e-18)
(3.61963 -0.144923 -4.35354e-18)
(3.59966 -0.243729 5.47241e-18)
(3.56739 -0.343078 1.91204e-18)
(3.52245 -0.442355 -8.97242e-18)
(3.46423 -0.540775 4.92319e-19)
(3.39191 -0.637003 3.88697e-18)
(3.30522 -0.730374 -1.05423e-18)
(3.20511 -0.822992 1.27706e-18)
(3.08318 -0.914681 2.81713e-19)
(3.34406 -0.0365714 -9.15987e-19)
(3.33901 -0.11165 3.0041e-18)
(3.32712 -0.188672 1.61954e-18)
(3.30746 -0.267167 -1.89399e-18)
(3.27989 -0.346064 -2.00144e-18)
(3.24469 -0.424126 -2.43463e-18)
(3.20209 -0.500316 3.79796e-19)
(3.15183 -0.574462 1.38801e-19)
(3.09559 -0.647711 -2.14017e-18)
(3.033 -0.72124 -2.03495e-18)
(2.96257 -0.0265486 -1.82249e-18)
(2.95981 -0.0798843 -5.87252e-20)
(2.95331 -0.134596 -1.63752e-18)
(2.94241 -0.1909 3.1215e-19)
(2.92677 -0.248548 5.36781e-18)
(2.90631 -0.306927 -3.66809e-19)
(2.88094 -0.365111 4.43494e-20)
(2.85026 -0.422051 -2.60868e-18)
(2.81649 -0.476868 -3.49598e-18)
(2.78607 -0.529839 3.72518e-19)
(2.48713 -0.0175064 -2.89317e-20)
(2.48578 -0.0519316 -8.14317e-19)
(2.4826 -0.087246 -2.61485e-18)
(2.47708 -0.12377 -3.43101e-18)
(2.46881 -0.161533 2.49653e-18)
(2.45745 -0.200266 1.50223e-18)
(2.44263 -0.239351 -1.38503e-18)
(2.42372 -0.277788 1.62444e-18)
(2.40277 -0.314478 -4.29786e-19)
(2.38957 -0.349532 -9.63811e-19)
(1.91464 -0.0096857 7.72457e-19)
(1.91408 -0.0282958 -8.3179e-19)
(1.91278 -0.0474386 -3.27662e-20)
(1.91032 -0.0673585 -3.47297e-20)
(1.90624 -0.0881298 -7.27457e-20)
(1.90013 -0.109614 -2.33191e-18)
(1.89151 -0.131404 -6.78665e-19)
(1.87979 -0.152781 2.62602e-18)
(1.86665 -0.172972 -6.03462e-19)
(1.86193 -0.192203 -1.35104e-18)
(1.23988 -0.00373649 -1.64281e-18)
(1.23967 -0.0106949 -8.48903e-19)
(1.23923 -0.0179008 2.33919e-18)
(1.23823 -0.0254785 -8.89767e-19)
(1.23625 -0.0334754 -6.74121e-19)
(1.2329 -0.0418317 1.35202e-18)
(1.22775 -0.05035 -1.29587e-18)
(1.22038 -0.0586653 1.28696e-18)
(1.21202 -0.0663418 -1.21027e-18)
(1.21008 -0.0735069 -4.24802e-18)
(0.454915 -0.000257875 6.6308e-19)
(0.454826 -0.000700472 7.03052e-19)
(0.454691 -0.0011591 7.4818e-19)
(0.454324 -0.00164007 1.35397e-18)
(0.453495 -0.00214022 -6.71982e-19)
(0.451983 -0.00263724 -1.2996e-18)
(0.449567 -0.00309917 6.14704e-19)
(0.445992 -0.00359298 2.48363e-20)
(0.441736 -0.00439226 -4.96518e-20)
(0.440349 -0.00504563 1.1057e-19)
(1.65344 0.997026 -2.85505e-19)
(1.51218 0.941666 1.80097e-20)
(1.35872 0.880603 -2.27854e-19)
(1.19763 0.808337 1.76484e-19)
(1.02954 0.723912 -1.92566e-19)
(0.854809 0.627038 -1.01196e-19)
(0.673755 0.516923 2.32051e-19)
(0.487038 0.392142 -3.05096e-19)
(0.295896 0.250645 3.09883e-19)
(0.101433 0.0916469 2.38833e-19)
(1.88629 0.992017 0)
(1.7296 0.934609 6.38551e-19)
(1.56078 0.872674 3.3146e-19)
(1.38225 0.801789 1.63248e-19)
(1.19451 0.719839 4.31948e-19)
(0.997525 0.625878 -8.68986e-20)
(0.791361 0.518595 -7.85908e-20)
(0.576352 0.395992 8.88988e-20)
(0.353325 0.25518 -1.0453e-18)
(0.122703 0.0943586 -1.6577e-20)
(2.09097 0.958921 1.5681e-19)
(1.92518 0.904983 0)
(1.7461 0.846403 -1.00763e-19)
(1.55491 0.779512 -3.8378e-19)
(1.35169 0.702061 5.37229e-20)
(1.13609 0.612781 3.97331e-19)
(0.907788 0.510089 -6.07037e-19)
(0.666598 0.391643 -2.0087e-19)
(0.412604 0.25405 7.83641e-19)
(0.145255 0.0947382 -1.76003e-19)
(2.2848 0.898279 1.8833e-19)
(2.11041 0.850507 1.20959e-20)
(1.92128 0.797825 2.44486e-20)
(1.7181 0.736979 3.61436e-20)
(1.50058 0.665845 -2.91816e-20)
(1.26793 0.58313 2.73346e-19)
(1.01927 0.487171 -2.06905e-19)
(0.753684 0.375536 -8.55685e-19)
(0.47028 0.244683 0)
(0.167393 0.091699 0)
(2.46794 0.811772 -1.07034e-18)
(2.28434 0.770804 -6.086e-19)
(2.08492 0.725041 -1.20593e-19)
(1.87003 0.671511 -6.65801e-20)
(1.63891 0.608291 0)
(1.39032 0.534138 2.40784e-19)
(1.12276 0.447438 2.67814e-19)
(0.834566 0.34584 2.86281e-19)
(0.523849 0.225957 -4.23804e-19)
(0.187912 0.0849 -8.12459e-20)
(2.63399 0.702066 7.65933e-19)
(2.44156 0.668046 -1.39184e-19)
(2.23244 0.629669 -2.21478e-19)
(2.00665 0.584301 0)
(1.76302 0.530279 0)
(1.49989 0.466491 0)
(1.21524 0.391468 -3.89865e-20)
(0.906697 0.303094 3.70285e-19)
(0.571508 0.198352 3.79138e-19)
(0.206087 0.0746258 -3.08587e-19)
(2.7758 0.572341 -1.19322e-18)
(2.57551 0.545252 -1.48106e-18)
(2.35788 0.514525 -3.03022e-22)
(2.12262 0.477946 -1.87692e-19)
(1.86819 0.434184 -9.2886e-20)
(1.59259 0.382322 -1.78868e-19)
(1.29334 0.321129 4.59127e-19)
(0.967502 0.248841 2.14862e-19)
(0.611593 0.162969 5.40062e-19)
(0.221318 0.0613414 2.02867e-19)
(2.88708 0.425742 -1.15696e-18)
(2.68028 0.40563 8.47091e-20)
(2.45578 0.38282 1.64521e-19)
(2.21298 0.355613 1.68261e-20)
(1.95006 0.323054 -3.1443e-19)
(1.66467 0.284472 -1.74235e-19)
(1.35399 0.238941 -6.21243e-19)
(1.01465 0.185143 1.18531e-19)
(0.642614 0.121239 5.14823e-20)
(0.233069 0.0456135 -6.26834e-21)
(2.96281 0.265186 1.01335e-19)
(2.75123 0.252354 3.97019e-19)
(2.52191 0.237906 -3.30298e-19)
(2.27396 0.220742 3.63043e-19)
(2.00525 0.2003 3.72563e-19)
(1.71324 0.176179 4.91917e-19)
(1.39483 0.147812 -6.35764e-19)
(1.04634 0.114392 -3.24426e-19)
(0.663421 0.074811 -4.585e-20)
(0.24092 0.0280956 -3.27009e-19)
(3.00054 0.0935791 5.81803e-19)
(2.78614 0.0887879 -1.86141e-19)
(2.55427 0.0834464 4.79577e-19)
(2.30369 0.0771526 -3.10696e-19)
(2.0321 0.0697302 2.66481e-19)
(1.73681 0.0610639 6.05438e-19)
(1.41459 0.05098 3.78898e-19)
(1.06163 0.0392357 3.0936e-19)
(0.673405 0.0255072 2.65871e-19)
(0.244657 0.0095074 5.43633e-19)
(0.239099 0.450757 -4.6711e-19)
(0.203559 0.417093 -1.84605e-19)
(0.168082 0.380124 1.38312e-19)
(0.134656 0.342603 -4.20199e-19)
(0.104989 0.306576 -1.2008e-19)
(0.0780844 0.269321 6.91633e-19)
(0.0516825 0.222897 3.36075e-19)
(0.0258076 0.158219 -1.59252e-19)
(0.00702163 0.0794343 1.12293e-19)
(-0.00114882 0.0223832 -6.0476e-20)
(0.28848 0.542918 4.09537e-19)
(0.248581 0.506168 4.55579e-19)
(0.208044 0.464183 -1.2612e-20)
(0.167766 0.417296 -1.31445e-19)
(0.131111 0.369351 -3.09415e-19)
(0.100595 0.321892 8.26471e-20)
(0.073422 0.268638 2.22853e-19)
(0.0457912 0.196293 1.6351e-19)
(0.0182598 0.101483 -5.86949e-19)
(0.00274987 0.0287452 -1.23106e-19)
(0.35976 0.631747 -5.98861e-19)
(0.313872 0.591664 -4.79787e-19)
(0.268036 0.54589 2.55633e-19)
(0.221364 0.492672 1.36727e-19)
(0.175825 0.433073 -5.09745e-21)
(0.136295 0.371051 -1.38741e-19)
(0.102126 0.304957 -2.80568e-20)
(0.0684071 0.224389 -5.56033e-19)
(0.0336025 0.125657 -2.69486e-19)
(0.00759704 0.0376501 -3.9119e-20)
(0.454408 0.716581 5.01835e-19)
(0.400224 0.672476 1.64642e-19)
(0.346492 0.62156 -1.48606e-19)
(0.292308 0.562622 6.39224e-20)
(0.237788 0.494662 -4.31785e-22)
(0.186604 0.420153 1.68782e-21)
(0.140109 0.340109 -1.30629e-19)
(0.0954463 0.24986 3.80435e-19)
(0.0513926 0.147468 -4.19879e-19)
(0.0135449 0.0475942 -6.55974e-20)
(0.572145 0.796713 -2.82005e-19)
(0.507979 0.748716 -8.89886e-20)
(0.443675 0.691984 -1.42243e-20)
(0.379034 0.62639 -6.84585e-20)
(0.313752 0.551267 5.76062e-20)
(0.249669 0.467511 5.11334e-20)
(0.188372 0.376302 -2.73165e-20)
(0.129306 0.276367 -2.83036e-19)
(0.0724959 0.167458 2.18765e-19)
(0.0208895 0.0567664 8.74691e-20)
(0.709459 0.869998 6.4407e-19)
(0.634402 0.818712 3.22217e-19)
(0.558156 0.756663 2.05724e-19)
(0.48087 0.684725 4.81149e-20)
(0.402414 0.603013 1.52899e-19)
(0.32386 0.511966 7.6738e-20)
(0.24645 0.412232 1.41716e-19)
(0.170845 0.303721 5.78153e-20)
(0.0980304 0.186687 -1.6537e-20)
(0.0299778 0.0649907 -1.37046e-20)
(0.86198 0.934116 -1.19648e-19)
(0.775504 0.88001 -8.28952e-19)
(0.686669 0.813493 -7.99415e-20)
(0.595694 0.736362 -4.72437e-20)
(0.502534 0.649266 -1.79735e-20)
(0.4081 0.552445 1.50327e-19)
(0.313456 0.446126 -4.3896e-20)
(0.219691 0.330297 6.53041e-20)
(0.128278 0.205017 -1.4462e-19)
(0.0408936 0.0724756 -1.15607e-21)
(1.02663 0.985456 -8.86283e-19)
(0.928387 0.929141 5.94008e-20)
(0.826588 0.859301 -2.31541e-19)
(0.721408 0.778568 -7.36805e-20)
(0.612725 0.687769 -2.57123e-20)
(0.501426 0.586898 -7.50422e-20)
(0.388504 0.475782 5.64662e-20)
(0.275149 0.354131 6.03978e-20)
(0.162974 0.221528 -9.82506e-21)
(0.05354 0.0791144 -1.03948e-19)
(1.20378 1.0175 1.23866e-19)
(1.0934 0.960584 5.24594e-19)
(0.978175 0.889436 1.56751e-21)
(0.858162 0.80734 -3.06405e-20)
(0.733101 0.715146 1.51704e-19)
(0.603861 0.612445 -3.48266e-19)
(0.471385 0.498687 -2.44748e-19)
(0.336821 0.373176 3.56331e-19)
(0.201768 0.234995 1.44285e-19)
(0.0677019 0.0845321 -3.63464e-20)
(1.40047 1.01515 7.4109e-19)
(1.27796 0.962091 3.2442e-19)
(1.14775 0.895171 5.56684e-20)
(1.01082 0.816262 -1.96045e-19)
(0.867234 0.726425 -1.65561e-20)
(0.717879 0.625275 4.66123e-19)
(0.563573 0.511969 -2.68456e-19)
(0.405338 0.38546 -1.84571e-19)
(0.244706 0.244317 3.35909e-19)
(0.083116 0.0884429 -6.11114e-21)
(0.972373 0.0959235 9.17403e-21)
(1.15114 0.142411 1.43196e-21)
(1.20871 0.189967 -2.41536e-20)
(1.31425 0.170667 0)
(1.35668 0.158002 5.8595e-21)
(1.269 0.237548 -3.45999e-20)
(1.12282 0.386603 -6.25723e-20)
(0.945824 0.542822 -3.459e-20)
(0.709855 0.646947 -2.79636e-19)
(0.415779 0.594093 4.64334e-19)
(0.975448 0.0760262 1.87117e-19)
(1.14423 0.115811 -3.10769e-20)
(1.2033 0.161063 1.98884e-21)
(1.30703 0.155287 1.24448e-20)
(1.35703 0.160232 3.43349e-21)
(1.28867 0.270297 -2.67605e-21)
(1.1534 0.435699 6.28986e-20)
(0.991333 0.605169 0)
(0.760483 0.725605 7.40218e-19)
(0.479154 0.685113 -5.42269e-19)
(0.977582 0.0565144 -1.13854e-19)
(1.14086 0.0902226 8.20415e-21)
(1.2014 0.132881 7.70756e-20)
(1.30564 0.138751 2.01272e-20)
(1.36021 0.161174 -1.81743e-20)
(1.30919 0.30041 -3.54853e-20)
(1.18761 0.483101 2.72988e-20)
(1.04249 0.665954 4.34523e-20)
(0.822814 0.801759 -1.08364e-21)
(0.564631 0.772799 -4.29153e-19)
(0.978976 0.0372125 -8.44229e-20)
(1.14063 0.0649737 1.60653e-20)
(1.20338 0.105261 7.23065e-20)
(1.30964 0.121431 2.60134e-20)
(1.36719 0.161568 -2.1132e-20)
(1.3304 0.328349 -1.82706e-20)
(1.22552 0.528286 2.62546e-20)
(1.09959 0.724147 2.63866e-20)
(0.900164 0.873198 -5.21213e-19)
(0.674021 0.855217 -1.79641e-19)
(0.980235 0.0180242 4.04466e-20)
(1.14335 0.0395066 -4.79915e-20)
(1.20899 0.0781285 -6.37365e-20)
(1.31781 0.103799 1.79454e-20)
(1.37676 0.162365 0)
(1.35193 0.354713 0)
(1.26697 0.570731 4.96013e-20)
(1.16366 0.778423 -2.79335e-20)
(0.995212 0.937468 -1.15967e-19)
(0.805398 0.930721 -5.75239e-20)
(0.981996 -0.00139735 3.82457e-21)
(1.14879 0.0134875 5.44378e-20)
(1.21763 0.0514791 -1.94713e-19)
(1.32893 0.086558 -7.06612e-20)
(1.3875 0.164222 -5.60687e-21)
(1.37356 0.379739 9.07353e-20)
(1.31201 0.609688 1.31869e-19)
(1.23613 0.827095 -1.79743e-20)
(1.1084 0.99276 -3.82692e-20)
(0.953922 0.998622 3.44578e-22)
(0.98418 -0.0216206 1.7246e-21)
(1.15645 -0.01329 2.38093e-20)
(1.22852 0.0253711 -6.04382e-20)
(1.34196 0.0703563 -1.36101e-19)
(1.39839 0.167355 1.30993e-20)
(1.39541 0.403201 7.81656e-21)
(1.36108 0.644129 -5.77236e-20)
(1.31814 0.868505 -1.2428e-19)
(1.23778 1.03874 -2.49975e-20)
(1.11389 1.05902 -9.83114e-19)
(0.985408 -0.0430293 1.52645e-20)
(1.16562 -0.0410306 -1.22719e-19)
(1.24078 1.99014e-05 1.20306e-19)
(1.35591 0.0559997 9.31058e-20)
(1.40816 0.172292 5.42092e-21)
(1.41723 0.4248 -1.08405e-19)
(1.41405 0.67308 -7.15072e-21)
(1.40911 0.901664 -9.58733e-20)
(1.37967 1.07621 1.11488e-20)
(1.27976 1.11132 2.885e-18)
(0.983862 -0.0651696 -8.46092e-20)
(1.17569 -0.0698531 7.05957e-20)
(1.25359 -0.0244952 1.78317e-19)
(1.37009 0.0436558 -1.03775e-19)
(1.41718 0.178835 -1.85605e-19)
(1.44046 0.444349 9.23919e-21)
(1.47226 0.6964 1.54375e-19)
(1.50914 0.927212 -5.31364e-19)
(1.53104 1.10644 -2.67866e-20)
(1.44817 1.15249 -6.47108e-18)
(0.979462 -0.0881521 4.18821e-21)
(1.18655 -0.099684 1.27265e-19)
(1.26619 -0.0481576 5.61758e-20)
(1.38324 0.0353253 -2.48747e-19)
(1.42302 0.190946 -2.10104e-19)
(1.46261 0.465498 -5.86105e-20)
(1.53152 0.717792 5.18759e-20)
(1.61211 0.948445 -2.49042e-19)
(1.68379 1.12905 -1.09207e-18)
(1.61541 1.17164 -7.9535e-18)
(0.972074 -0.119555 -1.4493e-20)
(1.19904 -0.139439 -2.9255e-20)
(1.27788 -0.0807943 -6.91468e-20)
(1.39656 0.0199329 1.12407e-19)
(1.43113 0.188657 1.77147e-19)
(1.49377 0.461646 -5.0786e-20)
(1.61233 0.707647 -1.34956e-19)
(1.75418 0.937748 -1.22603e-18)
(1.90276 1.13118 -1.60355e-18)
(1.8991 1.20802 3.28816e-18)
(0.961551 -0.158224 -4.12031e-19)
(1.21426 -0.18935 7.40489e-21)
(1.2834 -0.127271 -5.10723e-20)
(1.40049 -0.00180573 2.87994e-19)
(1.41786 0.167276 3.24967e-19)
(1.49808 0.419251 -5.80336e-20)
(1.66948 0.644174 -7.98455e-20)
(1.88131 0.863579 -3.40973e-19)
(2.13956 1.07009 2.55634e-19)
(2.28428 1.16013 -3.22728e-19)
(0.949752 -0.198209 -2.77665e-20)
(1.23617 -0.239833 -5.36469e-20)
(1.28215 -0.170977 2.96181e-20)
(1.39883 -0.0242676 2.78897e-20)
(1.39952 0.154096 1.75139e-33)
(1.47844 0.364871 2.37533e-21)
(1.68402 0.558741 -2.09887e-33)
(1.95066 0.757909 1.8659e-19)
(2.30251 0.955503 -9.32272e-19)
(2.5873 1.05788 -6.29416e-19)
(0.937568 -0.243924 1.43096e-18)
(1.26487 -0.28029 -7.62792e-34)
(1.25582 -0.219746 -3.90267e-20)
(1.28456 -0.0326328 -2.23484e-19)
(1.27729 0.139444 -4.5341e-19)
(1.39574 0.297779 -9.07723e-19)
(1.62293 0.457848 -5.12529e-33)
(1.93132 0.629764 -1.73943e-18)
(2.32688 0.80141 -3.17426e-18)
(2.75407 0.902201 1.67614e-18)
(0.927383 -0.300495 0)
(1.31052 -0.324752 -1.71292e-33)
(1.11784 -0.203802 0)
(1.11726 -0.027447 0)
(1.12902 0.112947 0)
(1.26254 0.230036 0)
(1.49236 0.353893 -8.20795e-33)
(1.81662 0.490603 0)
(2.21435 0.633783 -3.40122e-19)
(2.73542 0.71174 1.25831e-18)
(0.916333 -0.360577 1.15911e-19)
(1.25329 -0.326214 -4.65272e-19)
(0.963025 -0.171762 -5.5023e-20)
(0.941435 -0.0244828 0)
(0.963015 0.081779 0)
(1.09286 0.163813 6.15854e-20)
(1.30825 0.252914 1.19289e-18)
(1.61697 0.35411 -1.95122e-19)
(1.99725 0.465934 -4.95321e-19)
(2.53272 0.52033 4.6718e-18)
(0.883406 -0.405272 -1.52008e-17)
(1.09241 -0.279392 1.08294e-18)
(0.794484 -0.129146 -7.27611e-20)
(0.75202 -0.0203931 -8.43783e-20)
(0.777567 0.0522932 -5.03409e-19)
(0.891584 0.103576 -7.70949e-19)
(1.07764 0.160637 -1.0548e-18)
(1.34664 0.228694 -1.38958e-18)
(1.6879 0.305993 -1.61057e-18)
(2.18005 0.344392 3.61699e-18)
(0.80895 -0.394502 -4.13576e-19)
(0.886755 -0.207453 -1.21654e-18)
(0.606389 -0.0822532 -1.25989e-19)
(0.552784 -0.0149978 -8.3557e-20)
(0.574905 0.0276451 -9.45474e-34)
(0.663072 0.054084 9.52492e-20)
(0.806333 0.0842183 -1.49291e-32)
(1.01654 0.122773 -1.93412e-19)
(1.2926 0.167254 2.9873e-19)
(1.69932 0.192055 7.05582e-19)
(0.66422 -0.288846 3.42574e-17)
(0.61831 -0.108016 -3.14028e-18)
(0.393704 -0.0349193 -2.41182e-19)
(0.34098 -0.00730676 -1.49053e-19)
(0.355459 0.00935041 3.88955e-19)
(0.411392 0.0182117 7.8125e-19)
(0.501709 0.0290416 7.93517e-19)
(0.636889 0.0448238 4.59698e-19)
(0.820796 0.0634389 -1.89924e-19)
(1.10155 0.076222 3.56837e-18)
(0.336825 -0.0768274 5.58785e-19)
(0.261866 -0.002309 -6.76676e-33)
(0.144486 0.0190201 -3.05374e-19)
(0.120838 0.00325641 0)
(0.124132 -0.00228051 0)
(0.142202 -0.00536928 9.74208e-20)
(0.172564 -0.00622189 9.21451e-35)
(0.220343 -0.00416082 -1.23583e-19)
(0.288132 -0.00161493 -2.82382e-19)
(0.398997 0.00331932 1.00127e-18)
(2.00191 1.0961 -1.78886e-18)
(2.23895 1.07823 -2.30471e-18)
(2.44199 1.02894 0)
(2.63702 0.952391 -7.58765e-19)
(2.82355 0.852436 -1.78458e-18)
(2.99274 0.732346 -2.24942e-18)
(3.13708 0.595016 -4.77527e-19)
(3.25055 0.442685 1.26932e-18)
(3.32826 0.27696 -3.54785e-18)
(3.36766 0.0986992 1.35667e-18)
(2.4985 1.14159 2.67195e-19)
(2.73042 1.08164 1.39661e-18)
(2.92376 1.00399 1.43835e-19)
(3.10665 0.909659 6.75485e-19)
(3.28054 0.800564 -1.10365e-18)
(3.43993 0.678263 -4.99906e-18)
(3.58095 0.543973 2.46716e-18)
(3.70047 0.399296 1.27017e-17)