/*--------------------------------*- C++ -*----------------------------------*\
  =========                 |
  \\      /  F ield         | OpenFOAM: The Open Source CFD Toolbox
   \\    /   O peration     | Website:  https://openfoam.org
    \\  /    A nd           | Version:  13
     \\/     M anipulation  |
\*---------------------------------------------------------------------------*/
FoamFile
{
    format      ascii;
    class       volScalarField;
    location    "0.81";
    object      strainRateViscosityModel:nu;
}
// * * * * * * * * * * * * * * * * * * * * * * * * * * * * * * * * * * * * * //

dimensions      [0 2 -1 0 0 0 0];

internalField   nonuniform List<scalar> 
440
(
9.41954
8.96973
8.54453
8.04239
7.5862
9.68995
9.35817
8.98178
8.48004
7.87556
9.80074
9.53084
9.15877
8.58509
7.84825
9.84962
9.61817
9.25861
8.64755
7.86606
9.86917
9.65606
9.30591
8.68093
7.90878
1.30783
1.79075
2.05002
2.30008
2.36417
3.38641
3.3022
3.31615
3.4242
3.49491
5.89255
5.27138
4.92755
4.72728
4.75691
7.76957
6.99346
6.42029
5.9046
5.82694
8.82065
8.15138
7.55211
6.91818
6.8715
1.85132
0.84625
0.422844
0.162792
0.170119
2.61546
0.907556
0.368389
0.132618
0.0574549
3.51158
1.14662
0.303321
0.0955656
0.0161463
4.09108
1.43428
0.276474
0.0530798
0.0656029
4.60387
1.75158
0.322127
0.0115271
0.175664
4.2293
1.73984
0.305486
0.0722253
0.28339
3.7117
1.82477
0.631978
0.309589
0.415193
4.91989
3.20835
1.24191
0.556973
0.52952
7.00947
4.2882
1.91764
0.899348
0.650475
8.27284
5.07621
2.49629
1.30389
0.826643
2.84821
3.68254
4.61964
5.50549
6.14873
3.68375
3.69667
3.77228
3.85227
3.36792
8.22649
8.08653
7.7993
7.38543
6.34646
9.0529
8.99236
8.85903
8.62148
8.16015
9.60671
9.56995
9.48702
9.33805
9.1188
7.50321
8.01244
8.55946
9.01088
9.46417
7.794
8.45167
8.98715
9.37788
9.70863
7.779
8.55906
9.15943
9.54077
9.80944
7.81628
8.62756
9.25739
9.62275
9.85359
7.89134
8.67366
9.30535
9.65743
9.87034
2.53365
2.47467
2.27473
2.12035
2.04934
3.48038
3.43244
3.47312
3.69329
4.2468
4.63578
4.65907
5.04958
5.59938
6.45186
5.68337
5.82551
6.49724
7.18781
8.04116
6.75306
6.84156
7.58029
8.24268
8.93536
0.211019
0.0614337
0.283474
0.872014
2.02763
0.183125
0.07701
0.228742
0.889842
2.66067
0.163895
0.0797326
0.171303
1.08146
3.44019
0.152094
0.0626939
0.156254
1.38584
3.9415
0.154679
0.0680635
0.248655
1.73419
4.36406
0.203823
0.106016
0.272269
1.86895
4.10044
0.33615
0.123877
0.277989
1.81441
3.86185
0.666868
0.242668
0.773898
3.03747
4.90835
2.27505
0.814538
1.50883
4.1624
6.96072
5.0574
2.53728
2.41942
5.0377
8.27914
5.94688
5.26594
4.40224
3.51034
2.77978
3.52244
3.99122
3.97104
3.87639
3.76366
6.32105
7.35232
7.77901
8.06768
8.21846
8.12121
8.59992
8.84943
8.98861
9.05202
9.11694
9.33781
9.48741
9.57051
9.60696
9.31089
7.91688
1.39867
3.63024
7.73683
9.08188
7.44084
3.20601
1.64077
6.78908
8.39873
6.57775
4.20854
1.00359
4.14773
6.81572
5.0948
3.45532
1.70072
1.03873
4.50391
3.14532
2.03881
1.37798
0.460065
2.59738
1.61865
1.00252
0.797128
0.926723
1.45647
0.779224
0.580097
0.613417
0.68608
0.801271
0.406445
0.591503
0.760286
0.833546
0.305352
0.508853
0.88621
1.052
1.11338
0.163062
0.935546
1.28165
1.51801
1.57253
0.190514
0.362954
0.710545
0.777647
0.730481
0.396059
0.501761
0.57963
0.637025
0.62117
0.615205
0.648899
0.465728
0.493612
0.508104
0.967361
0.797699
0.418811
0.354627
0.392784
1.33164
0.847623
0.424775
0.237963
0.276256
1.10578
0.858714
1.1239
1.10855
0.995788
0.283647
0.4722
0.866342
0.920512
0.843962
9.19119
8.83868
7.75886
5.7303
3.55978
8.58732
7.72295
5.85164
3.49151
0.865974
0.964565
0.85823
1.02679
1.62021
2.65826
0.813094
0.767092
0.70363
0.824475
1.52671
1.05945
1.01069
0.847451
0.552916
0.744823
1.38465
1.34764
1.14973
0.798056
0.228738
1.85691
1.81023
1.55806
1.24003
0.59841
7.73637
3.62718
1.39995
7.91512
9.31103
6.78527
1.64058
3.20265
7.43774
9.08252
4.13436
1.01086
4.19439
6.57316
8.40031
1.03683
1.70536
3.43372
5.0857
6.82222
0.476032
1.37625
2.01481
3.12771
4.52677
1.31225
0.541476
0.55078
0.452781
0.1758
0.67839
0.290648
0.468549
0.519309
0.485514
0.400524
0.152772
0.381708
0.621186
0.804032
0.291071
0.0688859
0.341658
0.77399
1.22394
0.246588
0.0457385
0.320056
0.859615
1.58929
5.48137
2.46052
1.03482
0.959733
1.14174
2.88791
1.08752
0.7242
0.554739
0.252256
3.56822
5.73582
7.76004
8.83921
9.19134
0.843675
3.47223
5.84505
7.72158
8.58717
)
;

boundaryField
{
    left
    {
        type            calculated;
        value           nonuniform List<scalar> 
17
(
0.458704
1.12409
2.18637
3.91004
6.58052
0.304863
0.189013
0.138274
0.143674
0.214176
2.95944
2.06222
1.34008
0.821637
0.500439
6.97885
4.57978
)
;
    }
    right
    {
        type            calculated;
        value           nonuniform List<scalar> 
17
(
0.996081
0.845414
0.732622
0.624111
0.51057
0.392227
0.269723
0.156387
0.045801
0.0144259
0.0804395
0.226165
0.347213
0.469526
0.563237
0.663524
0.81861
)
;
    }
    down
    {
        type            calculated;
        value           nonuniform List<scalar> 
20
(
5.99524
2.99983
1.14437
1.04227
1.8531
4.27033
6.38392
8.13149
9.01583
9.30929
9.30912
9.01519
8.12999
6.37987
4.26418
1.83174
0.933274
1.19034
1.16546
1.04288
)
;
    }
    up
    {
        type            calculated;
        value           nonuniform List<scalar> 
20
(
8.54862
5.40422
2.72575
1.45401
0.893011
9.69562
9.66615
9.59857
9.47421
9.2934
9.2964
9.47647
9.60018
9.66726
9.69603
5.70531
3.14828
2.65948
5.39351
8.56555
)
;
    }
    cylinder
    {
        type            calculated;
        value           nonuniform List<scalar> 
40
(
1.37435
3.59141
6.11884
7.96031
8.95703
9.50512
9.74576
9.84079
9.88145
9.89745
9.54743
9.76283
9.84855
9.88495
9.89848
2.28784
4.52456
6.69879
8.23417
9.06984
3.04372
1.85053
1.09461
0.446881
0.605574
9.51906
9.33191
8.74236
7.26983
4.98627
9.51889
9.33117
8.7403
7.26158
4.95769
2.96599
1.73358
1.07397
0.66744
0.103211
)
;
    }
    defaultFaces
    {
        type            empty;
    }
}


// ************************************************************************* //
