/*--------------------------------*- C++ -*----------------------------------*\
  =========                 |
  \\      /  F ield         | OpenFOAM: The Open Source CFD Toolbox
   \\    /   O peration     | Website:  https://openfoam.org
    \\  /    A nd           | Version:  13
     \\/     M anipulation  |
\*---------------------------------------------------------------------------*/
FoamFile
{
    format      ascii;
    class       surfaceScalarField;
    location    "0.525";
    object      phi;
}
// * * * * * * * * * * * * * * * * * * * * * * * * * * * * * * * * * * * * * //

dimensions      [0 3 -1 0 0 0 0];

internalField   nonuniform List<scalar> 
823
(
0.0235968
-0.0630115
0.0394147
0.0652439
-0.219149
0.177502
0.10576
-0.285949
0.245433
0.140387
-0.301426
0.266799
-0.294675
0.262523
0.172539
0.030464
-0.0934755
0.0735947
-0.26228
0.11149
-0.323844
0.144411
-0.334347
-0.328304
0.17804
0.0338374
-0.127313
0.0722016
-0.300644
0.100694
-0.352336
0.122415
-0.356069
-0.345326
0.139437
0.0342006
-0.161514
0.0653348
-0.331778
0.0848363
-0.371837
0.0980796
-0.369312
-0.357477
0.11023
0.0289947
-0.190508
0.048024
-0.350807
0.054847
-0.37866
0.0578978
-0.372363
0.0595678
-0.359147
-0.00119731
-0.00248932
0.00368663
0.0225246
-0.040052
0.0163302
0.0635265
-0.0646316
0.0236297
0.111419
-0.0739865
0.026094
-0.078531
0.163471
0.0264792
0.00152641
-0.00401573
0.0287384
-0.067264
0.0718697
-0.107763
0.12107
-0.123187
-0.130572
0.173111
0.00606914
-0.0100849
0.0386117
-0.0998065
0.084552
-0.153703
0.135168
-0.173803
-0.181182
0.185778
0.0119249
-0.0220097
0.0496298
-0.137511
0.0968892
-0.200963
0.146509
-0.223422
-0.22611
0.191437
0.017405
0.0573952
0.101865
0.145242
0.181655
0.3355
-0.365557
0.193528
0.387574
-0.181585
0.12951
0.402524
-0.0983898
0.0834398
0.403279
-0.0506462
0.0498918
-0.0124777
0.0182037
0.328115
-0.52056
0.383062
-0.236532
0.400389
-0.115717
0.403115
-0.053373
-0.00876706
0.314137
-0.648919
0.373148
-0.295543
0.394465
-0.137034
0.401087
-0.0599953
-0.00913292
0.295197
-0.752679
0.357406
-0.357753
0.384645
-0.164273
0.397169
-0.0725191
-0.0156035
0.274493
-0.845517
0.336398
-0.419658
0.37105
-0.198925
0.391315
-0.0927846
-0.0301383
0.754477
-0.667056
-0.932937
0.671543
-0.336724
0.639541
-0.166923
0.627782
-0.0810258
-0.026708
0.773041
-0.467599
-0.972498
0.687224
-0.250907
0.650375
-0.130074
0.634187
-0.064838
-0.0215262
0.794217
-0.289459
-0.972357
0.704924
-0.161614
0.66066
-0.0858089
0.639692
-0.04387
-0.0146996
0.801293
-0.118968
-0.971784
0.710657
-0.0709782
0.664145
-0.039297
0.64102
-0.0207455
-0.00700347
0.707536
-0.826504
0.636558
0.597261
0.576515
0.925332
0.0437674
-0.909531
0.930091
0.105472
0.948109
0.121419
0.931489
0.194661
0.171091
0.865787
0.0283403
-0.85036
0.888816
0.0824428
0.913617
0.0966181
0.951285
0.156993
0.149877
0.824479
0.0154738
-0.811613
0.852892
0.0540307
0.881794
0.0677153
0.930436
0.108351
0.107956
0.795436
0.00259281
-0.782555
0.82733
0.0221371
0.86313
0.0319155
0.91885
0.0526304
0.0550226
0.664798
-0.662205
0.686935
0.718851
0.771481
0.134092
0.270562
-0.224331
-0.180323
0.0924162
0.280049
-0.238374
0.0541514
0.292582
-0.254317
0.0196956
0.291925
-0.257469
0.196498
-0.176802
0.123031
0.307821
-0.16029
0.085503
0.317577
0.0490908
0.328994
0.0171046
0.323911
0.213602
0.0854067
0.334804
-0.11239
0.0569142
0.34607
0.0282117
0.357696
0.00513705
0.346986
0.218739
0.0357966
0.35174
-0.0527321
0.0176083
0.364258
0.00104843
0.374256
-0.0082461
0.35628
0.210493
-0.0129488
0.00554172
-0.0210538
-0.0254581
-0.0199849
0.192699
0.0750966
-0.239716
-0.0280796
0.143373
0.0785237
-0.0291978
0.091364
0.0826569
-0.030648
0.0381518
0.0847272
-0.031515
0.0619929
-0.0238412
0.185217
0.121263
-0.231383
0.137448
0.126292
0.087169
0.132936
0.0363049
0.135591
0.0982978
0.164179
0.16456
-0.207476
0.120614
0.169858
0.0755222
0.178028
0.0304579
0.180656
0.128756
0.157062
0.200332
-0.192834
0.117277
0.209642
0.0733265
0.221978
0.0292872
0.224695
0.158043
0.112603
-0.136603
0.0838719
0.0515334
0.0187592
0.408388
0.0271643
-0.0395728
0.410355
0.0657065
-0.067673
0.400162
0.107263
-0.0970698
0.353134
0.170883
-0.123856
0.309716
-0.196298
0.405757
0.0173866
0.405881
0.0655825
0.393093
0.120051
0.348746
0.215231
0.427079
0.400713
0.0126535
0.396987
0.0693079
0.379799
0.13724
0.339542
0.255487
0.559145
0.393407
0.0152262
0.383796
0.0789184
0.36273
0.158306
0.32721
0.291007
0.693521
0.384244
0.026962
0.366673
0.0964895
0.33872
0.186259
0.293476
0.33625
0.850395
0.611306
0.0196765
0.624314
0.0834816
0.647175
0.163398
0.69643
0.286995
0.672124
0.8747
0.615545
0.00815237
0.635279
0.0637468
0.668725
0.129953
0.735083
0.220637
0.495159
0.912048
0.61944
-0.00726763
0.644513
0.0386739
0.685011
0.0894552
0.758953
0.146695
0.318946
0.935165
0.621181
-0.0244287
0.649569
0.0102865
0.694643
0.0443809
0.771035
0.070303
0.151474
0.938507
0.579592
0.589878
0.634259
0.704562
0.856036
0.903924
-0.209546
0.90156
-0.157926
0.897936
-0.108766
0.900586
-0.0553821
-0.0034039
0.883921
-0.181419
0.861729
-0.135734
0.846027
-0.0930638
0.844136
-0.0534907
-0.00962832
0.881715
-0.127968
0.845285
-0.0993042
0.821543
-0.0693217
0.810026
-0.0419732
-0.0112157
0.874309
-0.0637704
0.827664
-0.0526586
0.797765
-0.0394233
0.782341
-0.0265487
-0.01143
0.792266
0.739607
0.700184
0.673635
0.0480911
0.22936
-0.277451
0.0629887
0.430646
-0.445544
0.055878
0.466566
-0.459455
0.0442782
0.458161
-0.446561
0.419754
0.0351505
-0.410627
0.0838505
0.14551
0.142775
0.371722
0.170598
0.438742
0.18267
0.446089
0.430739
0.171685
0.084744
0.0607656
0.178632
0.277835
0.242524
0.374849
0.288773
0.39984
0.409419
0.310093
0.0546689
0.00609662
0.14907
0.183433
0.234292
0.289628
0.305886
0.328246
0.335504
0.379802
0.021294
-0.0151974
0.086996
0.117731
0.165089
0.211535
0.238274
0.255061
0.259147
0.314631
0.00232188
-0.0175193
0.0413636
0.0786895
0.10201
0.150888
0.171103
0.185968
0.198171
0.23208
-0.00346732
-0.014052
0.0241012
0.051121
0.0741453
0.100844
0.135939
0.124174
0.137322
0.196788
-0.00403039
-0.0100216
0.0193565
0.0277341
0.0629625
0.0572381
0.116532
0.0706043
0.0799081
0.173945
-0.00356497
-0.00645659
0.0183733
0.00579585
0.0590897
0.0165217
0.108152
0.0215424
0.0259215
0.162138
-0.00276996
0.019356
0.0595075
0.107144
0.159545
0.287555
0.403772
-0.459247
0.330539
0.0702974
-0.113282
0.357453
-0.0155378
-0.0113757
0.377069
-0.028892
0.00927622
-0.0199336
0.00511755
0.303899
0.296662
0.353867
0.0203294
0.374461
-0.0361318
0.385921
-0.0403521
-0.026685
0.318841
0.151766
0.368764
-0.0295936
0.386563
-0.0539309
0.392832
-0.0466211
-0.027351
0.330749
-0.0168451
0.380278
-0.079123
0.395523
-0.0691757
0.398085
-0.0491832
-0.0238519
0.336228
0.386615
0.400879
0.401588
0.427719
0.0903979
-0.518117
0.419953
0.00776575
0.42399
-0.00403708
0.430027
-0.00603655
-0.00252584
0.617007
-0.985856
0.51149
0.496077
0.499317
0.0978541
-0.00359613
-0.094258
0.146578
-0.0487237
0.237771
-0.0911934
0.386746
-0.148974
-0.131371
0.229908
-0.198353
0.352869
0.571769
0.802596
0.134328
-0.153638
0.184147
-0.164837
0.101988
-0.163106
0.195446
0.0657591
-0.175441
0.21167
0.0266467
-0.18046
0.219572
-0.129492
0.156139
0.189027
-0.114292
-0.228373
0.14433
-0.118409
0.0931924
-0.124303
0.0394736
-0.126741
-0.0900186
0.184117
-0.066423
-0.231985
0.136008
-0.0702998
0.0862793
-0.0745747
0.0359416
-0.0764035
-0.054077
0.194674
-0.0191548
-0.241942
0.145088
-0.0207139
0.0926381
-0.0221245
0.0388892
-0.0226545
-0.0151878
0.195883
-0.243117
0.145971
0.0931985
0.0390289
0.0792649
-0.389768
-0.100123
0.0468214
-0.414117
0.0140687
-0.426702
-0.00967147
-0.421804
-0.287123
0.165304
-0.345354
-0.209719
0.113308
-0.362122
0.0619156
-0.375309
0.0185915
-0.37848
-0.268531
0.196135
-0.294537
-0.246952
0.141035
-0.307021
0.0859544
-0.320229
0.0340032
-0.326529
-0.234528
0.209983
-0.245179
-0.259342
0.155283
-0.252321
0.0989917
-0.263938
0.0424806
-0.270017
-0.192047
0.195497
-0.256529
0.138622
0.0863535
0.0359085
0.384336
0.0647085
-0.0530646
0.364367
0.0542725
-0.0343035
0.336302
0.0341587
-0.00609421
0.307582
-0.0246422
0.0533626
-0.242528
0.385273
0.393629
0.0670596
0.38294
0.0649614
0.360963
0.0561354
0.335621
0.00069986
-0.135281
0.400984
0.0620553
0.396613
0.069332
0.378737
0.0740119
0.344301
0.0351358
-0.0229653
0.405975
0.05206
0.405772
0.0695353
0.392888
0.086896
0.35067
0.077353
0.0857626
0.408467
0.410329
0.400155
0.353652
0.459083
0.0509685
0.433132
0.0259508
0.432237
0.000895252
0.463962
-0.0317255
-0.188599
0.652561
0.507955
0.499602
0.494403
0.51604
0.712714
0.515767
0.136794
0.39413
0.121637
0.261151
0.132979
0.147105
0.114046
0.0528473
0.592979
0.455275
0.341302
0.245629
)
;

boundaryField
{
    left
    {
        type            calculated;
        value           nonuniform List<scalar> 
17
(
-0.60402
-0.60402
-0.60402
-0.60402
-0.60402
-0.39598
-0.39598
-0.39598
-0.39598
-0.39598
-0.39598
-0.39598
-0.39598
-0.39598
-0.39598
-0.510051
-0.510051
)
;
    }
    right
    {
        type            calculated;
        value           nonuniform List<scalar> 
17
(
0.432552
0.501909
0.391885
0.392672
0.393498
0.394586
0.395939
0.397553
0.399405
0.401453
0.40364
0.40585
0.624352
0.629005
0.632865
0.633324
0.569512
)
;
    }
    down
    {
        type            calculated;
        value           uniform 0;
    }
    up
    {
        type            calculated;
        value           uniform 0;
    }
    cylinder
    {
        type            calculated;
        value           uniform 0;
    }
    defaultFaces
    {
        type            empty;
    }
}


// ************************************************************************* //
